LAMMPS (15 May 2015)
Reading data file ...
  triclinic box = (-0.107635 -0.0404339 -0.357111) to (41.3876 35.9384 29.5551) with tilt (-0.0672341 -17.0362 -0.0417078)
  5 by 4 by 3 MPI processor grid
  reading atoms ...
  4560 atoms
  reading velocities ...
  4560 velocities
  scanning bonds ...
  3 = max bonds/atom
  scanning angles ...
  3 = max angles/atom
  scanning dihedrals ...
  8 = max dihedrals/atom
  scanning impropers ...
  1 = max impropers/atom
  reading bonds ...
  5040 bonds
  reading angles ...
  7200 angles
  reading dihedrals ...
  10560 dihedrals
  reading impropers ...
  2400 impropers
Finding 1-2 1-3 1-4 neighbors ...
 Special bond factors lj:   0          0          0         
 Special bond factors coul: 0          0          0         
  4 = max # of 1-2 neighbors
  8 = max # of 1-3 neighbors
  20 = max # of 1-4 neighbors
  16 = max # of special neighbors
4560 atoms in group all
720 atoms in group C
480 atoms in group S
1920 atoms in group H
720 atoms in group Si
240 atoms in group Na
240 atoms in group Ba
240 atoms in group O
4560 atoms in group naphthalene
1200 atoms in group fixed
960 atoms in group CO
Setting atom values ...
  720 settings made for charge
Setting atom values ...
  720 settings made for charge
Setting atom values ...
  1920 settings made for charge
Setting atom values ...
  480 settings made for charge
Setting atom values ...
  240 settings made for charge
Setting atom values ...
  240 settings made for charge
Setting atom values ...
  240 settings made for charge
Finding 1-2 1-3 1-4 neighbors ...
 Special bond factors lj:   0          0          0.5       
 Special bond factors coul: 0          0          0.5       
  4 = max # of 1-2 neighbors
  8 = max # of 1-3 neighbors
  20 = max # of 1-4 neighbors
  16 = max # of special neighbors
PPPM initialization ...
  G vector (1/distance) = 0.246499
  grid = 16 16 20
  stencil order = 5
  estimated absolute RMS force accuracy = 0.00242397
  estimated relative force accuracy = 7.2997e-06
  using double precision FFTs
  3d grid and FFT values/proc = 1053 112
Neighbor list info ...
  4 neighbor list requests
  update every 1 steps, delay 0 steps, check yes
  master list distance cutoff = 12
Setting up run ...
Memory usage per processor = 13.288 Mbytes
Step Temp Density PotEng E_vdwl E_tail E_coul E_long Press Volume Xy Xz Yz E_mol E_bond E_angle E_dihed 14[1] 14[2] 14[3] msd[4] msd2[4] msd3[4] msd4[4] naphthal Cella Cellb Cellc CellAlpha CellBeta CellGamma 27[2] 27[3] 28[1] 28[2] 28[3] 
       0          298    1.2509986    2087.5869   -1173.1339   -211.49952    2070.8667    -2308.979    790.88859    44657.537 -0.067234084   -17.036218 -0.041707817     3498.833    1521.0094     935.4334    889.67826    28.379601    18.846571    14.337846 2.3535127e-29 2.3910021e-29 2.7538641e-29 3.294809e-29          298     41.49527    35.978931    34.423473    90.016431    119.66323    90.107069    18.846182    14.337739    28.379557    18.849013    14.339638 
    1000    297.97099    1.2509986    2120.5192   -1131.2731   -211.49952     2072.722   -2309.3534   -422.25312    44657.537 -0.067234084   -17.036218 -0.041707817    3488.4236    1540.0761    925.33857    875.60116    28.379601    18.846571    14.337846   0.17734734   0.17734593   0.14328406   0.14327098    297.97099     41.49527    35.978931    34.423473    90.016431    119.66323    90.107069    18.847265    14.338083    28.383095    18.848739     14.34034 
    2000    299.45258    1.2509986    2051.4971   -1197.4966   -211.49952    2075.4603   -2309.2556   -1530.8373    44657.537 -0.067234084   -17.036218 -0.041707817    3482.7891    1526.2564      964.834    842.57451    28.379601    18.846571    14.337846    0.2407256   0.24071757   0.20502309   0.20485415    299.45258     41.49527    35.978931    34.423473    90.016431    119.66323    90.107069    18.848503    14.336222    28.385803    18.856096    14.330708 
    3000    296.00997    1.2509986     2204.357   -1160.9064   -211.49952    2076.0384   -2308.8803    701.57349    44657.537 -0.067234084   -17.036218 -0.041707817    3598.1053    1580.6371     945.2833    908.66303    28.379601    18.846571    14.337846   0.28924834   0.28924252   0.24631283   0.24621813    296.00997     41.49527    35.978931    34.423473    90.016431    119.66323    90.107069     18.84614    14.338017    28.371178    18.844074    14.339296 
    4000    293.18684    1.2509986    2116.5762   -1187.9735   -211.49952    2068.5186   -2310.0453   -1656.6172    44657.537 -0.067234084   -17.036218 -0.041707817    3546.0763     1541.472    978.66269    881.51144    28.379601    18.846571    14.337846   0.28537268   0.28536835   0.23787226   0.23775965    293.18684     41.49527    35.978931    34.423473    90.016431    119.66323    90.107069    18.845356    14.337408    28.388919    18.845226     14.33638 
    5000    293.59446    1.2509986    2090.2839   -1159.9272   -211.49952    2074.9146   -2309.7241   -227.86209    44657.537 -0.067234084   -17.036218 -0.041707817    3485.0206    1525.1188    932.06663    877.79004    28.379601    18.846571    14.337846   0.29081266   0.29080941   0.23696549   0.23692613    293.59446     41.49527    35.978931    34.423473    90.016431    119.66323    90.107069     18.84795    14.338086    28.380252    18.851086    14.333757 
    6000    292.09076    1.2509986    2061.7377   -1158.8299   -211.49952    2071.3267   -2309.6231    1428.8197    44657.537 -0.067234084   -17.036218 -0.041707817     3458.864    1532.9387     937.4033    844.60098    28.379601    18.846571    14.337846   0.30423106   0.30422334   0.24526344    0.2451783    292.09076     41.49527    35.978931    34.423473    90.016431    119.66323    90.107069    18.846565    14.336649    28.374221    18.849733    14.332144 
    7000    300.64376    1.2509986    2131.9056   -1159.1079   -211.49952     2077.653   -2308.6204    1540.1519    44657.537 -0.067234084   -17.036218 -0.041707817    3521.9809    1549.3231    938.05639    884.69478    28.379601    18.846571    14.337846   0.32368487   0.32368429   0.27428372   0.27416984    300.64376     41.49527    35.978931    34.423473    90.016431    119.66323    90.107069    18.846869    14.337432    28.387029    18.847604    14.332151 
    8000    294.92223    1.2509986    2173.1408   -1174.6453   -211.49952    2082.4585   -2309.3586   -632.57598    44657.537 -0.067234084   -17.036218 -0.041707817    3574.6862    1559.6075    974.88955     884.6544    28.379601    18.846571    14.337846   0.33587292   0.33586191   0.27749662   0.27734687    294.92223     41.49527    35.978931    34.423473    90.016431    119.66323    90.107069     18.84702    14.338919    28.368371    18.846865    14.344112 
    9000    295.63069    1.2509986    2168.7954   -1183.0964   -211.49952    2072.8245   -2309.2784    180.68615    44657.537 -0.067234084   -17.036218 -0.041707817    3588.3458    1579.1962    939.94826    913.12172    28.379601    18.846571    14.337846   0.31476229   0.31476058    0.2552209   0.25509131    295.63069     41.49527    35.978931    34.423473    90.016431    119.66323    90.107069    18.847328    14.337231    28.382659    18.846149    14.329066 
   10000    295.20904    1.2509986    2156.9536   -1181.3457   -211.49952    2075.2668    -2309.706   -16.755702    44657.537 -0.067234084   -17.036218 -0.041707817    3572.7384    1570.1233    970.20648    883.14732    28.379601    18.846571    14.337846   0.30550355   0.30550257   0.24855814   0.24847945    295.20904     41.49527    35.978931    34.423473    90.016431    119.66323    90.107069    18.846352    14.337775    28.384766    18.842468    14.336686 
   11000    297.73264    1.2509986    2097.2637   -1187.7431   -211.49952    2072.7773    -2309.686   -1619.5413    44657.537 -0.067234084   -17.036218 -0.041707817    3521.9155     1551.929    916.93377    896.98654    28.379601    18.846571    14.337846    0.3092468   0.30924633   0.26387086   0.26378069    297.73264     41.49527    35.978931    34.423473    90.016431    119.66323    90.107069    18.846735    14.337337    28.384497    18.850648    14.331695 
   12000    298.97631    1.2509986    2123.4483   -1195.8231   -211.49952    2066.0532   -2310.4527   -562.85529    44657.537 -0.067234084   -17.036218 -0.041707817    3563.6708    1575.1591    942.20969    893.83749    28.379601    18.846571    14.337846   0.31039163     0.310383    0.2649276   0.26477638    298.97631     41.49527    35.978931    34.423473    90.016431    119.66323    90.107069    18.846352    14.338455    28.391373    18.846853    14.342271 
   13000    294.28139    1.2509986    2190.3479   -1185.3004   -211.49952     2079.666   -2309.4393   -1030.5011    44657.537 -0.067234084   -17.036218 -0.041707817    3605.4216    1592.1949    969.71709    891.74657    28.379601    18.846571    14.337846   0.32990376   0.32990105   0.27517288   0.27510721    294.28139     41.49527    35.978931    34.423473    90.016431    119.66323    90.107069    18.847123    14.337132    28.375105    18.849348    14.332875 
   14000    294.31094    1.2509986      2170.35   -1183.9338   -211.49952    2077.4724   -2309.5337     814.7746    44657.537 -0.067234084   -17.036218 -0.041707817    3586.3451     1587.809    925.97679    911.78885    28.379601    18.846571    14.337846   0.31750994   0.31750931    0.2666061   0.26656309    294.31094     41.49527    35.978931    34.423473    90.016431    119.66323    90.107069      18.8467    14.337514    28.373789    18.846284    14.338122 
   15000    291.84181    1.2509986    2213.6514   -1173.1008   -211.49952    2076.6515   -2309.1113   -270.55358    44657.537 -0.067234084   -17.036218 -0.041707817     3619.212    1586.4231    967.61961    908.44368    28.379601    18.846571    14.337846   0.31634884   0.31634749   0.26223656   0.26219828    291.84181     41.49527    35.978931    34.423473    90.016431    119.66323    90.107069    18.846572    14.338788    28.385266    18.848879    14.342018 
   16000    299.58041    1.2509986    2174.3651   -1187.1703   -211.49952    2085.9119   -2308.6751   -331.86014    44657.537 -0.067234084   -17.036218 -0.041707817    3584.2986    1628.8607    934.20269    869.56494    28.379601    18.846571    14.337846   0.34336762   0.34336354   0.28967639   0.28962091    299.58041     41.49527    35.978931    34.423473    90.016431    119.66323    90.107069    18.845157    14.338204    28.377306    18.843615    14.344252 
   17000    304.92678    1.2509986    2212.1619   -1180.3087   -211.49952    2081.7791   -2309.3847    38.427007    44657.537 -0.067234084   -17.036218 -0.041707817    3620.0761    1583.6722    1007.7666    881.89832    28.379601    18.846571    14.337846   0.32946798   0.32946495   0.27352831   0.27350367    304.92678     41.49527    35.978931    34.423473    90.016431    119.66323    90.107069    18.845603    14.339295    28.376773    18.846467    14.342866 
   18000    300.97364    1.2509986    2077.4252   -1169.4375   -211.49952    2073.0793   -2309.1938    -416.0265    44657.537 -0.067234084   -17.036218 -0.041707817    3482.9773    1547.1966    918.12989    865.56314    28.379601    18.846571    14.337846   0.33880266     0.338796   0.27261133   0.27248081    300.97364     41.49527    35.978931    34.423473    90.016431    119.66323    90.107069     18.84582    14.337915    28.370207    18.843622    14.343385 
   19000    300.55414    1.2509986    2151.2507   -1170.1675   -211.49952    2080.2516   -2308.5654    44.041208    44657.537 -0.067234084   -17.036218 -0.041707817     3549.732    1584.4869     907.5524    904.75296    28.379601    18.846571    14.337846    0.3302307   0.33022804   0.28256292   0.28246411    300.55414     41.49527    35.978931    34.423473    90.016431    119.66323    90.107069    18.847361    14.338814    28.369677    18.849221     14.33856 
   20000    303.55911    1.2509986     2097.772   -1213.4442   -211.49952    2082.8319   -2309.6455   -490.54058    44657.537 -0.067234084   -17.036218 -0.041707817    3538.0298    1561.4817    942.44412    887.81894    28.379601    18.846571    14.337846   0.33683597    0.3368318   0.28380613   0.28372917    303.55911     41.49527    35.978931    34.423473    90.016431    119.66323    90.107069    18.847473    14.337424    28.388135      18.8508    14.340054 
   21000    295.40523    1.2509986    2139.7027   -1154.3978   -211.49952    2078.7927   -2308.7602    1378.7886    44657.537 -0.067234084   -17.036218 -0.041707817    3524.0679    1533.3769    927.27718    908.26088    28.379601    18.846571    14.337846   0.32762682   0.32762538    0.2641988   0.26412185    295.40523     41.49527    35.978931    34.423473    90.016431    119.66323    90.107069    18.845955    14.338875    28.375715    18.845245    14.346566 
   22000    296.65099    1.2509986    2185.0459   -1177.4861   -211.49952    2073.3025   -2309.4897   -739.66939    44657.537 -0.067234084   -17.036218 -0.041707817    3598.7192    1630.3797    901.43512    906.57196    28.379601    18.846571    14.337846   0.31914329    0.3191432   0.26286523   0.26285908    296.65099     41.49527    35.978931    34.423473    90.016431    119.66323    90.107069    18.845915    14.337891    28.381663    18.849215    14.340932 
   23000    301.93843    1.2509986    2087.6564   -1194.0195   -211.49952    2081.6811   -2309.5532   -651.80639    44657.537 -0.067234084   -17.036218 -0.041707817     3509.548    1568.3398    932.27996    859.35865    28.379601    18.846571    14.337846   0.30208241   0.30208038   0.25469598   0.25464866    301.93843     41.49527    35.978931    34.423473    90.016431    119.66323    90.107069    18.846356    14.338762    28.373203    18.849353    14.342252 
   24000    299.26766    1.2509986    2118.6518   -1203.9228   -211.49952    2078.3229   -2309.7643    -1414.303    44657.537 -0.067234084   -17.036218 -0.041707817     3554.016    1584.3704    922.05546    894.99534    28.379601    18.846571    14.337846   0.31995836   0.31995729   0.26777614   0.26772079    299.26766     41.49527    35.978931    34.423473    90.016431    119.66323    90.107069    18.846471     14.33749    28.386007    18.847588    14.336214 
   25000    302.01678    1.2509986    2200.7975   -1138.2545   -211.49952    2072.0014   -2308.9533    -1655.628    44657.537 -0.067234084   -17.036218 -0.041707817    3576.0038    1561.6766    988.23241     868.0496    28.379601    18.846571    14.337846   0.34939053   0.34938998   0.28733196   0.28730808    302.01678     41.49527    35.978931    34.423473    90.016431    119.66323    90.107069    18.846006    14.337711    28.382351     18.84522    14.340935 
   26000    299.95116    1.2509986    2178.1331   -1163.9739   -211.49952    2082.0306   -2308.7585   -514.02841    44657.537 -0.067234084   -17.036218 -0.041707817     3568.835    1572.8825    951.84061    889.32895    28.379601    18.846571    14.337846    0.3444271   0.34442232   0.29104125    0.2909477    299.95116     41.49527    35.978931    34.423473    90.016431    119.66323    90.107069    18.846942     14.33874    28.370696    18.846808    14.342828 
   27000    295.26366    1.2509986    2085.3559    -1146.726   -211.49952    2081.4264   -2309.2227    1725.9998    44657.537 -0.067234084   -17.036218 -0.041707817    3459.8782    1558.9856    900.02895    852.07403    28.379601    18.846571    14.337846   0.34303112   0.34302828    0.2766528   0.27646756    295.26366     41.49527    35.978931    34.423473    90.016431    119.66323    90.107069    18.846021    14.336415     28.38012    18.843679    14.327129 
   28000    302.19858    1.2509986    2191.2139   -1149.7256   -211.49952    2081.7502   -2308.9988    903.72817    44657.537 -0.067234084   -17.036218 -0.041707817    3568.1881    1585.7113    938.83277    882.62827    28.379601    18.846571    14.337845   0.34702198   0.34702098    0.2908173   0.29069868    302.19858     41.49527    35.978931    34.423473    90.016431    119.66323    90.107069    18.846682    14.337225    28.387357    18.843661    14.334241 
   29000    298.09822    1.2509986    2144.6044   -1201.4131   -211.49952    2083.9522    -2309.185   -649.58815    44657.537 -0.067234084   -17.036218 -0.041707817    3571.2503    1565.4611    965.52007    891.46291    28.379601    18.846571    14.337845   0.31206106   0.31205769   0.25819502   0.25807773    298.09822     41.49527    35.978931    34.423473    90.016431    119.66323    90.107069    18.844917    14.337606    28.384472    18.843038     14.33206 
   30000    298.72538    1.2509986    2183.3541   -1172.8171   -211.49952    2082.7847   -2308.8457    731.21486    44657.537 -0.067234084   -17.036218 -0.041707817    3582.2323    1624.8556    969.09656    842.10618    28.379601    18.846571    14.337845    0.3117166   0.31171418   0.24911955   0.24899877    298.72538     41.49527    35.978931    34.423473    90.016431    119.66323    90.107069    18.845932    14.338195    28.368688    18.850041    14.340901 
   31000    296.31113    1.2509986     2156.237   -1166.9431   -211.49952     2077.211   -2309.2819     1713.054    44657.537 -0.067234084   -17.036218 -0.041707817     3555.251     1546.488    992.36775    868.22592    28.379601     18.84657    14.337845   0.31759572   0.31758671   0.26893159   0.26886798    296.31113     41.49527    35.978931    34.423473    90.016431    119.66323    90.107069    18.844435    14.338943    28.382125    18.842673    14.343739 
   32000    299.92314    1.2509986    2059.2147   -1192.2138   -211.49952    2078.3098   -2309.6611    512.92345    44657.537 -0.067234084   -17.036218 -0.041707817    3482.7798    1550.4644    906.90242    871.60638    28.379601     18.84657    14.337845   0.33631502   0.33630481   0.29158798   0.29151721    299.92314     41.49527    35.978931    34.423473    90.016431    119.66323    90.107069    18.844662    14.338274    28.383318    18.841522    14.338928 
   33000    298.35143    1.2509986    2221.0021    -1118.729   -211.49952    2071.5859   -2308.8856    940.05931    44657.537 -0.067234084   -17.036218 -0.041707817    3577.0308    1601.7916    939.03343    881.21711    28.379601     18.84657    14.337845   0.33508802   0.33508799   0.27590864   0.27587843    298.35143     41.49527    35.978931    34.423473    90.016431    119.66323    90.107069    18.846185    14.337592    28.382551    18.848957    14.335029 
   34000    302.08034    1.2509986    2149.1412   -1164.8752   -211.49952    2074.5761   -2309.3241    266.84558    44657.537 -0.067234084   -17.036218 -0.041707817    3548.7644    1591.3082    917.04953    886.97845    28.379601     18.84657    14.337845   0.34659014   0.34657653   0.29608292   0.29603402    302.08034     41.49527    35.978931    34.423473    90.016431    119.66323    90.107069    18.847299    14.337868    28.373426    18.849965    14.342864 
   35000    302.41532    1.2509986    2178.2141   -1158.9528   -211.49952    2072.1997   -2309.4643   -42.034026    44657.537 -0.067234084   -17.036218 -0.041707817    3574.4314    1579.1883    950.91375    889.29373    28.379601     18.84657    14.337845   0.33757569   0.33757526   0.29173933   0.29170529    302.41532     41.49527    35.978931    34.423473    90.016431    119.66323    90.107069    18.846666    14.338133      28.3801    18.848196    14.333887 
   36000    295.63235    1.2509986    2134.1271   -1154.7213   -211.49952    2080.2098   -2309.2393    676.47773    44657.537 -0.067234084   -17.036218 -0.041707817    3517.8778    1529.2278    925.51398    909.00036    28.379601     18.84657    14.337845   0.34592822   0.34592572   0.28885476    0.2887743    295.63235     41.49527    35.978931    34.423473    90.016431    119.66323    90.107069     18.84533    14.337953    28.380426    18.840622    14.342687 
   37000     299.1616    1.2509986    2118.0944   -1173.5545   -211.49952    2075.9661   -2309.7209    715.86442    44657.537 -0.067234084   -17.036218 -0.041707817    3525.4037    1532.9987    944.52757    896.85453    28.379601     18.84657    14.337845   0.32559755   0.32558969   0.26295818   0.26286454     299.1616     41.49527    35.978931    34.423473    90.016431    119.66323    90.107069    18.846132    14.336289    28.380776    18.847778    14.330118 
   38000    296.70437    1.2509986    2183.2452   -1167.2548   -211.49952    2072.8567   -2310.1546   -1435.8677    44657.537 -0.067234084   -17.036218 -0.041707817     3587.798    1604.3724    955.58289    877.77159    28.379601     18.84657    14.337845   0.35504192   0.35504052   0.28726301   0.28724068    296.70437     41.49527    35.978931    34.423473    90.016431    119.66323    90.107069     18.84672     14.33879    28.376072    18.846205    14.338121 
   39000    297.11253    1.2509986    2114.4115   -1181.0358   -211.49952    2078.1074   -2309.6645   -1000.5757    44657.537 -0.067234084   -17.036218 -0.041707817    3527.0044    1577.1382    944.67708    850.74898    28.379601     18.84657    14.337845    0.3347745   0.33476937   0.27715912    0.2771209    297.11253     41.49527    35.978931    34.423473    90.016431    119.66323    90.107069    18.848299    14.337978    28.384823    18.851677    14.337798 
   40000    294.43093    1.2509986    2084.9351   -1196.5701   -211.49952    2073.2451   -2309.7545   -304.51462    44657.537 -0.067234084   -17.036218 -0.041707817    3518.0145    1510.0193    943.78152    907.44387    28.379601     18.84657    14.337845   0.32772008   0.32771283   0.27265833   0.27262036    294.43093     41.49527    35.978931    34.423473    90.016431    119.66323    90.107069    18.847039    14.338093    28.374571    18.847627    14.342984 
   41000     298.0349    1.2509986    2186.0237   -1184.8416   -211.49952    2076.2453   -2309.0016   -990.10008    44657.537 -0.067234084   -17.036218 -0.041707817    3603.6217    1593.8635     965.0469     889.7957    28.379601     18.84657    14.337845   0.33338537     0.333384   0.29420028   0.29411573     298.0349     41.49527    35.978931    34.423473    90.016431    119.66323    90.107069    18.847228    14.337945    28.382012    18.845267    14.331607 
   42000    302.43081    1.2509986    2152.3885   -1174.4427   -211.49952    2081.0596   -2309.4547    1007.3857    44657.537 -0.067234084   -17.036218 -0.041707817    3555.2264    1544.2677    961.72032    894.15385    28.379601     18.84657    14.337845   0.34900205   0.34900013   0.29239585    0.2923897    302.43081     41.49527    35.978931    34.423473    90.016431    119.66323    90.107069    18.847313    14.338393    28.381755    18.849844    14.340427 
   43000    296.33822    1.2509986    2127.2095   -1169.0896   -211.49952    2076.5072   -2308.9916     513.3556    44657.537 -0.067234084   -17.036218 -0.041707817    3528.7835    1540.2447    913.71468    914.92213    28.379601     18.84657    14.337845     0.358329   0.35832732   0.31258458   0.31252607    296.33822     41.49527    35.978931    34.423473    90.016431    119.66323    90.107069    18.846074    14.337902    28.387012    18.847763    14.338473 
   44000    298.11718    1.2509986    2219.3018   -1162.1885   -211.49952    2076.6593   -2309.6586   -578.46646    44657.537 -0.067234084   -17.036218 -0.041707817    3614.4897    1585.8742    977.26012    898.21666    28.379601     18.84657    14.337845   0.36937016   0.36936859   0.31857086   0.31847889    298.11718     41.49527    35.978931    34.423473    90.016431    119.66323    90.107069    18.845714    14.338877    28.382647    18.841979    14.345378 
   45000    300.92519    1.2509986    2195.4231   -1125.8953   -211.49952    2074.0018   -2309.0769    765.41267    44657.537 -0.067234084   -17.036218 -0.041707817    3556.3935     1522.743    996.73601    882.37216    28.379601     18.84657    14.337845   0.36744123   0.36744115   0.30784418   0.30780312    300.92519     41.49527    35.978931    34.423473    90.016431    119.66323    90.107069    18.846007    14.337513    28.382449    18.845165     14.33541 
   46000    300.00554    1.2509986    2057.7786   -1169.5094   -211.49952    2073.6515   -2309.4264    1000.9256    44657.537 -0.067234084   -17.036218 -0.041707817    3463.0629    1515.4835    917.71729    875.12855    28.379601     18.84657    14.337845   0.37563466   0.37563022   0.32457901   0.32431454    300.00554     41.49527    35.978931    34.423473    90.016431    119.66323    90.107069    18.847336    14.336232    28.381613    18.842473    14.324892 
   47000    299.19906    1.2509986    2124.0836   -1184.5078   -211.49952     2078.624    -2309.449    13.966796    44657.537 -0.067234084   -17.036218 -0.041707817    3539.4165    1596.6603    940.98715    855.34178    28.379601     18.84657    14.337845   0.36382996   0.36381453   0.30610167   0.30591481    299.19906     41.49527    35.978931    34.423473    90.016431    119.66323    90.107069    18.845395    14.338573    28.367231    18.844496    14.343454 
   48000    301.07922    1.2509986    2204.3452   -1154.2386   -211.49952     2080.024   -2309.6904    2154.8938    44657.537 -0.067234084   -17.036218 -0.041707817    3588.2501    1575.9818    923.70792    923.25966    28.379601     18.84657    14.337845   0.36830983   0.36830947    0.3236312   0.32359231    301.07922     41.49527    35.978931    34.423473    90.016431    119.66323    90.107069    18.846507    14.337306    28.381094    18.846121    14.334332 
   49000    303.04144    1.2509986    2019.5607   -1165.8952   -211.49952    2074.7419    -2309.642    32.231727    44657.537 -0.067234084   -17.036218 -0.041707817    3420.3561    1507.5956    905.65647    858.71995    28.379601     18.84657    14.337845   0.37521135   0.37520981   0.32028694   0.32007154    303.04144     41.49527    35.978931    34.423473    90.016431    119.66323    90.107069    18.846809    14.336943    28.379336    18.845866    14.325305 
   50000    303.32606    1.2509986    2209.4705   -1152.2502   -211.49952    2080.6119   -2308.9319   -557.58316    44657.537 -0.067234084   -17.036218 -0.041707817    3590.0406     1621.296    914.78458    893.97581    28.379601     18.84657    14.337845   0.37643966   0.37643726   0.32881455   0.32879407    303.32606     41.49527    35.978931    34.423473    90.016431    119.66323    90.107069    18.845482    14.337374    28.381832     18.84701    14.336279 
   51000    300.22238    1.2509986    2212.4956    -1146.576   -211.49952    2074.9395   -2309.8878    210.05612    44657.537 -0.067234084   -17.036218 -0.041707817    3594.0198    1548.1659    973.11764    917.15817    28.379601     18.84657    14.337845   0.37662145   0.37661963   0.33436907   0.33434615    300.22238     41.49527    35.978931    34.423473    90.016431    119.66323    90.107069    18.845757    14.338553    28.378873    18.844276    14.339503 
   52000    301.71495    1.2509986    2103.3828   -1140.3477   -211.49952    2076.2531   -2308.9623     565.6207    44657.537 -0.067234084   -17.036218 -0.041707817    3476.4398    1543.3549    947.79053    843.64701    28.379601     18.84657    14.337845   0.37255667   0.37254659   0.32770312   0.32769022    301.71495     41.49527    35.978931    34.423473    90.016431    119.66323    90.107069    18.845123    14.336771    28.378639    18.848551    14.336196 
   53000      295.298    1.2509986    2132.1154   -1173.0895   -211.49952    2076.8446   -2308.9896    1.8363668    44657.537 -0.067234084   -17.036218 -0.041707817    3537.3499    1554.5524    958.67862    873.56301    28.379601     18.84657    14.337845   0.37436537   0.37435753   0.31922211   0.31914909      295.298     41.49527    35.978931    34.423473    90.016431    119.66323    90.107069    18.847009    14.338803    28.386894    18.848369     14.34397 
   54000    299.23087    1.2509986    2120.2315   -1182.4178   -211.49952    2077.7172   -2309.3056   -1470.9437    44657.537 -0.067234084   -17.036218 -0.041707817    3534.2377    1553.7525    971.70084     863.7335    28.379601     18.84657    14.337845   0.38275431   0.38273799   0.33507397   0.33479318    299.23087     41.49527    35.978931    34.423473    90.016431    119.66323    90.107069      18.8463    14.339986    28.388557    18.842426    14.352144 
   55000    304.70729    1.2509986    2257.8285   -1160.8887   -211.49952    2073.4223   -2309.1668    -637.6318    44657.537 -0.067234084   -17.036218 -0.041707817    3654.4616     1610.161    964.14634    921.19854    28.379601     18.84657    14.337845   0.39254331   0.39253963   0.35286189   0.35285891    304.70729     41.49527    35.978931    34.423473    90.016431    119.66323    90.107069    18.848099    14.337693    28.381033    18.848802    14.338768 
   56000    300.23287    1.2509986    2054.2098   -1187.5844   -211.49952    2072.0423   -2309.6429   -114.24754    44657.537 -0.067234084   -17.036218 -0.041707817    3479.3948    1551.1727    912.34565    866.48768    28.379601     18.84657    14.337845   0.36872519   0.36872388   0.31555433     0.315535    300.23287     41.49527    35.978931    34.423473    90.016431    119.66323    90.107069     18.84722    14.338195    28.379017    18.845042    14.337831 
   57000    293.90472    1.2509986     2179.598   -1162.0338   -211.49952    2073.9666   -2310.0452    1572.9409    44657.537 -0.067234084   -17.036218 -0.041707817    3577.7105    1583.4424    957.91472    884.35682    28.379601     18.84657    14.337845   0.38675695   0.38675582   0.33480585   0.33477686    293.90472     41.49527    35.978931    34.423473    90.016431    119.66323    90.107069    18.847221    14.337635     28.38091    18.846315    14.335179 
   58000    300.58795    1.2509986    2175.3061   -1150.2938   -211.49952    2077.4758   -2308.9931    904.28953    44657.537 -0.067234084   -17.036218 -0.041707817    3557.1171     1573.969    927.86002    896.89917    28.379601     18.84657    14.337845    0.3805223   0.38051787   0.32308522   0.32297671    300.58795     41.49527    35.978931    34.423473    90.016431    119.66323    90.107069    18.847069    14.336082    28.372774    18.848309    14.331763 
   59000     296.6591    1.2509986    2081.3975   -1167.0666   -211.49952    2068.0788   -2309.7568   -786.76899    44657.537 -0.067234084   -17.036218 -0.041707817     3490.142    1516.7677    941.06295    880.94434    28.379601     18.84657    14.337845   0.35900259   0.35900119   0.31180682   0.31171251     296.6591     41.49527    35.978931    34.423473    90.016431    119.66323    90.107069    18.846584     14.33797    28.389246    18.848392    14.339828 
   60000    300.77454    1.2509986    2193.5318    -1157.221   -211.49952    2078.2116   -2309.4211   -324.11873    44657.537 -0.067234084   -17.036218 -0.041707817    3581.9623    1635.7178    899.47973     890.7863    28.379601     18.84657    14.337845   0.35624031   0.35623805   0.30097703   0.30073715    300.77454     41.49527    35.978931    34.423473    90.016431    119.66323    90.107069    18.845822    14.336802    28.382604    18.839369    14.327909 
   61000    304.05663    1.2509986    2099.9184   -1177.2652   -211.49952    2075.5684   -2309.7881    550.43524    44657.537 -0.067234084   -17.036218 -0.041707817    3511.4033    1554.0191    905.56996     894.7596    28.379601     18.84657    14.337845   0.37973904   0.37973825    0.3211891   0.32114705    304.05663     41.49527    35.978931    34.423473    90.016431    119.66323    90.107069    18.846921    14.338218    28.382284    18.843299    14.341043 
   62000    300.31596    1.2509986    2127.3196   -1170.6509   -211.49952    2079.6086    -2309.021    697.83849    44657.537 -0.067234084   -17.036218 -0.041707817     3527.383    1555.4195    941.67562    879.29673    28.379601     18.84657    14.337845   0.39741216   0.39740866   0.33216219   0.33203053    300.31596     41.49527    35.978931    34.423473    90.016431    119.66323    90.107069    18.845606    14.339481    28.373862    18.842037    14.346749 
   63000    297.73045    1.2509986    2166.6514   -1147.5396   -211.49952    2073.5289   -2309.2605    318.54229    44657.537 -0.067234084   -17.036218 -0.041707817    3549.9226    1581.3843     934.2693    880.27281    28.379601     18.84657    14.337845   0.34806224   0.34805963   0.29513501   0.29506818    297.73045     41.49527    35.978931    34.423473    90.016431    119.66323    90.107069    18.845664    14.337791    28.385647    18.843652    14.340637 
   64000    296.23181    1.2509986     2182.954   -1175.1816   -211.49952    2075.6133     -2309.05    544.50052    44657.537 -0.067234084   -17.036218 -0.041707817    3591.5723    1581.6005    947.14483    901.82728    28.379601     18.84657    14.337845   0.34301812    0.3430147   0.28052179    0.2805042    296.23181     41.49527    35.978931    34.423473    90.016431    119.66323    90.107069    18.847588    14.337693    28.376497    18.847636    14.337122 
   65000    301.29517    1.2509986    2106.6314   -1171.6592   -211.49952    2077.5368   -2309.0492    1427.3092    44657.537 -0.067234084   -17.036218 -0.041707817     3509.803    1538.9782    941.27104    872.75718    28.379601     18.84657    14.337845   0.34404974   0.34404634   0.29408037   0.29402239    301.29517     41.49527    35.978931    34.423473    90.016431    119.66323    90.107069    18.845048    14.336298    28.380344    18.846071    14.332659 
   66000    296.19476    1.2509986    2154.7185   -1194.8554   -211.49952    2079.4862   -2309.8225    567.37517    44657.537 -0.067234084   -17.036218 -0.041707817    3579.9102    1615.6878    948.86299    861.98998    28.379601     18.84657    14.337845   0.33309797   0.33308712   0.27133613   0.27124201    296.19476     41.49527    35.978931    34.423473    90.016431    119.66323    90.107069    18.844724    14.338942    28.382826    18.840918    14.335406 
   67000    301.07591    1.2509986    2112.5545   -1147.3975   -211.49952    2075.2562   -2309.4757    2687.4155    44657.537 -0.067234084   -17.036218 -0.041707817    3494.1715    1555.9698    906.24422    880.60226    28.379601     18.84657    14.337845   0.35411591   0.35411488   0.29902291   0.29893196    301.07591     41.49527    35.978931    34.423473    90.016431    119.66323    90.107069    18.846482    14.336846    28.373339    18.846775    14.332761 
   68000    295.52809    1.2509986    2183.0432   -1148.8352   -211.49952    2072.3621   -2309.4695    568.02783    44657.537 -0.067234084   -17.036218 -0.041707817    3568.9858    1561.3727    940.37962    909.60519    28.379601     18.84657    14.337845    0.3836839    0.3836796   0.31904844   0.31897739    295.52809     41.49527    35.978931    34.423473    90.016431    119.66323    90.107069    18.846605    14.336643    28.380405    18.849195    14.331254 
   69000    301.53054    1.2509986    2110.6518   -1163.2942   -211.49952    2076.4788    -2309.042    1403.8657    44657.537 -0.067234084   -17.036218 -0.041707817    3506.5092    1560.7594    938.07138     857.8585    28.379601     18.84657    14.337845   0.38628607   0.38628307    0.3198813   0.31979997    301.53054     41.49527    35.978931    34.423473    90.016431    119.66323    90.107069    18.846289    14.338518    28.384219    18.841796     14.34238 
   70000    292.49408    1.2509986    2142.5302   -1185.8427   -211.49952    2081.1148   -2309.6269   -335.50749    44657.537 -0.067234084   -17.036218 -0.041707817     3556.885    1548.4121    959.19913    892.37126    28.379601     18.84657    14.337845   0.36461212   0.36460922   0.29765759   0.29756299    292.49408     41.49527    35.978931    34.423473    90.016431    119.66323    90.107069    18.847034    14.338919    28.387659    18.851242    14.344536 
   71000    296.00153    1.2509986    2113.3151   -1161.5402   -211.49952    2072.2372   -2309.2717   -641.42379    44657.537 -0.067234084   -17.036218 -0.041707817    3511.8898    1578.5439    894.83111    890.10773    28.379601     18.84657    14.337845   0.36233469   0.36233342   0.30584042   0.30571935    296.00153     41.49527    35.978931    34.423473    90.016431    119.66323    90.107069    18.846425    14.337555    28.389113    18.848813    14.334188 
   72000    305.63094    1.2509986     2131.054    -1171.447   -211.49952    2075.7372   -2309.2121    281.56811    44657.537 -0.067234084   -17.036218 -0.041707817    3535.9759    1565.0329    956.14781    867.53953    28.379601     18.84657    14.337845    0.3713072   0.37129454     0.307675   0.30755754    305.63094     41.49527    35.978931    34.423473    90.016431    119.66323    90.107069     18.84552     14.33897    28.387818    18.844318     14.34485 
   73000    298.78248    1.2509986    2129.6351   -1175.9352   -211.49952    2075.3225   -2309.4994   -431.51408    44657.537 -0.067234084   -17.036218 -0.041707817    3539.7471    1575.1845     934.9824     875.3493    28.379601     18.84657    14.337845   0.35005608   0.35005144   0.30177532   0.30171425    298.78248     41.49527    35.978931    34.423473    90.016431    119.66323    90.107069    18.847924    14.338086    28.386411     18.85276    14.339854 
   74000    299.28071    1.2509986    2128.6416   -1169.9863   -211.49952    2078.1948   -2309.1852   -467.10668    44657.537 -0.067234084   -17.036218 -0.041707817    3529.6182    1550.4711    954.71643    874.58053    28.379601     18.84657    14.337845   0.36718038   0.36717714   0.30942153   0.30928243    299.28071     41.49527    35.978931    34.423473    90.016431    119.66323    90.107069    18.846526    14.338974    28.387154    18.843947    14.347103 
   75000    292.42829    1.2509986    2189.7231   -1178.9572   -211.49952    2076.0475   -2309.3614    505.03835    44657.537 -0.067234084   -17.036218 -0.041707817    3601.9942    1548.9954    968.39213    924.63697    28.379601     18.84657    14.337845   0.35580939   0.35580867   0.29788446    0.2976904    292.42829     41.49527    35.978931    34.423473    90.016431    119.66323    90.107069     18.84597    14.337422    28.371808    18.840435    14.331864 
   76000    302.30928    1.2509986    2140.9927   -1181.7471   -211.49952     2079.156   -2309.5212   -100.31515    44657.537 -0.067234084   -17.036218 -0.041707817    3553.1051     1587.992     922.5894    884.20741    28.379601     18.84657    14.337845   0.35144787   0.35143742   0.30523646   0.30515194    302.30928     41.49527    35.978931    34.423473    90.016431    119.66323    90.107069    18.848019     14.33839    28.371718     18.85281    14.342582 
   77000    302.38723    1.2509986    2150.7041   -1158.1659   -211.49952    2077.2609   -2309.2847    -1016.795    44657.537 -0.067234084   -17.036218 -0.041707817    3540.8938    1569.5856    942.44555    875.48701    28.379601     18.84657    14.337845   0.35855568    0.3585527   0.29847968   0.29825794    302.38723     41.49527    35.978931    34.423473    90.016431    119.66323    90.107069    18.845833    14.339281    28.373262    18.842405    14.351405 
   78000    296.87324    1.2509986    2070.4887    -1184.961   -211.49952    2080.6528   -2309.7151    1101.4483    44657.537 -0.067234084   -17.036218 -0.041707817    3484.5121    1530.0941    900.42425    897.95828    28.379601     18.84657    14.337845   0.35822925   0.35822827    0.3000073   0.29989789    296.87324     41.49527    35.978931    34.423473    90.016431    119.66323    90.107069    18.845241    14.337504    28.376304    18.842182    14.332415 
   79000    305.62699    1.2509986    2132.7257   -1191.3597   -211.49952    2073.3183   -2309.5376   -831.41193    44657.537 -0.067234084   -17.036218 -0.041707817    3560.3046    1597.2599    936.28001    874.00698    28.379601     18.84657    14.337845   0.35918238    0.3591813   0.30767348   0.30758659    305.62699     41.49527    35.978931    34.423473    90.016431    119.66323    90.107069     18.84606    14.338506    28.370838    18.846906    14.342176 
   80000    293.37412    1.2509986    2120.8936   -1176.0947   -211.49952    2073.5461   -2310.1514    724.57387    44657.537 -0.067234084   -17.036218 -0.041707817    3533.5937     1551.631    957.78111    875.56746    28.379601     18.84657    14.337845   0.34604585    0.3460403   0.30536465   0.30532548    293.37412     41.49527    35.978931    34.423473    90.016431    119.66323    90.107069    18.847396    14.338534    28.384148    18.846172    14.342803 
   81000    294.67694    1.2509986    2119.6351   -1173.3107   -211.49952    2074.4424   -2309.7467    -384.8667    44657.537 -0.067234084   -17.036218 -0.041707817      3528.25    1545.5965        944.3     883.5886    28.379601     18.84657    14.337845   0.33014159   0.33014045   0.28365788   0.28344936    294.67694     41.49527    35.978931    34.423473    90.016431    119.66323    90.107069    18.846413    14.336778    28.371721     18.84683    14.327706 
   82000    299.33511    1.2509986    2172.1167    -1198.632   -211.49952    2075.5189   -2309.7191   -1045.0243    44657.537 -0.067234084   -17.036218 -0.041707817    3604.9488    1555.9002    964.72583    924.67378    28.379601     18.84657    14.337845   0.33953109   0.33952557   0.28766003   0.28762612    299.33511     41.49527    35.978931    34.423473    90.016431    119.66323    90.107069    18.848371    14.337786    28.378665    18.852206     14.33485 
   83000    296.58476    1.2509986    2101.8103   -1170.1631   -211.49952    2071.1352    -2309.763   -488.34451    44657.537 -0.067234084   -17.036218 -0.041707817    3510.6012     1564.857    900.43987    890.24436    28.379601     18.84657    14.337845    0.3645692   0.36456705   0.32041858   0.32035853    296.58476     41.49527    35.978931    34.423473    90.016431    119.66323    90.107069    18.845465     14.33783    28.375017    18.843602     14.33645 
   84000    296.02583    1.2509986    2250.2419    -1158.221   -211.49952    2076.6806   -2309.7419    94.572315    44657.537 -0.067234084   -17.036218 -0.041707817    3641.5243    1584.9458    968.72791    929.93882    28.379601     18.84657    14.337845   0.37267709    0.3726753   0.32386245   0.32384605    296.02583     41.49527    35.978931    34.423473    90.016431    119.66323    90.107069    18.845255    14.338233    28.379305    18.845273    14.338104 
   85000    297.37403    1.2509986    2116.9762   -1191.2973   -211.49952    2074.2522   -2309.0531   -171.86912    44657.537 -0.067234084   -17.036218 -0.041707817    3543.0744    1540.6272    959.08878    888.85658    28.379601     18.84657    14.337845   0.38149469   0.38148963   0.33424391   0.33422064    297.37403     41.49527    35.978931    34.423473    90.016431    119.66323    90.107069    18.847877      14.3378    28.380498    18.846425    14.335677 
   86000     296.2857    1.2509986    2159.8055   -1158.8876   -211.49952    2077.4056   -2309.1895    842.87793    44657.537 -0.067234084   -17.036218 -0.041707817     3550.477    1573.3293    946.11903    876.00753    28.379601     18.84657    14.337845   0.40108069   0.40107174   0.32829686   0.32812971     296.2857     41.49527    35.978931    34.423473    90.016431    119.66323    90.107069    18.846785    14.335446     28.37943    18.850526    14.326799 
   87000    300.16461    1.2509986    2141.8342   -1188.9472   -211.49952    2077.9063   -2309.1403    245.66393    44657.537 -0.067234084   -17.036218 -0.041707817    3562.0155    1601.8674    925.28962    883.49281    28.379601     18.84657    14.337845   0.40801202   0.40800672   0.34142038   0.34135605    300.16461     41.49527    35.978931    34.423473    90.016431    119.66323    90.107069    18.847317    14.337294    28.386719    18.847043    14.342664 
   88000    298.94093    1.2509986    2113.0009   -1161.9656   -211.49952     2076.941   -2309.1645   -479.35095    44657.537 -0.067234084   -17.036218 -0.041707817      3507.19    1560.6595     971.3052    829.75772    28.379601     18.84657    14.337845   0.41063671   0.41063541   0.34510864   0.34492809    298.94093     41.49527    35.978931    34.423473    90.016431    119.66323    90.107069    18.845925    14.336925    28.373497    18.841444    14.330335 
   89000    292.26505    1.2509986    2130.1853   -1186.5775   -211.49952    2074.5379   -2309.5183   -514.11163    44657.537 -0.067234084   -17.036218 -0.041707817    3551.7433    1613.6018    937.95546    854.02391    28.379601     18.84657    14.337845   0.40167331   0.40166788   0.35312122   0.35301372    292.26505     41.49527    35.978931    34.423473    90.016431    119.66323    90.107069    18.847973    14.338998    28.387483    18.850957    14.346032 
   90000    294.85057    1.2509986    2170.6125   -1147.7496   -211.49952    2079.2882    -2309.852    510.73036    44657.537 -0.067234084   -17.036218 -0.041707817    3548.9259     1583.143    953.12801    860.94647    28.379601     18.84657    14.337845   0.39695628   0.39695592   0.32845498   0.32843625    294.85057     41.49527    35.978931    34.423473    90.016431    119.66323    90.107069    18.846328    14.338134    28.379834    18.844696    14.339499 
   91000    298.26189    1.2509986    2140.2714   -1144.1359   -211.49952    2076.8289    -2309.325    1092.9324    44657.537 -0.067234084   -17.036218 -0.041707817    3516.9033    1543.8498    947.94786    870.18814    28.379601     18.84657    14.337845   0.40615476   0.40615339   0.33832065   0.33829022    298.26189     41.49527    35.978931    34.423473    90.016431    119.66323    90.107069    18.846631    14.338466    28.383595    18.845256    14.339683 
   92000    301.47144    1.2509986    2138.8624   -1148.4481   -211.49952    2074.3314   -2308.9707    544.48235    44657.537 -0.067234084   -17.036218 -0.041707817    3521.9497    1507.8433    972.61397    890.53867    28.379601     18.84657    14.337845   0.37684021   0.37683264   0.30699204   0.30659362    301.47144     41.49527    35.978931    34.423473    90.016431    119.66323    90.107069    18.846386    14.335068    28.387032    18.851061    14.321244 
   93000    292.70318    1.2509986    2165.2827   -1179.2412   -211.49952    2081.4006   -2308.9291   -381.09255    44657.537 -0.067234084   -17.036218 -0.041707817    3572.0525    1566.4211    950.48057    902.02805    28.379601     18.84657    14.337845   0.37742924    0.3774229   0.31866523   0.31844294    292.70318     41.49527    35.978931    34.423473    90.016431    119.66323    90.107069    18.847262    14.337645    28.365581    18.854109    14.340642 
   94000     303.7835    1.2509986    2073.2464    -1169.193   -211.49952     2076.877   -2308.9853    281.74824    44657.537 -0.067234084   -17.036218 -0.041707817    3474.5478    1551.0878    938.63677    841.08145    28.379601     18.84657    14.337845   0.37934923   0.37934225   0.31797107   0.31761413     303.7835     41.49527    35.978931    34.423473    90.016431    119.66323    90.107069     18.84521    14.337203    28.390872    18.844921    14.325072 
   95000    293.35458    1.2509986    2174.9309   -1167.9072   -211.49952    2077.2166   -2309.3943   -668.54569    44657.537 -0.067234084   -17.036218 -0.041707817    3575.0158    1547.6451     982.5228    889.67977    28.379601     18.84657    14.337845   0.37021433   0.37021039   0.31050437   0.31038076    293.35458     41.49527    35.978931    34.423473    90.016431    119.66323    90.107069    18.845894    14.338434    28.388112    18.841919    14.339953 
   96000    304.26614    1.2509986    2103.1593   -1195.7928   -211.49952    2082.4179   -2308.9123   -340.78456    44657.537 -0.067234084   -17.036218 -0.041707817    3525.4465    1543.0764     935.5711    893.28218    28.379601     18.84657    14.337845   0.35727216   0.35726911   0.29369188   0.29368616    304.26614     41.49527    35.978931    34.423473    90.016431    119.66323    90.107069    18.847836    14.338287    28.379538    18.846625     14.33977 
   97000    292.98532    1.2509986     2112.494   -1169.0472   -211.49952    2075.6618    -2309.824   -326.66268    44657.537 -0.067234084   -17.036218 -0.041707817    3515.7033    1558.3435     944.8755    861.89886    28.379601     18.84657    14.337845   0.36745429   0.36744612   0.30229696   0.30217624    292.98532     41.49527    35.978931    34.423473    90.016431    119.66323    90.107069     18.84539    14.336823    28.376205     18.83893    14.336841 
   98000     296.1781    1.2509986    2151.9976   -1160.3892   -211.49952    2076.9408   -2309.9513   -151.92528    44657.537 -0.067234084   -17.036218 -0.041707817    3545.3973    1589.7671    934.84208    869.61604    28.379601     18.84657    14.337845   0.36272054   0.36272002   0.31977188    0.3197613     296.1781     41.49527    35.978931    34.423473    90.016431    119.66323    90.107069    18.846638    14.337568    28.377748    18.846312    14.339736 
   99000    301.67287    1.2509986    2151.3459   -1137.9158   -211.49952    2080.7106   -2308.7745    1447.8814    44657.537 -0.067234084   -17.036218 -0.041707817    3517.3256    1528.2713    930.73984    897.50477    28.379601     18.84657    14.337845   0.37628267   0.37627253   0.32938372   0.32924598    301.67287     41.49527    35.978931    34.423473    90.016431    119.66323    90.107069    18.846991    14.336161    28.372045    18.849271    14.330624 
  100000    295.75539    1.2509986     2093.238   -1208.1423   -211.49952    2076.8516   -2309.3108   -1293.5605    44657.537 -0.067234084   -17.036218 -0.041707817    3533.8393    1588.4863    939.28243    858.44309    28.379602     18.84657    14.337845   0.36579564   0.36579526   0.31598664    0.3159687    295.75539     41.49527    35.978931    34.423473    90.016431    119.66323    90.107069    18.846525    14.338214    28.382364    18.845974    14.340547 
  101000     298.4613    1.2509986    2126.9469   -1174.8883   -211.49952    2080.6472    -2308.992   -416.93225    44657.537 -0.067234084   -17.036218 -0.041707817      3530.18    1561.6354    915.95251    899.17939    28.379602     18.84657    14.337845   0.37607275   0.37607094   0.32077285   0.32073883     298.4613     41.49527    35.978931    34.423473    90.016431    119.66323    90.107069     18.84579    14.339019     28.37638    18.847119    14.344149 
  102000    295.52308    1.2509986    2092.1188   -1180.4509   -211.49952    2066.0905   -2310.0087   -1892.6333    44657.537 -0.067234084   -17.036218 -0.041707817    3516.4879    1562.0503    927.37077    880.12195    28.379602     18.84657    14.337845   0.36538998   0.36538772   0.30990507   0.30985285    295.52308     41.49527    35.978931    34.423473    90.016431    119.66323    90.107069     18.84684    14.337771    28.384992    18.851111    14.335363 
  103000    296.62812    1.2509986    2125.3342   -1177.7296   -211.49952    2076.7964   -2309.2555   -1377.6808    44657.537 -0.067234084   -17.036218 -0.041707817    3535.5228    1612.1734    926.62115    850.57388    28.379602     18.84657    14.337845   0.38477874   0.38477384   0.32870973   0.32855225    296.62812     41.49527    35.978931    34.423473    90.016431    119.66323    90.107069    18.845438    14.337346    28.383724    18.843342    14.329248 
  104000    298.66246    1.2509986    2055.5218   -1191.1782   -211.49952    2082.1774   -2308.6949    290.46501    44657.537 -0.067234084   -17.036218 -0.041707817    3473.2174    1555.7914    928.70342    840.94309    28.379602     18.84657    14.337845   0.37581085   0.37580784   0.32137384   0.32132506    298.66246     41.49527    35.978931    34.423473    90.016431    119.66323    90.107069    18.846955    14.337261    28.385211    18.847826    14.335715 
  105000     293.8573    1.2509986    2179.9284   -1129.1413   -211.49952    2080.0882   -2308.8086    1853.3223    44657.537 -0.067234084   -17.036218 -0.041707817    3537.7901    1541.8535    971.14938    871.19259    28.379602     18.84657    14.337845   0.40520075   0.40519928    0.3355284   0.33551769     293.8573     41.49527    35.978931    34.423473    90.016431    119.66323    90.107069    18.846189    14.338543     28.38102    18.848467    14.336762 
  106000    301.75338    1.2509986     2029.494   -1177.2724   -211.49952    2069.6973    -2309.912   -1107.7849    44657.537 -0.067234084   -17.036218 -0.041707817    3446.9812    1542.3958    923.88012    835.77472    28.379602     18.84657    14.337845   0.37976002   0.37975931   0.32158808   0.32156518    301.75338     41.49527    35.978931    34.423473    90.016431    119.66323    90.107069    18.846856    14.338241    28.383382     18.85094    14.341772 
  107000    298.88519    1.2509986    2158.6774   -1144.2257   -211.49952    2077.3111   -2308.9639    1228.5417    44657.537 -0.067234084   -17.036218 -0.041707817    3534.5559    1593.0386    950.22776    847.42726    28.379602     18.84657    14.337845    0.3712338   0.37123337   0.32066333   0.32063493    298.88519     41.49527    35.978931    34.423473    90.016431    119.66323    90.107069    18.846815    14.337873     28.37648    18.845689    14.336831 
  108000    296.65526    1.2509986    2060.9554   -1201.0526   -211.49952    2084.7021   -2308.8587    664.70873    44657.537 -0.067234084   -17.036218 -0.041707817    3486.1646    1542.9803    957.70803    844.13914    28.379602     18.84657    14.337845   0.34302964   0.34302906   0.29856331   0.29844622    296.65526     41.49527    35.978931    34.423473    90.016431    119.66323    90.107069    18.846249    14.338453    28.369409    18.846007    14.337383 
  109000    295.30686    1.2509986    2051.9543   -1195.9008   -211.49952    2080.0656   -2309.4674   -185.26496    44657.537 -0.067234084   -17.036218 -0.041707817    3477.2569    1551.5462    903.85548    870.66877    28.379602     18.84657    14.337845   0.37114066   0.37113903   0.32171783   0.32167163    295.30686     41.49527    35.978931    34.423473    90.016431    119.66323    90.107069    18.845581    14.338592    28.383044    18.843648    14.341931 
  110000     299.7277    1.2509986    2135.7731   -1172.6959   -211.49952    2075.7491   -2309.9033    686.18126    44657.537 -0.067234084   -17.036218 -0.041707817    3542.6232    1576.5242    911.90156    903.31702    28.379602     18.84657    14.337845   0.36686667   0.36686322   0.31052298   0.31047212     299.7277     41.49527    35.978931    34.423473    90.016431    119.66323    90.107069    18.846567    14.338151    28.383073    18.845844    14.334305 
  111000    301.31635    1.2509986    2147.1813   -1146.2054   -211.49952    2075.2488   -2309.5489    1515.9148    44657.537 -0.067234084   -17.036218 -0.041707817    3527.6869    1538.5424    943.13994     891.3624    28.379602     18.84657    14.337845   0.37871015   0.37870829   0.31625484   0.31621378    301.31635     41.49527    35.978931    34.423473    90.016431    119.66323    90.107069    18.846815    14.336613     28.38367    18.849254     14.33473 
  112000    297.69826    1.2509986    2114.4966   -1168.8474   -211.49952    2075.5639   -2309.0975   -229.21487    44657.537 -0.067234084   -17.036218 -0.041707817    3516.8777    1586.3575    914.39318    862.17873    28.379602     18.84657    14.337845   0.35665217   0.35665101   0.30233094   0.30210765    297.69826     41.49527    35.978931    34.423473    90.016431    119.66323    90.107069    18.846233    14.337701    28.394056    18.846975    14.336653 
  113000    299.48612    1.2509986    2137.9602   -1172.2159   -211.49952    2090.4824   -2308.3911    1172.8956    44657.537 -0.067234084   -17.036218 -0.041707817    3528.0847    1566.8133     948.3023    863.68441    28.379602     18.84657    14.337845   0.38523488   0.38523215   0.32945893   0.32940847    299.48612     41.49527    35.978931    34.423473    90.016431    119.66323    90.107069    18.847063    14.339066    28.372963    18.849162    14.342277 
  114000    292.97973    1.2509986    2076.6094   -1168.0743   -211.49952    2070.1009   -2309.6776   -678.24182    44657.537 -0.067234084   -17.036218 -0.041707817    3484.2605    1526.9916     914.3474    892.22704    28.379602     18.84657    14.337845   0.37740068   0.37739319   0.32340238   0.32333713    292.97973     41.49527    35.978931    34.423473    90.016431    119.66323    90.107069    18.848438    14.336775    28.387501    18.849939     14.33851 
  115000    298.16029    1.2509986    2145.7205    -1183.054   -211.49952    2083.2435   -2308.6729   -179.21245    44657.537 -0.067234084   -17.036218 -0.041707817    3554.2039     1600.241    916.79463    885.98747    28.379602     18.84657    14.337845    0.3799181   0.37991475   0.32515629   0.32504848    298.16029     41.49527    35.978931    34.423473    90.016431    119.66323    90.107069    18.847001    14.339192    28.373054    18.847682    14.347623 
  116000     297.2345    1.2509986    2263.2436   -1184.0262   -211.49952    2083.6874   -2308.8762   -1625.8774    44657.537 -0.067234084   -17.036218 -0.041707817    3672.4586    1624.6025    976.54023    916.54685    28.379602     18.84657    14.337845   0.40011811   0.40010445   0.35294331   0.35289431     297.2345     41.49527    35.978931    34.423473    90.016431    119.66323    90.107069    18.847013    14.336882    28.374824    18.847113    14.334843 
  117000    296.78698    1.2509986    2154.8527   -1170.8721   -211.49952    2080.2508   -2308.9862    253.33152    44657.537 -0.067234084   -17.036218 -0.041707817    3554.4602    1597.0887    945.41776    863.17697    28.379602     18.84657    14.337845   0.39615989    0.3961586   0.34846212   0.34845151    296.78698     41.49527    35.978931    34.423473    90.016431    119.66323    90.107069    18.847174    14.338249    28.379216    18.852068    14.338559 
  118000    294.74045    1.2509986    2160.7662   -1166.0421   -211.49952    2079.3436   -2309.2237    500.21248    44657.537 -0.067234084   -17.036218 -0.041707817    3556.6884    1557.8462    947.82023    894.44988    28.379602     18.84657    14.337845   0.39601381   0.39599645   0.33569367    0.3355417    294.74045     41.49527    35.978931    34.423473    90.016431    119.66323    90.107069    18.847276    14.337175    28.370084    18.847868    14.331833 
  119000    300.70497    1.2509986    2140.1564   -1182.7561   -211.49952    2077.6311   -2309.1429   -1457.3718    44657.537 -0.067234084   -17.036218 -0.041707817    3554.4244    1587.7376    931.38069    878.41575    28.379602     18.84657    14.337845   0.41659894     0.416598   0.35477805   0.35467536    300.70497     41.49527    35.978931    34.423473    90.016431    119.66323    90.107069    18.846264    14.338691    28.385033    18.844444    14.346836 
  120000     296.8966    1.2509986    2026.0532   -1182.8189   -211.49952     2078.193   -2309.5734     305.6287    44657.537 -0.067234084   -17.036218 -0.041707817    3440.2526     1539.573    912.58508    840.90502    28.379602     18.84657    14.337845   0.39826601   0.39826197   0.34840978   0.34840306     296.8966     41.49527    35.978931    34.423473    90.016431    119.66323    90.107069    18.846851    14.337999    28.379375    18.848139    14.342072 
  121000    300.87268    1.2509986    2126.1804   -1174.0814   -211.49952     2067.819   -2309.7899    106.27055    44657.537 -0.067234084   -17.036218 -0.041707817    3542.2328    1557.2381    949.75142    878.06123    28.379602     18.84657    14.337845   0.39453229   0.39452654   0.34744634   0.34723574    300.87268     41.49527    35.978931    34.423473    90.016431    119.66323    90.107069    18.846452    14.335815    28.379406    18.847179    14.325243 
  122000    295.97056    1.2509986    2132.0372   -1183.3835   -211.49952    2078.3618   -2309.5435   -1102.7054    44657.537 -0.067234084   -17.036218 -0.041707817    3546.6024    1555.3543    985.64927    852.31923    28.379602     18.84657    14.337845   0.39363855   0.39363815    0.3275775    0.3275669    295.97056     41.49527    35.978931    34.423473    90.016431    119.66323    90.107069    18.846142    14.338182    28.381864    18.846887    14.340507 
  123000    305.00422    1.2509986    2132.8792   -1191.8268   -211.49952      2080.78   -2309.8461   -965.26485    44657.537 -0.067234084   -17.036218 -0.041707817    3553.7721    1582.4474    932.93137     888.4661    28.379602     18.84657    14.337845   0.39116533   0.39116091   0.32590434    0.3258684    305.00422     41.49527    35.978931    34.423473    90.016431    119.66323    90.107069    18.846163    14.337251     28.37705    18.844464    14.336644 
  124000     292.2495    1.2509986    2059.4713   -1185.9634   -211.49952    2074.5664   -2309.5257    -1419.569    44657.537 -0.067234084   -17.036218 -0.041707817    3480.3939    1585.8467    902.93196    845.02822    28.379602     18.84657    14.337845   0.39998771   0.39998013    0.3422478   0.34213453     292.2495     41.49527    35.978931    34.423473    90.016431    119.66323    90.107069    18.845015     14.33975    28.376227    18.843204    14.347911 
  125000    300.25455    1.2509986    2045.8842   -1179.1741   -211.49952    2073.3135   -2309.7505    888.86468    44657.537 -0.067234084   -17.036218 -0.041707817    3461.4953     1533.983    923.57961    852.32226    28.379602     18.84657    14.337845   0.37875676   0.37875582   0.33617634   0.33614476    300.25455     41.49527    35.978931    34.423473    90.016431    119.66323    90.107069    18.845466    14.338052     28.38488     18.84738    14.338879 
  126000    297.45411    1.2509986    2101.4993    -1199.907   -211.49952    2073.9665   -2309.6753   -656.10224    44657.537 -0.067234084   -17.036218 -0.041707817    3537.1151    1593.3401     920.7662    872.55111    28.379602     18.84657    14.337845   0.36497607   0.36497359    0.3245987   0.32456621    297.45411     41.49527    35.978931    34.423473    90.016431    119.66323    90.107069     18.84721    14.338798    28.382164    18.852639     14.34318 
  127000    302.93937    1.2509986    2180.7853   -1191.6805   -211.49952    2082.9103   -2309.2746   -437.71719    44657.537 -0.067234084   -17.036218 -0.041707817    3598.8302    1623.0938    937.63748     884.3239    28.379602     18.84657    14.337845    0.3564237    0.3564169   0.30598452   0.30591004    302.93937     41.49527    35.978931    34.423473    90.016431    119.66323    90.107069    18.848527    14.338142    28.373264    18.853998    14.336471 
  128000    300.51468    1.2509986     2163.083   -1204.1179   -211.49952    2075.3709   -2309.8037   -995.42744    44657.537 -0.067234084   -17.036218 -0.041707817    3601.6337     1625.458     948.6603    881.35961    28.379602     18.84657    14.337845   0.34266485   0.34265628   0.29216833   0.29214871    300.51468     41.49527    35.978931    34.423473    90.016431    119.66323    90.107069    18.848102    14.338686    28.377432    18.852531    14.341292 
  129000    299.89686    1.2509986    2058.1817   -1204.8734   -211.49952    2071.2527   -2309.5678   -1407.3685    44657.537 -0.067234084   -17.036218 -0.041707817    3501.3702    1551.8954    926.40944    870.09982    28.379602     18.84657    14.337845    0.3616826    0.3616815   0.30490612   0.30487292    299.89686     41.49527    35.978931    34.423473    90.016431    119.66323    90.107069    18.846788     14.33788    28.381091    18.848858    14.334087 
  130000    295.93014    1.2509986    2111.8528   -1192.3905   -211.49952    2077.6266    -2309.547   -924.39895    44657.537 -0.067234084   -17.036218 -0.041707817    3536.1637    1578.7686    923.93107    879.08948    28.379602     18.84657    14.337845   0.35949563   0.35948911   0.31345971   0.31343823    295.93014     41.49527    35.978931    34.423473    90.016431    119.66323    90.107069    18.847198    14.337346    28.374999    18.849522    14.338962 
  131000    291.63937    1.2509986    2046.1189   -1190.9318   -211.49952    2080.5534   -2309.1696    795.19525    44657.537 -0.067234084   -17.036218 -0.041707817    3465.6669    1523.9399    954.38878    841.48543    28.379602     18.84657    14.337845   0.35257101   0.35256983   0.30670083   0.30668825    291.63937     41.49527    35.978931    34.423473    90.016431    119.66323    90.107069    18.847117    14.338283     28.38166    18.846163    14.339469 
  132000    290.78512    1.2509986    2161.4487   -1191.5341   -211.49952     2076.652   -2309.7086   -1722.4496    44657.537 -0.067234084   -17.036218 -0.041707817    3586.0395    1595.7643    954.54153    881.09687    28.379602     18.84657    14.337845   0.36631146   0.36630983   0.30825354   0.30815126    290.78512     41.49527    35.978931    34.423473    90.016431    119.66323    90.107069    18.845856    14.338676    28.387459    18.844218    14.343742 
  133000    303.55486    1.2509986    2121.1923   -1193.1629   -211.49952    2077.2726   -2309.1109   -1243.1119    44657.537 -0.067234084   -17.036218 -0.041707817    3546.1935    1588.1978    929.25416    876.21664    28.379602     18.84657    14.337845   0.40162012   0.40160924   0.35656655   0.35641125    303.55486     41.49527    35.978931    34.423473    90.016431    119.66323    90.107069    18.845253    14.337092    28.380179    18.843569    14.328446 
  134000    304.25404    1.2509986    2112.3951   -1156.6348   -211.49952    2079.2662   -2309.0961    1769.8622    44657.537 -0.067234084   -17.036218 -0.041707817    3498.8598    1554.2141    938.54966    856.94555    28.379602     18.84657    14.337845   0.38545698   0.38545477   0.33539577   0.33532423    304.25404     41.49527    35.978931    34.423473    90.016431    119.66323    90.107069    18.845282     14.33793    28.373535    18.844425    14.343411 
  135000    296.62828    1.2509986    2137.2236   -1167.5818   -211.49952     2076.316   -2309.3048    23.374546    44657.537 -0.067234084   -17.036218 -0.041707817    3537.7942    1567.6903    937.17095    882.69519    28.379602     18.84657    14.337845   0.40328751   0.40328509   0.33720891   0.33717029    296.62828     41.49527    35.978931    34.423473    90.016431    119.66323    90.107069    18.846174    14.338411    28.385096    18.847402    14.341947 
  136000     292.6519    1.2509986     2057.613   -1185.8878   -211.49952    2072.0834   -2309.0712   -912.27896    44657.537 -0.067234084   -17.036218 -0.041707817    3480.4885     1584.559    897.58597    846.68394    28.379602     18.84657    14.337845   0.38710384   0.38710101     0.336285    0.3361613     292.6519     41.49527    35.978931    34.423473    90.016431    119.66323    90.107069    18.845429     14.33643    28.378544    18.846155    14.328938 
  137000    295.81164    1.2509986    2200.6942    -1157.353   -211.49952    2076.3137   -2309.3666   -1696.3396    44657.537 -0.067234084   -17.036218 -0.041707817    3591.1001    1607.9781    930.69601    894.47485    28.379602     18.84657    14.337845   0.40267623   0.40266972   0.34350888   0.34348421    295.81164     41.49527    35.978931    34.423473    90.016431    119.66323    90.107069    18.845998    14.338467    28.377215     18.84896    14.344019 
  138000    297.57483    1.2509986    2162.2964   -1147.7564   -211.49952    2076.0475   -2308.9955    64.307794    44657.537 -0.067234084   -17.036218 -0.041707817    3543.0009    1601.6513    918.26583    877.67647    28.379602     18.84657    14.337845   0.41000263   0.40999589   0.33289242   0.33281599    297.57483     41.49527    35.978931    34.423473    90.016431    119.66323    90.107069    18.847391    14.337035    28.385582    18.845657    14.334266 
  139000    296.53461    1.2509986    2142.5315   -1164.2442   -211.49952    2073.1465   -2309.1107   -932.82778    44657.537 -0.067234084   -17.036218 -0.041707817    3542.7399    1537.3065    956.16559    898.15646    28.379602     18.84657    14.337845    0.4013689   0.40135886   0.33648742    0.3363155    296.53461     41.49527    35.978931    34.423473    90.016431    119.66323    90.107069    18.844844    14.337407    28.369092    18.841717    14.336609 
  140000     293.6992    1.2509986    2139.3477   -1161.8259   -211.49952     2073.596   -2309.0518    45.554669    44657.537 -0.067234084   -17.036218 -0.041707817    3536.6295    1591.8153     913.2446    879.56893    28.379602     18.84657    14.337845   0.39425594   0.39424191   0.32037268   0.32021473     293.6992     41.49527    35.978931    34.423473    90.016431    119.66323    90.107069    18.844979    14.336352    28.369455    18.843742    14.334335 
  141000    296.81629    1.2509986    2138.1686   -1178.1623   -211.49952    2077.1039   -2308.7912   -392.09554    44657.537 -0.067234084   -17.036218 -0.041707817    3548.0181    1569.7504    937.18391    885.85325    28.379602     18.84657    14.337845   0.39342137   0.39341566   0.32070072   0.32049642    296.81629     41.49527    35.978931    34.423473    90.016431    119.66323    90.107069     18.84387    14.337591    28.374851    18.838358    14.331354 
  142000    301.91657    1.2509986    2167.1691   -1191.6464   -211.49952    2075.5595   -2308.8321   -1318.1037    44657.537 -0.067234084   -17.036218 -0.041707817    3592.0882    1634.1277    920.62126    886.48349    28.379602     18.84657    14.337845    0.4091059   0.40909057   0.33889241    0.3388303    301.91657     41.49527    35.978931    34.423473    90.016431    119.66323    90.107069    18.849997    14.336974    28.383237     18.85198    14.333333 
  143000    295.71498    1.2509986    2163.9983   -1185.8194   -211.49952    2079.9201   -2308.9247    97.308163    44657.537 -0.067234084   -17.036218 -0.041707817    3578.8224    1570.3682    947.98173    899.49281    28.379602     18.84657    14.337845   0.42650898   0.42650704   0.36631957   0.36618714    295.71498     41.49527    35.978931    34.423473    90.016431    119.66323    90.107069    18.846416     14.33673     28.37188    18.844212    14.332535 
  144000    296.43917    1.2509986    2185.1031   -1160.8125   -211.49952    2078.7722    -2308.626   -101.06177    44657.537 -0.067234084   -17.036218 -0.041707817    3575.7694    1628.2208    924.42988    875.37912    28.379602     18.84657    14.337845   0.42282294   0.42281793   0.35316255   0.35293801    296.43917     41.49527    35.978931    34.423473    90.016431    119.66323    90.107069    18.845554    14.338718    28.388737    18.837309     14.34145 
  145000    292.76386    1.2509986    2105.0058   -1172.3867   -211.49952    2076.5222     -2309.19    -1941.873    44657.537 -0.067234084   -17.036218 -0.041707817    3510.0604    1578.1146     922.9694    859.68215    28.379602     18.84657    14.337845   0.42227052   0.42226658    0.3713025   0.37125443    292.76386     41.49527    35.978931    34.423473    90.016431    119.66323    90.107069    18.846701     14.33672    28.378902    18.849981    14.332805 
  146000     298.5476    1.2509986    2028.5121   -1192.2181   -211.49952    2075.2763    -2309.636    559.96014    44657.537 -0.067234084   -17.036218 -0.041707817      3455.09    1537.3679    894.73489    869.83741    28.379602     18.84657    14.337845   0.40338592   0.40338485   0.34231884   0.34228795     298.5476     41.49527    35.978931    34.423473    90.016431    119.66323    90.107069    18.846494    14.337556    28.374962    18.845994    14.338826 
  147000    295.96398    1.2509986    2154.9924   -1179.4776   -211.49952    2071.9401   -2309.2713   -1299.9527    44657.537 -0.067234084   -17.036218 -0.041707817    3571.8011    1619.9827    943.81753    859.63452    28.379602     18.84657    14.337845   0.38681725    0.3868143   0.32908514   0.32904169    295.96398     41.49527    35.978931    34.423473    90.016431    119.66323    90.107069    18.846247    14.337154     28.38125    18.844526    14.335116 
  148000    297.87466    1.2509986    2215.1989    -1178.671   -211.49952    2072.6818   -2310.0084   -1636.8891    44657.537 -0.067234084   -17.036218 -0.041707817    3631.1965    1635.6803    951.59397    887.91474    28.379602     18.84657    14.337845    0.3929605   0.39294745   0.33271563   0.33241218    297.87466     41.49527    35.978931    34.423473    90.016431    119.66323    90.107069    18.847767     14.34081    28.378304    18.851148    14.356881 
  149000    294.78998    1.2509986    2128.7172    -1176.363   -211.49952    2077.9899   -2308.9994   -508.19122    44657.537 -0.067234084   -17.036218 -0.041707817    3536.0897    1570.1527    922.88424    890.96215    28.379602     18.84657    14.337845   0.38586988   0.38586654   0.33057973   0.33054843    294.78998     41.49527    35.978931    34.423473    90.016431    119.66323    90.107069     18.84763    14.338291    28.383839    18.847166    14.336548 
  150000    302.63777    1.2509986    2219.5615   -1161.2991   -211.49952    2075.3589   -2309.1263    355.51622    44657.537 -0.067234084   -17.036218 -0.041707817    3614.6281     1617.412    943.61401    905.09469    28.379602     18.84657    14.337845    0.3662966   0.36629217   0.31434883    0.3143334    302.63777     41.49527    35.978931    34.423473    90.016431    119.66323    90.107069    18.845416    14.337047    28.380129    18.847525    14.336048 
  151000    294.36843    1.2509986    2180.7533   -1188.7569   -211.49952    2073.2871   -2309.6882   -204.43161    44657.537 -0.067234084   -17.036218 -0.041707817    3605.9113    1603.8776    968.96274    879.93757    28.379602     18.84657    14.337845   0.36416207   0.36415332   0.31728086   0.31713896    294.36843     41.49527    35.978931    34.423473    90.016431    119.66323    90.107069    18.844628    14.338133    28.386609     18.83973    14.337192 
  152000    303.77975    1.2509986    2115.3137   -1182.0483   -211.49952    2076.9758   -2309.2176    1080.2545    44657.537 -0.067234084   -17.036218 -0.041707817    3529.6037    1536.3187    976.50127    867.05946    28.379602     18.84657    14.337845   0.38448949   0.38448006   0.32446921   0.32438581    303.77975     41.49527    35.978931    34.423473    90.016431    119.66323    90.107069    18.846625     14.33769    28.370486    18.848837     14.33859 
  153000    297.62726    1.2509986    2094.2172   -1175.2026   -211.49952    2071.5728   -2309.7829    -663.3178    44657.537 -0.067234084   -17.036218 -0.041707817    3507.6299     1584.571    918.60342    850.78861    28.379602    18.846569    14.337845   0.39121928   0.39121633   0.33861401   0.33853839    297.62726     41.49527    35.978931    34.423473    90.016431    119.66323    90.107069    18.847531    14.338326    28.387805    18.849382    14.342368 
  154000    299.78755    1.2509986    2264.7086   -1147.5965   -211.49952    2082.7444   -2308.7415    1326.5704    44657.537 -0.067234084   -17.036218 -0.041707817    3638.3022    1637.7668    985.01736    867.47515    28.379602    18.846569    14.337845   0.37971884   0.37971691   0.33669877    0.3366768    299.78755     41.49527    35.978931    34.423473    90.016431    119.66323    90.107069    18.846974    14.337746    28.381697    18.848168    14.335555 
  155000    300.11386    1.2509986    2099.5063   -1174.6264   -211.49952    2078.0614   -2308.9041   -1719.1415    44657.537 -0.067234084   -17.036218 -0.041707817    3504.9753    1560.7833    953.64253    840.67044    28.379602    18.846569    14.337845   0.39689896    0.3968973   0.34962374   0.34961687    300.11386     41.49527    35.978931    34.423473    90.016431    119.66323    90.107069    18.847197    14.337274    28.379073    18.848522    14.337108 
  156000    303.19899    1.2509986    2095.4296   -1169.6149   -211.49952    2078.7946   -2308.8144    752.84374    44657.537 -0.067234084   -17.036218 -0.041707817    3495.0643    1572.0251    926.82718    845.73367    28.379602    18.846569    14.337845   0.35642485   0.35642007   0.31623961   0.31609678    303.19899     41.49527    35.978931    34.423473    90.016431    119.66323    90.107069     18.84539     14.33863    28.391507    18.849126    14.339643 
  157000    298.78054    1.2509986    2100.6407   -1174.1843   -211.49952    2080.1684   -2309.4874   -11.169164    44657.537 -0.067234084   -17.036218 -0.041707817     3504.144    1530.6237    956.47786    865.36809    28.379602    18.846569    14.337845   0.36429201   0.36428996   0.31663956   0.31652118    298.78054     41.49527    35.978931    34.423473    90.016431    119.66323    90.107069    18.845169    14.337511     28.37639     18.83882    14.337528 
  158000    293.92753    1.2509986    2104.2817   -1167.0997   -211.49952    2077.0571   -2309.4993    1258.2534    44657.537 -0.067234084   -17.036218 -0.041707817    3503.8236    1525.9798    936.29709    889.98246    28.379602    18.846569    14.337845   0.36983478   0.36982606   0.32077009   0.32063483    293.92753     41.49527    35.978931    34.423473    90.016431    119.66323    90.107069    18.847408    14.337355      28.3906    18.851761    14.337241 
  159000    294.23822    1.2509986    2285.5717    -1157.805   -211.49952    2076.7439   -2309.7227    33.055248    44657.537 -0.067234084   -17.036218 -0.041707817    3676.3555    1647.4293    972.72466    901.36908    28.379602    18.846569    14.337845   0.38396444   0.38396193   0.32281465   0.32274342    294.23822     41.49527    35.978931    34.423473    90.016431    119.66323    90.107069    18.846589    14.337432    28.374959    18.851969    14.333207 
  160000    297.70226    1.2509986    2035.6379   -1177.5915   -211.49952    2081.6916   -2309.2282    2073.7824    44657.537 -0.067234084   -17.036218 -0.041707817    3440.7659    1489.1942    921.65807     879.5757    28.379602    18.846569    14.337845   0.37715568   0.37715354   0.31376451   0.31365719    297.70226     41.49527    35.978931    34.423473    90.016431    119.66323    90.107069     18.84523    14.337124    28.385095    18.842198    14.334143 
  161000    295.97404    1.2509986     2134.861    -1160.833   -211.49952    2071.8345   -2309.1647   -964.43483    44657.537 -0.067234084   -17.036218 -0.041707817    3533.0243    1599.4059     908.3965    871.00516    28.379602    18.846569    14.337845   0.37454306   0.37454255   0.33304664   0.33298806    295.97404     41.49527    35.978931    34.423473    90.016431    119.66323    90.107069    18.845884    14.338228    28.375715    18.842424    14.340272 
  162000    293.68601    1.2509986    2123.2945   -1215.4889   -211.49952    2077.4742   -2309.6116   -1339.0251    44657.537 -0.067234084   -17.036218 -0.041707817    3570.9208    1580.8666    949.70192    889.69578    28.379602    18.846569    14.337845   0.37211221   0.37210693   0.32148261   0.32137413    293.68601     41.49527    35.978931    34.423473    90.016431    119.66323    90.107069    18.847138     14.33837    28.370631    18.846803     14.34453 
  163000    299.62292    1.2509986    2086.3576   -1180.3018   -211.49952    2069.7598   -2309.2879   -445.96151    44657.537 -0.067234084   -17.036218 -0.041707817    3506.1875    1589.5472    906.40679    858.94788    28.379602    18.846569    14.337845   0.36842075   0.36841749   0.31963028   0.31961929    299.62292     41.49527    35.978931    34.423473    90.016431    119.66323    90.107069    18.847874    14.338135    28.380723    18.848021     14.34258 
  164000    294.09568    1.2509986    2173.0626    -1161.357   -211.49952     2075.279   -2309.3394    800.98829    44657.537 -0.067234084   -17.036218 -0.041707817    3568.4799    1577.4573    946.56335    891.55899    28.379602    18.846569    14.337845   0.37560413   0.37560306    0.3273358   0.32729971    294.09568     41.49527    35.978931    34.423473    90.016431    119.66323    90.107069    18.846577    14.337349      28.3749     18.84866    14.335858 
  165000    297.51231    1.2509986    2103.9108   -1176.2255   -211.49952    2079.2598   -2309.0167   -174.35875    44657.537 -0.067234084   -17.036218 -0.041707817    3509.8932    1588.7668    914.29568     860.7048    28.379602    18.846569    14.337845   0.41550259   0.41550184    0.3674124   0.36720806    297.51231     41.49527    35.978931    34.423473    90.016431    119.66323    90.107069    18.845613    14.338201    28.371698     18.83784     14.34385 
[...]
  961000    302.13792    1.2509986    2139.1071   -1132.8812   -211.49952    2076.6275   -2309.1076    373.59044    44657.537 -0.067234084   -17.036218 -0.041707817    3504.4684    1542.6606    938.53208    870.80877    28.379604    18.846563    14.337844   0.34769509    0.3476938   0.29415733   0.29404021    302.13792     41.49527    35.978931    34.423473    90.016431    119.66323    90.107069    18.846574    14.338641    28.370683     18.84561    14.344815 
  962000    294.46142    1.2509986    2176.4236   -1168.4686   -211.49952    2075.7261   -2308.7281    141.36849    44657.537 -0.067234084   -17.036218 -0.041707817    3577.8943    1587.4811    953.80629    883.43075    28.379604    18.846563    14.337844   0.36313637   0.36313025   0.30446447   0.30442176    294.46142     41.49527    35.978931    34.423473    90.016431    119.66323    90.107069    18.844519     14.33633    28.380801    18.847589    14.333383 
  963000    299.79495    1.2509986    2130.1644   -1188.4557   -211.49952    2076.1914   -2308.8087   -1251.7996    44657.537 -0.067234084   -17.036218 -0.041707817    3551.2373    1565.1206    939.58463    894.14193    28.379604    18.846563    14.337844   0.35386643   0.35385979   0.30079391   0.30073057    299.79495     41.49527    35.978931    34.423473    90.016431    119.66323    90.107069    18.848055    14.339509    28.380969    18.851827    14.346947 
  964000     295.4968    1.2509986    2131.3969   -1148.3899   -211.49952    2072.5738   -2309.7899    1252.7112    44657.537 -0.067234084   -17.036218 -0.041707817    3517.0028    1560.0596    946.14267    861.55123    28.379604    18.846563    14.337844   0.34696036   0.34695202   0.29735869   0.29722832     295.4968     41.49527    35.978931    34.423473    90.016431    119.66323    90.107069    18.848305    14.336439    28.378652     18.84994    14.328294 
  965000    296.78549    1.2509986    2154.1789    -1165.464   -211.49952    2083.1167   -2309.3892     1156.877    44657.537 -0.067234084   -17.036218 -0.041707817    3545.9155    1574.8834     943.0776    878.81754    28.379604    18.846563    14.337844   0.35214653   0.35214526     0.296245     0.296195    296.78549     41.49527    35.978931    34.423473    90.016431    119.66323    90.107069    18.846721    14.338607    28.385845    18.846497    14.341668 
  966000    297.99633    1.2509986    2180.6171   -1164.7574   -211.49952    2076.8216   -2309.5756    27.693232    44657.537 -0.067234084   -17.036218 -0.041707817    3578.1286    1582.7032    959.75322     882.4201    28.379604    18.846563    14.337844   0.34434072   0.34433926   0.28489359   0.28485891    297.99633     41.49527    35.978931    34.423473    90.016431    119.66323    90.107069    18.846766    14.338795    28.380951     18.84618    14.344609 
  967000    305.64249    1.2509986    2104.5859   -1203.2175   -211.49952    2073.4217   -2309.1233   -1304.4518    44657.537 -0.067234084   -17.036218 -0.041707817    3543.5049      1602.39    926.45251    865.23166    28.379604    18.846563    14.337844   0.34363522   0.34362964   0.28915442   0.28902588    305.64249     41.49527    35.978931    34.423473    90.016431    119.66323    90.107069    18.846472    14.336533    28.377651    18.847624    14.328548 
  968000    293.51492    1.2509986    2031.4884   -1196.0792   -211.49952    2077.5796   -2309.2647   -411.58012    44657.537 -0.067234084   -17.036218 -0.041707817    3459.2528    1554.4907    885.81981    868.45648    28.379604    18.846563    14.337844    0.3392046   0.33920348   0.28422622   0.28417906    293.51492     41.49527    35.978931    34.423473    90.016431    119.66323    90.107069    18.847215    14.337776    28.373907    18.846541    14.336617 
  969000    301.96848    1.2509986    2037.1409   -1210.6931   -211.49952    2074.9799   -2309.1285   -2689.2744    44657.537 -0.067234084   -17.036218 -0.041707817    3481.9826     1541.843    921.97196    872.22902    28.379604    18.846563    14.337844   0.32528109      0.32527   0.26887091    0.2685252    301.96848     41.49527    35.978931    34.423473    90.016431    119.66323    90.107069     18.84659    14.336775    28.393764    18.848457    14.327657 
  970000    300.04046    1.2509986     2084.965   -1218.1525   -211.49952    2079.2949   -2308.9665   -2820.9421    44657.537 -0.067234084   -17.036218 -0.041707817    3532.7891    1561.3095    967.20308    855.42135    28.379604    18.846563    14.337844   0.34375627   0.34374923   0.28426969   0.28418709    300.04046     41.49527    35.978931    34.423473    90.016431    119.66323    90.107069    18.845196     14.33692    28.378054    18.842244    14.333763 
  971000    297.32486    1.2509986    2076.3928   -1197.7215   -211.49952    2077.7098   -2309.3008   -722.18709    44657.537 -0.067234084   -17.036218 -0.041707817    3505.7052    1562.9399    944.52063    850.73752    28.379604    18.846563    14.337844   0.35551715   0.35551484   0.29834846   0.29833806    297.32486     41.49527    35.978931    34.423473    90.016431    119.66323    90.107069    18.847596    14.337486    28.377624    18.847571    14.337498 
  972000    299.15758    1.2509986    2131.0054   -1190.9401   -211.49952    2077.2277    -2309.162   -1113.8964    44657.537 -0.067234084   -17.036218 -0.041707817    3553.8798    1612.2592    938.64018    854.84156    28.379604    18.846563    14.337844   0.33982324   0.33980517   0.27923755   0.27907472    299.15758     41.49527    35.978931    34.423473    90.016431    119.66323    90.107069    18.847245    14.338872     28.39023    18.848975    14.332645 
  973000    301.21409    1.2509986    2169.1546   -1163.1869   -211.49952    2080.3055   -2308.8694   -602.68454    44657.537 -0.067234084   -17.036218 -0.041707817    3560.9055    1597.5801    944.65693     869.5774    28.379604    18.846563    14.337844   0.36635136   0.36635079   0.30417812   0.30415876    301.21409     41.49527    35.978931    34.423473    90.016431    119.66323    90.107069    18.845909    14.337802    28.382081    18.845435    14.340081 
  974000    295.13063    1.2509986    2192.8871   -1183.4325   -211.49952    2079.9661   -2309.4557    72.035257    44657.537 -0.067234084   -17.036218 -0.041707817    3605.8091    1590.1149    975.15517    887.01055    28.379604    18.846563    14.337844    0.3914176   0.39141116   0.33060925   0.33054287    295.13063     41.49527    35.978931    34.423473    90.016431    119.66323    90.107069    18.847046    14.337303    28.371586    18.848213     14.33815 
  975000    299.95523    1.2509986    2159.7555   -1174.7981   -211.49952    2076.0498   -2309.9772   -605.00277    44657.537 -0.067234084   -17.036218 -0.041707817    3568.4811    1543.7707    934.79124    926.29053    28.379604    18.846563    14.337844   0.37597992   0.37597464   0.31843014   0.31824534    299.95523     41.49527    35.978931    34.423473    90.016431    119.66323    90.107069    18.846655    14.339899    28.371044    18.846503    14.349936 
  976000    300.08339    1.2509986    2148.7789   -1179.7331   -211.49952    2073.2888   -2309.2484    518.16314    44657.537 -0.067234084   -17.036218 -0.041707817    3564.4716    1587.5962    948.95994     877.4745    28.379604    18.846563    14.337844   0.35370782   0.35370743   0.30659943   0.30648623    300.08339     41.49527    35.978931    34.423473    90.016431    119.66323    90.107069     18.84627    14.337176    28.381452    18.844116    14.330385 
  977000    303.25362    1.2509986    2161.3301   -1203.2577   -211.49952    2076.4751   -2309.3564   -1398.7571    44657.537 -0.067234084   -17.036218 -0.041707817    3597.4691    1580.7245    945.66435    914.32184    28.379604    18.846563    14.337844   0.37120134    0.3711968   0.32331881   0.32319969    303.25362     41.49527    35.978931    34.423473    90.016431    119.66323    90.107069    18.847741    14.339128    28.370361     18.85138     14.34502 
  978000     303.9143    1.2509986     2088.301    -1145.287   -211.49952    2079.7167   -2309.2023    254.66263    44657.537 -0.067234084   -17.036218 -0.041707817    3463.0735    1549.3137    900.72754    865.48231    28.379604    18.846563    14.337844   0.37351458   0.37351386   0.31949339   0.31945771     303.9143     41.49527    35.978931    34.423473    90.016431    119.66323    90.107069     18.84554    14.337551     28.37961    18.845693    14.334673 
  979000    299.82861    1.2509986    2138.2694   -1184.8034   -211.49952    2073.0172    -2309.682   -1867.3217    44657.537 -0.067234084   -17.036218 -0.041707817    3559.7376    1599.1876    924.32724    883.23568    28.379604    18.846563    14.337844   0.38368432   0.38368234   0.33898489   0.33892455    299.82861     41.49527    35.978931    34.423473    90.016431    119.66323    90.107069    18.847432    14.337348    28.376663    18.847583    14.332572 
  980000    303.37225    1.2509986    2097.5403   -1195.2146   -211.49952    2075.3744   -2310.2872   -1233.9828    44657.537 -0.067234084   -17.036218 -0.041707817    3527.6677    1606.6413    903.24877    865.89531    28.379604    18.846563    14.337844   0.35819804   0.35819697   0.30039986   0.30028953    303.37225     41.49527    35.978931    34.423473    90.016431    119.66323    90.107069    18.845465    14.337166    28.383445    18.841314    14.333643 
  981000    301.89408    1.2509986    2137.3719   -1213.3305   -211.49952    2080.7958    -2309.869   -1377.2699    44657.537 -0.067234084   -17.036218 -0.041707817    3579.7756    1572.9106    984.64857    873.94779    28.379604    18.846563    14.337844   0.36205542   0.36205166    0.3104552   0.31031964    301.89408     41.49527    35.978931    34.423473    90.016431    119.66323    90.107069    18.846582    14.336162    28.382789    18.846767    14.328681 
  982000    296.52048    1.2509986    2075.3553   -1184.2583   -211.49952    2078.7522    -2309.146    46.240586    44657.537 -0.067234084   -17.036218 -0.041707817    3490.0074    1552.3385    938.23761    856.25377    28.379604    18.846563    14.337844   0.41019557   0.41019419   0.35668553   0.35655274    296.52048     41.49527    35.978931    34.423473    90.016431    119.66323    90.107069    18.846842    14.336769    28.380909    18.842389    14.330306 
  983000    303.31265    1.2509986    2103.0821   -1199.2656   -211.49952    2074.0307    -2309.638   -1572.2013    44657.537 -0.067234084   -17.036218 -0.041707817    3537.9551    1576.7296    917.93404    886.34638    28.379604    18.846563    14.337844   0.37647567   0.37646938   0.32072448   0.32055979    303.31265     41.49527    35.978931    34.423473    90.016431    119.66323    90.107069    18.846451    14.337755    28.390876     18.84306    14.338573 
  984000    299.26583    1.2509986    2012.7268   -1196.2992   -211.49952    2073.8942   -2309.5618   -505.31229    44657.537 -0.067234084   -17.036218 -0.041707817    3444.6937    1522.3535    909.33309    862.14406    28.379604    18.846563    14.337844   0.35958119   0.35958035   0.32223084   0.32215891    299.26583     41.49527    35.978931    34.423473    90.016431    119.66323    90.107069    18.846488    14.337906    28.382576    18.841813    14.336324 
  985000    298.35232    1.2509986    2110.0371   -1159.7497   -211.49952    2078.0391    -2309.059    454.16343    44657.537 -0.067234084   -17.036218 -0.041707817    3500.8068    1591.8079    903.29731    853.95511    28.379604    18.846563    14.337844   0.38570777    0.3857042   0.33384424   0.33378434    298.35232     41.49527    35.978931    34.423473    90.016431    119.66323    90.107069    18.847691    14.338873    28.383559     18.85076    14.346027 
  986000    302.14097    1.2509986    2128.2705   -1164.2132   -211.49952    2075.6221   -2309.3129    213.62584    44657.537 -0.067234084   -17.036218 -0.041707817    3526.1745    1562.5007    934.06554    877.17836    28.379604    18.846563    14.337844   0.41768676   0.41767844   0.35859003   0.35847334    302.14097     41.49527    35.978931    34.423473    90.016431    119.66323    90.107069    18.844056    14.339179    28.386494    18.842552    14.344817 
  987000    301.86351    1.2509986    2216.4246   -1187.9345   -211.49952    2074.6133   -2309.6284   -1606.9095    44657.537 -0.067234084   -17.036218 -0.041707817    3639.3742    1648.8008    950.01513     888.8172    28.379604    18.846563    14.337844   0.43163532   0.43163209   0.37273979   0.37268249    301.86351     41.49527    35.978931    34.423473    90.016431    119.66323    90.107069    18.847244    14.339141    28.380589    18.848896    14.347136 
  988000    297.25555    1.2509986    2118.9835   -1171.3514   -211.49952    2075.2607   -2309.5558    989.23178    44657.537 -0.067234084   -17.036218 -0.041707817      3524.63    1593.9555    922.41853    859.03852    28.379604    18.846563    14.337844    0.4117606   0.41175903   0.35903677   0.35895065    297.25555     41.49527    35.978931    34.423473    90.016431    119.66323    90.107069     18.84701    14.336807    28.386782    18.848088    14.333888 
  989000    296.27947    1.2509986    2143.5218   -1163.7219   -211.49952    2069.2577   -2309.8299   -709.47346    44657.537 -0.067234084   -17.036218 -0.041707817    3547.8159    1583.1967     949.3078    869.73235    28.379604    18.846563    14.337844   0.42376963   0.42376728   0.37073635   0.37069772    296.27947     41.49527    35.978931    34.423473    90.016431    119.66323    90.107069    18.847538    14.337755    28.377779    18.848537    14.333701 
  990000    302.55903    1.2509986    2073.6421   -1201.7766   -211.49952    2074.6559   -2309.8477   -1192.7154    44657.537 -0.067234084   -17.036218 -0.041707817    3510.6104     1580.565     939.5366    844.46398    28.379604    18.846563    14.337844   0.37873068   0.37872062   0.31191183    0.3117819    302.55903     41.49527    35.978931    34.423473    90.016431    119.66323    90.107069    18.845678    14.339676    28.387508    18.844681    14.346562 
  991000    297.56131    1.2509986    2094.1609   -1193.0965   -211.49952    2086.7471   -2308.9763    405.39762    44657.537 -0.067234084   -17.036218 -0.041707817    3509.4866    1587.6117     921.3412    854.55693    28.379604    18.846563    14.337844   0.38944983   0.38944748   0.33151636   0.33148986    297.56131     41.49527    35.978931    34.423473    90.016431    119.66323    90.107069    18.846699    14.338737    28.380488    18.851126    14.344239 
  992000    288.97821    1.2509986    2190.5233   -1159.1071   -211.49952    2077.4937   -2308.5747   -1789.6143    44657.537 -0.067234084   -17.036218 -0.041707817    3580.7114    1572.2608    985.65973     868.5964    28.379604    18.846563    14.337844   0.40398711    0.4039804   0.33739651   0.33727813    288.97821     41.49527    35.978931    34.423473    90.016431    119.66323    90.107069    18.846854     14.33643    28.372159    18.842334    14.335273 
  993000    302.79219    1.2509986    2163.8318   -1154.4184   -211.49952    2076.3928   -2309.5075    1116.9531    44657.537 -0.067234084   -17.036218 -0.041707817    3551.3649    1588.2923    957.85434    852.23999    28.379604    18.846563    14.337844   0.38860974   0.38860723      0.31309   0.31302308    302.79219     41.49527    35.978931    34.423473    90.016431    119.66323    90.107069    18.846759    14.339108    28.378232    18.844502    14.346333 
  994000    302.26923    1.2509986    2133.9081   -1174.0025   -211.49952    2080.3985   -2309.2067   -767.76525    44657.537 -0.067234084   -17.036218 -0.041707817    3536.7188    1561.0792    943.05076    883.18461    28.379604    18.846563    14.337844    0.3961838   0.39617624   0.34337185   0.34329847    302.26923     41.49527    35.978931    34.423473    90.016431    119.66323    90.107069     18.84785    14.338579    28.371115    18.847988    14.340674 
  995000    296.50149    1.2509986    2106.5423   -1189.0974   -211.49952    2068.6516   -2310.0067   -1208.8241    44657.537 -0.067234084   -17.036218 -0.041707817    3536.9949    1551.4275    940.90516    890.91664    28.379604    18.846563    14.337844   0.37723128   0.37722887   0.30869538   0.30861933    296.50149     41.49527    35.978931    34.423473    90.016431    119.66323    90.107069     18.84592    14.338087     28.38807    18.847903    14.341172 
  996000    299.59985    1.2509986    2136.8191   -1156.8055   -211.49952    2078.9425   -2308.8854    1360.2347    44657.537 -0.067234084   -17.036218 -0.041707817    3523.5675     1567.806     890.5441    910.33575    28.379604    18.846563    14.337844   0.39477241   0.39476548    0.3432675   0.34318447    299.59985     41.49527    35.978931    34.423473    90.016431    119.66323    90.107069    18.846761    14.335666    28.381976    18.853069    14.331846 
  997000     299.0884    1.2509986    2119.1939   -1166.8221   -211.49952    2078.4931   -2309.4582    1614.5714    44657.537 -0.067234084   -17.036218 -0.041707817    3516.9811      1569.56    920.40855    878.27836    28.379604    18.846563    14.337844    0.3928128   0.39280687   0.33757467   0.33750268     299.0884     41.49527    35.978931    34.423473    90.016431    119.66323    90.107069    18.846909     14.33632    28.372354    18.847512    14.335412 
  998000    295.94942    1.2509986    2209.4311   -1144.9111   -211.49952     2078.332   -2308.6333    757.62112    44657.537 -0.067234084   -17.036218 -0.041707817    3584.6435    1547.5843    980.01174     901.4785    28.379604    18.846563    14.337844   0.40942588   0.40942109   0.36556889   0.36538122    295.94942     41.49527    35.978931    34.423473    90.016431    119.66323    90.107069    18.845718    14.339205    28.390805    18.843148     14.34481 
  999000     302.4951    1.2509986    2197.8733   -1157.0479   -211.49952    2071.9737   -2309.3005    131.96048    44657.537 -0.067234084   -17.036218 -0.041707817     3592.248    1613.8252     931.5705    892.40197    28.379604    18.846563    14.337844   0.38899506   0.38899146   0.33150505   0.33136074     302.4951     41.49527    35.978931    34.423473    90.016431    119.66323    90.107069    18.847205    14.336588    28.373844    18.849031     14.32907 
 1000000    305.79963    1.2509986    2130.5892   -1211.3392   -211.49952    2079.8181   -2309.8798   -1170.3516    44657.537 -0.067234084   -17.036218 -0.041707817    3571.9901    1560.6183    964.78353    886.97363    28.379604    18.846563    14.337844   0.39708225   0.39706873   0.33612453   0.33601555    305.79963     41.49527    35.978931    34.423473    90.016431    119.66323    90.107069     18.84626    14.337392    28.369128    18.848558    14.339519 
Loop time of 3042.96 on 60 procs for 1000000 steps with 4560 atoms

Pair  time (%) = 552.02 (18.1409)
Bond  time (%) = 59.2838 (1.94823)
Kspce time (%) = 1579.65 (51.9118)
Neigh time (%) = 14.5704 (0.478825)
Comm  time (%) = 578.849 (19.0226)
Outpt time (%) = 3.03071 (0.0995976)
Other time (%) = 255.55 (8.39809)

Nlocal:    76 ave 83 max 69 min
Histogram: 2 3 14 4 1 17 5 7 2 5
Nghost:    3985.45 ave 4050 max 3884 min
Histogram: 2 6 6 6 0 2 4 11 16 7
Neighs:    28092.6 ave 30983 max 25463 min
Histogram: 2 6 8 7 8 12 8 3 4 2

Total # of neighbors = 1685554
Ave neighs/atom = 369.639
Ave special neighs/atom = 10.6316
Neighbor list builds = 6597
Dangerous builds = 0
System init for write_data ...
PPPM initialization ...
  G vector (1/distance) = 0.246499
  grid = 16 16 20
  stencil order = 5
  estimated absolute RMS force accuracy = 0.00242397
  estimated relative force accuracy = 7.2997e-06
  using double precision FFTs
  3d grid and FFT values/proc = 1053 112
