LAMMPS data file via write_data, version 15 May 2015, timestep = 8008000

2611 atoms
6 atom types
1749 bonds
4 bond types
894 angles
3 angle types
44 dihedrals
3 dihedral types
10 impropers
1 improper types

-1.4930362434311945e+01 1.4930362434311945e+01 xlo xhi
-1.4930362434311945e+01 1.4930362434311945e+01 ylo yhi
-1.4930362434311945e+01 1.4930362434311945e+01 zlo zhi

Masses

1 15.9994
2 1.00794
3 12.0107
4 1.00794
5 12.0107
6 12.0107

Bond Coeffs # harmonic

1 1000 1
2 469 1.4
3 367 1.08
4 469 0.7

Angle Coeffs # harmonic

1 100 109.47
2 35 120
3 63 120

Dihedral Coeffs # opls

1 0 7.25 0 0
2 0 7.25 0 0
3 0 7.25 0 0

Improper Coeffs # cvff

1 2.5 -1 2

Atoms # full

1565 522 2 4.0999999999999998e-01 -1.1851417979940985e+01 -1.0150883884873469e+01 -1.3738926008937558e+01 1 -1 2
2258 753 2 4.0999999999999998e-01 -1.1207059614458935e+01 -6.5738878605434810e+00 -8.7760792759985691e+00 0 0 0
1528 510 1 -8.1999999999999995e-01 -1.1358503656725427e+01 -1.0084309956543926e+01 -8.9050553731242577e+00 -3 0 -3
1529 510 2 4.0999999999999998e-01 -1.1019971006028046e+01 -1.1010153430877605e+01 -9.0729562647307347e+00 -3 0 -3
1530 510 2 4.0999999999999998e-01 -1.2216257796053286e+01 -9.9480557199521709e+00 -9.4007103106197292e+00 -3 0 -3
677 226 2 4.0999999999999998e-01 -1.0497079186504450e+01 -7.5907909272379790e+00 -1.3509146808003491e+01 1 -1 -1
676 226 1 -8.1999999999999995e-01 -1.0657668528154733e+01 -7.5150719754211011e+00 -1.2525043714689110e+01 1 -1 -1
2300 767 2 4.0999999999999998e-01 -1.3363813312194090e+01 -6.0300941329692090e+00 -1.1671865792493943e+01 -2 -1 0
281 94 2 4.0999999999999998e-01 -1.0308657092528030e+01 -5.1198599140269607e+00 -1.4266486855288889e+01 -1 -3 -1
678 226 2 4.0999999999999998e-01 -1.0210266849878575e+01 -8.2757924576053430e+00 -1.2054812629871712e+01 1 -1 -1
1533 511 2 4.0999999999999998e-01 -1.0440787738844374e+01 -1.2924442248153239e+01 -9.0389703390135807e+00 2 1 2
2248 750 1 -8.1999999999999995e-01 -9.2827382652927817e+00 -1.0393827032005593e+01 -1.1278946467177924e+01 2 -2 0
1254 418 2 4.0999999999999998e-01 -1.4608213563317518e+01 -1.1937130548332945e+01 -1.2761248161399148e+01 -2 2 -1
2249 750 2 4.0999999999999998e-01 -9.4802060036718050e+00 -1.1139405475252403e+01 -1.0642471434453350e+01 2 -2 0
2250 750 2 4.0999999999999998e-01 -1.0047956735886014e+01 -1.0285885110263813e+01 -1.1913588424725901e+01 2 -2 0
2406 802 2 4.0999999999999998e-01 -1.4598308929883482e+01 -1.2271155927499077e+01 -9.6387705052890169e+00 -1 4 0
669 223 2 4.0999999999999998e-01 -1.2969111157228102e+01 -1.2564998251350040e+01 -1.0851528125667031e+01 0 -2 1
2405 802 2 4.0999999999999998e-01 -1.3821134916347592e+01 -1.3150437635031372e+01 -8.5032351509142128e+00 -1 4 0
262 88 1 -8.1999999999999995e-01 -9.4832100601182567e+00 -1.2857064030334715e+01 -1.3991871245860001e+01 -1 -3 -3
1214 405 2 4.0999999999999998e-01 -1.4590451908495563e+01 -9.8014409117534651e+00 -1.3741083904623890e+01 3 2 0
667 223 1 -8.1999999999999995e-01 -1.2749800756858912e+01 -1.2889173630630033e+01 -1.1771742496347073e+01 0 -2 1
668 223 2 4.0999999999999998e-01 -1.3102662420045409e+01 -1.3817192489199925e+01 -1.1891119373740485e+01 0 -2 1
1532 511 2 4.0999999999999998e-01 -9.5465091396292223e+00 -1.3121286582390796e+01 -1.0391040755854583e+01 2 1 2
1693 565 1 -8.1999999999999995e-01 -7.6826758574868350e+00 -5.7511191894576186e+00 -1.0539247509429472e+01 0 -2 1
1531 511 1 -8.1999999999999995e-01 -1.0003573571807305e+01 -1.2452590473605076e+01 -9.8045948362302369e+00 2 1 2
2404 802 1 -8.1999999999999995e-01 -1.3712833998035125e+01 -1.2640187846969521e+01 -9.3564041007889251e+00 -1 4 0
1564 522 1 -8.1999999999999995e-01 -1.1417325718875368e+01 -1.0455487592688909e+01 -1.2891127872469038e+01 1 -1 2
1566 522 2 4.0999999999999998e-01 -1.2007092955472654e+01 -1.1122299387841933e+01 -1.2435586624896033e+01 1 -1 2
2325 775 2 4.0999999999999998e-01 -1.4178362559644967e+01 -1.0267629744809831e+01 -1.1096834209200040e+01 -3 -4 1
1991 664 2 4.0999999999999998e-01 -1.3695221134289973e+01 -7.1963367711963189e+00 -1.4556297186701638e+01 -1 6 2
263 88 2 4.0999999999999998e-01 -1.0442022690796428e+01 -1.2852289602407735e+01 -1.3707905181005216e+01 -1 -3 -3
2257 753 1 -8.1999999999999995e-01 -1.1996755709607287e+01 -7.1855144412982508e+00 -8.7283907066825677e+00 0 0 0
2323 775 1 -8.1999999999999995e-01 -1.3802192345458042e+01 -9.6335772618106539e+00 -1.0421219947468639e+01 -3 -4 1
234 78 2 4.0999999999999998e-01 -8.8501961653676506e+00 -1.3516249698470915e+01 -1.2583082081326594e+01 -2 3 -1
2324 775 2 4.0999999999999998e-01 -1.3969234814422464e+01 -8.6931817428373392e+00 -1.0717419675534424e+01 -3 -4 1
1845 615 2 4.0999999999999998e-01 -1.2067239853615131e+01 -1.4755934257897565e+01 -8.3028597467598324e+00 0 -1 1
1049 350 2 4.0999999999999998e-01 -1.3867235875591156e+01 -6.1804931593241204e+00 -8.2133934199516201e+00 1 -1 -1
651 217 2 4.0999999999999998e-01 -8.2240217636644886e+00 -9.3928682991087982e+00 -1.2043577967078711e+01 -5 0 6
2578 860 1 -8.1999999999999995e-01 -8.3598721404841925e+00 -8.5849948084345460e+00 -9.2645453701825211e+00 0 -2 0
2580 860 2 4.0999999999999998e-01 -8.9083287364208346e+00 -9.1980343638140454e+00 -9.8331920546691549e+00 0 -2 0
2259 753 2 4.0999999999999998e-01 -1.1686198905118074e+01 -8.1349760923758012e+00 -8.7737584593403408e+00 0 0 0
1048 350 1 -8.1999999999999995e-01 -1.4827229284743423e+01 -6.1545724449577168e+00 -8.4921800460119705e+00 1 -1 -1
1694 565 2 4.0999999999999998e-01 -8.3911726607308736e+00 -6.0440160711056485e+00 -1.1181294926263394e+01 0 -2 1
2299 767 1 -8.1999999999999995e-01 -1.2517491135721320e+01 -5.5117589088944214e+00 -1.1794538377123626e+01 -2 -1 0
2301 767 2 4.0999999999999998e-01 -1.1754148258078571e+01 -6.1451373987694478e+00 -1.1921505090855337e+01 -2 -1 0
2490 830 2 4.0999999999999998e-01 -1.4811003578936003e+01 -6.5652990183640707e+00 -1.0215654007623286e+01 1 -1 -1
1843 615 1 -8.1999999999999995e-01 -1.1119169748744341e+01 -1.4481939646865765e+01 -8.1413938941384849e+00 0 -1 1
1223 408 2 4.0999999999999998e-01 -7.6747012890280573e+00 -1.1870954007600940e+01 -1.3381203124942601e+01 1 1 -4
233 78 2 4.0999999999999998e-01 -7.5027710181725027e+00 -1.4153591044644825e+01 -1.1916135429633353e+01 -2 3 -1
232 78 1 -8.1999999999999995e-01 -8.4737416247757764e+00 -1.3963091015740975e+01 -1.1771542786444193e+01 -2 3 -1
1571 524 2 4.0999999999999998e-01 -8.1032716066178399e+00 -1.2445032220549443e+01 -7.5216267789760627e+00 -2 -1 0
1296 432 2 4.0999999999999998e-01 -8.8624857402973269e+00 -9.1528188997154345e+00 -7.4955044707660186e+00 1 3 3
1102 368 1 -8.1999999999999995e-01 -2.9441709567325809e+00 -1.4348159913735156e+01 -1.3731081593402090e+01 0 1 0
91 31 1 -8.1999999999999995e-01 -8.9004023406241117e-01 -1.2323855960103346e+01 -1.0072593393312907e+01 -6 -1 -3
285 95 2 4.0999999999999998e-01 -2.0919511341834305e+00 -1.1511940074871656e+01 -1.0858919956259115e+01 -3 0 1
1222 408 1 -8.1999999999999995e-01 -6.8717798245841539e+00 -1.1770239362248763e+01 -1.3968701969210338e+01 1 1 -4
1104 368 2 4.0999999999999998e-01 -2.3369452504048169e+00 -1.4617935958905639e+01 -1.2983767059121149e+01 0 1 0
1695 565 2 4.0999999999999998e-01 -7.2882834405887502e+00 -6.5525846460956672e+00 -1.0089704484045861e+01 0 -2 1
1163 388 2 4.0999999999999998e-01 -7.3813242886936994e+00 -6.4213388590946288e+00 -1.3672128416735637e+01 1 1 2
92 31 2 4.0999999999999998e-01 -2.7228422034981925e-01 -1.2335123939912716e+01 -9.2863162522759488e+00 -6 -1 -3
1162 388 1 -8.1999999999999995e-01 -7.0108172792157992e+00 -7.0928388033178082e+00 -1.4313839859275827e+01 1 1 2
328 110 1 -8.1999999999999995e-01 -5.6956434788451578e+00 -1.4475400305557054e+01 -9.7126460457321286e+00 -1 -1 1
700 234 1 -8.1999999999999995e-01 -6.7094658746402658e+00 -1.2086273216583139e+01 -8.6624100122667969e+00 0 -1 1
2579 860 2 4.0999999999999998e-01 -7.4039340031968486e+00 -8.8778384489703122e+00 -9.2846965029053852e+00 0 -2 0
999 333 2 4.0999999999999998e-01 -1.8148679906213427e+00 -1.3849106848812113e+01 -7.6076421269950423e+00 -3 1 1
1040 347 2 4.0999999999999998e-01 -4.7915918703211702e-01 -1.1367865032890906e+01 -1.4154506796263242e+01 -3 -1 1
93 31 2 4.0999999999999998e-01 -7.3664539972457632e-01 -1.3140661974953169e+01 -1.0628722117115055e+01 -6 -1 -3
53 18 2 4.0999999999999998e-01 -1.8321784279136146e+00 -8.1708612809435692e+00 -9.5318952857371499e+00 -3 -4 0
52 18 1 -8.1999999999999995e-01 -2.2449749395336855e+00 -8.1938629666869378e+00 -8.6213728187642680e+00 -3 -4 0
1002 334 2 4.0999999999999998e-01 -1.1318466817339612e-02 -8.9924847454211694e+00 -1.1117316280614009e+01 -3 1 0
1164 388 2 4.0999999999999998e-01 -6.7139278963887641e+00 -7.9051322326000655e+00 -1.3811826640818417e+01 1 1 2
2268 756 2 4.0999999999999998e-01 -2.9726008714743788e+00 -9.7556306995504158e+00 -7.7077176650539823e+00 -5 -1 -1
1319 440 2 4.0999999999999998e-01 -2.4796053198594645e+00 -5.6959465810670089e+00 -1.3509440706728794e+01 2 -2 0
701 234 2 4.0999999999999998e-01 -6.5893635788373377e+00 -1.3070153416934520e+01 -8.7948350523658068e+00 0 -1 1
728 243 2 4.0999999999999998e-01 -1.1319242950603048e+00 -6.4039497585342868e+00 -1.1323853643809823e+01 0 -3 -1
1062 354 2 4.0999999999999998e-01 -2.4556286845838002e+00 -1.2567286461141968e+01 -1.4145781442179414e+01 -2 -3 1
1060 354 1 -8.1999999999999995e-01 -2.1288194075249969e+00 -1.1694826660277123e+01 -1.4509086806192308e+01 -2 -3 1
1318 440 1 -8.1999999999999995e-01 -2.7106088101090684e+00 -5.4495014503039734e+00 -1.4450654492078231e+01 2 -2 0
99 33 2 4.0999999999999998e-01 -2.8813390311090465e+00 -8.3626370575628002e+00 -1.3109710669035291e+01 -4 0 1
144 48 2 4.0999999999999998e-01 -5.4829054240581332e+00 -8.6922310754523835e+00 -8.1477770144496056e+00 -4 0 1
433 145 1 -8.1999999999999995e-01 -4.3266107864214991e+00 -6.8272022890428588e+00 -1.1260900848794588e+01 1 -3 2
637 213 1 -8.1999999999999995e-01 -3.5500604961646918e+00 -1.2779785634889286e+01 -8.5629247590856217e+00 -4 0 1
702 234 2 4.0999999999999998e-01 -6.4109742471486513e+00 -1.1600495545777189e+01 -9.4839354212355680e+00 0 -1 1
438 146 2 4.0999999999999998e-01 -6.1956980409490345e+00 -5.7272546051177962e+00 -8.2749529672403490e+00 -4 1 3
436 146 1 -8.1999999999999995e-01 -6.8910941532248611e+00 -6.1605896652125747e+00 -7.7016937249594042e+00 -4 1 3
98 33 2 4.0999999999999998e-01 -1.8022507298990060e+00 -8.5638651441864617e+00 -1.4318698679912853e+01 -4 0 1
97 33 1 -8.1999999999999995e-01 -2.2901754441786029e+00 -9.0212526757633160e+00 -1.3575255806840479e+01 -4 0 1
1000 334 1 -8.1999999999999995e-01 -8.8059629465590561e-01 -8.5095983566220372e+00 -1.1222947654441953e+01 -3 1 0
284 95 2 4.0999999999999998e-01 -2.8460722034612296e+00 -1.0075048314638906e+01 -1.1041182953062670e+01 -3 0 1
1527 509 2 4.0999999999999998e-01 -6.2255951497818582e+00 -1.3495440317375138e+01 -1.3196717779947216e+01 4 -1 0
1525 509 1 -8.1999999999999995e-01 -5.9356785079627556e+00 -1.4229222984729285e+01 -1.2582313570200947e+01 4 -1 0
1526 509 2 4.0999999999999998e-01 -5.1500379446722153e+00 -1.4704585837792512e+01 -1.2978268428622716e+01 4 -1 0
638 213 2 4.0999999999999998e-01 -4.2959438063161137e+00 -1.3427075208389077e+01 -8.7199454595980193e+00 -4 0 1
145 49 1 -8.1999999999999995e-01 -5.6383139250356020e+00 -9.1088473711202234e+00 -9.7232817406234737e+00 1 1 -1
435 145 2 4.0999999999999998e-01 -4.9397758364487370e+00 -6.0382912674633786e+00 -1.1220537164216758e+01 1 -3 2
639 213 2 4.0999999999999998e-01 -3.0861964397592434e+00 -1.2589491498934077e+01 -9.4281411941028104e+00 -4 0 1
434 145 2 4.0999999999999998e-01 -3.3808340785321196e+00 -6.5200005381672348e+00 -1.1155474527087213e+01 1 -3 2
1639 547 1 -8.1999999999999995e-01 -5.6292040684360494e+00 -1.1228414472416834e+01 -1.1516528696431752e+01 -3 1 4
1224 408 2 4.0999999999999998e-01 -7.1634934091538760e+00 -1.1699425866882660e+01 -1.4922572963486036e+01 1 1 -4
1061 354 2 4.0999999999999998e-01 -2.3682286113064581e+00 -1.0959235966680840e+01 -1.3875390693219279e+01 -2 -3 1
650 217 2 4.0999999999999998e-01 -6.6888864615046000e+00 -9.6046774065808123e+00 -1.2558430199917224e+01 -5 0 6
649 217 1 -8.1999999999999995e-01 -7.4554083952086332e+00 -8.9637482067354046e+00 -1.2517994077565993e+01 -5 0 6
1640 547 2 4.0999999999999998e-01 -6.0327866124128189e+00 -1.1366371531377023e+01 -1.2421001014008041e+01 -3 1 4
1001 334 2 4.0999999999999998e-01 -1.3168255372761006e+00 -8.7915692495595010e+00 -1.2077451987701512e+01 -3 1 0
1641 547 2 4.0999999999999998e-01 -4.7081956926677897e+00 -1.1617566086890202e+01 -1.1499623506575247e+01 -3 1 4
147 49 2 4.0999999999999998e-01 -5.2741061991529747e+00 -9.9732980833673572e+00 -1.0069776886905887e+01 1 1 -1
329 110 2 4.0999999999999998e-01 -5.4914900328979233e+00 -1.4212678182640788e+01 -1.0655662308486500e+01 -1 -1 1
146 49 2 4.0999999999999998e-01 -5.2720685163995586e+00 -8.3519970775294361e+00 -1.0264597845640397e+01 1 1 -1
283 95 1 -8.1999999999999995e-01 -2.9151743704358566e+00 -1.1059606828362242e+01 -1.1201964231838531e+01 -3 0 1
727 243 1 -8.1999999999999995e-01 -1.6162993041928964e+00 -5.7065134141356388e+00 -1.1852005708238355e+01 0 -3 -1
54 18 2 4.0999999999999998e-01 -1.9886083679533950e+00 -7.3685686264676535e+00 -8.1182360323125291e+00 -3 -4 0
1360 454 1 -8.1999999999999995e-01 -9.8285358997678749e+00 -1.1424640303187902e+01 -2.5834045274668718e+00 -1 -1 4
1361 454 2 4.0999999999999998e-01 -1.0520653113797163e+01 -1.0938191975458702e+01 -3.1166239915321672e+00 -1 -1 4
1867 623 1 -8.1999999999999995e-01 -1.3716055933268160e+01 -1.2209192925990568e+01 -2.9326833094704003e+00 -3 -1 3
1109 370 2 4.0999999999999998e-01 -1.2416198711653387e+01 -1.3387665021159178e+01 -4.9849372681001825e-01 -3 -2 0
2263 755 1 -8.1999999999999995e-01 -7.7665190553028056e+00 -6.0217562703984804e+00 -1.3068467537554795e+00 -3 -1 1
2535 845 2 4.0999999999999998e-01 -1.3597865695755408e+01 -6.2935018775965688e+00 -3.6879026184169117e+00 -1 -3 -1
1362 454 2 4.0999999999999998e-01 -9.6306586941355690e+00 -1.0912285104363569e+01 -1.7477503242299850e+00 -1 -1 4
759 253 2 4.0999999999999998e-01 -9.3969699093625039e+00 -5.5869297193163945e+00 -6.4268822292862566e+00 -1 -2 -1
1903 635 1 -8.1999999999999995e-01 -1.0629682866213559e+01 -1.3662172996128543e+01 -1.2798645397635457e+00 -2 1 -1
1204 402 1 -8.1999999999999995e-01 -1.1134989535305243e+01 -8.3345067572380707e+00 -7.1281758429069697e-02 0 1 -2
1868 623 2 4.0999999999999998e-01 -1.3037918430566735e+01 -1.1666112545685641e+01 -3.4278342207802321e+00 -3 -1 3
2265 755 2 4.0999999999999998e-01 -8.4788690385526557e+00 -5.6462759262388325e+00 -7.1392752539533610e-01 -3 -1 1
1325 442 2 4.0999999999999998e-01 -8.0765469307098066e+00 -8.6393971268002936e+00 -3.8964053067621478e+00 -4 -3 -2
1324 442 1 -8.1999999999999995e-01 -8.9210011524283068e+00 -8.2670592460990626e+00 -4.2814283736501189e+00 -4 -3 -2
1326 442 2 4.0999999999999998e-01 -9.1394192406516375e+00 -8.7462839924044005e+00 -5.1314980010206135e+00 -4 -3 -2
2533 845 1 -8.1999999999999995e-01 -1.2610279038742235e+01 -6.1545402241059683e+00 -3.6148038017118438e+00 -1 -3 -1
1294 432 1 -8.1999999999999995e-01 -9.3508582367201569e+00 -9.6813208432195861e+00 -6.8011276295387191e+00 1 3 3
2534 845 2 4.0999999999999998e-01 -1.2143822314578607e+01 -6.7081565171691953e+00 -4.3046648795607592e+00 -1 -3 -1
2283 761 2 4.0999999999999998e-01 -1.1970661105654806e+01 -9.5290048261380100e+00 -4.4456710691038737e+00 2 -1 1
2281 761 1 -8.1999999999999995e-01 -1.2000269665693040e+01 -1.0489043031336461e+01 -4.1674065201473791e+00 2 -1 1
73 25 1 -8.1999999999999995e-01 -1.1546486318851857e+01 -1.1975981325241705e+01 -6.4127020222841775e+00 -2 1 2
2282 761 2 4.0999999999999998e-01 -1.2058151157082991e+01 -1.1069797017765113e+01 -4.9794137469448483e+00 2 -1 1
1570 524 1 -8.1999999999999995e-01 -8.5821389830631531e+00 -1.2373672726060873e+01 -6.6466553168832121e+00 -2 -1 0
1572 524 2 4.0999999999999998e-01 -8.8951932361407202e+00 -1.1433293124139155e+01 -6.5137475879530200e+00 -2 -1 0
74 25 2 4.0999999999999998e-01 -1.0661596708976969e+01 -1.2441431092947786e+01 -6.4302548598024973e+00 -2 1 2
758 253 2 4.0999999999999998e-01 -9.1978191615989644e+00 -6.3906120191243527e+00 -5.0193986355544542e+00 -1 -2 -1
75 25 2 4.0999999999999998e-01 -1.2220678912494725e+01 -1.2522909449242151e+01 -6.9090035135879102e+00 -2 1 2
1346 449 2 4.0999999999999998e-01 -1.3993482232141806e+01 -1.1279866560449038e+01 -6.6410123703927493e+00 0 2 1
489 163 2 4.0999999999999998e-01 -1.2907462584966815e+01 -8.7614293922370550e+00 -2.5750396697581355e+00 0 -1 2
1896 632 2 4.0999999999999998e-01 -8.5946207684575242e+00 -1.1812361783325013e+01 -3.8427333145545521e+00 -2 0 0
1347 449 2 4.0999999999999998e-01 -1.4813100802193151e+01 -1.0970652689146197e+01 -5.2629018897388296e+00 0 2 1
488 163 2 4.0999999999999998e-01 -1.4141116856493298e+01 -7.7233795314042410e+00 -2.3159529223268365e+00 0 -1 2
274 92 1 -8.1999999999999995e-01 -1.2626119220812795e+01 -8.3389051617970296e+00 -5.9094396779565681e+00 -3 -6 -3
276 92 2 4.0999999999999998e-01 -1.2650765648603619e+01 -7.7777053745777236e+00 -6.7367416384367651e+00 -3 -6 -3
1345 449 1 -8.1999999999999995e-01 -1.4287459957272270e+01 -1.0562561372092343e+01 -6.0093229328554774e+00 0 2 1
487 163 1 -8.1999999999999995e-01 -1.3484624922425757e+01 -8.3370715967313611e+00 -1.8773396714301320e+00 0 -1 2
757 253 1 -8.1999999999999995e-01 -9.5530249132207548e+00 -5.5556224717099081e+00 -5.4396396662119368e+00 -1 -2 -1
1312 438 1 -8.1999999999999995e-01 -1.4244481109051460e+01 -1.3608352993053501e+01 -6.7431610840440150e+00 1 1 -1
1904 635 2 4.0999999999999998e-01 -1.0021273329758586e+01 -1.4117496771614999e+01 -6.2986507400911940e-01 -2 1 -1
1895 632 2 4.0999999999999998e-01 -7.6450383062080789e+00 -1.2298938151271589e+01 -5.0789019529009298e+00 -2 0 0
1894 632 1 -8.1999999999999995e-01 -7.6643991344674456e+00 -1.2067837092057429e+01 -4.1061745222923527e+00 -2 0 0
2538 846 2 4.0999999999999998e-01 -1.4689596024089008e+01 -8.1804217403895656e+00 -6.5802654286109430e-01 -1 0 -3
1869 623 2 4.0999999999999998e-01 -1.3399578626437519e+01 -1.2364978686716285e+01 -1.9969728240426861e+00 -3 -1 3
1108 370 1 -8.1999999999999995e-01 -1.3138429439192503e+01 -1.2724553411334876e+01 -3.0190541970113038e-01 -3 -2 0
275 92 2 4.0999999999999998e-01 -1.3372011481660147e+01 -9.0044359558304006e+00 -5.9357966686396111e+00 -3 -6 -3
1295 432 2 4.0999999999999998e-01 -1.0236745856754171e+01 -9.9702139854994449e+00 -7.1640671185371687e+00 1 3 3
1313 438 2 4.0999999999999998e-01 -1.3587775064668824e+01 -1.4027302228478019e+01 -6.1161045313579372e+00 1 1 -1
2264 755 2 4.0999999999999998e-01 -7.6761695222074451e+00 -5.4501900530005631e+00 -2.1224019486923513e+00 -3 -1 1
2198 733 2 4.0999999999999998e-01 -1.0804282851945356e+01 -1.4806868077638377e+01 -2.5664750314137557e+00 -2 0 0
1905 635 2 4.0999999999999998e-01 -1.0107229673337343e+01 -1.3001482901806586e+01 -1.8188566161861779e+00 -2 1 -1
1205 402 2 4.0999999999999998e-01 -1.1802304944870322e+01 -8.1744791861301884e+00 -7.9864858739174949e-01 0 1 -2
1206 402 2 4.0999999999999998e-01 -1.0688534166028830e+01 -9.2173770803754849e+00 -2.1687977572760886e-01 0 1 -2
24 8 2 4.0999999999999998e-01 -2.3701257128810127e-01 -8.8155805730554562e+00 -7.1764543897913669e+00 -4 -2 3
22 8 1 -8.1999999999999995e-01 -3.7081017759191859e-01 -9.6119588775843638e+00 -6.5866569787045322e+00 -4 -2 3
2266 756 1 -8.1999999999999995e-01 -2.8935471767593093e+00 -1.0467858595322852e+01 -7.0102485751200758e+00 -5 -1 -1
997 333 1 -8.1999999999999995e-01 -1.0241429540925200e+00 -1.4194219761055130e+01 -7.1020413180675277e+00 -3 1 1
1739 580 2 4.0999999999999998e-01 -4.6876719762285717e+00 -5.4641473377889689e+00 -4.3859844503436634e+00 -3 -2 4
2006 669 2 4.0999999999999998e-01 -7.2631237761952478e+00 -7.6629626668494000e+00 -6.0885392948509676e-01 -3 1 0
2005 669 1 -8.1999999999999995e-01 -6.6995503423717224e+00 -8.4605839502000926e+00 -3.9399003905399432e-01 -3 1 0
142 48 1 -8.1999999999999995e-01 -5.3895587405679901e+00 -8.4145673533049230e+00 -7.1916543971981586e+00 -4 0 1
837 279 2 4.0999999999999998e-01 -3.3909813222132890e-01 -6.8548282430676259e+00 -1.0374778974420344e+00 -5 0 3
1159 387 1 -8.1999999999999995e-01 -1.8315866881603871e+00 -5.2669716526652284e+00 -4.0594632392675347e+00 0 -1 -3
803 268 2 4.0999999999999998e-01 -5.8840702779837351e+00 -5.8363777335615765e+00 -8.8266625042127522e-01 -3 0 1
1687 563 1 -8.1999999999999995e-01 -6.1643237703292453e+00 -1.3908843952998112e+01 -2.5322937484285291e+00 -3 1 1
2446 816 1 -8.1999999999999995e-01 -3.0185853145263977e+00 -1.1434513583691018e+01 -4.4373535289050778e+00 -2 -1 1
129 43 2 4.0999999999999998e-01 -3.4682282107259912e+00 -5.4377739789455681e+00 -9.7155556235485108e-01 -1 0 0
1706 569 2 4.0999999999999998e-01 -2.7096052761980367e+00 -1.4335735567325660e+01 -2.5019526162080759e+00 -1 0 0
162 54 2 4.0999999999999998e-01 -5.5856471151245266e+00 -9.5075600522324635e+00 -3.7639835841890541e+00 -4 4 2
67 23 1 -8.1999999999999995e-01 -1.9565953226044996e+00 -1.4103469537472623e+01 -4.3169946509315427e+00 -4 -3 0
708 236 2 4.0999999999999998e-01 -1.9388227219779388e+00 -1.2437618941248417e+01 -1.3027386479873613e+00 -3 3 0
1705 569 1 -8.1999999999999995e-01 -3.1855772810823471e+00 -1.4015854687779205e+01 -1.6827407550617774e+00 -1 0 0
1707 569 2 4.0999999999999998e-01 -4.1575661458463671e+00 -1.3898617528355221e+01 -1.8863931383758299e+00 -1 0 0
2333 778 2 4.0999999999999998e-01 -2.5656544951285163e+00 -5.3706160801504232e+00 -5.5182571177224577e+00 -1 -1 -1
802 268 1 -8.1999999999999995e-01 -5.0354238153416393e+00 -6.1320763266212168e+00 -4.4409730725203822e-01 -3 0 1
2049 683 2 4.0999999999999998e-01 -4.9110225653234885e+00 -1.1551776157390091e+01 -5.5183924217512494e+00 -2 1 -2
2048 683 2 4.0999999999999998e-01 -5.7442193134514667e+00 -1.1462209743833863e+01 -6.9199406175999805e+00 -2 1 -2
2448 816 2 4.0999999999999998e-01 -3.0097297912084429e+00 -1.0683769680692734e+01 -5.0978732959189177e+00 -2 -1 1
2072 691 2 4.0999999999999998e-01 -4.1398222446751358e+00 -7.7029668474004058e+00 -4.0713160671623214e+00 -4 -2 -2
706 236 1 -8.1999999999999995e-01 -1.1698134215063671e+00 -1.1809889523436336e+01 -1.1820668700719263e+00 -3 3 0
1689 563 2 4.0999999999999998e-01 -6.1918496513069083e+00 -1.3671711500245236e+01 -1.5612161430702933e+00 -3 1 1
2007 669 2 4.0999999999999998e-01 -6.2611209687664147e+00 -8.7935588404874032e+00 -1.2287885846517810e+00 -3 1 0
161 54 2 4.0999999999999998e-01 -6.7751051698755695e+00 -1.0507944743239275e+01 -3.2629882280335334e+00 -4 4 2
2071 691 1 -8.1999999999999995e-01 -3.4360712771518838e+00 -8.2030293218942276e+00 -4.5759479042459557e+00 -4 -2 -2
23 8 2 4.0999999999999998e-01 -1.2371933210786796e+00 -1.0055226470066987e+01 -6.8166032691763441e+00 -4 -2 3
1303 435 1 -8.1999999999999995e-01 -2.1452596589006134e+00 -9.4143477895020435e+00 -2.3420011162193486e+00 -2 -6 4
2047 683 1 -8.1999999999999995e-01 -5.7349210846609449e+00 -1.1192843021883988e+01 -5.9569575997879198e+00 -2 1 -2
1304 435 2 4.0999999999999998e-01 -1.8729815601580722e+00 -8.8231150294249527e+00 -1.5828636684259294e+00 -2 -6 4
2447 816 2 4.0999999999999998e-01 -2.7855587502132426e+00 -1.1083366729371253e+01 -3.5305042095216344e+00 -2 -1 1
707 236 2 4.0999999999999998e-01 -1.4284459937779577e+00 -1.0899822912476239e+01 -1.5059019328320922e+00 -3 3 0
160 54 1 -8.1999999999999995e-01 -6.3460730073980773e+00 -9.6154848426985957e+00 -3.1236040894737904e+00 -4 4 2
836 279 2 4.0999999999999998e-01 -1.7316845577889470e+00 -6.8577429909944030e+00 -1.8467612277875922e-01 -5 0 3
1305 435 2 4.0999999999999998e-01 -2.3483533713997087e+00 -8.8537752992905219e+00 -3.1448041052042779e+00 -2 -6 4
1688 563 2 4.0999999999999998e-01 -6.6842179731580593e+00 -1.3233380862685342e+01 -3.0552094527246645e+00 -3 1 1
69 23 2 4.0999999999999998e-01 -2.2840529907742333e+00 -1.3170107414155114e+01 -4.4639226394572304e+00 -4 -3 0
68 23 2 4.0999999999999998e-01 -1.6019291444628063e+00 -1.4471448080521224e+01 -5.1765206232055565e+00 -4 -3 0
835 279 1 -8.1999999999999995e-01 -1.0197351351992570e+00 -7.4329443395967818e+00 -5.8748205039464452e-01 -5 0 3
2073 691 2 4.0999999999999998e-01 -3.5230826794537027e+00 -8.0064746717633390e+00 -5.5525627092697754e+00 -4 -2 -2
1160 387 2 4.0999999999999998e-01 -1.8869336824142700e+00 -5.2249769353474260e+00 -3.0618889993245979e+00 0 -1 -3
316 106 1 -8.1999999999999995e-01 -5.8793337136588342e-01 -6.3539148599662276e+00 -7.2711436569843784e+00 -3 -1 2
2334 778 2 4.0999999999999998e-01 -2.1051745821161774e+00 -5.5684981296647162e+00 -7.0724055272613882e+00 -1 -1 -1
2411 804 2 4.0999999999999998e-01 -5.7285278168121145e-01 -9.7004855252727360e+00 -3.4050594253900304e+00 -1 -1 3
317 106 2 4.0999999999999998e-01 -7.9775558299914451e-02 -6.2791822277611438e+00 -6.4131390750014852e+00 -3 -1 2
1496 499 2 4.0999999999999998e-01 -4.6846158307791264e-01 -1.3851157464294122e+01 -3.5393156709407538e+00 0 0 1
998 333 2 4.0999999999999998e-01 -2.0908067735783042e-01 -1.3678082456225578e+01 -7.3652084822749879e+00 -3 1 1
1738 580 1 -8.1999999999999995e-01 -5.5573833362707425e+00 -5.5285134550721491e+00 -4.8753108612448344e+00 -3 -2 4
1740 580 2 4.0999999999999998e-01 -5.3828574572331984e+00 -5.5983689621405404e+00 -5.8574728181987119e+00 -3 -2 4
2332 778 1 -8.1999999999999995e-01 -2.8808338959004089e+00 -5.3898349733427597e+00 -6.4670846934883670e+00 -1 -1 -1
143 48 2 4.0999999999999998e-01 -5.1668816927039849e+00 -9.2133744737930030e+00 -6.6328133601916157e+00 -4 0 1
437 146 2 4.0999999999999998e-01 -6.5332700177361431e+00 -7.0195833888734223e+00 -7.3355341084429355e+00 -4 1 3
2267 756 2 4.0999999999999998e-01 -3.1962453125109711e+00 -1.1341798121059220e+01 -7.3904915725948603e+00 -5 -1 -1
1699 567 1 -8.1999999999999995e-01 -1.1794284458721096e+01 -1.3082452772954088e+01 6.6070306802642094e+00 -4 -3 -2
1701 567 2 4.0999999999999998e-01 -1.2659653994766042e+01 -1.3179660337965508e+01 6.1154338429596784e+00 -4 -3 -2
884 295 2 4.0999999999999998e-01 -1.3530519340415440e+01 -1.2753816122689823e+01 3.2541460184520901e+00 -3 0 1
1110 370 2 4.0999999999999998e-01 -1.2840571675835925e+01 -1.2115391937158124e+01 4.3306685160207792e-01 -3 -2 0
2202 734 2 4.0999999999999998e-01 -1.0242438489498506e+01 -5.4307264445623655e+00 2.6492857653345787e+00 -2 -1 -3
106 36 1 -8.1999999999999995e-01 -9.2013265838442386e+00 -1.2567157455026344e+01 6.0277655843168993e+00 -2 0 -5
982 328 1 -8.1999999999999995e-01 -9.7461774245141548e+00 -8.5090395834879580e+00 2.8796638872306417e+00 -1 -2 -1
457 153 1 -8.1999999999999995e-01 -1.2658877620513849e+01 -9.7603821905542336e+00 5.0133103372876917e+00 -2 0 0
459 153 2 4.0999999999999998e-01 -1.3138634570344298e+01 -1.0193009032765570e+01 4.2499961873560643e+00 -2 0 0
107 36 2 4.0999999999999998e-01 -9.2749556697843527e+00 -1.2362351666744631e+01 5.0517458433384057e+00 -2 0 -5
2088 696 2 4.0999999999999998e-01 -9.4565883259654555e+00 -8.3148188004531924e+00 7.0983804699238711e+00 -2 -2 -3
108 36 2 4.0999999999999998e-01 -1.0068021589274391e+01 -1.2942953533235585e+01 6.3557873433530965e+00 -2 0 -5
1902 634 2 4.0999999999999998e-01 -1.0502049971579439e+01 -6.3664534188946362e+00 2.0638605649077491e-01 -2 -3 -2
883 295 1 -8.1999999999999995e-01 -1.2843451499892780e+01 -1.2784546801850183e+01 2.5282158528640508e+00 -3 0 1
1900 634 1 -8.1999999999999995e-01 -1.0247219896790508e+01 -5.4029342115829007e+00 1.2469414469412143e-01 -2 -3 -2
1427 476 2 4.0999999999999998e-01 -1.0614655177474315e+01 -1.1163903331149136e+01 4.2454085046458623e+00 -4 1 0
1428 476 2 4.0999999999999998e-01 -9.7907517734795491e+00 -1.0399246886256826e+01 3.0609001533317723e+00 -4 1 0
931 311 1 -8.1999999999999995e-01 -1.3313185882112506e+01 -6.5711681281091376e+00 1.6440738471488281e+00 -3 -4 1
1426 476 1 -8.1999999999999995e-01 -1.0175098911048515e+01 -1.1274642692960713e+01 3.3540565640479656e+00 -4 1 0
885 295 2 4.0999999999999998e-01 -1.2080737975295888e+01 -1.2182921705917547e+01 2.7654847130829090e+00 -3 0 1
2181 727 2 4.0999999999999998e-01 -8.5027443995110197e+00 -1.3510181162363828e+01 1.5951913583450192e+00 -2 -2 0
697 233 1 -8.1999999999999995e-01 -1.0087899728989772e+01 -9.2098490546956313e+00 5.5824627052842288e+00 -3 -1 -2
698 233 2 4.0999999999999998e-01 -9.7594044701803355e+00 -8.8376018655528004e+00 4.7144165624074859e+00 -3 -1 -2
458 153 2 4.0999999999999998e-01 -1.3123540031877846e+01 -8.9099692939326189e+00 5.2600246518181990e+00 -2 0 0
2423 808 2 4.0999999999999998e-01 -1.4101384097260464e+01 -6.5472766614226323e+00 5.9005873407204845e+00 0 0 -3
932 311 2 4.0999999999999998e-01 -1.3460213868161839e+01 -7.4848171451017205e+00 2.0230322009823958e+00 -3 -4 1
699 233 2 4.0999999999999998e-01 -1.1020305225049794e+01 -9.5522168184483540e+00 5.4667669253843485e+00 -3 -1 -2
2179 727 1 -8.1999999999999995e-01 -8.3327036811806146e+00 -1.2528476315581035e+01 1.5096171699452334e+00 -2 -2 0
415 139 1 -8.1999999999999995e-01 -1.4154010332657428e+01 -1.2592471536491004e+01 4.9590552662131842e+00 0 1 2
2180 727 2 4.0999999999999998e-01 -8.9739608587092228e+00 -1.2027242665971405e+01 2.0905950102177755e+00 -2 -2 0
499 167 1 -8.1999999999999995e-01 -1.4297629493513089e+01 -9.9768495144546119e+00 2.7917479697134731e+00 -3 -2 0
1558 520 1 -8.1999999999999995e-01 -1.1664552417524336e+01 -6.0950757151700898e+00 7.4642401842850710e+00 2 1 -2
2201 734 2 4.0999999999999998e-01 -1.1872642429103355e+01 -5.3396510445006271e+00 2.6225146217345277e+00 -2 -1 -3
983 328 2 4.0999999999999998e-01 -1.0403212811817074e+01 -8.5900907127192614e+00 2.1301864718929302e+00 -1 -2 -1
2422 808 1 -8.1999999999999995e-01 -1.3927607280500881e+01 -7.4666736868374501e+00 6.2534214957231171e+00 0 0 -3
680 227 2 4.0999999999999998e-01 -7.8753089469777997e+00 -1.0981771172067916e+01 6.4278449727642766e+00 -2 0 -2
1646 549 2 4.0999999999999998e-01 -8.6044527474502086e+00 -1.1139435057065427e+01 3.7168786521790054e-01 1 0 1
59 20 2 4.0999999999999998e-01 -7.8621241969548255e+00 -6.7137297354155372e+00 7.1163849613282721e+00 -3 0 -1