LAMMPS data file via write_data, version 15 May 2015, timestep = 23005000

2611 atoms
6 atom types
1749 bonds
4 bond types
894 angles
3 angle types
44 dihedrals
3 dihedral types
10 impropers
1 improper types

-1.4946747369070859e+01 1.4946747369070859e+01 xlo xhi
-1.4946747369070859e+01 1.4946747369070859e+01 ylo yhi
-1.4946747369070859e+01 1.4946747369070859e+01 zlo zhi

Masses

1 15.9994
2 1.00794
3 12.0107
4 1.00794
5 12.0107
6 12.0107

Bond Coeffs # harmonic

1 1000 1
2 469 1.4
3 367 1.08
4 469 0.7

Angle Coeffs # harmonic

1 100 109.47
2 35 120
3 63 120

Dihedral Coeffs # opls

1 0 7.25 0 0
2 0 7.25 0 0
3 0 7.25 0 0

Improper Coeffs # cvff

1 2.5 -1 2

Atoms # full

1701 567 2 4.0999999999999998e-01 -9.0314310007248029e+00 -1.1354887530465927e+01 -1.1667906000160501e+01 -3 -2 3
1699 567 1 -8.1999999999999995e-01 -8.8323769738806828e+00 -1.0513550091330497e+01 -1.1165333485950793e+01 -3 -2 3
72 24 2 4.0999999999999998e-01 -1.4896776902225366e+01 -8.9490872580311418e+00 -8.6898839597979389e+00 -4 -5 -2
2052 684 2 4.0999999999999998e-01 -7.9285225671485566e+00 -1.3426402858677594e+01 -1.1505697429067446e+01 -4 -4 5
2014 672 1 -8.1999999999999995e-01 -1.0071093882993090e+01 -1.1239679508065505e+01 -7.7975153299823186e+00 -7 2 4
993 331 2 4.0999999999999998e-01 -1.0391743837667182e+01 -8.7467510642193282e+00 -1.4490404204365403e+01 -1 -3 2
2051 684 2 4.0999999999999998e-01 -6.3949086073858687e+00 -1.2880968374677895e+01 -1.1374206699769580e+01 -4 -4 5
2050 684 1 -8.1999999999999995e-01 -7.1496702139871209e+00 -1.3050629407859745e+01 -1.2007926081264985e+01 -4 -4 5
1700 567 2 4.0999999999999998e-01 -8.8603635245733905e+00 -1.0697654033259678e+01 -1.0182799725432940e+01 -3 -2 3
1730 577 2 4.0999999999999998e-01 -1.1600981384614409e+01 -1.3530069457796714e+01 -1.2141454993288120e+01 -2 -4 -1
1580 527 2 4.0999999999999998e-01 -1.0096745433588950e+01 -1.3799751621494332e+01 -1.0391905398600583e+01 -7 -8 0
1729 577 1 -8.1999999999999995e-01 -1.0772684711046123e+01 -1.2974645363915645e+01 -1.2215473627297442e+01 -2 -4 -1
1459 487 1 -8.1999999999999995e-01 -1.2723242449347016e+01 -1.1019202897397182e+01 -1.2141242538478021e+01 -2 -2 1
1731 577 2 4.0999999999999998e-01 -1.0334779892929468e+01 -1.3145187707709900e+01 -1.3098199518399735e+01 -2 -4 -1
66 22 2 4.0999999999999998e-01 -5.4128519389788750e+00 -1.2938981688378624e+01 -1.3980338470552592e+01 -2 -2 1
2331 777 2 4.0999999999999998e-01 -5.5311240925180876e+00 -1.2287882489021214e+01 -8.8042582119040631e+00 -5 1 5
2340 780 2 4.0999999999999998e-01 -1.3871410401389189e+01 -1.0427095342651587e+01 -7.9181989812118712e+00 -4 -3 -1
1461 487 2 4.0999999999999998e-01 -1.1856750593870970e+01 -1.1510832993780657e+01 -1.2228087123675778e+01 -2 -2 1
127 43 1 -8.1999999999999995e-01 -6.9970777484487892e+00 -9.3382284849647981e+00 -1.2893077691706290e+01 -3 2 5
129 43 2 4.0999999999999998e-01 -7.3794385878517099e+00 -8.8097010720473996e+00 -1.3651041604315829e+01 -3 2 5
128 43 2 4.0999999999999998e-01 -7.7288895719434256e+00 -9.8453771156749852e+00 -1.2437773341484814e+01 -3 2 5
1460 487 2 4.0999999999999998e-01 -1.2617144318976807e+01 -1.0269614182300352e+01 -1.1487858839701596e+01 -2 -2 1
901 301 1 -8.1999999999999995e-01 -1.0646281195757522e+01 -8.0806156266798865e+00 -1.2852424302487975e+01 5 -4 6
894 298 2 4.0999999999999998e-01 -7.4348888626003395e+00 -1.3305813176226966e+01 -1.3858923921601148e+01 -3 -6 -1
2338 780 1 -8.1999999999999995e-01 -1.3393551741204872e+01 -9.7084398245836869e+00 -8.4234075476905819e+00 -4 -3 -1
2339 780 2 4.0999999999999998e-01 -1.2718063920034243e+01 -9.2745939440232732e+00 -7.8271321905586033e+00 -4 -3 -1
1579 527 1 -8.1999999999999995e-01 -9.3521101541721663e+00 -1.4466292289434241e+01 -1.0427852402575446e+01 -7 -8 0
1993 665 1 -8.1999999999999995e-01 -1.2275870994328836e+01 -1.0706464830939177e+01 -1.4916019176511259e+01 1 -2 1
892 298 1 -8.1999999999999995e-01 -7.3597143676672685e+00 -1.4043043001318045e+01 -1.4530408303491456e+01 -3 -6 -1
2184 728 2 4.0999999999999998e-01 -6.1027814685090558e+00 -8.2169501494374231e+00 -1.1641960648089576e+01 -2 -3 8
1994 665 2 4.0999999999999998e-01 -1.2539456306837039e+01 -1.0854447353650349e+01 -1.3962775125868378e+01 1 -2 1
2015 672 2 4.0999999999999998e-01 -9.0827081251386836e+00 -1.1385773613480300e+01 -7.7550838281341079e+00 -7 2 4
2258 753 2 4.0999999999999998e-01 -1.4688476912482484e+01 -1.3192979777283568e+01 -1.1951853730818391e+01 2 2 -1
989 330 2 4.0999999999999998e-01 -6.9972236093304980e+00 -8.9381768248141320e+00 -7.7165475979009397e+00 0 -2 1
848 283 2 4.0999999999999998e-01 -5.5360765309760929e+00 -1.0409652410116692e+01 -1.2459535334431434e+01 -6 -2 4
1382 461 2 4.0999999999999998e-01 -6.1775793491956623e+00 -7.5987872830198659e+00 -9.2283956439151922e+00 -5 -3 9
2591 864 2 4.0999999999999998e-01 -6.0931571635764357e+00 -1.4778733352399753e+01 -1.3251437900239956e+01 -3 1 -6
2075 692 2 4.0999999999999998e-01 -1.4644308878266543e+01 -1.3942009201250661e+01 -8.7093031710396183e+00 0 0 -3
2074 692 1 -8.1999999999999995e-01 -1.3871117072001599e+01 -1.3474403187949122e+01 -8.2808531557198535e+00 0 0 -3
1621 541 1 -8.1999999999999995e-01 -1.2970572385241752e+01 -1.4460386097082223e+01 -1.1605554210334493e+01 -4 -7 -4
2076 692 2 4.0999999999999998e-01 -1.4020507346322377e+01 -1.2486087194183932e+01 -8.3119073045386251e+00 0 0 -3
1623 541 2 4.0999999999999998e-01 -1.3309423700125244e+01 -1.4392134462697374e+01 -1.0667166331313311e+01 -4 -7 -4
2329 777 1 -8.1999999999999995e-01 -5.2157633046752778e+00 -1.2498924944431996e+01 -9.7294926960284691e+00 -5 1 5
902 301 2 4.0999999999999998e-01 -1.1371777480313629e+01 -8.5879506943373976e+00 -1.2387325826727325e+01 5 -4 6
730 244 1 -8.1999999999999995e-01 -1.2955504390300391e+01 -8.5241212985115915e+00 -1.0940829184135499e+01 -6 4 -2
732 244 2 4.0999999999999998e-01 -1.3233345800107390e+01 -9.0537583361988769e+00 -1.0139368584699156e+01 -6 4 -2
731 244 2 4.0999999999999998e-01 -1.3317917182502251e+01 -7.5949025553225571e+00 -1.0868304941910687e+01 -6 4 -2
903 301 2 4.0999999999999998e-01 -1.0152433215188974e+01 -7.5202300298063838e+00 -1.2187493875272082e+01 5 -4 6
2333 778 2 4.0999999999999998e-01 -5.3239414450629088e+00 -1.4080840626521175e+01 -9.6348491028407004e+00 -4 0 1
747 249 2 4.0999999999999998e-01 -1.4441290840983973e+01 -1.0057886355030794e+01 -1.2826959661925976e+01 4 -3 3
2330 777 2 4.0999999999999998e-01 -5.1662611695264680e+00 -1.1655924984083315e+01 -1.0265170668436982e+01 -5 1 5
2213 738 2 4.0999999999999998e-01 -1.4797454106282398e+01 -1.4716666295380683e+01 -1.4291227853853467e+01 1 -5 1
234 78 2 4.0999999999999998e-01 -8.9155106091661303e+00 -7.8274832226623721e+00 -1.4671502405762444e+01 0 5 -2
1322 441 2 4.0999999999999998e-01 -5.6099084027645567e+00 -8.4369573907053308e-01 -1.2746878010905878e+01 -5 -1 4
219 73 2 4.0999999999999998e-01 -5.9745655618709517e+00 -4.2019456633304522e+00 -8.7285880932727125e+00 -5 4 3
344 115 2 4.0999999999999998e-01 -1.4142136630253622e+01 -3.9279438866122494e+00 -1.0669568061058550e+01 -4 1 4
2318 773 2 4.0999999999999998e-01 -1.3272805038844748e+01 -3.5481245630958806e+00 -7.8872085212498639e+00 -5 -2 -2
345 115 2 4.0999999999999998e-01 -1.4899241571389885e+01 -2.9737624050009384e+00 -9.5818684217158783e+00 -4 1 4
2319 773 2 4.0999999999999998e-01 -1.2738866817435728e+01 -5.0885930390684546e+00 -7.7943250200027512e+00 -5 -2 -2
232 78 1 -8.1999999999999995e-01 -8.1971958342155418e+00 -7.1743901684037112e+00 -1.4431619831343722e+01 0 5 -2
1725 575 2 4.0999999999999998e-01 -1.0605562329481625e+01 -2.8210200172766999e+00 -8.1916932495221175e+00 -8 -2 3
248 83 2 4.0999999999999998e-01 -1.1432064707472581e+01 -3.3169352374675167e+00 -1.3666616540734287e+01 -5 -5 4
573 191 2 4.0999999999999998e-01 -8.0784093425092980e+00 -3.5116389564066353e-01 -7.5725790839548175e+00 -5 1 0
1383 461 2 4.0999999999999998e-01 -6.3688665478934983e+00 -6.3801620128512528e+00 -8.1582917301858870e+00 -5 -3 9
1381 461 1 -8.1999999999999995e-01 -6.4646758824152055e+00 -7.3655496070345929e+00 -8.2992960128400028e+00 -5 -3 9
2182 728 1 -8.1999999999999995e-01 -5.7981858109815043e+00 -7.4709841397864967e+00 -1.1049671468726258e+01 -2 -3 8
233 78 2 4.0999999999999998e-01 -8.5082421816633271e+00 -6.6000296678020138e+00 -1.3674381144209617e+01 0 5 -2
217 73 1 -8.1999999999999995e-01 -6.1812735293034251e+00 -4.6235082169069841e+00 -9.6115417560484957e+00 -5 4 3
900 300 2 4.0999999999999998e-01 -1.4333020266752627e+01 -6.0057731738059985e+00 -1.3506059293017962e+01 -3 3 -1
1323 441 2 4.0999999999999998e-01 -5.8118624366932270e+00 -1.3075605420692842e+00 -1.4299554634249848e+01 -5 -1 4
179 60 2 4.0999999999999998e-01 -1.1992489482896289e+01 -3.7682815929778535e-01 -9.5096184799030237e+00 -1 3 2
2317 773 1 -8.1999999999999995e-01 -1.3503908112369498e+01 -4.5045594209586621e+00 -8.0657413487401577e+00 -5 -2 -2
120 40 2 4.0999999999999998e-01 -1.0003245524987879e+01 -8.7427779359398627e-01 -9.3560693848944734e+00 -1 -4 3
118 40 1 -8.1999999999999995e-01 -1.0565307717097539e+01 -1.5834195282060506e+00 -9.7818092539181674e+00 -1 -4 3
119 40 2 4.0999999999999998e-01 -1.0249675534301765e+01 -1.7419565210866761e+00 -1.0717379911319377e+01 -1 -4 3
2247 749 2 4.0999999999999998e-01 -1.2730778100538931e+01 -5.2113768559115101e+00 -9.9434533286280171e+00 -1 -1 2
898 300 1 -8.1999999999999995e-01 -1.3434193387000084e+01 -5.5741286814743685e+00 -1.3582502563759878e+01 -3 3 -1
899 300 2 4.0999999999999998e-01 -1.3040996743572904e+01 -5.4591027178512821e+00 -1.2670243962511810e+01 -3 3 -1
2044 682 1 -8.1999999999999995e-01 -1.4718865633905814e+01 -1.3089242157814560e+00 -8.5387519770479692e+00 0 -1 -1
1959 653 2 4.0999999999999998e-01 -9.0948028714968245e+00 -1.3233281705065689e+00 -1.3224354834041675e+01 -1 -4 4
218 73 2 4.0999999999999998e-01 -6.9779040513716444e+00 -4.1749076469482063e+00 -1.0016742284410476e+01 -5 4 3
2245 749 1 -8.1999999999999995e-01 -1.2793796393926483e+01 -5.0394663063599907e+00 -1.0926573741635494e+01 -1 -1 2
247 83 1 -8.1999999999999995e-01 -1.1189383006166235e+01 -3.2741367071410661e+00 -1.2697429158734016e+01 -5 -5 4
1870 624 1 -8.1999999999999995e-01 -9.0579332348345982e+00 -4.4480994780905512e+00 -1.4909850932260330e+01 3 -4 2
1957 653 1 -8.1999999999999995e-01 -8.9708874642293459e+00 -1.6484552393729057e+00 -1.2286811396802701e+01 -1 -4 4
2557 853 1 -8.1999999999999995e-01 -7.5101072202046701e+00 -4.1096130765434484e+00 -1.2657701718608955e+01 -1 0 -2
2559 853 2 4.0999999999999998e-01 -6.5779023233832170e+00 -3.7497153855287415e+00 -1.2696663271730623e+01 -1 0 -2
1222 408 1 -8.1999999999999995e-01 -6.4250245750432953e+00 -7.1698417992500652e-02 -8.5372414025529402e+00 -3 2 -3
1958 653 2 4.0999999999999998e-01 -8.3132982554539581e+00 -2.4018293629131069e+00 -1.2279449308025720e+01 -1 -4 4
2235 745 2 4.0999999999999998e-01 -8.1088710118370457e+00 -5.5600714954225943e+00 -1.1858478312704495e+01 1 2 5
1321 441 1 -8.1999999999999995e-01 -5.7072407342569136e+00 -1.6289601911687939e+00 -1.3358381497888903e+01 -5 -1 4
2233 745 1 -8.1999999999999995e-01 -8.3534913720390840e+00 -6.5049970631043266e+00 -1.1640930824798206e+01 1 2 5
2380 794 1 -8.1999999999999995e-01 -9.0259118526533477e+00 -6.0206023414214691e+00 -8.9709499198229583e+00 -2 -2 -4
2382 794 2 4.0999999999999998e-01 -8.6232069969731775e+00 -6.3402385000144381e+00 -9.8286863857024507e+00 -2 -2 -4
2381 794 2 4.0999999999999998e-01 -8.3305633221920843e+00 -6.0301660902953671e+00 -8.2523058913732754e+00 -2 -2 -4
2558 853 2 4.0999999999999998e-01 -7.9422031020339752e+00 -4.0136589725050840e+00 -1.3554438186573002e+01 -1 0 -2
2234 745 2 4.0999999999999998e-01 -7.5234115984211938e+00 -7.0281842821978753e+00 -1.1447816959814498e+01 1 2 5
2246 749 2 4.0999999999999998e-01 -1.2279118473174123e+01 -4.2127825916882120e+00 -1.1154062143882257e+01 -1 -1 2
249 83 2 4.0999999999999998e-01 -1.0210208416145795e+01 -3.0923741557952091e+00 -1.2606710817454179e+01 -5 -5 4
1536 512 2 4.0999999999999998e-01 -1.0401976522630772e+01 -6.3070876188659000e+00 -7.7839049907106084e+00 -3 -4 6
2046 682 2 4.0999999999999998e-01 -1.4447401631683723e+01 -1.7204517481707153e+00 -7.6686929706602838e+00 0 -1 -1
1412 471 2 4.0999999999999998e-01 -1.3529646718651774e+01 -3.6241463949583075e+00 -1.4847902402619466e+01 -2 -2 7
1090 364 1 -8.1999999999999995e-01 -6.3773728711591211e+00 -1.4682260404025520e+01 -3.2657346042640203e+00 6 -5 1
1092 364 2 4.0999999999999998e-01 -7.1241620403832009e+00 -1.4069409266942589e+01 -3.0073363683816297e+00 6 -5 1
871 291 1 -8.1999999999999995e-01 -9.9854305773173397e+00 -1.0977717720181376e+01 -4.5599892296046498e+00 1 -1 0
327 109 2 4.0999999999999998e-01 -5.7780488018525169e+00 -9.7813827022226221e+00 -4.0307601535914603e+00 1 1 0
238 80 1 -8.1999999999999995e-01 -7.0069896427271532e+00 -8.7472482526234714e+00 -2.9319235288882215e+00 -3 -1 -1
240 80 2 4.0999999999999998e-01 -6.2848471827836079e+00 -8.2100336594377818e+00 -2.4960782894798399e+00 -3 -1 -1
239 80 2 4.0999999999999998e-01 -7.8859307242953598e+00 -8.5312508369107114e+00 -2.5066494544766478e+00 -3 -1 -1
535 179 1 -8.1999999999999995e-01 -8.4243697222587794e+00 -1.2944920014957503e+01 -3.2427266124682816e+00 -5 -3 1
873 291 2 4.0999999999999998e-01 -1.0912179886162019e+01 -1.0922904534130566e+01 -4.9317170171665214e+00 1 -1 0
536 179 2 4.0999999999999998e-01 -8.8095318266994127e+00 -1.2291102486574648e+01 -3.8940507572454255e+00 -5 -3 1
537 179 2 4.0999999999999998e-01 -9.0347078126852729e+00 -1.3732864713391926e+01 -3.1609899199459317e+00 -5 -3 1
872 291 2 4.0999999999999998e-01 -9.5214381695439343e+00 -1.0101571132760604e+01 -4.6908652520697718e+00 1 -1 0
782 261 2 4.0999999999999998e-01 -9.3692443915175510e+00 -7.5723537902402125e+00 -8.7201526129758733e-01 0 -1 1
781 261 1 -8.1999999999999995e-01 -9.3892378450299319e+00 -7.8769602245514134e+00 -1.8243101158786814e+00 0 -1 1
2204 735 2 4.0999999999999998e-01 -1.1983938829806220e+01 -1.2583851242907137e+01 -2.5791607179034930e+00 4 -1 0
1238 413 2 4.0999999999999998e-01 -1.0957736892691990e+01 -1.2403881296652330e+01 -6.5080665396026127e-01 0 7 7
707 236 2 4.0999999999999998e-01 -1.1184870279350662e+01 -1.4619177282843992e+01 -3.7196413722048387e+00 -3 7 1
706 236 1 -8.1999999999999995e-01 -1.1997809803782591e+01 -1.4199365516115268e+01 -4.1232968277858753e+00 -3 7 1
2205 735 2 4.0999999999999998e-01 -1.0945029305742338e+01 -1.1419587217234817e+01 -3.0607382776494880e+00 4 -1 0
2203 735 1 -8.1999999999999995e-01 -1.1491507921351795e+01 -1.1760847774703333e+01 -2.2959162741308710e+00 4 -1 0
2451 817 2 4.0999999999999998e-01 -8.1096575301044140e+00 -1.2459243035543018e+01 -1.0323603445884046e+00 3 -5 -5
2370 790 2 4.0999999999999998e-01 -1.0968603364382968e+01 -8.7492773560643364e+00 -5.8654653828135892e+00 -1 1 3
708 236 2 4.0999999999999998e-01 -1.1746446294465191e+01 -1.3735394240841192e+01 -4.9727657128912330e+00 -3 7 1
1734 578 2 4.0999999999999998e-01 -1.0797727598942526e+01 -1.2646813199959084e+01 -6.9982580456042065e+00 -4 1 4
13 5 1 -8.1999999999999995e-01 -5.7978929895891973e+00 -1.2186225644448085e+01 -7.1032762426425968e+00 -8 0 -1
667 223 1 -8.1999999999999995e-01 -9.1444197842706298e+00 -8.5674619148611875e+00 -5.7302624008012781e+00 2 -5 0
2398 800 1 -8.1999999999999995e-01 -1.1868521479653271e+01 -8.9695267773567835e+00 -1.8787393396417471e+00 5 -3 0
796 266 1 -8.1999999999999995e-01 -7.0837206032184321e+00 -1.4637236374539889e+01 -6.1318956640017426e+00 -1 -2 -1
1842 614 2 4.0999999999999998e-01 -1.2654670895172559e+01 -1.0087579742384641e+01 -5.2849368823144154e+00 3 2 -3
668 223 2 4.0999999999999998e-01 -8.4176334397534074e+00 -8.9620867954021719e+00 -6.2924928158082416e+00 2 -5 0
798 266 2 4.0999999999999998e-01 -7.0922271566013668e+00 -1.4578947405165751e+01 -5.1336069707608090e+00 -1 -2 -1
1840 614 1 -8.1999999999999995e-01 -1.2595106980066204e+01 -1.1027860631197779e+01 -4.9497140935330517e+00 3 2 -3
2399 800 2 4.0999999999999998e-01 -1.1799817165286740e+01 -9.9661319672531601e+00 -1.9246524666509810e+00 5 -3 0
783 261 2 4.0999999999999998e-01 -1.0221704822025220e+01 -8.4065128780353895e+00 -1.9874749901747837e+00 0 -1 1
669 223 2 4.0999999999999998e-01 -8.8832673192229059e+00 -7.6444267975592739e+00 -5.4476745521355170e+00 2 -5 0
1841 614 2 4.0999999999999998e-01 -1.3346790557934202e+01 -1.1203306941782710e+01 -4.3139148801354033e+00 3 2 -3
2016 672 2 4.0999999999999998e-01 -1.0287855277499798e+01 -1.0325250179440584e+01 -7.4556325586599668e+00 -7 2 4
988 330 1 -8.1999999999999995e-01 -7.3255618269350062e+00 -9.7562309349289205e+00 -7.2442851578581315e+00 0 -2 1
2369 790 2 4.0999999999999998e-01 -1.1955266878119499e+01 -7.6154046624289595e+00 -6.5038920114060303e+00 -1 1 3
2368 790 1 -8.1999999999999995e-01 -1.1882882838377355e+01 -8.5747789386729405e+00 -6.2311067468232366e+00 -1 1 3
2400 800 2 4.0999999999999998e-01 -1.2669994641496817e+01 -8.6665575421436589e+00 -2.3943949926575687e+00 5 -3 0
1652 551 2 4.0999999999999998e-01 -1.4541303660643388e+01 -8.5071034602024920e+00 -4.8881251185819625e+00 -3 -1 -2
1732 578 1 -8.1999999999999995e-01 -1.1397662285665893e+01 -1.3387372518000445e+01 -6.6954369571371775e+00 -4 1 4
1733 578 2 4.0999999999999998e-01 -1.2278555696297961e+01 -1.3315155929324002e+01 -7.1632636582006128e+00 -4 1 4
14 5 2 4.0999999999999998e-01 -6.1199570183055165e+00 -1.2972505128020087e+01 -6.5759341623347627e+00 -8 0 -1
1809 603 2 4.0999999999999998e-01 -1.4665424618752299e+01 -1.4524781777913484e+01 -2.8036023077470240e-01 -2 9 1
990 330 2 4.0999999999999998e-01 -6.6027659775123606e+00 -1.0447235301592379e+01 -7.2329089466069210e+00 0 -2 1
11 4 2 4.0999999999999998e-01 -1.4753353226124426e+01 -1.4161114249089319e+01 -5.3796139964662508e+00 -5 -5 -1
2449 817 1 -8.1999999999999995e-01 -8.3462440904590878e+00 -1.2754328892981942e+01 -1.0661670762622144e-01 3 -5 -5
38 13 2 4.0999999999999998e-01 -1.0125487745603763e+01 -1.4933897662326206e+01 -7.2182708464226648e+00 1 0 -1
1710 570 2 4.0999999999999998e-01 -1.0344368836412567e+01 -1.1245796700946649e+00 -1.0991017705150128e+00 -4 3 2
2223 741 2 4.0999999999999998e-01 -8.1280055605247483e+00 -5.1187404553547324e+00 -5.4269347199850735e+00 -4 2 5
1190 397 2 4.0999999999999998e-01 -6.3270383672791297e+00 -1.2644479517404559e+00 -7.3108766111627634e+00 -2 4 0
1535 512 2 4.0999999999999998e-01 -1.1291645038548090e+01 -5.1692885220049334e+00 -7.0218920201314949e+00 -3 -4 6
2254 752 1 -8.1999999999999995e-01 -5.3005975882794996e+00 -5.5881138105780916e+00 -4.8401926212314450e+00 -4 -1 -2
1751 584 2 4.0999999999999998e-01 -5.2730408339542922e+00 -4.7459213389894916e+00 -6.3107096590286655e+00 -2 7 2
1817 606 2 4.0999999999999998e-01 -1.4581379720055054e+01 -6.4498215515846713e+00 -3.6025728990187655e+00 3 -2 3
1120 374 1 -8.1999999999999995e-01 -8.7546324199144490e+00 -5.7273461692895520e+00 -3.0310914138307137e+00 -3 0 4
2256 752 2 4.0999999999999998e-01 -5.1357100096382080e+00 -5.6491457621117593e+00 -3.8557448199635296e+00 -4 -1 -2
1189 397 1 -8.1999999999999995e-01 -6.2860447513072195e+00 -1.7883624576403321e+00 -6.4600631901545924e+00 -2 4 0
1752 584 2 4.0999999999999998e-01 -5.6016252747988791e+00 -3.2802429814124601e+00 -6.9514747428718948e+00 -2 7 2
762 254 2 4.0999999999999998e-01 -8.2393427380357203e+00 -1.1284912782314240e+00 -2.4954814103969376e+00 8 -2 -5
1229 410 2 4.0999999999999998e-01 -1.4727326226752821e+01 -5.4293259443252317e+00 -7.3940655895298102e+00 3 1 -4
2221 741 1 -8.1999999999999995e-01 -7.9402912953744762e+00 -6.0949555127619863e+00 -5.5356441526738962e+00 -4 2 5
2222 741 2 4.0999999999999998e-01 -6.9604852670047634e+00 -6.2317425057041440e+00 -5.6816571029716290e+00 -4 2 5
2201 734 2 4.0999999999999998e-01 -1.1995868101508242e+01 -4.4649631222726267e+00 -1.9707085014676924e+00 -5 -2 -1
2324 775 2 4.0999999999999998e-01 -1.2318307552505106e+01 -1.9541489903877505e+00 -3.2720473927674334e+00 2 -4 -2
1813 605 1 -8.1999999999999995e-01 -1.4324732027251091e+01 -1.8960386862211820e+00 -5.8040176436869650e+00 0 0 1
2325 775 2 4.0999999999999998e-01 -1.3595814632261476e+01 -2.2103450860782470e+00 -2.2876186707302963e+00 2 -4 -2
1925 642 2 4.0999999999999998e-01 -1.1526118298698609e+01 -2.9966256080100369e+00 -5.7694638811128627e+00 0 0 4
441 147 2 4.0999999999999998e-01 -7.7408952484085818e+00 -2.8381353637302222e+00 -5.9066879474476792e+00 -4 0 -3
1160 387 2 4.0999999999999998e-01 -7.2693348716219548e+00 -3.2569816573996899e+00 -1.9259426934286061e+00 -2 2 -5
1161 387 2 4.0999999999999998e-01 -7.8711673383986049e+00 -4.7741534906384082e+00 -1.8735210921330570e+00 -2 2 -5
760 254 1 -8.1999999999999995e-01 -7.6223085005036948e+00 -1.7681944718330822e+00 -2.9538468823875679e+00 8 -2 -5
1818 606 2 4.0999999999999998e-01 -1.4161699818553847e+01 -6.9579609152698678e+00 -2.1084431335224387e+00 3 -2 3
2323 775 1 -8.1999999999999995e-01 -1.2763863251388692e+01 -1.6720606919691647e+00 -2.4223670776868360e+00 2 -4 -2
439 147 1 -8.1999999999999995e-01 -8.2413484927193039e+00 -3.4827827809661436e+00 -5.3287376132848170e+00 -4 0 -3
1121 374 2 4.0999999999999998e-01 -8.3977373943069331e+00 -5.9224953656765784e+00 -3.9446520760114545e+00 -3 0 4
1815 605 2 4.0999999999999998e-01 -1.3541766188782194e+01 -2.3551930277136321e+00 -5.3842652501979611e+00 0 0 1
1926 642 2 4.0999999999999998e-01 -1.1490275737047604e+01 -3.8102244325533050e+00 -4.3540018060500181e+00 0 0 4
761 254 2 4.0999999999999998e-01 -6.9397493394977410e+00 -1.2567756559742094e+00 -3.4759714978866842e+00 8 -2 -5
514 172 1 -8.1999999999999995e-01 -1.1791134787378498e+01 -5.5721389313036287e+00 -3.6563655438026643e+00 -1 3 -1
1709 570 2 4.0999999999999998e-01 -8.9344312713302791e+00 -1.6198794809482440e+00 -4.4068334584639501e-01 -4 3 2
2200 734 1 -8.1999999999999995e-01 -1.2233473189383101e+01 -4.2731261584379201e+00 -1.0184519333437621e+00 -5 -2 -1
1724 575 2 4.0999999999999998e-01 -9.8563521690066374e+00 -3.3950016677146948e+00 -6.8590306773994634e+00 -8 -2 3
25 9 1 -8.1999999999999995e-01 -5.6094375258698381e+00 -1.9919008973752561e-01 -4.2964490785302125e+00 -3 5 3
1159 387 1 -8.1999999999999995e-01 -7.4112014888362454e+00 -4.0595421035764137e+00 -1.3464421231749917e+00 -2 2 -5
440 147 2 4.0999999999999998e-01 -8.3228401755860020e+00 -3.1084358904765033e+00 -4.4050094539899849e+00 -4 0 -3
1122 374 2 4.0999999999999998e-01 -8.9978713714950445e+00 -6.5850313061509738e+00 -2.5780335887763837e+00 -3 0 4
1924 642 1 -8.1999999999999995e-01 -1.1883930019701538e+01 -3.0275269844788806e+00 -4.8361546247782581e+00 0 0 4
1191 397 2 4.0999999999999998e-01 -6.1948170207634590e+00 -1.1612119678663380e+00 -5.6864934680196715e+00 -2 4 0
2202 734 2 4.0999999999999998e-01 -1.3097041403110236e+01 -3.7699382176471623e+00 -9.8525506799290774e-01 -5 -2 -1
1708 570 1 -8.1999999999999995e-01 -9.4302497090448192e+00 -8.3590595939695689e-01 -8.1431406147232011e-01 -4 3 2
516 172 2 4.0999999999999998e-01 -1.0889384490725284e+01 -6.0027404690793347e+00 -3.6948234434534761e+00 -1 3 -1
1723 575 1 -8.1999999999999995e-01 -1.0736279304908763e+01 -3.3027562963460984e+00 -7.3251522025098863e+00 -8 -2 3
515 172 2 4.0999999999999998e-01 -1.2495988452525800e+01 -6.2792202931966656e+00 -3.5992026085730000e+00 -1 3 -1
1816 606 1 -8.1999999999999995e-01 -1.3968518227916965e+01 -7.0474273276252113e+00 -3.0855443778987581e+00 3 -2 3
1534 512 1 -8.1999999999999995e-01 -1.1289406102225474e+01 -6.1073507366157731e+00 -7.3684242063866945e+00 -3 -4 6
1814 605 2 4.0999999999999998e-01 -1.4288127352752305e+01 -9.1836841927250212e-01 -5.5969638830738120e+00 0 0 1
572 191 2 4.0999999999999998e-01 -9.4313967842045354e+00 -3.1235996991326864e-01 -6.6589709290141919e+00 -5 1 0
1750 584 1 -8.1999999999999995e-01 -5.3361752492150671e+00 -4.2215933713063531e+00 -7.1599119406725675e+00 -2 7 2
571 191 1 -8.1999999999999995e-01 -8.9341888768037059e+00 -8.2305281683311016e-01 -7.3604176188001649e+00 -5 1 0
2403 801 2 4.0999999999999998e-01 -1.3570220253826459e+01 -1.4469219405090199e+01 1.4183995950172488e+00 3 -1 1
1691 564 2 4.0999999999999998e-01 -5.2634877424794642e+00 -1.1633292412918351e+01 3.6571309092814630e+00 -7 -4 3
2401 801 1 -8.1999999999999995e-01 -1.3520390827714550e+01 -1.3711295999502147e+01 7.6792332070337821e-01 3 -1 1
2505 835 2 4.0999999999999998e-01 -1.0065492482963286e+01 -1.0432575580049056e+01 1.1403503820249448e+00 5 2 7
2504 835 2 4.0999999999999998e-01 -1.0623014377875428e+01 -9.7268426994780981e+00 2.5033878567626857e+00 5 2 7
1904 635 2 4.0999999999999998e-01 -7.3167746869098362e+00 -9.6909630806002731e+00 3.0323388619750844e+00 -1 0 -1
2503 835 1 -8.1999999999999995e-01 -9.8254921298203222e+00 -9.8425216830882682e+00 1.9112502188795979e+00 5 2 7
1405 469 1 -8.1999999999999995e-01 -9.3072360217983725e+00 -1.3864101015407405e+01 5.4598471413069589e+00 0 3 4
1905 635 2 4.0999999999999998e-01 -8.6959230986161522e+00 -8.8815702541731767e+00 3.3633880215852869e+00 -1 0 -1
1903 635 1 -8.1999999999999995e-01 -7.7561216769347512e+00 -9.0493852720078287e+00 3.6611492100146279e+00 -1 0 -1
1407 469 2 4.0999999999999998e-01 -1.0175429979380663e+01 -1.4209446924832102e+01 5.8162537620142203e+00 0 3 4
1406 469 2 4.0999999999999998e-01 -8.9873107128282648e+00 -1.4461845079293951e+01 4.7247280992489813e+00 0 3 4
368 123 2 4.0999999999999998e-01 -7.6426021408520262e+00 -1.3004953045982010e+01 7.0257159641584650e+00 -1 -1 -3
1531 511 1 -8.1999999999999995e-01 -1.0002734170154959e+01 -1.1140779167489356e+01 5.9101260528873780e+00 1 5 3
785 262 2 4.0999999999999998e-01 -7.2031913165226600e+00 -1.0389187594895773e+01 4.8522050996678310e+00 -6 6 3
2220 740 2 4.0999999999999998e-01 -1.0872936630380208e+01 -1.0253744331125725e+01 4.5385110718341330e+00 -7 -2 3
2218 740 1 -8.1999999999999995e-01 -1.1431828855136731e+01 -9.5155802182983784e+00 4.1606175292024510e+00 -7 -2 3
56 19 2 4.0999999999999998e-01 -1.2310196463106033e+01 -7.8052342209240511e+00 6.7324507808534229e-01 -4 0 4
2402 801 2 4.0999999999999998e-01 -1.3980511118320468e+01 -1.2911083222333431e+01 1.1526298808380844e+00 3 -1 1
122 41 2 4.0999999999999998e-01 -9.0756166339336843e+00 -8.3323585145029107e+00 1.3620198710328211e+00 -11 4 7
2219 740 2 4.0999999999999998e-01 -1.2249349405706734e+01 -9.9017428020844989e+00 3.7333133118239346e+00 -7 -2 3
1147 383 1 -8.1999999999999995e-01 -1.3527843807666462e+01 -1.2721474084106934e+01 5.5122482144342051e+00 2 -2 2
2472 824 2 4.0999999999999998e-01 -7.3818641925877122e+00 -1.1644050399380049e+01 1.6227145522188913e+00 -1 1 -2
690 230 2 4.0999999999999998e-01 -1.2607776920706950e+01 -1.4074122932404865e+01 6.5505839615312915e+00 -3 3 1
1148 383 2 4.0999999999999998e-01 -1.4058522023351397e+01 -1.2162008043636533e+01 4.8755154683982909e+00 2 -2 2
2471 824 2 4.0999999999999998e-01 -5.9547686265268371e+00 -1.0851487572541062e+01 1.5779600207609974e+00 -1 1 -2
2145 715 2 4.0999999999999998e-01 -1.0498933797701362e+01 -1.4447901962968666e+01 6.1380882803311110e-01 -7 1 3
784 262 1 -8.1999999999999995e-01 -6.6745948553190502e+00 -1.0710101288834169e+01 5.6381125077421075e+00 -6 6 3
1239 413 2 4.0999999999999998e-01 -1.2031450963744069e+01 -1.3025889016552517e+01 4.1079832151987183e-01 0 7 7
786 262 2 4.0999999999999998e-01 -5.7601500502164829e+00 -1.0980406242127712e+01 5.3368214972026919e+00 -6 6 3
964 322 1 -8.1999999999999995e-01 -5.2906715025978297e+00 -1.4316479102205584e+01 2.7922912928894874e+00 1 -1 -2
2470 824 1 -8.1999999999999995e-01 -6.6861374556741584e+00 -1.1183296569527265e+01 2.1738230136653947e+00 -1 1 -2
1532 511 2 4.0999999999999998e-01 -9.4883210772852316e+00 -1.1967480032214930e+01 5.6821015292845694e+00 1 5 3
606 202 2 4.0999999999999998e-01 -1.1531711768517894e+01 -1.1038181276411819e+01 7.0252955964866004e+00 -8 2 -2
1670 557 2 4.0999999999999998e-01 -6.4992657714936222e+00 -1.4695571126515400e+01 1.5747840141050133e+00 -1 7 -6
1310 437 2 4.0999999999999998e-01 -6.3601002728173981e+00 -7.8331984528337761e+00 4.3690032998796831e+00 0 -3 -5
1533 511 2 4.0999999999999998e-01 -9.3797240661054424e+00 -1.0452374236083054e+01 6.2816195151826300e+00 1 5 3
533 178 2 4.0999999999999998e-01 -5.5220938434669513e+00 -8.5126921361705641e+00 3.9633622906993793e-02 -4 -3 -2
428 143 2 4.0999999999999998e-01 -1.0354277803673098e+01 -7.9798842079284347e+00 6.9596424234431282e+00 -4 -1 6
1149 383 2 4.0999999999999998e-01 -1.3234056067305032e+01 -1.2158983186068507e+01 6.2851279469937573e+00 2 -2 2
688 230 1 -8.1999999999999995e-01 -1.1703048432263712e+01 -1.4486578060120991e+01 6.6573428369390903e+00 -3 3 1
1602 534 2 4.0999999999999998e-01 -1.4942181313010561e+01 -7.5596901022374912e+00 6.4099114070837828e+00 0 2 -1
594 198 2 4.0999999999999998e-01 -1.4412843120197531e+01 -1.0702722907545535e+01 6.9699961581041201e+00 -2 1 3
1638 546 2 4.0999999999999998e-01 -1.2190717436225400e+01 -8.5479947374295939e+00 5.5927251044413353e+00 -5 -1 6
1558 520 1 -8.1999999999999995e-01 -1.4438741025373268e+01 -1.0363922868525483e+01 4.0140183821327788e+00 1 1 -6
1237 413 1 -8.1999999999999995e-01 -1.1083129484104310e+01 -1.2734687537339807e+01 2.8455116183899953e-01 0 7 7
1671 557 2 4.0999999999999998e-01 -7.6834571235182558e+00 -1.4301809430425347e+01 5.2150185630193491e-01 -1 7 -6
55 19 1 -8.1999999999999995e-01 -1.3210665173777262e+01 -7.7095512609324182e+00 1.0975694514915837e+00 -4 0 4
1309 437 1 -8.1999999999999995e-01 -5.4459086791211107e+00 -7.4752069754857580e+00 4.5591246243299572e+00 0 -3 -5
532 178 1 -8.1999999999999995e-01 -5.2318727075987326e+00 -9.4422108566019176e+00 2.6726701530602526e-01 -4 -3 -2
2480 827 2 4.0999999999999998e-01 -7.0489579289586297e+00 -9.6314912161741209e+00 6.8843602780729078e+00 5 1 -3
1637 546 2 4.0999999999999998e-01 -1.2556713032016987e+01 -8.4097048428960459e+00 7.1781852472709886e+00 -5 -1 6
1823 608 2 4.0999999999999998e-01 -1.4865050522457524e+01 -1.4185542942989041e+01 7.3374596277703468e+00 1 -7 1
1636 546 1 -8.1999999999999995e-01 -1.1984177875750149e+01 -8.0559933684240761e+00 6.4384947724372594e+00 -5 -1 6
1560 520 2 4.0999999999999998e-01 -1.4777136663224118e+01 -9.8259915889211804e+00 4.7861379696448338e+00 1 1 -6