2611
Atoms. Timestep: 8000000
O -8.622 5.98087 -12.2952
H -9.14392 6.45231 -13.0061
H -8.0864 5.24425 -12.7081
O -1.18083 9.30138 2.14855
H -1.13815 10.1603 2.65887
H -1.66559 9.44955 1.28657
O -12.5186 5.97994 -12.9392
H -13.035 5.78676 -12.105
H -12.796 6.86844 -13.3047
O 9.33218 -10.6522 0.881456
H 10.1595 -10.1576 0.615185
H 8.88659 -10.1735 1.6379
O -13.1641 10.1712 8.16571
H -13.2522 9.35256 7.59822
H -13.1099 9.9053 9.12817
O -13 6.08397 9.08461
H -12.0279 6.13352 9.31345
H -13.3121 5.13682 9.15887
O 9.84777 -2.96456 2.31552
H 10.7645 -2.88913 1.92332
H 9.57215 -3.92559 2.33625
O 5.1017 -13.9665 -8.36435
H 4.87591 -13.2874 -9.06284
H 5.29399 -13.5034 -7.49916
O 13.7054 -5.38534 13.1888
H 13.5509 -5.1895 12.2205
H 14.2482 -4.65028 13.5951
O 5.50392 -1.67902 2.39127
H 5.01357 -0.963867 1.89318
H 5.09646 -2.5685 2.18443
O -13.8535 3.27142 -11.4175
H -14.2873 2.61917 -12.0392
H -14.4487 3.42686 -10.6291
O -11.5744 -9.68268 -2.38361
H -12.1817 -9.73252 -3.17648
H -11.7945 -8.86892 -1.84575
O -4.75358 10.5105 14.5097
H -5.73939 10.6071 14.6469
H -4.31068 10.3323 -14.5095
O 8.06485 2.12983 -8.85849
H 8.60146 2.92239 -9.1481
H 7.09164 2.35795 -8.88659
O -14.441 3.3018 -8.16535
H -13.5565 3.74781 -8.30227
H -14.9251 3.74585 -7.41136
O 11.4679 11.5562 4.19042
H 11.229 12.5218 4.08799
H 11.4586 11.1136 3.29375
O 13.8578 12.3755 -6.80582
H 13.2854 11.679 -7.23851
H 14.8063 12.0596 -6.78188
O 2.12889 -6.58577 -7.90091
H 2.6601 -6.46071 -8.73886
H 2.62846 -7.18567 -7.27599
O 1.25026 9.09486 12.5634
H 0.98846 10.0152 12.854
H 0.924185 8.42832 13.2338
O -9.71195 -7.26928 8.04011
H -8.83513 -7.35516 8.51317
H -9.96488 -6.30371 7.97964
O -6.85245 -9.93608 7.70757
H -6.48087 -10.4689 6.94732
H -7.73855 -10.3131 7.97713
O 10.1813 -5.00758 -13.166
H 9.18447 -4.97455 -13.094
H 10.4675 -4.58661 -14.0267
O -0.241243 -12.5436 -7.10135
H 0.190132 -11.6508 -6.97121
H -0.276677 -12.7575 -8.07754
O -3.73741 6.54346 -7.46793
H -4.26741 5.70925 -7.62011
H -4.05351 7.25773 -8.09233
O -9.4224 -11.9384 -8.7624
H -8.6127 -11.8952 -9.34763
H -10.2062 -11.5523 -9.24876
O 6.74423 4.27278 5.37125
H 6.5264 3.73035 4.5599
H 7.11759 5.157 5.09066
O 4.51497 -10.8354 -7.23309
H 5.22965 -10.3142 -7.69953
H 4.59922 -10.7062 -6.24507
O -11.9471 -5.45399 -2.40912
H -12.3138 -5.30492 -3.32741
H -12.1414 -6.39157 -2.12076
O 14.7065 9.15093 10.9191
H 14.4952 8.53775 10.1579
H 14.2633 8.81541 11.7503
O 11.5021 -4.06049 14.3401
H 10.8167 -4.29397 13.6505
H 12.2608 -4.70998 14.2893
O 1.39757 -13.2935 -11.9526
H 2.01316 -14.0434 -12.1948
H 1.89413 -12.6171 -11.4087
O -14.3331 13.9441 -14.8747
H 14.6615 13.8389 14.6073
H -13.8805 14.7483 14.6381
O 0.133708 -7.74595 -11.8871
H -0.432984 -6.94992 -12.0996
H 0.952851 -7.73459 -12.4605
O 8.50491 -13.2693 -11.2354
H 8.09778 -13.8269 -11.9588
H 9.40373 -12.9451 -11.5304
O 5.4108 -0.646032 -4.19575
H 5.88324 -0.170291 -4.93766
H 5.33699 -1.61843 -4.41704
O -10.0029 -8.968 5.65627
H -9.02493 -9.12931 5.52401
H -10.1439 -8.44615 6.49756
O 9.72185 6.87634 0.650385
H 9.8721 5.92449 0.38323
H 8.90549 6.93643 1.22476
O -7.67029 10.648 -7.84799
H -7.66662 11.5723 -8.22958
H -6.7352 10.3788 -7.6175
O 12.54 13.3067 -3.72531
H 12.1844 12.5066 -3.24225
H 13.4861 13.4713 -3.44639
O 8.84093 -4.11749 9.40409
H 8.90246 -4.98634 8.91288
H 7.93254 -3.72182 9.269
O 9.85593 -2.65502 -4.58633
H 10.391 -3.08694 -3.86032
H 9.92517 -1.66076 -4.50493
O 12.8559 14.3635 -9.9126
H 13.2532 -14.6515 -10.1626
H 11.9057 14.3259 -10.2219
O -5.70285 -7.85485 0.251273
H -5.33837 -6.92525 0.305768
H -5.0281 -8.49906 0.611376
O -13.8412 -1.76715 11.6821
H -13.2403 -1.17586 12.2199
H -13.3202 -2.54918 11.3401
O 7.68401 14.1529 -8.45369
H 7.79159 -14.9234 -9.01344
H 8.16755 14.2745 -7.58687
O 8.10947 -5.37791 3.1134
H 7.61228 -5.19981 3.96255
H 7.46081 -5.61986 2.39183
O 2.03723 -3.60147 6.49969
H 1.38201 -2.93553 6.85633
H 1.60444 -4.50162 6.45081
O -0.647978 -6.01588 -8.81112
H -0.411168 -5.30078 -9.4688
H 0.187264 -6.37813 -8.39746
O -3.07906 -7.22988 -10.1704
H -2.6481 -7.8655 -9.52991
H -2.3749 -6.67703 -10.6159
O 5.68482 12.868 -1.84807
H 6.2729 13.623 -1.55796
H 6.24957 12.1231 -2.20319
O 9.54011 -9.23071 -6.58809
H 8.9779 -9.91742 -7.04887
H 9.38399 -9.27949 -5.60157
O 10.3906 -11.3881 3.67121
H 9.79615 -11.1615 4.44273
H 10.3229 -12.3662 3.47435
O -6.77472 12.9707 -5.37924
H -6.00913 13.1814 -5.98706
H -7.21163 12.1214 -5.6756
O -6.869 -9.44382 -7.82903
H -7.3961 -9.72479 -8.63103
H -6.45639 -10.2487 -7.40262
O -9.44677 4.22155 13.7949
H -8.82343 4.0862 13.0248
H -10.3648 3.91986 13.5377
O -11.2333 4.67202 0.670032
H -12.1049 4.58853 0.186913
H -11.3804 4.53302 1.64932
O 0.636153 -6.6754 13.3771
H -0.160661 -6.13061 13.1158
H 1.20043 -6.15468 14.0177
O -1.44419 11.4088 -8.25597
H -1.26395 12.3545 -7.9855
H -2.40295 11.3159 -8.5245
O -4.06605 13.9962 0.527066
H -4.29728 13.2563 1.15878
H -4.17412 13.6767 -0.414321
O 6.04232 14.3453 1.23431
H 6.28239 13.8405 2.06345
H 5.09394 14.6563 1.29626
O -0.986204 12.5166 5.68753
H -0.907203 11.7854 6.36511
H -0.409155 13.2867 5.95937
O 2.30009 3.93706 -10.7973
H 1.81933 3.06526 -10.8912
H 1.66005 4.63857 -10.4839
O 14.1606 2.07668 12.2128
H 13.9676 3.04139 12.0337
H 14.4726 1.63727 11.3704
O -11.1803 6.82389 5.06338
H -11.5365 7.03303 4.15267
H -11.9031 6.95442 5.74198
O -8.89064 -0.795071 -3.19989
H -9.17687 -1.71815 -2.94304
H -7.96947 -0.622574 -2.85107
O 2.00219 5.82277 -7.03942
H 2.18243 6.63901 -6.49056
H 1.03248 5.58668 -6.97714
O 6.46541 -13.1132 -5.98701
H 6.20925 -13.9937 -5.58802
H 6.75426 -12.4895 -5.26069
O -1.58594 14.3736 1.39693
H -0.957087 14.5471 0.639032
H -2.52827 14.4211 1.06569
O -6.55873 12.6124 8.43492
H -6.5888 12.8951 7.4762
H -7.39238 12.914 8.89763
O 13.8443 -2.47003 -0.581112
H 12.914 -2.48942 -0.214834
H 14.0506 -3.34773 -1.01361
O -1.72717 -4.36685 -3.91427
H -2.27877 -3.69645 -3.418
H -1.29432 -3.92586 -4.70049
O -6.19745 -4.65134 3.33023
H -6.898 -4.844 2.64315
H -5.31485 -4.52048 2.87873
O -2.17777 -3.10336 8.62594
H -2.93728 -2.8914 8.01097
H -2.49647 -3.71354 9.35124
O 10.014 4.31073 -4.80488
H 9.16794 4.82666 -4.67062
H 10.7962 4.93 -4.73767
O 3.23713 -8.88135 -1.0349
H 3.78672 -8.58734 -0.252929
H 2.6393 -9.63365 -0.758108
O 12.3102 5.80357 -4.68028
H 12.3475 5.82499 -3.68122
H 13.0663 5.25053 -5.03025
O 14.5239 -0.494938 -4.20372
H 14.9452 -1.40186 -4.20416
H 13.8272 -0.450709 -4.91968
O -4.0924 -12.8899 -12.5906
H -4.11477 -13.5099 -13.3749
H -3.81004 -11.9796 -12.8933
O 11.5878 9.96985 -5.52635
H 11.3608 9.27228 -6.20592
H 11.2599 9.67884 -4.62761
O 8.77559 12.8283 -3.50137
H 9.70102 12.6978 -3.85708
H 8.13203 12.2834 -4.03885
O -8.61644 13.4293 3.48767
H -8.89253 13.0311 2.61291
H -7.66111 13.72 3.43484
O -6.76047 12.4368 5.57386
H -7.38462 13.1192 5.19329
H -6.22995 12.0215 4.83493
O 5.51868 4.90118 -3.40987
H 5.32828 4.82341 -2.43126
H 4.6689 4.78836 -3.92476
O 7.20535 4.61403 2.03981
H 7.13092 5.37659 1.39722
H 7.57193 3.81339 1.56592
O 3.29978 -14.9475 -14.9026
H 2.64067 -14.2372 14.7484
H 3.41844 14.9364 -13.9098
O 14.2108 1.86822 0.277822
H 13.8553 1.21676 -0.392426
H -14.8248 1.52572 0.650652
O 1.52325 14.564 -5.89063
H 1.67076 -14.3503 -5.78677
H 1.35504 14.1557 -4.99346
O -9.59564 -13.1345 13.9253
H -9.59094 -12.2765 13.4118
H -9.86396 -13.8838 13.3199
O 11.6556 -13.6277 -12.612
H 12.02 -12.7621 -12.9553
H 11.6078 -14.2894 -13.3602
O 10.6564 -8.08834 5.84952
H 9.94791 -8.64886 5.42073
H 11.3088 -8.68031 6.32263
O 11.9796 -10.2235 -3.51613
H 12.7195 -10.5718 -2.94073
H 11.767 -10.8933 -4.22754
O -10.5549 -8.26331 -10.0089
H -11.3611 -8.68439 -10.4243
H -10.7683 -7.32237 -9.74608
O 12.5948 -10.3275 6.22389
H 13.296 -10.9082 5.81023
H 11.7955 -10.8826 6.45406
O -10.7076 -8.71189 14.0566
H -10.9896 -7.77595 13.8458
H -10.2331 -8.72676 14.9367
O 0.402737 -9.88986 -9.793
H -0.119536 -9.28154 -10.3906
H 0.695025 -10.6945 -10.3098
O -12.7162 -6.67938 14.0644
H -12.7075 -6.36405 -14.8846
H -13.6618 -6.79237 13.7593
O 3.7135 11.2292 9.46875
H 4.68435 11.1196 9.6818
H 3.2813 11.7995 10.1673
O 13.1038 -1.4041 -8.71552
H 12.3831 -1.98319 -9.09669
H 13.9797 -1.88355 -8.76877
O -0.203711 4.36905 12.2778
H -0.502112 3.52129 12.7163
H 0.691197 4.22823 11.8544
O 5.35112 14.0357 10.2985
H 5.98648 13.4658 10.8195
H 5.7472 14.2447 9.40435
O 10.1719 -2.27384 7.65037
H 9.42657 -1.87428 7.11671
H 9.80841 -2.98941 8.24686
O 11.3259 -4.98981 -10.5659
H 11.348 -4.05502 -10.2115
H 10.7718 -5.01779 -11.3979
O 6.17649 7.97305 -11.106
H 6.47181 8.24447 -10.19
H 5.39307 7.35572 -11.0344
O 3.60338 4.82749 -13.2175
H 3.15576 4.67392 -14.0984
H 3.14891 4.28223 -12.5132
O -13.9161 9.04109 -10.6505
H -14.5528 9.03848 -9.87944
H -14.4241 9.17178 -11.5019
O -0.0491519 -2.8835 -9.78896
H -1.04366 -2.78333 -9.75919
H 0.239259 -3.06822 -10.7285
O 14.9292 14.2593 -2.96922
H -14.641 -14.715 -2.77037
H -14.2482 13.7422 -3.43132
O -5.18698 6.3739 -14.011
H -5.23395 6.72223 -14.9472
H -5.82284 5.60908 -13.9076
O 13.665 0.00303061 -1.54763
H 13.8904 -0.0502843 -2.52041
H 13.9812 -0.825922 -1.08629
O -4.75928 -14.8065 -10.7573
H -4.51688 -14.01 -11.3113
H -4.85422 14.2906 -11.3486
O 6.61639 12.498 12.3278
H 6.4174 11.7152 11.7382
H 7.60545 12.5802 12.4502
O -11.3535 -13.7778 -7.89677
H -12.1038 -13.2206 -7.54106
H -10.6991 -13.1905 -8.37317
O -11.687 3.85124 3.51564
H -10.6899 3.90623 3.56714
H -12.0763 3.99664 4.4252
O 5.41996 7.39249 -0.130743
H 5.0115 8.19041 -0.573978
H 5.65129 7.61878 0.815433
O -7.50009 0.923238 -10.6806
H -6.92851 1.46336 -10.0629
H -8.46082 1.16275 -10.5406
O 4.45915 10.6427 -10.3189
H 4.65981 9.6864 -10.1065
H 3.84823 10.6875 -11.1093
O 7.72334 -8.70564 -0.421802
H 7.97544 -7.73937 -0.369551
H 8.43768 -9.26004 0.00518274
O 8.90586 -2.8406 -8.74485
H 9.48517 -3.25722 -8.04429
H 8.41444 -3.55689 -9.24023
O -10.5733 11.6338 10.2766
H -11.4087 12.1685 10.1493
H -10.8109 10.6726 10.4167
O -9.51833 -0.36203 13.7004
H -9.17112 0.0106343 14.561
H -8.92821 -0.0691055 12.9482
O -7.70396 -12.4221 2.84323
H -8.02364 -11.7323 3.49287
H -8.16043 -13.2921 3.02931
O 8.55823 -5.35166 -0.336226
H 7.86806 -5.6954 0.300551
H 8.13406 -4.70525 -0.970435
O -4.83517 10.5681 2.03514
H -4.734 11.0899 2.88211
H -3.93731 10.2509 1.72979
O -10.8894 7.38955 -0.0233691
H -11.4838 8.10754 0.338864
H -11.1246 6.51584 0.402433
O 2.77638 -4.2024 -3.18829
H 2.72254 -5.18038 -2.98676
H 2.87687 -4.07033 -4.17441
O -5.72259 -11.355 5.88966
H -5.63881 -12.1009 6.55041
H -5.57535 -11.7095 4.96631
O -5.74465 14.0444 -8.06963
H -5.53901 14.8923 -8.55823
H -6.54958 13.6123 -8.4762
O -8.29335 8.17889 8.4786
H -7.81786 8.88399 9.00464
H -7.91437 8.14041 7.55401
O -6.145 -0.02543 13.2342
H -5.70386 -0.875022 12.9452
H -6.81304 0.254571 12.5448
O -11.6813 -14.3932 9.5671
H -11.3987 -13.4379 9.65388
H -11.6297 -14.6702 8.60764
O -13.3536 6.21696 -9.94868
H -13.2796 7.21402 -9.92985
H -12.7303 5.82366 -9.27283
O 6.95073 8.01542 8.18444
H 6.8963 7.4325 8.99512
H 7.89282 8.32702 8.06061
O 11.063 11.455 11.8686
H 11.9977 11.7442 11.662
H 10.9973 10.4601 11.7917
O -4.93037 -5.33007 0.459579
H -5.11005 -4.78756 -0.361009
H -4.42236 -4.77719 1.12005
O 5.47622 14.195 -10.9109
H 5.8997 14.616 -10.1088
H 6.03638 13.4259 -11.2186
O 4.71571 -10.5415 4.81442
H 3.84779 -10.2258 4.43096
H 5.29267 -10.9016 4.08132
O 12.5307 -3.24599 5.51138
H 12.3035 -2.27285 5.54845
H 11.6882 -3.78449 5.49424
O -4.62635 -7.29567 4.23787
H -4.89292 -7.58088 5.1585
H -5.41276 -6.88696 3.77474
O 12.8761 14.1957 -0.313193
H 13.2358 13.5067 -0.942336
H 11.9237 13.983 -0.0949619
O 1.34867 10.882 -9.13025
H 0.663013 11.1661 -8.4601
H 2.26247 10.992 -8.73933
O 1.22415 12.2272 8.36692
H 1.92099 12.3194 9.07817
H 0.358284 11.949 8.78271
O 9.81528 -6.96868 8.94512
H 10.7729 -6.69153 9.02325
H 9.75649 -7.82223 8.42746
O 0.9041 -1.59807 -14.3207
H 0.52225 -2.05915 14.7763
H 1.84619 -1.32279 -14.5121
O 8.4366 -1.93106 13.5077
H 7.60333 -1.86734 12.9586
H 8.92588 -2.77148 13.2748
O -5.94985 -6.02465 -14.3101
H -5.90733 -6.59446 -13.4894
H -6.10939 -6.60341 14.7881
O -2.74069 -5.00433 -7.18583
H -1.97777 -5.48494 -7.61819
H -3.49571 -5.64296 -7.0373
O -3.36156 -2.76425 5.22865
H -3.31113 -3.71374 5.53834
H -3.44614 -2.74262 4.23248
O -2.31281 -13.1834 -1.90863
H -2.63895 -13.7507 -2.66483
H -3.06816 -13.0004 -1.27942
O -13.3305 -11.9683 -8.06852
H -14.1214 -11.8738 -7.464
H -13.1388 -11.09 -8.50642
O -7.02733 -0.103431 -0.396688
H -6.33397 -0.269064 -1.09797
H -7.59424 0.675125 -0.665806
O -5.11799 -2.00889 7.62983
H -4.92791 -2.541 6.80478
H -4.67623 -1.11458 7.55881
O -12.2933 -3.95019 10.4677
H -12.2771 -4.88223 10.8297
H -12.9443 -3.89798 9.71046
O -13.7015 -10.6892 3.10927
H -13.9912 -10.4026 2.19609
H -13.6493 -11.6872 3.14452
O -8.06067 -6.27569 1.33357
H -7.60997 -7.15163 1.16165
H -8.81345 -6.40903 1.97818
O -1.07667 6.46513 2.12826
H -1.05944 7.36034 2.57353
H -0.22477 6.32776 1.62293
O 0.430522 6.04423 -12.8215
H 0.478526 5.21495 -13.3783
H 0.836411 5.86766 -11.9248
O 8.06242 -12.7271 -14.3858
H 9.02357 -12.7735 -14.6579
H 7.819 -13.5545 -13.8797
O -11.7062 3.90279 -8.26886
H -10.9196 4.35443 -8.68988
H -11.4077 3.40284 -7.45588
O -5.78845 -13.8554 7.26942
H -6.78768 -13.8324 7.3007
H -5.43314 -14.1268 8.16389
O 0.483649 7.07462 4.86812
H -0.301763 7.69221 4.82722
H 1.14944 7.42526 5.52671
O -6.55727 1.56115 -14.4286
H -6.34011 0.885578 14.7647
H -7.40178 1.29714 -13.9627
O -9.15823 8.70001 -8.72518
H -9.89875 8.56988 -8.06589
H -8.56544 9.44444 -8.41796
O 13.6056 -11.1032 -1.40022
H 12.7015 -10.9985 -0.985808
H 13.787 -12.073 -1.56347
O 10.4513 -6.72176 -6.09736
H 10.1559 -7.65072 -6.32035
H 11.164 -6.75778 -5.39683
O -13.5416 -1.71395 0.454491
H -12.9566 -2.16114 -0.222099
H -14.4994 -1.92166 0.256204
O -7.05407 6.42869 13.3593
H -7.69021 6.4645 12.5885
H -6.13481 6.66424 13.0439
O -13.9817 -13.4693 3.66659
H -13.4826 -14.256 4.02981
H -14.505 -13.7492 2.86174
O -13.5286 -10.8918 9.81747
H -13.0616 -10.0095 9.7595
H -13.8491 -11.1596 8.90887
O -3.20603 -3.3619 -9.26139
H -3.60711 -3.93455 -9.97636
H -3.06279 -3.90947 -8.437
O -14.2502 -2.37607 2.97423
H -13.7966 -1.66168 3.50702
H -13.7879 -2.47938 2.09357
O -6.52861 -10.1922 12.6214
H -6.67381 -10.5053 11.6828
H -5.8595 -10.7843 13.0705
O -5.97993 0.00770364 -2.95446
H -5.08971 0.371776 -2.68072
H -5.96466 -0.211679 -3.92996
O 11.0728 3.20909 -9.0089
H 11.4196 2.35016 -9.38566
H 11.1408 3.18707 -8.01147
O 9.14095 14.2731 8.75726
H 8.46572 14.249 8.02006
H 9.98442 13.8317 8.45129
O -6.32171 -1.22438 -12.5463
H -6.95226 -1.98662 -12.6925
H -6.68742 -0.620398 -11.8382
O -0.689988 13.2077 -2.95205
H 0.0907592 13.6908 -3.34833
H -0.895593 13.5893 -2.05088
O -1.46385 -4.77279 12.9943
H -2.26307 -4.61251 13.5735
H -1.72854 -4.69769 12.0329
O -10.7529 13.6724 7.56335
H -10.9817 14.3074 6.82557
H -10.8472 12.7325 7.23534
O 13.7942 -12.8198 5.1426
H 14.4952 -13.2982 4.61361
H 13.1046 -13.4749 5.45122
O 12.5314 -11.8472 -9.27171
H 12.4974 -10.8484 -9.30571
H 13.4143 -12.1626 -9.61962
O 3.76706 0.536253 1.7519
H 2.91368 0.859747 1.34317
H 4.25899 1.3094 2.15218
O -8.13239 2.07373 -2.20462
H -8.36619 2.60518 -3.01879
H -8.43773 2.56338 -1.38793
O -12.6122 3.99159 6.20181
H -13.5766 4.18823 6.02477
H -12.5189 3.05289 6.53362
O 4.72887 6.66886 6.65438
H 4.41609 5.76541 6.9475
H 5.67202 6.80901 6.95569
O 4.18648 1.03465 13.1822
H 3.27059 1.0219 12.781
H 4.82389 0.563183 12.5728
O -1.94024 6.53838 13.5975
H -1.80933 5.58802 13.3153
H -1.1496 6.83974 14.1305
O 4.86008 -10.6232 -4.47752
H 5.29347 -10.562 -3.5784
H 3.88735 -10.4068 -4.39405
O 1.44404 3.55271 7.094
H 0.62046 3.58186 7.66042
H 2.15968 4.10809 7.51753
O 9.81339 14.0255 4.28178
H 9.19453 13.3679 3.85228
H 9.32799 14.8852 4.44089
O 0.435977 10.307 4.69021
H 0.1707 10.0359 5.61544
H -0.100815 11.1026 4.40923
O -7.45554 4.27543 -8.19037
H -6.51216 4.34196 -8.5153
H -8.08084 4.53072 -8.9278
O 13.3849 5.48055 14.792
H 13.5209 4.49999 14.9334
H 12.4079 5.69045 14.8301
O -9.66816 1.50501 5.54661
H -9.74999 0.935455 4.72876
H -10.5648 1.59717 5.97968
O 4.26383 1.46051 -12.1593
H 3.87383 0.57516 -12.4123
H 4.5994 1.4202 -11.2182
O -10.3186 10.7029 -12.1526
H -10.9732 11.4095 -11.8841
H -10.7806 9.81678 -12.1886
O 8.69037 -0.0946163 -13.6984
H 8.02928 -0.737275 -14.0856
H 8.27202 0.810769 -13.6261
O 4.12764 9.89976 12.7479
H 4.14765 9.95076 13.7464
H 3.28576 9.44713 12.4541
O -6.63444 2.76838 2.4212
H -6.67082 1.85549 2.82774
H -5.68099 3.025 2.26289
O 6.75166 -13.0481 8.63353
H 5.98496 -13.4656 9.12116
H 7.4575 -13.7372 8.46969
O 6.32547 9.36514 -5.93741
H 5.79581 9.09466 -5.1335
H 7.27963 9.09193 -5.81529
O -14.4469 3.6965 2.46382
H -13.8307 4.08568 3.1485
H -14.0214 2.89068 2.05205
O -4.81941 6.34328 -1.42653
H -5.37437 5.7512 -2.01085
H -4.66434 7.21659 -1.88831
O 12.8848 9.60052 -12.5134
H 13.1349 10.534 -12.2564
H 12.5343 9.1166 -11.7115
O 8.08591 -6.92343 13.556
H 8.99784 -7.26706 13.3317
H 7.91272 -7.05041 14.5326
O 1.2168 -12.5381 1.52642
H 1.10056 -13.2656 0.850315
H 2.00842 -12.7417 2.10246
O -3.83568 -4.77621 -12.3328
H -4.50854 -4.9656 -11.6177
H -4.2316 -4.15172 -13.006
O 3.73179 -7.392 -5.78317
H 3.42457 -7.9219 -4.99273
H 4.73009 -7.41874 -5.83475
O 4.77564 -8.80241 1.11544
H 5.41621 -9.56914 1.1573
H 4.20694 -8.79791 1.93796
O 10.9293 2.67153 1.46132
H 11.4348 1.83594 1.24624
H 10.1075 2.43935 1.9817
O 7.70495 -1.23167 6.37513
H 6.78164 -1.61212 6.42747
H 7.93349 -1.04158 5.42035
O -12.7611 11.2043 -2.36743
H -12.882 12.0409 -2.90173
H -12.8218 11.4196 -1.39278
O 8.13848 5.68286 -10.0243
H 7.39093 5.30971 -10.5738
H 7.94698 6.64002 -9.80721
O -1.77606 -11.7026 -9.79563
H -1.93241 -10.9129 -9.2025
H -1.63526 -11.391 -10.7353
O 5.45155 -7.5074 3.9371
H 5.79964 -7.97373 4.75033
H 5.75204 -6.55367 3.94552
O -0.276624 10.8035 -6.05512
H -0.719669 11.0051 -6.92863
H -0.866656 11.1026 -5.30523
O -11.9838 13.33 -13.7234
H -11.1908 13.939 -13.713
H -12.8086 13.86 -13.9202
O -0.990868 -13.6084 -14.0191
H -0.0985074 -13.3319 -14.3757
H -0.866991 -14.3152 -13.3226
O -13.4435 -2.66493 -4.98617
H -14.3411 -2.92296 -5.34356
H -12.7528 -3.30186 -5.32849
O 3.84829 -11.228 11.4591
H 4.52448 -10.5265 11.2339
H 4.2136 -11.8263 12.1722
O -12.0184 9.06055 10.5915
H -11.5898 8.26925 10.1555
H -12.2473 8.83593 11.5386
O 12.2651 5.22435 7.05138
H 12.1164 5.84509 6.28162
H 11.4643 4.63625 7.16484
O -5.09314 13.1086 -12.4947
H -5.87001 12.5189 -12.2738
H -5.35995 13.7589 -13.2059
O -12.6809 -14.4389 -10.9324
H -13.4946 -14.2695 -11.4885
H -12.5972 14.4786 -10.7542
O 12.8779 13.4099 13.7936
H 12.1089 13.5717 14.412
H 12.8737 14.0991 13.069
O -7.1366 2.06785 7.02669
H -7.78488 1.69673 6.36189
H -6.20322 1.86185 6.73286
O -13.0072 -9.06069 -13.1303
H -12.7447 -10.0218 -13.0447
H -13.7177 -8.97007 -13.8282
O -9.27901 -11.5279 7.81783
H -9.88621 -11.7148 8.59007
H -9.75725 -11.726 6.96225
O -4.42942 -11.4573 13.9599
H -4.29211 -12.4365 14.1094
H -3.65235 -10.9509 14.3335
O 4.10302 6.5663 -9.6376
H 4.01435 7.32826 -8.9961
H 3.40747 5.87709 -9.4347
O 5.17161 6.8769 14.6077
H 4.64201 6.10583 -14.9367
H 5.03878 6.94719 13.6191
O -6.86064 -0.947808 2.06856
H -6.99892 -0.645801 1.12535
H -7.56637 -1.61297 2.31242
O -2.50668 -0.632972 14.5319
H -2.70019 -0.219335 -14.4764
H -1.64411 -0.272262 14.1772
O -7.48322 -8.68651 5.03147
H -6.60749 -9.11939 5.24522
H -7.36816 -7.69336 5.01205
O -4.45808 -12.4546 -9.46944
H -4.53799 -13.4418 -9.33201
H -3.53038 -12.234 -9.7706
O 8.02987 -1.26111 3.58838
H 8.73668 -1.90228 3.28957
H 7.35514 -1.14538 2.85947
O 0.393892 -14.4203 -0.831602
H 0.888908 -14.8591 -1.58156
H -0.306583 -13.8123 -1.20523
O 7.73621 -8.00579 -13.7681
H 7.79282 -8.78702 -13.1465
H 7.02485 -7.3785 -13.4512
O -3.15666 -0.0207956 6.83467
H -2.9604 -0.654092 6.08608
H -2.31178 0.433519 7.11707
O 0.785814 1.72364 4.7464
H 1.66 1.83367 5.21932
H 0.394706 2.62387 4.55512
O 1.66073 14.5455 -3.18004
H 2.25292 13.9642 -2.62209
H 2.01184 -14.4161 -3.17449
O -8.49345 -2.75671 -12.8593
H -9.00724 -3.11614 -13.6383
H -8.97452 -1.96708 -12.4785
O 6.36666 -9.70982 -9.08842
H 7.21617 -10.1255 -8.76365
H 5.88731 -10.3536 -9.68488
O -1.25162 -5.36974 -11.8433
H -0.532925 -4.71259 -12.0705
H -2.11807 -5.06642 -12.2398
O 11.1727 8.7802 11.4204
H 11.3984 8.94753 10.4607
H 11.0705 7.79711 11.5722
O -2.30621 -9.07051 6.51994
H -1.78746 -9.89814 6.73417
H -3.24387 -9.31853 6.27649
O 5.4064 -5.88556 12.8462
H 5.246 -6.7118 13.3862
H 6.26907 -5.97493 12.3485
O 9.35478 10.8278 -14.5308
H 8.44236 10.4488 -14.6851
H 9.67272 10.5704 -13.6183
O -6.67835 -5.54149 8.47698
H -6.57051 -5.1712 7.55436
H -7.09898 -4.85149 9.066
O -6.83042 9.53926 -4.92228
H -7.00351 8.65295 -5.35177
H -7.19079 9.53368 -3.9895
O -12.6058 13.6057 -4.27764
H -11.6737 13.8845 -4.04651
H -12.6357 13.2991 -5.22899
O -1.77449 3.49673 -10.4889
H -2.58606 2.99789 -10.1848
H -1.71538 4.36691 -9.9997
O -6.96204 10.792 0.0124873
H -6.41793 11.4684 -0.483892
H -6.45432 10.4802 0.815569
O -6.71932 -5.05845 -5.94371
H -6.11853 -5.3443 -6.69025
H -7.48952 -4.54025 -6.31549
O 13.1638 14.9455 -7.17449
H 13.5039 14.0452 -6.90277
H 12.9893 -14.9453 -8.1591
O 2.31125 3.7693 11.1348
H 3.1356 3.83838 11.6966
H 2.39367 2.98751 10.5168
O -11.9874 12.3604 0.0125554
H -11.02 12.6135 0.0113796
H -12.4656 12.8747 0.724458
O -8.81611 -2.75586 5.98333
H -8.90612 -2.11463 6.74536
H -9.56805 -3.41448 6.01134
O 2.26375 10.3807 -2.58278
H 2.18569 10.6082 -3.5534
H 1.35292 10.2139 -2.20523
O 12.2638 9.10723 8.72914
H 12.8149 9.82378 8.30163
H 12.8137 8.27787 8.82765
O 10.2315 -14.1141 1.05602
H 10.0407 -14.2931 0.0908485
H 9.41995 -13.7218 1.48899
O -11.7433 -6.54873 11.3205
H -12.2203 -6.25769 12.1499
H -10.7664 -6.35581 11.4128
O 10.1744 3.33887 9.94067
H 10.5796 2.60151 10.4812
H 10.3642 3.1844 8.97109
O 11.8169 2.97892 -6.31646
H 11.1196 3.44189 -5.76936
H 12.6675 3.50386 -6.28571
O 8.93466 5.58087 9.05718
H 9.17106 4.65218 9.34289
H 8.33931 5.99924 9.74311
O 3.05724 10.6866 4.42638
H 3.46087 11.2003 5.18347
H 2.06509 10.6442 4.54384
O 1.35244 6.44317 0.822557
H 1.67924 7.30983 1.19949
H 1.03634 6.58572 -0.115384
O 3.81328 6.04662 2.74195
H 4.10179 6.78095 3.35635
H 3.20208 6.41774 2.0429
O -8.28004 -8.51494 -0.748558
H -7.51135 -7.92338 -0.505369
H -8.5937 -8.29142 -1.67139
O 0.947792 6.15727 -9.94669
H 1.29244 7.02796 -9.59585
H 0.16264 5.86521 -9.4006
O 10.5598 -5.09781 5.23729
H 10.6864 -6.08152 5.36482
H 9.71466 -4.93367 4.72859
O 1.08092 12.8734 -14.4871
H 1.72374 13.63 -14.6065
H 0.362431 13.1443 -13.8466
O -3.2203 -7.5666 13.0608
H -2.89874 -7.77511 12.1372
H -3.48357 -6.60328 13.1126
O -8.05131 -8.20581 10.1108
H -7.90893 -7.58702 10.8833
H -7.34485 -8.91352 10.116
O -6.2704 6.36741 5.27611
H -6.17789 7.23806 4.79301
H -7.23973 6.16423 5.41424
O 1.75619 -1.63154 -8.17296
H 2.11594 -2.40094 -7.64516
H 1.29117 -1.97538 -8.98874
O -4.24455 3.84516 -8.36748
H -3.84551 3.70001 -7.46212
H -4.6563 2.99315 -8.69074
O 0.696779 -9.94706 -14.3351
H 0.027126 -9.95082 14.8202
H 0.219923 -9.92473 -13.4564
O 9.62073 12.9033 13.4656
H 10.3088 12.5092 12.8563
H 9.37996 12.2373 14.1715
O -4.22086 -7.59452 -2.34945
H -4.65031 -7.44235 -1.45929
H -3.37606 -7.06259 -2.40724
O 6.18545 -6.10139 8.62317
H 5.35527 -6.63911 8.47609
H 6.73577 -6.52756 9.34115
O 10.9371 0.555992 -1.65506
H 10.2862 -0.0384781 -1.18294
H 11.8672 0.226168 -1.4939
O 3.94238 10.9933 1.49437
H 3.83202 10.9133 2.48502
H 3.13546 10.6187 1.03777
O 6.99074 13.1959 3.56343
H 7.05844 12.1992 3.5192
H 6.40663 13.4566 4.3321
O -14.5599 0.248613 -7.96954
H -14.6213 1.21328 -8.22571
H 14.4894 -0.217387 -8.21997
O 0.74241 -3.58065 -12.3079
H 1.6728 -3.94374 -12.2579
H 0.697004 -2.87669 -13.0167
O 6.13543 -12.0666 -10.4477
H 7.05 -12.4425 -10.5968
H 5.64809 -12.0199 -11.3197
O 0.0698712 4.25453 4.40947
H 0.114385 5.25268 4.45075
H -0.7609 3.97763 3.92666
O -12.3954 1.154 4.09262
H -12.6197 1.95829 3.54234
H -11.8454 0.520579 3.54837
O 13.8909 4.84946 11.4972
H 14.3876 5.22218 12.281
H 13.2822 5.54991 11.1245
O 9.57775 14.5843 -6.61307
H 10.0564 -14.7094 -7.25004
H 10.1298 13.7663 -6.45095
O -10.0804 -3.06169 14.6059
H -10.9676 -3.16535 -14.8425
H -9.89882 -2.09132 14.4466
O 11.4 2.60943 -12.1598
H 11.4903 2.14576 -11.2784
H 10.4991 2.41522 -12.5478
O 13.0513 8.24217 3.57729
H 12.1033 8.539 3.46263
H 13.3026 7.63169 2.82619
O 5.10845 -12.7007 2.8594
H 4.48382 -12.7682 3.63738
H 4.60579 -12.8736 2.0124
O -14.104 -13.5398 -1.7446
H -14.1259 -13.7373 -0.764566
H -13.1773 -13.2743 -2.01046
O 11.99 7.57399 -7.08324
H 12.2881 6.90843 -6.39902
H 11.2496 7.18192 -7.62921
O 10.7752 8.58164 -3.37909
H 10.1747 8.47438 -2.58669
H 11.7171 8.7097 -3.06862
O 11.143 12.555 -5.93576
H 11.8915 13.1606 -5.66575
H 11.4064 11.6048 -5.76923
O -6.85605 -0.406363 4.62053
H -6.81179 -0.71461 3.67027
H -7.4814 -0.994799 5.13303
O 13.9005 1.79969 -13.1995
H 13.116 2.35488 -12.9232
H 13.945 0.978841 -12.6301
O 12.3542 -1.28344 8.65995
H 12.6256 -1.55105 9.58445
H 11.7673 -1.99125 8.26682
O 13.8637 -8.83148 -7.34864
H 13.8868 -9.68099 -6.82161
H 14.324 -8.97052 -8.22542
O 14.4668 3.57566 6.71379
H 13.7094 4.22766 6.74886
H 14.7326 3.32324 7.64416
O -0.688299 8.24941 -3.90473
H -0.337625 8.6803 -4.7362
H -1.21789 7.4369 -4.14829
O -14.634 0.943512 9.91008
H -13.6763 0.818936 10.1693
H 14.8996 0.0820686 9.55628
O -1.70089 12.849 11.8558
H -1.59461 13.8409 11.7857
H -1.82331 12.4615 10.9421
O -4.16547 1.77841 12.5997
H -4.49947 2.71807 12.6736
H -4.91692 1.14271 12.7763
O 0.0387515 -8.67468 -3.0365
H -0.551214 -7.9432 -2.69467
H -0.199274 -9.53392 -2.5837
O 12.7877 -12.4699 1.17217
H 12.2023 -11.7996 1.62815
H 12.2461 -13.2745 0.928821
O -12.9855 14.3316 5.41317
H -12.1306 13.9432 5.06921
H -13.4307 13.6727 6.01954
O -14.6097 -7.49291 1.1944
H -14.9453 -8.43386 1.15028
H 14.6608 -6.94065 1.74336
O -7.7844 1.65062 -7.33822
H -7.5942 1.65974 -6.35654
H -7.46286 2.50425 -7.74798
O -1.38561 -11.6413 7.73693
H -0.546806 -11.1288 7.92069
H -1.23463 -12.2633 6.96866
O -14.032 6.57109 12.7527
H -13.5386 6.01788 13.4238
H -13.4126 7.25189 12.3618
O -3.33295 4.03927 -3.34377
H -2.58645 3.70941 -2.76593
H -4.20903 3.78927 -2.9315
O 9.96435 0.0989884 -4.56763
H 9.35734 0.719207 -5.06446
H 10.3508 0.573392 -3.7767
O -7.21917 9.68578 6.38088
H -6.78545 9.5397 5.49177
H -6.9939 10.6009 6.71529
O -3.04472 11.9351 -10.9786
H -3.79677 12.3969 -11.4488
H -3.41413 11.329 -10.2743
O -4.52419 7.11888 12.6091
H -3.64357 6.78243 12.9427
H -4.43651 8.0802 12.3481
O -14.3193 -13.7093 -12.9096
H -14.9091 -12.97 -13.2345
H -14.4598 -14.5212 -13.4762
O -7.84711 10.0184 -2.41243
H -7.53423 10.0299 -1.46272
H -8.37626 10.8461 -2.59907
O -6.63489 8.89713 3.91515
H -7.38807 8.36408 3.52974
H -5.97211 9.10588 3.19604
O 7.60414 -6.87429 10.9514
H 8.4081 -7.10932 10.4052
H 7.78399 -7.07776 11.9138
O 11.911 0.108783 3.54533
H 12.5578 0.866696 3.62968
H 11.7118 -0.261986 4.45244
O -14.6848 13.7453 11.279
H -14.113 14.5166 11.5584
H -14.1172 12.9278 11.1814
O 3.94356 11.3577 -7.68148
H 4.1726 11.2559 -8.64954
H 4.21858 12.2665 -7.36775
O -8.52771 -14.1417 7.66801
H -8.55735 -13.2377 8.09438
H -8.96373 -14.1007 6.76903
O -10.4254 -8.71057 0.796043
H -9.52926 -8.66223 0.354869
H -10.3531 -8.37474 1.73517
O 0.520441 11.7674 12.9551
H 0.723896 12.3699 13.7268
H -0.355305 12.0293 12.5496
O -3.93441 7.87506 0.644589
H -4.39016 7.14568 0.134433
H -4.13702 7.77715 1.61893
O -11.27 -3.26141 2.01106
H -11.699 -2.54857 1.45624
H -11.6291 -4.15491 1.74146
O -13.5805 5.1158 -0.640235
H -14.1064 4.38136 -1.06917
H -14.1355 5.94696 -0.605919
O -0.328587 -14.0255 -9.69377
H 0.401237 -13.9724 -10.3753
H -0.97476 -13.2762 -9.83829
O 3.00704 -7.73084 -10.2225
H 2.18503 -8.2729 -10.0481
H 3.70641 -8.31092 -10.6401
O -12.0008 1.40716 10.3411
H -11.8892 0.558142 10.8575
H -11.6097 2.167 10.8604
O -0.193829 -9.18148 12.791
H 0.132593 -8.29948 13.1308
H 0.581502 -9.80286 12.6782
O -14.7844 -1.02194 8.02025
H 14.2634 -1.49317 7.78512
H -14.6618 -0.23451 7.4162
O 2.3993 5.88874 13.328
H 1.63117 6.42412 13.6792
H 2.59804 5.13808 13.9581
O -8.70297 4.61541 3.0145
H -8.54601 5.53415 2.65222
H -7.89034 4.05325 2.86094
O -12.3849 -3.62088 -13.9085
H -13.2325 -3.62165 -14.4391
H -12.2183 -4.53749 -13.5452
O -0.576556 3.40636 9.04506
H -1.44593 3.09806 9.4312
H -0.134079 4.03756 9.68206
O -9.95777 -4.21874 8.96897
H -10.8233 -4.07541 9.44888
H -9.21454 -3.7982 9.48928
O 13.9741 11.1363 14.8417
H 13.9146 10.4114 14.1555
H 13.8146 12.022 14.4057
O 7.22254 6.82094 -13.4207
H 6.97193 7.36235 -12.6182
H 6.51793 6.92054 -14.1233
O -7.324 7.19329 -10.0705
H -7.6368 6.84963 -10.956
H -7.95896 7.89199 -9.74095
O -1.40865 11.5074 9.71092
H -2.15567 11.4831 9.0466
H -1.32753 10.6146 10.154
O 3.35852 -10.1574 -14.3349
H 2.39092 -10.1424 -14.5869
H 3.87253 -9.55995 14.9476
O 2.91729 -1.07291 -12.0544
H 3.53635 -1.15719 -11.2736
H 1.99169 -0.883194 -11.727
O 13.7268 6.23537 -10.2498
H 14.1519 6.65227 -11.0532
H 14.3997 6.16975 -9.51297
O 13.2105 -7.84953 -13.1189
H 12.2753 -7.73778 -12.7828
H 13.1941 -7.99366 -14.1083
O 3.53477 -1.13474 -14.8619
H 4.04976 -0.343695 14.7058
H 3.62101 -1.19724 -13.8676
O -9.25194 -3.45142 -1.71078
H -8.64234 -3.86982 -2.38407
H -9.82319 -4.1583 -1.29369
O 3.35858 3.75803 -4.57523
H 3.61327 2.90737 -4.11535
H 3.2598 3.59003 -5.55604
O 1.4016 -12.9735 14.9119
H 1.68232 -12.4415 -14.1872
H 1.32704 -12.3694 14.1185
O 6.47712 14.0025 7.83169
H 6.77163 13.0532 7.72159
H 6.03045 14.3124 6.99239
O 13.1232 -11.1733 11.1122
H 14.0098 -10.7588 11.3174
H 12.7468 -10.7615 10.2823
O 4.80866 -13.9582 -1.79624
H 5.5908 -13.3702 -1.59011
H 4.95046 -14.4037 -2.68017
O 1.23434 10.4659 0.725696
H 0.62324 9.91566 1.29468
H 0.840282 10.5644 -0.188086
O 4.78627 3.04214 2.46764
H 5.36552 3.8418 2.30957
H 4.12022 3.24942 3.18415
O -0.0550853 -8.09688 0.653486
H -0.809328 -8.13481 1.30896
H 0.232668 -9.02626 0.422329
O -9.93604 11.7643 -6.62398
H -9.32449 11.0957 -7.04715
H -10.4501 11.3259 -5.8867
O -0.356638 -1.82328 7.08135
H -1.0264 -2.45683 7.46866
H -0.554391 -0.895226 7.3969
O 5.86544 14.7496 -4.31883
H 6.49908 14.111 -3.88215
H 5.23199 14.243 -4.90372
O -1.57882 -10.961 -12.4905
H -1.35791 -11.691 -13.1372
H -2.19303 -10.3036 -12.9269
O -2.72346 0.52647 -5.38283
H -3.61488 0.116823 -5.57657
H -2.00519 -0.0181314 -5.8158