2611
Atoms. Timestep: 23000000
O -10.6023 6.41128 -11.7192
H -9.63025 6.48929 -11.9406
H -10.8026 5.47776 -11.4217
O 2.61384 9.23758 11.402
H 2.41871 9.91957 12.1069
H 2.97823 8.41055 11.8301
O -1.80237 -14.5238 -4.66055
H -2.65648 -14.2492 -5.10238
H -1.96956 14.5949 -4.07641
O 13.4857 -14.2302 -5.09929
H 12.7242 -14.8668 -4.97768
H 14.3502 -14.7159 -4.9696
O -4.79069 -10.8644 -8.16208
H -5.32696 -11.6601 -7.88055
H -4.10763 -10.6579 -7.46146
O 14.4636 13.441 -3.86503
H 13.8858 12.7125 -3.49685
H -14.8253 13.059 -4.54677
O 11.3179 13.9406 -4.70419
H 11.1153 13.6443 -3.77079
H 11.4578 13.1389 -5.28539
O 0.0660182 3.43398 -7.04774
H 1.03636 3.65477 -6.94896
H -0.150194 3.3076 -8.0159
O -6.50904 -1.76616 -4.5297
H -6.34482 -2.33523 -3.72394
H -5.76593 -1.1041 -4.62726
O 1.47118 4.99545 0.805444
H 1.80488 4.97278 -0.136995
H 2.15354 4.5853 1.41061
O 8.31689 9.33814 0.911446
H 8.51195 9.80984 1.77139
H 9.00602 8.63038 0.755736
O 8.85415 -9.98517 -0.246939
H 9.48087 -10.6393 0.176535
H 8.24958 -9.60253 0.451741
O -8.59594 -13.6547 -9.15229
H -8.8626 -12.702 -9.00652
H -8.80386 -13.9187 -10.0942
O 10.1723 -8.24734 -3.85551
H 9.21924 -8.19574 -4.1539
H 10.534 -9.15888 -4.0513
O 6.62013 -8.96416 12.4513
H 5.76658 -9.24041 12.8931
H 7.23361 -8.56408 13.1322
O -1.67915 3.58494 8.89957
H -1.9126 4.23418 8.17567
H -2.32335 3.68535 9.65784
O 4.9732 3.11439 -14.6636
H 5.34196 3.30808 14.3402
H 4.10192 3.5916 -14.5487
O -5.27701 9.8491 -13.2528
H -4.30372 9.72314 -13.4449
H -5.3871 10.2749 -12.3546
O 12.5989 -9.4192 -0.18298
H 13.2847 -8.99632 -0.775385
H 11.7112 -8.98587 -0.33861
O 0.672067 -6.32444 -13.6841
H -0.0653179 -6.76011 -14.2003
H 1.55126 -6.70034 -13.977
O 0.643567 3.39113 10.6491
H -0.0148974 3.39136 9.89643
H 0.166021 3.21404 11.5097
O -3.44857 -14.636 -13.8856
H -3.64582 -14.3908 -14.8348
H -4.17646 -14.2897 -13.2937
O 10.0011 9.4198 -11.4116
H 9.60496 10.0112 -10.7091
H 10.128 9.94256 -12.2546
O 13.5314 -6.05161 -10.3337
H 14.1018 -6.5185 -11.0095
H 13.9443 -6.14484 -9.42763
O 3.10109 -14.0432 -6.28279
H 2.91035 -13.7135 -7.20743
H 3.41031 -13.2808 -5.71423
O 2.11951 -9.36966 11.7335
H 1.27775 -9.72552 11.3274
H 2.76194 -10.1216 11.8816
O 5.53357 -11.27 -3.29
H 6.39989 -10.7722 -3.24846
H 5.30917 -11.6248 -2.38236
O 7.57845 -7.72727 -5.02733
H 7.17129 -8.05176 -4.17352
H 7.52355 -8.44841 -5.71798
O -3.47653 -8.14668 -12.0034
H -3.08067 -7.2377 -12.1342
H -3.49975 -8.3628 -11.0272
O -14.707 13.1227 -13.7787
H -13.9728 12.8473 -14.3993
H 14.8203 12.3121 -13.3381
O 2.12543 -3.89311 0.857797
H 1.50478 -3.11378 0.771192
H 1.5964 -4.7218 1.04073
O 2.5791 -0.597345 8.53198
H 2.11088 -1.4421 8.27271
H 1.91864 0.15277 8.56634
O 14.7427 -2.50764 10.2957
H 14.108 -2.51234 11.0685
H 14.2602 -2.2154 9.46988
O 6.80071 6.47983 6.14619
H 6.50998 7.1935 6.78353
H 6.78907 6.84081 5.21366
O 9.99614 7.47755 -7.62313
H 10.488 7.40292 -6.75564
H 10.5909 7.89792 -8.30844
O -6.27102 -2.4609 0.27903
H -5.77636 -3.24501 0.653917
H -6.94462 -2.14194 0.945809
O 11.3272 6.5003 9.18778
H 10.6384 5.88166 8.80979
H 12.0826 6.59434 8.53921
O -13.1654 9.41905 14.5598
H -14.0442 9.44807 -14.8767
H -13.2878 9.00034 13.66
O -13.2896 10.1309 2.25638
H -12.7385 10.8324 1.8044
H -12.6903 9.41298 2.61049
O -9.15339 -0.945251 -10.8341
H -9.58073 -0.640941 -11.6855
H -8.28818 -1.40238 -11.0402
O -10.8771 -7.45599 0.276955
H -10.939 -8.24229 0.891731
H -10.8402 -6.61405 0.81532
O 6.8022 -5.19842 -9.12511
H 6.17211 -5.68471 -9.73055
H 7.56438 -5.79962 -8.88488
O -6.91271 -10.1975 -13.3481
H -6.80219 -10.1525 -12.3552
H -6.08733 -10.5858 -13.758
O 4.89923 -11.0048 9.51931
H 4.74209 -11.6513 10.2659
H 4.09394 -10.4225 9.4076
O 8.85376 9.92596 8.36939
H 9.15519 9.26584 9.05746
H 9.11712 9.60346 7.46017
O 8.55624 -7.77535 13.9429
H 9.19595 -7.63417 14.6985
H 8.39945 -6.90704 13.4723
O 2.63208 10.1039 -8.80699
H 2.63464 10.0245 -9.80385
H 3.24295 10.8457 -8.53017
O 9.0474 -8.39356 7.78399
H 8.49838 -9.18166 8.06242
H 8.48599 -7.56677 7.82002
O 2.57209 11.3282 13.296
H 2.39362 12.2885 13.5105
H 3.28358 10.9773 13.9048
O -5.03833 -14.1774 13.7145
H -4.6972 -14.3667 12.7937
H -5.80275 -14.7888 13.919
O 2.51105 6.306 4.86007
H 2.68162 7.28724 4.76988
H 3.0011 5.81491 4.13983
O 5.15891 -2.0382 -9.55398
H 4.51214 -2.73088 -9.23469
H 6.0882 -2.40522 -9.51179
O 6.47762 7.46946 -5.88081
H 5.89289 7.392 -5.07325
H 5.93986 7.81525 -6.64977
O -0.262115 9.59733 -13.1711
H 0.258325 10.4414 -13.0416
H 0.33041 8.81052 -12.9982
O -13.5439 -11.2311 -14.2614
H -12.9884 -11.7403 -13.604
H -13.2143 -11.413 14.7251
O 10.6944 -7.22625 -13.9882
H 11.0234 -6.56189 -13.3171
H 11.4442 -7.48316 -14.5981
O -9.04188 -0.798131 5.50842
H -8.44154 -1.53884 5.20675
H -8.93217 -0.660095 6.49278
O 5.56646 -7.45282 3.31935
H 6.4268 -6.96172 3.45609
H 5.53203 -7.81152 2.3865
O -14.6609 13.8181 13.4045
H -14.9506 13.4567 12.5182
H -14.9216 13.1777 14.127
O -11.8711 0.907312 -11.2208
H -11.3084 0.854201 -10.3959
H -12.7957 0.58645 -11.0149
O 6.09601 -10.8305 1.29148
H 6.63795 -10.7764 2.13019
H 5.95362 -9.91034 0.926697
O 9.72187 -4.27242 -14.6839
H 9.89331 -3.59991 -13.9639
H 10.0111 -5.17704 -14.3708
O 5.68315 -9.11777 -9.1733
H 5.30658 -8.3439 -9.68259
H 5.47541 -9.96798 -9.65708
O 11.3113 4.3297 0.496435
H 10.6376 4.74114 1.11032
H 12.2193 4.69207 0.707061
O 6.50398 -5.11007 -5.4288
H 6.89061 -4.19797 -5.56532
H 7.19551 -5.80048 -5.64135
O 1.9007 0.574771 11.8139
H 1.10246 0.688016 11.2222
H 1.95621 1.34462 12.4497
O 4.71385 -5.39388 5.62473
H 3.74414 -5.42349 5.86732
H 4.81248 -5.06693 4.68482
O 14.4092 10.6784 11.8975
H -14.6386 10.7111 11.3969
H 13.7778 10.0584 11.4317
O -0.736836 -12.0366 -3.97065
H -0.956728 -12.9998 -4.12565
H -1.48354 -11.6009 -3.46798
O -14.4762 -6.71266 11.2196
H -14.4588 -7.69384 11.4121
H -13.8093 -6.247 11.8014
O -1.4631 13.0392 5.26624
H -1.31549 12.1879 4.76272
H -0.660836 13.6281 5.16783
O -3.24829 3.38268 -11.0764
H -3.98228 3.85372 -11.5657
H -3.54392 3.1854 -10.1416
O -4.1131 -4.46383 -9.52023
H -4.34746 -3.50087 -9.65379
H -4.38834 -4.74966 -8.6023
O -2.66144 13.0737 -2.9897
H -2.24938 12.4144 -3.61867
H -3.65636 13.0513 -3.08809
O -6.5533 1.76037 -11.4634
H -6.90148 2.69632 -11.5166
H -6.07286 1.63224 -10.5958
O -8.69929 12.5942 8.73805
H -8.28053 13.4232 8.36751
H -9.69116 12.6399 8.61905
O 10.2353 -11.1136 -4.48354
H 9.93507 -12.0591 -4.35784
H 10.705 -11.027 -5.36214
O -8.27861 -8.85944 14.3577
H -7.45808 -8.87414 13.7862
H -8.13215 -9.4298 -14.747
O 7.93074 4.5118 13.3745
H 6.97254 4.70872 13.5822
H 8.20977 3.6767 13.8486
O -8.99222 -8.96468 -2.96364
H -9.84043 -9.46715 -3.1313
H -9.2058 -8.01007 -2.7559
O -12.5834 14.9088 8.3487
H -11.924 -14.3377 8.69664
H -12.6343 -14.9338 7.35244
O 1.34719 -3.04709 8.39678
H 0.448887 -2.85709 8.00053
H 1.30774 -2.92073 9.38801
O -11.0208 -1.24524 -13.7504
H -10.6828 -2.1349 -14.0574
H -11.7906 -0.965068 -14.324
O -5.97333 -7.04956 8.69535
H -5.07583 -7.39447 8.97031
H -6.67392 -7.41988 9.30534
O 2.19501 12.6444 9.59926
H 1.94652 13.452 9.06438
H 2.74106 12.923 10.3894
O 3.20618 10.0164 -11.376
H 3.0363 10.7337 -12.0518
H 3.50723 9.18421 -11.8417
O 7.93067 -10.1412 -2.9058
H 8.27981 -10.212 -1.97138
H 8.58152 -10.5622 -3.53763
O -1.38046 5.74326 -7.46754
H -0.841607 4.95012 -7.1836
H -0.943079 6.17907 -8.2542
O -6.95088 7.39284 -11.2734
H -7.29057 8.11614 -11.8747
H -6.84061 7.75363 -10.3473
O -8.45593 14.0085 -3.53649
H -9.4444 13.8599 -3.50635
H -8.00566 13.1859 -3.88398
O 5.97015 5.63644 -1.12416
H 5.95153 5.21389 -2.03034
H 5.53745 5.02449 -0.462078
O 3.74277 5.40854 -11.4587
H 3.18245 5.50899 -10.6365
H 3.22801 4.9063 -12.1536
O -2.51321 13.0845 -9.22485
H -2.95309 13.9754 -9.33813
H -2.78739 12.4798 -9.97274
O -10.306 -8.11538 10.532
H -10.1434 -7.7394 9.61974
H -11.2855 -8.27311 10.6578
O 0.625003 -0.612702 -7.86924
H 0.236786 -0.500894 -6.95445
H 0.169212 -1.37168 -8.33428
O -9.39187 -4.3113 7.48233
H -8.54999 -4.77184 7.20089
H -10.0482 -4.32621 6.72793
O 11.8999 -7.01191 7.97606
H 12.058 -6.9756 8.96285
H 11.7018 -7.95379 7.70465
O -9.40838 7.56776 -8.40555
H -9.79119 8.47823 -8.24883
H -10.126 6.8805 -8.29266
O 0.629481 -13.7006 14.3803
H 0.00551233 -13.7141 -14.7513
H 1.09672 -12.8172 14.3422
O -3.42984 -9.98147 1.28055
H -4.36813 -9.64962 1.18284
H -3.14886 -9.90968 2.2376
O 8.38501 7.43214 12.4251
H 7.49209 7.20633 12.8147
H 8.97467 6.62494 12.4531
O 0.00932759 10.9336 8.76076
H 0.724008 11.4341 9.24936
H -0.0487968 10.0015 9.11845
O -4.54238 -4.4949 11.576
H -5.19614 -5.21075 11.8214
H -3.70192 -4.91443 11.2329
O -10.0001 -11.4537 12.4495
H -9.54188 -11.8375 11.6477
H -9.47771 -11.6794 13.2718
O 0.198339 13.4451 -8.63157
H 0.272135 13.7018 -7.66788
H -0.763198 13.3007 -8.86537
O -12.071 0.269155 0.223086
H -12.1973 -0.0934334 -0.700296
H -11.9302 -0.487291 0.861856
O 0.597418 -3.04895 -4.3866
H 1.45801 -2.57284 -4.56759
H 0.686971 -4.01015 -4.64761
O 10.9817 12.3231 0.960299
H 11.0308 12.7826 1.84713
H 11.238 11.3625 1.06801
O -7.53623 -10.8371 -4.21168
H -8.0302 -11.6825 -4.41513
H -8.18656 -10.1291 -3.93626
O -8.75121 8.0148 12.3867
H -8.03151 8.4623 11.8558
H -8.39334 7.76021 13.2851
O -4.46002 12.2168 -0.199629
H -3.86454 13.0187 -0.249689
H -5.37503 12.4605 -0.521229
O -8.45295 8.64914 -1.52829
H -8.15539 8.71517 -2.48073
H -8.34895 7.70644 -1.21118
O -2.93745 9.30766 -14.025
H -2.09821 8.82935 -13.7662
H -2.74416 10.2822 -14.1386
O -14.5813 -6.08047 5.77307
H -14.4523 -5.81981 6.72989
H 14.4037 -5.84378 5.48527
O -14.3442 -1.58813 -11.7444
H -13.607 -2.09176 -11.294
H 14.6994 -2.05588 -11.5845
O -2.92488 -8.29587 12.7474
H -2.88496 -8.08044 11.7717
H -3.86075 -8.17326 13.0778
O 7.55483 -2.23667 13.824
H 8.39327 -1.79853 14.1482
H 7.67749 -3.22914 13.8199
O 11.4771 -3.29473 6.47421
H 10.8397 -3.1321 7.2274
H 12.379 -2.93796 6.71789
O 13.176 -5.56744 10.0603
H 13.9758 -6.02616 10.4474
H 13.461 -4.98782 9.29689
O 11.9778 8.15363 3.83619
H 11.7633 7.44489 4.50832
H 12.3422 8.95831 4.30502
O 12.7361 -3.32133 12.178
H 12.2364 -3.91736 11.5494
H 13.2699 -3.87952 12.8133
O 0.457955 14.0407 -5.95259
H -0.170847 14.6238 -5.43815
H 1.38782 14.3994 -5.87057
O -6.82371 -12.0719 6.82262
H -7.69285 -11.6563 7.09073
H -6.94044 -12.5601 5.95765
O 3.88464 3.56363 7.92121
H 3.29392 3.27946 7.16598
H 3.97226 4.55981 7.9192
O 13.8876 0.692307 14.8262
H 14.3504 1.46303 14.3882
H 13.2435 0.280201 14.1817
O 14.8021 14.8661 6.03058
H 14.5464 -14.1908 6.47997
H 14.2998 14.1082 6.44676
O 0.953719 6.20646 9.0188
H 1.94885 6.30291 9.04036
H 0.616295 6.43594 8.10581
O -10.1864 -5.3379 4.83365
H -9.2786 -5.71127 4.6424
H -10.7914 -6.07292 5.13994
O -2.4914 7.86715 4.03658
H -2.14763 7.89122 3.0978
H -1.83198 8.30953 4.64446
O -0.0165958 -10.244 10.3229
H -0.674299 -9.50267 10.1891
H -0.160574 -10.9471 9.62645
O -12.4582 5.52267 -5.30968
H -11.7019 5.4568 -4.65878
H -13.2504 5.93499 -4.8596
O 0.617644 1.7856 -13.2207
H 0.619863 0.944453 -13.7616
H 0.513845 1.55889 -12.2523
O 14.4029 6.62251 3.37997
H 13.5688 7.17128 3.43738
H -14.867 6.91861 4.08624
O 11.5518 -3.47502 -7.24878
H 11.4617 -4.35233 -6.77732
H 12.4909 -3.14323 -7.1589
O -4.63098 13.9721 10.3702
H -5.37525 14.6032 10.589
H -4.81452 13.0824 10.7884
O 6.1778 4.18258 4.76867
H 5.90442 3.29933 5.14971
H 6.26781 4.85075 5.50726
O 3.23681 -2.11587 -4.2705
H 3.18078 -1.89766 -3.29618
H 3.81922 -2.91852 -4.39937
O 13.2125 10.0596 -7.71723
H 13.0513 9.4443 -8.48894
H 14.0213 9.75681 -7.21293
O -2.77041 -10.6164 -1.85588
H -3.70185 -10.98 -1.83893
H -2.39385 -10.6211 -0.92947
O -11.0699 11.6257 1.37176
H -11.0219 12.2726 0.610661
H -10.8576 10.706 1.04142
O 2.60514 -13.2517 -9.12506
H 2.12332 -13.3524 -9.99556
H 3.47428 -12.7812 -9.2776
O 6.41804 12.3372 -0.913358
H 6.14956 11.3849 -1.05877
H 5.65971 12.9392 -1.16347
O -9.86225 -7.09628 7.97572
H -10.4848 -7.2291 7.20447
H -9.55977 -6.14339 7.99964
O 11.0741 -5.00625 -2.40115
H 11.0076 -5.75318 -1.73954
H 10.1801 -4.56982 -2.50217
O -5.25161 2.44804 0.18533
H -4.72214 1.96277 0.881206
H -6.22794 2.32327 0.362168
O 6.47904 -14.2288 4.33869
H 5.91126 -13.761 3.66132
H 6.84141 14.8398 3.9439
O -8.95913 -3.92577 -7.89859
H -9.24319 -3.31373 -7.1605
H -7.96697 -4.04707 -7.86778
O -2.99172 -12.2134 8.34086
H -2.07691 -11.864 8.13815
H -2.9384 -13.1922 8.53877
O 1.33682 11.6015 -13.5147
H 2.20583 11.6908 -14.0014
H 0.613009 12.0489 -14.0401
O 7.49335 -2.74086 -5.20828
H 6.6091 -2.28502 -5.10641
H 8.2181 -2.14263 -4.86634
O -6.91693 -5.37227 6.81621
H -6.39368 -6.08257 7.28712
H -7.03677 -5.62738 5.85672
O 11.284 -11.154 3.98108
H 10.6075 -11.8221 3.67121
H 12.2015 -11.5407 3.88737
O 9.83967 -3.2617 -9.73487
H 10.6448 -3.51295 -9.19764
H 9.11231 -2.95412 -9.12136
O -14.3623 13.9649 -7.85276
H -13.5936 14.2393 -7.27485
H 14.7165 13.9278 -7.30248
O -4.62115 7.55033 0.52147
H -5.52094 7.98496 0.560752
H -4.65215 6.67553 1.00501
O -0.36778 12.5164 14.3173
H -1.13874 12.4556 13.6832
H 0.398272 12.9756 13.8674
O -13.6024 10.9629 -8.37816
H -13.5237 10.0907 -8.86096
H -14.0105 11.6445 -8.98556
O 6.24812 2.05732 8.60981
H 5.60644 2.78659 8.37218
H 5.74467 1.28063 8.98842
O 6.58431 10.4579 -11.4929
H 6.95497 9.62098 -11.0901
H 5.58932 10.4637 -11.3928
O 0.548515 14.8117 12.2206
H 0.482219 -14.5335 13.0411
H 0.13606 -14.6194 11.4475
O -13.082 9.56008 -4.56641
H -13.0189 10.517 -4.85006
H -13.5797 9.50108 -3.70103
O -7.38934 -14.9349 7.79659
H -6.6754 -14.2664 8.00491
H -8.05637 -14.5269 7.17316
O -14.501 -8.49786 -14.9159
H -14.1444 -9.43201 -14.9331
H -13.8931 -7.89941 14.4751
O -5.05514 4.82173 13.0255
H -5.04007 5.72331 12.5931
H -4.78134 4.90692 13.9836
O -3.35711 -5.65829 2.2142
H -4.1576 -5.15984 1.88131
H -3.33275 -5.62072 3.21323
O 4.00103 -11.7972 12.1837
H 4.7482 -11.538 12.7957
H 4.16032 -12.7212 11.8359
O -10.7923 4.08059 11.6639
H -9.99574 3.54594 11.9463
H -11.376 3.52274 11.0739
O -11.1363 1.68891 6.63622
H -11.0733 2.68051 6.7495
H -10.9905 1.45325 5.67536
O 10.4169 0.693613 8.11021
H 10.1711 1.54174 7.64083
H 9.6174 0.0947122 8.15692
O -10.4709 -6.43132 -2.23651
H -10.8842 -5.52082 -2.21995
H -10.63 -6.88558 -1.35993
O 3.43333 14.5097 11.8782
H 2.50333 14.4374 12.2387
H 4.05196 13.9596 12.4392
O -14.0124 -4.1278 -3.77311
H 14.9432 -4.39785 -3.87626
H -13.4807 -4.48511 -4.54101
O -3.17562 0.63455 -11.1831
H -3.12576 1.63248 -11.2244
H -3.00936 0.254568 -12.093
O 0.56948 1.36417 5.13682
H 0.055913 2.21775 5.2246
H -0.0627228 0.589994 5.16888
O -10.3584 -14.8163 12.8717
H -9.63013 -14.3548 13.3784
H -10.4462 14.1553 13.1975
O -4.16042 5.21409 1.63117
H -3.17832 5.33521 1.48669
H -4.43365 4.30438 1.3184
O -0.872114 -13.197 -13.2315
H -1.00927 -12.9956 -12.2616
H -1.5578 -13.8588 -13.5347
O -6.51993 -9.54699 -1.41042
H -7.27759 -9.53636 -2.06304
H -5.96501 -10.3659 -1.55723
O -9.78476 -12.6381 -4.6629
H -10.3705 -12.071 -5.24197
H -10.3433 -13.0973 -3.97201
O 10.6905 0.0593546 3.08026
H 10.5919 0.885365 3.63528
H 11.6573 -0.0887889 2.87185
O -0.028184 8.55094 9.87899
H 0.295821 7.6846 9.49882
H 0.537672 8.80279 10.6641
O 12.2728 -0.74584 13.0407
H 11.9771 -0.274729 12.2096
H 12.4143 -1.71559 12.8417
O -12.9829 7.90128 7.47695
H -12.6492 7.0697 7.92103
H -13.7822 8.24472 7.97005
O -9.99489 10.293 4.73986
H -9.02892 10.2412 4.48632
H -10.4992 9.56035 4.28274
O 13.1154 12.8281 -7.82981
H 13.0304 11.8326 -7.78896
H 13.8938 13.0728 -8.40802
O 13.9682 -13.1423 11.0004
H 13.4933 -13.2091 11.8779
H 14.9443 -12.9948 11.1601
O -10.9161 12.0613 -9.6027
H -10.0952 12.2277 -10.149
H -11.6225 11.6503 -10.1791
O -7.53801 4.58989 -11.4096
H -8.01817 4.61515 -10.5327
H -7.22965 5.51099 -11.6474
O 5.34576 9.7431 2.1365
H 5.2978 8.87765 1.63773
H 6.29897 9.94644 2.36032
O 5.93434 4.86854 -10.0042
H 5.17824 4.86649 -10.6587
H 5.61004 4.53434 -9.11918
O -10.2106 0.838302 -9.15829
H -9.42155 1.24144 -8.69471
H -9.92844 0.00412405 -9.6322
O -2.92737 -5.41544 -11.7604
H -3.43785 -5.09332 -10.9631
H -1.95923 -5.49981 -11.5246
O -0.153557 -12.8674 2.02802
H -0.482761 -13.8032 1.90176
H 0.21958 -12.526 1.16528
O -11.6147 5.87948 8.92271
H -10.6747 5.87291 9.26374
H -12.2273 5.52052 9.62695
O 1.59468 8.51682 -1.5105
H 1.61313 7.60182 -1.10739
H 2.53034 8.82135 -1.689
O 6.94833 13.6802 -8.48221
H 7.90606 13.6798 -8.19446
H 6.38805 14.112 -7.77531
O 4.71745 7.39446 0.95551
H 4.02094 6.78664 1.33695
H 5.36894 6.85901 0.418004
O 13.809 -10.2577 7.35152
H 13.9824 -9.86811 8.25605
H 12.9184 -9.94661 7.01968
O 10.3357 -13.0036 10.6629
H 9.60562 -12.3213 10.6245
H 10.957 -12.8707 9.89064
O 9.7354 2.71845 -12.942
H 10.5182 2.18371 -12.6236
H 9.57276 2.52739 -13.91
O -5.36728 -3.65579 3.76417
H -4.85403 -2.79944 3.82156
H -4.83522 -4.39197 4.18253
O -13.2152 -9.29206 9.85461
H -14.1118 -9.65681 10.1059
H -12.9806 -9.59189 8.92987
O -0.92836 3.56082 5.29446
H -1.66322 2.94573 5.00863
H -1.30908 4.29843 5.85217
O 4.01774 13.9239 -12.5578
H 3.30902 13.7323 -11.8788
H 4.91824 13.7591 -12.1553
O 9.93452 13.6674 -11.9942
H 9.743 14.6317 -11.8112
H 10.5624 13.3148 -11.3004
O 3.7523 -1.98711 -1.2455
H 4.18366 -2.88302 -1.13905
H 4.11584 -1.35834 -0.558083
O 3.92026 -9.21964 -6.93619
H 4.6 -9.20753 -7.66959
H 3.95597 -10.1 -6.46313
O 10.7401 11.1474 -13.4659
H 10.5175 11.7466 -12.6968
H 10.7949 11.6886 -14.305
O 10.3106 8.31263 -2.60033
H 10.2881 9.26007 -2.28109
H 9.44966 8.09537 -3.06038
O 9.96565 -9.08413 2.54738
H 10.327 -8.47501 1.84136
H 10.7243 -9.51303 3.03778
O 13.4272 10.9325 -3.72979
H 12.5683 10.8581 -4.23658
H 14.0305 10.1764 -3.98344
O -5.64337 -1.86795 11.6132
H -5.27896 -2.79641 11.6855
H -5.2116 -1.39949 10.8424
O -9.40021 3.12499 -13.0404
H -9.1211 2.19276 -13.2709
H -8.74647 3.51848 -12.394
O -5.38614 0.613599 7.01364
H -4.80624 -0.0607309 6.5564
H -5.9262 1.10621 6.3312
O 13.3202 12.4565 7.90208
H 12.3745 12.3699 8.21532
H 13.5745 11.6421 7.38038
O 10.8548 -5.6727 0.582964
H 11.3308 -5.99177 1.40253
H 10.6197 -6.45622 0.00773747
O 5.58615 -1.93175 7.91132
H 5.39031 -1.37705 8.72004
H 4.94737 -1.69219 7.18014
O 7.99328 -6.24976 -12.8004
H 7.47564 -5.70815 -13.4628
H 8.92521 -5.89317 -12.7339
O 7.40646 7.3613 -9.45266
H 7.03519 6.56242 -9.92595
H 8.15247 7.07548 -8.85112
O 1.24649 1.23035 -10.4882
H 0.967982 0.624104 -9.74324
H 2.17432 0.9966 -10.779
O -9.21737 13.9207 5.13296
H -8.82059 13.6434 4.25791
H -9.9772 13.3123 5.36218
O -7.93202 5.96039 -0.360813
H -7.09118 5.92732 -0.901145
H -8.37426 5.06361 -0.377219
O -10.6209 -8.60865 -7.01188
H -9.97183 -9.18364 -7.51003
H -10.1699 -7.76034 -6.73429
O -2.35031 -13.4734 -0.477929
H -1.45242 -13.0374 -0.416521
H -2.2812 -14.4232 -0.172837
O -14.8811 9.95093 5.09379
H -14.4147 9.07651 4.95982
H -14.9224 10.4433 4.22434
O 10.3788 7.82751 0.114739
H 11.0089 8.54624 0.408739
H 10.5433 7.61336 -0.848137
O 1.77901 -9.24934 -13.8923
H 1.66558 -9.24657 -12.8987
H 2.38426 -8.49992 -14.1608
O 11.0713 11.0426 9.48701
H 10.114 10.792 9.34241
H 11.6119 10.2163 9.64511
O 6.73968 10.7345 -14.6282
H 6.81676 10.2071 -13.782
H 7.23937 11.5953 -14.5311
O -12.4721 -14.6233 5.65858
H -13.461 -14.7568 5.72513
H -12.2431 -14.276 4.74918
O -12.633 -1.92606 13.2398
H -13.157 -1.50694 13.9813
H -12.8021 -1.42806 12.3893
O -5.7418 0.762217 -3.55619
H -6.54436 0.356012 -3.11921
H -5.04276 0.945359 -2.86491
O 4.0436 -13.8155 8.45615
H 4.58618 -13.8382 9.29588
H 4.22824 -12.9654 7.96284
O 14.457 6.2611 13.2571
H 13.9716 7.05255 13.6287
H 14.0903 6.03928 12.3535
O -8.1336 2.35985 -8.19709
H -7.38988 2.35863 -7.52857
H -8.5233 3.27864 -8.26049
O -12.8385 -12.6811 -6.07292
H -13.2669 -12.1675 -5.32949
H -12.5484 -12.0486 -6.79115
O 0.85733 -3.24166 -14.1813
H 1.54778 -3.2468 -13.4579
H 0.399422 -4.13018 -14.2113
O -1.77513 2.40331 14.9134
H -2.71448 2.47963 -14.6651
H -1.15569 2.26961 -14.2259
O 10.5459 -6.30707 -6.76708
H 10.3536 -6.8686 -5.96224
H 10.0025 -6.63503 -7.53987
O 2.85422 2.7132 2.31672
H 2.21949 2.25448 2.93862
H 3.15336 2.07013 1.61172
O -11.298 12.5921 8.16082
H -11.8672 12.1473 7.46925
H -11.7545 13.4204 8.48577
O 7.76605 12.9978 -13.38
H 7.1625 12.8116 -12.6047
H 8.64111 13.3471 -13.0448
O -0.443524 8.84555 13.7545
H -1.16107 9.3526 13.2769
H -0.22008 9.311 14.611
O -13.4185 -8.26372 -10.3756
H -13.7513 -7.92117 -11.2542
H -13.1285 -7.49449 -9.80617
O 9.73988 3.39337 -6.8155
H 10.3866 3.94963 -6.29357
H 8.8298 3.80478 -6.765
O 7.7521 -13.0637 0.507808
H 7.17583 -12.2748 0.294365
H 8.51168 -13.107 -0.141207
O 2.71873 9.31347 2.50414
H 3.57134 9.05947 2.04742
H 1.96624 8.77061 2.13114
O -14.7904 4.75953 7.5209
H -14.1607 4.78988 8.29716
H -14.2711 4.63798 6.67496
O 9.94094 -9.48416 -9.66115
H 10.0507 -10.3657 -9.20196
H 10.808 -9.21724 -10.0819
O 4.66553 -12.1547 -0.798213
H 5.13158 -11.7211 -0.026935
H 4.07686 -12.8896 -0.461529
O -3.5383 11.4832 2.10513
H -3.97359 11.6547 1.2213
H -3.52288 12.3287 2.63883
O -11.7333 0.0313657 11.5711
H -10.8038 0.277592 11.8457
H -11.7935 0.0183358 10.5729
O 7.94818 -1.62005 10.9643
H 7.18683 -1.22724 11.4802
H 7.80738 -2.60462 10.8601
O -9.24018 -2.00686 -6.1298
H -8.36137 -1.91696 -5.66109
H -9.66679 -1.1063 -6.21382
O -13.9763 6.31245 -13.8116
H -13.1466 6.112 -14.3325
H -14.779 6.0765 -14.3595
O 6.9346 -1.70646 4.06959
H 6.88587 -0.707786 4.05124
H 7.85397 -1.99037 4.34199
O -2.78311 -3.33228 9.31798
H -3.0889 -3.1607 10.2545
H -2.28601 -4.19931 9.28322
O 13.9893 -4.7887 13.958
H 14.0961 -5.71546 14.3182
H 13.9914 -4.13472 14.7145
O 10.9088 -12.8127 -8.35909
H 11.1999 -12.2782 -7.56563
H 11.6872 -13.328 -8.7177
O -11.7446 -7.32722 13.8949
H -11.9265 -6.36533 13.6906
H -10.962 -7.39431 14.5139
O -12.7846 -8.86051 -1.54635
H -12.4809 -9.80838 -1.44928
H -12.2268 -8.27042 -0.962598
O -7.10505 -9.27981 3.91991
H -7.75145 -10.0422 3.88911
H -6.70691 -9.14351 3.01273
O -7.55701 3.80878 13.086
H -6.58889 4.05935 13.0911
H -7.99654 4.16 13.9128
O 3.62104 6.06255 11.8072
H 2.99226 6.28772 12.5515
H 3.28394 5.25817 11.3179
O 6.84392 -12.8826 -8.28721
H 7.48576 -12.8248 -9.0519
H 6.98753 -13.7415 -7.79565
O -6.22492 -13.5698 -7.85759
H -6.94073 -13.5337 -8.55499
H -6.60513 -13.9363 -7.00835
O -1.10278 5.62062 -13.0169
H -1.82967 5.71206 -13.6975
H -1.37959 4.95841 -12.3205
O 10.769 14.5715 -0.911916
H 10.7493 13.8463 -0.223565
H 11.6618 14.5793 -1.36236
O 2.31569 -1.68488 13.1537
H 2.33129 -0.832309 12.6313
H 2.59291 -1.50283 14.0972
O -12.4889 0.406169 -6.95245
H -11.7843 0.621482 -7.62862
H -12.2854 0.881038 -6.09621
O -4.11613 -13.8168 -5.80856
H -4.54497 -13.7986 -6.71178
H -4.27803 -12.9456 -5.34507
O -8.22333 12.4797 2.47782
H -8.84936 11.7245 2.28329
H -7.6493 12.2433 3.26182
O -10.1936 6.28 -3.51655
H -9.5145 5.6532 -3.89873
H -10.4078 6.98925 -4.18822
O -11.8949 3.03798 -0.136166
H -12.7525 3.46402 -0.424327
H -12.0051 2.04417 -0.120577
O -0.336428 -2.58967 -11.4821
H -0.260972 -3.58675 -11.4683
H 0.530478 -2.19395 -11.7853
O -2.6857 2.1625 3.39362
H -3.12378 1.94479 4.26582
H -3.00792 1.52782 2.69118
O -2.76014 11.1741 -7.11479
H -2.10317 10.4218 -7.16559
H -2.54112 11.8556 -7.81303
O 6.3006 -14.8407 -6.21516
H 6.60911 14.7766 -5.31103
H 5.44959 -14.3234 -6.12426
O -1.22397 -2.78244 -8.96984
H -2.10895 -2.31682 -8.96191
H -0.854666 -2.78058 -9.89918
O 14.2259 -14.8136 0.748856
H 13.8009 -14.8583 -0.15527
H -14.7176 -14.5884 0.65074
O 3.0445 -4.58505 -12.4639
H 3.02849 -5.39714 -13.0473
H 3.9656 -4.45688 -12.0962
O 9.22545 7.16527 -12.8221
H 9.53474 7.82326 -12.1355
H 8.86021 6.35396 -12.3656
O -3.97416 -10.6801 -13.6771
H -3.87061 -10.0024 -12.949
H -3.20548 -10.6067 -14.3125
O -5.33423 3.79677 8.78084
H -6.25849 3.4908 8.55239
H -5.34421 4.77989 8.96364
O -6.60225 1.93385 4.72197
H -7.50236 1.95835 4.28693
H -6.31916 2.86428 4.95484
O -13.9306 4.54453 10.3706
H -13.6731 3.63777 10.7046
H -14.791 4.82469 10.7963
O 14.0091 1.77941 -5.75801
H 13.5489 1.91591 -4.88073
H 13.5791 1.01932 -6.24528
O 4.31861 -5.82404 -7.26028
H 5.01644 -5.91154 -7.97123
H 4.76136 -5.71109 -6.37074
O -2.07152 1.667 12.3723
H -2.03751 1.85182 13.3545
H -2.94797 1.97812 12.0048
O -4.0804 0.30756 1.84402
H -4.987 -0.112359 1.88661
H -3.52944 -0.158374 1.15164
O -11.2149 -10.1547 -4.89526
H -11.0768 -9.64572 -5.74492
H -12.1924 -10.1997 -4.68877
O 12.6997 2.45206 -10.5947
H 11.924 2.89435 -10.1445
H 13.3961 3.13723 -10.8084
O 10.1795 1.41877 -9.11755
H 10.3748 0.612463 -8.55916
H 9.91824 2.17997 -8.52397
O 10.5975 8.58699 -14.7054
H 10.6617 9.51955 -14.3501
H 9.78501 8.14195 -14.3288
O -5.53471 -5.25322 0.582511
H -6.26428 -5.33042 1.26208
H -5.9008 -5.46092 -0.324624
O 7.23568 -9.66451 -7.12256
H 6.80157 -9.1852 -7.88536
H 7.18482 -10.6513 -7.27667
O 13.7985 -2.83334 -14.0444
H 13.4858 -1.88368 -14.0645
H 13.7416 -3.18331 -13.1094
O -8.69345 -12.5729 14.6277
H -7.9645 -11.9695 14.3043
H -9.08149 -12.2039 -14.4407
O 14.0539 10.8861 2.58798
H -14.8947 10.6948 2.40478
H 13.9546 11.832 2.89688
O -14.0759 -4.59162 -12.9531
H -13.1667 -4.5702 -12.5372
H -14.3221 -3.67345 -13.2635
O -9.56066 -7.08011 -14.2064
H -9.47136 -6.13968 -14.5345
H -9.07578 -7.69695 -14.8264
O 6.63733 12.2692 7.92646
H 7.39794 11.6457 7.7454
H 6.65932 12.5522 8.88536
O 11.4289 -14.5961 12.6366
H 11.0698 -13.8017 12.1467
H 11.8852 14.705 11.9905
O 3.8484 -11.6391 -5.35847
H 4.56942 -11.6623 -4.6659
H 3.17066 -10.9466 -5.11102
O 0.311223 -0.424423 -14.6418
H 0.616745 -1.26483 -14.1941
H 0.544868 -0.460481 14.2995
O -4.78332 -3.02166 7.40715
H -5.69028 -3.13829 7.81199
H -4.08503 -3.28954 8.07099
O -11.923 12.4223 -12.3851
H -12.5162 13.1243 -11.9909
H -11.9416 12.4918 -13.3825
O -0.764572 -10.4982 7.36947
H -0.975333 -9.61006 6.9609
H 0.188962 -10.7337 7.18145
O 9.46575 13.4086 -7.6078
H 10.3902 13.5141 -7.97426
H 9.41476 13.8343 -6.70434
O -0.73856 0.135481 10.5417
H -1.27507 0.106067 9.69831
H -1.22132 0.683428 11.2249
O -10.7237 0.701007 3.93402
H -11.1703 0.2106 3.18558
H -9.95778 0.15797 4.27823
O -11.3679 -13.9971 3.2459
H -10.4805 -13.7226 2.87546
H -11.5451 -14.9533 3.01268
O 1.67914 -10.1666 -4.23436
H 1.32776 -9.26804 -3.97118
H 0.918422 -10.81 -4.31967
O -4.66721 12.4695 -5.5368
H -4.78506 13.4597 -5.61205
H -4.03546 12.1542 -6.245
O -11.0034 -12.8396 8.88362
H -11.6082 -12.5363 9.62006
H -10.053 -12.6598 9.13746
O 8.85304 -10.5568 14.8964
H 9.21421 -10.428 -14.0929
H 8.39943 -9.71775 14.5959
O 0.892331 -6.43431 1.00372
H 0.227751 -6.77759 1.66747
H 0.62831 -6.72836 0.0850893
O 12.8704 -3.21747 -0.572654
H 13.4532 -3.7579 0.0342412
H 12.2962 -3.83001 -1.11593
O 5.74213 -2.45797 -12.4367
H 6.57264 -1.98322 -12.7281
H 5.51906 -2.1939 -11.4983
O -9.94044 13.9076 -7.79271
H -10.3271 13.2828 -8.47106
H -9.57474 14.7159 -8.25425
O 1.81304 13.1077 -10.7991
H 1.4631 12.4139 -11.4286
H 1.09223 13.3692 -10.1571
O -4.74302 -14.2953 -0.547675
H -3.82275 -13.9141 -0.636266
H -4.89874 -14.5735 0.400169
O -4.83697 9.31246 3.51906
H -4.11103 8.70328 3.83836
H -4.45954 9.96496 2.8619
O 2.19806 -1.67335 -11.8624
H 2.61252 -0.769112 -11.7593
H 2.89559 -2.32861 -12.1525
O 4.79611 -4.19036 -3.53177
H 4.58191 -4.74386 -2.72691
H 5.26718 -4.75544 -4.20916
O -13.193 2.11737 -4.65832
H -13.7248 1.74927 -3.8956
H -13.7999 2.29464 -5.43303
O 0.865596 11.2218 -0.983384
H 1.29052 10.3566 -1.24962
H -0.102925 11.0705 -0.78554
O 0.275768 4.26793 13.6785
H -0.319479 3.74468 14.2883
H 1.11805 3.75466 13.5136
O 11.1929 4.37291 -9.37278
H 10.2284 4.21344 -9.58324
H 11.3041 4.48758 -8.38559
O -7.41942 -9.33658 -7.98666
H -7.20911 -8.5813 -8.60745
H -6.62907 -9.51661 -7.40099
O -10.8624 -9.30547 -13.4735
H -11.2574 -9.44588 -14.3814
H -10.1966 -8.56028 -13.5113
O 12.5077 13.269 11.09
H 11.7939 12.6724 11.4569
H 13.0823 12.7507 10.4566
O 7.99408 -12.3043 5.43485
H 7.43906 -13.0351 5.03735
H 8.47092 -12.65 6.24306
O 4.04764 6.35081 8.93355
H 4.08577 6.40704 9.93127
H 4.58187 7.09738 8.53696
O -1.84381 -5.28786 11.4332
H -0.996325 -5.81503 11.3706
H -1.77599 -4.63622 12.1888
O 7.7997 8.34682 -3.67869
H 7.50584 7.83107 -4.48349
H 7.85502 9.31874 -3.90755
O -4.93208 12.618 8.08212
H -3.95463 12.4271 7.99148
H -5.11988 12.9665 9.00045
O 3.76414 3.80436 -3.10255
H 4.02095 2.91292 -2.72914
H 3.19302 3.67425 -3.91307
O 8.68476 10.2313 -6.99067
H 8.70774 9.23444 -7.06694
H 8.71346 10.6363 -7.90458
O 4.08729 -7.34722 -4.57679
H 3.3696 -7.21854 -5.26121
H 4.79462 -7.95071 -4.94495
O -13.921 -5.67521 3.28181
H -14.1355 -5.961 4.21582
H -12.9882 -5.95429 3.05375
O 0.232523 13.7341 1.48945
H 1.15668 13.808 1.11455
H 0.226055 13.0626 2.2304
O 10.5374 3.62043 9.84857
H 9.59452 3.84944 10.0906
H 10.9124 2.99026 10.5285
O 14.7015 8.57694 -12.3826
H 14.6123 8.35173 -11.4124
H -14.6378 7.89231 -12.8323
O 1.62979 1.45022 -4.89077
H 1.0171 0.766988 -5.2881
H 1.55651 2.30379 -5.40662
O -4.41881 4.97727 4.33635
H -3.98867 5.64821 4.9404
H -4.18356 5.18457 3.38674
O 5.83323 -4.68432 -14.2756
H 5.87376 -3.85126 -13.7238
H 5.2847 -4.51537 14.8185
O -14.5358 6.7235 -1.30511
H -13.611 6.34431 -1.3376
H 14.7176 5.98294 -1.17635
O -7.98601 8.49427 -4.29835
H -7.71926 7.53815 -4.17699
H -8.94153 8.53931 -4.58992
O 6.59499 -3.19285 0.666452
H 7.51416 -3.46001 0.955966
H 6.47117 -2.21151 0.81373
O -0.784616 -4.68814 -7.19792
H -1.6201 -4.5407 -6.6685
H -0.598617 -3.88132 -7.75872
O -10.6052 8.53467 -5.48278
H -11.5208 8.81758 -5.19704
H -10.4022 8.92189 -6.38217
O 14.2111 2.33105 6.77117
H 14.342 3.24774 7.14881
H 14.929 1.72431 7.11254
O 12.7711 8.68602 10.9225
H 12.6304 8.62684 11.9108
H 12.6102 7.78998 10.5086
O 4.12059 -7.93436 7.27562
H 4.51316 -7.15567 6.78614
H 4.2323 -8.7633 6.72749
O -13.5801 0.701571 7.42612
H -13.6661 -0.233373 7.08183
H -12.6801 1.06431 7.18443
O -2.01841 5.55015 6.99887
H -2.73016 6.19368 6.71718
H -1.11897 5.95689 6.83876
O 3.15872 -7.50367 -9.83714
H 3.73553 -6.68702 -9.85791
H 2.19712 -7.23396 -9.88858
O -0.0929477 -5.39654 -11.239
H 0.276403 -5.82893 -12.0616
H 0.292203 -5.83824 -10.4287
O -2.3588 6.49532 14.1634
H -2.19518 6.13723 13.2442
H -1.75909 7.27853 14.3277
O 9.84591 -0.703026 14.8327
H 10.5348 -0.681202 14.1081
H 10.2446 -1.09916 -14.2531
O -6.50081 -10.8844 10.7663
H -5.75351 -10.626 10.1541
H -6.18349 -10.8469 11.7139
O 0.942881 9.83191 -4.52445
H 1.59477 10.5333 -4.2361
H 0.995185 9.05175 -3.90101
O -7.88699 -14.5523 -5.96779
H -8.13923 14.7168 -5.24535
H -8.4023 -13.7031 -5.85229
O -5.56611 8.61373 -6.47001
H -4.82229 8.9912 -5.91836
H -6.39963 8.5684 -5.91934