LAMMPS data file via write_data, version 15 May 2015, timestep = 1000000

4560 atoms
7 atom types
5040 bonds
3 bond types
7200 angles
2 angle types
10560 dihedrals
3 dihedral types
2400 impropers
1 improper types

-1.0763502675555259e-01 4.1387635026745990e+01 xlo xhi
-4.0433884491974936e-02 3.5938433884472119e+01 ylo yhi
-3.5711112484589691e-01 2.9555111124838550e+01 zlo zhi
-6.7234083837551181e-02 -1.7036217651000683e+01 -4.1707816797290791e-02 xy xz yz

Masses

1 12.0107
2 1.008
3 12.0107
4 12.0107
5 12.0107
6 12.0107
7 12.0107

Pair Coeffs # lj/cut/coul/long

1 0.07 3.55
2 0.03 2.42
3 0.07 3.55
4 0.07 3.55
5 0.07 3.55
6 0 0
7 0.07 3.55

Bond Coeffs # harmonic

1 469 1.4
2 367 1.08
3 469 0.7

Angle Coeffs # harmonic

1 35 120
2 63 120

Dihedral Coeffs # opls

1 0 7.25 0 0
2 0 7.25 0 0
3 0 7.25 0 0

Improper Coeffs # cvff

1 2.5 -1 2

Atoms # full

219 13 3 0.0000000000000000e+00 -9.4658178744089660e-02 3.2992136365134166e+00 3.1409081346839010e+00 1 0 0
220 13 4 -1.1500000000000000e-01 5.8137785622609606e-01 4.0335306591976678e+00 2.0885660030180273e+00 1 0 0
224 13 2 1.1500000000000000e-01 1.0048782109625516e+00 4.9921086329495115e+00 2.2795873300871579e+00 1 0 0
580 33 4 -1.1500000000000000e-01 2.9722107808291560e+00 7.4096938890024227e+00 3.7810989115282201e+00 1 0 0
228 13 3 0.0000000000000000e+00 -7.7470116676501033e-01 2.0811144728787738e+00 2.8460911697526594e+00 1 0 0
989 53 4 -1.1500000000000000e-01 -1.6920745638588337e+00 7.1645870841116253e+00 3.5833167447728482e+00 1 0 0
600 34 2 1.1500000000000000e-01 -1.8413581100377385e-02 6.2678907760570537e+00 7.2841278939413767e+00 1 0 0
1009 54 2 1.1500000000000000e-01 -4.0211376717828218e+00 8.9019840116804545e+00 7.3185469840033193e+00 1 0 0
601 34 2 1.1500000000000000e-01 -1.1922496299580247e+00 7.8554307507204637e+00 9.1612857714107871e+00 1 0 0
1493 53 6 0.0000000000000000e+00 -5.0559481452945909e-01 8.4620494116282181e+00 2.8403675345210395e+00 1 0 0
733 13 6 0.0000000000000000e+00 -2.6399833930088334e-01 2.6478081323792471e+00 2.8588176440089001e+00 1 0 0
988 53 3 0.0000000000000000e+00 -9.0337605492141138e-01 7.9037583947064416e+00 2.6664271832871353e+00 1 0 0
230 13 1 -1.1500000000000000e-01 7.2388206000457866e-01 3.4657540434695897e+00 8.0206216916415141e-01 1 0 0
217 13 7 -1.1500000000000000e-01 -5.7632352457761149e-01 2.9809603361180672e+00 5.5092982855397548e+00 1 0 0
218 13 5 -1.1500000000000000e-01 -3.1865161276207310e-02 3.7529242030715562e+00 4.5032947098345302e+00 1 0 0
221 13 1 -1.1500000000000000e-01 -1.2469339688197689e+00 1.8037130558358283e+00 5.2309730563256691e+00 1 0 0
222 13 2 1.1500000000000000e-01 -5.0715698064630477e-01 3.4185446331919209e+00 6.5080674352244374e+00 1 0 0
223 13 2 1.1500000000000000e-01 3.7298143707225906e-01 4.7414418393097977e+00 4.7158672070227645e+00 1 0 0
248 14 1 -1.1500000000000000e-01 -3.4162688172153075e+00 3.3793002485367905e+00 8.7543800300896422e+00 1 0 0
244 14 1 -1.1500000000000000e-01 -4.2235239927568617e+00 2.3148391576549514e+00 8.3385588821214167e+00 1 0 0
227 13 4 -1.1500000000000000e-01 -8.2066546334815116e-01 1.6000815425364663e+00 1.5311010445777233e+00 1 0 0
1005 54 4 -1.1500000000000000e-01 -4.7864219930024667e+00 7.8165704811728904e+00 9.0741150194895202e+00 1 0 0
4379 233 3 0.0000000000000000e+00 3.2255136342993005e+00 -3.8764286763580437e-02 2.9733550454010582e+00 1 1 0
234 13 2 1.1500000000000000e-01 1.2590520224536035e+00 3.9964192894776445e+00 -1.6826536006553816e-02 1 0 0
579 33 3 0.0000000000000000e+00 3.6363054289143975e+00 6.3799669803600789e+00 3.0391723034642908e+00 1 0 0
252 14 2 1.1500000000000000e-01 -2.6339602921855336e+00 3.7751757008646525e+00 8.1508577285707879e+00 1 0 0
581 33 1 -1.1500000000000000e-01 4.9731149990601224e+00 4.3094507928839398e+00 1.7321118938560289e+00 1 0 0
4378 233 5 -1.1500000000000000e-01 3.5325506685015657e+00 3.2588311665074660e-01 1.6514969143438201e+00 1 1 0
577 33 7 -1.1500000000000000e-01 4.7646090231265550e+00 5.5289672324666395e+00 1.0761160954209652e+00 1 0 0
588 33 3 0.0000000000000000e+00 3.8395884435942214e+00 5.1730465359967246e+00 3.7278751027817725e+00 1 0 0
589 33 4 -1.1500000000000000e-01 4.5923610813679678e+00 4.1416843553916358e+00 3.0801660534339539e+00 1 0 0
593 33 2 1.1500000000000000e-01 4.7704012044649069e+00 3.2085929985890957e+00 3.6038617931476336e+00 1 0 0
753 33 6 0.0000000000000000e+00 3.6170713652666038e+00 5.7905118135104239e+00 3.4163211077744582e+00 1 0 0
4383 233 2 1.1500000000000000e-01 3.2337072438938668e+00 1.3144657373850432e+00 1.3673859230973326e+00 1 1 0
599 34 1 -1.1500000000000000e-01 4.2749739217822835e-01 4.7721649707192002e+00 8.7076973173606707e+00 1 0 0
578 33 5 -1.1500000000000000e-01 4.0563864329418031e+00 6.5766301565839980e+00 1.7136830476222200e+00 1 0 0
603 34 2 1.1500000000000000e-01 8.9884887270272529e-01 4.2010455904805939e+00 7.9356349699236244e+00 1 0 0
4384 233 2 1.1500000000000000e-01 2.0854840396272398e+00 1.7846812580921705e+00 3.4471631148390194e+00 1 1 0
586 33 1 -1.1500000000000000e-01 2.6865572019448005e+00 5.9893588009368317e+00 5.8124881240459310e+00 1 0 0
587 33 4 -1.1500000000000000e-01 3.4016920364390493e+00 4.9905731168681289e+00 5.0955436600606117e+00 1 0 0
4380 233 4 -1.1500000000000000e-01 2.5101392347245435e+00 8.7409734406428730e-01 3.8383353257671047e+00 1 1 0
4390 233 1 -1.1500000000000000e-01 2.2140434284673400e+00 4.2306731062004793e-01 5.1147696639738474e+00 1 1 0
226 13 1 -1.1500000000000000e-01 7.0205718312049137e-03 2.2535344228924856e+00 4.9182413505521683e-01 1 0 0
590 33 1 -1.1500000000000000e-01 2.4251230670095842e+00 7.1544354561721155e+00 5.0799017924176413e+00 1 0 0
584 33 2 1.1500000000000000e-01 2.8147594862532728e+00 8.3624879258167422e+00 3.2281753060259479e+00 1 0 0
1004 54 1 -1.1500000000000000e-01 -4.2144371476305498e+00 8.9198560251072809e+00 8.4355509659430545e+00 1 0 0
229 13 4 -1.1500000000000000e-01 -1.3853793744578149e+00 1.3922144120282640e+00 3.8909521471001058e+00 1 0 0
596 34 5 -1.1500000000000000e-01 -7.4217444262616628e-01 6.8842389764921252e+00 9.2869760511814210e+00 1 0 0
985 53 2 1.1500000000000000e-01 -2.5159938513868814e+00 7.0884061362194881e+00 5.5822140720192932e+00 1 0 0
993 53 2 1.1500000000000000e-01 -2.0483730432203990e+00 6.1735272759784685e+00 3.2109366169736657e+00 1 0 0
585 33 2 1.1500000000000000e-01 5.5469017062299875e+00 3.5906952623856112e+00 1.1092145007822096e+00 1 0 0
986 53 1 -1.1500000000000000e-01 9.9919684736040626e-02 8.1726986843330476e+00 4.7309354911042534e-01 1 0 0
595 34 7 -1.1500000000000000e-01 -8.6273585265307595e-02 6.0279980582730710e+00 8.3258428599601011e+00 1 0 0
981 53 1 -1.1500000000000000e-01 -1.9921136906379096e+00 7.6956960382635700e+00 4.8347447703919997e+00 1 0 0
225 13 2 1.1500000000000000e-01 -1.6262259508645687e+00 1.1582789376786888e+00 6.0388297135234295e+00 1 0 0
582 33 2 1.1500000000000000e-01 5.1387731948698461e+00 5.6248669759964427e+00 9.5998764638459522e-02 1 0 0
583 33 2 1.1500000000000000e-01 3.9329697806332851e+00 7.4668693319048849e+00 1.0407889403993775e+00 1 0 0
592 33 2 1.1500000000000000e-01 3.6312125131388386e+00 4.0423306494116513e+00 5.5267064476319758e+00 1 0 0
4401 234 2 1.1500000000000000e-01 -1.0372262287431457e+00 1.7989327161777837e+00 8.7079870773841872e+00 1 1 0
987 53 4 -1.1500000000000000e-01 -6.4760251393853663e-01 7.3961713892630048e+00 1.3912765607824824e+00 1 0 0
591 33 2 1.1500000000000000e-01 2.3522314960989998e+00 5.7802888946643067e+00 6.8083763735257747e+00 1 0 0
4394 233 2 1.1500000000000000e-01 1.6541132372062330e+00 1.1000636922990479e+00 5.7194362184624969e+00 1 1 0
594 33 2 1.1500000000000000e-01 1.8441379259221291e+00 7.9096616709945220e+00 5.5885886514817704e+00 1 0 0
4396 234 5 -1.1500000000000000e-01 -7.4743719294732802e-01 7.8728874901420920e-01 9.0649127704240922e+00 1 1 0
245 14 4 -1.1500000000000000e-01 -5.0930111741612185e+00 1.7065006039027606e+00 9.2021115424485238e+00 1 0 0
249 14 2 1.1500000000000000e-01 -4.1254626915657235e+00 1.8783770058735201e+00 7.3382772708441060e+00 1 0 0
977 53 7 -1.1500000000000000e-01 -1.3273593636113734e+00 8.8376640943496731e+00 5.2882889059617488e+00 1 0 0
322 18 2 1.1500000000000000e-01 2.6250621534982885e+00 7.3185865089707769e-01 8.6763071580428086e+00 1 0 0
233 13 2 1.1500000000000000e-01 -1.9544531522737836e+00 5.0624818874817645e-01 3.6993273895936349e+00 1 0 0
4400 234 2 1.1500000000000000e-01 3.3583819873240550e-01 1.9760775418891657e-01 7.2414467123874582e+00 1 1 0
321 18 2 1.1500000000000000e-01 3.8733796236944338e+00 1.7368069609850354e+00 6.7261037514167317e+00 1 0 0
235 14 7 -1.1500000000000000e-01 -5.5753225353688567e+00 3.1608858692010022e+00 1.3178835334440482e+01 1 0 0
236 14 5 -1.1500000000000000e-01 -4.5981716616184016e+00 3.6890295121967127e+00 1.2278029635114986e+01 1 0 0
1022 55 1 -1.1500000000000000e-01 -8.6693658376971587e+00 8.1155294570451346e+00 1.5563330265677424e+01 1 0 0
734 14 6 0.0000000000000000e+00 -4.9052466801655079e+00 2.7918427904715299e+00 1.0597207516206137e+01 1 0 0
239 14 1 -1.1500000000000000e-01 -6.2961610674020818e+00 1.9988135605449906e+00 1.2723836471207013e+01 1 0 0
240 14 2 1.1500000000000000e-01 -5.6622296037275071e+00 3.5358485420264087e+00 1.4215687384320885e+01 1 0 0
4397 234 3 0.0000000000000000e+00 -9.5748733755645787e-01 4.3786547423523658e-01 1.0394276639463184e+01 1 1 0
243 14 2 1.1500000000000000e-01 -6.9693514111100479e+00 1.4380766523495538e+00 1.3347324681346642e+01 1 0 0
1006 54 3 0.0000000000000000e+00 -5.1711543770309270e+00 7.8968935565030129e+00 1.0431316548540147e+01 1 0 0
237 14 3 0.0000000000000000e+00 -4.4084450558275927e+00 3.2122379606342188e+00 1.0974151835532055e+01 1 0 0
4402 234 2 1.1500000000000000e-01 -1.5052682130261497e+00 2.4206380364580600e+00 1.1022346254202638e+01 1 1 0
610 34 2 1.1500000000000000e-01 -1.7760918668207015e-01 3.7741974102555722e+00 1.2643351951960472e+01 1 0 0
4414 235 5 -1.1500000000000000e-01 -4.8405663790468987e+00 6.4563129187475965e-01 1.6308160688043895e+01 1 1 0
255 15 3 0.0000000000000000e+00 -8.6594831503591241e+00 3.0801422625513184e+00 1.8145190691897486e+01 1 0 0
256 15 4 -1.1500000000000000e-01 -8.1237421711508073e+00 3.8793455016497016e+00 1.7081415371102334e+01 1 0 0
260 15 2 1.1500000000000000e-01 -7.7290208142173533e+00 4.8520855753479939e+00 1.7288973253396957e+01 1 0 0
1495 55 6 0.0000000000000000e+00 -9.0304311976420681e+00 8.1380509725779770e+00 1.7956691117277643e+01 1 0 0
1015 55 3 0.0000000000000000e+00 -8.7720678644373038e+00 8.6504745002971983e+00 1.8359975740077044e+01 1 0 0
264 15 3 0.0000000000000000e+00 -9.2153220454283158e+00 1.8321141773158269e+00 1.7831291957975335e+01 1 0 0
4415 235 3 0.0000000000000000e+00 -4.9266833870611837e+00 1.3895137403968122e-01 1.7621081075311068e+01 1 1 0
266 15 1 -1.1500000000000000e-01 -8.3731078369562066e+00 3.4889632281606420e+00 1.5754665299893272e+01 1 0 0
1023 55 4 -1.1500000000000000e-01 -9.1805624210752832e+00 7.1942647766786543e+00 1.6454064165497908e+01 1 0 0
611 34 2 1.1500000000000000e-01 5.1203793565286215e-01 3.3842414349154946e+00 1.0342446700120902e+01 1 0 0
4420 235 2 1.1500000000000000e-01 -5.8977219089093591e+00 1.9372996465626315e+00 1.8296853128574018e+01 1 1 0
735 15 6 0.0000000000000000e+00 -8.9781401485795431e+00 2.4633883212958647e+00 1.8059961466792803e+01 1 0 0
1025 55 4 -1.1500000000000000e-01 -1.0088652685637721e+01 6.6397671563031855e+00 1.8628578713797964e+01 1 0 0
246 14 3 0.0000000000000000e+00 -5.2127091973163209e+00 2.1493963992343699e+00 1.0519979415637254e+01 1 0 0
604 34 1 -1.1500000000000000e-01 -1.1759680321816655e+00 5.5491286405824889e+00 1.3249425448184896e+01 1 0 0
605 34 4 -1.1500000000000000e-01 -5.5825206701178232e-01 4.7529760902640081e+00 1.2291907467369221e+01 1 0 0
606 34 3 0.0000000000000000e+00 -4.1942257793626059e-01 5.1898931499094889e+00 1.0992205547885254e+01 1 0 0
238 14 4 -1.1500000000000000e-01 -3.5464750283918938e+00 3.8655309194439691e+00 1.0077024766176226e+01 1 0 0
4416 235 4 -1.1500000000000000e-01 -5.5230290906318125e+00 9.5944097575401066e-01 1.8581976026366451e+01 1 1 0
597 34 3 0.0000000000000000e+00 -9.7518520615538318e-01 6.4251889456560978e+00 1.0613043970273287e+01 1 0 0
620 35 2 1.1500000000000000e-01 -6.0606451802395265e+00 7.8422241950534186e+00 1.8482382493472571e+01 1 0 0
241 14 2 1.1500000000000000e-01 -4.0625207363891267e+00 4.5751388889743287e+00 1.2608427251298238e+01 1 0 0
4408 234 1 -1.1500000000000000e-01 -1.7304073223861680e+00 1.0118437952294226e+00 1.2568310543995274e+01 1 1 0
598 34 4 -1.1500000000000000e-01 -1.7300601438203378e+00 7.1816774840859425e+00 1.1565071168249432e+01 1 0 0
754 34 6 0.0000000000000000e+00 -5.6027348547661138e-01 5.8344185682652343e+00 1.0736890885645975e+01 1 0 0
609 34 2 1.1500000000000000e-01 -1.3202465072965461e+00 5.2294097054875603e+00 1.4291674986854956e+01 1 0 0
613 35 7 -1.1500000000000000e-01 -4.0007399664198751e+00 5.5275561080398301e+00 1.5700503626085343e+01 1 0 0
618 35 2 1.1500000000000000e-01 -3.8651624020420492e+00 5.7878451960025048e+00 1.4667684821277701e+01 1 0 0
615 35 3 0.0000000000000000e+00 -4.8756151736132365e+00 6.0461604893905196e+00 1.7971604143362246e+01 1 0 0
617 35 1 -1.1500000000000000e-01 -3.5155899048755117e+00 4.3187289184379205e+00 1.6153939077407969e+01 1 0 0
621 35 2 1.1500000000000000e-01 -2.9523712523704537e+00 3.6400626583640885e+00 1.5551237016901203e+01 1 0 0
624 35 3 0.0000000000000000e+00 -4.4474258744942441e+00 4.8009236434017062e+00 1.8412341765307922e+01 1 0 0
625 35 4 -1.1500000000000000e-01 -3.7640999768645971e+00 3.9599480152273880e+00 1.7495049514864355e+01 1 0 0
629 35 2 1.1500000000000000e-01 -3.2924546813126572e+00 3.0892640452827167e+00 1.7890557386023897e+01 1 0 0
755 35 6 0.0000000000000000e+00 -4.6908377112917670e+00 5.4487885462766004e+00 1.8264456876907886e+01 1 0 0
270 15 2 1.1500000000000000e-01 -8.0648257484462160e+00 4.1285475759452392e+00 1.4935162069281304e+01 1 0 0
4398 234 4 -1.1500000000000000e-01 -1.5243041058767011e+00 1.3364181862309554e+00 1.1221337640575973e+01 1 1 0
4412 234 2 1.1500000000000000e-01 -2.0408428727457091e+00 1.8148329161635066e+00 1.3246813935113078e+01 1 1 0
614 35 5 -1.1500000000000000e-01 -4.7288814193275446e+00 6.3717817900639639e+00 1.6612502966477919e+01 1 0 0
247 14 4 -1.1500000000000000e-01 -6.0993976605180400e+00 1.4845995825073524e+00 1.1400835446709177e+01 1 0 0
4419 235 2 1.1500000000000000e-01 -5.1989933100120522e+00 1.6503427607577854e+00 1.6094607724976935e+01 1 1 0
1024 55 3 0.0000000000000000e+00 -9.3401893009127885e+00 7.5024191834508178e+00 1.7800210816574854e+01 1 0 0
608 34 1 -1.1500000000000000e-01 -1.8647153438738266e+00 6.7078493171568683e+00 1.2851323229429948e+01 1 0 0
1494 54 6 0.0000000000000000e+00 -4.9817445789706287e+00 8.5678239618513032e+00 1.0671602388292555e+01 1 0 0
612 34 2 1.1500000000000000e-01 -2.5322898145114268e+00 7.1889763298925837e+00 1.3541879718248975e+01 1 0 0
607 34 4 -1.1500000000000000e-01 2.8176663253117251e-01 4.4098642229496878e+00 1.0081725587298195e+01 1 0 0
262 15 1 -1.1500000000000000e-01 -9.0300638928517927e+00 2.3222593480159852e+00 1.5436075749083953e+01 1 0 0
616 35 4 -1.1500000000000000e-01 -5.5650513306756952e+00 6.9091969397253417e+00 1.8779291316415314e+01 1 0 0
265 15 4 -1.1500000000000000e-01 -9.6697442808468121e+00 1.0049758539470601e+00 1.8868590709934324e+01 1 0 0
269 15 2 1.1500000000000000e-01 -1.0104577987406515e+01 7.4007520790608794e-02 1.8662147208934133e+01 1 0 0
619 35 2 1.1500000000000000e-01 -5.0993114756238773e+00 7.3185854877234133e+00 1.6236120443514604e+01 1 0 0
1007 54 4 -1.1500000000000000e-01 -5.8529215545940936e+00 6.8667267422138041e+00 1.0985338631165808e+01 1 0 0
1000 54 2 1.1500000000000000e-01 -6.3915189345131704e+00 8.2241364023168817e+00 1.4061425386273022e+01 1 0 0
1003 54 2 1.1500000000000000e-01 -6.7128337002468657e+00 6.0926898740542947e+00 1.2896467472755699e+01 1 0 0
263 15 4 -1.1500000000000000e-01 -9.4097116973036989e+00 1.3953640642320231e+00 1.6504915497871298e+01 1 0 0
999 54 1 -1.1500000000000000e-01 -6.2385812649634218e+00 6.9146058645257060e+00 1.2364741270635092e+01 1 0 0
602 34 2 1.1500000000000000e-01 -2.1508867543270460e+00 8.1549681550873370e+00 1.1340906869311482e+01 1 0 0
1029 55 2 1.1500000000000000e-01 -1.0502230703683507e+01 5.6968495945929964e+00 1.8301463900068761e+01 1 0 0
995 54 7 -1.1500000000000000e-01 -5.9947823668364215e+00 8.1414194471182704e+00 1.3055898710676976e+01 1 0 0
1011 54 2 1.1500000000000000e-01 -6.0297144803357874e+00 5.9278980462646036e+00 1.0484745275068475e+01 1 0 0
242 14 2 1.1500000000000000e-01 -2.8915543259310512e+00 4.6923719237576718e+00 1.0402155158302444e+01 1 0 0
254 15 5 -1.1500000000000000e-01 -8.5921936891568258e+00 3.5024530108193916e+00 1.9490158333648999e+01 1 0 0
4418 235 2 1.1500000000000000e-01 -4.0970469039858788e+00 2.4611542943734749e-01 1.4258216345652343e+01 1 1 0
626 35 1 -1.1500000000000000e-01 -5.8035167762821525e+00 6.5885556573578290e+00 2.0103317545026904e+01 1 0 0
1039 56 2 1.1500000000000000e-01 -1.5096989525446629e+01 6.3061960812245124e+00 2.8011278128773956e+01 1 0 0
258 15 2 1.1500000000000000e-01 -8.6335784973314293e+00 2.8597355514680576e+00 2.1555537864579268e+01 1 0 0
634 36 4 -1.1500000000000000e-01 -9.7481647768651829e+00 6.5559512977839356e+00 2.6589783303915343e+01 1 0 0
259 15 2 1.1500000000000000e-01 -8.3699770059996830e+00 4.5338240155088654e+00 1.9674623629202554e+01 1 0 0
1017 55 1 -1.1500000000000000e-01 -1.0076570756393984e+01 6.8536574927909237e+00 1.9986518092374439e+01 1 0 0
284 16 1 -1.1500000000000000e-01 -1.1823497215175834e+01 3.4216653720510561e+00 2.3848216693882748e+01 1 0 0
630 35 2 1.1500000000000000e-01 -6.4523424506692413e+00 7.2351285790767346e+00 2.0637982136900465e+01 1 0 0
4426 235 1 -1.1500000000000000e-01 -5.4662862077375483e+00 5.2231846989966446e-01 1.9897860916947081e+01 1 1 0
288 16 2 1.1500000000000000e-01 -1.1045407482203391e+01 4.0699599385018255e+00 2.3309536550557215e+01 1 0 0
271 16 7 -1.1500000000000000e-01 -1.3904219106242058e+01 2.3599116487010789e+00 2.7999217536082014e+01 1 0 0
272 16 5 -1.1500000000000000e-01 -1.3199800409246265e+01 3.2795795351542125e+00 2.7266447029330013e+01 1 0 0
273 16 3 0.0000000000000000e+00 -1.2951089134737686e+01 2.9112471391976382e+00 2.5921582643904280e+01 1 0 0
274 16 4 -1.1500000000000000e-01 -1.2081357638049655e+01 3.7446527469110333e+00 2.5193025633588608e+01 1 0 0
275 16 1 -1.1500000000000000e-01 -1.4534634143796890e+01 1.2049635136745123e+00 2.7512407768022271e+01 1 0 0
261 15 2 1.1500000000000000e-01 -9.6838493160368202e+00 6.3779806180625775e-01 2.1026370928240400e+01 1 0 0
277 16 2 1.1500000000000000e-01 -1.2762320167281480e+01 4.2214466540838478e+00 2.7663103119391810e+01 1 0 0
278 16 2 1.1500000000000000e-01 -1.1673118300503107e+01 4.5730784181843855e+00 2.5690314651120961e+01 1 0 0
622 35 1 -1.1500000000000000e-01 -5.4490165952716287e+00 5.3455105672029051e+00 2.0548255749469025e+01 1 0 0
282 16 3 0.0000000000000000e+00 -1.3439944335241655e+01 1.6998684855696846e+00 2.5364550169886723e+01 1 0 0
1043 56 4 -1.1500000000000000e-01 -1.4054665897422838e+01 6.7065138856902218e+00 2.6102354585874000e+01 1 0 0
736 16 6 0.0000000000000000e+00 -1.3244099068276389e+01 2.3423778568618410e+00 2.5635699352190631e+01 1 0 0
632 36 5 -1.1500000000000000e-01 -8.8988881245510409e+00 6.1768140940683249e+00 2.4372436193964589e+01 1 0 0
636 36 2 1.1500000000000000e-01 -8.0203240028351814e+00 5.7020036506518599e+00 2.2434029759755163e+01 1 0 0
4438 236 2 1.1500000000000000e-01 -1.0385058528219769e+01 1.6350380975840482e+00 2.5959461579272634e+01 1 1 0
253 15 7 -1.1500000000000000e-01 -8.8415604300208646e+00 2.5992864786228127e+00 2.0540518386018178e+01 1 0 0
280 16 1 -1.1500000000000000e-01 -1.2295176474140728e+01 2.2462640784888217e+00 2.3229456568912699e+01 1 0 0
4430 235 2 1.1500000000000000e-01 -5.9193182640210775e+00 1.0641983593020634e+00 2.0712451407202906e+01 1 1 0
644 36 1 -1.1500000000000000e-01 -1.0012405673205663e+01 6.1175366145624892e+00 2.7901249741905172e+01 1 0 0
631 36 7 -1.1500000000000000e-01 -8.1739493990459451e+00 5.3866161860538702e+00 2.3442415233305908e+01 1 0 0
635 36 1 -1.1500000000000000e-01 -7.7239906339341493e+00 4.0831560439284793e+00 2.3788828910061866e+01 1 0 0
638 36 2 1.1500000000000000e-01 -1.0279300181743196e+01 7.3957661643554262e+00 2.6263205248894497e+01 1 0 0
639 36 2 1.1500000000000000e-01 -7.2782654006110166e+00 3.5053805941030221e+00 2.3016057135509779e+01 1 0 0
283 16 4 -1.1500000000000000e-01 -1.4344918003672472e+01 9.2185489043394908e-01 2.6138081485216759e+01 1 0 0
628 35 2 1.1500000000000000e-01 -4.5317251307807007e+00 3.5280990268890200e+00 2.0091099309571369e+01 1 0 0
4432 236 5 -1.1500000000000000e-01 -8.8526358129698544e+00 3.4605785159596003e-01 2.4173003047077096e+01 1 1 0
1496 56 6 0.0000000000000000e+00 -1.2945544719753212e+01 8.2497341984438126e+00 2.5460950851989121e+01 1 0 0
633 36 3 0.0000000000000000e+00 -9.1085016698337036e+00 5.7049753926733926e+00 2.5659468843184527e+01 1 0 0
4437 236 2 1.1500000000000000e-01 -9.1843688504392738e+00 1.2740527121233223e+00 2.3812432673649884e+01 1 1 0
640 36 1 -1.1500000000000000e-01 -9.4481269409246806e+00 4.8971522561862662e+00 2.8266671099285020e+01 1 0 0
641 36 4 -1.1500000000000000e-01 -8.7602319070078494e+00 4.0595302236516968e+00 2.7367981460392603e+01 1 0 0
642 36 3 0.0000000000000000e+00 -8.5929795260489072e+00 4.4735127066322455e+00 2.6047138176813213e+01 1 0 0
643 36 4 -1.1500000000000000e-01 -7.9303871200613978e+00 3.5831890426806408e+00 2.5108540578980715e+01 1 0 0
623 35 4 -1.1500000000000000e-01 -4.7440253716690179e+00 4.4776761307468860e+00 1.9711925630832628e+01 1 0 0
646 36 2 1.1500000000000000e-01 -8.5699030315501830e+00 3.0539333942810272e+00 2.7605664245419227e+01 1 0 0
647 36 2 1.1500000000000000e-01 -7.7398688075526465e+00 2.5800347667425796e+00 2.5434397554448871e+01 1 0 0
756 36 6 0.0000000000000000e+00 -8.8215914578552344e+00 5.1324822488413977e+00 2.5873773963192818e+01 1 0 0
645 36 2 1.1500000000000000e-01 -9.7371334690192484e+00 4.6290486903499053e+00 2.9283439358029224e+01 1 0 0
4434 236 4 -1.1500000000000000e-01 -9.8605754458684327e+00 7.4038870254357547e-01 2.6347222241653785e+01 1 1 0
1047 56 2 1.1500000000000000e-01 -1.4285150182592767e+01 5.6672128072044812e+00 2.5664266113907942e+01 1 0 0
1042 56 3 0.0000000000000000e+00 -1.3209258246991510e+01 7.5465187569834669e+00 2.5336423928800247e+01 1 0 0
991 53 2 1.1500000000000000e-01 -1.6667894644612755e+01 7.7420821685643597e+00 2.9409464729651202e+01 1 0 -1
1046 56 2 1.1500000000000000e-01 -1.3292869380929577e+01 6.4177782766996039e+00 2.3495705730090268e+01 1 0 0
276 16 2 1.1500000000000000e-01 -1.4056046346901251e+01 2.5008168737708361e+00 2.9065621431162917e+01 1 0 0
1013 55 7 -1.1500000000000000e-01 -9.5294953063681973e+00 7.9844398043867342e+00 2.0568257533883564e+01 1 0 0
4448 236 2 1.1500000000000000e-01 -1.0716440486960764e+01 9.8446978375039451e-01 2.8379944148745039e+01 1 1 0
4444 236 1 -1.1500000000000000e-01 -1.0127406357997124e+01 3.1590445454967997e-01 2.7707699674545779e+01 1 1 0
1040 56 1 -1.1500000000000000e-01 -1.2155687134726382e+01 8.2780039214634460e+00 2.3217747417365540e+01 1 0 0
1036 56 2 1.1500000000000000e-01 -1.4151777140920331e+01 8.3476697772287469e+00 2.9030454099014552e+01 1 0 0
1041 56 4 -1.1500000000000000e-01 -1.2950359065907776e+01 7.3280398924386319e+00 2.3926436096166448e+01 1 0 0
637 36 2 1.1500000000000000e-01 -9.3239606631754874e+00 7.1303775847879161e+00 2.4037250332822545e+01 1 0 0
627 35 2 1.1500000000000000e-01 -5.5295257765795540e+00 5.0212167877530094e+00 2.1561072216874269e+01 1 0 0
648 36 2 1.1500000000000000e-01 -1.0594752317771023e+01 6.7643714707343872e+00 2.8447711530690889e+01 1 0 0
281 16 4 -1.1500000000000000e-01 -1.3130795020116178e+01 1.3961003740669391e+00 2.3976239294054473e+01 1 0 0
1035 56 1 -1.1500000000000000e-01 -1.4373798410262326e+01 6.9643693259959356e+00 2.7477363543483474e+01 1 0 0
279 16 2 1.1500000000000000e-01 -1.5224141708694770e+01 7.0143190216417817e-01 2.8132103780268849e+01 1 0 0
257 15 1 -1.1500000000000000e-01 -9.4027314615566215e+00 1.3422564778203230e+00 2.0252602384623735e+01 1 0 0
285 16 2 1.1500000000000000e-01 -1.2040769918205884e+01 2.0126320504353705e+00 2.2218450387595897e+01 1 0 0
1031 56 7 -1.1500000000000000e-01 -1.3821342968364128e+01 8.1188790799062271e+00 2.8062588212945126e+01 1 0 0
1021 55 2 1.1500000000000000e-01 -1.0569145714212420e+01 6.1071091575490346e+00 2.0612651168138978e+01 1 0 0
1045 56 2 1.1500000000000000e-01 -1.1903239398176380e+01 8.0960981481257939e+00 2.2176635496951402e+01 1 0 0
286 16 2 1.1500000000000000e-01 -1.3580529927940926e+01 5.3129542499789228e-01 2.3537817207557595e+01 1 0 0
1407 76 2 1.1500000000000000e-01 -7.7308595191068408e+00 8.8503229796977205e+00 2.5474273419630659e+01 1 0 0
1033 56 3 0.0000000000000000e+00 -1.2825124694975534e+01 8.7587333193699894e+00 2.5900265191716656e+01 1 0 0
1018 55 2 1.1500000000000000e-01 -9.7454924059346251e+00 8.1337265390552851e+00 2.1632055877604198e+01 1 0 0
287 16 2 1.1500000000000000e-01 -1.4781016829743619e+01 1.5200951205183076e-02 2.5691987465821221e+01 1 0 0
1361 74 2 1.1500000000000000e-01 -1.5743315085721985e+00 1.3483227639279473e+01 8.4164029686934807e+00 1 0 0
980 53 4 -1.1500000000000000e-01 5.1424240798211818e-01 9.8312246959500413e+00 2.1747520707768597e+00 1 0 0
984 53 2 1.1500000000000000e-01 1.0478298957360435e+00 1.0734409925775889e+01 2.3706689583788800e+00 1 0 0
978 53 5 -1.1500000000000000e-01 -5.0985734303316699e-01 9.5659746887377324e+00 4.3768458832322086e+00 1 0 0
1754 93 2 1.1500000000000000e-01 1.1139237601679512e+00 1.5978874767507468e+01 9.0372715538736159e-02 1 0 0
2253 93 6 0.0000000000000000e+00 -6.7276920062230405e-01 1.4509491864333938e+01 2.8919200084055232e+00 1 0 0
1746 93 1 -1.1500000000000000e-01 2.3326607094561003e-01 1.4111310106758522e+01 5.4169156259914264e-01 1 0 0
1741 93 1 -1.1500000000000000e-01 -1.8036802678445019e+00 1.3658251965414292e+01 4.8409662454370599e+00 1 0 0
2273 113 6 0.0000000000000000e+00 3.2806064426369406e+00 1.7331961264145033e+01 3.4819771567120896e+00 1 0 0
983 53 2 1.1500000000000000e-01 -4.6896245251678348e-02 1.0475837589647844e+01 4.6194199859324110e+00 1 0 0
1758 94 4 -1.1500000000000000e-01 -4.2101970350098616e+00 1.5865370910042079e+01 9.4093549974305528e+00 1 0 0
1012 54 2 1.1500000000000000e-01 -3.1975883415231854e+00 1.0807516987585558e+01 8.7844859279188032e+00 1 0 0
1745 93 2 1.1500000000000000e-01 -2.3708901652953207e+00 1.3099514220972159e+01 5.6099889627507560e+00 1 0 0
2105 113 2 1.1500000000000000e-01 5.2206477420045516e+00 1.5247352182000892e+01 1.1300680464169517e+00 1 0 0
1338 73 5 -1.1500000000000000e-01 3.5391381796310752e+00 1.2494633642883541e+01 1.6692448517593350e+00 1 0 0
1339 73 3 0.0000000000000000e+00 3.3434729201352620e+00 1.2135968678018806e+01 3.0125675424389411e+00 1 0 0
1340 73 4 -1.1500000000000000e-01 2.5613540813595281e+00 1.2973983666841633e+01 3.8056861191497848e+00 1 0 0
1341 73 1 -1.1500000000000000e-01 5.0473820343594049e+00 1.0569645972158602e+01 1.3897427750152991e+00 1 0 0
1337 73 7 -1.1500000000000000e-01 4.4236172925705279e+00 1.1700693232979777e+01 8.5012277565495120e-01 1 0 0
1343 73 2 1.1500000000000000e-01 2.9716205975147512e+00 1.3322888861037375e+01 1.3211880849106983e+00 1 0 0
1348 73 3 0.0000000000000000e+00 3.8750813364746053e+00 1.0957247855087715e+01 3.5416595221938758e+00 1 0 0
1349 73 4 -1.1500000000000000e-01 4.7135948503929290e+00 1.0166709305062099e+01 2.7309012377152806e+00 1 0 0
1513 73 6 0.0000000000000000e+00 3.6299875991583068e+00 1.1546967247380040e+01 3.2045220960917291e+00 1 0 0
1356 74 5 -1.1500000000000000e-01 -9.5475496606449362e-01 1.2659741582282082e+01 8.7633657115414429e+00 1 0 0
1354 73 2 1.1500000000000000e-01 1.7191703988348732e+00 1.3317238086496113e+01 5.8134543208533822e+00 1 0 0
1346 73 1 -1.1500000000000000e-01 2.9204423284710086e+00 1.1516143481161436e+01 5.7059473031071777e+00 1 0 0
1347 73 4 -1.1500000000000000e-01 3.6554527004857129e+00 1.0591447505637131e+01 4.9096350259745876e+00 1 0 0
1350 73 1 -1.1500000000000000e-01 2.3180383639063162e+00 1.2657396098241637e+01 5.1859668779579984e+00 1 0 0
1351 73 2 1.1500000000000000e-01 2.6548097167711102e+00 1.1372341391285310e+01 6.7472229398289700e+00 1 0 0
1842 98 2 1.1500000000000000e-01 2.5221106662214599e+00 1.2560684281675600e+01 8.9377909155418180e+00 1 0 0
1363 74 2 1.1500000000000000e-01 8.5633022118812896e-01 1.0064323785623545e+01 7.6713657405392368e+00 1 0 0
1355 74 7 -1.1500000000000000e-01 -2.6407795240215393e-01 1.1878233244963168e+01 7.8157710851591933e+00 1 0 0
1352 73 2 1.1500000000000000e-01 3.9588081286589101e+00 9.6347287234126675e+00 5.3042240860744148e+00 1 0 0
1360 74 2 1.1500000000000000e-01 -3.8129300522987064e-01 1.2225873530158186e+01 6.8205138913783472e+00 1 0 0
2106 113 1 -1.1500000000000000e-01 2.5124807009661492e+00 1.7345770835467878e+01 5.8571590166815879e+00 1 0 0
1748 93 3 0.0000000000000000e+00 -8.3818809435232366e-01 1.3802681071313391e+01 2.6477814202626138e+00 1 0 0
2123 114 2 1.1500000000000000e-01 3.2052531266361139e-01 1.6454193305565322e+01 8.0199168125328271e+00 1 0 0
990 53 1 -1.1500000000000000e-01 7.1387282298195864e-01 9.3792256390019713e+00 9.0801525963023577e-01 1 0 0
1359 74 1 -1.1500000000000000e-01 2.6777323340933457e-01 1.0668818312487954e+01 8.2861170258824224e+00 1 0 0
1749 93 4 -1.1500000000000000e-01 -1.5661860930571363e+00 1.3023298337774447e+01 3.6456546570840125e+00 1 0 0
2112 113 2 1.1500000000000000e-01 3.3086540581556707e+00 1.5382267474614309e+01 5.4636001778414931e+00 1 0 0
1344 73 2 1.1500000000000000e-01 2.1630638322058338e+00 1.3911896453414524e+01 3.5079218853545218e+00 1 0 0
1737 93 7 -1.1500000000000000e-01 -1.4462395387179747e+00 1.4990380406991131e+01 5.1594320003282199e+00 1 0 0
1740 93 4 -1.1500000000000000e-01 2.4096479721776465e-01 1.5995061918542543e+01 2.1285471728936654e+00 1 0 0
1744 93 2 1.1500000000000000e-01 5.6449025068844505e-01 1.6978321047460213e+01 2.3507337013427856e+00 1 0 0