LAMMPS (15 May 2015)
Reading data file ...
  triclinic box = (-0.107635 -0.0404339 -0.357111) to (41.3876 35.9384 29.5551) with tilt (-0.0672341 -17.0362 -0.0417078)
  5 by 4 by 3 MPI processor grid
  reading atoms ...
  4560 atoms
  reading velocities ...
  4560 velocities
  scanning bonds ...
  3 = max bonds/atom
  scanning angles ...
  3 = max angles/atom
  scanning dihedrals ...
  8 = max dihedrals/atom
  scanning impropers ...
  1 = max impropers/atom
  reading bonds ...
  5040 bonds
  reading angles ...
  7200 angles
  reading dihedrals ...
  10560 dihedrals
  reading impropers ...
  2400 impropers
Finding 1-2 1-3 1-4 neighbors ...
 Special bond factors lj:   0          0          0         
 Special bond factors coul: 0          0          0         
  4 = max # of 1-2 neighbors
  8 = max # of 1-3 neighbors
  20 = max # of 1-4 neighbors
  16 = max # of special neighbors
4560 atoms in group all
720 atoms in group C
480 atoms in group S
1920 atoms in group H
720 atoms in group Si
240 atoms in group Na
240 atoms in group Ba
240 atoms in group O
4560 atoms in group naphthalene
1200 atoms in group fixed
960 atoms in group CO
Setting atom values ...
  720 settings made for charge
Setting atom values ...
  720 settings made for charge
Setting atom values ...
  1920 settings made for charge
Setting atom values ...
  480 settings made for charge
Setting atom values ...
  240 settings made for charge
Setting atom values ...
  240 settings made for charge
Setting atom values ...
  240 settings made for charge
Finding 1-2 1-3 1-4 neighbors ...
 Special bond factors lj:   0          0          0.5       
 Special bond factors coul: 0          0          0.5       
  4 = max # of 1-2 neighbors
  8 = max # of 1-3 neighbors
  20 = max # of 1-4 neighbors
  16 = max # of special neighbors
PPPM initialization ...
  G vector (1/distance) = 0.246499
  grid = 16 16 20
  stencil order = 5
  estimated absolute RMS force accuracy = 0.00242397
  estimated relative force accuracy = 7.2997e-06
  using double precision FFTs
  3d grid and FFT values/proc = 1053 112
Neighbor list info ...
  4 neighbor list requests
  update every 1 steps, delay 0 steps, check yes
  master list distance cutoff = 12
Setting up run ...
Memory usage per processor = 13.288 Mbytes
Step Temp Density PotEng E_vdwl E_tail E_coul E_long Press Volume Xy Xz Yz E_mol E_bond E_angle E_dihed 14[1] 14[2] 14[3] msd[4] msd2[4] msd3[4] msd4[4] naphthal Cella Cellb Cellc CellAlpha CellBeta CellGamma 27[2] 27[3] 28[1] 28[2] 28[3] 
       0          298    1.2509986    2087.5869   -1173.1339   -211.49952    2070.8667    -2308.979    790.88859    44657.537 -0.067234084   -17.036218 -0.041707817     3498.833    1521.0094     935.4334    889.67826    28.379601    18.846571    14.337846 2.3535127e-29 2.3910021e-29 2.7538641e-29 3.294809e-29          298     41.49527    35.978931    34.423473    90.016431    119.66323    90.107069    18.846182    14.337739    28.379557    18.849013    14.339638 
    1000    297.97099    1.2509986    2120.5205   -1131.2719   -211.49952     2072.722   -2309.3534   -422.23789    44657.537 -0.067234084   -17.036218 -0.041707817    3488.4237     1540.076    925.33861    875.60124    28.379601    18.846571    14.337846   0.17734883   0.17734742   0.14328531   0.14327222    297.97099     41.49527    35.978931    34.423473    90.016431    119.66323    90.107069    18.847265    14.338083    28.383095    18.848739     14.34034 
    2000    299.45258    1.2509986    2051.4999    -1197.494   -211.49952    2075.4603   -2309.2556   -1530.8052    44657.537 -0.067234084   -17.036218 -0.041707817    3482.7891    1526.2563    964.83409    842.57463    28.379601    18.846571    14.337846   0.24072909   0.24072105   0.20502614   0.20485719    299.45258     41.49527    35.978931    34.423473    90.016431    119.66323    90.107069    18.848503    14.336222    28.385803    18.856096    14.330708 
    3000    296.00996    1.2509986    2204.3595   -1160.9037   -211.49952    2076.0382   -2308.8803    701.60657    44657.537 -0.067234084   -17.036218 -0.041707817    3598.1053     1580.637    945.28325    908.66318    28.379601    18.846571    14.337846   0.28925401   0.28924819   0.24631792   0.24622322    296.00996     41.49527    35.978931    34.423473    90.016431    119.66323    90.107069     18.84614    14.338017    28.371178    18.844074    14.339296 
    4000    293.18685    1.2509986    2116.5798   -1187.9702   -211.49952    2068.5185   -2310.0452   -1656.5832    44657.537 -0.067234084   -17.036218 -0.041707817    3546.0767     1541.472    978.66285    881.51162    28.379601    18.846571    14.337846   0.28537942   0.28537509   0.23787814   0.23776554    293.18685     41.49527    35.978931    34.423473    90.016431    119.66323    90.107069    18.845356    14.337408    28.388919    18.845226     14.33638 
    5000    293.59449    1.2509986    2090.2875   -1159.9239   -211.49952    2074.9149   -2309.7241   -227.81966    44657.537 -0.067234084   -17.036218 -0.041707817    3485.0206    1525.1188    932.06657     877.7901    28.379601    18.846571    14.337846   0.29082066   0.29081742   0.23697247    0.2369331    293.59449     41.49527    35.978931    34.423473    90.016431    119.66323    90.107069     18.84795    14.338087    28.380251    18.851086    14.333757 
    6000    292.09071    1.2509986    2061.7412   -1158.8261   -211.49952    2071.3265   -2309.6231    1428.8739    44657.537 -0.067234084   -17.036218 -0.041707817    3458.8639    1532.9384    937.40333    844.60116    28.379601    18.846571    14.337846   0.30423984   0.30423212     0.245271   0.24518586    292.09071     41.49527    35.978931    34.423473    90.016431    119.66323    90.107069    18.846565    14.336649    28.374221    18.849733    14.332144 
    7000    300.64375    1.2509986    2131.9084   -1159.1053   -211.49952    2077.6528   -2308.6204    1540.1815    44657.537 -0.067234084   -17.036218 -0.041707817    3521.9812    1549.3229    938.05633     884.6952    28.379601    18.846571    14.337846   0.32369464   0.32369406   0.27429234   0.27417846    300.64375     41.49527    35.978931    34.423473    90.016431    119.66323    90.107069    18.846869    14.337432    28.387029    18.847604    14.332151 
    8000    294.92222    1.2509986    2173.1447    -1174.642   -211.49952    2082.4587   -2309.3586   -632.51638    44657.537 -0.067234084   -17.036218 -0.041707817    3574.6865    1559.6075    974.88961    884.65461    28.379601    18.846571    14.337846   0.33588469   0.33587368   0.27750645   0.27735671    294.92222     41.49527    35.978931    34.423473    90.016431    119.66323    90.107069     18.84702    14.338919    28.368371    18.846865    14.344112 
    9000     295.6307    1.2509986    2168.7986   -1183.0934   -211.49952    2072.8246   -2309.2784    180.72785    44657.537 -0.067234084   -17.036218 -0.041707817    3588.3458    1579.1962    939.94784    913.12213    28.379601    18.846571    14.337846   0.31477391    0.3147722   0.25523059     0.255101     295.6307     41.49527    35.978931    34.423473    90.016431    119.66323    90.107069    18.847328    14.337231    28.382659    18.846149    14.329066 
   10000    295.20901    1.2509986    2156.9579   -1181.3413   -211.49952    2075.2666    -2309.706   -16.696167    44657.537 -0.067234084   -17.036218 -0.041707817    3572.7386    1570.1231    970.20675    883.14738    28.379601    18.846571    14.337846   0.30551528    0.3055143   0.24856819    0.2484895    295.20901     41.49527    35.978931    34.423473    90.016431    119.66323    90.107069    18.846352    14.337775    28.384766    18.842468    14.336686 
   11000    297.73272    1.2509986    2097.2672   -1187.7404   -211.49952    2072.7774   -2309.6859   -1619.5066    44657.537 -0.067234084   -17.036218 -0.041707817    3521.9161    1551.9293    916.93398    896.98671    28.379601    18.846571    14.337846   0.30925891   0.30925844   0.26388144   0.26379126    297.73272     41.49527    35.978931    34.423473    90.016431    119.66323    90.107069    18.846735    14.337337    28.384497    18.850648    14.331695 
   12000    298.97634    1.2509986    2123.4515   -1195.8199   -211.49952    2066.0531   -2310.4527   -562.81151    44657.537 -0.067234084   -17.036218 -0.041707817     3563.671     1575.159    942.20976    893.83762    28.379601    18.846571    14.337846   0.31040381   0.31039517   0.26493841    0.2647872    298.97634     41.49527    35.978931    34.423473    90.016431    119.66323    90.107069    18.846352    14.338455    28.391373    18.846853    14.342271 
   13000    294.28137    1.2509986    2190.3516   -1185.2968   -211.49952    2079.6659   -2309.4393   -1030.4511    44657.537 -0.067234084   -17.036218 -0.041707817    3605.4218    1592.1946      969.717     891.7471    28.379601    18.846571    14.337846   0.32991656   0.32991384   0.27518429   0.27511862    294.28137     41.49527    35.978931    34.423473    90.016431    119.66323    90.107069    18.847123    14.337132    28.375104    18.849348    14.332875 
   14000    294.31095    1.2509986     2170.354   -1183.9301   -211.49952    2077.4725   -2309.5337     814.8248    44657.537 -0.067234084   -17.036218 -0.041707817    3586.3452     1587.809    925.97668    911.78902    28.379601    18.846571    14.337846   0.31752356   0.31752293   0.26661787   0.26657486    294.31095     41.49527    35.978931    34.423473    90.016431    119.66323    90.107069      18.8467    14.337514    28.373789    18.846284    14.338122 
   15000     291.8418    1.2509986    2213.6553   -1173.0968   -211.49952    2076.6512   -2309.1112   -270.50526    44657.537 -0.067234084   -17.036218 -0.041707817    3619.2122    1586.4227     967.6197    908.44409    28.379601    18.846571    14.337846   0.31636195   0.31636061   0.26224826   0.26220998     291.8418     41.49527    35.978931    34.423473    90.016431    119.66323    90.107069    18.846572    14.338788    28.385266    18.848879    14.342018 
   16000    299.81746    1.2509986    2176.7435   -1186.4797   -211.49952    2085.4327   -2308.6654   -220.86889    44657.537 -0.067234084   -17.036218 -0.041707817    3586.4559    1626.0713    940.28716    868.18335    28.379601    18.846571    14.337846   0.34328127   0.34327569   0.28914412   0.28909429    299.81746     41.49527    35.978931    34.423473    90.016431    119.66323    90.107069     18.84515    14.337896    28.376274    18.844072    14.343465 
   17000    303.56477    1.2509986    2130.8254   -1185.2671   -211.49952     2075.444     -2309.87   -725.51888    44657.537 -0.067234084   -17.036218 -0.041707817    3550.5185    1594.9373    933.55374    868.25142    28.379601    18.846571    14.337846   0.34782588   0.34782307   0.29111025   0.29103354    303.56477     41.49527    35.978931    34.423473    90.016431    119.66323    90.107069     18.84579    14.339198    28.374422    18.846227    14.346164 
   18000    295.79137    1.2509986     2168.552   -1140.2132   -211.49952    2078.8686   -2309.1508    1881.9946    44657.537 -0.067234084   -17.036218 -0.041707817    3539.0474    1530.3608    962.87698     892.7845    28.379601    18.846571    14.337846   0.34552481   0.34552089   0.29723473   0.29712198    295.79137     41.49527    35.978931    34.423473    90.016431    119.66323    90.107069    18.845942    14.339656    28.376605    18.844456    14.348763 
   19000    297.69989    1.2509986    2259.6419   -1160.7235   -211.49952    2072.9181   -2309.9378    443.00985    44657.537 -0.067234084   -17.036218 -0.041707817    3657.3851    1620.8771    945.72096    931.16524    28.379601    18.846571    14.337846   0.36068781   0.36068761    0.3072472   0.30720427    297.69989     41.49527    35.978931    34.423473    90.016431    119.66323    90.107069    18.846068    14.337349    28.375721    18.845068    14.336081 
   20000    292.43275    1.2509986    2208.8979   -1122.9533   -211.49952    2078.8611   -2309.5082    1542.7647    44657.537 -0.067234084   -17.036218 -0.041707817    3562.4983    1567.4085    964.34411    881.56611    28.379601    18.846571    14.337846   0.37675258   0.37675222   0.31016821   0.31014067    292.43275     41.49527    35.978931    34.423473    90.016431    119.66323    90.107069    18.846602    14.337309    28.378796    18.844699    14.336747 
   21000    292.59455    1.2509986    2117.1486   -1173.6911   -211.49952     2076.388   -2310.0374    166.20327    44657.537 -0.067234084   -17.036218 -0.041707817    3524.4891    1565.0207    926.58027    880.63056    28.379601    18.846571    14.337846   0.36297179   0.36296977   0.29972919    0.2995593    292.59455     41.49527    35.978931    34.423473    90.016431    119.66323    90.107069    18.846452    14.336682    28.382719    18.843524    14.328247 
   22000    297.70416    1.2509986    2235.0243   -1158.6006   -211.49952    2073.8918   -2309.4015    898.02779    44657.537 -0.067234084   -17.036218 -0.041707817    3629.1346    1620.5918    983.54979    875.04694    28.379601    18.846571    14.337846   0.36835134   0.36835013   0.31050856   0.31046763    297.70416     41.49527    35.978931    34.423473    90.016431    119.66323    90.107069    18.845912    14.338304    28.382384    18.843275    14.339558 
   23000    301.17625    1.2509986    2187.3802   -1163.5739   -211.49952    2073.7871   -2309.1767    879.87933    44657.537 -0.067234084   -17.036218 -0.041707817    3586.3438    1563.4389    962.45779     902.8034    28.379601    18.846571    14.337846   0.35915165   0.35915069   0.28992619   0.28971545    301.17625     41.49527    35.978931    34.423473    90.016431    119.66323    90.107069    18.845846    14.337293    28.391207    18.846538    14.331339 
   24000    300.05161    1.2509986    2157.7618   -1157.0405   -211.49952    2079.3614    -2309.299     1421.686    44657.537 -0.067234084   -17.036218 -0.041707817    3544.7399     1581.646     934.4504    879.41441    28.379601    18.846571    14.337846   0.35177587   0.35177202   0.29621329   0.29597124    300.05161     41.49527    35.978931    34.423473    90.016431    119.66323    90.107069    18.846432      14.3377    28.389716    18.845813    14.328298 
   25000    294.82979    1.2509986    2124.9026   -1171.8281   -211.49952    2082.0192   -2309.0843   -122.67833    44657.537 -0.067234084   -17.036218 -0.041707817    3523.7958    1585.7158    933.73485    855.63795    28.379601    18.846571    14.337846   0.36329958   0.36329561   0.30820467   0.30799305    294.82979     41.49527    35.978931    34.423473    90.016431    119.66323    90.107069     18.84564    14.339621    28.378061    18.845851    14.353759 
   26000     290.9088    1.2509986    2145.6954    -1191.967   -211.49952    2072.8994   -2309.5456   -137.83568    44657.537 -0.067234084   -17.036218 -0.041707817    3574.3086    1558.5545    955.69145    907.87114    28.379601    18.846571    14.337846   0.36062046   0.36061457    0.3090186   0.30898245     290.9088     41.49527    35.978931    34.423473    90.016431    119.66323    90.107069    18.848511    14.337105    28.380288    18.852707    14.334951 
   27000    303.00434    1.2509986    2161.8541    -1179.825   -211.49952    2079.4971   -2309.4959   -679.52731    44657.537 -0.067234084   -17.036218 -0.041707817    3571.6778    1575.0504    977.93581    866.35507    28.379601    18.846571    14.337846    0.3400339   0.34002583   0.29577253   0.29576017    303.00434     41.49527    35.978931    34.423473    90.016431    119.66323    90.107069    18.847212    14.339788    28.379344    18.851238    14.342352 
   28000    298.70033    1.2509986    2124.8162   -1204.6583   -211.49952    2079.0705   -2309.0369    -2526.034    44657.537 -0.067234084   -17.036218 -0.041707817    3559.4409    1593.4922    940.26974    875.69737    28.379601    18.846571    14.337846   0.34712268   0.34712185   0.29512555   0.29506221    298.70033     41.49527    35.978931    34.423473    90.016431    119.66323    90.107069    18.845947    14.337639    28.372593    18.845431    14.338219 
   29000    299.27991    1.2509986    2135.3616   -1180.6915   -211.49952    2078.2472   -2309.8364    439.14732    44657.537 -0.067234084   -17.036218 -0.041707817    3547.6423    1594.9545     931.6674    874.57754    28.379601    18.846571    14.337846   0.37315768   0.37315244   0.32081736   0.32067103    299.27991     41.49527    35.978931    34.423473    90.016431    119.66323    90.107069    18.847126     14.33706    28.387064    18.848314    14.330179 
   30000    291.58505    1.2509986    2171.2661   -1159.9054   -211.49952    2072.7281   -2309.0674   -500.97945    44657.537 -0.067234084   -17.036218 -0.041707817    3567.5109    1583.0278    965.95575    868.75943    28.379601    18.846571    14.337846   0.36804297   0.36804012    0.3173505   0.31733555    291.58505     41.49527    35.978931    34.423473    90.016431    119.66323    90.107069    18.847193    14.338741    28.382387    18.848858    14.342268 
   31000    301.22983    1.2509986    2087.8339   -1154.1407   -211.49952     2073.807   -2309.2371   -77.736289    44657.537 -0.067234084   -17.036218 -0.041707817    3477.4048    1523.6188    937.66892    867.72008    28.379601    18.846571    14.337846   0.38002885   0.38002696   0.31376997   0.31363311    301.22983     41.49527    35.978931    34.423473    90.016431    119.66323    90.107069     18.84584    14.338438    28.370054     18.84219    14.339737 
   32000    296.94822    1.2509986    2099.2505   -1189.0647   -211.49952    2072.3465   -2309.8833   -2204.7467    44657.537 -0.067234084   -17.036218 -0.041707817     3525.852    1565.8501    938.18002     870.0783    28.379601    18.846571    14.337846   0.39903313   0.39903308   0.34159943   0.34147924    296.94822     41.49527    35.978931    34.423473    90.016431    119.66323    90.107069    18.846111    14.337941    28.370645    18.842887    14.341441 
   33000    298.94503    1.2509986    2114.6614   -1170.7857   -211.49952    2076.8745   -2308.5895   -278.33803    44657.537 -0.067234084   -17.036218 -0.041707817    3517.1622    1544.4921    923.57017    893.66482    28.379601    18.846571    14.337846   0.37431723   0.37431398   0.31407152   0.31404402    298.94503     41.49527    35.978931    34.423473    90.016431    119.66323    90.107069    18.847796     14.33759    28.378954    18.850347    14.334603 
   34000    297.51708    1.2509986    2130.6911    -1144.693   -211.49952    2086.1537   -2308.9132    754.38926    44657.537 -0.067234084   -17.036218 -0.041707817    3498.1436    1546.9876    914.96821    877.45061    28.379601    18.846571    14.337846   0.39298792   0.39298408   0.32829242   0.32813546    297.51708     41.49527    35.978931    34.423473    90.016431    119.66323    90.107069    18.844402    14.337728    28.370356    18.843138     14.33349 
   35000    300.50218    1.2509986    2197.0712   -1184.5159   -211.49952    2078.6164   -2309.5368   -939.48302    44657.537 -0.067234084   -17.036218 -0.041707817    3612.5075     1604.335    954.50656    898.62433    28.379601    18.846571    14.337846     0.370363   0.37036244   0.32189665   0.32185516    300.50218     41.49527    35.978931    34.423473    90.016431    119.66323    90.107069    18.846645    14.338292    28.385984    18.848933    14.339224 
   36000    299.60223    1.2509986    2185.2369   -1137.0281   -211.49952    2079.0767   -2309.0744    1058.3544    44657.537 -0.067234084   -17.036218 -0.041707817    3552.2627    1619.6924    935.36242    849.56579    28.379601    18.846571    14.337846   0.38583157   0.38582534   0.32268118   0.32267414    299.60223     41.49527    35.978931    34.423473    90.016431    119.66323    90.107069    18.845819    14.337569    28.378189    18.847139    14.338352 
   37000     296.5983    1.2509986    2199.5241   -1169.8147   -211.49952    2073.4592    -2309.795   -104.94729    44657.537 -0.067234084   -17.036218 -0.041707817    3605.6746    1610.1293    954.96726     884.3887    28.379601    18.846571    14.337846   0.36113545    0.3611315   0.29884097    0.2987271     296.5983     41.49527    35.978931    34.423473    90.016431    119.66323    90.107069    18.846634    14.336383     28.37959    18.840971    14.332624 
   38000    299.75096    1.2509986    2077.8407   -1167.4262   -211.49952    2075.9043   -2309.4506   -395.58039    44657.537 -0.067234084   -17.036218 -0.041707817    3478.8132    1552.3259    919.76576    857.37765    28.379601    18.846571    14.337846   0.36377178   0.36376838   0.29997228    0.2999628    299.75096     41.49527    35.978931    34.423473    90.016431    119.66323    90.107069    18.846971    14.338083    28.381906    18.849525    14.337714 
   39000    298.25848    1.2509986    2211.8107   -1180.9096   -211.49952    2079.1637   -2309.4674   -4.9932628    44657.537 -0.067234084   -17.036218 -0.041707817    3623.0239    1646.4213    936.52388    883.09293    28.379601    18.846571    14.337846    0.3885738   0.38857129   0.32819911    0.3279258    298.25848     41.49527    35.978931    34.423473    90.016431    119.66323    90.107069    18.847021    14.336668    28.384756    18.847629    14.324006 
   40000    301.60773    1.2509986    2086.2351   -1163.0126   -211.49952    2076.3493   -2309.4405    -142.0517    44657.537 -0.067234084   -17.036218 -0.041707817     3482.339    1544.0333    925.74945    868.32513    28.379601    18.846571    14.337846   0.35770268   0.35770253   0.29172148    0.2916448    301.60773     41.49527    35.978931    34.423473    90.016431    119.66323    90.107069    18.846263    14.338118    28.380317    18.841381    14.343865 
   41000    302.94454    1.2509986    2089.9416   -1192.2602   -211.49952    2081.9758   -2308.2963   -891.59329    44657.537 -0.067234084   -17.036218 -0.041707817    3508.5223     1577.499     925.8156    858.45737    28.379601    18.846571    14.337846   0.36858778   0.36858637   0.32091285   0.32086363    302.94454     41.49527    35.978931    34.423473    90.016431    119.66323    90.107069    18.845816    14.337855    28.382845    18.844054    14.335921 
   42000    295.03418    1.2509986    2072.2446   -1178.8866   -211.49952    2072.5128   -2309.5589   -1128.5562    44657.537 -0.067234084   -17.036218 -0.041707817    3488.1772    1557.6259    914.24982    865.97377    28.379601    18.846571    14.337846   0.36228921   0.36228752   0.30677461   0.30665745    295.03418     41.49527    35.978931    34.423473    90.016431    119.66323    90.107069    18.846308    14.336464    28.387246    18.845771    14.332745 
   43000    294.35565    1.2509986     2156.182   -1139.1153   -211.49952    2076.7716    -2309.651    1183.3459    44657.537 -0.067234084   -17.036218 -0.041707817    3528.1767    1540.1062    969.56183    870.19694    28.379601    18.846571    14.337846   0.36375695   0.36375583   0.31442966   0.31437254    294.35565     41.49527    35.978931    34.423473    90.016431    119.66323    90.107069    18.846381    14.337304    28.372507    18.849244    14.336925 
   44000    300.03844    1.2509986    2134.2016   -1164.6365   -211.49952    2076.5072   -2309.2019   -574.27785    44657.537 -0.067234084   -17.036218 -0.041707817    3531.5329    1545.8146    942.35957    890.51582    28.379601    18.846571    14.337846   0.35963088   0.35962433   0.30438283   0.30419072    300.03844     41.49527    35.978931    34.423473    90.016431    119.66323    90.107069    18.846591    14.337505    28.388635    18.845628    14.329727 
   45000    295.33022    1.2509986     2135.728    -1171.486   -211.49952    2083.2035   -2308.8059    555.44595    44657.537 -0.067234084   -17.036218 -0.041707817    3532.8165    1566.8393    920.26306     893.5208    28.379601    18.846571    14.337846    0.3739279   0.37392186   0.31783279   0.31750155    295.33022     41.49527    35.978931    34.423473    90.016431    119.66323    90.107069    18.847542    14.335713    28.380481     18.84792    14.321494 
   46000    299.33794    1.2509986    2129.2477    -1182.057   -211.49952    2072.5628   -2309.7365    465.05892    44657.537 -0.067234084   -17.036218 -0.041707817    3548.4784    1605.4171    933.60804    863.09656    28.379601    18.846571    14.337846   0.35144332   0.35143692   0.29756194   0.29720001    299.33794     41.49527    35.978931    34.423473    90.016431    119.66323    90.107069     18.84771    14.336499    28.389819    18.848183    14.323641 
   47000     295.8453    1.2509986    2165.1344   -1176.4267   -211.49952         2076   -2309.0848    1217.4283    44657.537 -0.067234084   -17.036218 -0.041707817    3574.6459    1595.4048    942.73154    887.33689    28.379601    18.846571    14.337846   0.33246326    0.3324625   0.28068414   0.28063703     295.8453     41.49527    35.978931    34.423473    90.016431    119.66323    90.107069    18.846167    14.338224    28.376316    18.843522    14.337097 
   48000    296.53158    1.2509986    2132.7789   -1197.7606   -211.49952    2075.0629   -2310.0377    133.48316    44657.537 -0.067234084   -17.036218 -0.041707817    3565.5142     1595.791    954.22896    863.31443    28.379601    18.846571    14.337846   0.32707984   0.32706487    0.2900051   0.28988421    296.53158     41.49527    35.978931    34.423473    90.016431    119.66323    90.107069     18.84613    14.339415    28.387817    18.843614    14.344488 
   49000     295.2429    1.2509986    2104.9258   -1184.9693   -211.49952    2072.7244   -2309.8215   -511.58905    44657.537 -0.067234084   -17.036218 -0.041707817    3526.9922     1556.367    939.00815    883.69136    28.379601    18.846571    14.337846   0.32394033   0.32393012   0.28268768    0.2826587     295.2429     41.49527    35.978931    34.423473    90.016431    119.66323    90.107069    18.847834    14.338868    28.383425    18.845738     14.34145 
   50000    295.34431    1.2509986    2112.1693   -1177.0425   -211.49952    2078.2337   -2309.3305    246.45333    44657.537 -0.067234084   -17.036218 -0.041707817    3520.3085    1566.8531    928.03783    874.31749    28.379601    18.846571    14.337846    0.3143648   0.31436127   0.27476568   0.27468347    295.34431     41.49527    35.978931    34.423473    90.016431    119.66323    90.107069    18.846762    14.337292    28.374744    18.844651    14.333311 
   51000    298.83944    1.2509986    2156.4362   -1161.6226   -211.49952    2080.3365   -2309.7066    765.53648    44657.537 -0.067234084   -17.036218 -0.041707817    3547.4289    1571.4353    937.88934    881.62696    28.379601    18.846571    14.337846   0.35179291   0.35179163   0.29887221   0.29877168    298.83944     41.49527    35.978931    34.423473    90.016431    119.66323    90.107069    18.845505    14.336844    28.386528    18.843144    14.335456 
   52000    298.83796    1.2509986    2126.9756   -1212.9091   -211.49952    2079.7167   -2309.6312   -2338.0763    44657.537 -0.067234084   -17.036218 -0.041707817    3569.7993    1599.1409    931.77725    882.05749    28.379601    18.846571    14.337846   0.37422769   0.37422732   0.30875802   0.30867887    298.83796     41.49527    35.978931    34.423473    90.016431    119.66323    90.107069    18.846563    14.337284    28.386551    18.844939    14.335948 
   53000    303.33429    1.2509986    2185.6123   -1172.3537   -211.49952    2075.4085   -2309.2009   -526.94678    44657.537 -0.067234084   -17.036218 -0.041707817    3591.7584    1601.5613    945.55523    893.04916    28.379601    18.846571    14.337846   0.37436899   0.37436547   0.32420131   0.32411515    303.33429     41.49527    35.978931    34.423473    90.016431    119.66323    90.107069     18.84538    14.337054    28.373571    18.843863    14.334758 
   54000    297.42281    1.2509986    2065.4364   -1198.3291   -211.49952    2077.4723   -2309.6584   -1663.3429    44657.537 -0.067234084   -17.036218 -0.041707817    3495.9516    1566.4966    928.45054     852.8106    28.379601    18.846571    14.337846   0.36247245   0.36246027   0.30214146   0.30213313    297.42281     41.49527    35.978931    34.423473    90.016431    119.66323    90.107069    18.848158    14.339387    28.378406    18.850383    14.341903 
   55000    293.27054    1.2509986    2093.8822   -1178.5089   -211.49952    2076.6569   -2309.7463     556.0653    44657.537 -0.067234084   -17.036218 -0.041707817    3505.4805    1543.4914    937.31231    876.59958    28.379601    18.846571    14.337846   0.35590216   0.35589679   0.30305481   0.30298913    293.27054     41.49527    35.978931    34.423473    90.016431    119.66323    90.107069    18.845513    14.338386    28.385224    18.843724    14.337274 
   56000    295.21632    1.2509986    2149.6989   -1148.5211   -211.49952    2069.4375   -2309.9558   -90.260453    44657.537 -0.067234084   -17.036218 -0.041707817    3538.7383    1566.3529    938.19915    880.58812    28.379601    18.846571    14.337846   0.37055975   0.37055403   0.32421451   0.32419024    295.21632     41.49527    35.978931    34.423473    90.016431    119.66323    90.107069     18.84727    14.338805    28.384232    18.847479    14.339386 
   57000    298.92964    1.2509986    2167.4843    -1174.236   -211.49952    2079.0284   -2308.7893   -987.00837    44657.537 -0.067234084   -17.036218 -0.041707817    3571.4812    1607.3417    959.22898    860.66402    28.379601    18.846571    14.337846   0.37609792   0.37609476   0.31269295   0.31258483    298.92964     41.49527    35.978931    34.423473    90.016431    119.66323    90.107069    18.846044    14.338493    28.371673    18.844348    14.344559 
   58000    294.02357    1.2509986    2125.8558   -1148.0706   -211.49952    2076.7756   -2309.2421    531.24506    44657.537 -0.067234084   -17.036218 -0.041707817    3506.3929    1527.8913    941.99008    883.50142    28.379601    18.846571    14.337846     0.361382   0.36138011   0.31137991   0.31131014    294.02357     41.49527    35.978931    34.423473    90.016431    119.66323    90.107069    18.846658    14.338109    28.372732     18.84424    14.340287 
   59000    298.69857    1.2509986     2181.984   -1143.9437   -211.49952    2073.8757    -2309.423    -218.2806    44657.537 -0.067234084   -17.036218 -0.041707817     3561.475    1574.6399    928.01796    895.34964    28.379601    18.846571    14.337846   0.33904745   0.33904242   0.28124113   0.28111034    298.69857     41.49527    35.978931    34.423473    90.016431    119.66323    90.107069    18.844955     14.33833    28.371593    18.840836    14.340359 
   60000    297.09122    1.2509986    2120.5182   -1188.1645   -211.49952    2077.1125   -2309.3284   -1037.9071    44657.537 -0.067234084   -17.036218 -0.041707817    3540.8987    1595.2402    921.09415    870.59804    28.379601    18.846571    14.337846   0.33084234   0.33084061   0.28500325   0.28478814    297.09122     41.49527    35.978931    34.423473    90.016431    119.66323    90.107069    18.847249    14.337273     28.39327    18.843815    14.339806 
   61000    297.16536    1.2509986    2191.7982    -1187.996   -211.49952    2076.3083   -2309.6258   -1312.4972    44657.537 -0.067234084   -17.036218 -0.041707817    3613.1117    1574.1372    954.00063    925.07165    28.379601    18.846571    14.337846   0.36049737   0.36049529   0.30762119   0.30756163    297.16536     41.49527    35.978931    34.423473    90.016431    119.66323    90.107069      18.8468     14.33644      28.3796     18.84785    14.332009 
   62000    300.01329    1.2509986    2091.9371   -1189.8157   -211.49952    2077.1893   -2309.3609    225.20413    44657.537 -0.067234084   -17.036218 -0.041707817    3513.9244    1539.0443    953.10994    868.90332    28.379601    18.846571    14.337846   0.32403985   0.32403566     0.272668   0.27265688    300.01329     41.49527    35.978931    34.423473    90.016431    119.66323    90.107069    18.847199    14.338581    28.382354    18.850817     14.33985 
   63000     299.9019    1.2509986    2162.2503   -1148.5813   -211.49952    2075.7745   -2308.9412     841.9168    44657.537 -0.067234084   -17.036218 -0.041707817    3543.9983    1590.6837    929.51621     872.6367    28.379601    18.846571    14.337846   0.32424982   0.32424869   0.26091942   0.26084861     299.9019     41.49527    35.978931    34.423473    90.016431    119.66323    90.107069    18.847146    14.338122    28.385389    18.844639    14.343842 
   64000    296.84887    1.2509986    2116.9478   -1175.0851   -211.49952    2077.2453   -2308.7897   -1624.1016    44657.537 -0.067234084   -17.036218 -0.041707817    3523.5772    1579.9886    921.13833    874.98354    28.379601    18.846571    14.337846    0.3472308   0.34722544   0.29526792   0.29525701    296.84887     41.49527    35.978931    34.423473    90.016431    119.66323    90.107069    18.846038    14.338608    28.377999    18.851862    14.340238 
   65000    297.01015    1.2509986    2184.7873   -1152.6126   -211.49952    2075.5181    -2309.302    1679.8328    44657.537 -0.067234084   -17.036218 -0.041707817    3571.1837    1545.4046    953.37716    913.20956    28.379601    18.846571    14.337846   0.36083749   0.36083456   0.30814775   0.30813644    297.01015     41.49527    35.978931    34.423473    90.016431    119.66323    90.107069    18.846738    14.337937    28.376461    18.848048    14.338747 
   66000    299.16222    1.2509986    2084.3394   -1161.7679   -211.49952    2076.4748   -2309.3577    2214.9636    44657.537 -0.067234084   -17.036218 -0.041707817    3478.9902    1519.7105    957.87753    856.82275    28.379601    18.846571    14.337846   0.37360016   0.37358392   0.31165778   0.31162433    299.16222     41.49527    35.978931    34.423473    90.016431    119.66323    90.107069    18.847815    14.338036    28.384175    18.850626    14.336553 
   67000    302.70361    1.2509986    2180.9153   -1123.1931   -211.49952     2071.811   -2309.1798    2652.4648    44657.537 -0.067234084   -17.036218 -0.041707817    3541.4771    1516.3541    977.10869    892.96644    28.379601    18.846571    14.337846   0.38414815   0.38414204   0.32649519   0.32626721    302.70361     41.49527    35.978931    34.423473    90.016431    119.66323    90.107069    18.844135    14.337067    28.389833    18.840551    14.332514 
   68000    294.23893    1.2509986     2104.577   -1181.3278   -211.49952      2078.29   -2309.4041   -1584.0779    44657.537 -0.067234084   -17.036218 -0.041707817    3517.0189    1555.6089    913.49573    896.22004    28.379601    18.846571    14.337846   0.38649323   0.38649208   0.34651342   0.34639361    294.23893     41.49527    35.978931    34.423473    90.016431    119.66323    90.107069    18.846549    14.338749    28.382824    18.846975    14.349884 
   69000    300.35793    1.2509986    2097.2828   -1190.0462   -211.49952    2075.2416    -2309.094    485.16041    44657.537 -0.067234084   -17.036218 -0.041707817    3521.1813    1580.1487    951.01939    844.48212    28.379601    18.846571    14.337846   0.36673773   0.36672365   0.30375145   0.30365419    300.35793     41.49527    35.978931    34.423473    90.016431    119.66323    90.107069    18.847661    14.338467    28.388049    18.848489    14.334653 
   70000    299.48451    1.2509986    2067.6652   -1205.7491   -211.49952    2073.5835    -2309.607   -1668.1559    44657.537 -0.067234084   -17.036218 -0.041707817    3509.4379    1602.5124    910.65075    846.48779    28.379601    18.846571    14.337846   0.34622634   0.34622351   0.29227599   0.29203643    299.48451     41.49527    35.978931    34.423473    90.016431    119.66323    90.107069    18.846459    14.336755     28.39262     18.84547     14.33213 
   71000    299.20588    1.2509986    2187.9185   -1176.5067   -211.49952    2072.6327    -2309.305   -951.43822    44657.537 -0.067234084   -17.036218 -0.041707817    3601.0975     1641.273    914.41746    889.98471    28.379601    18.846571    14.337846   0.35894065   0.35893763   0.31128738    0.3111603    299.20588     41.49527    35.978931    34.423473    90.016431    119.66323    90.107069    18.846241    14.337056     28.37296    18.846306    14.330906 
   72000    292.91219    1.2509986    2204.7687   -1194.0491   -211.49952     2079.418   -2309.3442   -1613.7435    44657.537 -0.067234084   -17.036218 -0.041707817     3628.744    1611.5427    974.22144    891.48181    28.379601    18.846571    14.337846    0.3678178   0.36780617   0.31795983   0.31789869    292.91219     41.49527    35.978931    34.423473    90.016431    119.66323    90.107069    18.846608    14.336847    28.372765    18.845138     14.33965 
   73000    291.87345    1.2509986    2116.5897   -1171.2175   -211.49952    2077.6676   -2309.0145   -1072.7682    44657.537 -0.067234084   -17.036218 -0.041707817    3519.1542    1569.7739    952.59963    851.35896    28.379601    18.846571    14.337846   0.37819654   0.37819415   0.32237779   0.32235625    291.87345     41.49527    35.978931    34.423473    90.016431    119.66323    90.107069    18.846373    14.337251    28.380986    18.844616    14.340055 
   74000    299.37355    1.2509986    2163.1312   -1177.4317   -211.49952    2078.6687   -2308.8184   -315.81646    44657.537 -0.067234084   -17.036218 -0.041707817    3570.7127    1583.2612    922.51266    907.00545    28.379601    18.846571    14.337846   0.35676605   0.35675836   0.28989697   0.28974847    299.37355     41.49527    35.978931    34.423473    90.016431    119.66323    90.107069    18.847207    14.337555    28.368136    18.848089    14.335489 
   75000    295.65717    1.2509986     2111.666   -1198.7335   -211.49952    2076.3887   -2309.5981   -1329.1799    44657.537 -0.067234084   -17.036218 -0.041707817     3543.609    1567.8375    939.47588       887.12    28.379601    18.846571    14.337846   0.37428296   0.37428016   0.31309268   0.31306298    295.65717     41.49527    35.978931    34.423473    90.016431    119.66323    90.107069    18.846173    14.339405    28.377351    18.846206    14.343757 
   76000    299.15188    1.2509986    2148.2731   -1189.0481   -211.49952      2077.79   -2309.3991   -1003.4799    44657.537 -0.067234084   -17.036218 -0.041707817    3568.9302    1617.8873    927.50232    875.68211    28.379601    18.846571    14.337846   0.38144762   0.38144474   0.31750449   0.31746413    299.15188     41.49527    35.978931    34.423473    90.016431    119.66323    90.107069     18.84679    14.338682    28.384398    18.845105     14.34092 
   77000    292.81062    1.2509986    2225.2611   -1171.8526   -211.49952    2075.5033   -2309.7344   -1049.9258    44657.537 -0.067234084   -17.036218 -0.041707817    3631.3447    1582.3532    972.53624    917.07113    28.379601    18.846571    14.337846   0.39357417    0.3935635   0.33544806   0.33542533    292.81062     41.49527    35.978931    34.423473    90.016431    119.66323    90.107069    18.847397    14.336664     28.37725    18.846963    14.336003 
   78000    295.41161    1.2509986    2113.0283   -1136.3926   -211.49952    2078.0067   -2309.4517    857.47227    44657.537 -0.067234084   -17.036218 -0.041707817    3480.8659    1526.7672    945.72317    860.53304    28.379601    18.846571    14.337846   0.39713005    0.3971227   0.33185941   0.33175786    295.41161     41.49527    35.978931    34.423473    90.016431    119.66323    90.107069    18.846145    14.338144    28.386769    18.842845    14.336248 
   79000    295.11372    1.2509986    2125.5654   -1196.7531   -211.49952    2073.3636   -2310.0206   -1270.1274    44657.537 -0.067234084   -17.036218 -0.041707817    3558.9756    1588.1219    949.61839    872.81794    28.379601    18.846571    14.337846   0.39669318   0.39668742     0.335211   0.33504231    295.11372     41.49527    35.978931    34.423473    90.016431    119.66323    90.107069    18.846005     14.33757    28.371102    18.839528    14.336947 
   80000      303.344    1.2509986    2110.7112   -1182.6077   -211.49952    2075.9957    -2308.879   -2174.2034    44657.537 -0.067234084   -17.036218 -0.041707817    3526.2021    1586.3224    952.77285    840.78783    28.379601    18.846571    14.337846   0.39455367   0.39454567   0.33796077   0.33781463      303.344     41.49527    35.978931    34.423473    90.016431    119.66323    90.107069    18.846367    14.337109    28.390339    18.848163    14.334237 
   81000    302.07625    1.2509986     2055.727   -1192.6057   -211.49952    2078.7742   -2309.9853     498.6141    44657.537 -0.067234084   -17.036218 -0.041707817    3479.5438    1485.5776    937.64948    906.98153    28.379601    18.846571    14.337846    0.3752161   0.37521335   0.31702597    0.3168759    302.07625     41.49527    35.978931    34.423473    90.016431    119.66323    90.107069    18.845719    14.337701    28.383446     18.84255    14.329986 
   82000    296.51931    1.2509986    2099.5269   -1213.9557   -211.49952    2078.0413   -2309.2526    205.33861    44657.537 -0.067234084   -17.036218 -0.041707817    3544.6939    1581.2899    951.19183    863.56495    28.379601    18.846571    14.337846   0.37216383   0.37215158   0.31256877   0.31244579    296.51931     41.49527    35.978931    34.423473    90.016431    119.66323    90.107069    18.848812    14.339974    28.374931    18.852626    14.349047 
   83000    297.74057    1.2509986    2128.3136   -1188.4381   -211.49952    2080.3176   -2309.1561   -1410.9522    44657.537 -0.067234084   -17.036218 -0.041707817    3545.5902    1609.7099    913.41622     874.6621    28.379601    18.846571    14.337846   0.38729815   0.38729698   0.33220933   0.33217334    297.74057     41.49527    35.978931    34.423473    90.016431    119.66323    90.107069    18.846992    14.337216    28.383828    18.846788    14.336062 
   84000    302.82691    1.2509986    2122.6547   -1171.4401   -211.49952    2077.6529   -2309.3201    487.24152    44657.537 -0.067234084   -17.036218 -0.041707817     3525.762    1554.3005    963.12898    855.87085    28.379601    18.846571    14.337846    0.4286688   0.42866766   0.37612383   0.37605306    302.82691     41.49527    35.978931    34.423473    90.016431    119.66323    90.107069    18.846969    14.338204    28.381715    18.853025    14.346709 
   85000    294.57066    1.2509986    2139.8668   -1180.0988   -211.49952    2073.9165   -2309.3794   -569.24975    44657.537 -0.067234084   -17.036218 -0.041707817    3555.4284    1596.2433    920.98076    882.67629    28.379601    18.846571    14.337846   0.42370971   0.42370868   0.34784353   0.34771444    294.57066     41.49527    35.978931    34.423473    90.016431    119.66323    90.107069    18.845939    14.336758    28.384076    18.849799    14.329244 
   86000    302.80016    1.2509986    2184.9441   -1176.2189   -211.49952    2078.8613    -2308.849   -421.40679    44657.537 -0.067234084   -17.036218 -0.041707817    3591.1507    1553.4841    945.00673    934.15632    28.379601    18.846571    14.337846   0.39328403   0.39327709   0.31449349   0.31444448    302.80016     41.49527    35.978931    34.423473    90.016431    119.66323    90.107069    18.845807     14.33839    28.386054    18.846508    14.340354 
   87000    292.57614    1.2509986    2091.0545   -1172.3956   -211.49952    2075.6682   -2309.8606    558.83588    44657.537 -0.067234084   -17.036218 -0.041707817    3497.6425    1582.4257     934.2602    837.36599    28.379601    18.846571    14.337846     0.383828   0.38382746   0.32208094    0.3220079    292.57614     41.49527    35.978931    34.423473    90.016431    119.66323    90.107069    18.846681    14.337579    28.387713    18.846604    14.338793 
   88000    297.92296    1.2509986    2115.8328   -1193.0108   -211.49952    2074.8317   -2309.5325    74.661004    44657.537 -0.067234084   -17.036218 -0.041707817    3543.5445    1554.7636    947.59961    889.02094    28.379601    18.846571    14.337846   0.38128949   0.38128268   0.32220787    0.3220956    297.92296     41.49527    35.978931    34.423473    90.016431    119.66323    90.107069    18.847062    14.340194    28.377173    18.850563    14.349845 
   89000    292.71863    1.2509986    2122.4161    -1185.236   -211.49952    2072.4611   -2309.5282   -494.61522    44657.537 -0.067234084   -17.036218 -0.041707817    3544.7191    1573.7735    946.82129    871.23119    28.379601    18.846571    14.337846   0.37216218   0.37215841   0.32301405    0.3229189    292.71863     41.49527    35.978931    34.423473    90.016431    119.66323    90.107069    18.844365    14.338309    28.377403     18.83982    14.337189 
   90000    299.66616    1.2509986    2082.4047   -1162.9764   -211.49952    2073.8923   -2309.1261    510.95719    44657.537 -0.067234084   -17.036218 -0.041707817    3480.6149     1546.977    931.47775     853.0156    28.379601    18.846571    14.337846    0.3539159   0.35389172   0.29871503   0.29857724    299.66616     41.49527    35.978931    34.423473    90.016431    119.66323    90.107069    18.846698    14.335711    28.370017    18.845764    14.333619 
   91000    304.17807    1.2509986    2125.3424    -1183.708   -211.49952    2083.0234   -2309.2453   -291.69288    44657.537 -0.067234084   -17.036218 -0.041707817    3535.2723    1601.6981    931.77438    855.08229    28.379601    18.846571    14.337846   0.37544531   0.37543846   0.31798997   0.31798024    304.17807     41.49527    35.978931    34.423473    90.016431    119.66323    90.107069    18.846109    14.337932    28.381459    18.848079    14.337351 
   92000    297.32873    1.2509986     2130.414   -1159.2009   -211.49952    2076.7335   -2308.7715     1576.809    44657.537 -0.067234084   -17.036218 -0.041707817    3521.6529    1549.6294    971.28458    851.82833    28.379601    18.846571    14.337846   0.37293614   0.37293447   0.31123453   0.31122417    297.32873     41.49527    35.978931    34.423473    90.016431    119.66323    90.107069      18.8457    14.337077    28.379663     18.84587     14.34033 
   93000    295.33293    1.2509986    2048.5658   -1154.0165   -211.49952    2071.2871   -2309.5523    932.84292    44657.537 -0.067234084   -17.036218 -0.041707817    3440.8475    1476.3588    943.70804    868.38806    28.379601    18.846571    14.337846   0.40003226   0.40002536   0.33755785   0.33749537    295.33293     41.49527    35.978931    34.423473    90.016431    119.66323    90.107069    18.848032    14.335952    28.379608    18.850575    14.331889 
   94000    299.75661    1.2509986    2159.4913   -1197.9235   -211.49952    2078.1036   -2309.1753   -1388.9447    44657.537 -0.067234084   -17.036218 -0.041707817    3588.4866    1594.9941    960.71822    881.81053    28.379601    18.846571    14.337846   0.36752224   0.36751945   0.31388317   0.31377445    299.75661     41.49527    35.978931    34.423473    90.016431    119.66323    90.107069    18.845312    14.336777    28.384145    18.842758    14.332671 
   95000    300.74652    1.2509986    2186.8769   -1174.3492   -211.49952    2072.9132   -2309.6575    313.61131    44657.537 -0.067234084   -17.036218 -0.041707817    3597.9705    1629.6738    931.11164    883.17688    28.379601    18.846571    14.337846   0.36318717   0.36318541    0.3121409   0.31189872    300.74652     41.49527    35.978931    34.423473    90.016431    119.66323    90.107069    18.845505    14.336787    28.392872    18.844214    14.333169 
   96000    296.72146    1.2509986    2280.6007   -1150.5545   -211.49952    2082.0911   -2308.9224    90.698341    44657.537 -0.067234084   -17.036218 -0.041707817    3657.9865    1647.1968    956.78731    897.54669    28.379601    18.846571    14.337846    0.3741658   0.37415288   0.30999233   0.30995475    296.72146     41.49527    35.978931    34.423473    90.016431    119.66323    90.107069    18.848537    14.336505     28.37434    18.850709    14.342375 
   97000    301.78879    1.2509986    2129.6889   -1171.5134   -211.49952    2076.2149   -2308.7805    517.08194    44657.537 -0.067234084   -17.036218 -0.041707817    3533.7679    1572.2273    937.69512    869.79486    28.379601    18.846571    14.337846    0.3794749   0.37947093   0.31911372   0.31898301    301.78879     41.49527    35.978931    34.423473    90.016431    119.66323    90.107069    18.847408    14.336243    28.381226    18.849976    14.328369 
   98000    298.65948    1.2509986     2140.604   -1127.8953   -211.49952    2070.6111    -2309.487    990.85364    44657.537 -0.067234084   -17.036218 -0.041707817    3507.3751    1602.0633    913.83484    843.86089    28.379601    18.846571    14.337846   0.39210683   0.39210502   0.33703812   0.33702164    298.65948     41.49527    35.978931    34.423473    90.016431    119.66323    90.107069    18.847033    14.337439    28.380956    18.845203    14.339769 
   99000    306.23481    1.2509986     2160.431    -1142.671   -211.49952    2075.5857   -2309.8261    2675.0334    44657.537 -0.067234084   -17.036218 -0.041707817    3537.3425    1516.7348    959.67845    906.46392    28.379601    18.846571    14.337846   0.38809447   0.38808921   0.32773292   0.32769381    306.23481     41.49527    35.978931    34.423473    90.016431    119.66323    90.107069    18.845613    14.338389    28.376377    18.843687    14.338839 
  100000    304.62764    1.2509986    2150.5927    -1162.918   -211.49952    2079.1351   -2309.0167    -877.1693    44657.537 -0.067234084   -17.036218 -0.041707817    3543.3922    1605.9647     948.5649    841.49334    28.379601    18.846571    14.337846   0.37392653   0.37392461   0.32038248   0.32034676    304.62764     41.49527    35.978931    34.423473    90.016431    119.66323    90.107069    18.846646    14.338455    28.380277    18.844876    14.335385 
  101000    297.64261    1.2509986     2148.689   -1163.7432   -211.49952    2074.2321   -2309.2592    305.80522    44657.537 -0.067234084   -17.036218 -0.041707817    3547.4593     1600.958    928.50354    864.02826    28.379601    18.846571    14.337846   0.39320134   0.39320118   0.33247191   0.33242307    297.64261     41.49527    35.978931    34.423473    90.016431    119.66323    90.107069    18.846536    14.337723     28.38068      18.8423    14.338051 
  102000    296.52337    1.2509986    2153.6704   -1175.5791   -211.49952    2079.1651   -2309.3769   -439.22504    44657.537 -0.067234084   -17.036218 -0.041707817    3559.4613    1569.1731    944.94413    891.14405    28.379601    18.846571    14.337846   0.41639865   0.41639661   0.35929562   0.35913421    296.52337     41.49527    35.978931    34.423473    90.016431    119.66323    90.107069    18.845223    14.338575    28.375796    18.837533    14.343572 
  103000     292.4201    1.2509986    2130.5216   -1164.1328   -211.49952    2072.1362   -2309.3146    776.98165    44657.537 -0.067234084   -17.036218 -0.041707817    3531.8329    1554.4959     941.3812    881.62448    28.379601    18.846571    14.337846   0.42482326   0.42481856   0.35900445   0.35896922     292.4201     41.49527    35.978931    34.423473    90.016431    119.66323    90.107069    18.847937    14.336605     28.37952     18.85035    14.333855 
  104000    291.96292    1.2509986    2123.4766   -1196.4953   -211.49952    2078.8571   -2309.5452   -785.08963    44657.537 -0.067234084   -17.036218 -0.041707817    3550.6601    1567.9867     939.4013    883.64033    28.379601    18.846571    14.337846   0.42172284   0.42172183   0.37591791   0.37588932    291.96292     41.49527    35.978931    34.423473    90.016431    119.66323    90.107069    18.846238    14.337997    28.382856    18.847834    14.335599 
  105000    304.41565    1.2509986    2143.3459   -1176.4068   -211.49952    2072.7379   -2309.1498   -517.11556    44657.537 -0.067234084   -17.036218 -0.041707817    3556.1647    1554.9089    984.49573      865.004    28.379601    18.846571    14.337846   0.42978808   0.42978732   0.37069248   0.37064003    304.41565     41.49527    35.978931    34.423473    90.016431    119.66323    90.107069    18.847042    14.337607    28.385616    18.852145    14.337207 
  106000    296.34791    1.2509986    2086.6279   -1213.0056   -211.49952    2076.1419     -2309.73   -1887.5594    44657.537 -0.067234084   -17.036218 -0.041707817    3533.2216    1569.2011    943.08673    874.67845    28.379601    18.846571    14.337846   0.40764615   0.40763985   0.35999643   0.35990154    296.34791     41.49527    35.978931    34.423473    90.016431    119.66323    90.107069    18.845076    14.337012    28.376801    18.840267     14.33635 
  107000    304.94501    1.2509986    2098.7405   -1187.1834   -211.49952    2072.9939   -2309.5943   -1154.5397    44657.537 -0.067234084   -17.036218 -0.041707817    3522.5243    1544.1354    912.37079    905.20697    28.379601    18.846571    14.337846   0.40374911   0.40374742   0.34598911   0.34595713    304.94501     41.49527    35.978931    34.423473    90.016431    119.66323    90.107069     18.84697    14.338734    28.379608    18.844989    14.343611 
  108000    304.00534    1.2509986    2013.2267   -1195.5773   -211.49952    2073.1607   -2309.7306   -824.15315    44657.537 -0.067234084   -17.036218 -0.041707817     3445.374    1541.1334     897.1537    857.87764    28.379601    18.846571    14.337846   0.42265552   0.42265325    0.3640729     0.363953    304.00534     41.49527    35.978931    34.423473    90.016431    119.66323    90.107069     18.84568    14.339044    28.383785    18.850557     14.34962 
  109000    301.44424    1.2509986    2110.1357   -1201.4386   -211.49952    2075.4467   -2309.3736   -639.49133    44657.537 -0.067234084   -17.036218 -0.041707817    3545.5012    1575.4165    972.83837    845.11504    28.379601    18.846571    14.337846   0.41771822   0.41771753   0.35368572   0.35359647    301.44424     41.49527    35.978931    34.423473    90.016431    119.66323    90.107069    18.846717      14.3371    28.371853    18.847467    14.334393 
  110000    295.61396    1.2509986    2095.4632   -1196.6105   -211.49952    2081.3203   -2308.8124   -1834.8077    44657.537 -0.067234084   -17.036218 -0.041707817    3519.5658     1570.669    931.40497    870.38739    28.379601    18.846571    14.337846   0.43278761   0.43277892      0.37572   0.37557544    295.61396     41.49527    35.978931    34.423473    90.016431    119.66323    90.107069    18.845623    14.335851     28.37082    18.844364     14.33281 
  111000    298.57863    1.2509986    2115.6591   -1187.8769   -211.49952     2077.239   -2309.0644   -727.80185    44657.537 -0.067234084   -17.036218 -0.041707817    3535.3615    1563.0355    953.00805    867.17643    28.379601    18.846571    14.337846   0.41936081   0.41935518   0.37528667   0.37527105    298.57863     41.49527    35.978931    34.423473    90.016431    119.66323    90.107069    18.847898     14.33809     28.38195    18.852159    14.339655 
  112000    296.01364    1.2509986    2130.5746   -1152.0207   -211.49952    2077.7399   -2309.3686    677.04713    44657.537 -0.067234084   -17.036218 -0.041707817     3514.224    1545.0874    945.27445     873.6641    28.379601    18.846571    14.337846   0.41192888   0.41192829   0.34865611   0.34862318    296.01364     41.49527    35.978931    34.423473    90.016431    119.66323    90.107069    18.846775    14.337557    28.375191    18.846321    14.337063 
  113000      299.408    1.2509986     2197.413   -1171.5916   -211.49952    2076.3002   -2309.8466    302.45836    44657.537 -0.067234084   -17.036218 -0.041707817     3602.551    1610.9055    960.23288    880.83112    28.379601    18.846571    14.337846   0.41238364   0.41238291   0.34961107    0.3495605      299.408     41.49527    35.978931    34.423473    90.016431    119.66323    90.107069    18.845435    14.337376    28.378589    18.845635    14.333455 
  114000    302.20701    1.2509986    2133.9459   -1181.3621   -211.49952    2076.6796   -2309.8826   -22.035899    44657.537 -0.067234084   -17.036218 -0.041707817     3548.511    1618.5964    925.23389    851.32334    28.379601    18.846571    14.337846   0.37810315   0.37810056   0.32711862   0.32710219    302.20701     41.49527    35.978931    34.423473    90.016431    119.66323    90.107069    18.846118    14.339293    28.375625    18.849489    14.338776 
  115000    293.27018    1.2509986    2074.1076   -1172.5112   -211.49952    2071.3471   -2309.7642    183.95061    44657.537 -0.067234084   -17.036218 -0.041707817    3485.0359    1562.3895    926.06016    848.99815    28.379601    18.846571    14.337846    0.3656535   0.36564596   0.31581309    0.3156675    293.27018     41.49527    35.978931    34.423473    90.016431    119.66323    90.107069    18.848227     14.33626    28.383078    18.854507    14.329489 
  116000     303.1074    1.2509986    2168.0362   -1183.1567   -211.49952    2077.6861    -2309.724   -34.730187    44657.537 -0.067234084   -17.036218 -0.041707817    3583.2307      1558.48    960.77586    912.51574    28.379601    18.846571    14.337846   0.37898168   0.37898093   0.33099968   0.33093172     303.1074     41.49527    35.978931    34.423473    90.016431    119.66323    90.107069    18.846584    14.337656    28.384757    18.842849    14.341346 
  117000    294.14098    1.2509986     2021.284   -1208.0212   -211.49952    2072.3527   -2309.7283   -2135.4814    44657.537 -0.067234084   -17.036218 -0.041707817    3466.6808    1548.6536    930.78182    838.28544    28.379601    18.846571    14.337846   0.38019915   0.38019288   0.33070834   0.33059134    294.14098     41.49527    35.978931    34.423473    90.016431    119.66323    90.107069    18.846868    14.338231    28.369205    18.850908    14.337136 
  118000    297.09742    1.2509986    2145.0419   -1201.5534   -211.49952    2079.7932   -2309.4648   -1305.9284    44657.537 -0.067234084   -17.036218 -0.041707817     3576.267      1588.99    956.57639    877.76782    28.379601    18.846571    14.337846   0.39561107   0.39561024   0.34703245   0.34702952    297.09742     41.49527    35.978931    34.423473    90.016431    119.66323    90.107069    18.847083     14.33786    28.380615    18.847724    14.339254 
  119000    299.68341    1.2509986    2269.7715    -1141.606   -211.49952    2081.5698   -2309.1275    1653.1528    44657.537 -0.067234084   -17.036218 -0.041707817    3638.9353    1586.3335    963.98485    931.13281    28.379601    18.846571    14.337846   0.40248196   0.40248153   0.34476378   0.34460171    299.68341     41.49527    35.978931    34.423473    90.016431    119.66323    90.107069    18.846761    14.337447    28.383855     18.84712    14.327805 
  120000    298.03188    1.2509986    2127.6479   -1174.0909   -211.49952    2076.4303   -2309.7253   -404.34091    44657.537 -0.067234084   -17.036218 -0.041707817    3535.0338    1579.5275     952.2785    855.21718    28.379601    18.846571    14.337846   0.40389752    0.4038957   0.35118381   0.35111893    298.03188     41.49527    35.978931    34.423473    90.016431    119.66323    90.107069    18.844908    14.337781    28.380549    18.841511    14.342398 
  121000    300.40074    1.2509986    2174.7999   -1186.6081   -211.49952    2078.6924   -2309.2585   -2021.3997    44657.537 -0.067234084   -17.036218 -0.041707817    3591.9741    1598.6332    924.64182     912.9629    28.379601    18.846571    14.337846   0.36744363   0.36743192   0.32197506   0.32177924    300.40074     41.49527    35.978931    34.423473    90.016431    119.66323    90.107069    18.846857    14.338561    28.392742     18.84497    14.342009 
  122000    296.43958    1.2509986    2191.4776   -1158.8527   -211.49952    2076.7609   -2308.7739   -383.16757    44657.537 -0.067234084   -17.036218 -0.041707817    3582.3434    1597.5049    975.23728    858.91078    28.379601    18.846571    14.337846   0.39050905   0.39050491   0.34173578   0.34143389    296.43958     41.49527    35.978931    34.423473    90.016431    119.66323    90.107069     18.84667    14.336838    28.395117     18.84638    14.332369 
  123000    298.70827    1.2509986    2166.8005   -1162.0339   -211.49952    2077.6671   -2309.4673   -77.001505    44657.537 -0.067234084   -17.036218 -0.041707817    3560.6346    1564.4504    939.35412    901.64884    28.379601    18.846571    14.337846   0.36479414   0.36479293   0.31747234   0.31737233    298.70827     41.49527    35.978931    34.423473    90.016431    119.66323    90.107069    18.846228    14.337902    28.371243    18.844761    14.336058 
  124000    303.51886    1.2509986    2125.4199   -1173.7011   -211.49952    2076.2019   -2309.2445    1194.2939    44657.537 -0.067234084   -17.036218 -0.041707817    3532.1637    1551.9213    942.46874    881.37684    28.379601    18.846571    14.337846   0.34986621   0.34986005   0.31007487   0.30982824    303.51886     41.49527    35.978931    34.423473    90.016431    119.66323    90.107069    18.845827    14.338758    28.393372    18.843233    14.344368 
  125000    297.25043    1.2509986    2143.3136   -1198.2816   -211.49952    2077.7662   -2309.5757   -910.85176    44657.537 -0.067234084   -17.036218 -0.041707817    3573.4047    1547.3443    959.04539    906.68239    28.379601    18.846571    14.337846   0.34290545   0.34290519   0.30141436   0.30133664    297.25043     41.49527    35.978931    34.423473    90.016431    119.66323    90.107069    18.846567     14.33793     28.38648    18.843614    14.338843 
  126000    297.51285    1.2509986    2156.5906   -1183.2719   -211.49952    2077.7068   -2308.9187   -307.58903    44657.537 -0.067234084   -17.036218 -0.041707817    3571.0744    1603.9951     941.1946    872.91801    28.379601    18.846571    14.337846   0.34183816   0.34183693   0.29890214   0.29886933    297.51285     41.49527    35.978931    34.423473    90.016431    119.66323    90.107069    18.847217     14.33748    28.381024    18.850484    14.334301 
  127000    298.65302    1.2509986    2156.7493   -1156.7638   -211.49952    2072.3827   -2309.7809   -567.06855    44657.537 -0.067234084   -17.036218 -0.041707817    3550.9112    1573.5598    943.35083    881.40337    28.379601    18.846571    14.337846   0.34211269    0.3421063   0.30415483   0.30404187    298.65302     41.49527    35.978931    34.423473    90.016431    119.66323    90.107069    18.845112    14.338389    28.387319    18.841786    14.338939 
  128000    294.08834    1.2509986    2147.7076   -1211.7658   -211.49952    2075.3165   -2309.4827   -1924.2766    44657.537 -0.067234084   -17.036218 -0.041707817    3593.6397    1617.4684    917.13349    896.73546    28.379601    18.846571    14.337846    0.3352378   0.33520484   0.28295843   0.28249863    294.08834     41.49527    35.978931    34.423473    90.016431    119.66323    90.107069    18.845676    14.340496    28.392849    18.840535    14.354173 
  129000    298.01992    1.2509986    2112.8355   -1206.8072   -211.49952    2079.6882   -2309.5006   -1036.3663    44657.537 -0.067234084   -17.036218 -0.041707817    3549.4551    1607.6443    908.90812    879.61035    28.379601    18.846571    14.337846   0.35994042   0.35993033   0.30960107   0.30953651    298.01992     41.49527    35.978931    34.423473    90.016431    119.66323    90.107069    18.847265     14.33697    28.371962    18.850633    14.337574 
  130000    300.46516    1.2509986    2094.1134   -1189.1194   -211.49952    2080.2731   -2308.9192    552.28774    44657.537 -0.067234084   -17.036218 -0.041707817    3511.8788    1563.5328    918.84001    880.57308    28.379601    18.846571    14.337846   0.33193466   0.33193034   0.28734568   0.28718038    300.46516     41.49527    35.978931    34.423473    90.016431    119.66323    90.107069     18.84719    14.337079    28.384059    18.848699      14.3276 
  131000    294.03639    1.2509986    2061.1361   -1170.8722   -211.49952     2065.912   -2309.3137   -731.25213    44657.537 -0.067234084   -17.036218 -0.041707817      3475.41    1555.8051    921.06674    848.81233    28.379601    18.846571    14.337846   0.38489762   0.38489316   0.34746271   0.34733689    294.03639     41.49527    35.978931    34.423473    90.016431    119.66323    90.107069    18.847584     14.33732    28.370275    18.849665    14.333374 
  132000    296.11142    1.2509986     2136.161   -1153.9858   -211.49952    2071.0769   -2309.3024    239.15753    44657.537 -0.067234084   -17.036218 -0.041707817    3528.3724    1572.5845    952.13707    856.63428    28.379601    18.846571    14.337846   0.41336079   0.41335845   0.34744305    0.3474226    296.11142     41.49527    35.978931    34.423473    90.016431    119.66323    90.107069    18.847361    14.338084     28.37596    18.851648    14.338885 
  133000    298.23526    1.2509986    2211.6479   -1171.3927   -211.49952    2072.1965   -2309.6463    83.974106    44657.537 -0.067234084   -17.036218 -0.041707817    3620.4904    1612.8397    949.02862    904.89153    28.379601    18.846571    14.337846   0.39207172   0.39207065   0.33814851   0.33813296    298.23526     41.49527    35.978931    34.423473    90.016431    119.66323    90.107069    18.846238     14.33833    28.378372    18.845478    14.340922 
  134000    297.02464    1.2509986    2080.7242   -1168.6782   -211.49952    2079.3541    -2309.453   -545.53263    44657.537 -0.067234084   -17.036218 -0.041707817    3479.5014    1517.9419     942.3893    867.58896    28.379601    18.846571    14.337846   0.40525031   0.40524573   0.34531605   0.34519733    297.02464     41.49527    35.978931    34.423473    90.016431    119.66323    90.107069    18.846276    14.337565    28.373307    18.841933    14.334204 
  135000    295.12492    1.2509986    2112.7271   -1155.5286   -211.49952    2078.6215   -2309.3164    531.20682    44657.537 -0.067234084   -17.036218 -0.041707817    3498.9506    1574.9998    896.66193     879.0493    28.379601    18.846571    14.337846   0.38348254   0.38347568   0.32951962    0.3294614    295.12492     41.49527    35.978931    34.423473    90.016431    119.66323    90.107069    18.846044    14.340208    28.381383    18.843751    14.344853 
  136000    300.73387    1.2509986    2206.6952   -1151.2763   -211.49952    2078.1687   -2308.6866   -1197.1851    44657.537 -0.067234084   -17.036218 -0.041707817    3588.4894    1571.0086    954.18157    904.72919    28.379601    18.846571    14.337846   0.39657008    0.3965696   0.34383542   0.34375557    300.73387     41.49527    35.978931    34.423473    90.016431    119.66323    90.107069    18.846433    14.337092    28.374327     18.84297    14.335639 
  137000    296.12164    1.2509986    2200.8025   -1158.1094   -211.49952    2080.1365   -2308.7524    336.85963    44657.537 -0.067234084   -17.036218 -0.041707817    3587.5278    1579.9771    930.52927    920.45757    28.379601    18.846571    14.337846   0.39193104   0.39192547   0.32958807    0.3295515    296.12164     41.49527    35.978931    34.423473    90.016431    119.66323    90.107069    18.844982    14.339146    28.384274    18.846749     14.34267 
  138000    299.69694    1.2509986    2198.7859   -1174.3693   -211.49952    2077.7532    -2308.811   -325.83649    44657.537 -0.067234084   -17.036218 -0.041707817     3604.213    1630.7976    959.59078    862.41131    28.379601    18.846571    14.337846   0.40003575   0.40002988   0.35044057   0.35043427    299.69694     41.49527    35.978931    34.423473    90.016431    119.66323    90.107069    18.848397     14.33869    28.381563    18.847877    14.340628 
  139000    296.54286    1.2509986     2201.294   -1169.3007   -211.49952     2074.947   -2309.2358   -411.26991    44657.537 -0.067234084   -17.036218 -0.041707817    3604.8835    1608.8833    948.79703    895.47932    28.379601    18.846571    14.337846    0.3980068   0.39800512   0.35071209   0.35064454    296.54286     41.49527    35.978931    34.423473    90.016431    119.66323    90.107069    18.846854    14.337161    28.386945    18.847952    14.336198 
  140000    302.47502    1.2509986    2158.1535   -1173.6956   -211.49952    2078.7517     -2309.81    855.36828    44657.537 -0.067234084   -17.036218 -0.041707817    3562.9073    1579.5443    950.45099    881.57345    28.379601    18.846571    14.337846   0.38165076   0.38164947      0.32425   0.32422067    302.47502     41.49527    35.978931    34.423473    90.016431    119.66323    90.107069    18.846218     14.33858    28.380688    18.844233    14.341919 
  141000     297.0735    1.2509986    2118.0101   -1187.7573   -211.49952    2078.3836   -2309.6786    206.20363    44657.537 -0.067234084   -17.036218 -0.041707817    3537.0624    1539.5278    938.47343    903.53616    28.379601    18.846571    14.337846   0.37001726   0.37001288   0.32628329    0.3261233     297.0735     41.49527    35.978931    34.423473    90.016431    119.66323    90.107069    18.847132    14.338804    28.367839    18.845704    14.343065 
  142000    300.74352    1.2509986    2071.5431   -1192.5848   -211.49952    2078.7905   -2309.5668   -1509.1901    44657.537 -0.067234084   -17.036218 -0.041707817    3494.9042    1552.0882    938.31078     855.5364    28.379601    18.846571    14.337846    0.3677137   0.36770662   0.31054847   0.31036374    300.74352     41.49527    35.978931    34.423473    90.016431    119.66323    90.107069    18.846436    14.337644    28.366479    18.845946    14.337559 
  143000    301.50062    1.2509986     2160.562   -1153.0744   -211.49952    2074.9306   -2309.1371    527.06742    44657.537 -0.067234084   -17.036218 -0.041707817    3547.8429    1617.1771    940.84268    841.85289    28.379601    18.846571    14.337846   0.41566706   0.41566596   0.36901155   0.36897261    301.50062     41.49527    35.978931    34.423473    90.016431    119.66323    90.107069    18.846425    14.336846    28.381862     18.85067    14.334081 
  144000    297.69535    1.2509986    2120.2267   -1138.1219   -211.49952    2078.4573   -2309.1243    1456.0177    44657.537 -0.067234084   -17.036218 -0.041707817    3489.0155    1551.9508    918.87743    871.64083    28.379601    18.846571    14.337846   0.40802836   0.40802475   0.35967178   0.35953781    297.69535     41.49527    35.978931    34.423473    90.016431    119.66323    90.107069    18.847249    14.337369    28.388813    18.842073    14.339302 
  145000     296.8989    1.2509986    2193.4617   -1198.1868   -211.49952    2073.6429   -2309.7101   -1593.7832    44657.537 -0.067234084   -17.036218 -0.041707817    3627.7158    1613.7822    931.08073    918.78454    28.379601    18.846571    14.337846   0.36954589   0.36953852   0.31398336    0.3138965     296.8989     41.49527    35.978931    34.423473    90.016431    119.66323    90.107069    18.844115    14.337524    28.385052    18.841546    14.340589 
  146000    300.94143    1.2509986     2068.458   -1188.8087   -211.49952    2076.3652   -2309.2738   -343.05077    44657.537 -0.067234084   -17.036218 -0.041707817    3490.1754    1523.8616    944.50718    870.32916    28.379601    18.846571    14.337846   0.36448801   0.36447548   0.30617092   0.30600226    300.94143     41.49527    35.978931    34.423473    90.016431    119.66323    90.107069    18.846277    14.336719    28.367047    18.846382    14.337346 
  147000    297.27346    1.2509986    2177.9231   -1191.0587   -211.49952    2076.2772   -2309.3858   -170.45471    44657.537 -0.067234084   -17.036218 -0.041707817    3602.0903    1593.7983    953.05841    901.80293    28.379601    18.846571    14.337846   0.36770556   0.36770536   0.30253507   0.30252819    297.27346     41.49527    35.978931    34.423473    90.016431    119.66323    90.107069    18.846292    14.338086     28.38081    18.846951    14.340669 
  148000    296.68309    1.2509986    2085.9522   -1169.2821   -211.49952    2079.6498   -2308.9028    801.29822    44657.537 -0.067234084   -17.036218 -0.041707817    3484.4873    1564.3237    941.19043    839.13749    28.379601    18.846571    14.337846   0.36807165   0.36806962   0.29694092   0.29664472    296.68309     41.49527    35.978931    34.423473    90.016431    119.66323    90.107069     18.84631    14.336325    28.381064    18.846192    14.322728 
  149000    296.48135    1.2509986    2101.1357   -1175.5031   -211.49952    2078.7446   -2309.0321    52.275951    44657.537 -0.067234084   -17.036218 -0.041707817    3506.9263    1533.0144    935.05721    886.34803    28.379601    18.846571    14.337846   0.38336165   0.38335845   0.32406981   0.32397941    296.48135     41.49527    35.978931    34.423473    90.016431    119.66323    90.107069    18.847051    14.337952    28.370415    18.849627     14.34218 
  150000    300.78088    1.2509986    2081.2329   -1174.4207   -211.49952      2073.96   -2309.2272    1060.3637    44657.537 -0.067234084   -17.036218 -0.041707817    3490.9208    1573.6211    909.75343    856.78319    28.379601    18.846571    14.337846   0.38470792    0.3847033   0.32208348   0.32184869    300.78088     41.49527    35.978931    34.423473    90.016431    119.66323    90.107069    18.844448    14.338594    28.370711    18.836501    14.339576 
  151000    298.45648    1.2509986    2122.7704   -1211.9938   -211.49952    2076.1637   -2309.2681   -960.91335    44657.537 -0.067234084   -17.036218 -0.041707817    3567.8685    1574.8147    956.88298    881.78427    28.379601    18.846571    14.337846   0.35334444   0.35333513   0.28486241   0.28480284    298.45648     41.49527    35.978931    34.423473    90.016431    119.66323    90.107069     18.84564    14.338715    28.383349    18.844849    14.334361 
  152000    298.46839    1.2509986    2109.4761   -1158.2385   -211.49952    2076.6002   -2309.3255     1037.631    44657.537 -0.067234084   -17.036218 -0.041707817    3500.4399    1527.6668    943.95477    879.19607    28.379601    18.846571    14.337846   0.37896071   0.37895579   0.33159619   0.33134819    298.46839     41.49527    35.978931    34.423473    90.016431    119.66323    90.107069      18.8466    14.338376    28.364429     18.84562    14.342401 
  153000    301.15148    1.2509986    2137.6839   -1175.3462   -211.49952    2068.7917   -2309.6588    620.84801    44657.537 -0.067234084   -17.036218 -0.041707817    3553.8971    1575.5966    961.53279    866.58995    28.379601    18.846571    14.337846   0.33405091    0.3340461    0.2833693   0.28334381    301.15148     41.49527    35.978931    34.423473    90.016431    119.66323    90.107069    18.847988    14.338984    28.382887    18.847988    14.343291 
  154000    299.59394    1.2509986     2107.627   -1169.3869   -211.49952    2078.9958   -2309.4548     928.7622    44657.537 -0.067234084   -17.036218 -0.041707817    3507.4729    1561.8237    926.25017    865.29983    28.379601    18.846571    14.337846   0.33464264   0.33464151   0.28634658   0.28627875    299.59394     41.49527    35.978931    34.423473    90.016431    119.66323    90.107069    18.845591    14.338618    28.381358    18.841557    14.342637 
  155000    296.14253    1.2509986    2122.2094   -1186.3053   -211.49952    2073.2633   -2309.4688   -1337.6395    44657.537 -0.067234084   -17.036218 -0.041707817    3544.7203    1597.1696    949.78641    855.19089    28.379601    18.846571    14.337846   0.32408834   0.32408323   0.27381391   0.27377272    296.14253     41.49527    35.978931    34.423473    90.016431    119.66323    90.107069    18.848338    14.338404    28.375164    18.848094    14.344226 
  156000    293.05418    1.2509986    2137.0177   -1160.5163   -211.49952    2074.0467   -2309.3906     27.67315    44657.537 -0.067234084   -17.036218 -0.041707817     3532.878    1589.0866     929.1059    864.46965    28.379601    18.846571    14.337846   0.33977505   0.33977271   0.28446504   0.28441036    293.05418     41.49527    35.978931    34.423473    90.016431    119.66323    90.107069    18.847005     14.33758    28.377961    18.842016    14.341421 
  157000    301.85213    1.2509986    2161.8392   -1170.1077   -211.49952    2076.5312   -2309.6028    1411.1518    44657.537 -0.067234084   -17.036218 -0.041707817    3565.0185     1595.608    933.37383    884.99143    28.379601    18.846571    14.337846   0.34631065   0.34630899   0.28786268   0.28780431    301.85213     41.49527    35.978931    34.423473    90.016431    119.66323    90.107069    18.845087    14.337763    28.385904    18.845286     14.33759 
  158000    292.98435    1.2509986    2161.4211   -1145.1305   -211.49952    2079.6354   -2309.2571    266.42501    44657.537 -0.067234084   -17.036218 -0.041707817    3536.1733    1550.5212    901.23843    922.90534    28.379601    18.846571    14.337846   0.36853629   0.36853508   0.33180711   0.33174683    292.98435     41.49527    35.978931    34.423473    90.016431    119.66323    90.107069    18.847024     14.33775     28.38604    18.850998    14.335856 
  159000    303.43551    1.2509986    2127.4198   -1153.8595   -211.49952    2073.7703   -2309.4977    1167.3812    44657.537 -0.067234084   -17.036218 -0.041707817    3517.0066    1515.9682    949.77906    891.76994    28.379601    18.846571    14.337846    0.3536181   0.35361451   0.28923655   0.28913179    303.43551     41.49527    35.978931    34.423473    90.016431    119.66323    90.107069     18.84473    14.336865    28.379751    18.844465    14.330471 
  160000    292.81085    1.2509986    2174.4284   -1173.9874   -211.49952    2067.3181   -2310.1779   -904.39926    44657.537 -0.067234084   -17.036218 -0.041707817    3591.2756    1608.3191    945.00034    889.25314    28.379601    18.846571    14.337846   0.35928267   0.35928077   0.29516383   0.29511859    292.81085     41.49527    35.978931    34.423473    90.016431    119.66323    90.107069    18.845862    14.338939    28.375298    18.844126    14.341433 
  161000    295.34631    1.2509986    2162.0453   -1166.9876   -211.49952    2080.1635   -2309.1217    338.32924    44657.537 -0.067234084   -17.036218 -0.041707817    3557.9912    1570.2011     951.7605    886.94197    28.379601    18.846571    14.337846   0.37056307   0.37054554   0.31822149   0.31791867    295.34631     41.49527    35.978931    34.423473    90.016431    119.66323    90.107069    18.848305    14.334529    28.377369    18.849106    14.322375 
  162000    299.64851    1.2509986    2100.8335     -1188.46   -211.49952    2076.8838   -2308.8936   -31.567577    44657.537 -0.067234084   -17.036218 -0.041707817    3521.3033    1571.7858    917.88818    879.41192    28.379601    18.846571    14.337846   0.34781826   0.34781284   0.30351133   0.30330229    299.64851     41.49527    35.978931    34.423473    90.016431    119.66323    90.107069     18.84756    14.338784    28.391244    18.848185    14.348109 
  163000    297.23306    1.2509986    2175.1265   -1180.2492   -211.49952     2073.408   -2309.3501    -355.7834    44657.537 -0.067234084   -17.036218 -0.041707817    3591.3178    1600.2017    937.62826    902.58776    28.379601    18.846571    14.337846   0.37118994   0.37118752   0.31806366   0.31805444    297.23306     41.49527    35.978931    34.423473    90.016431    119.66323    90.107069    18.847535    14.338383    28.378466    18.850276    14.342174 
  164000    303.44069    1.2509986    2188.4823   -1181.3111   -211.49952    2074.8149   -2309.7173    488.19937    44657.537 -0.067234084   -17.036218 -0.041707817    3604.6958    1572.4175    955.56336    915.32938    28.379601    18.846571    14.337846   0.37216481   0.37215161   0.32070457   0.32060642    303.44069     41.49527    35.978931    34.423473    90.016431    119.66323    90.107069    18.847751    14.339687    28.385838    18.851387    14.346922 
  165000    295.42648    1.2509986    2126.0234   -1179.5142   -211.49952    2071.4766   -2310.0861    54.391472    44657.537 -0.067234084   -17.036218 -0.041707817    3544.1472    1558.2414    964.94141    872.24144    28.379601    18.846571    14.337846   0.36216921   0.36216475   0.30874427   0.30868061    295.42648     41.49527    35.978931    34.423473    90.016431    119.66323    90.107069    18.847142    14.337949    28.374192    18.850814    14.345262 
[...]
  961000      300.999    1.2509986    2169.9316   -1195.4848   -211.49952     2077.043   -2309.2753   -701.28382    44657.537 -0.067234084   -17.036218 -0.041707817    3597.6487    1573.3219    977.02561     894.1693    28.379601     18.84657    14.337845   0.38827683   0.38827612    0.3284959   0.32844617      300.999     41.49527    35.978931    34.423473    90.016431    119.66323    90.107069    18.846123    14.338579    28.377838    18.845602    14.345566 
  962000    293.83139    1.2509986    2196.7902   -1177.1382   -211.49952    2068.5667   -2308.9714    -1579.983    44657.537 -0.067234084   -17.036218 -0.041707817    3614.3331    1584.3665    960.86859    912.07141    28.379601     18.84657    14.337845   0.38248077   0.38247798   0.31496651   0.31493504    293.83139     41.49527    35.978931    34.423473    90.016431    119.66323    90.107069    18.844885    14.338793    28.377143    18.846844    14.344215 
  963000    293.80924    1.2509986    2208.1739    -1185.141   -211.49952     2075.113   -2309.1357   -980.43077    44657.537 -0.067234084   -17.036218 -0.041707817    3627.3376    1611.2436    967.03861    894.90046    28.379601     18.84657    14.337845    0.3934824   0.39348099   0.32702937   0.32695712    293.80924     41.49527    35.978931    34.423473    90.016431    119.66323    90.107069    18.845447    14.338662    28.373996    18.843379    14.342734 
  964000    306.13745    1.2509986    2142.9139   -1173.1755   -211.49952    2076.3508    -2309.206    119.56561    44657.537 -0.067234084   -17.036218 -0.041707817    3548.9447    1623.6714    919.85441    859.26625    28.379601     18.84657    14.337845   0.40205488   0.40203967   0.33479322   0.33467009    306.13745     41.49527    35.978931    34.423473    90.016431    119.66323    90.107069    18.846657    14.336075    28.372845    18.846359     14.33121 
  965000    296.56581    1.2509986    2163.3161   -1199.7075   -211.49952    2078.6861   -2309.7007    53.419391    44657.537 -0.067234084   -17.036218 -0.041707817    3594.0382    1563.9204     994.9566    884.32319    28.379601     18.84657    14.337845   0.36602283   0.36601904   0.30479377   0.30473118    296.56581     41.49527    35.978931    34.423473    90.016431    119.66323    90.107069    18.847257    14.336875    28.379097    18.848252    14.331777 
  966000    295.98872    1.2509986    2229.8982   -1169.7011   -211.49952    2079.1616   -2308.9594   -410.32828    44657.537 -0.067234084   -17.036218 -0.041707817     3629.397    1571.4826    980.63057    920.99578    28.379601     18.84657    14.337845   0.39510827   0.39510561    0.3209234    0.3209166    295.98872     41.49527    35.978931    34.423473    90.016431    119.66323    90.107069    18.847553    14.338559    28.382126    18.849442    14.339725 
  967000    294.06295    1.2509986    2054.3201    -1183.702   -211.49952    2078.0999   -2309.2614    1430.6543    44657.537 -0.067234084   -17.036218 -0.041707817    3469.1836    1554.1892    900.34804    862.45174    28.379601     18.84657    14.337845   0.36881648   0.36881342    0.3027312   0.30247193    294.06295     41.49527    35.978931    34.423473    90.016431    119.66323    90.107069    18.845813     14.33932    28.373558    18.842665    14.353165 
  968000    293.02727    1.2509986    2062.1231   -1173.4678   -211.49952    2077.6022    -2309.383   -680.17374    44657.537 -0.067234084   -17.036218 -0.041707817    3467.3716    1540.4383    928.52792     851.3024    28.379601     18.84657    14.337845   0.38069944   0.38069092   0.31594807   0.31584938    293.02727     41.49527    35.978931    34.423473    90.016431    119.66323    90.107069    18.849027    14.337095     28.38285    18.850758     14.33043 
  969000    297.90307    1.2509986    2105.8909   -1158.4403   -211.49952    2074.8121   -2309.8104   -425.86274    44657.537 -0.067234084   -17.036218 -0.041707817    3499.3295    1564.6102    886.34985    895.75277    28.379601     18.84657    14.337845   0.37424468   0.37424263   0.32661988   0.32653269    297.90307     41.49527    35.978931    34.423473    90.016431    119.66323    90.107069    18.846411     14.33641    28.383737    18.848643    14.331297 
  970000    300.20323    1.2509986    2097.0465   -1198.8265   -211.49952    2073.4468   -2309.6405    -967.0186    44657.537 -0.067234084   -17.036218 -0.041707817    3532.0668    1522.3982    955.97328     898.9171    28.379601     18.84657    14.337845   0.34517812   0.34517581   0.29230386   0.29228114    300.20323     41.49527    35.978931    34.423473    90.016431    119.66323    90.107069    18.846822    14.338254      28.3824    18.848134    14.335915 
  971000     299.9414    1.2509986    2075.5151   -1179.8002   -211.49952    2078.4136   -2308.6437   -1082.5336    44657.537 -0.067234084   -17.036218 -0.041707817    3485.5454    1557.0006    922.64346    854.02648    28.379601     18.84657    14.337845   0.37252134   0.37251421   0.31941105   0.31927679     299.9414     41.49527    35.978931    34.423473    90.016431    119.66323    90.107069    18.848078    14.336447    28.384761    18.850683    14.329421 
  972000    298.81867    1.2509986    2145.9889   -1173.4843   -211.49952    2080.2985   -2309.2163   -208.99552    44657.537 -0.067234084   -17.036218 -0.041707817     3548.391    1577.9352    932.68645    886.24977    28.379601     18.84657    14.337845   0.36435862    0.3643568     0.318387   0.31833123    298.81867     41.49527    35.978931    34.423473    90.016431    119.66323    90.107069    18.847374    14.338111    28.374977    18.846734    14.334198 
  973000    300.25011    1.2509986    2155.8771   -1175.2449   -211.49952    2078.2692   -2309.5879   -848.67801    44657.537 -0.067234084   -17.036218 -0.041707817    3562.4408    1617.2543    924.26552    866.30118    28.379601     18.84657    14.337845   0.38054892   0.38053971   0.32933828   0.32932441    300.25011     41.49527    35.978931    34.423473    90.016431    119.66323    90.107069    18.848907    14.338261    28.377704    18.851624    14.341542 
  974000    303.64145    1.2509986    2139.0469    -1163.978   -211.49952    2076.1423   -2309.6025    976.52975    44657.537 -0.067234084   -17.036218 -0.041707817    3536.4851    1497.1399    968.44415    914.39686    28.379601     18.84657    14.337845   0.38093062    0.3809167   0.32279386   0.32274078    303.64145     41.49527    35.978931    34.423473    90.016431    119.66323    90.107069    18.848348     14.33691    28.372608    18.848239    14.337586 
  975000    293.24551    1.2509986    2145.0747   -1160.7112   -211.49952    2074.7355   -2309.4928   -818.52077    44657.537 -0.067234084   -17.036218 -0.041707817    3540.5432     1557.055    954.54234    875.26646    28.379601     18.84657    14.337845   0.37414431   0.37414146   0.30698644   0.30695269    293.24551     41.49527    35.978931    34.423473    90.016431    119.66323    90.107069    18.847232    14.338324    28.376055    18.849638    14.344231 
  976000    305.18573    1.2509986    2124.5285   -1189.6419   -211.49952    2080.3282   -2308.9739    -1040.687    44657.537 -0.067234084   -17.036218 -0.041707817    3542.8161      1581.99    926.03331    884.87747    28.379601     18.84657    14.337845   0.35107042   0.35106321   0.28931222    0.2892088    305.18573     41.49527    35.978931    34.423473    90.016431    119.66323    90.107069    18.846489    14.337238    28.386301    18.845526    14.332873 
  977000    301.75804    1.2509986    2129.4212   -1186.2209   -211.49952    2073.8627   -2309.3288   -1764.3948    44657.537 -0.067234084   -17.036218 -0.041707817    3551.1081    1597.0239     904.8833    893.81685    28.379601     18.84657    14.337845   0.36281615   0.36280809   0.30218282   0.30216677    301.75804     41.49527    35.978931    34.423473    90.016431    119.66323    90.107069    18.848899    14.338167    28.383493     18.84972    14.339391 
  978000    297.07198    1.2509986    2152.5812   -1187.8881   -211.49952    2077.7393   -2309.2237   -1342.9568    44657.537 -0.067234084   -17.036218 -0.041707817    3571.9536    1564.9557    960.39076    892.59603    28.379601     18.84657    14.337845   0.38409877   0.38409832   0.32171326   0.32167015    297.07198     41.49527    35.978931    34.423473    90.016431    119.66323    90.107069    18.845841    14.337486    28.379028    18.845882    14.333891 
  979000    299.22631    1.2509986    2140.9706   -1157.0014   -211.49952    2074.0035   -2308.9482    363.53765    44657.537 -0.067234084   -17.036218 -0.041707817    3532.9167    1581.9647    938.12452    860.32305    28.379601     18.84657    14.337845    0.3855583   0.38555734   0.33167045   0.33160922    299.22631     41.49527    35.978931    34.423473    90.016431    119.66323    90.107069    18.846666    14.337173    28.380376    18.844324    14.333427 
  980000    298.53064    1.2509986    2138.7463   -1156.9467   -211.49952    2073.1919   -2309.7392    164.91336    44657.537 -0.067234084   -17.036218 -0.041707817    3532.2402    1550.5161    970.14569     863.5974    28.379601     18.84657    14.337845   0.39728924   0.39728595   0.33502507   0.33492177    298.53064     41.49527    35.978931    34.423473    90.016431    119.66323    90.107069    18.845941    14.337182    28.386207    18.846091     14.33253 
  981000    301.73272    1.2509986    2095.0317   -1161.4482   -211.49952    2077.4115    -2308.902    53.090749    44657.537 -0.067234084   -17.036218 -0.041707817    3487.9703    1510.3857    922.20656    896.86611    28.379601     18.84657    14.337845   0.37712475    0.3771188   0.31444721   0.31438465    301.73272     41.49527    35.978931    34.423473    90.016431    119.66323    90.107069    18.844075    14.338798    28.382774    18.841796    14.339966 
  982000    298.02521    1.2509986    2112.7755   -1173.8836   -211.49952    2074.0463   -2309.8114    1586.4595    44657.537 -0.067234084   -17.036218 -0.041707817    3522.4242    1540.3183    946.53066     881.6339    28.379601     18.84657    14.337845   0.36786857   0.36786251   0.30920722   0.30884988    298.02521     41.49527    35.978931    34.423473    90.016431    119.66323    90.107069    18.846611    14.335579    28.379397    18.847062    14.320836 
  983000    298.79908    1.2509986    2175.5473   -1190.1915   -211.49952    2086.4249   -2309.0402    361.89908    44657.537 -0.067234084   -17.036218 -0.041707817    3588.3541    1596.1343    979.67088    864.44235    28.379601     18.84657    14.337845   0.34444552   0.34443722   0.29136409   0.29114104    298.79908     41.49527    35.978931    34.423473    90.016431    119.66323    90.107069    18.843565     14.33669    28.391553    18.843976    14.332305 
  984000    295.80738    1.2509986    2162.0153    -1186.701   -211.49952    2074.9003   -2309.8123   -1053.9744    44657.537 -0.067234084   -17.036218 -0.041707817    3583.6282    1612.3333    931.02838    886.80071    28.379601     18.84657    14.337845   0.38881535   0.38881025   0.33701825    0.3370154    295.80738     41.49527    35.978931    34.423473    90.016431    119.66323    90.107069    18.847972    14.338016     28.37856    18.847655    14.339503 
  985000    295.77697    1.2509986    2132.5264   -1183.3333   -211.49952    2079.6279   -2308.7861    514.04272    44657.537 -0.067234084   -17.036218 -0.041707817    3545.0179    1598.7442    950.14319    847.15526    28.379601     18.84657    14.337845   0.39682649   0.39681537   0.34710678   0.34704139    295.77697     41.49527    35.978931    34.423473    90.016431    119.66323    90.107069    18.848093    14.339769     28.38218    18.847844    14.347197 
  986000    306.50312    1.2509986    2125.2099   -1180.5556   -211.49952    2073.1484   -2309.5031    -535.8329    44657.537 -0.067234084   -17.036218 -0.041707817    3542.1202     1600.141    950.88202    844.90422    28.379601     18.84657    14.337845   0.39114072   0.39113899   0.32226408   0.32224349    306.50312     41.49527    35.978931    34.423473    90.016431    119.66323    90.107069    18.846873    14.338312    28.376433    18.846226    14.341389 
  987000    299.68552    1.2509986    2161.3124   -1189.9656   -211.49952    2075.3351   -2309.3122   -446.49125    44657.537 -0.067234084   -17.036218 -0.041707817    3585.2551    1596.3392    940.79982    895.12473    28.379601     18.84657    14.337845   0.40729929   0.40729719   0.34830497   0.34823495    299.68552     41.49527    35.978931    34.423473    90.016431    119.66323    90.107069    18.847261    14.337442    28.387869    18.849954    14.339834 
  988000    293.42579    1.2509986    2215.1854   -1142.7313   -211.49952    2079.8563   -2309.4242    173.25494    44657.537 -0.067234084   -17.036218 -0.041707817    3587.4846    1627.2035    902.46862    898.63116    28.379601     18.84657    14.337845   0.41600057   0.41599636    0.3622681   0.36223746    293.42579     41.49527    35.978931    34.423473    90.016431    119.66323    90.107069    18.847713    14.338341    28.381292    18.850684    14.344622 
  989000    300.76219    1.2509986    2123.4721   -1193.4794   -211.49952    2071.0375   -2309.3915   -465.02803    44657.537 -0.067234084   -17.036218 -0.041707817    3555.3055    1596.8145    919.67426    883.92274    28.379601     18.84657    14.337845   0.39091903   0.39091214    0.3306662   0.33050537    300.76219     41.49527    35.978931    34.423473    90.016431    119.66323    90.107069    18.847938    14.336324    28.382084    18.858193    14.331262 
  990000    303.03442    1.2509986    2143.0379   -1169.0313   -211.49952    2074.4823   -2309.5727   -562.74737    44657.537 -0.067234084   -17.036218 -0.041707817    3547.1596    1589.6512    924.48423    882.13634    28.379601     18.84657    14.337845   0.40250464    0.4025028   0.32882951   0.32880099    303.03442     41.49527    35.978931    34.423473    90.016431    119.66323    90.107069    18.845971    14.337605    28.378191    18.843876    14.339117 
  991000     294.2677    1.2509986    2204.8731   -1148.9528   -211.49952    2072.5879    -2309.754    108.51778    44657.537 -0.067234084   -17.036218 -0.041707817    3590.9919    1608.4788    940.92936    885.67547    28.379601     18.84657    14.337845   0.39593227   0.39592825    0.3262692   0.32593543     294.2677     41.49527    35.978931    34.423473    90.016431    119.66323    90.107069    18.846015    14.336802    28.367547    18.848825    14.325872 
  992000    293.22375    1.2509986    2176.1613   -1126.9587   -211.49952    2079.5273   -2309.0572    2119.2887    44657.537 -0.067234084   -17.036218 -0.041707817    3532.6499    1556.1125     937.3478    886.33495    28.379601     18.84657    14.337845   0.40123277   0.40123077   0.32914515   0.32911196    293.22375     41.49527    35.978931    34.423473    90.016431    119.66323    90.107069    18.846688    14.338158    28.384028    18.847786    14.336218 
  993000    298.83347    1.2509986     2263.691   -1134.9914   -211.49952    2073.8934   -2309.3156    288.64117    44657.537 -0.067234084   -17.036218 -0.041707817    3634.1046    1604.2658    969.89736    905.51288    28.379601     18.84657    14.337845   0.41472265   0.41471885   0.35024184   0.35018735    298.83347     41.49527    35.978931    34.423473    90.016431    119.66323    90.107069    18.845456    14.337611    28.385765    18.846182    14.336823 
  994000    297.03896    1.2509986    2129.8992   -1181.3739   -211.49952    2077.1182   -2309.4312   -901.89966    44657.537 -0.067234084   -17.036218 -0.041707817    3543.5861    1593.6208    944.15499    858.93386    28.379601     18.84657    14.337845   0.38458627   0.38458334   0.32278561   0.32275213    297.03896     41.49527    35.978931    34.423473    90.016431    119.66323    90.107069    18.847593    14.337654    28.380697      18.8534    14.336041 
  995000     302.0922    1.2509986    2172.0101   -1180.7631   -211.49952    2079.1516   -2308.8973    -1345.111    44657.537 -0.067234084   -17.036218 -0.041707817    3582.5189     1584.252     944.3942    899.78941    28.379601     18.84657    14.337845   0.40287381   0.40287136   0.33523121   0.33521623     302.0922     41.49527    35.978931    34.423473    90.016431    119.66323    90.107069    18.847441    14.337181    28.383062    18.847917    14.338415 
  996000    301.75478    1.2509986    2073.5467   -1170.3531   -211.49952    2071.3713   -2309.3385    174.22581    44657.537 -0.067234084   -17.036218 -0.041707817     3481.867    1553.8312    923.91134    858.23956    28.379601     18.84657    14.337845   0.40144508   0.40143933   0.33486966   0.33474482    301.75478     41.49527    35.978931    34.423473    90.016431    119.66323    90.107069    18.846443    14.339145    28.376272    18.850578    14.350202 
  997000    295.14453    1.2509986    2161.9265   -1152.9768   -211.49952    2080.9522   -2309.4323    893.68953    44657.537 -0.067234084   -17.036218 -0.041707817    3543.3833    1569.0696    928.31212     888.0673    28.379601     18.84657    14.337845   0.41423236   0.41422905   0.35011214    0.3500584    295.14453     41.49527    35.978931    34.423473    90.016431    119.66323    90.107069    18.845618    14.338393    28.384922    18.844295    14.341278 
  998000    298.23312    1.2509986    2259.9992   -1154.4021   -211.49952     2070.065   -2309.6605    549.01455    44657.537 -0.067234084   -17.036218 -0.041707817    3653.9968    1636.3045    950.37939    908.38352    28.379601     18.84657    14.337845   0.37031024   0.37030884   0.31352148   0.31348384    298.23312     41.49527    35.978931    34.423473    90.016431    119.66323    90.107069    18.846411    14.338737    28.383756    18.844766     14.34104 
  999000    295.74156    1.2509986    2118.3443   -1200.0136   -211.49952    2074.4778   -2309.1341    372.24754    44657.537 -0.067234084   -17.036218 -0.041707817    3553.0141    1578.4265    917.69236    899.97711    28.379601     18.84657    14.337845   0.35618948   0.35618804   0.29644692   0.29637643    295.74156     41.49527    35.978931    34.423473    90.016431    119.66323    90.107069    18.846005    14.338854    28.383908    18.845738    14.346028 
 1000000    295.76931    1.2509986    2193.7066   -1161.1167   -211.49952    2074.8667   -2309.4512   -707.71781    44657.537 -0.067234084   -17.036218 -0.041707817    3589.4078    1602.4587    941.73641    894.66225    28.379601     18.84657    14.337845   0.37928228   0.37926507   0.32178734   0.32154172    295.76931     41.49527    35.978931    34.423473    90.016431    119.66323    90.107069    18.845564    14.335869    28.374288    18.842147    14.326572 
Loop time of 3064.76 on 60 procs for 1000000 steps with 4560 atoms

Pair  time (%) = 550.558 (17.9642)
Bond  time (%) = 58.7758 (1.9178)
Kspce time (%) = 1576.95 (51.4543)
Neigh time (%) = 14.5907 (0.47608)
Comm  time (%) = 595.844 (19.4418)
Outpt time (%) = 3.19297 (0.104183)
Other time (%) = 264.846 (8.64166)

Nlocal:    76 ave 82 max 70 min
Histogram: 4 3 4 9 7 16 5 2 5 5
Nghost:    4005.8 ave 4065 max 3924 min
Histogram: 7 8 4 1 0 2 7 9 14 8
Neighs:    28095.2 ave 30276 max 25796 min
Histogram: 3 4 4 9 9 8 8 6 4 5

Total # of neighbors = 1685715
Ave neighs/atom = 369.674
Ave special neighs/atom = 10.6316
Neighbor list builds = 6610
Dangerous builds = 0
System init for write_data ...
PPPM initialization ...
  G vector (1/distance) = 0.246499
  grid = 16 16 20
  stencil order = 5
  estimated absolute RMS force accuracy = 0.00242397
  estimated relative force accuracy = 7.2997e-06
  using double precision FFTs
  3d grid and FFT values/proc = 1053 112
