LAMMPS data file via write_data, version 15 May 2015, timestep = 1190000

4560 atoms
7 atom types
5040 bonds
3 bond types
7200 angles
2 angle types
10560 dihedrals
3 dihedral types
2400 impropers
1 improper types

-1.0763502675555259e-01 4.1387635026745990e+01 xlo xhi
-4.0433884491974936e-02 3.5938433884472119e+01 ylo yhi
-3.5711112484589691e-01 2.9555111124838550e+01 zlo zhi
-6.7234083837551181e-02 -1.7036217651000683e+01 -4.1707816797290791e-02 xy xz yz

Masses

1 12.0107
2 1.008
3 12.0107
4 12.0107
5 12.0107
6 12.0107
7 12.0107

Pair Coeffs # lj/cut/coul/long

1 0 3.55
2 0 2.42
3 0 3.55
4 0 3.55
5 0 3.55
6 0 0
7 0 3.55

Bond Coeffs # harmonic

1 469 1.4
2 367 1.08
3 469 0.7

Angle Coeffs # harmonic

1 35 120
2 63 120

Dihedral Coeffs # opls

1 0 7.25 0 0
2 0 7.25 0 0
3 0 7.25 0 0

Improper Coeffs # cvff

1 2.5 -1 2

Atoms # full

219 13 3 0.0000000000000000e+00 -3.1334705202911528e-01 3.1027841255041633e+00 3.1349739397851959e+00 1 0 0
220 13 4 -5.7500000000000002e-02 3.0876989043243275e-01 4.0846505891390485e+00 2.3459898047552850e+00 1 0 0
224 13 2 5.7500000000000002e-02 4.8742530036589815e-01 5.0283554309705414e+00 2.8111231030901545e+00 1 0 0
580 33 4 -5.7500000000000002e-02 2.6780337590006149e+00 6.7738551809409211e+00 3.9736856355706722e+00 1 0 0
228 13 3 0.0000000000000000e+00 -5.4275351085523660e-01 1.8387730829990263e+00 2.5784821666229760e+00 1 0 0
989 53 4 -5.7500000000000002e-02 -1.3535666178715142e+00 7.0304174525276899e+00 3.4976914083589561e+00 1 0 0
600 34 2 5.7500000000000002e-02 2.1152368882126549e-01 5.8689515764650464e+00 6.9297979434699162e+00 1 0 0
245 14 4 -5.7500000000000002e-02 -4.9151344269947774e+00 1.4373734199258401e+00 9.0674726144410052e+00 1 0 0
227 13 4 -5.7500000000000002e-02 -2.0620899806797133e-01 1.5569057290786752e+00 1.2631503626012697e+00 1 0 0
4390 233 1 -5.7500000000000002e-02 2.6047274291695133e+00 9.0797096507042374e-01 5.5338776866500110e+00 1 1 0
733 13 6 0.0000000000000000e+00 -4.4662673734055125e-01 2.4336330660963559e+00 2.9448455662352493e+00 1 0 0
987 53 4 -5.7500000000000002e-02 -8.0003300050036341e-01 7.9785196994904908e+00 1.3349048892902080e+00 1 0 0
230 13 1 -5.7500000000000002e-02 6.3197412074780068e-01 3.7725737506517238e+00 1.0250996981415543e+00 1 0 0
217 13 7 -5.7500000000000002e-02 -1.2316154487280990e+00 2.3969581968763225e+00 5.2493859811998895e+00 1 0 0
218 13 5 -5.7500000000000002e-02 -5.8552094156903545e-01 3.3787604848608077e+00 4.5006352486077326e+00 1 0 0
221 13 1 -5.7500000000000002e-02 -1.4937433512499740e+00 1.1649653284565598e+00 4.6636398792512095e+00 1 0 0
222 13 2 5.7500000000000002e-02 -1.4633140794517687e+00 2.5100821571400012e+00 6.2453275200629053e+00 1 0 0
223 13 2 5.7500000000000002e-02 -3.7389081184570161e-01 4.3078392454278776e+00 4.9601495598278937e+00 1 0 0
248 14 1 -5.7500000000000002e-02 -3.5875840732588484e+00 3.4513628566065089e+00 8.6294027075238109e+00 1 0 0
4380 233 4 -5.7500000000000002e-02 2.5657869480243023e+00 1.1352939263547597e+00 4.1520077412403067e+00 1 1 0
244 14 1 -5.7500000000000002e-02 -4.2187315058131389e+00 2.2890108875639452e+00 8.1710510214822278e+00 1 0 0
603 34 2 5.7500000000000002e-02 1.1716389515071848e+00 3.5892739611119642e+00 7.7388902668343640e+00 1 0 0
4396 234 5 -5.7500000000000002e-02 -7.5485211644591921e-01 1.9727333855287912e-01 9.2362316979692753e+00 1 1 0
4394 233 2 5.7500000000000002e-02 2.2078586487550305e+00 1.5665580499995220e+00 6.2044544887194633e+00 1 1 0
579 33 3 0.0000000000000000e+00 3.3953218542189312e+00 5.8953013886208794e+00 3.1925223626170083e+00 1 0 0
252 14 2 5.7500000000000002e-02 -3.0603693244676142e+00 4.1543484234713599e+00 8.0538722815175952e+00 1 0 0
581 33 1 -5.7500000000000002e-02 4.5859288487651018e+00 3.9425270262541359e+00 1.5379196554843297e+00 1 0 0
596 34 5 -5.7500000000000002e-02 -5.5115997205412270e-01 6.3236613730654234e+00 8.8665336254401588e+00 1 0 0
577 33 7 -5.7500000000000002e-02 4.1136307066897331e+00 5.1457051770305409e+00 9.8956694185896388e-01 1 0 0
588 33 3 0.0000000000000000e+00 3.8628994608844955e+00 4.6735065772593192e+00 3.7532732446849195e+00 1 0 0
589 33 4 -5.7500000000000002e-02 4.5183232336500350e+00 3.7003612010726963e+00 2.8796760817468794e+00 1 0 0
593 33 2 5.7500000000000002e-02 4.8008298678465691e+00 2.7948207319372598e+00 3.3970690137015507e+00 1 0 0
753 33 6 0.0000000000000000e+00 3.6180751995588025e+00 5.2137525627114192e+00 3.2881052157682955e+00 1 0 0
4383 233 2 5.7500000000000002e-02 3.0496787987482925e+00 1.3943571023900765e+00 1.4272830904618736e+00 1 1 0
4379 233 3 0.0000000000000000e+00 3.2265658395057728e+00 2.2062079627988371e-01 3.2862954398242739e+00 1 1 0
578 33 5 -5.7500000000000002e-02 3.4990461465056768e+00 6.1501416658359176e+00 1.8180539805753724e+00 1 0 0
226 13 1 -5.7500000000000002e-02 3.8526494289890389e-01 2.5181914317803136e+00 4.2297254787100114e-01 1 0 0
4384 233 2 5.7500000000000002e-02 2.0475758564210196e+00 2.0835024578609378e+00 3.8605622816287308e+00 1 1 0
586 33 1 -5.7500000000000002e-02 3.1565944090195899e+00 5.4581542526241265e+00 5.9203105007974965e+00 1 0 0
587 33 4 -5.7500000000000002e-02 3.7738960317554078e+00 4.4275272263511569e+00 5.1724906365477636e+00 1 0 0
585 33 2 5.7500000000000002e-02 4.9470149372306542e+00 3.1685057863448001e+00 8.4016169394268725e-01 1 0 0
591 33 2 5.7500000000000002e-02 3.2126000650239632e+00 5.4542661656200160e+00 7.0721918642939112e+00 1 0 0
592 33 2 5.7500000000000002e-02 4.0962382990667816e+00 3.5695782133576444e+00 5.6780003942794668e+00 1 0 0
590 33 1 -5.7500000000000002e-02 2.4876010082046256e+00 6.5404468648610301e+00 5.3338826627799305e+00 1 0 0
1010 54 2 5.7500000000000002e-02 -5.0374803186377033e+00 6.2706264064333155e+00 8.6665466627549392e+00 1 0 0
234 13 2 5.7500000000000002e-02 1.0734867321486492e+00 4.6097192535678415e+00 5.1405161597649907e-01 1 0 0
229 13 4 -5.7500000000000002e-02 -1.2084956558021993e+00 8.5524871218961751e-01 3.3297697458609683e+00 1 0 0
1064 57 2 5.7500000000000002e-02 7.0666251702054419e+00 6.4414911508637260e+00 9.8557319260870546e-01 1 0 0
985 53 2 5.7500000000000002e-02 -1.8591263136305269e+00 6.4124615041934376e+00 5.5678084976266380e+00 1 0 0
599 34 1 -5.7500000000000002e-02 5.5832886409549598e-01 4.2043257766849536e+00 8.3372377612217452e+00 1 0 0
4401 234 2 5.7500000000000002e-02 -8.9306889820018753e-01 1.1596605574502905e+00 8.8360100126332171e+00 1 1 0
225 13 2 5.7500000000000002e-02 -1.9583369722100954e+00 4.1091099093335826e-01 5.2933607649863204e+00 1 0 0
595 34 7 -5.7500000000000002e-02 3.4495867938547420e-02 5.4842784651034533e+00 7.9249478115633245e+00 1 0 0
981 53 1 -5.7500000000000002e-02 -1.4701058770159188e+00 7.1887286721449355e+00 4.8958609493145016e+00 1 0 0
4378 233 5 -5.7500000000000002e-02 3.4258501100191534e+00 5.0971382775684770e-01 1.9080193213419641e+00 1 1 0
582 33 2 5.7500000000000002e-02 4.2356087778709455e+00 5.2311855025438634e+00 -1.1655923285704195e-01 1 0 0
583 33 2 5.7500000000000002e-02 3.1913802464904224e+00 7.0834336481231874e+00 1.3628693263692313e+00 1 0 0
993 53 2 5.7500000000000002e-02 -1.7219154049945167e+00 6.1152973910843702e+00 3.0320265300825868e+00 1 0 0
232 13 2 5.7500000000000002e-02 -2.8746274308946029e-01 5.8108469294209930e-01 8.4481988008907827e-01 1 0 0
1493 53 6 0.0000000000000000e+00 -5.7930734748225321e-01 8.6838393465754411e+00 2.9776658241421319e+00 1 0 0
584 33 2 5.7500000000000002e-02 2.3039056754928424e+00 7.6509846087590381e+00 3.4879901591530267e+00 1 0 0
1005 54 4 -5.7500000000000002e-02 -4.5124573968404160e+00 7.2018977375898467e+00 8.9076554200352014e+00 1 0 0
594 33 2 5.7500000000000002e-02 1.9538199931258400e+00 7.3253348873280331e+00 5.8719310872007906e+00 1 0 0
977 53 7 -5.7500000000000002e-02 -8.3495963105125481e-01 8.2944151195080789e+00 5.5183347803418865e+00 1 0 0
982 53 2 5.7500000000000002e-02 -9.6662306668647480e-01 8.4022102366044038e+00 6.6312127887043921e+00 1 0 0
1004 54 1 -5.7500000000000002e-02 -3.6740838621519929e+00 7.8173485162973417e+00 7.9844810394151651e+00 1 0 0
988 53 3 0.0000000000000000e+00 -8.2502376849978387e-01 8.1200031107049959e+00 2.7386840609746255e+00 1 0 0
1009 54 2 5.7500000000000002e-02 -3.5471774432483589e+00 7.2914554378150225e+00 7.0536622776752766e+00 1 0 0
601 34 2 5.7500000000000002e-02 -1.0000109931759225e+00 7.2984016757850432e+00 8.6547109264135944e+00 1 0 0
1353 73 2 5.7500000000000002e-02 5.1767487366491665e+00 8.9450281681000252e+00 2.9499055946266770e+00 1 0 0
235 14 7 -5.7500000000000002e-02 -5.0688074033648221e+00 2.1716898027985541e+00 1.3215017610162937e+01 1 0 0
236 14 5 -5.7500000000000002e-02 -4.5516688789882407e+00 3.1422742054208435e+00 1.2323179483825612e+01 1 0 0
597 34 3 0.0000000000000000e+00 -5.6329694711362510e-01 5.8866293320369980e+00 1.0203754707800741e+01 1 0 0
734 14 6 0.0000000000000000e+00 -4.6328623289044817e+00 2.3542145274408393e+00 1.0484415920840977e+01 1 0 0
239 14 1 -5.7500000000000002e-02 -5.6825469350811373e+00 9.6881166776074934e-01 1.2673402113306041e+01 1 0 0
240 14 2 5.7500000000000002e-02 -4.9337352677562167e+00 2.3222087850264002e+00 1.4261389930930301e+01 1 0 0
243 14 2 5.7500000000000002e-02 -6.2015091826891453e+00 2.9585551884172306e-01 1.3262557655731952e+01 1 0 0
4416 235 4 -5.7500000000000002e-02 -5.8620261024566984e+00 8.9869919608628246e-01 1.9061221114739585e+01 1 1 0
4420 235 2 5.7500000000000002e-02 -5.9551049500546647e+00 1.9211410611338167e+00 1.8716780138971359e+01 1 1 0
237 14 3 0.0000000000000000e+00 -4.3751698489449602e+00 2.8472585395355532e+00 1.0937342297456935e+01 1 0 0
4402 234 2 5.7500000000000002e-02 -1.9669416997697775e+00 1.6704160596940463e+00 1.0961401166685826e+01 1 1 0
1022 55 1 -5.7500000000000002e-02 -8.5772364112257478e+00 8.4251708138169707e+00 1.5245783039974439e+01 1 0 0
242 14 2 5.7500000000000002e-02 -3.0852526188724916e+00 4.5004430219038527e+00 1.0419182186830758e+01 1 0 0
255 15 3 0.0000000000000000e+00 -8.7059409655130899e+00 3.1027280286949623e+00 1.8218166604400650e+01 1 0 0
256 15 4 -5.7500000000000002e-02 -8.0364429028462467e+00 3.8597162681180568e+00 1.7197484337830495e+01 1 0 0
260 15 2 5.7500000000000002e-02 -7.5945062457961328e+00 4.8168899130062632e+00 1.7382513297098367e+01 1 0 0
620 35 2 5.7500000000000002e-02 -6.3345111962328122e+00 7.4886419685944343e+00 1.9201180692434640e+01 1 0 0
4414 235 5 -5.7500000000000002e-02 -4.8889235823092072e+00 3.4920486382417976e-01 1.6838628237771104e+01 1 1 0
264 15 3 0.0000000000000000e+00 -9.2912191569312750e+00 1.8408540073842101e+00 1.7842329703517287e+01 1 0 0
262 15 1 -5.7500000000000002e-02 -8.5700840788630757e+00 2.1879261587511816e+00 1.5512009221575319e+01 1 0 0
266 15 1 -5.7500000000000002e-02 -7.9235656307361246e+00 3.3379113746500852e+00 1.5920142505526638e+01 1 0 0
4408 234 1 -5.7500000000000002e-02 -1.7919814627763433e+00 3.7528175396005015e-01 1.2742166468334283e+01 1 1 0
238 14 4 -5.7500000000000002e-02 -3.7040288701328681e+00 3.7299455004989954e+00 1.0011234020705613e+01 1 0 0
263 15 4 -5.7500000000000002e-02 -9.1597093396610738e+00 1.4004898213538568e+00 1.6508544831392559e+01 1 0 0
735 15 6 0.0000000000000000e+00 -8.9337316927550745e+00 2.4303664925435839e+00 1.8056314749931410e+01 1 0 0
246 14 3 0.0000000000000000e+00 -4.9615978214265972e+00 1.7147466477281481e+00 1.0438775855709677e+01 1 0 0
265 15 4 -5.7500000000000002e-02 -1.0042033859534929e+01 1.0730465630692188e+00 1.8730980261302658e+01 1 0 0
604 34 1 -5.7500000000000002e-02 -1.0726056947092788e+00 4.9324084951464346e+00 1.2779685933876692e+01 1 0 0
605 34 4 -5.7500000000000002e-02 -3.9360279674355869e-01 4.1176258500217804e+00 1.1865003986605213e+01 1 0 0
606 34 3 0.0000000000000000e+00 -1.6155908011683984e-01 4.6094587782167995e+00 1.0562409233220928e+01 1 0 0
4415 235 3 0.0000000000000000e+00 -5.1776150223086086e+00 -3.2717059552066982e-02 1.8185953938675151e+01 1 1 0
1007 54 4 -5.7500000000000002e-02 -5.7176419143854851e+00 7.1463573486477738e+00 1.1038841241210571e+01 1 0 0
611 34 2 5.7500000000000002e-02 6.4605954216555972e-01 2.6915314122932887e+00 9.8775944241802893e+00 1 0 0
610 34 2 5.7500000000000002e-02 2.3223338433043139e-02 3.1487734407914894e+00 1.2256942422705070e+01 1 0 0
241 14 2 5.7500000000000002e-02 -4.1383299969491842e+00 4.0766526443621771e+00 1.2579984739657428e+01 1 0 0
1029 55 2 5.7500000000000002e-02 -1.0411596583505686e+01 5.9452135037193230e+00 1.7942003238804197e+01 1 0 0
598 34 4 -5.7500000000000002e-02 -1.1504321810943399e+00 6.7770720875610708e+00 1.1197791685088944e+01 1 0 0
754 34 6 0.0000000000000000e+00 -4.4119924774547226e-01 5.2651498369951630e+00 1.0485847705443858e+01 1 0 0
609 34 2 5.7500000000000002e-02 -1.3193466930822764e+00 4.5808396118122312e+00 1.3747324204782741e+01 1 0 0
613 35 7 -5.7500000000000002e-02 -4.4088051286114380e+00 5.6018647659501477e+00 1.6149336237958362e+01 1 0 0
618 35 2 5.7500000000000002e-02 -4.4102165619840044e+00 6.0178849148372873e+00 1.5208950143360534e+01 1 0 0
615 35 3 0.0000000000000000e+00 -5.2801708405245051e+00 5.7732692835188946e+00 1.8386529081417713e+01 1 0 0
617 35 1 -5.7500000000000002e-02 -3.8387907273576722e+00 4.3772415125249857e+00 1.6429647697862624e+01 1 0 0
621 35 2 5.7500000000000002e-02 -3.3283029631613648e+00 3.9219736530868907e+00 1.5667154257890804e+01 1 0 0
624 35 3 0.0000000000000000e+00 -4.7241852550026655e+00 4.4978804031570174e+00 1.8667234494539727e+01 1 0 0
625 35 4 -5.7500000000000002e-02 -4.0230312120028611e+00 3.8226749947793808e+00 1.7663894054587921e+01 1 0 0
629 35 2 5.7500000000000002e-02 -3.5231554503828297e+00 2.8280268841284597e+00 1.7805492872753995e+01 1 0 0
755 35 6 0.0000000000000000e+00 -4.9600628612373443e+00 5.1161430678071396e+00 1.8441368362666378e+01 1 0 0
270 15 2 5.7500000000000002e-02 -7.4931233208617805e+00 4.0046551833108515e+00 1.5184965557938025e+01 1 0 0
4398 234 4 -5.7500000000000002e-02 -1.6102325666806712e+00 7.4255401119274467e-01 1.1409326737968426e+01 1 1 0
4412 234 2 5.7500000000000002e-02 -2.2394974864179771e+00 1.0568345656736882e+00 1.3428369462063056e+01 1 1 0
614 35 5 -5.7500000000000002e-02 -5.1856845940333907e+00 6.3284781371192196e+00 1.7094862835800384e+01 1 0 0
247 14 4 -5.7500000000000002e-02 -5.7569314794219162e+00 8.8448069892144210e-01 1.1231231745370948e+01 1 0 0
4419 235 2 5.7500000000000002e-02 -5.1555089582745284e+00 1.3242246266690967e+00 1.6501123368036435e+01 1 1 0
1025 55 4 -5.7500000000000002e-02 -9.8259580860444249e+00 6.7406367698212266e+00 1.8341198412736087e+01 1 0 0
608 34 1 -5.7500000000000002e-02 -1.4311938338392922e+00 6.2331438111626518e+00 1.2471321064292459e+01 1 0 0
616 35 4 -5.7500000000000002e-02 -5.9507388101792618e+00 6.5310587073203656e+00 1.9399904224260375e+01 1 0 0
612 34 2 5.7500000000000002e-02 -1.8950144699208993e+00 6.8814745707266223e+00 1.3246497824433904e+01 1 0 0
1011 54 2 5.7500000000000002e-02 -6.0850286051234441e+00 6.1677117150080276e+00 1.0824429674310569e+01 1 0 0
1024 55 3 0.0000000000000000e+00 -9.1748066573234848e+00 7.6829920904737801e+00 1.7524108309917438e+01 1 0 0
254 15 5 -5.7500000000000002e-02 -8.9664297410066940e+00 3.5815397308730521e+00 1.9507497894724342e+01 1 0 0
1006 54 3 0.0000000000000000e+00 -4.8203588420648318e+00 7.8042814074179105e+00 1.0167890069942308e+01 1 0 0
1023 55 4 -5.7500000000000002e-02 -9.1683291751346800e+00 7.4378106392589070e+00 1.6109707906453366e+01 1 0 0
619 35 2 5.7500000000000002e-02 -5.6857664658857034e+00 7.2138681740394599e+00 1.6819374952443603e+01 1 0 0
1015 55 3 0.0000000000000000e+00 -8.5085145177824604e+00 8.7981223014365728e+00 1.8034133477966982e+01 1 0 0
1494 54 6 0.0000000000000000e+00 -4.5383585142893494e+00 8.4035679316914820e+00 1.0323486366534249e+01 1 0 0
1003 54 2 5.7500000000000002e-02 -6.6862232773332710e+00 7.1629860422096723e+00 1.2951351819254027e+01 1 0 0
1495 55 6 0.0000000000000000e+00 -8.8019181666722304e+00 8.2749519647892189e+00 1.7638939801368146e+01 1 0 0
999 54 1 -5.7500000000000002e-02 -5.9662348952914126e+00 7.6423170781254779e+00 1.2312733738286237e+01 1 0 0
602 34 2 5.7500000000000002e-02 -1.2989576432834662e+00 7.8143480451794360e+00 1.1038192445136977e+01 1 0 0
269 15 2 5.7500000000000002e-02 -1.0476715560938574e+01 1.6119760907307631e-01 1.8403895878789001e+01 1 0 0
995 54 7 -5.7500000000000002e-02 -5.3668307303874911e+00 8.8518988744812308e+00 1.2661981278265044e+01 1 0 0
1100 59 2 5.7500000000000002e-02 -1.1231449934116586e+00 6.6014777300285381e+00 1.5897415633351333e+01 1 0 0
607 34 4 -5.7500000000000002e-02 4.1360648242280895e-01 3.7402959284250503e+00 9.6250249709798368e+00 1 0 0
267 15 2 5.7500000000000002e-02 -8.4532056641556519e+00 1.9161269244367827e+00 1.4495140645361644e+01 1 0 0
1389 75 2 5.7500000000000002e-02 -2.9820745626778145e+00 8.9170013338541665e+00 1.6985203574974317e+01 1 0 0
251 14 2 5.7500000000000002e-02 -6.2971548355166362e+00 1.3877074835269357e-01 1.0670294196706918e+01 1 0 0
280 16 1 -5.7500000000000002e-02 -1.2654394825143052e+01 2.3382213573014616e+00 2.3117954867992221e+01 1 0 0
638 36 2 5.7500000000000002e-02 -1.0659558472814828e+01 7.3155208902333086e+00 2.5875407596519725e+01 1 0 0
258 15 2 5.7500000000000002e-02 -1.0238162955843958e+01 3.3745384492616748e+00 2.1196362780083206e+01 1 0 0
634 36 4 -5.7500000000000002e-02 -1.0193255529984196e+01 6.3787385846981053e+00 2.6154597168794698e+01 1 0 0
4433 236 3 0.0000000000000000e+00 -9.4583131172142529e+00 8.9019740520600216e-02 2.5613104875586437e+01 1 1 0
257 15 1 -5.7500000000000002e-02 -1.0402372368538471e+01 1.6138106944132322e+00 1.9958078379504169e+01 1 0 0
284 16 1 -5.7500000000000002e-02 -1.2140900896893610e+01 3.5856238753193179e+00 2.3555300440188468e+01 1 0 0
279 16 2 5.7500000000000002e-02 -1.4894247667859856e+01 6.7151259391847040e-01 2.8178405678239862e+01 1 0 0
1047 56 2 5.7500000000000002e-02 -1.4691094853048494e+01 6.0635159066863444e+00 2.5917532753848246e+01 1 0 0
288 16 2 5.7500000000000002e-02 -1.1535764355829325e+01 4.1498607679306758e+00 2.2893303423553522e+01 1 0 0
271 16 7 -5.7500000000000002e-02 -1.3897212936452959e+01 2.5718106039725335e+00 2.8035173677142886e+01 1 0 0
272 16 5 -5.7500000000000002e-02 -1.3189375828186368e+01 3.4302601554485532e+00 2.7158733739256441e+01 1 0 0
273 16 3 0.0000000000000000e+00 -1.2971782694087850e+01 3.0547534508645047e+00 2.5839553373589588e+01 1 0 0
274 16 4 -5.7500000000000002e-02 -1.2309638818555117e+01 3.9368838414647174e+00 2.4936305603532215e+01 1 0 0
275 16 1 -5.7500000000000002e-02 -1.4409104053336010e+01 1.3702471610958709e+00 2.7538996804748027e+01 1 0 0
285 16 2 5.7500000000000002e-02 -1.2611087048429933e+01 2.0909275090669990e+00 2.2065517897307462e+01 1 0 0
277 16 2 5.7500000000000002e-02 -1.2726588593283203e+01 4.4166968837994078e+00 2.7386950143961442e+01 1 0 0
278 16 2 5.7500000000000002e-02 -1.1971604043186003e+01 4.9394314034096425e+00 2.5206065726166219e+01 1 0 0
261 15 2 5.7500000000000002e-02 -1.1181616474747470e+01 1.1645707990513716e+00 2.0603098631949486e+01 1 0 0
282 16 3 0.0000000000000000e+00 -1.3469410349149920e+01 1.8013589427636101e+00 2.5339388754223734e+01 1 0 0
1043 56 4 -5.7500000000000002e-02 -1.4399270841977446e+01 7.1097550782004157e+00 2.6234606489439575e+01 1 0 0
736 16 6 0.0000000000000000e+00 -1.3224489548485069e+01 2.3874591130252969e+00 2.5710073750853088e+01 1 0 0
632 36 5 -5.7500000000000002e-02 -9.2293889813681496e+00 6.1038082766044823e+00 2.3876299915409930e+01 1 0 0
636 36 2 5.7500000000000002e-02 -8.5390695897038178e+00 5.4949487399087884e+00 2.1955973885519096e+01 1 0 0
4438 236 2 5.7500000000000002e-02 -1.0689615051538937e+01 1.7336239877203712e+00 2.6240777781322642e+01 1 1 0
253 15 7 -5.7500000000000002e-02 -9.8366926514639577e+00 2.8605741971492722e+00 2.0351098839973233e+01 1 0 0
623 35 4 -5.7500000000000002e-02 -4.7821127157803671e+00 3.9745065562531505e+00 1.9998525810172072e+01 1 0 0
627 35 2 5.7500000000000002e-02 -5.5697901389036133e+00 4.2517708233690188e+00 2.2003142179055210e+01 1 0 0
644 36 1 -5.7500000000000002e-02 -1.0217931945349402e+01 6.0100201832441336e+00 2.7514641715473715e+01 1 0 0
631 36 7 -5.7500000000000002e-02 -8.5739750384577462e+00 5.2769444092572533e+00 2.2968016486645674e+01 1 0 0
635 36 1 -5.7500000000000002e-02 -7.9293732694912107e+00 4.0980943916197923e+00 2.3378760969136508e+01 1 0 0
628 35 2 5.7500000000000002e-02 -4.4672148068277986e+00 2.9648901274375161e+00 2.0162753673181228e+01 1 0 0
639 36 2 5.7500000000000002e-02 -7.3920845460095883e+00 3.3947339350543588e+00 2.2776240604552953e+01 1 0 0
283 16 4 -5.7500000000000002e-02 -1.4118622730954716e+01 9.4878722020708373e-01 2.6268701702562034e+01 1 0 0
4430 235 2 5.7500000000000002e-02 -6.5559519971611815e+00 1.1465854684367653e+00 2.1121943277586112e+01 1 1 0
4444 236 1 -5.7500000000000002e-02 -1.0366015482596824e+01 3.0146511521145830e-01 2.7854008827187748e+01 1 1 0
231 13 2 5.7500000000000002e-02 -1.6434338716041271e+01 2.2142715052572490e+00 2.9310956702768667e+01 1 0 -1
633 36 3 0.0000000000000000e+00 -9.3870802112363148e+00 5.6704530632597789e+00 2.5199282255235055e+01 1 0 0
4437 236 2 5.7500000000000002e-02 -1.0209518051699707e+01 1.3218254049147007e+00 2.4013240674802429e+01 1 1 0
640 36 1 -5.7500000000000002e-02 -9.6471985176707591e+00 4.7950426115264895e+00 2.7960172753188438e+01 1 0 0
641 36 4 -5.7500000000000002e-02 -8.9790938920994243e+00 4.0074491372219585e+00 2.7020531974521059e+01 1 0 0
642 36 3 0.0000000000000000e+00 -8.8474065953869410e+00 4.4785201066424687e+00 2.5679142525547714e+01 1 0 0
643 36 4 -5.7500000000000002e-02 -8.0788452947940037e+00 3.6925554577885120e+00 2.4720254661474769e+01 1 0 0
622 35 1 -5.7500000000000002e-02 -5.4626860196851954e+00 4.6991346154531426e+00 2.0968203583465176e+01 1 0 0
646 36 2 5.7500000000000002e-02 -8.5682203195449276e+00 3.0465493338547684e+00 2.7356419415930588e+01 1 0 0
647 36 2 5.7500000000000002e-02 -7.6135020383078880e+00 2.7832262860556907e+00 2.4982770044739731e+01 1 0 0
756 36 6 0.0000000000000000e+00 -9.3021492529432130e+00 4.9590771239447839e+00 2.5370363713919083e+01 1 0 0
281 16 4 -5.7500000000000002e-02 -1.3351778763667214e+01 1.4563128164488430e+00 2.3985870479254189e+01 1 0 0
4434 236 4 -5.7500000000000002e-02 -1.0210601971611467e+01 8.2560160182122411e-01 2.6558697324280825e+01 1 1 0
1045 56 2 5.7500000000000002e-02 -1.2503318896844373e+01 7.6417293871042400e+00 2.2060705462276388e+01 1 0 0
1013 55 7 -5.7500000000000002e-02 -9.1185707548530246e+00 8.1058706557457363e+00 2.0264766245210595e+01 1 0 0
648 36 2 5.7500000000000002e-02 -1.0778400588434772e+01 6.6880085116036296e+00 2.8154486748559538e+01 1 0 0
4432 236 5 -5.7500000000000002e-02 -9.5539898566135655e+00 5.0812852534772057e-01 2.4284048467462078e+01 1 1 0
1039 56 2 5.7500000000000002e-02 -1.5208977071289032e+01 7.1594315545709524e+00 2.8238788884900249e+01 1 0 0
626 35 1 -5.7500000000000002e-02 -6.0326511639433402e+00 5.9614310997916995e+00 2.0687623374995596e+01 1 0 0
4448 236 2 5.7500000000000002e-02 -1.0970405386905554e+01 8.7889543896629407e-01 2.8476171771021033e+01 1 1 0
4426 235 1 -5.7500000000000002e-02 -6.0988482714024794e+00 4.6473005466161421e-01 2.0374643564556745e+01 1 1 0
276 16 2 5.7500000000000002e-02 -1.4203355538486969e+01 3.0517061735983044e+00 2.9011149791722264e+01 1 0 0
630 35 2 5.7500000000000002e-02 -6.4640703360449363e+00 6.4841974296844818e+00 2.1541784882962414e+01 1 0 0
1021 55 2 5.7500000000000002e-02 -1.0283096900991790e+01 6.3432215624135413e+00 2.0352460175592647e+01 1 0 0
637 36 2 5.7500000000000002e-02 -9.7928081336261705e+00 6.8789621171974407e+00 2.3466230572356487e+01 1 0 0
645 36 2 5.7500000000000002e-02 -9.7974099832584933e+00 4.4329768716096103e+00 2.9025091868634348e+01 1 0 0
1042 56 3 0.0000000000000000e+00 -1.3603960492849991e+01 7.8147099905036033e+00 2.5249956130204804e+01 1 0 0
1017 55 1 -5.7500000000000002e-02 -9.7275327529269315e+00 6.9881386509861638e+00 1.9678284769770791e+01 1 0 0
1035 56 1 -5.7500000000000002e-02 -1.4608520100142808e+01 7.6610145285622497e+00 2.7489525972536384e+01 1 0 0
1018 55 2 5.7500000000000002e-02 -9.3441405416602290e+00 8.2535523653889715e+00 2.1326281592424014e+01 1 0 0
1496 56 6 0.0000000000000000e+00 -1.3365954049935841e+01 8.4535786748968338e+00 2.5435361002338194e+01 1 0 0
1040 56 1 -5.7500000000000002e-02 -1.2635660358283184e+01 8.0224606682444204e+00 2.3079288855596218e+01 1 0 0
1041 56 4 -5.7500000000000002e-02 -1.3463962593632312e+01 7.2732471557266578e+00 2.3955054168115293e+01 1 0 0
1407 76 2 5.7500000000000002e-02 -8.2683985491234662e+00 8.7367105508085317e+00 2.4425308239671441e+01 1 0 0
259 15 2 5.7500000000000002e-02 -8.6779076268297022e+00 4.4997892691503703e+00 1.9907897392760532e+01 1 0 0
1119 60 2 5.7500000000000002e-02 -6.7901778754014366e+00 5.9505759474774385e+00 2.5820168769759405e+01 1 0 0
287 16 2 5.7500000000000002e-02 -1.4520121664223046e+01 -9.1274550852088673e-03 2.5939044104918121e+01 1 0 0
979 53 3 0.0000000000000000e+00 -9.6492665399789068e-02 9.1577005858657845e+00 3.3278899979747663e+00 1 0 0
980 53 4 -5.7500000000000002e-02 5.6205466076522947e-01 1.0030604687393593e+01 2.5153551689657068e+00 1 0 0
984 53 2 5.7500000000000002e-02 1.1665130226533833e+00 1.0793263480546047e+01 2.9178555602751608e+00 1 0 0
1361 74 2 5.7500000000000002e-02 -1.0452403341943350e+00 1.3189852656864190e+01 8.3240583891617188e+00 1 0 0
990 53 1 -5.7500000000000002e-02 5.5912197460529589e-01 9.9406392782848112e+00 1.1311986435272003e+00 1 0 0
2253 93 6 0.0000000000000000e+00 -3.7657803256875422e-01 1.4259036702661923e+01 3.0128706199089796e+00 1 0 0
994 53 2 5.7500000000000002e-02 1.0725606739883493e+00 1.0637191553866128e+01 4.6861117022913268e-01 1 0 0
1741 93 1 -5.7500000000000002e-02 -1.4861540548712324e+00 1.3447108594765952e+01 4.8932785740559481e+00 1 0 0
978 53 5 -5.7500000000000002e-02 -1.7692022644067018e-01 9.2738841775237688e+00 4.7355862004855753e+00 1 0 0
983 53 2 5.7500000000000002e-02 2.5924606776645920e-01 1.0118558495889735e+01 5.2429438319367883e+00 1 0 0
1012 54 2 5.7500000000000002e-02 -2.3864976229486081e+00 9.4858539440406329e+00 7.6709663378105510e+00 1 0 0
1363 74 2 5.7500000000000002e-02 1.1028995653887588e+00 9.6503827871385734e+00 7.6282928261119993e+00 1 0 0
1745 93 2 5.7500000000000002e-02 -2.0111461869333485e+00 1.2760381233188522e+01 5.5384581444393017e+00 1 0 0
1764 94 1 -5.7500000000000002e-02 -4.4943171233892878e+00 1.4650763333300992e+01 7.7916489783979248e+00 1 0 0
1338 73 5 -5.7500000000000002e-02 3.6617550210840117e+00 1.2268060524861459e+01 1.6685121057217849e+00 1 0 0
1339 73 3 0.0000000000000000e+00 3.4698918810174177e+00 1.1916818532155913e+01 3.0068252880326107e+00 1 0 0
1340 73 4 -5.7500000000000002e-02 2.8324991692146493e+00 1.2796224538642832e+01 3.9328053296132834e+00 1 0 0
1341 73 1 -5.7500000000000002e-02 4.7489874660978675e+00 1.0141764706417607e+01 1.2314513600420962e+00 1 0 0
1337 73 7 -5.7500000000000002e-02 4.2786407670873263e+00 1.1362812258015383e+01 7.7511530031056086e-01 1 0 0
1343 73 2 5.7500000000000002e-02 3.3006488220192085e+00 1.3276339190795682e+01 1.3897694417842223e+00 1 0 0
1348 73 3 0.0000000000000000e+00 3.9110564953824118e+00 1.0666953449493015e+01 3.4733375599822400e+00 1 0 0
1349 73 4 -5.7500000000000002e-02 4.6341544548516955e+00 9.8198037219253536e+00 2.5871239868048366e+00 1 0 0
1513 73 6 0.0000000000000000e+00 3.6956701571645789e+00 1.1259474982987049e+01 3.2506317727285916e+00 1 0 0
1356 74 5 -5.7500000000000002e-02 -6.5858788890568221e-01 1.2322283257181653e+01 8.8225701508988461e+00 1 0 0
1354 73 2 5.7500000000000002e-02 1.8785941470980236e+00 1.3036017377462731e+01 5.8991202888474392e+00 1 0 0
1346 73 1 -5.7500000000000002e-02 2.9203309633651733e+00 1.1157050332069270e+01 5.6611231783839662e+00 1 0 0
1347 73 4 -5.7500000000000002e-02 3.6592321098797753e+00 1.0263709009353260e+01 4.7849973673678257e+00 1 0 0
1350 73 1 -5.7500000000000002e-02 2.4634891147457947e+00 1.2410955118522192e+01 5.2401473434349146e+00 1 0 0
1351 73 2 5.7500000000000002e-02 2.7514590200980225e+00 1.0821502459928995e+01 6.6997655272384566e+00 1 0 0
1352 73 2 5.7500000000000002e-02 3.9903145774495794e+00 9.3285488553903750e+00 5.1587578493795911e+00 1 0 0
1345 73 2 5.7500000000000002e-02 5.2917314853039397e+00 9.5659673873383824e+00 5.7105658759957878e-01 1 0 0
1355 74 7 -5.7500000000000002e-02 -4.9778295129735639e-02 1.1427596546261750e+01 7.9464522038133651e+00 1 0 0
1359 74 1 -5.7500000000000002e-02 5.9985979565033887e-01 1.0274229732347854e+01 8.3721975306287870e+00 1 0 0
1360 74 2 5.7500000000000002e-02 -1.3928976883683220e-02 1.1678847092315486e+01 6.9367716208185124e+00 1 0 0
1747 93 4 -5.7500000000000002e-02 -6.3174087786484567e-01 1.3228709407041725e+01 1.3120791528169335e+00 1 0 0
1748 93 3 0.0000000000000000e+00 -7.2903854479314512e-01 1.3801427257552008e+01 2.6473386564970380e+00 1 0 0
1765 94 4 -5.7500000000000002e-02 -5.2131754380861635e+00 1.3760068590971404e+01 8.6167063499629819e+00 1 0 0
1746 93 1 -5.7500000000000002e-02 1.1413027290484329e-01 1.3980355757734420e+01 3.1530047637457981e-01 1 0 0
1008 54 1 -5.7500000000000002e-02 -3.0033077554120196e+00 9.0124034388700291e+00 8.3773946332999021e+00 1 0 0
1749 93 4 -5.7500000000000002e-02 -1.4636969274292109e+00 1.3029840289772213e+01 3.5789300778977249e+00 1 0 0
1342 73 2 5.7500000000000002e-02 4.4285538976994845e+00 1.1694410842245775e+01 -2.0302794483940262e-01 1 0 0
1344 73 2 5.7500000000000002e-02 2.4597876779795853e+00 1.3713117541325206e+01 3.5571985033269824e+00 1 0 0
1737 93 7 -5.7500000000000002e-02 -8.0713414934842120e-01 1.4603590099310214e+01 5.2995192414115246e+00 1 0 0
1740 93 4 -5.7500000000000002e-02 6.9224311996650068e-01 1.5626776482077931e+01 2.0298993681764439e+00 1 0 0
1744 93 2 5.7500000000000002e-02 1.1938641667951346e+00 1.6518474830845122e+01 2.2741780413645047e+00 1 0 0
1768 94 1 -5.7500000000000002e-02 -3.7436242040105374e+00 1.5715738270820649e+01 8.3910754705925950e+00 1 0 0
1750 93 1 -5.7500000000000002e-02 8.3639829171463220e-01 1.5133751114353215e+01 7.5544111826563731e-01 1 0 0
2112 113 2 5.7500000000000002e-02 4.1457875471656003e+00 1.5595458791407680e+01 5.5022197665102475e+00 1 0 0