metadise-generated
  
      8352 atoms
         4 atom types
  
 0.0         46.6143289020 xlo xhi
 0.0         46.6143289020 ylo yhi
 0.0         46.6143289020 zlo zhi
  
Masses
  
         1   87.62000
         2  138.91000
         3   47.88000
         4   16.00000
  
Atoms
  
         1         1         1        1.2000000000      -22.5302589693      -22.5302589693      -18.6457315608
         2         1         1        1.2000000000      -22.5302589693      -22.5302589693      -10.8766767438
         3         1         1        1.2000000000      -22.5302589693      -22.5302589693       -3.1076219268
         4         1         1        1.2000000000      -22.5302589693      -22.5302589693        4.6614328902
         5         1         1        1.2000000000      -22.5302589693      -22.5302589693       12.4304877072
         6         1         1        1.2000000000      -22.5302589693      -22.5302589693       20.1995425242
         7         1         1        1.2000000000      -22.5302589693      -18.6457315608      -18.6457315608
         8         1         1        1.2000000000      -22.5302589693      -18.6457315608      -10.8766767438
         9         1         1        1.2000000000      -22.5302589693      -18.6457315608       -3.1076219268
        10         1         1        1.2000000000      -22.5302589693      -18.6457315608        4.6614328902
        11         1         1        1.2000000000      -22.5302589693      -18.6457315608       12.4304877072
        12         1         1        1.2000000000      -22.5302589693      -18.6457315608       20.1995425242
        13         1         1        1.2000000000      -22.5302589693      -14.7612041523      -18.6457315608
        14         1         1        1.2000000000      -22.5302589693      -14.7612041523      -10.8766767438
        15         1         1        1.2000000000      -22.5302589693      -14.7612041523       -3.1076219268
        16         1         1        1.2000000000      -22.5302589693      -14.7612041523        4.6614328902
        17         1         1        1.2000000000      -22.5302589693      -14.7612041523       12.4304877072
        18         1         1        1.2000000000      -22.5302589693      -14.7612041523       20.1995425242
        19         1         1        1.2000000000      -22.5302589693      -10.8766767438      -18.6457315608
        20         1         1        1.2000000000      -22.5302589693      -10.8766767438      -10.8766767438
        21         1         1        1.2000000000      -22.5302589693      -10.8766767438       -3.1076219268
        22         1         1        1.2000000000      -22.5302589693      -10.8766767438        4.6614328902
        23         1         1        1.2000000000      -22.5302589693      -10.8766767438       12.4304877072
        24         1         1        1.2000000000      -22.5302589693      -10.8766767438       20.1995425242
        25         1         1        1.2000000000      -22.5302589693       -6.9921493353      -18.6457315608
        26         1         1        1.2000000000      -22.5302589693       -6.9921493353      -10.8766767438
        27         1         1        1.2000000000      -22.5302589693       -6.9921493353       -3.1076219268
        28         1         1        1.2000000000      -22.5302589693       -6.9921493353        4.6614328902
        29         1         1        1.2000000000      -22.5302589693       -6.9921493353       12.4304877072
        30         1         1        1.2000000000      -22.5302589693       -6.9921493353       20.1995425242
        31         1         1        1.2000000000      -22.5302589693       -3.1076219268      -18.6457315608
        32         1         1        1.2000000000      -22.5302589693       -3.1076219268      -10.8766767438
        33         1         1        1.2000000000      -22.5302589693       -3.1076219268       -3.1076219268
        34         1         1        1.2000000000      -22.5302589693       -3.1076219268        4.6614328902
        35         1         1        1.2000000000      -22.5302589693       -3.1076219268       12.4304877072
        36         1         1        1.2000000000      -22.5302589693       -3.1076219268       20.1995425242
        37         1         1        1.2000000000      -22.5302589693        0.7769054817      -18.6457315608
        38         1         1        1.2000000000      -22.5302589693        0.7769054817      -10.8766767438
        39         1         1        1.2000000000      -22.5302589693        0.7769054817       -3.1076219268
        40         1         1        1.2000000000      -22.5302589693        0.7769054817        4.6614328902
        41         1         1        1.2000000000      -22.5302589693        0.7769054817       12.4304877072
        42         1         1        1.2000000000      -22.5302589693        0.7769054817       20.1995425242
        43         1         1        1.2000000000      -22.5302589693        4.6614328902      -18.6457315608
        44         1         1        1.2000000000      -22.5302589693        4.6614328902      -10.8766767438
        45         1         1        1.2000000000      -22.5302589693        4.6614328902       -3.1076219268
        46         1         1        1.2000000000      -22.5302589693        4.6614328902        4.6614328902
        47         1         1        1.2000000000      -22.5302589693        4.6614328902       12.4304877072
        48         1         1        1.2000000000      -22.5302589693        4.6614328902       20.1995425242
        49         1         1        1.2000000000      -22.5302589693        8.5459602987      -18.6457315608
        50         1         1        1.2000000000      -22.5302589693        8.5459602987      -10.8766767438
        51         1         1        1.2000000000      -22.5302589693        8.5459602987       -3.1076219268
        52         1         1        1.2000000000      -22.5302589693        8.5459602987        4.6614328902
        53         1         1        1.2000000000      -22.5302589693        8.5459602987       12.4304877072
        54         1         1        1.2000000000      -22.5302589693        8.5459602987       20.1995425242
        55         1         1        1.2000000000      -22.5302589693       12.4304877072      -18.6457315608
        56         1         1        1.2000000000      -22.5302589693       12.4304877072      -10.8766767438
        57         1         1        1.2000000000      -22.5302589693       12.4304877072       -3.1076219268
        58         1         1        1.2000000000      -22.5302589693       12.4304877072        4.6614328902
        59         1         1        1.2000000000      -22.5302589693       12.4304877072       12.4304877072
        60         1         1        1.2000000000      -22.5302589693       12.4304877072       20.1995425242
        61         1         1        1.2000000000      -22.5302589693       16.3150151157      -18.6457315608
        62         1         1        1.2000000000      -22.5302589693       16.3150151157      -10.8766767438
        63         1         1        1.2000000000      -22.5302589693       16.3150151157       -3.1076219268
        64         1         1        1.2000000000      -22.5302589693       16.3150151157        4.6614328902
        65         1         1        1.2000000000      -22.5302589693       16.3150151157       12.4304877072
        66         1         1        1.2000000000      -22.5302589693       16.3150151157       20.1995425242
        67         1         1        1.2000000000      -22.5302589693       20.1995425242      -18.6457315608
        68         1         1        1.2000000000      -22.5302589693       20.1995425242      -10.8766767438
        69         1         1        1.2000000000      -22.5302589693       20.1995425242       -3.1076219268
        70         1         1        1.2000000000      -22.5302589693       20.1995425242        4.6614328902
        71         1         1        1.2000000000      -22.5302589693       20.1995425242       12.4304877072
        72         1         1        1.2000000000      -22.5302589693       20.1995425242       20.1995425242
        73         1         1        1.2000000000      -18.6457315608      -22.5302589693      -18.6457315608
        74         1         1        1.2000000000      -18.6457315608      -22.5302589693      -10.8766767438
        75         1         1        1.2000000000      -18.6457315608      -22.5302589693       -3.1076219268
        76         1         1        1.2000000000      -18.6457315608      -22.5302589693        4.6614328902
        77         1         1        1.2000000000      -18.6457315608      -22.5302589693       12.4304877072
        78         1         1        1.2000000000      -18.6457315608      -22.5302589693       20.1995425242
        79         1         1        1.2000000000      -18.6457315608      -18.6457315608      -18.6457315608
        80         1         1        1.2000000000      -18.6457315608      -18.6457315608      -10.8766767438
        81         1         1        1.2000000000      -18.6457315608      -18.6457315608       -3.1076219268
        82         1         1        1.2000000000      -18.6457315608      -18.6457315608        4.6614328902
        83         1         1        1.2000000000      -18.6457315608      -18.6457315608       12.4304877072
        84         1         1        1.2000000000      -18.6457315608      -18.6457315608       20.1995425242
        85         1         1        1.2000000000      -18.6457315608      -14.7612041523      -18.6457315608
        86         1         1        1.2000000000      -18.6457315608      -14.7612041523      -10.8766767438
        87         1         1        1.2000000000      -18.6457315608      -14.7612041523       -3.1076219268
        88         1         1        1.2000000000      -18.6457315608      -14.7612041523        4.6614328902
        89         1         1        1.2000000000      -18.6457315608      -14.7612041523       12.4304877072
        90         1         1        1.2000000000      -18.6457315608      -14.7612041523       20.1995425242
        91         1         1        1.2000000000      -18.6457315608      -10.8766767438      -18.6457315608
        92         1         1        1.2000000000      -18.6457315608      -10.8766767438      -10.8766767438
        93         1         1        1.2000000000      -18.6457315608      -10.8766767438       -3.1076219268
        94         1         1        1.2000000000      -18.6457315608      -10.8766767438        4.6614328902
        95         1         1        1.2000000000      -18.6457315608      -10.8766767438       12.4304877072
        96         1         1        1.2000000000      -18.6457315608      -10.8766767438       20.1995425242
        97         1         1        1.2000000000      -18.6457315608       -6.9921493353      -18.6457315608
        98         1         1        1.2000000000      -18.6457315608       -6.9921493353      -10.8766767438
        99         1         1        1.2000000000      -18.6457315608       -6.9921493353       -3.1076219268
       100         1         1        1.2000000000      -18.6457315608       -6.9921493353        4.6614328902
       101         1         1        1.2000000000      -18.6457315608       -6.9921493353       12.4304877072
       102         1         1        1.2000000000      -18.6457315608       -6.9921493353       20.1995425242
       103         1         1        1.2000000000      -18.6457315608       -3.1076219268      -18.6457315608
       104         1         1        1.2000000000      -18.6457315608       -3.1076219268      -10.8766767438
       105         1         1        1.2000000000      -18.6457315608       -3.1076219268       -3.1076219268
       106         1         1        1.2000000000      -18.6457315608       -3.1076219268        4.6614328902
       107         1         1        1.2000000000      -18.6457315608       -3.1076219268       12.4304877072
       108         1         1        1.2000000000      -18.6457315608       -3.1076219268       20.1995425242
       109         1         1        1.2000000000      -18.6457315608        0.7769054817      -18.6457315608
       110         1         1        1.2000000000      -18.6457315608        0.7769054817      -10.8766767438
       111         1         1        1.2000000000      -18.6457315608        0.7769054817       -3.1076219268
       112         1         1        1.2000000000      -18.6457315608        0.7769054817        4.6614328902
       113         1         1        1.2000000000      -18.6457315608        0.7769054817       12.4304877072
       114         1         1        1.2000000000      -18.6457315608        0.7769054817       20.1995425242
       115         1         1        1.2000000000      -18.6457315608        4.6614328902      -18.6457315608
       116         1         1        1.2000000000      -18.6457315608        4.6614328902      -10.8766767438
       117         1         1        1.2000000000      -18.6457315608        4.6614328902       -3.1076219268
       118         1         1        1.2000000000      -18.6457315608        4.6614328902        4.6614328902
       119         1         1        1.2000000000      -18.6457315608        4.6614328902       12.4304877072
       120         1         1        1.2000000000      -18.6457315608        4.6614328902       20.1995425242
       121         1         1        1.2000000000      -18.6457315608        8.5459602987      -18.6457315608
       122         1         1        1.2000000000      -18.6457315608        8.5459602987      -10.8766767438
       123         1         1        1.2000000000      -18.6457315608        8.5459602987       -3.1076219268
       124         1         1        1.2000000000      -18.6457315608        8.5459602987        4.6614328902
       125         1         1        1.2000000000      -18.6457315608        8.5459602987       12.4304877072
       126         1         1        1.2000000000      -18.6457315608        8.5459602987       20.1995425242
       127         1         1        1.2000000000      -18.6457315608       12.4304877072      -18.6457315608
       128         1         1        1.2000000000      -18.6457315608       12.4304877072      -10.8766767438
       129         1         1        1.2000000000      -18.6457315608       12.4304877072       -3.1076219268
       130         1         1        1.2000000000      -18.6457315608       12.4304877072        4.6614328902
       131         1         1        1.2000000000      -18.6457315608       12.4304877072       12.4304877072
       132         1         1        1.2000000000      -18.6457315608       12.4304877072       20.1995425242
       133         1         1        1.2000000000      -18.6457315608       16.3150151157      -18.6457315608
       134         1         1        1.2000000000      -18.6457315608       16.3150151157      -10.8766767438
       135         1         1        1.2000000000      -18.6457315608       16.3150151157       -3.1076219268
       136         1         1        1.2000000000      -18.6457315608       16.3150151157        4.6614328902
       137         1         1        1.2000000000      -18.6457315608       16.3150151157       12.4304877072
       138         1         1        1.2000000000      -18.6457315608       16.3150151157       20.1995425242
       139         1         1        1.2000000000      -18.6457315608       20.1995425242      -18.6457315608
       140         1         1        1.2000000000      -18.6457315608       20.1995425242      -10.8766767438
       141         1         1        1.2000000000      -18.6457315608       20.1995425242       -3.1076219268
       142         1         1        1.2000000000      -18.6457315608       20.1995425242        4.6614328902
       143         1         1        1.2000000000      -18.6457315608       20.1995425242       12.4304877072
       144         1         1        1.2000000000      -18.6457315608       20.1995425242       20.1995425242
       145         1         1        1.2000000000      -14.7612041523      -22.5302589693      -18.6457315608
       146         1         1        1.2000000000      -14.7612041523      -22.5302589693      -10.8766767438
       147         1         1        1.2000000000      -14.7612041523      -22.5302589693       -3.1076219268
       148         1         1        1.2000000000      -14.7612041523      -22.5302589693        4.6614328902
       149         1         1        1.2000000000      -14.7612041523      -22.5302589693       12.4304877072
       150         1         1        1.2000000000      -14.7612041523      -22.5302589693       20.1995425242
       151         1         1        1.2000000000      -14.7612041523      -18.6457315608      -18.6457315608
       152         1         1        1.2000000000      -14.7612041523      -18.6457315608      -10.8766767438
       153         1         1        1.2000000000      -14.7612041523      -18.6457315608       -3.1076219268
       154         1         1        1.2000000000      -14.7612041523      -18.6457315608        4.6614328902
       155         1         1        1.2000000000      -14.7612041523      -18.6457315608       12.4304877072
       156         1         1        1.2000000000      -14.7612041523      -18.6457315608       20.1995425242
       157         1         1        1.2000000000      -14.7612041523      -14.7612041523      -18.6457315608
       158         1         1        1.2000000000      -14.7612041523      -14.7612041523      -10.8766767438
       159         1         1        1.2000000000      -14.7612041523      -14.7612041523       -3.1076219268
       160         1         1        1.2000000000      -14.7612041523      -14.7612041523        4.6614328902
       161         1         1        1.2000000000      -14.7612041523      -14.7612041523       12.4304877072
       162         1         1        1.2000000000      -14.7612041523      -14.7612041523       20.1995425242
       163         1         1        1.2000000000      -14.7612041523      -10.8766767438      -18.6457315608
       164         1         1        1.2000000000      -14.7612041523      -10.8766767438      -10.8766767438
       165         1         1        1.2000000000      -14.7612041523      -10.8766767438       -3.1076219268
       166         1         1        1.2000000000      -14.7612041523      -10.8766767438        4.6614328902
       167         1         1        1.2000000000      -14.7612041523      -10.8766767438       12.4304877072
       168         1         1        1.2000000000      -14.7612041523      -10.8766767438       20.1995425242
       169         1         1        1.2000000000      -14.7612041523       -6.9921493353      -18.6457315608
       170         1         1        1.2000000000      -14.7612041523       -6.9921493353      -10.8766767438
       171         1         1        1.2000000000      -14.7612041523       -6.9921493353       -3.1076219268
       172         1         1        1.2000000000      -14.7612041523       -6.9921493353        4.6614328902
       173         1         1        1.2000000000      -14.7612041523       -6.9921493353       12.4304877072
       174         1         1        1.2000000000      -14.7612041523       -6.9921493353       20.1995425242
       175         1         1        1.2000000000      -14.7612041523       -3.1076219268      -18.6457315608
       176         1         1        1.2000000000      -14.7612041523       -3.1076219268      -10.8766767438
       177         1         1        1.2000000000      -14.7612041523       -3.1076219268       -3.1076219268
       178         1         1        1.2000000000      -14.7612041523       -3.1076219268        4.6614328902
       179         1         1        1.2000000000      -14.7612041523       -3.1076219268       12.4304877072
       180         1         1        1.2000000000      -14.7612041523       -3.1076219268       20.1995425242
       181         1         1        1.2000000000      -14.7612041523        0.7769054817      -18.6457315608
       182         1         1        1.2000000000      -14.7612041523        0.7769054817      -10.8766767438
       183         1         1        1.2000000000      -14.7612041523        0.7769054817       -3.1076219268
       184         1         1        1.2000000000      -14.7612041523        0.7769054817        4.6614328902
       185         1         1        1.2000000000      -14.7612041523        0.7769054817       12.4304877072
       186         1         1        1.2000000000      -14.7612041523        0.7769054817       20.1995425242
       187         1         1        1.2000000000      -14.7612041523        4.6614328902      -18.6457315608
       188         1         1        1.2000000000      -14.7612041523        4.6614328902      -10.8766767438
       189         1         1        1.2000000000      -14.7612041523        4.6614328902       -3.1076219268
       190         1         1        1.2000000000      -14.7612041523        4.6614328902        4.6614328902
       191         1         1        1.2000000000      -14.7612041523        4.6614328902       12.4304877072
       192         1         1        1.2000000000      -14.7612041523        4.6614328902       20.1995425242
       193         1         1        1.2000000000      -14.7612041523        8.5459602987      -18.6457315608
       194         1         1        1.2000000000      -14.7612041523        8.5459602987      -10.8766767438
       195         1         1        1.2000000000      -14.7612041523        8.5459602987       -3.1076219268
       196         1         1        1.2000000000      -14.7612041523        8.5459602987        4.6614328902
       197         1         1        1.2000000000      -14.7612041523        8.5459602987       12.4304877072
       198         1         1        1.2000000000      -14.7612041523        8.5459602987       20.1995425242
       199         1         1        1.2000000000      -14.7612041523       12.4304877072      -18.6457315608
       200         1         1        1.2000000000      -14.7612041523       12.4304877072      -10.8766767438
       201         1         1        1.2000000000      -14.7612041523       12.4304877072       -3.1076219268
       202         1         1        1.2000000000      -14.7612041523       12.4304877072        4.6614328902
       203         1         1        1.2000000000      -14.7612041523       12.4304877072       12.4304877072
       204         1         1        1.2000000000      -14.7612041523       12.4304877072       20.1995425242
       205         1         1        1.2000000000      -14.7612041523       16.3150151157      -18.6457315608
       206         1         1        1.2000000000      -14.7612041523       16.3150151157      -10.8766767438
       207         1         1        1.2000000000      -14.7612041523       16.3150151157       -3.1076219268
       208         1         1        1.2000000000      -14.7612041523       16.3150151157        4.6614328902
       209         1         1        1.2000000000      -14.7612041523       16.3150151157       12.4304877072
       210         1         1        1.2000000000      -14.7612041523       16.3150151157       20.1995425242
       211         1         1        1.2000000000      -14.7612041523       20.1995425242      -18.6457315608
       212         1         1        1.2000000000      -14.7612041523       20.1995425242      -10.8766767438
       213         1         1        1.2000000000      -14.7612041523       20.1995425242       -3.1076219268
       214         1         1        1.2000000000      -14.7612041523       20.1995425242        4.6614328902
       215         1         1        1.2000000000      -14.7612041523       20.1995425242       12.4304877072
       216         1         1        1.2000000000      -14.7612041523       20.1995425242       20.1995425242
       217         1         1        1.2000000000      -10.8766767438      -22.5302589693      -18.6457315608
       218         1         1        1.2000000000      -10.8766767438      -22.5302589693      -10.8766767438
       219         1         1        1.2000000000      -10.8766767438      -22.5302589693       -3.1076219268
       220         1         1        1.2000000000      -10.8766767438      -22.5302589693        4.6614328902
       221         1         1        1.2000000000      -10.8766767438      -22.5302589693       12.4304877072
       222         1         1        1.2000000000      -10.8766767438      -22.5302589693       20.1995425242
       223         1         1        1.2000000000      -10.8766767438      -18.6457315608      -18.6457315608
       224         1         1        1.2000000000      -10.8766767438      -18.6457315608      -10.8766767438
       225         1         1        1.2000000000      -10.8766767438      -18.6457315608       -3.1076219268
       226         1         1        1.2000000000      -10.8766767438      -18.6457315608        4.6614328902
       227         1         1        1.2000000000      -10.8766767438      -18.6457315608       12.4304877072
       228         1         1        1.2000000000      -10.8766767438      -18.6457315608       20.1995425242
       229         1         1        1.2000000000      -10.8766767438      -14.7612041523      -18.6457315608
       230         1         1        1.2000000000      -10.8766767438      -14.7612041523      -10.8766767438
       231         1         1        1.2000000000      -10.8766767438      -14.7612041523       -3.1076219268
       232         1         1        1.2000000000      -10.8766767438      -14.7612041523        4.6614328902
       233         1         1        1.2000000000      -10.8766767438      -14.7612041523       12.4304877072
       234         1         1        1.2000000000      -10.8766767438      -14.7612041523       20.1995425242
       235         1         1        1.2000000000      -10.8766767438      -10.8766767438      -18.6457315608
       236         1         1        1.2000000000      -10.8766767438      -10.8766767438      -10.8766767438
       237         1         1        1.2000000000      -10.8766767438      -10.8766767438       -3.1076219268
       238         1         1        1.2000000000      -10.8766767438      -10.8766767438        4.6614328902
       239         1         1        1.2000000000      -10.8766767438      -10.8766767438       12.4304877072
       240         1         1        1.2000000000      -10.8766767438      -10.8766767438       20.1995425242
       241         1         1        1.2000000000      -10.8766767438       -6.9921493353      -18.6457315608
       242         1         1        1.2000000000      -10.8766767438       -6.9921493353      -10.8766767438
       243         1         1        1.2000000000      -10.8766767438       -6.9921493353       -3.1076219268
       244         1         1        1.2000000000      -10.8766767438       -6.9921493353        4.6614328902
       245         1         1        1.2000000000      -10.8766767438       -6.9921493353       12.4304877072
       246         1         1        1.2000000000      -10.8766767438       -6.9921493353       20.1995425242
       247         1         1        1.2000000000      -10.8766767438       -3.1076219268      -18.6457315608
       248         1         1        1.2000000000      -10.8766767438       -3.1076219268      -10.8766767438
       249         1         1        1.2000000000      -10.8766767438       -3.1076219268       -3.1076219268
       250         1         1        1.2000000000      -10.8766767438       -3.1076219268        4.6614328902
       251         1         1        1.2000000000      -10.8766767438       -3.1076219268       12.4304877072
       252         1         1        1.2000000000      -10.8766767438       -3.1076219268       20.1995425242
       253         1         1        1.2000000000      -10.8766767438        0.7769054817      -18.6457315608
       254         1         1        1.2000000000      -10.8766767438        0.7769054817      -10.8766767438
       255         1         1        1.2000000000      -10.8766767438        0.7769054817       -3.1076219268
       256         1         1        1.2000000000      -10.8766767438        0.7769054817        4.6614328902
       257         1         1        1.2000000000      -10.8766767438        0.7769054817       12.4304877072
       258         1         1        1.2000000000      -10.8766767438        0.7769054817       20.1995425242
       259         1         1        1.2000000000      -10.8766767438        4.6614328902      -18.6457315608
       260         1         1        1.2000000000      -10.8766767438        4.6614328902      -10.8766767438
       261         1         1        1.2000000000      -10.8766767438        4.6614328902       -3.1076219268
       262         1         1        1.2000000000      -10.8766767438        4.6614328902        4.6614328902
       263         1         1        1.2000000000      -10.8766767438        4.6614328902       12.4304877072
       264         1         1        1.2000000000      -10.8766767438        4.6614328902       20.1995425242
       265         1         1        1.2000000000      -10.8766767438        8.5459602987      -18.6457315608
       266         1         1        1.2000000000      -10.8766767438        8.5459602987      -10.8766767438
       267         1         1        1.2000000000      -10.8766767438        8.5459602987       -3.1076219268