LAMMPS data file via write_data, version 15 May 2015, timestep = 590000

4560 atoms
7 atom types
5040 bonds
3 bond types
7200 angles
2 angle types
10560 dihedrals
3 dihedral types
2400 impropers
1 improper types

-1.0763502675555259e-01 4.1387635026745990e+01 xlo xhi
-4.0433884491974936e-02 3.5938433884472119e+01 ylo yhi
-3.5711112484589691e-01 2.9555111124838550e+01 zlo zhi
-6.7234083837551181e-02 -1.7036217651000683e+01 -4.1707816797290791e-02 xy xz yz

Masses

1 12.0107
2 1.008
3 12.0107
4 12.0107
5 12.0107
6 12.0107
7 12.0107

Pair Coeffs # lj/cut/coul/long

1 0.04204 3.55
2 0.01802 2.42
3 0.04204 3.55
4 0.04204 3.55
5 0.04204 3.55
6 0 0
7 0.04204 3.55

Bond Coeffs # harmonic

1 469 1.4
2 367 1.08
3 469 0.7

Angle Coeffs # harmonic

1 35 120
2 63 120

Dihedral Coeffs # opls

1 0 7.25 0 0
2 0 7.25 0 0
3 0 7.25 0 0

Improper Coeffs # cvff

1 2.5 -1 2

Atoms # full

219 13 3 0.0000000000000000e+00 -2.4178846131403198e-01 3.0720516656245271e+00 3.1566971380086799e+00 1 0 0
220 13 4 -1.1500000000000000e-01 3.1364811013027394e-01 4.1091028336538606e+00 2.3504847208942734e+00 1 0 0
224 13 2 1.1500000000000000e-01 5.1802309963379534e-01 5.0881324622449231e+00 2.7757693962360426e+00 1 0 0
580 33 4 -1.1500000000000000e-01 2.6673479263158169e+00 6.7676018007875181e+00 3.9922755651489039e+00 1 0 0
228 13 3 0.0000000000000000e+00 -4.4675000349284266e-01 1.7993871193044235e+00 2.6545149338254790e+00 1 0 0
989 53 4 -1.1500000000000000e-01 -1.3705903022111876e+00 7.0502536112495999e+00 3.5252071010019246e+00 1 0 0
600 34 2 1.1500000000000000e-01 2.4154648759788877e-01 5.6992114680511365e+00 6.9082567310534282e+00 1 0 0
245 14 4 -1.1500000000000000e-01 -4.9205436898266530e+00 1.4421559359639238e+00 9.0639296413053874e+00 1 0 0
227 13 4 -1.1500000000000000e-01 -1.8665712519083044e-01 1.5533579985618429e+00 1.2781862508990871e+00 1 0 0
4390 233 1 -1.1500000000000000e-01 2.5532799587967698e+00 8.1362245284371393e-01 5.5259434673024437e+00 1 1 0
733 13 6 0.0000000000000000e+00 -4.3777539034097179e-01 2.4585701793423267e+00 2.9377721005031328e+00 1 0 0
1064 57 2 1.1500000000000000e-01 7.2976884583654273e+00 6.3277087394162015e+00 9.9742462323323733e-01 1 0 0
230 13 1 -1.1500000000000000e-01 7.0419340196908842e-01 3.8122961921212659e+00 1.0111407033068736e+00 1 0 0
217 13 7 -1.1500000000000000e-01 -1.2947055424118945e+00 2.3979009674241847e+00 5.1972575360447149e+00 1 0 0
218 13 5 -1.1500000000000000e-01 -6.0459859309772090e-01 3.3907541149467306e+00 4.4988071753399002e+00 1 0 0
221 13 1 -1.1500000000000000e-01 -1.6044762857678354e+00 1.1409610215798112e+00 4.6181623785702230e+00 1 0 0
222 13 2 1.1500000000000000e-01 -1.6585381222592770e+00 2.6383596246233854e+00 6.1818963567394833e+00 1 0 0
223 13 2 1.1500000000000000e-01 -2.8394775800772543e-01 4.4419528616228892e+00 4.9025565529766153e+00 1 0 0
248 14 1 -1.1500000000000000e-01 -3.5889908715183179e+00 3.4693595042962539e+00 8.6569041577079755e+00 1 0 0
4380 233 4 -1.1500000000000000e-01 2.5783401673925552e+00 1.1078272577430102e+00 4.1617013874115809e+00 1 1 0
244 14 1 -1.1500000000000000e-01 -4.1717351403458203e+00 2.2579285655737080e+00 8.1955033731668152e+00 1 0 0
603 34 2 1.1500000000000000e-01 1.0298066402577488e+00 3.5226668470123315e+00 7.6909413816909762e+00 1 0 0
4396 234 5 -1.1500000000000000e-01 -7.5126190139486049e-01 1.9667049534277689e-01 9.2386819320534492e+00 1 1 0
4394 233 2 1.1500000000000000e-01 2.1129906249020878e+00 1.4471336418099032e+00 6.1749996700189111e+00 1 1 0
579 33 3 0.0000000000000000e+00 3.3663052423131701e+00 5.8504499282009679e+00 3.1963075060143602e+00 1 0 0
252 14 2 1.1500000000000000e-01 -3.0868583965366421e+00 4.1288653885052371e+00 8.0018055771907299e+00 1 0 0
581 33 1 -1.1500000000000000e-01 4.6316826583597539e+00 4.0016962302339047e+00 1.4647516654512953e+00 1 0 0
596 34 5 -1.1500000000000000e-01 -5.3970424137197970e-01 6.3419699501822482e+00 8.8950119131116914e+00 1 0 0
577 33 7 -1.1500000000000000e-01 4.1134703506161987e+00 5.1624333065606729e+00 9.5150165230651518e-01 1 0 0
588 33 3 0.0000000000000000e+00 3.8852397126612419e+00 4.6876544969772063e+00 3.7402289731895806e+00 1 0 0
589 33 4 -1.1500000000000000e-01 4.5111820370595970e+00 3.7379949848038416e+00 2.8567529433760352e+00 1 0 0
593 33 2 1.1500000000000000e-01 4.9112281858836475e+00 2.8360297518142756e+00 3.2655720083593800e+00 1 0 0
753 33 6 0.0000000000000000e+00 3.6423774189573854e+00 5.1969342274410346e+00 3.2994524602992832e+00 1 0 0
4383 233 2 1.1500000000000000e-01 3.0139838597152089e+00 1.4396702040744902e+00 1.5796265494172854e+00 1 1 0
4379 233 3 0.0000000000000000e+00 3.2891906143642373e+00 2.6806403261039763e-01 3.2685101199627549e+00 1 1 0
578 33 5 -1.1500000000000000e-01 3.5000911719284415e+00 6.1061133907895808e+00 1.8121372593259957e+00 1 0 0
226 13 1 -1.1500000000000000e-01 3.9843008787417422e-01 2.5456557336093537e+00 4.7996864940084971e-01 1 0 0
4384 233 2 1.1500000000000000e-01 2.1764646695316632e+00 2.0034418783082888e+00 3.8493078691670917e+00 1 1 0
586 33 1 -1.1500000000000000e-01 3.2079085126911751e+00 5.3767387483428974e+00 5.9231921901203153e+00 1 0 0
587 33 4 -1.1500000000000000e-01 3.7856867510661694e+00 4.4165780197915332e+00 5.1637478785500797e+00 1 0 0
585 33 2 1.1500000000000000e-01 5.1478794396611649e+00 3.2506043967666263e+00 9.8366003364566712e-01 1 0 0
591 33 2 1.1500000000000000e-01 3.1152146143792789e+00 5.2013075429241811e+00 6.9752231896019783e+00 1 0 0
592 33 2 1.1500000000000000e-01 4.1692778243264721e+00 3.4778137951378780e+00 5.4976956007111122e+00 1 0 0
590 33 1 -1.1500000000000000e-01 2.6433052835139463e+00 6.5894585070468281e+00 5.4032831740468179e+00 1 0 0
993 53 2 1.1500000000000000e-01 -1.9016647231735437e+00 6.2644757957728796e+00 3.1057862206413676e+00 1 0 0
234 13 2 1.1500000000000000e-01 1.3231482859562758e+00 4.4800363331364048e+00 4.2178939586191599e-01 1 0 0
229 13 4 -1.1500000000000000e-01 -1.2134617303990098e+00 8.6522619159303482e-01 3.3304152939797467e+00 1 0 0
1769 94 2 1.1500000000000000e-01 -4.0395048848750035e+00 1.4145810959264095e+01 6.8511123669913943e+00 1 0 0
985 53 2 1.1500000000000000e-01 -2.0054471725468925e+00 6.6677762960374238e+00 5.5360184028234789e+00 1 0 0
599 34 1 -1.1500000000000000e-01 5.1456373891209761e-01 4.2024182402750627e+00 8.3726034381440630e+00 1 0 0
4401 234 2 1.1500000000000000e-01 -1.1733678652006070e+00 1.1072758143331309e+00 9.0070205768632849e+00 1 1 0
225 13 2 1.1500000000000000e-01 -2.1455489466292064e+00 3.2254728837600216e-01 5.1350980639124346e+00 1 0 0
595 34 7 -1.1500000000000000e-01 8.3600403921030519e-02 5.4646833599700120e+00 7.9777241134614840e+00 1 0 0
981 53 1 -1.1500000000000000e-01 -1.4769085261900170e+00 7.2664972844931599e+00 4.9502399265961312e+00 1 0 0
4378 233 5 -1.1500000000000000e-01 3.4300689002361882e+00 5.1743294903246240e-01 1.9072882661298696e+00 1 1 0
582 33 2 1.1500000000000000e-01 4.1045900200642835e+00 5.3734655892317029e+00 -1.2444940290026846e-01 1 0 0
583 33 2 1.1500000000000000e-01 3.0959486745554683e+00 6.9604787273117585e+00 1.3216399061634927e+00 1 0 0
1342 73 2 1.1500000000000000e-01 4.6996003533671109e+00 1.1785815310704560e+01 -1.6314259069237144e-01 1 0 0
232 13 2 1.1500000000000000e-01 -3.0260651214617768e-01 5.9680478974107054e-01 7.6610723561438498e-01 1 0 0
235 14 7 -1.1500000000000000e-01 -5.1761891792195209e+00 2.2501701271260535e+00 1.3222989548889132e+01 1 0 0
236 14 5 -1.1500000000000000e-01 -4.5413776713624099e+00 3.1411790263546995e+00 1.2326625259805915e+01 1 0 0
597 34 3 0.0000000000000000e+00 -6.7131114450152030e-01 5.9128535861738696e+00 1.0202280571744303e+01 1 0 0
734 14 6 0.0000000000000000e+00 -4.6367632557048282e+00 2.3426101824126127e+00 1.0500228500124621e+01 1 0 0
239 14 1 -1.1500000000000000e-01 -5.7744251962687976e+00 1.0583522519143713e+00 1.2671054624998568e+01 1 0 0
240 14 2 1.1500000000000000e-01 -5.1987407059671700e+00 2.4651783963400149e+00 1.4275055595662835e+01 1 0 0
243 14 2 1.1500000000000000e-01 -6.2054515913297568e+00 2.5562479996175003e-01 1.3330720348491651e+01 1 0 0
237 14 3 0.0000000000000000e+00 -4.4496980289165098e+00 2.8793440323632740e+00 1.0906758940221346e+01 1 0 0
4402 234 2 1.1500000000000000e-01 -1.9819902736105632e+00 1.6998311395186296e+00 1.1115707521403127e+01 1 1 0
249 14 2 1.1500000000000000e-01 -4.0304789570031092e+00 2.0022179596943719e+00 7.1435787883277806e+00 1 0 0
242 14 2 1.1500000000000000e-01 -3.1563046881480172e+00 4.5155559109131786e+00 1.0456138498555593e+01 1 0 0
4408 234 1 -1.1500000000000000e-01 -1.9629992006097803e+00 2.9254756214311434e-01 1.2681630912455404e+01 1 1 0
238 14 4 -1.1500000000000000e-01 -3.7092170683565189e+00 3.7471059885478870e+00 1.0025106657601887e+01 1 0 0
246 14 3 0.0000000000000000e+00 -5.0739071400658116e+00 1.7531384812383073e+00 1.0421581331228152e+01 1 0 0
604 34 1 -1.1500000000000000e-01 -9.2687069042624071e-01 4.9775238749650015e+00 1.2854544968515304e+01 1 0 0
605 34 4 -1.1500000000000000e-01 -4.0749185172673030e-01 4.1035105701831220e+00 1.1870122967491493e+01 1 0 0
606 34 3 0.0000000000000000e+00 -1.8836882830915158e-01 4.6213705589310683e+00 1.0556065817327568e+01 1 0 0
607 34 4 -1.1500000000000000e-01 4.0080164354120207e-01 3.7620262492817007e+00 9.6269552464423498e+00 1 0 0
611 34 2 1.1500000000000000e-01 7.9345384418530962e-01 2.8240340487658142e+00 9.9108740214904785e+00 1 0 0
610 34 2 1.1500000000000000e-01 -1.8678207788846102e-01 3.0847390279619682e+00 1.2098207999054122e+01 1 0 0
241 14 2 1.1500000000000000e-01 -3.9445712807590145e+00 3.9912088088377149e+00 1.2698874438510089e+01 1 0 0
2513 133 2 1.1500000000000000e-01 -1.5126706621978372e+00 1.7813780629679716e+01 3.1689288501222519e+00 1 0 0
598 34 4 -1.1500000000000000e-01 -1.1531757570519430e+00 6.7857259931933642e+00 1.1213808095019504e+01 1 0 0
754 34 6 0.0000000000000000e+00 -4.5370544046481953e-01 5.2745169697217378e+00 1.0515344824712066e+01 1 0 0
609 34 2 1.1500000000000000e-01 -1.1439053000027366e+00 4.6798804291127150e+00 1.3940534117128655e+01 1 0 0
4398 234 4 -1.1500000000000000e-01 -1.6097652825216002e+00 7.3546629091568683e-01 1.1413176154295570e+01 1 1 0
4412 234 2 1.1500000000000000e-01 -2.4627918841710450e+00 9.3521817937612384e-01 1.3430616524296529e+01 1 1 0
247 14 4 -1.1500000000000000e-01 -5.7442504222457051e+00 8.7541483999720937e-01 1.1262488955057664e+01 1 0 0
608 34 1 -1.1500000000000000e-01 -1.2763849222195693e+00 6.3063591582592151e+00 1.2534497726137316e+01 1 0 0
612 34 2 1.1500000000000000e-01 -1.7892596195006805e+00 6.8757336635527624e+00 1.3331555436475355e+01 1 0 0
979 53 3 0.0000000000000000e+00 -8.9653741712321988e-02 9.1168307746364317e+00 3.3065985244047535e+00 1 0 0
980 53 4 -1.1500000000000000e-01 5.7192507240410873e-01 1.0016214475150882e+01 2.5090712095635799e+00 1 0 0
984 53 2 1.1500000000000000e-01 9.7597175374753586e-01 1.0831266260516969e+01 2.9455703702109655e+00 1 0 0
1361 74 2 1.1500000000000000e-01 -1.2800554051044211e+00 1.3129378668660722e+01 8.5737414106146712e+00 1 0 0
990 53 1 -1.1500000000000000e-01 6.5947667272788901e-01 9.8377958233284239e+00 1.0570618049801106e+00 1 0 0
2253 93 6 0.0000000000000000e+00 -3.7265869061428147e-01 1.4253741322263542e+01 2.9975165993020512e+00 1 0 0
1493 53 6 0.0000000000000000e+00 -5.7947455046617669e-01 8.6710912783085607e+00 2.9675064859976303e+00 1 0 0
986 53 1 -1.1500000000000000e-01 -9.0533962626668962e-02 8.8328999206079484e+00 4.9516406539768543e-01 1 0 0
1005 54 4 -1.1500000000000000e-01 -4.5272424968288236e+00 7.2058183462164074e+00 8.8818018318200220e+00 1 0 0
994 53 2 1.1500000000000000e-01 1.3571160737033545e+00 1.0396221617761348e+01 4.2362657724232800e-01 1 0 0
594 33 2 1.1500000000000000e-01 2.2585751322924397e+00 7.3376432399364804e+00 6.0318801873069434e+00 1 0 0
1741 93 1 -1.1500000000000000e-01 -1.5727329734793938e+00 1.3473822515930213e+01 4.9101918208423916e+00 1 0 0
977 53 7 -1.1500000000000000e-01 -8.1575769367453699e-01 8.3549450006647206e+00 5.5045009415618615e+00 1 0 0
978 53 5 -1.1500000000000000e-01 -1.7152546961452497e-01 9.2781766177746494e+00 4.7302059450665963e+00 1 0 0
982 53 2 1.1500000000000000e-01 -8.5839095539017540e-01 8.5026797256016451e+00 6.5774364678988748e+00 1 0 0
983 53 2 1.1500000000000000e-01 2.8257381028852224e-01 1.0064875886353226e+01 5.3042777438544748e+00 1 0 0
1012 54 2 1.1500000000000000e-01 -2.5051878677199251e+00 9.6857992505900725e+00 7.7195241388261806e+00 1 0 0
1004 54 1 -1.1500000000000000e-01 -3.7121115349500382e+00 7.9294899455452752e+00 7.9462546622720360e+00 1 0 0
1363 74 2 1.1500000000000000e-01 1.0301616561909768e+00 9.6458066723277973e+00 7.6949849267880044e+00 1 0 0
1745 93 2 1.1500000000000000e-01 -2.1070166141769575e+00 1.2848142913298105e+01 5.6482093930717667e+00 1 0 0
1008 54 1 -1.1500000000000000e-01 -3.1504583262788124e+00 9.1668775371285456e+00 8.2705978983999433e+00 1 0 0
1338 73 5 -1.1500000000000000e-01 3.6424966589681516e+00 1.2278337190562947e+01 1.6549062071917700e+00 1 0 0
1339 73 3 0.0000000000000000e+00 3.4929656813050824e+00 1.1877237718955291e+01 3.0049414996488442e+00 1 0 0
1340 73 4 -1.1500000000000000e-01 2.8151035661318340e+00 1.2775716609565224e+01 3.9155886058458682e+00 1 0 0
1341 73 1 -1.1500000000000000e-01 4.8555532433700552e+00 1.0153294085060406e+01 1.2688997042969148e+00 1 0 0
1337 73 7 -1.1500000000000000e-01 4.3907734681772013e+00 1.1398061159535789e+01 7.9017179904333368e-01 1 0 0
1343 73 2 1.1500000000000000e-01 3.3507260158720316e+00 1.3285368780417201e+01 1.3045181319982573e+00 1 0 0
988 53 3 0.0000000000000000e+00 -7.1207271197142119e-01 8.0297074584527923e+00 2.7044521621949231e+00 1 0 0
1348 73 3 0.0000000000000000e+00 3.8990685629513773e+00 1.0652841621186255e+01 3.4464770479463329e+00 1 0 0
1349 73 4 -1.1500000000000000e-01 4.6392089563855485e+00 9.8227836308340404e+00 2.6110892245695942e+00 1 0 0
1353 73 2 1.1500000000000000e-01 5.0392425575867730e+00 8.9493119496532803e+00 2.9539500422126697e+00 1 0 0
1513 73 6 0.0000000000000000e+00 3.6826321307819021e+00 1.1296812020587417e+01 3.2465834389615056e+00 1 0 0
1356 74 5 -1.1500000000000000e-01 -6.6340700487438120e-01 1.2333939344400182e+01 8.8372755017409528e+00 1 0 0
1354 73 2 1.1500000000000000e-01 2.1921007267302959e+00 1.3033379397538894e+01 5.9998043389233668e+00 1 0 0
1346 73 1 -1.1500000000000000e-01 3.0144737983644814e+00 1.1083304471222855e+01 5.6363953081003659e+00 1 0 0
1347 73 4 -1.1500000000000000e-01 3.6413921087557375e+00 1.0231326257362619e+01 4.7792416388933958e+00 1 0 0
1350 73 1 -1.1500000000000000e-01 2.6600225546398617e+00 1.2423800078029350e+01 5.2668821071745544e+00 1 0 0
1351 73 2 1.1500000000000000e-01 2.7961566726710450e+00 1.0817055110435817e+01 6.6179073685767769e+00 1 0 0
1352 73 2 1.1500000000000000e-01 3.9324521091025373e+00 9.2460412820277913e+00 5.0724246053198732e+00 1 0 0
1345 73 2 1.1500000000000000e-01 5.4804043805012723e+00 9.5902700077997149e+00 6.8549559551350758e-01 1 0 0
1355 74 7 -1.1500000000000000e-01 -1.1953050602321724e-01 1.1509545402196403e+01 7.8617045510409120e+00 1 0 0
1359 74 1 -1.1500000000000000e-01 5.2684612386658713e-01 1.0323506019591031e+01 8.3330301750707978e+00 1 0 0
1360 74 2 1.1500000000000000e-01 -2.2769694085547609e-01 1.1764519424528086e+01 6.8205193945383993e+00 1 0 0
1747 93 4 -1.1500000000000000e-01 -6.2717373825456391e-01 1.3215275732923427e+01 1.2908974520402077e+00 1 0 0
1748 93 3 0.0000000000000000e+00 -7.1270492668282570e-01 1.3718482489995431e+01 2.6395244025248332e+00 1 0 0
601 34 2 1.1500000000000000e-01 -1.0214510064382525e+00 7.2042383968305534e+00 8.5380663836782222e+00 1 0 0
1756 94 5 -1.1500000000000000e-01 -4.6168927074451265e+00 1.5177848657695430e+01 1.2010585796319754e+01 1 0 0
1746 93 1 -1.1500000000000000e-01 1.1615853867456161e-01 1.3909120075274345e+01 3.2858395217821168e-01 1 0 0
584 33 2 1.1500000000000000e-01 2.1445281556777300e+00 7.5085114547127585e+00 3.4502643034939773e+00 1 0 0
1765 94 4 -1.1500000000000000e-01 -5.1897400246953769e+00 1.3759617094699680e+01 8.6259037372434140e+00 1 0 0
1749 93 4 -1.1500000000000000e-01 -1.4772509015275077e+00 1.3039229248171633e+01 3.5884113657256540e+00 1 0 0
2129 114 2 1.1500000000000000e-01 -2.6509092588639760e-01 1.7163770429125826e+01 1.3817726253980483e+01 1 0 0
1344 73 2 1.1500000000000000e-01 2.4207998612765560e+00 1.3807598231285837e+01 3.6815420623162378e+00 1 0 0
1009 54 2 1.1500000000000000e-01 -3.5159837033333918e+00 7.4177679140881621e+00 6.9888059621509724e+00 1 0 0
987 53 4 -1.1500000000000000e-01 -8.0003587161902678e-01 7.9784370071893846e+00 1.3254180617997287e+00 1 0 0
995 54 7 -1.1500000000000000e-01 -5.2609756381210442e+00 8.8658759233613988e+00 1.2697289400630108e+01 1 0 0
996 54 5 -1.1500000000000000e-01 -4.5091830693817680e+00 9.5504287205009852e+00 1.1759445224746180e+01 1 0 0
997 54 3 0.0000000000000000e+00 -4.1956519986829743e+00 8.9980650683539594e+00 1.0523375343384632e+01 1 0 0
1001 54 2 1.1500000000000000e-01 -4.1859436604685776e+00 1.0589913925707370e+01 1.1968313091131600e+01 1 0 0
1371 74 2 1.1500000000000000e-01 1.0244649960621119e+00 9.1955703823587189e+00 1.0218213073752707e+01 1 0 0
1357 74 3 0.0000000000000000e+00 -6.7553939486742021e-01 1.2122983670048665e+01 1.0218683842123671e+01 1 0 0
1767 94 4 -1.1500000000000000e-01 -6.0107863827634560e+00 1.3060831684251337e+01 1.0860893942277484e+01 1 0 0
998 54 4 -1.1500000000000000e-01 -3.2682206962349341e+00 9.6113290208670765e+00 9.6311477303256350e+00 1 0 0
1494 54 6 0.0000000000000000e+00 -4.5487575744776807e+00 8.3992434101285234e+00 1.0311895590501729e+01 1 0 0
1362 74 2 1.1500000000000000e-01 -1.7576050464904389e+00 1.3923537338043483e+01 1.0805969127633405e+01 1 0 0
1003 54 2 1.1500000000000000e-01 -6.5609020928653319e+00 7.2950057181851378e+00 1.3037612130072262e+01 1 0 0
999 54 1 -1.1500000000000000e-01 -5.9405781574819727e+00 7.7038054830043965e+00 1.2295531583579860e+01 1 0 0
1372 74 2 1.1500000000000000e-01 -1.9018095585339472e+00 1.3319329952908632e+01 1.3055981606953798e+01 1 0 0
1514 74 6 0.0000000000000000e+00 -2.5554021137260641e-01 1.1639627923018972e+01 1.0542907553332721e+01 1 0 0
602 34 2 1.1500000000000000e-01 -1.5719613867595399e+00 7.8081868306048765e+00 1.0980909632541678e+01 1 0 0
1358 74 4 -1.1500000000000000e-01 -1.2902790383729208e+00 1.3053625055014738e+01 1.1113982986450925e+01 1 0 0
1364 74 1 -1.1500000000000000e-01 -6.9954129387375730e-01 1.1474022986539358e+01 1.2869819422433105e+01 1 0 0
1365 74 4 -1.1500000000000000e-01 -1.1118860338542991e-01 1.0584573987551975e+01 1.2027312677872185e+01 1 0 0
1366 74 3 0.0000000000000000e+00 -1.0541030535672480e-01 1.0929692336023770e+01 1.0669706816748281e+01 1 0 0
1759 94 1 -1.1500000000000000e-01 -6.0602272789161642e+00 1.3249814817649161e+01 1.2252779474900638e+01 1 0 0
1368 74 1 -1.1500000000000000e-01 -1.3297694862351053e+00 1.2661512634671942e+01 1.2461473856755022e+01 1 0 0
1369 74 2 1.1500000000000000e-01 -6.8102360227555980e-01 1.1130809194744511e+01 1.3927562461160557e+01 1 0 0
1370 74 2 1.1500000000000000e-01 2.7965098952776657e-01 9.5837950356467587e+00 1.2389822032620433e+01 1 0 0
1378 75 2 1.1500000000000000e-01 -4.0041354627314760e+00 1.1776842743813971e+01 1.3989800104194529e+01 1 0 0
1000 54 2 1.1500000000000000e-01 -5.4602648192512380e+00 9.4378863860465518e+00 1.3601181265494972e+01 1 0 0
1766 94 3 0.0000000000000000e+00 -5.2609987730736520e+00 1.3941847877458207e+01 1.0041779774581540e+01 1 0 0
1006 54 3 0.0000000000000000e+00 -4.7962517587051146e+00 7.7703789088402466e+00 1.0157394699882564e+01 1 0 0
1763 94 2 1.1500000000000000e-01 -6.5382017671147885e+00 1.2519259386604334e+01 1.2872192919545970e+01 1 0 0
1367 74 4 -1.1500000000000000e-01 5.6881217965453335e-01 1.0077387217961348e+01 9.7691208720353728e+00 1 0 0
1002 54 2 1.1500000000000000e-01 -2.7256809303165936e+00 1.0555122639106925e+01 9.9647350811033508e+00 1 0 0
1755 94 7 -1.1500000000000000e-01 -5.3546130142382289e+00 1.4287591306880030e+01 1.2795172838131768e+01 1 0 0
1007 54 4 -1.1500000000000000e-01 -5.7116386174573082e+00 7.1513510789092916e+00 1.1037174604465251e+01 1 0 0
1737 93 7 -1.1500000000000000e-01 -8.8922946239531742e-01 1.4675327108722488e+01 5.3408704550010349e+00 1 0 0
1740 93 4 -1.1500000000000000e-01 6.7731478524534405e-01 1.5590918255749191e+01 2.0406077142900614e+00 1 0 0
1744 93 2 1.1500000000000000e-01 1.2442703001170234e+00 1.6474835599534845e+01 2.2131352297059679e+00 1 0 0
1768 94 1 -1.1500000000000000e-01 -3.6017820331827362e+00 1.5599378935249906e+01 8.3795417685885649e+00 1 0 0
1750 93 1 -1.1500000000000000e-01 6.6418580175893449e-01 1.5176565662952910e+01 7.2058099409853682e-01 1 0 0
2112 113 2 1.1500000000000000e-01 3.9306258783744070e+00 1.5530871124549570e+01 5.5262747633881890e+00 1 0 0
2119 114 1 -1.1500000000000000e-01 7.2448320101299402e-01 1.5842217776045706e+01 8.1795396044084221e+00 1 0 0
2131 114 2 1.1500000000000000e-01 9.8136453166475501e-01 1.4531862440994724e+01 9.8779321259592692e+00 1 0 0
1743 93 2 1.1500000000000000e-01 3.5206341773403338e-01 1.6294703921851124e+01 4.5815004988115566e+00 1 0 0
2127 114 4 -1.1500000000000000e-01 6.2200377667805640e-01 1.5505099008813465e+01 9.5245336762042196e+00 1 0 0
1772 94 2 1.1500000000000000e-01 -2.9350487526761997e+00 1.6279871252902826e+01 7.8363100368716445e+00 1 0 0
1739 93 3 0.0000000000000000e+00 8.8804391622110401e-04 1.4851230561188634e+01 3.0482665489718408e+00 1 0 0
1754 93 2 1.1500000000000000e-01 1.0429792508208597e+00 1.5781813576129160e+01 -1.2105781526042964e-01 1 0 0
2097 113 7 -1.1500000000000000e-01 4.3453612661260443e+00 1.7349264917175663e+01 1.0589462672750434e+00 1 0 0
1760 94 2 1.1500000000000000e-01 -5.4333235133429874e+00 1.4501202881200502e+01 1.3888846484618373e+01 1 0 0
2101 113 1 -1.1500000000000000e-01 4.7877308795582740e+00 1.6115851395637417e+01 1.6256805577094753e+00 1 0 0
2113 113 2 1.1500000000000000e-01 4.7959553278820639e+00 1.4938040762414056e+01 3.4460375995196415e+00 1 0 0
1738 93 5 -1.1500000000000000e-01 -1.2464694367212470e-01 1.5350541536844702e+01 4.3272536666296224e+00 1 0 0
2108 113 3 0.0000000000000000e+00 3.8167460490469751e+00 1.6768063226358258e+01 3.7463430078225386e+00 1 0 0
2109 113 4 -1.1500000000000000e-01 4.5365886963219388e+00 1.5839810236777959e+01 3.0173394940438003e+00 1 0 0
2273 113 6 0.0000000000000000e+00 3.6504724097424788e+00 1.7338210059746935e+01 3.3928168013833275e+00 1 0 0
2106 113 1 -1.1500000000000000e-01 2.9328442604163052e+00 1.7416373400657431e+01 5.9405125328147053e+00 1 0 0
2107 113 4 -1.1500000000000000e-01 3.5936183229501624e+00 1.6491341362646601e+01 5.1382470127211333e+00 1 0 0
2111 113 2 1.1500000000000000e-01 2.8227961042346035e+00 1.7297940390358470e+01 7.0431339069465597e+00 1 0 0
2115 114 7 -1.1500000000000000e-01 4.9086823687374270e-02 1.7019194354790063e+01 7.6863295241847620e+00 1 0 0
2102 113 2 1.1500000000000000e-01 4.5869209634091908e+00 1.7570424696063419e+01 -2.9314686900756004e-03 1 0 0
2120 114 2 1.1500000000000000e-01 1.4394642040988526e-01 1.7220242032697037e+01 6.6145214386315301e+00 1 0 0
2123 114 2 1.1500000000000000e-01 1.2348216846466489e+00 1.5237478709279412e+01 7.4643073584799016e+00 1 0 0
1758 94 4 -1.1500000000000000e-01 -3.8401711079593648e+00 1.5946880034673651e+01 9.7667065818167558e+00 1 0 0
2105 113 2 1.1500000000000000e-01 5.4023236582648835e+00 1.5416383282543643e+01 1.0671182298238158e+00 1 0 0
1742 93 2 1.1500000000000000e-01 -9.7745524656984983e-01 1.5123198000207925e+01 6.3319181841827650e+00 1 0 0
1764 94 1 -1.1500000000000000e-01 -4.2967958459513493e+00 1.4470830535829389e+01 7.8345017409583555e+00 1 0 0
2117 114 3 0.0000000000000000e+00 -4.4848800656516730e-01 1.7638412133984467e+01 9.9910451351416203e+00 1 0 0
1761 94 2 1.1500000000000000e-01 -4.0027523929934805e+00 1.5942895408036334e+01 1.2484152767415912e+01 1 0 0
2274 114 6 0.0000000000000000e+00 -2.8163248708805622e-01 1.7038915448184152e+01 1.0301332717399902e+01 1 0 0
2254 94 6 0.0000000000000000e+00 -5.0546197867954330e+00 1.4600244406333086e+01 1.0278180620609641e+01 1 0 0
2130 114 2 1.1500000000000000e-01 6.4680013260105440e-01 1.5291621983234405e+01 1.2244492870134673e+01 1 0 0
2124 114 1 -1.1500000000000000e-01 -3.3706157747720678e-01 1.7214389166608225e+01 1.2741961537608809e+01 1 0 0
2125 114 4 -1.1500000000000000e-01 1.9023514670749453e-01 1.6254252534238983e+01 1.1806531791889903e+01 1 0 0
2126 114 3 0.0000000000000000e+00 1.2725910413163710e-01 1.6491027315754920e+01 1.0414971150362662e+01 1 0 0
1011 54 2 1.1500000000000000e-01 -6.1978369544410477e+00 6.2766245561372882e+00 1.0703120283001072e+01 1 0 0
1757 94 3 0.0000000000000000e+00 -4.6183639354532833e+00 1.5040590185933123e+01 1.0609211721241870e+01 1 0 0
2138 115 2 1.1500000000000000e-01 -3.8913732968998183e+00 1.7043870506421612e+01 1.4265826140874371e+01 1 0 0
1762 94 2 1.1500000000000000e-01 -3.2733592458324106e+00 1.6740065706263685e+01 1.0261780697711565e+01 1 0 0
1010 54 2 1.1500000000000000e-01 -4.8517483031852144e+00 6.2447868036040139e+00 8.5771864475890620e+00 1 0 0
1753 93 2 1.1500000000000000e-01 -1.9596142990752807e+00 1.2136088865159529e+01 3.3136982634640209e+00 1 0 0
1027 55 2 1.1500000000000000e-01 -8.4058434899073955e+00 8.2442802782190014e+00 1.4226188173455265e+01 1 0 0
322 18 2 1.1500000000000000e-01 2.7818664803622006e+00 1.1369327960680663e-01 9.0433921743822783e+00 1 0 0
2116 114 5 -1.1500000000000000e-01 -5.2389173371090880e-01 1.7926551601945071e+01 8.6310686116522302e+00 1 0 0
2099 113 3 0.0000000000000000e+00 3.3062717195679117e+00 1.7925036219509671e+01 3.1677381136829501e+00 1 0 0
303 17 2 1.1500000000000000e-01 7.7845698931427165e+00 1.5585508791050948e+00 1.2886906731620867e-01 1 0 0
4416 235 4 -1.1500000000000000e-01 -5.8306388275764043e+00 8.9695720652528910e-01 1.9064176473355413e+01 1 1 0
4420 235 2 1.1500000000000000e-01 -6.1035239877843441e+00 1.8629613460190093e+00 1.8722364429135059e+01 1 1 0
255 15 3 0.0000000000000000e+00 -8.7434679085738409e+00 3.1325107997925175e+00 1.8177976793561054e+01 1 0 0
256 15 4 -1.1500000000000000e-01 -8.0414020493221265e+00 3.8920364046861944e+00 1.7189873523860303e+01 1 0 0
260 15 2 1.1500000000000000e-01 -7.5382861901816902e+00 4.7928332198641792e+00 1.7347171392832724e+01 1 0 0
1063 57 2 1.1500000000000000e-01 -8.7320088803848428e+00 7.8538128976460602e+00 2.9237273026662933e+01 1 0 -1
4414 235 5 -1.1500000000000000e-01 -4.8984686652550931e+00 3.4517876015429583e-01 1.6834697124413974e+01 1 1 0
264 15 3 0.0000000000000000e+00 -9.3791363071973155e+00 1.9069928076795479e+00 1.7816014426164287e+01 1 0 0
262 15 1 -1.1500000000000000e-01 -8.3836677008101148e+00 2.0682362987313834e+00 1.5615749417767816e+01 1 0 0
266 15 1 -1.1500000000000000e-01 -7.7976747720436315e+00 3.3131347337588708e+00 1.5894372658163601e+01 1 0 0
263 15 4 -1.1500000000000000e-01 -9.1717506859208449e+00 1.3704725604322086e+00 1.6528357924094887e+01 1 0 0
735 15 6 0.0000000000000000e+00 -8.9477975485332895e+00 2.4172213075473792e+00 1.8051169610228111e+01 1 0 0
265 15 4 -1.1500000000000000e-01 -1.0058308210955575e+01 1.1198363774385540e+00 1.8744932729425699e+01 1 0 0
2256 96 6 0.0000000000000000e+00 -1.3153557161158885e+01 1.4353570942396450e+01 2.5031084380033498e+01 1 0 0
613 35 7 -1.1500000000000000e-01 -4.6866514721065426e+00 5.5155875921734028e+00 1.6057731491733268e+01 1 0 0
618 35 2 1.1500000000000000e-01 -4.8634961250697808e+00 5.8006167844564152e+00 1.5089876269924236e+01 1 0 0
615 35 3 0.0000000000000000e+00 -5.2751853869904979e+00 5.7778189849852470e+00 1.8447347249014559e+01 1 0 0
617 35 1 -1.1500000000000000e-01 -4.1485807289086685e+00 4.2335618868595324e+00 1.6337870626217118e+01 1 0 0
621 35 2 1.1500000000000000e-01 -3.8333308343296517e+00 3.5829232983753041e+00 1.5512989513254796e+01 1 0 0
624 35 3 0.0000000000000000e+00 -4.7022042974602876e+00 4.5349492043805597e+00 1.8694269420637077e+01 1 0 0
625 35 4 -1.1500000000000000e-01 -4.0224730373183721e+00 3.8123573854144954e+00 1.7644352093506132e+01 1 0 0
629 35 2 1.1500000000000000e-01 -3.4970536576534537e+00 2.8895775064001401e+00 1.7933195846441986e+01 1 0 0
755 35 6 0.0000000000000000e+00 -4.9696181359872602e+00 5.1011393721651279e+00 1.8433131408008762e+01 1 0 0
270 15 2 1.1500000000000000e-01 -7.2765674524151747e+00 3.8034640437266010e+00 1.5061129061611298e+01 1 0 0
614 35 5 -1.1500000000000000e-01 -5.1912508984948591e+00 6.3223410108298257e+00 1.7116539151214006e+01 1 0 0
4419 235 2 1.1500000000000000e-01 -5.2377761818270345e+00 1.2522500753885499e+00 1.6439995440926772e+01 1 1 0
1025 55 4 -1.1500000000000000e-01 -9.8062705647840751e+00 6.7386830315597548e+00 1.8333921322107230e+01 1 0 0
616 35 4 -1.1500000000000000e-01 -5.9546667058331888e+00 6.5502790973979179e+00 1.9374526063029087e+01 1 0 0
269 15 2 1.1500000000000000e-01 -1.0428539834586720e+01 1.3826775766478325e-01 1.8453201939047396e+01 1 0 0
1860 99 2 1.1500000000000000e-01 -1.2380287421691181e+00 1.2809572466066195e+01 1.5732170759518478e+01 1 0 0
254 15 5 -1.1500000000000000e-01 -8.9474980667429058e+00 3.5800542352432161e+00 1.9523055838573264e+01 1 0 0
280 16 1 -1.1500000000000000e-01 -1.2542388800940744e+01 2.2729973921247435e+00 2.3154369777226332e+01 1 0 0
1792 96 5 -1.1500000000000000e-01 -1.3073199898886488e+01 1.5284949526519524e+01 2.6736790756946547e+01 1 0 0
258 15 2 1.1500000000000000e-01 -9.6905403327841615e+00 3.0518204926347754e+00 2.1548767339394530e+01 1 0 0
634 36 4 -1.1500000000000000e-01 -1.0202436799335608e+01 6.4019613332380860e+00 2.6168889211063586e+01 1 0 0
4433 236 3 0.0000000000000000e+00 -9.5748017263098415e+00 1.9336933337146554e-02 2.5596539819001926e+01 1 1 0
257 15 1 -1.1500000000000000e-01 -1.0083637319507774e+01 1.4878486446547945e+00 2.0120198010750727e+01 1 0 0
284 16 1 -1.1500000000000000e-01 -1.2105185937535582e+01 3.5195899682038254e+00 2.3625935450103881e+01 1 0 0
279 16 2 1.1500000000000000e-01 -1.4823891722423063e+01 6.7228963962810662e-01 2.8193569370719729e+01 1 0 0
4436 236 2 1.1500000000000000e-01 -8.9159115063966770e+00 1.0590286700004245e-01 2.2274826024050007e+01 1 1 0