LAMMPS (15 May 2015)
Reading data file ...
  triclinic box = (-0.107635 -0.0404339 -0.357111) to (41.3876 35.9384 29.5551) with tilt (-0.0672341 -17.0362 -0.0417078)
  5 by 2 by 2 MPI processor grid
  reading atoms ...
  4560 atoms
  reading velocities ...
  4560 velocities
  scanning bonds ...
  3 = max bonds/atom
  scanning angles ...
  3 = max angles/atom
  scanning dihedrals ...
  8 = max dihedrals/atom
  scanning impropers ...
  1 = max impropers/atom
  reading bonds ...
  5040 bonds
  reading angles ...
  7200 angles
  reading dihedrals ...
  10560 dihedrals
  reading impropers ...
  2400 impropers
Finding 1-2 1-3 1-4 neighbors ...
 Special bond factors lj:   0          0          0         
 Special bond factors coul: 0          0          0         
  4 = max # of 1-2 neighbors
  8 = max # of 1-3 neighbors
  20 = max # of 1-4 neighbors
  16 = max # of special neighbors
4560 atoms in group all
720 atoms in group C
480 atoms in group S
1920 atoms in group H
720 atoms in group Si
240 atoms in group Na
240 atoms in group Ba
240 atoms in group O
4560 atoms in group naphthalene
1200 atoms in group fixed
960 atoms in group CO
Setting atom values ...
  720 settings made for charge
Setting atom values ...
  720 settings made for charge
Setting atom values ...
  1920 settings made for charge
Setting atom values ...
  480 settings made for charge
Setting atom values ...
  240 settings made for charge
Setting atom values ...
  240 settings made for charge
Setting atom values ...
  240 settings made for charge
Finding 1-2 1-3 1-4 neighbors ...
 Special bond factors lj:   0          0          0.5       
 Special bond factors coul: 0          0          0.5       
  4 = max # of 1-2 neighbors
  8 = max # of 1-3 neighbors
  20 = max # of 1-4 neighbors
  16 = max # of special neighbors
PPPM initialization ...
  G vector (1/distance) = 0.253736
  grid = 20 18 24
  stencil order = 5
  estimated absolute RMS force accuracy = 0.00131269
  estimated relative force accuracy = 3.95312e-06
  using double precision FFTs
  3d grid and FFT values/proc = 3344 720
Neighbor list info ...
  6 neighbor list requests
  update every 1 steps, delay 0 steps, check yes
  master list distance cutoff = 12
Setting up run ...
Memory usage per processor = 14.3555 Mbytes
Step Temp Density PotEng E_vdwl E_tail E_coul E_long Press Volume Xy Xz Yz E_mol E_bond E_angle E_dihed 14[1] 14[2] 14[3] msd[4] msd2[4] msd3[4] msd4[4] naphthal Cella Cellb Cellc CellAlpha CellBeta CellGamma 27[1] 27[2] 27[3] 
       0          298    1.2509986    2556.2581   -704.70854   -127.02807    2133.4636   -2371.3301     -5913.96    44657.537 -0.067234084   -17.036218 -0.041707817     3498.833    1521.0094     935.4334    889.67826    28.379601    18.846571    14.337846 2.3535127e-29 2.7422013e-29 2.2534249e-29 2.2900766e-29          298     41.49527    35.978931    34.423473    90.016431    119.66323    90.107069    28.379761    18.846182    14.337739 
   10000    292.60047    1.2509986    2644.3953   -660.58558   -127.02807    2138.0408   -2371.4191   -1862.3116    44657.537 -0.067234084   -17.036218 -0.041707817    3538.3591    1500.7939    965.42537    912.86206    28.380106     18.84527    14.337712 0.00031834369 0.00031810632 0.00032836785 0.00032804353    292.60047     41.49527    35.978931    34.423473    90.016431    119.66323    90.107069    28.379933    18.846051    14.337302 
   20000    297.14777    1.2509986      2564.99   -667.26128   -127.02807    2134.6585   -2371.7808   -3412.2279    44657.537 -0.067234084   -17.036218 -0.041707817    3469.3736    1504.4796    948.52064     864.5251    28.380563    18.845147    14.336331 0.00032238455 0.00032189348 0.00033116536 0.00033073221    297.14777     41.49527    35.978931    34.423473    90.016431    119.66323    90.107069    28.379525    18.846289    14.337088 
   30000    298.74972    1.2509986    2662.3236   -645.15671   -127.02807    2138.2116   -2371.6187    -1465.419    44657.537 -0.067234084   -17.036218 -0.041707817    3540.8874    1540.1136    945.65991    896.01845    28.380978    18.846084    14.337983 0.00033893277 0.00033862305 0.00034506078 0.00034484668    298.74972     41.49527    35.978931    34.423473    90.016431    119.66323    90.107069    28.379821    18.846472     14.33821 
   40000    294.31674    1.2509986    2649.3973   -657.81735   -127.02807    2134.0508   -2371.8643   -2053.5864    44657.537 -0.067234084   -17.036218 -0.041707817    3545.0281    1507.6183    961.36777     916.3056    28.378859    18.846299    14.337176 0.00033451147 0.00033430818 0.00034400377 0.00034395898    294.31674     41.49527    35.978931    34.423473    90.016431    119.66323    90.107069    28.379562    18.846214    14.337336 
   50000    302.40726    1.2509986    2603.9539   -675.38979   -127.02807    2130.8092   -2371.8387   -4601.6562    44657.537 -0.067234084   -17.036218 -0.041707817    3520.3732    1506.5992    946.14821    913.31443    28.380163    18.846546    14.337653 0.00033762258 0.00033757312 0.00034642203 0.00034638199    302.40726     41.49527    35.978931    34.423473    90.016431    119.66323    90.107069    28.379968    18.846175    14.337658 
   60000    297.33799    1.2509986    2509.7611   -668.71122   -127.02807    2136.4306   -2371.5473   -3193.2721    44657.537 -0.067234084   -17.036218 -0.041707817    3413.5891    1454.6682    925.59863     884.7041    28.380624    18.846323    14.336912 0.00035420715 0.00035392432 0.00035813532 0.00035776835    297.33799     41.49527    35.978931    34.423473    90.016431    119.66323    90.107069    28.379855    18.846698    14.337648 
   70000    294.99314    1.2509986    2580.3245   -682.57677   -127.02807    2132.2142   -2371.6594   -5227.1352    44657.537 -0.067234084   -17.036218 -0.041707817    3502.3464    1516.8017     947.1919    886.12293    28.378868    18.845853    14.337258 0.00033280993 0.00033266681 0.00033549416 0.0003353315    294.99314     41.49527    35.978931    34.423473    90.016431    119.66323    90.107069     28.37942    18.846094      14.3376 
   80000    296.96752    1.2509986    2679.5946    -658.5649   -127.02807    2136.1936   -2371.1857   -2567.7514    44657.537 -0.067234084   -17.036218 -0.041707817    3573.1517    1529.9485    963.35283    923.77599    28.380128    18.844872    14.337412 0.00034411599 0.0003434907 0.00034445768 0.00034371484    296.96752     41.49527    35.978931    34.423473    90.016431    119.66323    90.107069    28.379362    18.846088    14.337063 
   90000    300.42096    1.2509986    2671.3306   -658.64431   -127.02807    2135.1285    -2371.992   -3057.8467    44657.537 -0.067234084   -17.036218 -0.041707817    3566.8384     1520.332    975.88159    914.91118    28.379194    18.846105     14.33709 0.00033506662 0.00033478959 0.00033874662 0.00033850765    300.42096     41.49527    35.978931    34.423473    90.016431    119.66323    90.107069    28.379482    18.846348    14.338153 
  100000    287.91214    1.2509986    2596.0149   -661.95461   -127.02807    2136.9699   -2371.2552   -2922.3511    44657.537 -0.067234084   -17.036218 -0.041707817    3492.2548    1497.1845     936.3075    904.22145    28.379328    18.846671    14.336882 0.00034392825 0.00034382225 0.00034592281 0.00034578356    287.91214     41.49527    35.978931    34.423473    90.016431    119.66323    90.107069    28.379939    18.846406    14.337894 
  110000    296.61539    1.2509986    2601.7017    -672.2186   -127.02807    2140.8123   -2371.3442   -3616.2432    44657.537 -0.067234084   -17.036218 -0.041707817    3504.4522    1527.5229     933.5483    894.95609    28.381655    18.846204    14.337319 0.00033928347 0.00033891412 0.00034139401 0.00034101741    296.61539     41.49527    35.978931    34.423473    90.016431    119.66323    90.107069     28.37995    18.845615    14.337628 
  120000    302.57148    1.2509986    2622.7318    -662.9014   -127.02807    2136.6271   -2371.0757   -4028.7723    44657.537 -0.067234084   -17.036218 -0.041707817    3520.0818    1505.4643    965.84504    894.64959    28.381994    18.845295    14.337692 0.00035463566 0.00035452231 0.00035844185 0.00035825391    302.57148     41.49527    35.978931    34.423473    90.016431    119.66323    90.107069    28.379821    18.845902    14.337562 
  130000    295.91458    1.2509986    2550.2661    -670.7961   -127.02807    2139.0584   -2371.2847   -3530.7221    44657.537 -0.067234084   -17.036218 -0.041707817    3453.2885     1495.574    934.00683    873.43739    28.381822    18.846782     14.33814 0.00033917078 0.00033908481 0.00034562665 0.00034519106    295.91458     41.49527    35.978931    34.423473    90.016431    119.66323    90.107069     28.37964    18.846253    14.337481 
  140000    294.47033    1.2509986    2570.8622   -668.78735   -127.02807    2133.5901   -2371.3931   -4583.9651    44657.537 -0.067234084   -17.036218 -0.041707817    3477.4525    1475.5411    947.75228    899.81989    28.378507    18.846404    14.337167 0.00034068398 0.00034055615 0.00035207039 0.00035186013    294.47033     41.49527    35.978931    34.423473    90.016431    119.66323    90.107069    28.379708    18.846471    14.337943 
  150000    301.42035    1.2509986    2603.6538   -666.35136   -127.02807    2138.5416   -2371.5857   -2715.8735    44657.537 -0.067234084   -17.036218 -0.041707817    3503.0493    1459.1985    966.64377    917.20463    28.378173    18.844205    14.336647 0.00034928599 0.00034911746 0.00035368025 0.00035341953    301.42035     41.49527    35.978931    34.423473    90.016431    119.66323    90.107069    28.379749    18.846202    14.337329 
  160000    295.22716    1.2509986    2665.5936   -670.03805   -127.02807    2136.0371   -2371.3093   -2943.1027    44657.537 -0.067234084   -17.036218 -0.041707817    3570.9039    1526.1394    964.87582    921.11553    28.380627    18.844148    14.337978 0.00034180472 0.00034159223 0.00034010647 0.00033989529    295.22716     41.49527    35.978931    34.423473    90.016431    119.66323    90.107069    28.379893    18.846014    14.338148 
  170000    302.34861    1.2509986    2510.3993   -668.89493   -127.02807    2133.5114   -2371.7791   -3715.4811    44657.537 -0.067234084   -17.036218 -0.041707817    3417.5619    1488.6875    912.42799     868.5139    28.377606    18.846187    14.336742 0.00034736553 0.00034732653 0.00034655854 0.00034638119    302.34861     41.49527    35.978931    34.423473    90.016431    119.66323    90.107069    28.379698    18.846321    14.337613 
  180000    300.94524    1.2509986    2517.6916   -660.47052   -127.02807    2135.1158   -2371.6987   -3220.1637    44657.537 -0.067234084   -17.036218 -0.041707817    3414.7451    1484.1751    903.28553    876.17064    28.378482    18.846634    14.338136 0.00035024623 0.00035011585 0.0003567098 0.00035650584    300.94524     41.49527    35.978931    34.423473    90.016431    119.66323    90.107069     28.37941    18.846267     14.33774 
  190000    301.32408    1.2509986     2521.016   -649.45736   -127.02807    2136.3634   -2371.4431   -2378.4273    44657.537 -0.067234084   -17.036218 -0.041707817    3405.5531    1471.1995    918.14625    871.60121     28.37773    18.847492    14.337653 0.00034365256 0.00034338486 0.00034257039 0.00034208682    301.32408     41.49527    35.978931    34.423473    90.016431    119.66323    90.107069    28.379765    18.845856    14.338141 
  200000    303.20477    1.2509986    2598.3215   -677.89352   -127.02807    2134.4452   -2371.4626   -3786.9647    44657.537 -0.067234084   -17.036218 -0.041707817    3513.2324    1498.6805     963.5687    896.66492    28.379642    18.845732     14.33744 0.00036048165 0.00036016888 0.00036689333 0.00036615988    303.20477     41.49527    35.978931    34.423473    90.016431    119.66323    90.107069    28.379533    18.846693    14.337738 
Loop time of 516.746 on 20 procs for 200000 steps with 4560 atoms

Pair  time (%) = 323.81 (62.6632)
Bond  time (%) = 34.6919 (6.71354)
Kspce time (%) = 113.595 (21.9828)
Neigh time (%) = 5.70993 (1.10498)
Comm  time (%) = 23.8473 (4.6149)
Outpt time (%) = 0.0630514 (0.0122016)
Other time (%) = 15.0286 (2.90833)

Nlocal:    228 ave 241 max 222 min
Histogram: 2 3 5 4 4 1 0 0 0 1
Nghost:    5778.9 ave 5834 max 5736 min
Histogram: 1 2 2 5 4 3 1 0 1 1
Neighs:    84317.5 ave 89597 max 81206 min
Histogram: 2 2 4 4 2 4 1 0 0 1

Total # of neighbors = 1686350
Ave neighs/atom = 369.814
Ave special neighs/atom = 10.6316
Neighbor list builds = 1209
Dangerous builds = 0
System init for write_data ...
PPPM initialization ...
  G vector (1/distance) = 0.253736
  grid = 20 18 24
  stencil order = 5
  estimated absolute RMS force accuracy = 0.00131269
  estimated relative force accuracy = 3.95312e-06
  using double precision FFTs
  3d grid and FFT values/proc = 3344 720
