LAMMPS data file via write_data, version 15 May 2015, timestep = 1009000

2593 atoms
6 atom types
1728 bonds
4 bond types
864 angles
3 angle types
0 dihedrals
3 dihedral types
0 impropers
1 improper types

-1.5007032670958077e+01 1.5007032670958077e+01 xlo xhi
-1.5007032670958077e+01 1.5007032670958077e+01 ylo yhi
-1.5007032670958077e+01 1.5007032670958077e+01 zlo zhi

Masses

1 15.9994
2 1.00794
3 12.0107
4 1.00794
5 12.0107
6 12.0107

Bond Coeffs # harmonic

1 1000 1
2 469 1.4
3 367 1.08
4 469 0.7

Angle Coeffs # harmonic

1 100 109.47
2 35 120
3 63 120

Dihedral Coeffs # opls

1 0 7.25 0 0
2 0 7.25 0 0
3 0 7.25 0 0

Improper Coeffs # cvff

1 2.5 -1 2

Atoms # full

1246 416 1 -8.1999999999999995e-01 -8.2157849443012161e+00 -1.3784876712507348e+01 -1.4024746076225730e+01 0 1 -1
71 24 2 4.0999999999999998e-01 -8.7627412982327115e+00 -7.7416188738837342e+00 -1.0391662376479125e+01 -2 -1 0
2147 716 2 4.0999999999999998e-01 -9.5939647721316490e+00 -7.8460320039621321e+00 -1.2428258661820664e+01 2 4 -1
70 24 1 -8.1999999999999995e-01 -8.8502729533091760e+00 -8.5421343483377932e+00 -1.0984526573328914e+01 -2 -1 0
72 24 2 4.0999999999999998e-01 -8.3449607249246345e+00 -9.3080874336905168e+00 -1.0587097093493165e+01 -2 -1 0
2148 716 2 4.0999999999999998e-01 -1.0213537792204157e+01 -6.5873726887164512e+00 -1.3264000892429383e+01 2 4 -1
809 270 2 4.0999999999999998e-01 -1.2782186950191704e+01 -6.7834524212732035e+00 -9.1072246135475545e+00 1 1 2
99 33 2 4.0999999999999998e-01 -7.4610906668666264e+00 -1.3383385331973075e+01 -8.0987165066273477e+00 0 3 2
821 274 2 4.0999999999999998e-01 -1.2466276206519861e+01 -5.4106595122627397e+00 -1.2783880333617738e+01 -2 0 1
820 274 1 -8.1999999999999995e-01 -1.3004516833705695e+01 -6.0916915876348572e+00 -1.2287425845131247e+01 -2 0 1
192 64 2 4.0999999999999998e-01 -1.4090364240570429e+01 -5.0360774214206199e+00 -9.6934939018904984e+00 1 0 -1
822 274 2 4.0999999999999998e-01 -1.3975527662806297e+01 -5.9581672466746820e+00 -1.2485627836485129e+01 -2 0 1
776 259 2 4.0999999999999998e-01 -8.9237274075055595e+00 -1.2145927524547435e+01 -1.3146138194784882e+01 0 4 1
2092 698 1 -8.1999999999999995e-01 -7.5379797451386352e+00 -1.0858522272736479e+01 -1.0271385248496300e+01 2 3 2
2162 721 2 4.0999999999999998e-01 -1.2309876039252517e+01 -1.3604960614766835e+01 -9.3958495099316508e+00 -1 0 2
2146 716 1 -8.1999999999999995e-01 -1.0035942728748463e+01 -7.5712959037695713e+00 -1.3282161643426107e+01 2 4 -1
1580 527 2 4.0999999999999998e-01 -3.9701260544760508e-01 -6.9894211901744150e+00 -1.2357534526639810e+01 0 2 -2
82 28 1 -8.1999999999999995e-01 -1.4524132381091205e+01 -1.1412218345619401e+01 -1.1210739829680504e+01 0 1 2
2483 828 2 4.0999999999999998e-01 -9.9796296587095483e+00 -9.8076855162010741e+00 -8.5709696055608653e+00 0 2 1
775 259 1 -8.1999999999999995e-01 -9.3915181805585082e+00 -1.1360915259998919e+01 -1.2740056518491979e+01 0 4 1
941 314 2 4.0999999999999998e-01 -1.1015543574045314e+01 -9.0865734780082263e+00 -1.3804830662138784e+01 1 2 1
942 314 2 4.0999999999999998e-01 -1.0741670790540979e+01 -1.0683377405106736e+01 -1.3600453357636887e+01 1 2 1
1508 503 2 4.0999999999999998e-01 -5.3804805794959467e+00 -1.2086852935331139e+01 -1.2061740066556220e+01 -3 0 2
2163 721 2 4.0999999999999998e-01 -1.1915212995325129e+01 -1.2039963683110942e+01 -9.6440133315370105e+00 -1 0 2
940 314 1 -8.1999999999999995e-01 -1.1296911113673804e+01 -1.0005270135344656e+01 -1.4081965045890682e+01 1 2 1
98 33 2 4.0999999999999998e-01 -5.9191238003786975e+00 -1.2987182417589397e+01 -7.7355078423608115e+00 0 3 2
777 259 2 4.0999999999999998e-01 -8.8250692887592379e+00 -1.0975606738645943e+01 -1.2011600778691614e+01 0 4 1
2161 721 1 -8.1999999999999995e-01 -1.2484883870383744e+01 -1.2798430227426127e+01 -9.9605229255618291e+00 -1 0 2
1739 580 2 4.0999999999999998e-01 -1.3017329859022274e+01 -9.8410857481669787e+00 -1.3669277626530835e+01 0 1 -2
810 270 2 4.0999999999999998e-01 -1.3460005420811770e+01 -6.2789034658056053e+00 -7.7098870285308143e+00 1 1 2
1738 580 1 -8.1999999999999995e-01 -1.3956520509450364e+01 -9.6870611135254023e+00 -1.3362402919572439e+01 0 1 -2
415 139 1 -8.1999999999999995e-01 -1.1992104786791604e+01 -7.8543075435688365e+00 -1.0201578857213752e+01 -1 2 2
2029 677 1 -8.1999999999999995e-01 -1.4749802288442471e+01 -1.1300451304630180e+01 -8.2872815984200692e+00 0 0 -1
83 28 2 4.0999999999999998e-01 -1.3844258554500998e+01 -1.2137925798341733e+01 -1.1105406951944678e+01 0 1 2
1329 443 2 4.0999999999999998e-01 -2.3554953057406713e-01 -1.3836764694015496e+01 -1.3717727120703067e+01 0 1 -2
2484 828 2 4.0999999999999998e-01 -9.5886612069412251e+00 -1.1256854259073954e+01 -9.2140968898120832e+00 0 2 1
2482 828 1 -8.1999999999999995e-01 -1.0342921798913480e+01 -1.0676882333836300e+01 -8.9063656860592957e+00 0 2 1
416 139 2 4.0999999999999998e-01 -1.2128557855233669e+01 -7.3228394512222321e+00 -1.1037579494015837e+01 -1 2 2
2464 822 1 -8.1999999999999995e-01 -8.5223095809190568e+00 -8.1228034272460956e+00 -7.7903853311750968e+00 -1 0 -1
1247 416 2 4.0999999999999998e-01 -7.5767067542523900e+00 -1.4282604959219775e+01 -1.3438383984486276e+01 0 1 -1
417 139 2 4.0999999999999998e-01 -1.1292319080215321e+01 -8.5508696957232786e+00 -1.0359932374488597e+01 -1 2 2
2406 802 2 4.0999999999999998e-01 -2.6449589112704910e+00 -5.5664907365616383e+00 -1.3376987421825689e+01 1 -1 1
2031 677 2 4.0999999999999998e-01 -1.3923178310687403e+01 -1.1274656427463484e+01 -7.7251408314197318e+00 0 0 -1
166 56 1 -8.1999999999999995e-01 -1.3270963134627026e+01 -1.4732215912892292e+01 -8.0801664545340479e+00 -2 0 0
808 270 1 -8.1999999999999995e-01 -1.3091029785510162e+01 -5.9843735034898771e+00 -8.5914108164709084e+00 1 1 2
1581 527 2 4.0999999999999998e-01 -5.7016908746190786e-01 -8.1962825695116450e+00 -1.1271228136800810e+01 0 2 -2
1740 580 2 4.0999999999999998e-01 -1.4375673303904648e+01 -8.9698434480069142e+00 -1.3919075620511459e+01 0 1 -2
2477 826 2 4.0999999999999998e-01 -1.0930043913397970e+01 -1.4590404180796584e+01 -1.4023917796266597e+01 2 2 1
1447 483 1 -8.1999999999999995e-01 -7.7336413980313212e+00 -6.1795638453186221e+00 -1.0089076411717496e+01 1 1 -1
1448 483 2 4.0999999999999998e-01 -7.4085490888848993e+00 -5.7065801518384180e+00 -9.2701892646855022e+00 1 1 -1
1449 483 2 4.0999999999999998e-01 -7.9595108639503414e+00 -5.5077262327343437e+00 -1.0794478404048117e+01 1 1 -1
1052 351 2 4.0999999999999998e-01 -1.2213465270149882e+01 -1.4130445518616003e+01 -1.1550128626855331e+01 0 2 0
122 41 2 4.0999999999999998e-01 -2.5809435665742431e+00 -5.4061360261854752e+00 -8.1190934425413595e+00 0 1 1
84 28 2 4.0999999999999998e-01 -1.4288248547884264e+01 -1.0846647658035890e+01 -1.2000969759071065e+01 0 1 2
668 223 2 4.0999999999999998e-01 -2.4720377590391518e+00 -1.2943669050519755e+01 -9.2846531096259000e+00 -2 2 -2
1327 443 1 -8.1999999999999995e-01 -5.5574100268204063e-01 -1.4722441630790815e+01 -1.4053924233102922e+01 0 1 -2
1144 382 1 -8.1999999999999995e-01 -3.9207515959471149e+00 -1.1377453781629686e+01 -1.4848675527013260e+01 0 0 3
2466 822 2 4.0999999999999998e-01 -7.6821246613029697e+00 -7.8662259639261825e+00 -8.2681217633956017e+00 -1 0 -1
1146 382 2 4.0999999999999998e-01 -3.7724052811702133e+00 -1.0455304281982752e+01 -1.4491452144720892e+01 0 0 3
2304 768 2 4.0999999999999998e-01 -3.9117810960207180e+00 -1.0754651734288819e+01 -9.9726679846647350e+00 0 2 0
900 300 2 4.0999999999999998e-01 -1.3671255806643590e+01 -1.5001021593598598e+01 -1.3254132444980161e+01 -1 2 1
2405 802 2 4.0999999999999998e-01 -3.7492399968498500e+00 -6.6456204610383445e+00 -1.2845384651412267e+01 1 -1 1
1248 416 2 4.0999999999999998e-01 -8.8352056598427371e+00 -1.4432785513238798e+01 -1.4468037155822950e+01 0 1 -1
2216 739 2 4.0999999999999998e-01 -6.4274966538450506e+00 -1.4563738365022708e+01 -1.1687473006545680e+01 1 2 0
646 216 1 -8.1999999999999995e-01 -3.7042624723676454e-01 -1.2236798541973847e+01 -1.2063848468472761e+01 1 2 0
2093 698 2 4.0999999999999998e-01 -6.8928613219878141e+00 -1.1404321731375912e+01 -9.7366889823314935e+00 2 3 2
1184 395 2 4.0999999999999998e-01 -7.2513493291536513e-01 -9.0370863569849895e+00 -8.8528970702939489e+00 -1 3 0
97 33 1 -8.1999999999999995e-01 -6.6078243525539655e+00 -1.3007611438485611e+01 -8.4602484549291219e+00 0 3 2
669 223 2 4.0999999999999998e-01 -3.4495718109263667e+00 -1.1940783746985737e+01 -8.4448868933158572e+00 -2 2 -2
1223 408 2 4.0999999999999998e-01 -1.9667502428690362e+00 -1.4097856808973532e+01 -1.1640527845216448e+01 1 4 -1
1579 527 1 -8.1999999999999995e-01 -2.4533155203827128e-01 -7.9631555060729458e+00 -1.2187801700723810e+01 0 2 -2
2235 745 2 4.0999999999999998e-01 -2.8280041035509882e+00 -1.0012269967936058e+01 -1.1935727635276493e+01 -1 3 1
1222 408 1 -8.1999999999999995e-01 -2.4921130704701220e+00 -1.4184237172768178e+01 -1.0794060446945590e+01 1 4 -1
168 56 2 4.0999999999999998e-01 -1.4175693445830939e+01 -1.4458113829112222e+01 -7.7541206158230871e+00 -2 0 0
520 174 1 -8.1999999999999995e-01 -5.5711220483268651e+00 -8.3882261010368531e+00 -1.2125873594558900e+01 2 3 0
522 174 2 4.0999999999999998e-01 -6.3426640973200001e+00 -8.0194166942482461e+00 -1.2644214404887778e+01 2 3 0
121 41 1 -8.1999999999999995e-01 -2.6231306491415136e+00 -6.3710696135576974e+00 -7.8600601248232520e+00 0 1 1
1051 351 1 -8.1999999999999995e-01 -1.2346373974806879e+01 -1.4678450737044376e+01 -1.2375961709612868e+01 0 2 0
1254 418 2 4.0999999999999998e-01 -2.0701598351343851e+00 -1.4516216467624012e+01 -8.2480557884707384e+00 0 2 1
2063 688 2 4.0999999999999998e-01 -1.8717404796704553e+00 -8.3960086961389866e+00 -1.3236696628564367e+01 1 1 -1
123 41 2 4.0999999999999998e-01 -3.3626923906081334e+00 -6.8190116179912739e+00 -8.3624256441802380e+00 0 1 1
2094 698 2 4.0999999999999998e-01 -7.2088427775723920e+00 -1.0780735026329252e+01 -1.1212444637550956e+01 2 3 2
1183 395 1 -8.1999999999999995e-01 -1.3781419413543912e+00 -8.8177311873097377e+00 -9.5777695504033247e+00 -1 3 0
2404 802 1 -8.1999999999999995e-01 -3.5950648995182970e+00 -5.6883182602976241e+00 -1.3089878750300489e+01 1 -1 1
1972 658 1 -8.1999999999999995e-01 -3.9237620539431717e-01 -5.2345575270442133e+00 -1.2154299117029307e+01 1 0 1
1185 395 2 4.0999999999999998e-01 -2.0405647662719044e+00 -8.1497504511978356e+00 -9.2386932898411125e+00 -1 3 0
2064 688 2 4.0999999999999998e-01 -3.0069046737333665e+00 -8.1435891310425070e+00 -1.4383102227230403e+01 1 1 -1
667 223 1 -8.1999999999999995e-01 -2.9926527571521309e+00 -1.2830254474894740e+01 -8.4384427883350845e+00 -2 2 -2
521 174 2 4.0999999999999998e-01 -5.5097819364819784e+00 -9.3749416333478699e+00 -1.2276221868709808e+01 2 3 0
648 216 2 4.0999999999999998e-01 -1.1261827635709203e+00 -1.1608318851025551e+01 -1.1879946090225115e+01 1 2 0
2275 759 1 -8.1999999999999995e-01 -4.5496368390366637e+00 -7.5607048103069054e+00 -9.7062574837474180e+00 -1 1 0
2030 677 2 4.0999999999999998e-01 -1.4495176677420588e+01 -1.1381438873397620e+01 -9.2509109597927051e+00 0 0 -1
1792 598 1 -8.1999999999999995e-01 -5.1707863707546178e+00 -1.3695192393338097e+01 -1.0773942185916052e+01 1 2 0
1794 598 2 4.0999999999999998e-01 -4.1956121197253182e+00 -1.3911259472274706e+01 -1.0822161206507676e+01 1 2 0
1507 503 1 -8.1999999999999995e-01 -5.6757026688323560e+00 -1.1277002143875867e+01 -1.2568652659699246e+01 -3 0 2
2233 745 1 -8.1999999999999995e-01 -2.5203918113199215e+00 -1.0557445524830072e+01 -1.1155898805278223e+01 -1 3 1
1696 566 1 -8.1999999999999995e-01 -5.9130477484803858e+00 -5.6533596207557917e+00 -1.4631819057130096e+01 -1 1 1
2062 688 1 -8.1999999999999995e-01 -2.7441380577810115e+00 -8.7158530849744302e+00 -1.3606286656794095e+01 1 1 -1
2302 768 1 -8.1999999999999995e-01 -4.2128690455975590e+00 -1.0409270509158624e+01 -9.0838302006173262e+00 0 2 0
1509 503 2 4.0999999999999998e-01 -5.1301444993727703e+00 -1.1188175225337009e+01 -1.3401989818528101e+01 -3 0 2
2303 768 2 4.0999999999999998e-01 -4.2605497958930592e+00 -9.4108452908704372e+00 -9.1129565785343694e+00 0 2 0
2277 759 2 4.0999999999999998e-01 -5.1388324737637205e+00 -7.9167829677875305e+00 -1.0431538084333361e+01 -1 1 0
2234 745 2 4.0999999999999998e-01 -2.1105289828653024e+00 -9.9562874140080240e+00 -1.0469898694059827e+01 -1 3 1
1793 598 2 4.0999999999999998e-01 -5.4366064254023119e+00 -1.3565496608099750e+01 -9.8186968976245055e+00 1 2 0
2276 759 2 4.0999999999999998e-01 -5.1105448105542433e+00 -7.1070242811169084e+00 -9.0137757051473280e+00 -1 1 0
1697 566 2 4.0999999999999998e-01 -5.1418635816329044e+00 -5.4178672488529553e+00 -1.4040385994455265e+01 -1 1 1
1224 408 2 4.0999999999999998e-01 -2.0416159596415699e+00 -1.4839350631912380e+01 -1.0187551206598489e+01 1 4 -1
798 266 2 4.0999999999999998e-01 -9.1307447484472384e+00 -8.4419950809315374e+00 -1.4951567522774058e+01 -2 1 0
1974 658 2 4.0999999999999998e-01 -2.8065638503421120e-01 -5.0755168316914805e+00 -1.1173381405510327e+01 1 0 1
1894 632 1 -8.1999999999999995e-01 -5.8136428206125537e+00 -6.3559367843970787e+00 -7.6154897338830887e+00 0 2 1
1145 382 2 4.0999999999999998e-01 -3.0391931186476935e+00 -1.1833489329324955e+01 -1.4970581981448051e+01 0 0 3
1364 455 2 4.0999999999999998e-01 -9.6332032851915486e+00 -6.7741877199576148e+00 -7.0872440988091059e+00 0 2 1
2212 738 1 -8.1999999999999995e-01 -9.9185674455946895e+00 -1.2518600295880347e+01 -3.1024055436240214e+00 -1 1 2
161 54 2 4.0999999999999998e-01 -5.1324578481026499e+00 -1.3197727443727290e+01 -5.2523094870813480e-01 -1 0 -2
2173 725 1 -8.1999999999999995e-01 -1.2336970970348240e+01 -1.1284899383798859e+01 -6.8875313504488869e+00 1 2 0
2336 779 2 4.0999999999999998e-01 -5.6046015587192706e+00 -6.3051429627845188e+00 -4.0602383844476879e+00 0 2 0
101 34 2 4.0999999999999998e-01 -1.3094045818232788e+01 -1.2406813299943689e+01 -4.0038408986421850e+00 -1 1 0
100 34 1 -8.1999999999999995e-01 -1.2389237512812253e+01 -1.3062404135505121e+01 -4.2748037232183762e+00 -1 1 0
1463 488 2 4.0999999999999998e-01 -9.8928502278083172e+00 -8.4804458090508206e+00 -4.0777519363792436e+00 0 1 -1
102 34 2 4.0999999999999998e-01 -1.1566267642623266e+01 -1.2912521263729198e+01 -3.7268707873678810e+00 -1 1 0
1462 488 1 -8.1999999999999995e-01 -1.0215624133184518e+01 -9.0132027845204625e+00 -4.8600318603881387e+00 0 1 -1
1615 539 1 -8.1999999999999995e-01 -8.4197267163237868e+00 -7.8513302941101690e+00 -3.0715646758249822e+00 0 3 0
388 130 1 -8.1999999999999995e-01 -1.1468840416803747e+01 -1.0114058299297408e+01 -2.6598594633482318e+00 -2 3 0
246 82 2 4.0999999999999998e-01 -1.4608131138696821e+01 -1.0884327702977302e+01 -2.8746274274690098e+00 0 0 0
390 130 2 4.0999999999999998e-01 -1.0834932755434068e+01 -1.0822622161037653e+01 -2.9698159899022993e+00 -2 3 0
389 130 2 4.0999999999999998e-01 -1.2286932997205490e+01 -1.0124039301876621e+01 -3.2348374296170537e+00 -2 3 0
1464 488 2 4.0999999999999998e-01 -9.4435650503063009e+00 -9.4906228850809864e+00 -5.2795191586419943e+00 0 1 -1
244 82 1 -8.1999999999999995e-01 -1.4005362223953844e+01 -1.0717054804186285e+01 -3.6547967554945426e+00 0 0 0
1749 583 2 4.0999999999999998e-01 -1.3429734799723620e+01 -9.8174643507705319e+00 -6.4274702771482595e+00 -1 -1 -1
664 222 1 -8.1999999999999995e-01 -7.6511055768168710e+00 -6.5473882763812323e+00 -7.9723943860392232e-01 2 2 -1
1616 539 2 4.0999999999999998e-01 -8.2267241858647715e+00 -8.7652801155211009e+00 -2.7146046076512551e+00 0 3 0
1617 539 2 4.0999999999999998e-01 -8.0632255099006400e+00 -7.1641415117329110e+00 -2.4385929619745284e+00 0 3 0
2213 738 2 4.0999999999999998e-01 -9.6806282903211773e+00 -1.2757639140286642e+01 -2.1610128909398778e+00 -1 1 2
566 189 2 4.0999999999999998e-01 -1.1887176437495540e+01 -8.1724693964162736e+00 -4.6257629643786018e+00 0 1 -1
1748 583 2 4.0999999999999998e-01 -1.3305290856284198e+01 -8.4627231825823444e+00 -5.5242818805466190e+00 -1 -1 -1
1050 350 2 4.0999999999999998e-01 -1.0121104646957077e+01 -9.9086923369851174e+00 -1.3916148096730279e+00 0 1 0
565 189 1 -8.1999999999999995e-01 -1.2608062661287811e+01 -7.7400151472170036e+00 -4.0842086106051134e+00 0 1 -1
672 224 2 4.0999999999999998e-01 -7.8936177700769683e+00 -9.7919635362123962e+00 -1.7249979271877791e-01 0 3 -1
1864 622 1 -8.1999999999999995e-01 -1.2139403176247956e+01 -5.5248938076563370e+00 -2.3479684763264821e+00 0 2 0
887 296 2 4.0999999999999998e-01 -1.4375116017479231e+01 -8.1775117813936156e+00 -3.3269296516898628e+00 -1 1 -3
567 189 2 4.0999999999999998e-01 -1.2194971360752891e+01 -7.1644240201522988e+00 -3.3784995499448005e+00 0 1 -1
1747 583 1 -8.1999999999999995e-01 -1.3938209890536658e+01 -9.0617847640192117e+00 -6.0147037788132209e+00 -1 -1 -1
928 310 1 -8.1999999999999995e-01 -7.7713653369963831e+00 -1.0070028952042595e+01 -5.5160910611906182e+00 2 0 2
929 310 2 4.0999999999999998e-01 -7.8369430636748616e+00 -1.1054735694834227e+01 -5.3547619885775557e+00 2 0 2
1363 455 1 -8.1999999999999995e-01 -1.0026372485292665e+01 -5.9151963327822816e+00 -6.7593317270936524e+00 0 2 1
2465 822 2 4.0999999999999998e-01 -8.3347424825490783e+00 -8.2152868000718406e+00 -6.8125099583064568e+00 -1 0 -1
245 82 2 4.0999999999999998e-01 -1.4505701950731920e+01 -1.0216524860616033e+01 -4.3612701886167446e+00 0 0 0
443 148 2 4.0999999999999998e-01 -1.1686124024558406e+01 -1.4488717015787671e+01 -5.3851649354953253e+00 0 1 0
2214 738 2 4.0999999999999998e-01 -9.0957028641784046e+00 -1.2541170075554806e+01 -3.6701724563165321e+00 -1 1 2
1578 526 2 4.0999999999999998e-01 -4.7605548694977280e+00 -1.0319777201048970e+01 -7.3169039865693328e+00 2 2 3
542 181 2 4.0999999999999998e-01 -4.0505737653966509e+00 -6.8146064730820815e+00 -8.1399695688042151e-01 -1 2 0
61 21 1 -8.1999999999999995e-01 -2.6822079069940532e+00 -1.2324490883755225e+01 -4.5996563908872226e+00 1 1 2
1203 401 2 4.0999999999999998e-01 -8.3598056513876493e+00 -1.3455037485233845e+01 -5.9376872224862609e+00 3 0 0
1605 535 2 4.0999999999999998e-01 -1.4369623639901809e+01 -8.6451871795789188e+00 -1.2917056687999775e+00 -2 2 -1
2037 679 2 4.0999999999999998e-01 -1.2128825281558962e+01 -1.3764321224891159e+01 -6.5908496458862409e-01 1 1 0
666 222 2 4.0999999999999998e-01 -7.3580373832173622e+00 -5.6220257541984076e+00 -1.0376349509599336e+00 2 2 -1
2174 725 2 4.0999999999999998e-01 -1.2445740054573200e+01 -1.2122522933099043e+01 -6.3522456056596965e+00 1 2 0
147 49 2 4.0999999999999998e-01 -2.3563354711498938e+00 -8.4176335016079680e+00 -1.5149592348314034e+00 0 2 -2
1865 622 2 4.0999999999999998e-01 -1.2382784709581676e+01 -5.9657474598899807e+00 -1.4840308312331718e+00 0 2 0
949 317 1 -8.1999999999999995e-01 -8.7808012370230255e+00 -1.4460599489376937e+01 -7.4036218631985573e+00 1 1 -1
1201 401 1 -8.1999999999999995e-01 -8.1561054132127815e+00 -1.2958799836700278e+01 -5.0937504417929311e+00 3 0 0
1604 535 2 4.0999999999999998e-01 -1.3085089176082842e+01 -9.6437041667662324e+00 -1.1520829382521018e+00 -2 2 -1
2103 701 2 4.0999999999999998e-01 -2.8515184194999161e+00 -1.3794205379485847e+01 -1.0193548775286772e+00 -1 3 0
1048 350 1 -8.1999999999999995e-01 -9.5764341439345202e+00 -9.7991711091566742e+00 -5.6016192128069342e-01 0 1 0
160 54 1 -8.1999999999999995e-01 -6.0192928081646890e+00 -1.2758766950979819e+01 -3.8096650601831783e-01 -1 0 -2
951 317 2 4.0999999999999998e-01 -9.5830389965424470e+00 -1.4892575102520199e+01 -6.9915703097889388e+00 1 1 -1
930 310 2 4.0999999999999998e-01 -6.9447219431437954e+00 -9.8729501366687913e+00 -6.0431541975138572e+00 2 0 2
2175 725 2 4.0999999999999998e-01 -1.1515409377973949e+01 -1.1355206963588781e+01 -7.4532769794518803e+00 1 2 0
671 224 2 4.0999999999999998e-01 -6.4126364861521683e+00 -9.8818366614090305e+00 -8.5453880989239117e-01 0 3 -1
670 224 1 -8.1999999999999995e-01 -6.9329006395856112e+00 -1.0017939275002789e+01 -1.1463307833025738e-02 0 3 -1
14 5 2 4.0999999999999998e-01 -8.5636303432303684e-01 -1.2992189156516091e+01 -2.0590982376552560e+00 -2 2 -1
1107 369 2 4.0999999999999998e-01 -3.5307620473907519e-01 -5.9251642426241737e+00 -2.6711215479654644e+00 -2 1 -2
2337 779 2 4.0999999999999998e-01 -7.0463160091827017e+00 -6.9605787211976491e+00 -4.4582616928553556e+00 0 2 0
1895 632 2 4.0999999999999998e-01 -6.1269442565939460e+00 -5.4274629474730620e+00 -7.4161072050669530e+00 0 2 1
2335 779 1 -8.1999999999999995e-01 -6.0672345587591856e+00 -6.9565080583803809e+00 -4.6616275939638356e+00 0 2 0
1603 535 1 -8.1999999999999995e-01 -1.3706201433315378e+01 -9.0379405443972818e+00 -6.5484573202790308e-01 -2 2 -1
1147 383 1 -8.1999999999999995e-01 -1.6722478502638101e+00 -5.4109741226634629e+00 -1.9618275649433077e+00 -1 1 1
1582 528 1 -8.1999999999999995e-01 -1.5241862112014815e+00 -8.1711346168087093e+00 -6.0256419417714238e+00 -1 1 1
176 59 2 4.0999999999999998e-01 -6.5387007789281633e+00 -9.5923761740349835e+00 -3.6951679239496471e+00 0 1 -1
2101 701 1 -8.1999999999999995e-01 -3.7591549556225523e+00 -1.4014745891148973e+01 -6.6223774434659965e-01 -1 3 0
145 49 1 -8.1999999999999995e-01 -3.3497022895034725e+00 -8.5266344088202572e+00 -1.4786811196349792e+00 0 2 -2
985 329 1 -8.1999999999999995e-01 -7.1315575161694511e-03 -1.1517782840754043e+01 -5.8596967601934189e+00 0 2 1
1896 632 2 4.0999999999999998e-01 -5.6412012713503525e+00 -6.8408458471166007e+00 -6.7581088775263414e+00 0 2 1
62 21 2 4.0999999999999998e-01 -3.5605118842933017e+00 -1.2404871195925853e+01 -4.1283858660933817e+00 1 1 2
1583 528 2 4.0999999999999998e-01 -2.3047263677752916e+00 -8.5255376451235279e+00 -5.5107337666280696e+00 -1 1 1
2561 854 2 4.0999999999999998e-01 -5.7738465718998242e+00 -1.2061788967683675e+01 -3.1885392383187963e+00 2 0 1
1584 528 2 4.0999999999999998e-01 -1.8527467439546452e+00 -7.6717035416247112e+00 -6.8272599122189508e+00 -1 1 1
63 21 2 4.0999999999999998e-01 -2.0339519805797384e+00 -1.2978852106568029e+01 -4.2103615643484922e+00 1 1 2
146 49 2 4.0999999999999998e-01 -3.5856203035239158e+00 -9.2018422050527224e+00 -7.7981627426739131e-01 0 2 -2
971 324 2 4.0999999999999998e-01 -3.9939142130653806e+00 -1.3093668015317158e+01 -6.6776871985589121e+00 0 2 0
1202 401 2 4.0999999999999998e-01 -7.2632785632301848e+00 -1.3245011144443730e+01 -4.7460175691446764e+00 3 0 0
15 5 2 4.0999999999999998e-01 -6.9989728286382658e-01 -1.4057449559010992e+01 -8.3137766919698564e-01 -2 2 -1
2560 854 1 -8.1999999999999995e-01 -5.3492991198151092e+00 -1.2769301642152975e+01 -3.7534817195352730e+00 2 0 1
515 172 2 4.0999999999999998e-01 -1.0796569685591548e+01 -5.2898407161532113e+00 -3.7122241857119800e+00 -1 1 0
1322 441 2 4.0999999999999998e-01 -4.4779167585139703e+00 -7.8170674799846154e+00 -4.4584030273343771e+00 -2 2 1
972 324 2 4.0999999999999998e-01 -4.9401970510547883e+00 -1.3432927220491040e+01 -5.3908262768796593e+00 0 2 0
1323 441 2 4.0999999999999998e-01 -3.5800886826458616e+00 -8.7505130487154581e+00 -3.4638462306508888e+00 -2 2 1
177 59 2 4.0999999999999998e-01 -5.1187751418609171e+00 -9.1705616688154308e+00 -3.0078232066213229e+00 0 1 -1
2387 796 2 4.0999999999999998e-01 -1.4720355529299704e+01 -1.4176580635078109e+01 -9.2877273870978172e-01 1 2 0
1577 526 2 4.0999999999999998e-01 -4.4543028695641826e+00 -9.6322187218898883e+00 -5.8677551358606443e+00 2 2 3
1576 526 1 -8.1999999999999995e-01 -5.1410864836799259e+00 -9.7558268237929582e+00 -6.5840121074877089e+00 2 2 3
395 132 2 4.0999999999999998e-01 -2.7748358610959833e-01 -8.3170815919525261e+00 -4.8539427211751125e+00 -1 2 0
1321 441 1 -8.1999999999999995e-01 -3.7639249172324689e+00 -8.5160608691147104e+00 -4.4184200273679330e+00 -2 2 1
970 324 1 -8.1999999999999995e-01 -4.9075821920843907e+00 -1.3379611260052794e+01 -6.3888585371665947e+00 0 2 0
175 59 1 -8.1999999999999995e-01 -5.9704879708410985e+00 -9.6778896015988423e+00 -2.8767570000084000e+00 0 1 -1
2102 701 2 4.0999999999999998e-01 -4.2150839349182654e+00 -1.4653399819520603e+01 -1.2820964623939393e+00 -1 3 0
1621 541 1 -8.1999999999999995e-01 -9.9643421228550384e+00 -1.2822261945189478e+01 -5.8445939460043661e-01 2 1 0
1148 383 2 4.0999999999999998e-01 -1.5473100326691789e+00 -5.9120821679812359e+00 -1.1055238089458150e+00 -1 1 1
987 329 2 4.0999999999999998e-01 -9.6271666219120888e-01 -1.1432746286097462e+01 -5.5775608755984898e+00 0 2 1
13 5 1 -8.1999999999999995e-01 -1.0412282989022010e+00 -1.3153717958100517e+01 -1.0897128585406239e+00 -2 2 -1
2562 854 2 4.0999999999999998e-01 -5.2481679957008804e+00 -1.3607548429884540e+01 -3.2176742954897595e+00 2 0 1
162 54 2 4.0999999999999998e-01 -5.8796250713740292e+00 -1.1806601470712749e+01 -1.0921557916915958e-01 -1 0 -2
1365 455 2 4.0999999999999998e-01 -1.0662368649215512e+01 -5.5572979881021478e+00 -7.4429927305599790e+00 0 2 1
2009 670 2 4.0999999999999998e-01 -2.8480949601283356e-01 -1.4915639174614126e+01 -6.6274875114956444e+00 -1 3 1
516 172 2 4.0999999999999998e-01 -1.0132953782247103e+01 -5.1219647341806294e+00 -5.1947865608948600e+00 -1 1 0
2035 679 1 -8.1999999999999995e-01 -1.2838866881516063e+01 -1.3315920504568721e+01 -1.1617389291906122e-01 1 1 0
1622 541 2 4.0999999999999998e-01 -9.2730634347395338e+00 -1.3447913159776702e+01 -2.2297741602164756e-01 2 1 0
167 56 2 4.0999999999999998e-01 -1.2657933538231582e+01 -1.4853411538059120e+01 -7.2994737538833085e+00 -2 0 0
665 222 2 4.0999999999999998e-01 -7.0836409065619286e+00 -6.8931699382549425e+00 -4.9981988177867365e-02 2 2 -1
2491 831 1 -8.1999999999999995e-01 -7.8805447017186125e+00 -1.4798957072004860e+01 5.4220829450511410e-01 0 3 -1
657 219 2 4.0999999999999998e-01 -9.2770953509984793e+00 -5.9146552639713992e+00 1.7867673006626976e+00 1 1 2
298 100 1 -8.1999999999999995e-01 -1.5003417983800787e+01 -1.1824069303890571e+01 5.8220131973976681e+00 0 3 1
2332 778 1 -8.1999999999999995e-01 -8.9983448505174302e+00 -9.8452961792457003e+00 6.0495883945727105e+00 0 2 -3
655 219 1 -8.1999999999999995e-01 -9.7511282913254771e+00 -6.5095365855344660e+00 1.1376265468912568e+00 1 1 2
359 120 2 4.0999999999999998e-01 -1.1497177504555296e+00 -9.3870926678789797e+00 4.9320409426546963e+00 -1 1 1
1401 467 2 4.0999999999999998e-01 -1.2671084764635147e+01 -7.4824398835999597e+00 5.5246297474113941e+00 2 1 -1
1780 594 1 -8.1999999999999995e-01 -1.1533895908202446e+01 -1.0516495625784392e+01 7.1741968439749133e+00 0 4 0
1781 594 2 4.0999999999999998e-01 -1.0680497464130260e+01 -1.0175173907873514e+01 6.7802610635152281e+00 0 4 0
534 178 2 4.0999999999999998e-01 -1.0170681534732360e+01 -7.2084457238430479e+00 4.9433419313635891e+00 -1 -1 -1
1049 350 2 4.0999999999999998e-01 -1.0180044717006254e+01 -9.8063515784363098e+00 2.3706919150323635e-01 0 1 0
533 178 2 4.0999999999999998e-01 -8.6177516359331001e+00 -6.8659901228816391e+00 4.5722732289718291e+00 -1 -1 -1
532 178 1 -8.1999999999999995e-01 -9.2552886795142797e+00 -7.5934557498860915e+00 4.8258773028298858e+00 -1 -1 -1
2015 672 2 4.0999999999999998e-01 -1.0032216229582918e+01 -1.4062717128969661e+01 7.0025078816098354e+00 0 1 -1
1123 375 1 -8.1999999999999995e-01 -9.9230511432396948e+00 -9.2709002213133758e+00 2.3714023481003697e+00 -1 2 0
307 103 1 -8.1999999999999995e-01 -1.1506031561807326e+01 -1.1558810965639887e+01 1.5878855555948821e+00 -1 0 0
1124 375 2 4.0999999999999998e-01 -1.0150294816011687e+01 -8.3401483114333708e+00 2.0849828024743093e+00 -1 2 0
1125 375 2 4.0999999999999998e-01 -9.7271065891856505e+00 -9.2794144719261009e+00 3.3519675296382569e+00 -1 2 0
585 195 2 4.0999999999999998e-01 -1.4272113425690019e+01 -1.3971569189393083e+01 8.6074349511657644e-01 1 1 -1
308 103 2 4.0999999999999998e-01 -1.1463309380269378e+01 -1.0560135184183920e+01 1.5596683172765058e+00 -1 0 0
65 22 2 4.0999999999999998e-01 -1.3706543888314346e+01 -1.3461868714393619e+01 5.8451096331260022e+00 1 2 0
653 218 2 4.0999999999999998e-01 -1.4519559361473990e+01 -7.0427924717597339e+00 6.7160300455682194e+00 0 1 1
309 103 2 4.0999999999999998e-01 -1.1071926876643396e+01 -1.1887429011374870e+01 2.4266573383726939e+00 -1 0 0
1399 467 1 -8.1999999999999995e-01 -1.2211043275487190e+01 -7.1648078659484389e+00 4.6955058248011472e+00 2 1 -1
2193 731 2 4.0999999999999998e-01 -9.5715616835361352e+00 -1.3198676199984135e+01 3.7863384204845030e+00 0 0 2
1400 467 2 4.0999999999999998e-01 -1.2513480158185123e+01 -6.2359802450984017e+00 4.4815294191831487e+00 2 1 -1
2192 731 2 4.0999999999999998e-01 -1.0319506044944378e+01 -1.2197768197096508e+01 4.8376812856667240e+00 0 0 2
2191 731 1 -8.1999999999999995e-01 -1.0009561327886800e+01 -1.2306080734340892e+01 3.8931297416386119e+00 0 0 2
1127 376 2 4.0999999999999998e-01 -8.6706302778316200e+00 -1.4617075054011364e+01 2.3093845763072682e+00 1 2 1
2270 757 2 4.0999999999999998e-01 -4.3430382452493284e+00 -7.6104357640223110e+00 3.5183193024037767e+00 -1 2 0
1431 477 2 4.0999999999999998e-01 -9.0991414356663007e+00 -1.1793164413990642e+01 6.4999983480371828e+00 0 1 2
2036 679 2 4.0999999999999998e-01 -1.2438306286155392e+01 -1.2553380392785403e+01 3.9182079971896755e-01 1 1 0
2543 848 2 4.0999999999999998e-01 -1.4704162291648062e+01 -9.7987336646971137e+00 5.3719008823680170e-01 1 2 -1
358 120 1 -8.1999999999999995e-01 -2.0053389218049560e+00 -8.9277608278628477e+00 5.1705811861561859e+00 -1 1 1
1885 629 1 -8.1999999999999995e-01 -1.9925440725926045e+00 -5.2119137158501090e+00 5.7591418742717710e+00 0 0 0
1162 388 1 -8.1999999999999995e-01 -1.2394970012938177e+01 -6.6200438098428123e+00 2.7527614846944459e-01 -1 2 -1
838 280 1 -8.1999999999999995e-01 -8.3243381204857894e+00 -5.2231268966886510e+00 3.7928219013941753e+00 -2 3 -1
1163 388 2 4.0999999999999998e-01 -1.2892987716915782e+01 -7.4866488514049321e+00 2.4447230225527150e-01 -1 2 -1
64 22 1 -8.1999999999999995e-01 -1.2950354913669269e+01 -1.4098664582897397e+01 5.6946303636633022e+00 1 2 0
66 22 2 4.0999999999999998e-01 -1.2333095794754808e+01 -1.4074912765278283e+01 6.4810156072264267e+00 1 2 0
2286 762 2 4.0999999999999998e-01 -9.7208572881657496e-01 -1.3606775834978507e+01 7.4798923505046542e+00 0 3 2
541 181 1 -8.1999999999999995e-01 -3.9092664746022905e+00 -6.2623240430220282e+00 7.5815173312676620e-03 -1 2 0