LAMMPS data file via write_data, version 15 May 2015, timestep = 18500000

2593 atoms
6 atom types
1728 bonds
4 bond types
864 angles
3 angle types
0 dihedrals
3 dihedral types
0 impropers
1 improper types

-1.4960062479075020e+01 1.4960062479075020e+01 xlo xhi
-1.4960062479075020e+01 1.4960062479075020e+01 ylo yhi
-1.4960062479075020e+01 1.4960062479075020e+01 zlo zhi

Masses

1 15.9994
2 1.00794
3 12.0107
4 1.00794
5 12.0107
6 12.0107

Bond Coeffs # harmonic

1 1000 1
2 469 1.4
3 367 1.08
4 469 0.7

Angle Coeffs # harmonic

1 100 109.47
2 35 120
3 63 120

Dihedral Coeffs # opls

1 0 7.25 0 0
2 0 7.25 0 0
3 0 7.25 0 0

Improper Coeffs # cvff

1 2.5 -1 2

Atoms # full

1208 403 2 4.0999999999999998e-01 -8.4502148189063178e+00 -1.2944331297451578e+01 -1.1029756083050552e+01 3 -9 6
492 164 2 4.0999999999999998e-01 -1.3229490696516994e+01 -9.9872969944342884e+00 -1.3631695387502742e+01 1 -1 1
490 164 1 -8.1999999999999995e-01 -1.3457608445203663e+01 -1.0817901878712599e+01 -1.4139692353050282e+01 1 -1 1
491 164 2 4.0999999999999998e-01 -1.4430532049078876e+01 -1.0810696317860380e+01 -1.4370713625168140e+01 1 -1 1
944 315 2 4.0999999999999998e-01 -1.1288310995930743e+01 -8.1916934626054392e+00 -7.9828361262114189e+00 -4 1 1
1921 641 1 -8.1999999999999995e-01 -9.4673425606677100e+00 -1.0957489204096813e+01 -1.1468212421872831e+01 -2 -2 4
1923 641 2 4.0999999999999998e-01 -1.0324007830259808e+01 -1.0476854822762462e+01 -1.1280813615240465e+01 -2 -2 4
1772 591 2 4.0999999999999998e-01 -1.2183652738835432e+01 -1.1995900776789865e+01 -1.4681307684837510e+01 1 -2 -2
56 19 2 4.0999999999999998e-01 -6.0313007671160079e+00 -8.5700918603923704e+00 -1.2214185641458727e+01 -8 0 -5
1922 641 2 4.0999999999999998e-01 -9.4810944674235085e+00 -1.1310770083569388e+01 -1.2403630239841892e+01 -2 -2 4
1207 403 1 -8.1999999999999995e-01 -8.2833676160919953e+00 -1.3208539374450190e+01 -1.0079830173860184e+01 3 -9 6
1052 351 2 4.0999999999999998e-01 -1.1999996754420149e+01 -1.4424386098480751e+01 -1.4514102869283278e+01 1 -2 2
1209 403 2 4.0999999999999998e-01 -8.4155203345180389e+00 -1.4194733390877865e+01 -9.9800295860869106e+00 3 -9 6
424 142 1 -8.1999999999999995e-01 -1.3577631405797046e+01 -1.1717853641022993e+01 -9.4681393764157420e+00 2 1 1
1682 561 2 4.0999999999999998e-01 -1.2527690916067279e+01 -1.3172674934832571e+01 -1.1410486314144315e+01 -1 -3 3
1773 591 2 4.0999999999999998e-01 -1.0764257590771109e+01 -1.2733620941433616e+01 -1.4353098608794451e+01 1 -2 -2
1771 591 1 -8.1999999999999995e-01 -1.1626202120584443e+01 -1.2807815638277427e+01 -1.4854646115270338e+01 1 -2 -2
318 106 2 4.0999999999999998e-01 -8.4669747509176023e+00 -1.2340358888507630e+01 -1.4127748394394159e+01 1 2 1
316 106 1 -8.1999999999999995e-01 -9.0902736623463927e+00 -1.1558555262161182e+01 -1.4144621889650788e+01 1 2 1
1605 535 2 4.0999999999999998e-01 -1.4488975912454354e+01 -1.3604616379303556e+01 -1.1128714279676112e+01 -8 4 -1
1120 374 1 -8.1999999999999995e-01 -6.7937275447065435e+00 -1.0266537014156349e+01 -1.1588429589646951e+01 -2 -1 4
972 324 2 4.0999999999999998e-01 -6.9531791317127194e+00 -1.3881546984677438e+01 -1.3727839470817115e+01 0 4 1
970 324 1 -8.1999999999999995e-01 -7.8414072183232459e+00 -1.3909483523211293e+01 -1.4186395417779201e+01 0 4 1
1121 374 2 4.0999999999999998e-01 -7.6395825747154191e+00 -1.0788753237425833e+01 -1.1697161272338919e+01 -2 -1 4
552 184 2 4.0999999999999998e-01 -5.6515344703145551e+00 -1.4687440537967236e+01 -1.1673113185683960e+01 -4 -5 0
1698 566 2 4.0999999999999998e-01 -1.4737216689606299e+01 -8.8560234356118492e+00 -9.1063671358935991e+00 -1 -5 1
1122 374 2 4.0999999999999998e-01 -6.5846730194111327e+00 -1.0169489088248959e+01 -1.0615351467376062e+01 -2 -1 4
1233 411 2 4.0999999999999998e-01 -7.4715321018994176e+00 -1.2379804141485900e+01 -8.7489762956869939e+00 -1 -3 5
1232 411 2 4.0999999999999998e-01 -5.8736647189753093e+00 -1.2173259374854966e+01 -8.4829049500979465e+00 -1 -3 5
2506 836 1 -8.1999999999999995e-01 -7.6758968145305442e+00 -7.5687610573547985e+00 -8.7946308294504174e+00 -1 -2 6
426 142 2 4.0999999999999998e-01 -1.4349417001546202e+01 -1.2292838148413001e+01 -9.7396959327586963e+00 2 1 1
1794 598 2 4.0999999999999998e-01 -1.0100946678540502e+01 -1.1899646324509893e+01 -9.0574303697213416e+00 2 1 1
1793 598 2 4.0999999999999998e-01 -1.1722069260435122e+01 -1.2005983638592733e+01 -8.8922371310638582e+00 2 1 1
1696 566 1 -8.1999999999999995e-01 -1.4161203004717811e+01 -9.1195632342434187e+00 -8.3325724866026700e+00 -1 -5 1
1063 355 1 -8.1999999999999995e-01 -1.1762761962765369e+01 -9.8159881305209531e+00 -1.1089216466485054e+01 0 -5 3
1065 355 2 4.0999999999999998e-01 -1.2418500026599613e+01 -1.0388045687734643e+01 -1.0596508809839921e+01 0 -5 3
2508 836 2 4.0999999999999998e-01 -6.8066044117356217e+00 -7.6315101142870008e+00 -9.2849331793955763e+00 -1 -2 6
1697 566 2 4.0999999999999998e-01 -1.3531980550343681e+01 -8.3731221852072615e+00 -8.1159898812604254e+00 -1 -5 1
425 142 2 4.0999999999999998e-01 -1.3919812473217478e+01 -1.0875533304431009e+01 -9.0517120834662279e+00 2 1 1
530 177 2 4.0999999999999998e-01 -1.1135028417990361e+01 -1.3870909002121639e+01 -9.8909370428842056e+00 0 -1 0
2247 749 2 4.0999999999999998e-01 -1.4069794381068672e+01 -7.6959816659392084e+00 -1.2597767062751778e+01 1 1 -4
1064 355 2 4.0999999999999998e-01 -1.2183176971955410e+01 -8.9336761226234636e+00 -1.1300829014525174e+01 0 -5 3
315 105 2 4.0999999999999998e-01 -8.6527518682795410e+00 -8.6635623452918900e+00 -1.1817525561070399e+01 6 -1 -1
550 184 1 -8.1999999999999995e-01 -5.5727398034681386e+00 -1.4225295170043369e+01 -1.2556411654303366e+01 -4 -5 0
1681 561 1 -8.1999999999999995e-01 -1.3269341965656794e+01 -1.2983539225907974e+01 -1.2054057995156359e+01 -1 -3 3
1792 598 1 -8.1999999999999995e-01 -1.0847656042759343e+01 -1.2429114732586660e+01 -8.6548245209467005e+00 2 1 1
529 177 1 -8.1999999999999995e-01 -1.1179976862182031e+01 -1.4453015272431209e+01 -1.0702808378059732e+01 0 -1 0
1683 561 2 4.0999999999999998e-01 -1.3016656379651797e+01 -1.2210559460213235e+01 -1.2635999029105832e+01 -1 -3 3
1231 411 1 -8.1999999999999995e-01 -6.7900385695596785e+00 -1.1859250160848205e+01 -8.2345900332921769e+00 -1 -3 5
551 184 2 4.0999999999999998e-01 -5.0444755345733245e+00 -1.3383402023102068e+01 -1.2446157733348898e+01 -4 -5 0
794 265 2 4.0999999999999998e-01 -1.0060635589512902e+01 -1.4799021121436549e+01 -1.2351374568146563e+01 0 1 -1
2245 749 1 -8.1999999999999995e-01 -1.3502317503970712e+01 -7.7336216716494208e+00 -1.1775236616163161e+01 1 1 -4
891 297 2 4.0999999999999998e-01 -5.4800815913986902e+00 -1.1152328242336340e+01 -1.2141183277203815e+01 -4 -4 1
313 105 1 -8.1999999999999995e-01 -8.4048298661982113e+00 -7.7340632664159266e+00 -1.1544451829503117e+01 6 -1 -1
314 105 2 4.0999999999999998e-01 -8.4918654776556668e+00 -7.6437184885564617e+00 -1.0552350163064752e+01 6 -1 -1
971 324 2 4.0999999999999998e-01 -8.3437761222192570e+00 -1.4721998237907769e+01 -1.3890678549544548e+01 0 4 1
55 19 1 -8.1999999999999995e-01 -5.2846413754794970e+00 -7.9051742255102653e+00 -1.2194503998907065e+01 -8 0 -5
943 315 1 -8.1999999999999995e-01 -1.0827049416383797e+01 -9.0008725831675811e+00 -7.6188717725106310e+00 -4 1 1
317 106 2 4.0999999999999998e-01 -8.8174871500460128e+00 -1.0930462618945754e+01 -1.4873381306801939e+01 1 2 1
1604 535 2 4.0999999999999998e-01 -1.4945323492197208e+01 -1.4381188407834868e+01 -9.7666138291496729e+00 -8 4 -1
364 122 1 -8.1999999999999995e-01 -1.0759654553844236e+01 -5.5487640039696302e+00 -1.3909335668089463e+01 -1 -3 2
2566 856 1 -8.1999999999999995e-01 -7.0209640417668080e+00 -4.4346334496536493e+00 -8.4078350751197473e+00 -2 1 0
1986 662 2 4.0999999999999998e-01 -5.0927094954394168e+00 -6.8138925632167027e+00 -1.0722159066470766e+01 -3 -2 4
101 34 2 4.0999999999999998e-01 -1.4603896221060856e+01 -3.6384378275584019e+00 -8.8657485877810949e+00 1 -1 6
2507 836 2 4.0999999999999998e-01 -7.5064507708780264e+00 -7.2856648586866664e+00 -7.8506246309295777e+00 -1 -2 6
1786 596 1 -8.1999999999999995e-01 -1.2479684144245523e+01 -6.9805138050281519e+00 -7.9831904999126762e+00 -2 -3 3
2093 698 2 4.0999999999999998e-01 -7.1273112434908938e+00 -7.8343970850408162e-01 -1.1274937203286267e+01 5 2 2
2568 856 2 4.0999999999999998e-01 -6.4460762369263875e+00 -4.5534993491939328e+00 -9.2173892970829865e+00 -2 1 0
1651 551 1 -8.1999999999999995e-01 -1.1888053781575593e+01 -2.0742172502027216e+00 -1.0223684854754307e+01 7 1 1
2092 698 1 -8.1999999999999995e-01 -6.3663381775118761e+00 -1.0562934746112909e+00 -1.0686316840945636e+01 5 2 2
365 122 2 4.0999999999999998e-01 -9.8218441091619866e+00 -5.5968892365243352e+00 -1.3565535304061648e+01 -1 -3 2
2197 733 1 -8.1999999999999995e-01 -1.4203385938830319e+01 -2.7926658268917848e-01 -1.0020789404911358e+01 3 -5 1
1309 437 1 -8.1999999999999995e-01 -1.0252543506185514e+01 -2.1346151677062686e-01 -8.4095922831100509e+00 -5 -7 1
367 123 1 -8.1999999999999995e-01 -5.6795273561069344e+00 -4.1708151712815056e+00 -1.2661591937024355e+01 -1 -6 -3
1157 386 2 4.0999999999999998e-01 -1.4742112189533467e+01 -6.7141343133381834e+00 -1.4299194494019122e+01 -3 3 -1
128 43 2 4.0999999999999998e-01 -5.4281904442769680e+00 -2.5276193063382077e+00 -9.9574109305912035e+00 3 -6 5
2469 823 2 4.0999999999999998e-01 -1.2987745291291485e+01 -1.1376260441010011e-01 -1.4148171285799529e+01 -2 -3 1
2246 749 2 4.0999999999999998e-01 -1.3050649806432729e+01 -6.8515512876369069e+00 -1.1641254406725494e+01 1 1 -4
366 122 2 4.0999999999999998e-01 -1.0990506244404390e+01 -6.4062473748971858e+00 -1.4369154040079748e+01 -1 -3 2
1469 490 2 4.0999999999999998e-01 -7.6758153984240689e+00 -2.2217007608059909e+00 -1.4841275102743516e+01 1 2 1
1212 404 2 4.0999999999999998e-01 -7.6564674029770483e+00 -2.9277945871919080e+00 -1.2387656566957901e+01 1 -1 -1
1176 392 2 4.0999999999999998e-01 -1.3509278783121681e+01 -5.0082240392259596e+00 -1.0615299767514147e+01 2 -1 2
1704 568 2 4.0999999999999998e-01 -7.7977760714027999e+00 -2.3178053950944779e+00 -8.6981527531378227e+00 9 5 1
1703 568 2 4.0999999999999998e-01 -8.6148722148714132e+00 -1.1009346709083108e+00 -7.9782816702483297e+00 9 5 1
348 116 2 4.0999999999999998e-01 -9.5657925341351042e+00 -5.8888024817567146e+00 -1.0748739915919195e+01 -4 -3 2
1174 392 1 -8.1999999999999995e-01 -1.2853046125785056e+01 -5.0947112745308871e+00 -1.1364887532745639e+01 2 -1 2
346 116 1 -8.1999999999999995e-01 -1.0303323125938054e+01 -5.4435258928890580e+00 -1.0241019038330631e+01 -4 -3 2
2181 727 2 4.0999999999999998e-01 -9.1783665612063174e+00 -3.9503182465216113e-01 -1.2581618283859687e+01 -2 -5 4
1653 551 2 4.0999999999999998e-01 -1.1861133651316887e+01 -2.9981341118100708e+00 -9.8420357955721709e+00 7 1 1
347 116 2 4.0999999999999998e-01 -9.9126328420964605e+00 -4.8199021952332934e+00 -9.5639240017254910e+00 -4 -3 2
1175 392 2 4.0999999999999998e-01 -1.1933653145459704e+01 -4.8914876887565164e+00 -1.1028108869062898e+01 2 -1 2
1310 437 2 4.0999999999999998e-01 -1.0899127719382527e+01 -7.7205980433040011e-01 -8.9291112422000047e+00 -5 -7 1
2199 733 2 4.0999999999999998e-01 -1.3432293090230862e+01 -8.9249939938788536e-01 -1.0192150040730674e+01 3 -5 1
603 201 2 4.0999999999999998e-01 -7.8180587313178931e+00 -6.3802290123706680e+00 -1.2605325618550554e+01 2 -3 2
1652 551 2 4.0999999999999998e-01 -1.1729552959197669e+01 -2.1163219637561479e+00 -1.1210147136815696e+01 7 1 1
1060 354 1 -8.1999999999999995e-01 -1.1559492890165389e+01 -3.8796847870845905e+00 -8.0596323246844204e+00 1 -5 0
100 34 1 -8.1999999999999995e-01 -1.4704518016163806e+01 -4.4271816869317071e+00 -9.4721820285615745e+00 1 -1 6
602 201 2 4.0999999999999998e-01 -7.4561625460137062e+00 -4.8563347852364647e+00 -1.3067291404047314e+01 2 -3 2
601 201 1 -8.1999999999999995e-01 -8.0366765771954309e+00 -5.6493812299259734e+00 -1.3251909656192476e+01 2 -3 2
1943 648 2 4.0999999999999998e-01 -1.1316483108279579e+01 -2.5188727619352758e+00 -1.3671993323952710e+01 0 0 3
1210 404 1 -8.1999999999999995e-01 -8.3603199884109749e+00 -2.2179482808423288e+00 -1.2414356227722914e+01 1 -1 -1
1702 568 1 -8.1999999999999995e-01 -7.7105349020411573e+00 -1.5003166926139357e+00 -8.1288511343401968e+00 9 5 1
1211 404 2 4.0999999999999998e-01 -9.2609892600359451e+00 -2.6445566052726850e+00 -1.2496838466663851e+01 1 -1 -1
1942 648 1 -8.1999999999999995e-01 -1.1086445849074714e+01 -2.9280500504200582e+00 -1.2789009784944719e+01 0 0 3
2094 698 2 4.0999999999999998e-01 -6.5096161003417201e+00 -6.9219050816997019e-01 -9.7660432088137732e+00 5 2 2
1787 596 2 4.0999999999999998e-01 -1.2139879333863902e+01 -6.3767753931373381e+00 -8.7043255519381368e+00 -2 -3 3
1944 648 2 4.0999999999999998e-01 -1.1354894178544956e+01 -3.8913451725503574e+00 -1.2787980466294371e+01 0 0 3
368 123 2 4.0999999999999998e-01 -5.1597789357680703e+00 -3.9681679589902696e+00 -1.1831652882172069e+01 -1 -6 -3
369 123 2 4.0999999999999998e-01 -5.1854375074460819e+00 -4.8475628125433889e+00 -1.3207385853223615e+01 -1 -6 -3
1061 354 2 4.0999999999999998e-01 -1.2403935527325924e+01 -3.4020039284221575e+00 -7.8172673566313691e+00 1 -5 0
2213 738 2 4.0999999999999998e-01 -9.3400838406094078e+00 -6.5583233318130656e+00 -7.6421200218430974e+00 -1 1 1
2567 856 2 4.0999999999999998e-01 -6.8426043514487240e+00 -5.1757904371699865e+00 -7.7606277947784417e+00 -2 1 0
1424 475 2 4.0999999999999998e-01 -1.2897005371913380e+01 -9.2850984175875979e+00 -2.8498231680428336e+00 1 -5 -2
1919 640 2 4.0999999999999998e-01 -1.3864849793702275e+01 -9.1861561583323734e+00 -6.5010925315376653e+00 5 1 0
2038 680 1 -8.1999999999999995e-01 -1.3603545525239872e+01 -8.1278712930962627e+00 -1.8193968898162858e+00 0 3 -2
2039 680 2 4.0999999999999998e-01 -1.3973487429912701e+01 -7.5922985375353935e+00 -2.5785463645163702e+00 0 3 -2
2040 680 2 4.0999999999999998e-01 -1.4353819246672384e+01 -8.4505246646216872e+00 -1.2423463560140338e+00 0 3 -2
1918 640 1 -8.1999999999999995e-01 -1.3316793680022723e+01 -9.0250518631739602e+00 -5.6803105726143865e+00 5 1 0
1920 640 2 4.0999999999999998e-01 -1.3020988163207114e+01 -8.0700356428465998e+00 -5.6591855444340027e+00 5 1 0
1425 475 2 4.0999999999999998e-01 -1.2708543997769040e+01 -9.9025725179903041e+00 -4.3497707619997907e+00 1 -5 -2
1423 475 1 -8.1999999999999995e-01 -1.2628787045114192e+01 -1.0094869167582843e+01 -3.3716787489347606e+00 1 -5 -2
1520 507 2 4.0999999999999998e-01 -1.1706423421211131e+01 -1.1884831683116381e+01 -4.3579257078235667e+00 -2 -1 1
1358 453 2 4.0999999999999998e-01 -1.1045314631498393e+01 -9.2968268242756018e+00 -3.1196477542274952e+00 1 3 1
1521 507 2 4.0999999999999998e-01 -1.1454300630039882e+01 -1.3335223458416538e+01 -5.0646311635408843e+00 -2 -1 1
1852 618 1 -8.1999999999999995e-01 -9.7317263078912788e+00 -1.2510713005046885e+01 -5.9092567701349381e+00 -3 -3 -3
2553 851 2 4.0999999999999998e-01 -6.8975589548109433e+00 -1.3427906720471508e+01 -3.6636622101685301e+00 0 -3 4
1519 507 1 -8.1999999999999995e-01 -1.2025637302284176e+01 -1.2830651681684639e+01 -4.4173407736447974e+00 -2 -1 1
352 118 1 -8.1999999999999995e-01 -1.4752118976934559e+01 -1.2240977349503778e+01 -4.2997615479170808e+00 2 -1 2
1854 618 2 4.0999999999999998e-01 -1.0143038988722459e+01 -1.2203845685856713e+01 -6.7675442553005976e+00 -3 -3 -3
1837 613 1 -8.1999999999999995e-01 -8.0601478745376873e+00 -1.0103539881438468e+01 -6.5916231773271203e+00 2 -3 5
354 118 2 4.0999999999999998e-01 -1.3875584427932067e+01 -1.2214116906018731e+01 -3.8191694187380172e+00 2 -1 2
1357 453 1 -8.1999999999999995e-01 -1.0217315680788337e+01 -8.9037617001194036e+00 -2.7197468848151054e+00 1 3 1
1607 536 2 4.0999999999999998e-01 -6.3306674152136626e+00 -8.9404806454863710e+00 -3.9725564353160756e+00 -1 -3 2
1853 618 2 4.0999999999999998e-01 -8.9244311170780826e+00 -1.1955480739240011e+01 -5.7092700281571567e+00 -3 -3 -3
1608 536 2 4.0999999999999998e-01 -7.1968394983401458e+00 -9.9374148620648945e+00 -4.9330265916326717e+00 -1 -3 2
2415 805 2 4.0999999999999998e-01 -8.4996266798795048e+00 -1.1802488596497167e+01 -2.6328132419259145e+00 -1 -3 1
1359 453 2 4.0999999999999998e-01 -9.5883617215935075e+00 -9.6386830874082285e+00 -2.4661514930853627e+00 1 3 1
2413 805 1 -8.1999999999999995e-01 -8.9967086438550332e+00 -1.1282273098298479e+01 -1.9383433496867344e+00 -1 -3 1
2551 851 1 -8.1999999999999995e-01 -6.7563730459863311e+00 -1.2671588412245912e+01 -3.0248725022626619e+00 0 -3 4
1193 398 2 4.0999999999999998e-01 -1.1316058981267972e+01 -1.1489597182241580e+01 -1.0562439926770235e+00 0 -1 5
2352 784 2 4.0999999999999998e-01 -9.7550113624361803e+00 -8.0883979080605144e+00 -9.0912903107526155e-01 5 -4 0
1606 536 1 -8.1999999999999995e-01 -6.7578389560082925e+00 -9.8421638342434488e+00 -4.0396012062623274e+00 -1 -3 2
1839 613 2 4.0999999999999998e-01 -7.5667103012644938e+00 -1.0759560365108033e+01 -7.1627270522334419e+00 2 -3 5
2482 828 1 -8.1999999999999995e-01 -8.2449762611993407e+00 -1.4851273526831386e+01 -4.8112477414743360e-01 0 0 3
1838 613 2 4.0999999999999998e-01 -8.7111821975172532e+00 -9.5947608673531217e+00 -7.1549182419008686e+00 2 -3 5
674 225 2 4.0999999999999998e-01 -9.3938924114140541e+00 -1.4079752847179748e+01 -3.3462230566469948e+00 5 1 2
2552 851 2 4.0999999999999998e-01 -6.4351728972287994e+00 -1.1867842650592145e+01 -3.5256981718690970e+00 0 -3 4
2414 805 2 4.0999999999999998e-01 -8.3656597091978924e+00 -1.1006519217969919e+01 -1.2132639414886413e+00 -1 -3 1
675 225 2 4.0999999999999998e-01 -9.5115054667760646e+00 -1.3882986552900192e+01 -4.9630362997189703e+00 5 1 2
121 41 1 -8.1999999999999995e-01 -1.1582529266242357e+01 -1.4710319512274532e+01 -6.4487858077145344e+00 -2 -5 4
406 136 1 -8.1999999999999995e-01 -1.4301471306174635e+01 -1.4009954437156804e+01 -6.4235113354791196e+00 -1 3 8
848 283 2 4.0999999999999998e-01 -1.1982029485431678e+01 -1.4691370459259256e+01 -3.5401604120793309e+00 1 -2 3
2028 676 2 4.0999999999999998e-01 -6.5969334875247547e+00 -1.2961880174611553e+01 -6.7107868234915067e+00 4 1 3
2026 676 1 -8.1999999999999995e-01 -6.1922656615086922e+00 -1.3637843593565648e+01 -6.0948968220938227e+00 4 1 3
1194 398 2 4.0999999999999998e-01 -1.1114153728883348e+01 -1.2890399385816840e+01 -2.4161384907680983e-01 0 -1 5
2027 676 2 4.0999999999999998e-01 -6.2842288802516411e+00 -1.4549965417342232e+01 -6.4943710276761326e+00 4 1 3
2350 784 1 -8.1999999999999995e-01 -9.4169628757681672e+00 -7.7988718759677411e+00 -1.3639762696918467e-02 5 -4 0
1137 379 2 4.0999999999999998e-01 -6.4485546378941212e+00 -9.0157635129121285e+00 -1.2435727313817004e+00 0 1 9
122 41 2 4.0999999999999998e-01 -1.2551750897504553e+01 -1.4490067991674859e+01 -6.5587940032605143e+00 -2 -5 4
1136 379 2 4.0999999999999998e-01 -7.5715778861005081e+00 -8.9534989975464185e+00 -5.9690763380793044e-02 0 1 9
776 259 2 4.0999999999999998e-01 -5.1663311501095066e+00 -1.0279827938147479e+01 -3.7132367778508772e+00 -1 4 3
108 36 2 4.0999999999999998e-01 -5.7006034923788373e+00 -1.3583408701409681e+01 -1.8708079340574635e+00 1 3 7
408 136 2 4.0999999999999998e-01 -1.4263401463870483e+01 -1.3275093748474877e+01 -5.7463602506406914e+00 -1 3 8
945 315 2 4.0999999999999998e-01 -1.1357403427656964e+01 -9.3723381390293969e+00 -6.8568080756532872e+00 -4 1 1
1135 379 1 -8.1999999999999995e-01 -7.0381003810841998e+00 -9.5612979989255891e+00 -6.4789574734404809e-01 0 1 9
2484 828 2 4.0999999999999998e-01 -9.2421502927319281e+00 -1.4908140139557553e+01 -4.3199942984725936e-01 0 0 3
1192 398 1 -8.1999999999999995e-01 -1.1663047548953967e+01 -1.2057282545105888e+01 -3.0969501361295393e-01 0 -1 5
123 41 2 4.0999999999999998e-01 -1.1056576887878428e+01 -1.4273764274067588e+01 -7.1787150491860414e+00 -2 -5 4
673 225 1 -8.1999999999999995e-01 -9.1912739031737978e+00 -1.4489757853302050e+01 -4.2355175971214507e+00 5 1 2
2526 842 2 4.0999999999999998e-01 -1.2885683863170325e+01 -8.4700962135649505e-01 -9.1865678993778310e-01 0 -8 1
2211 737 2 4.0999999999999998e-01 -8.5217600194769325e+00 -6.7945150185077470e+00 -4.0369235304050406e+00 3 -3 -1
879 293 2 4.0999999999999998e-01 -6.5441384322787695e+00 -6.3556079063230442e-01 -7.0399284591620823e+00 -2 0 3
1367 456 2 4.0999999999999998e-01 -5.8807081040936371e+00 -5.4655806611522717e+00 -1.6627021267767841e+00 -1 3 -3
462 154 2 4.0999999999999998e-01 -1.4712893124544271e+01 -1.8539810283086009e+00 -7.0556863823305678e+00 3 1 2
2590 864 1 -8.1999999999999995e-01 -8.6580607511899359e+00 -1.8039764625978805e-01 -7.2067240973544955e-01 2 -1 4
1241 414 2 4.0999999999999998e-01 -1.0501965065950273e+01 -1.9226284132336779e-01 -5.1598204694582286e+00 -2 -2 1
2214 738 2 4.0999999999999998e-01 -1.0096634001710790e+01 -7.3934250475265140e+00 -6.4602267377640530e+00 -1 1 1
1869 623 2 4.0999999999999998e-01 -1.3266206844395279e+01 -3.3090854580793660e+00 -6.3034357432720078e-01 1 -1 2
112 38 1 -8.1999999999999995e-01 -8.2887746147270036e+00 -3.8191093507421741e+00 -1.0639108714808998e+00 3 3 3
1068 356 2 4.0999999999999998e-01 -1.2359844452341395e+01 -6.9169543738130308e+00 -8.0537380947562376e-01 1 -3 1
1366 456 1 -8.1999999999999995e-01 -6.1783620523368974e+00 -6.4159682981185266e+00 -1.5723219138704980e+00 -1 3 -3
2210 737 2 4.0999999999999998e-01 -7.1621463667998739e+00 -6.6194117075642893e+00 -3.1495541722896245e+00 3 -3 -1
2209 737 1 -8.1999999999999995e-01 -7.5270944239434927e+00 -6.8976763952804117e+00 -4.0380274722690892e+00 3 -3 -1
2212 738 1 -8.1999999999999995e-01 -9.6692318288629586e+00 -6.5213438324889932e+00 -6.6985643943397015e+00 -1 1 1
2394 798 2 4.0999999999999998e-01 -8.6023073994469321e+00 -3.3959971996859757e+00 -4.6002177339572299e+00 2 3 5
2178 726 2 4.0999999999999998e-01 -5.4715640128887664e+00 -2.2007221741306502e+00 -4.4126295301910297e+00 -5 -6 -2
113 38 2 4.0999999999999998e-01 -7.5966699229098928e+00 -3.1959995435209478e+00 -6.9959177481118751e-01 3 3 3
461 154 2 4.0999999999999998e-01 -1.4436619798989145e+01 -3.2797332533341041e+00 -6.3090013975988732e+00 3 1 2
1066 356 1 -8.1999999999999995e-01 -1.2108688632800783e+01 -5.9668703480239280e+00 -6.2026779991370518e-01 1 -3 1
878 293 2 4.0999999999999998e-01 -5.1221448445886608e+00 -1.3488571053492766e+00 -6.6714485945541320e+00 -2 0 3
1242 414 2 4.0999999999999998e-01 -1.1846152702138848e+01 -1.1105170343997521e+00 -5.2886758695376166e+00 -2 -2 1
723 241 2 4.0999999999999998e-01 -1.3715187491014335e+01 -3.4127819292654475e+00 -4.1425656977141205e+00 4 2 1
1368 456 2 4.0999999999999998e-01 -5.6254935285887253e+00 -6.8736150683473731e+00 -8.7597503334267479e-01 -1 3 -3
2104 702 1 -8.1999999999999995e-01 -1.2605593158162874e+01 -6.3254322552726254e+00 -5.3523472614998351e+00 4 -3 2
1441 481 1 -8.1999999999999995e-01 -9.1697916953069498e+00 -1.3643524740750301e-01 -4.3049207137257177e+00 3 0 4
2592 864 2 4.0999999999999998e-01 -7.7588830471358481e+00 -1.7994719041914387e-01 -1.1582594004673599e+00 2 -1 4
1601 534 2 4.0999999999999998e-01 -6.8819699132672500e+00 -6.4894386526796364e+00 -5.5889032527151894e+00 4 2 4
1493 498 2 4.0999999999999998e-01 -1.0665069716907649e+01 -5.8449878396540331e+00 -2.2479413102032151e+00 -2 1 3
1602 534 2 4.0999999999999998e-01 -5.5988773297053154e+00 -6.6020074135663798e+00 -6.5927141742709257e+00 4 2 4
441 147 2 4.0999999999999998e-01 -1.2078048273111762e+01 -2.9600661376997870e+00 -2.3329895920388051e+00 1 -1 0
1240 414 1 -8.1999999999999995e-01 -1.1356479816781134e+01 -3.2284479280108158e-01 -5.6625689606018419e+00 -2 -2 1
440 147 2 4.0999999999999998e-01 -1.1221985238340897e+01 -3.0583406316370869e+00 -3.7201208188897006e+00 1 -1 0
721 241 1 -8.1999999999999995e-01 -1.4646785546765440e+01 -3.4354038526491628e+00 -4.5053554650163523e+00 4 2 1
2176 726 1 -8.1999999999999995e-01 -5.9515079872801362e+00 -2.2765463676662030e+00 -3.5386114468343024e+00 -5 -6 -2
695 232 2 4.0999999999999998e-01 -9.6257975991986804e+00 -4.7859132441990297e+00 -6.0972636012292192e+00 0 -3 -2
1442 481 2 4.0999999999999998e-01 -8.9481614028372114e+00 -1.0225350053700577e+00 -3.8978453662258694e+00 3 0 4
2177 726 2 4.0999999999999998e-01 -6.9151721758052336e+00 -2.0417869560819071e+00 -3.6660574358711617e+00 -5 -6 -2
696 232 2 4.0999999999999998e-01 -8.6948315154652001e+00 -3.7950069354486775e+00 -7.0017201291617459e+00 0 -3 -2
694 232 1 -8.1999999999999995e-01 -9.4083496170945100e+00 -3.8315610858764408e+00 -6.3020353280946448e+00 0 -3 -2
1788 596 2 4.0999999999999998e-01 -1.2661962035823496e+01 -6.4450197413525192e+00 -7.1585547985846212e+00 -2 -3 3
322 108 1 -8.1999999999999995e-01 -5.8034872388608747e+00 -1.0889800333811639e+00 -9.2969577702747763e-01 1 -2 2
439 147 1 -8.1999999999999995e-01 -1.2087427686643224e+01 -2.7652466678730878e+00 -3.3137854622098750e+00 1 -1 0
114 38 2 4.0999999999999998e-01 -8.3147159731700242e+00 -4.6501068760265323e+00 -5.0823712920069397e-01 3 3 3
1600 534 1 -8.1999999999999995e-01 -6.5187755735334996e+00 -6.2256531506040318e+00 -6.4824972136609578e+00 4 2 4
460 154 1 -8.1999999999999995e-01 -1.4232820567398775e+01 -2.7289670391419527e+00 -7.1183996883782239e+00 3 1 2
2393 798 2 4.0999999999999998e-01 -8.8144326042021390e+00 -3.4293838561955869e+00 -2.9814147477603292e+00 2 3 5
324 108 2 4.0999999999999998e-01 -6.0969669588884550e+00 -1.5574505058276369e+00 -1.7630072697725208e+00 1 -2 2
1492 498 1 -8.1999999999999995e-01 -1.0160794649655013e+01 -6.2501499643066083e+00 -3.0105378128541300e+00 -2 1 3
2105 702 2 4.0999999999999998e-01 -1.3334683573829933e+01 -6.1251366119342734e+00 -4.6978918455010064e+00 4 -3 2
1494 498 2 4.0999999999999998e-01 -1.0279878008412361e+01 -7.2429673885228620e+00 -2.9988841863848741e+00 -2 1 3
2106 702 2 4.0999999999999998e-01 -1.1721171936742103e+01 -6.2909016769024184e+00 -4.8869336487515280e+00 4 -3 2
2392 798 1 -8.1999999999999995e-01 -8.6883632197625431e+00 -2.8358600767622271e+00 -3.7762978714063529e+00 2 3 5
1867 623 1 -8.1999999999999995e-01 -1.2431883626916221e+01 -2.7582780004893603e+00 -6.5312625141874037e-01 1 -1 2
323 108 2 4.0999999999999998e-01 -5.4122481700433127e+00 -1.9989657222157398e-01 -1.1673209267580749e+00 1 -2 2
877 293 1 -8.1999999999999995e-01 -5.6483017623889413e+00 -5.0023535375657069e-01 -6.6166474282768792e+00 -2 0 3
1062 354 2 4.0999999999999998e-01 -1.0904445120391713e+01 -3.8007412846136024e+00 -7.3081780762582893e+00 1 -5 0
1868 623 2 4.0999999999999998e-01 -1.1744038136190156e+01 -3.1703219578755171e+00 -5.5554923922882082e-02 1 -1 2
1311 437 2 4.0999999999999998e-01 -1.0548110124902990e+01 -1.6183322841860814e-01 -7.4556646018857302e+00 -5 -7 1
508 170 1 -8.1999999999999995e-01 -1.0731373612498412e+01 -9.8929648537923924e+00 1.3232511906256121e+00 2 -2 3
509 170 2 4.0999999999999998e-01 -1.1358715365950317e+01 -1.0420847782171926e+01 7.5072606125154451e-01 2 -2 3
67 23 1 -8.1999999999999995e-01 -1.1490830654863601e+01 -1.1225552175306388e+01 5.8046956347303222e+00 -5 -5 6
586 196 1 -8.1999999999999995e-01 -1.1112335740066118e+01 -8.7282844163427704e+00 3.9698860742112316e+00 -5 -4 0
2200 734 1 -8.1999999999999995e-01 -9.6691856020081417e+00 -8.0369055613470870e+00 6.1488098346581488e+00 4 -1 1
588 196 2 4.0999999999999998e-01 -1.1962549622437450e+01 -9.2537385777538290e+00 3.9376771879702801e+00 -5 -4 0
2201 734 2 4.0999999999999998e-01 -1.0398770573319393e+01 -8.2345541899099342e+00 5.4941008084141103e+00 4 -1 1
510 170 2 4.0999999999999998e-01 -1.0423467451233680e+01 -1.0457812756599496e+01 2.0888513824793549e+00 2 -2 3
538 180 1 -8.1999999999999995e-01 -1.3761090843136071e+01 -9.9878097974237470e+00 4.3679514617159860e+00 0 0 -3
69 23 2 4.0999999999999998e-01 -1.2227600348304311e+01 -1.0786660505350110e+01 5.2903536531274895e+00 -5 -5 6
132 44 2 4.0999999999999998e-01 -7.3301571122041427e+00 -9.9445627719661989e+00 4.5803381960386282e+00 -3 2 -4
2143 715 1 -8.1999999999999995e-01 -1.1203363655202264e+01 -1.4326909024551961e+01 2.8634204899555442e+00 0 -5 -1
2202 734 2 4.0999999999999998e-01 -9.7502982214868439e+00 -8.6511620658671369e+00 6.9337383802343382e+00 4 -1 1
1260 420 2 4.0999999999999998e-01 -1.3543206362688819e+01 -1.1309562741473252e+01 3.3950810126998654e-01 -1 2 -5
131 44 2 4.0999999999999998e-01 -8.0413211658068775e+00 -8.5196377307786797e+00 4.9415433712087378e+00 -3 2 -4
130 44 1 -8.1999999999999995e-01 -7.2814671112891869e+00 -8.9533570735318513e+00 4.4572784948719359e+00 -3 2 -4
671 224 2 4.0999999999999998e-01 -7.8489065255676991e+00 -1.4371601178522038e+01 4.1285964372441875e+00 -3 0 -6
670 224 1 -8.1999999999999995e-01 -8.2695838045648280e+00 -1.4532751914234806e+01 3.2358119841714696e+00 -3 0 -6
1623 541 2 4.0999999999999998e-01 -1.0590750466148634e+01 -1.2418541067065270e+01 2.9835042397268374e+00 1 0 -1
1622 541 2 4.0999999999999998e-01 -1.0446542309867480e+01 -1.1359203571493659e+01 4.2178635606861903e+00 1 0 -1
587 196 2 4.0999999999999998e-01 -1.0658440538013442e+01 -8.7738284169539078e+00 3.0799939304300317e+00 -5 -4 0
1621 541 1 -8.1999999999999995e-01 -1.0114494170773879e+01 -1.1600501189959893e+01 3.3059849630248657e+00 1 0 -1
1513 505 1 -8.1999999999999995e-01 -6.4757867148784918e+00 -1.3435686723048473e+01 1.3781755997430665e+00 6 1 3
1498 500 1 -8.1999999999999995e-01 -1.2579898609942044e+01 -1.4459796827680556e+01 5.9105338608920555e+00 3 3 3
1946 649 2 4.0999999999999998e-01 -6.6193170166257964e+00 -1.3778983221589247e+01 6.4877839740701226e+00 -1 -6 2
2387 796 2 4.0999999999999998e-01 -5.6854386144422335e+00 -8.3447860861698206e+00 3.3757048008750949e+00 -2 3 0
1217 406 2 4.0999999999999998e-01 -6.1411065910530827e+00 -1.1609292405063105e+01 1.9798289382559311e+00 -3 -4 2
2248 750 1 -8.1999999999999995e-01 -5.2649059801466915e+00 -1.0604216394877135e+01 6.6704118975033779e+00 1 -2 -1
1259 420 2 4.0999999999999998e-01 -1.3876025876896806e+01 -1.1022396073152613e+01 1.9122131935832094e+00 -1 2 -5
1591 531 1 -8.1999999999999995e-01 -1.3703486289186156e+01 -1.2749878209384200e+01 3.8227517733089762e+00 -2 1 4
1515 505 2 4.0999999999999998e-01 -5.5793148197946678e+00 -1.3800341352213771e+01 1.6299059363121877e+00 6 1 3