2593
Atoms. Timestep: 1000000
O -2.2648 -9.57324 2.41239
H -2.5749 -9.63424 3.36116
H -2.83197 -10.1633 1.83775
O -7.3447 1.78537 5.85686
H -7.92372 1.46223 6.60544
H -7.91453 2.21477 5.15618
O 10.1467 -14.1422 0.434127
H 10.2665 -13.712 -0.46065
H 9.38312 -13.7088 0.91278
O -6.26373 3.84449 7.63808
H -7.23626 4.04663 7.52248
H -6.04776 2.97757 7.1888
O -3.2017 -10.996 -0.0804138
H -2.84827 -10.3241 -0.731305
H -3.75374 -11.6731 -0.56705
O 2.75297 -3.02596 -10.3324
H 1.82316 -2.72395 -10.5429
H 2.92029 -3.9136 -10.7615
O 3.66434 1.03056 9.89069
H 3.3991 1.50221 10.7317
H 2.872 0.551165 9.51329
O 5.56681 8.832 -6.43941
H 5.75421 8.6846 -5.46822
H 4.75798 8.30788 -6.70611
O 11.8485 -8.05113 2.85335
H 11.5366 -8.76407 2.22525
H 11.2991 -7.2262 2.7205
O 4.63248 -10.3602 1.28875
H 5.53189 -10.1019 1.64143
H 3.97344 -10.3824 2.04057
O -4.35102 5.8189 6.62591
H -3.44366 5.42981 6.78516
H -5.03093 5.30355 7.14762
O -11.782 14.6371 -14.6521
H -12.6614 -14.9375 -14.307
H -11.8529 14.4644 14.268
O 12.6472 -4.65429 8.25266
H 12.1217 -4.74 9.09916
H 12.3259 -5.33166 7.59086
O -14.4 3.18717 12.1775
H -14.2964 2.66339 13.023
H 14.8341 3.91771 12.3177
O 13.4871 0.333046 2.05165
H 14.2189 -0.117089 1.5399
H 13.2831 1.21794 1.63288
O 13.8101 12.3735 -2.46225
H 13.3273 12.1572 -1.61365
H 13.7372 13.3536 -2.64676
O 10.0761 -12.4754 -9.10215
H 10.7055 -13.2259 -9.30369
H 9.19279 -12.6557 -9.53499
O 11.01 -3.59725 4.14564
H 10.2325 -3.52022 4.76994
H 11.4032 -2.69112 3.98957
O 2.63946 -14.0312 12.6285
H 2.42259 -13.7612 13.5666
H 1.89557 -13.7525 12.021
O 5.05145 -9.2928 -1.18596
H 5.04516 -9.82322 -0.338221
H 4.73052 -8.36403 -1.00043
O -4.56328 -11.3613 -4.33887
H -5.04141 -10.4945 -4.19739
H -4.43395 -11.8182 -3.45875
O -14.0312 -12.4077 6.28417
H -14.7765 -11.9346 6.75404
H -13.1586 -12.1488 6.69831
O -9.68468 8.52063 7.94508
H -9.0878 9.24514 8.28985
H -9.16042 7.91218 7.34926
O -11.9228 -11.6103 -12.1428
H -11.9904 -11.0344 -11.3281
H -11.5392 -11.0772 -12.8969
O -11.4978 9.68941 6.35892
H -10.7652 9.2724 6.89693
H -11.5579 9.23584 5.4697
O -11.6702 -0.255495 -13.3994
H -10.8497 -0.0840388 -12.854
H -11.9788 -1.19506 -13.2509
O 11.3845 -4.90922 10.5923
H 10.9268 -5.79351 10.6848
H 10.7193 -4.17419 10.7238
O 13.0044 -10.6982 13.5443
H 13.8549 -11.1992 13.7051
H 13.1794 -9.71564 13.607
O 13.8322 5.93689 11.1452
H 13.5918 6.90642 11.0975
H 14.7842 5.81529 10.8641
O 11.9217 -2.7163 13.0966
H 12.5494 -2.76598 12.3197
H 11.1342 -2.15009 12.8532
O 13.2111 4.04921 -1.66927
H 13.6199 4.41973 -0.835195
H 13.6677 4.44243 -2.46736
O 10.3325 7.60845 -0.231971
H 10.2482 8.51722 0.176784
H 9.42981 7.18121 -0.283747
O -10.9535 -13.7102 -10.2184
H -11.4949 -13.0808 -10.7759
H -11.4706 -14.5531 -10.0699
O -13.9364 -13.067 -4.17945
H -13.9225 -12.1481 -3.78528
H -13.3689 -13.0853 -5.00266
O -10.2946 -6.54116 -10.4026
H -9.84028 -7.42491 -10.5148
H -9.6121 -5.81055 -10.4224
O -8.79683 11.0809 5.03797
H -8.58732 10.9231 4.07297
H -9.06424 10.2179 5.46652
O -4.606 -10.3273 14.7563
H -4.84075 -11.2366 14.4125
H -5.03703 -10.1865 -14.255
O 12.5237 -0.780399 -10.3768
H 11.8334 -0.912154 -11.0882
H 12.7514 -1.66312 -9.96569
O 10.7702 3.21216 -7.93467
H 11.1544 2.97485 -8.82693
H 10.3299 4.1084 -7.98903
O -4.71108 -8.53714 12.289
H -4.77626 -8.8715 13.2292
H -4.36163 -9.26558 11.6996
O -3.56468 -1.36185 -4.39575
H -4.02265 -0.605667 -4.86318
H -2.84359 -1.0005 -3.80456
O 13.9765 -6.09753 -4.39491
H 14.7549 -5.48591 -4.53653
H 13.4791 -6.20865 -5.25529
O 0.116698 10.4042 -7.27181
H -0.821859 10.0927 -7.42056
H 0.514162 10.6927 -8.14294
O 2.19013 -5.71326 10.1623
H 2.2442 -5.09136 10.9436
H 1.75828 -6.56917 10.4469
O -5.20904 8.54722 -9.60088
H -5.83828 7.7736 -9.67592
H -4.31044 8.28103 -9.94973
O -14.7305 9.65437 -5.97692
H 14.5099 10.1285 -5.39655
H -14.844 8.66621 -5.87352
O 10.2937 -2.31535 -12.6812
H 11.0281 -2.70488 -13.2371
H 10.0645 -2.94771 -11.9412
O 0.857643 4.5982 -14.2954
H 0.421067 5.30558 -14.8513
H 0.549173 4.68134 -13.3478
O -5.83458 -8.90445 -4.09037
H -5.47532 -8.11772 -3.58833
H -6.28457 -8.5894 -4.92602
O -10.7056 -2.35605 14.6946
H -10.7163 -2.71203 13.7602
H -11.6097 -2.47221 -14.7966
O -8.26123 8.66979 -12.3242
H -7.5081 8.35612 -12.9025
H -8.08497 9.60833 -12.0273
O 13.9427 2.82373 7.52484
H 14.8274 2.59888 7.93321
H 13.4849 1.98248 7.23703
O 7.38221 1.52391 -14.2056
H 7.73318 0.587756 -14.2274
H 7.89443 2.05632 -13.5317
O -9.98492 -12.9292 0.504141
H -10.9727 -13.0773 0.55268
H -9.55472 -13.2744 1.33831
O 10.3723 10.688 -9.69673
H 10.7608 10.839 -8.78773
H 9.42156 10.3908 -9.60771
O -13.9559 13.8774 -7.62098
H -14.2327 13.6005 -6.70081
H -14.6931 14.4017 -8.04719
O 0.50953 -8.48773 3.42651
H 0.175181 -8.25406 2.51346
H 1.49373 -8.66043 3.38698
O -13.5915 -4.43698 -5.21821
H -12.6979 -4.76032 -5.52976
H -13.4785 -3.5827 -4.71079
O -7.36261 -10.7843 -2.65044
H -7.44447 -11.5447 -3.29472
H -7.02739 -9.97429 -3.13166
O -5.91245 9.81785 -2.47563
H -5.47847 10.515 -3.04636
H -6.57692 9.30686 -3.02099
O 1.29103 -14.0666 0.126681
H 1.22759 -14.7385 0.864677
H 2.04473 -13.4365 0.313474
O -10.6695 11.0978 -8.91719
H -10.1526 11.7422 -8.35357
H -11.4041 10.6933 -8.37246
O 6.32454 5.95484 6.33189
H 6.5782 5.07985 6.74431
H 6.38256 5.88327 5.33612
O -14.3965 -7.52875 -7.60346
H -13.976 -7.64383 -6.70347
H -13.935 -6.79024 -8.09504
O -0.727882 -12.1569 1.19671
H -1.47748 -11.6253 0.802229
H -0.135012 -12.4915 0.464207
O 4.86039 13.2754 -10.8386
H 5.84749 13.1231 -10.7887
H 4.61411 14.056 -10.2641
O -8.42763 -8.10765 9.44554
H -8.22696 -7.89281 10.4014
H -8.45838 -9.10007 9.32633
O 3.8603 4.96595 1.33326
H 3.62339 5.9256 1.18164
H 4.26999 4.58852 0.502751
O -12.7592 -0.826918 12.6086
H -12.9118 -1.37001 11.7829
H -12.0495 -0.144712 12.4324
O -1.26776 -6.73009 4.7848
H -2.18733 -6.95502 4.46253
H -0.640691 -7.47214 4.54774
O 9.9875 -0.690595 11.995
H 9.3231 -0.00730502 12.2979
H 10.543 -0.310463 11.2555
O 13.9599 -9.06357 4.88078
H 14.6837 -8.38076 4.98005
H 13.386 -8.82927 4.09605
O -14.6646 13.1566 -5.18538
H 14.9097 12.2577 -4.89512
H -14.215 13.6115 -4.41659
O 4.75785 11.4498 11.33
H 5.44882 11.105 11.9654
H 5.2091 11.8713 10.5434
O -7.7176 -1.9113 14.4137
H -8.46607 -1.536 13.8669
H -6.93906 -2.11283 13.8193
O -12.2616 11.8456 0.212099
H -11.5781 11.452 0.826932
H -12.7791 11.1103 -0.225527
O 2.51369 -14.0585 8.50157
H 1.71342 -13.5315 8.21552
H 2.24357 14.8976 8.67883
O 14.5349 12.5664 12.6663
H 14.7214 11.9414 13.4244
H 14.9345 12.1998 11.8261
O -6.88518 -0.207059 2.49558
H -6.21305 0.22962 3.09357
H -7.59575 0.4539 2.25418
O 13.9953 -3.17171 -12.4386
H 13.8082 -2.49444 -13.1502
H 14.7411 -3.76862 -12.7344
O 14.5056 -0.894742 -4.29616
H 14.1621 -0.0272494 -3.93625
H 14.8797 -0.750752 -5.2123
O -14.0528 -8.95443 -0.309928
H -13.953 -8.09497 -0.811328
H -14.8722 -8.91349 0.261879
O 12.9633 -7.66369 10.3483
H 13.2618 -7.90165 11.2726
H 12.4063 -6.83381 10.3813
O 10.673 -9.84359 1.24197
H 10.3685 -10.5787 1.84767
H 10.0157 -9.73186 0.496719
O 14.1197 -4.48364 -6.83211
H 13.9961 -5.45206 -7.04873
H -14.8135 -4.29979 -6.66836
O 0.419187 -2.8984 5.55646
H 0.685706 -3.42205 6.36566
H 0.181927 -3.52708 4.81584
O -6.92048 11.1526 7.65935
H -7.32135 10.8435 8.5218
H -6.44106 10.3913 7.22285
O 11.1928 4.55529 10.749
H 10.994 4.40936 11.7182
H 11.9856 5.1581 10.6585
O 7.08523 -9.19486 1.2229
H 7.51677 -9.50554 2.06983
H 6.84403 -8.228 1.3069
O 12.6383 14.7155 -5.47295
H 12.4864 -14.2126 -5.63887
H 13.566 14.577 -5.12631
O -13.4643 6.03651 10.8813
H -13.5057 6.10893 11.8778
H -12.5837 6.38315 10.5581
O 3.52907 12.2603 -5.12896
H 4.12047 13.0639 -5.1971
H 3.73607 11.7647 -4.28543
O -1.87341 -14.2029 11.9322
H -2.2357 14.8771 11.4937
H -2.6299 -13.6017 12.1896
O 10.5426 -5.86302 1.95661
H 10.621 -5.57187 1.00313
H 10.5672 -5.0608 2.55319
O 11.5734 5.52997 1.16874
H 10.7218 5.03141 1.33084
H 11.396 6.30378 0.56062
O 10.7426 2.66831 -12.1824
H 11.2277 2.22958 -11.426
H 10.5539 1.99185 -12.8944
O -13.5622 6.74703 13.5566
H -12.9974 6.83395 14.3773
H -14.4134 7.25681 13.6822
O 12.7906 0.619132 6.31396
H 11.9164 0.714131 5.83768
H 13.1349 -0.31234 6.19613
O -14.2058 10.6607 6.40752
H -14.1247 11.6406 6.58996
H -13.3209 10.2195 6.55684
O 14.1908 -10.4192 7.33183
H 14.44 -10.0763 6.4261
H 13.4254 -9.88546 7.69137
O 0.842898 9.70575 0.389036
H 0.785487 9.27331 1.2889
H 0.185277 9.2761 -0.229818
O -1.42648 1.80266 -6.49884
H -0.755783 1.06656 -6.59034
H -1.58835 2.21919 -7.39346
O -12.5552 -13.6209 0.928741
H -12.8825 -13.3596 1.83684
H -13.3145 -13.9937 0.395297
O 13.1718 11.6443 -12.8686
H 14.1557 11.5794 -13.0353
H 12.6857 11.6565 -13.7425
O 10.6447 0.970671 -14.402
H 10.3265 0.0699486 -14.6978
H 11.6037 1.08689 -14.6606
O -13.2769 -6.03456 11.783
H -13.5469 -5.67492 12.6761
H -12.2836 -6.14712 11.7554
O -6.24634 8.56789 12.0154
H -5.58044 9.251 12.3153
H -6.13669 7.73489 12.5577
O -6.7461 6.24484 -3.54378
H -5.89805 5.8558 -3.18394
H -6.55836 6.71142 -4.40813
O -3.18216 14.9185 -7.94183
H -2.69414 14.2165 -8.4606
H -2.64482 -14.1407 -7.93501
O 0.510959 10.6637 9.26853
H 0.459073 11.1473 10.1423
H -0.292167 10.0771 9.164
O -0.514637 -2.80947 11.1252
H 0.399944 -3.053 11.4481
H -1.20077 -3.2357 11.7147
O -5.29886 -10.3413 7.01993
H -4.68994 -10.5226 6.24767
H -6.24022 -10.5562 6.75976
O 4.85909 -6.56862 -1.4762
H 4.12676 -6.16678 -0.926417
H 4.4781 -6.92549 -2.32915
O -5.99913 5.46846 10.9552
H -6.85832 5.72254 10.511
H -5.94292 4.47262 11.0273
O -3.23924 -3.14503 4.47839
H -3.10259 -3.77448 5.24336
H -2.6169 -2.36775 4.57106
O -11.4782 -2.6659 -11.4461
H -12.3551 -2.82539 -10.9927
H -10.8222 -3.36354 -11.1578
O -12.3201 -5.64519 -8.52776
H -11.5883 -5.97688 -9.12324
H -12.0514 -5.76365 -7.57182
O -4.0168 0.581818 -6.21762
H -3.02601 0.706295 -6.27137
H -4.47468 1.41735 -6.52139
O -11.3682 -3.86976 12.5168
H -10.791 -4.62953 12.2173
H -11.9547 -3.57866 11.761
O -4.51583 -11.6949 3.92007
H -3.73857 -12.2002 3.54505
H -4.18214 -10.9606 4.51128
O 11.7727 -7.71317 -8.04529
H 10.8685 -8.12607 -8.15521
H 12.4602 -8.43426 -7.95967
O 11.4584 12.8011 -10.9856
H 11.1293 11.9979 -10.4889
H 11.8483 12.5151 -11.8609
O 11.5147 8.65017 5.22863
H 11.2165 9.28297 5.94326
H 12.3476 8.18207 5.5242
O 10.2576 3.62237 -4.18119
H 9.69958 2.89465 -4.57997
H 10.4603 3.40214 -3.227
O 1.82019 0.8572 -9.23436
H 2.0854 1.68376 -9.73087
H 2.22886 0.0580065 -9.67519
O -13.2866 9.16303 -3.39472
H -12.4249 9.0964 -3.89774
H -13.5516 10.1239 -3.31328
O -11.003 1.17134 12.1636
H -10.235 0.795762 11.6448
H -11.2879 2.03906 11.7562
O -11.4457 -10.5033 9.58658
H -12.2273 -11.1022 9.76143
H -11.7364 -9.73312 9.0188
O 9.40509 -14.2841 -5.39381
H 10.0961 -13.6605 -5.75931
H 9.55014 14.703 -5.76946
O -13.3731 -11.298 -1.34525
H -13.5304 -10.419 -0.895113
H -14.1088 -11.9315 -1.10571
O 7.40312 4.03609 8.10075
H 7.17766 3.30241 8.74179
H 8.13496 4.59996 8.48351
O -2.73458 -8.46161 -1.36699
H -3.57927 -7.9343 -1.45911
H -2.12048 -7.99839 -0.727957
O 14.7616 -14.599 7.67848
H 14.4845 -14.268 8.58054
H -14.8018 -13.8331 7.13212
O 14.0767 11.9299 -9.07135
H 13.4124 11.377 -8.56818
H 14.7073 12.3619 -8.4266
O 7.34493 -6.23455 12.2648
H 7.12942 -5.28223 12.4808
H 6.50758 -6.78052 12.2932
O -7.95094 -12.1607 6.45253
H -8.08135 -11.7365 5.55641
H -8.18469 -13.1316 6.39887
O -3.71134 14.6583 -4.94567
H -3.5796 14.8888 -5.90982
H -3.92731 13.6855 -4.86199
O -13.7455 -7.96645 14.423
H -13.0019 -7.57851 -14.9348
H -13.3735 -8.63615 13.7802
O 14.9395 -8.93039 -10.9277
H 14.8789 -9.16753 -11.8973
H 14.1175 -8.43054 -10.6548
O -4.62076 3.44801 -3.44857
H -4.74441 4.02619 -2.64206
H -3.64481 3.29003 -3.59898
O 7.86056 1.14881 12.9001
H 6.99243 0.707307 12.6733
H 7.93902 1.23935 13.893
O -8.47794 14.2659 -3.33858
H -7.75216 14.0205 -3.98132
H -8.85961 13.4349 -2.93377
O -6.17389 -2.81166 3.81529
H -5.52518 -2.62989 4.55434
H -6.00962 -2.17346 3.06312
O -11.9937 -2.3049 -7.60896
H -11.1912 -1.85315 -7.99859
H -12.1343 -3.18473 -8.06305
O -0.000500818 -0.290124 5.51036
H 0.682778 0.186002 6.06396
H 0.101243 -1.27751 5.63187
O 12.549 1.82473 -10.1111
H 13.2583 2.25279 -10.6711
H 12.536 0.840037 -10.285
O -4.12861 12.3871 2.58534
H -3.49064 13.1324 2.39139
H -4.98483 12.5448 2.09331
O -12.4944 14.6525 -3.34854
H -12.8862 -14.3372 -3.46433
H -12.112 14.5682 -2.42839
O 3.53633 7.34291 -7.40366
H 2.98561 7.98575 -6.8712
H 3.4229 6.42078 -7.03371
O 9.68402 10.3297 0.826676
H 9.818 11.0784 0.1774
H 10.3409 10.4165 1.57569
O 7.64472 13.1871 -10.8357
H 8.28327 13.4186 -11.5696
H 7.93379 12.3352 -10.3988
O -12.0232 13.8153 -9.6223
H -12.7852 14.0804 -9.03139
H -11.6736 12.9234 -9.33537
O 9.66538 -7.19895 11.2041
H 8.98623 -6.66136 11.7039
H 9.68359 -8.13144 11.5649
O 10.1905 -7.93506 14.2944
H 10.8166 -8.36033 14.948
H 9.88608 -8.61876 13.6311
O 9.4603 -14.3474 9.88886
H 8.88765 14.9399 9.34692
H 8.93801 -13.5283 10.126
O 14.0364 1.03426 -2.07573
H 14.9368 1.23228 -1.68811
H 13.5647 1.89244 -2.27847
O 8.82902 12.2789 7.12026
H 9.13884 12.3276 8.06983
H 8.51599 13.1816 6.82504
O 2.46732 -2.39532 -7.67237
H 2.34178 -2.74422 -8.60111
H 2.09966 -3.05433 -7.01619
O -10.0206 8.24346 1.22738
H -9.18866 8.39083 0.69238
H -10.3946 9.12617 1.51199
O 5.41092 -12.5214 -1.51494
H 5.4923 -13.4591 -1.85279
H 6.24108 -12.2739 -1.01531
O -7.68689 14.2304 9.80119
H -8.60409 13.8384 9.87274
H -7.45416 14.6923 10.657
O 11.0257 7.68222 10.708
H 11.2005 7.36131 9.77714
H 11.7279 8.34441 10.9697
O 12.1482 -8.59718 -2.06045
H 12.1469 -7.60956 -1.90346
H 12.3563 -8.78172 -3.021
O 8.4344 -6.4395 3.74011
H 9.02852 -6.31828 2.94488
H 8.01577 -7.34712 3.70816
O -8.46933 4.00569 3.9181
H -8.45968 4.2809 2.95674
H -9.09995 4.59219 4.4264
O -10.0989 2.33738 -3.14788
H -9.47673 3.10719 -3.0053
H -10.1824 2.15325 -4.12726
O 4.25344 -0.400771 14.3894
H 4.53192 0.295794 -14.8519
H 4.6945 -1.26953 14.6147
O 6.01977 -12.1349 13.6333
H 5.91646 -12.3395 14.6067
H 5.24973 -11.5753 13.3267
O 5.25639 13.2902 6.90155
H 4.39437 13.7818 6.77798
H 6.01825 13.8815 6.63713
O 9.10298 10.1613 12.6911
H 9.53435 9.59189 13.391
H 9.67327 10.1691 11.8697
O -4.23108 7.14945 4.42666
H -3.2563 7.25644 4.23072
H -4.34562 6.64693 5.28363
O -10.5124 -2.55681 0.680893
H -10.9262 -3.40357 0.346418
H -9.51619 -2.63581 0.645136
O 7.36855 -8.85968 -13.3101
H 8.29571 -9.21735 -13.4218
H 6.75545 -9.60174 -13.0389
O -7.18946 -6.89807 -10.2002
H -6.45342 -7.555 -10.0367
H -7.32936 -6.34328 -9.38007
O 5.91631 1.92033 -7.14822
H 6.91041 2.02252 -7.18528
H 5.65665 1.04026 -7.54585
O 13.5519 8.85864 11.5009
H 13.6429 8.83698 12.4966
H 13.7259 9.78629 11.1704
O 13.7072 -1.51761 -14.7218
H 13.5932 -0.542988 -14.529
H 13.0468 -1.79913 14.4845
O -11.1011 -7.02204 3.58008
H -10.616 -7.66689 2.98944
H -10.7022 -7.0447 4.49682
O -9.02908 -0.0017388 10.9124
H -8.13237 0.36341 10.6621
H -9.03164 -0.993927 10.7875
O 6.7587 -5.56887 -9.6665
H 6.17468 -6.02722 -8.99652
H 7.32304 -4.8849 -9.20416
O -2.17715 -5.13491 1.47523
H -3.06655 -5.31768 1.8943
H -2.24697 -4.33347 0.8812
O 14.2862 -14.7725 -3.02909
H 14.784 -14.1561 -3.63916
H 13.6089 -14.2519 -2.50932
O 6.44968 6.36747 -2.77945
H 6.12827 7.28344 -2.53915
H 7.18145 6.43819 -3.45737
O 12.1842 -2.97 0.85169
H 12.7779 -2.29214 0.417978
H 12.5359 -3.88779 0.66718
O 7.31938 9.00902 0.444136
H 8.06804 9.65883 0.575711
H 7.68604 8.14189 0.106964
O 3.08215 14.5647 5.57414
H 3.18068 14.3237 4.60861
H 2.69557 -14.4187 5.65048
O 4.60712 -3.28429 5.05464
H 5.44322 -3.7128 4.71206
H 3.85653 -3.94425 5.02125
O 7.90126 -14.8445 6.8663
H 7.75913 -14.0788 7.4936
H 7.56497 -14.5977 5.95744
O -14.0615 -4.52329 -0.80685
H -13.0757 -4.69115 -0.813759
H -14.3802 -4.44777 0.138036
O -1.11741 13.3786 -0.0945396
H -1.50491 12.5014 -0.378158
H -0.184521 13.4599 -0.445455
O 8.30649 -3.46026 -1.12203
H 7.30867 -3.41332 -1.07511
H 8.69344 -3.22809 -0.229611
O -10.6668 5.36694 11.8108
H -11.3202 5.83366 12.4068
H -9.96401 4.92488 12.3681
O 4.37215 -7.42332 12.1605
H 3.56482 -6.94074 12.5002
H 4.25071 -7.63451 11.1906
O -7.57237 2.32952 -7.86346
H -6.68029 2.60855 -7.50796
H -8.29468 2.7009 -7.28004
O 12.4862 -14.4829 2.30138
H 12.0535 -14.0294 1.52217
H 12.8064 -13.7944 2.95207
O 10.5141 4.87324 5.50199
H 11.3379 4.76506 6.05853
H 10.7604 5.26171 4.61403
O -14.1724 -8.50228 11.032
H -13.5775 -9.0402 11.6293
H -13.9477 -7.53217 11.1238
O -5.67813 13.8622 5.78248
H -4.83518 14.1777 5.34664
H -5.67901 12.863 5.82227
O -11.1888 12.8456 -4.71849
H -10.6488 12.5501 -3.93035
H -11.762 13.6223 -4.45749
O -2.09383 3.14671 -4.06412
H -1.93718 2.40636 -4.71787
H -1.51738 3.00784 -3.25885
O 9.5023 -6.12989 6.64935
H 10.437 -6.4831 6.60967
H 9.04376 -6.30171 5.77742
O -2.94266 12.4686 -9.75044
H -3.79132 12.4664 -9.22147
H -3.14801 12.6651 -10.7092
O 0.381134 -11.2134 3.42084
H 0.1854 -10.2349 3.48742
H 0.266908 -11.5124 2.47344
O -6.33223 -5.19102 -14.85
H -5.92777 -4.70737 -14.0738
H -7.26628 -5.46568 -14.6216
O -9.61765 3.35957 -5.91028
H -9.72491 4.29311 -5.56817
H -10.0895 3.26972 -6.78737
O 0.796535 -8.08752 13.6881
H -0.0819046 -8.36394 13.2982
H 0.780436 -8.22689 14.6782
O 1.39255 4.08462 2.41091
H 2.30618 4.48454 2.33744
H 0.745068 4.63312 1.8818
O -0.587518 1.45435 8.89749
H -0.330258 2.41792 8.82396
H -0.260597 0.959678 8.09222
O -14.3135 6.39769 5.67584
H -13.8136 5.94705 6.41552
H -13.971 6.07123 4.79484
O 1.7925 -14.6918 -10.6858
H 2.56851 -14.8849 -10.0854
H 1.35836 14.3514 -10.9563
O 4.52679 -5.2848 8.53742
H 4.70521 -4.32011 8.7313
H 3.72599 -5.58625 9.055
O -14.9242 4.14158 -10.2316
H -14.5716 4.41336 -11.1271
H -14.2264 4.30668 -9.53453
O -2.18798 -14.2976 -2.49965
H -1.27228 -13.9099 -2.60572
H -2.62876 -14.3612 -3.39503
O 1.46145 -7.08972 -5.39668
H 2.05309 -6.30763 -5.59251
H 1.40788 -7.67753 -6.20394
O -8.64602 -10.7031 8.9877
H -8.47512 -11.017 8.05373
H -9.59015 -10.9126 9.24224
O -1.85133 -11.9275 -13.7449
H -1.38611 -12.0019 -14.627
H -2.68746 -12.4758 -13.7617
O 9.58769 -2.42304 1.13078
H 10.5181 -2.59494 0.806902
H 9.62323 -1.96971 2.02144
O 12.2435 -7.09694 6.61603
H 12.635 -8.00447 6.46366
H 12.6023 -6.46031 5.93333
O -9.55717 -8.4301 2.04243
H -9.22787 -9.3065 2.39389
H -8.78339 -7.89499 1.70337
O -2.60033 -4.18821 12.5674
H -2.90918 -4.98738 12.0516
H -1.83913 -4.44861 13.1614
O 2.73563 -6.15349 14.0914
H 2.87375 -5.94463 -14.8429
H 2.13184 -6.94588 14.0042
O -9.11207 -7.14485 -4.38385
H -9.3072 -7.55081 -3.49101
H -8.6978 -7.83302 -4.97954
O -7.58569 -13.3468 -10.3972
H -7.98535 -14.1342 -10.8665
H -6.94006 -13.665 -9.70293
O -7.6211 -11.5347 0.0780821
H -7.57957 -11.1163 -0.829234
H -8.57442 -11.7208 0.316032
O -0.119608 -2.77344 8.51592
H 0.203498 -3.68387 8.25749
H -0.36368 -2.76921 9.48569
O -12.8575 5.06873 3.50812
H -13.7338 4.5952 3.41935
H -12.6241 5.50377 2.63846
O 5.47985 -7.24789 14.9122
H 5.066 -7.67215 14.1067
H 6.24734 -7.80686 -14.6764
O -3.22332 -9.42857 5.10169
H -2.84947 -9.05429 5.95034
H -3.80865 -8.74515 4.66536
O -11.7112 7.13769 -14.2945
H -11.2964 8.01953 -14.0702
H -11.3197 6.42687 -13.7101
O 1.02487 8.80997 -13.442
H 1.44191 8.2458 -14.1546
H 1.33995 9.75426 -13.5374
O -13.5822 9.65644 -9.67824
H -14.4635 9.8866 -9.26555
H -13.1901 8.86591 -9.20773
O 10.1702 0.651263 -0.0643102
H 9.69829 1.08933 0.700834
H 10.133 -0.341987 0.0457725
O 0.216412 8.81502 12.0295
H -0.121427 9.74034 12.2019
H 1.18598 8.85383 11.7877
O 11.9514 5.67324 -10.1287
H 11.4125 5.64175 -10.9705
H 12.7028 5.01618 -10.1891
O -13.741 -1.86355 5.85748
H -14.4425 -1.93575 6.56654
H -13.5525 -2.77083 5.48149
O 3.8501 14.6964 -8.86649
H 3.24375 14.0536 -8.39837
H 3.7971 -14.3127 -8.42031
O 2.16432 -4.10348 12.3523
H 2.05846 -3.14343 12.6115
H 2.32792 -4.65367 13.1712
O -1.06209 2.74647 14.8844
H -0.260177 3.3371 -14.9279
H -0.91128 1.89944 -14.5084
O 14.6142 4.98229 -4.04838
H 13.955 4.65023 -4.72306
H -14.3818 4.61695 -4.26023
O -12.5928 -9.83708 12.7834
H -12.3934 -10.8112 12.89
H -11.7556 -9.35087 12.5332
O 7.38285 -5.67009 -2.72864
H 7.71738 -4.83278 -2.29615
H 6.56501 -5.9889 -2.24954
O 8.70809 8.44038 6.6351
H 9.47524 7.8101 6.75458
H 7.92735 8.12076 7.17207
O -12.9502 2.0143 -5.49666
H -12.0835 1.52227 -5.57859
H -12.8466 2.76582 -4.8451
O -12.3008 14.1903 12.3483
H -12.3737 14.8138 11.5698
H -12.5691 13.2698 12.0643
O -5.36773 2.63683 -14.5837
H -4.69231 3.29192 -14.9224
H -6.0372 2.44694 14.6006
O 10.9312 -0.534855 -6.26468
H 11.6564 -0.0209331 -6.72299
H 11.0016 -0.401235 -5.27613
O 4.83572 3.02589 -9.77369
H 5.19178 2.94352 -8.84284
H 5.06941 2.2044 -10.2939
O -7.55525 -5.91162 8.1842
H -7.7283 -6.76274 8.67989
H -8.2094 -5.21514 8.47925
O 4.21498 0.755592 -4.43353
H 4.99173 1.3691 -4.29096
H 3.56045 1.18549 -5.05547
O -2.5628 -4.82949 -2.38014
H -2.96392 -4.02994 -2.8272
H -2.44866 -4.64345 -1.40422
O 5.7235 3.95387 -14.2986
H 6.50799 4.26915 -13.7645
H 5.86951 3.00447 -14.5767
O 5.46713 7.86653 3.19778
H 5.76958 7.06072 2.68863
H 6.24149 8.48434 3.33465
O 3.81991 -9.19112 6.86549
H 4.26125 -9.55541 6.04539
H 3.29572 -9.91632 7.31199
O -8.80128 -11.2727 2.86908
H -9.78537 -11.1003 2.91241
H -8.64065 -12.2415 2.67975
O 3.93123 1.30138 -12.9857
H 4.81329 1.71817 -12.7659
H 3.51736 1.78443 -13.7574
O 5.58186 0.221202 11.8439
H 4.88596 0.306845 11.1308
H 5.14242 -0.00632492 12.7129
O 13.5081 7.84265 -9.29267
H 12.9962 7.1437 -9.79212
H 14.1172 7.40213 -8.63319
O -7.29136 -7.76105 12.0773
H -7.5847 -8.01503 12.999
H -6.30241 -7.88529 11.9961
O -14.3434 -14.6578 -13.6103
H -14.8703 14.561 -14.1152
H -14.4181 -14.8371 -12.6293
O 5.6439 -3.3005 -1.28225
H 4.85209 -3.29648 -0.671449
H 5.33276 -3.25621 -2.23161
O -0.844729 7.1171 -12.3894
H -0.133195 7.77083 -12.6471
H -0.419422 6.27855 -12.0488
O 3.20408 7.46728 1.40545
H 2.29417 7.64417 1.78071
H 3.89359 7.90438 1.98301
O 13.9223 -2.9262 -8.98599
H 13.8952 -3.31388 -8.06457
H 14.7865 -3.17138 -9.42551
O -11.5652 14.1445 -0.969207
H -11.9311 13.3006 -0.576951
H -11.6114 14.8758 -0.288647
O -12.1809 4.15756 -3.74396
H -11.3746 4.59783 -4.13886
H -11.9049 3.592 -2.96679
O -8.13841 -8.03965 14.6992
H -7.59375 -8.1184 -14.3684
H -8.69545 -7.21022 14.7416
O 12.9254 5.54536 3.52796
H 12.7798 4.67606 4.00036
H 12.2428 5.65002 2.80458
O 5.51727 13.7296 9.73399
H 5.19689 13.5128 8.81181
H 5.36358 14.7 9.92072
O -14.4737 10.5835 14.3776
H 14.7973 9.82122 14.2356
H -13.5415 10.2872 14.1692
O -12.3578 -10.189 -10.0989
H -13.3076 -10.016 -10.3599
H -12.3185 -10.4413 -9.13204
O -9.36097 -4.95659 14.812
H -8.87734 -4.86594 13.9415
H -9.82759 -4.09815 -14.8774
O 2.5918 -5.12262 5.18619
H 2.6373 -6.04904 5.55998
H 2.07783 -5.13415 4.32842
O 6.30391 -11.6907 -8.87743
H 6.84891 -12.3617 -9.38016
H 5.62017 -12.1648 -8.32272
O -11.0738 -7.28441 -14.4994
H -10.5958 -6.44992 -14.7737
H -11.4804 -7.15377 -13.5951
O 14.4321 -1.14877 8.1869
H 13.7666 -1.88902 8.09089
H 13.9501 -0.279726 8.29887
O 12.2291 -2.21144 6.86907
H 11.2485 -2.14357 7.05321
H 12.5757 -3.07937 7.22485
O -7.81046 8.88151 -8.52378
H -8.06279 8.18788 -9.1985
H -7.23438 9.57438 -8.95748
O 9.84988 -6.11216 -3.62803
H 8.85684 -6.11017 -3.51
H 10.0735 -6.37628 -4.56626
O 9.80756 3.36715 1.63861
H 9.60096 2.43856 1.94696
H 8.97473 3.92011 1.66485
O -8.50953 -6.00804 4.41674
H -8.5176 -5.0373 4.17666
H -8.08763 -6.53107 3.67614
O -0.0150863 12.0669 11.78
H -0.941269 12.2744 11.4651
H 0.196833 12.6248 12.5825
O -11.1673 -2.40466 -4.58451
H -11.2308 -1.78441 -5.36636
H -11.8975 -2.1965 -3.93376
O 10.2895 4.46203 13.245
H 9.74468 3.63279 13.3698
H 9.92318 5.19163 13.8225
O 6.54143 10.1911 13.2325
H 6.31676 9.34214 13.7108
H 7.51994 10.209 13.027
O 5.64578 9.22224 -1.69304
H 6.0115 10.1037 -1.99201
H 6.16036 8.9001 -0.898376
O -7.80558 -4.90518 12.5988
H -6.93406 -4.78138 13.0733
H -7.88421 -5.85239 12.2879
O -8.69897 -0.162626 -4.98401
H -8.15351 0.0834063 -4.18276
H -8.50561 -1.10956 -5.24088
O 5.15173 -5.11943 -13.5464
H 5.13996 -5.93563 -14.1241
H 5.98385 -5.11561 -12.9918
O -7.24314 8.97918 -5.06459
H -7.50843 9.40788 -5.92824
H -6.50016 8.33033 -5.22893
O -6.24076 -6.8581 6.04905
H -6.5379 -6.23645 5.32427
H -6.85932 -6.77853 6.83079
O 11.7662 -12.3985 -6.19328
H 12.0266 -12.1097 -7.1146
H 11.7655 -11.6061 -5.58327
O -0.168032 -10.8599 6.29692
H -0.695448 -10.0309 6.48311
H -0.217524 -11.0743 5.32142
O 0.389858 -12.6164 11.7147
H 0.268451 -12.4308 10.7396
H -0.380179 -13.1598 12.049
O 0.135177 4.11351 4.89779
H 0.736485 3.81831 4.15527
H 0.561651 3.90031 5.77684
O 3.12419 10.6713 -0.484941
H 2.26827 10.2378 -0.202933
H 3.77511 10.6487 0.273899
O 14.237 -7.42997 1.5741
H 14.1378 -7.19128 0.608054
H 13.3604 -7.75504 1.92883
O -2.43293 -4.59797 6.69239
H -2.21827 -5.54491 6.9317
H -1.75936 -3.98783 7.10963
O 12.7212 2.882 1.34897
H 12.9242 3.68736 0.791985
H 11.7401 2.84715 1.53941
O -1.21708 4.21296 9.81961
H -2.08277 3.87345 10.1875
H -0.557709 4.31992 10.5638
O -14.5925 -12.4974 14.6231
H -13.6967 -12.2812 14.2346
H -14.4793 -13.1272 -14.511
O 7.40396 7.42003 -9.93542
H 6.59679 7.55292 -9.3602
H 7.84341 8.3027 -10.1022
O 8.02109 4.3883 -13.0179
H 8.98607 4.45373 -12.7638
H 7.45639 4.75978 -12.2809
O -8.64559 4.51231 -2.26773
H -9.29703 5.18303 -1.91303
H -8.1212 4.91999 -3.0153
O 4.39606 4.86722 -4.24226
H 5.02244 5.43322 -3.70622
H 4.24989 3.99607 -3.77346
O 9.50855 14.0208 -12.8655
H 9.81946 13.5243 -13.6759
H 10.1225 13.8275 -12.1002
O -2.78429 7.82667 -10.2302
H -2.32473 7.88495 -11.1164
H -2.30234 7.17257 -9.64715
O 2.91783 -9.44968 3.28513
H 3.45686 -8.62378 3.45059
H 3.22717 -10.1777 3.89693
O 14.6183 13.6304 -11.1787
H -14.8251 13.0879 -11.8823
H 14.1934 13.0192 -10.511
O 5.96858 9.95566 -12.1733
H 6.17275 10.5931 -12.9162
H 4.98844 9.97663 -11.976
O -9.60205 -9.31339 -10.8057
H -10.336 -9.97588 -10.9558
H -9.31678 -9.34324 -9.84772
O -13.442 -1.82678 -14.8972
H -13.1407 -1.40719 14.149
H -14.4236 -1.6762 -14.7795
O -0.444814 -9.53119 -2.62447
H -0.579792 -9.86793 -3.55637
H -1.31689 -9.20742 -2.25746
O -14.2514 -8.90375 -3.28951
H -14.9295 -8.17279 -3.36653
H -14.0135 -9.03779 -2.32747
O -10.1878 -9.09974 11.6746
H -10.563 -9.63628 10.9187
H -9.4778 -9.62921 12.139
O -2.56123 12.6462 13.798
H -2.72117 12.9759 14.7284
H -2.34901 13.4206 13.2018
O 10.4009 9.36693 -12.2124
H 11.2804 9.01923 -12.5376
H 10.544 9.9188 -11.3908
O -12.1458 -13.6701 -6.59469
H -12.8225 -14.3975 -6.70904
H -11.2435 -14.0095 -6.86042
O 12.3209 -13.0981 -1.9479
H 11.3641 -13.0046 -2.22341
H 12.5973 -12.2922 -1.42436
O 2.07962 -10.8023 10.598
H 1.55006 -11.2958 11.288
H 3.02114 -10.692 10.9165
O 3.44616 10.9755 4.08181
H 4.09593 10.4751 3.50956
H 3.53029 10.6672 5.0294
O -5.52414 5.89501 -10.5057
H -4.92285 5.6925 -11.2787
H -6.47025 5.95016 -10.8249
O 11.0988 7.81845 13.5599
H 11.1413 7.54766 12.5982
H 10.3884 7.28932 14.024
O -2.20174 6.19359 -3.1772
H -2.08133 5.48559 -3.87311
H -2.91549 6.83018 -3.46937
O -8.56293 -10.5057 -8.63259
H -8.23942 -11.1383 -9.33631
H -8.75746 -11.0126 -7.79275
O 1.99302 8.7138 -10.7814
H 2.87291 8.23959 -10.7503
H 1.6739 8.76252 -11.7278
O -13.6959 -4.03922 -10.1144
H -13.2417 -4.84258 -9.7291
H -14.2588 -4.316 -10.8932
O 8.79736 -10.0403 8.79541
H 9.79251 -10.0609 8.89184
H 8.47632 -9.09503 8.85349
O -0.326807 12.079 2.38318
H -0.798432 12.4887 1.60228
H -0.0543024 11.1443 2.15511
O -2.17274 -12.2366 -6.27301
H -1.54695 -12.3235 -5.49784
H -3.06126 -11.9114 -5.94924
O -2.67789 8.26958 7.00346
H -3.50589 8.23443 6.4438
H -2.65776 7.48151 7.61876
O -11.6175 7.27726 9.28607
H -12.4627 7.5359 8.81835
H -10.8321 7.54986 8.73025
O 8.77711 6.29977 14.293
H 8.0684 6.33915 13.5885
H 8.37184 6.49971 -14.7175
O -3.51805 -6.4063 11.0917
H -4.01044 -6.27774 10.2309
H -3.9665 -7.12085 11.6287
O 10.9391 8.64516 -2.70618
H 10.3891 9.47968 -2.67214
H 10.8827 8.17271 -1.8266
O 12.8165 3.02971 4.67941
H 12.7949 2.43125 5.4803
H 13.7055 2.95077 4.2283
O -1.25792 7.00069 4.67035
H -1.03036 6.06382 4.40476
H -1.08971 7.11994 5.64888
O -1.39627 0.293978 -12.2825
H -0.984645 -0.404224 -11.6967
H -0.936478 0.297414 -13.1705
O -3.49472 4.45483 14.5968
H -3.39129 4.92955 13.7228
H -2.64324 3.981 14.8216
O 7.47172 -9.94898 6.20521
H 7.26814 -8.97789 6.3301
H 8.16464 -10.2322 6.86829
O 7.71115 5.50461 2.10707
H 7.07177 5.06295 2.73649
H 8.14497 6.28157 2.56334
O 13.7193 1.35208 -14.5114
H 13.8527 2.16277 -13.9412
H 14.3614 1.37424 14.6248
O 9.79114 5.54454 -8.46595
H 8.98422 6.03966 -8.7881
H 10.525 5.62867 -9.14008
O 6.86458 10.1627 4.75949
H 7.60242 10.0266 5.42065
H 6.06031 10.5282 5.2281
O -6.76956 -13.8733 14.684
H -7.68552 -13.6111 -14.9147
H -6.69309 -14.8704 14.6779
O 1.97662 -12.7031 -14.6735
H 1.24378 -12.3796 -14.0749
H 2.34095 -13.5642 -14.3188
O 9.03413 2.6979 6.07479
H 8.17581 3.0429 6.45466
H 9.62231 3.46779 5.82708
O 4.67107 -12.6181 3.25845
H 5.12938 -13.1722 2.56351
H 3.94851 -13.1571 3.69138
O -10.551 3.17265 -8.63968
H -9.94089 3.65251 -9.27024
H -11.2076 2.62771 -9.16109
O -12.4526 10.8507 -6.60723
H -12.271 11.5907 -5.95953
H -13.3616 10.4717 -6.43399
O 13.2995 -11.7886 4.05174
H 13.8354 -11.0029 4.36098
H 12.4627 -11.8559 4.59514
O -13.975 11.5102 -12.9273
H -13.9566 11.0692 -13.8246
H -13.0922 11.3827 -12.4751
O -10.0291 7.10226 4.25114
H -9.5405 6.97543 3.38787
H -10.9008 7.56031 4.07661
O 1.46512 -7.66587 6.50559
H 1.17865 -8.40516 5.89614
H 2.36218 -7.8809 6.89171
O 0.688948 14.8438 3.22247
H 0.418819 -14.1137 3.40682
H 0.0312323 14.2205 3.64557
O 11.4199 -3.31605 -6.35395
H 11.2769 -2.33142 -6.25352
H 12.3691 -3.4899 -6.61652
O 5.04542 8.74212 -9.3811
H 5.16611 9.69151 -9.09101
H 4.49386 8.25437 -8.70439
O 7.16113 -13.1401 11.3102
H 6.62225 -13.005 12.1417
H 6.55659 -13.1178 10.5139
O 2.73952 11.7885 -11.9796
H 3.5105 12.281 -11.5757
H 2.31255 11.21 -11.2846
O -10.2844 7.05302 -1.67893
H -11.2754 6.95274 -1.76814
H -10.0661 7.41373 -0.772118
O 7.35542 12.1296 2.63943
H 7.38332 11.3447 3.25853
H 7.35138 12.9752 3.17322
O -14.0164 -4.77647 14.2273
H -13.977 -3.77891 14.1693
H -13.9626 -5.057 -14.7168
O -4.96669 -2.6079 7.11975
H -4.10569 -2.09974 7.09745
H -4.78188 -3.5677 7.33114
O 8.62213 -1.3387 -7.66254
H 9.4593 -1.07901 -7.18114
H 8.67554 -1.03246 -8.61302
O -6.12182 1.06124 -4.12301
H -5.645 0.761829 -4.94947
H -5.71072 1.90983 -3.78994
O 7.36634 3.30603 -5.05759
H 6.67628 3.68387 -5.67491
H 7.83158 2.54229 -5.50514
O -7.83964 1.8 -10.8377
H -6.95956 1.50395 -11.209