2593
Atoms. Timestep: 18495000
O 3.42772 6.49899 -11.3076
H 3.93875 6.68857 -12.146
H 3.92488 6.86978 -10.5232
O -4.83772 10.3279 -8.01548
H -5.6423 10.1043 -7.46533
H -4.05263 9.80316 -7.68646
O 14.96 12.2976 -13.0129
H 14.4256 11.4695 -12.8436
H 14.3418 13.0595 -13.2065
O -9.125 5.02196 3.40986
H -9.1246 5.12421 2.4151
H -9.45316 4.10861 3.65091
O -1.38386 8.53078 -9.55311
H -1.04271 7.59235 -9.60763
H -2.10154 8.66476 -10.2365
O 0.733613 -10.0963 10.7559
H -0.188233 -10.4205 10.5435
H 1.24679 -10.8247 11.2098
O 7.95359 -3.54306 12.5236
H 8.32221 -4.42696 12.8114
H 7.25923 -3.68524 11.8181
O -2.41396 12.5389 14.7209
H -2.38202 11.5771 14.4488
H -3.33986 12.8924 14.5878
O 6.8191 11.1845 -11.9617
H 6.60573 10.2093 -11.9036
H 7.7547 11.3405 -11.6449
O -7.89671 8.31594 1.89176
H -8.15847 8.58031 2.81998
H -8.66201 8.48145 1.26972
O -4.66366 12.066 4.71989
H -4.95071 11.1157 4.84048
H -4.66757 12.2944 3.74633
O -7.36268 10.5831 -14.6011
H -7.20229 10.5613 14.3858
H -7.99011 9.84635 -14.3491
O 7.33356 13.967 -6.04478
H 6.78193 14.786 -5.88701
H 7.08489 13.2642 -5.37829
O 7.06109 -3.56059 -9.54772
H 7.77295 -3.63032 -8.84886
H 6.38726 -4.28667 -9.41075
O 1.54628 6.01588 -14.4738
H 1.64515 5.41216 -13.6828
H 1.67976 6.96473 -14.1877
O 5.6994 5.57922 -0.561505
H 5.99355 4.74662 -1.03083
H 5.7471 6.35268 -1.19355
O -12.3793 11.8283 -14.2385
H -11.6998 11.9499 -13.515
H -13.2971 11.9248 -13.8534
O -11.0688 -9.1852 11.0136
H -11.2166 -9.87377 10.3037
H -10.0904 -9.10921 11.2057
O -3.9951 -6.68867 -13.8469
H -4.5254 -7.5133 -13.6501
H -3.29356 -6.89822 -14.5281
O -12.0349 12.9549 -4.80875
H -12.7953 13.5326 -4.51221
H -11.8878 13.0754 -5.79051
O -13.5633 -3.54723 11.0839
H -14.301 -4.09897 10.6949
H -13.5004 -3.72037 12.0668
O 13.5902 13.1587 3.86534
H 14.2123 12.8462 4.58328
H 13.6937 12.5772 3.05837
O -12.2486 -11.5634 5.50239
H -13.078 -11.9066 5.94313
H -12.1166 -10.6019 5.7432
O 12.1959 11.1946 7.39003
H 13.1296 10.8407 7.33526
H 11.6372 10.773 6.67574
O -14.277 14.6343 -4.20868
H -14.2019 14.6123 -3.21175
H 14.8316 14.2172 -4.48706
O 5.12676 8.98494 -8.46365
H 5.83276 9.47436 -7.95177
H 5.21246 9.19819 -9.43689
O -6.09153 0.0698798 9.69552
H -5.96493 -0.407184 10.5652
H -6.58323 0.926185 9.85356
O 3.384 4.13947 8.64496
H 2.58297 3.79423 9.134
H 4.03035 3.3915 8.49403
O 1.08035 -14.9771 6.13971
H 0.700999 -14.7603 5.24021
H 1.44577 -14.1449 6.55674
O -3.63348 -12.0307 -7.18507
H -2.86441 -12.5872 -7.49956
H -4.39862 -12.1296 -7.82129
O 0.942695 10.2288 -9.16817
H 1.03554 10.9035 -9.9004
H 0.0498283 9.78368 -9.23634
O -2.25556 1.67981 -13.1454
H -1.42009 1.83158 -13.6736
H -2.08948 1.90801 -12.186
O 11.3609 1.54681 -3.08662
H 11.9951 1.68932 -3.84653
H 11.3368 2.36652 -2.51436
O -12.7448 -5.0023 -10.5564
H -13.7158 -4.88376 -10.7642
H -12.2172 -4.98077 -11.4056
O -8.52877 2.13744 9.61041
H -8.28225 2.84833 8.95173
H -8.4373 2.49721 10.539
O -2.71938 -13.6925 0.375241
H -3.59701 -13.5518 0.833465
H -2.82616 -14.3761 -0.34676
O -2.28068 -7.19654 14.0461
H -1.35172 -7.17532 14.4157
H -2.30636 -7.79171 13.2429
O -9.33087 -3.37209 -1.69047
H -9.72787 -2.78532 -0.984714
H -8.36996 -3.1295 -1.82392
O 0.23246 -6.90566 -9.53942
H -0.190334 -6.01511 -9.70725
H 0.666082 -7.23234 -10.3792
O -5.49179 7.13445 -1.53236
H -5.51184 6.14554 -1.67952
H -5.07269 7.33111 -0.645979
O -13.3781 -13.1812 -7.7332
H -14.3454 -13.4168 -7.63919
H -13.1683 -12.3954 -7.15136
O 11.07 5.58787 -8.29836
H 10.3747 4.95094 -8.63141
H 11.5883 5.15868 -7.55861
O -4.88698 -3.22167 -9.79904
H -5.43072 -4.04056 -9.9828
H -4.98033 -2.58154 -10.5616
O -8.92218 -9.95059 3.46801
H -9.05433 -9.40371 4.29473
H -9.81248 -10.1853 3.07781
O -3.79116 0.373442 5.5342
H -4.22347 1.09695 4.996
H -3.46354 0.75234 6.39971
O -8.37449 7.34543 -1.46921
H -8.55224 8.14711 -0.898496
H -7.43631 7.03243 -1.32137
O 14.0128 -5.91265 -10.6363
H 13.6814 -5.25172 -11.3096
H 13.3236 -6.62434 -10.5006
O 14.5279 10.2104 -5.7874
H 14.0208 9.69425 -6.47766
H -14.8376 9.59236 -5.28929
O -14.0919 8.41947 -1.29852
H -13.426 9.16094 -1.38095
H -13.7382 7.72149 -0.675857
O -0.525117 11.4874 4.56946
H -1.0141 12.0423 5.24251
H -0.978445 10.601 4.47567
O 13.8977 -13.5051 -14.5322
H 14.2992 -12.9898 14.6844
H 13.2385 -12.9287 -14.0493
O 8.49654 -10.7136 11.9378
H 7.95802 -10.3087 11.1989
H 9.04326 -10.0026 12.38
O 8.22021 -13.9423 -3.34888
H 8.32782 -14.9296 -3.23187
H 7.76599 -13.7575 -4.22039
O 4.5796 -4.6657 -5.41653
H 3.58264 -4.58782 -5.41993
H 4.84986 -5.46229 -4.87578
O 9.5253 11.1033 -4.20089
H 9.83323 10.3628 -3.60356
H 9.95871 11.0106 -5.09731
O -1.39554 -2.95631 13.1297
H -2.32178 -3.33317 13.1375
H -0.805975 -3.50864 13.7191
O 11.2276 -9.14077 -4.63855
H 12.1965 -9.0119 -4.42692
H 11.1184 -9.94368 -5.22456
O -4.09146 -10.2725 9.04934
H -3.48532 -9.68787 8.51008
H -4.99874 -10.2895 8.62916
O 12.9501 14.1536 -4.38367
H 12.7713 14.8308 -5.09743
H 12.2136 14.1793 -3.70775
O 11.5591 9.66826 -8.09595
H 11.7617 10.2403 -7.30112
H 12.1536 8.86416 -8.08812
O 11.9119 -10.6658 1.28778
H 11.7419 -11.5973 1.60943
H 11.0933 -10.1095 1.43019
O 0.372012 -10.8256 4.43296
H 0.60152 -11.1594 3.51869
H 0.113533 -11.5971 5.01434
O 3.51106 9.39588 -0.960001
H 3.60641 8.99853 -1.8727
H 2.90768 10.1921 -1.00449
O -4.12544 1.63119 -9.78754
H -4.69481 0.878851 -10.1189
H -4.66709 2.47128 -9.7583
O 6.80044 -5.67474 1.75487
H 5.91741 -5.8711 1.32861
H 6.6617 -5.44402 2.71795
O 2.14283 -12.4608 7.10672
H 2.71847 -11.712 7.43528
H 1.18033 -12.2028 7.19057
O -2.05657 0.442936 -8.50841
H -2.75264 1.13509 -8.69925
H -2.16615 -0.323371 -9.14148
O 0.0951856 2.7973 6.8034
H 0.870618 2.19169 6.62468
H -0.706846 2.2501 7.04281
O -10.519 -6.64879 9.63791
H -10.8014 -5.69234 9.56398
H -10.7658 -7.00035 10.5409
O 14.451 6.68357 -3.16789
H 14.9628 7.4778 -3.49541
H 14.3508 6.73817 -2.17442
O -6.02617 -7.25522 5.47645
H -5.98968 -6.30169 5.77553
H -6.7485 -7.36288 4.79333
O 14.4646 9.86827 6.77062
H 14.7203 9.22272 7.49028
H 14.0098 9.37663 6.02803
O 8.16951 -10.8467 -8.36168
H 8.69457 -10.311 -9.02303
H 8.73988 -11.586 -8.00364
O 4.18086 12.7406 6.59962
H 3.2845 12.6992 6.15823
H 4.87054 12.3483 5.99096
O -3.74886 10.6187 10.3957
H -3.77644 10.0644 11.2275
H -4.24488 10.1489 9.66543
O 8.30056 6.78619 14.631
H 7.55118 6.25988 14.2292
H 8.0352 7.1019 -14.4318
O 7.86961 -0.263087 11.0112
H 8.61875 -0.802856 10.6272
H 7.12818 -0.199392 10.3432
O -13.9151 -11.4919 -13.6324
H -14.423 -11.9354 -14.371
H -13.1535 -12.0769 -13.3536
O 10.8671 1.16934 6.78557
H 11.7624 0.785546 7.01172
H 10.2587 0.437586 6.47823
O -14.2092 3.41942 -11.8547
H -14.567 4.33589 -12.0337
H -13.7147 3.09153 -12.6597
O -1.46362 -10.9257 -0.497224
H -0.787357 -11.2384 -1.16419
H -2.2861 -11.4902 -0.566677
O 7.86063 -11.5573 2.18719
H 8.37672 -11.7098 3.03004
H 7.46736 -12.4225 1.87601
O 0.162679 -7.88167 9.23255
H -0.707955 -7.971 8.74879
H 0.341827 -8.71639 9.75328
O 5.06845 -13.0669 -12.649
H 5.87666 -12.6997 -12.1885
H 4.66736 -12.3604 -13.2322
O 3.15889 -2.83449 -2.07639
H 2.76943 -3.70071 -1.76338
H 2.44795 -2.29159 -2.52343
O 4.01288 -11.0983 -14.63
H 4.50295 -11.7864 14.8087
H 4.57823 -10.2779 -14.5443
O -0.694486 -12.5707 7.11343
H -1.3339 -12.9324 6.43498
H -0.973061 -12.869 8.02634
O 12.5238 -5.76278 -0.571097
H 12.632 -4.88122 -0.111599
H 11.589 -5.84601 -0.916605
O -0.145426 14.0544 -10.9637
H 0.402656 13.2189 -10.925
H -0.075501 14.5395 -10.092
O -6.76098 10.593 0.0161508
H -6.39385 10.4336 -0.900264
H -6.40627 11.4577 0.371568
O 8.65516 -3.85323 5.11599
H 8.29391 -3.19548 4.45503
H 9.52961 -4.21001 4.7873
O 4.06636 6.1497 6.29757
H 3.42275 5.58996 6.81954
H 4.04871 7.08787 6.64329
O -1.52883 -5.28029 6.3303
H -1.13132 -5.47406 7.22721
H -2.34907 -4.71955 6.44335
O 6.50931 12.4868 8.47206
H 6.54152 12.7073 9.44692
H 5.55901 12.4903 8.16075
O 13.5446 -1.75701 11.6588
H 12.6546 -2.1887 11.512
H 14.2565 -2.30195 11.2157
O -7.31235 4.80856 14.3458
H -7.2188 4.15343 -14.8782
H -6.71608 5.59375 14.513
O 2.02235 1.98124 -11.0374
H 1.21154 1.8487 -10.4673
H 2.74026 1.34799 -10.7482
O 3.6667 -6.97068 -13.6225
H 3.41173 -6.00452 -13.5834
H 4.6302 -7.05108 -13.8778
O -3.76408 10.7401 1.71192
H -2.93665 11.3007 1.74421
H -4.55378 11.3222 1.5182
O -5.33423 1.80688 -7.31158
H -5.48423 0.945466 -6.82633
H -4.89458 1.62213 -8.19055
O 3.79512 4.5776 -2.97148
H 3.33717 4.61171 -2.08316
H 3.68048 3.66802 -3.37087
O -0.745926 -4.33318 9.04203
H 0.0280356 -4.86413 9.3871
H -0.70457 -3.40491 9.41163
O 12.6334 -9.18796 -14.4841
H 13.0568 -8.91249 14.6266
H 12.1585 -8.40559 -14.0812
O -14.2187 13.7449 13.3656
H -14.5336 13.3318 14.2201
H -14.9577 14.2865 12.9649
O -6.50408 -5.93163 -9.64637
H -5.94634 -6.74219 -9.82503
H -7.43492 -6.21245 -9.41255
O -7.84951 -10.4752 -13.0226
H -8.2248 -10.1585 -13.8938
H -7.62602 -11.4476 -13.0897
O -9.67633 5.86714 -12.2347
H -9.70076 5.13972 -12.9204
H -10.5741 6.30429 -12.1803
O -8.05088 -0.71483 -0.152329
H -7.65015 0.104874 0.256943
H -7.81438 -0.752309 -1.12324
O -1.1944 -8.31464 -12.0355
H -1.37041 -9.02936 -12.7125
H -0.557673 -8.65867 -11.3455
O -2.65803 8.80784 -7.10594
H -2.16051 8.868 -6.24057
H -2.00675 8.71526 -7.85911
O 5.49513 8.31656 11.1284
H 5.47784 7.32175 11.2286
H 5.80836 8.55353 10.2088
O 14.1292 7.42496 4.08406
H 13.6188 8.00372 3.44805
H -14.8676 7.48583 3.87947
O -1.42637 5.02264 -13.5878
H -1.39403 4.47471 -12.7519
H -1.3775 5.99326 -13.3522
O 9.48233 -14.1944 -13.1459
H 9.44135 -14.6535 -14.0334
H 9.39697 -14.8724 -12.4157
O 14.0019 3.83308 -8.91151
H 13.4145 3.08582 -8.60086
H 13.6092 4.24637 -9.73305
O -7.45875 -5.22744 -5.9989
H -6.5685 -5.65542 -6.15473
H -8.18489 -5.87096 -6.241
O 13.3681 3.24158 3.04739
H 12.7082 3.96828 2.85666
H 14.2919 3.57019 2.85071
O -14.4722 -11.1326 -3.1649
H -14.8473 -11.7227 -3.87981
H -14.7128 -10.1813 -3.35766
O 9.38164 14.1183 -11.1054
H 9.59302 13.2119 -10.7396
H 8.39511 14.1984 -11.248
O 2.77504 13.9637 -4.53217
H 1.92854 13.5177 -4.82287
H 3.49017 13.2752 -4.4116
O 5.63987 0.809645 -6.92617
H 5.14168 0.0262323 -6.55458
H 6.3564 1.08372 -6.28469
O -8.92404 -8.65341 14.6169
H -8.53594 -8.48439 13.7109
H -9.86988 -8.3296 14.64
O -4.68992 -2.03751 -12.1136
H -3.75219 -1.79338 -12.3608
H -5.11112 -2.54551 -12.865
O -13.366 -0.598832 11.5768
H -13.3507 -1.58785 11.4297
H -13.4377 -0.408477 12.5559
O -3.49032 -8.23782 5.94438
H -4.36918 -7.90967 5.59808
H -3.07002 -8.84217 5.26755
O 11.9994 3.79758 -1.34028
H 12.7636 3.33019 -0.895816
H 12.3502 4.4131 -2.04605
O -8.20819 10.4835 9.1943
H -8.65508 10.9596 8.43687
H -8.60545 10.7879 10.06
O 12.3052 13.8418 8.2969
H 13.2364 14.1833 8.16936
H 12.2268 12.9294 7.89516
O 10.8669 12.9833 10.6267
H 11.6372 13.37 10.1197
H 10.4256 12.2762 10.0742
O 6.65694 -9.53773 9.96145
H 6.39811 -8.59974 10.1921
H 6.8159 -9.60709 8.9766
O 13.6031 4.26083 -3.75257
H 14.1218 3.49454 -4.13165
H 14.177 5.07972 -3.74331
O -14.875 -4.76906 3.45463
H -14.3236 -4.22538 2.82184
H 14.2702 -5.08214 2.99043
O -0.433432 -8.84528 2.74515
H -0.349724 -9.71156 3.23766
H -0.750981 -8.13441 3.37271
O -5.32322 8.26694 1.04754
H -6.23102 8.13296 1.44497
H -5.16259 9.24362 0.905021
O -4.38611 -1.98334 14.7364
H -4.27003 -2.86702 14.283
H -3.86192 -1.97428 -14.3858
O 14.922 -12.9474 -5.32031
H 13.9766 -13.1962 -5.53082
H -14.5552 -13.7577 -5.00904
O 12.7855 -6.41793 11.3587
H 13.2299 -5.52897 11.4691
H 12.3968 -6.48433 10.4397
O -14.7195 -12.1756 0.109596
H -14.9523 -13.0524 0.530164
H 14.66 -12.0157 -0.678615
O -4.87298 4.20598 -9.76581
H -5.07706 4.66132 -8.89919
H -5.41222 4.62386 -10.497
O 7.70922 -1.39364 -6.03419
H 7.24505 -2.04468 -5.43361
H 7.89304 -0.548963 -5.53146
O 14.4813 -11.734 13.314
H -14.7291 -11.1501 13.0377
H 13.633 -11.2049 13.295
O -10.6488 -12.1445 -5.6279
H -10.8892 -12.8603 -4.97229
H -11.4399 -11.5519 -5.77945
O -6.79131 -8.40013 9.76642
H -6.73748 -8.76914 8.83855
H -7.16353 -7.47251 9.73514
O -13.4293 2.87592 -3.76247
H -12.9922 2.01707 -3.49541
H -13.9082 2.7501 -4.63125
O -8.39131 -7.90365 12.1022
H -8.09059 -6.96793 12.2866
H -7.83349 -8.29492 11.3703
O 1.40313 -11.447 -14.2216
H 2.34442 -11.5831 -14.5305
H 1.36558 -10.6622 -13.603
O -14.8026 -0.936563 -3.77771
H -14.0827 -0.963791 -3.08411
H 14.2964 -0.724738 -3.34202
O -9.40244 13.6267 14.7946
H -10.0587 14.2236 14.3331
H -9.87004 13.107 -14.4641
O 2.73421 8.10248 12.0608
H 3.43591 8.22615 11.3591
H 2.10683 8.88105 12.0456
O -6.75984 -3.06703 9.76757
H -6.92023 -4.03201 9.56001
H -6.83761 -2.52826 8.92872
O -4.58897 0.247386 -2.08155
H -3.70904 0.00317059 -1.67402
H -4.49964 1.11355 -2.57327
O 14.235 5.45935 6.14271
H 14.1157 6.19141 5.47199
H -14.7667 5.24083 6.22831
O -8.86099 5.42106 -9.7497
H -9.28931 5.35117 -10.6506
H -8.80848 4.51296 -9.33425
O 12.8411 -1.32649 -7.34879
H 13.7942 -1.2401 -7.05843
H 12.7936 -1.30386 -8.3474
O 9.79774 -1.96829 10.0788
H 9.44866 -2.40546 9.24989
H 10.1426 -2.66784 10.7046
O 11.5097 -11.7536 5.15428
H 11.9078 -10.8386 5.21952
H 12.2391 -12.4264 5.03075
O 12.6212 -12.5769 -0.940383
H 12.6205 -11.8767 -1.65433
H 12.386 -12.1586 -0.0630557
O 3.10822 -6.58974 -8.66902
H 2.68516 -6.43889 -7.77556
H 2.40964 -6.53355 -9.38235
O -12.2996 -4.5332 -0.454758
H -12.8834 -5.32282 -0.265801
H -11.3482 -4.76628 -0.253404
O 7.93775 11.471 6.44221
H 7.50849 11.8552 7.25958
H 7.42055 11.7482 5.63248
O 0.100877 8.10782 1.99742
H 0.90959 8.67705 2.14561
H -0.719901 8.62545 2.23906
O 8.85207 -11.1862 -2.65576
H 8.61953 -12.1587 -2.66555
H 8.28843 -10.7155 -1.97695
O -9.28983 9.75224 -0.376902
H -9.96938 10.2688 0.144029
H -8.37283 10.0694 -0.135085
O -11.3264 -10.326 -9.81006
H -12.1484 -10.8792 -9.67494
H -11.587 -9.41227 -10.1217
O 5.30901 5.67431 -4.85516
H 4.82355 5.65595 -5.72923
H 4.721 5.29768 -4.13933
O -4.85548 2.51981 4.15042
H -4.02182 2.61592 3.60656
H -5.60324 3.01122 3.70391
O -8.2083 2.37304 -8.95306
H -7.38683 2.01854 -8.50637
H -8.99198 1.80033 -8.71256
O -2.23783 -5.13988 -12.246
H -1.59003 -5.9016 -12.2575
H -2.90959 -5.26251 -12.9765
O 9.65714 3.40964 10.9764
H 10.374 3.80248 11.5524
H 10.0204 3.24202 10.0599
O -11.5035 -10.125 2.80466
H -11.9642 -10.6061 2.05884
H -11.7996 -10.5062 3.68044
O 1.31461 12.0656 9.64874
H 1.09122 11.6627 10.5363
H 0.756617 12.8826 9.50363
O 0.977514 -10.6782 -11.4412
H 1.86665 -11.131 -11.508
H 0.72186 -10.5862 -10.4788
O 1.43077 11.707 -11.4683
H 2.3955 11.8988 -11.6487
H 0.948301 11.5807 -12.335
O 9.77114 11.5327 -9.77932
H 10.0873 10.5961 -9.62815
H 9.57916 11.9659 -8.89872
O -1.30239 11.9847 -7.39864
H -1.07985 11.944 -8.37272
H -2.29573 11.9868 -7.28348
O -14.147 -5.55906 -3.80352
H -13.8632 -5.25856 -2.89292
H -13.8367 -6.49731 -3.9566
O -10.1058 14.7235 -10.7129
H -9.34004 -14.6294 -10.5454
H -10.957 -14.8173 -10.4163
O 1.68918 14.562 -2.14841
H 2.30663 14.8222 -1.40606
H 2.22366 14.2293 -2.92537
O 5.63476 -13.8594 -8.42315
H 5.42383 -14.1188 -7.4807
H 4.91528 -14.1961 -9.03055
O -14.4785 -12.1784 6.70879
H -14.6961 -11.2045 6.77351
H 14.6818 -12.6832 6.42
O 3.8157 -3.85867 2.95551
H 3.76159 -4.8111 2.65556
H 3.35746 -3.7609 3.83894
O -13.8727 -14.6922 -14.0239
H -13.5209 -14.8659 -14.9437
H -14.8713 -14.647 -14.052
O 5.11858 -14.3423 9.81063
H 5.08355 14.6858 10.1338
H 4.93259 -14.3185 8.82836
O -2.23237 -14.5416 -14.1856
H -2.15127 14.4986 -14.5348
H -1.42216 -14.0167 -14.4463
O 0.584985 13.3858 -6.33254
H -0.012304 12.6952 -6.74035
H 0.0588796 13.9452 -5.69202
O 9.11325 -7.94502 7.99681
H 8.84125 -7.30726 8.71743
H 8.29775 -8.3624 7.59585
O 7.14303 2.8841 14.7085
H 7.76595 2.1571 14.4197
H 7.02247 3.53657 13.9604
O -9.2239 -12.2834 11.1806
H -9.8576 -12.3988 11.9456
H -8.40598 -11.8017 11.4951
O 10.343 0.705398 -14.7872
H 11.1883 0.590458 14.6649
H 9.58863 0.264337 14.7004
O 6.17195 8.50821 -10.9701
H 5.8389 8.3156 -11.8931
H 6.72666 7.74063 -10.6489
O 4.34493 13.0579 10.4041
H 3.57963 12.8727 9.78764
H 4.5582 12.2331 10.9278
O -14.6498 12.6509 8.79564
H -13.8075 12.2721 8.41225
H -14.7851 12.2943 9.72004
O -8.28484 3.07054 12.1928
H -8.59678 2.28959 12.7339
H -7.87928 3.75508 12.7985
O 6.21559 -8.3075 -4.92976
H 6.82937 -7.62048 -5.31871
H 6.69284 -9.18411 -4.86809
O 2.12675 -5.77137 9.68912
H 1.53828 -6.52927 9.40755
H 3.01818 -5.8585 9.24441
O -12.7467 -8.78698 5.28354
H -13.1118 -8.23526 6.03341
H -13.4431 -8.88584 4.57272
O 5.8349 -3.09477 1.23096
H 5.01985 -3.17391 1.80493
H 6.30653 -3.97597 1.19847
O -3.97664 -3.95662 7.11201
H -4.25318 -3.08713 7.5213
H -4.50747 -4.11707 6.27985
O 5.14462 5.49688 10.8361
H 4.44506 4.82562 11.0811
H 5.6363 5.18437 10.0233
O 8.49311 -10.2549 -12.5403
H 9.30332 -10.7423 -12.8659
H 8.72182 -9.29364 -12.3864
O -7.20772 -5.79309 -12.3268
H -6.94955 -5.73584 -11.3624
H -7.78943 -6.59393 -12.4692
O 11.7308 -1.98649 -13.6722
H 12.5936 -1.52746 -13.8841
H 11.1949 -1.41749 -13.0484
O 5.26277 -1.82276 5.67611
H 5.42517 -0.884482 5.37073
H 5.33419 -2.44428 4.89597
O -3.2733 14.8321 11.6019
H -2.77523 13.9946 11.377
H -4.23046 14.6107 11.7885
O 3.31919 2.13189 -4.10642
H 4.10558 1.93959 -3.51938
H 2.9598 1.27404 -4.47377
O -5.84752 -2.53466 1.37519
H -6.60244 -2.07003 0.912355
H -6.20945 -3.10762 2.11052
O -9.46427 2.06635 2.91788
H -9.57167 2.15407 1.92754
H -9.46563 1.09836 3.16886
O 11.2057 14.2949 13.173
H 10.8835 13.9896 12.2769
H 10.4229 14.5592 13.7364
O -9.8671 -3.13739 2.39374
H -10.1667 -2.44831 1.7339
H -9.43282 -3.89654 1.90887
O -14.6308 -14.9205 -11.4276
H 14.4983 14.5345 -11.2954
H -14.3382 14.9765 -12.3807
O -0.748488 -4.33555 -10.1086
H -1.34509 -4.68372 -10.8316
H -1.03049 -3.40855 -9.86127
O -13.7181 -1.21557 3.5907
H -13.8289 -2.02892 3.01956
H -13.2077 -0.520121 3.08493
O 8.56118 12.7459 -0.0906279
H 9.36334 12.223 -0.378788
H 7.83783 12.1169 0.194111
O -7.76274 5.96371 -4.13703
H -8.66248 6.36752 -3.97145
H -7.20714 6.5971 -4.67567
O 6.85932 -11.6862 -10.8137
H 7.35248 -11.0488 -11.4058
H 7.09546 -11.5051 -9.85906
O 12.7884 14.6631 -0.49185
H 12.7898 -14.3127 -0.42871
H 12.2093 14.2842 0.229984
O 11.1612 6.89753 10.0162
H 10.9893 6.06459 10.5422
H 10.4084 7.04853 9.37551
O 3.19628 -12.4938 10.9477
H 2.48808 -13.102 11.3064
H 3.94716 -13.0395 10.5757
O -3.11395 -13.5658 -11.8005
H -3.94629 -13.9119 -11.3676
H -3.07368 -13.8844 -12.7476
O 4.70249 -6.27176 8.45003
H 5.14851 -5.93595 7.62039
H 5.39175 -6.43697 9.15546
O -14.4448 -3.34592 7.8886
H -14.2394 -3.96284 7.12883
H -14.4047 -2.3991 7.56934
O 9.15488 9.68595 0.810784
H 8.16494 9.82166 0.77068
H 9.38042 8.77388 0.468347
O -2.71378 9.4983 14.4016
H -3.30814 8.98421 13.7832
H -2.40888 8.90141 -14.83
O -8.05177 -12.8291 4.30536
H -8.81838 -12.8476 4.9472
H -8.01295 -11.9355 3.85814
O -6.96931 -14.4758 -1.94519
H -7.51043 -14.1408 -1.17385
H -7.42388 -14.2323 -2.80197
O -5.81217 -13.783 5.76671
H -5.37464 -12.8849 5.72255
H -6.74621 -13.7163 5.41579
O -11.6977 7.30675 1.27181
H -11.9185 8.26529 1.09166
H -12.0605 7.04344 2.16571
O -0.0731742 5.50799 7.21153
H -0.780276 5.77906 6.55843
H 0.223137 4.5737 7.0133
O 2.56807 -2.45076 -11.9158
H 2.35036 -2.98339 -11.0979
H 2.92585 -3.05909 -12.6242
O 0.305807 -14.6157 3.45511
H 0.352947 -14.4892 2.46425
H -0.649745 -14.7121 3.73374
O -11.6901 9.13889 -10.543
H -11.391 9.27329 -11.4877
H -12.661 9.36536 -10.4653
O -11.3986 -8.34848 -6.74068
H -10.5209 -8.12157 -7.16284
H -12.1429 -8.01722 -7.32055
O -5.32205 4.64074 -7.13747
H -5.34842 3.65792 -6.95478
H -4.44516 5.01291 -6.83323
O 3.27292 -3.83358 5.61806
H 3.84528 -4.61241 5.87464
H 2.94175 -3.37696 6.44378
O 8.02556 8.61483 5.67861
H 7.27417 9.2566 5.83207
H 8.30476 8.21373 6.55106
O 6.48951 9.62046 8.84506
H 6.14293 9.28624 7.9686
H 6.67554 10.6007 8.778
O -2.88056 5.8696 0.000608021
H -2.06829 5.45563 -0.410295
H -2.99651 6.7979 -0.352682
O 5.95369 -13.5094 -2.05104
H 5.5132 -12.772 -2.56306
H 6.75605 -13.8312 -2.55373
O -3.89185 12.2499 -6.3973
H -4.16998 11.5533 -7.05866
H -4.61198 12.939 -6.31627
O -11.2239 -2.56343 7.57311
H -11.2743 -1.61111 7.87403
H -11.2724 -3.16738 8.36866
O -14.5803 -1.47695 -6.44321
H -13.6683 -1.54902 -6.84702
H -14.4976 -1.3217 -5.45879
O -6.31867 4.62535 2.98925
H -7.22435 5.03744 3.08887
H -5.9547 4.83576 2.08192
O 9.25486 -5.27672 8.95017
H 9.51936 -5.09661 9.89759
H 8.99953 -4.41775 8.50634
O 1.28687 -5.30832 2.91331
H 1.70691 -6.11563 2.4988
H 1.59158 -4.48822 2.42896
O 10.0791 -9.22477 13.9456
H 10.9875 -9.35519 14.3429
H 9.38711 -9.30234 14.6633
O -11.36 11.0121 13.3665
H -12.0378 11.3478 12.7122
H -11.5959 11.3317 14.2842
O 7.83043 -14.4256 10.1186
H 6.85145 -14.2608 9.99837
H 8.24628 -14.6251 9.23131
O 0.224679 -14.5613 0.690217
H 0.395513 14.4309 0.77638
H -0.567149 -14.4115 0.0981233
O -10.0097 1.7551 -5.45172
H -9.70367 1.10035 -4.76061
H -9.33331 2.4862 -5.54092
O -3.35347 -3.45856 -4.22493
H -4.05155 -4.17402 -4.1969
H -3.79368 -2.56749 -4.33543
O -10.5793 1.06126 -13.2857
H -9.88582 1.47577 -12.6965
H -10.148 0.726455 -14.1235
O 1.8671 -0.285664 -4.71283
H 0.870631 -0.279831 -4.62902
H 2.12029 -0.274871 -5.68019
O -11.1236 -7.1661 2.07878
H -12.001 -6.7456 2.30946
H -11.1925 -8.15852 2.1805
O 8.35285 3.95173 1.10923
H 9.03304 4.5841 0.738497
H 7.6453 3.78333 0.422915
O 11.9082 -6.46759 8.68972
H 12.4473 -6.41686 7.84897
H 11.0444 -5.98033 8.56173
O 5.61468 -10.5348 0.81294
H 6.51011 -10.8749 1.10022
H 5.11417 -10.1986 1.61074
O 5.96557 1.12626 -1.99808
H 5.81289 1.07973 -1.0109
H 6.71591 0.514482 -2.24851
O 0.60569 8.58787 10.253
H 0.760174 7.6163 10.0736
H -0.184312 8.9025 9.72683
O -2.75999 -10.0849 -5.22542
H -3.60681 -9.99086 -4.70192
H -2.88186 -10.7794 -5.93451
O 13.9735 -0.792251 -14.3406
H 14.9696 -0.762237 -14.4227
H 13.5623 -0.242895 14.9057
O -6.56277 -11.557 12.3937
H -5.63617 -11.9189 12.2911
H -6.60233 -10.9654 13.199
O 6.36506 9.01023 0.00168949
H 5.60005 9.5769 -0.304335
H 6.6613 8.4175 -0.747253
O -7.07795 -5.58094 12.4143
H -6.60717 -5.14607 11.6466
H -7.05381 -4.97285 13.2078
O -10.3471 -8.87182 7.99676
H -11.1001 -9.40859 8.37735
H -10.2328 -8.0334 8.52966
O -7.80546 14.2419 -13.2204
H -8.47554 14.032 -13.9324
H -7.15976 13.4829 -13.1362
O 6.4761 7.40527 -2.63115
H 6.60559 6.52283 -3.08341
H 6.92363 8.12245 -3.16536
O 5.19799 4.91897 4.24818
H 4.89002 5.27542 5.13029
H 6.1444 5.19914 4.08754
O 13.9168 2.4832 -0.308935
H 14.0281 1.49281 -0.226838
H 14.8138 2.91145 -0.41867
O -10.5366 -4.96145 4.16162
H -10.341 -4.14101 3.62436
H -10.568 -5.75671 3.55616
O -14.7157 11.75 -7.97807
H -14.8502 11.2793 -7.10607
H -14.1401 12.5554 -7.83677
O 6.56269 5.21781 -7.97677
H 5.94121 4.43723 -8.0436
H 6.14098 5.93284 -7.41919
O -3.12531 -9.85167 3.66085
H -3.54633 -9.21378 3.01599
H -2.24761 -10.1631 3.29663
O -0.0540368 -10.8056 -8.91547
H -0.700751 -11.4391 -9.34022
H -0.555552 -10.0498 -8.49434
O 0.389178 6.48451 4.14965
H -0.0404782 7.0188 3.42169
H 1.05625 7.05305 4.63109
O 8.85796 -7.78691 -3.00118
H 8.63887 -8.46439 -2.29902
H 9.62039 -8.1178 -3.55725
O 6.7067 14.5009 3.15972
H 5.88904 -14.9141 3.2986
H 7.05414 14.6432 2.23287
O 10.5792 14.3513 1.14174
H 9.88112 14.0193 0.507377
H 10.3756 14.0219 2.06371
O -12.6784 5.35177 -4.51936
H -11.9538 5.03755 -5.13271
H -13.1058 4.56336 -4.0769
O -3.30692 6.7964 7.76991
H -4.18146 6.84362 8.25258
H -3.26964 5.95608 7.2291
O 2.28166 -5.32175 -2.58962
H 2.01919 -5.07987 -3.52375
H 1.61861 -5.96937 -2.21418
O 10.8237 9.84126 9.44913
H 11.1528 10.1884 8.57097
H 11.3805 9.05885 9.72806
O -2.39293 -1.95204 -10.0361
H -3.14399 -2.61014 -10.0892
H -2.19288 -1.60018 -10.9506
O -10.1881 13.4011 -2.49777
H -10.3139 14.3692 -2.28132
H -10.7539 13.1595 -3.28612
O -6.87226 9.35207 12.9354
H -6.08544 9.96428 13.0136
H -6.55262 8.41238 12.8136
O -2.06434 -10.9142 10.7131
H -2.59916 -10.6625 9.90652
H -2.66416 -11.3379 11.3918
O -10.9329 9.51517 5.91934
H -10.6561 8.83083 5.24475
H -10.6197 10.4183 5.62576
O -1.26211 9.29235 -4.78696
H -0.364649 9.24068 -5.22502
H -1.14584 9.36375 -3.7963
O 4.82817 -2.56963 8.37116
H 3.84184 -2.73267 8.34717
H 5.14719 -2.32064 7.4567
O -12.7627 0.187404 0.4108
H -12.5661 0.852289 1.13142
H -13.7351 -0.0450864 0.428054
O 6.56391 -12.0377 6.84933
H 6.07789 -12.8198 7.23944
H 7.45552 -11.9446 7.29245
O 14.2808 -4.83981 -14.6986
H 13.385 -4.54745 14.9406
H 14.2973 -4.78636 -13.7001
O -0.157147 -3.28913 5.19012
H 0.627323 -3.62628 4.6696
H -0.670267 -4.06408 5.55912
O -5.85027 -0.833882 -6.42675
H -5.2427 -1.51048 -6.01073
H -6.35773 -1.2581 -7.17677
O 10.7387 -6.90707 3.46547
H 10.289 -7.64506 2.96239
H 10.3861 -6.87811 4.40079
O -9.28013 6.16662 7.18815
H -9.6258 6.5871 6.34928
H -8.98797 6.88151 7.82343
O 7.6851 6.26638 -10.6186
H 7.53375 5.57752 -9.90969
H 7.6205 5.83726 -11.5196
O -1.83452 -10.5215 -13.6225
H -2.75333 -10.8773 -13.7934
H -1.16088 -11.2388 -13.8004
O -11.6801 10.0424 -4.91574
H -11.325 9.45131 -5.63996
H -11.7243 10.9851 -5.24658
O 7.27086 12.4806 13.9944
H 7.302 12.5931 13.0012
H 7.92353 11.7751 14.2706
O 13.9832 11.7051 -3.48866
H 14.1701 11.1155 -4.27442
H 13.5839 12.5656 -3.80513
O 14.7995 8.49782 -13.0379
H -14.1918 8.66857 -13.113
H 14.3787 9.21224 -12.4789
O 5.31986 -0.519093 9.86323
H 4.55818 -0.430701 10.5051
H 5.09341 -1.20268 9.16938
O -7.34548 -4.17018 2.87167
H -8.03542 -3.46534 3.03657
H -7.63002 -5.02372 3.30816
O -9.79749 5.70736 0.464594
H -10.4536 6.4472 0.613541
H -9.04392 6.03935 -0.102781
O -6.12279 -9.61979 7.15457
H -7.00005 -10.0992 7.1781
H -6.15334 -8.90288 6.45808
O 4.41935 11.9568 -6.64191
H 5.18688 12.0707 -7.27273
H 4.76497 11.8819 -5.70653
O 11.5256 7.21066 -3.91065
H 12.4693 7.00627 -3.65068
H 11.2653 8.10438 -3.54525
O -7.09371 1.74297 0.672387
H -6.49832 2.44189 1.06866
H -7.28649 1.97136 -0.281908
O 5.03293 0.336031 -12.8884
H 4.97908 1.29176 -13.1776
H 4.4384 0.193303 -12.097
O 13.973 -3.76307 -3.20194
H 14.4786 -4.54323 -3.57026
H 14.3951 -2.91324 -3.51754
O 9.52684 -14.9474 7.87798
H 10.3984 14.6969 7.5149
H 8.80603 14.8771 7.2011
O -5.88508 12.1584 -12.6422
H -5.89515 11.9174 -11.6717
H -6.54732 11.5924 -13.1331
O -8.53708 3.47842 7.30772
H -8.78066 4.44721 7.26176
H -7.86377 3.27 6.59833
O -8.18697 1.45307 -11.6817
H -8.158 0.463392 -11.5414
H -8.402 1.90624 -10.8166
O -8.54771 -12.392 -7.62226
H -8.79443 -12.1393 -8.55782
H -9.37901 -12.5526 -7.09013
O 3.88014 -14.6474 14.6692
H 4.19382 14.5174 -14.8074
H 2.93416 -14.7831 14.3747
O 3.78535 6.27119 13.9738
H 3.65119 7.08477 13.4081
H 3.11554 6.26739 14.7164
O 3.3559 -2.6676 11.5267
H 2.70529 -3.41292 11.6723
H 2.93288 -1.80003 11.7882
O 13.2143 7.74326 -7.59186
H 13.9404 7.27701 -8.09719
H 12.555 7.06954 -7.25792
O 1.91608 4.42324 -12.2903
H 2.52891 5.11788 -11.9135
H 1.99948 3.58099 -11.7577
O 10.5924 7.58177 -0.581024
H 10.7413 6.6954 -0.142648
H 11.4748 8.01222 -0.770852
O 13.8335 -10.0667 3.66732
H 13.4421 -9.66874 4.49702
H 13.1179 -10.1669 2.97606
O 12.2416 0.712377 -5.5594
H 11.3098 1.06142 -5.65908
H 12.3654 -0.0820814 -6.15398
O -7.36739 -13.0873 -13.2974
H -7.51503 -14.0735 -13.2224
H -6.39496 -12.906 -13.4442
O 2.13282 8.98015 -14.4723
H 1.94685 8.97939 -13.4898
H 2.72995 9.74991 -14.698
O -1.65961 12.0908 -11.9698
H -1.10655 12.8637 -11.6586
H -1.48417 11.9248 -12.9402
O 0.651805 -13.632 11.5294
H 0.023514 -13.2742 12.2202
H 1.12807 -14.432 11.8944
O -2.18713 2.74304 -4.85827
H -1.78158 3.57738 -4.4849
H -1.75392 2.52424 -5.73261
O -5.62601 9.48007 8.66076
H -5.06427 9.85063 7.92107
H -6.49156 9.97902 8.704
O -11.5431 7.32744 14.2124
H -11.0014 7.62789 13.4274
H -12.4882 7.17167 13.9251
O 9.05786 13.6648 3.56682
H 8.08479 13.8635 3.44998
H 9.24052 12.7206 3.2927
O -8.88197 10.5675 -10.7184
H -9.00117 10.2694 -9.77139
H -8.14473 10.042 -11.1431
O 14.2598 -13.0782 9.84662
H 13.7181 -12.6575 9.11891
H -14.7809 -13.2318 9.52128
O -7.39165 7.51269 -8.78853
H -8.07429 6.92862 -9.22771
H -7.50152 7.46526 -7.79572
O 11.7451 11.8191 -6.46151
H 10.8503 12.2512 -6.57352
H 12.3692 12.4572 -6.01056
O 6.94105 10.103 -3.60448
H 7.8667 10.4813 -3.61093
H 6.81122 9.52592 -4.41078
O 0.944346 12.7053 0.850269
H 1.63991 12.2239 1.3836
H 0.878499 12.295 -0.0592648
O 7.61837 0.65114 8.08916
H 6.67446 0.608017 8.41654
H 7.76929 1.52172 7.62084
O -8.68607 -2.40301 6.70553
H -9.62605 -2.56566 7.00551
H -8.5041 -1.41973 6.69777
O -9.66172 8.89742 12.7397
H -8.70843 9.18423 12.6449
H -10.2291 9.69224 12.955
O -4.78704 -1.24519 8.01101
H -5.0618 -0.957624 7.09351
H -5.28634 -0.709251 8.6918
O 12.9566 11.8886 -9.61196
H 12.2796 11.4078 -9.05481
H 13.8333 11.9048 -9.13104
O 5.14881 2.05161 8.64978
H 4.62829 1.23109 8.88599
H 5.76627 2.2826 9.4017
O 0.253244 -0.97502 6.59984
H -0.0971196 -1.70488 6.01285
H -0.463573 -0.683724 7.23334
O -8.26914 2.40313 -1.73435
H -8.65681 1.74904 -2.38388
H -7.74265 3.09346 -2.2306
O 6.99381 2.32202 10.8117
H 7.8634 2.78366 10.987
H 7.11582 1.33406 10.9068
O -1.83975 -13.7506 -8.43193
H -2.11898 -14.0025 -9.35853
H -0.841482 -13.7503 -8.37312
O -13.0566 11.8607 2.62006
H -12.6993 12.755 2.351
H -13.393 11.9054 3.56074
O 0.593637 11.9086 -14.0488
H 0.371581 11.2441 -14.7623
H 0.329638 12.8242 -14.3522
O 9.52439 -13.6086 -7.58647
H 9.79714 -13.6719 -8.54648
H 8.53353 -13.7219 -7.51332
O -10.3297 12.4922 -12.4992
H -10.1874 13.3647 -12.0317
H -10.0788 11.7417 -11.8878
O -12.0381 -1.52284 -13.2417
H -12.8561 -1.33638 -12.6976
H -11.324 -0.863405 -13.0067
O 11.8257 -5.90857 -8.22351
H 11.6998 -5.96495 -9.21395
H 11.64 -6.8011 -7.81255
O -11.2785 -4.26579 -8.51794
H -11.8368 -4.7469 -9.19386
H -11.3189 -4.7523 -7.6452
O -9.22294 -6.66304 -9.85986
H -9.11208 -7.17085 -10.7142
H -9.15606 -7.29333 -9.08638
O -11.0008 -8.57653 -1.89054
H -10.4537 -8.77835 -1.07816
H -10.4038 -8.53051 -2.69145
O -9.62349 -5.21754 0.540643
H -8.95368 -5.45283 -0.163625
H -9.89752 -6.04549 1.02993
O 11.7952 -4.26204 4.88249
H 12.23 -3.3624 4.84231
H 11.6076 -4.58333 3.95427
O -14.6036 6.2012 -8.67937
H -13.7768 6.31274 -8.12799
H -14.9058 5.24885 -8.63811
O -5.49819 -4.25254 -13.5784
H -6.21 -4.78218 -13.1171
H -4.88912 -4.87257 -14.073
O -10.1344 0.0993159 10.5664
H -11.0326 0.2529 10.1546
H -9.49149 0.787534 10.2302
O 11.2717 -3.73041 -3.78067
H 11.1772 -3.50595 -4.75057
H 12.1996 -4.0582 -3.60325
O 1.06668 11.3638 -4.32406
H 0.710359 12.0852 -4.9178
H 1.42743 10.6185 -4.88478
O 9.80572 3.91808 -11.655
H 10.5492 3.25028 -11.6902
H 9.26449 3.77096 -10.8271
O -5.65047 -9.83699 14.3581
H -5.83338 -9.18445 -14.8803