LAMMPS data file via write_data, version 15 May 2015, timestep = 8008000

2611 atoms
6 atom types
1749 bonds
4 bond types
894 angles
3 angle types
44 dihedrals
3 dihedral types
10 impropers
1 improper types

-1.5026742201833137e+01 1.5026742201833137e+01 xlo xhi
-1.5026742201833137e+01 1.5026742201833137e+01 ylo yhi
-1.5026742201833137e+01 1.5026742201833137e+01 zlo zhi

Masses

1 15.9994
2 1.00794
3 12.0107
4 1.00794
5 12.0107
6 12.0107

Bond Coeffs # harmonic

1 1000 1
2 469 1.4
3 367 1.08
4 469 0.7

Angle Coeffs # harmonic

1 100 109.47
2 35 120
3 63 120

Dihedral Coeffs # opls

1 0 7.25 0 0
2 0 7.25 0 0
3 0 7.25 0 0

Improper Coeffs # cvff

1 2.5 -1 2

Atoms # full

1277 426 2 4.0999999999999998e-01 -1.1275150228047936e+01 -1.0925665891578760e+01 -1.1096883647198247e+01 4 5 2
1276 426 1 -8.1999999999999995e-01 -1.1416408035634207e+01 -1.1596245378693956e+01 -1.0368617552898783e+01 4 5 2
2431 811 1 -8.1999999999999995e-01 -8.5044651109348841e+00 -1.0287655451057676e+01 -9.0146222955654931e+00 2 0 1
2167 723 1 -8.1999999999999995e-01 -1.4320115125650927e+01 -1.0765537843777741e+01 -1.4017489178950363e+01 3 -2 -1
1887 629 2 4.0999999999999998e-01 -1.2735542998293930e+01 -1.0065830529765513e+01 -1.3117182469706524e+01 1 1 0
1160 387 2 4.0999999999999998e-01 -1.4053140702174613e+01 -1.0955807149981045e+01 -8.4013945210895304e+00 5 3 0
1449 483 2 4.0999999999999998e-01 -1.4813543834693995e+01 -5.9961995690376071e+00 -1.2172505409265385e+01 0 1 -2
478 160 1 -8.1999999999999995e-01 -1.0605338739447189e+01 -7.2396649720173025e+00 -1.4418415544029546e+01 2 1 2
1170 390 2 4.0999999999999998e-01 -8.5497929195174258e+00 -1.0995210097691093e+01 -1.2968322666359100e+01 4 4 0
1168 390 1 -8.1999999999999995e-01 -9.1944853645863702e+00 -1.1622493956612164e+01 -1.3405230771584494e+01 4 4 0
15 5 2 4.0999999999999998e-01 -1.0825216027446036e+01 -5.8259781255850740e+00 -9.3638045523768483e+00 3 1 -4
78 26 2 4.0999999999999998e-01 -1.2892720509591754e+01 -1.4081419216269932e+01 -1.4355999472302617e+01 3 3 0
711 237 2 4.0999999999999998e-01 -9.8126205243194278e+00 -6.2188946051789920e+00 -1.2163416909176370e+01 2 2 0
13 5 1 -8.1999999999999995e-01 -9.9742403681966572e+00 -5.4919753299352454e+00 -8.9584836701594313e+00 3 1 -4
2006 669 2 4.0999999999999998e-01 -8.5987013431456525e+00 -6.3601455226077999e+00 -8.6632717552524703e+00 4 0 -1
2170 724 1 -8.1999999999999995e-01 -7.5258040982612258e+00 -9.9652347102438288e+00 -1.1871912711456947e+01 4 -1 1
1488 496 2 4.0999999999999998e-01 -1.1318288583240008e+01 -1.1566299546256339e+01 -8.6005918207022987e+00 1 4 -1
1448 483 2 4.0999999999999998e-01 -1.4449872544123338e+01 -7.5010627402381500e+00 -1.1653119057798943e+01 0 1 -2
2531 844 2 4.0999999999999998e-01 -1.2783871119619286e+01 -9.0188151431737378e+00 -1.1092113392373633e+01 2 4 -3
2171 724 2 4.0999999999999998e-01 -7.9318089641681615e+00 -9.5507954819950918e+00 -1.1057417565827068e+01 4 -1 1
1161 387 2 4.0999999999999998e-01 -1.3058037135584208e+01 -1.1078276071023126e+01 -9.6903484875855632e+00 5 3 0
1278 426 2 4.0999999999999998e-01 -1.1175796050539917e+01 -1.2507370691942384e+01 -1.0703220160220633e+01 4 5 2
1159 387 1 -8.1999999999999995e-01 -1.4013308074322580e+01 -1.1059438673866282e+01 -9.3952134292235350e+00 5 3 0
1885 629 1 -8.1999999999999995e-01 -1.1886007004525371e+01 -9.7792512951660520e+00 -1.2674279367906294e+01 1 1 0
2007 669 2 4.0999999999999998e-01 -7.6084864889415202e+00 -7.6363178398599265e+00 -8.4234992239450719e+00 4 0 -1
77 26 2 4.0999999999999998e-01 -1.1658000497121270e+01 -1.3819915646471618e+01 -1.3319797474725629e+01 3 3 0
1886 629 2 4.0999999999999998e-01 -1.1164126924414445e+01 -9.6946362110437541e+00 -1.3361106656728140e+01 1 1 0
2093 698 2 4.0999999999999998e-01 -8.2905675737063405e+00 -1.3075321841403614e+01 -1.2754501852464838e+01 2 5 -1
2005 669 1 -8.1999999999999995e-01 -7.6506859057038019e+00 -6.6413403915129514e+00 -8.5142807238603062e+00 4 0 -1
520 174 1 -8.1999999999999995e-01 -1.1867821718096302e+01 -6.5356495420113649e+00 -1.1976185517141356e+01 0 -2 0
2094 698 2 4.0999999999999998e-01 -7.7297419871858626e+00 -1.3670851640912169e+01 -1.1341189750240321e+01 2 5 -1
2432 811 2 4.0999999999999998e-01 -9.4352138500017038e+00 -1.0302219725427836e+01 -8.6492500541504107e+00 2 0 1
76 26 1 -8.1999999999999995e-01 -1.1901369804618682e+01 -1.3976616842152474e+01 -1.4276990411547496e+01 3 3 0
2092 698 1 -8.1999999999999995e-01 -7.9049486881708431e+00 -1.3880091895537536e+01 -1.2303230964307664e+01 2 5 -1
2530 844 1 -8.1999999999999995e-01 -1.3376160595580277e+01 -8.5404608992403084e+00 -1.0443751933838428e+01 2 4 -3
2433 811 2 4.0999999999999998e-01 -7.8557118561240111e+00 -1.0138833168827540e+01 -8.2683157328711445e+00 2 0 1
1990 664 1 -8.1999999999999995e-01 -1.4863769587531916e+01 -1.3935608413924500e+01 -1.3176336203855897e+01 4 0 1
2491 831 1 -8.1999999999999995e-01 -1.0791629832962489e+01 -1.3812364177727256e+01 -1.1563472473346089e+01 4 1 0
2228 743 2 4.0999999999999998e-01 -1.3248309240904764e+01 -7.0321012791587298e+00 -9.3067540488954599e+00 3 2 -3
522 174 2 4.0999999999999998e-01 -1.2276072286817364e+01 -5.6530976832953765e+00 -1.2209500371825301e+01 0 -2 0
2492 831 2 4.0999999999999998e-01 -9.8220026150685946e+00 -1.3874266628271208e+01 -1.1800101410409033e+01 4 1 0
2227 743 1 -8.1999999999999995e-01 -1.3089185655959916e+01 -6.1991836500437714e+00 -8.7767257593608541e+00 3 2 -3
2229 743 2 4.0999999999999998e-01 -1.3887228249605579e+01 -5.6008707172603085e+00 -8.8485030967815295e+00 3 2 -3
2532 844 2 4.0999999999999998e-01 -1.3965208952340591e+01 -9.2020206189372029e+00 -9.9796795973466388e+00 2 4 -3
2286 762 2 4.0999999999999998e-01 -7.9817108577443800e+00 -1.2394487241189060e+01 -9.6322848713048845e+00 2 3 -1
159 53 2 4.0999999999999998e-01 -7.9209557719181944e+00 -1.4967017568097786e+01 -8.5680899672429440e+00 4 2 -2
521 174 2 4.0999999999999998e-01 -1.2568770231506717e+01 -7.1356177111293109e+00 -1.1590554162460196e+01 0 -2 0
2179 727 1 -8.1999999999999995e-01 -7.6701770451212656e+00 -8.5855435863911360e+00 -1.4735617468763554e+01 5 -1 1
1486 496 1 -8.1999999999999995e-01 -1.1243667560891399e+01 -1.1588089606652980e+01 -7.6036168449622998e+00 1 4 -1
2493 831 2 4.0999999999999998e-01 -1.1172423677846503e+01 -1.4732732554177844e+01 -1.1474476971993671e+01 4 1 0
1169 390 2 4.0999999999999998e-01 -9.0563685472010267e+00 -1.1606066180108073e+01 -1.4395511518892013e+01 4 4 0
2169 723 2 4.0999999999999998e-01 -1.4073510105112524e+01 -1.0592081928474560e+01 -1.4970957118228608e+01 3 -2 -1
480 160 2 4.0999999999999998e-01 -1.0816845923779280e+01 -7.2025270314980805e+00 -1.3441743833183844e+01 2 1 2
710 237 2 4.0999999999999998e-01 -9.3362074708600655e+00 -5.3914145827764397e+00 -1.0838675524397001e+01 2 2 0
709 237 1 -8.1999999999999995e-01 -9.0742074091263376e+00 -5.6784744081242309e+00 -1.1760062927818364e+01 2 2 0
2180 727 2 4.0999999999999998e-01 -8.0822872179299310e+00 -7.6769827455908812e+00 -1.4667173975707959e+01 5 -1 1
479 160 2 4.0999999999999998e-01 -1.1315379430884942e+01 -6.7576924848917184e+00 -1.4931783667095482e+01 2 1 2
1674 558 2 4.0999999999999998e-01 -3.3798665250260829e+00 -6.1422935602922859e+00 -1.2742386320947652e+01 5 1 1
1011 337 2 4.0999999999999998e-01 -8.1547621068879295e-01 -1.2400757078215136e+01 -1.1844370006086205e+01 2 1 0
2181 727 2 4.0999999999999998e-01 -7.3354386253866384e+00 -8.8682855016810542e+00 -1.3836724093121425e+01 5 -1 1
2285 762 2 4.0999999999999998e-01 -7.0633101283215032e+00 -1.3377421479798263e+01 -8.7065352233161377e+00 2 3 -1
2185 729 1 -8.1999999999999995e-01 -3.5451069365233252e+00 -7.1160090511136778e+00 -1.0945273797647367e+01 4 1 1
2172 724 2 4.0999999999999998e-01 -6.7695272760889846e+00 -1.0560812216848973e+01 -1.1601108232903469e+01 4 -1 1
381 127 2 4.0999999999999998e-01 -9.0837938866550694e-01 -1.1062437545820632e+01 -1.4320832395713795e+01 0 4 -2
2558 853 2 4.0999999999999998e-01 -5.0685497198070575e+00 -1.2130213632106701e+01 -1.0279978087029917e+01 -1 1 0
1826 609 2 4.0999999999999998e-01 -7.5385273681455089e-01 -1.0876829323768568e+01 -9.9026508743867190e+00 0 -2 -2
1214 405 2 4.0999999999999998e-01 -5.4542438776704216e-01 -9.8863653141840846e+00 -1.1832613238000235e+01 4 2 1
367 123 1 -8.1999999999999995e-01 -4.8767354765145807e+00 -7.7995440544250245e+00 -1.4928345365617311e+01 1 4 0
205 69 1 -8.1999999999999995e-01 -3.5519454819100691e+00 -1.1673884027391086e+01 -8.1984553111586624e+00 5 -1 -4
2284 762 1 -8.1999999999999995e-01 -7.4836737644201925e+00 -1.3261258507373809e+01 -9.6064255915864631e+00 2 3 -1
1009 337 1 -8.1999999999999995e-01 -1.5507401027962828e+00 -1.2094947374043015e+01 -1.1239498430153859e+01 2 1 0
1760 587 2 4.0999999999999998e-01 -7.0530086108532499e+00 -5.1758593862417452e+00 -1.4808405047910126e+01 4 -3 1
543 181 2 4.0999999999999998e-01 -2.4240950640356029e+00 -9.4647155156717488e+00 -1.2870875454403350e+01 2 -1 0
2504 835 2 4.0999999999999998e-01 -7.2667605835872351e-01 -1.4853574009026000e+01 -8.5697690702610281e+00 5 2 3
2028 676 2 4.0999999999999998e-01 -4.3330554952572538e+00 -8.4957951201780837e+00 -8.0230930500817976e+00 3 2 0
2187 729 2 4.0999999999999998e-01 -4.0416439402314186e+00 -6.2978514229616778e+00 -1.0655323126734217e+01 4 1 1
145 49 1 -8.1999999999999995e-01 -5.0035269690773720e+00 -1.4736721229683592e+01 -1.2752695671022165e+01 2 3 0
147 49 2 4.0999999999999998e-01 -4.5832258582295733e+00 -1.3831461946431835e+01 -1.2814782169686563e+01 2 3 0
146 49 2 4.0999999999999998e-01 -5.9822049191964144e+00 -1.4638169631127113e+01 -1.2572475918326308e+01 2 3 0
1672 558 1 -8.1999999999999995e-01 -3.4342527892874593e+00 -5.8833682849219322e+00 -1.3706752400789229e+01 5 1 1
2557 853 1 -8.1999999999999995e-01 -5.4873925504875878e+00 -1.1326261795289467e+01 -1.0702156036478076e+01 -1 1 0
2559 853 2 4.0999999999999998e-01 -4.8788579594219321e+00 -1.0539666853808463e+01 -1.0597484129913145e+01 -1 1 0
342 114 2 4.0999999999999998e-01 -4.2128956208535637e+00 -1.2525868338451929e+01 -1.3995158000473072e+01 1 5 -1
1673 558 2 4.0999999999999998e-01 -4.1383741806238614e+00 -6.4303616415306770e+00 -1.4159536636753296e+01 5 1 1
379 127 1 -8.1999999999999995e-01 -9.9892595100354065e-01 -1.2057635961943797e+01 -1.4358028170963960e+01 0 4 -2
461 154 2 4.0999999999999998e-01 -7.6541460171537068e-01 -8.2742900371957617e+00 -9.4056101844329749e+00 2 2 -1
2256 752 2 4.0999999999999998e-01 -4.6835528675737130e+00 -1.4181994323147666e+01 -1.0576975308857808e+01 3 0 2
1825 609 1 -8.1999999999999995e-01 -2.7923160374424683e-01 -1.0250458481631318e+01 -9.2842687310730767e+00 0 -2 -2
340 114 1 -8.1999999999999995e-01 -3.6141206350299591e+00 -1.2432059093309443e+01 -1.3199752057189468e+01 1 5 -1
1470 490 2 4.0999999999999998e-01 -6.1382486323131928e+00 -5.6083069115763049e+00 -9.1494471639113506e+00 3 0 -2
206 69 2 4.0999999999999998e-01 -3.7133487041612980e+00 -1.2347926136358508e+01 -8.9193009491656028e+00 5 -1 -4
1468 490 1 -8.1999999999999995e-01 -5.2317465777964891e+00 -5.2515860088232369e+00 -9.3752932015097130e+00 3 0 -2
542 181 2 4.0999999999999998e-01 -3.9786227805709000e+00 -8.9663037039720166e+00 -1.2830116463684714e+01 2 -1 0
460 154 1 -8.1999999999999995e-01 -8.3314797263834173e-01 -7.3436287226359704e+00 -9.7651707323973405e+00 2 2 -1
2027 676 2 4.0999999999999998e-01 -4.1840729404923067e+00 -8.4194181319985439e+00 -9.6474707206693218e+00 3 2 0
2026 676 1 -8.1999999999999995e-01 -4.2460323262895567e+00 -9.0342459731963949e+00 -8.8612456301504423e+00 3 2 0
207 69 2 4.0999999999999998e-01 -3.8032337041625190e+00 -1.0764555321818069e+01 -8.5300842914894588e+00 5 -1 -4
541 181 1 -8.1999999999999995e-01 -3.3601757433081652e+00 -9.7282442155803857e+00 -1.2637835398387427e+01 2 -1 0
2186 729 2 4.0999999999999998e-01 -2.5849840291715012e+00 -7.0356064232652313e+00 -1.0677502350951833e+01 4 1 1
380 127 2 4.0999999999999998e-01 -1.9613614553692713e+00 -1.2308843227683978e+01 -1.4254997999912918e+01 0 4 -2
462 154 2 4.0999999999999998e-01 -5.7726930805157295e-01 -6.6912420984397425e+00 -9.0517845278860101e+00 2 2 -1
2254 752 1 -8.1999999999999995e-01 -4.1345800190537112e+00 -1.3579486210143759e+01 -9.9976525092543227e+00 3 0 2
341 114 2 4.0999999999999998e-01 -3.8168131874187914e+00 -1.1573163710824865e+01 -1.2729414875604485e+01 1 5 -1
1010 337 2 4.0999999999999998e-01 -2.4121734881019776e+00 -1.2072602309541301e+01 -1.1746879255730985e+01 2 1 0
1827 609 2 4.0999999999999998e-01 -2.8694559046983059e-01 -1.0627022991253433e+01 -8.3579092406531235e+00 0 -2 -2
1213 405 1 -8.1999999999999995e-01 -1.8923378347936115e-01 -9.7419441924902106e+00 -1.2755799536316708e+01 4 2 1
2255 752 2 4.0999999999999998e-01 -3.4244808683765502e+00 -1.4113981985581393e+01 -9.5393124845622932e+00 3 0 2
1128 376 2 4.0999999999999998e-01 -7.5133466300465681e+00 -1.4674891906277310e+01 -1.3844058489618021e+01 3 3 3
1469 490 2 4.0999999999999998e-01 -4.6955561139539235e+00 -5.1492997187743761e+00 -8.5374152575345867e+00 3 0 -2
816 272 2 4.0999999999999998e-01 -1.6842680092232882e+00 -6.1555884460371093e+00 -1.5000870891385301e+01 1 2 -1
2545 849 1 -8.1999999999999995e-01 -1.1342735381869074e+01 -6.3245969455255278e+00 -2.2151485719728470e+00 3 2 -1
1039 347 1 -8.1999999999999995e-01 -8.8082986670875130e+00 -7.2565633604549307e+00 -2.1290861666661769e+00 2 1 3
408 136 2 4.0999999999999998e-01 -1.0893465725146058e+01 -9.0961829202646935e+00 -4.6008893561581186e+00 2 3 2
406 136 1 -8.1999999999999995e-01 -1.1454449402133957e+01 -9.2962582159013127e+00 -5.4041759100124835e+00 2 3 2
871 291 1 -8.1999999999999995e-01 -1.2397896216769970e+01 -1.2806950746447717e+01 -3.5212555555986462e+00 3 2 0
1040 347 2 4.0999999999999998e-01 -9.6946718930822016e+00 -6.8252670436163179e+00 -1.9607766450439748e+00 2 1 3
410 137 2 4.0999999999999998e-01 -9.8427137506034157e+00 -1.3010891159457218e+01 -5.2097530256459326e+00 0 1 -1
2312 771 2 4.0999999999999998e-01 -9.4362785494007344e+00 -1.3237121316947041e+01 -2.7570362720700352e+00 5 2 0
2311 771 1 -8.1999999999999995e-01 -9.7410373333226659e+00 -1.2335989731517119e+01 -3.0653965450059033e+00 5 2 0
2546 849 2 4.0999999999999998e-01 -1.1747557808917065e+01 -7.1117627742678167e+00 -1.7498627907712017e+00 3 2 -1
411 137 2 4.0999999999999998e-01 -9.9758871584907016e+00 -1.2551098325890020e+01 -6.7709985047874284e+00 0 1 -1
872 291 2 4.0999999999999998e-01 -1.2540327815268833e+01 -1.3655710436561211e+01 -3.0120183746607978e+00 3 2 0
409 137 1 -8.1999999999999995e-01 -9.5487804929654878e+00 -1.3204329447070030e+01 -6.1458016333036536e+00 0 1 -1
1337 446 2 4.0999999999999998e-01 -1.2433256363739011e+01 -6.4224128243551419e+00 -6.8703772839680948e+00 2 2 -1
2201 734 2 4.0999999999999998e-01 -8.1627270807993977e+00 -9.9102327033322837e+00 -3.7020797869651130e+00 2 -1 4
1969 657 1 -8.1999999999999995e-01 -1.3062176340727063e+01 -1.2962967286351711e+01 -6.2598222449955578e+00 3 2 1
910 304 1 -8.1999999999999995e-01 -1.3568415485524213e+01 -8.9338258437077123e+00 -3.4369999185862810e+00 6 2 -2
2200 734 1 -8.1999999999999995e-01 -8.7527459868271507e+00 -9.1563074269983638e+00 -3.9910027466407758e+00 2 -1 4
1970 657 2 4.0999999999999998e-01 -1.2935668589091172e+01 -1.2761348518366738e+01 -5.2885612878250807e+00 3 2 1
1041 347 2 4.0999999999999998e-01 -8.8952641418261287e+00 -7.9170836321915603e+00 -2.8748422312390893e+00 2 1 3
873 291 2 4.0999999999999998e-01 -1.1466447822195718e+01 -1.2477657515223566e+01 -3.3664267767638929e+00 3 2 0
283 95 1 -8.1999999999999995e-01 -1.3800381982856869e+01 -1.4134714071128400e+01 -1.0240721921106974e+00 1 2 -2
1338 446 2 4.0999999999999998e-01 -1.2702200718954384e+01 -7.6148398496572023e+00 -5.7875942666367699e+00 2 2 -1
1336 446 1 -8.1999999999999995e-01 -1.2385616146125603e+01 -6.6733891834908885e+00 -5.9035559879010648e+00 2 2 -1
2582 861 2 4.0999999999999998e-01 -1.3292957148417326e+01 -1.0350046471356539e+01 -6.2244276649018904e+00 5 3 0
407 136 2 4.0999999999999998e-01 -1.0911492402653327e+01 -9.8063875385979955e+00 -6.0712351542344170e+00 2 3 2
2583 861 2 4.0999999999999998e-01 -1.4542979382901212e+01 -1.1399004603247043e+01 -6.1630812724551181e+00 5 3 0
1971 657 2 4.0999999999999998e-01 -1.3081681479049065e+01 -1.3953623160188489e+01 -6.3948133430837988e+00 3 2 1
2202 734 2 4.0999999999999998e-01 -8.5065180870369730e+00 -8.8771979952793174e+00 -4.9191579185021652e+00 2 -1 4
912 304 2 4.0999999999999998e-01 -1.2955597558335670e+01 -9.4592445637104809e+00 -4.0272468579993017e+00 6 2 -2
911 304 2 4.0999999999999998e-01 -1.4459755691963220e+01 -8.8406550810598041e+00 -3.8806599343722663e+00 6 2 -2
991 331 1 -8.1999999999999995e-01 -1.2812234372363895e+01 -8.1586157318470089e+00 -8.0593860751613100e-01 0 3 -1
2581 861 1 -8.1999999999999995e-01 -1.4285412371997156e+01 -1.0443112557248316e+01 -6.3042615236526860e+00 5 3 0
992 331 2 4.0999999999999998e-01 -1.3319508398668228e+01 -8.3912680190611990e+00 -1.6357267629945298e+00 0 3 -1
1487 496 2 4.0999999999999998e-01 -1.2021668689817544e+01 -1.2087149135565115e+01 -7.2219676644377655e+00 1 4 -1
209 70 2 4.0999999999999998e-01 -1.3060028398830600e+01 -5.7725865102867608e+00 -4.6315130818063555e+00 4 2 1
2313 771 2 4.0999999999999998e-01 -9.0841629538384048e+00 -1.1642599895885038e+01 -2.7692061477684504e+00 5 2 0
1351 451 1 -8.1999999999999995e-01 -1.4450361047925721e+01 -1.1454852196802406e+01 -1.7337672654431042e+00 3 1 1
949 317 1 -8.1999999999999995e-01 -8.4838147541578302e+00 -1.4961162429639213e+01 -2.6005681132512066e+00 3 2 3
185 62 2 4.0999999999999998e-01 -8.4691323543246035e+00 -5.1634401310148554e+00 -6.0635333611045805e+00 2 1 0
210 70 2 4.0999999999999998e-01 -1.4241010093035133e+01 -5.3957162251042305e+00 -3.5685534130521486e+00 4 2 1
2547 849 2 4.0999999999999998e-01 -1.1770978928644114e+01 -6.2108214800446433e+00 -3.1116220472344160e+00 3 2 -1
1353 451 2 4.0999999999999998e-01 -1.3887763415955023e+01 -1.1211955369017929e+01 -2.5240122712465176e+00 3 1 1
1352 451 2 4.0999999999999998e-01 -1.3999822845210902e+01 -1.2181010429075684e+01 -1.2144295148517177e+00 3 1 1
1242 414 2 4.0999999999999998e-01 -1.1059834187739170e+01 -5.3464649670737749e+00 -5.9940504308230675e+00 3 1 0
208 70 1 -8.1999999999999995e-01 -1.3420872454044796e+01 -5.0589321606346918e+00 -4.0311037731820587e+00 4 2 1
776 259 2 4.0999999999999998e-01 -9.8463596232453163e+00 -1.4914790682122218e+01 -5.9345672454207481e+00 3 5 2
285 95 2 4.0999999999999998e-01 -1.3094040796912493e+01 -1.3856421056374904e+01 -3.7319786884031458e-01 1 2 -2
1803 601 2 4.0999999999999998e-01 -9.9031067869275624e+00 -8.8783589762340771e+00 -3.2095205071066957e-01 2 0 0
2273 758 2 4.0999999999999998e-01 -1.4157032792808197e+01 -1.5023193651484188e+01 -2.7920348915918574e+00 2 -1 1
993 331 2 4.0999999999999998e-01 -1.3420340949689823e+01 -8.2223099518599074e+00 -1.4641199396754345e-02 0 3 -1
2375 792 2 4.0999999999999998e-01 -2.7481449719429243e+00 -1.4226802176836866e+01 -2.2309372412248685e+00 2 -1 1
1784 595 2 4.0999999999999998e-01 -5.7954134839014220e+00 -1.4073060900559717e+01 -6.6241763450163056e+00 3 1 1
1933 645 1 -8.1999999999999995e-01 -1.2419851547692442e+00 -1.4574443060997634e+01 -3.1778662620310261e+00 3 1 1
1785 595 2 4.0999999999999998e-01 -7.3626962306460237e+00 -1.3618839598043330e+01 -6.6869486037098866e+00 3 1 1
1935 645 2 4.0999999999999998e-01 -7.9786089635450885e-01 -1.4951024479075716e+01 -3.9908497777889060e+00 3 1 1
631 211 1 -8.1999999999999995e-01 -3.4134039749995573e+00 -1.1289636227146747e+01 -4.5438631429892418e-01 1 -2 4
1783 595 1 -8.1999999999999995e-01 -6.6172059049158936e+00 -1.4051941199632761e+01 -7.1935739711280782e+00 3 1 1
1435 479 1 -8.1999999999999995e-01 -2.9641014467196101e+00 -7.0314639194389068e+00 -5.4709020870235392e-01 1 3 2
632 211 2 4.0999999999999998e-01 -3.2124179455924846e+00 -1.2167944944625313e+01 -8.8818415383756921e-01 1 -2 4
1258 420 1 -8.1999999999999995e-01 -3.7132742438243049e-01 -1.3502120824203164e+01 -7.0725382644336481e+00 2 2 -1
1436 479 2 4.0999999999999998e-01 -2.7554650400307299e+00 -6.0544333518773747e+00 -5.9049870803408844e-01 1 3 2
1243 415 1 -8.1999999999999995e-01 -2.7154066189934198e+00 -1.1922339185334028e+01 -4.1364323573963144e+00 0 2 3
2099 700 2 4.0999999999999998e-01 -1.2347731943495024e+00 -6.2818712564403345e+00 -5.6412048365190017e+00 3 1 -2
441 147 2 4.0999999999999998e-01 -6.0193270571749782e+00 -8.6562337738082675e+00 -6.8491442607433335e+00 3 3 -2
1502 501 2 4.0999999999999998e-01 -7.3109188444599420e+00 -1.0646832176181441e+01 -1.2103867727546032e+00 1 0 0
826 276 1 -8.1999999999999995e-01 -4.6111269857283244e+00 -7.5351905653437115e+00 -6.7036519441651343e+00 3 0 -2
1260 420 2 4.0999999999999998e-01 -8.5600040674088440e-01 -1.2628928342961927e+01 -7.0212629112119807e+00 2 2 -1
806 269 2 4.0999999999999998e-01 -1.0284684372139630e-01 -1.4959345241930313e+01 -6.0991581433688804e+00 1 4 -1
1245 415 2 4.0999999999999998e-01 -3.2272974950101929e+00 -1.2557271066434543e+01 -4.7150785057456979e+00 0 2 3
189 63 2 4.0999999999999998e-01 -1.4669587237443267e+00 -1.0181580574433866e+01 -6.4577835037726068e+00 3 2 -3
877 293 1 -8.1999999999999995e-01 -1.5250170043543871e+00 -1.0191054171339314e+01 -1.9127890187070360e+00 0 4 -2
1437 479 2 4.0999999999999998e-01 -2.7459450534691374e+00 -7.4581934658490994e+00 -1.4247643081943622e+00 1 3 2
2321 774 2 4.0999999999999998e-01 -4.1822069989431441e+00 -8.4247671034983043e+00 -3.6300500039253834e+00 0 3 -1
2194 732 1 -8.1999999999999995e-01 -6.3883365721089742e+00 -6.0849911768312683e+00 -1.3274924792590213e+00 2 1 0
439 147 1 -8.1999999999999995e-01 -6.6665493517126890e+00 -9.4139186046843211e+00 -6.9329243566034968e+00 3 3 -2
2195 732 2 4.0999999999999998e-01 -7.3147863895177530e+00 -6.2886397319871890e+00 -1.6440681698726660e+00 2 1 0
1199 400 2 4.0999999999999998e-01 -5.0614206264696850e+00 -1.0585068330123111e+01 -4.5257487303364279e+00 0 2 1
331 111 1 -8.1999999999999995e-01 -1.2336924695163614e+00 -7.5746396814711501e+00 -2.6610612638569844e+00 4 0 1
2320 774 1 -8.1999999999999995e-01 -3.9835463278485665e+00 -9.2560913730482000e+00 -4.1491222437117212e+00 0 3 -1
1200 400 2 4.0999999999999998e-01 -5.2055486253122254e+00 -1.1971001929203698e+01 -5.3772463086330404e+00 0 2 1
2376 792 2 4.0999999999999998e-01 -4.2613569300112299e+00 -1.4092978378111173e+01 -1.6318439355259517e+00 2 -1 1
1113 371 2 4.0999999999999998e-01 -3.9355160924870596e+00 -5.5749483114771134e+00 -3.4712063651095235e+00 4 2 1
828 276 2 4.0999999999999998e-01 -4.1075929163969480e+00 -8.0432935269121479e+00 -6.0048766484837746e+00 3 0 -2
1503 501 2 4.0999999999999998e-01 -6.6616849774466971e+00 -1.1361027221050520e+01 -2.5276008481287349e+00 1 0 0
2322 774 2 4.0999999999999998e-01 -3.3144557913110368e+00 -9.8079468459479422e+00 -3.6513517191324691e+00 0 3 -1
1112 371 2 4.0999999999999998e-01 -5.2063603687735522e+00 -6.2781205745311155e+00 -2.7247911179949931e+00 4 2 1
2374 792 1 -8.1999999999999995e-01 -3.3798865193758001e+00 -1.3631905970749665e+01 -1.7339430679676155e+00 2 -1 1
2196 732 2 4.0999999999999998e-01 -6.0415295591810274e+00 -6.8560853822256327e+00 -7.9350666900168854e-01 2 1 0
332 111 2 4.0999999999999998e-01 -1.2831735889335665e+00 -8.4998738021772660e+00 -2.2849022087091857e+00 4 0 1
879 293 2 4.0999999999999998e-01 -2.2213572634055083e+00 -1.0300155459782889e+01 -1.2034165633704763e+00 0 4 -2
1198 400 1 -8.1999999999999995e-01 -5.7083068846175369e+00 -1.1244138521697144e+01 -4.9093723366097475e+00 0 2 1
878 293 2 4.0999999999999998e-01 -1.0062680397103616e+00 -1.1041083710682084e+01 -2.0041760530782078e+00 0 4 -2
545 182 2 4.0999999999999998e-01 -3.7834642856867760e+00 -1.4249678196573154e+01 -5.8823652194515095e+00 0 -1 -1
827 276 2 4.0999999999999998e-01 -4.4804464859445705e+00 -6.5540263166234887e+00 -6.5613795568381903e+00 3 0 -2
1501 501 1 -8.1999999999999995e-01 -7.5042062555499012e+00 -1.1217700504580666e+01 -2.0083538588551182e+00 1 0 0
187 63 1 -8.1999999999999995e-01 -1.2304079412357929e+00 -1.1109591154897707e+01 -6.1699602448492481e+00 3 2 -3
546 182 2 4.0999999999999998e-01 -3.8631136629440057e+00 -1.3039177288746611e+01 -6.9755146602166711e+00 0 -1 -1
440 147 2 4.0999999999999998e-01 -6.2838672318177018e+00 -1.0228848360477942e+01 -6.4976703908405202e+00 3 3 -2
2098 700 1 -8.1999999999999995e-01 -1.7257980227620937e+00 -5.4189363403473703e+00 -5.5218723919420309e+00 3 1 -2
333 111 2 4.0999999999999998e-01 -1.7491373739790692e+00 -7.5348367388267228e+00 -3.5170605679833145e+00 4 0 1
1244 415 2 4.0999999999999998e-01 -2.5493279772206492e+00 -1.2343767320751049e+01 -3.2449064911049117e+00 0 2 3
188 63 2 4.0999999999999998e-01 -1.7007344747841842e+00 -1.1323071000859111e+01 -5.3136765953505609e+00 3 2 -3
1111 371 1 -8.1999999999999995e-01 -4.3899919973215962e+00 -6.4444692664534937e+00 -3.2778489785577669e+00 4 2 1
544 182 1 -8.1999999999999995e-01 -4.2031695637727626e+00 -1.3367063234291400e+01 -6.0941209221687700e+00 0 -1 -1
186 62 2 4.0999999999999998e-01 -7.0745652982304730e+00 -5.4661935083201296e+00 -6.8573564863903016e+00 2 1 0
1934 645 2 4.0999999999999998e-01 -6.6187349389775108e-01 -1.4730901924249252e+01 -2.3784957174537187e+00 3 1 1
397 133 1 -8.1999999999999995e-01 -6.1809956416730927e-02 -7.4459587172384794e+00 -5.5343801945985138e+00 0 -1 -2
2140 714 1 -8.1999999999999995e-01 -1.1926284405353311e+01 -5.7301817898121268e+00 5.9201900466843504e+00 5 3 0
2142 714 2 4.0999999999999998e-01 -1.2040193629784724e+01 -6.3443400775141772e+00 6.7011103071359983e+00 5 3 0
888 296 2 4.0999999999999998e-01 -1.0361532467018552e+01 -9.7779554206367045e+00 3.9215964579414688e+00 4 2 0
886 296 1 -8.1999999999999995e-01 -1.0088886570801460e+01 -1.0570729833652928e+01 4.4667341044677684e+00 4 2 0
1096 366 1 -8.1999999999999995e-01 -1.3588402474566779e+01 -1.0354156831729297e+01 7.0093005601277376e+00 3 1 -1
1097 366 2 4.0999999999999998e-01 -1.3893629261782557e+01 -1.0853815390013827e+01 6.1986341435954166e+00 3 1 -1
1203 401 2 4.0999999999999998e-01 -1.0673673289352894e+01 -8.4373937103780072e+00 1.8165455860095392e+00 2 1 0
915 305 2 4.0999999999999998e-01 -1.2025477750541324e+01 -1.1145193679532587e+01 7.0345665447689534e+00 -1 -1 0
1024 342 1 -8.1999999999999995e-01 -8.6734879638332316e+00 -1.3927432779937956e+01 8.4305698739736812e-01 1 -1 3
501 167 2 4.0999999999999998e-01 -1.3156920994236547e+01 -1.4438650485730781e+01 4.7531347780090272e+00 1 4 -1
605 202 2 4.0999999999999998e-01 -1.0682252379822934e+01 -1.3557325085478682e+01 3.7606407855375075e+00 -1 1 1
913 305 1 -8.1999999999999995e-01 -1.1227423497869831e+01 -1.1701650024072860e+01 6.8033354046350780e+00 -1 -1 0
914 305 2 4.0999999999999998e-01 -1.0575733279894676e+01 -1.1149786589465327e+01 6.2830001545237160e+00 -1 -1 0
887 296 2 4.0999999999999998e-01 -1.0405104020160927e+01 -1.1407414669686199e+01 4.0195570270821328e+00 4 2 0
1201 401 1 -8.1999999999999995e-01 -1.0688522024910037e+01 -8.3596846185727127e+00 2.8134121291887482e+00 2 1 0
1202 401 2 4.0999999999999998e-01 -1.0301997359892702e+01 -7.4782433979894387e+00 3.0848199368708578e+00 2 1 0
1060 354 1 -8.1999999999999995e-01 -9.6173044715690068e+00 -8.5670587273387895e+00 6.3692102430554804e+00 6 3 2
2141 714 2 4.0999999999999998e-01 -1.1319512140755497e+01 -6.1545892552457033e+00 5.2480979148526643e+00 5 3 0
302 101 2 4.0999999999999998e-01 -8.6874906722442446e+00 -6.2021018385523341e+00 4.8098834058357873e+00 4 4 0
1966 656 1 -8.1999999999999995e-01 -1.3142259382423594e+01 -8.6085331148109923e+00 3.9799468658085964e+00 8 2 -3
1968 656 2 4.0999999999999998e-01 -1.3385082414459513e+01 -9.5136544452804017e+00 4.3289376624566138e+00 8 2 -3
1967 656 2 4.0999999999999998e-01 -1.2469475201011488e+01 -8.7036669913582472e+00 3.2462485182107876e+00 8 2 -3
499 167 1 -8.1999999999999995e-01 -1.3236383792718403e+01 -1.3920629806896901e+01 3.9014642500012009e+00 1 4 -1
606 202 2 4.0999999999999998e-01 -9.8462225961436793e+00 -1.3366310324322274e+01 2.3709646258878294e+00 -1 1 1
604 202 1 -8.1999999999999995e-01 -1.0485993995440307e+01 -1.2932200508954303e+01 3.0051912117631332e+00 -1 1 1
2266 756 1 -8.1999999999999995e-01 -1.3956096202577040e+01 -1.1234183600594260e+01 4.1411128544873890e+00 5 3 -3
2267 756 2 4.0999999999999998e-01 -1.3456132820283235e+01 -1.2100170315196863e+01 4.1308306287813465e+00 5 3 -3
587 196 2 4.0999999999999998e-01 -1.1646245196360383e+01 -1.2428884679796875e+01 1.3306978732494485e+00 4 -3 0
718 240 1 -8.1999999999999995e-01 -1.0112266470850376e+01 -1.4252136859490024e+01 5.5260486855983437e+00 1 3 -2
1062 354 2 4.0999999999999998e-01 -1.0321615895678615e+01 -8.3610924152199519e+00 7.0485668465538716e+00 6 3 2
301 101 1 -8.1999999999999995e-01 -8.4155231839766760e+00 -6.2966862653966107e+00 5.7675313485211746e+00 4 4 0
2482 828 1 -8.1999999999999995e-01 -1.4190963679292617e+01 -8.1018379966979026e+00 1.4450866613514393e+00 3 3 0
586 196 1 -8.1999999999999995e-01 -1.2306142823811049e+01 -1.1888838391733518e+01 8.0831161847411082e-01 4 -3 0
1734 578 2 4.0999999999999998e-01 -1.3940627426093098e+01 -1.1448824392371687e+01 1.1876902346553351e+00 -1 3 2
303 101 2 4.0999999999999998e-01 -8.6721851877395331e+00 -7.2046442223810807e+00 6.0988002408330395e+00 4 4 0
2268 756 2 4.0999999999999998e-01 -1.4223246975833398e+01 -1.0992447756224470e+01 3.2082696510637305e+00 5 3 -3
2484 828 2 4.0999999999999998e-01 -1.3927244184908279e+01 -7.8864461145296438e+00 2.3853315496744187e+00 3 3 0
786 262 2 4.0999999999999998e-01 -1.4132229824229707e+01 -8.1359011895729321e+00 5.6981629431203409e+00 3 3 4
314 105 2 4.0999999999999998e-01 -8.4526837941759894e+00 -1.1249375892228885e+01 4.4575966596014496e+00 4 4 1
1891 631 1 -8.1999999999999995e-01 -9.4261621920250747e+00 -5.7069791495297864e+00 3.0400842862144870e+00 2 1 -1
588 196 2 4.0999999999999998e-01 -1.1863715400884621e+01 -1.1058304648621199e+01 4.6997169357172552e-01 4 -3 0
1892 631 2 4.0999999999999998e-01 -8.7595015285694835e+00 -5.6474994235809977e+00 2.2970985162175204e+00 2 1 -1
784 262 1 -8.1999999999999995e-01 -1.4860669278036678e+01 -7.5795343872642293e+00 6.0979556571883045e+00 3 3 4