LAMMPS data file via write_data, version 15 May 2015, timestep = 23005000

2611 atoms
6 atom types
1749 bonds
4 bond types
894 angles
3 angle types
44 dihedrals
3 dihedral types
10 impropers
1 improper types

-1.4926433544852671e+01 1.4926433544852671e+01 xlo xhi
-1.4926433544852671e+01 1.4926433544852671e+01 ylo yhi
-1.4926433544852671e+01 1.4926433544852671e+01 zlo zhi

Masses

1 15.9994
2 1.00794
3 12.0107
4 1.00794
5 12.0107
6 12.0107

Bond Coeffs # harmonic

1 1000 1
2 469 1.4
3 367 1.08
4 469 0.7

Angle Coeffs # harmonic

1 100 109.47
2 35 120
3 63 120

Dihedral Coeffs # opls

1 0 7.25 0 0
2 0 7.25 0 0
3 0 7.25 0 0

Improper Coeffs # cvff

1 2.5 -1 2

Atoms # full

575 192 2 4.0999999999999998e-01 -1.0550036112530425e+01 -1.4148514946318334e+01 -1.4142673792247132e+01 1 7 3
701 234 2 4.0999999999999998e-01 -1.0943900373895486e+01 -1.2788175279615119e+01 -9.3185592318537473e+00 6 0 -5
700 234 1 -8.1999999999999995e-01 -1.0666786280695584e+01 -1.2610209455939373e+01 -1.0262781365967502e+01 6 0 -5
702 234 2 4.0999999999999998e-01 -9.7389245248799376e+00 -1.2237405034075934e+01 -1.0273212966874524e+01 6 0 -5
1120 374 1 -8.1999999999999995e-01 -1.0785844038441034e+01 -9.7403151941194537e+00 -1.2334332317608178e+01 6 2 0
1808 603 2 4.0999999999999998e-01 -1.3959530819185344e+01 -9.0368431375254197e+00 -1.0814909119583453e+01 -4 -1 -1
574 192 1 -8.1999999999999995e-01 -9.9974161832894843e+00 -1.3343160321578422e+01 -1.4357230365190858e+01 1 7 3
1174 392 1 -8.1999999999999995e-01 -1.3637442138942452e+01 -9.9599281382934670e+00 -1.2549936891394644e+01 4 -1 -8
986 329 2 4.0999999999999998e-01 -1.2758945111496244e+01 -7.3782934011160854e+00 -9.9618896149281753e+00 3 3 1
1809 603 2 4.0999999999999998e-01 -1.3531954658544505e+01 -9.7341657137065489e+00 -9.4015449380212281e+00 -4 -1 -1
1807 603 1 -8.1999999999999995e-01 -1.3658704661541123e+01 -8.8636371253416257e+00 -9.8770803416082842e+00 -4 -1 -1
84 28 2 4.0999999999999998e-01 -1.0261129652605185e+01 -9.5531757722815307e+00 -1.0338499609539536e+01 0 3 -5
1122 374 2 4.0999999999999998e-01 -9.9648327680232391e+00 -1.0246323936523801e+01 -1.2598747051775758e+01 6 2 0
82 28 1 -8.1999999999999995e-01 -9.7411599794217487e+00 -9.1287745978216606e+00 -9.5971935673222539e+00 0 3 -5
83 28 2 4.0999999999999998e-01 -1.0074056876019114e+01 -9.4706001316717874e+00 -8.7183565823906619e+00 0 3 -5
1205 402 2 4.0999999999999998e-01 -1.4076782626437124e+01 -8.4451278416824955e+00 -1.3599186990236383e+01 5 2 -1
486 162 2 4.0999999999999998e-01 -1.0167202563055039e+01 -6.4283439582283677e+00 -1.3006499474586695e+01 3 -2 -4
356 119 2 4.0999999999999998e-01 -7.9685799362558072e+00 -8.4925600613463583e+00 -1.0119797163842966e+01 -1 7 2
484 162 1 -8.1999999999999995e-01 -9.4854846095207215e+00 -6.9027310479423392e+00 -1.3563488719164587e+01 3 -2 -4
1121 374 2 4.0999999999999998e-01 -1.0571179887879138e+01 -8.7655725970180534e+00 -1.2272561341242930e+01 6 2 0
485 162 2 4.0999999999999998e-01 -8.6005020419823062e+00 -6.8796522816278749e+00 -1.3098416003312384e+01 3 -2 -4
1175 392 2 4.0999999999999998e-01 -1.2641661356814975e+01 -1.0050668235713509e+01 -1.2535571238708192e+01 4 -1 -8
1176 392 2 4.0999999999999998e-01 -1.4055894148906386e+01 -1.0850211366121780e+01 -1.2370178174745122e+01 4 -1 -8
665 222 2 4.0999999999999998e-01 -1.1462843379987284e+01 -5.7657884173026179e+00 -1.1311694924902604e+01 4 4 -5
1272 424 2 4.0999999999999998e-01 -7.6304857475199173e+00 -1.2023403379620104e+01 -1.0007363517636335e+01 5 0 1
985 329 1 -8.1999999999999995e-01 -1.2453089603365274e+01 -6.4271718114021965e+00 -9.9189993795518845e+00 3 3 1
664 222 1 -8.1999999999999995e-01 -1.1056957706616457e+01 -5.2900049799540927e+00 -1.2092019495993462e+01 4 4 -5
1206 402 2 4.0999999999999998e-01 -1.3843046841781023e+01 -6.9537625420627958e+00 -1.4221983575555203e+01 5 2 -1
987 329 2 4.0999999999999998e-01 -1.3057639718456684e+01 -5.9096218561196672e+00 -9.3134577441125366e+00 3 3 1
362 121 2 4.0999999999999998e-01 -8.6557185840694615e+00 -1.0614337886289036e+01 -1.4345416104119412e+01 2 8 3
1410 470 2 4.0999999999999998e-01 -9.8319446783949704e+00 -7.4230056827901771e+00 -9.0862949911929114e+00 1 2 -1
1408 470 1 -8.1999999999999995e-01 -9.8308749549389685e+00 -6.4453138844560325e+00 -9.2963833126359567e+00 1 2 -1
1409 470 2 4.0999999999999998e-01 -1.0753105042138220e+01 -6.1592912054769613e+00 -9.5565797574358484e+00 1 2 -1
1270 424 1 -8.1999999999999995e-01 -8.2817922778762743e+00 -1.1456578307752796e+01 -1.0511871738365684e+01 5 0 1
1557 519 2 4.0999999999999998e-01 -1.4034062087601749e+01 -1.2333266688803109e+01 -9.4845144185094910e+00 2 0 6
1555 519 1 -8.1999999999999995e-01 -1.3758689772758025e+01 -1.1441570979834065e+01 -9.1252535967222261e+00 2 0 6
363 121 2 4.0999999999999998e-01 -9.2385570374060997e+00 -1.1782356626144974e+01 -1.3364238232312108e+01 2 8 3
1556 519 2 4.0999999999999998e-01 -1.3020914952951205e+01 -1.1563138438267067e+01 -8.4612286193753139e+00 2 0 6
361 121 1 -8.1999999999999995e-01 -8.6171920109120990e+00 -1.1001108013699300e+01 -1.3424034502250382e+01 2 8 3
2551 851 1 -8.1999999999999995e-01 -1.2434055099941197e+01 -5.6417404825222732e+00 -1.4830416475958579e+01 1 0 -1
2552 851 2 4.0999999999999998e-01 -1.1544372835110430e+01 -5.3222698897788341e+00 -1.4504190340020379e+01 1 0 -1
1293 431 2 4.0999999999999998e-01 -1.0794751284218126e+01 -1.4249319961846409e+01 -9.9438844718364088e+00 2 5 2
1271 424 2 4.0999999999999998e-01 -8.2445221734437144e+00 -1.0518685132328756e+01 -1.0166927099325914e+01 5 0 1
1204 402 1 -8.1999999999999995e-01 -1.4516013759692139e+01 -7.6764064148606002e+00 -1.4064120179933353e+01 5 2 -1
2045 682 2 4.0999999999999998e-01 -1.4804476609048042e+01 -1.2900801881164256e+01 -1.1395225451174037e+01 -4 2 -4
395 132 2 4.0999999999999998e-01 -7.5413089322820088e+00 -5.2972819330614200e+00 -7.5271984531198690e+00 2 5 -3
2050 684 1 -8.1999999999999995e-01 -1.1509862653402905e+01 -1.2082891361750892e+01 -7.5956981343338690e+00 2 -2 -1
2109 703 2 4.0999999999999998e-01 -1.0986649840701958e+01 -8.7653694936723596e+00 -1.4566122609684296e+01 0 1 -3
595 199 1 -8.1999999999999995e-01 -4.4011352301780153e+00 -5.2500370686712259e+00 -1.2965346498499104e+01 0 4 -3
355 119 1 -8.1999999999999995e-01 -6.9699950617744175e+00 -8.4782227742861433e+00 -1.0171199358914141e+01 -1 7 2
1353 451 2 4.0999999999999998e-01 -6.7050552461656707e+00 -6.9323833571586029e+00 -1.1398638448095417e+01 6 0 0
1351 451 1 -8.1999999999999995e-01 -6.9588038811197901e+00 -6.3814435521743853e+00 -1.2193683380915111e+01 6 0 0
776 259 2 4.0999999999999998e-01 -5.5349693200437908e+00 -5.0078660058170339e+00 -9.1697445411475691e+00 0 4 2
447 149 2 4.0999999999999998e-01 -3.8561532871971540e+00 -6.1939088174147976e+00 -1.0194441400815283e+01 3 0 -2
864 288 2 4.0999999999999998e-01 -4.3038430125974401e+00 -1.1738845137337998e+01 -8.4884421792117308e+00 1 6 5
185 62 2 4.0999999999999998e-01 -6.0346732869866546e+00 -1.3998662796611557e+01 -9.2212488139486766e+00 2 6 3
1952 651 2 4.0999999999999998e-01 -1.8303094118464625e+00 -1.4548875482178671e+01 -1.0194376239102564e+01 4 5 3
862 288 1 -8.1999999999999995e-01 -4.7862886683914549e+00 -1.1917961857665702e+01 -7.6310141196639494e+00 1 6 5
2406 802 2 4.0999999999999998e-01 -3.1875163545277534e+00 -5.4842766705955661e+00 -7.8740784431186670e+00 0 0 -1
2380 794 1 -8.1999999999999995e-01 -3.9773860978647679e+00 -1.3258715639354431e+01 -1.4649694730318757e+01 5 0 -2
600 200 2 4.0999999999999998e-01 -2.9241617365883776e-01 -1.4487750896926865e+01 -7.8049679516028680e+00 4 3 1
560 187 2 4.0999999999999998e-01 -7.3132143300250201e+00 -1.2526489789659179e+01 -1.3000470624757716e+01 -3 -1 2
1943 648 2 4.0999999999999998e-01 -1.6760844570187405e+00 -1.0342696480894356e+01 -8.0097396469548841e+00 2 3 -4
606 202 2 4.0999999999999998e-01 -1.8424300803627709e+00 -1.2778159690210794e+01 -1.1865231156452259e+01 3 3 0
184 62 1 -8.1999999999999995e-01 -6.3847901226533494e+00 -1.4355616607878781e+01 -8.3552108836501482e+00 2 6 3
1951 651 1 -8.1999999999999995e-01 -1.3775224527577841e+00 -1.4882096710212080e+01 -9.3673532263579418e+00 4 5 3
2089 697 1 -8.1999999999999995e-01 -6.6783078555856612e-01 -7.6224439798779287e+00 -7.6112534724536030e+00 4 0 -2
561 187 2 4.0999999999999998e-01 -6.3779727908946153e+00 -1.3558329642477460e+01 -1.2147646932473240e+01 -3 -1 2
2489 830 2 4.0999999999999998e-01 -2.1224884671560567e+00 -1.4785896523436229e+01 -1.2457051482742585e+01 4 5 1
357 119 2 4.0999999999999998e-01 -6.6099577947399375e+00 -7.8461148365386411e+00 -9.4850272052741644e+00 -1 7 2
559 187 1 -8.1999999999999995e-01 -6.8985126464568118e+00 -1.3436425157781255e+01 -1.2992748731938066e+01 -3 -1 2
863 288 2 4.0999999999999998e-01 -5.4307776312052027e+00 -1.2671239635862358e+01 -7.7622622151545588e+00 1 6 5
1459 487 1 -8.1999999999999995e-01 -5.5123675412325301e+00 -7.4981943936909259e+00 -8.1454774919941375e+00 3 2 -8
1979 660 2 4.0999999999999998e-01 -6.3582015560546097e+00 -9.1744348292382050e+00 -1.1700428259567287e+01 2 3 1
734 245 2 4.0999999999999998e-01 -1.0206027930831940e+00 -7.3739466597535905e+00 -1.3558199012404593e+01 -1 -2 -1
814 272 1 -8.1999999999999995e-01 -2.1183113447043063e+00 -9.7054462512028525e+00 -1.0053657102353167e+01 2 4 -3
1481 494 2 4.0999999999999998e-01 -1.3814486113615398e+00 -5.5899875699435864e+00 -1.0108381726142611e+01 3 3 -1
2404 802 1 -8.1999999999999995e-01 -2.2236594358220998e+00 -5.3066159860534157e+00 -7.6754934947346678e+00 0 0 -1
2490 830 2 4.0999999999999998e-01 -3.3932422813499219e+00 -1.3945539519818528e+01 -1.3044982802441650e+01 4 5 1
605 202 2 4.0999999999999998e-01 -3.3860553856528952e-01 -1.2148323565079220e+01 -1.1957408402245127e+01 3 3 0
534 178 2 4.0999999999999998e-01 -3.3564531660215966e+00 -8.1319541441525907e+00 -1.3172883397578266e+01 4 4 -4
2488 830 1 -8.1999999999999995e-01 -3.0380746069915556e+00 -1.4440120836884699e+01 -1.2251720784648086e+01 4 5 1
1570 524 1 -8.1999999999999995e-01 -4.4648921510838182e+00 -1.0897730924867684e+01 -1.0634732123098306e+01 2 3 0
816 272 2 4.0999999999999998e-01 -2.2211984883796863e+00 -8.7294705455565680e+00 -9.8615501850640310e+00 2 4 -3
604 202 1 -8.1999999999999995e-01 -1.2208010917448746e+00 -1.2090520537138875e+01 -1.1490065581422765e+01 3 3 0
473 158 2 4.0999999999999998e-01 -1.1039295462914822e-02 -1.1750812628135829e+01 -1.0022256079489113e+01 -1 3 1
1571 524 2 4.0999999999999998e-01 -3.6930471789599739e+00 -1.0280423642564735e+01 -1.0482395245947723e+01 2 3 0
445 149 1 -8.1999999999999995e-01 -3.3922975854378574e+00 -7.0513912430659866e+00 -1.0417109882122581e+01 3 0 -2
1572 524 2 4.0999999999999998e-01 -5.0666535099521077e+00 -1.0512610874059959e+01 -1.1334435844236594e+01 2 3 0
815 272 2 4.0999999999999998e-01 -1.7239176518203099e+00 -9.8260765485206925e+00 -1.0964657343475624e+01 2 4 -3
1732 578 1 -8.1999999999999995e-01 -5.1608942074973196e+00 -1.3561060011508156e+01 -1.0617504610830508e+01 -1 5 0
1733 578 2 4.0999999999999998e-01 -4.8477967971647669e+00 -1.2634156307488688e+01 -1.0410528678270904e+01 -1 5 0
1980 660 2 4.0999999999999998e-01 -7.0334956059141458e+00 -9.9546428129292153e+00 -1.2966102694498806e+01 2 3 1
1734 578 2 4.0999999999999998e-01 -4.3905277192504411e+00 -1.4107527671296959e+01 -1.0946028689264377e+01 -1 5 0
1978 660 1 -8.1999999999999995e-01 -6.1716128034529056e+00 -9.6530133439952905e+00 -1.2558429833961748e+01 2 3 1
532 178 1 -8.1999999999999995e-01 -3.8565093322113668e+00 -8.8248987126734217e+00 -1.3692297636161086e+01 4 4 -4
1480 494 1 -8.1999999999999995e-01 -6.7584646462058373e-01 -5.5077688012359332e+00 -1.0812217748599299e+01 3 3 -1
735 245 2 4.0999999999999998e-01 -1.0619744690198214e+00 -6.6772668138269626e+00 -1.2081850819790205e+01 -1 -2 -1
1352 451 2 4.0999999999999998e-01 -6.1316781528714657e+00 -6.0429393326406124e+00 -1.2642345200732338e+01 6 0 0
733 245 1 -8.1999999999999995e-01 -1.4971567438591009e+00 -7.3507898620170566e+00 -1.2679347742591652e+01 -1 -2 -1
1461 487 2 4.0999999999999998e-01 -4.8654673651476337e+00 -7.8585675060406670e+00 -8.8175421240617737e+00 3 2 -8
533 178 2 4.0999999999999998e-01 -4.5579858893509275e+00 -9.2360657927856202e+00 -1.3110153561525392e+01 4 4 -4
446 149 2 4.0999999999999998e-01 -2.8824410533034008e+00 -6.9427006847536008e+00 -1.1270486792567784e+01 3 0 -2
1944 648 2 4.0999999999999998e-01 -5.5356220185687377e-01 -1.1507589575625850e+01 -7.7869251589319939e+00 2 3 -4
1503 501 2 4.0999999999999998e-01 -2.6856274053482743e+00 -9.6762220539630519e+00 -1.4902163456209156e+01 1 0 -2
773 258 2 4.0999999999999998e-01 -1.4039100836720726e+01 -8.8529033159006403e+00 -5.7367567413598390e+00 -1 4 -3
1596 532 2 4.0999999999999998e-01 -1.2256943745859729e+01 -1.0454948035327437e+01 -5.0256630465122196e+00 4 0 -5
1594 532 1 -8.1999999999999995e-01 -1.1882484165950476e+01 -1.1366127691272400e+01 -4.8537586664634951e+00 4 0 -5
1425 475 2 4.0999999999999998e-01 -7.9008512819223400e+00 -1.0543232835522488e+01 -1.4665631508476604e+00 6 6 -1
2501 834 2 4.0999999999999998e-01 -9.2225698407546641e+00 -1.0091902770208062e+01 -6.9245654394009382e+00 7 -1 -1
2502 834 2 4.0999999999999998e-01 -1.0424064271046410e+01 -9.1329095389067891e+00 -6.3737284056608612e+00 7 -1 -1
962 321 2 4.0999999999999998e-01 -1.3821371765990992e+01 -7.3323644397006502e+00 -9.9643254797905456e-01 -1 2 -6
315 105 2 4.0999999999999998e-01 -7.5754868535354625e+00 -6.8247239396407426e+00 -4.9101324555125707e+00 2 0 -4
1595 532 2 4.0999999999999998e-01 -1.2115448060591909e+01 -1.1652331172190834e+01 -3.9243315581905147e+00 4 0 -5
2233 745 1 -8.1999999999999995e-01 -1.2561349398151600e+01 -1.1953705038351757e+01 -2.2068761067999194e+00 -1 5 -3
264 88 2 4.0999999999999998e-01 -1.1721199445644823e+01 -5.2577003708368899e+00 -6.0896872571563208e+00 3 2 3
263 88 2 4.0999999999999998e-01 -1.2081752542230012e+01 -6.8379666180970826e+00 -5.8910959690955682e+00 3 2 3
262 88 1 -8.1999999999999995e-01 -1.2447187621438861e+01 -5.9430196406772104e+00 -6.1471166875294028e+00 3 2 3
2500 834 1 -8.1999999999999995e-01 -1.0203584782342103e+01 -9.9036816345192751e+00 -6.9714897771702731e+00 7 -1 -1
1805 602 2 4.0999999999999998e-01 -1.0359009364925868e+01 -8.0652375594951735e+00 -3.4314009829629502e+00 6 1 -2
1228 410 1 -8.1999999999999995e-01 -8.7291206973305950e+00 -5.4457448156216532e+00 -5.5527542435677351e+00 3 5 -1
2052 684 2 4.0999999999999998e-01 -1.0964083691023923e+01 -1.1354335470732813e+01 -7.1817525342620847e+00 2 -2 -1
608 203 2 4.0999999999999998e-01 -1.3578368367499408e+01 -1.4853174287180654e+01 -3.5715504506244820e+00 5 1 2
2159 720 2 4.0999999999999998e-01 -1.0287989915167232e+01 -8.9775597542151662e+00 -5.6581304524552500e-01 6 3 -6
1997 666 2 4.0999999999999998e-01 -1.0073595100209381e+01 -6.5924485832531712e+00 -1.9637571681729433e+00 2 8 -3
1804 602 1 -8.1999999999999995e-01 -1.0077347424022065e+01 -8.1530580257801564e+00 -4.3868975006538999e+00 6 1 -2
2051 684 2 4.0999999999999998e-01 -1.1471363511498971e+01 -1.2897815913128476e+01 -7.0173943521116477e+00 2 -2 -1
2347 783 1 -8.1999999999999995e-01 -7.5642768487675633e+00 -1.0097342229818327e+01 -7.3893570961275818e+00 4 3 -3
1506 502 2 4.0999999999999998e-01 -1.0889081626408274e+01 -1.4858501156839221e+01 -4.8486417054676227e+00 2 4 1
772 258 1 -8.1999999999999995e-01 -1.3155600633361683e+01 -9.2544424601631743e+00 -5.9780308746911093e+00 -1 4 -3
2563 855 1 -8.1999999999999995e-01 -1.3893223343555860e+01 -1.2927213782660480e+01 -6.0226581998562310e+00 3 5 -4
1424 475 2 4.0999999999999998e-01 -8.0659942545592216e+00 -1.1622785159060903e+01 -2.6806360711321524e+00 6 6 -1
2564 855 2 4.0999999999999998e-01 -1.3131893852833798e+01 -1.2280813996310760e+01 -5.9720201160686344e+00 3 5 -4
1806 602 2 4.0999999999999998e-01 -9.1148306879762497e+00 -7.8967032727138058e+00 -4.4755724375993360e+00 6 1 -2
117 39 2 4.0999999999999998e-01 -9.1146505472479831e+00 -1.1395566372652686e+01 -4.4855179636341127e+00 9 1 -1
1998 666 2 4.0999999999999998e-01 -1.1372481083446667e+01 -7.3611099189589089e+00 -1.3402722633296449e+00 2 8 -3
774 258 2 4.0999999999999998e-01 -1.3198427567154761e+01 -9.6201035590424304e+00 -6.9078035656315517e+00 -1 4 -3
115 39 1 -8.1999999999999995e-01 -8.8405060957630361e+00 -1.2309574583631107e+01 -4.1864305305411502e+00 9 1 -1
155 52 2 4.0999999999999998e-01 -1.4345761566739881e+01 -1.4883183320252201e+01 -3.7070008678545818e-02 2 1 0
116 39 2 4.0999999999999998e-01 -8.2877500984886225e+00 -1.2741643033559759e+01 -4.8990293657925594e+00 9 1 -1
1996 666 1 -8.1999999999999995e-01 -1.0440245408625493e+01 -7.4792324224016138e+00 -1.6823296081124433e+00 2 8 -3
2234 745 2 4.0999999999999998e-01 -1.3174654822286659e+01 -1.1210558213383699e+01 -1.9392780009707717e+00 -1 5 -3
2235 745 2 4.0999999999999998e-01 -1.2008755718432433e+01 -1.2229408311824077e+01 -1.4203347252598189e+00 -1 5 -3
2565 855 2 4.0999999999999998e-01 -1.4667182907351087e+01 -1.2572389121116251e+01 -5.4981531382562192e+00 3 5 -4
609 203 2 4.0999999999999998e-01 -1.3692102392922060e+01 -1.3338499574512097e+01 -2.9719643147790649e+00 5 1 2
225 75 2 4.0999999999999998e-01 -1.4708205289931868e+01 -1.4115172970864759e+01 -6.9218651157642022e+00 3 3 -4
933 311 2 4.0999999999999998e-01 -8.3077831576469521e+00 -1.4257170259643873e+01 -1.1121576933903992e+00 6 2 -2
607 203 1 -8.1999999999999995e-01 -1.4184345329188732e+01 -1.4195612929531995e+01 -3.1238625209157522e+00 5 1 2
961 321 1 -8.1999999999999995e-01 -1.3011795424651400e+01 -7.5117564638875578e+00 -4.3748340789924711e-01 -1 2 -6
2001 667 2 4.0999999999999998e-01 -7.4928946943319747e+00 -1.4294869855809841e+01 -3.3241411478780361e+00 2 -1 0
2158 720 1 -8.1999999999999995e-01 -1.0006774472844839e+01 -9.8818844166537723e+00 -2.4466780414764955e-01 6 3 -6
1322 441 2 4.0999999999999998e-01 -1.4000453395814919e+01 -6.0005418184440078e+00 -5.3306157779264236e+00 1 -7 -1
1505 502 2 4.0999999999999998e-01 -1.0398946992661996e+01 -1.3580105110662881e+01 -3.9586137309220764e+00 2 4 1
1321 441 1 -8.1999999999999995e-01 -1.4702123316805499e+01 -5.7926117236236347e+00 -4.6491145606101068e+00 1 -7 -1
1504 502 1 -8.1999999999999995e-01 -1.0889558261145554e+01 -1.4451184043785798e+01 -3.9353443850685661e+00 2 4 1
931 311 1 -8.1999999999999995e-01 -8.8181085328216255e+00 -1.4225978406894169e+01 -2.5273081771889849e-01 6 2 -2
1229 410 2 4.0999999999999998e-01 -9.5907789957590914e+00 -5.0788784747362392e+00 -5.9034300915340356e+00 3 5 -1
1230 410 2 4.0999999999999998e-01 -8.5402700744677897e+00 -5.0511758941176019e+00 -4.6534932736988193e+00 3 5 -1
369 123 2 4.0999999999999998e-01 -1.0409388855678497e+01 -1.1726241872479100e+01 -2.3862615112617647e-01 1 3 2
2349 783 2 4.0999999999999998e-01 -6.7441274124172548e+00 -1.0656642466032618e+01 -7.2687020789417147e+00 4 3 -3
313 105 1 -8.1999999999999995e-01 -7.0569016806752476e+00 -7.6296990025357729e+00 -4.6218547153796976e+00 2 0 -4
1423 475 1 -8.1999999999999995e-01 -7.4180933643386151e+00 -1.1197587756727000e+01 -2.0486146314782143e+00 6 6 -1
314 105 2 4.0999999999999998e-01 -6.1339869596339689e+00 -7.5862134060209110e+00 -5.0044209530856829e+00 2 0 -4
1067 356 2 4.0999999999999998e-01 -5.1861981393689938e-01 -9.7466960375441012e+00 -1.5272838078712763e+00 6 2 3
752 251 2 4.0999999999999998e-01 -3.5872803513242406e+00 -1.2268587385749340e+01 -8.6817294359262220e-01 -2 5 -4
141 47 2 4.0999999999999998e-01 -4.6236761524720151e+00 -9.0907318930484031e+00 -5.7720272539765975e+00 6 -5 3
1815 605 2 4.0999999999999998e-01 -2.1325520008891417e+00 -6.4451342009947812e+00 -4.3627553124056888e+00 13 2 1
751 251 1 -8.1999999999999995e-01 -2.8956315213402686e+00 -1.2969332487427822e+01 -6.9325099241616073e-01 -2 5 -4
1742 581 2 4.0999999999999998e-01 -2.3609225266606693e+00 -7.6728357625352439e+00 -2.8979916167421358e+00 6 8 0
2348 783 2 4.0999999999999998e-01 -7.3262828677951015e+00 -9.1310958441763361e+00 -7.2906338877275596e+00 4 3 -3
778 260 1 -8.1999999999999995e-01 -4.4947531335540916e+00 -5.6129028338754630e+00 -1.0393216744211262e+00 0 5 -1
1460 487 2 4.0999999999999998e-01 -5.1313955674015617e+00 -7.6026437811149972e+00 -7.2267989981535949e+00 3 2 -8
2090 697 2 4.0999999999999998e-01 -5.2259038196674545e-01 -8.0984288405725415e+00 -6.7438647874925710e+00 4 0 -2
1741 581 1 -8.1999999999999995e-01 -2.6827389199363694e+00 -7.8855072751983117e+00 -1.9753733085370442e+00 6 8 0
125 42 2 4.0999999999999998e-01 -6.9470214215646120e+00 -7.5468679654103497e+00 -2.5606831957230423e+00 1 -3 -2
779 260 2 4.0999999999999998e-01 -4.4742062039877393e+00 -5.8860216613180398e+00 -7.7550683455097413e-02 0 5 -1
126 42 2 4.0999999999999998e-01 -5.9543425340066118e+00 -6.9970170291318574e+00 -1.3864042706451158e+00 1 -3 -2
124 42 1 -8.1999999999999995e-01 -6.8047247914255458e+00 -7.4891816965719764e+00 -1.5725316670715550e+00 1 -3 -2
1814 605 2 4.0999999999999998e-01 -1.5820411859063199e+00 -7.8457897411181987e+00 -4.9966167582003962e+00 13 2 1
1599 533 2 4.0999999999999998e-01 -2.5734752377485233e+00 -1.3989878565638389e+01 -2.0190580070219610e+00 4 1 -2
1374 458 2 4.0999999999999998e-01 -6.6561503713577963e+00 -1.4415933136452599e+01 -5.1493670281217501e+00 2 0 -2
1813 605 1 -8.1999999999999995e-01 -2.3340041982399633e+00 -7.4153552350168672e+00 -4.4973200209250628e+00 13 2 1
599 200 2 4.0999999999999998e-01 -2.9095038504804549e-01 -1.4648763807519527e+01 -6.1799291373908218e+00 4 3 1
2293 765 1 -8.1999999999999995e-01 -5.1662569130001579e+00 -1.2661539638421345e+01 -3.0245231710523424e+00 0 -1 0
2295 765 2 4.0999999999999998e-01 -6.1516350679464402e+00 -1.2607789593656657e+01 -2.8627817231596691e+00 0 -1 0
2333 778 2 4.0999999999999998e-01 -4.7428822558500325e+00 -1.4273225188548771e+01 -3.9468779101219891e+00 0 -1 1
140 47 2 4.0999999999999998e-01 -3.8523217114163391e+00 -7.7386263048474282e+00 -5.2785689394418309e+00 6 -5 3
1372 458 1 -8.1999999999999995e-01 -7.2104304655717630e+00 -1.3979356513756871e+01 -5.8580234092801362e+00 2 0 -2
2294 765 2 4.0999999999999998e-01 -4.7301661249533229e+00 -1.1818915883873711e+01 -2.7085650630155644e+00 0 -1 0
2315 772 2 4.0999999999999998e-01 -1.6287411332213502e+00 -1.3092596084856138e+01 -3.5101704462750583e+00 3 6 -2
2316 772 2 4.0999999999999998e-01 -1.9695119662762419e+00 -1.1502231572616923e+01 -3.3642445014985753e+00 3 6 -2
139 47 1 -8.1999999999999995e-01 -4.6900284692558660e+00 -8.0961901896483326e+00 -5.6913824147082845e+00 6 -5 3
18 6 2 4.0999999999999998e-01 -5.5162620350550462e-01 -9.8043931227413452e+00 -5.8033629068991832e+00 1 6 4
1536 512 2 4.0999999999999998e-01 -3.5781379758133074e+00 -1.0475870545629197e+01 -3.7439302696468637e+00 4 1 1
1597 533 1 -8.1999999999999995e-01 -2.4439330780413169e+00 -1.4668787431438439e+01 -2.7417757379743097e+00 4 1 -2
16 6 1 -8.1999999999999995e-01 -1.1306551587412095e-01 -9.0263733080669208e+00 -5.3535082620971526e+00 1 6 4
1243 415 1 -8.1999999999999995e-01 -5.0927296410456080e-01 -5.2054638040196615e+00 -4.4287745218293644e+00 1 5 1
1534 512 1 -8.1999999999999995e-01 -3.3460143033033649e+00 -1.0437615667171791e+01 -2.7719865088471600e+00 4 1 1
1348 450 1 -8.1999999999999995e-01 -5.1729094971286731e+00 -1.0601921248163455e+01 -5.4353587039007500e-01 3 5 0
2314 772 1 -8.1999999999999995e-01 -1.2462556888181133e+00 -1.2169217081788334e+01 -3.5432700934184513e+00 3 6 -2
78 26 2 4.0999999999999998e-01 -4.2499094147350185e+00 -1.1278633952361179e+01 -6.2471170478536813e+00 3 2 -3
1535 512 2 4.0999999999999998e-01 -2.9688163248259123e+00 -9.5373556854810584e+00 -2.5545625876519349e+00 4 1 1
1373 458 2 4.0999999999999998e-01 -6.7587750230710775e+00 -1.4081213765144279e+01 -6.7443935145516836e+00 2 0 -2
1942 648 1 -8.1999999999999995e-01 -1.1824379623378842e+00 -1.0880949256066446e+01 -7.3266462605289311e+00 2 3 -4
1350 450 2 4.0999999999999998e-01 -4.4122403191710653e+00 -1.0076274713178776e+01 -9.2445264158856588e-01 3 5 0
1349 450 2 4.0999999999999998e-01 -5.7624735146099599e+00 -1.0920694196627846e+01 -1.2857067129992910e+00 3 5 0
76 26 1 -8.1999999999999995e-01 -3.7510776906977359e+00 -1.0876361542945606e+01 -5.4794170333044043e+00 3 2 -3
1743 581 2 4.0999999999999998e-01 -3.0169754633484374e+00 -7.0505254218017388e+00 -1.5382111788025696e+00 6 8 0
77 26 2 4.0999999999999998e-01 -2.7684958438212561e+00 -1.0998056182432123e+01 -5.6199261578593447e+00 3 2 -3
1068 356 2 4.0999999999999998e-01 -2.4477254653030123e-01 -1.0819538941678015e+01 -3.2699464234177356e-01 6 2 3
1193 398 2 4.0999999999999998e-01 -4.9367832559813429e+00 -5.0431219944728642e+00 -2.9213562362073162e+00 2 -1 -2
753 251 2 4.0999999999999998e-01 -2.2242047969454468e+00 -1.2619238399760505e+01 -4.0074296511416918e-02 -2 5 -4
2091 697 2 4.0999999999999998e-01 -1.1373232195794856e+00 -6.7559798411555700e+00 -7.4414410837044738e+00 4 0 -2
1378 460 1 -8.1999999999999995e-01 -1.2650968572144430e+01 -1.0854146073337400e+01 1.9791016753772297e+00 2 -3 -1
1764 588 2 4.0999999999999998e-01 -1.3651116769829747e+01 -1.3415352057869535e+01 1.2788156853764683e+00 2 6 3
1580 527 2 4.0999999999999998e-01 -8.6475554585990793e+00 -9.3407372088427785e+00 3.1754759948365887e+00 1 1 0
1579 527 1 -8.1999999999999995e-01 -9.3922336063652097e+00 -9.2570654086603703e+00 2.5133030872386115e+00 1 1 0
932 311 2 4.0999999999999998e-01 -8.3946871487860921e+00 -1.4844732328483648e+01 4.0899219602333226e-01 6 2 -2
611 204 2 4.0999999999999998e-01 -9.9153657266185000e+00 -6.1269743479182033e+00 1.5092412610930914e+00 6 6 -2
610 204 1 -8.1999999999999995e-01 -1.0739639900449937e+01 -5.7695442685274951e+00 1.9483714353597890e+00 6 6 -2
1379 460 2 4.0999999999999998e-01 -1.2268708571427528e+01 -1.1287640355639542e+01 1.1630260214391441e+00 2 -3 -1
1380 460 2 4.0999999999999998e-01 -1.3141616485625310e+01 -1.0023323106569279e+01 1.7163903858569469e+00 2 -3 -1
637 213 1 -8.1999999999999995e-01 -1.3362646765259113e+01 -8.6108750559091067e+00 5.4619581359312441e+00 0 1 4
1107 369 2 4.0999999999999998e-01 -1.1747372121019541e+01 -7.1261347680201901e+00 2.4027998420411478e+00 7 -1 -4
638 213 2 4.0999999999999998e-01 -1.3959051264453933e+01 -9.3225081338736722e+00 5.0906099054706750e+00 0 1 4
639 213 2 4.0999999999999998e-01 -1.2837765450905373e+01 -8.1948705994568805e+00 4.7193550790443304e+00 0 1 4
1644 548 2 4.0999999999999998e-01 -1.3598916236798082e+01 -1.2558393924375789e+01 4.8844169288241126e+00 1 1 -4
368 123 2 4.0999999999999998e-01 -1.0328333810941063e+01 -1.3297076968661917e+01 2.0021964805496317e-01 1 3 2
1106 369 2 4.0999999999999998e-01 -1.1597822883194343e+01 -8.6562579205955856e+00 2.9532873625063871e+00 7 -1 -4
737 246 2 4.0999999999999998e-01 -1.3878290295848476e+01 -6.8283166973462333e+00 2.8942286712094152e+00 2 -2 -8
1642 548 1 -8.1999999999999995e-01 -1.4567318918975921e+01 -1.2807236228000349e+01 4.8672974164686060e+00 1 1 -4
1105 369 1 -8.1999999999999995e-01 -1.2237497823320114e+01 -7.9037170983584799e+00 2.7967059192511812e+00 7 -1 -4
1832 611 2 4.0999999999999998e-01 -1.0812333849576504e+01 -1.2245570528098035e+01 4.3349586377353262e+00 5 0 -1
1714 572 1 -8.1999999999999995e-01 -8.2753103343930032e+00 -1.4628660658998431e+01 4.2854075107980982e+00 0 5 1
1043 348 2 4.0999999999999998e-01 -1.4615462824628979e+01 -1.4336068406860313e+01 5.3538954482381413e+00 2 7 0
398 133 2 4.0999999999999998e-01 -9.1612120869348370e+00 -5.7753549548173506e+00 4.7992582706299203e+00 -2 -2 1
1762 588 1 -8.1999999999999995e-01 -1.3069529253945756e+01 -1.4050199105238489e+01 7.7014619733334122e-01 2 6 3
1833 611 2 4.0999999999999998e-01 -1.2218536144320147e+01 -1.1933269538623392e+01 3.5657111677602771e+00 5 0 -1
1831 611 1 -8.1999999999999995e-01 -1.1802964374150543e+01 -1.2380278013189438e+01 4.3578620612955596e+00 5 0 -1
875 292 2 4.0999999999999998e-01 -1.1449559577728383e+01 -1.1560163986571443e+01 6.2809260932801436e+00 0 0 -4
874 292 1 -8.1999999999999995e-01 -1.1539258965345205e+01 -1.0891602074013328e+01 7.0191661350382546e+00 0 0 -4
738 246 2 4.0999999999999998e-01 -1.4715737191635716e+01 -5.7815891771233883e+00 1.9616394952691927e+00 2 -2 -8
7 3 1 -8.1999999999999995e-01 -9.1401674326189237e+00 -1.1950390527527951e+01 3.6473564602692043e+00 1 1 0
8 3 2 4.0999999999999998e-01 -8.7710156643919888e+00 -1.1270257035467502e+01 4.2807322592274097e+00 1 1 0
736 246 1 -8.1999999999999995e-01 -1.4788227917688710e+01 -6.5753818732722049e+00 2.5655084538928037e+00 2 -2 -8
397 133 1 -8.1999999999999995e-01 -8.6235435542568126e+00 -6.5024192209987035e+00 5.2262353173354015e+00 -2 -2 1
221 74 2 4.0999999999999998e-01 -9.9795824476100066e+00 -7.4835837862447230e+00 6.2649632087390543e+00 4 5 -3
420 140 2 4.0999999999999998e-01 -7.8825210186371741e+00 -6.3829969742122721e+00 1.4363286263705746e+00 5 -1 -3
461 154 2 4.0999999999999998e-01 -7.7111083048216402e+00 -1.3008767295957352e+01 7.1404589909480123e+00 2 2 3
367 123 1 -8.1999999999999995e-01 -1.0931068986749887e+01 -1.2504015225349772e+01 1.1199895071881194e-01 1 3 2
937 313 1 -8.1999999999999995e-01 -1.2509335713537626e+01 -5.0064230429379872e+00 7.2227140593660799e+00 5 1 -5
1581 527 2 4.0999999999999998e-01 -9.3199375106223457e+00 -8.3793798183974744e+00 2.0395302452229380e+00 1 1 0
876 292 2 4.0999999999999998e-01 -1.1359968531159122e+01 -9.9748348225864483e+00 6.6622177045421829e+00 0 0 -4
1763 588 2 4.0999999999999998e-01 -1.2250405945597583e+01 -1.3571536037413672e+01 4.5401619265756565e-01 2 6 3
1854 618 2 4.0999999999999998e-01 -8.1219927602907021e+00 -8.9717643574369923e+00 5.4512755131851129e+00 7 4 -1
9 3 2 4.0999999999999998e-01 -9.0291034855926462e+00 -1.1625956271660691e+01 2.7079807925261150e+00 1 1 0
1715 572 2 4.0999999999999998e-01 -8.6043930028994744e+00 -1.3758531224023535e+01 3.9185303312532582e+00 0 5 1
582 194 2 4.0999999999999998e-01 -1.4435354775779064e+01 -7.5698460437365993e+00 6.9581740648425736e+00 7 1 -5
963 321 2 4.0999999999999998e-01 -1.3206110264673214e+01 -8.2561391995449451e+00 2.0138708839405517e-01 -1 2 -6
418 140 1 -8.1999999999999995e-01 -8.2293754789932745e+00 -7.2406191958927950e+00 1.0565976275865889e+00 5 -1 -3