2611
Atoms. Timestep: 23000000
O 0.981162 2.50025 8.40134
H 1.44847 3.33393 8.69558
H 1.62168 1.73271 8.42601
O -10.8152 -4.86441 11.7802
H -10.1984 -4.63896 12.5343
H -11.6457 -5.28654 12.1436
O -11.4879 -10.9522 4.01214
H -10.6934 -11.0317 4.61423
H -11.1977 -10.6005 3.12212
O 0.859273 -9.59596 13.7351
H 0.783277 -10.1361 12.897
H 0.626714 -10.1674 14.5221
O 2.2282 -14.6644 6.84601
H 2.30884 14.6366 6.14548
H 1.33234 -14.2258 6.77479
O -2.50039 -9.22263 -7.10601
H -1.95268 -10.0415 -7.27766
H -3.20921 -9.1428 -7.80686
O -12.6998 0.0554124 -12.9491
H -11.7637 0.0148951 -12.5998
H -12.8997 -0.778017 -13.4643
O -0.668127 -11.2593 -8.01716
H -0.12536 -11.5462 -7.22782
H -0.66815 -11.9864 -8.70368
O 9.96863 -1.0368 -4.54535
H 10.4233 -0.485356 -3.84597
H 9.15122 -1.46121 -4.15587
O 8.66669 11.949 -0.154832
H 8.95475 11.8083 -1.10205
H 7.88011 11.3646 0.0446232
O 7.7618 7.96621 -1.29242
H 8.03544 8.12627 -2.24084
H 8.18847 7.1252 -0.959809
O -8.31062 9.20105 4.21374
H -8.76445 8.86288 3.38933
H -7.32671 9.03672 4.14381
O -5.94013 10.4006 2.63055
H -6.29271 9.90578 1.83633
H -5.0326 10.0519 2.8646
O -13.7908 5.86853 7.86932
H -12.8228 5.72816 7.66161
H -14.1823 6.51377 7.21329
O -13.9124 -2.11972 -14.5391
H -14.233 -1.71636 14.6138
H -14.5572 -2.82314 -14.2401
O 11.2525 11.5267 9.78703
H 11.4683 12.4739 10.0241
H 10.2689 11.4382 9.62982
O -10.5463 2.95683 9.18052
H -10.6504 2.08827 9.66502
H -9.60912 3.03922 8.84165
O 13.3686 -4.3115 -11.4466
H 13.9666 -5.00313 -11.0416
H 12.8349 -4.72353 -12.1851
O 12.2321 7.00621 -9.33103
H 12.8003 7.30693 -8.56502
H 11.8927 7.80486 -9.82795
O -7.94847 2.71229 13.4719
H -7.17388 3.21673 13.0904
H -7.90962 2.74707 14.4705
O -1.0996 9.86101 6.26728
H -0.848943 10.8278 6.21791
H -0.595867 9.35009 5.57072
O 10.127 -10.0573 0.790897
H 10.936 -10.5864 0.534841
H 10.0322 -9.27465 0.175715
O -7.08604 3.67958 2.73506
H -6.7285 3.65865 1.80141
H -7.67115 4.48234 2.84999
O -5.89798 -9.74387 4.06132
H -6.19241 -8.78821 4.06446
H -5.01981 -9.82054 3.58918
O 10.9466 -0.057306 -6.91602
H 10.6904 -0.374541 -6.00293
H 10.2422 0.56158 -7.26363
O -4.80677 -11.1691 -4.77893
H -4.64397 -11.3362 -5.75132
H -4.90563 -12.0427 -4.30254
O 0.423787 5.72881 -8.15429
H -0.199408 5.50636 -7.40454
H 1.18273 5.07771 -8.16118
O -9.90454 -9.95636 -9.83793
H -9.32972 -10.5836 -9.3124
H -10.5519 -9.50417 -9.22439
O -2.86959 4.84325 -2.39909
H -1.92322 5.0112 -2.67505
H -3.13955 3.92165 -2.67795
O -2.98062 -14.3587 -12.4159
H -2.98274 -14.9747 -11.6282
H -2.27996 -14.6518 -13.0664
O -4.89891 -13.2515 14.8295
H -4.62098 -12.8892 13.9399
H -5.64993 -13.9 14.7055
O -0.4792 8.31576 -8.72448
H -0.350069 7.32506 -8.68175
H -1.2309 8.52727 -9.34913
O -0.841002 5.22069 -6.00242
H -1.0351 5.26047 -5.02226
H -1.65125 4.89505 -6.4897
O 12.4326 -8.70244 -11.309
H 13.0371 -8.43175 -12.0582
H 11.6204 -8.119 -11.3086
O 11.8051 5.60387 -5.82174
H 11.4839 5.15693 -6.65664
H 11.0672 5.6193 -5.14694
O -0.141988 5.72586 -2.61174
H -0.224926 6.62493 -2.18189
H 0.487768 5.78358 -3.38638
O -11.8618 -11.6767 14.205
H -11.8851 -12.6272 14.5147
H -12.3781 -11.1055 14.843
O 0.0128374 2.18029 3.81109
H 0.163632 1.24591 3.4883
H 0.892116 2.60328 4.03001
O -13.7565 -14.7318 -4.12067
H -12.9089 -14.6716 -4.64786
H -13.5392 -14.8039 -3.14725
O 1.47826 -14.9886 -2.57376
H 0.9851 14.2462 -2.96855
H 2.44366 14.967 -2.82876
O 6.63091 10.6448 -6.56448
H 6.28386 11.254 -5.85148
H 5.90266 10.4527 -7.22231
O -7.18569 -6.66428 2.27087
H -7.19487 -7.15886 1.4018
H -8.10932 -6.34454 2.48218
O -6.72534 6.6745 14.7427
H -6.96477 5.91237 14.1412
H -5.79913 6.54223 -14.9142
O -12.4824 -1.65224 12.3693
H -13.4643 -1.81975 12.4575
H -11.9961 -2.12604 13.1035
O -1.14547 10.1676 3.17571
H -0.352946 9.86645 3.70598
H -1.16071 11.1668 3.13738
O -3.56716 3.09354 13.4467
H -3.75424 4.07572 13.4642
H -2.63564 2.92584 13.7694
O -5.6995 -8.57826 -4.93252
H -5.10984 -7.93827 -4.43987
H -5.38173 -9.51322 -4.77484
O -1.82022 12.5297 9.70201
H -2.34718 12.877 10.4777
H -2.10315 11.5921 9.49988
O -0.644329 12.688 5.81716
H 0.0102333 13.0985 5.18235
H -1.55693 13.056 5.63926
O -4.35072 7.83578 1.34682
H -3.48743 7.33162 1.36987
H -5.02524 7.31785 0.820739
O -6.22163 -8.67965 13.4307
H -6.71286 -8.18095 12.7166
H -5.79449 -8.02869 14.0582
O 13.5232 14.3769 -1.91553
H 12.6966 13.8165 -1.96746
H 13.5757 14.9689 -2.7198
O -11.4771 0.993572 -5.81799
H -11.1313 0.0610642 -5.92196
H -11.0691 1.41182 -5.00645
O 13.3103 -9.98994 4.49192
H 12.4933 -9.71654 3.98435
H 13.0562 -10.2284 5.42921
O 0.462119 -1.21817 -8.46214
H -0.355495 -1.03026 -9.00636
H 0.672794 -2.19485 -8.50344
O -5.75327 0.0308535 -7.3685
H -5.14987 -0.452721 -6.73443
H -5.68367 -0.383117 -8.27611
O 6.52991 10.5905 6.83422
H 5.69959 10.1091 7.11484
H 7.11855 9.96746 6.31918
O 9.45495 -11.5 9.44788
H 9.39725 -10.6743 8.88673
H 9.91271 -11.2853 10.3106
O -7.14258 7.11485 -1.33486
H -6.25148 7.1641 -1.78597
H -7.1519 7.73082 -0.547159
O -9.84708 4.23836 -2.11403
H -9.95034 4.13474 -1.1248
H -9.04135 4.79788 -2.30825
O -5.89109 4.39638 -4.80539
H -6.43637 5.22982 -4.71573
H -6.04177 3.81209 -4.00797
O -5.51271 14.7159 -7.46829
H -5.98185 -14.8517 -8.23265
H -6.011 13.8901 -7.20428
O -3.48673 -6.18164 12.1194
H -4.29837 -6.60047 11.7122
H -2.68664 -6.38914 11.5565
O -13.6552 -4.67168 0.646433
H -12.8398 -5.2061 0.868889
H -13.6968 -3.86569 1.23689
O -11.2872 3.90094 -6.87749
H -11.1488 2.93176 -6.67373
H -10.6326 4.44801 -6.35576
O 9.65153 2.06455 -8.59309
H 10.3444 1.88265 -9.29083
H 8.97169 2.70149 -8.95653
O -0.155232 -10.9844 -5.00327
H 0.717296 -11.1982 -4.56404
H -0.293065 -9.99392 -5.00599
O -8.87604 12.3242 11.2586
H -8.93372 12.0887 10.2884
H -8.14303 11.7958 11.6869
O -14.0731 13.2415 2.93402
H -14.1056 13.7327 2.06361
H -13.2943 13.5657 3.47086
O 13.4546 -0.413615 -5.85559
H 12.9123 -0.25689 -6.68105
H 13.1033 0.156343 -5.11282
O -6.72301 -14.0956 10.3201
H -6.00501 -13.4076 10.4254
H -7.61716 -13.6479 10.3264
O 7.29213 -9.92625 0.507098
H 8.20197 -10.0964 0.885555
H 6.74773 -9.4092 1.1676
O 0.507858 -4.10637 14.9762
H 0.875694 -4.45346 14.1136
H 1.10614 -3.38646 -14.6819
O -8.64572 -11.2891 5.29119
H -8.14172 -10.6459 4.7148
H -8.8434 -10.8618 6.17343
O 12.5205 -14.4534 -6.5323
H 13.2321 -14.1114 -7.14599
H 12.8819 14.7948 -5.99466
O -14.5658 7.44014 -3.33497
H -13.7398 7.56792 -3.88392
H -14.3102 7.18359 -2.40287
O 7.03536 -4.70205 -6.40814
H 7.10833 -4.41062 -5.45435
H 6.67538 -3.94975 -6.95992
O -14.3074 14.131 -8.72586
H -13.6743 14.5293 -9.38957
H 14.7934 14.5277 -8.85289
O -4.93826 8.12297 11.5995
H -4.62757 9.00964 11.942
H -5.76435 8.24868 11.0502
O -13.7204 4.37182 -7.79639
H -12.8189 4.10102 -7.45886
H -14.3838 3.65312 -7.58843
O -0.358787 -4.34913 -11.6381
H -1.3088 -4.34338 -11.9502
H -0.00565519 -3.41363 -11.6278
O 8.11436 -12.83 1.27682
H 8.95467 -12.8003 0.735557
H 7.71516 -13.7452 1.22256
O 6.49748 0.598493 -2.82882
H 7.02637 0.967005 -3.59332
H 6.22539 1.34476 -2.22135
O -8.21474 2.13394 -9.20181
H -9.12258 2.41739 -9.51079
H -8.17566 2.17165 -8.2033
O -6.75062 -1.51472 5.29859
H -6.20784 -1.69672 6.1185
H -7.26541 -0.666233 5.42121
O 11.0992 -2.96034 -10.2786
H 11.6371 -3.69378 -10.6942
H 10.1883 -3.30355 -10.0499
O 14.8277 -2.17342 12.836
H 14.3767 -3.06117 12.9282
H 14.4354 -1.67919 12.0602
O -11.3579 -6.76148 -4.97075
H -10.5513 -6.5706 -5.53014
H -11.9591 -7.39485 -5.45795
O 6.87815 0.333657 -9.23667
H 6.43229 0.417345 -10.1278
H 7.5891 -0.367958 -9.28424
O 13.5513 7.91623 1.00166
H 13.483 8.68992 1.63153
H 12.6936 7.40211 1.01109
O 1.29353 -10.9503 6.71911
H 1.20872 -11.6886 7.38819
H 1.72526 -11.3013 5.88825
O -1.15735 7.65303 -14.8521
H -0.423762 8.0841 14.6325
H -0.84351 6.76953 -14.5044
O -8.27186 0.706584 11.6323
H -7.58011 0.881777 10.9318
H -8.10884 1.30303 12.4183
O -10.5654 -1.65588 6.82098
H -9.71946 -2.14241 7.03937
H -11.3371 -2.11508 7.26095
O -10.4038 4.50967 -13.0597
H -10.4194 3.89328 -13.847
H -11.3233 4.86843 -12.8991
O 6.37955 -3.47362 7.68729
H 6.30526 -2.59498 8.15894
H 7.10913 -3.4251 7.00513
O 0.76689 12.8359 -4.24914
H 1.48557 12.5632 -4.88876
H -0.107683 12.8848 -4.73154
O -5.47824 10.955 9.20289
H -5.49171 11.9538 9.24995
H -4.56171 10.6456 8.94944
O 11.6169 -3.12539 0.0553227
H 12.0062 -4.03196 0.21833
H 11.9516 -2.48905 0.750316
O -4.1567 7.49468 -14.3119
H -4.59911 8.21823 -13.7821
H -3.27816 7.82432 -14.6575
O -12.8513 4.94151 12.9499
H -11.9352 4.61181 12.7216
H -12.7786 5.77397 13.4992
O 3.6455 1.91921 10.2069
H 3.32717 0.978483 10.3239
H 3.05132 2.53841 10.7203
O 7.17287 8.36466 13.7006
H 6.56882 9.15865 13.6322
H 6.64299 7.52921 13.555
O 10.8324 2.59775 -5.60931
H 10.917 2.93003 -6.54868
H 11.7103 2.69608 -5.1407
O -8.27179 -8.15605 -4.80726
H -7.3144 -8.42644 -4.90864
H -8.52119 -8.16946 -3.83897
O -1.97644 -3.00174 14.083
H -2.31474 -3.26049 13.1782
H -1.07236 -3.40362 14.2283
O -2.10461 -8.60913 12.987
H -1.55888 -8.42447 13.8043
H -2.70204 -7.82889 12.8018
O 0.151922 1.5946 13.1375
H 0.933772 2.19355 12.9644
H -0.487675 1.65152 12.3709
O 8.26849 -0.384652 -14.4898
H 7.29116 -0.525279 -14.648
H 8.43205 -0.250764 -13.5124
O 1.83536 5.93743 -14.0374
H 1.86816 5.94268 -13.038
H 0.970463 5.53727 -14.3404
O 4.70793 7.11519 -1.47907
H 5.68669 6.99453 -1.64473
H 4.22469 7.15815 -2.35349
O 14.4541 9.20115 12.8973
H 13.5458 9.4372 12.552
H 14.6584 8.24814 12.6736
O -13.9286 8.66492 -10.5928
H -14.0178 8.85969 -9.61606
H -14.8371 8.6225 -11.0086
O 0.455688 -8.0754 9.18212
H 1.34379 -7.69685 8.92142
H 0.0673378 -8.5771 8.40916
O 2.83817 -4.63544 12.8721
H 2.33909 -4.40212 12.0375
H 3.24728 -5.54254 12.7732
O 9.8106 14.5271 -12.2507
H 10.2232 14.3936 -11.3497
H 8.9248 14.9797 -12.148
O -12.0488 7.06544 1.02493
H -12.6862 7.13096 0.257223
H -12.459 7.48366 1.83537
O -11.3708 12.3068 12.5878
H -10.5554 12.6646 12.1328
H -11.8408 11.6696 11.9771
O -8.21579 -7.99847 -8.99619
H -8.95176 -8.60859 -9.2896
H -7.61777 -8.48121 -8.35643
O -7.64542 -0.494099 -9.34124
H -7.84234 0.484799 -9.39566
H -7.98173 -0.853855 -8.47092
O -9.17892 -10.4721 14.7505
H -9.1855 -10.6988 -14.2855
H -10.115 -10.3052 14.4408
O 6.7235 -7.37466 -6.57661
H 6.81347 -6.3792 -6.60743
H 6.96028 -7.75852 -7.46911
O -10.7832 -12.5591 -0.228671
H -9.85168 -12.4071 -0.559055
H -11.2979 -11.7031 -0.277203
O -14.7046 4.39339 -1.8039
H 14.477 4.72404 -2.25597
H -13.9598 4.34173 -2.4692
O 8.44613 -4.027 -9.74104
H 7.59482 -3.59712 -9.44029
H 8.24958 -4.93804 -10.1035
O -11.5394 14.1558 4.24149
H -11.223 14.0537 3.29837
H -11.0839 13.4799 4.82086
O 10.1479 14.7551 2.64416
H 9.25907 -14.8045 2.72803
H 10.784 -14.8633 3.30902
O 5.45293 0.451067 -11.5932
H 5.4385 -0.12356 -12.4115
H 4.5154 0.671916 -11.3245
O -7.35021 -14.5944 -5.32489
H -6.68121 -14.5789 -6.06798
H -6.99659 -14.0748 -4.54713
O 12.6437 14.3071 12.9613
H 12.4386 13.5035 13.5201
H 13.5653 14.6331 13.1718
O 6.30425 -5.33232 5.47032
H 6.4581 -5.19158 4.49231
H 5.52173 -4.78483 5.7668
O -7.67998 -3.47944 -6.63646
H -8.56367 -3.6145 -7.0846
H -7.68416 -3.93611 -5.74684
O -5.73801 -5.22422 5.25721
H -6.61326 -5.1682 4.77683
H -4.99689 -4.98993 4.62806
O -1.86395 -0.532838 -14.2259
H -1.93744 -0.758001 14.8126
H -1.18373 -1.12695 -13.7966
O -4.61432 10.011 6.09104
H -4.1223 9.75002 5.26052
H -3.95755 10.2447 6.80802
O 12.2914 -8.3068 -3.78701
H 13.2842 -8.34658 -3.67392
H 12.0191 -7.37197 -4.01487
O 7.66806 14.0501 -9.11757
H 8.32324 13.3745 -8.77948
H 7.89536 14.9501 -8.74555
O -6.69258 -11.6769 -13.8058
H -5.92732 -12.2318 -14.1322
H -7.28155 -11.435 -14.5769
O -13.037 14.1182 7.67682
H -12.0695 14.3012 7.5023
H -13.5978 14.7005 7.08821
O -9.5717 -5.48695 0.453283
H -10.5455 -5.46891 0.680082
H -9.1186 -4.69693 0.86624
O -3.21745 2.39794 -3.20064
H -4.04305 1.87092 -2.9991
H -2.66013 1.90252 -3.86692
O -3.08255 9.71613 9.18863
H -3.2259 8.92536 8.59355
H -2.3154 9.5354 9.80409
O -6.61654 14.6553 6.4389
H -7.29036 -14.6341 6.27561
H -6.88918 13.8269 5.94956
O -1.26129 9.52192 0.112104
H -1.09939 9.37519 1.08793
H -2.19443 9.85438 -0.0246525
O 1.67368 -14.8938 0.11739
H 1.61601 -14.9027 -0.880896
H 0.763149 -14.7435 0.502533
O -4.70758 10.3517 -6.17897
H -4.8217 9.77896 -6.99068
H -5.14311 11.2386 -6.33296
O 4.68416 -12.9678 0.467895
H 4.44245 -13.9272 0.322858
H 5.34501 -12.682 -0.226054
O -4.13613 11.3824 12.9359
H -4.99357 11.0741 13.3479
H -4.23902 12.325 12.6182
O -4.15053 -7.99454 -9.45037
H -4.49184 -7.60106 -10.304
H -3.60483 -7.3124 -8.96367
O 9.89416 -1.04407 3.04186
H 10.6682 -0.435414 2.86735
H 10.1943 -1.81045 3.60982
O 10.6471 -2.44928 7.74291
H 10.4357 -1.81623 6.99823
H 9.91737 -2.41617 8.42579
O 10.2617 -11.8872 -2.92551
H 10.5925 -11.3122 -3.6737
H 9.26745 -11.9751 -2.98717
O -7.57387 11.3901 -0.519612
H -8.24227 11.9866 -0.963855
H -6.75405 11.9169 -0.295323
O -5.623 13.659 8.92395
H -5.94477 13.9207 8.01402
H -6.06637 14.2333 9.61217
O -4.12915 13.0194 3.64922
H -4.1704 12.0465 3.87649
H -3.73286 13.5243 4.41604
O -13.9148 11.4174 9.12707
H -13.617 12.2356 8.63529
H -14.3439 10.781 8.48612
O -1.4928 4.41473 4.31868
H -2.47815 4.26947 4.40789
H -1.02946 3.53048 4.26042
O 1.1922 -13.1759 -10.9291
H 0.579771 -12.4136 -10.7199
H 0.743979 -13.7967 -11.5723
O -5.09055 4.95005 10.4061
H -4.96442 4.22985 11.0883
H -4.21745 5.40838 10.24
O -8.9199 9.44442 14.704
H -9.31004 10.0601 -14.6214
H -9.64149 9.13376 14.0853
O -14.5973 8.53057 -14.3481
H -14.8221 8.67766 14.6986
H -14.0687 9.30775 -14.0068
O -9.93915 -7.06083 -12.6908
H -9.41937 -7.45556 -11.9331
H -10.6203 -6.42316 -12.3311
O -10.3184 4.57004 12.078
H -10.4137 4.54046 11.083
H -9.40223 4.26205 12.3344
O -2.89066 -10.0445 3.29036
H -3.31401 -9.15649 3.11073
H -1.98726 -10.0756 2.86272
O 13.5955 8.60386 -12.3941
H 14.2132 8.58557 -13.1802
H 13.4457 7.67114 -12.0661
O 4.33577 11.1405 -0.251324
H 4.05618 11.9862 0.203173
H 4.0204 11.152 -1.20021
O 11.5962 11.9334 13.8339
H 10.6889 12.3474 13.9066
H 11.8026 11.4331 14.6748
O -0.946107 1.25418 10.4428
H -0.490559 0.613175 9.82513
H -0.867297 2.18186 10.0779
O 13.8896 -4.03511 10.3394
H 13.2921 -3.23727 10.2592
H 13.8336 -4.40148 11.2681
O -7.69635 12.4604 3.89932
H -7.77425 12.1153 4.83465
H -7.08404 11.8682 3.3755
O -9.50726 -4.10642 -10.0719
H -9.57841 -3.73425 -9.14646
H -8.67602 -4.65727 -10.1466
O 11.4286 -10.7197 11.4713
H 11.2038 -11.5665 11.9533
H 12.3874 -10.4874 11.635
O 13.1405 2.94248 4.30817
H 13.7246 3.45735 4.93571
H 12.6998 3.57334 3.66962
O -10.2939 7.60448 -7.49084
H -9.59028 6.93006 -7.26702
H -11.1874 7.1565 -7.521
O 10.2919 -14.3547 6.32822
H 11.0388 -14.0949 5.71615
H 9.6389 -14.9275 5.83278
O 7.33147 8.50713 10.5249
H 8.22673 8.06823 10.4484
H 6.61842 7.80671 10.5558
O 1.06853 2.95513 -6.38237
H 0.397003 3.1415 -7.09952
H 0.999126 1.99795 -6.10137
O -3.58957 -8.45851 -13.8622
H -3.9301 -9.35326 -13.5733
H -2.61308 -8.39151 -13.6574
O 3.81152 8.14593 -11.4594
H 3.89076 9.0994 -11.1686
H 4.70397 7.81606 -11.7671
O 1.65514 2.42353 -12.297
H 1.86611 1.98073 -13.1684
H 0.80656 2.94519 -12.385
O -2.68694 -4.79531 8.42033
H -3.67816 -4.66603 8.39285
H -2.45088 -5.40225 9.1792
O 1.96966 8.82745 -13.9046
H 2.40264 9.02027 -13.0241
H 1.43358 7.98614 -13.8353
O 10.5888 2.97791 -2.81941
H 11.021 2.48932 -2.06153
H 10.8135 2.52264 -3.68091
O -5.35198 -5.00738 7.9925
H -5.48574 -5.28882 7.0423
H -5.96061 -4.24219 8.20231
O 2.85487 -7.76804 -10.735
H 3.65516 -8.36578 -10.7822
H 2.31557 -7.99646 -9.92444
O 3.43157 8.34328 11.6461
H 3.41755 8.10792 12.6179
H 3.6988 9.30092 11.5389
O -9.02075 12.9162 -12.3584
H -9.77755 12.3702 -11.9992
H -9.2856 13.3165 -13.2357
O 11.9452 -11.0872 -0.8064
H 12.4284 -11.9517 -0.667983
H 11.1204 -11.2494 -1.34807
O -3.40168 -7.102 -1.50408
H -3.67684 -7.14711 -2.46441
H -3.23674 -6.14925 -1.24902
O -12.064 0.956897 1.29587
H -12.9986 1.2571 1.48647
H -11.773 0.306957 1.9979
O -0.173171 -14.4579 -7.3948
H 0.130342 14.5998 -7.36186
H -1.01155 -14.3938 -7.93609
O -12.0047 -14.095 -14.4125
H -11.3426 -13.5512 -13.8969
H -11.6254 -15.0036 -14.5877
O -2.71407 -12.7125 10.0089
H -3.68362 -12.4976 9.89167
H -2.18933 -11.8634 10.0692
O -13.9752 -8.20495 8.29059
H -13.5527 -8.03284 7.40069
H -14.0716 -9.19064 8.4287
O 8.58382 9.72071 -11.6136
H 8.66128 9.65974 -10.6185
H 8.67368 8.8077 -12.0115
O -9.92381 4.32566 4.93707
H -10.4294 4.97246 5.50807
H -10.5661 3.70387 4.48898
O -3.21225 -14.823 2.11982
H -3.61688 -13.9114 2.19279
H -3.78258 14.5288 2.6113
O 10.3048 11.7528 -12.8992
H 10.1392 12.7218 -12.7161
H 9.66487 11.1988 -12.3667
O -4.88009 -6.85073 -11.7893
H -4.78447 -7.47878 -12.5616
H -4.52513 -5.95152 -12.0451
O -1.84351 -13.0662 -5.10094
H -1.41215 -12.177 -4.9483
H -1.32624 -13.5737 -5.79004
O -13.4556 1.34362 -7.54306
H -13.394 0.766381 -8.3573
H -12.6409 1.21142 -6.97839
O -1.76865 -12.3582 -10.5676
H -2.1051 -12.7836 -11.4077
H -2.4081 -11.6474 -10.2747
O -14.0905 12.2777 -4.88318
H -13.548 13.1063 -4.74509
H -13.7866 11.5702 -4.24507
O -10.1594 -7.39598 3.49452
H -9.93301 -8.36954 3.52452
H -9.60491 -6.90397 4.16563
O 5.44211 -12.8825 -10.7313
H 5.14825 -12.0196 -11.1424
H 4.77583 -13.1674 -10.0422
O -3.56583 2.20193 10.6738
H -2.63503 1.97032 10.391
H -3.56556 2.46385 11.6389
O 9.93274 -4.7239 -1.67408
H 9.23453 -5.1391 -1.09091
H 10.3999 -3.99786 -1.16944
O -8.35951 -12.2027 -1.24242
H -8.0375 -12.9881 -1.77105
H -7.60039 -11.5699 -1.08962
O -6.0313 14.0442 13.0581
H -6.21222 14.2371 14.0225
H -6.85398 14.2302 12.5209
O 7.33153 -12.0786 -3.35277
H 6.50323 -11.667 -2.97267
H 7.62786 -12.833 -2.76701
O 9.39623 5.43311 7.98041
H 9.29045 4.44901 8.12298
H 9.69563 5.60362 7.04165
O 8.65509 4.71998 4.88714
H 8.4669 5.689 5.04706
H 8.32281 4.46117 3.98017
O -12.7903 -7.93051 5.90912
H -12.0869 -8.27185 5.28567
H -12.7117 -6.93677 5.98834
O -9.23475 -12.7466 11.5313
H -10.2247 -12.7096 11.3952
H -8.88793 -11.8254 11.7077
O 14.4462 -14.572 -11.9316
H 13.7895 -14.0109 -12.4356
H 14.931 14.8389 -12.5688
O 2.58443 -2.73414 -10.6508
H 3.47837 -2.98676 -11.021
H 2.18439 -2.00901 -11.2113
O 2.18226 4.97493 -4.77248
H 1.59788 4.53275 -5.45288
H 2.54625 4.28496 -4.14683
O -4.4358 12.5682 -1.90311
H -3.47292 12.829 -1.97247
H -4.50254 11.6148 -1.60879
O 12.9882 11.5094 5.36597
H 12.0482 11.8158 5.51544
H 13.4853 11.5236 6.23353
O -13.5834 -0.0512781 -10.1617
H -13.7499 -1.0321 -10.2629
H -13.3101 0.333167 -11.0434
O 10.6869 -14.5728 -4.37171
H 11.573 -14.1684 -4.5981
H 10.1635 -13.9341 -3.80765
O -12.3979 -5.64259 -11.7238
H -12.2434 -5.81122 -10.7503
H -12.249 -4.67383 -11.922
O -11.8877 -2.55626 -5.7457
H -12.748 -2.73632 -5.26873
H -11.2567 -2.08594 -5.12881
O 12.7221 4.00116 8.80291
H 12.4563 4.09339 7.84333
H 12.2961 3.18334 9.1897
O -5.16246 3.02258 -9.98873
H -5.67022 3.03718 -9.12737
H -5.8028 2.93383 -10.7517
O -14.3756 9.10485 -7.89908
H -14.4578 10.1012 -7.92018
H 14.8806 8.71947 -7.3668
O 6.21694 7.88156 5.97642
H 6.08923 7.05271 6.52111
H 7.11594 7.8578 5.53914
O 4.93156 -1.84736 -4.68257
H 4.97591 -1.17088 -5.41768
H 5.79069 -2.35786 -4.64709
O 10.0065 4.5319 11.1095
H 9.89926 5.25484 10.427
H 10.5713 4.86672 11.8638
O 9.69288 -4.78972 -7.4228
H 9.36051 -4.50521 -8.322
H 8.96086 -4.68756 -6.74922
O 0.705737 -9.11172 4.57403
H 0.726105 -9.50776 5.49203
H 1.26816 -9.66514 3.95972
O 2.68693 -10.936 -12.2597
H 2.85891 -11.8724 -12.5657
H 1.76777 -10.876 -11.8705
O 13.9734 5.4531 -4.12109
H 13.3224 5.78499 -4.80372
H 14.6157 6.1839 -3.89011
O -10.446 -12.8737 -12.8535
H -10.2601 -11.9057 -12.6855
H -10.2652 -13.3973 -12.021
O 9.10906 -14.9363 11.7903
H 9.64951 -14.1785 12.156
H 9.69713 14.4789 11.2423
O -0.725029 9.52821 10.215
H 0.00920088 10.1864 10.0486
H -0.330149 8.64693 10.4747
O 7.00519 -13.0005 -8.30595
H 7.22208 -12.0919 -7.94911
H 6.36572 -12.9147 -9.06995
O 12.5482 -9.04019 -8.46894
H 11.7185 -8.57343 -8.1629
H 12.5961 -9.01443 -9.46745
O 12.3577 10.1711 2.01255
H 13.2189 10.4342 1.57766
H 11.714 10.935 1.96647
O -8.60685 -0.675728 -5.85213
H -9.10858 -1.09723 -5.09676
H -8.23393 -1.39006 -6.44428
O 4.70277 13.8361 7.86276
H 3.80297 14.257 7.74765
H 4.84775 13.6181 8.82785
O 12.7673 -12.7501 -13.038
H 11.9922 -13.03 -13.6045
H 12.4474 -12.1392 -12.3138
O -6.76247 12.3637 -6.62252
H -6.80251 12.0809 -7.58084
H -7.6529 12.2131 -6.19306
O -2.07198 7.59649 7.59346
H -2.75571 7.23032 6.96227
H -1.70502 8.45184 7.2278
O -1.2743 -8.07661 -11.905
H -0.502209 -7.55184 -12.2634
H -1.72217 -7.55625 -11.1779
O -14.0453 -9.18168 3.59352
H -14.9106 -9.59094 3.88302
H -13.2847 -9.73351 3.93544
O -8.982 14.6687 12.6769
H -9.25158 14.0812 11.9138
H -9.15129 -14.3853 12.4375
O 3.9805 1.38095 -4.55856
H 4.17085 1.07928 -5.49276
H 4.37163 0.727058 -3.91093
O -6.38833 9.56439 13.8872
H -6.09618 8.67539 14.2397
H -7.3441 9.72335 14.1346
O -5.85991 2.68589 -7.41189
H -5.29127 3.09415 -6.69778
H -5.87604 1.69255 -7.2979
O -4.16285 -12.4765 2.4429
H -4.66246 -12.2973 1.59539
H -3.81571 -11.615 2.8136
O 9.37863 13.4444 13.951
H 9.201 14.1137 13.2296
H 8.55421 13.3235 14.5039
O 4.59056 0.437155 13.4343
H 5.53542 0.687823 13.2236
H 4.07942 0.318637 12.583
O -6.57786 2.44095 0.156348
H -7.54898 2.28472 0.336581
H -6.07229 1.589 0.292618
O -8.41347 9.09595 -11.4809
H -8.91622 8.2331 -11.4287
H -9.02278 9.81733 -11.81
O 12.0682 -2.71035 -4.12262
H 12.7025 -2.16725 -3.5724
H 11.378 -2.10952 -4.52578
O 11.5857 -6.23039 1.0247
H 11.0085 -6.08656 1.82849
H 11.0125 -6.47034 0.241267
O -12.2642 -9.06388 -6.2541
H -11.3006 -9.28818 -6.39914
H -12.755 -9.12414 -7.12331
O -5.24168 -3.42283 -7.66418
H -6.09172 -3.47655 -7.14022
H -5.45411 -3.37752 -8.64029
O -5.03126 -3.67298 -2.50424
H -4.3413 -3.9274 -1.82659
H -5.91275 -3.54379 -2.05009
O -13.0634 10.1903 5.0613
H -12.1858 10.3489 4.60903
H -13.5901 11.0402 5.07435
O 0.138777 5.27278 11.6673
H -0.554625 4.87458 11.0668
H 0.519368 6.09251 11.2393
O 1.78198 -5.9453 -3.17565
H 2.67949 -5.53822 -3.00611
H 1.33526 -6.1426 -2.30301
O -7.06429 5.15832 12.177
H -7.65092 5.96809 12.1879
H -6.26531 5.33328 11.6016
O 3.78425 -5.60435 -13.7682
H 4.16888 -6.45859 -14.118
H 2.80518 -5.72275 -13.6027
O -2.94027 1.34665 -8.91557
H -3.06293 2.20254 -9.41796
H -3.55075 0.649315 -9.29109
O 4.53981 -3.37713 -0.874422
H 5.17648 -2.60786 -0.821089
H 4.12061 -3.52556 0.0212458
O -1.1809 -10.4388 10.4672
H -1.05505 -9.68568 11.1129
H -1.42131 -10.0711 9.56888
O -7.09075 2.93105 -13.9212
H -7.13993 2.50495 -13.0179
H -6.70344 3.84905 -13.8361
O 10.8718 -0.288019 6.0645
H 11.5757 -0.0903621 6.74668
H 10.6757 0.539521 5.53846
O -14.5732 0.830044 7.65945
H -14.1119 0.3643 8.41464
H -14.2229 1.76328 7.57971
O 0.0185967 -10.3279 -11.2452
H -0.635872 -11.0777 -11.1481
H -0.475168 -9.46066 -11.3089
O 7.87965 -1.2601 12.3471
H 7.7839 -0.312625 12.6523
H 7.50966 -1.87387 13.0445
O 5.57394 2.96985 -1.47977
H 5.71964 3.95176 -1.35897
H 4.76925 2.82049 -2.05435
O 11.2352 14.0372 10.6411
H 11.4957 14.5552 9.82633
H 11.9706 14.087 11.3169
O -14.4339 -13.9601 14.0089
H 14.9762 -13.1721 14.1471
H -13.5933 -13.8355 14.536
O -0.568611 12.24 0.0268421
H -0.617466 12.4109 1.0109
H -1.07834 11.4081 -0.192682
O 14.8407 6.49627 12.0701
H -14.58 5.72995 12.3258
H 14.4467 6.32672 11.1668
O 1.10418 -0.992974 13.3069
H 0.74385 -0.0601884 13.2997
H 1.16662 -1.31891 14.2503
O -12.4924 4.26518 -3.40851
H -12.2667 5.2149 -3.62555
H -11.6616 3.70953 -3.4405
O -14.7412 9.76144 7.14648
H -14.9793 8.79717 7.03058
H -14.2308 10.0772 6.34659
O 0.793307 -4.87237 2.83003
H 0.823454 -3.88094 2.70303
H 1.54713 -5.15553 3.42295
O -6.20802 -2.67903 -10.0946
H -6.85007 -1.9127 -10.0724
H -6.27791 -3.147 -10.9756
O -1.65218 12.5368 -5.17729
H -2.04455 11.6186 -5.12366
H -2.37534 13.197 -5.38037
O 5.14198 -4.05913 -12.1179
H 6.03206 -4.01624 -12.5717
H 4.52027 -4.62769 -12.6566
O 9.28016 -10.7677 -12.0006
H 10.1694 -11.0436 -11.6357
H 8.88213 -11.5259 -12.5171
O 1.29001 -7.10238 -12.7911
H 1.72131 -7.202 -11.8944
H 1.78889 -7.64914 -13.4635
O -8.0197 -11.5801 -8.48031
H -8.05092 -11.872 -7.5244
H -7.25846 -10.9447 -8.61007
O -9.07336 5.51528 2.78527
H -9.34022 5.23478 3.70726
H -9.30425 6.47881 2.65007
O -12.8602 6.86625 -6.85092
H -13.2013 5.93979 -7.00984
H -13.5169 7.52943 -7.20985
O 9.25277 13.1352 -5.4507
H 9.5801 14.0188 -5.11608
H 9.64193 12.956 -6.35427
O -9.06532 -9.83177 7.72287
H -9.44082 -10.4069 8.44961
H -9.11904 -8.87145 7.99653
O 13.5264 -5.11065 -1.38935
H 14.289 -5.73974 -1.53976
H 12.7469 -5.39187 -1.94913
O 3.91731 -3.12809 14.9957
H 3.9129 -4.0133 -14.5492
H 3.60685 -3.24568 14.0524
O -0.825625 -5.70579 0.494917
H -0.162831 -5.5475 1.22678
H -0.383368 -6.1986 -0.254436
O 1.8848 6.32112 -11.2799
H 1.50501 6.1513 -10.3705
H 2.6524 6.95786 -11.2069
O 7.92955 -0.384719 8.02527
H 7.06553 0.0617562 8.25789
H 8.05442 -1.19091 8.60358
O 0.681255 -11.0569 2.33149
H 1.44228 -10.7953 1.73787
H -0.0130914 -11.5339 1.7926
O 7.98226 -14.0127 -1.6954
H 7.37182 -14.7759 -1.4835
H 8.79973 -14.0707 -1.12236
O 0.0896297 14.9841 3.55475
H 0.00931631 -14.4172 4.34408
H -0.296909 -14.5786 2.74823
O 12.5644 0.156323 -2.91112
H 13.3609 -0.420455 -2.72985
H 12.5749 0.942807 -2.29361
O 12.3756 -3.16004 -14.957
H 11.5013 -2.86979 14.6639
H 12.2946 -4.09722 -14.6177
O -0.998161 2.22558 -14.6569
H -1.39723 1.42108 -14.217
H -0.488027 1.94273 14.5409
O 2.01992 -12.4278 -3.49145
H 1.5499 -13.2946 -3.3249
H 2.30338 -12.0294 -2.61916
O 11.2425 6.63083 0.717587
H 10.246 6.69604 0.664162
H 11.5596 5.88513 0.131626
O -2.95729 -10.7837 5.94133
H -3.35801 -11.6996 5.96291
H -2.68228 -10.5622 5.00578
O 6.13653 -6.03313 -0.314666
H 5.88104 -6.49723 -1.16279
H 6.03082 -5.04548 -0.430283
O 5.68178 -0.780935 1.34109
H 5.75664 -1.02633 2.30761
H 5.65413 0.214618 1.25115
O 8.14049 -6.63529 7.51257
H 7.61676 -6.91104 6.70657
H 9.07883 -6.41947 7.24254
O -4.82246 -3.00373 0.679198
H -4.9799 -2.72504 1.62658
H -5.20226 -2.31498 0.0616543
O -9.52213 14.3967 -0.516201
H -8.88527 14.8694 -1.12524
H -10.1083 13.7898 -1.05292
O 11.194 2.74829 1.44833
H 10.3696 2.27376 1.14
H 11.6002 2.24813 2.21309
O -9.67183 -5.36571 8.01082
H -9.4017 -6.08355 8.65247
H -9.93104 -4.54452 8.51918
O -9.6473 12.907 2.1309
H -9.46759 13.6533 1.49001
H -8.81665 12.7064 2.65027
O 13.273 6.05216 -11.6083
H 13.0481 6.28759 -10.6628
H 13.7243 5.16011 -11.6313
O 0.337142 -2.88983 -5.48674
H 0.385997 -3.51367 -6.26675
H 1.26123 -2.69192 -5.15984
O 13.6091 -4.78972 13.2045
H 14.2511 -5.52635 13.4171
H 13.4648 -4.22795 14.0191
O 3.8355 10.8809 10.3885
H 4.31854 10.6069 9.55694
H 2.89735 11.1401 10.159
O 4.75786 10.6213 3.04297
H 4.11194 10.9526 2.35519
H 5.67614 10.5869 2.64858
O -6.95407 11.3181 -9.03948
H -6.70334 11.6222 -9.95849
H -7.8275 10.8325 -9.07582
O -11.811 -7.54871 -0.960135
H -12.1026 -6.86586 -1.62994
H -12.5935 -7.82225 -0.400725
O -9.20389 -7.65811 9.89466
H -8.98753 -8.41757 10.5082
H -9.9987 -7.16263 10.245
O -10.4076 3.10616 -10.598
H -10.0132 3.66089 -11.3306
H -11.3292 3.4343 -10.3907
O 3.00644 -12.9706 8.9634
H 2.62044 -13.606 8.29466
H 3.79793 -12.5073 8.56476
O 3.95837 -2.7185 9.93078
H 4.91472 -2.94366 10.117
H 3.42553 -3.56157 9.85803
O 3.78748 9.20318 5.17854
H 4.165 9.61748 4.3504
H 4.43053 8.52544 5.5351
O 3.20623 -3.19175 4.35188
H 3.42913 -3.82703 5.09127
H 3.05032 -2.27987 4.73156
O 12.3517 0.61684 3.05321
H 12.996 0.934462 3.74891
H 12.7252 -0.1908 2.59693
O -12.1846 -5.90929 -8.92195
H -12.8098 -6.48649 -8.39664
H -12.5625 -4.98613 -8.99191
O 13.2645 -8.5 -0.69327
H 12.8923 -9.41851 -0.826595
H 12.5187 -7.83393 -0.699773
O 2.2313 3.25545 12.249
H 1.51204 3.92771 12.0737
H 2.73723 3.51538 13.0714
O -11.2059 -2.65451 0.18777
H -11.9107 -2.39521 0.848033
H -11.6355 -3.0812 -0.608068
O 3.60862 -4.01852 1.71605
H 4.5587 -4.15202 1.99801
H 3.14552 -3.42584 2.37503
O -5.5971 8.77635 -10.9162
H -5.04184 9.08121 -11.69
H -6.56499 8.91666 -11.1248
O 8.34924 -2.48183 9.68038
H 8.20354 -2.06901 10.5795
H 8.59947 -3.44357 9.79179
O 1.44913 13.0532 -7.63653
H 1.14969 12.1207 -7.43462
H 2.43272 13.1301 -7.47337
O 6.83148 10.046 0.312677
H 6.87905 9.24248 -0.280674
H 5.90763 10.4276 0.283544
O -8.30538 9.09696 7.13612
H -7.54392 8.4489 7.1227
H -8.469 9.43819 6.2105
O 4.90079 -0.0139273 -6.76366
H 4.20276 0.181596 -7.4525
H 5.7762 -0.185442 -7.21557
O 8.66435 9.07556 -8.71084
H 8.74861 8.1375 -8.3748
H 9.30268 9.66538 -8.21624
O -8.50882 -2.06497 9.90725
H -8.67816 -1.09086 10.0569
H -9.38031 -2.55468 9.88146
O 4.35776 1.0869 4.53096
H 4.17949 1.69152 3.75467
H 5.26599 1.28005 4.90218
O 3.085 -14.8593 11.1641
H 2.15365 14.9217 11.4472
H 3.06572 -14.0485 10.5791
O -12.8444 2.91338 7.88626
H -12.0764 2.90809 8.5267
H -12.9111 3.81227 7.45322
O -7.90463 -14.5394 -2.59082
H -8.18625 14.9184 -3.37551
H -6.97873 -14.7985 -2.31599
O 9.7807 5.46742 -4.04074
H 9.93533 4.57863 -3.60933
H 9.02059 5.39668 -4.68665
O 12.5004 10.8241 -13.7961
H 11.557 11.0068 -13.5194
H 12.7585 9.90102 -13.5109
O -14.663 -14.3079 6.17788
H -14.018 -13.9359 5.51034
H 14.663 -14.8644 5.70622
O 6.20953 11.1365 -12.7329
H 5.31157 11.0516 -12.3011
H 6.86282 10.5429 -12.263
O 2.30781 -13.2375 -6.79127
H 1.48972 -13.8008 -6.90685
H 2.37919 -12.9451 -5.83764
O -4.82962 -5.51228 2.07078
H -5.71335 -5.97745 2.12188
H -4.79021 -4.96225 1.23658
O -14.4283 -2.45243 -11.4587
H -13.9252 -2.45338 -12.323
H 14.7343 -2.9725 -11.5658
O 6.34353 -3.54157 2.44721
H 6.58875 -3.1276 1.57058
H 6.12328 -2.82191 3.10566
O -5.73115 7.75585 -5.04944
H -5.31049 8.65581 -5.1639
H -5.07324 7.13153 -4.6283
O -14.9831 -9.47541 -5.37674
H -14.0388 -9.20816 -5.56884
H 14.4115 -8.72773 -5.62632
O -1.40908 -8.51459 -0.1395
H -1.58622 -8.0492 0.727686
H -2.12961 -8.28551 -0.793979
O 12.1225 -5.93014 4.19545
H 13.0885 -5.95291 4.4529
H 11.6525 -6.71732 4.59473
O -10.3052 -5.98816 14.7119
H -9.6053 -5.33015 14.4342
H -10.0887 -6.34092 -14.3878
O 0.661615 10.5505 -10.7085
H 0.830162 9.93133 -9.94164
H 0.0235923 10.1225 -11.3486
O 12.7294 0.231778 8.01454
H 13.6829 0.505779 7.88881
H 12.6413 -0.287909 8.86432
O -6.23914 -4.23691 -14.9885
H -5.68929 -5.0104 14.7063
H -5.80336 -3.38179 14.7407
O -6.69351 0.0526296 14.6596
H -6.37753 0.940139 14.9949
H -7.21813 0.181816 13.8181
O 7.69369 -12.6894 -13.4485
H 7.67844 -13.6633 -13.2219
H 6.75739 -12.3396 -13.4788
O 6.01026 10.5861 12.3974
H 5.62173 10.8634 11.5186
H 6.93588 10.2349 12.2566
O 11.499 7.14137 5.77831