2611
Atoms. Timestep: 8000000
O -13.5413 0.430883 -3.71271
H -13.7729 1.04465 -4.46744
H -13.3002 -0.468768 -4.0767
O 5.36142 -12.2405 7.03773
H 5.02171 -13.0245 7.55726
H 5.28177 -11.4128 7.59318
O 13.8787 -4.00632 5.78538
H 14.8628 -4.05189 5.95695
H 13.6264 -3.07072 5.53845
O -4.61208 -8.37672 11.7254
H -4.05635 -8.04139 12.4861
H -5.16794 -7.62839 11.3634
O -11.9423 -7.29752 -8.7597
H -11.7018 -8.09071 -8.20028
H -12.9065 -7.07172 -8.62072
O 1.71379 10.1237 1.17338
H 0.774983 10.0211 0.844622
H 2.34503 10.0769 0.399228
O 6.94323 4.25417 0.91395
H 7.34589 5.0405 0.44542
H 7.37463 3.41384 0.585759
O 8.33037 4.14562 -2.98829
H 7.9285 5.04223 -2.80238
H 9.27627 4.13065 -2.66422
O -6.68831 2.41723 -4.90496
H -6.75737 1.43057 -5.0523
H -5.9672 2.60499 -4.23809
O 12.4576 -1.7923 -5.9655
H 12.1088 -2.72792 -6.02006
H 12.5621 -1.42124 -6.88818
O 7.07822 14.6644 2.42754
H 7.28805 -14.2842 2.63542
H 7.91847 14.1234 2.46258
O -7.4471 10.8984 4.85163
H -8.43383 10.9745 4.70834
H -7.01127 11.7735 4.64141
O -11.9307 8.89777 0.73597
H -12.5467 8.1277 0.901852
H -12.3616 9.74321 1.05154
O -2.90229 11.728 -6.86443
H -2.26353 12.1409 -6.21521
H -3.75641 12.2481 -6.8682
O 11.4176 11.5908 5.05714
H 12.3987 11.5074 4.88275
H 11.2232 12.4924 5.44374
O 8.5411 4.65348 6.65401
H 8.56837 3.94653 7.36072
H 7.81345 5.30656 6.86375
O -14.6645 6.63031 -6.78591
H 14.9352 7.37758 -7.37667
H -13.6805 6.49425 -6.90061
O 1.3182 -13.3902 8.65437
H 0.403738 -13.5727 9.01553
H 1.41903 -13.8326 7.76326
O 12.3458 -8.85761 -5.81377
H 12.0448 -9.45734 -6.55518
H 13.2864 -9.08541 -5.56181
O 11.5131 -9.90552 -3.10726
H 12.0918 -9.37034 -3.72263
H 10.6865 -10.1916 -3.5918
O -3.05666 10.125 13.6765
H -2.64636 10.821 13.0872
H -3.79152 9.6607 13.1821
O -1.13794 4.57665 -3.93914
H -1.27665 4.99265 -3.04044
H -1.94162 4.7422 -4.51068
O 2.08082 -9.02668 6.94242
H 2.87383 -8.62364 7.39922
H 1.48026 -9.44459 7.62407
O 1.11128 -3.93692 -13.8815
H 1.01535 -4.54018 -13.0898
H 0.217511 -3.80475 -14.3101
O -6.23743 13.2263 3.61529
H -5.69805 13.7285 4.29115
H -6.83409 13.8621 3.12577
O -11.0116 -14.5386 -14.6658
H -10.3632 -13.8138 -14.433
H -11.9071 -14.1363 -14.8562
O -13.2005 3.3352 4.55683
H -12.7856 2.4456 4.74762
H -12.5227 3.93481 4.13143
O 10.7754 2.96991 -1.96055
H 10.6166 2.1419 -2.49827
H 11.1636 2.72163 -1.07304
O 7.62224 5.5576 -10.3223
H 8.61486 5.67482 -10.2915
H 7.36722 5.09719 -11.1726
O 13.3523 7.14415 -3.48638
H 13.1428 6.16915 -3.56042
H 14.3437 7.27395 -3.49881
O 2.90933 10.026 5.39837
H 3.05047 9.64717 4.48377
H 3.24278 9.37772 6.08282
O -7.87588 11.7621 1.75408
H -8.48983 12.443 2.15338
H -7.367 11.304 2.4829
O 1.54549 6.68602 -0.713562
H 2.34197 7.25121 -0.928417
H 1.39149 6.68893 0.274489
O 8.81546 -5.41329 -1.06713
H 8.93511 -4.87149 -1.89906
H 9.42745 -6.2037 -1.09323
O 2.29242 1.79575 -13.2546
H 1.48629 1.30343 -12.9264
H 2.65271 1.34008 -14.0686
O 7.78476 -13.0723 -9.83199
H 7.00621 -13.5266 -9.39895
H 7.9166 -12.1711 -9.4193
O 10.4626 -1.29652 5.81176
H 10.9532 -1.69126 5.03493
H 10.0269 -0.441312 5.53108
O -8.81734 -7.86908 10.0886
H -8.35178 -8.62964 9.63608
H -8.15826 -7.1422 10.2815
O 12.7575 -4.11351 1.16628
H 13.5914 -3.72343 1.55663
H 12.4114 -4.83195 1.76966
O -7.49741 12.9978 -0.550124
H -8.47589 13.1239 -0.713316
H -7.36228 12.5415 0.329394
O -10.9001 -1.14321 -8.98195
H -11.4285 -1.88539 -9.3942
H -11.4198 -0.74353 -8.22688
O 4.81203 -4.14411 11.5202
H 5.05574 -5.11148 11.4511
H 5.08375 -3.67128 10.682
O -0.159181 11.8669 14.6538
H 0.608429 11.3764 14.2413
H -0.785918 11.2113 -14.8289
O -1.21653 -8.95123 4.57183
H -1.16856 -9.59276 5.3374
H -0.308819 -8.84958 4.16476
O 10.1726 -7.33624 -6.03395
H 9.58593 -7.82791 -6.67738
H 11.0334 -7.83268 -5.92143
O -13.2755 7.52278 -11.4243
H -12.4345 8.04673 -11.5594
H -13.1875 6.63101 -11.8682
O 13.7101 -14.3202 4.85433
H 13.9118 -13.4791 5.35622
H 14.4086 -14.466 4.15379
O 9.90006 3.85282 -11.0844
H 10.8104 4.00639 -11.4686
H 9.20656 4.11398 -11.7558
O -4.39254 14.643 -14.5367
H -4.52343 -14.4586 -13.9544
H -5.25799 14.4072 14.9252
O -8.21561 2.29183 -9.59887
H -8.29719 2.79505 -8.73859
H -7.56929 2.76187 -10.2
O -2.19227 9.97834 -13.7671
H -2.85205 9.52859 -13.1651
H -2.57781 10.0542 -14.6867
O -7.06528 12.1167 -8.78624
H -7.26774 12.8844 -9.39415
H -6.67731 12.4616 -7.93156
O -8.56722 14.2429 -9.69728
H -7.87576 14.6621 -9.10901
H -9.3188 14.887 -9.83951
O -8.27637 2.41634 0.992107
H -7.56993 1.90672 0.500983
H -8.04557 3.38932 0.993132
O 13.8983 1.3172 -12.5168
H 14.5595 1.84603 -11.9847
H 13.7679 1.74823 -13.4097
O -14.3664 14.5256 -0.327227
H -14.6201 -14.538 -0.806384
H -14.8505 13.7509 -0.733971
O 6.51961 8.00611 -4.59888
H 5.62289 7.90629 -5.03002
H 6.75991 8.97557 -4.55005
O -14.0461 -12.0237 7.9812
H -14.3596 -12.7472 8.59625
H -13.2886 -11.529 8.40729
O 13.2659 5.37533 14.5762
H 12.903 6.30557 14.6305
H 12.5275 4.74265 14.3427
O -3.94124 11.6912 4.8984
H -3.65686 11.8642 3.95545
H -4.82499 11.2233 4.89948
O 5.79584 -3.13356 8.78713
H 5.49524 -3.71405 8.0304
H 5.32704 -2.25168 8.73731
O -7.1805 -7.32126 -7.69959
H -7.73588 -6.68713 -7.16164
H -7.61784 -8.22048 -7.71071
O -1.6034 -10.1389 -6.35235
H -1.66071 -10.3048 -5.36788
H -2.42263 -9.65291 -6.65671
O 1.63783 -8.36325 10.4381
H 1.30734 -8.82767 9.61652
H 1.25166 -8.80416 11.2484
O 2.35442 1.59843 -10.2135
H 2.58942 0.821439 -10.7975
H 2.88947 2.39681 -10.4897
O 13.4344 12.7577 13.2157
H 14.3369 12.3819 13.0051
H 13.002 12.2064 13.9292
O -6.93827 -5.947 -4.1829
H -6.98377 -6.61111 -4.92914
H -7.84256 -5.85035 -3.76712
O -3.75625 12.0978 2.11889
H -3.42001 12.336 1.20774
H -4.57998 12.6281 2.31935
O -4.02724 -10.8195 -10.7758
H -3.95017 -11.5039 -11.5007
H -3.11874 -10.6179 -10.4098
O -12.476 -8.97454 -2.83167
H -12.2659 -8.68038 -1.89931
H -13.3605 -9.44096 -2.84268
O 13.3975 4.53457 7.58842
H 14.2421 4.66481 8.10771
H 12.7424 4.0195 8.1412
O -1.6437 -3.39845 14.8005
H -2.05557 -4.1716 14.3182
H -1.05977 -2.88581 14.171
O -8.75348 1.81597 6.38315
H -9.25235 1.59339 5.54556
H -8.68988 1.00139 6.95968
O 7.59825 3.97829 -12.9351
H 7.22552 3.11848 -12.5861
H 8.35786 3.78465 -13.556
O 5.98324 0.743245 -9.49005
H 5.61992 0.224464 -8.71621
H 6.10775 1.69853 -9.22189
O -12.3159 -0.200058 12.9888
H -11.8423 0.604535 12.6305
H -12.0777 -0.325627 13.9519
O 6.39559 5.42061 10.6102
H 7.03432 5.6544 11.3433
H 5.92999 4.56446 10.8343
O 12.766 11.2427 -14.5911
H 13.2012 10.3455 -14.5164
H 12.1914 11.4023 -13.7884
O 13.3039 10.894 -7.75588
H 12.4074 10.9028 -8.19865
H 13.2497 10.3737 -6.90362
O 6.46963 -3.4805 -7.32369
H 6.44449 -3.87895 -6.40686
H 7.07802 -4.02052 -7.90525
O 1.70842 3.58925 -5.6378
H 1.81881 3.50282 -4.64769
H 1.00573 2.95082 -5.95182
O 10.7546 -1.00474 12.0713
H 10.3508 -1.54387 11.3322
H 11.4415 -1.55374 12.5475
O 8.68047 -9.21206 -3.98648
H 9.16926 -8.68175 -4.67918
H 8.15297 -8.5936 -3.40405
O 5.71864 -8.00718 -5.22846
H 4.8721 -7.49267 -5.36494
H 6.28117 -7.54721 -4.54146
O -5.42327 -10.6048 10.2518
H -4.98459 -11.4952 10.373
H -5.0153 -9.9438 10.8816
O 6.32433 7.13351 8.47208
H 6.36479 6.5946 9.31345
H 7.07218 7.79732 8.46515
O -0.735632 4.43143 -13.4546
H -1.37995 3.72593 -13.1595
H -0.505739 4.29109 -14.4177
O 7.48153 -7.97142 8.87126
H 7.54009 -7.07428 8.43344
H 6.84984 -7.92409 9.64502
O 1.96228 -8.72498 -3.57196
H 2.68711 -9.41366 -3.58967
H 1.14018 -9.09514 -4.00451
O -6.55603 13.3811 13.9009
H -6.32539 12.7468 14.6387
H -6.09123 13.0993 13.0616
O 11.1097 -8.28783 -9.93345
H 10.9465 -7.35768 -10.2624
H 11.474 -8.84588 -10.679
O 9.42307 9.74375 5.89615
H 9.85213 10.5294 5.4504
H 9.69451 8.90421 5.42554
O 6.25723 13.6781 -12.1756
H 7.15865 13.2977 -11.969
H 5.56432 13.2105 -11.6268
O -2.20145 2.05109 10.4192
H -1.22672 2.13784 10.2135
H -2.35598 2.24366 11.3883
O -14.9027 -13.1092 -1.59201
H 14.1059 -12.7492 -1.85414
H -14.452 -12.4645 -0.97462
O -14.4987 12.3602 -8.56026
H -13.6537 11.8279 -8.61064
H 14.6363 11.7482 -8.37512
O 2.66424 -4.0712 2.57884
H 3.11996 -3.69442 3.38527
H 1.67743 -3.92947 2.65697
O 9.26855 -1.11752 -4.96896
H 9.04399 -0.996198 -5.93583
H 10.2247 -1.39709 -4.88138
O 1.34717 12.534 -4.29325
H 2.11393 12.85 -4.85201
H 1.44778 12.8828 -3.36146
O 3.18421 -7.2493 14.5471
H 2.40495 -6.87407 14.0452
H 3.72277 -6.50102 14.9344
O -9.12185 -5.92009 6.88647
H -8.88406 -5.36151 6.09185
H -9.31475 -6.85561 6.59056
O -1.4521 -0.94223 -13.5655
H -1.51279 -1.89272 -13.8703
H -2.14076 -0.773677 -12.8603
O 10.697 1.41386 6.34329
H 10.9766 1.46381 5.38448
H 11.4589 1.07512 6.89542
O 5.14105 -0.932828 -7.21174
H 5.17976 -0.29827 -6.43985
H 5.80623 -1.66662 -7.07367
O -7.64693 -11.9681 4.15022
H -8.07553 -11.3171 3.52375
H -6.65226 -11.8916 4.08124
O -10.1919 8.44554 11.2366
H -11.1474 8.58925 11.4942
H -9.62135 9.14331 11.6697
O 0.287648 -11.9387 12.5649
H 0.997502 -11.3783 12.1383
H 0.660506 -12.841 12.7814
O 1.58717 7.24884 6.49656
H 1.22647 6.4204 6.06812
H 2.05401 7.00786 7.34742
O 4.63162 -2.61887 -9.75147
H 4.25672 -1.8492 -10.2682
H 4.77153 -2.34493 -8.79997
O -4.34653 -0.90521 -11.0926
H -4.07737 -1.74598 -11.5623
H -5.33657 -0.904321 -10.952
O -2.19837 -6.50716 -3.35526
H -1.7033 -7.34269 -3.11698
H -1.81192 -5.7353 -2.85043
O -6.72062 -2.65741 13.8341
H -7.64579 -2.36778 13.5889
H -6.51738 -2.36719 14.7692
O -13.8839 2.23908 -7.90691
H -14.6836 2.73925 -8.23904
H -13.8362 1.34855 -8.3593
O -1.94192 -14.5893 -13.817
H -2.32186 -13.7004 -13.5609
H -2.51303 14.8996 -14.5251
O -4.30293 6.57417 8.59411
H -3.32915 6.74969 8.4495
H -4.76209 6.49368 7.70943
O 10.6015 -5.37611 9.53271
H 11.3376 -5.32749 8.8576
H 9.72643 -5.49541 9.06369
O -4.89488 1.35898 9.32605
H -5.35514 2.2213 9.11501
H -3.95964 1.54528 9.62702
O -4.41732 5.45071 -12.3002
H -3.48176 5.54213 -11.9591
H -4.92642 6.28913 -12.1057
O -7.76009 2.27149 13.3777
H -7.51474 1.63741 14.111
H -7.39624 3.17926 13.5863
O -8.8737 13.0832 10.6118
H -9.45529 13.858 10.8594
H -8.1917 13.3786 9.94283
O 8.21408 9.24838 8.44081
H 8.72199 9.31868 7.58229
H 7.4064 9.83652 8.39937
O -2.50424 -14.7663 -5.83858
H -1.82794 14.4416 -5.59742
H -2.25275 -14.345 -6.7099
O -3.40673 -10.2875 14.4884
H -3.43041 -11.1718 14.022
H -2.5527 -10.2043 -14.902
O 5.22677 -0.494205 -14.0112
H 5.59357 -0.181802 -14.8875
H 4.40257 -1.03785 -14.1696
O 2.53478 4.94267 3.03978
H 3.10861 4.79091 2.23501
H 3.11551 5.1101 3.83645
O 2.47884 9.79687 14.4673
H 3.03849 10.5795 14.7396
H 2.70138 9.01109 -14.8596
O -1.52129 -14.5766 -8.25551
H -2.19309 14.8879 -8.85178
H -0.601747 -14.8715 -8.51523
O 11.6891 10.3275 8.21725
H 12.3057 11.1051 8.34011
H 11.2476 10.3903 7.32222
O 10.533 -13.0981 12.6906
H 9.89325 -12.711 13.3546
H 10.7908 -12.3954 12.0275
O -5.62096 9.94629 1.11509
H -5.82863 10.1073 0.150247
H -4.96344 10.6294 1.433
O -10.0753 1.19901 -2.78384
H -10.9152 0.799694 -3.15133
H -10.0598 1.08673 -1.79029
O -12.2045 -5.27111 13.7034
H -12.8959 -5.43367 12.9995
H -11.311 -5.14918 13.2712
O 1.40492 -7.37887 -7.41828
H 2.31181 -7.17256 -7.05093
H 1.45609 -7.44505 -8.41476
O -13.3816 -4.75336 6.34721
H -12.8297 -5.45945 6.79079
H -13.3147 -3.90209 6.86762
O 9.15181 9.86562 -14.04
H 9.19293 8.88312 -14.2216
H 9.77042 10.3457 -14.662
O -10.7251 -8.65605 -6.72785
H -10.1027 -9.40004 -6.97096
H -10.4662 -8.28261 -5.83706
O -9.16924 -12.2258 -6.35518
H -8.815 -12.805 -5.62096
H -10.1088 -12.4944 -6.56766
O -6.23479 -8.40149 4.36788
H -7.19337 -8.24442 4.13031
H -5.65022 -8.08744 3.6198
O 1.11866 6.79661 1.89327
H 1.79856 6.15359 2.24576
H 0.761169 7.34953 2.6459
O 13.7098 8.41145 5.82744
H 14.5771 8.59651 6.28945
H 13.0669 8.00418 6.4761
O -4.69626 6.87516 14.2523
H -4.78917 5.95457 13.873
H -5.13861 6.91266 -14.7556
O -10.3093 13.1052 -13.4054
H -10.4745 13.9263 -13.9517
H -10.3168 12.3017 -14.0007
O -5.74199 -5.11029 7.93436
H -5.77951 -5.94101 7.37896
H -4.81429 -4.98639 8.2865
O 6.66721 13.5386 -0.707526
H 7.62692 13.5932 -0.431954
H 6.08446 13.5813 0.103988
O 9.18653 -11.2004 -12.4712
H 8.8623 -10.571 -11.765
H 9.25403 -12.1225 -12.0904
O 3.16284 13.0178 -6.26657
H 2.3852 13.0065 -6.89515
H 3.92906 13.4986 -6.69287
O -5.80319 -12.0813 -9.3106
H -5.82034 -11.7735 -8.35931
H -5.25513 -11.4474 -9.85621
O 10.7511 5.66058 -4.5108
H 10.6202 6.3109 -3.76252
H 11.3913 4.94768 -4.22467
O 2.8479 -0.782816 -4.75507
H 2.64851 -1.68909 -5.12774
H 3.01139 -0.142431 -5.50551
O -9.00553 -0.478653 7.64416
H -9.88646 -0.476116 8.11736
H -8.38724 -1.12291 8.0943
O 9.65163 13.8034 3.55782
H 9.189 13.3596 4.32526
H 9.88582 14.7429 3.80799
O -7.71245 7.61287 6.32575
H -8.5031 8.21537 6.21693
H -7.67914 7.27313 7.26566
O 5.88554 9.82457 11.897
H 5.16238 9.14787 12.0352
H 6.13325 10.2319 12.776
O 1.59116 -7.90544 -10.6213
H 1.00355 -8.63972 -10.2814
H 2.28869 -8.28967 -11.2261
O -9.56552 -6.7012 -2.46916
H -9.61472 -5.7518 -2.7793
H -9.62843 -6.72964 -1.47156
O -3.86841 -14.226 0.514666
H -2.94285 -14.2225 0.136123
H -3.8669 -13.767 1.40307
O 8.53338 -10.7295 8.07515
H 7.66436 -10.2619 8.23685
H 9.18679 -10.0886 7.67232
O -10.2639 5.42309 5.14637
H -10.8705 5.98009 4.57912
H -9.31995 5.53712 4.83655
O -14.2253 3.35567 -11.4196
H -13.6796 2.56085 -11.1543
H -14.2063 4.03344 -10.6846
O -9.18304 -8.12311 -12.6755
H -8.41621 -8.57415 -12.2189
H -9.41687 -8.62481 -13.5083
O -10.427 3.01856 -12.8622
H -10.0086 3.46558 -12.0715
H -10.2681 2.03263 -12.8103
O -4.02409 9.22488 -11.8755
H -4.61029 8.42876 -11.7254
H -3.92359 9.73104 -11.019
O 9.23327 9.78922 -2.33502
H 9.94793 10.4886 -2.32834
H 8.58705 9.98003 -3.07391
O 5.2737 10.009 -12.8027
H 5.44381 9.04615 -13.0124
H 4.67628 10.0756 -12.0036
O 2.22939 8.35839 -9.04718
H 2.25806 7.56611 -9.65664
H 2.86513 8.2182 -8.28813
O 14.5246 14.9159 -7.14643
H 14.1174 14.4629 -6.35338
H -14.915 14.2375 -7.71578
O 14.7049 14.7929 2.46099
H -14.7737 14.6487 1.56753
H 13.7817 14.4085 2.45654
O -3.68981 6.28938 -2.31005
H -4.50343 6.20141 -1.73539
H -2.8705 6.19987 -1.74376
O -6.50334 7.59715 -13.0647
H -7.37139 7.10207 -13.1015
H -6.57796 8.44078 -13.5964
O 9.09829 -13.2018 -4.42949
H 8.54431 -12.6894 -3.77332
H 9.57118 -12.5633 -5.03671
O -13.8988 7.4599 -4.01697
H -13.8679 7.78367 -4.96258
H -13.0425 7.69342 -3.55648
O 10.8553 -9.88258 -14.7721
H 10.2872 -9.11891 -14.4655
H 10.2743 -10.6723 14.935
O 5.40006 -11.582 -11.1054
H 6.26656 -11.0832 -11.0866
H 4.96639 -11.5306 -10.2058
O 14.6476 -7.73892 -10.6546
H 14.5145 -7.66949 -9.66591
H -14.8754 -8.63628 -10.8774
O -0.336151 -9.59241 -14.7469
H 0.519669 -10.1083 -14.7837
H -0.453249 -9.20596 -13.8321
O 8.67962 7.80633 -6.63469
H 8.09068 7.87597 -5.82954
H 8.93086 6.84971 -6.78214
O -9.90338 0.731547 -11.141
H -10.0392 0.0739722 -10.3999
H -9.55268 1.58936 -10.7653
O 3.22402 -5.11196 -8.40867
H 2.95723 -4.33011 -8.97214
H 3.79163 -4.79652 -7.64821
O 9.06969 13.8571 -4.65407
H 9.36482 13.374 -5.47838
H 9.16429 14.8428 -4.79353
O 4.24148 7.20493 0.118759
H 4.29018 6.20644 0.0937583
H 4.82903 7.54905 0.851107
O -4.27995 -12.7992 -13.4073
H -4.93607 -13.1531 -12.7408
H -4.74573 -12.1749 -14.0344
O -4.85223 13.7755 -7.08482
H -4.26224 14.3381 -6.50573
H -4.97198 14.2216 -7.97176
O -3.88651 -12.8064 10.499
H -3.18626 -12.9395 11.2003
H -3.80092 -13.5192 9.80294
O -6.37622 10.6407 -6.4664
H -7.16694 10.8276 -5.88349
H -6.5898 10.8952 -7.40956
O -8.15524 3.29126 10.1468
H -7.65063 3.34466 9.28512
H -8.12748 2.35306 10.4917
O 11.8135 -7.96237 0.992417
H 12.7025 -7.63816 1.31565
H 11.3822 -8.517 1.70396
O -13.5591 13.6925 14.6241
H -13.5967 14.6918 14.6294
H -13.9416 13.34 -14.4258
O 12.9906 14.6085 7.18806
H 12.837 -14.5886 7.87853
H 13.183 -14.8642 6.30662
O 0.792906 10.3655 -6.21181
H 0.813804 11.2027 -5.66541
H 0.261993 9.66727 -5.73161
O 13.2951 4.87898 -6.01345
H 13.889 5.66775 -6.17184
H 12.358 5.19274 -5.8605
O 5.08991 -12.0631 4.18954
H 4.92856 -12.1996 5.16694
H 4.88098 -11.1159 3.94631
O 3.90911 4.2848 12.9068
H 3.26077 4.55994 13.6167
H 4.75907 4.80068 13.0136
O -10.4185 4.89649 10.815
H -10.4863 4.89522 11.8127
H -9.63863 4.33755 10.5332
O 8.0309 0.303057 9.22018
H 8.6418 -0.485745 9.15257
H 7.81583 0.637675 8.30271
O -10.2322 11.0652 14.4711
H -9.57848 10.661 13.8314
H -10.6406 11.8801 14.0599
O -12.1691 -9.64326 1.3175
H -11.391 -9.47964 0.711083
H -12.0024 -9.20318 2.19983
O -1.04819 -11.3074 6.71294
H -1.14135 -12.2888 6.54497
H -1.9253 -10.9368 7.0184
O -9.11545 9.40272 -12.5663
H -8.4366 9.65944 -11.8784
H -8.73224 9.53899 -13.4798
O -9.6275 10.3725 8.88748
H -10.3652 10.9339 9.26245
H -9.48519 9.5746 9.47317
O -2.51237 -4.2525 -9.03735
H -1.66594 -4.61533 -8.64762
H -3.22236 -4.23403 -8.3334
O 4.44437 11.6893 -14.7944
H 4.6755 11.0272 -14.0814
H 5.25339 11.8745 14.5518
O -11.9287 14.1948 0.574216
H -12.8091 14.2233 0.101005
H -11.1931 14.0957 -0.095964
O -7.56424 -14.0569 6.28319
H -8.27236 -14.7113 6.01809
H -7.79177 -13.1538 5.91895
O -3.68977 -2.45996 10.8101
H -2.97238 -2.38561 10.1174
H -3.58149 -3.31848 11.3112
O 13.3965 -11.1301 -10.3787
H 12.843 -10.5544 -10.9805
H 14.3619 -10.8919 -10.4849
O 11.8518 6.71235 7.30265
H 12.3646 5.8554 7.35412
H 10.9199 6.5635 7.63334
O -3.53567 -10.2912 7.11859
H -3.27612 -9.32961 7.20727
H -4.09638 -10.5588 7.90218
O -1.59774 1.11905 6.8366
H -2.11491 0.592308 6.16204
H -0.637562 1.16248 6.56065
O 3.35449 -2.16576 12.9828
H 3.9864 -2.85341 12.6253
H 3.45525 -1.31787 12.4623
O 4.28197 -13.4666 9.52231
H 4.25007 -14.3983 9.16052
H 3.37065 -13.058 9.47183
O -1.47509 -14.0271 -0.625835
H -1.17998 -13.4825 -1.41092
H -0.927187 -13.7826 0.174188
O 10.7082 -10.6076 3.21338
H 10.7784 -11.4219 2.63723
H 11.5277 -10.5293 3.78106
O 11.0239 2.37695 1.2655
H 10.0282 2.32762 1.18695
H 11.3006 2.08898 2.18228
O -14.2938 -2.13125 14.7839
H -14.4942 -3.0085 -14.6838
H -13.3452 -2.12526 14.4676
O 0.351874 -2.27145 12.9462
H 1.32559 -2.08101 13.071
H 0.240722 -3.04165 12.3181
O 0.575687 1.88932 10.1635
H 0.889156 2.64952 9.59442
H 1.20433 1.76646 10.9314
O 8.49381 -3.16435 6.51543
H 7.83032 -2.91205 5.81109
H 9.35196 -2.67671 6.35494
O -9.10801 -12.4434 13.0134
H -8.88024 -11.9097 12.199
H -8.42784 -13.1655 13.1397
O -4.03256 7.78514 5.71493
H -3.48499 6.99836 5.43011
H -4.42846 8.22503 4.90888
O 0.254582 6.91761 -12.2836
H -0.494167 7.49446 -11.9571
H -0.113622 6.04794 -12.6124
O 4.3574 -10.1696 -4.14629
H 4.9343 -9.54017 -4.66679
H 4.663 -11.1088 -4.303
O -7.6724 0.570882 -6.65947
H -7.57227 0.983305 -7.56493
H -7.27865 -0.348292 -6.6665
O 14.7315 7.63414 -0.75488
H -14.6369 8.41755 -1.07021
H -14.8522 6.80518 -1.21337
O -11.3326 -3.95085 -10.1633
H -10.9584 -4.3314 -9.31765
H -11.3946 -4.67117 -10.8542
O 0.255236 3.68458 13.7549
H 0.913383 3.13317 13.2423
H -0.188852 4.3334 13.137
O -14.8368 -2.39331 2.3806
H -14.7915 -1.54262 2.9043
H -14.5515 -2.21999 1.43797
O 7.95106 5.41807 13.0009
H 7.06543 5.17321 13.3955
H 8.34739 6.17738 13.517
O 9.0017 -0.450893 0.885818
H 8.55186 -0.829033 0.0767255
H 9.9326 -0.810728 0.948381
O 4.47878 13.779 8.28874
H 4.93743 13.5315 7.43527
H 3.76516 13.1081 8.49026
O 11.2207 3.74496 13.4914
H 10.7178 2.89171 13.3535
H 11.1181 4.32648 12.6843
O -14.8044 4.61716 -0.746192
H -14.006 4.44086 -0.170488
H 14.3505 4.96212 -0.180643
O -8.51702 -8.63323 12.8032
H -8.49017 -8.47666 11.8159
H -7.68474 -9.10881 13.088
O 10.5463 1.5908 -13.8514
H 11.4113 2.09098 -13.8123
H 10.2616 1.49148 -14.8048
O 6.27485 -3.91842 13.8356
H 7.25745 -4.00102 13.6693
H 5.77347 -4.20283 13.0184
O 1.2568 3.68894 -2.9223
H 0.984548 3.28085 -2.05091
H 0.441998 3.88219 -3.46886
O 7.78736 -7.35577 3.31151
H 8.27873 -7.70102 4.11109
H 8.38812 -6.75392 2.78534
O -10.7073 -6.46458 -11.1799
H -11.1511 -6.9511 -10.4274
H -10.4358 -7.11886 -11.8857
O 8.76263 0.997122 -3.2945
H 8.8877 0.38766 -4.07737
H 8.45642 1.89336 -3.61539
O 12.8189 -4.11724 -14.3947
H 12.4891 -3.34694 -13.8489
H 13.7892 -3.98927 -14.5998
O -10.2158 -14.7994 5.46063
H -10.2417 -13.9458 4.94033
H -10.664 -14.6648 6.34436
O -12.1188 -2.58567 -1.22337
H -12.8732 -1.94726 -1.07068
H -12.4496 -3.37497 -1.74062
O -10.5574 -3.35329 3.10805
H -10.81 -2.83107 2.2935
H -10.5431 -2.74581 3.90224
O -6.75251 -2.3878 -13.0714
H -7.04131 -2.95413 -12.2995
H -5.75364 -2.35478 -13.1053
O -6.30452 -6.34612 10.798
H -6.08177 -5.84405 9.96239
H -6.86398 -5.77 11.3939
O 13.5294 4.78696 -12.543
H 13.6667 4.9627 -13.5178
H 14.2544 4.18555 -12.2074
O -10.7614 -0.208914 -14.5717
H -10.9382 -0.920371 -13.8916
H -9.81693 0.107927 -14.4848
O 5.77082 10.425 2.70702
H 6.43196 9.98934 2.09621
H 5.04072 9.77715 2.92444
O 9.13041 -11.85 14.555
H 8.1986 -11.6212 14.2733
H 9.15778 -11.9744 -14.3571
O 12.9932 2.73826 -8.2484
H 12.0208 2.52808 -8.148
H 13.3063 3.25576 -7.45208
O -8.76735 10.899 -5.05573
H -8.23318 11.1913 -4.26253
H -9.49387 11.5633 -5.23149
O 12.9496 6.72957 -10.6671
H 13.5113 6.21382 -11.314
H 12.9754 6.28244 -9.77307
O -14.0223 -4.63907 -14.2928
H -13.2667 -5.0158 -14.8287
H -13.7919 -4.6756 -13.3204
O -3.59691 -4.51092 3.84491
H -4.14719 -5.21491 3.39596
H -4.18142 -3.73802 4.09179
O 5.83121 7.44199 -9.51638
H 5.5863 7.16389 -8.58759
H 6.48775 6.79084 -9.89708
O -1.03579 14.2709 8.25381
H -1.65332 13.6636 7.75399
H -0.153625 13.8176 8.38147
O 1.63386 0.563555 14.342
H 0.703484 0.472033 13.987
H 1.90911 -0.292153 14.7801
O -9.40508 10.3173 -8.87092
H -8.62962 10.9481 -8.89796
H -9.60692 9.99737 -9.79659
O -4.12586 10.8761 -9.74566
H -4.56872 11.0408 -8.86434
H -3.39695 11.5468 -9.8829
O -10.2928 13.3826 -6.39179
H -9.43623 13.6231 -6.84838
H -11.0092 13.2486 -7.07641
O 0.831688 -2.32959 -7.5391
H 0.889262 -2.31199 -8.53727
H 0.406528 -1.48457 -7.21482
O -14.648 4.09068 9.68851
H -14.5474 3.65823 10.5845
H -14.1193 3.57984 9.01064
O 13.2765 -7.36215 5.61246
H 12.9229 -8.2575 5.34174
H 13.8389 -6.98892 4.87468
O -6.98361 8.83883 9.76216
H -7.80729 8.34572 9.48223
H -6.44077 9.06686 8.95388
O -12.5298 11.8463 -12.2896
H -11.708 12.2065 -12.7311
H -13.3065 12.4418 -12.4946
O -6.5847 13.7918 -4.64707
H -6.01413 13.5409 -5.42903
H -6.64903 13.0163 -4.01896
O 12.8515 -1.63738 9.54423
H 12.9049 -0.87237 8.90245
H 11.8996 -1.92976 9.63587
O 14.672 8.47268 -8.81104
H -14.6157 8.66542 -9.57465
H 14.2686 9.32739 -8.48439
O 3.51591 14.5852 0.116742
H 3.92792 13.7809 0.544984
H 4.15317 -14.5499 0.169249
O 1.51427 14.8226 -8.01908
H 1.54732 -14.3617 -8.71259
H 1.28344 13.9518 -8.45311
O 4.17992 -4.50892 -11.6527
H 4.20367 -3.67971 -11.0943
H 4.81457 -5.18325 -11.2752
O 3.74661 5.69842 -2.30509
H 3.28655 5.25471 -3.07414
H 3.14885 5.68031 -1.50364
O -0.808606 -6.30584 -14.1591
H -1.72808 -5.91288 -14.1695
H -0.789815 -7.09374 -13.5436
O -8.77989 6.01771 -13.5348
H -9.25374 5.7384 -12.6996
H -8.18623 5.27534 -13.8453
O 4.98897 -10.2179 9.43015
H 5.31735 -10.9799 9.9883
H 4.27323 -9.72588 9.92576
O -0.614394 2.19527 -7.29267
H -0.31384 1.54536 -7.99071
H -0.616726 3.11883 -7.67608
O -4.67576 -6.5702 -8.62899
H -4.63479 -5.65753 -8.22239
H -5.53046 -7.01572 -8.36258
O -7.66836 3.71626 -7.2956
H -7.38868 2.90705 -6.77895
H -7.80459 4.4822 -6.66731
O 1.50751 -14.2999 6.08812
H 1.69861 -13.7853 5.25221
H 1.53885 14.6242 5.89092
O 10.7706 9.47756 -6.4226
H 10.4404 10.3969 -6.63666
H 10.0172 8.8252 -6.50483
O -14.448 9.63062 -12.7874
H -13.7894 10.3823 -12.8239
H -14.0963 8.90795 -12.1924
O 4.83067 -3.98692 0.670657
H 5.33648 -3.26991 0.191043
H 4.05789 -3.58054 1.15814
O -3.69962 5.89011 -4.96289
H -3.81021 6.65142 -5.60175
H -3.76316 6.23035 -4.02471
O 3.53368 13.5395 13.1503
H 2.77142 13.2264 12.5838
H 3.79676 12.8136 13.7859
O 5.12762 -13.1197 -0.0191835
H 4.81939 -12.959 -0.956798
H 5.95171 -12.5816 0.157651
O 9.08782 -4.23385 -3.69357
H 8.65606 -4.40618 -4.57893
H 10.0806 -4.19835 -3.80816
O -9.25798 -3.57968 -1.00488
H -8.39004 -3.21024 -0.672973
H -9.95688 -2.86503 -0.976932
O 10.4257 -7.88099 -1.14078
H 11.0272 -8.03377 -0.356675
H 10.8126 -8.32477 -1.94909
O 0.698026 -2.44917 -10.5795
H 1.02662 -3.3441 -10.8813
H -0.297093 -2.41142 -10.6705
O 8.13247 2.65923 3.44027
H 7.14547 2.71786 3.5898
H 8.39712 1.70078 3.33398
O 8.88291 3.26809 8.97594
H 9.07711 2.29912 8.82309
H 9.33863 3.5714 9.81277
O -13.2613 -14.2973 -3.78366
H -13.7368 -13.9122 -2.99276
H -12.698 14.8342 -3.4903
O 9.77409 1.36301 13.2247
H 10.0015 0.47564 12.8236
H 8.78114 1.44596 13.3092
O -1.69828 -9.35251 -2.61764
H -1.69444 -10.228 -3.10091
H -1.91234 -9.50531 -1.65286
O -10.5466 -1.57006 0.987524
H -10.55 -0.577036 0.869781
H -11.2519 -1.97694 0.406967
O 5.5648 -8.98382 6.78559
H 5.13598 -9.518 7.51411
H 6.24849 -8.37015 7.18048
O -10.6551 -13.2184 2.78948
H -10.5445 -13.3442 1.80362
H -11.6276 -13.2414 3.0214
O 3.28549 -6.6467 -5.42922
H 3.35236 -5.75093 -4.98979
H 2.89786 -7.30593 -4.78491
O -10.047 -1.37778 -3.80282
H -9.71611 -0.592927 -3.27893
H -10.854 -1.76175 -3.35407
O -2.58389 -0.4233 8.85855
H -2.30022 0.356042 8.29987
H -3.57405 -0.392768 8.99498
O 6.78962 13.3613 -3.31106
H 7.62623 13.6368 -3.7845
H 6.90882 13.4829 -2.32567
O -7.35347 0.673535 11.0749
H -6.35831 0.670434 10.9767
H -7.60314 1.13779 11.9247
O 12.3834 1.09967 11.3857
H 13.2917 0.929032 11.7677
H 11.7325 0.443735 11.7679
O 11.4438 -3.44372 13.3239
H 11.6575 -4.18025 12.6822
H 12.0024 -3.54623 14.147
O 14.7498 -10.2101 -2.25073
H 14.1306 -9.44218 -2.08687
H 14.7831 -10.4083 -3.23032
O -10.2828 -11.7596 5.5464
H -9.95219 -11.8464 4.60663
H -11.2812 -11.704 5.54472
O -14.672 0.223142 3.16446
H 14.838 0.917982 2.56282
H -13.7411 0.488516 3.41539
O 6.68585 -0.0203956 11.447
H 5.74689 -0.042276 11.1037
H 7.27034 0.454285 10.789
O -13.5732 4.65762 -3.20918
H -13.8716 5.4546 -3.7343
H -14.1876 4.52145 -2.43202
O -7.902 -2.41667 -9.35555
H -7.22178 -2.09584 -8.69651
H -8.78866 -2.00394 -9.14706
O -4.92694 13.4067 -1.00577
H -5.92491 13.4551 -1.04692
H -4.57801 14.173 -0.466317
O 3.08429 9.02656 -2.38089
H 3.46056 9.81208 -1.88961
H 3.4453 8.182 -1.98545
O 12.3842 -5.49004 7.6219
H 12.4461 -6.38293 7.17592
H 12.9081 -4.81865 7.09779
O -12.2919 -1.45604 10.5898
H -13.1141 -1.98438 10.3781
H -12.3122 -1.17861 11.5503
O 2.87663 6.43841 8.60141
H 2.59397 6.65893 9.53492
H 3.87382 6.37529 8.56122
O 11.9534 1.46391 3.95758
H 12.2861 0.576377 3.63891
H 12.6958 1.95362 4.41474
O 4.12351 -5.75574 -1.40055
H 4.51387 -5.20951 -0.659452
H 4.07523 -5.20283 -2.23238
O -11.4971 13.2174 -3.55012
H -11.755 12.2513 -3.55367
H -11.2334 13.4954 -4.4738
O -11.5206 -5.84978 -4.87367
H -11.5446 -6.71688 -4.37614
H -10.9287 -5.20461 -4.39053
O -14.6788 -7.33181 14.3952
H -14.6194 -6.91041 13.4903
H -14.8136 -6.62112 -14.8183
O 2.60364 12.0992 9.46732
H 2.13487 12.3871 10.3024
H 1.94938 12.0678 8.71172
O -5.79864 -7.62852 6.97876
H -4.85114 -7.46631 7.25428
H -5.81367 -8.08136 6.08731
O -8.1733 7.27828 -1.65957
H -9.01851 7.05594 -1.17361
H -7.84258 8.17341 -1.36067
O -11.5386 6.91408 -6.60304
H -11.3575 6.22756 -5.89887
H -10.6729 7.22882 -6.9922
O 11.7405 7.62843 14.7635
H 11.4496 7.85174 13.8332
H 12.4876 8.23564 -14.87
O -8.79772 -4.83806 9.52709
H -8.59778 -5.25935 8.6425
H -8.77769 -3.84259 9.4343
O 9.74831 -7.3968 -14.2704
H 9.09537 -7.38943 14.8761
H 9.33515 -6.96268 -13.4699
O -7.36509 6.33499 -9.81435
H -7.43741 7.29588 -10.0816
H -7.75731 6.21214 -8.90274
O 10.2874 7.28161 -11.8716
H 9.97729 7.94762 -11.1932
H 11.1417 6.86392 -11.5623
O 0.536502 3.58589 -10.9279
H 0.864 2.64995 -10.7985
H 0.296305 3.72522 -11.8885
O 8.56596 -1.095 -14.8216
H 7.65894 -1.4227 -14.5572
H 9.1187 -1.86497 14.7636
O -12.385 -9.05487 3.92705
H -12.4835 -9.96859 4.32125
H -12.7775 -8.37878 4.55064
O -5.15062 -14.7639 5.42782
H -6.02835 -14.5445 5.85379
H -5.02778 -14.2025 4.60946
O 5.83995 0.295279 -4.91916
H 6.49632 1.00127 -5.18511
H 5.31609 0.608586 -4.12709
O 9.11644 7.27136 -14.3723
H 9.98002 7.22532 -14.8744
H 9.30236 7.28374 -13.3898
O -0.2725 7.26 -8.35492
H -0.790751 8.11285 -8.41845
H 0.704755 7.45725 -8.43262
O -3.12092 3.33178 7.91222
H -3.00275 3.22013 8.8989
H -2.771 2.52223 7.4409
O 0.106661 -11.8323 -7.44831
H -0.394825 -12.6528 -7.17395
H -0.309225 -11.0293 -7.02162
O -1.28912 -12.2643 -10.47
H -1.32067 -12.8812 -9.6836
H -0.774581 -12.6953 -11.2113
O -1.53245 -5.92194 5.03179
H -2.23432 -5.34247 4.61758
H -1.28836 -6.65514 4.39713
O 5.10509 8.41401 6.23371
H 5.25966 8.3653 7.22047
H 5.95849 8.66046 5.77442
O -0.313057 -4.99251 -7.62308
H 0.381039 -5.68146 -7.83178
H 0.13383 -4.12694 -7.39714
O -9.96708 13.547 -1.31448
H -9.80822 14.5264 -1.19
H -10.5903 13.4055 -2.0836
O -12.6518 11.5814 1.27497
H -13.6092 11.7714 1.05769
H -12.1221 12.4275 1.21489
O -6.3659 5.15564 -1.26247
H -5.90637 5.95583 -0.877105
H -7.34451 5.34247 -1.34837
O -12.3547 14.0385 -8.36383
H -11.9652 14.2129 -9.26815
H -13.061 13.3342 -8.43539
O -1.05933 10.0724 0.236442
H -1.53063 10.882 -0.113516
H -1.7312 9.36659 0.460872
O -8.95904 -10.8194 -2.38395
H -9.28261 -10.1633 -3.06568
H -7.95911 -10.8286 -2.37851
O 8.07049 -11.8277 0.216054
H 8.02956 -10.8286 0.204748
H 8.06912 -12.1507 1.16245
O 7.77752 -13.6254 7.13069
H 7.28162 -12.7838 6.91675
H 7.29139 -14.1257 7.84714
O 13.9126 2.84064 5.24699
H 14.7776 3.25244 4.96009
H 13.6446 3.21321 6.13543
O -2.12845 7.81829 3.25813
H -1.16336 7.98439 3.46059
H -2.68234 8.55333 3.64913
O -12.0567 10.5343 -8.53465
H -12.0885 10.3478 -9.51659
H -11.1273 10.3852 -8.19701
O -13.1458 -9.31171 12.2975
H -12.5447 -10.0943 12.4594
H -13.7811 -9.21528 13.0638
O -9.80748 -8.85482 5.97982
H -9.47481 -9.75568 5.70097
H -10.8046 -8.87566 6.05288
O -2.74779 12.0156 11.5004
H -2.59852 11.7862 10.5386
H -3.72977 12.0643 11.6829
O 0.384929 10.0411 -2.12935
H -0.0145002 10.2209 -1.23041
H 1.36089 9.84825 -2.0279
O 4.28966 5.95475 4.99658
H 4.99432 5.94375 4.28714
H 4.20963 6.87789 5.37259
O -4.49935 -12.6693 13.6333
H -3.9693 -13.4283 14.0115
H -4.41002 -12.664 12.6373
O 2.29759 -4.25768 6.84201
H 1.68868 -5.04626 6.9277
H 3.13726 -4.53418 6.37458
O -5.7948 0.845523 3.99537
H -5.34005 1.07238 4.85659
H -6.24573 1.66064 3.63175
O -4.64088 -3.86918 -1.47196
H -3.70618 -4.21535 -1.39142
H -4.62071 -2.93432 -1.82636
O -4.44667 9.81182 -4.51217
H -4.97361 10.2111 -5.2624
H -3.70332 9.25678 -4.88545
O 14.1141 8.82833 -14.9314
H 14.8178 8.92152 -14.2271
H 14.5101 8.39983 14.1604
O -9.42156 5.05998 -11.0344
H -8.73469 5.62085 -10.5722
H -10.1323 4.79817 -10.3815
O 8.09269 -0.0959122 3.3636
H 8.41482 -0.308695 2.44114
H 7.63773 -0.897723 3.75099
O -12.9037 -11.5237 5.46136