LAMMPS data file via write_data, version 15 May 2015, timestep = 4999000

2611 atoms
6 atom types
1749 bonds
4 bond types
894 angles
3 angle types
44 dihedrals
3 dihedral types
10 impropers
1 improper types

-1.5048324463987013e+01 1.5048324463987013e+01 xlo xhi
-1.5048324463987013e+01 1.5048324463987013e+01 ylo yhi
-1.5048324463987013e+01 1.5048324463987013e+01 zlo zhi

Masses

1 15.9994
2 1.00794
3 12.0107
4 1.00794
5 12.0107
6 12.0107

Bond Coeffs # harmonic

1 1000 1
2 469 1.4
3 367 1.08
4 469 0.7

Angle Coeffs # harmonic

1 100 109.47
2 35 120
3 63 120

Dihedral Coeffs # opls

1 0 7.25 0 0
2 0 7.25 0 0
3 0 7.25 0 0

Improper Coeffs # cvff

1 2.5 -1 2

Atoms # full

765 255 2 4.0999999999999998e-01 -1.2444166812684674e+01 -1.0711297222920987e+01 -9.8614300793899368e+00 0 -1 3
1866 622 2 4.0999999999999998e-01 -8.5429075979666855e+00 -1.3288381829658320e+01 -1.0178424033172401e+01 1 -1 -1
613 205 1 -8.1999999999999995e-01 -9.5708672459086834e+00 -9.7411540352694601e+00 -8.6129111789135990e+00 4 0 1
615 205 2 4.0999999999999998e-01 -8.6779070946353123e+00 -9.3595634056569104e+00 -8.8516472211583963e+00 4 0 1
231 77 2 4.0999999999999998e-01 -1.3549259203479719e+01 -8.7879779821737145e+00 -1.2674992626467168e+01 0 1 1
229 77 1 -8.1999999999999995e-01 -1.2773837320562494e+01 -9.0938290494562750e+00 -1.3227405665692311e+01 0 1 1
270 90 2 4.0999999999999998e-01 -1.1149347438658999e+01 -1.4798886703025316e+01 -1.0068739453132558e+01 0 2 0
230 77 2 4.0999999999999998e-01 -1.3107740262765253e+01 -9.6303072328454284e+00 -1.4002443823782528e+01 0 1 1
268 90 1 -8.1999999999999995e-01 -1.1832121389549048e+01 -1.4793341732694877e+01 -1.0799337241937931e+01 0 2 0
269 90 2 4.0999999999999998e-01 -1.1594068082396269e+01 -1.4093423184415675e+01 -1.1472708459386542e+01 0 2 0
1894 632 1 -8.1999999999999995e-01 -1.3741778959564956e+01 -7.3840485990456441e+00 -1.1183157824453470e+01 2 -2 -3
763 255 1 -8.1999999999999995e-01 -1.3161385200732983e+01 -1.1318064379264049e+01 -1.0204089588674833e+01 0 -1 3
614 205 2 4.0999999999999998e-01 -1.0292847774644503e+01 -9.1483901582641529e+00 -8.9697854480996426e+00 4 0 1
1864 622 1 -8.1999999999999995e-01 -8.3592544693117130e+00 -1.3304449118400759e+01 -1.1161275760685285e+01 1 -1 -1
722 241 2 4.0999999999999998e-01 -1.1650466207515958e+01 -7.2806176414780825e+00 -8.7664979082519778e+00 2 0 0
1865 622 2 4.0999999999999998e-01 -8.2736419935625030e+00 -1.2367374054502594e+01 -1.1499720721274930e+01 1 -1 -1
721 241 1 -8.1999999999999995e-01 -1.1494109232409983e+01 -7.9007288607973711e+00 -9.5352623240681318e+00 2 0 0
764 255 2 4.0999999999999998e-01 -1.3026462052574878e+01 -1.1474304432723374e+01 -1.1182541901199919e+01 0 -1 3
2159 720 2 4.0999999999999998e-01 -8.0859468475627274e+00 -1.0187228779892262e+01 -1.1426987012988882e+01 2 0 1
2158 720 1 -8.1999999999999995e-01 -8.8619325602699632e+00 -1.0642231934592946e+01 -1.1863796414055249e+01 2 0 1
32 11 2 4.0999999999999998e-01 -8.6099022715488616e+00 -6.3745378466984146e+00 -1.0162633972980734e+01 0 -2 -1
1895 632 2 4.0999999999999998e-01 -1.3748185274404561e+01 -6.3849975587096406e+00 -1.1140261264765861e+01 2 -2 -3
2160 720 2 4.0999999999999998e-01 -9.1496687185032641e+00 -1.0115924854782801e+01 -1.2663916969265628e+01 2 0 1
1896 632 2 4.0999999999999998e-01 -1.4558621138911869e+01 -7.7423229347312859e+00 -1.0731059938365252e+01 2 -2 -3
31 11 1 -8.1999999999999995e-01 -8.9280910756505456e+00 -6.7273714336624177e+00 -9.2827200539210644e+00 0 -2 -1
2100 700 2 4.0999999999999998e-01 -1.1502288496564731e+01 -6.6695676552326049e+00 -1.4460547759988509e+01 0 2 -1
446 149 2 4.0999999999999998e-01 -9.8147921839744825e+00 -1.3853130416339461e+01 -8.5442992984832529e+00 3 -1 -2
2294 765 2 4.0999999999999998e-01 -1.0957831553449491e+01 -9.5663690886143904e+00 -1.3681052952744112e+01 2 -3 -2
2120 707 2 4.0999999999999998e-01 -1.2087480355953558e+01 -1.3241521356419948e+01 -1.3863476340289218e+01 0 -1 1
1928 643 2 4.0999999999999998e-01 -1.0609569225719529e+01 -1.2262056317504246e+01 -1.1797453681761283e+01 2 1 1
1927 643 1 -8.1999999999999995e-01 -1.0983888879158474e+01 -1.2697120172628457e+01 -1.2616348295764224e+01 2 1 1
723 241 2 4.0999999999999998e-01 -1.2257391099722298e+01 -7.8340360174984847e+00 -1.0177864082729357e+01 2 0 0
1761 587 2 4.0999999999999998e-01 -7.8884973132645930e+00 -1.2246872489219324e+01 -8.6821892941757870e+00 2 -5 -1
2293 765 1 -8.1999999999999995e-01 -1.0159208907911557e+01 -9.5984851602666161e+00 -1.4282014340284629e+01 2 -3 -2
1929 643 2 4.0999999999999998e-01 -1.0460449052911631e+01 -1.2406198686202510e+01 -1.3417197596633949e+01 2 1 1
447 149 2 4.0999999999999998e-01 -1.1054286895315524e+01 -1.4503506315520067e+01 -7.7033187793394129e+00 3 -1 -2
445 149 1 -8.1999999999999995e-01 -1.0347144290134437e+01 -1.4684849515409985e+01 -8.3867279641360319e+00 3 -1 -2
509 170 2 4.0999999999999998e-01 -1.3717029714316194e+01 -5.4467212830946767e+00 -1.3607693163510421e+01 2 -1 0
1780 594 1 -8.1999999999999995e-01 -1.2696111510500579e+01 -1.3014532596468763e+01 -7.6897297271405698e+00 -1 1 0
462 154 2 4.0999999999999998e-01 -1.0042439869894581e+01 -1.1155894453400760e+01 -1.4719060141870358e+01 1 -4 2
460 154 1 -8.1999999999999995e-01 -9.8251701859773064e+00 -1.2100892333321486e+01 -1.4963512693188388e+01 1 -4 2
450 150 2 4.0999999999999998e-01 -8.6758093759850503e+00 -5.8479024049433868e+00 -1.4740291203986764e+01 1 -2 0
33 11 2 4.0999999999999998e-01 -9.7936201070017415e+00 -7.2114973435737655e+00 -9.4110389536558472e+00 0 -2 -1
822 274 2 4.0999999999999998e-01 -1.4614774071536267e+01 -1.3661444196752640e+01 -1.4126361272885342e+01 2 1 1
1818 606 2 4.0999999999999998e-01 -7.7552051613464341e+00 -6.5532646479384251e+00 -8.1506819375784474e+00 1 0 0
724 242 1 -8.1999999999999995e-01 -8.1121689111438791e+00 -5.8343591329045807e+00 -1.1611453907494838e+01 2 -1 -2
1759 587 1 -8.1999999999999995e-01 -8.8765760836045295e+00 -1.2397301591444029e+01 -8.7146787179430927e+00 2 -5 -1
1782 594 2 4.0999999999999998e-01 -1.2638960651257058e+01 -1.2758212629009243e+01 -8.6546224585623772e+00 -1 1 0
1760 587 2 4.0999999999999998e-01 -9.3487821013719774e+00 -1.1516092801981308e+01 -8.6928456395072313e+00 2 -5 -1
278 93 2 4.0999999999999998e-01 -1.4969506835384760e+01 -8.3800298434329736e+00 -8.4685161315819890e+00 3 -2 0
725 242 2 4.0999999999999998e-01 -8.9687495710945555e+00 -5.3246177504880432e+00 -1.1691562894228060e+01 2 -1 -2
1590 530 2 4.0999999999999998e-01 -1.4939023370680889e+01 -1.4988165297433843e+01 -1.2416260015347607e+01 3 -2 -3
2119 707 1 -8.1999999999999995e-01 -1.2613580095338225e+01 -1.3772076447488704e+01 -1.4528092400773941e+01 0 -1 1
1953 651 2 4.0999999999999998e-01 -1.4964521507941285e+01 -1.1440853806325652e+01 -9.4500174270542061e+00 3 0 -2
2098 700 1 -8.1999999999999995e-01 -1.0562788161855671e+01 -6.4583512152198974e+00 -1.4730197316652204e+01 0 2 -1
2121 707 2 4.0999999999999998e-01 -1.2300955600897389e+01 -1.4721899764079753e+01 -1.4518832947204434e+01 0 -1 1
1094 365 2 4.0999999999999998e-01 -8.1206305944999926e+00 -9.3858014868270043e+00 -1.4655686464338928e+01 1 3 0
508 170 1 -8.1999999999999995e-01 -1.2802242505624816e+01 -5.0487886959308348e+00 -1.3676961946004583e+01 2 -1 0
2099 700 2 4.0999999999999998e-01 -1.0480999298965699e+01 -5.4788118000671080e+00 -1.4914037650811599e+01 0 2 -1
277 93 1 -8.1999999999999995e-01 -1.4566932367040122e+01 -8.3115612344170842e+00 -7.5557018097657025e+00 3 -2 0
279 93 2 4.0999999999999998e-01 -1.3853333049989292e+01 -7.6110216733016101e+00 -7.5578203980704579e+00 3 -2 0
2295 765 2 4.0999999999999998e-01 -1.0282601639125513e+01 -8.9523067743189930e+00 -1.5035149042647175e+01 2 -3 -2
851 284 2 4.0999999999999998e-01 -7.4719251015424062e+00 -7.3133673008430584e+00 -1.1469422390599572e+01 3 -1 3
1871 624 2 4.0999999999999998e-01 -4.4909476922336733e+00 -1.4937295295756043e+01 -1.1978445462050452e+01 -1 0 -1
419 140 2 4.0999999999999998e-01 -6.5290785930096771e+00 -5.6585323906587597e+00 -1.3842561913126255e+01 2 0 0
1628 543 2 4.0999999999999998e-01 -9.4686542614590863e-02 -1.2306376944958737e+01 -1.1484128734168078e+01 3 0 1
242 81 2 4.0999999999999998e-01 -3.6295986597232144e-01 -7.6039514934935841e+00 -1.4952267159160979e+01 2 -3 1
970 324 1 -8.1999999999999995e-01 -1.3474607231494797e+00 -1.2643806328218723e+01 -1.3868239330911106e+01 1 -1 0
2231 744 2 4.0999999999999998e-01 -4.4255586075018414e+00 -6.2832111302269187e+00 -1.2204323649767655e+01 2 -2 0
1095 365 2 4.0999999999999998e-01 -7.1613926085764303e+00 -1.0590681581012497e+01 -1.4112813899842900e+01 1 3 0
972 324 2 4.0999999999999998e-01 -1.9561659690073405e+00 -1.2147362750912398e+01 -1.3249364678336120e+01 1 -1 0
1093 365 1 -8.1999999999999995e-01 -7.3084192273572706e+00 -9.6015574627873850e+00 -1.4113702895276356e+01 1 3 0
1317 439 2 4.0999999999999998e-01 -9.8897230435922268e-01 -7.4503146475661834e+00 -1.0501767581917910e+01 2 3 0
2536 846 1 -8.1999999999999995e-01 -2.5433074509578919e+00 -1.4020660664425698e+01 -7.9048369010033097e+00 3 2 1
1049 350 2 4.0999999999999998e-01 -1.9237317750455549e+00 -6.4408587278454075e+00 -1.3903818406874009e+01 1 -1 4
850 284 1 -8.1999999999999995e-01 -7.1632593410821848e+00 -8.2643194845354078e+00 -1.1489411436303264e+01 3 -1 3
638 213 2 4.0999999999999998e-01 -1.6016996693665231e+00 -1.4806454029588490e+01 -1.3580882972685373e+01 -1 -1 1
1531 511 1 -8.1999999999999995e-01 -4.8129022072497971e+00 -8.7187449660945653e+00 -1.4179946499257060e+01 3 1 -1
2126 709 2 4.0999999999999998e-01 -1.2951064881422152e+00 -1.0970102941037226e+01 -8.0362818975755381e+00 2 1 0
2015 672 2 4.0999999999999998e-01 -1.8733013338185529e+00 -8.1829406554265116e+00 -1.2402040759334344e+01 3 -2 -1
2239 747 1 -8.1999999999999995e-01 -6.2366922363188415e+00 -1.1575204948821481e+01 -8.1412544807501952e+00 3 1 -1
1779 593 2 4.0999999999999998e-01 -5.9321287666866631e+00 -1.3275996334275165e+01 -8.4742975381552412e+00 1 0 0
2014 672 1 -8.1999999999999995e-01 -1.4932859976720803e+00 -8.6701580832733569e+00 -1.1615789109919305e+01 3 -2 -1
2203 735 1 -8.1999999999999995e-01 -3.6952229785118860e+00 -1.1012276239155412e+01 -1.3303906342328062e+01 3 -4 -1
1623 541 2 4.0999999999999998e-01 -3.7079518510998160e+00 -1.0517738278692256e+01 -9.8006258728955373e+00 3 2 0
1027 343 1 -8.1999999999999995e-01 -3.8982305556366370e+00 -7.7837624982211642e+00 -7.9871588031289313e+00 0 -1 -1
2127 709 2 4.0999999999999998e-01 -6.7944078217568915e-01 -1.2007209387159360e+01 -9.1371680227396865e+00 2 1 0
1977 659 2 4.0999999999999998e-01 -2.1680402152396105e-01 -1.4550214783070597e+01 -1.1416566449293892e+01 4 0 0
1920 640 2 4.0999999999999998e-01 -3.9996157671456647e+00 -1.2688554751793346e+01 -1.1367577069176578e+01 4 1 4
2367 789 2 4.0999999999999998e-01 -6.9903834937960436e+00 -1.3321754444253681e+01 -1.4276368973128680e+01 2 0 -1
2125 709 1 -8.1999999999999995e-01 -8.3351602703985606e-01 -1.1848234986127409e+01 -8.1619900071049827e+00 2 1 0
1777 593 1 -8.1999999999999995e-01 -5.5382807595960397e+00 -1.4188372996829866e+01 -8.3627774345978132e+00 1 0 0
1315 439 1 -8.1999999999999995e-01 -5.0198966675931267e-01 -6.7484191394391502e+00 -9.9819842004681121e+00 2 3 0
971 324 2 4.0999999999999998e-01 -8.3610054748303853e-01 -1.3331173391760153e+01 -1.3352466646303885e+01 1 -1 0
1919 640 2 4.0999999999999998e-01 -5.5491417848511535e+00 -1.2570068058974943e+01 -1.0866065133121612e+01 4 1 4
418 140 1 -8.1999999999999995e-01 -5.6991704856348040e+00 -5.5608606449434870e+00 -1.3293292469951560e+01 2 0 0
2016 672 2 4.0999999999999998e-01 -2.2343166516834643e+00 -9.1005787637200655e+00 -1.1100429288228465e+01 3 -2 -1
2365 789 1 -8.1999999999999995e-01 -6.3940816209859612e+00 -1.2547984110161572e+01 -1.4062622197775720e+01 2 0 -1
2205 735 2 4.0999999999999998e-01 -4.0843441261618718e+00 -1.0129314876435728e+01 -1.3566486101890606e+01 3 -4 -1
2537 846 2 4.0999999999999998e-01 -3.4780779325588611e+00 -1.3707190163551834e+01 -8.0719432591853533e+00 3 2 1
2204 735 2 4.0999999999999998e-01 -4.1980786924002498e+00 -1.1378543665857721e+01 -1.2520983323065604e+01 3 -4 -1
2538 846 2 4.0999999999999998e-01 -1.9314513736306260e+00 -1.3231440690416957e+01 -7.8524144054849137e+00 3 2 1
1870 624 1 -8.1999999999999995e-01 -4.4760687145527616e+00 -1.4534981231075871e+01 -1.2893817602304235e+01 -1 0 -1
1970 657 2 4.0999999999999998e-01 -3.3053719764309246e+00 -6.0069637723882678e+00 -1.0313463869552528e+01 2 0 -2
1971 657 2 4.0999999999999998e-01 -1.9916505409310457e+00 -5.7436273843103169e+00 -9.3799896517848147e+00 2 0 -2
1048 350 1 -8.1999999999999995e-01 -1.9669336659134853e+00 -7.3345320764504516e+00 -1.4350434216823725e+01 1 -1 4
2232 744 2 4.0999999999999998e-01 -3.9703580489311374e+00 -7.8261052033803145e+00 -1.2485134098226874e+01 2 -2 0
1622 541 2 4.0999999999999998e-01 -3.2778858184561344e+00 -9.1944386302073298e+00 -8.9459297628053172e+00 3 2 0
2230 744 1 -8.1999999999999995e-01 -3.9048624624532842e+00 -7.0587157715751996e+00 -1.1847319117276163e+01 2 -2 0
2366 789 2 4.0999999999999998e-01 -5.7717924922746171e+00 -1.2801381173298076e+01 -1.3321993881754221e+01 2 0 -1
726 242 2 4.0999999999999998e-01 -7.3504316967411238e+00 -5.1933804805370052e+00 -1.1517183253395856e+01 2 -1 -2
1969 657 1 -8.1999999999999995e-01 -2.9760722905004666e+00 -5.5903902082759132e+00 -9.4661077873313388e+00 2 0 -2
1918 640 1 -8.1999999999999995e-01 -4.7051960789714879e+00 -1.2061677372588539e+01 -1.1037175320378509e+01 4 1 4
1792 598 1 -8.1999999999999995e-01 -6.1026491021336664e+00 -9.0371535899442357e+00 -9.1047678740911255e+00 1 1 0
2240 747 2 4.0999999999999998e-01 -6.2947111439868362e+00 -1.0671516999369469e+01 -8.5654785100377175e+00 3 1 -1
1028 343 2 4.0999999999999998e-01 -3.6479021144779988e+00 -6.8554263308939820e+00 -8.2619528808434310e+00 0 -1 -1
852 284 2 4.0999999999999998e-01 -7.3825268099515711e+00 -8.6673126637782971e+00 -1.2377950928339159e+01 3 -1 3
1794 598 2 4.0999999999999998e-01 -6.3948564743145617e+00 -8.7774043660629104e+00 -1.0025164185550416e+01 1 1 0
1532 511 2 4.0999999999999998e-01 -4.4210272295405062e+00 -8.0201424586669567e+00 -1.4778588865415504e+01 3 1 -1
1793 598 2 4.0999999999999998e-01 -5.3797982130007949e+00 -8.4182565350895864e+00 -8.7974615464811095e+00 1 1 0
1533 511 2 4.0999999999999998e-01 -5.7726302510309822e+00 -8.8636899012585086e+00 -1.4420564875250900e+01 3 1 -1
1621 541 1 -8.1999999999999995e-01 -2.9359733736444866e+00 -9.9868511579636472e+00 -9.4510658185385772e+00 3 2 0
1586 529 2 4.0999999999999998e-01 -1.7099345044838703e+00 -1.4569636711396624e+01 -9.3341548564243411e+00 2 -4 -6
2043 681 2 4.0999999999999998e-01 -2.8259771464896843e-01 -9.4763908344669190e+00 -1.2546298977330022e+01 4 -2 1
1335 445 2 4.0999999999999998e-01 -8.8533230548691115e+00 -5.9580631047792778e+00 -5.0945893200206918e+00 4 1 -1
469 157 1 -8.1999999999999995e-01 -8.7164927499408194e+00 -1.4248386919517436e+01 -1.4559070096690174e+00 -1 -2 0
1333 445 1 -8.1999999999999995e-01 -8.6613052729800160e+00 -6.8466489497785208e+00 -4.6780217856765649e+00 4 1 -1
153 51 2 4.0999999999999998e-01 -1.4960551308550786e+01 -6.5246291308586155e+00 -3.0661038511259608e+00 3 -1 -1
2171 724 2 4.0999999999999998e-01 -1.0676612269033990e+01 -6.9998296195990797e+00 -2.4263599756549876e+00 3 -1 0
316 106 1 -8.1999999999999995e-01 -1.1051962242545718e+01 -1.1892438128875419e+01 -3.5340191114830954e+00 2 -1 -1
317 106 2 4.0999999999999998e-01 -1.1431432356082144e+01 -1.2774893728528225e+01 -3.2560646359171344e+00 2 -1 -1
318 106 2 4.0999999999999998e-01 -1.0167031208745346e+01 -1.2034920700239899e+01 -3.9773924623961783e+00 2 -1 -1
1517 506 2 4.0999999999999998e-01 -1.1725787573317653e+01 -8.9180020110400768e+00 -3.0543002156946688e+00 2 0 -1
1516 506 1 -8.1999999999999995e-01 -1.1810439409109017e+01 -7.9639847621910151e+00 -2.7667775226940545e+00 2 0 -1
957 319 2 4.0999999999999998e-01 -9.2211427645675847e+00 -1.2167906910510380e+01 -6.2769582072425987e+00 1 -1 -2
955 319 1 -8.1999999999999995e-01 -8.9037055236288598e+00 -1.1937929426804994e+01 -5.3569972904537000e+00 1 -1 -2
956 319 2 4.0999999999999998e-01 -7.9126910545922939e+00 -1.1804859021166884e+01 -5.3699110443056242e+00 1 -1 -2
261 87 2 4.0999999999999998e-01 -1.1797897790796066e+01 -1.0582593941780642e+01 -4.3307215340692764e+00 1 1 1
1518 506 2 4.0999999999999998e-01 -1.2650728910490361e+01 -7.5752808999423404e+00 -3.1446756723398739e+00 2 0 -1
507 169 2 4.0999999999999998e-01 -1.0402662034299750e+01 -8.5846994893954545e+00 -6.7768043610354205e+00 2 0 -2
259 87 1 -8.1999999999999995e-01 -1.2475011125316533e+01 -9.9522543515972828e+00 -4.7104236133239024e+00 1 1 1
2185 729 1 -8.1999999999999995e-01 -1.3947535228906153e+01 -1.1067177964016707e+01 -6.5925096902487557e+00 3 0 2
2080 694 1 -8.1999999999999995e-01 -1.2693470087088425e+01 -6.4374186895549208e+00 -7.3030382720155860e+00 5 -1 0
1334 445 2 4.0999999999999998e-01 -9.3156367874061417e+00 -7.5223260777631680e+00 -5.0175727447216953e+00 4 1 -1
505 169 1 -8.1999999999999995e-01 -1.0606142474879698e+01 -8.1381582068635723e+00 -5.9054945791640563e+00 2 0 -2
2172 724 2 4.0999999999999998e-01 -9.1760657092695972e+00 -6.3558346922485391e+00 -2.4117063387891946e+00 3 -1 0
2170 724 1 -8.1999999999999995e-01 -1.0054815359746588e+01 -6.3894741123306584e+00 -1.9356269650435749e+00 3 -1 0
470 157 2 4.0999999999999998e-01 -8.5221879963744946e+00 -1.3792799780367748e+01 -5.8718945863570227e-01 -1 -2 0
2187 729 2 4.0999999999999998e-01 -1.4050882293559237e+01 -1.0155257695906354e+01 -6.9896305194794586e+00 3 0 2
2081 694 2 4.0999999999999998e-01 -1.2005687324641304e+01 -6.4884959430127775e+00 -6.5789318416273037e+00 5 -1 0
2082 694 2 4.0999999999999998e-01 -1.2884562050711256e+01 -5.4788410537326744e+00 -7.5142181126436602e+00 5 -1 0
260 87 2 4.0999999999999998e-01 -1.3030638154778021e+01 -1.0430159976564131e+01 -5.3907683540691345e+00 1 1 1
1171 391 1 -8.1999999999999995e-01 -1.3770182284806138e+01 -1.0531168459139181e+01 -3.8358184997299283e-01 -2 2 -1
506 169 2 4.0999999999999998e-01 -1.1135009194488561e+01 -8.7599117713618107e+00 -5.3278210965297355e+00 2 0 -2
151 51 1 -8.1999999999999995e-01 -1.4177169150194972e+01 -6.7211502042225337e+00 -3.6557444497734632e+00 3 -1 -1
2017 673 1 -8.1999999999999995e-01 -1.3526207432866865e+01 -1.4518664873804184e+01 -3.6857522583732880e+00 1 1 2
2556 852 2 4.0999999999999998e-01 -1.2793906911633938e+01 -7.6489296551904786e+00 -1.0893608507255745e+00 0 1 -1
1781 594 2 4.0999999999999998e-01 -1.3092997339248290e+01 -1.2259843364715953e+01 -7.1673219059554736e+00 -1 1 0
1984 662 1 -8.1999999999999995e-01 -1.1975277012264582e+01 -1.3661865512831596e+01 -1.3733720041748700e+00 1 0 -1
1986 662 2 4.0999999999999998e-01 -1.0987250919848560e+01 -1.3536059759844283e+01 -1.4625991755212144e+00 1 0 -1
1173 391 2 4.0999999999999998e-01 -1.4237420037746164e+01 -1.0497684465244209e+01 -1.2670703197789877e+00 -2 2 -1
525 175 2 4.0999999999999998e-01 -1.3118917084371228e+01 -1.4523050825801706e+01 -7.0304169172790232e+00 2 2 1
1172 391 2 4.0999999999999998e-01 -1.3402706194095982e+01 -9.6268610348615784e+00 -1.6638710887561459e-01 -2 2 -1
2018 673 2 4.0999999999999998e-01 -1.4435150697095446e+01 -1.4102531792025861e+01 -3.6604630772608413e+00 1 1 2
2013 671 2 4.0999999999999998e-01 -8.3400618145763517e+00 -1.4650231483705415e+01 -3.0614167046255094e+00 1 0 -2
2186 729 2 4.0999999999999998e-01 -1.4830634623909235e+01 -1.1536277495368616e+01 -6.6005870718035560e+00 3 0 2
2011 671 1 -8.1999999999999995e-01 -8.1241920956685583e+00 -1.4566009295551437e+01 -4.0341916181939919e+00 1 0 -2
2554 852 1 -8.1999999999999995e-01 -1.3180145969516740e+01 -7.6346137919588131e+00 -1.6708182873527377e-01 0 1 -1
152 51 2 4.0999999999999998e-01 -1.3994463297646215e+01 -5.9315044241788186e+00 -4.2414596398417981e+00 3 -1 -1
1985 662 2 4.0999999999999998e-01 -1.2315454261121982e+01 -1.3103173646590703e+01 -6.1698125245917979e-01 1 0 -1
2012 671 2 4.0999999999999998e-01 -8.3669668283748457e+00 -1.3649238610146547e+01 -4.3513289351735978e+00 1 0 -2
2484 828 2 4.0999999999999998e-01 -1.4481864824296242e+01 -9.3616427311485033e+00 -3.0489486458908370e+00 2 1 -2
2019 673 2 4.0999999999999998e-01 -1.3005987026681268e+01 -1.4232226795078752e+01 -2.8811976600411953e+00 1 1 2
1757 586 2 4.0999999999999998e-01 -9.7418728979641358e+00 -6.4723140264089629e+00 -3.4604052651326356e-01 1 -2 2
2277 759 2 4.0999999999999998e-01 -2.0548710038354656e-01 -8.3755836164093243e+00 -3.4816344194456796e+00 2 0 -3
360 120 2 4.0999999999999998e-01 -1.3899525063891538e-01 -7.1385427879992518e+00 -7.4413213361520016e+00 1 -2 2
1017 339 2 4.0999999999999998e-01 -5.8644806721360094e+00 -1.1653834803746628e+01 -7.4064601896115434e-01 0 0 0
1778 593 2 4.0999999999999998e-01 -5.5813532447417167e+00 -1.4454583605310104e+01 -7.3998335880634594e+00 1 0 0
1286 429 2 4.0999999999999998e-01 -1.0838729399200275e-01 -1.2558777339872734e+01 -6.8697277543317181e+00 -2 -2 -1
9 3 2 4.0999999999999998e-01 -4.0968671976124718e+00 -5.6915133975278263e+00 -4.2092821211314302e-02 0 -3 -1
1695 565 2 4.0999999999999998e-01 -6.0550779974268192e+00 -5.3942637499485304e+00 -1.5268531282849800e+00 3 1 3
203 68 2 4.0999999999999998e-01 -1.8152202756893541e+00 -1.2260556629921565e+01 -1.4597064127432411e+00 0 1 0
88 30 1 -8.1999999999999995e-01 -6.1283559831204961e+00 -1.4927108587043827e+01 -5.7981161021206127e+00 4 0 0
1817 606 2 4.0999999999999998e-01 -7.0628079741290044e+00 -6.9235787671804161e+00 -6.7188866339069815e+00 1 0 0
1104 368 2 4.0999999999999998e-01 -1.3324267413299946e+00 -9.4879163386555554e+00 -1.2876737992321665e+00 2 2 -4
1029 343 2 4.0999999999999998e-01 -4.1585299363999884e+00 -7.7868107856356268e+00 -7.0216438682201527e+00 0 -1 -1
240 80 2 4.0999999999999998e-01 -1.0528790730548447e+00 -1.4559836336996467e+01 -1.8913280995976809e+00 1 3 -3
90 30 2 4.0999999999999998e-01 -6.8456142384826286e+00 -1.4834841248620368e+01 -5.1074559204446821e+00 4 0 0
755 252 2 4.0999999999999998e-01 -4.8531751694281553e+00 -1.4772791247086477e+01 -1.3103195590190886e+00 0 -3 2
1015 339 1 -8.1999999999999995e-01 -5.7648902447741133e+00 -1.0968650631507629e+01 -1.9127804275990812e-02 0 0 0
2241 747 2 4.0999999999999998e-01 -6.0480257211105428e+00 -1.1473404466623949e+01 -7.1645120703823046e+00 3 1 -1
204 68 2 4.0999999999999998e-01 -2.3230516621526753e-01 -1.2647455006646091e+01 -1.3535292916415802e+00 0 1 0
836 279 2 4.0999999999999998e-01 -3.6437687025697478e+00 -6.6587632815336288e+00 -2.4782486133815063e+00 4 -1 3
1484 495 2 4.0999999999999998e-01 -1.6977912100371988e+00 -6.4368730222959609e+00 -4.1203072821312645e+00 1 0 1
754 252 1 -8.1999999999999995e-01 -5.5157506699807151e+00 -1.4388837919173499e+01 -6.6723505382068637e-01 0 -3 2
272 91 2 4.0999999999999998e-01 -7.4338223282245863e-01 -9.7264895815329275e+00 -4.8581479796689635e+00 0 -1 0
396 132 2 4.0999999999999998e-01 -3.6401943062906508e+00 -9.1712748811243490e+00 -4.8846658582884732e+00 1 1 -1
202 68 1 -8.1999999999999995e-01 -1.1654654183436968e+00 -1.3000108731168989e+01 -1.2840207698470714e+00 0 1 0
835 279 1 -8.1999999999999995e-01 -4.1724098022618819e+00 -6.8753170675459465e+00 -1.6575006702723076e+00 4 -1 3
1077 359 2 4.0999999999999998e-01 -7.4720640319399632e+00 -7.8861520433725101e+00 -4.4435033447904733e+00 4 -2 -3
1092 364 2 4.0999999999999998e-01 -4.2009638037369097e+00 -1.3304486593649621e+01 -3.4282850697922136e+00 4 0 1
2514 838 2 4.0999999999999998e-01 -2.4335678379768453e+00 -9.9745255370552535e+00 -3.2269302134342013e+00 0 1 1
1103 368 2 4.0999999999999998e-01 -2.8270771804534718e+00 -8.8451022709617320e+00 -1.1484101167736522e+00 2 2 -4
890 297 2 4.0999999999999998e-01 -5.9509435545282052e+00 -9.5456474744175619e+00 -1.2919047033444464e+00 1 0 0
1102 368 1 -8.1999999999999995e-01 -2.2786514593162082e+00 -9.5449127022883822e+00 -1.6060985950982065e+00 2 2 -4
2513 838 2 4.0999999999999998e-01 -2.8995245915570358e+00 -1.1136444340257952e+01 -4.2754592933595994e+00 0 1 1
891 297 2 4.0999999999999998e-01 -6.6417205426497663e+00 -8.0661460158865950e+00 -1.2698416619140502e+00 1 0 0
1972 658 1 -8.1999999999999995e-01 -6.3391612619688473e+00 -1.1143072212374713e+01 -5.4245810789766331e+00 2 -1 1
1974 658 2 4.0999999999999998e-01 -6.3633666835125311e+00 -1.0285388629962362e+01 -4.9109887241660370e+00 2 -1 1
837 279 2 4.0999999999999998e-01 -4.8852102609131993e+00 -7.5385750227864960e+00 -1.8855106016475318e+00 4 -1 3
2512 838 1 -8.1999999999999995e-01 -2.5737138571142744e+00 -1.0194685140217858e+01 -4.1922659162011584e+00 0 1 1
1076 359 2 4.0999999999999998e-01 -6.4029278837534847e+00 -8.6581967446389001e+00 -3.4804462050694145e+00 4 -2 -3
258 86 2 4.0999999999999998e-01 -1.7746258403229831e-01 -1.4461629584174473e+01 -5.2091328321242187e+00 1 3 1
394 132 1 -8.1999999999999995e-01 -4.1716158530785190e+00 -8.4730390695964317e+00 -5.3642928431834900e+00 1 1 -1
1483 495 1 -8.1999999999999995e-01 -2.2769728977157300e+00 -6.0146764948218490e+00 -4.8176470883350362e+00 1 0 1
889 297 1 -8.1999999999999995e-01 -6.1738441815500700e+00 -8.7403505219074553e+00 -1.8412645835340484e+00 1 0 0
1075 359 1 -8.1999999999999995e-01 -6.6423487364775209e+00 -8.4440938340798333e+00 -4.4274529266706573e+00 4 -2 -3
395 132 2 4.0999999999999998e-01 -5.1221155476639275e+00 -8.5069505865219170e+00 -5.0554490461962658e+00 1 1 -1
1485 495 2 4.0999999999999998e-01 -2.8605558193615899e+00 -6.7122898667567110e+00 -5.2332799767508984e+00 1 0 1
1973 658 2 4.0999999999999998e-01 -5.6237433339097986e+00 -1.1734370276555493e+01 -5.0523876906796694e+00 2 -1 1
1091 364 2 4.0999999999999998e-01 -2.6004679093743643e+00 -1.3354305881774241e+01 -3.7484648693329774e+00 4 0 1
1090 364 1 -8.1999999999999995e-01 -3.4386480041194982e+00 -1.2819889786685106e+01 -3.8572660606868503e+00 4 0 1
2275 759 1 -8.1999999999999995e-01 -3.8277734222624460e-01 -7.5641962919261125e+00 -2.9246757643406323e+00 2 0 -3
1816 606 1 -8.1999999999999995e-01 -7.0425424975694177e+00 -6.2967485996634167e+00 -7.4977687739266363e+00 1 0 0
299 100 2 4.0999999999999998e-01 -1.0088173280606931e+01 -1.4925964727567704e+01 7.1350788553585236e+00 3 0 -3
1013 338 2 4.0999999999999998e-01 -1.1903703123892139e+01 -1.0946557334339598e+01 4.6893266832227809e-01 2 0 -3
2023 675 1 -8.1999999999999995e-01 -1.2001677475236624e+01 -1.4484621362516592e+01 5.2230836334373745e+00 2 1 -1
147 49 2 4.0999999999999998e-01 -8.1867370279340879e+00 -1.0288886749231803e+01 2.4996014143042853e+00 2 1 -1
1904 635 2 4.0999999999999998e-01 -1.1481324688982401e+01 -1.3568660138433687e+01 3.3163952557433962e+00 0 1 1
232 78 1 -8.1999999999999995e-01 -1.2155464316188722e+01 -5.0881597230234537e+00 7.0161982957775315e-01 3 0 0
2024 675 2 4.0999999999999998e-01 -1.2100787619568763e+01 -1.3603885073197372e+01 5.6861872002450422e+00 2 1 -1
1946 649 2 4.0999999999999998e-01 -8.5546490521407197e+00 -1.4885535643769860e+01 2.2066832973401009e+00 3 2 0
760 254 1 -8.1999999999999995e-01 -1.1941044538365468e+01 -1.0199819385745858e+01 4.2626295182853777e+00 0 -1 1
761 254 2 4.0999999999999998e-01 -1.2097239536488246e+01 -1.0129968012117487e+01 3.2773843496839472e+00 0 -1 1
762 254 2 4.0999999999999998e-01 -1.1292188966645613e+01 -9.4944864433026659e+00 4.5480695724996831e+00 0 -1 1
1903 635 1 -8.1999999999999995e-01 -1.1238567427693244e+01 -1.3595100784523634e+01 2.3466767493036382e+00 0 1 1
966 322 2 4.0999999999999998e-01 -9.3823364287076654e+00 -8.1940776475071679e+00 3.0618365140133950e+00 3 0 2
1060 354 1 -8.1999999999999995e-01 -1.2604336759156920e+01 -7.2258903855647008e+00 7.0519977596467722e+00 1 1 -1
1061 354 2 4.0999999999999998e-01 -1.3374787952256147e+01 -7.8285450283736351e+00 6.8441601258405864e+00 1 1 -1
965 322 2 4.0999999999999998e-01 -1.0669752043467916e+01 -7.2379529014937436e+00 3.3700096722515820e+00 3 0 2
964 322 1 -8.1999999999999995e-01 -1.0023688274653438e+01 -7.8902547175489932e+00 3.7663530711180240e+00 3 0 2
1062 354 2 4.0999999999999998e-01 -1.2588927366968738e+01 -6.4677171990379829e+00 6.4001387890761041e+00 1 1 -1
577 193 1 -8.1999999999999995e-01 -1.2307057954061229e+01 -1.2036306499861617e+01 6.7225307130544270e+00 3 -2 -1
1203 401 2 4.0999999999999998e-01 -1.4940208943403315e+01 -8.4462229129147701e+00 4.6473992589328379e+00 1 3 -1
1876 626 1 -8.1999999999999995e-01 -1.4886475845168553e+01 -1.1839736860374925e+01 5.3427585602975771e+00 2 0 0
1758 586 2 4.0999999999999998e-01 -1.0263290548319642e+01 -6.0171700441064893e+00 1.1329969244112075e+00 1 -2 2
1905 635 2 4.0999999999999998e-01 -1.1037109517624067e+01 -1.4537328502029331e+01 2.0790841905873574e+00 0 1 1
36 12 2 4.0999999999999998e-01 -8.0831256028072467e+00 -8.5962733518236512e+00 6.7984354042421398e+00 0 -2 -1
578 193 2 4.0999999999999998e-01 -1.1955189012630425e+01 -1.1199649473786742e+01 6.3027957646475468e+00 3 -2 -1
1814 605 2 4.0999999999999998e-01 -1.4389234611172636e+01 -8.0911330569241287e+00 1.2598822785207826e+00 0 -1 -1
1756 586 1 -8.1999999999999995e-01 -9.5087435993576257e+00 -6.4333525954391284e+00 6.2561626078518451e-01 1 -2 2
2086 696 1 -8.1999999999999995e-01 -9.6632263595444456e+00 -8.3230766966468828e+00 6.4568517238746193e+00 1 0 0
15 5 2 4.0999999999999998e-01 -8.9649252145965388e+00 -5.4972664989302782e+00 6.9723939489745295e+00 2 -2 2
146 49 2 4.0999999999999998e-01 -9.2806670881559619e+00 -1.0516608461384113e+01 1.3087848708827590e+00 2 1 -1
1307 436 2 4.0999999999999998e-01 -1.4504257714593349e+01 -1.4724657162879627e+01 2.4759220537435507e+00 1 -3 0
1012 338 1 -8.1999999999999995e-01 -1.0988079052772729e+01 -1.1046326752841100e+01 8.5837170618753689e-01 2 0 -3
145 49 1 -8.1999999999999995e-01 -8.3211922405294505e+00 -1.0626831344050885e+01 1.5680975880056192e+00 2 1 -1
1306 436 1 -8.1999999999999995e-01 -1.4880329551955409e+01 -1.3852433655770025e+01 2.7886204537432544e+00 1 -3 0
2087 696 2 4.0999999999999998e-01 -9.9380546257157327e+00 -8.0067234678787784e+00 5.5489011704115097e+00 1 0 0
1202 401 2 4.0999999999999998e-01 -1.5001663922597125e+01 -9.8494978377645097e+00 5.4802419487881284e+00 1 3 -1