LAMMPS (15 May 2015)
Reading data file ...
  triclinic box = (-0.107635 -0.0404339 -0.357111) to (41.3876 35.9384 29.5551) with tilt (-0.0672341 -17.0362 -0.0417078)
  5 by 4 by 3 MPI processor grid
  reading atoms ...
  4560 atoms
  reading velocities ...
  4560 velocities
  scanning bonds ...
  3 = max bonds/atom
  scanning angles ...
  3 = max angles/atom
  scanning dihedrals ...
  8 = max dihedrals/atom
  scanning impropers ...
  1 = max impropers/atom
  reading bonds ...
  5040 bonds
  reading angles ...
  7200 angles
  reading dihedrals ...
  10560 dihedrals
  reading impropers ...
  2400 impropers
Finding 1-2 1-3 1-4 neighbors ...
 Special bond factors lj:   0          0          0         
 Special bond factors coul: 0          0          0         
  4 = max # of 1-2 neighbors
  8 = max # of 1-3 neighbors
  20 = max # of 1-4 neighbors
  16 = max # of special neighbors
4560 atoms in group all
720 atoms in group C
480 atoms in group S
1920 atoms in group H
720 atoms in group Si
240 atoms in group Na
240 atoms in group Ba
240 atoms in group O
4560 atoms in group naphthalene
1200 atoms in group fixed
960 atoms in group CO
Setting atom values ...
  720 settings made for charge
Setting atom values ...
  720 settings made for charge
Setting atom values ...
  1920 settings made for charge
Setting atom values ...
  480 settings made for charge
Setting atom values ...
  240 settings made for charge
Setting atom values ...
  240 settings made for charge
Setting atom values ...
  240 settings made for charge
Finding 1-2 1-3 1-4 neighbors ...
 Special bond factors lj:   0          0          0.5       
 Special bond factors coul: 0          0          0.5       
  4 = max # of 1-2 neighbors
  8 = max # of 1-3 neighbors
  20 = max # of 1-4 neighbors
  16 = max # of special neighbors
PPPM initialization ...
  G vector (1/distance) = 0.246499
  grid = 16 16 20
  stencil order = 5
  estimated absolute RMS force accuracy = 0.00242397
  estimated relative force accuracy = 7.2997e-06
  using double precision FFTs
  3d grid and FFT values/proc = 1053 112
Neighbor list info ...
  4 neighbor list requests
  update every 1 steps, delay 0 steps, check yes
  master list distance cutoff = 12
Setting up run ...
Memory usage per processor = 13.288 Mbytes
Step Temp Density PotEng E_vdwl E_tail E_coul E_long Press Volume Xy Xz Yz E_mol E_bond E_angle E_dihed 14[1] 14[2] 14[3] msd[4] msd2[4] msd3[4] msd4[4] naphthal Cella Cellb Cellc CellAlpha CellBeta CellGamma 27[2] 27[3] 28[1] 28[2] 28[3] 
       0          298    1.2509986    2087.5869   -1173.1339   -211.49952    2070.8667    -2308.979    790.88859    44657.537 -0.067234084   -17.036218 -0.041707817     3498.833    1521.0094     935.4334    889.67826    28.379601    18.846571    14.337846 2.3535127e-29 2.3910021e-29 2.7538641e-29 3.294809e-29          298     41.49527    35.978931    34.423473    90.016431    119.66323    90.107069    18.846182    14.337739    28.379557    18.849013    14.339638 
    1000    294.72146    1.2509986      1971.82   -1195.6891   -211.49952    2072.0211    -2309.141    618.78551    44657.537 -0.067234084   -17.036218 -0.041707817     3404.629    1508.1579    915.88054    830.84114    28.382942    18.845998    14.337896 0.00063298273 0.00063174558 0.00059078723 0.00058568685    294.72146     41.49527    35.978931    34.423473    90.016431    119.66323    90.107069    18.846058    14.337561    28.381705    18.848405    14.339977 
    2000    300.56723    1.2509986    2011.6794   -1196.3731   -211.49952    2067.9094   -2309.6498   -1140.2242    44657.537 -0.067234084   -17.036218 -0.041707817    3449.7929    1541.6792    925.81782    836.56802    28.380069    18.844447    14.337435 0.00060973985 0.00060933182 0.00059589126 0.00059420105    300.56723     41.49527    35.978931    34.423473    90.016431    119.66323    90.107069     18.84581    14.337866    28.378708    18.848117    14.339228 
    3000    299.79517    1.2509986    2039.7449   -1194.4738   -211.49952    2071.8547   -2309.3602    383.11156    44657.537 -0.067234084   -17.036218 -0.041707817    3471.7241    1527.2721    920.86658    873.01073    28.381169    18.845191    14.337944 0.00062785162 0.00062739381 0.00061579278 0.00061534096    299.79517     41.49527    35.978931    34.423473    90.016431    119.66323    90.107069    18.846351    14.338391    28.380087    18.848694    14.339376 
    4000    296.15611    1.2509986    2094.4801   -1184.1786   -211.49952    2069.5206   -2309.5972    42.653319    44657.537 -0.067234084   -17.036218 -0.041707817    3518.7353    1558.0776     901.8812    897.80944    28.380729    18.845764    14.337549 0.00061547605 0.00061502246 0.00062186615 0.00062112922    296.15611     41.49527    35.978931    34.423473    90.016431    119.66323    90.107069     18.84609    14.337476     28.38014    18.848648    14.339125 
    5000    298.42241    1.2509986    1991.0654   -1198.1909   -211.49952    2072.5052    -2309.241    52.272808    44657.537 -0.067234084   -17.036218 -0.041707817     3425.992    1501.8285    889.81804    880.49711     28.37893    18.845445    14.337307  0.000605327 0.00060488639 0.0005897009 0.00058793166    298.42241     41.49527    35.978931    34.423473    90.016431    119.66323    90.107069    18.845923    14.337218    28.379432    18.849221     14.33833 
    6000    295.01232    1.2509986    1984.0661   -1189.5776   -211.49952    2072.2624   -2308.9915   -17.913031    44657.537 -0.067234084   -17.036218 -0.041707817    3410.3728     1485.073    925.42255    852.76001    28.379721    18.846042    14.338295 0.00062196142 0.0006215793 0.0006039159 0.00060341878    295.01232     41.49527    35.978931    34.423473    90.016431    119.66323    90.107069    18.845762    14.338126    28.379464    18.848367    14.339371 
    7000    296.60106    1.2509986    1993.0948   -1197.0869   -211.49952    2075.0591    -2309.245   -628.74607    44657.537 -0.067234084   -17.036218 -0.041707817    3424.3676    1522.4818    908.57118    847.02462    28.378728    18.845906    14.336622 0.00064051203 0.00064040192 0.00059052072 0.00058998326    296.60106     41.49527    35.978931    34.423473    90.016431    119.66323    90.107069    18.846015    14.337458    28.380088    18.848508    14.339664 
    8000    300.57231    1.2509986    2045.4182    -1192.668   -211.49952    2070.6091   -2309.1168   -1073.9014    44657.537 -0.067234084   -17.036218 -0.041707817     3476.594    1560.8243    931.86945     841.1885    28.380536    18.846675    14.338088 0.00061944675 0.0006194211 0.00055878835 0.00055825001    300.57231     41.49527    35.978931    34.423473    90.016431    119.66323    90.107069     18.84627    14.337837    28.379114    18.848551    14.339997 
    9000    300.30633    1.2509986    2022.4258   -1200.9923   -211.49952    2072.7267   -2309.4197    1276.5252    44657.537 -0.067234084   -17.036218 -0.041707817    3460.1111    1559.7198    883.40112    862.57086    28.378357    18.846071    14.337302 0.00061767643 0.00061756456 0.00061835286 0.00061564077    300.30633     41.49527    35.978931    34.423473    90.016431    119.66323    90.107069    18.845849    14.337765     28.38035    18.847632    14.340057 
   10000    297.03563    1.2509986    2012.0262   -1202.8392   -211.49952     2070.531   -2309.5537    535.17109    44657.537 -0.067234084   -17.036218 -0.041707817    3453.8881    1481.5743    943.77964    876.26674     28.38175    18.846659    14.338871 0.00065511089 0.00065423641 0.00064120846 0.00063933042    297.03563     41.49527    35.978931    34.423473    90.016431    119.66323    90.107069    18.846617    14.338541     28.37956    18.847888    14.340421 
   11000    291.02622    1.2509986    2102.5632   -1193.8678   -211.49952    2073.8525   -2309.3281    653.02105    44657.537 -0.067234084   -17.036218 -0.041707817    3531.9064    1579.7933    895.82831    903.10747    28.378701    18.845625    14.337057 0.00062736774 0.00062728267 0.00065000579 0.00064800097    291.02622     41.49527    35.978931    34.423473    90.016431    119.66323    90.107069    18.846185    14.337793    28.380898    18.848737    14.339277 
   12000    296.30986    1.2509986    2009.4434   -1201.1171   -211.49952    2070.5632   -2309.2004   -169.84311    44657.537 -0.067234084   -17.036218 -0.041707817    3449.1976    1491.2517    915.72564    887.76473    28.379109    18.845919    14.337642 0.00063615069 0.00063589511 0.00060569254 0.00059894072    296.30986     41.49527    35.978931    34.423473    90.016431    119.66323    90.107069    18.845716    14.337931     28.38051    18.846597     14.33955 
   13000    300.64739    1.2509986    2039.5962   -1196.7172   -211.49952    2069.2867   -2309.7739   -220.02943    44657.537 -0.067234084   -17.036218 -0.041707817    3476.8006    1567.9673    887.36436    869.46075    28.379709    18.845735    14.337918 0.00061515845 0.00061489441 0.00062238144 0.00062119761    300.64739     41.49527    35.978931    34.423473    90.016431    119.66323    90.107069    18.846085    14.338218     28.37901    18.848479    14.340413 
   14000    296.30965    1.2509986    2090.6171   -1195.7638   -211.49952    2071.6377   -2309.1931   -1079.4332    44657.537 -0.067234084   -17.036218 -0.041707817    3523.9362    1547.4138    915.09417    905.69182    28.381189    18.845697    14.337756 0.00061278465 0.00061262619 0.00057772538 0.00057629608    296.30965     41.49527    35.978931    34.423473    90.016431    119.66323    90.107069    18.846445     14.33747    28.380563    18.848896    14.339003 
   15000    305.49972    1.2509986    2119.9572   -1184.7247   -211.49952    2075.7734   -2309.2269    1025.5635    44657.537 -0.067234084   -17.036218 -0.041707817    3538.1354    1569.0224    920.78152    895.52849    28.379622    18.846325    14.337836 0.00061360851 0.00061306051 0.00063062558 0.00062881794    305.49972     41.49527    35.978931    34.423473    90.016431    119.66323    90.107069    18.846113    14.337747    28.378378     18.84864    14.339109 
   16000    294.76122    1.2509986    2043.9298   -1201.1769   -211.49952    2074.0493   -2309.5616   -776.36727    44657.537 -0.067234084   -17.036218 -0.041707817     3480.619    1534.9399    924.46759    871.68052    28.378689     18.84494    14.338094 0.00060617472 0.00060598892 0.00059146297 0.00059002181    294.76122     41.49527    35.978931    34.423473    90.016431    119.66323    90.107069    18.845994    14.337991    28.378604    18.848809     14.34034 
   17000    294.80735    1.2509986    2023.7308   -1184.1568   -211.49952    2072.6044   -2309.4084      1410.78    44657.537 -0.067234084   -17.036218 -0.041707817    3444.6916    1528.2015    916.45701    852.65336    28.379667    18.846827    14.337471 0.00061784177 0.00061740189 0.00063962671 0.00063430625    294.80735     41.49527    35.978931    34.423473    90.016431    119.66323    90.107069    18.845734    14.337481    28.379748    18.847561    14.337856 
   18000    296.73291    1.2509986    2002.1375   -1184.1393   -211.49952    2074.4653   -2309.4322    1412.1355    44657.537 -0.067234084   -17.036218 -0.041707817    3421.2436    1542.1206    886.54893    843.27457    28.379155    18.846046       14.337 0.00061703481 0.00061698975 0.00064719294 0.00064674158    296.73291     41.49527    35.978931    34.423473    90.016431    119.66323    90.107069    18.846259    14.337714    28.378968    18.848699    14.339557 
   19000    300.30903    1.2509986    2026.4271   -1198.6281   -211.49952    2070.2016   -2309.4334   -510.16988    44657.537 -0.067234084   -17.036218 -0.041707817     3464.287    1533.5523    925.30215    860.32342    28.381062    18.845959    14.337481 0.00063066376 0.00062994376 0.00059699453 0.0005952936    300.30903     41.49527    35.978931    34.423473    90.016431    119.66323    90.107069    18.846087     14.33721    28.379708    18.847799    14.339186 
   20000    298.12947    1.2509986    2006.8471   -1171.6953   -211.49952    2067.4711   -2309.6937    1301.5007    44657.537 -0.067234084   -17.036218 -0.041707817     3420.765    1511.2345    905.93148    853.74666    28.379408    18.846535    14.337448 0.00065375109 0.00065333655 0.00066994897 0.00066813362    298.12947     41.49527    35.978931    34.423473    90.016431    119.66323    90.107069    18.846075    14.337336    28.380737    18.849105    14.338994 
   21000    297.39939    1.2509986    2046.5034   -1189.8365   -211.49952    2068.7303    -2309.536    -53.31896    44657.537 -0.067234084   -17.036218 -0.041707817    3477.1455    1537.7753    937.89991    856.30288    28.378375    18.844798    14.337387 0.00062415313 0.00062405908 0.00060751513 0.00060472338    297.39939     41.49527    35.978931    34.423473    90.016431    119.66323    90.107069    18.846382    14.337824    28.378539     18.84878    14.338334 
   22000    299.95829    1.2509986    2018.8313   -1210.5475   -211.49952    2071.8622   -2309.2395   -699.73662    44657.537 -0.067234084   -17.036218 -0.041707817    3466.7561    1553.0604     889.3572    875.68021    28.379145    18.844491    14.336894 0.00062069686 0.00062060903 0.00066490141 0.00066212051    299.95829     41.49527    35.978931    34.423473    90.016431    119.66323    90.107069    18.845981    14.337703    28.378067    18.849049    14.340387 
   23000    301.27269    1.2509986    1941.5856   -1194.1632   -211.49952    2069.9864   -2309.5223   -906.98832    44657.537 -0.067234084   -17.036218 -0.041707817    3375.2847    1542.7804    899.57374    790.84543    28.377729    18.845782    14.337485 0.00062205429 0.00062192936 0.00057865689 0.00057591818    301.27269     41.49527    35.978931    34.423473    90.016431    119.66323    90.107069    18.846141    14.338044    28.379682      18.8475    14.340297 
   24000    294.81494    1.2509986    2040.7663   -1208.5219   -211.49952    2071.2411   -2309.1949   -1270.1379    44657.537 -0.067234084   -17.036218 -0.041707817     3487.242    1558.2529    913.05071    864.17588    28.378394    18.846392    14.337223 0.00065429649 0.0006535507 0.00061477183 0.00060870561    294.81494     41.49527    35.978931    34.423473    90.016431    119.66323    90.107069    18.846083    14.338034     28.37927    18.848353    14.341994 
   25000    300.07383    1.2509986    2018.7297     -1179.89   -211.49952    2070.9987    -2309.546    975.10325    44657.537 -0.067234084   -17.036218 -0.041707817    3437.1669    1495.3865    920.06147    867.62999    28.380141    18.846057    14.337865 0.00062785162 0.00062758553 0.00065214336 0.00065198389    300.07383     41.49527    35.978931    34.423473    90.016431    119.66323    90.107069    18.846238    14.337593    28.379909     18.84904    14.339823 
   26000    294.30158    1.2509986    2038.6877   -1193.9416   -211.49952      2068.71   -2309.5028   -30.291005    44657.537 -0.067234084   -17.036218 -0.041707817     3473.422     1542.544    930.90985    853.22474    28.379915    18.845308    14.337995 0.00061946173 0.0006190245 0.00065644106 0.00065446657    294.30158     41.49527    35.978931    34.423473    90.016431    119.66323    90.107069    18.845845    14.338285      28.3803    18.849176    14.340819 
   27000    293.88927    1.2509986    2043.9837   -1188.8261   -211.49952    2072.6076   -2309.5907     425.4233    44657.537 -0.067234084   -17.036218 -0.041707817     3469.793    1552.6837    897.15939    862.54114    28.378279    18.846268    14.336907 0.00064433188 0.00064420286 0.00060698304 0.00060408668    293.88927     41.49527    35.978931    34.423473    90.016431    119.66323    90.107069    18.845953    14.337465    28.379535    18.847402    14.340186 
   28000     295.5361    1.2509986    2091.2922   -1189.4044   -211.49952    2074.2413   -2309.1321     426.0589    44657.537 -0.067234084   -17.036218 -0.041707817    3515.5872     1531.771     959.6104    871.82924    28.380643    18.845691    14.338013 0.00060883639 0.00060792029 0.00062251021 0.00061378814     295.5361     41.49527    35.978931    34.423473    90.016431    119.66323    90.107069    18.845793    14.338364    28.381506    18.847475    14.341237 
   29000    291.63439    1.2509986    2009.4779   -1189.8245   -211.49952     2073.638   -2309.2406    1253.8604    44657.537 -0.067234084   -17.036218 -0.041707817     3434.905    1531.7344    853.41805     897.7499    28.381835    18.844247      14.3387 0.0006307054 0.00062995497 0.00063669526 0.00063228037    291.63439     41.49527    35.978931    34.423473    90.016431    119.66323    90.107069     18.84547    14.338148    28.380409    18.847105    14.339414 
   30000    295.40671    1.2509986    2027.6207   -1201.7363   -211.49952       2067.8   -2309.2022    -874.6109    44657.537 -0.067234084   -17.036218 -0.041707817    3470.7592    1540.3228     901.6261    877.09726     28.38132    18.845609    14.337672 0.00059614978 0.00059612854 0.00062624578 0.00062532295    295.40671     41.49527    35.978931    34.423473    90.016431    119.66323    90.107069    18.846087    14.337829     28.38021    18.849417    14.339062 
   31000    299.29111    1.2509986    2052.2096   -1195.1085   -211.49952    2069.7407   -2309.7239    350.84392    44657.537 -0.067234084   -17.036218 -0.041707817    3487.3013    1537.7366    935.17949      864.499    28.378062    18.843968    14.337305 0.00061971632 0.00061954348 0.00061959227 0.00061890746    299.29111     41.49527    35.978931    34.423473    90.016431    119.66323    90.107069    18.845898    14.337724    28.379908    18.849006    14.338889 
   32000    300.60233    1.2509986    2060.9537   -1203.9298   -211.49952    2075.2611   -2309.0904   -561.27521    44657.537 -0.067234084   -17.036218 -0.041707817    3498.7128    1533.4229    945.94955    867.49493    28.376357    18.846233     14.33677 0.00062510111 0.00062427893 0.00062922442 0.00062664454    300.60233     41.49527    35.978931    34.423473    90.016431    119.66323    90.107069    18.846032    14.338138    28.378893    18.848722    14.341072 
   33000     299.1029    1.2509986     2028.222   -1191.8245   -211.49952    2070.5795    -2309.529    99.633415    44657.537 -0.067234084   -17.036218 -0.041707817     3458.996    1519.1637     915.3267    873.86529     28.38013     18.84541    14.337406 0.00062738593 0.00062705177 0.0006108957 0.00060860293     299.1029     41.49527    35.978931    34.423473    90.016431    119.66323    90.107069    18.846132     14.33831    28.380265    18.848508    14.340877 
   34000    298.10483    1.2509986    2005.6985   -1194.4487   -211.49952    2074.8446   -2309.2183    34.042935    44657.537 -0.067234084   -17.036218 -0.041707817     3434.521     1528.642    899.52401    858.50162    28.378569    18.845285    14.337061 0.00061396268 0.00061353296 0.00064687913 0.00064587485    298.10483     41.49527    35.978931    34.423473    90.016431    119.66323    90.107069    18.845635     14.33757    28.380086    18.848344    14.340164 
   35000    294.37795    1.2509986    1963.9997   -1208.8692   -211.49952    2070.3179   -2309.6872    611.01296    44657.537 -0.067234084   -17.036218 -0.041707817    3412.2383    1505.6455    899.23637    858.93447    28.380392     18.84522    14.337231 0.00062258456 0.00062237194 0.00064803546 0.00064657752    294.37795     41.49527    35.978931    34.423473    90.016431    119.66323    90.107069    18.845915    14.337363    28.380532    18.848532    14.340162 
   36000    295.24652    1.2509986    2017.2034   -1167.7519   -211.49952    2070.3658    -2309.464    1139.8985    44657.537 -0.067234084   -17.036218 -0.041707817    3424.0535    1472.3666    914.71481    879.01577    28.380159    18.845827    14.337767 0.00063006749 0.00063002468 0.00055438007 0.00055282772    295.24652     41.49527    35.978931    34.423473    90.016431    119.66323    90.107069    18.845986    14.337802    28.379789    18.849983    14.340385 
   37000    298.15645    1.2509986    1997.9135   -1185.4729   -211.49952    2067.8166   -2309.4315   -70.057467    44657.537 -0.067234084   -17.036218 -0.041707817    3425.0013    1520.7024    889.56414    864.45032    28.380735      18.8451    14.338374 0.00064070396 0.00064022778 0.00060497823 0.00060285925    298.15645     41.49527    35.978931    34.423473    90.016431    119.66323    90.107069    18.845754    14.338276    28.380058    18.848563    14.340929 
   38000    298.57272    1.2509986    2142.7967   -1193.9038   -211.49952    2072.1602   -2309.4073   -1188.5261    44657.537 -0.067234084   -17.036218 -0.041707817    3573.9476    1588.1015    919.56389    903.08958    28.379989    18.846369    14.337281 0.0006319995 0.00063181182 0.00062608713 0.0006242671    298.57272     41.49527    35.978931    34.423473    90.016431    119.66323    90.107069    18.845942    14.337666    28.379849    18.847814    14.339093 
   39000     303.4528    1.2509986    1997.7904   -1190.1355   -211.49952    2070.9403   -2309.7691    1032.9487    44657.537 -0.067234084   -17.036218 -0.041707817    3426.7547    1538.7303    891.95385    851.37129    28.379877    18.846516    14.337638 0.0006192681 0.00061881489 0.00058556731 0.0005839176     303.4528     41.49527    35.978931    34.423473    90.016431    119.66323    90.107069    18.846682    14.338188    28.378449    18.848545     14.34009 
   40000    294.31993    1.2509986    2036.7615   -1195.1451   -211.49952    2077.0203   -2309.0676    1483.8293    44657.537 -0.067234084   -17.036218 -0.041707817    3463.9538    1524.4712    900.93279    891.44804    28.377724    18.845172    14.336187 0.00061119281 0.00061086071 0.00060997859 0.00060916892    294.31993     41.49527    35.978931    34.423473    90.016431    119.66323    90.107069    18.846133    14.337181    28.379945    18.848307     14.34004 
   41000    301.53179    1.2509986     2000.425   -1194.4377   -211.49952    2075.4701    -2309.102    1114.7558    44657.537 -0.067234084   -17.036218 -0.041707817    3428.4947    1504.5124    896.06668    878.60495    28.378678    18.846071    14.337546 0.00063217405 0.00063194914 0.0006327446 0.00062867731    301.53179     41.49527    35.978931    34.423473    90.016431    119.66323    90.107069    18.846264    14.337612    28.379459    18.847536    14.341008 
   42000    296.60647    1.2509986    2077.3737   -1172.1546   -211.49952    2070.4771   -2309.0298   -275.56604    44657.537 -0.067234084   -17.036218 -0.041707817    3488.0811    1536.6325    881.02427    909.45397    28.378231    18.846694    14.336614 0.00061454954 0.00061352673 0.00062471242 0.00062271376    296.60647     41.49527    35.978931    34.423473    90.016431    119.66323    90.107069    18.845929    14.337036    28.379526    18.848051    14.338603 
   43000    297.50936    1.2509986    2069.0612   -1186.7186   -211.49952    2069.4015    -2309.425   -530.68503    44657.537 -0.067234084   -17.036218 -0.041707817    3495.8033    1543.1617    898.20639    894.34705    28.377267    18.844496    14.337167 0.00061222745 0.00061208233 0.0005905124 0.00058853063    297.50936     41.49527    35.978931    34.423473    90.016431    119.66323    90.107069    18.845979    14.337854    28.378785    18.850146    14.339318 
   44000    300.09878    1.2509986    2016.8883   -1174.1398   -211.49952    2074.9365   -2309.0827    1070.5709    44657.537 -0.067234084   -17.036218 -0.041707817    3425.1743    1509.2923     894.7838    868.66219    28.377512    18.845798     14.33643 0.00059342433 0.00059337322 0.00055744535 0.00055694586    300.09878     41.49527    35.978931    34.423473    90.016431    119.66323    90.107069    18.846256    14.337947    28.379062    18.848908    14.340132 
   45000    291.06898    1.2509986    2055.6163   -1179.8875   -211.49952    2070.7694   -2309.5642   -266.21563    44657.537 -0.067234084   -17.036218 -0.041707817    3474.2986    1562.0492    902.54962    858.89848    28.383331     18.84599    14.338549 0.00062612576 0.00062482603 0.00061606128 0.00061514807    291.06898     41.49527    35.978931    34.423473    90.016431    119.66323    90.107069    18.846837      14.3374    28.379951     18.84937    14.338845 
   46000    293.31686    1.2509986    2109.1175     -1195.39   -211.49952    2073.9462   -2309.0841    572.42069    44657.537 -0.067234084   -17.036218 -0.041707817    3539.6454    1558.8748    909.16754    914.01004    28.378762     18.84585    14.338163 0.00061085865 0.00061036651 0.00065340899 0.00065105665    293.31686     41.49527    35.978931    34.423473    90.016431    119.66323    90.107069    18.845998    14.338389    28.378301    18.848303    14.340161 
   47000    297.25692    1.2509986    2133.6557   -1198.5897   -211.49952    2072.9081   -2309.0869    250.04251    44657.537 -0.067234084   -17.036218 -0.041707817    3568.4241    1597.4739     969.1625    853.62362     28.38235    18.845077    14.338931 0.00059995759 0.0005991315 0.00059213534 0.00059085736    297.25692     41.49527    35.978931    34.423473    90.016431    119.66323    90.107069    18.845682    14.338464    28.379079    18.848085    14.340072 
   48000    298.58017    1.2509986    2014.0807   -1193.2915   -211.49952    2074.0208    -2309.097     160.7123    44657.537 -0.067234084   -17.036218 -0.041707817    3442.4484    1507.0839    891.35696    885.76045    28.379586    18.846548    14.338909 0.00062739246 0.00062694564 0.00060644525 0.00060393276    298.58017     41.49527    35.978931    34.423473    90.016431    119.66323    90.107069    18.845794    14.338282    28.380392    18.847807    14.340238 
   49000    304.47274    1.2509986    2029.3098   -1193.2251   -211.49952    2073.4206   -2309.3346    236.63972    44657.537 -0.067234084   -17.036218 -0.041707817    3458.4489    1530.8995    918.51626    853.13815    28.380269    18.846278    14.337774 0.00061332113 0.00061306093 0.00060151219 0.00060109333    304.47274     41.49527    35.978931    34.423473    90.016431    119.66323    90.107069    18.846463    14.337785    28.379848    18.849044    14.339061 
   50000    295.85451    1.2509986    2004.1246   -1187.4514   -211.49952    2069.8335   -2309.8023   -53.256239    44657.537 -0.067234084   -17.036218 -0.041707817    3431.5448    1522.1226    887.85971    867.64803    28.379678    18.845397    14.337299 0.00061715717 0.00061603601 0.0006427042 0.00063547992    295.85451     41.49527    35.978931    34.423473    90.016431    119.66323    90.107069    18.845224     14.33781    28.380443     18.84695    14.341116 
   51000     294.4613    1.2509986     1946.563   -1188.3018   -211.49952    2074.2976    -2309.317    917.97791    44657.537 -0.067234084   -17.036218 -0.041707817    3369.8842    1479.6347    878.16899    864.39252    28.382537    18.845636    14.338496  0.000649185 0.00064877757 0.00065686546 0.00065475132     294.4613     41.49527    35.978931    34.423473    90.016431    119.66323    90.107069    18.846225    14.338193    28.380286     18.84876     14.34087 
   52000    291.50925    1.2509986    2020.5175   -1185.9621   -211.49952     2080.653   -2309.1049    1810.5373    44657.537 -0.067234084   -17.036218 -0.041707817    3434.9315    1494.4922    925.13463    865.71606     28.38043    18.846647    14.337837 0.00063349969 0.00063320038 0.00060876953 0.00060098691    291.50925     41.49527    35.978931    34.423473    90.016431    119.66323    90.107069    18.846567     14.33763    28.381996    18.849504    14.338377 
   53000    296.11427    1.2509986    2048.8727   -1182.0253   -211.49952    2074.3767   -2308.9628    571.28438    44657.537 -0.067234084   -17.036218 -0.041707817    3465.4841    1523.1555    927.60769    863.00407    28.379126     18.84606    14.337617 0.00059822246 0.00059757485 0.00059744082 0.00059356343    296.11427     41.49527    35.978931    34.423473    90.016431    119.66323    90.107069    18.846672    14.338338    28.379293    18.848658    14.341557 
   54000    297.99575    1.2509986    2008.9052   -1201.4726   -211.49952    2072.2713   -2309.0666   -1039.1965    44657.537 -0.067234084   -17.036218 -0.041707817    3447.1731    1530.9602    911.33455      859.254    28.378056    18.845591    14.337466 0.00061854388  0.000617893 0.00062937202 0.00062690449    297.99575     41.49527    35.978931    34.423473    90.016431    119.66323    90.107069    18.846346    14.338529    28.379402    18.848118     14.34092 
   55000    300.44877    1.2509986    2023.4137   -1193.3931   -211.49952    2073.6597   -2309.3065    1217.2064    44657.537 -0.067234084   -17.036218 -0.041707817    3452.4536    1526.5492    873.16241    896.78213    28.381576    18.845069    14.337585 0.00061103677 0.00061051744 0.00059569671 0.0005940054    300.44877     41.49527    35.978931    34.423473    90.016431    119.66323    90.107069    18.846103    14.337047    28.378577    18.849011    14.338782 
   56000    303.24129    1.2509986    1950.8959   -1196.7822   -211.49952    2069.4487    -2309.232     623.4162    44657.537 -0.067234084   -17.036218 -0.041707817    3387.4614    1481.7677      900.264    856.77846    28.381547     18.84422    14.338345 0.00060350323 0.00060336295 0.00061763702 0.00061707747    303.24129     41.49527    35.978931    34.423473    90.016431    119.66323    90.107069    18.845998    14.337946    28.379374    18.848572    14.340214 
   57000    300.83334    1.2509986    2039.7667    -1184.904   -211.49952      2073.54    -2309.508    1732.8515    44657.537 -0.067234084   -17.036218 -0.041707817    3460.6388    1517.8399    908.54081    880.42821    28.381426    18.846025     14.33723 0.00061862221 0.00061782379 0.00062693481 0.00062037455    300.83334     41.49527    35.978931    34.423473    90.016431    119.66323    90.107069    18.845852    14.337367    28.382064    18.848765    14.339177 
   58000     294.3314    1.2509986    1972.3418   -1194.0406   -211.49952    2071.3094   -2309.3183    654.00186    44657.537 -0.067234084   -17.036218 -0.041707817    3404.3913    1484.0053    885.27894     882.4076    28.380481    18.845412    14.336932 0.00061834146 0.00061783182 0.00061934264 0.00061829892     294.3314     41.49527    35.978931    34.423473    90.016431    119.66323    90.107069    18.845888    14.337136    28.379998    18.848993    14.338717 
   59000    294.69028    1.2509986    1966.6102   -1180.6543   -211.49952    2072.4158   -2308.8608    321.87643    44657.537 -0.067234084   -17.036218 -0.041707817    3383.7095     1494.326    907.44519    838.11783    28.378381    18.845418    14.337609 0.00060549565 0.00060362246 0.00061400436 0.0006082196    294.69028     41.49527    35.978931    34.423473    90.016431    119.66323    90.107069    18.845762    14.337614    28.378609    18.847198    14.338377 
   60000    302.10471    1.2509986    2054.3688   -1192.2878   -211.49952    2067.3237   -2309.4638    -338.4217    44657.537 -0.067234084   -17.036218 -0.041707817    3488.7966    1554.6595    904.95788    878.99231    28.382046    18.847204    14.338176 0.00062067458 0.00062044062 0.00058411604 0.00058333132    302.10471     41.49527    35.978931    34.423473    90.016431    119.66323    90.107069    18.846398    14.337329     28.37979    18.849756    14.339216 
   61000    299.14545    1.2509986    2023.2238   -1187.1417   -211.49952    2071.8778   -2309.3713   -78.618968    44657.537 -0.067234084   -17.036218 -0.041707817     3447.859    1523.8126    941.21578    835.74487    28.379543    18.846134    14.337159 0.00060999692 0.00060954331 0.00059602503 0.00059367071    299.14545     41.49527    35.978931    34.423473    90.016431    119.66323    90.107069     18.84633    14.337929     28.38106    18.849094    14.339932 
   62000    295.03435    1.2509986    2016.1259   -1197.2094   -211.49952    2071.1389   -2309.6236   -614.28763    44657.537 -0.067234084   -17.036218 -0.041707817    3451.8201    1521.0577    915.63264    868.03601    28.381919    18.844688    14.338137 0.00061823144 0.00061792941 0.0006011782 0.0005968165    295.03435     41.49527    35.978931    34.423473    90.016431    119.66323    90.107069    18.846056    14.337565    28.381093    18.849901    14.338537 
   63000    297.29933    1.2509986     2038.805   -1188.8476   -211.49952    2073.1963    -2309.179    572.76025    44657.537 -0.067234084   -17.036218 -0.041707817    3463.6352     1520.538    904.99422    886.41765    28.379609     18.84561    14.337389 0.00063414991 0.00063344192 0.00063150013 0.00062535491    297.29933     41.49527    35.978931    34.423473    90.016431    119.66323    90.107069    18.845929    14.338257    28.377924    18.847245    14.340233 
   64000    297.64393    1.2509986    2018.4551   -1198.6498   -211.49952    2075.9596   -2309.0607   -4.9652615    44657.537 -0.067234084   -17.036218 -0.041707817    3450.2061    1536.4562    895.56011    863.53535    28.380935    18.844569     14.33798 0.00060515724 0.00060508917 0.00061908057 0.0006186199    297.64393     41.49527    35.978931    34.423473    90.016431    119.66323    90.107069    18.845994    14.337816    28.380017    18.848731    14.339226 
   65000    299.92914    1.2509986    2032.7731   -1174.4694   -211.49952    2072.8304   -2309.2043    2791.7678    44657.537 -0.067234084   -17.036218 -0.041707817    3443.6164    1538.6084    894.59927    862.06332    28.379905    18.844179    14.337452 0.00060850379 0.00060835052 0.00060620295 0.00060150745    299.92914     41.49527    35.978931    34.423473    90.016431    119.66323    90.107069    18.845936     14.33789    28.379091    18.847776    14.341355 
   66000    299.75599    1.2509986    2064.5829   -1200.2096   -211.49952    2070.9644   -2309.4729   -436.41995    44657.537 -0.067234084   -17.036218 -0.041707817    3503.3011     1539.884     930.4759    873.48029    28.379878    18.845192    14.337551 0.00063088615 0.00063054054 0.00061407259 0.00061191757    299.75599     41.49527    35.978931    34.423473    90.016431    119.66323    90.107069    18.845757    14.338109    28.379394    18.847647    14.340151 
   67000     294.4515    1.2509986    1989.9598   -1191.6237   -211.49952    2077.7336   -2309.2405    130.62669    44657.537 -0.067234084   -17.036218 -0.041707817    3413.0904    1503.1524    897.33419    862.91297    28.378248    18.845859    14.337386 0.00060662199 0.0006065546  0.000605683 0.0006001206     294.4515     41.49527    35.978931    34.423473    90.016431    119.66323    90.107069    18.846331    14.337532    28.377229    18.849336    14.339434 
   68000    300.04338    1.2509986    1996.8072   -1179.1797   -211.49952     2070.161   -2309.2619    883.97183    44657.537 -0.067234084   -17.036218 -0.041707817    3415.0878    1500.3276    899.38264    864.42502    28.378102    18.845853    14.337562 0.00058447101 0.00058428475 0.00058135878 0.00058074657    300.04338     41.49527    35.978931    34.423473    90.016431    119.66323    90.107069    18.846613    14.337716    28.379726    18.848384    14.340072 
   69000    300.89027    1.2509986    1986.7037   -1192.6385   -211.49952    2069.4815   -2309.7181   -304.64022    44657.537 -0.067234084   -17.036218 -0.041707817    3419.5788    1522.6203    874.18761    874.16774    28.379054    18.845441    14.337257 0.00063876668 0.00063773337 0.00062054491 0.00061863179    300.89027     41.49527    35.978931    34.423473    90.016431    119.66323    90.107069    18.845534    14.337921    28.378438    18.848561    14.338961 
   70000    300.15435    1.2509986     2006.255   -1188.8682   -211.49952    2069.5849   -2309.2695   -196.78544    44657.537 -0.067234084   -17.036218 -0.041707817    3434.8078    1545.9466    923.77564    820.37654    28.377375    18.845835    14.336934 0.00061585435 0.0006153092 0.00060871515 0.00060742496    300.15435     41.49527    35.978931    34.423473    90.016431    119.66323    90.107069    18.845479    14.337513      28.3806     18.84906    14.340085 
   71000    295.18794    1.2509986    2016.2923   -1196.5193   -211.49952    2070.7964   -2309.1205    -27.46205    44657.537 -0.067234084   -17.036218 -0.041707817    3451.1357    1542.4523    892.43667    863.13655    28.382275    18.844808    14.338189 0.00061016828 0.00061009527  0.000598616 0.00059807397    295.18794     41.49527    35.978931    34.423473    90.016431    119.66323    90.107069    18.846146    14.337837    28.380152     18.84903     14.34007 
   72000    293.21643    1.2509986    2079.9766   -1202.8526   -211.49952    2075.2967   -2309.3743   -331.15254    44657.537 -0.067234084   -17.036218 -0.041707817    3516.9068    1558.5853    943.23282    865.70103    28.381342    18.844529    14.337017 0.0006248872 0.00062468528 0.00061395714 0.00061328618    293.21643     41.49527    35.978931    34.423473    90.016431    119.66323    90.107069    18.846061    14.337533    28.380353    18.848887     14.33978 
   73000    296.81197    1.2509986    2023.2127   -1189.5833   -211.49952    2074.9363   -2309.2032    1290.0691    44657.537 -0.067234084   -17.036218 -0.041707817    3447.0629    1530.2348    900.85315    861.84273    28.379219    18.846355    14.337362 0.00062630156 0.00062592119 0.0006332928 0.00063201421    296.81197     41.49527    35.978931    34.423473    90.016431    119.66323    90.107069    18.846553    14.337296     28.37924    18.850093    14.339534 
   74000    299.89738    1.2509986     2068.581   -1194.8648   -211.49952    2071.4429   -2309.5275    994.83604    44657.537 -0.067234084   -17.036218 -0.041707817    3501.5304    1557.0969    945.24322    852.68094    28.379737    18.846258     14.33755 0.0006099075 0.00060958606 0.00062294908 0.00062091903    299.89738     41.49527    35.978931    34.423473    90.016431    119.66323    90.107069      18.8466    14.337955    28.379616    18.850012    14.340652 
   75000    298.32571    1.2509986    2014.1078   -1172.4813   -211.49952    2074.2068   -2309.1115    1724.7244    44657.537 -0.067234084   -17.036218 -0.041707817    3421.4939    1503.1512    894.49205    872.56413    28.376165    18.845922    14.335906 0.00062815841 0.00062781227 0.00060515509 0.00060484396    298.32571     41.49527    35.978931    34.423473    90.016431    119.66323    90.107069    18.845732    14.337387    28.379628    18.848848    14.340166 
   76000    293.98406    1.2509986     2087.223   -1202.0294   -211.49952    2072.4744   -2309.4945    185.86032    44657.537 -0.067234084   -17.036218 -0.041707817    3526.2724    1574.0251    907.10759    888.49897     28.38142    18.845001    14.337485 0.00062747898 0.00062701075 0.00061696864 0.00061462816    293.98406     41.49527    35.978931    34.423473    90.016431    119.66323    90.107069    18.846219    14.337819    28.380038    18.847608    14.340007 
   77000    296.03995    1.2509986    2068.4365   -1177.0187   -211.49952    2071.1376   -2309.3088    718.74708    44657.537 -0.067234084   -17.036218 -0.041707817    3483.6263    1529.7221    901.63214    895.30351    28.380624    18.846285    14.337503 0.00061449339 0.00061345549 0.00056137206 0.00055894458    296.03995     41.49527    35.978931    34.423473    90.016431    119.66323    90.107069    18.846103    14.337498    28.380221    18.847804    14.338913 
   78000    297.94066    1.2509986    2041.2003   -1183.7609   -211.49952     2070.507   -2309.1938    420.14556    44657.537 -0.067234084   -17.036218 -0.041707817     3463.648    1501.7568    918.80566    891.60284    28.379791    18.845126    14.337374 0.00060877177 0.00060860045 0.00060056332 0.00060009715    297.94066     41.49527    35.978931    34.423473    90.016431    119.66323    90.107069    18.845796    14.337873    28.379356    18.848993    14.340291 
   79000    298.91301    1.2509986    2004.0279   -1158.6942   -211.49952    2071.0161   -2309.5908    1683.7948    44657.537 -0.067234084   -17.036218 -0.041707817    3401.2968    1497.1999    899.63791    848.34381    28.382387     18.84604    14.338127 0.00060402858 0.00060320726 0.00061030973 0.00060807113    298.91301     41.49527    35.978931    34.423473    90.016431    119.66323    90.107069    18.846089    14.337864    28.380684    18.849975    14.339436 
   80000    294.03487    1.2509986    2058.9151     -1182.73   -211.49952    2071.4845   -2309.5627   -209.82279    44657.537 -0.067234084   -17.036218 -0.041707817    3479.7234    1552.3143    910.36205    868.10202    28.378669    18.844296    14.337389 0.00060483857 0.00060454588 0.00062181539 0.00062042859    294.03487     41.49527    35.978931    34.423473    90.016431    119.66323    90.107069    18.845851    14.337341    28.380149    18.848417    14.340463 
   81000    304.56791    1.2509986    2036.6891   -1185.4631   -211.49952    2070.8068   -2309.3963    977.54182    44657.537 -0.067234084   -17.036218 -0.041707817    3460.7418    1524.3394    904.86749    883.79489    28.379201    18.845533    14.337408 0.00061866574 0.00061853406 0.00059942363  0.000598866    304.56791     41.49527    35.978931    34.423473    90.016431    119.66323    90.107069    18.846255    14.337384    28.379806    18.848672    14.340254 
   82000    297.02598    1.2509986    2012.1878   -1190.0471   -211.49952    2069.5247   -2309.1696    -1093.974    44657.537 -0.067234084   -17.036218 -0.041707817    3441.8797      1476.11    911.31644    896.61625     28.37925    18.844123    14.337491 0.00062463546 0.00062413088 0.00065476463 0.00065375795    297.02598     41.49527    35.978931    34.423473    90.016431    119.66323    90.107069    18.845743     14.33764    28.378554    18.849046    14.339609 
   83000    302.44718    1.2509986    1990.6129   -1183.4485   -211.49952    2070.2805   -2309.4654   -736.80512    44657.537 -0.067234084   -17.036218 -0.041707817    3413.2462    1499.0572    907.79394    858.62265    28.378745    18.843936    14.337773 0.00061396049 0.00061297606 0.00059760736 0.00059719925    302.44718     41.49527    35.978931    34.423473    90.016431    119.66323    90.107069    18.845234    14.337839    28.379796    18.848742    14.340165 
   84000    302.68949    1.2509986    1957.7492   -1204.4763   -211.49952    2069.6207   -2309.5465    42.250993    44657.537 -0.067234084   -17.036218 -0.041707817    3402.1512     1504.966    878.37262    866.62038    28.379003    18.845442    14.336822 0.00062580852 0.00062477647 0.00061006631 0.00060610698    302.68949     41.49527    35.978931    34.423473    90.016431    119.66323    90.107069    18.845686    14.337191    28.379029    18.847574     14.33837 
   85000    300.05317    1.2509986    1956.4459   -1195.0811   -211.49952    2069.9669   -2309.5492    58.352347    44657.537 -0.067234084   -17.036218 -0.041707817    3391.1093    1496.5828    888.04828    860.10176    28.378705    18.845135    14.337955 0.00060329001 0.00060181406 0.00057868569 0.00057588734    300.05317     41.49527    35.978931    34.423473    90.016431    119.66323    90.107069    18.845386    14.337845    28.379471    18.847376    14.339971 
   86000    299.02252    1.2509986     2026.373   -1200.5495   -211.49952    2075.9987   -2309.6623    1211.0523    44657.537 -0.067234084   -17.036218 -0.041707817    3460.5862    1547.0247    921.82149    845.57044    28.380425     18.84607    14.337261 0.00061121082 0.00061081424 0.00060484147 0.00060467786    299.02252     41.49527    35.978931    34.423473    90.016431    119.66323    90.107069    18.846745    14.337788     28.37947    18.849174    14.339999 
   87000    298.11547    1.2509986    2075.2635   -1202.0086   -211.49952    2071.0944    -2309.351   -869.88619    44657.537 -0.067234084   -17.036218 -0.041707817    3515.5287     1567.423    900.20611    893.08115    28.378303    18.844615    14.337277 0.00059960969 0.00059923723 0.00060062858 0.00059741739    298.11547     41.49527    35.978931    34.423473    90.016431    119.66323    90.107069    18.845782    14.337316    28.379497    18.850035    14.338167 
   88000    300.76397    1.2509986    2065.8078   -1189.7697   -211.49952    2076.0207   -2308.9655    733.61747    44657.537 -0.067234084   -17.036218 -0.041707817    3488.5224    1509.5679    944.16823    879.89387    28.379815    18.846832    14.337662 0.00060791646 0.00060744178 0.00061103864 0.0006043021    300.76397     41.49527    35.978931    34.423473    90.016431    119.66323    90.107069    18.846356    14.337502    28.378977    18.851397    14.338791 
   89000    298.22287    1.2509986    2017.2938   -1165.6421   -211.49952    2072.7236   -2309.4762    3191.4407    44657.537 -0.067234084   -17.036218 -0.041707817    3419.6885    1493.9738    910.81569    864.13416    28.381316    18.846608    14.337626 0.00062806672 0.00062756831 0.00060458493 0.00060385042    298.22287     41.49527    35.978931    34.423473    90.016431    119.66323    90.107069     18.84653    14.337789    28.379227    18.849379     14.34034 
   90000    292.11677    1.2509986    2033.2039   -1182.3291   -211.49952    2070.5765    -2309.499    553.10773    44657.537 -0.067234084   -17.036218 -0.041707817    3454.4555    1530.4587    911.83387     858.6033    28.376279    18.846043     14.33658 0.00062337731 0.00062307147 0.00064412554 0.00064313093    292.11677     41.49527    35.978931    34.423473    90.016431    119.66323    90.107069    18.846574    14.337915    28.379292    18.848055    14.339726 
   91000      296.161    1.2509986    2022.9474   -1192.9931   -211.49952    2075.5497   -2309.2792    798.46643    44657.537 -0.067234084   -17.036218 -0.041707817    3449.6699    1535.7518    900.04307    862.48823    28.380766    18.845954    14.337495 0.00064624158 0.00064607448 0.00066940347 0.00066686274      296.161     41.49527    35.978931    34.423473    90.016431    119.66323    90.107069    18.846117    14.338142    28.379278      18.8478    14.340634 
   92000    298.29336    1.2509986    2037.9013   -1194.1063   -211.49952    2070.8155   -2308.9842   -1018.3395    44657.537 -0.067234084   -17.036218 -0.041707817    3470.1762    1512.1627    907.70736    892.41333      28.3823    18.845176     14.33803 0.00061666121 0.00061647913 0.00058279962 0.00057592651    298.29336     41.49527    35.978931    34.423473    90.016431    119.66323    90.107069    18.846088    14.337372    28.378897    18.849185    14.337107 
   93000    298.16164    1.2509986    2039.0235   -1197.1221   -211.49952    2072.7942   -2309.2459   -811.46111    44657.537 -0.067234084   -17.036218 -0.041707817    3472.5973    1534.5687    905.59419    878.91838    28.380322    18.846639    14.336874 0.00061286753 0.00061264587 0.00058575025 0.00058272108    298.16164     41.49527    35.978931    34.423473    90.016431    119.66323    90.107069    18.845794    14.337955    28.378411    18.847703    14.339626 
   94000    299.53748    1.2509986    1984.8033   -1200.6247   -211.49952    2073.2537   -2309.0823    214.69338    44657.537 -0.067234084   -17.036218 -0.041707817    3421.2566     1501.327     873.7289    893.58593    28.381395     18.84647    14.337639 0.00064091966 0.00064031956 0.0006109574 0.00060965937    299.53748     41.49527    35.978931    34.423473    90.016431    119.66323    90.107069    18.846162    14.337807    28.380499    18.848414    14.339862 
   95000    295.83774    1.2509986    2022.6144   -1192.9385   -211.49952    2073.8394   -2309.0265    387.41138    44657.537 -0.067234084   -17.036218 -0.041707817    3450.7399    1519.9757    914.31739    863.26809    28.379629    18.845802    14.337217 0.00061766092 0.00061644233 0.00055948692 0.0005540414    295.83774     41.49527    35.978931    34.423473    90.016431    119.66323    90.107069    18.845503    14.338428    28.378884    18.847875    14.341561 
   96000    301.18547    1.2509986    2123.7357   -1183.8632   -211.49952    2070.7932   -2309.3471    51.747663    44657.537 -0.067234084   -17.036218 -0.041707817    3546.1528     1547.963     920.7014    913.26332    28.380013    18.845592    14.337472 0.00059606371 0.00059584425 0.00058428538 0.00058224202    301.18547     41.49527    35.978931    34.423473    90.016431    119.66323    90.107069    18.846393    14.337327    28.380377    18.847847    14.339742 
   97000    298.53679    1.2509986     2032.748   -1174.0839   -211.49952    2068.1389   -2309.4095    878.06118    44657.537 -0.067234084   -17.036218 -0.041707817    3448.1025    1483.7838    927.06652    885.27738    28.380327    18.845622    14.337044 0.00060795384 0.00060733704 0.00061602693 0.00061209122    298.53679     41.49527    35.978931    34.423473    90.016431    119.66323    90.107069    18.845712    14.337146    28.380815     18.84748    14.339629 
   98000    297.16209    1.2509986    1936.3615   -1200.4517   -211.49952    2068.7746   -2309.8645    1045.5757    44657.537 -0.067234084   -17.036218 -0.041707817    3377.9032    1490.0871    887.82153    851.80717    28.379038     18.84439    14.336709 0.00062978157 0.00062928236 0.0005732788 0.00057237613    297.16209     41.49527    35.978931    34.423473    90.016431    119.66323    90.107069    18.845668    14.337275    28.378964    18.848352    14.339299 
   99000    302.14845    1.2509986    2023.2455   -1177.4671   -211.49952    2071.7951    -2309.192    1605.4919    44657.537 -0.067234084   -17.036218 -0.041707817    3438.1094    1488.0893    925.82354    874.71822    28.380428    18.846008    14.338005 0.00061420797 0.00061381851 0.00055785924  0.000556486    302.14845     41.49527    35.978931    34.423473    90.016431    119.66323    90.107069    18.846448    14.337425    28.380343    18.849469    14.338899 
  100000    295.76193    1.2509986    2023.3128   -1195.4266   -211.49952    2073.6016   -2308.9586   -139.26162    44657.537 -0.067234084   -17.036218 -0.041707817    3454.0964    1504.6982    920.79058     870.5008    28.378453      18.8459    14.336168 0.00062235548 0.00062162691 0.00063998561 0.00063812813    295.76193     41.49527    35.978931    34.423473    90.016431    119.66323    90.107069    18.846178    14.337051    28.379473     18.84833    14.338461 
  101000    293.72713    1.2509986    2002.5336   -1167.8187   -211.49952    2070.6959   -2309.4124    716.42663    44657.537 -0.067234084   -17.036218 -0.041707817    3409.0687    1478.0682    888.19023    890.07727    28.379333     18.84572    14.336717 0.00062337996 0.00062267975 0.00063263443 0.00063130698    293.72713     41.49527    35.978931    34.423473    90.016431    119.66323    90.107069    18.846565    14.337415    28.380548    18.849181    14.340201 
  102000    298.58968    1.2509986    1963.5945   -1200.3197   -211.49952    2070.0058   -2309.1511   -1036.3153    44657.537 -0.067234084   -17.036218 -0.041707817    3403.0596    1480.9213    912.17945     860.2081    28.380586     18.84523    14.337577 0.00063580266 0.00063552706 0.00062511899 0.00062441417    298.58968     41.49527    35.978931    34.423473    90.016431    119.66323    90.107069    18.846376    14.338212    28.380131    18.849359    14.339133 
  103000    298.43087    1.2509986    2042.6889   -1192.9869   -211.49952    2070.6489   -2309.3633    -82.97412    44657.537 -0.067234084   -17.036218 -0.041707817    3474.3902    1558.6632    895.23732    867.88209     28.38094     18.84494    14.338264 0.00059036224 0.00058983218 0.0005731648 0.00056819179    298.43087     41.49527    35.978931    34.423473    90.016431    119.66323    90.107069    18.846007     14.33804     28.38064    18.847446    14.340798 
  104000    307.02763    1.2509986    1979.1042     -1179.23   -211.49952    2071.2337   -2309.4597    1003.5259    44657.537 -0.067234084   -17.036218 -0.041707817    3396.5601    1500.3591    892.67051     848.5745    28.380213    18.847215    14.338017 0.00061086064 0.00061057349 0.00057173927 0.00057063656    307.02763     41.49527    35.978931    34.423473    90.016431    119.66323    90.107069    18.846381    14.337555    28.379613     18.84813    14.339073 
  105000    293.87884    1.2509986    1983.2084   -1177.0234   -211.49952    2067.4491   -2309.6328   -85.073978    44657.537 -0.067234084   -17.036218 -0.041707817    3402.4155    1492.4532    883.99453    875.48195    28.379598    18.845703    14.337905 0.00062345289 0.00062267027 0.0006036654 0.00059881644    293.87884     41.49527    35.978931    34.423473    90.016431    119.66323    90.107069    18.845793    14.338446    28.380609    18.847761    14.341113 
  106000    297.52581    1.2509986    2050.8748   -1188.3117   -211.49952    2074.5484   -2309.1101     342.5419    44657.537 -0.067234084   -17.036218 -0.041707817    3473.7482    1513.7532    909.99548    896.03824    28.381592    18.844934    14.338347 0.00061621838 0.0006158558 0.00060121631 0.00059796697    297.52581     41.49527    35.978931    34.423473    90.016431    119.66323    90.107069    18.845891    14.338038    28.378149    18.848114    14.340315 
  107000    299.73159    1.2509986    2012.1444   -1184.7099   -211.49952    2071.4267   -2309.1881    80.301726    44657.537 -0.067234084   -17.036218 -0.041707817    3434.6156    1507.6166    906.51054    872.63524    28.379871    18.845936    14.337912 0.00060083099 0.0006001633 0.00056254938 0.00055992969    299.73159     41.49527    35.978931    34.423473    90.016431    119.66323    90.107069    18.846101    14.338552     28.37948    18.848559     14.34119 
  108000    302.14355    1.2509986    2073.8613   -1198.6519   -211.49952    2074.3466   -2308.9773    133.19451    44657.537 -0.067234084   -17.036218 -0.041707817    3507.1439    1557.9846    933.82488    866.23431    28.380689    18.845196    14.337589 0.00060640149 0.00060490438 0.0005679103 0.00056643541    302.14355     41.49527    35.978931    34.423473    90.016431    119.66323    90.107069    18.845262    14.338542    28.380582    18.849476    14.340095 
  109000    295.73106    1.2509986    2051.5698   -1188.1993   -211.49952    2070.3394    -2309.448    912.23207    44657.537 -0.067234084   -17.036218 -0.041707817    3478.8777    1554.8436    897.05317    877.18527    28.378613    18.846628    14.336907 0.00064324523 0.00064251078 0.00059812036 0.00059495627    295.73106     41.49527    35.978931    34.423473    90.016431    119.66323    90.107069    18.846239    14.337531    28.379437    18.848382    14.341297 
  110000    302.46121    1.2509986    1974.2737   -1211.7965   -211.49952    2077.1996   -2309.1673    68.451398    44657.537 -0.067234084   -17.036218 -0.041707817    3418.0379    1537.6741      879.044    856.23096    28.380496    18.846321    14.337576 0.00061514088 0.00061493739 0.00064781434 0.00064682957    302.46121     41.49527    35.978931    34.423473    90.016431    119.66323    90.107069    18.846318      14.3374    28.380249    18.848598    14.339062 
  111000    298.87745    1.2509986     2107.409   -1179.1079   -211.49952    2072.1547    -2309.572    712.74513    44657.537 -0.067234084   -17.036218 -0.041707817    3523.9341    1573.5248    914.36887    881.33021    28.379099    18.845622    14.336791 0.00061047808 0.00061006518 0.00059490941 0.00059258399    298.87745     41.49527    35.978931    34.423473    90.016431    119.66323    90.107069    18.846409    14.337708    28.378817    18.850317    14.339917 
  112000    305.26542    1.2509986    2028.3996   -1173.0738   -211.49952    2068.4222   -2309.7441    973.93907    44657.537 -0.067234084   -17.036218 -0.041707817    3442.7953    1533.9149    921.19469    837.30054    28.381286    18.845129    14.337856 0.00059419199 0.00059312212 0.00060872429 0.0006073124    305.26542     41.49527    35.978931    34.423473    90.016431    119.66323    90.107069    18.845464    14.337464    28.379883    18.848273    14.338768 
  113000    292.22443    1.2509986    1954.3903   -1194.2541   -211.49952    2069.8901   -2309.6012   -35.572265    44657.537 -0.067234084   -17.036218 -0.041707817    3388.3556    1518.2736    865.46874    861.63838    28.378399     18.84465    14.337857 0.00058857278 0.00058728965 0.00058241772 0.00058229945    292.22443     41.49527    35.978931    34.423473    90.016431    119.66323    90.107069    18.845726    14.338144    28.379793    18.848845    14.339823 
  114000    302.35863    1.2509986    2066.8705   -1187.9182   -211.49952    2070.2749   -2309.3421   -123.14489    44657.537 -0.067234084   -17.036218 -0.041707817    3493.8558    1564.1389    890.89692    888.00648    28.379517    18.844643    14.337356 0.00063462942 0.00063422704 0.00066219771 0.00065974023    302.35863     41.49527    35.978931    34.423473    90.016431    119.66323    90.107069    18.845717    14.337426    28.379271    18.849949    14.338414 
  115000    295.53607    1.2509986    1981.9189   -1184.6794   -211.49952    2072.8797     -2309.51    1101.4331    44657.537 -0.067234084   -17.036218 -0.041707817    3403.2286    1490.2223    909.75083    854.32622    28.378267    18.845055      14.3376 0.00060670443 0.0006065386 0.00057809629 0.00057217292    295.53607     41.49527    35.978931    34.423473    90.016431    119.66323    90.107069    18.846238    14.338084    28.378185    18.848646    14.341615 
  116000    295.97731    1.2509986    1941.5207   -1192.5147   -211.49952    2068.4918   -2309.4882   -514.60003    44657.537 -0.067234084   -17.036218 -0.041707817    3375.0319    1479.3703    895.07127    852.63724    28.380311    18.845959    14.338014 0.00063893579  0.000638255 0.00061435347 0.00061057176    295.97731     41.49527    35.978931    34.423473    90.016431    119.66323    90.107069    18.846055    14.338549     28.37893    18.847244    14.340149 
  117000    294.34047    1.2509986    2018.4424   -1192.8002   -211.49952    2067.4821   -2309.8427    377.08474    44657.537 -0.067234084   -17.036218 -0.041707817    3453.6032    1489.3311    946.51422    863.58513     28.37916    18.844497    14.337768 0.00063615555 0.00063583593 0.00062137492 0.00061868384    294.34047     41.49527    35.978931    34.423473    90.016431    119.66323    90.107069    18.845656    14.337916    28.378705    18.847612    14.339571 
  118000    296.12856    1.2509986         2022     -1194.81   -211.49952    2071.5676   -2309.7696   -573.43819    44657.537 -0.067234084   -17.036218 -0.041707817    3455.0119    1546.0816    910.30457    854.00149    28.380471    18.845656    14.337996 0.00060321036 0.00060312236 0.0006142038 0.00061256116    296.12856     41.49527    35.978931    34.423473    90.016431    119.66323    90.107069    18.846422    14.337865    28.379444    18.850191    14.340131 
  119000    301.11369    1.2509986    1999.5736   -1204.1282   -211.49952    2071.1725   -2309.2712   -1172.3618    44657.537 -0.067234084   -17.036218 -0.041707817    3441.8004    1533.5744    900.49258    858.66123    28.378962    18.843636    14.337022 0.00062177981 0.00062041614 0.0005923432 0.00059087476    301.11369     41.49527    35.978931    34.423473    90.016431    119.66323    90.107069    18.845517    14.337655     28.37895    18.848441    14.340517 
  120000    292.96994    1.2509986    2009.1735   -1195.6904   -211.49952    2069.4482   -2309.5191    303.98698    44657.537 -0.067234084   -17.036218 -0.041707817    3444.9348    1553.6049    890.63683    851.18824    28.380904     18.84531     14.33827 0.00060339233 0.00060325644 0.00059884221 0.00059803752    292.96994     41.49527    35.978931    34.423473    90.016431    119.66323    90.107069    18.846213    14.337998    28.379707     18.84862    14.338846 
  121000    294.47408    1.2509986    2062.1383   -1183.1746   -211.49952    2068.0485   -2309.5515    1092.7207    44657.537 -0.067234084   -17.036218 -0.041707817    3486.8159     1529.137    914.87245    882.34166    28.381754    18.845331    14.338073 0.00058255523 0.00058236915 0.00063881532 0.00063826403    294.47408     41.49527    35.978931    34.423473    90.016431    119.66323    90.107069    18.845761    14.337785    28.379318    18.848311    14.339687 
  122000    299.47258    1.2509986     1993.945   -1219.7339   -211.49952    2071.5231   -2309.3549    -184.0892    44657.537 -0.067234084   -17.036218 -0.041707817    3451.5106    1506.8483     911.1193    880.69224    28.379413    18.846785    14.337085 0.00061024865 0.00060937513 0.00062640958 0.00062109306    299.47258     41.49527    35.978931    34.423473    90.016431    119.66323    90.107069     18.84694    14.338064    28.381117    18.850107    14.340936 
  123000    294.33158    1.2509986    2077.9993   -1194.5467   -211.49952    2071.4164   -2309.6045   -163.58096    44657.537 -0.067234084   -17.036218 -0.041707817    3510.7341    1545.9637    884.32499    923.32911    28.380026    18.846606    14.337802 0.00060120813 0.00060103624 0.00064183562 0.00064115061    294.33158     41.49527    35.978931    34.423473    90.016431    119.66323    90.107069    18.846313    14.337905    28.379728    18.848763    14.338868 
  124000    293.30458    1.2509986    1980.6832   -1205.7706   -211.49952    2070.7461   -2309.3899   -178.61176    44657.537 -0.067234084   -17.036218 -0.041707817    3425.0976    1504.6761    886.99774    882.05619    28.380922    18.845697    14.337474 0.00061112208 0.00061092393 0.00065868484 0.00065549889    293.30458     41.49527    35.978931    34.423473    90.016431    119.66323    90.107069    18.845864    14.337495    28.380013    18.848098    14.338175 
  125000    296.72431    1.2509986    2024.8543    -1197.426   -211.49952    2072.8621   -2309.2122    443.71586    44657.537 -0.067234084   -17.036218 -0.041707817    3458.6305    1512.4477    890.62976    904.09704    28.380162    18.845955     14.33796 0.00062089653 0.00062055292 0.00064943901 0.00064873731    296.72431     41.49527    35.978931    34.423473    90.016431    119.66323    90.107069    18.846379    14.338261    28.379961    18.849463    14.340217 
  126000    298.09749    1.2509986    2086.9199   -1189.5311   -211.49952    2066.0735   -2309.9418   -642.57885    44657.537 -0.067234084   -17.036218 -0.041707817    3520.3193    1535.2269    935.82186    891.84711    28.380502    18.845074    14.337011   0.00063436 0.00063429839 0.00058258756 0.00058114928    298.09749     41.49527    35.978931    34.423473    90.016431    119.66323    90.107069    18.846057    14.337543    28.378739    18.848727    14.338809 
  127000    297.55632    1.2509986    2113.0103   -1207.8253   -211.49952    2077.8129   -2308.7156   -484.56316    44657.537 -0.067234084   -17.036218 -0.041707817    3551.7383    1584.7928    934.80688    879.22019    28.379185    18.845011    14.337948 0.0006213887 0.00062007023 0.00058964798 0.00058167504    297.55632     41.49527    35.978931    34.423473    90.016431    119.66323    90.107069    18.846958    14.338142    28.380819    18.851352     14.34059 
  128000     300.6006    1.2509986    1945.7781   -1203.7769   -211.49952    2072.5765   -2309.1099    334.15368    44657.537 -0.067234084   -17.036218 -0.041707817    3386.0884    1536.8179    886.89679    818.56211    28.379904    18.846565    14.337291 0.00062816797 0.00062785408 0.00065102001 0.00064870732     300.6006     41.49527    35.978931    34.423473    90.016431    119.66323    90.107069    18.845926     14.33771    28.380144    18.848034    14.340643 
  129000    288.37873    1.2509986    1973.7987   -1201.2253   -211.49952    2073.4329   -2309.5996    338.94975    44657.537 -0.067234084   -17.036218 -0.041707817    3411.1907     1477.843    929.53416    859.40081    28.378226    18.846596    14.336854 0.00061905226 0.00061895342 0.00064458177 0.00064425996    288.37873     41.49527    35.978931    34.423473    90.016431    119.66323    90.107069    18.846487    14.337733    28.379646    18.848695    14.340099 
  130000    298.56798    1.2509986    2030.8642   -1196.0987   -211.49952    2071.8673   -2309.4484    267.50032    44657.537 -0.067234084   -17.036218 -0.041707817     3464.544    1543.6089    900.31263    869.46929    28.379904    18.845529    14.337903 0.00063330538 0.00063318412  0.000607347 0.00060459922    298.56798     41.49527    35.978931    34.423473    90.016431    119.66323    90.107069    18.846113    14.337687    28.378453    18.848878    14.340868 
  131000    293.56542    1.2509986    2107.1812   -1184.2937   -211.49952    2068.4667   -2309.7494    105.42895    44657.537 -0.067234084   -17.036218 -0.041707817    3532.7576    1574.9771     911.7039    888.83523    28.380666    18.844516    14.337831 0.00064692155 0.0006461525 0.00065182759 0.0006505496    293.56542     41.49527    35.978931    34.423473    90.016431    119.66323    90.107069    18.845725    14.337427    28.379652    18.847929    14.339332 
  132000    296.44093    1.2509986    1965.8759   -1213.6267   -211.49952    2072.9812   -2309.5217   -558.29697    44657.537 -0.067234084   -17.036218 -0.041707817     3416.043    1535.7698    909.37265    825.93459    28.379648    18.845795      14.3374 0.00061432438 0.00061403169  0.000682007 0.0006805167    296.44093     41.49527    35.978931    34.423473    90.016431    119.66323    90.107069    18.846617    14.337423    28.380569    18.848908    14.338964 
  133000    296.87879    1.2509986    2119.0586   -1180.4449   -211.49952    2072.7132    -2309.486   -61.120472    44657.537 -0.067234084   -17.036218 -0.041707817    3536.2763    1581.4416    941.60855    864.29947    28.379245    18.846212    14.338105 0.0006321737  0.000631508 0.00065980879 0.0006571428    296.87879     41.49527    35.978931    34.423473    90.016431    119.66323    90.107069    18.845817    14.338118    28.380044    18.847539    14.340146 
  134000    301.65566    1.2509986    2011.3773    -1189.669   -211.49952    2073.0035   -2309.1464      862.616    44657.537 -0.067234084   -17.036218 -0.041707817    3437.1893    1521.3304    936.29712    831.92509    28.380831    18.845799      14.3378 0.00062762138 0.00062733125 0.00058553776 0.00058272355    301.65566     41.49527    35.978931    34.423473    90.016431    119.66323    90.107069    18.846568    14.337918    28.380755    18.849711    14.338694 
  135000    295.90925    1.2509986    2030.9455   -1179.7309   -211.49952    2070.7581   -2309.5996    1200.1298    44657.537 -0.067234084   -17.036218 -0.041707817    3449.5179    1533.3402    897.81623    869.80659    28.380475    18.844102    14.337865 0.00059513881 0.00059483756 0.00056711723 0.00056480672    295.90925     41.49527    35.978931    34.423473    90.016431    119.66323    90.107069    18.845701    14.338004    28.379251    18.847528    14.339525 
  136000    300.22586    1.2509986    1923.5444   -1189.6438   -211.49952    2072.0054   -2309.1647    666.55902    44657.537 -0.067234084   -17.036218 -0.041707817    3350.3474    1473.5257    886.80073    842.64065    28.380897    18.845195     14.33821 0.00062839019 0.00062671724 0.00061722954 0.00060153469    300.22586     41.49527    35.978931    34.423473    90.016431    119.66323    90.107069    18.845875    14.338944    28.378321    18.849719    14.343335 
  137000    298.49563    1.2509986    2072.3862   -1184.6105   -211.49952    2070.0244   -2309.4741    589.55487    44657.537 -0.067234084   -17.036218 -0.041707817    3496.4463    1495.2023    975.31365    871.22561    28.378286    18.845361    14.336825 0.00060055224 0.00060052734 0.00052695154 0.00052603092    298.49563     41.49527    35.978931    34.423473    90.016431    119.66323    90.107069     18.84625    14.337603    28.379461    18.849048    14.340592 
  138000    300.53185    1.2509986    1936.9882   -1185.6447   -211.49952    2068.5125   -2309.5845     969.2127    44657.537 -0.067234084   -17.036218 -0.041707817    3363.7049    1474.8228    891.18673    845.93667    28.379587     18.84574    14.337708 0.00058452999 0.00058408599 0.00058461552 0.00058372059    300.53185     41.49527    35.978931    34.423473    90.016431    119.66323    90.107069    18.846131    14.337603    28.379708    18.848446    14.338896 
  139000    290.16666    1.2509986    2083.7261   -1181.7323   -211.49952    2078.6944   -2309.1714    1441.8532    44657.537 -0.067234084   -17.036218 -0.041707817    3495.9354    1524.2291    943.89266    871.59749    28.380152    18.844897     14.33732 0.00061602369 0.00061569182 0.00059907894 0.00059837283    290.16666     41.49527    35.978931    34.423473    90.016431    119.66323    90.107069    18.845879    14.337947    28.378744     18.84888    14.339804 
  140000    296.03435    1.2509986    1988.2353   -1196.5329   -211.49952    2071.0991   -2309.2992   -265.76633    44657.537 -0.067234084   -17.036218 -0.041707817    3422.9683    1525.6107    879.63549    867.94887    28.379653    18.844718    14.336888 0.00063067471 0.0006291148 0.00060033634 0.00059581874    296.03435     41.49527    35.978931    34.423473    90.016431    119.66323    90.107069    18.846258    14.336693    28.377864    18.849255    14.338375 
  141000    294.24176    1.2509986    1978.5512   -1185.9289   -211.49952    2076.8826   -2309.1679    1068.9098    44657.537 -0.067234084   -17.036218 -0.041707817    3396.7653    1462.9339      903.655    874.05943    28.381805    18.845679    14.337412 0.00062276414 0.00062229218 0.00060972742 0.00060720999    294.24176     41.49527    35.978931    34.423473    90.016431    119.66323    90.107069    18.845827    14.338105     28.37877    18.848607    14.340955 
  142000    303.10146    1.2509986     1979.149   -1197.5569   -211.49952    2071.1172   -2309.6596   -597.66183    44657.537 -0.067234084   -17.036218 -0.041707817    3415.2483      1468.18    932.93981    866.29069    28.379396    18.846362    14.337737 0.00063726247 0.00063665559 0.00057658178 0.00057396634    303.10146     41.49527    35.978931    34.423473    90.016431    119.66323    90.107069    18.846018     14.33775     28.37864    18.848223    14.340711 
  143000    293.17938    1.2509986      1955.07   -1202.2165   -211.49952    2074.3335   -2309.3678    843.70489    44657.537 -0.067234084   -17.036218 -0.041707817    3392.3208    1515.4122    837.55957    883.78372    28.380814    18.846084     14.33821 0.00064666115 0.00064635956 0.00060555987 0.00060170898    293.17938     41.49527    35.978931    34.423473    90.016431    119.66323    90.107069    18.846343    14.338256     28.37867     18.85016    14.338316 
  144000    297.85026    1.2509986    2047.2135    -1188.121   -211.49952    2078.0956   -2308.9119   -182.47732    44657.537 -0.067234084   -17.036218 -0.041707817    3466.1508    1516.1282    902.23645    897.16193    28.381895    18.845087    14.337818 0.00060283206 0.00060161968 0.00057426535 0.00057210205    297.85026     41.49527    35.978931    34.423473    90.016431    119.66323    90.107069    18.846563    14.336881    28.380164    18.849136    14.338304 
  145000    299.55976    1.2509986     1970.181     -1186.44   -211.49952     2072.558   -2309.3665     748.1167    44657.537 -0.067234084   -17.036218 -0.041707817    3393.4294    1483.5093    906.15247    857.24776    28.378164    18.846899    14.337008 0.00061598134 0.00061560876 0.00058877602 0.00058776456    299.55976     41.49527    35.978931    34.423473    90.016431    119.66323    90.107069    18.845936    14.337414    28.380311    18.849463    14.339148 
  146000    292.50359    1.2509986    2040.2618   -1192.7569   -211.49952    2073.5959   -2309.5713     1408.863    44657.537 -0.067234084   -17.036218 -0.041707817    3468.9942    1526.5057    939.98855    853.55891    28.379963    18.846598    14.338059 0.00062576133 0.00062575715 0.00060925424 0.00060683336    292.50359     41.49527    35.978931    34.423473    90.016431    119.66323    90.107069     18.84614    14.337735     28.38065    18.847934    14.339885 
  147000    299.46578    1.2509986    2021.7704   -1198.0695   -211.49952    2068.9805   -2309.6471    929.95294    44657.537 -0.067234084   -17.036218 -0.041707817    3460.5066    1518.3974     915.2147    872.96801     28.37916    18.845335    14.338055 0.00060733842 0.00060670938 0.00059280145 0.00059254744    299.46578     41.49527    35.978931    34.423473    90.016431    119.66323    90.107069    18.845582    14.337534    28.379563    18.848952    14.339138 
  148000    298.90966    1.2509986    2001.8307   -1207.4376   -211.49952    2072.7217   -2309.1136   -883.34808    44657.537 -0.067234084   -17.036218 -0.041707817    3445.6602    1541.0838     892.0432    861.52293    28.379093    18.844686    14.337487 0.00060517031 0.00060429749 0.00064830285 0.00064211901    298.90966     41.49527    35.978931    34.423473    90.016431    119.66323    90.107069     18.84537    14.338037    28.377901    18.847461    14.340655 
  149000    290.61047    1.2509986    1996.4571   -1176.5508   -211.49952    2070.1567   -2309.3212    1283.7715    44657.537 -0.067234084   -17.036218 -0.041707817    3412.1724    1516.9215    891.16265     860.3356    28.378893    18.845786    14.337128 0.00059475536 0.00059418763 0.00061335964 0.00061237308    290.61047     41.49527    35.978931    34.423473    90.016431    119.66323    90.107069    18.845536     14.33786    28.378988     18.84832     14.33921 
  150000    299.41703    1.2509986    1979.8595   -1197.7908   -211.49952     2073.727   -2309.2739    709.05036    44657.537 -0.067234084   -17.036218 -0.041707817    3413.1972    1499.3788    907.39914    856.54565    28.382107    18.846262    14.338519 0.00057604849 0.0005754769 0.00057340456 0.00056949753    299.41703     41.49527    35.978931    34.423473    90.016431    119.66323    90.107069    18.846174    14.337873    28.381484    18.848943    14.340071 
  151000    297.55811    1.2509986    2052.9478   -1196.4431   -211.49952    2071.7953   -2309.3382   -590.12772    44657.537 -0.067234084   -17.036218 -0.041707817    3486.9338     1529.787    941.10584    865.44284    28.380198    18.846236    14.336763 0.00060643738 0.0006063925 0.00053940347 0.00053867869    297.55811     41.49527    35.978931    34.423473    90.016431    119.66323    90.107069    18.846307    14.337736    28.379214    18.849586    14.340166 
  152000    298.58526    1.2509986    1978.1032   -1194.2705   -211.49952    2071.6865   -2309.3899    440.24397    44657.537 -0.067234084   -17.036218 -0.041707817     3410.077    1532.0101    884.80334    850.73807    28.379661    18.846479    14.337447 0.00060242412 0.00060237692 0.00057725935 0.00057223019    298.58526     41.49527    35.978931    34.423473    90.016431    119.66323    90.107069    18.846255    14.337554    28.377368    18.848663     14.33998 
  153000    306.04455    1.2509986    1996.2373   -1208.2187   -211.49952    2073.5597   -2309.9552   -836.94726    44657.537 -0.067234084   -17.036218 -0.041707817    3440.8514    1576.7277    879.98825    836.31532    28.381554    18.845799    14.337831 0.00061206375 0.00061177125 0.00063900871 0.00063803594    306.04455     41.49527    35.978931    34.423473    90.016431    119.66323    90.107069     18.84661    14.337479    28.380349    18.848523    14.339314 
  154000    296.66461    1.2509986    1949.3659   -1195.7019   -211.49952    2071.2797   -2309.6294    547.99451    44657.537 -0.067234084   -17.036218 -0.041707817    3383.4176    1493.4242    872.63997    867.19234    28.380947    18.846276    14.338241 0.00064444456 0.00064437242 0.00063052719 0.00062787982    296.66461     41.49527    35.978931    34.423473    90.016431    119.66323    90.107069    18.846432    14.337776    28.380085    18.848123    14.340894 
  155000     301.1072    1.2509986    2042.9288   -1184.4895   -211.49952     2070.586   -2309.1129    231.47314    44657.537 -0.067234084   -17.036218 -0.041707817    3465.9453     1571.793    886.28075     861.1395    28.380507    18.844251    14.337417 0.00062033461 0.00062015104 0.00066207049 0.00066171811     301.1072     41.49527    35.978931    34.423473    90.016431    119.66323    90.107069    18.846535    14.337958     28.37988    18.849234    14.340084 
  156000    294.45527    1.2509986    2025.8103   -1185.9352   -211.49952    2073.8705   -2308.9395    964.31238    44657.537 -0.067234084   -17.036218 -0.041707817    3446.8145    1477.0112    937.05489    879.46551    28.380356    18.844763     14.33705 0.00059425946 0.00059320541 0.00058754968 0.0005869678    294.45527     41.49527    35.978931    34.423473    90.016431    119.66323    90.107069    18.845858    14.336773    28.379026    18.848996     14.33909 
  157000    294.53894    1.2509986    2004.9081   -1189.5862   -211.49952    2066.1951   -2309.6112   -930.10914    44657.537 -0.067234084   -17.036218 -0.041707817    3437.9103    1530.0056    905.97846    847.49441     28.37804    18.844589     14.33691 0.00059480399 0.00059478978 0.0005996012 0.00059828011    294.53894     41.49527    35.978931    34.423473    90.016431    119.66323    90.107069    18.846268    14.337697    28.380116    18.848657    14.340577 
  158000    296.86659    1.2509986    1950.6133   -1207.2201   -211.49952    2071.5467   -2309.3187   -938.32568    44657.537 -0.067234084   -17.036218 -0.041707817    3395.6054    1557.7299      876.359    818.51521    28.380129    18.845697    14.337633 0.00060701715 0.00060687763 0.00064620411 0.00064515985    296.86659     41.49527    35.978931    34.423473    90.016431    119.66323    90.107069    18.846071    14.337384     28.37857     18.84875    14.339589 
  159000    296.70672    1.2509986    2051.6924   -1171.9869   -211.49952    2075.4049   -2309.5646    1711.7031    44657.537 -0.067234084   -17.036218 -0.041707817     3457.839    1526.7218     914.7572    864.83208     28.38098    18.845137    14.338578 0.00063607646 0.00063589083 0.00061108382 0.00061069737    296.70672     41.49527    35.978931    34.423473    90.016431    119.66323    90.107069    18.846174    14.338093    28.379628    18.849554    14.339935 
  160000    297.59591    1.2509986    2021.1568   -1210.4921   -211.49952    2071.0947   -2309.4729   -526.43174    44657.537 -0.067234084   -17.036218 -0.041707817     3470.027    1515.4317    930.26801    876.30953    28.381041    18.844084    14.338212 0.0006221422 0.00062123482 0.00067074216 0.00066817131    297.59591     41.49527    35.978931    34.423473    90.016431    119.66323    90.107069    18.845252    14.337829     28.38015    18.847524    14.339602 
  161000    301.32374    1.2509986     1957.858   -1193.8893   -211.49952    2072.2962   -2309.3822   -472.28145    44657.537 -0.067234084   -17.036218 -0.041707817    3388.8332    1482.8793    896.71497    857.90403    28.380981    18.846515    14.338395 0.00061793001 0.00061767959 0.00060066367 0.00059618577    301.32374     41.49527    35.978931    34.423473    90.016431    119.66323    90.107069    18.846215    14.338189    28.377478    18.848882    14.340011 
  162000    302.01471    1.2509986    2053.5631   -1208.7154   -211.49952    2068.1487   -2309.0723    -1422.215    44657.537 -0.067234084   -17.036218 -0.041707817    3503.2021    1548.2163    902.11862    895.32624    28.379871    18.845628    14.337821 0.00062553827 0.00062520983 0.00060207118 0.00060109772    302.01471     41.49527    35.978931    34.423473    90.016431    119.66323    90.107069    18.846535     14.33737    28.379348    18.849606    14.340398 
  163000    297.85401    1.2509986    2044.3667   -1180.5831   -211.49952    2072.6665   -2309.4452    1259.1717    44657.537 -0.067234084   -17.036218 -0.041707817    3461.7284     1548.335    893.01998     868.4278    28.380791    18.845561    14.337923 0.00063876948 0.00063810841 0.00064188903 0.00064154447    297.85401     41.49527    35.978931    34.423473    90.016431    119.66323    90.107069    18.846569    14.338053    28.379418    18.849408     14.34005 
  164000    297.18286    1.2509986    1976.8049   -1183.8323   -211.49952     2070.551   -2309.6344     493.1823    44657.537 -0.067234084   -17.036218 -0.041707817    3399.7206     1510.128    898.89663    844.25363    28.379496    18.846285    14.337136 0.00061572378 0.00061487958 0.0005816007 0.00057771952    297.18286     41.49527    35.978931    34.423473    90.016431    119.66323    90.107069    18.846313    14.336907      28.3798    18.848788    14.337696 
[...]
  961000    301.45913    1.2509986    2005.0537   -1189.3654   -211.49952    2068.6527   -2309.6535   -242.78509    44657.537 -0.067234084   -17.036218 -0.041707817    3435.4199    1498.0401    893.07532    889.22365    28.378533    18.844929    14.337201 0.00062265203 0.00062241008 0.00063521805 0.00063387551    301.45913     41.49527    35.978931    34.423473    90.016431    119.66323    90.107069    18.845955    14.338104    28.380529     18.84861    14.340123 
  962000    300.66423    1.2509986    2057.8253    -1182.219   -211.49952    2071.8355   -2309.4194    525.73447    44657.537 -0.067234084   -17.036218 -0.041707817    3477.6281    1553.1558    882.98753    884.61397     28.38031    18.845651     14.33834 0.00061781759 0.00061719909 0.00063738984 0.00063469455    300.66423     41.49527    35.978931    34.423473    90.016431    119.66323    90.107069    18.845541    14.338118    28.379099     18.84826    14.341023 
  963000    297.81509    1.2509986    2101.3672   -1193.7035   -211.49952    2072.8295   -2309.2313   -978.73285    44657.537 -0.067234084   -17.036218 -0.041707817    3531.4725    1565.4543    937.86894    874.91708    28.380363    18.846673    14.337881 0.00061689413 0.00061675586 0.00059932095 0.00059589292    297.81509     41.49527    35.978931    34.423473    90.016431    119.66323    90.107069    18.846498    14.337545    28.377848     18.84896    14.338926 
  964000    304.31191    1.2509986    2014.1598   -1199.4592   -211.49952    2069.1971   -2309.6045    438.06755    44657.537 -0.067234084   -17.036218 -0.041707817    3454.0264    1525.4675    910.60825    865.11497    28.380074    18.845064    14.337383 0.00061095069 0.0006104012 0.00060349305 0.00060056639    304.31191     41.49527    35.978931    34.423473    90.016431    119.66323    90.107069    18.845584    14.338176    28.378383    18.847769    14.339586 
  965000    300.64028    1.2509986    2093.3722   -1197.2762   -211.49952    2073.8376    -2309.425     48.54501    44657.537 -0.067234084   -17.036218 -0.041707817    3526.2357    1587.7166    919.80785    864.96371    28.378732    18.846227    14.337163 0.00063939652 0.00063930548 0.00061030979 0.00060680839    300.64028     41.49527    35.978931    34.423473    90.016431    119.66323    90.107069    18.846364     14.33783    28.379179    18.847315    14.338947 
  966000    297.35391    1.2509986    1906.1431   -1211.4199   -211.49952    2073.8396   -2309.2062   -118.71197    44657.537 -0.067234084   -17.036218 -0.041707817    3352.9296    1490.7305     894.5813    825.40047    28.381899    18.845112    14.338317 0.00063606191 0.00063587872 0.00062557667 0.0006246103    297.35391     41.49527    35.978931    34.423473    90.016431    119.66323    90.107069    18.846322    14.338143    28.379018     18.84881    14.340435 
  967000    296.25276    1.2509986    2081.1173   -1200.8745   -211.49952    2072.6911   -2309.1049   -409.49447    44657.537 -0.067234084   -17.036218 -0.041707817    3518.4055    1528.2858    935.44628    899.61352    28.379512    18.846387    14.336313 0.00064793848 0.00064685258 0.00063802041 0.00063702696    296.25276     41.49527    35.978931    34.423473    90.016431    119.66323    90.107069    18.846873    14.336963    28.379932    18.849859    14.339268 
  968000    301.67787    1.2509986    1977.5242   -1196.1792   -211.49952     2071.254   -2309.1921    1106.8187    44657.537 -0.067234084   -17.036218 -0.041707817    3411.6416    1498.9832    896.90733     870.0088    28.380674    18.845307    14.337637 0.00060163357 0.00060081286 0.00056940992 0.00056705349    301.67787     41.49527    35.978931    34.423473    90.016431    119.66323    90.107069    18.845895    14.336927    28.379677    18.848764    14.338128 
  969000    293.06568    1.2509986    1978.0717   -1192.8438   -211.49952     2069.008   -2309.5165   -178.11886    44657.537 -0.067234084   -17.036218 -0.041707817    3411.4241    1475.3858    929.20012    853.63893    28.380987    18.846258    14.337525 0.00062013664 0.00061997343 0.00060873902 0.00060703771    293.06568     41.49527    35.978931    34.423473    90.016431    119.66323    90.107069    18.846375    14.337894    28.380805    18.849309    14.339403 
  970000    299.49248    1.2509986    2097.3188   -1187.4065   -211.49952    2077.2897   -2309.0125    385.05749    44657.537 -0.067234084   -17.036218 -0.041707817    3516.4481     1589.042    917.77041    859.70032    28.379343    18.845191    14.337309 0.00061234199 0.00061214423 0.00056975645 0.00056469421    299.49248     41.49527    35.978931    34.423473    90.016431    119.66323    90.107069    18.845874     14.33781    28.381153    18.847433    14.339499 
  971000    300.04255    1.2509986    1957.4899   -1196.9478   -211.49952    2069.4373   -2309.5749   -196.71347    44657.537 -0.067234084   -17.036218 -0.041707817    3394.5753    1511.8368    883.13364    851.34158    28.378465    18.845189    14.336887 0.00062689987 0.00062678105 0.00061502397 0.00061437965    300.04255     41.49527    35.978931    34.423473    90.016431    119.66323    90.107069    18.846021    14.337446    28.379198    18.849306    14.338983 
  972000     299.0188    1.2509986    2016.2177   -1200.9024   -211.49952    2076.5324   -2309.4025    110.65853    44657.537 -0.067234084   -17.036218 -0.041707817    3449.9901    1531.4306    906.15475    861.47815    28.379546    18.845731    14.337464 0.00059817431 0.00059770036 0.00059085926 0.00058912502     299.0188     41.49527    35.978931    34.423473    90.016431    119.66323    90.107069    18.846106    14.338244    28.380137    18.848908    14.340815 
  973000    300.46504    1.2509986     2041.698   -1201.9003   -211.49952    2067.6827   -2309.7318   -413.65533    44657.537 -0.067234084   -17.036218 -0.041707817    3485.6473    1516.6859    937.83071    880.92791    28.381655    18.844842    14.337286 0.00060623769 0.00060607156 0.00061413402 0.00061310177    300.46504     41.49527    35.978931    34.423473    90.016431    119.66323    90.107069    18.846441    14.337425    28.380176    18.848347     14.34009 
  974000    297.97863    1.2509986    1965.7888   -1177.0363   -211.49952    2069.4693   -2309.4606    1262.4467    44657.537 -0.067234084   -17.036218 -0.041707817    3382.8163    1499.6156    895.62341    842.69085    28.380689    18.845495    14.337843 0.00064583632 0.00064567913 0.00063601862 0.00063169837    297.97863     41.49527    35.978931    34.423473    90.016431    119.66323    90.107069    18.846419     14.33798    28.378973    18.848029    14.341374 
  975000    291.63803    1.2509986    1999.7436   -1175.0208   -211.49952    2069.7433   -2309.3774    97.941233    44657.537 -0.067234084   -17.036218 -0.041707817    3414.3984    1520.7079    913.62051    833.88744    28.381818    18.845331    14.337785 0.00062522824 0.00062487941 0.0005965109 0.00059497304    291.63803     41.49527    35.978931    34.423473    90.016431    119.66323    90.107069    18.846057    14.337212    28.380479     18.84859    14.338925 
  976000    293.62605    1.2509986    2100.4657    -1190.194   -211.49952    2073.4627   -2309.5012    725.74788    44657.537 -0.067234084   -17.036218 -0.041707817    3526.6981    1535.1811     934.2812    902.49186    28.379742    18.846826    14.337209 0.00059878601 0.00059841005 0.00057179981 0.00056545976    293.62605     41.49527    35.978931    34.423473    90.016431    119.66323    90.107069    18.845913    14.337875    28.379691    18.847835    14.341859 
  977000    304.09805    1.2509986    1922.8219   -1193.5416   -211.49952    2072.5234    -2309.625    1182.0745    44657.537 -0.067234084   -17.036218 -0.041707817    3353.4651    1485.7456    858.88917    861.40834    28.379817    18.846226    14.338264 0.00060615108 0.00060590748 0.00059532303 0.00059252416    304.09805     41.49527    35.978931    34.423473    90.016431    119.66323    90.107069    18.846527    14.338087    28.378017    18.849634    14.339847 
  978000    296.16738    1.2509986    2071.5676   -1181.6449   -211.49952    2074.1248   -2309.0471    730.68072    44657.537 -0.067234084   -17.036218 -0.041707817    3488.1348    1516.4464    936.82103    879.50784    28.381453    18.846007    14.337963 0.0006135526 0.0006127929 0.00060528247 0.00059987079    296.16738     41.49527    35.978931    34.423473    90.016431    119.66323    90.107069    18.845651     14.33793    28.380207     18.84757    14.341343 
  979000    301.13166    1.2509986    2016.2032   -1189.9899   -211.49952    2072.6999   -2309.5965    1405.2467    44657.537 -0.067234084   -17.036218 -0.041707817    3443.0898    1525.3628    910.35359    859.06924    28.379758    18.845634    14.337497 0.00062715997 0.00062709546 0.00058995278 0.00058973475    301.13166     41.49527    35.978931    34.423473    90.016431    119.66323    90.107069    18.846418    14.337799    28.379337    18.849265    14.339964 
  980000    301.22974    1.2509986    2005.4414   -1198.8775   -211.49952    2074.4437    -2309.325   -1051.0195    44657.537 -0.067234084   -17.036218 -0.041707817    3439.2001    1543.9333    918.17528    837.06664    28.379237    18.845826    14.337661 0.00063790814 0.00063781777 0.00065131374 0.00064871627    301.22974     41.49527    35.978931    34.423473    90.016431    119.66323    90.107069    18.846024    14.337935    28.380373    18.848849    14.341018 
  981000    297.58858    1.2509986    2023.1937   -1196.3158   -211.49952    2069.4411   -2309.4809   -489.55056    44657.537 -0.067234084   -17.036218 -0.041707817    3459.5492     1515.575    914.96017    874.82514    28.376793    18.844979    14.336829 0.00061430419 0.00061289185 0.00054813096 0.00054591744    297.58858     41.49527    35.978931    34.423473    90.016431    119.66323    90.107069    18.845889    14.337947    28.378418    18.849013    14.340595 
  982000    297.01209    1.2509986     2068.517   -1199.4587   -211.49952    2073.1827   -2309.3143    -356.5018    44657.537 -0.067234084   -17.036218 -0.041707817    3504.1073    1564.3059     899.4643    886.51762    28.381623    18.845932     14.33776 0.00064608744 0.00064395224 0.00065617851 0.00065133481    297.01209     41.49527    35.978931    34.423473    90.016431    119.66323    90.107069    18.847296    14.337413    28.380619    18.850475    14.340894 
  983000    293.42331    1.2509986    1999.8793   -1202.0329   -211.49952    2072.7726    -2309.119   -881.30019    44657.537 -0.067234084   -17.036218 -0.041707817    3438.2586    1504.0038    905.42951    877.22302    28.379004    18.845438    14.337082 0.0006283708 0.00062719222 0.00062403605 0.00061820532    293.42331     41.49527    35.978931    34.423473    90.016431    119.66323    90.107069    18.845969    14.337523    28.381444    18.848487    14.338227 
  984000    302.54311    1.2509986    2027.4069   -1182.1991   -211.49952    2071.7694   -2309.3599    -452.8038    44657.537 -0.067234084   -17.036218 -0.041707817    3447.1964    1519.2234    918.70766    858.42734    28.380496    18.845559    14.336823 0.00062479636 0.00062433716 0.00061322393 0.00061128709    302.54311     41.49527    35.978931    34.423473    90.016431    119.66323    90.107069     18.84595      14.3373    28.379008    18.847834    14.340134 
  985000    300.23763    1.2509986     2004.767   -1189.4381   -211.49952    2070.2243   -2309.3819    21.267416    44657.537 -0.067234084   -17.036218 -0.041707817    3433.3627     1476.502    913.95323     886.6811    28.377385    18.846334    14.337235 0.00063691972 0.00063678972 0.00062885508 0.00062830042    300.23763     41.49527    35.978931    34.423473    90.016431    119.66323    90.107069    18.846483      14.3378    28.380102    18.848973    14.339132 
  986000    302.65678    1.2509986    2029.5147   -1190.4642   -211.49952    2072.8823   -2309.2841    156.52897    44657.537 -0.067234084   -17.036218 -0.041707817    3456.3808    1535.4753    918.66617    858.59447    28.380392      18.8463    14.336902 0.00063782132 0.00063737896 0.0006077578 0.00060729129    302.65678     41.49527    35.978931    34.423473    90.016431    119.66323    90.107069    18.846696    14.337321     28.37898    18.849374      14.3397 
  987000    299.24296    1.2509986    2050.8037   -1181.1068   -211.49952    2074.9447     -2309.21    1838.0035    44657.537 -0.067234084   -17.036218 -0.041707817    3466.1759    1517.5828    965.86409     838.0722    28.379529    18.845013    14.337783 0.00061934039 0.00061871177 0.00057298754 0.00057247071    299.24296     41.49527    35.978931    34.423473    90.016431    119.66323    90.107069    18.846395    14.337595    28.379271    18.848437    14.339959 
  988000    300.78455    1.2509986    2061.0665   -1190.3717   -211.49952    2068.8778   -2309.3887   -408.56445    44657.537 -0.067234084   -17.036218 -0.041707817    3491.9491    1557.3324    910.78907    873.98788    28.380132    18.845197     14.33809 0.00060024631 0.00059943934 0.00064347261 0.00064203593    300.78455     41.49527    35.978931    34.423473    90.016431    119.66323    90.107069     18.84641    14.338388    28.380178    18.849131    14.340656 
  989000    296.07419    1.2509986    1994.8209   -1182.4286   -211.49952    2071.7836   -2309.7601    388.97015    44657.537 -0.067234084   -17.036218 -0.041707817    3415.2261    1490.6988    915.83194    857.65513    28.380388    18.844842    14.337809 0.00061303075 0.00061292555 0.00059785867 0.00059582731    296.07419     41.49527    35.978931    34.423473    90.016431    119.66323    90.107069    18.845968     14.33793    28.380481    18.847936    14.339505 
  990000    297.48525    1.2509986      2000.21   -1196.1209   -211.49952    2072.1587   -2309.3072     378.3856    44657.537 -0.067234084   -17.036218 -0.041707817    3433.4794     1517.257    907.55584    860.55263    28.379638    18.846249     14.33742 0.00062964275 0.00062939569 0.00060774836 0.00060187424    297.48525     41.49527    35.978931    34.423473    90.016431    119.66323    90.107069    18.846289    14.337785    28.379845    18.847301    14.337947 
  991000     294.4316    1.2509986    2040.7558   -1196.5193   -211.49952    2066.1924    -2309.905   -970.20262    44657.537 -0.067234084   -17.036218 -0.041707817    3480.9876    1520.3411    907.67808    896.87592    28.379819    18.845947    14.337726 0.00061949961 0.00061897474 0.00060248976 0.00060072006     294.4316     41.49527    35.978931    34.423473    90.016431    119.66323    90.107069    18.845762    14.337831     28.37951    18.847768    14.339171 
  992000    297.28152    1.2509986    2093.6667   -1200.6704   -211.49952    2070.8962   -2309.4205   -235.93322    44657.537 -0.067234084   -17.036218 -0.041707817    3532.8613    1580.5449    919.31687    882.16715    28.378564     18.84496    14.337212 0.00063554669 0.00063456938 0.00061391158 0.00061214367    297.28152     41.49527    35.978931    34.423473    90.016431    119.66323    90.107069    18.846049    14.337532    28.378275    18.848681    14.339514 
  993000    299.68897    1.2509986    2035.6003   -1180.8059   -211.49952    2074.5513   -2309.3545    2855.9973    44657.537 -0.067234084   -17.036218 -0.041707817    3451.2095    1491.3456    920.40206    886.04234    28.381848     18.84703    14.337643 0.00060933636 0.00060915436 0.00061032289 0.00060910318    299.68897     41.49527    35.978931    34.423473    90.016431    119.66323    90.107069    18.846321    14.337481    28.379731     18.84796    14.339352 
  994000    298.64421    1.2509986    2062.8198   -1192.2252   -211.49952    2070.6187   -2309.2629   -790.55821    44657.537 -0.067234084   -17.036218 -0.041707817    3493.6893     1547.425    895.50064      893.032    28.380343    18.846273    14.337591 0.00065538094 0.00065494267 0.00068910604 0.00068607327    298.64421     41.49527    35.978931    34.423473    90.016431    119.66323    90.107069    18.846614    14.338234    28.379191    18.850362    14.340677 
  995000    302.22454    1.2509986     2046.755   -1213.1778   -211.49952    2072.8903   -2309.5148   -619.37783    44657.537 -0.067234084   -17.036218 -0.041707817    3496.5573    1560.1516    907.68091    875.64552     28.38075    18.845813     14.33813 0.0006307278 0.00063057152 0.00063088389 0.0006292646    302.22454     41.49527    35.978931    34.423473    90.016431    119.66323    90.107069    18.846497    14.337888    28.378762    18.849971    14.339903 
  996000     292.8407    1.2509986    1980.1961    -1192.743   -211.49952     2069.511   -2309.6272    1202.5751    44657.537 -0.067234084   -17.036218 -0.041707817    3413.0554    1491.8096    912.97781    859.63154    28.381426    18.844806    14.338346 0.0006271625 0.00062503366 0.00058834409 0.00058118679     292.8407     41.49527    35.978931    34.423473    90.016431    119.66323    90.107069    18.845932    14.339041    28.380076     18.84916    14.342258 
  997000    298.21016    1.2509986    2044.5586    -1201.122   -211.49952    2070.8595   -2309.2241    207.46415    44657.537 -0.067234084   -17.036218 -0.041707817    3484.0452     1527.863    931.34711    872.42985    28.381449    18.844501    14.337735 0.00063446363 0.00063400145 0.00061699125 0.00061316864    298.21016     41.49527    35.978931    34.423473    90.016431    119.66323    90.107069    18.846128    14.337528    28.381355    18.848862    14.338887 
  998000    298.54335    1.2509986    2042.2779   -1196.1655   -211.49952    2073.4352    -2309.215    101.31324    44657.537 -0.067234084   -17.036218 -0.041707817    3474.2231    1529.1894    933.11363    858.66487    28.381755    18.846762    14.338489 0.00061863568 0.00061800388 0.00059651117 0.00059618701    298.54335     41.49527    35.978931    34.423473    90.016431    119.66323    90.107069    18.846862    14.337915    28.379577    18.849383    14.339206 
  999000    298.47542    1.2509986    2024.5501    -1180.008   -211.49952    2076.8456   -2309.2531     1246.418    44657.537 -0.067234084   -17.036218 -0.041707817    3436.9656    1546.1566    905.94287    840.32557    28.380854    18.846619    14.337603 0.00061517187 0.00061503306 0.00062274017 0.00062217242    298.47542     41.49527    35.978931    34.423473    90.016431    119.66323    90.107069    18.845879    14.337663    28.379621    18.848267    14.339555 
 1000000    300.75175    1.2509986    2092.0203   -1179.6056   -211.49952    2072.0333   -2309.6811    1219.7366    44657.537 -0.067234084   -17.036218 -0.041707817    3509.2737     1551.443     925.4035    880.48817    28.380666    18.844794    14.337711 0.00061766658 0.00061744762 0.00059915307 0.00059865973    300.75175     41.49527    35.978931    34.423473    90.016431    119.66323    90.107069    18.846046    14.338154    28.380107    18.849447    14.339591 
Loop time of 3106.87 on 60 procs for 1000000 steps with 4560 atoms

Pair  time (%) = 543.186 (17.4834)
Bond  time (%) = 58.8404 (1.89388)
Kspce time (%) = 1634.48 (52.6084)
Neigh time (%) = 2.03027 (0.0653477)
Comm  time (%) = 594.567 (19.1371)
Outpt time (%) = 3.09769 (0.0997043)
Other time (%) = 270.677 (8.7122)

Nlocal:    76 ave 85 max 66 min
Histogram: 1 1 1 13 13 11 6 10 2 2
Nghost:    3991.92 ave 4080 max 3889 min
Histogram: 5 7 6 1 2 8 7 13 9 2
Neighs:    28103 ave 31686 max 24597 min
Histogram: 2 0 6 15 11 8 7 5 4 2

Total # of neighbors = 1686182
Ave neighs/atom = 369.777
Ave special neighs/atom = 10.6316
Neighbor list builds = 921
Dangerous builds = 0
System init for write_data ...
PPPM initialization ...
  G vector (1/distance) = 0.246499
  grid = 16 16 20
  stencil order = 5
  estimated absolute RMS force accuracy = 0.00242397
  estimated relative force accuracy = 7.2997e-06
  using double precision FFTs
  3d grid and FFT values/proc = 1053 112
