 initial data file for methyl peroxyl

     12  atoms
     10  bonds
     14  angles
     6 dihedrals
   4 atom types
   3 bond types
   3 angle types
   1 dihedral types
 -50.0 50.0 xlo xhi
 -50.0 50.0 ylo yhi
 -50.0 50.0 zlo zhi

 Atoms

   1  1  1     0.0260    -1.1632    -0.0930    -0.2982
   2  1  2     0.0900    -1.4779    -0.7519     0.5124
   3  1  2     0.0900    -1.0395    -0.6531    -1.2262
   4  1  2     0.0900    -1.8613     0.7352    -0.4272
   5  1  3   -0.15100    0.10494    0.51954    0.05639
   6  1  4   -0.14500    1.04110   -0.40796    0.23857
   7  2  1     0.0260    39.3752     0.5396    -0.8769
   8  2  2     0.0900    39.9487     1.4663    -0.9270
   9  2  2     0.0900    38.4429     0.6906    -0.3307
  10  2  2     0.0900    39.1880     0.1370    -1.8733
  11  2  3   -0.15100   40.16552   -0.46856   -0.19278
  12  2  4   -0.14500   40.45436   -0.07947    1.04618

 Bonds

    1  1     1     2
    2  1     1     3
    3  1     1     4
    4  2     1     5
    5  3     5     6
    6  1     7     8
    7  1     7     9
    8  1     7    10
    9  2     7    11
    10 3     11   12

 Angles

    1  1     2    1    3
    2  1     2    1    4
    3  1     3    1    4
    4  2     2    1    5
    5  2     3    1    5
    6  2     4    1    5
    7  3     1    5    6
    8  1     8    7    9
    9  1     8    7   10
   10  1     9    7   10
   11  2     8    7   11
   12  2     9    7   11
   13  2    10    7   11
   14  3     7   11   12

 Dihedrals

    1  1     2    1    5    6
    2  1     3    1    5    6
    3  1     4    1    5    6
    4  1     8    7   11   12
    5  1     9    7   11   12
    6  1    10    7   11   12

