LAMMPS data file via write_data, version 15 May 2015, timestep = 2000000

4560 atoms
7 atom types
5040 bonds
3 bond types
7200 angles
2 angle types
10560 dihedrals
3 dihedral types
2400 impropers
1 improper types

-1.0763502675555259e-01 4.1387635026745990e+01 xlo xhi
-4.0433884491974936e-02 3.5938433884472119e+01 ylo yhi
-3.5711112484589691e-01 2.9555111124838550e+01 zlo zhi
-6.7234083837551181e-02 -1.7036217651000683e+01 -4.1707816797290791e-02 xy xz yz

Masses

1 12.0107
2 1.008
3 12.0107
4 12.0107
5 12.0107
6 12.0107
7 12.0107

Pair Coeffs # lj/cut/coul/cut

1 0 0
2 0 0
3 0 0
4 0 0
5 0 0
6 0 0
7 0 0

Bond Coeffs # harmonic

1 469 1.4
2 367 1.08
3 469 0.7

Angle Coeffs # harmonic

1 35 120
2 63 120

Dihedral Coeffs # opls

1 0 7.25 0 0
2 0 7.25 0 0
3 0 7.25 0 0

Improper Coeffs # cvff

1 2.5 -1 2

Atoms # full

219 13 3 0.0000000000000000e+00 -2.4123805511207874e-01 3.0998601042909844e+00 3.1474079319663204e+00 1 0 0
220 13 4 0.0000000000000000e+00 3.0144341006399644e-01 4.1411336737168876e+00 2.3540254360221438e+00 1 0 0
224 13 2 0.0000000000000000e+00 2.7518813304221834e-01 5.1350266969210621e+00 2.8073067662173146e+00 1 0 0
580 33 4 0.0000000000000000e+00 2.6904631093929736e+00 6.7640307641857840e+00 3.9931328175033318e+00 1 0 0
228 13 3 0.0000000000000000e+00 -5.2165834710505665e-01 1.8463596565056473e+00 2.6057101302826768e+00 1 0 0
989 53 4 0.0000000000000000e+00 -1.3845359506466690e+00 7.0604475988000042e+00 3.5129464213476731e+00 1 0 0
600 34 2 0.0000000000000000e+00 2.4510703359235553e-01 5.9342770842356787e+00 6.9629151227066224e+00 1 0 0
245 14 4 0.0000000000000000e+00 -4.9393670384692898e+00 1.4098673191644027e+00 9.0145351894507257e+00 1 0 0
227 13 4 0.0000000000000000e+00 -1.6901269269985397e-01 1.5465314370330807e+00 1.2475181445022083e+00 1 0 0
4390 233 1 0.0000000000000000e+00 2.6141721999534981e+00 8.6214038346340727e-01 5.5144578573293161e+00 1 1 0
733 13 6 0.0000000000000000e+00 -4.3954154932370826e-01 2.4285809961785110e+00 2.9404313805741027e+00 1 0 0
251 14 2 0.0000000000000000e+00 -6.1729119258664857e+00 1.2766418734102732e-03 1.0891054404988653e+01 1 0 0
230 13 1 0.0000000000000000e+00 5.1861194276983880e-01 3.8505607935339055e+00 1.0079907436133679e+00 1 0 0
217 13 7 0.0000000000000000e+00 -1.2818608749689606e+00 2.4348518098254819e+00 5.2509983775558453e+00 1 0 0
218 13 5 0.0000000000000000e+00 -5.9829641709501935e-01 3.3947556496827129e+00 4.4679336247952008e+00 1 0 0
221 13 1 0.0000000000000000e+00 -1.5428168366996218e+00 1.1813218228360287e+00 4.7029356179724298e+00 1 0 0
222 13 2 0.0000000000000000e+00 -1.7028926835094986e+00 2.7985831952732378e+00 6.1809251277574244e+00 1 0 0
223 13 2 0.0000000000000000e+00 -3.0724105668860391e-01 4.4309139022003796e+00 4.7815166236249267e+00 1 0 0
248 14 1 0.0000000000000000e+00 -3.5656051920678653e+00 3.4546449498514802e+00 8.7275917398705616e+00 1 0 0
4380 233 4 0.0000000000000000e+00 2.5679575214572150e+00 1.1102510611068019e+00 4.1249123335893181e+00 1 1 0
244 14 1 0.0000000000000000e+00 -4.1873671083304513e+00 2.3005320558803004e+00 8.2017256734550585e+00 1 0 0
603 34 2 0.0000000000000000e+00 1.3024894093513328e+00 3.8785387490134564e+00 7.6538723678812879e+00 1 0 0
4396 234 5 0.0000000000000000e+00 -7.7637205586434987e-01 2.2442194220606967e-01 9.2682939376095899e+00 1 1 0
4394 233 2 0.0000000000000000e+00 2.2457746549711701e+00 1.6750385936608689e+00 6.1949994159759143e+00 1 1 0
579 33 3 0.0000000000000000e+00 3.3310199309798323e+00 5.8103710695332502e+00 3.1941609853287996e+00 1 0 0
252 14 2 0.0000000000000000e+00 -3.0757595121140255e+00 4.1881135954035873e+00 8.0452603527954967e+00 1 0 0
581 33 1 0.0000000000000000e+00 4.6216736583654292e+00 3.9694082603496064e+00 1.4514227036932961e+00 1 0 0
596 34 5 0.0000000000000000e+00 -5.1528009756002113e-01 6.3667963590356171e+00 8.9251883362890450e+00 1 0 0
577 33 7 0.0000000000000000e+00 4.1684939591092220e+00 5.2214967954627802e+00 1.0037568667588399e+00 1 0 0
588 33 3 0.0000000000000000e+00 3.8777173240412681e+00 4.6691682516580535e+00 3.7476167041669752e+00 1 0 0
589 33 4 0.0000000000000000e+00 4.4533262208960220e+00 3.7482930042723939e+00 2.8232588358833723e+00 1 0 0
593 33 2 0.0000000000000000e+00 4.8952547830550612e+00 2.8836388962458761e+00 3.2945275192524708e+00 1 0 0
753 33 6 0.0000000000000000e+00 3.6483305252419660e+00 5.1948083164751973e+00 3.3033458775798716e+00 1 0 0
4383 233 2 0.0000000000000000e+00 3.0058449279629347e+00 1.4065712256742451e+00 1.5140071741145866e+00 1 1 0
4379 233 3 0.0000000000000000e+00 3.2845025801246299e+00 2.1927882024122816e-01 3.2568485881721969e+00 1 1 0
578 33 5 0.0000000000000000e+00 3.4801168681570225e+00 6.1369696692504609e+00 1.8255756839752375e+00 1 0 0
226 13 1 0.0000000000000000e+00 3.0459351677799745e-01 2.6019093112102096e+00 4.8110109156383929e-01 1 0 0
4384 233 2 0.0000000000000000e+00 2.0886779000928453e+00 1.9057130113584846e+00 3.6036295278467074e+00 1 1 0
586 33 1 0.0000000000000000e+00 3.0093375053327072e+00 5.2778033205038932e+00 5.8817584427807850e+00 1 0 0
587 33 4 0.0000000000000000e+00 3.8130052256100231e+00 4.4305609496127403e+00 5.1541650278574984e+00 1 0 0
585 33 2 0.0000000000000000e+00 5.1755902572820416e+00 3.2811590681472786e+00 7.9078052999052062e-01 1 0 0
591 33 2 0.0000000000000000e+00 2.8479595731329184e+00 5.0402452037166521e+00 6.8608384490613137e+00 1 0 0
592 33 2 0.0000000000000000e+00 4.0609949153303582e+00 3.4258449915749343e+00 5.5917763924139594e+00 1 0 0
590 33 1 0.0000000000000000e+00 2.4247407185056873e+00 6.4177729513903499e+00 5.3436448064079984e+00 1 0 0
2131 114 2 0.0000000000000000e+00 9.9349087852176066e-01 1.4608772723258094e+01 1.0059713143026380e+01 1 0 0
234 13 2 0.0000000000000000e+00 7.4616270552407227e-01 4.6658823238392468e+00 3.5609224699309339e-01 1 0 0
229 13 4 0.0000000000000000e+00 -1.1888869011475762e+00 8.8542898784758606e-01 3.3836808049537357e+00 1 0 0
1756 94 5 0.0000000000000000e+00 -4.6093226402953036e+00 1.5190325966844211e+01 1.1971960877639741e+01 1 0 0
985 53 2 0.0000000000000000e+00 -1.8224970001344527e+00 6.3633939246132947e+00 5.5232372371697522e+00 1 0 0
599 34 1 0.0000000000000000e+00 6.6826695809519254e-01 4.3260183773020566e+00 8.3563911790080727e+00 1 0 0
4401 234 2 0.0000000000000000e+00 -1.0999451855341489e+00 1.1889819455856994e+00 8.9418833620374585e+00 1 1 0
225 13 2 0.0000000000000000e+00 -2.0992798187010697e+00 4.7794402269712782e-01 5.3246460880260393e+00 1 0 0
595 34 7 0.0000000000000000e+00 1.0733876361185146e-01 5.5432939893878865e+00 7.9571244729787090e+00 1 0 0
981 53 1 0.0000000000000000e+00 -1.3268958175223322e+00 7.1186731598794601e+00 4.9339367568839831e+00 1 0 0
4378 233 5 0.0000000000000000e+00 3.4057803512738185e+00 5.3155181743539870e-01 1.9196344751645311e+00 1 1 0
582 33 2 0.0000000000000000e+00 4.2245961819273701e+00 5.5426729827168391e+00 -1.5864333445554046e-02 1 0 0
583 33 2 0.0000000000000000e+00 3.1205049639180142e+00 7.0455034541221906e+00 1.4120838500435025e+00 1 0 0
1010 54 2 0.0000000000000000e+00 -4.8137491145012454e+00 6.1718882712386947e+00 8.7062610418370596e+00 1 0 0
232 13 2 0.0000000000000000e+00 -2.5064362179194949e-01 5.4892674275106190e-01 8.2001366874106885e-01 1 0 0
235 14 7 0.0000000000000000e+00 -5.1529933976399560e+00 2.2880119100027496e+00 1.3182202949666724e+01 1 0 0
236 14 5 0.0000000000000000e+00 -4.5672531069397113e+00 3.1865930278284358e+00 1.2300293585603393e+01 1 0 0
597 34 3 0.0000000000000000e+00 -5.6879151062335254e-01 5.9579283894408590e+00 1.0259948556445099e+01 1 0 0
734 14 6 0.0000000000000000e+00 -4.6392438895060693e+00 2.3511989351514608e+00 1.0492437880363450e+01 1 0 0
239 14 1 0.0000000000000000e+00 -5.7796254329245977e+00 1.1621087855873782e+00 1.2633522716903263e+01 1 0 0
240 14 2 0.0000000000000000e+00 -5.2372280411310577e+00 2.4899845943364340e+00 1.4251390888383472e+01 1 0 0
243 14 2 0.0000000000000000e+00 -6.3441772640002752e+00 4.8500782695367967e-01 1.3201214246533825e+01 1 0 0
237 14 3 0.0000000000000000e+00 -4.4667004332604687e+00 2.8820536096378251e+00 1.0921268044487524e+01 1 0 0
4402 234 2 0.0000000000000000e+00 -1.8355299463807162e+00 1.6973768855100184e+00 1.1052945215789583e+01 1 1 0
1011 54 2 0.0000000000000000e+00 -6.2096306919965043e+00 6.2077532114625118e+00 1.0786767779808571e+01 1 0 0
242 14 2 0.0000000000000000e+00 -3.2013070982171121e+00 4.5953155579293172e+00 1.0358320090506968e+01 1 0 0
4408 234 1 0.0000000000000000e+00 -2.0046329023178044e+00 2.7258943502624383e-01 1.2618781621440970e+01 1 1 0
238 14 4 0.0000000000000000e+00 -3.7376165562182915e+00 3.7265635260471583e+00 1.0074218033297136e+01 1 0 0
246 14 3 0.0000000000000000e+00 -5.0424688609820887e+00 1.7115526806458110e+00 1.0417038017064977e+01 1 0 0
604 34 1 0.0000000000000000e+00 -9.8803649624181045e-01 4.8770237752548615e+00 1.2741363203258336e+01 1 0 0
605 34 4 0.0000000000000000e+00 -3.8245394778169661e-01 4.0895447339063677e+00 1.1817217255719303e+01 1 0 0
606 34 3 0.0000000000000000e+00 -1.8295354747464110e-01 4.6335156654790426e+00 1.0571815427383445e+01 1 0 0
607 34 4 0.0000000000000000e+00 4.3448319828100690e-01 3.7867681226857663e+00 9.6005505684943859e+00 1 0 0
611 34 2 0.0000000000000000e+00 7.7278623536633617e-01 2.7641012238458531e+00 9.8473271662453818e+00 1 0 0
610 34 2 0.0000000000000000e+00 -2.7433344595951592e-01 3.0467040958065708e+00 1.2060451532927202e+01 1 0 0
241 14 2 0.0000000000000000e+00 -4.1608985726560492e+00 4.1322777342336110e+00 1.2633670484000168e+01 1 0 0
1342 73 2 0.0000000000000000e+00 4.5300550436242011e+00 1.1765908650099368e+01 -1.9834169389023742e-01 1 0 0
598 34 4 0.0000000000000000e+00 -1.2065821810433741e+00 6.7658113044779471e+00 1.1192969954473869e+01 1 0 0
754 34 6 0.0000000000000000e+00 -4.2567363121051738e-01 5.2794999124851447e+00 1.0504977005990348e+01 1 0 0
609 34 2 0.0000000000000000e+00 -1.0552110888579689e+00 4.4304312840518305e+00 1.3703475118517456e+01 1 0 0
4398 234 4 0.0000000000000000e+00 -1.6318242759274124e+00 7.5216599270926421e-01 1.1394791893817068e+01 1 1 0
4412 234 2 0.0000000000000000e+00 -2.5847373628073047e+00 8.6766806233395055e-01 1.3245160483674614e+01 1 1 0
247 14 4 0.0000000000000000e+00 -5.7374896883247199e+00 9.0696997163256710e-01 1.1290032943023155e+01 1 0 0
608 34 1 0.0000000000000000e+00 -1.4632619690970898e+00 6.2065659203808909e+00 1.2428426307323075e+01 1 0 0
612 34 2 0.0000000000000000e+00 -2.0302618892827464e+00 6.7323154357290189e+00 1.3145578787557694e+01 1 0 0
979 53 3 0.0000000000000000e+00 -1.5941315426139413e-01 9.1527782182666080e+00 3.3346634103800046e+00 1 0 0
980 53 4 0.0000000000000000e+00 5.9639682554366824e-01 1.0021390943217282e+01 2.5493628682544442e+00 1 0 0
984 53 2 0.0000000000000000e+00 1.1442519328194229e+00 1.0827273337835521e+01 3.0852247766174088e+00 1 0 0
1361 74 2 0.0000000000000000e+00 -1.1430943920576695e+00 1.3237302054297027e+01 8.4127962711213264e+00 1 0 0
990 53 1 0.0000000000000000e+00 6.8837208722374721e-01 9.9170530413546096e+00 1.1403670430053092e+00 1 0 0
2253 93 6 0.0000000000000000e+00 -3.7716795791507329e-01 1.4279676793389021e+01 2.9832516525260870e+00 1 0 0
1493 53 6 0.0000000000000000e+00 -5.8003757247424725e-01 8.6499825731417186e+00 2.9851392259138145e+00 1 0 0
986 53 1 0.0000000000000000e+00 -4.0990499009171733e-02 8.9243546269969070e+00 5.5395164920713802e-01 1 0 0
1005 54 4 0.0000000000000000e+00 -4.5312717614366997e+00 7.1981232096459884e+00 8.9107948119832052e+00 1 0 0
994 53 2 0.0000000000000000e+00 1.2648759418606006e+00 1.0608945927326477e+01 5.6580709082201375e-01 1 0 0
594 33 2 0.0000000000000000e+00 1.8874759841356989e+00 7.0374311208377485e+00 6.0045962215734274e+00 1 0 0
1741 93 1 0.0000000000000000e+00 -1.5229540738988676e+00 1.3527381579535550e+01 4.9107242230215382e+00 1 0 0
977 53 7 0.0000000000000000e+00 -8.2120489223974902e-01 8.2801129639189242e+00 5.4626147534957221e+00 1 0 0
978 53 5 0.0000000000000000e+00 -1.5998878732271882e-01 9.2302514660117456e+00 4.7378681222324683e+00 1 0 0
982 53 2 0.0000000000000000e+00 -9.2859632820975557e-01 8.4864399130233998e+00 6.5146702874521685e+00 1 0 0
983 53 2 0.0000000000000000e+00 3.2840373635394071e-01 1.0083743517248935e+01 5.2257041220700406e+00 1 0 0
1012 54 2 0.0000000000000000e+00 -2.2990536600568143e+00 9.5636250089681756e+00 7.6557820441578848e+00 1 0 0
1004 54 1 0.0000000000000000e+00 -3.6440700382097204e+00 7.8070769554329038e+00 8.0254983451271009e+00 1 0 0
1363 74 2 0.0000000000000000e+00 1.2946586201822026e+00 9.6520467547629067e+00 7.7262818669788391e+00 1 0 0
1745 93 2 0.0000000000000000e+00 -2.1151340291817839e+00 1.2971346851914047e+01 5.6402187676438880e+00 1 0 0
1008 54 1 0.0000000000000000e+00 -3.0085988696721344e+00 9.0599955082688677e+00 8.3546893248668681e+00 1 0 0
1338 73 5 0.0000000000000000e+00 3.6446638773045690e+00 1.2286679072027949e+01 1.7178511553506164e+00 1 0 0
1339 73 3 0.0000000000000000e+00 3.5338655147488183e+00 1.1929159938278262e+01 3.0487682688167932e+00 1 0 0
1340 73 4 0.0000000000000000e+00 2.8467196636121770e+00 1.2762339244658254e+01 3.9175184670831769e+00 1 0 0
1341 73 1 0.0000000000000000e+00 4.8495117407060544e+00 1.0241449393458010e+01 1.3185369077480187e+00 1 0 0
1337 73 7 0.0000000000000000e+00 4.3279058375174264e+00 1.1471994216773775e+01 8.1202090137697192e-01 1 0 0
1343 73 2 0.0000000000000000e+00 3.2556449405247756e+00 1.3227993994896247e+01 1.3589993726193896e+00 1 0 0
988 53 3 0.0000000000000000e+00 -7.9682163354579461e-01 8.0748514098275272e+00 2.6939656079097039e+00 1 0 0
1348 73 3 0.0000000000000000e+00 4.0037529591348262e+00 1.0721313252171655e+01 3.5112761523481142e+00 1 0 0
1349 73 4 0.0000000000000000e+00 4.6303324753744004e+00 9.8444861411352047e+00 2.6299193602062543e+00 1 0 0
1353 73 2 0.0000000000000000e+00 5.0064778215374943e+00 8.8915781589172393e+00 3.0160490930591415e+00 1 0 0
1513 73 6 0.0000000000000000e+00 3.7098907358476825e+00 1.1271800682151254e+01 3.2527134454678164e+00 1 0 0
1356 74 5 0.0000000000000000e+00 -6.4154810829436926e-01 1.2357506839502239e+01 8.8594506450491579e+00 1 0 0
1354 73 2 0.0000000000000000e+00 2.0610598176109871e+00 1.3079108405149482e+01 5.9383984693884670e+00 1 0 0
1346 73 1 0.0000000000000000e+00 2.9021216290790885e+00 1.1054333468306918e+01 5.6272413781058646e+00 1 0 0
1347 73 4 0.0000000000000000e+00 3.6253514125545454e+00 1.0221368460562276e+01 4.7768096980116086e+00 1 0 0
1350 73 1 0.0000000000000000e+00 2.5437712012666531e+00 1.2386443195850861e+01 5.2131941581537191e+00 1 0 0
1351 73 2 0.0000000000000000e+00 2.7557349534871811e+00 1.0781095093599204e+01 6.6149562672842865e+00 1 0 0
1352 73 2 0.0000000000000000e+00 3.9569906068045078e+00 9.1835962465524243e+00 5.0090554916369125e+00 1 0 0
1345 73 2 0.0000000000000000e+00 5.4301009499552890e+00 9.6331357580000141e+00 7.6413145489301471e-01 1 0 0
1355 74 7 0.0000000000000000e+00 2.5731156430731872e-02 1.1486562799883549e+01 7.9325241535472060e+00 1 0 0
1359 74 1 0.0000000000000000e+00 7.2130315673947543e-01 1.0315064401317361e+01 8.3974673889966471e+00 1 0 0
1360 74 2 0.0000000000000000e+00 3.6372821959083979e-02 1.1803974890539664e+01 6.9620380343161692e+00 1 0 0
1747 93 4 0.0000000000000000e+00 -5.5947334129280424e-01 1.3219940947912500e+01 1.2900596758850882e+00 1 0 0
1748 93 3 0.0000000000000000e+00 -6.6454218610371707e-01 1.3736750424459057e+01 2.6001657301507053e+00 1 0 0
601 34 2 0.0000000000000000e+00 -1.0036433240873288e+00 7.2485945050315461e+00 8.6385684902894901e+00 1 0 0
1762 94 2 0.0000000000000000e+00 -3.3651212345935790e+00 1.6786775792435296e+01 1.0251694007381793e+01 1 0 0
1746 93 1 0.0000000000000000e+00 2.2793963326477923e-01 1.3876558007717968e+01 3.8694681867324565e-01 1 0 0
584 33 2 0.0000000000000000e+00 2.2815060825922773e+00 7.7111288223507461e+00 3.6531819651024353e+00 1 0 0
1760 94 2 0.0000000000000000e+00 -5.4731898494934654e+00 1.4315941586231490e+01 1.3890435091023209e+01 1 0 0
1749 93 4 0.0000000000000000e+00 -1.4179992945371263e+00 1.3079482154836915e+01 3.5798201850231419e+00 1 0 0
2513 133 2 0.0000000000000000e+00 -1.5424169239783909e+00 1.7866561233454615e+01 3.0943001387125655e+00 1 0 0
1344 73 2 0.0000000000000000e+00 2.3485347946498920e+00 1.3596489891166200e+01 3.4321415565775713e+00 1 0 0
1009 54 2 0.0000000000000000e+00 -3.3954605008445213e+00 7.3356422645343917e+00 7.0820809593891791e+00 1 0 0
987 53 4 0.0000000000000000e+00 -7.5566752794603809e-01 7.9710449993959127e+00 1.3202387654184902e+00 1 0 0
995 54 7 0.0000000000000000e+00 -5.3941399484033505e+00 8.9276635305006522e+00 1.2640424642653231e+01 1 0 0
996 54 5 0.0000000000000000e+00 -4.5122645951026570e+00 9.5389547857503612e+00 1.1729608981327628e+01 1 0 0
997 54 3 0.0000000000000000e+00 -4.2415110845086668e+00 9.0404355151857505e+00 1.0466060629283758e+01 1 0 0
1001 54 2 0.0000000000000000e+00 -3.9680858397498588e+00 1.0425926484600369e+01 1.2030306601983462e+01 1 0 0
1371 74 2 0.0000000000000000e+00 1.0653278970722502e+00 9.1409437877419357e+00 1.0252001672393728e+01 1 0 0
1357 74 3 0.0000000000000000e+00 -7.2520094022487402e-01 1.2092251817963088e+01 1.0227440928269592e+01 1 0 0
1767 94 4 0.0000000000000000e+00 -5.9645299233320861e+00 1.3025948182158473e+01 1.0821130939307448e+01 1 0 0
998 54 4 0.0000000000000000e+00 -3.2913404594446698e+00 9.5693369582466676e+00 9.6039938716648567e+00 1 0 0
1494 54 6 0.0000000000000000e+00 -4.5459802365320847e+00 8.4395547877118613e+00 1.0300535138213085e+01 1 0 0
1362 74 2 0.0000000000000000e+00 -1.8182530877087713e+00 1.3965531337572036e+01 1.0776421396599174e+01 1 0 0
1003 54 2 0.0000000000000000e+00 -6.7653221644440222e+00 7.3286369252384720e+00 1.2922167605365477e+01 1 0 0
999 54 1 0.0000000000000000e+00 -6.0035554297454894e+00 7.7792501863692367e+00 1.2256222258889766e+01 1 0 0
1372 74 2 0.0000000000000000e+00 -1.8182767914768094e+00 1.3318418422701695e+01 1.3169104808407576e+01 1 0 0
1514 74 6 0.0000000000000000e+00 -2.6060025438262890e-01 1.1626389159131863e+01 1.0545412307295289e+01 1 0 0
602 34 2 0.0000000000000000e+00 -1.5612110280551486e+00 7.7365216698983463e+00 1.0852501695672808e+01 1 0 0
1358 74 4 0.0000000000000000e+00 -1.3069370323569034e+00 1.3015885953953928e+01 1.1107530986375931e+01 1 0 0
1364 74 1 0.0000000000000000e+00 -5.9105089995323556e-01 1.1518962943491626e+01 1.2957174372524262e+01 1 0 0
1365 74 4 0.0000000000000000e+00 -1.0825773529085136e-01 1.0592245525625351e+01 1.2021992921272037e+01 1 0 0
1366 74 3 0.0000000000000000e+00 -8.6163348115592342e-02 1.0942581590325501e+01 1.0660564031166178e+01 1 0 0
1759 94 1 0.0000000000000000e+00 -5.9421234144070496e+00 1.3176979766535545e+01 1.2210008911260607e+01 1 0 0
1368 74 1 0.0000000000000000e+00 -1.2929299440440110e+00 1.2690031007918723e+01 1.2483579768867170e+01 1 0 0
1369 74 2 0.0000000000000000e+00 -5.0061303518807865e-01 1.1418062852719455e+01 1.4034501865551009e+01 1 0 0
1370 74 2 0.0000000000000000e+00 3.5147055573695507e-01 9.6436666614610758e+00 1.2327770936400938e+01 1 0 0
1378 75 2 0.0000000000000000e+00 -4.0633136372049901e+00 1.1682251817914455e+01 1.3917223954852977e+01 1 0 0
1000 54 2 0.0000000000000000e+00 -5.5993234101111566e+00 9.4403409721078155e+00 1.3570941397930094e+01 1 0 0
1766 94 3 0.0000000000000000e+00 -5.3087018982339984e+00 1.3966855949307586e+01 1.0029893066645869e+01 1 0 0
1006 54 3 0.0000000000000000e+00 -4.8828741981796737e+00 7.8104928880585813e+00 1.0135015966673107e+01 1 0 0
1763 94 2 0.0000000000000000e+00 -6.4147806384681161e+00 1.2433406448171629e+01 1.2875011257403948e+01 1 0 0
1367 74 4 0.0000000000000000e+00 5.5865832273899674e-01 1.0007221517868224e+01 9.7625487336202159e+00 1 0 0
1002 54 2 0.0000000000000000e+00 -2.8233494449076821e+00 1.0507504040409666e+01 9.9536582907134328e+00 1 0 0
1755 94 7 0.0000000000000000e+00 -5.3029884079738281e+00 1.4250951405235320e+01 1.2812882128583125e+01 1 0 0
1007 54 4 0.0000000000000000e+00 -5.7546190483987774e+00 7.1437380365874033e+00 1.1021375465195044e+01 1 0 0
1737 93 7 0.0000000000000000e+00 -9.3476648287871411e-01 1.4704622703007713e+01 5.2729753840247486e+00 1 0 0
1740 93 4 0.0000000000000000e+00 6.8764346870788406e-01 1.5617421753463555e+01 2.0203611119902773e+00 1 0 0
1744 93 2 0.0000000000000000e+00 1.0429667305711310e+00 1.6626263342192146e+01 2.3039145413458266e+00 1 0 0
1768 94 1 0.0000000000000000e+00 -3.7452686609357766e+00 1.5695270016468426e+01 8.4206546681347270e+00 1 0 0
1750 93 1 0.0000000000000000e+00 7.7901352848587802e-01 1.5097387037805719e+01 6.9925958793799792e-01 1 0 0
2112 113 2 0.0000000000000000e+00 3.9159447618630296e+00 1.5423587044741987e+01 5.5001428630302147e+00 1 0 0
2119 114 1 0.0000000000000000e+00 4.5572161183936455e-01 1.5668375789170709e+01 8.1377560770788566e+00 1 0 0
2138 115 2 0.0000000000000000e+00 -3.5916245046920778e+00 1.7289484261183418e+01 1.4378720338266302e+01 1 0 0
1743 93 2 0.0000000000000000e+00 3.8011694256116169e-01 1.6283256815689356e+01 4.5878273633095201e+00 1 0 0
2127 114 4 0.0000000000000000e+00 5.8880375882452718e-01 1.5508318923978344e+01 9.5551927211996919e+00 1 0 0
1772 94 2 0.0000000000000000e+00 -2.9822404649752667e+00 1.6205456270942545e+01 7.8251260782094221e+00 1 0 0
1739 93 3 0.0000000000000000e+00 1.3728362165472907e-02 1.4854642607951316e+01 2.9941587767178608e+00 1 0 0
1754 93 2 0.0000000000000000e+00 1.3328240635819952e+00 1.5654623391780310e+01 -9.6456902007747869e-02 1 0 0
2097 113 7 0.0000000000000000e+00 4.2984983860783048e+00 1.7347358427175759e+01 9.7431049447517526e-01 1 0 0
1758 94 4 0.0000000000000000e+00 -3.8897721601996418e+00 1.5972657975317125e+01 9.7842877203877041e+00 1 0 0
2101 113 1 0.0000000000000000e+00 4.8089639024038817e+00 1.6182315217580477e+01 1.5720603746851112e+00 1 0 0
2113 113 2 0.0000000000000000e+00 5.0699324325981081e+00 1.4951209000080604e+01 3.4081934668448728e+00 1 0 0
1738 93 5 0.0000000000000000e+00 -9.7178249709373166e-02 1.5354810877078778e+01 4.3154363123320474e+00 1 0 0
2108 113 3 0.0000000000000000e+00 3.8502723236084653e+00 1.6786132118501111e+01 3.7585464192733671e+00 1 0 0
2109 113 4 0.0000000000000000e+00 4.5928595038513205e+00 1.5834281582758376e+01 2.9933869582621586e+00 1 0 0
2273 113 6 0.0000000000000000e+00 3.6401199068529717e+00 1.7340114233970858e+01 3.3905443787615086e+00 1 0 0
2106 113 1 0.0000000000000000e+00 2.8455141991638100e+00 1.7361317228700553e+01 5.9201133002221118e+00 1 0 0
2107 113 4 0.0000000000000000e+00 3.6208682626356272e+00 1.6470587833427693e+01 5.1422024064554943e+00 1 0 0
2111 113 2 0.0000000000000000e+00 2.5256785126466044e+00 1.7177522350926818e+01 6.9404580885651299e+00 1 0 0
2115 114 7 0.0000000000000000e+00 3.9561165090492345e-02 1.6922775431240606e+01 7.7111453582633409e+00 1 0 0
2102 113 2 0.0000000000000000e+00 4.5538515968681672e+00 1.7565086400923054e+01 -5.8598172846319907e-02 1 0 0
2120 114 2 0.0000000000000000e+00 7.2293484122736729e-02 1.7174555851874679e+01 6.6388076538315133e+00 1 0 0
2123 114 2 0.0000000000000000e+00 8.9396147207122745e-01 1.4980611559649102e+01 7.4560263684633288e+00 1 0 0
2129 114 2 0.0000000000000000e+00 -3.5840061965004999e-01 1.6984628454049663e+01 1.3846454437461427e+01 1 0 0
2105 113 2 0.0000000000000000e+00 5.3308698420128513e+00 1.5504116003213447e+01 9.3398451889015677e-01 1 0 0
1742 93 2 0.0000000000000000e+00 -1.1608304408007792e+00 1.5080778859518755e+01 6.2241051678664352e+00 1 0 0
1764 94 1 0.0000000000000000e+00 -4.3627011932329163e+00 1.4554493686156121e+01 7.8570740219497370e+00 1 0 0
2117 114 3 0.0000000000000000e+00 -5.7162655682488506e-01 1.7626809718216620e+01 9.9540723958788035e+00 1 0 0
1761 94 2 0.0000000000000000e+00 -4.1599470033569581e+00 1.6003362457154392e+01 1.2451500596312215e+01 1 0 0
2274 114 6 0.0000000000000000e+00 -2.8097844511917192e-01 1.7033303122147501e+01 1.0304369922438379e+01 1 0 0
2254 94 6 0.0000000000000000e+00 -5.0512095486680995e+00 1.4594494745741185e+01 1.0287153970225448e+01 1 0 0
2130 114 2 0.0000000000000000e+00 6.4444386071983217e-01 1.5447737661664725e+01 1.2275703918368666e+01 1 0 0
2124 114 1 0.0000000000000000e+00 -4.1783295458181247e-01 1.7183315520137878e+01 1.2735987310491897e+01 1 0 0
2125 114 4 0.0000000000000000e+00 1.9530094881679272e-01 1.6268684423448441e+01 1.1831457244224982e+01 1 0 0
2126 114 3 0.0000000000000000e+00 2.8007780642183455e-02 1.6452685396031082e+01 1.0454147073218550e+01 1 0 0
1027 55 2 0.0000000000000000e+00 -8.3342912760066579e+00 8.1381725834419445e+00 1.4265009432403533e+01 1 0 0
1757 94 3 0.0000000000000000e+00 -4.6167886661635436e+00 1.5054890034242794e+01 1.0564291588836612e+01 1 0 0
1753 93 2 0.0000000000000000e+00 -1.8529032293078616e+00 1.2169164928539191e+01 3.2872308382511219e+00 1 0 0
1765 94 4 0.0000000000000000e+00 -5.1897671538448460e+00 1.3756398987868568e+01 8.6361394787040986e+00 1 0 0
1064 57 2 0.0000000000000000e+00 7.3727209247366758e+00 6.3711046413608132e+00 8.4320635329796367e-01 1 0 0
993 53 2 0.0000000000000000e+00 -1.9806524842130979e+00 6.2663379942846493e+00 3.0283383633651333e+00 1 0 0
267 15 2 0.0000000000000000e+00 -8.4520983155318543e+00 1.9408351495128644e+00 1.4463882953883667e+01 1 0 0
249 14 2 0.0000000000000000e+00 -4.1079513653603010e+00 2.1684472590617565e+00 7.1138327237745900e+00 1 0 0
1769 94 2 0.0000000000000000e+00 -4.0250134695913040e+00 1.4275367826446642e+01 6.8308141338375155e+00 1 0 0
4416 235 4 0.0000000000000000e+00 -5.8802541405602478e+00 8.6163185196799330e-01 1.9041770941137226e+01 1 1 0
4420 235 2 0.0000000000000000e+00 -6.2256673268865796e+00 1.8413044610638343e+00 1.8707552666696692e+01 1 1 0
255 15 3 0.0000000000000000e+00 -8.8164856752741017e+00 3.0941634169513943e+00 1.8209619867719748e+01 1 0 0
256 15 4 0.0000000000000000e+00 -8.0936139532913067e+00 3.8395775708244244e+00 1.7237281740901519e+01 1 0 0
260 15 2 0.0000000000000000e+00 -7.7430740913020770e+00 4.8584360976050496e+00 1.7493685436777685e+01 1 0 0
1782 95 1 0.0000000000000000e+00 -9.0205795677609828e+00 1.4280711390197835e+01 1.5352043295250621e+01 1 0 0
4414 235 5 0.0000000000000000e+00 -4.8748484252061202e+00 3.4476060184760715e-01 1.6849530671371497e+01 1 1 0
264 15 3 0.0000000000000000e+00 -9.3121261706213598e+00 1.8343839535697051e+00 1.7815594679944777e+01 1 0 0
262 15 1 0.0000000000000000e+00 -8.5270768722968047e+00 2.2557671510220119e+00 1.5503621726198414e+01 1 0 0
266 15 1 0.0000000000000000e+00 -7.9500994435992336e+00 3.4411618278298777e+00 1.5915124736199211e+01 1 0 0
263 15 4 0.0000000000000000e+00 -9.1324954182237690e+00 1.3940610452944444e+00 1.6488985372910172e+01 1 0 0
735 15 6 0.0000000000000000e+00 -8.9211834021120868e+00 2.4277089920357819e+00 1.8046198583281978e+01 1 0 0
265 15 4 0.0000000000000000e+00 -1.0049879508423752e+01 1.0963042669505858e+00 1.8762417618443337e+01 1 0 0
1806 96 2 0.0000000000000000e+00 -1.3441597503509698e+01 1.2356093453881373e+01 2.3241898488357339e+01 1 0 0
613 35 7 0.0000000000000000e+00 -4.5264439120042494e+00 5.6224325887149291e+00 1.6134922869982031e+01 1 0 0
618 35 2 0.0000000000000000e+00 -4.2210145277894489e+00 6.0258038061883568e+00 1.5229659540410914e+01 1 0 0
615 35 3 0.0000000000000000e+00 -5.2361986419520203e+00 5.7792707522925761e+00 1.8386563503560740e+01 1 0 0
617 35 1 0.0000000000000000e+00 -3.8671947118309689e+00 4.4163138030985660e+00 1.6391436957846270e+01 1 0 0
621 35 2 0.0000000000000000e+00 -3.1929776104702539e+00 3.8998238983908466e+00 1.5793832046031913e+01 1 0 0
624 35 3 0.0000000000000000e+00 -4.7299322489932178e+00 4.4903200302805599e+00 1.8647904239648472e+01 1 0 0
625 35 4 0.0000000000000000e+00 -4.0094676000643830e+00 3.7976458735715952e+00 1.7647515118219914e+01 1 0 0
629 35 2 0.0000000000000000e+00 -3.4905284214812431e+00 2.8289819078771021e+00 1.7790152570212324e+01 1 0 0
755 35 6 0.0000000000000000e+00 -4.9668506961007459e+00 5.1163187094720781e+00 1.8421814446155476e+01 1 0 0
270 15 2 0.0000000000000000e+00 -7.4780570890638813e+00 4.1280620739715914e+00 1.5228387134347749e+01 1 0 0
614 35 5 0.0000000000000000e+00 -5.2044377115915399e+00 6.3556809153018250e+00 1.7113338336062245e+01 1 0 0
4419 235 2 0.0000000000000000e+00 -5.2520221161351879e+00 1.2944146852788940e+00 1.6420918118690313e+01 1 1 0
1025 55 4 0.0000000000000000e+00 -9.8089985457191631e+00 6.7577816133801774e+00 1.8314917479344068e+01 1 0 0
616 35 4 0.0000000000000000e+00 -5.9551831207163621e+00 6.4643138567719713e+00 1.9366307817386193e+01 1 0 0
1805 96 2 0.0000000000000000e+00 -1.2484212403832325e+01 1.3932829905166074e+01 2.1597284063163109e+01 1 0 0
1045 56 2 0.0000000000000000e+00 -1.2596895943745796e+01 7.6078803800089823e+00 2.1937377027699679e+01 1 0 0
254 15 5 0.0000000000000000e+00 -8.9402444859074492e+00 3.5557049215776786e+00 1.9529634803601287e+01 1 0 0
280 16 1 0.0000000000000000e+00 -1.2555446717573243e+01 2.3141865605475553e+00 2.3184713443633672e+01 1 0 0
2153 116 3 0.0000000000000000e+00 -9.5337839052346993e+00 1.7832518827681248e+01 2.5752216197329645e+01 1 0 0
258 15 2 0.0000000000000000e+00 -9.7517391930721153e+00 3.1536699520377893e+00 2.1547692398658075e+01 1 0 0
634 36 4 0.0000000000000000e+00 -1.0252823351872474e+01 6.3445540729515262e+00 2.6148763631156402e+01 1 0 0
4433 236 3 0.0000000000000000e+00 -9.5265825743581516e+00 7.3809479954863741e-02 2.5591783337470897e+01 1 1 0
257 15 1 0.0000000000000000e+00 -1.0254856066316478e+01 1.6049906940250322e+00 2.0059854101410014e+01 1 0 0
284 16 1 0.0000000000000000e+00 -1.2018091230150290e+01 3.5742899338629397e+00 2.3637328217419341e+01 1 0 0
279 16 2 0.0000000000000000e+00 -1.4869003583805442e+01 6.5553310803944109e-01 2.8340595759813471e+01 1 0 0
2148 115 2 0.0000000000000000e+00 -4.5244678770533611e+00 1.5095948028066529e+01 1.9724830556799773e+01 1 0 0
288 16 2 0.0000000000000000e+00 -1.1500494612146289e+01 4.1840352248850730e+00 2.2927389237795762e+01 1 0 0
271 16 7 0.0000000000000000e+00 -1.3853409161595337e+01 2.5964241898870863e+00 2.8069313529861901e+01 1 0 0
272 16 5 0.0000000000000000e+00 -1.3154340426196054e+01 3.3906295853659727e+00 2.7142878465822736e+01 1 0 0
273 16 3 0.0000000000000000e+00 -1.3000027851612256e+01 3.0282500174161404e+00 2.5797815419264268e+01 1 0 0