LAMMPS (15 May 2015)
Reading data file ...
  triclinic box = (-0.107635 -0.0404339 -0.357111) to (41.3876 35.9384 29.5551) with tilt (-0.0672341 -17.0362 -0.0417078)
  5 by 2 by 2 MPI processor grid
  reading atoms ...
  4560 atoms
  reading velocities ...
  4560 velocities
  scanning bonds ...
  3 = max bonds/atom
  scanning angles ...
  3 = max angles/atom
  scanning dihedrals ...
  8 = max dihedrals/atom
  scanning impropers ...
  1 = max impropers/atom
  reading bonds ...
  5040 bonds
  reading angles ...
  7200 angles
  reading dihedrals ...
  10560 dihedrals
  reading impropers ...
  2400 impropers
Finding 1-2 1-3 1-4 neighbors ...
 Special bond factors lj:   0          0          0         
 Special bond factors coul: 0          0          0         
  4 = max # of 1-2 neighbors
  8 = max # of 1-3 neighbors
  20 = max # of 1-4 neighbors
  16 = max # of special neighbors
4560 atoms in group all
720 atoms in group C
480 atoms in group S
1920 atoms in group H
720 atoms in group Si
240 atoms in group Na
240 atoms in group Ba
240 atoms in group O
4560 atoms in group naphthalene
2400 atoms in group carbon
960 atoms in group CO
Setting atom values ...
  720 settings made for charge
Setting atom values ...
  720 settings made for charge
Setting atom values ...
  1920 settings made for charge
Setting atom values ...
  480 settings made for charge
Setting atom values ...
  240 settings made for charge
Setting atom values ...
  240 settings made for charge
Setting atom values ...
  240 settings made for charge
Finding 1-2 1-3 1-4 neighbors ...
 Special bond factors lj:   0          0          0.5       
 Special bond factors coul: 0          0          0.5       
  4 = max # of 1-2 neighbors
  8 = max # of 1-3 neighbors
  20 = max # of 1-4 neighbors
  16 = max # of special neighbors
Neighbor list info ...
  4 neighbor list requests
  update every 1 steps, delay 0 steps, check yes
  master list distance cutoff = 12
Setting up run ...
Memory usage per processor = 13.4064 Mbytes
Step Temp Density PotEng E_vdwl E_tail E_coul E_long Press Volume Xy Xz Yz E_mol E_bond E_angle E_dihed 14[1] 14[2] 14[3] msd[4] msd2[4] msd3[4] msd4[4] naphthal Cella Cellb Cellc CellAlpha CellBeta CellGamma 2 3 27[1] 27[2] 27[3] 28[1] 28[2] 28[3] 
       0          298    1.2509986     3498.833            0            0            0            0   -15873.524    44657.537 -0.067234084   -17.036218 -0.041707817     3498.833    1521.0094     935.4334    889.67826    28.379601    18.846571    14.337846 7.7711016e-30 8.8746852e-30 6.8181724e-30 5.7534156e-30          298     41.49527    35.978931    34.423473    90.016431    119.66323    90.107069 2.7562259e-24 4.9466509e-24    28.379557    18.849013    14.339638    28.379812    18.845474    14.337264 
   10000     304.0975    1.2509986    3473.5522            0            0            0            0   -5134.4974    44657.537 -0.067234084   -17.036218 -0.041707817    3473.5522    1451.5445    968.91837    901.12316    28.381316     18.84577    14.336886 0.00037588893 0.00037578304 0.0022911179 0.0022888751     304.0975     41.49527    35.978931    34.423473    90.016431    119.66323    90.107069    816.00281    225.53336    28.379243    18.849045    14.339556    28.381138    18.845967    14.336773 
   20000    301.53664    1.2509986    3381.9122            0            0            0            0   -3948.0969    44657.537 -0.067234084   -17.036218 -0.041707817    3381.9122    1401.1328    927.68454    899.55074    28.378873    18.845701     14.33768 0.00034793514 0.0003469087 0.0021952651   0.00219343    301.53664     41.49527    35.978931    34.423473    90.016431    119.66323    90.107069    781.86394    208.76108    28.379204    18.849797    14.340174    28.378564    18.845308    14.336764 
   30000    294.99757    1.2509986    3391.2907            0            0            0            0   -5380.9128    44657.537 -0.067234084   -17.036218 -0.041707817    3391.2907    1384.0371    930.38669    918.67112    28.380889    18.845941    14.337934 0.00037096599 0.00036852514 0.0021399288 0.0021389747    294.99757     41.49527    35.978931    34.423473    90.016431    119.66323    90.107069    762.15542     222.5796    28.378841    18.847813    14.338938    28.380534    18.845293    14.337897 
   40000    295.05604    1.2509986    3388.8834            0            0            0            0    -4644.999    44657.537 -0.067234084   -17.036218 -0.041707817    3388.8834    1391.1088    988.53128    861.95464    28.381137    18.846464    14.338245 0.00037280562 0.0003712901 0.0021513864 0.0021513139    295.05604     41.49527    35.978931    34.423473    90.016431    119.66323    90.107069    766.23615    223.68337    28.378432     18.84858    14.339889    28.379675    18.845467    14.337496 
   50000    293.17488    1.2509986    3408.2475            0            0            0            0   -3259.1458    44657.537 -0.067234084   -17.036218 -0.041707817    3408.2475    1409.9578    935.69527    906.90361    28.379534    18.847177    14.337074 0.00036672077 0.00036574802 0.0020648817 0.0020641209    293.17488     41.49527    35.978931    34.423473    90.016431    119.66323    90.107069     735.4267    220.03246    28.380331    18.849618    14.339553    28.379064    18.845908    14.337376 
   60000     298.2432    1.2509986    3464.7068            0            0            0            0   -4399.7645    44657.537 -0.067234084   -17.036218 -0.041707817    3464.7068    1430.5772    948.12496    926.23656    28.382301    18.845483    14.338445 0.00035882343 0.00035783433 0.0023065782 0.0023012661     298.2432     41.49527    35.978931    34.423473    90.016431    119.66323    90.107069    821.50913    215.29406    28.380369    18.848517     14.33935    28.381661    18.844469    14.338205 
   70000    300.32217    1.2509986    3455.0869            0            0            0            0   -4910.0882    44657.537 -0.067234084   -17.036218 -0.041707817    3455.0869     1412.976    971.45859    913.47118    28.379393    18.846395    14.337715 0.00035835359 0.00035749547 0.0021052351 0.0021042495    300.32217     41.49527    35.978931    34.423473    90.016431    119.66323    90.107069    749.79893    215.01215     28.38025    18.848793    14.339065    28.379492    18.845786    14.336377 
   80000    300.80302    1.2509986    3393.1652            0            0            0            0    -3746.238    44657.537 -0.067234084   -17.036218 -0.041707817    3393.1652    1408.1929    950.11139    882.49912    28.378225    18.846228    14.337197 0.00036418027 0.00036354714 0.0022152269  0.002214469    300.80302     41.49527    35.978931    34.423473    90.016431    119.66323    90.107069    788.97355    218.50816    28.379523    18.848296    14.339982    28.379961    18.846147    14.336732 
   90000    298.24142    1.2509986    3430.9162            0            0            0            0   -3490.7484    44657.537 -0.067234084   -17.036218 -0.041707817    3430.9162    1407.7597    963.68229    900.62864    28.382134    18.846826    14.338286 0.00036783991 0.00036386409 0.0022033001 0.0021997734    298.24142     41.49527    35.978931    34.423473    90.016431    119.66323    90.107069     784.7257    220.70395     28.38138    18.848214     14.33953    28.381102    18.845401    14.338627 
  100000    294.92088    1.2509986    3473.0071            0            0            0            0   -2683.2274    44657.537 -0.067234084   -17.036218 -0.041707817    3473.0071    1425.8953     994.1124    900.47717    28.378801    18.844913    14.336182 0.00035345025 0.0003525249 0.0021777345 0.0021760237    294.92088     41.49527    35.978931    34.423473    90.016431    119.66323    90.107069    775.62028    212.07015    28.379104    18.848315    14.339154     28.37882    18.844887    14.336646 
  110000    299.80105    1.2509986    3514.9483            0            0            0            0   -3833.3273    44657.537 -0.067234084   -17.036218 -0.041707817    3514.9483    1471.1547    969.29965    916.26243    28.379519    18.845095    14.337324 0.00032403777 0.00032388224 0.0023729135 0.0023722576    299.80105     41.49527    35.978931    34.423473    90.016431    119.66323    90.107069    845.13506    194.42266    28.379687    18.848668    14.339779     28.37907    18.845181    14.337124 
  120000    298.48154    1.2509986    3449.6122            0            0            0            0   -2628.8614    44657.537 -0.067234084   -17.036218 -0.041707817    3449.6122    1421.6582    964.87106    903.19467    28.379634    18.845032    14.337635 0.00037650976 0.00037628511 0.0022035943 0.0022034246    298.48154     41.49527    35.978931    34.423473    90.016431    119.66323    90.107069    784.83046    225.90586    28.379163    18.848761    14.339562     28.38003    18.845129    14.337214 
  130000    303.00235    1.2509986    3484.9122            0            0            0            0   -2452.3142    44657.537 -0.067234084   -17.036218 -0.041707817    3484.9122    1420.9334    1001.0395    904.02301    28.380512    18.845639    14.337374 0.00034468581 0.00034370372 0.0021916872 0.0021872283    303.00235     41.49527    35.978931    34.423473    90.016431    119.66323    90.107069    780.58964    206.81149    28.379186    18.849356    14.338785    28.381406     18.84686    14.337261 
  140000    296.79009    1.2509986    3381.4001            0            0            0            0   -2579.7216    44657.537 -0.067234084   -17.036218 -0.041707817    3381.4001    1373.1963    944.90989    901.59261     28.38167    18.846112    14.338043 0.00035188484 0.00034961907 0.0023216467  0.002321375    296.79009     41.49527    35.978931    34.423473    90.016431    119.66323    90.107069    826.87593     211.1309    28.380407    18.847889     14.33911    28.380272    18.845719    14.337286 
  150000    293.90394    1.2509986    3482.8702            0            0            0            0   -3838.6631    44657.537 -0.067234084   -17.036218 -0.041707817    3482.8702    1385.7087    979.48944    951.15821    28.379106    18.845722    14.336858 0.00034760087 0.00034575808 0.0023090843 0.0023088099    293.90394     41.49527    35.978931    34.423473    90.016431    119.66323    90.107069    822.40172    208.56052    28.380196    18.848542    14.340739     28.37993    18.845136    14.336883 
  160000    298.30983    1.2509986     3387.525            0            0            0            0   -3392.1268    44657.537 -0.067234084   -17.036218 -0.041707817     3387.525    1418.1736    926.67193     888.9009    28.379566    18.846179    14.338035 0.00037388602 0.00037243601 0.0022648421 0.0022616752    298.30983     41.49527    35.978931    34.423473    90.016431    119.66323    90.107069    806.64445    224.33161     28.37892    18.849198    14.340643    28.378721    18.846378    14.338341 
  170000    295.94719    1.2509986    3378.4175            0            0            0            0   -2865.4032    44657.537 -0.067234084   -17.036218 -0.041707817    3378.4175    1392.9209    956.42052    881.27965    28.380715    18.846023    14.337279 0.00034804046 0.0003475884 0.0021973596 0.0021971536    295.94719     41.49527    35.978931    34.423473    90.016431    119.66323    90.107069    782.60991    208.82428    28.378998    18.849301      14.3394     28.38017    18.845628    14.337497 
  180000    295.93962    1.2509986    3426.6327            0            0            0            0   -4775.6671    44657.537 -0.067234084   -17.036218 -0.041707817    3426.6327    1413.2693    964.94334    889.74765    28.380445    18.843373    14.338098 0.00037544071 0.0003736613 0.0022153198 0.0022148909    295.93962     41.49527    35.978931    34.423473    90.016431    119.66323    90.107069    789.00661    225.26443    28.378588    18.848468    14.340376    28.379539    18.845052    14.337684 
  190000    294.92737    1.2509986    3408.6225            0            0            0            0   -3833.1631    44657.537 -0.067234084   -17.036218 -0.041707817    3408.6225    1396.6507    958.69262    899.09689    28.379205    18.845418    14.337224 0.00038486463 0.00038354143 0.0022191547 0.0022159657    294.92737     41.49527    35.978931    34.423473    90.016431    119.66323    90.107069    790.37245    230.91878    28.380282    18.848127    14.339746    28.378697    18.844191    14.336718 
  200000    302.18884    1.2509986     3482.767            0            0            0            0   -5096.8693    44657.537 -0.067234084   -17.036218 -0.041707817     3482.767    1460.4441    933.42911    928.06661    28.380553    18.846033    14.337384 0.00034397945 0.00034216568 0.0022388995 0.0022377527    302.18884     41.49527    35.978931    34.423473    90.016431    119.66323    90.107069    797.40474    206.38767    28.379061    18.847761    14.339631    28.379177    18.845279    14.336424 
  210000    298.13222    1.2509986    3391.7701            0            0            0            0   -4924.2011    44657.537 -0.067234084   -17.036218 -0.041707817    3391.7701    1394.8793    945.91011    891.09542    28.376258    18.846356    14.336364 0.00035301638 0.00035281807  0.002147914 0.0021439807    298.13222     41.49527    35.978931    34.423473    90.016431    119.66323    90.107069    764.99942    211.80983    28.379333    18.848628    14.339653    28.377894    18.845704    14.336814 
  220000    304.97492    1.2509986    3387.7204            0            0            0            0   -3614.0683    44657.537 -0.067234084   -17.036218 -0.041707817    3387.7204    1422.0578    915.10283    895.25106    28.381404     18.84674    14.337997 0.00032889178 0.0003274137 0.0020878096 0.0020861962    304.97492     41.49527    35.978931    34.423473    90.016431    119.66323    90.107069    743.59268    197.33507    28.379934    18.848131    14.340385    28.381001    18.845921    14.337248 
  230000    300.96003    1.2509986     3429.534            0            0            0            0   -2652.0882    44657.537 -0.067234084   -17.036218 -0.041707817     3429.534    1413.4488    981.94312    878.88878    28.378361    18.846079    14.336685 0.00034146186 0.00033880923 0.0021992359 0.0021971558    300.96003     41.49527    35.978931    34.423473    90.016431    119.66323    90.107069    783.27819    204.87712    28.380411    18.849728     14.33845    28.378538    18.844834    14.337049 
  240000    296.48367    1.2509986    3295.4614            0            0            0            0   -2643.2002    44657.537 -0.067234084   -17.036218 -0.041707817    3295.4614    1365.7508    907.58271     875.5573    28.380135    18.845707    14.337311 0.00033053921 0.00033017732 0.0022244193 0.0022211134    296.48367     41.49527    35.978931    34.423473    90.016431    119.66323    90.107069     792.2475    198.32352     28.37937    18.849361    14.340092    28.381616    18.845695    14.337305 
  250000    307.76453    1.2509986    3352.2658            0            0            0            0    -4467.037    44657.537 -0.067234084   -17.036218 -0.041707817    3352.2658    1375.6117    943.66019    880.64678    28.378107    18.846107    14.337333 0.00035969009 0.0003595589 0.0021605936  0.002159715    307.76453     41.49527    35.978931    34.423473    90.016431    119.66323    90.107069    769.51537    215.81405    28.379736    18.849101    14.339336    28.380676    18.845348    14.337605 
  260000    297.94105    1.2509986    3462.2335            0            0            0            0   -4844.2269    44657.537 -0.067234084   -17.036218 -0.041707817    3462.2335    1449.7938    963.89756    895.74096    28.380761    18.846953    14.337433 0.00035719371 0.00035615485 0.0021903079 0.0021886268    297.94105     41.49527    35.978931    34.423473    90.016431    119.66323    90.107069     780.0984    214.31623    28.378541    18.848943     14.33969     28.37915    18.846585    14.337171 
  270000    300.86992    1.2509986    3444.9418            0            0            0            0   -4381.8175    44657.537 -0.067234084   -17.036218 -0.041707817    3444.9418    1423.9285    962.18115    902.90883    28.379883    18.845616    14.337145 0.00037229782 0.00037093466 0.0021607695 0.0021582362    300.86992     41.49527    35.978931    34.423473    90.016431    119.66323    90.107069    769.57802    223.37869    28.379726     18.84787    14.339467    28.381102    18.846395    14.337408 
  280000    298.56498    1.2509986    3534.5437            0            0            0            0   -2846.7502    44657.537 -0.067234084   -17.036218 -0.041707817    3534.5437    1477.9836    958.84711     937.9508    28.379225    18.845974    14.337028 0.0003708073 0.00036946872 0.0021500079 0.0021496864    298.56498     41.49527    35.978931    34.423473    90.016431    119.66323    90.107069    765.74517    222.48438    28.378448    18.849327    14.339534    28.380242    18.845307    14.336935 
  290000    298.86189    1.2509986    3475.5957            0            0            0            0   -4696.4909    44657.537 -0.067234084   -17.036218 -0.041707817    3475.5957    1443.5742    980.67782    896.99437    28.382309    18.846819    14.338422 0.00035961362 0.00035877985 0.0021504094 0.0021489577    298.86189     41.49527    35.978931    34.423473    90.016431    119.66323    90.107069    765.88818    215.76817    28.379583    18.848109    14.339764     28.38094    18.845212    14.336932 
  300000    298.68923    1.2509986    3418.4563            0            0            0            0   -5329.5887    44657.537 -0.067234084   -17.036218 -0.041707817    3418.4563    1408.3407    983.38012    870.95689    28.377711    18.846079    14.336504 0.00034219762 0.00034169399 0.0020693756 0.0020685962    298.68923     41.49527    35.978931    34.423473    90.016431    119.66323    90.107069    737.02723    205.31857    28.379112    18.848459    14.339632    28.379498    18.846179    14.336836 
  310000    293.46978    1.2509986    3427.0152            0            0            0            0   -3856.5427    44657.537 -0.067234084   -17.036218 -0.041707817    3427.0152    1417.1974    945.21589    904.38119    28.378877    18.846592     14.33696 0.0003757457 0.00037537498 0.0021889659  0.002188638    293.46978     41.49527    35.978931    34.423473    90.016431    119.66323    90.107069    779.62044    225.44742    28.379468    18.848458    14.339402    28.380079    18.845925    14.337033 
  320000    298.57752    1.2509986    3468.1684            0            0            0            0   -3969.7052    44657.537 -0.067234084   -17.036218 -0.041707817    3468.1684    1457.9974    979.30522    875.57039    28.380148    18.844151    14.338259 0.00036496171 0.00036406225 0.0022930878 0.0022930167    298.57752     41.49527    35.978931    34.423473    90.016431    119.66323    90.107069     816.7044    218.97703    28.379393    18.848111     14.33988    28.379821    18.845408    14.337522 
  330000    302.01028    1.2509986    3396.7671            0            0            0            0   -4400.9163    44657.537 -0.067234084   -17.036218 -0.041707817    3396.7671    1448.0354    949.34176    855.36811    28.380979    18.847115    14.337858 0.00033130533 0.00033106049 0.0022107513 0.0022089825    302.01028     41.49527    35.978931    34.423473    90.016431    119.66323    90.107069    787.37952     198.7832    28.379408    18.849173    14.339194     28.37968    18.846791    14.337393 
  340000    292.65597    1.2509986    3426.1421            0            0            0            0   -6059.4668    44657.537 -0.067234084   -17.036218 -0.041707817    3426.1421    1441.4232    947.50338    893.11594    28.379731    18.846059    14.337136 0.00036924168 0.00036824996 0.0022725293 0.0022703916    292.65597     41.49527    35.978931    34.423473    90.016431    119.66323    90.107069     809.3823    221.54501    28.379549    18.849017    14.340634    28.380421    18.846735    14.336844 
  350000    299.79719    1.2509986    3398.7344            0            0            0            0   -3245.6867    44657.537 -0.067234084   -17.036218 -0.041707817    3398.7344    1406.7835    946.23318    894.17101    28.379228    18.846147    14.337142 0.00036385239 0.00035774962  0.002293476 0.0022923358    299.79719     41.49527    35.978931    34.423473    90.016431    119.66323    90.107069    816.84268    218.31143     28.37987    18.847137    14.341214    28.378988    18.844998    14.336781 
  360000    298.92764    1.2509986    3419.8595            0            0            0            0   -3783.5671    44657.537 -0.067234084   -17.036218 -0.041707817    3419.8595    1400.3338     951.2182    909.74539    28.379123    18.845386    14.336955 0.00036105191 0.00036078062 0.0022073025  0.002207081    298.92764     41.49527    35.978931    34.423473    90.016431    119.66323    90.107069     786.1512    216.63114    28.379313    18.849471    14.339681    28.379857    18.845031    14.337112 
  370000    294.17809    1.2509986    3456.5042            0            0            0            0   -2851.6343    44657.537 -0.067234084   -17.036218 -0.041707817    3456.5042    1418.8252    960.41293    923.53723     28.38176     18.84678    14.338274 0.00032590277 0.00032467095 0.0022545892 0.0022515115    294.17809     41.49527    35.978931    34.423473    90.016431    119.66323    90.107069    802.99276    195.54166    28.380651    18.849154    14.339752    28.380813    18.846857    14.337671 
  380000     296.1453    1.2509986    3475.4294            0            0            0            0   -4360.4154    44657.537 -0.067234084   -17.036218 -0.041707817    3475.4294    1464.7615    936.66921     915.5601    28.381822    18.845632    14.338511 0.00033300284 0.00033196946   0.00222686 0.0022258288     296.1453     41.49527    35.978931    34.423473    90.016431    119.66323    90.107069    793.11676     199.8017    28.379268    18.848486    14.338818    28.380224    18.845836    14.338119 
  390000    292.74336    1.2509986    3466.6003            0            0            0            0   -5159.3346    44657.537 -0.067234084   -17.036218 -0.041707817    3466.6003    1473.2222      943.317    891.65329    28.380192    18.845146    14.337589 0.00036544457 0.00036485188 0.0022336852 0.0022334036    292.74336     41.49527    35.978931    34.423473    90.016431    119.66323    90.107069    795.54763    219.26674    28.380015    18.849485    14.340038    28.379724    18.845004    14.337034 
  400000     300.8421    1.2509986    3477.2967            0            0            0            0   -4819.3148    44657.537 -0.067234084   -17.036218 -0.041707817    3477.2967     1439.684    952.70662    923.26856    28.380324    18.845581    14.338299 0.00035724851 0.00035600709 0.0021999788 0.0021964618     300.8421     41.49527    35.978931    34.423473    90.016431    119.66323    90.107069    783.54277    214.34911    28.380392    18.849361    14.340288    28.377989    18.845036     14.33728 
  410000    300.92561    1.2509986    3460.9711            0            0            0            0   -5069.7459    44657.537 -0.067234084   -17.036218 -0.041707817    3460.9711    1428.2576    959.51988    921.65551    28.381046    18.846967    14.337545 0.00036437786 0.00036347533 0.0021858408 0.0021846922    300.92561     41.49527    35.978931    34.423473    90.016431    119.66323    90.107069     778.5074    218.62672    28.380185    18.848784    14.340312    28.380835    18.845634     14.33754 
  420000    298.81165    1.2509986    3375.2325            0            0            0            0   -4449.8286    44657.537 -0.067234084   -17.036218 -0.041707817    3375.2325    1406.4481    916.37113    900.13634    28.377858    18.845945    14.337636 0.00032530668 0.00032514487  0.002135613 0.0021344712    298.81165     41.49527    35.978931    34.423473    90.016431    119.66323    90.107069     760.6183    195.18401    28.379331    18.848767    14.339863    28.379071    18.845215    14.337989 
  430000    296.94282    1.2509986    3440.5287            0            0            0            0   -5251.9405    44657.537 -0.067234084   -17.036218 -0.041707817    3440.5287    1468.4766    940.23115    877.06762    28.380487    18.845696    14.337592 0.00034687626 0.00034615744 0.0021569448 0.0021558495    296.94282     41.49527    35.978931    34.423473    90.016431    119.66323    90.107069    768.21584    208.12576    28.379993    18.848751     14.33896    28.380603    18.845377    14.337942 
  440000    291.63504    1.2509986    3471.9635            0            0            0            0   -4212.1609    44657.537 -0.067234084   -17.036218 -0.041707817    3471.9635    1423.2133    976.58657    911.17623    28.379511    18.846364    14.337222 0.00035448029 0.00035380457 0.0022112208  0.002210478    291.63504     41.49527    35.978931    34.423473    90.016431    119.66323    90.107069    787.54672    212.68817    28.379455    18.848927    14.338827    28.379993    18.846313    14.337344 
  450000     300.2571    1.2509986    3503.2379            0            0            0            0    -4201.232    44657.537 -0.067234084   -17.036218 -0.041707817    3503.2379    1468.1214    936.25519    936.60005    28.378581      18.8443    14.337037 0.00033430011 0.00033351348 0.0021418044 0.0021405388     300.2571     41.49527    35.978931    34.423473    90.016431    119.66323    90.107069    762.82345    200.58007    28.380303    18.849466    14.339485     28.38049    18.844789    14.336684 
  460000    291.83248    1.2509986    3411.0172            0            0            0            0   -3694.7107    44657.537 -0.067234084   -17.036218 -0.041707817    3411.0172    1415.4166    933.47028    907.37637     28.38181    18.845577    14.338109 0.00037084676 0.0003703225 0.0020858786 0.0020844154    291.83248     41.49527    35.978931    34.423473    90.016431    119.66323    90.107069    742.90496    222.50806    28.378929    18.848837    14.339323    28.380794    18.845852    14.337862 
  470000    296.68269    1.2509986    3423.0454            0            0            0            0   -3635.5121    44657.537 -0.067234084   -17.036218 -0.041707817    3423.0454    1387.9361    988.88225    893.49109     28.38004    18.847394    14.337324 0.00035066748 0.00034954223 0.0021325032 0.0021304663    296.68269     41.49527    35.978931    34.423473    90.016431    119.66323    90.107069    759.51071    210.40049    28.380032     18.84864     14.34051    28.379485     18.84684    14.337013 
  480000    303.96155    1.2509986    3477.2885            0            0            0            0   -5473.7893    44657.537 -0.067234084   -17.036218 -0.041707817    3477.2885    1418.7334    978.37552    923.10352    28.379527     18.84578    14.338099 0.00035117733 0.00035042949  0.002321613 0.0023186569    303.96155     41.49527    35.978931    34.423473    90.016431    119.66323    90.107069    826.86391     210.7064    28.380224    18.848617     14.34002     28.37924    18.846638    14.338394 
  490000    290.30364    1.2509986    3393.9994            0            0            0            0   -3600.4483    44657.537 -0.067234084   -17.036218 -0.041707817    3393.9994    1424.0752    888.37272    924.39201    28.379203    18.845668     14.33734 0.00033586503 0.00033488979 0.0021535674 0.0021505944    290.30364     41.49527    35.978931    34.423473    90.016431    119.66323    90.107069    767.01293    201.51902    28.379614    18.848093    14.339993    28.378957     18.84687    14.336723 
  500000    298.91212    1.2509986    3374.0113            0            0            0            0   -3656.9118    44657.537 -0.067234084   -17.036218 -0.041707817    3374.0113    1392.5817    954.88221     877.6999    28.378423    18.844867    14.337155 0.00037615927 0.00037609855 0.0022417331 0.0022404794    298.91212     41.49527    35.978931    34.423473    90.016431    119.66323    90.107069    798.41397    225.69556    28.379348    18.849073    14.339755    28.380256    18.844965    14.338157 
  510000    306.87303    1.2509986       3463.1            0            0            0            0   -5704.8686    44657.537 -0.067234084   -17.036218 -0.041707817       3463.1    1442.6452    957.82809    906.07559    28.381336    18.845347    14.338003 0.0003478303 0.00034502614 0.0022309044 0.0022301629    306.87303     41.49527    35.978931    34.423473    90.016431    119.66323    90.107069     794.5572    208.69818    28.380816    18.847913    14.339549    28.380254     18.84551    14.338003 
  520000    294.61888    1.2509986    3416.9689            0            0            0            0   -2944.7858    44657.537 -0.067234084   -17.036218 -0.041707817    3416.9689    1405.3363    961.52334    894.68441    28.379954    18.846495    14.337755 0.00034331701 0.00033949088 0.0022129632 0.0022102828    294.61888     41.49527    35.978931    34.423473    90.016431    119.66323    90.107069     788.1673    205.99021    28.381303    18.848644    14.340438    28.379087    18.846936    14.337398 
  530000    301.15556    1.2509986    3450.0077            0            0            0            0   -3672.0156    44657.537 -0.067234084   -17.036218 -0.041707817    3450.0077    1421.4396    977.37376    897.91887    28.380071     18.84565    14.337106 0.00033599924 0.00033437584 0.0022606566 0.0022604708    301.15556     41.49527    35.978931    34.423473    90.016431    119.66323    90.107069    805.15372    201.59954    28.379635    18.850182    14.339139     28.37961    18.845542     14.33689 
  540000    300.22919    1.2509986    3458.1212            0            0            0            0   -3694.4603    44657.537 -0.067234084   -17.036218 -0.041707817    3458.1212    1419.9447    940.30342    939.23062    28.377828     18.84635    14.336701 0.0003327458 0.00033143203 0.0022138272 0.0022108559    300.22919     41.49527    35.978931    34.423473    90.016431    119.66323    90.107069    788.47502    199.64748    28.379918    18.848106    14.339037    28.381173    18.846533    14.337249 
  550000     294.5056    1.2509986    3460.4054            0            0            0            0   -5570.3045    44657.537 -0.067234084   -17.036218 -0.041707817    3460.4054    1437.1133    954.36258    908.00532    28.380976    18.846315    14.337567 0.00034597735 0.00034538982 0.0022919721 0.0022899814     294.5056     41.49527    35.978931    34.423473    90.016431    119.66323    90.107069    816.30703    207.58641    28.379778    18.848279    14.339664    28.379154    18.845505    14.336017 
  560000     297.3218    1.2509986    3460.0946            0            0            0            0   -4131.4341    44657.537 -0.067234084   -17.036218 -0.041707817    3460.0946    1420.1707    946.33779     938.1638    28.377239     18.84518    14.336456   0.00034689 0.00034539968 0.0022106288 0.0022051561     297.3218     41.49527    35.978931    34.423473    90.016431    119.66323    90.107069    787.33587      208.134    28.380633    18.849056    14.339064     28.37797    18.844262    14.336485 
  570000    295.53509    1.2509986    3404.8755            0            0            0            0   -4230.9607    44657.537 -0.067234084   -17.036218 -0.041707817    3404.8755    1434.3911    930.55865    882.53091     28.37935    18.846718    14.337313 0.00034895846 0.00034176153 0.0022704547 0.0022656655    295.53509     41.49527    35.978931    34.423473    90.016431    119.66323    90.107069    808.64344    209.37507    28.379493    18.849462    14.336994    28.378124    18.846764    14.336739 
  580000     293.5314    1.2509986    3462.6953            0            0            0            0    -2873.568    44657.537 -0.067234084   -17.036218 -0.041707817    3462.6953    1455.5944    959.38482    891.66804    28.378888    18.844993    14.337112 0.00037497455 0.00037449265  0.002255582  0.002254818     293.5314     41.49527    35.978931    34.423473    90.016431    119.66323    90.107069    803.34636    224.98473    28.379528    18.848453    14.340047    28.379122      18.8459    14.336938 
  590000    297.45966    1.2509986    3346.2389            0            0            0            0   -4163.2431    44657.537 -0.067234084   -17.036218 -0.041707817    3346.2389    1390.4065    937.68151    864.33775    28.380463    18.843957    14.336673 0.00036381611 0.00036226722 0.0021640584 0.0021608479    297.45966     41.49527    35.978931    34.423473    90.016431    119.66323    90.107069    770.74941    218.28967    28.379723     18.84778    14.339647      28.3803    18.844519    14.335829 
  600000    301.46865    1.2509986    3346.3191            0            0            0            0   -3757.3592    44657.537 -0.067234084   -17.036218 -0.041707817    3346.3191    1391.4372    918.52937      884.171    28.380642     18.84579    14.338158 0.00037418157 0.00037296458 0.0022680643 0.0022634119    301.46865     41.49527    35.978931    34.423473    90.016431    119.66323    90.107069    807.79204    224.50894    28.379092    18.849417    14.338723    28.381275    18.845964    14.338772 
  610000    302.06845    1.2509986    3427.1938            0            0            0            0   -5169.4506    44657.537 -0.067234084   -17.036218 -0.041707817    3427.1938     1405.884    939.79645    920.31028    28.379015     18.84516    14.336641 0.00033179855 0.0003306357 0.0021754062 0.0021741278    302.06845     41.49527    35.978931    34.423473    90.016431    119.66323    90.107069    774.79102    199.07913    28.379005    18.849446    14.338819    28.380263    18.846059    14.336408 
  620000    296.58066    1.2509986    3486.2414            0            0            0            0   -4443.2593    44657.537 -0.067234084   -17.036218 -0.041707817    3486.2414    1422.8137    960.56501    938.45278    28.378631    18.846149    14.337158 0.00032347323 0.00032207468 0.0021092008 0.0021078678    296.58066     41.49527    35.978931    34.423473    90.016431    119.66323    90.107069    751.21137    194.08394    28.380481     18.84975    14.339596     28.37969    18.846579    14.337577 
  630000    301.38668    1.2509986    3499.2753            0            0            0            0   -4721.4461    44657.537 -0.067234084   -17.036218 -0.041707817    3499.2753      1461.83    986.72567    894.09263    28.380807    18.846138    14.338366 0.00035103231 0.00035095276 0.0022570084 0.0022500251    301.38668     41.49527    35.978931    34.423473    90.016431    119.66323    90.107069    803.85438    210.61939    28.379669    18.848996    14.339896    28.381281     18.84687    14.338961 
  640000    293.41315    1.2509986    3486.6979            0            0            0            0   -4391.3593    44657.537 -0.067234084   -17.036218 -0.041707817    3486.6979    1443.8682     981.9786    901.73457    28.380411    18.846504    14.337696 0.00034585559 0.00034566386  0.002075554 0.0020753978    293.41315     41.49527    35.978931    34.423473    90.016431    119.66323    90.107069    739.22773    207.51335    28.379763    18.849387    14.339732    28.379892    18.845813    14.337078 
  650000    298.76205    1.2509986    3310.9847            0            0            0            0   -3832.2948    44657.537 -0.067234084   -17.036218 -0.041707817    3310.9847    1364.7564    924.41402    868.61583     28.38084    18.845015    14.338347 0.00036067533 0.00035919024 0.0021848984 0.0021832562    298.76205     41.49527    35.978931    34.423473    90.016431    119.66323    90.107069    778.17177     216.4052    28.380226    18.848319    14.340383    28.380211    18.846204     14.33824 
  660000    301.32436    1.2509986    3473.2605            0            0            0            0   -4000.0623    44657.537 -0.067234084   -17.036218 -0.041707817    3473.2605    1453.9754    936.56131     922.0323    28.381104    18.846221    14.338485 0.00033805962 0.00033762783 0.0021298042 0.0021269408    301.32436     41.49527    35.978931    34.423473    90.016431    119.66323    90.107069    758.54944    202.83577    28.379345    18.849059    14.340259    28.381202    18.846137    14.337965 
  670000    295.56443    1.2509986    3415.3593            0            0            0            0   -5288.0687    44657.537 -0.067234084   -17.036218 -0.041707817    3415.3593    1401.5092     950.4587    906.17693    28.379381    18.846994    14.337648 0.00033298612 0.00033013364 0.0022126748 0.0022105598    295.56443     41.49527    35.978931    34.423473    90.016431    119.66323    90.107069    788.06457    199.79167    28.378188     18.84971    14.340341    28.378586    18.844696    14.337353 
  680000    294.68164    1.2509986    3457.6437            0            0            0            0     -4322.74    44657.537 -0.067234084   -17.036218 -0.041707817    3457.6437    1454.6425    943.71391    902.26361    28.378919    18.846921    14.336906 0.00033949267 0.00033821034 0.0022518005 0.0022506749    294.68164     41.49527    35.978931    34.423473    90.016431    119.66323    90.107069    801.99957     203.6956    28.379018    18.849143    14.338651    28.378908    18.845592    14.336722 
  690000    293.04734    1.2509986    3429.7716            0            0            0            0   -4957.9875    44657.537 -0.067234084   -17.036218 -0.041707817    3429.7716    1432.0956     951.8469    890.16977    28.378449    18.847297    14.336911 0.00037182681 0.00037093559 0.0021223331 0.0021181179    293.04734     41.49527    35.978931    34.423473    90.016431    119.66323    90.107069    755.88854    223.09609    28.378798    18.848811    14.339113    28.378944    18.847297    14.336888 
  700000    300.48031    1.2509986     3445.068            0            0            0            0   -5435.5618    44657.537 -0.067234084   -17.036218 -0.041707817     3445.068    1442.1318    953.19954    892.96492    28.378914    18.845918    14.336425 0.00035079449 0.00035038704 0.0022397789 0.0022395927    300.48031     41.49527    35.978931    34.423473    90.016431    119.66323    90.107069    797.71796     210.4767    28.379695    18.848617    14.339157    28.379438    18.845677    14.337191 
  710000     296.9837    1.2509986    3446.8542            0            0            0            0     -3746.42    44657.537 -0.067234084   -17.036218 -0.041707817    3446.8542    1428.5332    961.91123    904.68529    28.379571    18.846134    14.336538  0.000343684 0.00034355946 0.0021481915 0.0021455828     296.9837     41.49527    35.978931    34.423473    90.016431    119.66323    90.107069    765.09825     206.2104    28.379558    18.849158    14.339316    28.379387    18.845525    14.335707 
  720000    299.99852    1.2509986    3506.4541            0            0            0            0   -4440.7525    44657.537 -0.067234084   -17.036218 -0.041707817    3506.4541     1443.807    994.28505    914.16985    28.379411    18.847319    14.337061 0.00034816083 0.00034743562 0.0020424956 0.0020419778    299.99852     41.49527    35.978931    34.423473    90.016431    119.66323    90.107069    727.45367     208.8965     28.37951     18.84818    14.339466    28.379287     18.84592    14.337056 
  730000    296.65744    1.2509986    3433.0934            0            0            0            0   -4991.2905    44657.537 -0.067234084   -17.036218 -0.041707817    3433.0934    1439.7904    955.66446    889.62583    28.377626    18.846889    14.335781 0.00034178393 0.00034173373 0.0021486167 0.0021460778    296.65744     41.49527    35.978931    34.423473    90.016431    119.66323    90.107069     765.2497    205.07036    28.379399    18.849032     14.33948    28.379529    18.844867    14.335819 
  740000    302.52743    1.2509986    3410.3799            0            0            0            0   -3593.2228    44657.537 -0.067234084   -17.036218 -0.041707817    3410.3799    1428.2241    946.08422     884.9089    28.377993    18.847026    14.337244 0.00036099383 0.00036033945 0.0022228468 0.0022221342    302.52743     41.49527    35.978931    34.423473    90.016431    119.66323    90.107069    791.68742     216.5963    28.379573    18.849341    14.338899     28.37902     18.84569    14.337461 
  750000    293.80484    1.2509986    3504.6578            0            0            0            0   -3045.5139    44657.537 -0.067234084   -17.036218 -0.041707817    3504.6578    1432.8412    991.55833     920.8809    28.376872    18.845941    14.336617 0.00036346526 0.00036251648 0.0022502854 0.0022500477    293.80484     41.49527    35.978931    34.423473    90.016431    119.66323    90.107069    801.45994    218.07916    28.378658    18.848674      14.3398    28.379799     18.84553     14.33678 
  760000    302.31785    1.2509986     3451.458            0            0            0            0   -4991.8816    44657.537 -0.067234084   -17.036218 -0.041707817     3451.458    1425.7473    936.34712    927.92032    28.379513    18.846788    14.336329 0.00036825143 0.00036722701 0.0021845024 0.0021825242    302.31785     41.49527    35.978931    34.423473    90.016431    119.66323    90.107069    778.03071    220.95086    28.380216    18.849708    14.339964    28.379359    18.846379    14.336287 
  770000    299.31457    1.2509986    3409.3487            0            0            0            0    -4927.207    44657.537 -0.067234084   -17.036218 -0.041707817    3409.3487    1415.2945    931.01782    904.53461    28.378992    18.845087    14.336936 0.00035898613 0.00035795666 0.0021495719 0.0021489534    299.31457     41.49527    35.978931    34.423473    90.016431    119.66323    90.107069     765.5899    215.39168    28.378672    18.848613    14.339933    28.379344    18.844999    14.336848 
  780000    294.84523    1.2509986     3413.582            0            0            0            0    -5791.637    44657.537 -0.067234084   -17.036218 -0.041707817     3413.582    1433.3518     924.2939    900.95255    28.380325    18.847244    14.338145 0.00033982385 0.00033821036 0.0021552668  0.002150924    294.84523     41.49527    35.978931    34.423473    90.016431    119.66323    90.107069    767.61819    203.89431    28.378588    18.848356    14.339144     28.38135    18.846658    14.338022 
  790000    297.30424    1.2509986    3353.4005            0            0            0            0   -5881.5043    44657.537 -0.067234084   -17.036218 -0.041707817    3353.4005    1391.9662    916.20648    892.63231    28.380603    18.845555    14.337446 0.00037399798 0.00036838401 0.0021493263 0.0021474724    297.30424     41.49527    35.978931    34.423473    90.016431    119.66323    90.107069    765.50244    224.39879    28.378374    18.848591    14.337629    28.379726    18.846822    14.337438 
  800000    297.79667    1.2509986      3503.86            0            0            0            0   -4052.1315    44657.537 -0.067234084   -17.036218 -0.041707817      3503.86    1427.6368    978.14408     936.3846    28.379304    18.846737    14.337397 0.00032318083 0.00032093008 0.0021802057 0.0021774499    297.79667     41.49527    35.978931    34.423473    90.016431    119.66323    90.107069     776.5004     193.9085    28.379236    18.847588    14.339295    28.378492     18.84646    14.337469 
  810000     297.0674    1.2509986     3374.298            0            0            0            0   -2737.7357    44657.537 -0.067234084   -17.036218 -0.041707817     3374.298    1411.3992    927.28367    883.35147    28.382268    18.845726    14.338505 0.00034415221 0.00034382735  0.002179285 0.0021769855     297.0674     41.49527    35.978931    34.423473    90.016431    119.66323    90.107069    776.17248    206.49132    28.379698    18.849172    14.340167    28.381267    18.845874    14.337411 
  820000    302.63904    1.2509986    3437.7444            0            0            0            0   -3342.9107    44657.537 -0.067234084   -17.036218 -0.041707817    3437.7444    1425.7883    935.40505    920.90229    28.380016    18.845359    14.337462 0.00035714853 0.00035694555 0.0021214136 0.0021202812    302.63904     41.49527    35.978931    34.423473    90.016431    119.66323    90.107069    755.56108    214.28912    28.379208    18.848728    14.339657    28.379023    18.844867    14.336889 
  830000     294.7268    1.2509986    3453.1172            0            0            0            0   -3210.3236    44657.537 -0.067234084   -17.036218 -0.041707817    3453.1172    1459.5797     958.9693    880.27456    28.380616    18.846109    14.337367 0.00033467431 0.00033204006 0.0021228138 0.0021184065     294.7268     41.49527    35.978931    34.423473    90.016431    119.66323    90.107069    756.05977    200.80458    28.380313    18.849159    14.338209    28.380748    18.847313    14.337654 
  840000    296.88041    1.2509986    3362.8033            0            0            0            0    -2730.303    44657.537 -0.067234084   -17.036218 -0.041707817    3362.8033    1422.9469    915.29948    870.13821     28.37746    18.845674    14.336891 0.00036646871 0.00036113173 0.0021995827 0.0021986253    296.88041     41.49527    35.978931    34.423473    90.016431    119.66323    90.107069     783.4017    219.88123    28.381468    18.847717    14.339689    28.379461    18.845841    14.336428 
  850000    297.96003    1.2509986    3400.5209            0            0            0            0   -4144.0355    44657.537 -0.067234084   -17.036218 -0.041707817    3400.5209    1394.2271     937.0234    908.81709    28.380728    18.846299    14.337459 0.00034945356 0.00034688689 0.0022097728 0.0022096949    297.96003     41.49527    35.978931    34.423473    90.016431    119.66323    90.107069    787.03102    209.67214    28.380666     18.84818    14.338838    28.380035    18.845385    14.337406 
  860000    301.50891    1.2509986    3464.1789            0            0            0            0   -4711.7231    44657.537 -0.067234084   -17.036218 -0.041707817    3464.1789    1456.6367    966.28626    886.85492    28.380123    18.844231    14.337739 0.00037865653 0.0003783644  0.002207415  0.002206357    301.50891     41.49527    35.978931    34.423473    90.016431    119.66323    90.107069    786.19127    227.19392     28.37993    18.849284     14.33992    28.380534    18.844951    14.337776 
  870000    301.46515    1.2509986    3422.5967            0            0            0            0   -3247.3529    44657.537 -0.067234084   -17.036218 -0.041707817    3422.5967    1421.0587    935.63469    909.69116    28.378046    18.845297    14.336642 0.00036925098 0.00036780618 0.0023083195 0.0023063717    301.46515     41.49527    35.978931    34.423473    90.016431    119.66323    90.107069    822.12931    221.55059    28.379487     18.84812     14.34044    28.379066    18.844746    14.336336 
  880000     295.7755    1.2509986    3406.2985            0            0            0            0   -3922.7036    44657.537 -0.067234084   -17.036218 -0.041707817    3406.2985    1397.6939    937.64616    910.25933    28.381702    18.845857    14.338234 0.00041828818 0.00041391201 0.0021236254 0.0021195008     295.7755     41.49527    35.978931    34.423473    90.016431    119.66323    90.107069    756.34881    250.97291    28.379929     18.84728    14.338528    28.380811      18.8472    14.337648 
  890000    291.43916    1.2509986    3434.4144            0            0            0            0   -4625.9737    44657.537 -0.067234084   -17.036218 -0.041707817    3434.4144     1419.331     942.0088     915.6122    28.380432    18.846118    14.337578 0.00033740146 0.00033698964 0.0021570781 0.0021562183    291.43916     41.49527    35.978931    34.423473    90.016431    119.66323    90.107069    768.26329    202.44088    28.379805    18.849336    14.340134     28.38065    18.845854    14.337378 
  900000     301.9631    1.2509986    3475.1157            0            0            0            0   -2824.1794    44657.537 -0.067234084   -17.036218 -0.041707817    3475.1157     1397.018    996.42785    926.20186    28.379892    18.844801    14.338047 0.00039138135 0.00038567513 0.0021499933 0.0021473545     301.9631     41.49527    35.978931    34.423473    90.016431    119.66323    90.107069    765.73999    234.82881     28.38118    18.847352     14.33908    28.380962    18.844773    14.338172 
  910000    302.77579    1.2509986    3459.8971            0            0            0            0   -6617.2479    44657.537 -0.067234084   -17.036218 -0.041707817    3459.8971    1448.3774    943.24441    912.42496    28.378585    18.845799    14.336967 0.00034588217 0.00034418904 0.0021351887 0.0021321149    302.77579     41.49527    35.978931    34.423473    90.016431    119.66323    90.107069     760.4672     207.5293    28.379657    18.847742    14.339899    28.378444     18.84657    14.337214 
  920000    291.98102    1.2509986    3386.4023            0            0            0            0   -4344.6241    44657.537 -0.067234084   -17.036218 -0.041707817    3386.4023    1432.0004    928.37091    874.29724    28.379332    18.846697    14.336984 0.00033220631 0.00033054601 0.0021379921 0.0021377071    291.98102     41.49527    35.978931    34.423473    90.016431    119.66323    90.107069    761.46564    199.32378    28.379881    18.849659    14.338572    28.379956    18.845444    14.336751 
  930000    292.24939    1.2509986    3335.8137            0            0            0            0   -2046.0041    44657.537 -0.067234084   -17.036218 -0.041707817    3335.8137    1373.2309    906.65277    900.37513    28.378783    18.845481    14.336564 0.00035380453 0.00035372476 0.0022208965  0.002218675    292.24939     41.49527    35.978931    34.423473    90.016431    119.66323    90.107069    790.99282    212.28272    28.379339    18.848843    14.339697    28.378647     18.84572    14.336368 
  940000    294.84508    1.2509986     3519.136            0            0            0            0   -4455.7035    44657.537 -0.067234084   -17.036218 -0.041707817     3519.136    1415.4745    963.24956    975.88782    28.379422    18.844924    14.337271 0.00035689399 0.0003554188 0.0021822946 0.0021805971    294.84508     41.49527    35.978931    34.423473    90.016431    119.66323    90.107069    777.24439     214.1364    28.380696    18.849063    14.339219     28.38019    18.844667    14.336314 
  950000    299.37475    1.2509986    3443.9721            0            0            0            0   -4552.2811    44657.537 -0.067234084   -17.036218 -0.041707817    3443.9721    1436.6234     944.7153    906.89413    28.380584     18.84514    14.337401 0.00038143521 0.00038051057 0.0020916512 0.0020910203    299.37475     41.49527    35.978931    34.423473    90.016431    119.66323    90.107069     744.9609    228.86112    28.379279    18.849631     14.34032    28.379837     18.84594    14.336622 
  960000    299.61416    1.2509986    3432.8452            0            0            0            0   -4666.7376    44657.537 -0.067234084   -17.036218 -0.041707817    3432.8452    1440.3897    927.01271    909.97152     28.37826    18.846376    14.336476 0.00037099653 0.00036807134 0.0021239322 0.0021232645    299.61416     41.49527    35.978931    34.423473    90.016431    119.66323    90.107069    756.45806    222.59792    28.380957    18.849047    14.338656     28.38007    18.846242    14.337155 
  970000    292.00219    1.2509986    3394.0082            0            0            0            0   -3403.1753    44657.537 -0.067234084   -17.036218 -0.041707817    3394.0082     1411.216    956.68135    874.69092    28.378222    18.845196    14.337032 0.0003451499 0.00034450291 0.0021772509  0.002173898    292.00219     41.49527    35.978931    34.423473    90.016431    119.66323    90.107069    775.44802    207.08994    28.380006    18.849534    14.339221    28.378121    18.844831    14.337544 
  980000    300.31296    1.2509986    3418.3699            0            0            0            0   -3819.6985    44657.537 -0.067234084   -17.036218 -0.041707817    3418.3699    1446.7824    948.09381    875.20385    28.379225    18.846031    14.336698 0.00035213279 0.00035164384 0.0022131253 0.0022094907    300.31296     41.49527    35.978931    34.423473    90.016431    119.66323    90.107069    788.22502    211.27968    28.379329    18.848533    14.340094    28.378322    18.846086    14.336243 
  990000    301.31447    1.2509986    3443.9346            0            0            0            0   -3988.3956    44657.537 -0.067234084   -17.036218 -0.041707817    3443.9346    1405.0732    983.19077    901.74371    28.377769    18.846252    14.337584 0.00032248904 0.00032084446 0.0022165179 0.0022143368    301.31447     41.49527    35.978931    34.423473    90.016431    119.66323    90.107069    789.43334    193.49342    28.378382    18.848792    14.340104    28.378396    18.845432    14.337683 
 1000000    300.36322    1.2509986    3489.1474            0            0            0            0   -2199.7748    44657.537 -0.067234084   -17.036218 -0.041707817    3489.1474    1454.3229    964.03425    911.12279    28.378255    18.846159    14.337094 0.00033883341 0.00033781231 0.0022384186 0.0022370079    300.36322     41.49527    35.978931    34.423473    90.016431    119.66323    90.107069    797.23346    203.30004     28.37955    18.849632     14.33884    28.379663    18.846594    14.336898 
 1010000    301.86143    1.2509986    3460.4586            0            0            0            0   -3312.7978    44657.537 -0.067234084   -17.036218 -0.041707817    3460.4586    1435.8906    950.01382    915.55921     28.37842    18.847025    14.336302 0.00036003728 0.00035732389 0.0022569618  0.002256199    301.86143     41.49527    35.978931    34.423473    90.016431    119.66323    90.107069    803.83781    216.02237    28.377913    18.849108    14.339595     28.38025    18.846157    14.336941 
 1020000    292.09726    1.2509986    3436.5645            0            0            0            0     -4379.66    44657.537 -0.067234084   -17.036218 -0.041707817    3436.5645    1387.6543    950.09605     939.5582    28.379113    18.846741     14.33742 0.0003509228 0.00035082167 0.0021259871 0.0021256477    292.09726     41.49527    35.978931    34.423473    90.016431    119.66323    90.107069    757.18994    210.55368    28.379678    18.848998    14.339932    28.379803    18.845918    14.337642 
 1030000    296.23083    1.2509986    3397.7598            0            0            0            0    -4596.767    44657.537 -0.067234084   -17.036218 -0.041707817    3397.7598    1395.9364    941.53982    900.53077    28.379422    18.844835      14.3371 0.00039247828 0.00038979049 0.0022076489 0.0022063231    296.23083     41.49527    35.978931    34.423473    90.016431    119.66323    90.107069    786.27455    235.48697     28.37811    18.848325     14.33999    28.378819    18.845068    14.336846 
 1040000    293.68506    1.2509986    3343.0554            0            0            0            0   -2471.1995    44657.537 -0.067234084   -17.036218 -0.041707817    3343.0554    1384.8522    940.57531    864.64067    28.381353    18.845375    14.337381 0.00033160092 0.00033134318  0.002164752 0.0021643475    293.68506     41.49527    35.978931    34.423473    90.016431    119.66323    90.107069    770.99644    198.96055    28.379394    18.848817    14.340078    28.379568     18.84575    14.336746 
 1050000    298.54371    1.2509986    3378.1644            0            0            0            0   -3605.4127    44657.537 -0.067234084   -17.036218 -0.041707817    3378.1644    1408.1206    915.32365    902.29737    28.378868    18.844971    14.337203 0.00035700696 0.00035677078 0.0022336612 0.0022334941    298.54371     41.49527    35.978931    34.423473    90.016431    119.66323    90.107069    795.53908    214.20417    28.379951    18.849035    14.339921    28.380091    18.845242    14.337076 
 1060000    294.58176    1.2509986    3452.8375            0            0            0            0   -4346.6056    44657.537 -0.067234084   -17.036218 -0.041707817    3452.8375    1438.0805    953.75937     906.1352    28.378796    18.845817    14.337962 0.00036723479 0.00036671989 0.0021889467 0.0021880597    294.58176     41.49527    35.978931    34.423473    90.016431    119.66323    90.107069     779.6136    220.34087    28.380067    18.849496    14.339493    28.379308    18.844944    14.337857 
 1070000    293.47616    1.2509986    3487.0779            0            0            0            0   -5414.2148    44657.537 -0.067234084   -17.036218 -0.041707817    3487.0779    1451.9046    977.68359    904.32042    28.379318      18.8449    14.337521 0.00034216115 0.00034141639 0.0021639422 0.0021637734    293.47616     41.49527    35.978931    34.423473    90.016431    119.66323    90.107069    770.70802    205.29669     28.37946    18.848224    14.339975    28.379619    18.845129    14.337154 
 1080000    305.68844    1.2509986    3452.4858            0            0            0            0    -2733.788    44657.537 -0.067234084   -17.036218 -0.041707817    3452.4858    1406.3249    955.79921    929.99517    28.380507    18.846576    14.338486 0.00034449605 0.00034422261 0.0021079475 0.0021061788    305.68844     41.49527    35.978931    34.423473    90.016431    119.66323    90.107069    750.76498    206.69763    28.379653    18.848765    14.339188    28.379802    18.845191    14.338564 
 1090000    298.66475    1.2509986    3519.3555            0            0            0            0   -3939.3392    44657.537 -0.067234084   -17.036218 -0.041707817    3519.3555     1445.715    974.22221    934.19305    28.379447    18.846383    14.337588 0.0003057903 0.00030284538 0.0022516995 0.0022511484    298.66475     41.49527    35.978931    34.423473    90.016431    119.66323    90.107069    801.96357    183.47418    28.380347    18.848014    14.340788    28.379111    18.845556    14.337033 
 1100000    294.51282    1.2509986    3350.9328            0            0            0            0   -1858.1562    44657.537 -0.067234084   -17.036218 -0.041707817    3350.9328    1361.6234    960.98517    878.24431    28.378366    18.844718    14.337138 0.0003431778 0.00034233795 0.0022188855 0.0022187763    294.51282     41.49527    35.978931    34.423473    90.016431    119.66323    90.107069    790.27657    205.90668    28.379856    18.848162    14.339802    28.379629    18.845692    14.337095 
 1110000    295.20904    1.2509986    3454.0093            0            0            0            0   -3764.8598    44657.537 -0.067234084   -17.036218 -0.041707817    3454.0093    1463.7988    951.56081    890.56534    28.381205    18.845823    14.337599 0.00035239055 0.00034997249 0.0022683088 0.0022646622    295.20904     41.49527    35.978931    34.423473    90.016431    119.66323    90.107069    807.87915    211.43433    28.378655    18.848748    14.338399    28.380692    18.847143     14.33756 
 1120000    300.94166    1.2509986      3379.95            0            0            0            0   -3832.0781    44657.537 -0.067234084   -17.036218 -0.041707817      3379.95    1424.1292     940.1153    868.19516    28.379105    18.844922    14.337375 0.00039162798 0.00038857597 0.0022146632 0.0022143738    300.94166     41.49527    35.978931    34.423473    90.016431    119.66323    90.107069    788.77277    234.97679    28.380281    18.848908    14.341224    28.379819    18.846008    14.337334 
 1130000    294.62305    1.2509986    3474.9879            0            0            0            0   -4031.4526    44657.537 -0.067234084   -17.036218 -0.041707817    3474.9879    1456.1265    969.09181    891.49799    28.379969    18.845256    14.336084 0.00036908198 0.00036860701 0.0022172191 0.0022145808    294.62305     41.49527    35.978931    34.423473    90.016431    119.66323    90.107069    789.68308    221.44919    28.379448    18.849066    14.340317    28.379558    18.846556    14.336079 
 1140000    300.48455    1.2509986    3487.9727            0            0            0            0   -4082.4857    44657.537 -0.067234084   -17.036218 -0.041707817    3487.9727    1464.1603    936.80851    927.18812    28.380506    18.846866    14.337097 0.0003206742 0.00031981607 0.0022495604  0.002248394    300.48455     41.49527    35.978931    34.423473    90.016431    119.66323    90.107069    801.20174    192.40452    28.379465     18.84855    14.340435    28.379101    18.845351    14.336461 
 1150000    299.67795    1.2509986    3453.9792            0            0            0            0   -4115.3287    44657.537 -0.067234084   -17.036218 -0.041707817    3453.9792    1417.9031    951.54446    921.09897    28.379518    18.847892    14.337746 0.00036703062 0.00036660993 0.0021660373 0.0021636145    299.67795     41.49527    35.978931    34.423473    90.016431    119.66323    90.107069    771.45422    220.21837     28.37916    18.848571    14.339377    28.380386    18.846892    14.336974 
 1160000    306.31048    1.2509986    3399.3804            0            0            0            0   -3722.2072    44657.537 -0.067234084   -17.036218 -0.041707817    3399.3804    1439.9677    915.40682    885.79905    28.379269    18.845742    14.337252 0.00034947893 0.00034612587 0.0021158688 0.0021144492    306.31048     41.49527    35.978931    34.423473    90.016431    119.66323    90.107069    753.58623    209.68736    28.378355    18.849005    14.338256    28.378781    18.845941    14.337637 
 1170000    300.02875    1.2509986    3415.1582            0            0            0            0   -3257.5623    44657.537 -0.067234084   -17.036218 -0.041707817    3415.1582    1410.5335     944.4463    904.58587    28.379742    18.845503    14.336806 0.00032638661 0.00032411595 0.0021493964 0.0021484039    300.02875     41.49527    35.978931    34.423473    90.016431    119.66323    90.107069    765.52741    195.83197    28.379152     18.84992    14.338505    28.379382    18.846364    14.337136 
 1180000    300.84621    1.2509986      3373.28            0            0            0            0   -3291.2864    44657.537 -0.067234084   -17.036218 -0.041707817      3373.28    1414.9921     970.9308    841.37445    28.381076    18.845469    14.337969 0.00034238471 0.00034050076 0.0021734806 0.0021732599    300.84621     41.49527    35.978931    34.423473    90.016431    119.66323    90.107069    774.10519    205.43083    28.379745    18.847818     14.33899    28.379595    18.845812     14.33702 
 1190000    297.36527    1.2509986    3450.9145            0            0            0            0   -4624.6333    44657.537 -0.067234084   -17.036218 -0.041707817    3450.9145    1426.7438    961.70393    907.70491    28.380326    18.846409    14.337484 0.00036001783 0.00035699817 0.0020834906 0.0020831635    297.36527     41.49527    35.978931    34.423473    90.016431    119.66323    90.107069    742.05443     216.0107    28.380201    18.848313    14.341092     28.38022    18.845499    14.336864 
 1200000    299.04317    1.2509986    3425.6357            0            0            0            0   -5115.8407    44657.537 -0.067234084   -17.036218 -0.041707817    3425.6357    1405.4908    930.57913    926.60729    28.377705    18.847545    14.337193 0.00036672897 0.00036620387 0.0022703535 0.0022695909    299.04317     41.49527    35.978931    34.423473    90.016431    119.66323    90.107069    808.60739    220.03738    28.379508    18.849455    14.339066    28.379069    18.845836    14.336982 
 1210000    299.76521    1.2509986    3432.7182            0            0            0            0   -3868.3074    44657.537 -0.067234084   -17.036218 -0.041707817    3432.7182    1445.0813    968.16647    868.60658    28.382855    18.844914    14.338193 0.0003344361 0.00033337439 0.0020511378 0.0020501907    299.76521     41.49527    35.978931    34.423473    90.016431    119.66323    90.107069     730.5317    200.66166    28.379084    18.848115    14.339458    28.380174    18.844681    14.336832 
 1220000    297.99379    1.2509986    3450.5228            0            0            0            0   -3110.7172    44657.537 -0.067234084   -17.036218 -0.041707817    3450.5228    1422.1491    966.10127    906.48306    28.379746    18.845602    14.337393 0.00036069579 0.0003588647 0.0021606111 0.0021587865    297.99379     41.49527    35.978931    34.423473    90.016431    119.66323    90.107069    769.52159    216.41747    28.380779    18.848777    14.339109    28.378685     18.84552    14.336522 
 1230000    300.01373    1.2509986    3460.6536            0            0            0            0   -4803.3071    44657.537 -0.067234084   -17.036218 -0.041707817    3460.6536    1398.1449    973.00972    923.41502    28.378804    18.846363     14.33774 0.00030727655 0.00030703012 0.0023058155 0.0023047777    300.01373     41.49527    35.978931    34.423473    90.016431    119.66323    90.107069     821.2375    184.36593    28.379317    18.848578    14.339628    28.379497    18.846441    14.337197 
 1240000    298.37949    1.2509986    3433.6024            0            0            0            0   -4580.7744    44657.537 -0.067234084   -17.036218 -0.041707817    3433.6024    1432.4602    965.01207    883.10936    28.377481    18.845847    14.336489 0.00035447127 0.00035178333 0.0021716711 0.0021707432    298.37949     41.49527    35.978931    34.423473    90.016431    119.66323    90.107069    773.46073    212.68276    28.379126    18.850595    14.339659    28.379285    18.846219    14.336955 
 1250000    295.99468    1.2509986    3403.0093            0            0            0            0   -4896.9007    44657.537 -0.067234084   -17.036218 -0.041707817    3403.0093    1432.4275    934.11228    880.26168    28.380595    18.846616    14.337505 0.00033727982 0.00033511053 0.0022701085 0.0022697992    295.99468     41.49527    35.978931    34.423473    90.016431    119.66323    90.107069    808.52013    202.36789    28.378089    18.848959    14.339525    28.379453    18.845103    14.337059 
 1260000    299.96328    1.2509986     3411.754            0            0            0            0   -4173.5601    44657.537 -0.067234084   -17.036218 -0.041707817     3411.754    1386.2088    962.58294     904.6411     28.37924    18.845868    14.337331 0.00037291245 0.00037151346 0.0022730437 0.0022715569    299.96328     41.49527    35.978931    34.423473    90.016431    119.66323    90.107069    809.56554    223.74747    28.378547    18.849425    14.339179    28.381004      18.8455    14.337011 
 1270000    295.21906    1.2509986    3457.5134            0            0            0            0   -4241.1738    44657.537 -0.067234084   -17.036218 -0.041707817    3457.5134    1421.3073    962.49591    917.65489    28.379883    18.846415     14.33731 0.00036390597 0.00036327588 0.0020588185 0.0020546337    295.21906     41.49527    35.978931    34.423473    90.016431    119.66323    90.107069    733.26725    218.34358    28.379926    18.849052    14.340339    28.381503    18.844359    14.336979 
 1280000    300.00801    1.2509986    3362.7337            0            0            0            0   -4148.0072    44657.537 -0.067234084   -17.036218 -0.041707817    3362.7337     1403.367    911.78436    894.31827    28.380399    18.846315    14.337308 0.00035970044 0.00035896584 0.0022242653 0.0022240659    300.00801     41.49527    35.978931    34.423473    90.016431    119.66323    90.107069    792.19264    215.82027     28.37904    18.848362    14.339848    28.379834    18.845718    14.336891 
 1290000    298.31388    1.2509986    3382.8617            0            0            0            0   -3143.1226    44657.537 -0.067234084   -17.036218 -0.041707817    3382.8617    1405.9721    926.94428    893.38169    28.377997    18.844311    14.336899 0.00030183945 0.00030171999 0.0021561131 0.0021559112    298.31388     41.49527    35.978931    34.423473    90.016431    119.66323    90.107069    767.91962    181.10367    28.379538     18.84932    14.339795    28.379811    18.845163     14.33694 
 1300000    304.60253    1.2509986    3381.2189            0            0            0            0   -3437.3222    44657.537 -0.067234084   -17.036218 -0.041707817    3381.2189    1407.8281    915.15563     902.0215    28.379435    18.846606    14.337258 0.00033760521 0.00033709338 0.0022187854 0.0022169372    304.60253     41.49527    35.978931    34.423473    90.016431    119.66323    90.107069    790.24093    202.56312    28.379543    18.849425    14.340223    28.379091     18.84662    14.337139 
 1310000    299.43641    1.2509986    3393.3853            0            0            0            0   -4354.5702    44657.537 -0.067234084   -17.036218 -0.041707817    3393.3853    1419.0478    915.13529    904.18817    28.380568    18.844943    14.338131 0.00036919347 0.00036536034 0.0022255853  0.002225501    299.43641     41.49527    35.978931    34.423473    90.016431    119.66323    90.107069    792.66276    221.51608    28.379771    18.847364    14.338604    28.380031    18.845587    14.337418 
 1320000    298.38772    1.2509986    3448.2904            0            0            0            0   -3407.2601    44657.537 -0.067234084   -17.036218 -0.041707817    3448.2904    1464.7616    963.12505    872.76268    28.379684    18.846292    14.337353 0.00036961471 0.00036561984 0.0021186997 0.0021180991    298.38772     41.49527    35.978931    34.423473    90.016431    119.66323    90.107069    754.59447    221.76882    28.381508    18.848974    14.340067    28.379892    18.845784    14.336558 
 1330000    304.03841    1.2509986     3484.225            0            0            0            0   -4412.2901    44657.537 -0.067234084   -17.036218 -0.041707817     3484.225    1447.8522    933.99796     939.8117    28.377985    18.846897    14.336774 0.00034211565 0.00034196468 0.0022171231 0.0022165713    304.03841     41.49527    35.978931    34.423473    90.016431    119.66323    90.107069    789.64887    205.26939    28.379836    18.848988    14.339906    28.379286    18.845908     14.33697 
 1340000    301.65822    1.2509986    3451.8045            0            0            0            0   -4353.4339    44657.537 -0.067234084   -17.036218 -0.041707817    3451.8045    1428.3188    960.85414    907.97348    28.375291    18.847047    14.336396 0.00037754907 0.00037696754   0.00223292 0.0022314934    301.65822     41.49527    35.978931    34.423473    90.016431    119.66323    90.107069    795.27508    226.52944    28.379652     18.84874    14.338932    28.379888    18.846666    14.337281 
 1350000    298.22275    1.2509986    3418.0062            0            0            0            0   -5019.8888    44657.537 -0.067234084   -17.036218 -0.041707817    3418.0062     1402.109    925.35711    926.47693    28.380572    18.846101    14.337399 0.00034536134 0.00034188703 0.0021657904 0.0021637611    298.22275     41.49527    35.978931    34.423473    90.016431    119.66323    90.107069    771.36625     207.2168    28.379662    18.847223    14.339129    28.381067    18.844943    14.336849 
 1360000    299.84445    1.2509986    3415.9748            0            0            0            0   -3337.8733    44657.537 -0.067234084   -17.036218 -0.041707817    3415.9748    1409.1667    947.41992    899.62068    28.381402    18.846291    14.337755 0.00037323391 0.00037166391 0.0022542863 0.0022531617    299.84445     41.49527    35.978931    34.423473    90.016431    119.66323    90.107069    802.88491    223.94034    28.378413    18.848573    14.339376    28.379175    18.845984    14.336587 
 1370000    304.14916    1.2509986    3471.0197            0            0            0            0   -4780.7639    44657.537 -0.067234084   -17.036218 -0.041707817    3471.0197    1451.6645     959.0867    905.85446    28.379421    18.846478    14.337439 0.00036128521 0.00035954945   0.00218996 0.0021874784    304.14916     41.49527    35.978931    34.423473    90.016431    119.66323    90.107069    779.97449    216.77112    28.378793    18.848406    14.338752    28.378446    18.846228    14.337482 
 1380000    302.50635    1.2509986    3403.0214            0            0            0            0   -4004.0251    44657.537 -0.067234084   -17.036218 -0.041707817    3403.0214    1434.9825    956.75612     865.5856    28.378847    18.845876    14.337447 0.00033863463 0.00033795611 0.0022343311 0.0022334642    302.50635     41.49527    35.978931    34.423473    90.016431    119.66323    90.107069    795.77767    203.18078    28.379474    18.848486     14.33901    28.380216    18.844857    14.336696 
 1390000    300.85937    1.2509986    3399.7201            0            0            0            0   -3866.3411    44657.537 -0.067234084   -17.036218 -0.041707817    3399.7201    1400.6255    948.47602    894.66848    28.380249    18.846608    14.337421 0.00035023981 0.00034771937  0.002180128 0.0021785263    300.85937     41.49527    35.978931    34.423473    90.016431    119.66323    90.107069    776.47272    210.14389    28.378883    18.849368    14.341031     28.37946    18.846601    14.336807 
 1400000    295.65942    1.2509986    3409.3141            0            0            0            0   -6933.1014    44657.537 -0.067234084   -17.036218 -0.041707817    3409.3141    1436.7078    935.68485    881.92722    28.378956    18.845586    14.336939 0.0003513854 0.00035000497 0.0021915065 0.0021913464    295.65942     41.49527    35.978931    34.423473    90.016431    119.66323    90.107069     780.5253    210.83124    28.379852    18.848847    14.338513    28.379493    18.845392    14.337492 
 1410000     298.4818    1.2509986    3333.0491            0            0            0            0   -4580.1821    44657.537 -0.067234084   -17.036218 -0.041707817    3333.0491    1397.5468    944.21305    846.26733    28.378712    18.845488    14.337174 0.00036237617 0.00036193492 0.0021339758 0.0021331349     298.4818     41.49527    35.978931    34.423473    90.016431    119.66323    90.107069    760.03522     217.4257    28.379517    18.848488    14.340043    28.379275    18.846192    14.337457 
 1420000     297.3341    1.2509986    3405.6906            0            0            0            0   -5978.3513    44657.537 -0.067234084   -17.036218 -0.041707817    3405.6906    1432.3643    956.23318    868.64923    28.377666    18.846739    14.337375 0.00037196563 0.00037087741  0.002062681 0.0020604603     297.3341     41.49527    35.978931    34.423473    90.016431    119.66323    90.107069    734.64292    223.17938    28.379093    18.848211    14.340118    28.378828    18.846562     14.33753 
 1430000    298.32452    1.2509986    3407.6707            0            0            0            0   -4393.8354    44657.537 -0.067234084   -17.036218 -0.041707817    3407.6707    1435.2644    926.22373    887.75011    28.382455    18.846161    14.338424 0.00035470577 0.00035297026  0.002142343 0.0021413231    298.32452     41.49527    35.978931    34.423473    90.016431    119.66323    90.107069    763.01526    212.82346    28.380712    18.849126    14.339016    28.379842    18.846157    14.338008 
 1440000     301.4419    1.2509986    3458.8426            0            0            0            0    -3300.546    44657.537 -0.067234084   -17.036218 -0.041707817    3458.8426    1416.6053    948.39264    930.87667    28.379637    18.845184      14.3374 0.00034830477 0.00034806857 0.0022257728  0.002225463     301.4419     41.49527    35.978931    34.423473    90.016431    119.66323    90.107069    792.72957    208.98286    28.379396     18.84872    14.339285    28.380126     18.84502    14.337195 
 1450000    300.56356    1.2509986    3384.5692            0            0            0            0   -2480.4524    44657.537 -0.067234084   -17.036218 -0.041707817    3384.5692    1416.8557    954.33062    864.36164    28.382063    18.844918    14.338332 0.00034695122 0.00034584681 0.0022510287 0.0022459274    300.56356     41.49527    35.978931    34.423473    90.016431    119.66323    90.107069    801.72467    208.17073    28.380253       18.849    14.340425    28.381804    18.844843    14.338122 
 1460000    296.84003    1.2509986    3476.4657            0            0            0            0   -4050.3036    44657.537 -0.067234084   -17.036218 -0.041707817    3476.4657    1458.2168    933.99804    923.11114    28.379619    18.845916    14.337768 0.00035120264 0.00035077516 0.0022070181 0.0022065703    296.84003     41.49527    35.978931    34.423473    90.016431    119.66323    90.107069    786.04988    210.72158    28.380137     18.84908    14.339931     28.37945    18.845919    14.336919 
 1470000    298.02665    1.2509986    3377.0653            0            0            0            0   -3813.9819    44657.537 -0.067234084   -17.036218 -0.041707817    3377.0653    1388.7375    929.87109    902.50555    28.378253    18.846618      14.3369 0.00036394552 0.00036365147 0.0022210584 0.0022180986    298.02665     41.49527    35.978931    34.423473    90.016431    119.66323    90.107069    791.05047    218.36731    28.380012    18.848787    14.339828    28.378973    18.846892     14.33677 
 1480000    298.93173    1.2509986    3450.4332            0            0            0            0   -5929.9391    44657.537 -0.067234084   -17.036218 -0.041707817    3450.4332    1423.6866     965.6218    900.79344     28.37682    18.846592    14.336554 0.00034849138 0.00034842028 0.0020995422 0.0020959757    298.93173     41.49527    35.978931    34.423473    90.016431    119.66323    90.107069    747.77137    209.09483    28.379548    18.849144     14.33987    28.378104    18.845986    14.336641 
 1490000    299.65148    1.2509986     3441.598            0            0            0            0   -4011.2179    44657.537 -0.067234084   -17.036218 -0.041707817     3441.598    1442.1517    957.61654    889.13062    28.379888    18.846372    14.337539 0.00032724817 0.00032682114 0.0022222641 0.0022215859    299.65148     41.49527    35.978931    34.423473    90.016431    119.66323    90.107069    791.47989     196.3489    28.378931    18.848825    14.339661    28.380457    18.845937    14.337484 
 1500000    291.26291    1.2509986    3438.6275            0            0            0            0   -3496.1715    44657.537 -0.067234084   -17.036218 -0.041707817    3438.6275     1417.207    940.73237    923.07458    28.378583    18.847352    14.336608 0.00035437808 0.00035350879  0.002023332 0.0020207643    291.26291     41.49527    35.978931    34.423473    90.016431    119.66323    90.107069    720.62839    212.62685    28.379246    18.848827    14.340498    28.379068    18.846709    14.336564 
 1510000    293.58089    1.2509986    3385.4412            0            0            0            0   -4303.7025    44657.537 -0.067234084   -17.036218 -0.041707817    3385.4412    1441.5945     914.9668    882.26336    28.380757     18.84523    14.337819 0.00036866854 0.00036695772 0.0021902957 0.0021877088    293.58089     41.49527    35.978931    34.423473    90.016431    119.66323    90.107069    780.09404    221.20113    28.380434    18.848052    14.339767    28.381179    18.846299    14.337459 
 1520000    303.55099    1.2509986    3411.5274            0            0            0            0     -4534.72    44657.537 -0.067234084   -17.036218 -0.041707817    3411.5274    1427.5154    934.73638    899.15628    28.378657    18.846478    14.337376 0.00032675703 0.00032599374 0.0022100099 0.0022092816    303.55099     41.49527    35.978931    34.423473    90.016431    119.66323    90.107069    787.11544    196.05422    28.380342    18.848835      14.3393    28.378974    18.845612    14.337178 
[...]
 1630000    302.32574    1.2509986     3411.728            0            0            0            0   -1877.6289    44657.537 -0.067234084   -17.036218 -0.041707817     3411.728    1409.9308    965.68654     880.5882    28.380663    18.844704     14.33713 0.00035406324 0.0003540483 0.0021011777 0.0021005959    302.32574     41.49527    35.978931    34.423473    90.016431    119.66323    90.107069    748.35385    212.43795    28.379586    18.848906    14.339689    28.379402    18.846062    14.337004 
 1640000     303.7465    1.2509986    3362.0678            0            0            0            0   -4073.6808    44657.537 -0.067234084   -17.036218 -0.041707817    3362.0678    1401.8478    920.34979     886.1218    28.378905    18.847144    14.337645 0.00038175177 0.00037732482 0.0022657351 0.0022644831     303.7465     41.49527    35.978931    34.423473    90.016431    119.66323    90.107069    806.96248    229.05106    28.378402    18.847286     14.33997    28.380044    18.846565     14.33736 
 1650000    298.67966    1.2509986    3432.7392            0            0            0            0   -3192.5378    44657.537 -0.067234084   -17.036218 -0.041707817    3432.7392    1430.6992    936.61548    905.99198    28.380371    18.845376    14.336997 0.00035372918 0.00035045022 0.0022226349 0.0022217717    298.67966     41.49527    35.978931    34.423473    90.016431    119.66323    90.107069    791.61197    212.23751    28.378075    18.849547    14.340532    28.379006    18.845682    14.336852 
 1660000    296.89971    1.2509986    3470.2473            0            0            0            0   -3423.2673    44657.537 -0.067234084   -17.036218 -0.041707817    3470.2473     1455.929    945.70833    911.89966    28.377093    18.847592    14.336801 0.00035745294 0.00035377765 0.0021834176  0.002180796    296.89971     41.49527    35.978931    34.423473    90.016431    119.66323    90.107069    777.64435    214.47177     28.38091    18.847902    14.340418    28.378317    18.845405    14.336648 
 1670000    302.76835    1.2509986    3497.5892            0            0            0            0   -4121.0951    44657.537 -0.067234084   -17.036218 -0.041707817    3497.5892    1446.4244    939.07068    944.99337    28.380734    18.846954    14.337381 0.00035658177 0.00035337348 0.0021998395  0.002196518    302.76835     41.49527    35.978931    34.423473    90.016431    119.66323    90.107069    783.49316    213.94906    28.379613    18.847232    14.339819    28.379716    18.847288    14.337109 
 1680000    300.58843    1.2509986    3518.2384            0            0            0            0   -5525.8352    44657.537 -0.067234084   -17.036218 -0.041707817    3518.2384    1470.3978    999.12772    892.09427    28.378718    18.846162     14.33678 0.00037183652 0.00037175403 0.0022699061 0.0022676783    300.58843     41.49527    35.978931    34.423473    90.016431    119.66323    90.107069    808.44804    223.10191    28.379282    18.848929    14.339658    28.380992    18.845934    14.336475 
 1690000    299.40064    1.2509986    3485.6677            0            0            0            0   -4706.2715    44657.537 -0.067234084   -17.036218 -0.041707817    3485.6677    1459.9455    929.18254    930.49808    28.377409     18.84687    14.336293 0.00036434645 0.00036309919 0.0021503148 0.0021467405    299.40064     41.49527    35.978931    34.423473    90.016431    119.66323    90.107069    765.85448    218.60787    28.380118    18.848859    14.340591    28.379491    18.847166    14.336483 
 1700000      297.808    1.2509986    3428.9418            0            0            0            0    -4013.397    44657.537 -0.067234084   -17.036218 -0.041707817    3428.9418    1419.6042      946.696    907.49541    28.377209     18.84542    14.337398 0.00034071867 0.00033934298 0.0022115126 0.0022110477      297.808     41.49527    35.978931    34.423473    90.016431    119.66323    90.107069    787.65063     204.4312    28.379031      18.8482      14.3403    28.380216    18.845161    14.337716 
 1710000    292.31608    1.2509986    3416.0216            0            0            0            0   -3627.2245    44657.537 -0.067234084   -17.036218 -0.041707817    3416.0216    1424.2066    934.84955    899.46372    28.381671    18.846678    14.337724 0.00037040012 0.00036969065 0.0023072655 0.0023002614    292.31608     41.49527    35.978931    34.423473    90.016431    119.66323    90.107069    821.75392    222.24007    28.379509    18.849807    14.339914    28.378725    18.846547    14.335103 
 1720000    299.18401    1.2509986    3439.5636            0            0            0            0    -4443.486    44657.537 -0.067234084   -17.036218 -0.041707817    3439.5636    1442.4692    946.78352    893.57248    28.379048    18.846595    14.337317 0.0003697057 0.00036865647 0.0020813928  0.002079013    299.18401     41.49527    35.978931    34.423473    90.016431    119.66323    90.107069    741.30728    221.82342    28.380174     18.84872    14.338875    28.379222    18.846884    14.337477 
 1730000    296.81455    1.2509986    3447.6754            0            0            0            0   -4261.8167    44657.537 -0.067234084   -17.036218 -0.041707817    3447.6754    1454.3399    931.01709    907.39788    28.378885    18.846394    14.336824 0.00032444909 0.00032428985 0.0021641993 0.0021626681    296.81455     41.49527    35.978931    34.423473    90.016431    119.66323    90.107069    770.79958    194.66945    28.379537    18.848654    14.339811    28.379423    18.846649     14.33728 
 1740000    296.63369    1.2509986    3464.2887            0            0            0            0    -3959.935    44657.537 -0.067234084   -17.036218 -0.041707817    3464.2887    1410.0253    988.50967    909.76786    28.379541    18.845107    14.337645 0.00035987215 0.00035952099 0.0022106965 0.0022101064    296.63369     41.49527    35.978931    34.423473    90.016431    119.66323    90.107069    787.35998    215.92329    28.379125    18.849332    14.339889    28.379142    18.845654    14.337595 
 1750000    299.53135    1.2509986    3457.1242            0            0            0            0   -5733.4797    44657.537 -0.067234084   -17.036218 -0.041707817    3457.1242     1439.534    950.26429    908.48406    28.382185    18.845122    14.337466 0.00033789536 0.00033736484 0.0021472707 0.0021460981    299.53135     41.49527    35.978931    34.423473    90.016431    119.66323    90.107069     764.7703    202.73722    28.380227    18.849023    14.339923     28.37985    18.845081    14.336256 
 1760000    293.72562    1.2509986    3476.9833            0            0            0            0   -4333.1091    44657.537 -0.067234084   -17.036218 -0.041707817    3476.9833    1439.5097    959.29772    922.87499    28.377315    18.845047     14.33708 0.00034826746 0.00034796724 0.0023906301 0.0023896432    293.72562     41.49527    35.978931    34.423473    90.016431    119.66323    90.107069    851.44502    208.96047    28.379633     18.84857    14.339951    28.379026     18.84606    14.337104 
 1770000    289.93009    1.2509986    3380.8932            0            0            0            0   -5203.1998    44657.537 -0.067234084   -17.036218 -0.041707817    3380.8932    1439.6656    964.38154    833.44725    28.380927    18.846136     14.33739 0.00031647066  0.000313655 0.0022395331 0.0022366143    289.93009     41.49527    35.978931    34.423473    90.016431    119.66323    90.107069     797.6304    189.88239    28.379877      18.8485    14.341203    28.380603    18.846629    14.336284 
 1780000    299.88049    1.2509986    3428.5349            0            0            0            0   -4249.8688    44657.537 -0.067234084   -17.036218 -0.041707817    3428.5349    1440.6751    903.40827    921.75473     28.37925    18.844861     14.33652 0.00030946936 0.00030936435 0.0021127345 0.0021120764    299.88049     41.49527    35.978931    34.423473    90.016431    119.66323    90.107069    752.46993    185.68162    28.379535    18.849313    14.339517    28.380193    18.845249    14.336584 
 1790000     300.2403    1.2509986    3373.7839            0            0            0            0   -3810.5058    44657.537 -0.067234084   -17.036218 -0.041707817    3373.7839    1401.1215    906.66972    908.14979    28.382606     18.84655    14.338325 0.00036710633 0.00036533405 0.0021766365 0.0021759093     300.2403     41.49527    35.978931    34.423473    90.016431    119.66323    90.107069     775.2292     220.2638    28.379004    18.848095    14.338848    28.379612    18.844789     14.33773 
 1800000    294.89431    1.2509986    3412.9964            0            0            0            0   -3986.7144    44657.537 -0.067234084   -17.036218 -0.041707817    3412.9964    1439.7152    955.62601     867.6196    28.377086    18.845932    14.335972 0.00035709488 0.00035568258 0.0022069823  0.002205828    294.89431     41.49527    35.978931    34.423473    90.016431    119.66323    90.107069    786.03713    214.25693     28.38024    18.848109     14.33928    28.378988    18.845984    14.336799 
 1810000    292.44378    1.2509986    3420.6413            0            0            0            0   -4246.2474    44657.537 -0.067234084   -17.036218 -0.041707817    3420.6413     1453.271     951.6885    867.14365     28.38116    18.846543    14.337956 0.00034446121 0.00034332402 0.0021737285 0.0021726577    292.44378     41.49527    35.978931    34.423473    90.016431    119.66323    90.107069     774.1935    206.67672    28.379644    18.848567    14.340603    28.380577    18.845315    14.337943 
 1820000    297.01336    1.2509986    3432.6293            0            0            0            0   -4999.8956    44657.537 -0.067234084   -17.036218 -0.041707817    3432.6293    1427.1012    946.29783    903.50014    28.378608     18.84517    14.337191 0.00033945107 0.00033788597 0.0021791277  0.002178827    297.01336     41.49527    35.978931    34.423473    90.016431    119.66323    90.107069    776.11646    203.67064    28.379073    18.847861     14.33957    28.379405     18.84511    14.337314 
 1830000    298.29775    1.2509986    3400.4953            0            0            0            0   -4640.5335    44657.537 -0.067234084   -17.036218 -0.041707817    3400.4953    1409.6512    962.66092    877.93028    28.379938    18.845745    14.337291 0.00033532486 0.00033435174 0.0021403803   0.00213773    298.29775     41.49527    35.978931    34.423473    90.016431    119.66323    90.107069    762.31623    201.19492    28.380407    18.848582    14.339384    28.380702    18.846826    14.337087 
 1840000    294.96204    1.2509986    3419.4476            0            0            0            0   -3021.0466    44657.537 -0.067234084   -17.036218 -0.041707817    3419.4476    1414.4991    930.42797    918.12498    28.380479    18.844449    14.336794 0.00034335779 0.00034198259 0.0020972621 0.0020960108    294.96204     41.49527    35.978931    34.423473    90.016431    119.66323    90.107069    746.95927    206.01468    28.379382    18.847866    14.339464      28.3796    18.845482    14.336166 
 1850000    303.90512    1.2509986    3474.9441            0            0            0            0   -4482.8682    44657.537 -0.067234084   -17.036218 -0.041707817    3474.9441    1423.7317    938.51939     946.8345    28.378745    18.847187     14.33696 0.00036440849 0.00036282506 0.0021520453 0.0021514182    303.90512     41.49527    35.978931    34.423473    90.016431    119.66323    90.107069    766.47082     218.6451    28.378795    18.849873    14.339125    28.380327    18.844904    14.337455 
 1860000    290.92778    1.2509986    3411.5634            0            0            0            0   -4751.1625    44657.537 -0.067234084   -17.036218 -0.041707817    3411.5634    1417.6894    937.24407    898.96425     28.37905    18.846727    14.338071 0.00034555352 0.00034301426 0.0020944939 0.0020900217    290.92778     41.49527    35.978931    34.423473    90.016431    119.66323    90.107069    745.97335    207.33211     28.37884    18.850351    14.340123    28.378711    18.847041    14.338161 
 1870000     301.2101    1.2509986    3494.2983            0            0            0            0   -4211.2528    44657.537 -0.067234084   -17.036218 -0.041707817    3494.2983    1420.3187    1027.6441    891.59128    28.379784    18.845937    14.337968 0.00032741353 0.0003223479 0.0021331401 0.0021310776     301.2101     41.49527    35.978931    34.423473    90.016431    119.66323    90.107069    759.73755    196.44812     28.38119    18.848054    14.340854    28.378956    18.846553    14.337673 
 1880000    288.79018    1.2509986     3475.571            0            0            0            0   -3795.7982    44657.537 -0.067234084   -17.036218 -0.041707817     3475.571    1443.0378    975.17064    904.33789    28.378369    18.846154    14.337199 0.00036647551 0.00036487229 0.0022126276 0.0022111622    288.79018     41.49527    35.978931    34.423473    90.016431    119.66323    90.107069    788.04778     219.8853    28.380592    18.848332     14.33938    28.378635    18.845646    14.337041 
 1890000    298.83195    1.2509986    3452.0956            0            0            0            0   -5627.4827    44657.537 -0.067234084   -17.036218 -0.041707817    3452.0956    1470.4737    956.36908    869.61977    28.382342    18.846671    14.337888 0.00036638519 0.00036248344 0.0021879844 0.0021865818    298.83195     41.49527    35.978931    34.423473    90.016431    119.66323    90.107069    779.27086    219.83112    28.378365    18.847765    14.340599    28.380427    18.846387    14.336827 
 1900000    302.26711    1.2509986    3446.0398            0            0            0            0   -3472.9474    44657.537 -0.067234084   -17.036218 -0.041707817    3446.0398    1399.8758    974.17879    917.22082    28.379024      18.8454    14.337224 0.00035838991 0.0003581971 0.0021716832 0.0021706041    302.26711     41.49527    35.978931    34.423473    90.016431    119.66323    90.107069    773.46503    215.03395    28.379512    18.849368    14.339893    28.379922    18.846439    14.337633 
 1910000    298.00594    1.2509986    3512.5504            0            0            0            0   -4420.3797    44657.537 -0.067234084   -17.036218 -0.041707817    3512.5504    1446.6607    991.88878    914.90003    28.379742    18.846912    14.337398 0.0003570572 0.00035324531 0.0022026232 0.0021987821    298.00594     41.49527    35.978931    34.423473    90.016431    119.66323    90.107069    784.48461    214.23432    28.378369    18.847474    14.339457    28.378118    18.845852    14.336353 
 1920000    295.34989    1.2509986    3395.3904            0            0            0            0   -4289.0507    44657.537 -0.067234084   -17.036218 -0.041707817    3395.3904    1368.6548    938.41421    920.68618    28.380256    18.846175    14.337418 0.00036791001 0.00036700389 0.0021856313 0.0021853567    295.34989     41.49527    35.978931    34.423473    90.016431    119.66323    90.107069    778.43277      220.746    28.380391     18.84921    14.339225    28.380319    18.845343    14.337286 
 1930000    294.41488    1.2509986     3436.253            0            0            0            0   -3971.8058    44657.537 -0.067234084   -17.036218 -0.041707817     3436.253    1455.3217    923.72183    900.27814    28.378228    18.846084    14.337343 0.00035956568 0.00035863923 0.0022494456 0.0022480975    294.41488     41.49527    35.978931    34.423473    90.016431    119.66323    90.107069    801.16083    215.73941    28.379721    18.848402    14.338913    28.378736    18.845515    14.336829 
 1940000    292.06526    1.2509986    3367.7094            0            0            0            0   -4152.3476    44657.537 -0.067234084   -17.036218 -0.041707817    3367.7094    1402.4688    914.18148    894.94857    28.379824    18.845366    14.337449 0.00033545518 0.00033260173 0.0022462614 0.0022442255    292.06526     41.49527    35.978931    34.423473    90.016431    119.66323    90.107069    800.02676    201.27311    28.380988    18.849837    14.339994    28.378488    18.846004    14.337311 
 1950000    297.61739    1.2509986    3446.9675            0            0            0            0   -4319.5265    44657.537 -0.067234084   -17.036218 -0.041707817    3446.9675    1423.6703    954.51015    911.40883    28.380168    18.846331    14.337473 0.0003779558 0.00037649082 0.0022019373 0.0021997007    297.61739     41.49527    35.978931    34.423473    90.016431    119.66323    90.107069    784.24033    226.77348    28.379288    18.849638    14.340639    28.379193    18.846825    14.337097 
 1960000    295.57249    1.2509986    3344.7387            0            0            0            0    -3154.112    44657.537 -0.067234084   -17.036218 -0.041707817    3344.7387    1408.6501    899.86211    881.16907    28.381233    18.847532    14.337276 0.00035641738 0.00035614345 0.0021229972 0.0021223504    295.57249     41.49527    35.978931    34.423473    90.016431    119.66323    90.107069    756.12507    213.85043    28.379273    18.848708    14.339956    28.380588    18.845681    14.337225 
 1970000    301.72112    1.2509986    3472.8784            0            0            0            0   -3072.5697    44657.537 -0.067234084   -17.036218 -0.041707817    3472.8784    1449.9161    966.68919    903.45438    28.381105    18.845646    14.338043 0.0003783071 0.00037412998  0.002164925 0.0021643582    301.72112     41.49527    35.978931    34.423473    90.016431    119.66323    90.107069    771.05803    226.98426    28.377692    18.848215    14.339384    28.380037    18.845185    14.337922 
 1980000    296.12154    1.2509986    3418.0701            0            0            0            0   -4649.5674    44657.537 -0.067234084   -17.036218 -0.041707817    3418.0701     1438.873    929.62089    897.53834    28.379554    18.847444    14.336639 0.00035842386 0.00035672708 0.0021339558 0.0021271861    296.12154     41.49527    35.978931    34.423473    90.016431    119.66323    90.107069    760.02806    215.05432    28.378685    18.849175    14.338684    28.380055    18.848035    14.336874 
 1990000    301.29802    1.2509986    3411.6801            0            0            0            0   -4793.8006    44657.537 -0.067234084   -17.036218 -0.041707817    3411.6801    1385.9937    938.16052     924.2572    28.379164    18.846085    14.336913 0.00034939752 0.0003469346 0.0021195895 0.0021191775    301.29802     41.49527    35.978931    34.423473    90.016431    119.66323    90.107069    754.91138    209.63851    28.379285    18.848445      14.3382     28.38007    18.844991    14.337599 
 2000000     291.4963    1.2509986    3489.5196            0            0            0            0   -6102.6893    44657.537 -0.067234084   -17.036218 -0.041707817    3489.5196    1439.0852    957.07291    934.69534    28.380456    18.846183    14.337884 0.00037100364 0.00036995836  0.002142306 0.0021402523     291.4963     41.49527    35.978931    34.423473    90.016431    119.66323    90.107069     763.0021    222.60219    28.380518    18.849151    14.339318    28.380861    18.846437      14.3371 
Loop time of 3660.28 on 20 procs for 2000000 steps with 4560 atoms

Pair  time (%) = 2685.51 (73.3689)
Bond  time (%) = 344.066 (9.4)
Neigh time (%) = 46.2052 (1.26234)
Comm  time (%) = 432.483 (11.8156)
Outpt time (%) = 0.527554 (0.0144129)
Other time (%) = 151.491 (4.13879)

Nlocal:    228 ave 239 max 220 min
Histogram: 1 1 4 3 3 5 2 0 0 1
Nghost:    5774 ave 5838 max 5739 min
Histogram: 2 2 8 3 1 0 2 0 1 1
Neighs:    83684.7 ave 88134 max 79183 min
Histogram: 1 0 1 5 4 4 2 2 0 1

Total # of neighbors = 1673694
Ave neighs/atom = 367.038
Ave special neighs/atom = 10.6316
Neighbor list builds = 9736
Dangerous builds = 0
System init for write_data ...
