LAMMPS data file via write_data, version 15 May 2015, timestep = 18500000

2593 atoms
6 atom types
1728 bonds
4 bond types
864 angles
3 angle types
0 dihedrals
3 dihedral types
0 impropers
1 improper types

-1.4941611414371001e+01 1.4941611414371001e+01 xlo xhi
-1.4941611414371001e+01 1.4941611414371001e+01 ylo yhi
-1.4941611414371001e+01 1.4941611414371001e+01 zlo zhi

Masses

1 15.9994
2 1.00794
3 12.0107
4 1.00794
5 12.0107
6 12.0107

Bond Coeffs # harmonic

1 1000 1
2 469 1.4
3 367 1.08
4 469 0.7

Angle Coeffs # harmonic

1 100 109.47
2 35 120
3 63 120

Dihedral Coeffs # opls

1 0 7.25 0 0
2 0 7.25 0 0
3 0 7.25 0 0

Improper Coeffs # cvff

1 2.5 -1 2

Atoms # full

2060 687 2 4.0999999999999998e-01 -8.4823320430050764e+00 -1.3961344378638842e+01 -1.4053446201744434e+01 -2 5 2
1823 608 2 4.0999999999999998e-01 -1.0134725130091519e+01 -7.3417450189729063e+00 -1.0836034149313999e+01 0 1 -1
1193 398 2 4.0999999999999998e-01 -9.1896993870637207e+00 -1.0372027441747264e+01 -1.1607182118971945e+01 8 2 -2
1824 608 2 4.0999999999999998e-01 -8.8785729583717927e+00 -7.0996742405530515e+00 -9.8211850358419106e+00 0 1 -1
1744 582 1 -8.1999999999999995e-01 -8.0941939304867745e+00 -1.2417963344768093e+01 -1.3319325100119968e+01 -1 3 -6
890 297 2 4.0999999999999998e-01 -1.3752031132225415e+01 -1.0591064585599304e+01 -1.1713565174581866e+01 0 -2 4
889 297 1 -8.1999999999999995e-01 -1.4384605544449672e+01 -9.8437886661948504e+00 -1.1510201837922464e+01 0 -2 4
707 236 2 4.0999999999999998e-01 -1.0993008441796642e+01 -7.2108264124126755e+00 -8.7260870939578332e+00 6 3 2
1690 564 1 -8.1999999999999995e-01 -8.2337538576288516e+00 -1.0273798695208235e+01 -1.0206235688464259e+01 2 11 1
381 127 2 4.0999999999999998e-01 -8.7365787306809040e+00 -1.0266174521646569e+01 -8.4672641353378602e+00 2 4 -4
2374 792 1 -8.1999999999999995e-01 -1.3771678502517172e+01 -5.7299420474306881e+00 -8.6360082033356989e+00 2 2 0
1822 608 1 -8.1999999999999995e-01 -9.8071022185739629e+00 -7.4625832008297559e+00 -9.8990231492158376e+00 0 1 -1
850 284 1 -8.1999999999999995e-01 -1.1793520792909108e+01 -7.1322648867044682e+00 -1.1854195398025922e+01 -1 -2 1
1327 443 1 -8.1999999999999995e-01 -1.2373006472646308e+01 -1.1577574762333896e+01 -1.2539515699332725e+01 4 7 -4
118 40 1 -8.1999999999999995e-01 -1.3408003752038660e+01 -1.2360154265986495e+01 -9.8484593560090818e+00 -2 -1 -2
785 262 2 4.0999999999999998e-01 -1.0874092339108604e+01 -8.8710500845485249e+00 -1.4829904636514170e+01 1 1 -1
1328 443 2 4.0999999999999998e-01 -1.2572628551793088e+01 -1.1209369262137393e+01 -1.3447537719537408e+01 4 7 -4
192 64 2 4.0999999999999998e-01 -8.8421423353576003e+00 -5.5755274725431434e+00 -1.4616909399319056e+01 2 4 3
1329 443 2 4.0999999999999998e-01 -1.1548604414140048e+01 -1.1142684575771330e+01 -1.2177355524926149e+01 4 7 -4
852 284 2 4.0999999999999998e-01 -1.2761213816208011e+01 -7.0196890382306085e+00 -1.1628751062093610e+01 -1 -2 1
1192 398 1 -8.1999999999999995e-01 -9.8000127851088052e+00 -1.0545768259649630e+01 -1.2380008122640298e+01 8 2 -2
851 284 2 4.0999999999999998e-01 -1.1702896778712390e+01 -7.7506637584400790e+00 -1.2634771101909429e+01 -1 -2 1
236 79 2 4.0999999999999998e-01 -1.4151396266187495e+01 -6.6923171046092449e+00 -1.0084040722295320e+01 3 0 -5
119 40 2 4.0999999999999998e-01 -1.4044477307828867e+01 -1.3114308929104556e+01 -1.0009954529117040e+01 -2 -1 -2
237 79 2 4.0999999999999998e-01 -1.4614542078979001e+01 -7.9751089536690429e+00 -1.0982025370048481e+01 3 0 -5
235 79 1 -8.1999999999999995e-01 -1.4409535882727159e+01 -6.9965678674316099e+00 -1.1000950576397853e+01 3 0 -5
1300 434 1 -8.1999999999999995e-01 -1.1945743867915485e+01 -1.4309585219283500e+01 -1.1794943768116314e+01 -2 6 1
1194 398 2 4.0999999999999998e-01 -1.0124768382779289e+01 -9.6755694927326275e+00 -1.2750435218105817e+01 8 2 -2
784 262 1 -8.1999999999999995e-01 -1.0592069963116218e+01 -8.3920896192110686e+00 -1.3998647398006966e+01 1 1 -1
584 195 2 4.0999999999999998e-01 -1.2271275054183736e+01 -1.1860590579681649e+01 -8.2701079447761110e+00 0 1 -6
1301 434 2 4.0999999999999998e-01 -1.2384591375065968e+01 -1.3502227245908262e+01 -1.2189296654805329e+01 -2 6 1
1745 582 2 4.0999999999999998e-01 -8.7391030648970229e+00 -1.1822049709533575e+01 -1.2840882436501637e+01 -1 3 -6
2059 687 1 -8.1999999999999995e-01 -8.5261779471778318e+00 -1.4744708517886369e+01 -1.4673402998917197e+01 -2 5 2
786 262 2 4.0999999999999998e-01 -9.6866834406706630e+00 -7.9905095216754889e+00 -1.4136259523968885e+01 1 1 -1
706 236 1 -8.1999999999999995e-01 -1.1610704270384508e+01 -7.2799623760833549e+00 -7.9427606319219981e+00 6 3 2
2256 752 2 4.0999999999999998e-01 -8.8636892104352683e+00 -1.4367179041016986e+01 -1.0630213969247027e+01 12 2 2
2376 792 2 4.0999999999999998e-01 -1.3057699928033321e+01 -6.3324442053364525e+00 -8.2794215158923592e+00 2 2 0
2375 792 2 4.0999999999999998e-01 -1.4263501399775471e+01 -5.3086421790586780e+00 -7.8740731557078263e+00 2 2 0
1691 564 2 4.0999999999999998e-01 -7.9592847132971736e+00 -1.1234709842542021e+01 -1.0241516221718797e+01 2 11 1
1746 582 2 4.0999999999999998e-01 -7.6638765801592230e+00 -1.1911617643888489e+01 -1.4066566189877229e+01 -1 3 -6
1558 520 1 -8.1999999999999995e-01 -1.3761759170450922e+01 -1.0166718289026690e+01 -1.4718847076446885e+01 4 6 4
1010 337 2 4.0999999999999998e-01 -1.1310334570239389e+01 -5.5879073422302792e+00 -1.1112226774944912e+01 5 6 -3
120 40 2 4.0999999999999998e-01 -1.2642921944879053e+01 -1.2426771705189010e+01 -1.0488881381827284e+01 -2 -1 -2
954 318 2 4.0999999999999998e-01 -9.7942145802402685e+00 -1.4219467525655034e+01 -8.4682450510708751e+00 0 5 -1
2255 752 2 4.0999999999999998e-01 -1.0394734534554587e+01 -1.4557026590904352e+01 -1.1165277723781427e+01 12 2 2
949 317 1 -8.1999999999999995e-01 -7.9620583952045134e+00 -7.3538605560539061e+00 -1.4409565867960149e+01 2 2 -1
2254 752 1 -8.1999999999999995e-01 -9.6944422495347276e+00 -1.4917855537380234e+01 -1.0549386961618051e+01 12 2 2
379 127 1 -8.1999999999999995e-01 -9.2262978520389538e+00 -1.0394669393038086e+01 -7.6049460435806706e+00 2 4 -4
1023 341 2 4.0999999999999998e-01 -9.9902183671697991e+00 -1.2345158842506498e+01 -1.4446614457269282e+01 3 1 -3
950 317 2 4.0999999999999998e-01 -7.6180279848151260e+00 -6.9965821573610354e+00 -1.3541278189268500e+01 2 2 -1
583 195 1 -8.1999999999999995e-01 -1.1792960981720558e+01 -1.1352823830191438e+01 -7.5536466458637070e+00 0 1 -6
952 318 1 -8.1999999999999995e-01 -9.2250800900482268e+00 -1.4580557232814845e+01 -7.7295784366520701e+00 0 5 -1
1560 520 2 4.0999999999999998e-01 -1.3976444924711338e+01 -9.4792447689816814e+00 -1.4025147963058064e+01 4 6 4
708 236 2 4.0999999999999998e-01 -1.1759721312060950e+01 -8.2432984638642068e+00 -7.7198128146302416e+00 6 3 2
380 127 2 4.0999999999999998e-01 -1.0129518521650535e+01 -1.0782217573639551e+01 -7.7891391672437198e+00 2 4 -4
2545 849 1 -8.1999999999999995e-01 -5.6091677237373183e+00 -1.4486426843029054e+01 -1.4623089359325007e+01 9 7 0
2299 767 1 -8.1999999999999995e-01 -2.8582753393123941e+00 -7.3162745500203261e+00 -8.3548458218559158e+00 4 6 3
1720 574 1 -8.1999999999999995e-01 -9.0477040802485043e-01 -1.3836436885094415e+01 -1.4158889190015795e+01 -1 1 3
2547 849 2 4.0999999999999998e-01 -6.5907497558553203e+00 -1.4526624852446124e+01 -1.4809661214220574e+01 9 7 0
1692 564 2 4.0999999999999998e-01 -7.4193239795804136e+00 -9.6937839516583040e+00 -1.0220902258857034e+01 2 11 1
2051 684 2 4.0999999999999998e-01 -1.7579775065906489e-01 -1.3791377207077913e+01 -1.1734155741420212e+01 5 0 2
2214 738 2 4.0999999999999998e-01 -9.9842763644645949e-01 -9.4587059236680666e+00 -1.4725334202597336e+01 2 -3 2
2559 853 2 4.0999999999999998e-01 -6.5748903105939629e+00 -9.6474482803395780e+00 -1.4736430750912996e+01 4 7 1
2300 767 2 4.0999999999999998e-01 -3.4627291883035927e+00 -7.9191433537684119e+00 -7.8341606932265799e+00 4 6 3
2229 743 2 4.0999999999999998e-01 -5.3119240212526186e+00 -9.9222808180639088e+00 -9.0490992967393815e+00 1 -2 -3
1565 522 2 4.0999999999999998e-01 -2.3182761412397213e-01 -1.2287423654398651e+01 -1.2815822679858639e+01 4 1 6
877 293 1 -8.1999999999999995e-01 -2.1858591414413695e+00 -1.2284155238173650e+01 -1.0436489058216042e+01 2 4 1
2213 738 2 4.0999999999999998e-01 -1.6282129588525507e+00 -8.8151986338259274e+00 -1.3363091914396405e+01 2 -3 2
767 256 2 4.0999999999999998e-01 -7.4220232311579082e-01 -5.8483774605952163e+00 -9.8595703897672209e+00 -2 6 -6
48 16 2 4.0999999999999998e-01 -5.4591542790083611e+00 -1.3394705919216564e+01 -1.2987699144666967e+01 3 6 -1
47 16 2 4.0999999999999998e-01 -4.7023538775428051e+00 -1.3900824488101483e+01 -1.1632143069455879e+01 3 6 -1
2144 715 2 4.0999999999999998e-01 -4.5512119439467806e+00 -1.1300762311553010e+01 -1.2107425290398021e+01 2 1 2
2143 715 1 -8.1999999999999995e-01 -3.9783115712452908e+00 -1.0554628134628839e+01 -1.1768312777901675e+01 2 1 2
135 45 2 4.0999999999999998e-01 -3.7810434352559259e+00 -7.3411096167005354e+00 -1.2850003655872969e+01 7 3 6
46 16 1 -8.1999999999999995e-01 -5.1286917352970089e+00 -1.3118046207291313e+01 -1.2085378700959927e+01 3 6 -1
1046 349 2 4.0999999999999998e-01 -2.4917912786736629e+00 -6.8779612257804690e+00 -1.0111307986486395e+01 8 3 -3
133 45 1 -8.1999999999999995e-01 -3.2017009763262294e+00 -8.1560044960059699e+00 -1.2865398639244049e+01 7 3 6
2511 837 2 4.0999999999999998e-01 -6.7861351893507056e+00 -1.2943976338693259e+01 -1.0927806025916887e+01 7 3 4
642 214 2 4.0999999999999998e-01 -7.0925745524439012e+00 -6.2664920719584387e+00 -1.1224519796735734e+01 4 2 2
2509 837 1 -8.1999999999999995e-01 -7.3779877505462634e+00 -1.2961938425044947e+01 -1.0122004481637395e+01 7 3 4
1047 349 2 4.0999999999999998e-01 -2.2809110223743865e+00 -7.2151506277878337e+00 -1.1695059198229659e+01 8 3 -3
879 293 2 4.0999999999999998e-01 -2.3518645867580119e+00 -1.2074118361962668e+01 -9.4730291839615273e+00 2 4 1
2510 837 2 4.0999999999999998e-01 -6.9294741034574354e+00 -1.3475289055857743e+01 -9.3904069589718162e+00 7 3 4
766 256 1 -8.1999999999999995e-01 -3.3955429308728213e-01 -5.1220131081004414e+00 -9.3026164313629103e+00 -2 6 -6
405 135 2 4.0999999999999998e-01 -6.4404830555733046e+00 -7.7224291289206954e+00 -9.2585067884867271e+00 8 -1 -2
404 135 2 4.0999999999999998e-01 -7.2805290778797662e+00 -6.4196803391172743e+00 -8.7450834718408679e+00 8 -1 -2
2228 743 2 4.0999999999999998e-01 -4.9966693542559799e+00 -9.4974143826309358e+00 -1.0593941754531462e+01 1 -2 -3
878 293 2 4.0999999999999998e-01 -2.4605108269766216e+00 -1.3227168271456051e+01 -1.0624162140551304e+01 2 4 1
939 313 2 4.0999999999999998e-01 -5.4222821791311464e+00 -5.8527835881376991e+00 -1.2728523258746524e+01 -2 -1 0
2145 715 2 4.0999999999999998e-01 -3.2191661945750987e+00 -1.0931884883680279e+01 -1.1237931812190983e+01 2 1 2
1045 349 1 -8.1999999999999995e-01 -1.9784259362280991e+00 -6.6392879983580393e+00 -1.0935576977119920e+01 8 3 -3
1801 601 1 -8.1999999999999995e-01 -1.5450650561722767e-01 -1.0509989514269549e+01 -9.3285858865335598e+00 -4 5 1
403 135 1 -8.1999999999999995e-01 -7.1203404710814402e+00 -7.0358884035445142e+00 -9.5161577305409430e+00 8 -1 -2
937 313 1 -8.1999999999999995e-01 -4.4259786084288439e+00 -5.7710896748843972e+00 -1.2703353365601149e+01 -2 -1 0
2052 684 2 4.0999999999999998e-01 -1.0052313427701520e-01 -1.4878288423889167e+01 -1.0517852787761424e+01 5 0 2
1721 574 2 4.0999999999999998e-01 -7.5804891017440035e-01 -1.4658272193005603e+01 -1.3608445865721844e+01 -1 1 3
640 214 1 -8.1999999999999995e-01 -7.1406082788184833e+00 -5.9095136989576922e+00 -1.2157358179346032e+01 4 2 2
2212 738 1 -8.1999999999999995e-01 -8.1996780300863037e-01 -9.2457029199607490e+00 -1.3764756232310720e+01 2 -3 2
134 45 2 4.0999999999999998e-01 -3.7380523076766163e+00 -8.9516331353493470e+00 -1.2583919316478838e+01 7 3 6
1803 601 2 4.0999999999999998e-01 -7.3696209378659638e-01 -1.1242490582465889e+01 -9.6808867471308773e+00 -4 5 1
2227 743 1 -8.1999999999999995e-01 -5.5256790292598073e+00 -9.2701244430275516e+00 -9.7763744564025714e+00 1 -2 -3
2301 767 2 4.0999999999999998e-01 -2.6163494102928073e+00 -6.5232171703729858e+00 -7.7958645025367410e+00 4 6 3
1482 494 2 4.0999999999999998e-01 -2.5300973618868561e-01 -9.8125488933883354e+00 -7.7581473676486645e+00 -1 3 2
2210 737 2 4.0999999999999998e-01 -6.0454115960611254e-01 -5.4958876919290809e+00 -1.1913931755649662e+01 3 4 -4
2050 684 1 -8.1999999999999995e-01 -3.0956961385685489e-02 -1.4754529039878358e+01 -1.1507687375084359e+01 5 0 2
1174 392 1 -8.1999999999999995e-01 -2.9099553371636233e+00 -1.2311366881316509e+01 -7.7561078203018434e+00 2 6 -3
2355 785 2 4.0999999999999998e-01 -4.2014185828555739e-01 -8.2977776572119168e+00 -1.1482063154917892e+01 8 -1 -2
1176 392 2 4.0999999999999998e-01 -3.1717095226125060e+00 -1.3264881968995265e+01 -7.6070373157233080e+00 2 6 -3
1722 574 2 4.0999999999999998e-01 -1.5341587567436257e+00 -1.4044667022449202e+01 -1.4907513810958461e+01 -1 1 3
1139 380 2 4.0999999999999998e-01 -1.4805859169101099e+01 -8.1284862693779534e+00 -4.8923876388230951e+00 5 2 2
547 183 1 -8.1999999999999995e-01 -1.3886095431061106e+01 -1.3496082877831093e+01 -4.0952773242594880e+00 5 -1 -3
634 212 1 -8.1999999999999995e-01 -9.0718028810603393e+00 -1.3185752767575494e+01 -3.1934948007644817e+00 2 5 -1
1005 335 2 4.0999999999999998e-01 -1.1927897955255652e+01 -8.0930232384651006e+00 -5.6327686988557115e+00 -4 6 -1
1003 335 1 -8.1999999999999995e-01 -1.2266192520650328e+01 -8.9799865162356873e+00 -5.9470634005667495e+00 -4 6 -1
1004 335 2 4.0999999999999998e-01 -1.2135695571993617e+01 -9.6608740729237930e+00 -5.2264449391297330e+00 -4 6 -1
2365 789 1 -8.1999999999999995e-01 -1.1626655524735167e+01 -1.0874872100676633e+01 -4.1765709442263663e+00 5 3 -2
2522 841 2 4.0999999999999998e-01 -1.0087459239980380e+01 -1.0614187257106341e+01 -1.2971437511978188e+00 5 3 -4
2366 789 2 4.0999999999999998e-01 -1.0899619354580853e+01 -1.0886248874813587e+01 -3.4901183106690894e+00 5 3 -2
2367 789 2 4.0999999999999998e-01 -1.1413553252050349e+01 -1.1532931332937771e+01 -4.8987023110811823e+00 5 3 -2
452 151 2 4.0999999999999998e-01 -8.3223056036770302e+00 -7.8480615463890855e+00 -5.7937001817354545e+00 1 -1 -3
686 229 2 4.0999999999999998e-01 -7.8376162719351345e+00 -6.6500267133658344e+00 -3.3648464696196605e+00 2 -2 -1
453 151 2 4.0999999999999998e-01 -8.6944594992886266e+00 -9.4359896985819844e+00 -5.8738295829390275e+00 1 -1 -3
685 229 1 -8.1999999999999995e-01 -8.5114511322414153e+00 -7.1012638712571272e+00 -2.7798167013488158e+00 2 -2 -1
2235 745 2 4.0999999999999998e-01 -9.8847996569581955e+00 -5.7681497691669836e+00 -1.5763744953747132e+00 3 2 -1
341 114 2 4.0999999999999998e-01 -1.3992479418952403e+01 -1.4032354651515311e+01 -7.1507325670802588e+00 2 6 -2
1590 530 2 4.0999999999999998e-01 -8.4005842434967910e+00 -1.3142090606475286e+01 -1.2024339347707222e+00 2 -2 -2
548 183 2 4.0999999999999998e-01 -1.4046392670866210e+01 -1.2538073904564238e+01 -3.8576813868802997e+00 5 -1 -3
687 229 2 4.0999999999999998e-01 -8.9861096740888549e+00 -7.8091431494884684e+00 -3.3028218749745619e+00 2 -2 -1
2233 745 1 -8.1999999999999995e-01 -1.0332900018695305e+01 -5.7734964564834961e+00 -6.8244734554033393e-01 3 2 -1
2521 841 1 -8.1999999999999995e-01 -9.6347336918735653e+00 -1.0544374296499580e+01 -2.1860160368948662e+00 5 3 -4
2523 841 2 4.0999999999999998e-01 -8.7905569396935448e+00 -1.1080216608994602e+01 -2.1730981687741817e+00 5 3 -4
361 121 1 -8.1999999999999995e-01 -7.9601021022366520e+00 -8.6907939470842663e+00 -3.3661220026869998e-01 0 4 -6
2234 745 2 4.0999999999999998e-01 -1.0346835922961223e+01 -6.7062010785723221e+00 -3.2217422764511028e-01 3 2 -1
636 212 2 4.0999999999999998e-01 -9.2389327790659088e+00 -1.2612681667477949e+01 -3.9957325543924203e+00 2 5 -1
362 121 2 4.0999999999999998e-01 -7.6201767816519181e+00 -8.0349501966419581e+00 -1.0105914110976268e+00 0 4 -6
506 169 2 4.0999999999999998e-01 -1.1304900985892452e+01 -5.9443437694696843e+00 -4.1475920362800860e+00 4 5 -1
505 169 1 -8.1999999999999995e-01 -1.1711484746424453e+01 -6.8520195484220814e+00 -4.2512391075368825e+00 4 5 -1
507 169 2 4.0999999999999998e-01 -1.2420692352070134e+01 -6.9806733582730409e+00 -3.5581293294139247e+00 4 5 -1
549 183 2 4.0999999999999998e-01 -1.4289715799746679e+01 -1.3689756934369864e+01 -4.9894300961935691e+00 5 -1 -3
363 121 2 4.0999999999999998e-01 -8.9463094650418888e+00 -8.8078066300963869e+00 -4.5336590477544370e-01 0 4 -6
2506 836 1 -8.1999999999999995e-01 -8.6053637985538103e+00 -1.2266770003899964e+01 -5.6347231038086232e+00 4 2 -2
2507 836 2 4.0999999999999998e-01 -8.7639036605883227e+00 -1.1472431827149229e+01 -6.2210850269901847e+00 4 2 -2
1420 474 1 -8.1999999999999995e-01 -1.3830682692044482e+01 -6.3284548273428118e+00 -2.4202458672763267e+00 5 2 -5
728 243 2 4.0999999999999998e-01 -1.2128427162007245e+01 -1.4694664880845837e+01 -6.2480721038877896e-01 4 2 -1
1422 474 2 4.0999999999999998e-01 -1.3789385984217297e+01 -5.3523014823995680e+00 -2.6331953258489200e+00 5 2 -5
451 151 1 -8.1999999999999995e-01 -8.1415386360952589e+00 -8.7498293507111100e+00 -5.4011873120218716e+00 1 -1 -3
2555 852 2 4.0999999999999998e-01 -1.2250480299388480e+01 -1.2558302804052069e+01 -1.8748251474846427e+00 -1 4 -1
424 142 1 -8.1999999999999995e-01 -1.4824422202055739e+01 -8.1941627454265529e+00 -6.8451531874467992e+00 0 2 -4
2556 852 2 4.0999999999999998e-01 -1.0726916475001168e+01 -1.2946447247840236e+01 -2.3158832454812437e+00 -1 4 -1
1588 530 1 -8.1999999999999995e-01 -7.5980978784039879e+00 -1.2690011023516512e+01 -8.1311661642417654e-01 2 -2 -2
1961 654 2 4.0999999999999998e-01 -1.2904062797920766e+01 -1.0378241704844003e+01 -1.6468686479091517e+00 1 0 -4
1858 620 1 -8.1999999999999995e-01 -1.3276602158704137e+01 -8.4021723519511085e+00 -6.0447447637149310e-01 -1 7 0
2554 852 1 -8.1999999999999995e-01 -1.1444806724305330e+01 -1.3100805370706579e+01 -1.6371083372617452e+00 -1 4 -1
1421 474 2 4.0999999999999998e-01 -1.4519862706299133e+01 -6.7666125665163595e+00 -2.9972874354548225e+00 5 2 -5
585 195 2 4.0999999999999998e-01 -1.2329644442524829e+01 -1.0547917777455108e+01 -7.3006140827140698e+00 0 1 -6
1860 620 2 4.0999999999999998e-01 -1.3385640007799109e+01 -7.6497402236121799e+00 -1.2540011801880961e+00 -1 7 0
953 318 2 4.0999999999999998e-01 -9.4742039897903876e+00 -1.4136099235019330e+01 -6.8691584243562200e+00 0 5 -1
1999 667 1 -8.1999999999999995e-01 -9.6220876563695867e+00 -6.3528337983505683e+00 -6.1831038871452417e+00 2 0 1
1960 654 1 -8.1999999999999995e-01 -1.3583575529179800e+01 -1.1099980395287741e+01 -1.7783382728321548e+00 1 0 -4
2320 774 1 -8.1999999999999995e-01 -7.4742178054903370e+00 -5.1230158769353284e+00 -7.2798328252208533e+00 2 7 2
2000 667 2 4.0999999999999998e-01 -1.0389262315667384e+01 -6.5298234285863135e+00 -6.7995825923246844e+00 2 0 1
2322 774 2 4.0999999999999998e-01 -8.1801243665862842e+00 -5.6220171327051673e+00 -6.7772177483210641e+00 2 7 2
2508 836 2 4.0999999999999998e-01 -7.6693086495194738e+00 -1.2594269477200617e+01 -5.7630706282900821e+00 4 2 -2
426 142 2 4.0999999999999998e-01 -1.3854226115206119e+01 -8.1343766069793091e+00 -6.6104759377053277e+00 0 2 -4
2001 667 2 4.0999999999999998e-01 -9.9106139877582784e+00 -5.7192134906374381e+00 -5.4653252885736450e+00 2 0 1
1962 654 2 4.0999999999999998e-01 -1.4169811938802939e+01 -1.1157027341495999e+01 -9.7025359148623558e-01 1 0 -4
635 212 2 4.0999999999999998e-01 -8.3591135318201815e+00 -1.3854724952596307e+01 -3.4043936938598325e+00 2 5 -1
340 114 1 -8.1999999999999995e-01 -1.4673226934442951e+01 -1.3368435368117908e+01 -6.8413424372340170e+00 2 6 -2
723 241 2 4.0999999999999998e-01 -1.4751434703643952e+01 -1.4104808041117103e+01 -2.9863499877961353e-01 -1 1 1
2343 781 2 4.0999999999999998e-01 -5.6522600391297928e+00 -5.4236675290845042e+00 -3.9284240018087182e+00 -4 6 0
332 111 2 4.0999999999999998e-01 -1.5719342537495820e+00 -1.4519674167314562e+01 -3.9183653383998553e+00 4 1 -6
1728 576 2 4.0999999999999998e-01 -4.2400818770181061e+00 -5.4602541576126811e+00 -7.1650275124270202e-01 3 2 4
751 251 1 -8.1999999999999995e-01 -3.9372474698881508e+00 -1.4612104646189687e+01 -6.4989065745043586e+00 4 5 0
1036 346 1 -8.1999999999999995e-01 -3.1814924471528450e+00 -9.5591825952080960e+00 -6.5132077371831798e-01 0 5 -3
1218 406 2 4.0999999999999998e-01 -4.8473267061709358e-01 -6.8636660501487228e+00 -4.6932571489670849e-01 0 1 -1
1495 499 1 -8.1999999999999995e-01 -3.7788444867040578e+00 -5.4123999673630738e+00 -2.7912774434860363e+00 -1 -1 4
1586 529 2 4.0999999999999998e-01 -4.1786915709178647e+00 -8.2495959340157192e+00 -1.0479060033535141e+00 7 5 5
752 251 2 4.0999999999999998e-01 -3.5996535357051158e+00 -1.4748502133578041e+01 -5.5675879719031212e+00 4 5 0
1092 364 2 4.0999999999999998e-01 -8.4959882759576644e-01 -6.3063874073808996e+00 -4.8533628016083306e+00 0 6 -12
1668 556 2 4.0999999999999998e-01 -2.2116822927533573e+00 -1.1740527586916194e+01 -3.2192192309541863e+00 2 2 0
1469 490 2 4.0999999999999998e-01 -5.4700656248611956e+00 -1.1377507465384113e+01 -6.9490569846890962e+00 6 7 0
1481 494 2 4.0999999999999998e-01 -1.0894919391539695e+00 -8.7198779763497711e+00 -6.8790550800053456e+00 -1 3 2
338 113 2 4.0999999999999998e-01 -6.6395577353116710e+00 -9.1446164279709379e+00 -4.9526759951253929e+00 1 9 5
1567 523 1 -8.1999999999999995e-01 -4.1014686358546246e+00 -7.6042784408403774e+00 -5.6601119514057849e+00 -1 5 -5
1037 346 2 4.0999999999999998e-01 -3.2618502343321012e+00 -1.0554735860627304e+01 -6.9974158198328773e-01 0 5 -3
1665 555 2 4.0999999999999998e-01 -7.1327997826057477e-01 -1.2387501472789403e+01 -5.9001533252040588e+00 0 2 6
2465 822 2 4.0999999999999998e-01 -5.1803531714472637e+00 -1.3514060816582642e+01 -5.9266004527320568e+00 -4 5 5
983 328 2 4.0999999999999998e-01 -5.7584338419155294e+00 -1.1463970778657027e+01 -2.1750570204787962e+00 2 2 -2
337 113 1 -8.1999999999999995e-01 -5.7515258388237953e+00 -9.3262802326765506e+00 -4.5303895479474861e+00 1 9 5
1568 523 2 4.0999999999999998e-01 -3.2640319058276486e+00 -7.2501194237212525e+00 -5.2439396231217135e+00 -1 5 -5
777 259 2 4.0999999999999998e-01 -7.1372680485461171e+00 -5.4063629249595770e+00 -7.9329434357569895e-01 5 -4 -1
1496 499 2 4.0999999999999998e-01 -4.1341226982085892e+00 -6.2974354009560489e+00 -2.4905816408974424e+00 -1 -1 4
1666 556 1 -8.1999999999999995e-01 -2.7418558642355482e+00 -1.2305457032069659e+01 -2.5870016769687290e+00 2 2 0
1830 610 2 4.0999999999999998e-01 -1.3547596941155291e+00 -1.0570383441665964e+01 -5.7658216677591660e+00 8 2 0
1589 530 2 4.0999999999999998e-01 -7.0261714157594533e+00 -1.3366937266412963e+01 -3.4986808509853518e-01 2 -2 -2
1828 610 1 -8.1999999999999995e-01 -1.6170184247902011e+00 -1.0803909768143633e+01 -4.8295449721658024e+00 8 2 0
884 295 2 4.0999999999999998e-01 -9.8313060752553127e-01 -9.4680468991770947e+00 -2.3333086816949322e+00 3 2 -3
339 113 2 4.0999999999999998e-01 -5.1077912798054541e+00 -8.6044436413650178e+00 -4.7843306189607961e+00 1 9 5
2466 822 2 4.0999999999999998e-01 -5.8673484021979174e+00 -1.2927863328545460e+01 -4.5661427276639284e+00 -4 5 5
1667 556 2 4.0999999999999998e-01 -3.6885709393295993e+00 -1.2361718049628211e+01 -2.9040088022670378e+00 2 2 0
1538 513 2 4.0999999999999998e-01 -9.1327892834749136e-01 -1.1879549313788370e+01 -1.9773673291974969e+00 4 2 -2
982 328 1 -8.1999999999999995e-01 -5.5998611193839860e+00 -1.1784757722014685e+01 -3.1088015393761257e+00 2 2 -2
1569 523 2 4.0999999999999998e-01 -4.5643160819000084e+00 -6.8690686836303740e+00 -6.1552554594833850e+00 -1 5 -5
1480 494 1 -8.1999999999999995e-01 -4.7347037981985096e-01 -9.5061645485663462e+00 -6.8321592191925138e+00 -1 3 2
1497 499 2 4.0999999999999998e-01 -3.0370319322013746e+00 -5.5561307927048063e+00 -3.4462460507294228e+00 -1 -1 4
1585 529 1 -8.1999999999999995e-01 -4.6691161218620820e+00 -7.7721530621276500e+00 -1.7769192542365193e+00 7 5 5
885 295 2 4.0999999999999998e-01 -2.3070797748017178e+00 -8.5131602964099606e+00 -2.2910547363328977e+00 3 2 -3
2464 822 1 -8.1999999999999995e-01 -5.9366772979766722e+00 -1.2970419554474084e+01 -5.5627925158737241e+00 -4 5 5
984 328 2 4.0999999999999998e-01 -5.7475998476415029e+00 -1.1031464975370572e+01 -3.7496225453652592e+00 2 2 -2
1470 490 2 4.0999999999999998e-01 -4.9922740196066826e+00 -9.9613390319047426e+00 -6.2913205362704137e+00 6 7 0
1537 513 1 -8.1999999999999995e-01 -3.2075738566764400e-01 -1.1123351371384137e+01 -1.6998584499736591e+00 4 2 -2
1587 529 2 4.0999999999999998e-01 -5.1775392577360986e+00 -8.4351866436919281e+00 -2.3263012846979922e+00 7 5 5
1829 610 2 4.0999999999999998e-01 -1.6625019874909874e+00 -9.9707193114700576e+00 -4.2784976626735975e+00 8 2 0
2341 781 1 -8.1999999999999995e-01 -6.4426487155190060e+00 -5.5763766880243004e+00 -4.5216304272467802e+00 -4 6 0
883 295 1 -8.1999999999999995e-01 -1.5063078066831537e+00 -8.7752667948654253e+00 -2.8295644244149400e+00 3 2 -3
1672 558 1 -8.1999999999999995e-01 -3.5432953888944354e+00 -1.4062408751829437e+01 -4.9811270179342770e-01 -1 3 0
1468 490 1 -8.1999999999999995e-01 -4.9833730993082916e+00 -1.0520872030355790e+01 -7.1200375155183737e+00 6 7 0
1090 364 1 -8.1999999999999995e-01 -1.7100567087838296e+00 -6.7854614852559152e+00 -4.6800750032844665e+00 0 6 -12
1091 364 2 4.0999999999999998e-01 -1.5574331967079562e+00 -7.5135917162519075e+00 -4.0118977555092368e+00 0 6 -12
1674 558 2 4.0999999999999998e-01 -3.2161107579588126e+00 -1.3550672014734916e+01 -1.2924703144759917e+00 -1 3 0
1664 555 2 4.0999999999999998e-01 -1.0584074205764793e-01 -1.2024938795366790e+01 -7.3718873168539893e+00 0 2 6
1175 392 2 4.0999999999999998e-01 -3.5474739980273302e+00 -1.1711290449214445e+01 -7.2729857108962435e+00 2 6 -3
1268 423 2 4.0999999999999998e-01 -1.1479227617424117e+01 -1.2327166993796030e+01 4.1234806776035402e+00 2 6 5
854 285 2 4.0999999999999998e-01 -9.4576527631126730e+00 -1.4340081983932112e+01 2.5689399504305310e+00 3 3 -1
538 180 1 -8.1999999999999995e-01 -1.0180305861196135e+01 -6.3509265798355159e+00 4.7511660393774751e+00 3 2 -1
802 268 1 -8.1999999999999995e-01 -1.0127285936839133e+01 -9.3048260548967718e+00 3.0910040608770952e+00 -1 -1 1
803 268 2 4.0999999999999998e-01 -9.3816413021522536e+00 -8.6720134904071422e+00 2.8824598685871106e+00 -1 -1 1
804 268 2 4.0999999999999998e-01 -1.0459872472812142e+01 -9.1339821284281157e+00 4.0184342916409630e+00 -1 -1 1
1267 423 1 -8.1999999999999995e-01 -1.1301636943780691e+01 -1.2712986347658962e+01 5.0287614361390798e+00 2 6 5
540 180 2 4.0999999999999998e-01 -1.0849220328294704e+01 -7.0695375581373243e+00 4.9411133805615446e+00 3 2 -1
1821 607 2 4.0999999999999998e-01 -1.1359704854239531e+01 -5.9028811054613541e+00 1.5157816554430052e+00 2 3 0
1820 607 2 4.0999999999999998e-01 -1.2496491610626620e+01 -5.1691843311261181e+00 2.4300245061562098e+00 2 3 0
1819 607 1 -8.1999999999999995e-01 -1.2333896415011715e+01 -5.6907655194305704e+00 1.5925018977068586e+00 2 3 0
2576 859 2 4.0999999999999998e-01 -1.1189506435245175e+01 -9.3729465373755385e+00 6.2682300217391091e+00 1 9 -1
1966 656 1 -8.1999999999999995e-01 -1.3627330659389967e+01 -6.5402196800921626e+00 5.5264597555054760e+00 2 3 -2
2575 859 1 -8.1999999999999995e-01 -1.1350415225201933e+01 -8.8074461089428944e+00 5.4593753360027915e+00 1 9 -1
913 305 1 -8.1999999999999995e-01 -1.3014162944388012e+01 -1.1196783024804144e+01 7.0168677689933769e+00 1 4 -1
2577 859 2 4.0999999999999998e-01 -1.2334187303740432e+01 -8.7272598366316601e+00 5.2990914928880297e+00 1 9 -1
853 285 1 -8.1999999999999995e-01 -9.9281520941316330e+00 -1.3891012187547462e+01 1.8094038909752381e+00 3 3 -1
1269 423 2 4.0999999999999998e-01 -1.0590823851566920e+01 -1.2178092098135156e+01 5.4854463954095589e+00 2 6 5
1442 481 2 4.0999999999999998e-01 -8.2696335899619111e+00 -6.6986011329936197e+00 2.1187385959525056e+00 3 5 -2
914 305 2 4.0999999999999998e-01 -1.2836534138465371e+01 -1.1997585227254691e+01 6.4449480783528568e+00 1 4 -1
1335 445 2 4.0999999999999998e-01 -1.1665181165433824e+01 -1.4307325190423503e+01 2.6483517260742442e+00 -3 3 -1
926 309 2 4.0999999999999998e-01 -1.4854676367170578e+01 -1.2269375495637435e+01 3.7042972238157557e+00 2 -3 2
185 62 2 4.0999999999999998e-01 -1.4372271537095830e+01 -1.0412901697698119e+01 2.9437270210092787e+00 4 -3 -5
1435 479 1 -8.1999999999999995e-01 -1.1455755305300441e+01 -1.1620930891484017e+01 2.3343836165615333e+00 -2 5 3
1437 479 2 4.0999999999999998e-01 -1.1036098589411075e+01 -1.0737374114147991e+01 2.5420949124550543e+00 -2 5 3
1968 656 2 4.0999999999999998e-01 -1.4337551558216777e+01 -7.2258295598396733e+00 5.3669176870922808e+00 2 3 -2
1441 481 1 -8.1999999999999995e-01 -8.7884488715377156e+00 -5.8932353528490307e+00 2.4053479412796523e+00 3 5 -2
2155 719 1 -8.1999999999999995e-01 -1.0614662157593573e+01 -8.4935608732115977e+00 3.7144846734081938e-01 3 3 -1
1443 481 2 4.0999999999999998e-01 -9.1206270614974017e+00 -6.0257140155825653e+00 3.3391762688636693e+00 3 5 -2
539 180 2 4.0999999999999998e-01 -1.0037848280136249e+01 -5.8020320363695550e+00 5.5747854308327316e+00 3 2 -1
1262 421 2 4.0999999999999998e-01 -1.3842018095589141e+01 -6.3772368064312399e+00 1.5027965622392845e+00 1 0 -4
2156 719 2 4.0999999999999998e-01 -1.0477415189696446e+01 -8.8404083003623857e+00 1.2992352867018386e+00 3 3 -1
1261 421 1 -8.1999999999999995e-01 -1.4625377474888316e+01 -6.9851100391381964e+00 1.6322825163897559e+00 1 0 -4
1967 656 2 4.0999999999999998e-01 -1.3442529732264241e+01 -6.4736931761451668e+00 6.5069449219111650e+00 2 3 -2
184 62 1 -8.1999999999999995e-01 -1.4170069328575776e+01 -1.1034548481803235e+01 2.1870250997688760e+00 4 -3 -5
116 39 2 4.0999999999999998e-01 -1.3054571204926619e+01 -5.2621239077625521e+00 4.5798898390590015e+00 2 2 0
186 62 2 4.0999999999999998e-01 -1.3234311904487617e+01 -1.1375491189303997e+01 2.2767154475045057e+00 4 -3 -5
1436 479 2 4.0999999999999998e-01 -1.0766919327679428e+01 -1.2234630506564910e+01 1.9486297293602934e+00 -2 5 3