LAMMPS data file via write_data, version 15 May 2015, timestep = 1009000

2593 atoms
6 atom types
1728 bonds
4 bond types
864 angles
3 angle types
0 dihedrals
3 dihedral types
0 impropers
1 improper types

-1.4881204510343043e+01 1.4881204510343043e+01 xlo xhi
-1.4881204510343043e+01 1.4881204510343043e+01 ylo yhi
-1.4881204510343043e+01 1.4881204510343043e+01 zlo zhi

Masses

1 15.9994
2 1.00794
3 12.0107
4 1.00794
5 12.0107
6 12.0107

Bond Coeffs # harmonic

1 1000 1
2 469 1.4
3 367 1.08
4 469 0.7

Angle Coeffs # harmonic

1 100 109.47
2 35 120
3 63 120

Dihedral Coeffs # opls

1 0 7.25 0 0
2 0 7.25 0 0
3 0 7.25 0 0

Improper Coeffs # cvff

1 2.5 -1 2

Atoms # full

1265 422 2 4.0999999999999998e-01 -9.9264147043269748e+00 -1.2242291582426409e+01 -1.3962182739970299e+01 -4 1 0
669 223 2 4.0999999999999998e-01 -7.8276523201543480e+00 -1.4226943350148701e+01 -9.5292496150310519e+00 -3 0 -3
468 156 2 4.0999999999999998e-01 -1.0059528154705475e+01 -1.1471476764280403e+01 -1.1638770768394952e+01 0 0 1
466 156 1 -8.1999999999999995e-01 -1.0664644652984080e+01 -1.2157708710845570e+01 -1.2042467150405198e+01 0 0 1
286 96 1 -8.1999999999999995e-01 -8.5844706832381483e+00 -1.0557706391121052e+01 -1.0873441029807072e+01 -1 1 3
287 96 2 4.0999999999999998e-01 -8.7352673942392229e+00 -1.1031597331661064e+01 -1.0005835840316969e+01 -1 1 3
2137 713 1 -8.1999999999999995e-01 -9.5331047941297982e+00 -7.8622046489618755e+00 -1.1642432214202218e+01 0 2 0
2138 713 2 4.0999999999999998e-01 -9.3835631107295256e+00 -8.8287134691813840e+00 -1.1851116216807391e+01 0 2 0
511 171 1 -8.1999999999999995e-01 -1.3150177829006198e+01 -1.1088908710370426e+01 -1.2230304420629185e+01 -2 -1 -1
29 10 2 4.0999999999999998e-01 -1.3115718145932934e+01 -1.1065076592064223e+01 -1.3862041669843315e+01 -2 0 1
467 156 2 4.0999999999999998e-01 -1.1612836338572450e+01 -1.1847260825203890e+01 -1.1974601985767459e+01 0 0 1
572 191 2 4.0999999999999998e-01 -1.3143242091423511e+01 -8.2027390120854058e+00 -9.8996779081653266e+00 0 0 1
512 171 2 4.0999999999999998e-01 -1.3137971977589975e+01 -1.0168716539148317e+01 -1.1838962613165577e+01 -2 -1 -1
142 48 1 -8.1999999999999995e-01 -8.6604338126463194e+00 -1.4040206408403193e+01 -1.1454901958950327e+01 -2 1 1
2139 713 2 4.0999999999999998e-01 -8.7138524933146435e+00 -7.4835620043015467e+00 -1.1211727606788585e+01 0 2 0
513 171 2 4.0999999999999998e-01 -1.4020300230020615e+01 -1.1531690454870365e+01 -1.2013781062953855e+01 -2 -1 -1
288 96 2 4.0999999999999998e-01 -7.6991399931263818e+00 -1.0093276528852876e+01 -1.0850084991923055e+01 -1 1 3
571 191 1 -8.1999999999999995e-01 -1.3773977201458290e+01 -8.9558658214416251e+00 -1.0086825689403058e+01 0 0 1
20 7 2 4.0999999999999998e-01 -5.3313834008957528e+00 -9.2659367990589203e-01 -9.9224335515927180e+00 -3 2 1
573 191 2 4.0999999999999998e-01 -1.3577682212336937e+01 -9.7166014299029193e+00 -9.4681168136865459e+00 0 0 1
420 140 2 4.0999999999999998e-01 -5.8242506319779590e+00 -1.3045181665534569e+01 -1.0916672412830058e+01 0 2 -1
777 259 2 4.0999999999999998e-01 -1.4425381519145153e+01 -3.0800664696776874e+00 -1.2889389815348075e+01 0 1 0
1531 511 1 -8.1999999999999995e-01 -6.6735304159544615e+00 -1.2150067817396073e+01 -1.4562267500002804e+01 -2 2 0
196 66 1 -8.1999999999999995e-01 -1.1519989928011199e+01 -3.7250838863946711e-01 -8.6583906676366844e+00 -2 0 0
667 223 1 -8.1999999999999995e-01 -7.7249367856448670e+00 -1.4282039458722497e+01 -8.5360401930092245e+00 -3 0 -3
1075 359 1 -8.1999999999999995e-01 -9.6386529898846547e+00 -1.1929360768533913e+01 -8.7913535589770575e+00 -1 0 1
993 331 2 4.0999999999999998e-01 -1.2666946559141609e+01 -1.1662551690860033e+01 -7.7866534990147747e+00 0 0 0
1564 522 1 -8.1999999999999995e-01 -7.2820252602816469e+00 -9.6219961849096300e+00 -7.4598705080022718e+00 -1 0 2
1077 359 2 4.0999999999999998e-01 -1.0579380547675722e+01 -1.2040017676890582e+01 -8.4706702687601094e+00 -1 0 1
1740 580 2 4.0999999999999998e-01 -1.0811461835026812e+01 -1.4366513076620713e+00 -7.6015160748326647e+00 -2 0 -2
171 57 2 4.0999999999999998e-01 -7.4989439806130429e+00 -3.2693596107231802e+00 -1.0899089787709469e+01 0 0 -1
1076 359 2 4.0999999999999998e-01 -9.0584855019602060e+00 -1.2625981560332743e+01 -8.3692443528088418e+00 -1 0 1
375 125 2 4.0999999999999998e-01 -6.0997900992982022e+00 -4.6898535885511183e+00 -1.0389080621765142e+01 -3 1 1
1615 539 1 -8.1999999999999995e-01 -7.9295272381998751e+00 -6.3632167044878347e+00 -1.0059793947569588e+01 0 0 3
668 223 2 4.0999999999999998e-01 -6.8005788802137630e+00 -1.3998811814723807e+01 -8.2803145913399838e+00 -3 0 -3
373 125 1 -8.1999999999999995e-01 -5.8081066468397413e+00 -4.1157743417226520e+00 -9.6239631162082198e+00 -3 1 1
81 27 2 4.0999999999999998e-01 -5.7731348051065776e+00 -3.8190523684286894e+00 -1.2972355490889051e+01 -2 -2 -1
1681 561 1 -8.1999999999999995e-01 -1.3623282796001639e+01 -3.6296787438006497e+00 -9.8335897678336934e+00 0 0 0
1683 561 2 4.0999999999999998e-01 -1.4315254555507630e+01 -4.2751912508610630e+00 -1.0156915845975540e+01 0 0 0
419 140 2 4.0999999999999998e-01 -7.1432140590472288e+00 -1.3365050112649300e+01 -1.1824847623426267e+01 0 2 -1
2549 850 2 4.0999999999999998e-01 -6.4183305868293008e+00 -9.5272942318446745e+00 -9.3827696636273608e+00 -3 -1 1
2540 847 2 4.0999999999999998e-01 -7.2659074144827134e+00 -3.3066551501728298e+00 -8.4955283899823169e+00 -1 0 1
2591 864 2 4.0999999999999998e-01 -6.3562415399324550e+00 -6.5707747718734488e+00 -1.0683945274069963e+01 1 1 2
2548 850 1 -8.1999999999999995e-01 -6.1911270845883273e+00 -9.3322100712308025e+00 -1.0336903711041172e+01 -3 -1 1
2550 850 2 4.0999999999999998e-01 -5.6049166529588259e+00 -8.5232349296654846e+00 -1.0381261146018325e+01 -3 -1 1
418 140 1 -8.1999999999999995e-01 -6.1433090720662697e+00 -1.3363423122653614e+01 -1.1809407047448216e+01 0 2 -1
992 331 2 4.0999999999999998e-01 -1.3828649535766525e+01 -1.1534627056959287e+01 -8.9271990060822635e+00 0 0 0
1533 511 2 4.0999999999999998e-01 -6.3646799706165638e+00 -1.2406824120063405e+01 -1.3646440757877837e+01 -2 2 0
144 48 2 4.0999999999999998e-01 -9.5023132637373351e+00 -1.3506566677903630e+01 -1.1535640219899973e+01 -2 1 1
978 326 2 4.0999999999999998e-01 -1.4823523514781202e+01 -6.2753154035622263e+00 -1.4210643776087034e+01 -1 0 1
79 27 1 -8.1999999999999995e-01 -6.3923561288972657e+00 -4.5614341391903857e+00 -1.2716454541005865e+01 -2 -2 -1
23 8 2 4.0999999999999998e-01 -9.7817059078869377e+00 -5.1481584403952461e+00 -1.3479588117207344e+01 -3 0 0
157 53 1 -8.1999999999999995e-01 -1.0009058922724051e+01 -8.9888860306070661e-01 -1.3165040547138474e+01 -4 0 -1
976 326 1 -8.1999999999999995e-01 -1.4021931334862632e+01 -5.8838938722377083e+00 -1.4662628549127396e+01 -1 0 1
991 331 1 -8.1999999999999995e-01 -1.3005231173015861e+01 -1.1111247912594875e+01 -8.5493321866785621e+00 0 0 0
585 195 2 4.0999999999999998e-01 -5.1185741373985820e+00 -4.7801504046032068e+00 -8.2106660828105795e+00 -1 0 -1
1532 511 2 4.0999999999999998e-01 -7.6640956503397391e+00 -1.2271483801096176e+01 -1.4626218504347932e+01 -2 2 0
1855 619 1 -8.1999999999999995e-01 -1.1919256097181393e+01 -6.9613298468837899e+00 -1.0243951390984487e+01 0 0 0
2539 847 1 -8.1999999999999995e-01 -7.1649528805689684e+00 -2.9420264244820995e+00 -7.5698367075405777e+00 -1 0 1
531 177 2 4.0999999999999998e-01 -5.6045106074524700e+00 -7.4390940428589793e+00 -1.4705717730011802e+01 -1 0 1
924 308 2 4.0999999999999998e-01 -1.0035933792992624e+01 -7.0254624253385538e+00 -1.4509079278220280e+01 1 -1 0
1857 619 2 4.0999999999999998e-01 -1.1086180013735111e+01 -7.3476831855706086e+00 -1.0639888725950964e+01 0 0 0
1856 619 2 4.0999999999999998e-01 -1.1849652387623930e+01 -5.9638420798412870e+00 -1.0228967485849754e+01 0 0 0
2543 848 2 4.0999999999999998e-01 -9.1211284479244483e+00 -2.4639876257805682e-01 -9.5917230545924674e+00 -1 1 -1
170 57 2 4.0999999999999998e-01 -8.6544393043797374e+00 -3.5947343742216464e+00 -1.2006214159307429e+01 0 0 -1
158 53 2 4.0999999999999998e-01 -9.2912073293549096e+00 -1.3930234513450621e+00 -1.2674560307363063e+01 -4 0 -1
2542 848 1 -8.1999999999999995e-01 -8.2878321451146526e+00 -5.4669840953537907e-01 -1.0055930345985800e+01 -1 1 -1
2592 864 2 4.0999999999999998e-01 -5.1592979719302825e+00 -6.3433806588550734e+00 -1.1771318517279816e+01 1 1 2
923 308 2 4.0999999999999998e-01 -1.0743820232561976e+01 -7.2706506217465634e+00 -1.3058030670905053e+01 1 -1 0
2590 864 1 -8.1999999999999995e-01 -5.3886817629534836e+00 -6.7317516403704829e+00 -1.0878792839361385e+01 1 1 2
922 308 1 -8.1999999999999995e-01 -1.0901288095555008e+01 -7.0022442903986581e+00 -1.4008405843066777e+01 1 -1 0
2544 848 2 4.0999999999999998e-01 -8.4356157057132251e+00 -1.4523652066408221e+00 -1.0453395700233266e+01 -1 1 -1
2377 793 1 -8.1999999999999995e-01 -1.4685687549346843e+01 -1.6679739875646735e+00 -8.1046042294797402e+00 -1 -1 1
1055 352 2 4.0999999999999998e-01 -1.0328338230475705e+01 -3.7944762453959857e+00 -1.0690992837800795e+01 -2 -1 0
977 326 2 4.0999999999999998e-01 -1.3214771546467574e+01 -6.0226648878870819e+00 -1.4088793424525711e+01 -1 0 1
24 8 2 4.0999999999999998e-01 -1.0221902508276457e+01 -3.6372772357284013e+00 -1.3915738968990990e+01 -3 0 0
1616 539 2 4.0999999999999998e-01 -8.7140584281561182e+00 -5.7565125060148699e+00 -1.0188136689776881e+01 0 0 3
1056 352 2 4.0999999999999998e-01 -1.1828327307093831e+01 -3.8988484811011386e+00 -1.0053888543191881e+01 -2 -1 0
80 27 2 4.0999999999999998e-01 -6.4356258570881071e+00 -5.2301988719534247e+00 -1.3458702806986219e+01 -2 -2 -1
776 259 2 4.0999999999999998e-01 -1.3442199589913574e+01 -2.9349071084278684e+00 -1.1593610263284909e+01 0 1 0
2424 808 2 4.0999999999999998e-01 -1.2327897904216432e+01 -3.0014919696461977e+00 -1.4354916172189357e+01 2 0 1
1617 539 2 4.0999999999999998e-01 -7.8014388140211084e+00 -6.5405746838329257e+00 -9.0839924616210759e+00 0 0 3
169 57 1 -8.1999999999999995e-01 -8.4366394052173526e+00 -3.0696240669707464e+00 -1.1183490983547044e+01 0 0 -1
1338 446 2 4.0999999999999998e-01 -1.2337899186658358e+01 -6.3543195096224032e+00 -8.2916965985075244e+00 -2 1 -3
22 8 1 -8.1999999999999995e-01 -9.5605048810125552e+00 -4.1766244876043235e+00 -1.3394482064647663e+01 -3 0 0
374 125 2 4.0999999999999998e-01 -5.1648912917816041e+00 -3.4241093707178987e+00 -9.9524819911878772e+00 -3 1 1
529 177 1 -8.1999999999999995e-01 -5.6510625158308905e+00 -6.7818398377928713e+00 -1.3953453912823235e+01 -1 0 1
198 66 2 4.0999999999999998e-01 -1.2026667639249222e+01 -6.7400905189027149e-01 -9.4661196567457573e+00 -2 0 0
775 259 1 -8.1999999999999995e-01 -1.3478222208179293e+01 -2.9578827885279235e+00 -1.2592722635979339e+01 0 1 0
1600 534 1 -8.1999999999999995e-01 -1.2395882488321947e+01 -3.3011754658848780e-01 -1.1552684688639822e+01 -2 1 1
1054 352 1 -8.1999999999999995e-01 -1.0986669638523681e+01 -4.4029106395962021e+00 -1.0247756545432619e+01 -2 -1 0
1602 534 2 4.0999999999999998e-01 -1.3238495083142134e+01 -6.8490593791965182e-01 -1.1957876287670311e+01 -2 1 1
159 53 2 4.0999999999999998e-01 -1.0631236497361115e+01 -1.5538805994316807e+00 -1.3593912990258241e+01 -4 0 -1
1601 534 2 4.0999999999999998e-01 -1.1683323002453641e+01 -2.8336113844041755e-01 -1.2252773163762960e+01 -2 1 1
1682 561 2 4.0999999999999998e-01 -1.3964326795958922e+01 -3.1537825150416428e+00 -9.0228722917472588e+00 0 0 0
1264 422 1 -8.1999999999999995e-01 -9.3244000694569387e+00 -1.2353051820408771e+01 -1.4752980817148595e+01 -4 1 0
2379 793 2 4.0999999999999998e-01 -1.4480105168192111e+01 -7.5434233618741153e-01 -7.7537991562966875e+00 -1 -1 1
726 242 2 4.0999999999999998e-01 -6.2047292961002913e+00 -1.1349585595365284e+00 -7.5357060080133111e+00 -1 2 -1
1947 649 2 4.0999999999999998e-01 -1.1964392094916670e+01 -1.3721157347749093e+01 -7.5864980024219246e+00 -1 0 -1
28 10 1 -8.1999999999999995e-01 -1.3157661669354797e+01 -1.1213543810020617e+01 -1.4850094942640215e+01 -2 0 1
188 63 2 4.0999999999999998e-01 -1.1359627145798814e+01 -1.0963712594635775e+01 -5.0824726045309632e+00 -2 0 1
537 179 2 4.0999999999999998e-01 -7.5136425757594925e+00 -9.6560877278888455e+00 -3.9524942250659709e+00 0 0 -2
2552 851 2 4.0999999999999998e-01 -9.5455821164578722e+00 -9.0632677045394718e+00 -5.5938069681687175e+00 1 2 0
965 322 2 4.0999999999999998e-01 -1.2592810764087378e+01 -1.1316361705378490e+01 -1.8084099161452638e+00 -1 -1 2
706 236 1 -8.1999999999999995e-01 -1.3903550341937100e+01 -8.4206551063851212e+00 -6.8833251855369681e-01 -1 1 2
1471 491 1 -8.1999999999999995e-01 -9.6643611625424626e+00 -1.1863071302596950e+01 -5.8555524492417561e+00 -1 1 0
535 179 1 -8.1999999999999995e-01 -8.2129060861749537e+00 -8.9729107018294947e+00 -4.1630903668477899e+00 0 0 -2
2089 697 1 -8.1999999999999995e-01 -1.4539678145988058e+01 -1.3872394082549613e+01 -5.1796276551574483e+00 -1 1 0
1472 491 2 4.0999999999999998e-01 -8.9202551350937735e+00 -1.2324838789815994e+01 -5.3727191050392378e+00 -1 1 0
2575 859 1 -8.1999999999999995e-01 -6.2504554885526975e+00 -1.0775376894479491e+01 -3.5711338796614154e+00 -2 2 1
2576 859 2 4.0999999999999998e-01 -6.4830988833592631e+00 -1.1731048471095997e+01 -3.7517437127259896e+00 -2 2 1
2577 859 2 4.0999999999999998e-01 -6.1707063338722890e+00 -1.0632442486062150e+01 -2.5845940295929015e+00 -2 2 1
1546 516 1 -8.1999999999999995e-01 -7.0009646541861423e+00 -1.2661156674748254e+01 -5.2995028844451895e+00 0 0 -1
187 63 1 -8.1999999999999995e-01 -1.1799133316231575e+01 -1.0922088706420181e+01 -4.1851695324360971e+00 -2 0 1
536 179 2 4.0999999999999998e-01 -8.4913079059869343e+00 -8.5104536231412649e+00 -3.3212608556304364e+00 0 0 -2
2408 803 2 4.0999999999999998e-01 -1.1087140895133878e+01 -1.2012340219841519e+01 -2.8887692949578838e+00 0 0 0
2409 803 2 4.0999999999999998e-01 -1.0862694273959532e+01 -1.2212020956056593e+01 -1.2836170026560794e+00 0 0 0
502 168 1 -8.1999999999999995e-01 -1.1759941159398425e+01 -7.9490213208696625e+00 -3.4339715642055175e+00 -2 2 0
2090 697 2 4.0999999999999998e-01 -1.4020929418836678e+01 -1.3249281113540611e+01 -5.7650173093890249e+00 -1 1 0
189 63 2 4.0999999999999998e-01 -1.2200338551990432e+01 -1.0015768402874023e+01 -4.0522451200651552e+00 -2 0 1
964 322 1 -8.1999999999999995e-01 -1.3458883244242541e+01 -1.0996114839474243e+01 -1.4244679277807766e+00 -1 -1 2
724 242 1 -8.1999999999999995e-01 -5.6457522567922958e+00 -4.4693357822405133e-01 -7.0728698403704868e+00 -1 2 -1
504 168 2 4.0999999999999998e-01 -1.2048511578294468e+01 -7.1744214907209543e+00 -3.9967976796073348e+00 -2 2 0
707 236 2 4.0999999999999998e-01 -1.3932032873722708e+01 -9.4066296456930303e+00 -8.5293511903787333e-01 -1 1 2
503 168 2 4.0999999999999998e-01 -1.0761120577111088e+01 -7.9790273295748575e+00 -3.3951362959608176e+00 -2 2 0
2407 803 1 -8.1999999999999995e-01 -1.1059061546385939e+01 -1.2680343747034348e+01 -2.1451068188246261e+00 0 0 0
708 236 2 4.0999999999999998e-01 -1.3740222764374156e+01 -7.9431693887080828e+00 -1.5516879325443540e+00 -1 1 2
2032 678 1 -8.1999999999999995e-01 -6.3995567181054049e+00 -9.9074697805711693e+00 -7.8618618039557830e-01 0 0 2
623 208 2 4.0999999999999998e-01 -5.5295013908235617e+00 -1.4554216343033794e+01 -3.0825787832642515e+00 -1 0 2
1886 629 2 4.0999999999999998e-01 -8.0458902593087078e+00 -8.6010936068883517e+00 -9.3654558613126149e-01 -1 -1 0
309 103 2 4.0999999999999998e-01 -6.0454235792987365e+00 -7.0063739723350329e+00 -4.4122190331972622e+00 -2 -1 1
1885 629 1 -8.1999999999999995e-01 -8.5216236805365497e+00 -7.9963403429334869e+00 -1.5752961369959664e+00 -1 -1 0
2553 851 2 4.0999999999999998e-01 -1.0813453884012109e+01 -8.6168997443031490e+00 -6.5211792600048089e+00 1 2 0
2541 847 2 4.0999999999999998e-01 -7.3932070483871417e+00 -3.6531025602993612e+00 -6.9047639382190757e+00 -1 0 1
1473 491 2 4.0999999999999998e-01 -9.2861122580497515e+00 -1.1154052613839573e+01 -6.4507593766759932e+00 -1 1 0
2033 678 2 4.0999999999999998e-01 -6.1794522808825807e+00 -9.0091147147331689e+00 -4.0597140506619667e-01 0 0 2
1548 516 2 4.0999999999999998e-01 -6.1645341804746767e+00 -1.2373538641187576e+01 -5.7660979790690394e+00 0 0 -1
2091 697 2 4.0999999999999998e-01 -1.4176128152045674e+01 -1.4799150134376493e+01 -5.2745257638788168e+00 -1 1 0
308 103 2 4.0999999999999998e-01 -6.8096934809163798e+00 -6.7091921493738607e+00 -5.8244290455808319e+00 -2 -1 1
2302 768 1 -8.1999999999999995e-01 -1.0938390166702009e+01 -2.1388632605509095e-01 -3.7425482801276519e+00 -1 1 0
242 81 2 4.0999999999999998e-01 -1.1167032972494148e+01 -1.4135804232105887e+01 -2.8878983711852602e+00 -2 1 -2
1946 649 2 4.0999999999999998e-01 -1.1363706945095077e+01 -1.3126228510327458e+01 -6.1893581602697196e+00 -1 0 -1
369 123 2 4.0999999999999998e-01 -7.8651213499103818e+00 -5.1342546368235276e-01 -5.7192247400778946e+00 -1 -1 -2
1630 544 1 -8.1999999999999995e-01 -7.6731656128129480e+00 -1.4342052972902360e+01 -2.9920386500217351e+00 0 3 1
74 25 2 4.0999999999999998e-01 -1.2669512586923179e+01 -4.7904004782640257e+00 -4.4229590830693155e+00 -2 -1 1
1841 614 2 4.0999999999999998e-01 -9.9943860151428403e+00 -1.9216374112800576e+00 -1.0548228171186071e+00 -1 -2 0
966 322 2 4.0999999999999998e-01 -1.4218921601552804e+01 -1.1406719546498302e+01 -1.9282501977438304e+00 -1 -1 2
1337 446 2 4.0999999999999998e-01 -1.2750676867940715e+01 -7.1913486217902935e+00 -6.9516370745709679e+00 -2 1 -3
1547 516 2 4.0999999999999998e-01 -6.8120746211208250e+00 -1.3472954263557773e+01 -4.7469123873717116e+00 0 0 -1
1361 454 2 4.0999999999999998e-01 -5.3965030110493011e+00 -9.7748685889305005e+00 -4.5365255885405968e+00 -2 0 0
163 55 1 -8.1999999999999995e-01 -1.4013024620206973e+01 -1.0254332628210836e+00 -3.2483995003345818e+00 -1 -3 0
809 270 2 4.0999999999999998e-01 -1.3192714220986245e+01 -1.7586614585377554e+00 -8.1719618644365966e-01 -1 -1 0
954 318 2 4.0999999999999998e-01 -1.4250787105801232e+01 -4.1216053296698707e+00 -1.4327959023496550e+00 0 -1 -1
1566 522 2 4.0999999999999998e-01 -6.7058307582744536e+00 -8.8970751259822904e+00 -7.0823253143165772e+00 -1 0 2
52 18 1 -8.1999999999999995e-01 -1.4801033099724505e+01 -4.1285968798175166e+00 -6.9024374529371091e+00 -1 -2 1
2213 738 2 4.0999999999999998e-01 -8.4338346614865571e+00 -7.6652122709776753e+00 -6.9302493203125861e+00 -1 -1 3
584 195 2 4.0999999999999998e-01 -5.4316585950494680e+00 -5.4880406440898657e+00 -6.7727397724834990e+00 -1 0 -1
808 270 1 -8.1999999999999995e-01 -1.2841448977768131e+01 -2.6948686445701497e+00 -8.0378377233401643e-01 -1 -1 0
307 103 1 -8.1999999999999995e-01 -6.0178302957833942e+00 -6.4763817052894801e+00 -5.2598025763757494e+00 -2 -1 1
240 80 2 4.0999999999999998e-01 -1.1192120419766688e+01 -5.8873783622799056e+00 -7.2144586092959351e-01 -2 0 1
1739 580 2 4.0999999999999998e-01 -9.8762202016265164e+00 -1.5975987045516895e+00 -6.2725384321037954e+00 -2 0 -2
1789 597 1 -8.1999999999999995e-01 -5.1983556136258677e+00 -6.4301343909011877e-02 -5.6069751545498114e-01 0 -2 1
165 55 2 4.0999999999999998e-01 -1.3017759180589085e+01 -1.0171868080029647e+00 -3.1512920795140360e+00 -1 -3 0
797 266 2 4.0999999999999998e-01 -7.7638311284177117e+00 -4.3459300904713274e+00 -4.2272292077998408e-01 -3 1 -1
2551 851 1 -8.1999999999999995e-01 -9.8157185657579742e+00 -8.6571458005296229e+00 -6.4668146007420351e+00 1 2 0
1738 580 1 -8.1999999999999995e-01 -1.0284752215902394e+01 -2.0808632831642946e+00 -7.0468820010706636e+00 -2 0 -2
1840 614 1 -8.1999999999999995e-01 -1.0390476460592641e+01 -2.3346615296825419e+00 -1.8749291940649098e+00 -1 -2 0
75 25 2 4.0999999999999998e-01 -1.3560483527851911e+01 -5.7674630023389462e+00 -3.4646885734730031e+00 -2 -1 1
2486 829 2 4.0999999999999998e-01 -1.3672433585209731e+01 -8.7044713046179787e+00 -6.2862772262348532e+00 -2 0 0
53 18 2 4.0999999999999998e-01 -1.4712464774369391e+01 -3.2577660591854603e+00 -7.3860285998602349e+00 -1 -2 1
2214 738 2 4.0999999999999998e-01 -8.6123542370639399e+00 -6.0450472885646409e+00 -7.0300429663301562e+00 -1 -1 3
239 80 2 4.0999999999999998e-01 -1.1118512953978247e+01 -5.3472866971245168e+00 -2.2608111484907916e+00 -2 0 1
73 25 1 -8.1999999999999995e-01 -1.2699824418817073e+01 -5.2642662221154009e+00 -3.5428548058543523e+00 -2 -1 1
1842 614 2 4.0999999999999998e-01 -1.0340584208291578e+01 -1.6843461103764792e+00 -2.6329870230116779e+00 -1 -2 0
238 80 1 -8.1999999999999995e-01 -1.0616631632370922e+01 -5.4306483745944689e+00 -1.3998715433422024e+00 -2 0 1
164 55 2 4.0999999999999998e-01 -1.4268766451033565e+01 -5.6576299521192652e-01 -4.0988995846865350e+00 -1 -3 0
2035 679 1 -8.1999999999999995e-01 -1.2078295724160036e+01 -3.9850081096923731e+00 -6.0731852749129303e+00 0 2 1
2225 742 2 4.0999999999999998e-01 -6.5813959454805531e+00 -4.5129427282825390e+00 -2.7994112253576962e+00 -3 0 0
2498 833 2 4.0999999999999998e-01 -9.6016143842288137e+00 -4.1185539805205202e+00 -6.6803731233349133e+00 -1 -1 0
2499 833 2 4.0999999999999998e-01 -9.4959261654468676e+00 -4.8923303839637668e+00 -5.2461964764755677e+00 -1 -1 0
2226 742 2 4.0999999999999998e-01 -5.4640745717985393e+00 -5.0270360062812589e+00 -3.8736847709925204e+00 -3 0 0
2224 742 1 -8.1999999999999995e-01 -5.6281947989389511e+00 -4.7921585345717403e+00 -2.9155886560429085e+00 -3 0 0
2037 679 2 4.0999999999999998e-01 -1.1719498359178138e+01 -3.0683868610138791e+00 -6.2495965956756958e+00 0 2 1
1835 612 2 4.0999999999999998e-01 -1.4706653449114201e+01 -7.9717764790100301e+00 -4.0752466233373177e+00 0 1 -1
1171 391 1 -8.1999999999999995e-01 -8.4062317032801079e+00 -4.1563545449580257e+00 -2.6014634276640560e+00 0 -2 1
2036 679 2 4.0999999999999998e-01 -1.1665563282320914e+01 -4.6333529089805001e+00 -6.7129914749295772e+00 0 2 1
1632 544 2 4.0999999999999998e-01 -8.4327599524487180e+00 -1.3881721533387948e+01 -2.5325145186871278e+00 0 3 1
1172 391 2 4.0999999999999998e-01 -8.9613673659825466e+00 -4.9188703661546178e+00 -2.2691306655887811e+00 0 -2 1
1887 629 2 4.0999999999999998e-01 -9.1621075046349247e+00 -7.4167631003873229e+00 -1.0713896851582767e+00 -1 -1 0
1173 391 2 4.0999999999999998e-01 -8.9363826591456750e+00 -3.3100872238174937e+00 -2.5483350948198815e+00 0 -2 1
2497 833 1 -8.1999999999999995e-01 -9.0703055934186452e+00 -4.7737995449365425e+00 -6.1433300213744886e+00 -1 -1 0
2304 768 2 4.0999999999999998e-01 -1.0097302771332272e+01 -1.1149916038467644e-01 -4.2737167159901173e+00 -1 1 0
1791 597 2 4.0999999999999998e-01 -5.3080809159915887e+00 -1.0166754977015824e+00 -2.7610158864581180e-01 0 -2 1
54 18 2 4.0999999999999998e-01 -1.3904692077361178e+01 -4.4141416527993602e+00 -6.5631912348124164e+00 -1 -2 1
2212 738 1 -8.1999999999999995e-01 -8.0637912978143831e+00 -6.8259955762777071e+00 -7.3287895070267810e+00 -1 -1 3
1945 649 1 -8.1999999999999995e-01 -1.2179579282591707e+01 -1.3195434980271196e+01 -6.7634782373944802e+00 -1 0 -1
2487 829 2 4.0999999999999998e-01 -1.2591377122463260e+01 -9.8247786002411051e+00 -6.7792184339615211e+00 -2 0 0
810 270 2 4.0999999999999998e-01 -1.1897711916255139e+01 -2.7015592521119629e+00 -1.1344901453637330e+00 -1 -1 0
2485 829 1 -8.1999999999999995e-01 -1.2699175952389457e+01 -8.9167730591221162e+00 -6.3743031701937536e+00 -2 0 0
1834 612 1 -8.1999999999999995e-01 -1.4825362031919578e+01 -7.3711659530575506e+00 -3.2845340890275754e+00 0 1 -1
2004 668 2 4.0999999999999998e-01 -1.4777026290420814e+01 -1.3197385361660237e+01 -3.4591911457280755e+00 -1 1 1
302 101 2 4.0999999999999998e-01 -1.0100477608925708e+01 -1.3489204919719459e+01 -2.6737132472314507e-01 -2 0 -1
1565 522 2 4.0999999999999998e-01 -8.2424930659921607e+00 -9.3503609671513281e+00 -7.3984952617386393e+00 -1 0 2
560 187 2 4.0999999999999998e-01 -5.0319310548059537e+00 -1.0723317832510910e+01 -6.0479993477949261e+00 -1 -1 2
561 187 2 4.0999999999999998e-01 -5.2940790583132227e+00 -1.1657536018056431e+01 -7.3614974807046094e+00 -1 -1 2
1336 446 1 -8.1999999999999995e-01 -1.2486817800035183e+01 -6.2936911160142284e+00 -7.3046816674906934e+00 -2 1 -3
1151 384 2 4.0999999999999998e-01 -1.2630623684734024e+01 -7.1659550550149831e+00 -3.4295609426889584e-02 -2 0 -1
2034 678 2 4.0999999999999998e-01 -6.3092298135486278e+00 -1.0602533403582502e+01 -7.2898955285685574e-02 0 0 2
439 147 1 -8.1999999999999995e-01 -1.2279937415415588e+01 -9.3873189313813512e+00 1.8204321992367198e+00 0 -1 -1
401 134 2 4.0999999999999998e-01 -6.7621755179005660e+00 -1.1221333113620629e+01 2.1390434603185184e+00 -1 1 -1
1190 397 2 4.0999999999999998e-01 -8.2293123275881861e+00 -8.8133002987254496e+00 6.1724777335620296e+00 0 1 0
1009 337 1 -8.1999999999999995e-01 -9.5384467385741836e+00 -9.2426945862569880e+00 1.8143882853812592e+00 -2 2 1
440 147 2 4.0999999999999998e-01 -1.2095940171775389e+01 -8.9062071480015952e+00 9.6326973351452416e-01 0 -1 -1
754 252 1 -8.1999999999999995e-01 -9.1913058265698808e+00 -1.1611806837437598e+01 2.9121812695701408e+00 -3 2 -1
755 252 2 4.0999999999999998e-01 -8.6440462560078934e+00 -1.2437215574903139e+01 2.7734064903860585e+00 -3 2 -1
277 93 1 -8.1999999999999995e-01 -8.9447724321918720e+00 -1.0932710408394476e+01 5.5713615617407974e+00 -3 -1 -1
1259 420 2 4.0999999999999998e-01 -6.4096301361432335e+00 -3.3998608911136046e+00 6.1546199645295552e-01 -1 2 -2
756 252 2 4.0999999999999998e-01 -9.0892892037883275e+00 -1.1299109716129108e+01 3.8565668747501363e+00 -3 2 -1
1011 337 2 4.0999999999999998e-01 -9.2088510099789982e+00 -1.0099400407166293e+01 2.2112167606418254e+00 -2 2 1
557 186 2 4.0999999999999998e-01 -1.2978346105116771e+01 -7.7976152752983943e+00 2.8960943781436725e+00 -5 -2 1
1010 337 2 4.0999999999999998e-01 -1.0537660555022391e+01 -9.2220184229668938e+00 1.8489616712328640e+00 -2 2 1
2583 861 2 4.0999999999999998e-01 -1.0851093678021254e+01 -9.6427356443298216e+00 4.9056143658633999e+00 -1 1 -2
2582 861 2 4.0999999999999998e-01 -1.2373921726913299e+01 -9.9680351700244110e+00 4.4137428910168488e+00 -1 1 -2
2505 835 2 4.0999999999999998e-01 -1.4754613725372234e+01 -1.0789224721004054e-01 2.8770153773801610e+00 -2 0 2
2581 861 1 -8.1999999999999995e-01 -1.1818645835918865e+01 -9.5840038805211147e+00 5.1514689059378398e+00 -1 1 -2
256 86 1 -8.1999999999999995e-01 -7.1343141600138775e+00 -1.2865991932722281e+01 5.1309038748351519e+00 0 2 0
441 147 2 4.0999999999999998e-01 -1.3233941199492692e+01 -9.6867707285985762e+00 1.8364459372650543e+00 0 -1 -1
279 93 2 4.0999999999999998e-01 -8.0741252716038030e+00 -1.1424645882104752e+01 5.5762665090069916e+00 -3 -1 -1
556 186 1 -8.1999999999999995e-01 -1.3041744597872380e+01 -7.0793406185389829e+00 3.5889963802167486e+00 -5 -2 1
400 134 1 -8.1999999999999995e-01 -6.6177352198935449e+00 -1.1892691890795604e+01 1.4120871932301426e+00 -1 1 -1
336 112 2 4.0999999999999998e-01 -1.2396885279003929e+01 -1.3704738424679137e+01 1.9307577671883251e+00 -2 -1 2
258 86 2 4.0999999999999998e-01 -6.1505387213420892e+00 -1.2694688044034482e+01 5.1846807367535597e+00 0 2 0
1714 572 1 -8.1999999999999995e-01 -1.4361605246128413e+01 -1.4246557569780959e+01 5.8992692368953819e+00 -1 0 0
796 266 1 -8.1999999999999995e-01 -7.8693752610088250e+00 -4.2015733995884883e+00 5.6118392629573677e-01 -3 1 -1
2045 682 2 4.0999999999999998e-01 -7.4690716717801795e+00 -8.9578807619013787e+00 3.0226888901394737e+00 0 -1 -2
257 86 2 4.0999999999999998e-01 -7.3039315713704287e+00 -1.3850667560219748e+01 5.1720730492152747e+00 0 2 0
2044 682 1 -8.1999999999999995e-01 -6.6336245547920765e+00 -9.4573650454810085e+00 3.2520240370632258e+00 0 -1 -2
2046 682 2 4.0999999999999998e-01 -6.5287697131264490e+00 -9.4930002167932184e+00 4.2458985966570673e+00 0 -1 -2
1700 567 2 4.0999999999999998e-01 -1.4315138982088092e+01 -1.3270328650557078e+01 4.6699275370216853e-01 1 1 1
1189 397 1 -8.1999999999999995e-01 -8.8363799141151134e+00 -8.0292522936609672e+00 6.3020489792733656e+00 0 1 0
2192 731 2 4.0999999999999998e-01 -1.0391246348545113e+01 -1.1796637513102727e+01 1.1926490866504729e+00 -1 1 2
1191 397 2 4.0999999999999998e-01 -8.3151697554905617e+00 -7.2624904500728746e+00 6.6768386098833403e+00 0 1 0
2401 801 1 -8.1999999999999995e-01 -6.5137088832909136e+00 -6.5380496680718707e+00 4.7985432866572388e+00 0 0 1
558 186 2 4.0999999999999998e-01 -1.2629041707253972e+01 -7.4009627739962465e+00 4.4412208443503260e+00 -5 -2 1
1459 487 1 -8.1999999999999995e-01 -1.2962889873170749e+01 -1.9814199863657400e-01 2.5765626003921618e+00 -2 0 -1
2194 732 1 -8.1999999999999995e-01 -8.8128171518181482e+00 -2.9629155446520805e-01 2.4709809630809758e+00 -1 0 0
2463 821 2 4.0999999999999998e-01 -1.3891321586503807e+01 -4.4389105779531466e+00 7.3801873423763062e+00 -2 1 1
2402 801 2 4.0999999999999998e-01 -5.6262305183501091e+00 -6.9985037160682904e+00 4.7781653836687816e+00 0 0 1
1907 636 2 4.0999999999999998e-01 -1.1428088404115824e+01 -1.4347242621304803e+01 6.2865049039434133e+00 -1 0 0
1699 567 1 -8.1999999999999995e-01 -1.3966097512068835e+01 -1.2404626289276070e+01 8.2585275356727728e-01 1 1 1
1906 636 1 -8.1999999999999995e-01 -1.1320674726359599e+01 -1.3363336795808738e+01 6.1435270398780375e+00 -1 0 0
1908 636 2 4.0999999999999998e-01 -1.0673372165357140e+01 -1.3203528947156311e+01 5.3982003132782062e+00 -1 0 0
2087 696 2 4.0999999999999998e-01 -1.2799698624326615e+01 -2.7442387867654006e-01 6.3259438096522160e+00 -2 0 1
855 285 2 4.0999999999999998e-01 -1.2137764810827989e+01 -9.2196815552155371e+00 6.7985940771264239e+00 -2 0 -2
402 134 2 4.0999999999999998e-01 -5.8016208997123258e+00 -1.2433703183204241e+01 1.6153487224939980e+00 -1 1 -1
2403 801 2 4.0999999999999998e-01 -6.8192631231815319e+00 -6.3616467495412881e+00 3.8628245005405226e+00 0 0 1
1150 384 1 -8.1999999999999995e-01 -1.1873564182435981e+01 -6.8163863127659390e+00 5.1771312231304378e-01 -2 0 -1
1716 572 2 4.0999999999999998e-01 -1.3410978214349679e+01 -1.4329443108766982e+01 5.6001217026622498e+00 -1 0 0
303 101 2 4.0999999999999998e-01 -1.0373878525938011e+01 -1.4399967170175104e+01 1.0602305212126737e+00 -2 0 -1
334 112 1 -8.1999999999999995e-01 -1.1824533678186807e+01 -1.4503356240798041e+01 2.1169680061317315e+00 -2 -1 2