2593
Atoms. Timestep: 18495000
O -10.6284 -0.935379 -1.55338
H -9.97798 -0.752598 -0.816134
H -11.0567 -0.0784775 -1.84001
O -6.23688 5.3132 10.3428
H -6.46598 5.87504 9.54791
H -6.91804 5.45761 11.0605
O -2.46535 -14.2789 9.49832
H -1.88152 -13.99 8.73963
H -2.18582 -13.8049 10.3332
O 8.68077 -8.4979 1.1791
H 8.49396 -7.91686 0.387001
H 7.86808 -8.54063 1.76019
O 6.53167 -9.35845 2.68577
H 6.03598 -9.57624 3.52648
H 5.88985 -9.3245 1.9197
O 10.0899 -1.01359 -12.8521
H 11.026 -1.32933 -12.6975
H 9.87778 -0.27401 -12.2134
O -9.02453 -2.48834 -6.61383
H -9.0953 -2.44831 -5.61717
H -8.79962 -1.58092 -6.96872
O 4.76379 7.27329 8.20859
H 4.57052 8.23188 7.99958
H 5.0451 6.80028 7.37368
O -12.9599 -3.8388 1.26113
H -13.4735 -4.69632 1.28823
H -12.4649 -3.77402 0.394689
O 14.4697 -0.544078 8.50538
H -14.7232 -1.15111 8.9963
H 13.5375 -0.685242 8.83848
O 6.49069 -11.418 -12.7134
H 6.31623 -11.1153 -11.7765
H 7.40602 -11.8166 -12.7699
O -2.82287 13.4451 -3.71808
H -2.27328 13.5575 -4.54588
H -2.73258 12.5073 -3.38281
O 3.08289 4.02858 4.02966
H 3.03555 3.50458 3.17929
H 2.63903 4.91521 3.89997
O -8.94573 -4.32344 7.20554
H -8.41368 -4.12978 8.02977
H -9.34064 -3.47367 6.85643
O -9.56878 8.58154 13.2803
H -8.61799 8.88011 13.1979
H -10.0812 9.24679 13.8232
O -4.18154 -11.9866 14.1621
H -3.20423 -11.9014 14.3559
H -4.39189 -12.9335 13.9192
O 3.14861 -0.275966 -0.872622
H 4.02286 -0.2428 -0.388342
H 2.82286 0.655137 -1.03653
O -10.9351 4.97553 -5.83929
H -10.428 5.79661 -6.10118
H -10.2954 4.2761 -5.52071
O -12.5672 1.31734 -5.84556
H -12.5027 1.21009 -4.85345
H -11.8002 0.84735 -6.2822
O -14.5206 -0.284272 -9.92469
H -14.1403 0.554391 -9.53484
H -13.8342 -1.01047 -9.88693
O -10.9736 2.66459 -1.31208
H -10.1648 3.19331 -1.56944
H -11.4409 3.11837 -0.553371
O -9.99213 6.55954 8.67342
H -10.9735 6.71894 8.78005
H -9.49259 7.39762 8.89256
O 7.26588 3.05856 -2.93288
H 6.43727 2.97237 -3.48598
H 7.62731 3.98717 -3.01646
O 9.25809 -9.16534 -10.5578
H 8.38966 -8.75546 -10.279
H 9.38536 -9.03953 -11.5417
O 7.87778 0.524197 8.25693
H 8.80981 0.300371 7.97204
H 7.31289 0.689841 7.4486
O -8.35906 -5.5748 -13.2504
H -8.76089 -4.79869 -13.7363
H -9.08613 -6.19028 -12.9463
O -10.0365 6.66543 -3.29672
H -10.4297 6.36906 -4.16708
H -9.63892 5.87824 -2.82534
O -2.76258 -2.24416 6.34493
H -3.00044 -2.02864 7.29199
H -3.5592 -2.09543 5.75909
O 13.373 0.981114 6.48341
H 14.1733 1.34633 6.00788
H 13.658 0.247833 7.10069
O 0.333241 4.80504 -6.43297
H 0.823352 4.09059 -6.93227
H 0.472964 5.68485 -6.88723
O 11.2062 11.721 -4.72907
H 11.7156 12.5719 -4.60115
H 11.8324 10.9986 -5.02248
O -2.18142 -2.26762 -6.05584
H -2.23368 -1.48498 -5.43561
H -2.4383 -1.97958 -6.97832
O 6.97952 4.93528 12.4428
H 7.07757 4.47422 11.5609
H 6.01336 5.13042 12.6113
O -9.00205 5.44083 -13.1451
H -9.79574 5.54396 -13.7446
H -8.75377 4.47409 -13.0842
O 3.68861 13.3053 5.5929
H 4.61066 12.9222 5.53821
H 3.32174 13.1611 6.51189
O 13.3972 -9.20955 13.6413
H 13.7518 -10.1314 13.4849
H 12.4191 -9.18906 13.4343
O 10.6451 -13.4452 -3.39204
H 11.196 -14.2791 -3.35959
H 10.373 -13.2621 -4.33668
O 0.148828 13.9813 -9.08688
H 0.807901 13.7921 -8.35902
H 0.629467 14.3414 -9.88641
O -14.7917 -6.16073 3.86828
H -14.4066 -6.88057 4.44576
H -14.5891 -5.26747 4.26951
O -13.6169 -11.0876 -10.4749
H -13.5717 -10.8255 -11.4389
H -14.5446 -10.9393 -10.1324
O -11.6547 0.613083 -11.3815
H -10.9839 0.528126 -10.6447
H -12.1008 1.50624 -11.3247
O -5.8894 5.53613 6.87192
H -5.08607 5.67392 6.29261
H -6.29962 6.42185 7.08908
O -13.3064 -4.20134 11.0845
H -12.7347 -4.96928 10.7956
H -14.1119 -4.54776 11.5651
O 3.82724 -4.35897 -5.70283
H 3.7153 -4.03949 -6.64375
H 3.06392 -4.95806 -5.46122
O -3.4755 -9.09881 -11.3995
H -3.7041 -9.83185 -12.0401
H -4.03363 -9.19068 -10.5749
O -14.7074 0.50698 12.6921
H 14.683 -0.314648 12.315
H 14.6631 0.750142 13.5528
O -11.9094 7.72424 1.93809
H -12.6056 8.42281 2.1032
H -11.9864 7.3926 0.997865
O -7.98114 -12.3542 5.86565
H -7.59696 -11.5774 6.36464
H -7.24461 -12.8568 5.41308
O -13.6109 13.2453 7.21503
H -14.3505 13.7252 6.7431
H -12.7629 13.7671 7.12287
O -6.54555 1.58757 12.1099
H -6.82534 1.28309 11.1994
H -6.02138 2.43551 12.0313
O 2.66833 -10.2674 -2.09003
H 2.73832 -10.8565 -2.89501
H 2.92994 -10.7843 -1.27497
O -14.2291 11.8662 -10.1483
H -14.0235 12.5262 -9.42565
H -14.6039 12.3463 -10.9413
O 4.71385 9.69309 4.61477
H 4.97044 10.5847 4.2417
H 4.46357 9.79419 5.57762
O 7.93064 2.55061 -6.29704
H 7.0943 2.16759 -5.90491
H 8.71575 2.00341 -6.007
O 11.9054 13.8478 13.9806
H 11.5869 13.6677 -14.9065
H 12.1047 14.8224 13.8792
O 9.93605 -3.43233 1.2994
H 10.5866 -2.95777 1.89232
H 9.40335 -2.76087 0.784317
O 3.8698 1.1701 -14.2321
H 3.58726 0.618188 -13.4476
H 4.26815 2.02868 -13.9095
O 12.4543 13.7808 9.77312
H 12.808 12.8496 9.68482
H 12.8483 14.3563 9.05651
O -3.57455 11.0063 -13.3714
H -3.34593 11.4012 -14.2612
H -4.45323 11.3694 -13.0615
O 1.31662 -10.1122 -5.60021
H 0.61036 -10.7884 -5.80991
H 1.13827 -9.27348 -6.11462
O -6.74416 -8.3981 4.16824
H -6.21032 -9.17563 4.5005
H -6.26885 -7.54734 4.39234
O 14.2057 -11.0949 4.00198
H 13.7922 -11.9445 3.67453
H 14.2258 -10.426 3.25897
O -14.4479 14.836 13.8304
H -14.8081 -14.6977 12.9418
H -13.9025 -14.2404 14.2213
O -7.88765 -5.64319 13.6144
H -8.69629 -5.06413 13.5108
H -7.77795 -5.8934 14.5763
O -3.2168 -8.98754 12.6541
H -2.56482 -8.6938 11.9551
H -3.29303 -8.28038 13.357
O 3.86332 1.30627 -10.8964
H 3.93944 0.349217 -11.176
H 4.65136 1.55233 -10.3321
O 2.41182 -11.7154 8.05594
H 2.77213 -12.3975 7.4196
H 2.72439 -11.9258 8.9822
O -3.97383 8.30171 0.0614771
H -4.50428 7.48252 0.279386
H -3.44251 8.57758 0.862433
O 4.44949 11.9634 -8.65103
H 5.26972 12.4952 -8.44034
H 4.51064 11.6125 -9.58542
O -7.36737 1.01544 4.34585
H -8.25655 1.19487 3.92501
H -7.48437 0.392921 5.11961
O 1.88614 14.5837 3.60438
H 2.27528 14.0048 4.32092
H 1.06065 14.153 3.23964
O 7.08445 10.6365 -11.8657
H 7.32509 10.6934 -10.8967
H 7.87411 10.3128 -12.3868
O -7.68351 9.06466 9.41143
H -8.09 8.9466 10.3174
H -6.6879 9.10516 9.49554
O 10.9031 7.12875 -10.3981
H 10.3955 6.26775 -10.4283
H 10.8726 7.56538 -11.2972
O 5.18567 -9.6799 -7.03211
H 5.74075 -10.4905 -6.84582
H 4.78223 -9.34897 -6.17908
O -6.63168 -4.32162 9.14294
H -6.50382 -4.83842 9.98941
H -6.06828 -3.49587 9.16825
O -0.0464131 7.75795 10.2982
H 0.583655 8.05309 11.0164
H 0.423834 7.12746 9.68074
O 3.32768 -12.5752 -12.3954
H 3.85617 -11.8091 -12.0297
H 3.41213 -13.361 -11.7828
O -13.5152 -6.5408 -13.0934
H -14.4853 -6.64591 -12.8746
H -13.3033 -7.05518 -13.9243
O 2.49851 -3.87267 -11.5231
H 1.83451 -3.22694 -11.9
H 2.01492 -4.62476 -11.0754
O -11.13 12.4901 0.49283
H -11.3903 13.3755 0.107688
H -10.136 12.4501 0.594376
O 9.47499 4.7876 -10.2417
H 10.0117 4.46063 -9.46394
H 9.66993 4.22157 -11.0427
O 8.42573 -11.9645 11.1814
H 7.64462 -12.4213 11.607
H 8.45214 -11.0084 11.4731
O -4.25885 -3.38196 1.95366
H -5.12179 -3.39545 2.45873
H -3.66449 -2.67038 2.32827
O 13.0311 1.2505 -7.77475
H 12.7869 0.508051 -8.3985
H 13.9821 1.51759 -7.93063
O -1.96381 -13.244 11.9924
H -1.84102 -12.7512 12.8538
H -1.73051 -14.2075 12.1235
O -14.2817 5.64288 -2.82196
H -14.0396 4.90551 -3.45254
H 14.6359 5.461 -2.42628
O 2.17488 6.36619 3.57202
H 2.84694 7.03384 3.25186
H 1.26442 6.63123 3.25458
O -4.51146 12.0115 -0.61347
H -4.65211 11.5316 0.25248
H -5.35012 12.4931 -0.867669
O 3.27128 2.04371 10.339
H 3.96488 2.68785 10.0166
H 2.4712 2.08843 9.74079
O -0.402408 3.21032 12.8181
H 0.273095 2.48337 12.6949
H -1.28306 2.80807 13.0683
O -10.0584 2.12823 2.20311
H -9.48425 2.27167 1.39707
H -9.7197 2.68997 2.95786
O 10.605 -3.79463 -2.96571
H 11.2329 -3.01737 -3.00533
H 9.82969 -3.5671 -2.3766
O 11.2818 -7.05395 10.1537
H 12.2065 -6.79604 10.4338
H 10.7322 -6.2295 10.019
O -2.90496 0.0735586 -4.42071
H -2.10311 0.43386 -4.89732
H -3.73168 0.494146 -4.79433
O -3.89387 3.37123 5.00441
H -3.63686 3.24998 4.04567
H -3.09502 3.66549 5.52899
O 11.3164 -9.83241 5.65375
H 10.6199 -9.35595 6.19019
H 11.0797 -9.78545 4.68335
O -5.79682 3.92027 0.739633
H -6.33283 4.76281 0.687093
H -4.95048 4.03062 0.218599
O 3.95548 -0.387064 -5.38013
H 3.72378 -0.764878 -6.27652
H 4.94958 -0.325114 -5.29139
O 12.5116 9.54183 -6.2118
H 11.7991 8.84648 -6.30543
H 12.7022 9.94634 -7.10623
O -6.24412 -1.20513 11.909
H -5.93656 -1.93071 12.5245
H -5.94521 -0.318911 12.2628
O -0.454544 1.8475 1.79839
H -0.634512 1.0357 2.35384
H 0.495794 2.1326 1.92294
O 1.00758 14.2062 7.39463
H 1.16558 14.6541 8.27462
H 0.0241657 14.1417 7.22532
O -11.3943 -3.79718 3.65569
H -11.837 -3.78511 2.75913
H -10.4841 -4.20289 3.57254
O -2.96376 10.2515 -1.63539
H -3.59465 10.9612 -1.32183
H -3.24594 9.36694 -1.26411
O 3.24597 13.6856 -1.23546
H 3.00011 12.9 -1.80323
H 3.23172 13.418 -0.272061
O -10.1746 -4.11055 12.7421
H -9.56559 -3.58278 12.1501
H -11.0976 -3.7287 12.696
O 10.1862 5.05324 -6.36885
H 9.95806 4.41531 -5.63337
H 10.7017 4.5731 -7.07857
O -14.5656 -5.79241 -8.1837
H -13.5973 -6.02942 -8.26268
H -14.7856 -5.60393 -7.22662
O 13.6866 11.8479 12.7062
H 13.2623 12.4019 13.4224
H 12.9758 11.4609 12.119
O -2.93184 -14.3465 -1.89419
H -2.75935 -13.4995 -2.39696
H -2.87314 14.694 -2.52056
O -5.08827 -14.8289 -0.0940123
H -4.99285 -14.151 0.634851
H -4.46801 -14.601 -0.844513
O -4.34817 -9.14535 -8.60918
H -3.92883 -8.70441 -7.81566
H -5.25306 -8.75131 -8.76996
O 12.8406 13.9403 -4.59199
H 13.786 13.8485 -4.27915
H 12.8321 14.1543 -5.56876
O 14.4697 -9.17817 1.94032
H 13.7522 -9.432 1.29166
H 14.644 -8.19556 1.87683
O 8.84445 -13.4443 -5.68477
H 8.29957 -13.7879 -4.91996
H 8.84978 -14.1211 -6.42087
O 6.44738 -1.84295 8.02309
H 6.18931 -1.80629 7.05769
H 7.08874 -1.10279 8.22499
O 14.3465 -14.5653 6.36936
H 14.2776 -13.6315 6.0184
H 13.9678 -14.6026 7.29407
O -12.6195 4.10527 -14.5141
H -12.4374 5.00804 -14.9037
H -12.1908 3.40388 14.7343
O -9.57159 -8.16301 5.03524
H -9.44818 -7.98596 6.01165
H -8.7532 -8.60745 4.67104
O -7.62748 -5.5022 -2.17551
H -8.127 -6.3223 -2.45453
H -8.18481 -4.97438 -1.53463
O 12.4601 -2.46306 -9.26555
H 12.7199 -2.76059 -10.1842
H 11.5833 -1.9838 -9.30594
O 0.777955 -4.2307 -7.79542
H 0.772628 -3.48164 -7.13299
H -0.157965 -4.54885 -7.94632
O 11.944 -0.808277 4.84754
H 12.4573 0.00543204 5.12004
H 11.4928 -1.20149 5.64864
O -9.34225 -7.08059 7.48351
H -10.1562 -7.53159 7.84958
H -9.42138 -6.09241 7.61452
O -9.6741 6.04433 -9.11229
H -9.42053 6.55312 -8.28963
H -10.1267 5.19189 -8.85071
O -10.7784 -10.8593 -11.1918
H -11.4884 -11.0203 -10.5062
H -10.4356 -9.92411 -11.1033
O -5.23469 0.960509 -13.8608
H -5.24507 -0.00278753 -14.1289
H -5.64929 1.05918 -12.9562
O -12.2588 4.39407 0.336023
H -12.948 4.20289 1.03496
H -12.4542 5.27638 -0.0921114
O 6.84376 -9.87246 6.08655
H 5.93557 -9.6408 6.43508
H 7.24671 -10.5887 6.6563
O -13.9534 12.4817 -14.6595
H -14.3348 13.1077 14.4782
H -12.9629 12.6089 -14.6078
O 5.20805 -3.47759 -12.0039
H 5.93626 -4.14727 -11.8584
H 4.34632 -3.83974 -11.6487
O 13.5268 10.7763 -2.40238
H 13.326 11.3972 -1.64465
H 14.0631 11.2584 -3.09517
O 5.74753 6.64134 3.34775
H 5.78212 6.0698 2.52795
H 5.26635 7.49301 3.14024
O -6.76886 -7.66932 -9.82107
H -7.48906 -6.99134 -9.67415
H -7.1786 -8.53189 -10.1178
O -5.19508 11.2722 1.84067
H -5.83084 11.742 2.45304
H -4.50095 10.7972 2.38151
O 13.3535 9.23937 10.1426
H 14.0187 8.81611 10.7576
H 12.4826 8.75219 10.2073
O 3.35837 -3.81581 -8.50075
H 2.40444 -4.06153 -8.32875
H 3.55052 -3.89034 -9.47925
O -6.56809 9.03823 12.7042
H -6.04955 9.36045 11.9122
H -5.93566 8.70668 13.4042
O 11.3601 3.46744 -8.34768
H 11.9573 3.85057 -9.05228
H 11.7387 2.59979 -8.02553
O 13.4762 6.93913 5.31427
H 13.6545 7.21384 4.36945
H 12.4893 6.90958 5.47219
O 13.8236 -11.0577 -9.2276
H 13.0236 -10.4582 -9.20518
H 14.0901 -11.293 -8.29296
O -13.6268 -13.4698 -9.61012
H -13.4333 -14.0291 -10.4161
H -13.65 -12.5049 -9.87175
O -1.17146 5.91313 12.2545
H -0.548461 6.51589 11.756
H -0.732398 5.02654 12.3998
O 12.2981 -5.12406 0.249964
H 12.2047 -5.54943 1.15013
H 11.7653 -4.2782 0.224185
O 6.50618 -5.81593 -14.6067
H 6.10853 -6.39174 -13.8924
H 6.2841 -4.85806 -14.4248
O -13.0335 6.32847 4.0291
H -12.5744 6.22941 4.91191
H -12.3793 6.6579 3.34832
O 5.73854 14.8833 1.46571
H 4.87135 -14.5354 1.76347
H 6.46444 -14.2513 1.54483
O 0.59835 8.36074 -13.1207
H 0.370442 8.4528 -14.09
H -0.225315 8.49683 -12.5703
O 2.48886 -1.66021 13.2582
H 1.69359 -2.24491 13.4183
H 2.48286 -1.3414 12.3105
O -6.74806 -9.01192 -6.79926
H -6.77226 -8.05735 -7.09615
H -6.82165 -9.61092 -7.59658
O -8.30483 11.6364 -11.346
H -8.7246 11.0794 -12.0626
H -8.72432 12.5441 -11.3407
O 13.586 3.98147 -5.5011
H 13.7493 4.20868 -6.46112
H 14.4222 4.13617 -4.97504
O -1.75631 -5.70112 -12.4482
H -2.67836 -6.07317 -12.5546
H -1.11375 -6.24261 -12.9902
O -12.547 -12.5091 7.85524
H -13.2037 -11.943 7.35699
H -13.0254 -13.0315 8.56111
O 4.18007 -14.1019 -2.53947
H 3.52648 -13.4596 -2.93974
H 3.70759 -14.6958 -1.88834
O -11.0394 9.85485 -7.36127
H -10.5317 9.66781 -8.20219
H -10.5328 9.49334 -6.5786
O 12.1891 8.23998 13.4713
H 12.689 7.65578 14.1106
H 11.9625 7.71722 12.6495
O 12.6193 14.6095 -7.23716
H 13.5712 14.6878 -7.53315
H 12.1448 -14.3449 -7.40854
O 13.9296 9.5072 6.12354
H 13.761 8.52384 6.05621
H 13.4569 9.97814 5.37872
O -1.75257 4.04303 6.49072
H -2.4035 4.20725 7.23185
H -0.993518 3.48788 6.8307
O 6.64309 -7.16607 -4.28345
H 7.33067 -7.86762 -4.47053
H 6.65535 -6.484 -5.01459
O -9.21944 -11.2034 9.83207
H -8.46931 -11.1008 9.17884
H -9.98622 -10.6256 9.55246
O 4.69119 -3.73576 14.7459
H 4.64176 -3.81133 13.75
H 4.61323 -2.77487 -14.8062
O -4.00435 11.5552 12.0156
H -4.97202 11.3666 11.8483
H -3.89817 11.9802 12.9145
O -5.09943 9.46332 -4.5019
H -5.93661 8.94865 -4.68674
H -5.3278 10.3095 -4.02043
O 8.84397 13.2352 3.76081
H 9.13432 13.3469 2.81046
H 9.6192 13.4072 4.36858
O -3.24588 13.1746 13.9381
H -3.94471 13.8842 14.0276
H -2.49422 13.5163 13.3741
O -9.8169 -6.93092 -5.83963
H -8.86475 -7.18215 -6.01352
H -9.84726 -6.06568 -5.33925
O 14.8298 8.00738 12.0821
H -14.8392 7.05279 12.3401
H 14.2232 8.44197 12.7478
O -1.72552 -7.56902 10.4788
H -1.43319 -6.95804 9.74312
H -1.62187 -8.51894 10.1841
O -13.1101 -1.10982 5.98513
H -12.2635 -0.710866 5.63291
H -12.9002 -1.7078 6.75862
O -5.135 -1.97623 9.3829
H -5.18821 -1.23875 8.70968
H -5.49678 -1.65528 10.2581
O -8.17301 -14.3128 2.94429
H -7.22536 -14.2457 3.25637
H -8.19368 -14.6989 2.02212
O -11.6725 12.5304 -7.82452
H -11.4329 11.5599 -7.79891
H -11.1183 13.0283 -7.15753
O -10.0184 -0.557047 13.9754
H -9.75179 -0.692734 -14.8881
H -11.0134 -0.477447 13.9155
O 13.3009 4.51442 -10.7048
H 12.8008 4.89468 -11.4828
H 13.5228 3.5566 -10.8872
O -2.4071 13.5885 0.369778
H -3.08493 13.0004 -0.0713038
H -2.47851 14.5149 -5.93948e-05
O 8.0968 -5.53831 1.63227
H 8.73247 -4.76983 1.70518
H 8.21333 -5.98421 0.744839
O -9.0838 -5.54262 4.6151
H -8.99775 -4.9974 5.44893
H -9.32791 -6.48221 4.85496
O -0.489904 13.2118 2.5392
H -1.16171 13.3063 1.80458
H 0.139971 12.4664 2.32095
O 10.7946 -9.98965 2.62788
H 10.939 -10.63 1.87351
H 10.3132 -9.18059 2.29079
O -14.3566 -12.6282 -6.77612
H 14.6506 -12.2826 -6.30339
H -14.6356 -13.2707 -7.48973
O -1.22469 14.0456 12.5188
H -1.20714 13.4953 11.6841
H -0.361884 13.9317 13.0113
O -8.63862 -3.13593 -11.2144
H -8.36848 -4.02976 -11.5722
H -9.61419 -2.99165 -11.3799
O -12.6977 -14.8248 -3.02927
H -13.5148 -14.4252 -2.61393
H -12.9548 14.1867 -3.56197
O 7.58452 12.2749 -2.98741
H 6.62313 12.0393 -3.12929
H 7.6552 13.2323 -2.70736
O -12.7839 -13.3271 -14.8952
H -12.0098 -13.8035 14.5059
H -12.5113 -12.3958 -14.6535
O -13.6482 -3.02838 -9.5572
H -14.5356 -3.38404 -9.26385
H -13.3156 -3.56233 -10.3345
O -6.71475 7.23943 -4.18007
H -7.57534 6.73359 -4.23881
H -6.65178 7.68766 -3.28841
O -3.19817 -11.0804 11.1023
H -3.15673 -10.5861 11.9706
H -2.84224 -12.0063 11.2285
O 12.9785 -2.96005 -6.70763
H 12.9811 -2.73101 -7.68101
H 12.0654 -2.80421 -6.33095
O 7.15293 2.78612 2.23305
H 7.84416 2.85077 2.95274
H 6.8948 3.70518 1.93531
O 0.426141 -14.2256 -3.29481
H 0.527843 14.6969 -2.8611
H -0.299349 -14.2684 -3.98166
O -11.2933 -11.7762 -8.02682
H -11.6572 -11.6151 -7.10944
H -12.0363 -12.0527 -8.63627
O 0.15941 2.08095 7.3084
H 0.395566 1.23588 7.78801
H 0.753214 2.18878 6.51109
O 8.17004 10.0007 11.6138
H 8.00499 9.0388 11.3959
H 9.12604 10.1227 11.8805
O -0.568665 -3.00076 11.0292
H -0.396458 -2.01769 10.9672
H -1.4932 -3.19841 10.7035
O 11.7571 -11.3643 11.7604
H 11.9891 -10.5576 11.2168
H 11.0607 -11.8994 11.2823
O 8.48169 -2.85127 4.17201
H 8.2148 -2.23405 3.43191
H 7.82004 -2.78214 4.9186
O 9.37151 -8.70791 9.55671
H 10.0602 -8.00928 9.75043
H 9.05231 -9.10845 10.4156
O -7.16404 -0.857559 -11.4368
H -7.54275 -1.77861 -11.3463
H -6.30388 -0.899275 -11.945
O -1.12491 10.1877 -8.49751
H -0.435683 10.1103 -7.77715
H -0.738762 10.6815 -9.27661
O 11.9226 5.58004 -12.7667
H 12.5548 5.70807 -13.5308
H 11.1895 6.25775 -12.8235
O 1.28683 -8.85843 -12.3432
H 1.50288 -8.09364 -12.9501
H 0.366905 -9.19451 -12.545
O 7.41956 4.98929 9.14063
H 7.79435 5.70082 9.73493
H 7.62645 4.09004 9.52598
O 0.828429 -0.0351888 9.03677
H 1.68677 -0.338144 9.45079
H 0.0842359 -0.142615 9.696
O -0.520443 -3.627 -2.00605
H 0.293622 -3.3853 -1.47802
H -1.2287 -2.93603 -1.86162
O 5.37849 8.73385 -3.30709
H 5.34254 9.64763 -3.71162
H 5.09431 8.05723 -3.98633
O -1.08321 -4.90922 4.97291
H -0.870411 -5.8859 5.00022
H -1.87928 -4.7578 4.387
O -3.91833 1.52067 -9.09793
H -4.84517 1.21446 -9.31504
H -3.38012 1.57629 -9.93887
O -9.1371 -13.6098 -0.784618
H -8.84726 -13.799 -1.72276
H -10.061 -13.9653 -0.643056
O 5.86595 -12.3313 -6.0249
H 6.05616 -12.9007 -5.22514
H 5.69383 -12.9165 -6.81729
O -6.35985 -7.5018 -13.5899
H -6.85038 -6.65993 -13.365
H -6.38768 -8.12309 -12.8068
O -10.9901 0.210923 4.84863
H -10.5246 0.996086 5.25706
H -11.0785 0.351756 3.86258
O 3.94515 14.0787 -14.1355
H 2.96259 14.1115 -14.3184
H 4.26307 13.1323 -14.1911
O -14.2611 13.303 -5.00889
H -14.535 12.4648 -4.53743
H -14.7494 13.3709 -5.8789
O 4.39819 10.9474 10.8547
H 5.14769 11.507 11.2083
H 4.00338 11.3895 10.0493
O 5.04119 -14.0885 -9.54026
H 4.8992 -14.7796 -10.2489
H 5.1369 -14.5371 -8.6517
O 8.28294 14.3647 -10.1998
H 9.20462 14.0846 -9.93155
H 8.03093 13.9081 -11.053
O 1.17747 11.695 -11.5019
H 1.90345 11.0137 -11.4083
H 0.289192 11.2359 -11.5144
O 0.946254 1.28627 -11.3808
H 0.563509 2.15677 -11.0715
H 1.94198 1.30957 -11.2918
O 9.13804 -8.51875 6.76172
H 9.14866 -8.81417 7.717
H 8.28192 -8.80734 6.3331
O 5.24313 5.97419 5.92359
H 5.28602 6.31622 4.98491
H 5.80362 5.14997 6.00393
O -0.620491 -12.107 7.84829
H -1.1338 -11.5497 7.19576
H 0.275872 -12.3288 7.46451
O 8.29704 -3.35208 -13.3775
H 8.90667 -3.94652 -13.9018
H 8.82494 -2.60301 -12.9773
O 13.5409 1.27984 -4.16017
H 12.9463 1.53559 -3.39795
H 13.7802 2.09676 -4.68491
O -13.4042 10.5803 5.69249
H -13.2841 11.4824 6.107
H -14.1429 10.0945 6.15967
O -10.0231 -7.54639 -2.67655
H -9.61199 -7.87627 -1.82678
H -9.73399 -8.13011 -3.43524
O 8.49502 -12.717 -8.96255
H 7.74752 -12.0564 -9.03208
H 8.28337 -13.5197 -9.52001
O -3.43923 -12.7672 3.69949
H -2.70122 -13.3106 4.09946
H -3.16843 -12.4567 2.78833
O 5.74598 -7.97275 -12.7003
H 5.03683 -8.64119 -12.9245
H 5.53627 -7.54675 -11.8203
O 6.22957 5.11012 1.18372
H 6.95844 5.55165 0.660514
H 5.53505 4.75822 0.556244
O 13.1034 10.6435 3.89078
H 12.9709 11.6346 3.87739
H 13.2635 10.3161 2.95961
O -4.44841 11.5422 -9.65899
H -4.9296 12.0305 -8.93098
H -3.99883 10.7344 -9.27785
O -12.2264 -8.7727 -9.16683
H -13.1717 -9.0811 -9.27273
H -11.8782 -9.06498 -8.27615
O -12.2293 -3.2107 7.53775
H -12.1244 -3.98121 8.16642
H -11.3355 -2.95942 7.16635
O 1.9649 5.35137 12.1287
H 2.10055 5.56309 11.1609
H 2.45741 4.51198 12.3585
O 0.666359 3.23022 9.71209
H -0.0323659 2.9894 10.3857
H 0.496475 2.73086 8.86254
O -14.6453 -1.39094 -5.65574
H 14.6939 -0.807508 -4.99954
H 14.5551 -2.11028 -5.97421
O -14.83 -13.8718 -1.42244
H 14.0822 -14.1703 -1.72383
H -14.719 -14.0745 -0.44953
O 7.97124 2.619 10.2853
H 7.67271 1.88674 9.67328
H 8.59943 2.24693 10.9686
O -11.5427 -14.8523 -0.617454
H -12.4282 -14.6853 -0.183936
H -11.6418 -14.7949 -1.61084
O -9.41764 2.77558 -4.67099
H -8.73748 2.78976 -3.93811
H -9.52367 1.84056 -5.00927
O -6.12963 -6.1451 11.4481
H -6.81078 -6.08126 12.1774
H -5.25464 -5.79013 11.7772
O -2.08474 -12.3694 -3.89535
H -1.84255 -11.8958 -3.04859
H -1.76731 -11.835 -4.67865
O -0.337105 10.3532 -1.12827
H -1.31195 10.5278 -1.26649
H -0.072463 9.52762 -1.62662
O -1.99257 9.9557 12.9339
H -2.86478 10.4361 12.8424
H -1.65039 9.71045 12.0268
O -6.17449 1.55713 -10.7408
H -6.63666 0.684593 -10.899
H -6.80693 2.19426 -10.3003
O -10.2503 0.803814 -7.49218
H -10.8245 0.00843271 -7.68622
H -9.28707 0.541752 -7.55055
O -4.88826 14.5145 -5.35257
H -4.6373 14.0597 -4.49811
H -5.38864 13.875 -5.9361
O 12.8344 9.97324 1.16123
H 12.7222 10.286 0.218094
H 12.0057 9.49703 1.45526
O 4.26287 14.0091 -11.3141
H 3.98711 14.1465 -12.2655
H 4.34228 13.0298 -11.1282
O -14.0315 -3.69768 4.57579
H -14.3624 -2.84839 4.98704
H -13.0395 -3.64743 4.45977
O 6.88024 13.4523 -8.00056
H 7.30008 13.786 -8.84455
H 7.59355 13.13 -7.37826
O -1.55706 -5.35293 -8.47777
H -1.77764 -5.85067 -9.31654
H -2.40145 -5.12972 -7.99081
O 8.86444 -10.8997 -0.182798
H 8.80783 -10.0645 0.364214
H 9.51716 -10.7661 -0.928486
O 9.26191 1.25507 -11.3822
H 9.44345 2.12638 -11.838
H 9.44736 1.34581 -10.4037
O -7.34907 -2.33018 -1.55492
H -7.57251 -1.39805 -1.27005
H -7.96995 -2.97346 -1.107
O 4.58504 4.36343 9.40028
H 5.41201 4.92547 9.38732
H 3.78691 4.94082 9.22838
O -9.20079 14.3136 5.5111
H -9.02998 14.7835 4.64511
H -9.428 -14.8321 6.21584
O -10.6375 -8.46022 13.9594
H -10.7716 -7.84343 13.1839
H -9.6698 -8.70221 14.0294
O 1.4448 -0.584099 3.75374
H 0.499597 -0.661126 3.43658
H 1.61706 -1.27237 4.45841
O 11.6749 11.3282 -9.09929
H 12.6274 11.0864 -8.91452
H 11.0726 10.6303 -8.71185
O -10.53 -1.5614 -4.21899
H -10.7448 -1.27274 -3.28599
H -11.1587 -2.28795 -4.49612
O -5.37157 -1.96288 4.96422
H -6.07826 -2.37537 4.38943
H -5.17633 -1.03735 4.63984
O 1.66352 -3.81399 7.65112
H 1.09349 -4.32706 8.2928
H 1.20676 -2.95752 7.41076
O -11.5928 -7.87858 1.1397
H -10.7904 -7.31297 1.32981
H -11.5961 -8.66909 1.75209
O -3.32216 -5.25017 3.57992
H -3.55749 -4.68548 2.78892
H -4.15208 -5.46534 4.09458
O -7.65179 14.0777 0.389897
H -6.75719 14.2233 -0.0324908
H -8.29737 14.76 0.0469096
O 14.2715 6.21282 1.0713
H 14.7431 5.36845 1.3253
H 14.5329 6.94336 1.70208
O 11.1347 -3.7802 4.72855
H 11.7266 -3.38655 4.02526
H 10.2721 -3.27521 4.75916
O -14.7072 0.1916 -2.08379
H 14.5617 0.227587 -1.24865
H 14.58 0.55955 -2.84738
O 3.98917 11.274 -14.0365
H 3.43883 10.8389 -13.324
H 4.71763 10.6512 -14.3219
O -9.34903 5.79196 2.0009
H -9.31302 5.05557 2.67646
H -10.2435 5.79065 1.5538
O 14.7105 7.84648 3.13147
H -14.5145 7.26276 3.68629
H -14.6532 8.72204 2.96676
O -1.61606 7.67024 14.4975
H -1.55543 6.90006 13.8626
H -1.50872 8.52709 13.9933
O 4.62738 1.33755 2.83099
H 5.33454 1.84325 2.3369
H 4.71702 1.51128 3.81167
O 10.9698 1.77143 1.37237
H 11.6605 2.33576 1.82458
H 10.4957 1.21456 2.05433
O -2.85594 3.28651 2.45836
H -2.7883 4.20449 2.06763
H -2.05518 2.75061 2.19094
O 14.173 -5.03591 -5.797
H 13.7392 -4.27163 -6.27412
H 14.1775 -4.85541 -4.81347
O 3.05536 -12.3267 10.6798
H 2.6906 -12.5226 11.59
H 4.04499 -12.4701 10.6794
O -3.50593 4.19864 8.92695
H -4.37176 4.10317 9.41803
H -3.238 5.16185 8.9079
O -10.5064 -7.38899 -12.8445
H -10.4506 -7.93517 -13.6802
H -11.4054 -6.95474 -12.7895
O -8.29644 -11.5388 2.9747
H -8.62183 -11.327 3.89623
H -8.33333 -12.5271 2.8271
O -9.26196 8.55557 2.27153
H -10.1796 8.73052 2.62838
H -9.07025 7.57496 2.31128
O 1.38008 -3.82617 1.77714
H 1.74588 -3.29397 1.01367
H 0.860767 -4.60379 1.42281
O -9.46253 2.6047 -13.7632
H -9.3739 2.00789 -14.5606
H -9.12746 2.12748 -12.9508
O 3.82172 -6.33672 -0.252276
H 3.53857 -6.19354 0.696022
H 3.2877 -5.74184 -0.853005
O -5.14572 0.977277 -5.98132
H -5.97386 1.23399 -6.47954
H -4.37771 1.53051 -6.30387
O -11.5639 14.0643 11.3648
H -12.1805 13.3009 11.5571
H -10.8637 13.7713 10.7138
O 12.1732 -3.71568 -12.155
H 11.9167 -4.50243 -11.5935
H 11.6059 -3.69463 -12.9782
O -3.72827 -14.2467 -11.5194
H -3.29774 -14.5743 -12.3604
H -4.20728 14.8148 -11.0738
O 5.12567 -6.06917 8.88897
H 4.43313 -6.63288 8.4389
H 5.59958 -5.51428 8.20528
O -1.00299 -8.64254 -1.64603
H -0.0249712 -8.43576 -1.62035
H -1.52107 -7.84108 -1.34739
O -6.11151 11.9115 -3.8835
H -6.43419 11.9909 -4.82664
H -6.87598 11.6606 -3.2897
O 13.2835 -9.30591 -11.7823
H 13.4273 -9.18511 -10.8001
H 14.1009 -9.71141 -12.1914
O 9.08795 14.0548 9.24159
H 9.59399 13.4072 8.67203
H 8.51693 13.5524 9.89076
O -12.2782 3.2463 -11.6536
H -12.2187 3.4499 -12.6309
H -12.3419 4.10093 -11.1384
O 7.6715 -6.66495 12.7387
H 7.25368 -6.23965 13.5415
H 7.64237 -6.02612 11.9699
O 3.46462 -7.3754 7.19374
H 2.55115 -7.78038 7.23251
H 3.42466 -6.5101 6.69415
O -7.24371 1.76266 -3.02794
H -6.38812 1.82311 -2.51388
H -7.20447 0.980401 -3.64961
O -11.8081 2.6804 13.1328
H -12.1403 3.41781 12.5447
H -11.6327 1.86618 12.5794
O 10.6567 13.9637 5.78112
H 10.0861 14.7649 5.96165
H 10.4771 13.264 6.47255
O -14.3728 -10.7668 6.26553
H -13.5779 -10.1693 6.16056
H -14.6751 -11.0806 5.36546
O 5.66952 -6.83206 -8.20667
H 5.69864 -7.69295 -7.69877
H 5.68937 -6.06555 -7.56479
O -0.625351 11.4243 7.91362
H -1.2761 10.8729 8.43554
H -0.545992 12.3298 8.33056
O -0.420256 0.679033 -13.6279
H 0.211602 0.950413 -12.9019
H -1.34589 0.610633 -13.2558
O 13.1783 -13.2744 2.62236
H 12.6657 -13.4348 3.46583
H 12.5507 -12.9794 1.90193
O -8.60404 -14.6844 -3.34284
H -8.06584 14.3031 -3.19835
H -8.0677 -14.0275 -3.87278
O -13.3254 -2.00529 -3.3384
H -13.5108 -1.15734 -2.84183
H -13.6673 -1.92475 -4.27468
O -6.76051 8.45172 -1.69741
H -5.85515 8.85042 -1.55153
H -7.38801 8.78284 -0.99275
O -3.65235 -7.30823 -13.6516
H -3.65465 -7.92727 -12.8663
H -4.59425 -7.08851 -13.9055
O 4.4944 -3.15206 9.37902
H 3.70856 -3.14877 8.76065
H 5.30687 -2.83915 8.88716
O -5.95649 -13.5603 4.48431
H -5.03132 -13.3097 4.19944
H -5.90849 -14.2803 5.17664
O -12.6244 -7.28872 12.0399
H -13.3856 -7.85056 11.7159
H -11.8297 -7.43208 11.4502
O -7.98785 -9.24179 14.3406
H -7.42291 -8.72728 -14.8321
H -7.40371 -9.65576 13.6425
O -8.87672 -12.9552 -8.20331
H -8.54901 -12.513 -7.36844
H -9.76665 -12.5747 -8.45472
O -10.3764 9.34692 -2.58945
H -10.9509 9.49103 -1.7838
H -10.2227 8.36728 -2.71827
O -9.84799 -13.871 7.60773
H -9.15682 -13.2157 7.30308
H -10.5659 -13.3889 8.10982
O 7.05728 1.57984 -13.2217
H 7.20252 0.790288 -13.8179
H 7.64067 1.49905 -12.4136
O 8.81134 9.21867 2.85803
H 8.96789 8.25329 3.06652
H 8.55907 9.31508 1.89522
O 11.6291 -12.2979 0.799859
H 11.0094 -12.9058 0.303399
H 12.217 -11.8175 0.149128
O 1.83833 8.57464 6.19414
H 1.99553 7.63051 6.48371
H 2.61814 9.13994 6.46298
O -4.91699 -1.98828 -12.8105
H -3.98082 -2.3378 -12.7738
H -5.43034 -2.48337 -13.5114
O 2.06501 8.38826 -6.90678
H 1.7932 7.63271 -7.50277
H 1.25182 8.78935 -6.48514
O 12.454 14.6916 -1.79906
H 11.4693 14.7992 -1.66177
H 12.73 13.7702 -1.52556
O -7.40552 -10.0899 -2.51644
H -6.93296 -10.9515 -2.70158
H -7.27577 -9.46628 -3.28727
O 2.52026 -11.6215 4.5557
H 2.98472 -11.9751 5.36757
H 1.62797 -11.2528 4.81623
O 9.76991 -14.0328 -1.02893
H 9.93132 -13.5438 -1.8861
H 8.81003 -14.3085 -0.978121
O 13.5889 -6.74372 -12.501
H 13.3467 -6.60122 -13.4606
H 13.1783 -7.59587 -12.1766
O 5.8949 -11.6407 -10.0524
H 5.06782 -11.0803 -10.0097
H 5.64136 -12.6077 -10.0787
O 12.8708 -0.094465 -0.256548
H 12.7319 -1.06292 -0.049853
H 12.2975 0.460557 0.346082
O -5.809 12.3598 -12.0767
H -5.12802 12.2101 -11.3599
H -6.71097 12.0876 -11.7417
O -11.4562 -9.11575 -6.23734
H -11.0018 -9.78971 -5.65497
H -10.9283 -8.26649 -6.23881
O -10.0596 3.27651 10.5749
H -10.9498 3.25508 10.1199
H -10.0669 3.97668 11.2888
O -9.43934 -3.30558 -14.2349
H -9.97877 -3.26947 14.7416
H -9.90923 -2.7942 -13.5154
O 11.5338 -9.5602 -8.76459
H 11.9754 -8.72474 -8.43752
H 10.6446 -9.33361 -9.16188
O 9.12103 -2.28122 11.7984
H 8.18145 -2.61232 11.7118
H 9.27661 -1.96047 12.7327
O 11.9771 -12.6054 5.17952
H 11.7894 -11.654 5.42374
H 11.3597 -13.2075 5.68568
O -12.0679 -11.0154 12.4585
H -12.668 -11.6686 12.9202
H -11.1348 -11.3744 12.4414
O -0.861447 -9.61248 1.55427
H -0.850207 -10.5966 1.7312
H -0.217534 -9.39851 0.819745
O 4.39906 9.66022 -7.19039
H 4.26773 10.5772 -7.56698
H 3.50822 9.24082 -7.01592
O 6.63251 -0.310179 -6.21397
H 6.10686 -0.389657 -7.06091
H 7.53655 -0.717505 -6.34332
O 4.55031 11.238 -11.1587
H 3.80245 10.5779 -11.2288
H 5.32807 10.9193 -11.7004
O -4.31758 -7.58302 -0.720829
H -3.49546 -7.5047 -0.156982
H -4.62339 -6.67063 -0.992787
O -5.35168 -1.28934 -7.78401
H -5.42227 -0.835842 -6.89559
H -4.38772 -1.41314 -8.01938
O -8.90878 -1.92977 11.6243
H -7.92134 -1.95424 11.7802
H -9.32272 -1.23867 12.2167
O -3.8274 -6.52133 -10.1702
H -4.56512 -6.68236 -9.51463
H -3.68527 -7.34393 -10.7207
O 2.53861 5.58508 6.50422
H 2.14794 4.94594 5.84179
H 3.49522 5.76179 6.2727
O 10.3699 -13.2099 9.8779
H 9.65391 -12.8259 10.4609
H 10.11 -14.1332 9.59519
O -2.86229 -1.9132 -8.66659
H -2.46038 -1.22503 -9.27059
H -3.46503 -2.51016 -9.19601
O 12.9108 4.09791 11.1994
H 13.3283 4.82566 10.6554
H 13.4291 3.25147 11.0776
O -1.64904 -4.98265 7.73154
H -0.848319 -5.56289 7.88026
H -1.55758 -4.50613 6.85718
O 11.0281 5.16355 1.64102
H 11.7407 4.5427 1.96755
H 11.4052 5.76122 0.933572
O -3.28167 1.2247 9.40526
H -3.11176 2.14186 9.04487
H -3.15578 1.22778 10.3973
O 7.29037 11.8636 14.3382
H 6.92305 10.9858 14.6454
H 8.1012 11.7067 13.7744
O 11.0213 12.2504 11.9617
H 10.715 12.7189 11.133
H 11.4841 12.9029 12.5616
O 4.78469 -3.40058 -0.716768
H 5.26075 -4.05908 -1.29959
H 5.10722 -2.47718 -0.924753
O 6.67992 -14.3839 8.76451
H 7.49751 -14.8711 9.07117
H 6.93934 -13.4821 8.41889
O 14.9061 -11.6735 14.2198
H 14.3209 -11.6688 -14.787
H -14.1829 -12.3478 14.3388
O -9.24194 4.006 4.13412
H -8.28067 3.82284 4.33993
H -9.78448 3.91682 4.96936
O 2.1474 9.08371 -2.568
H 1.32036 8.60276 -2.85891
H 2.9383 8.70951 -3.05214
O -1.74694 -7.2368 -4.33419
H -1.6698 -7.61052 -3.40989
H -1.80731 -6.23979 -4.28663
O -8.83728 6.98903 -6.50543