2593
Atoms. Timestep: 1000000
O -7.74192 11.2689 3.60529
H -6.99323 11.5527 4.20443
H -7.96443 10.3099 3.78115
O 9.33434 3.11131 11.5814
H 9.32954 2.30667 10.9876
H 9.28782 3.93879 11.0218
O 7.0291 10.9936 -2.24672
H 7.7372 10.2909 -2.31636
H 7.42713 11.8322 -1.8747
O 2.36685 11.2085 6.74408
H 2.7013 10.9257 5.84507
H 1.435 11.5609 6.65735
O 11.374 -5.8219 12.6377
H 12.0036 -6.12152 11.9208
H 11.7569 -6.04794 13.5334
O -8.46137 4.33332 11.14
H -8.57685 3.34337 11.222
H -8.88308 4.78432 11.9267
O -4.03566 -2.81971 -7.72606
H -4.69284 -2.96616 -8.46545
H -4.25038 -1.96483 -7.25372
O -10.2845 -6.22114 -13.0758
H -10.249 -6.62613 -13.9895
H -10.7372 -5.33072 -13.1233
O 6.76423 3.37891 4.15687
H 6.15131 4.1203 4.43019
H 6.55361 3.10068 3.21972
O 14.6148 -13.478 -13.2338
H -14.5719 -14.2048 -13.0369
H -14.8076 -12.8001 -13.8356
O 7.88865 -8.01003 11.3019
H 7.81621 -7.95367 12.2977
H 7.1647 -7.46154 10.8835
O -13.4994 -1.90035 13.3258
H -12.7638 -2.25374 12.7477
H -14.2806 -2.52354 13.2893
O 11.7243 1.07772 -5.0879
H 10.8397 1.52627 -5.21574
H 12.298 1.23698 -5.89136
O -0.730036 -8.06343 -3.45718
H -0.819183 -8.2713 -2.48308
H -1.50528 -8.454 -3.95366
O -8.26709 14.6395 -13.9818
H -8.30614 -14.2337 -14.216
H -7.52358 14.2039 -14.4892
O 6.61889 7.42917 3.46332
H 6.0928 8.22047 3.1517
H 6.64241 6.7388 2.74022
O 5.02688 14.2212 -14.3534
H 5.35033 14.4248 -13.4293
H 5.29085 13.289 -14.6011
O 11.2274 -3.39116 -5.00586
H 11.4512 -2.46903 -4.69023
H 11.2943 -4.03095 -4.24021
O 7.28276 11.6591 9.21456
H 6.76745 12.0199 9.9919
H 7.05544 12.1813 8.39261
O 2.62013 3.89165 -8.14663
H 2.87586 4.60531 -7.49445
H 1.70992 3.54441 -7.92084
O 14.71 0.643537 -1.91611
H -14.3893 1.13524 -2.36624
H 13.833 0.99899 -2.23957
O -3.1088 10.3562 -0.200644
H -2.13313 10.4731 -0.386227
H -3.42519 9.49926 -0.607595
O 8.97848 2.07262 -10.5407
H 8.94047 1.36313 -9.83696
H 8.06728 2.20386 -10.9312
O 14.0308 -13.874 0.588952
H 13.161 -13.9516 0.101667
H 14.7788 -14.1374 -0.0202401
O -13.8543 -6.41872 -2.99901
H -13.1993 -6.43394 -2.24355
H -13.7785 -7.26701 -3.52311
O -0.458705 -9.96215 -5.80392
H -0.611718 -9.94578 -6.79203
H 0.496496 -10.1928 -5.61832
O -8.08565 -3.8677 -13.1836
H -8.507 -3.76673 -12.2823
H -7.68626 -2.99499 -13.4645
O -4.19328 9.96633 -13.7851
H -4.95351 10.2384 -13.1951
H -4.35058 9.03919 -14.1252
O 3.47129 5.87848 -6.65293
H 4.36536 5.817 -6.20919
H 3.04926 6.75774 -6.43196
O -14.6473 -1.16066 8.79999
H -13.9023 -1.31105 8.15005
H 14.836 -2.0426 9.10278
O 2.54322 -2.74318 -13.5954
H 1.59463 -2.83338 -13.292
H 2.94127 -3.6521 -13.7197
O 12.5872 -1.36517 -13.9423
H 12.4682 -0.761929 -14.731
H 12.188 -0.936646 -13.1317
O 5.01203 4.83921 5.28029
H 5.33753 5.72942 5.59903
H 4.12779 4.63729 5.70146
O 3.85977 -2.14044 2.93295
H 3.90053 -2.86934 3.61638
H 4.31293 -1.32343 3.28957
O 14.0683 12.4122 12.7036
H 14.004 11.424 12.5644
H 14.7138 12.8001 12.0457
O -13.806 -9.45797 12.6669
H -13.9334 -8.65198 12.0888
H -14.6872 -9.73711 13.0485
O -1.37929 -10.9927 11.3207
H -1.40857 -10.1263 11.8191
H -0.43889 -11.332 11.297
O -8.4144 10.7241 -7.06026
H -8.57028 10.8886 -8.03425
H -7.59075 10.1691 -6.94362
O -3.30214 -4.56791 11.4506
H -2.98677 -5.38794 11.9282
H -4.21917 -4.72712 11.0849
O -0.940333 -14.0717 -8.12096
H -1.78211 -13.7774 -8.57354
H -0.301006 -14.4255 -8.80367
O 11.5798 13.1098 -3.70556
H 11.482 14.1045 -3.73794
H 12.3741 12.8351 -4.24748
O -3.69178 11.1974 12.427
H -3.05738 11.3803 13.1781
H -4.60352 11.0186 12.7968
O -1.83954 7.46885 -12.743
H -2.48825 6.90264 -13.2516
H -2.24802 8.36366 -12.5628
O 8.178 -4.93356 -12.4048
H 8.86826 -4.32998 -12.8039
H 7.29227 -4.75669 -12.834
O 9.37667 12.1483 -5.13107
H 10.2424 12.619 -4.96123
H 8.628 12.669 -4.72079
O 2.50851 8.49319 -6.60392
H 3.21827 8.8486 -7.21215
H 2.81755 8.56157 -5.65531
O 14.3166 11.8102 5.14495
H 13.4264 12.2021 5.37715
H 14.2623 10.8124 5.18531
O -8.40775 -14.7344 -10.7587
H -8.29793 14.1681 -11.0755
H -8.29297 -14.108 -11.5298
O 13.4583 1.25819 -7.27849
H 13.5487 1.52246 -8.23871
H 13.4029 0.26201 -7.21074
O 2.48116 13.4755 -0.0659886
H 2.82568 13.9417 0.748911
H 1.49131 13.6029 -0.129381
O -1.55624 9.81316 -4.16454
H -1.08875 10.4082 -3.51072
H -1.34339 8.85824 -3.95754
O 1.98095 -2.93954 -1.81243
H 1.1208 -3.14016 -2.28139
H 2.7473 -3.12819 -2.42656
O -14.8555 -3.4076 -11.1907
H -14.654 -3.79114 -10.2894
H -14.1925 -3.75211 -11.8554
O 0.630305 2.01782 -7.876
H 0.0186073 1.24856 -7.69132
H 1.54757 1.80213 -7.54113
O 14.7308 -3.90736 -2.89159
H -14.768 -3.16738 -2.31468
H -14.7115 -4.77458 -2.59826
O -0.920526 -11.5471 -10.3301
H -1.86538 -11.8618 -10.2393
H -0.739825 -10.8348 -9.65195
O -11.8489 -4.04315 -12.7633
H -12.65 -4.63157 -12.8735
H -11.8591 -3.33133 -13.4656
O 9.73826 -6.38574 7.90188
H 10.7372 -6.41606 7.93575
H 9.37875 -7.3162 7.83104
O 13.5302 -7.81435 -13.9137
H 12.7656 -7.74199 -13.2732
H 13.9526 -8.71671 -13.8279
O 3.43311 0.414146 -6.67354
H 3.49 -0.580053 -6.58206
H 4.20033 0.742634 -7.22444
O 5.7708 -3.46562 1.25578
H 6.01725 -3.63654 0.301799
H 5.24445 -2.61756 1.31727
O -12.5342 7.21032 -11.722
H -12.6944 7.15041 -12.7073
H -11.6569 6.78455 -11.5004
O -9.66258 -10.8461 -1.91489
H -9.52259 -10.5227 -2.85076
H -8.9704 -10.4433 -1.31599
O 6.42246 -11.2817 13.6129
H 6.64799 -11.1534 12.6471
H 6.95683 -10.6439 14.1675
O 14.1636 14.6735 -9.47585
H 13.623 -14.8543 -8.69649
H 13.5531 14.3061 -10.1776
O -11.7247 -3.70774 -6.95281
H -11.8276 -3.91595 -7.92549
H -11.1812 -4.42361 -6.51438
O 8.90617 1.86073 -4.68648
H 8.08369 2.31159 -5.03331
H 9.03553 2.09805 -3.72368
O 9.27165 -4.14538 12.7369
H 9.91694 -4.90241 12.8396
H 8.62507 -4.35571 12.0036
O -12.6776 1.40822 0.502493
H -11.7489 1.77685 0.542182
H -13.1745 1.6666 1.33099
O 3.2236 -14.6492 9.28143
H 2.28635 -14.8685 9.01031
H 3.23082 -14.3329 10.2301
O 14.1788 5.6912 -13.046
H 13.2081 5.8147 -12.8398
H 14.716 6.3629 -12.5359
O -5.57718 -7.26136 2.20328
H -5.13191 -6.82923 2.98751
H -4.93037 -7.87343 1.74825
O 6.51279 -10.6834 -4.4105
H 5.7098 -10.7793 -3.82225
H 6.21975 -10.468 -5.34203
O 7.47131 -14.4755 9.03193
H 7.0835 -14.8254 9.88472
H 8.15267 14.7239 8.68623
O 12.7555 2.61202 0.420305
H 11.9306 2.44601 0.960677
H 12.788 1.96867 -0.344607
O 0.765521 13.8234 -14.1474
H 1.27 14.6799 -14.0384
H -0.0851182 13.8686 -13.6236
O 10.5356 -10.9407 -6.28686
H 11.4349 -11.1914 -5.92865
H 10.5725 -10.0145 -6.66193
O 13.9925 -10.8397 13.7936
H 14.2096 -10.4984 14.7081
H 13.2121 -11.4628 13.8469
O -5.40698 3.92666 -8.91102
H -5.24783 4.82081 -9.32958
H -6.37432 3.68713 -8.99417
O -8.06373 -4.39358 -1.78256
H -8.88444 -4.78665 -2.19726
H -8.30616 -3.55607 -1.29283
O -10.5163 -14.3131 2.44233
H -10.4967 -14.3454 1.44302
H -9.79573 -14.9016 2.80906
O -12.5213 1.87634 4.76326
H -11.8066 1.24238 4.46775
H -12.1325 2.79177 4.86762
O -0.824813 -0.866692 10.1961
H -1.71221 -0.425414 10.3296
H -0.38977 -0.4985 9.37436
O 12.5982 0.460716 9.92808
H 12.2643 1.40316 9.90956
H 13.4214 0.387604 9.36496
O -3.3727 -13.6409 -4.78018
H -3.56694 -12.9162 -5.44126
H -4.06229 -13.6252 -4.05613
O -5.68908 13.411 4.76042
H -5.81214 14.0638 5.50788
H -4.71252 13.2581 4.60878
O -6.32693 14.6504 7.24413
H -5.87255 14.0308 7.88416
H -7.31014 14.6559 7.42667
O -7.52068 -5.77655 10.5373
H -8.27456 -5.17235 10.2791
H -7.62343 -6.04747 11.4944
O 12.9588 5.99874 11.9793
H 12.9431 6.93129 12.3401
H 12.7902 6.01966 10.9939
O -5.26612 7.54253 -14.7534
H -5.84358 7.94167 14.379
H -5.72661 7.61925 -13.869
O 11.1125 -10.1726 -3.56774
H 11.8547 -9.50278 -3.59178
H 10.2364 -9.69667 -3.49032
O -0.234991 9.95485 8.71479
H -1.10509 9.57931 9.03407
H 0.132875 9.37326 7.98921
O -6.08675 -12.4151 6.54296
H -5.88547 -13.2644 7.03103
H -5.31136 -12.1744 5.95915
O 2.34563 2.73593 -12.0352
H 2.8734 3.29475 -12.6749
H 2.97034 2.20611 -11.4616
O -12.5419 6.7211 -1.19741
H -13.2572 6.98341 -1.84509
H -12.7199 5.79648 -0.860623
O -9.027 -12.4975 -8.66166
H -9.40925 -12.9973 -9.43892
H -8.82428 -13.1378 -7.92077
O -4.02137 -7.57919 12.1374
H -4.46808 -8.29893 11.6059
H -4.64783 -7.24845 12.8432
O -0.732985 10.456 2.66419
H 0.169707 10.8473 2.84336
H -0.937398 9.76031 3.35287
O 4.33546 10.0845 -12.4751
H 3.88861 10.9779 -12.5212
H 3.74937 9.4439 -11.9789
O -9.22372 11.298 7.48285
H -9.56601 10.5186 6.95795
H -9.12494 11.0357 8.44281
O -11.056 -14.279 6.63234
H -11.4768 -13.5139 7.11974
H -11.4763 -14.3708 5.72963
O -11.9886 -1.79482 -14.2185
H -12.6836 -1.97786 -14.9138
H -12.2016 -0.936082 -13.7523
O -6.86613 -4.05719 -4.39379
H -7.33952 -4.36801 -3.56957
H -7.53134 -3.67915 -5.0377
O 6.67963 -12.5435 -10.2017
H 7.49851 -12.5255 -9.62802
H 6.87219 -13.051 -11.0416
O 8.84114 6.83221 5.91385
H 7.86315 7.03597 5.86854
H 9.03368 6.00355 5.38822
O 4.01271 -7.26178 -9.17179
H 4.92392 -7.67132 -9.12709
H 3.78695 -7.05405 -10.1236
O 2.55387 -12.7425 -7.06503
H 3.55018 -12.6564 -7.0652
H 2.16855 -12.1533 -6.35481
O 14.7467 3.09542 -14.3824
H -14.3839 3.29099 -13.7101
H 14.6833 2.10743 -14.5235
O 5.69444 -0.405894 -11.4712
H 5.05851 -1.10897 -11.1529
H 5.73748 -0.422973 -12.4701
O 2.34339 5.32845 6.11046
H 2.5669 6.2503 6.42712
H 1.50639 5.01557 6.55945
O 13.7634 -9.48437 8.47638
H 13.5801 -10.1274 7.7328
H 13.7441 -9.97069 9.34997
O -12.4796 -14.3834 4.21374
H -11.915 -14.1055 3.43658
H -13.4458 -14.2806 3.97743
O 3.61178 1.89041 -9.75065
H 3.16094 0.999287 -9.69888
H 3.11753 2.54758 -9.18153
O 2.19173 -10.8116 -2.05689
H 1.66437 -11.5472 -1.63174
H 1.76054 -9.93229 -1.85435
O -12.8126 -2.99605 7.03385
H -12.857 -3.76798 7.66804
H -13.0472 -3.30734 6.11293
O -14.6103 4.7637 -2.41779
H -14.0567 4.5125 -1.62381
H 14.2709 4.80406 -2.15298
O -12.2294 2.90173 -12.6704
H -12.6538 3.61063 -12.107
H -12.6414 2.01573 -12.4575
O -2.6958 -10.046 -12.8833
H -3.58809 -9.61617 -13.0217
H -2.32134 -9.76009 -12.0012
O -13.39 1.75308 12.2917
H -14.2602 1.80917 12.7812
H -12.9238 2.63659 12.3382
O 6.20236 2.33712 -11.5506
H 6.14598 1.33882 -11.5346
H 5.30881 2.72512 -11.3247
O -8.42946 -2.89489 6.95562
H -9.12413 -2.21616 6.71733
H -8.4962 -3.11241 7.92941
O 6.29974 13.0204 7.10172
H 6.41714 12.9825 6.10934
H 5.77503 13.8364 7.34435
O -10.368 0.774984 -6.85904
H -11.3066 0.44018 -6.77559
H -10.3804 1.74179 -7.1143
O -0.529201 9.58002 13.7743
H -0.94044 10.4092 14.153
H 0.0439122 9.14505 14.4688
O -4.94651 -5.5615 -7.23603
H -4.19996 -6.22512 -7.28412
H -4.59548 -4.68894 -6.89627
O 6.56265 10.0298 7.05469
H 7.23252 9.86362 7.77835
H 6.10445 10.9034 7.21888
O 4.61803 13.5008 -11.3375
H 4.7492 14.1645 -10.601
H 3.91779 12.8392 -11.0692
O 1.23986 -11.1537 10.7517
H 1.11801 -10.1628 10.6937
H 1.81418 -11.4638 9.99407
O 14.1926 -0.034516 1.09174
H 14.4717 0.824956 1.52006
H 14.4049 -0.00449919 0.114976
O 7.13678 -8.04979 -12.2185
H 7.63225 -8.76196 -11.7211
H 7.76305 -7.30346 -12.4439
O 5.77404 -6.33643 11.4208
H 5.66074 -5.37294 11.1781
H 6.15169 -6.40541 12.3442
O 10.136 -6.1502 -10.9654
H 9.45084 -5.58907 -11.4299
H 9.88301 -6.25723 -10.0038
O 7.0547 -0.805528 11.6888
H 7.58988 -0.543945 10.8855
H 6.71837 -1.74042 11.5752
O -4.59858 -11.7902 0.998916
H -5.24449 -11.4614 1.68793
H -3.91696 -12.378 1.43464
O 14.0319 -5.95392 14.0472
H 14.2408 -5.068 14.4613
H 13.7705 -6.60265 14.7619
O 2.53863 6.38895 12.0214
H 3.39442 5.88446 12.1362
H 2.53224 6.83535 11.1266
O -0.873933 -7.75258 -10.6568
H -0.166093 -7.97357 -11.3277
H -1.15884 -6.80119 -10.7739
O -11.6042 -1.00045 -0.430908
H -11.5114 -0.823669 -1.41079
H -11.8811 -0.159839 0.0346813
O -6.55643 12.4974 -14.7898
H -6.26288 12.0421 14.2144
H -5.82156 13.0882 -14.4566
O -5.40739 -13.387 -11.6584
H -6.40624 -13.3404 -11.6711
H -5.04317 -12.5983 -11.163
O -0.992225 2.70429 4.12715
H -0.52171 1.90024 4.49069
H -0.361974 3.48054 4.11141
O -11.2775 4.73917 1.66888
H -10.6713 3.9456 1.72254
H -11.8785 4.64646 0.875022
O 9.22955 -5.24617 5.24828
H 9.29094 -5.61308 6.17653
H 10.0294 -5.53504 4.72212
O -0.86324 5.56699 10.6152
H -0.477247 6.42927 10.9431
H -1.86005 5.59866 10.6887
O 0.298993 2.0002 7.27733
H -0.640667 1.67912 7.15908
H 0.296853 2.98857 7.42946
O 8.07182 1.25417 -0.443301
H 7.93706 0.548319 0.252146
H 7.40833 1.12667 -1.18057
O -14.0408 -10.8629 5.79153
H -13.4128 -10.8551 5.01338
H -14.0245 -9.97028 6.24203
O 12.7173 -1.87104 12.1784
H 13.2682 -2.70433 12.1318
H 12.7965 -1.37042 11.3163
O 8.94351 -14.8339 -8.45433
H 8.65378 14.1743 -8.91946
H 8.42652 -14.7287 -7.60481
O 2.28275 8.37654 9.77742
H 3.27939 8.30496 9.73718
H 1.9598 8.95694 9.02984
O 5.09927 7.98887 9.19067
H 5.5158 7.08639 9.0808
H 5.5999 8.50463 9.88594
O 4.46186 13.4601 -2.3224
H 3.87032 13.8671 -1.62634
H 4.38797 12.4637 -2.28147
O -4.83306 -2.3023 11.8983
H -4.1083 -2.97823 12.032
H -5.66331 -2.60709 12.365
O 11.7888 -12.3672 13.9019
H 11.0363 -12.4721 13.2517
H 11.4188 -12.244 14.8228
O -11.1864 3.08007 -4.2066
H -10.7292 3.89419 -3.84848
H -11.6779 3.31548 -5.04504
O -11.899 -13.0944 -11.8916
H -11.5652 -14.0075 -12.1257
H -12.4498 -13.1442 -11.0585
O 9.60563 14.2666 -12.0196
H 8.82977 13.9801 -11.4574
H 9.31432 14.3488 -12.9727
O 14.2272 -9.79988 -6.4442
H 13.9325 -10.751 -6.35205
H 13.5755 -9.30301 -7.01723
O -3.84149 0.303042 -6.98502
H -4.82896 0.249151 -7.13344
H -3.50359 1.187 -7.30825
O 1.74961 -8.08345 -2.6482
H 2.41191 -8.02539 -3.39521
H 0.822501 -8.06664 -3.02266
O 7.2612 -12.8549 4.30575
H 7.49936 -11.9279 4.59565
H 6.2897 -13.0185 4.47735
O 6.84485 -10.3077 6.50672
H 6.61843 -9.48529 7.0286
H 7.23352 -10.9953 7.12013
O 6.57404 3.02958 1.50203
H 5.68959 2.5879 1.65273
H 7.00098 2.64937 0.681539
O -13.5276 11.5129 0.702091
H -12.6421 11.9739 0.643071
H -13.4007 10.5295 0.572344
O -4.38879 0.921193 14.1993
H -3.61539 1.46246 13.8693
H -4.53853 1.111 -14.675
O 5.60971 0.0528381 4.00892
H 5.42095 0.703732 3.27356
H 6.48814 0.274054 4.43253
O -9.00992 14.4967 7.88507
H -9.45085 13.7023 8.3029
H -9.64107 -14.9174 7.23984
O -10.7631 -8.79213 0.612234
H -10.9662 -8.18679 1.38189
H -9.92665 -9.30561 0.803681
O 1.46817 13.7238 -3.24423
H 1.0881 13.163 -3.97982
H 2.42794 13.4815 -3.10226
O 7.13773 -10.7433 11.071
H 7.36098 -11.0714 10.1531
H 7.53592 -9.83605 11.2066
O -13.3014 -13.766 -9.23782
H -13.7391 -12.9364 -8.89107
H -13.993 -14.4751 -9.37548
O -3.13536 -14.5509 -10.4273
H -3.84775 -13.9628 -10.8103
H -3.52705 14.4032 -10.1959
O -7.45619 -14.8038 -3.97976
H -7.58451 14.1265 -4.36394
H -8.04263 -14.6942 -3.1772
O 5.05276 -7.43064 -2.26304
H 5.80823 -7.89028 -1.7961
H 4.22549 -7.4986 -1.70532
O 7.23945 2.41887 6.89277
H 7.37084 2.69186 5.93975
H 6.46642 1.78754 6.95512
O 1.29261 -1.94267 6.64521
H 1.25736 -1.15605 7.26167
H 1.34556 -2.78473 7.18202
O -3.89568 -6.28926 -12.6268
H -3.13193 -6.47268 -13.2458
H -4.581 -7.01155 -12.7199
O 11.5739 -2.80688 -7.96686
H 11.5473 -3.48961 -7.23665
H 12.1739 -2.05363 -7.69713
O -10.9328 -7.99326 -2.42532
H -10.7337 -8.20227 -1.46788
H -10.8405 -8.82416 -2.97406
O -4.7374 -8.677 -10.5571
H -3.87558 -8.37934 -10.1464
H -5.45803 -8.02129 -10.3318
O -4.2111 14.0583 -2.01544
H -4.17548 13.8409 -1.03999
H -4.82503 13.4182 -2.47741
O -11.8984 7.60532 -8.01464
H -12.8838 7.64814 -7.84995
H -11.4243 8.18547 -7.35233
O -12.2404 7.25503 6.87024
H -12.3986 6.71533 7.69713
H -12.8584 6.94599 6.14725
O 14.1306 8.48919 -14.2966
H 13.5853 8.4595 -13.4588
H -14.9058 7.91026 -14.1889
O 5.12387 9.55305 2.4788
H 4.53724 10.0651 3.10627
H 5.53735 10.1823 1.82066
O 13.0492 -11.3479 6.04427
H 13.9472 -11.0108 5.76145
H 12.4269 -11.3356 5.26157
O -4.29848 -8.70802 -4.43343
H -4.38373 -9.23138 -3.58558
H -4.98374 -7.9798 -4.44596
O 3.86916 -2.42329 -5.95115
H 4.4072 -3.08702 -6.47076
H 3.96859 -2.60621 -4.97304
O -9.33905 10.2886 9.8537
H -10.1123 9.74294 10.1768
H -8.51256 9.72563 9.84931
O -8.443 -13.7069 10.096
H -8.63683 -14.4333 9.43659
H -9.27232 -13.4967 10.6138
O -13.687 -10.8109 -8.39565
H -12.7624 -10.4375 -8.31952
H -14.2337 -10.5091 -7.61454
O -0.521907 -9.29791 -8.44408
H -0.683748 -8.58229 -9.12359
H 0.450786 -9.32473 -8.21346
O 10.6092 -3.08528 9.75092
H 10.2799 -2.25029 10.1918
H 9.92605 -3.80827 9.85376
O 0.991145 -6.42575 -14.7978
H 0.568523 -5.87097 14.3301
H 1.58737 -7.11157 14.6294
O -7.50232 -8.2257 -7.66333
H -7.21438 -9.14698 -7.92483
H -7.15303 -7.56588 -8.32866
O 11.47 3.17176 13.0551
H 11.3742 4.00859 13.5942
H 10.6384 3.02294 12.52
O 6.27266 6.58936 14.6633
H 7.17307 6.40758 -14.786
H 6.04389 7.55519 14.7853
O -14.6084 -6.98927 0.922014
H 14.9101 -7.8539 0.539849
H 14.5823 -6.26315 0.709565
O 5.121 -13.8239 7.86252
H 4.3603 -14.0487 8.4715
H 5.98541 -14.0512 8.31107
O 2.26429 12.107 -10.8169
H 2.15867 12.036 -11.8088
H 1.39666 12.3911 -10.4088
O 10.2419 1.18629 3.58361
H 11.2084 1.21333 3.83876
H 9.68269 1.08389 4.40632
O 2.88679 -3.73999 5.09304
H 2.46505 -2.9081 5.45378
H 2.40919 -4.54016 5.45591
O -10.659 -0.208778 4.10094
H -9.82614 0.287202 3.85515
H -10.5622 -0.587225 5.0215
O 11.8646 -14.6928 -1.21169
H 11.1091 -14.4546 -1.82208
H 11.759 14.2063 -0.903894
O -3.79681 -2.02521 14.6913
H -3.59079 -1.81242 -14.1982
H -3.81636 -1.17941 14.1581
O 2.19045 -3.37573 12.332
H 3.17557 -3.48878 12.4616
H 1.97155 -2.40171 12.2736
O 6.94622 12.6139 -12.7037
H 7.29983 11.7544 -12.3346
H 6.31276 13.0232 -12.047
O -6.92772 -14.0606 0.532211
H -7.44158 -14.6802 -0.0612335
H -7.54038 -13.3545 0.887197
O 8.93673 -12.1705 -8.38893
H 9.56587 -11.7976 -7.7069
H 9.0479 -13.1631 -8.4375
O 9.85004 -10.411 0.608344
H 10.6928 -10.0846 0.180373
H 9.08931 -10.3084 -0.0325977
O -14.7245 5.21676 13.7851
H 14.2866 5.40479 13.2657
H -14.8834 4.44674 14.4031
O 3.65299 -2.19835 -10.7533
H 2.94336 -1.58003 -10.4154
H 3.33215 -2.65107 -11.5852
O 0.318933 -1.52328 0.115062
H 0.965738 -1.77577 -0.604609
H 0.634805 -1.88918 0.990493
O 9.70331 -14.0834 -2.76274
H 8.90955 -14.5937 -2.4317
H 9.45048 -13.5682 -3.58169
O -6.12368 14.4623 11.4094
H -6.70735 -14.6532 11.0519
H -6.68604 13.6685 11.6409
O -5.05411 2.81222 -3.99244
H -4.23128 3.20162 -3.5785
H -5.1713 1.87005 -3.67841
O -1.77182 -4.46364 1.7006
H -1.41906 -4.28807 0.781486
H -1.2409 -3.94016 2.36703
O -14.6882 -1.40789 -4.11187
H 14.2171 -1.06608 -4.14106
H -14.6961 -2.38758 -3.91141
O 10.0922 7.22623 8.52375
H 9.81667 7.11794 7.56857
H 9.97173 8.17994 8.79935
O -4.91119 14.2839 1.68718
H -5.30685 -14.8173 1.14796
H -5.56858 13.9885 2.38043
O -6.63988 -1.06438 -7.92369
H -6.28346 -1.72543 -8.584
H -6.9071 -0.227318 -8.40113
O -2.29258 -5.57496 6.23473
H -1.91066 -4.75576 6.66262
H -2.38443 -6.29714 6.92035
O -5.74528 -13.4155 -8.06311
H -5.19572 -14.1788 -7.7232
H -6.1567 -13.6654 -8.93966
O -14.7066 8.02745 -7.19987
H -14.7412 8.94736 -6.80922
H -14.67 7.35323 -6.46223
O 11.7808 7.73326 -7.92166
H 12.75 7.5676 -7.73963
H 11.4962 7.20294 -8.72031
O 4.72812 1.51231 8.38671
H 4.71221 0.686585 8.95059
H 4.6813 2.31911 8.97571
O -11.3947 12.6682 8.38294
H -12.2541 12.6524 7.87179
H -10.7183 12.099 7.91541
O -13.3396 -7.76679 5.76744
H -13.6947 -7.18899 5.03249
H -13.3272 -7.24839 6.62251
O -0.371396 -0.0865221 5.26745
H 0.224993 -0.8204 5.59269
H -1.03264 0.146362 5.98058
O -9.72897 10.4895 14.811
H -8.94517 11.087 14.6418
H -10.335 10.9167 -14.3626
O 2.99367 6.17891 3.12254
H 3.13127 5.64246 2.28988
H 3.5645 5.80894 3.85555
O -7.70641 4.99042 14.8758
H -8.43593 5.08201 14.198
H -6.86308 4.7038 14.4212
O -7.71124 11.8621 1.10696
H -6.77345 11.7998 0.765371
H -7.74061 11.555 2.05821
O 3.77233 12.4465 8.97697
H 3.36164 11.93 8.2256
H 3.54307 13.4151 8.88005
O 5.94241 -4.43241 -13.7971
H 6.29942 -3.83303 -14.5136
H 4.97613 -4.62171 -13.9718
O 14.7749 -8.87266 -1.21501
H -14.8479 -9.84666 -1.26155
H 14.152 -8.63663 -1.96088
O 4.50004 11.9833 11.5428
H 3.6351 11.8278 12.02
H 4.31648 12.2191 10.5885
O 10.3124 -1.85336 13.4637
H 9.86557 -2.69579 13.1625
H 11.2629 -1.85077 13.1529
O 3.61639 -1.22966 0.359081
H 3.16854 -1.76843 -0.354495
H 3.4819 -1.67297 1.24532
O -3.82715 3.34768 -1.04906
H -3.67428 2.6031 -1.69888
H -3.34938 3.14701 -0.193783
O -11.5571 -13.4635 14.8414
H -11.3677 -14.2516 -14.4175
H -11.5543 -13.7517 13.8838
O -9.34628 -1.02717 -8.62252
H -8.96392 -1.66843 -7.95722
H -9.87155 -0.323745 -8.14364
O -5.54473 -6.61661 14.1114
H -6.41601 -6.12639 14.1359
H -4.79647 -5.97512 14.2806
O 2.05298 -10.2072 6.2125
H 2.19277 -9.98246 5.24814
H 1.07799 -10.1558 6.4288
O -4.88967 13.4124 9.31043
H -5.2853 13.7975 10.1442
H -4.28447 12.6528 9.54869
O -0.476457 -7.04937 4.55192
H -1.32699 -6.60032 4.82576
H 0.24982 -6.80873 5.19585
O 8.5442 6.37482 -4.97731
H 8.62937 6.90931 -4.13642
H 9.34753 5.78862 -5.08248
O 5.34023 6.41509 -12.4476
H 5.89714 6.5501 -13.2671
H 5.73342 6.93361 -11.6883
O 9.5623 3.64457 8.39021
H 9.28379 4.33421 9.05869
H 8.75251 3.17419 8.03946
O -2.22067 0.332842 -4.51178
H -2.93013 0.272782 -5.21399
H -1.38627 -0.108196 -4.84239
O -6.71519 -1.37135 -14.0853
H -6.66258 -1.20948 14.7739
H -5.79124 -1.44181 -13.7093
O -7.34215 -13.4085 4.10407
H -7.45637 -14.4006 4.05125
H -7.28165 -13.1306 5.06276
O 1.07864 -5.61956 10.6812
H 1.68851 -5.08776 11.2688
H 0.292596 -5.05838 10.4219
O 3.70781 4.25372 -13.7922
H 4.01609 3.54341 -14.4251
H 4.42635 4.94125 -13.6872
O 12.379 7.60608 -11.9989
H 11.8357 7.11784 -11.3159
H 13.2079 7.96577 -11.5704
O 13.8724 10.4964 -1.25093
H 14.2196 11.4141 -1.44445
H 14.1339 10.2299 -0.323214
O -8.58094 1.66144 11.2651
H -9.54317 1.41823 11.3876
H -8.06339 0.849038 10.9964
O -8.03234 -1.40355 11.0333
H -7.65051 -0.969673 11.8494
H -7.45008 -2.16906 10.7594
O -13.8558 -6.13326 -12.9417
H -14.4814 -6.50535 -13.6275
H -13.4362 -6.8838 -12.4311
O 10.3104 10.4437 -10.0336
H 10.3368 10.4863 -9.03481
H 11.2302 10.2672 -10.3841
O -7.0725 10.9573 -12.5273
H -7.68325 11.5097 -11.96
H -6.8075 11.4794 -13.338
O -9.92976 5.36793 13.2732
H -10.1031 6.34271 13.1325
H -10.7837 4.85863 13.1659
O 12.2567 -7.25625 7.78061
H 13.029 -7.85417 7.99531
H 11.7247 -7.65432 7.03327
O 12.5068 9.37867 -3.25087
H 12.9564 9.78921 -2.45755
H 12.7155 8.40122 -3.28349
O 1.9424 -0.368878 -9.55579
H 1.06394 0.00395707 -9.85468
H 1.83119 -0.811654 -8.66606
O -10.3384 -6.3123 2.48276
H -11.028 -6.19468 1.76816
H -9.4778 -5.89781 2.18691
O -12.3415 9.22145 14.4712
H -11.4545 9.57775 14.1775
H -12.9911 9.97652 14.5602
O 8.2214 -0.438101 1.8206
H 8.79033 -1.04716 1.26797
H 8.69055 -0.231707 2.67928
O 1.00642 5.4166 0.217448
H 0.506541 4.88081 -0.463057
H 1.87684 4.96825 0.420891
O -14.6241 -2.75468 1.98136
H 14.7697 -1.94698 1.60138
H -13.6523 -2.56129 2.11667
O 12.9912 -11.8795 -11.6955
H 13.3933 -12.6261 -12.2255
H 13.7153 -11.3823 -11.2176
O -5.07495 9.77408 9.19211
H -5.85996 9.19725 8.96612
H -5.22104 10.2011 10.0845
O -7.11675 0.61782 -2.41077
H -6.1305 0.648259 -2.57335
H -7.56503 0.143782 -3.16864
O -5.68277 6.63957 7.86789
H -5.97066 5.86568 7.30374
H -4.68615 6.7179 7.8427
O -1.54512 -2.88306 -8.83852
H -1.00939 -3.66225 -8.51308
H -2.42484 -2.86171 -8.36346
O 0.189875 5.28412 3.30677
H 1.02608 5.36866 3.84867
H 0.426006 5.22172 2.33703
O 12.8408 5.17055 -0.933783
H 13.0204 4.35671 -0.38111
H 12.153 5.73681 -0.479579
O -0.682509 0.612656 -10.7843
H -0.963195 1.45416 -10.3226
H -0.766062 0.731485 -11.7737
O 7.9298 -5.81101 -1.85987
H 7.94328 -6.23223 -2.76675
H 7.80591 -6.5195 -1.16508
O 12.4113 -1.44942 4.53656
H 11.4665 -1.43621 4.86407
H 12.9688 -0.841867 5.10239
O -2.58176 4.06856 13.8438
H -2.10503 4.80467 13.3632
H -1.91322 3.47703 14.2945
O 11.2975 3.54603 -9.44387
H 10.6837 2.79684 -9.69297
H 12.2304 3.31988 -9.72416
O 4.2664 3.49177 10.392
H 3.39186 3.15706 10.743
H 4.70077 4.0737 11.0795
O -1.61262 12.1091 -8.80652
H -1.54094 11.2414 -8.31471
H -1.24076 12.8448 -8.24038
O -8.39808 -10.3279 10.3773
H -7.43853 -10.2334 10.6426
H -8.45457 -10.5461 9.40301
O -10.6175 -13.9902 12.0653
H -10.181 -14.768 12.5176
H -11.0048 -14.2868 11.1923
O -1.30504 -10.3151 4.01286
H -0.705238 -9.77354 4.60195
H -0.78352 -10.6586 3.2318
O 4.45426 -11.204 -11.0531
H 3.73353 -11.7572 -10.6354
H 5.34673 -11.5242 -10.7353
O 14.8385 0.475354 14.789
H 13.8935 0.33751 14.4925
H -14.4005 -0.117991 14.2587
O -0.851315 7.75605 4.33139
H -0.691678 6.95716 3.75145
H -1.68654 7.61965 4.86414
O 9.73644 13.7162 4.84674
H 8.84615 13.7691 5.29909
H 10.0428 12.7645 4.82423
O -4.8762 -13.2232 12.872
H -4.84586 -12.788 11.9721
H -5.16457 -14.1755 12.7721
O 9.3965 14.6562 11.3748
H 9.46639 -14.217 11.6013
H 10.1477 14.1581 11.808
O 1.35256 -12.14 -11.4703
H 0.398587 -12.1374 -11.1703
H 1.66907 -11.1981 -11.5829
O 4.75773 -0.592432 6.37201
H 5.16968 -0.582028 5.46084
H 4.07027 0.131059 6.43528
O 4.38618 10.8354 -2.36792
H 4.14389 10.4638 -1.4717
H 5.36152 10.6919 -2.53567
O -5.91666 -12.438 10.3577
H -6.88436 -12.6285 10.1925
H -5.38677 -12.6734 9.54296
O -13.1794 -10.0688 0.472499
H -13.6795 -9.20636 0.393727
H -12.2456 -9.9445 0.136863
O 3.67028 11.9701 -6.98222
H 3.21833 12.8501 -7.12882
H 3.47888 11.3644 -7.75452
O -5.93701 -11.0372 13.9323
H -5.65715 -11.9522 13.6419
H -6.24461 -10.5146 13.1371
O 7.64248 -6.56024 -4.96439
H 8.1784 -5.96089 -5.55903
H 6.67015 -6.45298 -5.17204
O -0.0438763 -3.69147 -13.3142
H -0.370274 -3.15277 -14.0909
H -0.27886 -3.22389 -12.462
O -10.831 11.419 -12.136
H -10.0052 11.6101 -11.6054
H -11.2376 10.5609 -11.8224
O -12.9863 13.5472 13.4336
H -13.132 12.6625 12.9908
H -13.7773 14.1366 13.269
O 14.5637 -10.0212 -10.5133
H 14.398 -9.06119 -10.2876
H -14.6291 -10.4091 -9.86165
O -5.31533 -13.1868 -3.05695
H -4.97073 -13.6956 -2.26803
H -6.08528 -13.6803 -3.46146
O -4.5087 5.06778 -11.4208
H -5.15263 5.80914 -11.2317
H -4.31938 5.03298 -12.4021
O -11.7523 -7.8088 -11.4614
H -11.4733 -8.7521 -11.6414
H -11.0913 -7.1814 -11.8731
O -8.14696 8.27344 4.26656
H -7.55956 8.53074 5.03389
H -9.10296 8.28624 4.55969
O 10.9393 -8.62607 5.25325
H 11.4785 -7.84029 4.95017
H 10.3378 -8.92351 4.51178
O 13.8324 -7.2067 -10.5043
H 13.041 -7.2773 -9.89702
H 13.7747 -6.35771 -11.0296
O -5.62967 2.1216 10.55
H -6.62243 2.16622 10.4382
H -5.37104 1.21068 10.8715
O 7.78959 -14.5486 14.3942
H 8.51876 14.6606 14.6481
H 7.11223 -14.5078 -14.7159
O -14.2356 2.25076 2.55876
H -13.9812 2.27414 3.52558
H -14.6416 3.12718 2.29963
O 3.41256 -9.55474 -12.7519
H 3.8818 -10.0792 -12.0414
H 3.51284 -10.0205 -13.6311
O -5.82176 -2.95366 -9.75353
H -5.45101 -3.2102 -10.6462
H -6.80744 -3.12191 -9.74115
O 1.59066 4.45729 -5.13696
H 2.31519 4.79723 -5.73657
H 0.721576 4.88221 -5.39029
O -14.4093 -6.48097 3.58093
H 14.7858 -5.72999 3.70028
H -14.4313 -6.79289 2.63106
O 9.49171 -7.26427 -14.4699
H 10.0149 -7.85437 -13.855
H 9.91744 -6.36014 -14.5065
O -2.30827 -14.8872 10.1749
H -2.63385 14.0134 10.1228
H -1.70762 -14.785 10.9679
O -8.1998 -5.67825 14.5359
H -8.45487 -5.21505 -14.46
H -9.01305 -6.08745 14.1221
O -14.8038 -11.5319 -1.92057
H -14.3627 -12.2386 -2.4737
H 14.0573 -11.7073 -1.87817
O 5.75999 1.58707 -7.72178
H 6.62868 1.1014 -7.81953
H 5.13935 1.311 -8.45568
O -2.53007 3.21913 -10.6334
H -1.64918 3.31255 -11.0974
H -3.15813 3.92282 -10.9657
O -1.37524 -8.45271 -0.500758
H -1.45196 -9.44084 -0.367549
H -1.13323 -8.01728 0.366344
O -12.8148 -11.047 -14.3535
H -12.3127 -10.4408 14.8743
H -12.3045 -11.8988 -14.2349
O -12.805 0.103232 -12.2548
H -13.7072 -0.304962 -12.1152
H -12.2516 -0.0218638 -11.4313
O -0.819402 -3.92817 10.1873
H -1.67411 -4.2189 10.6175
H -0.778765 -2.92915 10.1684
O -0.175439 14.1197 -0.108546
H -0.73892 14.3025 -0.914225
H -0.762882 13.8529 0.655496
O 7.68366 9.7902 4.43264
H 7.27727 8.99982 3.97419
H 7.30439 9.87234 5.35429
O -13.4739 -8.73307 -4.98066
H -13.139 -9.28616 -4.21777
H -14.3442 -9.10404 -5.30451
O -3.75742 -11.0281 4.79113
H -4.4799 -11.0628 4.10059
H -2.90509 -10.7224 4.3667
O 8.67037 -5.12268 -7.08012
H 7.95117 -5.38604 -7.7231
H 8.43892 -4.2439 -6.66275
O 10.9172 0.674397 -12.5676
H 10.1403 1.21427 -12.2435
H 11.6352 1.28775 -12.8967
O -5.16442 12.0781 0.0331779
H -4.39959 11.4377 -0.0367469
H -5.00979 12.6993 0.801435
O 4.33712 -13.3292 14.0976
H 4.58941 -14.2123 14.4933
H 5.16347 -12.7935 13.924
O -10.622 -10.0757 7.35868
H -9.67147 -10.3857 7.38024
H -10.6753 -9.19741 6.88341
O -0.635697 -14.8716 12.2211
H -0.863253 -14.1813 12.9079
H -0.0377023 14.2825 12.6281
O 9.70105 -9.24509 7.48814
H 10.2899 -9.29088 8.29512
H 10.266 -9.24344 6.66297
O -5.69965 8.54886 5.48852
H -5.32965 7.92916 6.18069
H -4.95453 8.89452 4.91812
O -10.3559 9.32857 5.68354
H -10.9766 8.65878 6.09127
H -10.704 9.60309 4.78715
O 13.5141 -10.9875 2.022
H 12.903 -11.3412 2.73014
H 13.8975 -11.7502 1.50115
O 8.93584 7.78414 -7.64922
H 8.72972 7.27754 -6.81201
H 9.89152 7.63431 -7.90273
O -12.5798 -5.97033 7.73349
H -12.6908 -6.02499 8.72582
H -11.6068 -6.00131 7.50477
O -2.26288 -11.7067 8.66266
H -2.76675 -12.5596 8.52615
H -1.85653 -11.7022 9.57639
O -4.11732 -5.59923 3.84855
H -3.93799 -5.78687 4.8143
H -4.33579 -4.63033 3.73223
O -3.73666 -0.624676 9.82943
H -4.15393 -0.861271 8.95196
H -4.22296 -1.09335 10.5669
O -6.24217 6.34201 10.8964
H -6.40959 6.3684 9.91086
H -6.84333 5.66347 11.3186
O -6.49437 -7.06422 -4.97696
H -6.41373 -7.1893 -5.96584
H -6.73425 -6.11365 -4.77968
O -12.013 10.8227 3.52034
H -11.8792 11.6327 4.09129
H -11.5713 10.9629 2.63414
O -0.652569 2.70862 -14.6176
H 0.227764 2.80323 14.7622
H -0.750028 1.77407 -14.2753
O -10.7724 -5.21531 -9.6854
H -10.2853 -6.08288 -9.58478
H -11.4612 -5.30132 -10.4052
O 11.2733 -8.21675 -12.6167
H 10.7679 -7.42769 -12.2674
H 11.5749 -8.78498 -11.851
O -6.51376 7.14967 -6.31711
H -5.98739 6.30836 -6.19396
H -7.48472 6.95969 -6.17158
O 5.74822 -1.41894 8.76505
H 5.32753 -1.02434 7.94813
H 6.6901 -1.09274 8.8456
O 3.93042 -8.22256 9.9561
H 3.75791 -9.02303 10.5301
H 4.21301 -7.45471 10.5311
O 13.9496 -14.9132 7.77748
H 13.9188 -14.6937 6.80234
H 13.4482 -14.2174 8.29175
O 4.11031 9.62068 -9.01898
H 4.67287 8.79729 -8.94422
H 3.39137 9.47264 -9.69812
O -8.2294 -13.9309 -6.63785
H -8.10398 -14.0721 -5.65583
H -7.41346 -13.4961 -7.01897
O -9.20651 -3.80119 9.53066
H -9.75135 -4.34245 8.89017
H -9.79675 -3.45305 10.259
O 2.62041 -8.26407 13.6933
H 3.44578 -8.75054 13.4067
H 2.0172 -8.13826 12.9057
O -11.485 14.1212 -8.99796
H -11.9015 -14.8147 -9.02316
H -11.2508 13.8879 -8.05416
O 4.71226 -13.3021 5.27965
H 5.02625 -13.3863 6.22535
H 3.75934 -13.5989 5.21715
O 8.37083 8.04701 -2.72762
H 8.70423 7.78856 -1.82093
H 8.92349 8.80056 -3.08366
O 5.96423 7.29725 5.9922