LAMMPS data file via write_data, version 15 May 2015, timestep = 12095000

2611 atoms
6 atom types
1749 bonds
4 bond types
894 angles
3 angle types
44 dihedrals
3 dihedral types
10 impropers
1 improper types

-1.5092207356766870e+01 1.5092207356766870e+01 xlo xhi
-1.5092207356766870e+01 1.5092207356766870e+01 ylo yhi
-1.5092207356766870e+01 1.5092207356766870e+01 zlo zhi

Masses

1 15.9994
2 1.00794
3 12.0107
4 1.00794
5 12.0107
6 12.0107

Bond Coeffs # harmonic

1 1000 1
2 469 1.4
3 367 1.08
4 469 0.7

Angle Coeffs # harmonic

1 100 109.47
2 35 120
3 63 120

Dihedral Coeffs # opls

1 0 7.25 0 0
2 0 7.25 0 0
3 0 7.25 0 0

Improper Coeffs # cvff

1 2.5 -1 2

Atoms # full

1426 476 1 -8.1999999999999995e-01 -9.0345802962192057e+00 -9.5124286844830515e+00 -1.2758450716959889e+01 6 -4 -3
1427 476 2 4.0999999999999998e-01 -8.3883586388268974e+00 -1.0246880840998926e+01 -1.2551198609923208e+01 6 -4 -3
787 263 1 -8.1999999999999995e-01 -1.4645360071894105e+01 -9.9984822824869894e+00 -1.4126701582741847e+01 4 -2 4
788 263 2 4.0999999999999998e-01 -1.4292776916814827e+01 -1.0911585350901797e+01 -1.3921997552066848e+01 4 -2 4
1355 452 2 4.0999999999999998e-01 -8.9628817053539578e+00 -7.6034948618752622e+00 -1.1728448692727444e+01 3 -2 -2
716 239 2 4.0999999999999998e-01 -9.3130619654548283e+00 -1.3482102975070866e+01 -1.1753228397619248e+01 -5 -1 1
1401 467 2 4.0999999999999998e-01 -1.1921445412009504e+01 -1.0020942058143280e+01 -1.1459136135725707e+01 2 -5 5
1399 467 1 -8.1999999999999995e-01 -1.1752400521039315e+01 -1.0883631481932984e+01 -1.0982516144514712e+01 2 -5 5
113 38 2 4.0999999999999998e-01 -7.6580260431969407e+00 -1.1673049985268150e+01 -1.1739785849271970e+01 -1 -1 3
717 239 2 4.0999999999999998e-01 -1.0016483564688293e+01 -1.2012613838489639e+01 -1.1642044893862607e+01 -5 -1 1
715 239 1 -8.1999999999999995e-01 -9.1498825311086183e+00 -1.2508963828794222e+01 -1.1590906156594393e+01 -5 -1 1
1219 407 1 -8.1999999999999995e-01 -1.3268582036656237e+01 -1.2734349235980273e+01 -1.4466413427992370e+01 1 -2 0
1157 386 2 4.0999999999999998e-01 -1.3108185831853934e+01 -8.3676448299419892e+00 -9.7177671449003356e+00 1 -5 0
1400 467 2 4.0999999999999998e-01 -1.2619541216666670e+01 -1.1259174294631766e+01 -1.0655391643762147e+01 2 -5 5
168 56 2 4.0999999999999998e-01 -1.1762311876984704e+01 -1.1526464698857461e+01 -1.3983595218075010e+01 2 4 1
2546 849 2 4.0999999999999998e-01 -1.4558726528685876e+01 -1.0501031817386142e+01 -9.9080019701252571e+00 1 -2 0
1766 589 2 4.0999999999999998e-01 -1.4429183988844297e+01 -1.2885741190116914e+01 -1.1097265766102741e+01 3 -1 -3
214 72 1 -8.1999999999999995e-01 -1.2699421165446612e+01 -8.6189711203063677e+00 -1.2633364148893049e+01 5 -2 2
167 56 2 4.0999999999999998e-01 -1.1685658839572607e+01 -1.0034207029316534e+01 -1.3324919731189174e+01 2 4 1
166 56 1 -8.1999999999999995e-01 -1.1157988398541983e+01 -1.0759929236627467e+01 -1.3766357190395558e+01 2 4 1
215 72 2 4.0999999999999998e-01 -1.3651947137988509e+01 -8.6009326102793064e+00 -1.2937246875192166e+01 5 -2 2
1221 407 2 4.0999999999999998e-01 -1.3192030402996039e+01 -1.3553427409091119e+01 -1.3897883188722368e+01 1 -2 0
1765 589 1 -8.1999999999999995e-01 -1.4938531974109315e+01 -1.2062292129700307e+01 -1.0847321557105618e+01 3 -1 -3
1228 410 1 -8.1999999999999995e-01 -1.3209812965900662e+01 -1.4741639392384846e+01 -1.2267345139966183e+01 5 -1 -2
216 72 2 4.0999999999999998e-01 -1.2556881861472078e+01 -7.9113370171695578e+00 -1.1941329212803472e+01 5 -2 2
2545 849 1 -8.1999999999999995e-01 -1.3989883434969569e+01 -9.8609090704670557e+00 -9.3916336378347030e+00 1 -2 0
1428 476 2 4.0999999999999998e-01 -9.8477897023764989e+00 -9.8973068283838508e+00 -1.3194954015206200e+01 6 -4 -3
678 226 2 4.0999999999999998e-01 -9.4368957725505389e+00 -8.2333538452452952e+00 -1.4072087048514444e+01 0 -7 4
1156 386 1 -8.1999999999999995e-01 -1.2598917699864415e+01 -7.6070248399243727e+00 -1.0120357561543875e+01 1 -5 0
676 226 1 -8.1999999999999995e-01 -9.9112600031128331e+00 -7.9597911866422670e+00 -1.4908817520576237e+01 0 -7 4
1230 410 2 4.0999999999999998e-01 -1.2572503781011518e+01 -1.5059503956825546e+01 -1.1565365830113123e+01 5 -1 -2
1305 435 2 4.0999999999999998e-01 -7.4459742959980249e+00 -1.5081278593865498e+01 -1.4273150947991232e+01 4 -1 4
2231 744 2 4.0999999999999998e-01 -6.4372603231008885e+00 -9.3879701152461337e+00 -1.4811157038787139e+01 1 -4 1
336 112 2 4.0999999999999998e-01 -7.0323094624209990e+00 -1.3705845421529721e+01 -1.0126405740496617e+01 4 5 2
1530 510 2 4.0999999999999998e-01 -6.4568437693393381e+00 -8.6210166801542201e+00 -1.1178167416171171e+01 1 0 2
334 112 1 -8.1999999999999995e-01 -6.8967157712054554e+00 -1.3947470060063768e+01 -9.1655687513970960e+00 4 5 2
1529 510 2 4.0999999999999998e-01 -6.0443443141959143e+00 -8.6756898017066213e+00 -1.2757223175596788e+01 1 0 2
112 38 1 -8.1999999999999995e-01 -6.9404789493961463e+00 -1.0977945132360380e+01 -1.1695839599116265e+01 -1 -1 3
2576 859 2 4.0999999999999998e-01 -5.3561663161215289e+00 -1.2618360946238742e+01 -1.1214490615937187e+01 -2 -2 3
2354 785 2 4.0999999999999998e-01 -3.9386731718593939e+00 -1.0277529213201291e+01 -1.0841269704483697e+01 2 -3 5
1528 510 1 -8.1999999999999995e-01 -6.1347560335180731e+00 -8.0828421288911212e+00 -1.1957014950325021e+01 1 0 2
2577 859 2 4.0999999999999998e-01 -4.7983727036594175e+00 -1.4095783465253632e+01 -1.1630003577232610e+01 -2 -2 3
649 217 1 -8.1999999999999995e-01 -5.1998409974651363e+00 -9.9742664297662582e+00 -1.3610190093914811e+01 6 1 0
650 217 2 4.0999999999999998e-01 -4.2004836667106709e+00 -9.9435075241338282e+00 -1.3592451868377326e+01 6 1 0
114 38 2 4.0999999999999998e-01 -6.9949111822179404e+00 -1.0497595264025140e+01 -1.0820467113868935e+01 -1 -1 3
651 217 2 4.0999999999999998e-01 -5.5245417033962063e+00 -1.0645216048669209e+01 -1.2943577836948354e+01 6 1 0
2486 829 2 4.0999999999999998e-01 -2.8296098527671294e+00 -1.1768732479127344e+01 -1.1506564426220681e+01 0 -3 -4
2485 829 1 -8.1999999999999995e-01 -1.9358801601256221e+00 -1.2082335790083075e+01 -1.1827307386768672e+01 0 -3 -4
2487 829 2 4.0999999999999998e-01 -2.0478483311274651e+00 -1.2924021956798782e+01 -1.2355515068102665e+01 0 -3 -4
1297 433 1 -8.1999999999999995e-01 -3.6820372193576034e-01 -1.4804859017613776e+01 -1.3530427233274784e+01 2 -3 2
723 241 2 4.0999999999999998e-01 -2.0161095244436780e+00 -1.0353314338757588e+01 -1.3783908354911604e+01 1 2 1
1106 369 2 4.0999999999999998e-01 -5.7280355200880457e+00 -1.3636689009025529e+01 -1.4811276603650830e+01 -1 -1 1
2353 785 1 -8.1999999999999995e-01 -4.0063280311237932e+00 -1.1221806254584234e+01 -1.0519183463316292e+01 2 -3 5
1097 366 2 4.0999999999999998e-01 -4.4385836863936383e+00 -8.2522034927973404e+00 -1.1634621181281203e+01 2 1 2
2575 859 1 -8.1999999999999995e-01 -5.5973481792585247e+00 -1.3494443150893490e+01 -1.1631967700986705e+01 -2 -2 3
1105 369 1 -8.1999999999999995e-01 -6.0689669345844486e+00 -1.4300042301067315e+01 -1.4145165465027278e+01 -1 -1 1
482 161 2 4.0999999999999998e-01 -1.8374359899497001e+00 -1.1860922548348816e+01 -9.7252594218059318e+00 1 -4 3
1096 366 1 -8.1999999999999995e-01 -3.5582581640475066e+00 -8.5286926324821550e+00 -1.1249190808355355e+01 2 1 2
1107 369 2 4.0999999999999998e-01 -5.6765244776655077e+00 -1.4102221263880546e+01 -1.3246927413781314e+01 -1 -1 1
721 241 1 -8.1999999999999995e-01 -1.7486876051025373e+00 -9.5498960085233122e+00 -1.3251949388383840e+01 1 2 1
722 241 2 4.0999999999999998e-01 -2.0211622472065471e+00 -9.6759133589663371e+00 -1.2298087226154909e+01 1 2 1
412 138 1 -8.1999999999999995e-01 -6.7682369071888377e+00 -9.4692277921779535e+00 -9.4900240024335591e+00 -1 -2 -2
2355 785 2 4.0999999999999998e-01 -4.3402416512825734e+00 -1.1229355381492640e+01 -9.5766228201697672e+00 2 -3 5
2348 783 2 4.0999999999999998e-01 -8.2782145065785429e-01 -1.3867102243311429e+01 -1.4918897696605807e+01 0 1 -1
855 285 2 4.0999999999999998e-01 -1.9875683992847080e+00 -8.1108283675141202e+00 -1.4428158427108661e+01 -1 -3 1
1098 366 2 4.0999999999999998e-01 -3.4278703752531037e+00 -8.0838582895374351e+00 -1.0363133651374408e+01 2 1 2
414 138 2 4.0999999999999998e-01 -7.4892821168713244e+00 -8.7775447235259900e+00 -9.4494756499115589e+00 -1 -2 -2
483 161 2 4.0999999999999998e-01 -4.2387084182627355e-01 -1.2452517268658994e+01 -9.1609799754950139e+00 1 -4 3
335 112 2 4.0999999999999998e-01 -6.6150179198153261e+00 -1.4904658237282449e+01 -9.0991386682485373e+00 4 5 2
329 110 2 4.0999999999999998e-01 -1.1621755571290125e+01 -5.2047942789632096e-01 -1.0825406481488672e+01 2 0 -1
1827 609 2 4.0999999999999998e-01 -1.4363829946938452e+01 -2.8149937981159496e+00 -1.3294463781496514e+01 1 -3 3
540 180 2 4.0999999999999998e-01 -1.2382478975301566e+01 -6.3012689010079193e+00 -1.4878478109329121e+01 2 -3 2
1660 554 1 -8.1999999999999995e-01 -8.8516120773437699e+00 -4.9657560480745566e-01 -1.4618176576962568e+01 6 -5 0
1356 452 2 4.0999999999999998e-01 -1.0292058541636337e+01 -7.2922770106785935e+00 -1.0832349131491743e+01 3 -2 -2
1826 609 2 4.0999999999999998e-01 -1.3725970486185824e+01 -1.4899773361862518e+00 -1.4004413583517833e+01 1 -3 3
538 180 1 -8.1999999999999995e-01 -1.2519477326324420e+01 -5.4094751584385925e+00 -1.4447303895218937e+01 2 -3 2
425 142 2 4.0999999999999998e-01 -1.0196197708052022e+01 -5.4879937826889815e+00 -1.1988181576105800e+01 1 -1 1
1825 609 1 -8.1999999999999995e-01 -1.4025207696810149e+01 -1.8873645664413594e+00 -1.3136936598674067e+01 1 -3 3
1354 452 1 -8.1999999999999995e-01 -9.5174835748792557e+00 -6.8820897184744183e+00 -1.1313759390078616e+01 3 -2 -2
539 180 2 4.0999999999999998e-01 -1.1649079440418747e+01 -5.0780270050096181e+00 -1.4083263408292538e+01 2 -3 2
2382 794 2 4.0999999999999998e-01 -1.3533528585025627e+01 -9.4131461855162080e-01 -9.2740726322823193e+00 1 2 -1
84 28 2 4.0999999999999998e-01 -1.2669447408035682e+01 -3.0462049926312460e+00 -1.0725242535297955e+01 1 -2 0
330 110 2 4.0999999999999998e-01 -1.2675284657421937e+01 -1.4681244194334671e+00 -1.1636952827929791e+01 2 0 -1
82 28 1 -8.1999999999999995e-01 -1.2339503113330135e+01 -3.9862296284933390e+00 -1.0638834891130742e+01 1 -2 0
328 110 1 -8.1999999999999995e-01 -1.2514957869364309e+01 -9.6835754452102130e-01 -1.0785774689721134e+01 2 0 -1
426 142 2 4.0999999999999998e-01 -1.1150786420550025e+01 -4.1631149593408487e+00 -1.1992486323903073e+01 1 -1 1
424 142 1 -8.1999999999999995e-01 -1.0409269710350483e+01 -4.6367304717766267e+00 -1.2467688535731430e+01 1 -1 1
1737 579 2 4.0999999999999998e-01 -7.9728373424725421e+00 -2.5491824495710738e+00 -1.2201052630201374e+01 3 2 4
1736 579 2 4.0999999999999998e-01 -8.6380078859383911e+00 -4.0384477033248078e+00 -1.2279787614604913e+01 3 2 4
240 80 2 4.0999999999999998e-01 -9.2168267232670793e+00 -4.7476448966483744e+00 -1.4086790097451237e+01 -3 -5 2
2481 827 2 4.0999999999999998e-01 -8.3973270435384766e+00 -8.6113517628766800e-01 -1.3084228145502108e+01 -1 -2 3
83 28 2 4.0999999999999998e-01 -1.2995124328413311e+01 -4.5220144753793168e+00 -1.0106790473104148e+01 1 -2 0
2479 827 1 -8.1999999999999995e-01 -7.8849273077347384e+00 -8.4903771280496620e-01 -1.2225580356554929e+01 -1 -2 3
808 270 1 -8.1999999999999995e-01 -7.7175823988866057e+00 -1.5911339415438714e+00 -9.4529423822484340e+00 2 0 0
1547 516 2 4.0999999999999998e-01 -1.4041931031925113e+01 -5.2398031330199224e+00 -1.3762995910447396e+01 1 -2 3
1581 527 2 4.0999999999999998e-01 -1.0591312612164607e+01 -3.3086693027090348e+00 -9.5349730758817053e+00 3 -3 3
1735 579 1 -8.1999999999999995e-01 -7.7810371854145890e+00 -3.5241849808982728e+00 -1.2313117799461695e+01 3 2 4
809 270 2 4.0999999999999998e-01 -7.8542339950139501e+00 -1.4931351447777033e+00 -1.0438690024416950e+01 2 0 0
677 226 2 4.0999999999999998e-01 -9.8499314483980882e+00 -6.9676256681272033e+00 -1.5017547648472146e+01 0 -7 4
1158 386 2 4.0999999999999998e-01 -1.3075842112655554e+01 -6.7488938065377972e+00 -9.9302784521109047e+00 1 -5 0
1661 554 2 4.0999999999999998e-01 -9.7938171639859384e+00 -1.9203614069348696e-01 -1.4757751403033193e+01 6 -5 0
238 80 1 -8.1999999999999995e-01 -9.1932931594796301e+00 -5.3228136351193029e+00 -1.4904471528659913e+01 -3 -5 2
1546 516 1 -8.1999999999999995e-01 -1.5011877107175243e+01 -5.1839895630465929e+00 -1.3526214761535281e+01 1 -2 3
632 211 2 4.0999999999999998e-01 -6.6638901614664352e+00 -5.2229738697967871e+00 -1.3109708063998500e+01 -1 -6 0
1008 336 2 4.0999999999999998e-01 -9.1969717957001684e-01 -5.3122760735034014e+00 -1.5024894921932123e+01 3 -3 3
2189 730 2 4.0999999999999998e-01 -4.3492346039062202e+00 -1.1132142559188729e-01 -1.2172867848958543e+01 1 -3 0
348 116 2 4.0999999999999998e-01 -9.0829965844197602e-01 -2.5792335765755965e+00 -1.1377878441244160e+01 -4 -1 3
1953 651 2 4.0999999999999998e-01 -3.7299914068627622e+00 -2.5086087058693050e+00 -1.4060929816444112e+01 3 -2 5
1909 637 1 -8.1999999999999995e-01 -3.1502043667230737e+00 -4.7164178840260433e+00 -1.0197581298254544e+01 4 -1 2
1453 485 1 -8.1999999999999995e-01 -9.6978939327562053e-01 -1.6644388314571419e+00 -1.4307672505671478e+01 0 -7 2
346 116 1 -8.1999999999999995e-01 -4.5145821779732742e-01 -3.2883031371717166e+00 -1.1914993031151059e+01 -4 -1 3
1952 651 2 4.0999999999999998e-01 -4.1064180906963053e+00 -9.2101342133928199e-01 -1.3994550553861433e+01 3 -2 5
545 182 2 4.0999999999999998e-01 -6.3566073566720576e+00 -3.7235508711560730e+00 -9.0724626938336854e+00 -3 -3 2
1454 485 2 4.0999999999999998e-01 -1.7811204068408202e+00 -1.9382906028275553e+00 -1.4824124859331654e+01 0 -7 2
638 213 2 4.0999999999999998e-01 -5.4485427311993071e+00 -2.6268491715852722e+00 -1.1137050326869195e+01 3 -1 3
1951 651 1 -8.1999999999999995e-01 -3.8032182642374277e+00 -1.6639866658447211e+00 -1.4591238478625158e+01 3 -2 5
546 182 2 4.0999999999999998e-01 -6.7167522318930502e+00 -4.8058882921163235e+00 -1.0240967468732102e+01 -3 -3 2
1006 336 1 -8.1999999999999995e-01 -6.3109710768406657e-02 -4.8886216019254078e+00 -1.4730360325839495e+01 3 -3 3
639 213 2 4.0999999999999998e-01 -4.6312631504820576e+00 -1.6135547515494384e+00 -1.0151225524103502e+01 3 -1 3
637 213 1 -8.1999999999999995e-01 -4.6881009242134990e+00 -1.9799793893315929e+00 -1.1079922612420400e+01 3 -1 3
347 116 2 4.0999999999999998e-01 -3.8393073349818785e-01 -2.9929717502120869e+00 -1.2867985814454538e+01 -4 -1 3
633 211 2 4.0999999999999998e-01 -5.7862909940778664e+00 -6.5286619992121651e+00 -1.2672032104171203e+01 -1 -6 0
544 182 1 -8.1999999999999995e-01 -5.9857905978930486e+00 -4.2615123272073845e+00 -9.8294753957202250e+00 -3 -3 2
21 7 2 4.0999999999999998e-01 -4.0715670057748437e+00 -4.7133053306017931e+00 -1.3156647752238468e+01 -1 -3 2
1476 492 2 4.0999999999999998e-01 -5.2966961315063550e+00 -6.3816241614687907e+00 -1.5076412188462021e+01 1 -1 -1
1911 637 2 4.0999999999999998e-01 -4.1288721977899634e+00 -4.5581138355997517e+00 -1.0066718948666077e+01 4 -1 2
853 285 1 -8.1999999999999995e-01 -1.8140099303521282e+00 -7.2554835062038858e+00 -1.4916255209380832e+01 -1 -3 1
197 66 2 4.0999999999999998e-01 -3.1860725791353737e+00 -6.2289824320836953e+00 -9.4360540507008004e+00 0 -4 -1
1007 336 2 4.0999999999999998e-01 -1.0282736187395791e-01 -4.7043265901725135e+00 -1.3748304478374273e+01 3 -3 3
20 7 2 4.0999999999999998e-01 -2.6790444920564216e+00 -5.4746111185450541e+00 -1.3541168989537690e+01 -1 -3 2
19 7 1 -8.1999999999999995e-01 -3.1381163531202514e+00 -4.5875567546225700e+00 -1.3492554014619753e+01 -1 -3 2
1910 637 2 4.0999999999999998e-01 -2.8461055735497514e+00 -4.2535887772316876e+00 -1.1030221061718898e+01 4 -1 2
631 211 1 -8.1999999999999995e-01 -5.7644281732235640e+00 -5.6568761935751475e+00 -1.3161406571421223e+01 -1 -6 0
1455 485 2 4.0999999999999998e-01 -1.1420709110407756e+00 -7.8918637306981587e-01 -1.3855756514636496e+01 0 -7 2
810 270 2 4.0999999999999998e-01 -7.1939931110607072e+00 -8.1130409785034630e-01 -9.1098745982308635e+00 2 0 0
527 176 2 4.0999999999999998e-01 -2.2829839366349862e+00 -3.5486993969681144e+00 -9.2298807904093891e+00 3 -3 -1
979 327 1 -8.1999999999999995e-01 -7.8237059265593452e+00 -1.1787632578556682e+01 -7.6481461359189833e+00 -4 0 3
219 73 2 4.0999999999999998e-01 -8.5686366365634932e+00 -9.8631977921424667e+00 -6.9109940391920883e+00 0 0 0
217 73 1 -8.1999999999999995e-01 -8.2963263139754382e+00 -8.9953631941671333e+00 -6.4954389464910918e+00 0 0 0
2137 713 1 -8.1999999999999995e-01 -1.2647557169882026e+01 -8.5128711651264268e+00 -6.1624538219593781e+00 -1 -5 -1
725 242 2 4.0999999999999998e-01 -9.5653231936749776e+00 -1.2004994667013609e+01 -7.8181632735299962e+00 -1 -4 0
2139 713 2 4.0999999999999998e-01 -1.2567652446146878e+01 -9.4156711118357208e+00 -6.5849976985541705e+00 -1 -5 -1
1424 475 2 4.0999999999999998e-01 -9.2422732672386072e+00 -9.4578759979236153e+00 -4.4785899561293085e+00 0 -1 5
1226 409 2 4.0999999999999998e-01 -1.3495072259026896e+01 -1.1644793339438474e+01 -6.4758112450372565e+00 1 0 -1
2138 713 2 4.0999999999999998e-01 -1.1737828176651970e+01 -8.1780765050610391e+00 -5.9169308543355861e+00 -1 -5 -1
980 327 2 4.0999999999999998e-01 -7.7059765215734917e+00 -1.2644101799617419e+01 -8.1507156169092809e+00 -4 0 3
726 242 2 4.0999999999999998e-01 -1.0869728369165802e+01 -1.2291095772836234e+01 -8.7579692816000829e+00 -1 -4 0
218 73 2 4.0999999999999998e-01 -9.0208823692975280e+00 -8.3194531249900407e+00 -6.6301235410633357e+00 0 0 0
1723 575 1 -8.1999999999999995e-01 -1.4553353203755986e+01 -1.2785422047325923e+01 -5.3593482486821316e+00 2 1 -1
587 196 2 4.0999999999999998e-01 -1.1605304516533749e+01 -1.1119929965383013e+01 -4.2985616677261653e+00 -4 2 -1
586 196 1 -8.1999999999999995e-01 -1.2569637384974879e+01 -1.1146964123933621e+01 -4.0352992595945754e+00 -4 2 -1
254 85 2 4.0999999999999998e-01 -1.3668510284252903e+01 -7.8878382949235872e+00 -4.5886757373241451e+00 1 -3 1
724 242 1 -8.1999999999999995e-01 -1.0563518264720836e+01 -1.2062767901928163e+01 -7.8338061013680083e+00 -1 -4 0
1423 475 1 -8.1999999999999995e-01 -9.5123634541045305e+00 -1.0369641715699121e+01 -4.1692189851354282e+00 0 -1 5
1425 475 2 4.0999999999999998e-01 -8.8622654056919981e+00 -1.1045557228608601e+01 -4.5163307541665958e+00 0 -1 5
1227 409 2 4.0999999999999998e-01 -1.2098241900169645e+01 -1.1655658581151860e+01 -7.3215706357913186e+00 1 0 -1
592 198 1 -8.1999999999999995e-01 -8.0582784569002293e+00 -1.4833320270973134e+01 -3.3751927109873812e+00 1 -4 1
1724 575 2 4.0999999999999998e-01 -1.3938723152692306e+01 -1.2236833575887738e+01 -4.7925533601199444e+00 2 1 -1
1225 409 1 -8.1999999999999995e-01 -1.2963910942951504e+01 -1.1175200632673198e+01 -7.1810248177741247e+00 1 0 -1
2547 849 2 4.0999999999999998e-01 -1.3639930815162110e+01 -1.0313020364863000e+01 -8.5712042383200462e+00 1 -2 0
2428 810 1 -8.1999999999999995e-01 -1.4818233599462955e+01 -7.8322698485505153e+00 -7.9248705110498312e+00 1 -4 -4
2399 800 2 4.0999999999999998e-01 -1.1051543368882550e+01 -8.3164513846374799e+00 -8.8388594164616414e+00 3 -3 1
1725 575 2 4.0999999999999998e-01 -1.4371403531712241e+01 -1.3756499603405839e+01 -5.2048213600109055e+00 2 1 -1
2430 810 2 4.0999999999999998e-01 -1.3972948344182356e+01 -8.0724713221586288e+00 -7.4476159390572843e+00 1 -4 -4
2429 810 2 4.0999999999999998e-01 -1.4960086507761831e+01 -8.4617405872517431e+00 -8.6888208872103920e+00 1 -4 -4
588 196 2 4.0999999999999998e-01 -1.2658997163102674e+01 -1.0897800606423029e+01 -3.0709817776826842e+00 -4 2 -1
2398 800 1 -8.1999999999999995e-01 -1.0449220917805633e+01 -9.0639322611534610e+00 -8.5587597388389369e+00 3 -3 1
2400 800 2 4.0999999999999998e-01 -1.0956142735802210e+01 -9.9256858804813426e+00 -8.5784269160101818e+00 3 -3 1
1666 556 1 -8.1999999999999995e-01 -7.5202454445715894e+00 -1.2434331550761865e+01 -5.0994678288329194e+00 -3 -2 -1
981 327 2 4.0999999999999998e-01 -7.4838573230233854e+00 -1.1899683439545687e+01 -6.7143777727600877e+00 -4 0 3
1667 556 2 4.0999999999999998e-01 -7.4881650474892893e+00 -1.3388432209637358e+01 -4.8017454479714612e+00 -3 -2 -1
2376 792 2 4.0999999999999998e-01 -6.4926682351703171e+00 -8.7447926576052986e+00 -6.2761403950424324e+00 5 -3 1
1668 556 2 4.0999999999999998e-01 -7.1797272404293997e+00 -1.1844949133619192e+01 -4.3669027660624788e+00 -3 -2 -1
413 138 2 4.0999999999999998e-01 -6.5964158555569163e+00 -9.8258223325160721e+00 -8.5717137653160673e+00 -1 -2 -2
2437 813 1 -8.1999999999999995e-01 -2.4076649953229801e+00 -1.4584693414716339e+01 -7.8604822634212779e+00 -3 -3 0
827 276 2 4.0999999999999998e-01 -1.4343458027125191e+00 -1.2151786516220017e+01 -3.7898693178502185e+00 3 3 -4
828 276 2 4.0999999999999998e-01 -2.7334309838933546e+00 -1.2598599255645150e+01 -4.6726479471675901e+00 3 3 -4
2375 792 2 4.0999999999999998e-01 -5.1024561576940002e+00 -9.3474773571450154e+00 -5.6673353446374612e+00 5 -3 1
2374 792 1 -8.1999999999999995e-01 -5.4966148097334564e+00 -8.6562299260407940e+00 -6.2729687173723310e+00 5 -3 1
352 118 1 -8.1999999999999995e-01 -6.5523196809901183e+00 -1.0550651910087058e+01 -3.3652456986687191e+00 -3 -3 1
354 118 2 4.0999999999999998e-01 -5.6348538523472271e+00 -1.0311160197221668e+01 -3.6828555445993949e+00 -3 -3 1
1680 560 2 4.0999999999999998e-01 -4.9778315845504704e+00 -1.2273167880013702e+01 -7.2368844163096000e+00 2 1 -1
1922 641 2 4.0999999999999998e-01 -1.0410469054300666e+00 -1.0817555218800138e+01 -5.8761383694391487e+00 3 -1 2
2118 706 2 4.0999999999999998e-01 -3.3082945577011849e+00 -1.0751562145958172e+01 -7.6442629456988538e+00 3 -2 4
1921 641 1 -8.1999999999999995e-01 -1.0577530927521508e+00 -1.0381325901732659e+01 -6.7758053780210563e+00 3 -1 2
519 173 2 4.0999999999999998e-01 -1.0108048988201226e+00 -9.3934187230031174e+00 -8.2964901878399697e+00 2 5 4
960 320 2 4.0999999999999998e-01 -5.2319731005994221e+00 -1.3119697416602973e+01 -3.1785108479993127e+00 -2 -6 -3
1679 560 2 4.0999999999999998e-01 -5.6293346416165964e+00 -1.3421877074642506e+01 -8.1973910452066185e+00 2 1 -1
1678 560 1 -8.1999999999999995e-01 -5.0380594822420370e+00 -1.3256552866131052e+01 -7.4080638423246468e+00 2 1 -1
797 266 2 4.0999999999999998e-01 -3.8318947193365904e+00 -9.2859979001231459e+00 -3.3911208200343363e+00 -1 -2 -2
2117 706 2 4.0999999999999998e-01 -4.5115191178523979e+00 -9.6515009286630811e+00 -7.5511070940953635e+00 3 -2 4
796 266 1 -8.1999999999999995e-01 -4.0680476630892901e+00 -9.7681790463345237e+00 -4.2347492776583078e+00 -1 -2 -2
1669 557 1 -8.1999999999999995e-01 -4.2869639653087681e+00 -1.3944938742638017e+01 -4.9655026699445131e+00 -1 -1 1
1671 557 2 4.0999999999999998e-01 -4.4308582427869982e+00 -1.3764756676199612e+01 -5.9385415828319967e+00 -1 -1 1
798 266 2 4.0999999999999998e-01 -3.2391575170471878e+00 -1.0149819396977151e+01 -4.6437329159055736e+00 -1 -2 -2
2438 813 2 4.0999999999999998e-01 -2.1554391883686392e+00 -1.3708941935799743e+01 -8.2720856236695308e+00 -3 -3 0
1670 557 2 4.0999999999999998e-01 -4.2858905531062508e+00 -1.4932110497454406e+01 -4.8059200798161044e+00 -1 -1 1
1923 641 2 4.0999999999999998e-01 -8.7404734441861542e-01 -1.1065608030645929e+01 -7.4814866148364958e+00 3 -1 2
2116 706 1 -8.1999999999999995e-01 -4.2261612201063166e+00 -1.0516426850578723e+01 -7.9639628236052529e+00 3 -2 4
826 276 1 -8.1999999999999995e-01 -2.0720759151464634e+00 -1.1867363463853120e+01 -4.5056763181942969e+00 3 3 -4
481 161 1 -8.1999999999999995e-01 -1.3556189793900355e+00 -1.2187963243374686e+01 -8.9123187138323559e+00 1 -4 3
517 173 1 -8.1999999999999995e-01 -8.6707259434762740e-01 -8.7461342249579168e+00 -9.0450485631570281e+00 2 5 4
518 173 2 4.0999999999999998e-01 -1.5749380523032865e+00 -8.0404025142923086e+00 -9.0159781736464701e+00 2 5 4
253 85 1 -8.1999999999999995e-01 -1.3992412296287734e+01 -7.4054707764622307e+00 -3.7748054185347719e+00 1 -3 1
185 62 2 4.0999999999999998e-01 -1.4534336028040208e+01 -2.2875899389296954e+00 -3.6932597707673338e+00 2 -1 -2
2381 794 2 4.0999999999999998e-01 -1.4802437045461209e+01 -1.7606772075071895e+00 -8.6535258503586370e+00 1 2 -1
1579 527 1 -8.1999999999999995e-01 -1.0250775573148122e+01 -2.9185176126079053e+00 -8.6795246461691544e+00 3 -3 3
189 63 2 4.0999999999999998e-01 -1.2743368748370459e+01 -2.4827655011741179e-01 -6.8273001868154619e+00 0 -1 1
2380 794 1 -8.1999999999999995e-01 -1.3908614817270552e+01 -1.3621046424576875e+00 -8.4481053726145223e+00 1 2 -1
179 60 2 4.0999999999999998e-01 -1.5013563510747341e+01 -4.4780706099794649e+00 -3.5922257156781381e+00 5 0 6
101 34 2 4.0999999999999998e-01 -1.4131074420974567e+01 -4.5853700732801528e+00 -8.4605858798870006e+00 3 -5 2
1580 527 2 4.0999999999999998e-01 -9.3312175364878680e+00 -2.5526546010124669e+00 -8.8228184460269006e+00 3 -3 3
184 62 1 -8.1999999999999995e-01 -1.4117432883487195e+01 -3.1041758533398838e+00 -3.2940667591778343e+00 2 -1 -2
102 34 2 4.0999999999999998e-01 -1.4379804898272067e+01 -6.1992481325465487e+00 -8.4509523809997340e+00 3 -5 2
2312 771 2 4.0999999999999998e-01 -9.9680473571361503e+00 -7.0036763692483461e+00 -4.4614706559424686e+00 1 -4 -3
1324 442 1 -8.1999999999999995e-01 -9.5389585498807090e+00 -7.9117027785182437e-01 -4.2213692644280965e+00 4 -3 -2
1325 442 2 4.0999999999999998e-01 -9.5999759140455385e+00 -1.7475860872291555e+00 -3.9358495153506681e+00 4 -3 -2
1011 337 2 4.0999999999999998e-01 -1.1364951395948264e+01 -2.8505138371135796e+00 -7.3740715603823448e+00 5 0 -1
1972 658 1 -8.1999999999999995e-01 -1.2075134035279731e+01 -5.0723260030768387e+00 -5.1656367099035094e+00 1 1 3
2535 845 2 4.0999999999999998e-01 -1.1076299163274367e+01 -6.3694899071941631e+00 -5.7648619294440842e+00 3 0 1
2533 845 1 -8.1999999999999995e-01 -1.0319500832316409e+01 -6.9137085331947485e+00 -6.1268815428521304e+00 3 0 1
1973 658 2 4.0999999999999998e-01 -1.2090460700093134e+01 -4.2086184984969037e+00 -5.6693730479264062e+00 1 1 3
1010 337 2 4.0999999999999998e-01 -1.2896666691986622e+01 -2.4690542313153898e+00 -6.9558624444312898e+00 5 0 -1
1830 610 2 4.0999999999999998e-01 -1.0628690960283755e+01 -3.8894465058739716e+00 -3.9825797685825144e+00 4 1 2
1974 658 2 4.0999999999999998e-01 -1.3007318362274747e+01 -5.3218494194989301e+00 -4.9034415946560621e+00 1 1 3
1068 356 2 4.0999999999999998e-01 -8.0044614425805314e+00 -4.5098683013956844e+00 -5.3637370697620508e+00 -1 -1 0
1009 337 1 -8.1999999999999995e-01 -1.2002310683262021e+01 -2.7524821488492233e+00 -6.6097818397323636e+00 5 0 -1
100 34 1 -8.1999999999999995e-01 -1.4089846579032098e+01 -5.4211272934312902e+00 -9.0081130380463819e+00 3 -5 2
2534 845 2 4.0999999999999998e-01 -9.8470861450645160e+00 -6.3951395564699567e+00 -6.8395430384107563e+00 3 0 1
1342 448 1 -8.1999999999999995e-01 -9.1799604288393617e+00 -5.2370876617915183e+00 -7.8905494472087545e+00 4 2 3
1344 448 2 4.0999999999999998e-01 -9.6384420853208823e+00 -4.3735563684190666e+00 -8.1005116166614819e+00 4 2 3
1828 610 1 -8.1999999999999995e-01 -1.0160143492595816e+01 -3.5033809680279244e+00 -3.1879776653116156e+00 4 1 2
1343 448 2 4.0999999999999998e-01 -8.2867689622946870e+00 -5.0494789931039961e+00 -7.4819080106751441e+00 4 2 3
2311 771 1 -8.1999999999999995e-01 -9.8125715035863408e+00 -6.9634556658934148e+00 -3.4744623516308621e+00 1 -4 -3
1326 442 2 4.0999999999999998e-01 -1.0186046268194129e+01 -6.2341528408031976e-01 -4.9650839816454031e+00 4 -3 -2
255 85 2 4.0999999999999998e-01 -1.4650221612829220e+01 -6.7020439066653932e+00 -4.0439770984178516e+00 1 -3 1
396 132 2 4.0999999999999998e-01 -2.9244418562005290e+00 -4.0461682957206158e-01 -3.2740770273463031e+00 0 -2 -1
528 176 2 4.0999999999999998e-01 -1.1585047954097849e+00 -2.4012500278407494e+00 -8.9375305581200681e+00 3 -3 -1
937 313 1 -8.1999999999999995e-01 -5.3869077469593325e+00 -3.2570794372947880e+00 -6.8233591059701020e+00 0 -3 3
196 66 1 -8.1999999999999995e-01 -3.1994023194374854e+00 -7.1224257074728836e+00 -8.9871027288351648e+00 0 -4 -1
1970 657 2 4.0999999999999998e-01 -5.2719753263847196e+00 -3.9148466863866638e-01 -7.4832589630081952e+00 4 0 4
1969 657 1 -8.1999999999999995e-01 -6.1924873204317379e+00 -5.6055288291617700e-01 -7.1310523829507373e+00 4 0 4
609 203 2 4.0999999999999998e-01 -2.6056582182352805e-01 -2.0286183756264506e+00 -6.7524684878169765e+00 -3 -3 -1
1893 631 2 4.0999999999999998e-01 -4.1163161530922387e+00 -2.1167258323112801e+00 -3.3440382426090007e+00 2 -3 -2
526 176 1 -8.1999999999999995e-01 -1.9279773487836209e+00 -2.9081265908545149e+00 -8.5489897265133159e+00 3 -3 -1
1971 657 2 4.0999999999999998e-01 -6.3486244421913778e+00 -1.5461243104535356e+00 -7.0658909942698855e+00 4 0 4
361 121 1 -8.1999999999999995e-01 -5.6624121577730282e+00 -6.5600490070308197e+00 -4.1037081037784890e+00 1 3 3
1409 470 2 4.0999999999999998e-01 -2.3517581922885142e+00 -6.1008149676551930e+00 -3.7527097556802627e+00 -5 0 -1
394 132 1 -8.1999999999999995e-01 -2.6513599725527417e+00 -3.1276542885833258e-01 -4.2316601483257248e+00 0 -2 -1
547 183 1 -8.1999999999999995e-01 -1.5036659213030852e+00 -5.0974630951445352e+00 -4.8915511016037563e+00 3 1 7
1066 356 1 -8.1999999999999995e-01 -7.2546641820736300e+00 -4.9650357160282041e+00 -5.8439479796869058e+00 -1 -1 0
938 313 2 4.0999999999999998e-01 -6.0117478193437872e+00 -3.8522808465523806e+00 -6.3181007528900892e+00 0 -3 3
351 117 2 4.0999999999999998e-01 -2.9256178927257039e+00 -9.1728634602097081e-01 -8.3775136945750610e+00 0 1 3
1408 470 1 -8.1999999999999995e-01 -2.9589603558583661e+00 -6.5979980909853815e+00 -3.1329595517704352e+00 -5 0 -1
1845 615 2 4.0999999999999998e-01 -6.7235051967289525e+00 -7.5250407450891608e+00 -3.1156863147404010e+00 4 -5 2
2560 854 1 -8.1999999999999995e-01 -2.7097624780411564e+00 -2.7458042302978356e+00 -5.8021330957976218e+00 -1 0 1
549 183 2 4.0999999999999998e-01 -9.1075896035679627e-01 -5.4126341206101340e+00 -5.6325668877907145e+00 3 1 7
349 117 1 -8.1999999999999995e-01 -3.6030236855613449e+00 -3.4805585549691465e-01 -7.9116018186962194e+00 0 1 3
548 183 2 4.0999999999999998e-01 -1.9132112093815330e+00 -4.2203777668439795e+00 -5.1424890142356841e+00 3 1 7