2611
Atoms. Timestep: 12090000
O -4.32632 13.5189 9.74486
H -5.27435 13.5644 9.42983
H -3.83849 14.3419 9.45383
O -7.73026 11.0375 -4.1441
H -7.49895 10.8361 -3.19225
H -7.02906 10.6547 -4.74567
O -7.56535 -0.192028 -6.23421
H -6.62794 -0.362534 -6.53796
H -8.01392 -1.06273 -6.03238
O -8.87244 6.99565 1.87516
H -9.46408 7.51812 1.26111
H -9.14243 7.16577 2.82291
O 13.4782 8.28106 -10.3812
H 14.4687 8.14788 -10.4163
H 13.2756 9.25749 -10.3063
O 6.64885 1.35134 -3.28417
H 7.09397 1.55528 -2.41219
H 7.04106 1.9274 -4.00139
O -5.9644 -2.66445 -14.7744
H -4.99146 -2.47658 -14.6396
H -6.24883 -3.40374 -14.1639
O 5.92433 0.364324 -13.1817
H 5.21374 0.805539 -13.7299
H 5.62714 0.314858 -12.2282
O 6.23702 -8.08898 11.7046
H 5.68812 -7.7103 10.9594
H 6.16514 -7.4956 12.5064
O -4.98823 -11.2617 -2.74609
H -4.22322 -11.9017 -2.81878
H -5.14507 -11.0376 -1.78419
O 2.63726 -4.003 -5.16329
H 3.00119 -4.08485 -4.23543
H 2.67136 -4.89476 -5.61459
O 10.8052 14.3169 -6.48868
H 10.6589 -14.9131 -6.48814
H 11.7865 14.125 -6.47054
O 2.51816 -12.8775 8.87881
H 3.11694 -12.5872 9.62532
H 1.62213 -12.4458 8.98317
O 1.8266 -5.10551 -12.9779
H 0.875071 -5.38839 -13.0989
H 1.90125 -4.525 -12.167
O 6.22647 -13.9889 10.0618
H 5.68776 -13.2572 10.4795
H 7.19964 -13.8123 10.2095
O 3.56662 -7.12667 -12.5793
H 3.04724 -6.32405 -12.8728
H 3.32768 -7.3512 -11.6346
O 10.9437 -9.37098 11.2388
H 9.9575 -9.40432 11.0767
H 11.4264 -9.69519 10.4252
O 0.631224 0.517665 -7.75665
H 0.676431 -0.388032 -8.17825
H 1.42296 0.647323 -7.15964
O -12.2321 -12.6683 11.3416
H -11.5146 -12.5345 10.658
H -13.0968 -12.8712 10.8819
O -4.81253 13.8602 14.933
H -5.14675 14.3924 -14.5083
H -5.51264 13.8375 14.2193
O -1.39774 -6.88353 9.99151
H -1.1773 -6.17978 10.667
H -0.694634 -6.89498 9.28046
O 6.49699 -0.879678 -8.58272
H 5.92245 -0.55393 -9.33363
H 7.30736 -0.298639 -8.50678
O -7.31158 -5.16558 0.352302
H -8.03418 -5.35704 -0.311986
H -6.68507 -4.48304 -0.0241208
O 3.05348 8.49493 14.4614
H 3.90321 8.12644 14.0843
H 2.85836 8.05321 -14.8821
O -8.40124 12.253 -11.5697
H -7.83593 11.4373 -11.446
H -8.47832 12.4604 -12.5449
O -12.5781 -11.3528 13.6507
H -12.8762 -10.425 13.4263
H -12.6257 -11.9253 12.8321
O -7.59846 -14.0316 10.0896
H -7.57166 -14.8281 10.6936
H -8.32668 -14.1496 9.4144
O -13.4146 -4.7635 -9.58841
H -13.8594 -5.01367 -8.72843
H -14.1104 -4.53951 -10.2708
O 12.5707 -12.1038 4.18171
H 12.2181 -11.8793 5.0902
H 13.0566 -11.3135 3.80813
O -3.9281 -12.6914 4.29881
H -4.05532 -13.5955 3.89074
H -3.00487 -12.3627 4.09959
O -5.15524 12.3942 1.11438
H -4.22232 12.7518 1.07071
H -5.79964 13.154 1.20143
O -13.3961 -9.69665 6.18298
H -14.2606 -9.35378 5.81536
H -13.1877 -10.5841 5.77186
O -6.01821 2.27162 12.0216
H -5.48024 2.90551 11.4659
H -6.31364 1.50116 11.4567
O 13.9751 -5.13008 -8.27476
H 13.7204 -4.74919 -7.38585
H 14.0353 -6.12592 -8.20579
O 2.13371 11.1754 -11.5682
H 2.1127 11.9552 -10.9425
H 1.22739 10.7545 -11.6068
O 6.86652 -4.61049 10.8347
H 5.97133 -4.77831 10.4218
H 7.55809 -5.1603 10.3662
O 3.10838 9.17743 -10.3949
H 2.52075 8.99621 -9.60626
H 2.71181 9.91314 -10.944
O -6.47236 -12.4973 -11.5057
H -6.84539 -13.4017 -11.2983
H -6.11415 -12.4906 -12.4394
O -13.4841 -0.74802 5.71367
H -14.3581 -0.366444 5.41262
H -12.8836 -0.0076879 6.01597
O -9.48082 0.876855 6.0431
H -9.43366 0.0371934 6.58422
H -9.66141 0.647318 5.08666
O 12.5598 -8.87093 -12.3671
H 12.818 -8.50549 -13.2615
H 12.5537 -8.13139 -11.694
O -10.0401 5.45173 -4.88705
H -10.7871 6.09882 -4.73409
H -9.16734 5.93953 -4.8678
O -2.22297 0.16513 10.5593
H -1.89536 0.423183 11.4682
H -1.45575 -0.166326 10.0101
O -8.33054 4.66251 11.4389
H -7.40566 4.40941 11.1549
H -8.82432 3.84439 11.7337
O -12.5809 9.09515 14.2925
H -11.6078 8.9792 14.4916
H -12.7248 9.0634 13.3033
O -9.14065 3.13659 -3.26085
H -9.46216 3.97341 -3.70405
H -8.96365 3.31856 -2.29356
O 0.675537 2.90915 -12.3258
H 1.57256 3.19791 -11.9911
H 0.0851268 2.68878 -11.5493
O -6.47054 9.99462 12.9857
H -5.60019 9.95373 12.4949
H -6.32658 10.4057 13.8859
O 13.9535 -1.4678 14.7903
H 13.868 -1.64899 -14.4492
H 14.8597 -1.75148 14.4767
O -1.57396 7.51852 -2.358
H -1.67084 7.22183 -3.30809
H -2.46237 7.81816 -2.01014
O -6.57727 4.50973 -7.27199
H -6.90987 5.37144 -6.8887
H -7.20054 3.76976 -7.01891
O 3.77954 -3.55003 -8.16695
H 3.62925 -4.26885 -7.48814
H 4.44327 -3.86554 -8.84517
O -0.537982 -3.50227 10.1605
H -0.847179 -3.685 9.22721
H -1.28128 -3.08295 10.6818
O 6.55799 -9.12907 -6.3744
H 6.69694 -8.1582 -6.17898
H 6.05252 -9.22751 -7.23165
O 13.491 -2.46974 7.24601
H 13.3766 -1.68558 6.63603
H 14.4044 -2.85778 7.12235
O -11.3081 -12.0881 -13.8733
H -11.8052 -11.7408 -14.6685
H -11.9565 -12.3056 -13.1437
O 3.70657 -2.51139 -11.6142
H 3.52612 -2.75961 -12.566
H 4.40457 -3.12046 -11.2375
O 12.4346 12.0224 -4.14775
H 13.3267 11.5846 -4.25979
H 11.8185 11.4037 -3.66021
O 11.8052 4.30434 -0.400403
H 11.1777 4.24285 0.375795
H 12.7134 3.99319 -0.120262
O -14.0147 -5.4917 -2.09541
H -14.4461 -6.26479 -2.56044
H -14.7177 -4.84124 -1.80772
O -1.64633 10.8232 -13.8103
H -1.01716 10.0953 -14.083
H -1.81455 11.4275 -14.5892
O -14.4773 -2.0434 -3.45463
H -14.1885 -1.16493 -3.83536
H -14.9754 -1.88927 -2.60124
O -13.5122 2.14415 -8.19904
H -12.5847 1.78107 -8.28787
H -13.9043 2.28305 -9.10845
O 11.0406 13.6876 4.97887
H 11.8281 13.1057 4.77556
H 10.231 13.1169 5.11629
O 1.15036 -0.455759 14.1952
H 0.849345 -0.345545 -15.0768
H 1.66865 -1.30645 14.107
O -4.80627 -6.00388 -9.67827
H -4.38817 -5.15477 -10.0012
H -4.75957 -6.03979 -8.67997
O -3.44217 -6.26697 -0.586068
H -3.26871 -7.1797 -0.956086
H -4.10398 -6.33038 0.160966
O -11.5123 -8.92705 0.532674
H -10.6798 -9.22427 1.00026
H -11.281 -8.59795 -0.382888
O 1.89671 12.898 2.18377
H 2.22101 11.952 2.1802
H 1.47375 13.102 3.06669
O 8.82508 -10.4519 -12.9587
H 8.72705 -10.8772 -12.059
H 7.92671 -10.165 -13.2915
O -13.212 4.07878 -3.96406
H -12.6917 4.30288 -3.14
H -14.1021 3.70393 -3.70458
O -14.9901 -6.63499 -13.5424
H -14.7929 -7.36252 -12.8852
H -14.1796 -6.4631 -14.1025
O -10.9825 -8.78805 -5.02391
H -10.684 -7.86742 -5.27576
H -10.637 -9.44537 -5.6937
O 14.5503 4.13299 10.0886
H 15.0356 3.67744 10.835
H 14.9831 5.01425 9.89847
O 7.72051 2.45493 -1.20784
H 7.54473 2.46516 -0.223423
H 7.15559 3.14876 -1.65454
O -12.1066 -5.28568 -0.424699
H -12.2858 -6.02466 0.22481
H -12.7979 -5.30188 -1.14712
O 12.51 12.9322 13.3298
H 13.4975 12.8296 13.45
H 12.2497 13.8817 13.5057
O 14.3764 -4.25286 -4.66127
H 13.4768 -3.83539 -4.78961
H 15.0235 -3.55944 -4.34422
O 5.87783 5.74507 10.9796
H 5.83481 4.80331 11.3132
H 6.79714 5.93487 10.6348
O -10.4982 -5.65175 -13.8688
H -9.83793 -4.90438 -13.7945
H -10.4588 -6.21469 -13.0431
O -4.96591 8.08111 2.00194
H -5.0767 7.21766 1.50975
H -5.44484 8.80867 1.51065
O 11.598 -6.25332 0.937229
H 12.5395 -5.93495 1.04881
H 11.5945 -7.24524 0.810095
O -12.8247 0.459726 -14.9473
H -13.1383 -0.308769 14.7142
H -13.0192 1.31783 14.7967
O -12.953 7.43114 -13.4733
H -11.9772 7.22151 -13.5365
H -13.327 7.55721 -14.3922
O -12.0502 -8.02705 -2.13583
H -11.832 -8.35932 -3.05346
H -12.6081 -7.19999 -2.20472
O 14.0123 -2.26376 9.99322
H 13.6901 -2.33133 9.04892
H 13.2858 -1.88546 10.567
O 14.2814 -10.9511 -11.9177
H 13.6941 -10.1572 -12.0755
H 13.7253 -11.7193 -11.6006
O 3.96197 2.07977 -14.3945
H 3.05919 2.18332 -14.8121
H 4.05323 2.72275 -13.6341
O 4.35767 -7.39326 9.93382
H 3.95544 -6.47804 9.95934
H 4.8019 -7.53758 9.04957
O 9.69031 9.44149 -9.84002
H 9.78421 8.99468 -10.7297
H 9.86177 8.77631 -9.11323
O -8.00537 2.28707 -9.23667
H -8.11895 2.94647 -8.49346
H -7.03352 2.0841 -9.35657
O 9.30872 -8.73754 13.4843
H 10.0385 -8.88227 12.8161
H 9.1673 -7.75638 13.6162
O 5.32894 1.76818 7.80098
H 5.46674 1.79233 6.81078
H 5.03016 0.853631 8.07374
O 9.18344 14.3789 -8.82329
H 8.2246 14.095 -8.83318
H 9.60837 14.088 -7.96602
O -3.95908 9.81944 11.742
H -4.09664 10.6032 11.1362
H -3.65445 9.03265 11.2051
O 7.98108 2.67529 -13.9748
H 8.89351 2.81028 -13.5884
H 7.53998 1.89885 -13.5247
O 11.0977 2.08457 10.901
H 10.1954 1.88032 11.2808
H 11.4022 2.97933 11.2278
O -5.88243 9.58955 4.61139
H -5.71126 10.3302 5.26118
H -5.01073 9.20889 4.30267
O 4.97919 6.79065 -7.50817
H 5.25467 6.93418 -8.45874
H 5.76525 6.47336 -6.9776
O 6.12129 -7.93793 -2.80689
H 5.88686 -7.25337 -2.1166
H 7.1143 -8.05155 -2.83988
O 12.7643 -9.5929 2.96483
H 11.7936 -9.78498 3.10896
H 12.9311 -9.43033 1.99229
O -11.5371 -4.4297 3.90993
H -12.5041 -4.46686 4.16217
H -11.3771 -5.0157 3.11554
O -5.17831 2.78782 -4.58923
H -4.56569 2.73252 -5.37772
H -6.11741 2.61046 -4.88368
O -6.35731 -3.11829 5.57474
H -6.01965 -4.02822 5.81574
H -6.81654 -3.15743 4.68725
O -7.62976 14.0914 5.38654
H -8.23889 14.8815 5.45521
H -6.93002 14.147 6.09881
O -14.0679 -5.10139 4.53446
H -14.048 -6.06942 4.28427
H -14.7871 -4.63801 4.01676
O 10.2347 -3.49613 -12.8476
H 10.3409 -4.37338 -13.3158
H 10.9191 -2.85147 -13.1882
O -13.8335 -1.13858 13.2499
H -13.951 -0.709454 12.3542
H -13.3147 -1.98738 13.1473
O 9.72365 3.71458 1.53915
H 9.83495 4.30836 2.33609
H 8.7928 3.8035 1.18463
O -15.0127 -3.69961 -11.4699
H 14.4242 -4.11305 -11.9358
H -14.317 -3.45067 -12.1438
O 8.89867 14.0484 14.3766
H 7.93794 13.8022 14.2483
H 8.95717 14.9287 14.8473
O -9.66703 14.3138 -7.18481
H -9.67736 13.457 -6.66921
H -9.72529 14.1149 -8.16312
O -3.44703 11.5998 -3.68324
H -3.79309 11.2611 -4.55822
H -4.0009 11.2267 -2.93882
O 7.02698 11.4326 5.947
H 6.14543 11.7425 6.30327
H 6.99585 10.4449 5.79344
O 13.8736 -0.0880269 5.57503
H 14.0818 -0.55649 4.7164
H 12.8932 0.104234 5.62059
O -1.31968 -2.19805 -11.5534
H -0.519189 -1.76474 -11.1392
H -1.84968 -1.51187 -12.0517
O -3.1197 1.38476 -7.02786
H -2.34205 2.01334 -7.01297
H -2.78982 0.449381 -7.1556
O -6.84785 -10.3173 -4.65588
H -6.43466 -10.7682 -3.86461
H -7.29909 -11.0001 -5.23055
O 8.18014 -0.515486 -14.3562
H 7.36695 -0.308609 -13.8122
H 8.03981 -0.205421 14.9227
O 13.3559 6.07266 -8.37853
H 14.3529 6.15023 -8.36964
H 12.9621 6.88577 -8.80734
O -5.86228 -5.52673 -4.21054
H -5.6987 -5.43917 -5.19321
H -6.84684 -5.55718 -4.03793
O 2.07091 1.95372 8.78182
H 2.91444 1.72982 8.29355
H 2.29005 2.22278 9.71972
O -10.2703 -11.1423 6.59578
H -9.71682 -11.3865 5.7995
H -11.24 -11.2259 6.36599
O 7.12941 -13.6024 -1.30726
H 7.86357 -13.3672 -1.94429
H 7.3964 -13.3407 -0.379717
O -2.01969 6.60884 -4.88205
H -1.37359 6.26703 -5.56454
H -2.61326 5.86219 -4.58162
O -14.0338 -13.7982 -9.49006
H -13.9293 -14.2877 -10.3558
H -14.4297 -14.4112 -8.80627
O -13.8256 -8.71895 14.7372
H -14.638 -8.38134 14.2617
H -14.017 -9.6207 -15.0944
O 7.62897 -14.3792 3.03482
H 8.23428 -14.835 2.38213
H 8.09298 -14.2944 3.91662
O -2.82091 13.8941 0.431229
H -2.99417 14.3312 -0.451366
H -1.98723 13.3448 0.373213
O -13.6485 11.3237 5.95767
H -13.3005 12.0887 6.49966
H -14.6392 11.4124 5.85364
O 14.3084 -8.48048 5.04838
H 13.7039 -7.97221 5.66189
H 13.7588 -8.99856 4.39287
O -4.74874 -1.93531 -4.02946
H -5.04516 -1.29213 -3.32339
H -4.61282 -2.83836 -3.62189
O 9.60153 -13.1213 8.68411
H 9.29647 -13.131 9.63643
H 9.32308 -13.971 8.23622
O 4.64168 13.1752 -9.19108
H 4.99971 14.1081 -9.23075
H 5.40265 12.5275 -9.15359
O -12.0622 9.28633 -6.05622
H -12.1699 8.83274 -6.94094
H -11.2263 8.9607 -5.61429
O 7.70214 2.72822 -8.99155
H 7.29823 2.59956 -8.0858
H 7.05117 3.20523 -9.58211
O 0.168818 2.78828 6.57009
H -0.781389 2.76977 6.88128
H 0.743951 2.29931 7.22599
O -8.30011 -10.3118 -7.7218
H -9.22407 -9.94391 -7.82684
H -8.27885 -11.2573 -8.04682
O 8.25263 9.16615 12.5509
H 8.76243 8.31167 12.4508
H 8.34237 9.49982 13.4894
O 5.16061 10.9529 -15.0306
H 5.09017 10.4322 14.3378
H 4.26103 11.3147 -14.7858
O -4.44701 -7.95653 -3.98658
H -4.99096 -8.73306 -3.66848
H -5.05652 -7.23424 -4.31351
O -10.9609 -5.21188 -10.3837
H -10.8435 -6.11502 -10.7968
H -11.924 -5.07358 -10.1527
O 9.10155 -7.38031 -12.7739
H 9.13659 -8.35925 -12.9752
H 9.62154 -6.87897 -13.4655
O 3.58542 6.83745 4.25725
H 4.15971 7.5485 4.66305
H 3.838 5.94767 4.63746
O 7.62186 6.27432 1.48433
H 7.74399 6.18829 0.495518
H 8.213 7.0026 1.83109
O -2.88329 -9.39519 10.0392
H -3.66651 -9.61076 10.6224
H -2.53646 -8.48593 10.2695
O 12.3383 -13.1169 -9.4553
H 12.985 -13.8793 -9.43089
H 11.6731 -13.2673 -10.1867
O 8.84408 -6.19013 9.49709
H 9.19051 -6.02086 8.57437
H 8.90277 -7.16737 9.7011
O 13.8603 3.43722 14.5329
H 12.9266 3.65454 14.8175
H 13.8514 2.6204 13.956
O 4.38796 5.75833 1.92547
H 4.04977 5.98526 2.83881
H 5.34668 5.48007 1.98464
O 5.31098 -7.72309 7.27973
H 5.44437 -6.85725 6.79743
H 5.86397 -8.43471 6.84629
O -4.33257 5.92933 -11.9785
H -3.75367 6.61426 -12.421
H -4.75204 5.34716 -12.675
O -7.83939 -12.8621 0.0741397
H -7.07125 -12.613 0.664063
H -7.96471 -13.8541 0.0910744
O 6.16416 -6.44031 13.9558
H 5.40988 -7.01232 14.2781
H 6.18248 -5.58752 14.4778
O 13.3615 9.47701 12.1704
H 12.6877 10.1045 11.7802
H 14.1507 9.41327 11.5594
O -8.62756 -3.09463 14.5114
H -7.70785 -3.02447 14.8977
H -8.94182 -2.1873 14.2319
O -12.3279 13.9802 -5.32505
H -11.4336 13.6172 -5.06314
H -12.215 14.6417 -6.06652
O 4.58172 -11.9223 -9.58146
H 4.47983 -11.212 -8.88489
H 3.98603 -12.6944 -9.35987
O -9.42702 8.93598 -5.0974
H -8.74701 8.20443 -5.14732
H -8.96522 9.81098 -4.95185
O -5.65088 -10.4548 6.86226
H -4.83747 -9.87479 6.81684
H -6.45178 -9.89054 7.06294
O -0.962378 -13.8198 -9.78759
H -0.665703 -14.4028 -9.03121
H -1.52463 -13.0731 -9.43216
O -10.4215 -1.38874 -0.795406
H -11.1464 -2.06805 -0.909622
H -10.7749 -0.482103 -1.02601
O 7.90237 -1.09004 1.78367
H 7.30146 -1.23011 0.996673
H 8.79062 -0.754911 1.46936
O -13.1189 5.91389 10.0295
H -12.9439 5.07045 9.52149
H -12.2771 6.21308 10.4789
O 2.99235 10.4072 1.57759
H 2.0977 10.1495 1.94266
H 3.49875 9.58305 1.32375
O 3.36808 -13.4298 -13.9357
H 3.8917 -12.5828 -14.0277
H 3.94148 -14.132 -13.5135
O 11.0291 -1.08391 2.82849
H 11.015 -0.134981 3.14376
H 11.0182 -1.10318 1.82869
O 5.73192 -5.73827 -0.976643
H 5.79861 -4.97978 -1.62495
H 6.10978 -5.45697 -0.0945034
O -4.43419 8.12286 -4.13331
H -3.53829 7.77621 -4.41128
H -4.73861 7.63951 -3.31248
O 14.1078 3.11872 -7.8467
H 14.5009 3.85509 -8.39743
H 14.7976 2.41062 -7.69581
O 10.4487 -12.6536 -7.08005
H 10.8169 -12.6171 -8.00911
H 10.0577 -11.7647 -6.84126
O 13.082 13.8933 8.05722
H 12.8735 14.6924 7.49319
H 13.0742 14.1553 9.02229
O -1.20154 -10.6509 -7.9669
H -2.19742 -10.6497 -8.058
H -0.922382 -11.4029 -7.3697
O 12.274 6.18782 1.91986
H 11.9145 6.58993 2.76194
H 12.8632 6.85138 1.4587
O 1.19112 7.98069 3.00066
H 0.843998 7.21597 2.45772
H 1.91115 7.65475 3.61336
O -1.9044 -1.61831 -7.50799
H -1.83043 -1.81651 -8.4854
H -1.11337 -1.99987 -7.02971
O 5.95756 -2.28693 13.4955
H 5.75796 -1.34119 13.7521
H 5.94295 -2.86397 14.3122
O -6.34049 4.46483 7.27424
H -6.41723 4.19934 8.23534
H -6.69512 3.72995 6.69609
O -8.59542 4.97098 -12.8229
H -8.79579 4.00534 -12.6572
H -8.22985 5.38352 -11.9885
O -12.8514 -5.95318 -15.0585
H -11.9619 -5.88656 -14.6065
H -12.7315 -6.33204 14.243
O 2.42683 -11.8083 2.2069
H 2.02928 -10.9353 2.48955
H 1.69815 -12.482 2.08353
O -6.80896 -2.92055 -9.49951
H -6.7505 -3.34102 -8.59405
H -7.43411 -3.44992 -10.0731
O -3.622 -5.21499 -6.69171
H -3.85478 -4.28945 -6.99048
H -2.71907 -5.2093 -6.26187
O 11.1659 10.5656 14.8141
H 11.4965 9.73343 14.3688
H 11.1666 11.3186 14.1561
O -11.8928 -3.35677 13.7598
H -11.0407 -3.01793 14.1588
H -11.8522 -4.35307 13.6836
O 6.09904 10.339 -4.78295
H 5.36641 9.85349 -5.25999
H 5.73781 11.1849 -4.39031
O -11.9958 12.9228 14.801
H -12.4832 12.9221 13.9277
H -11.7811 13.8639 15.0621
O 8.67358 -12.9746 5.49665
H 8.04048 -13.6084 5.94107
H 8.60927 -12.0777 5.93419
O -12.6154 -7.4103 7.31862
H -12.6974 -7.60945 8.2952
H -12.8165 -8.23632 6.79198
O -4.34364 5.21232 -8.59599
H -4.85489 6.03498 -8.8448
H -4.85592 4.69645 -7.90931
O -2.47186 12.6617 -11.9476
H -2.26713 11.961 -12.6311
H -1.63132 13.146 -11.7046
O 13.2865 14.6247 -9.30209
H 13.4435 13.8234 -8.72464
H 12.8933 14.3348 -10.1747
O 5.11216 14.691 12.0674
H 4.6144 -14.919 12.6848
H 5.7829 -14.9999 11.5469
O 6.57197 9.76546 -0.102011
H 7.18301 9.56974 -0.869076
H 5.81933 9.10697 -0.0989787
O 4.75149 -11.7538 11.1158
H 4.08266 -11.7662 11.8592
H 4.8415 -10.822 10.764
O -14.445 -12.7724 -2.7678
H -13.9513 -11.9165 -2.92155
H -14.1772 -13.441 -3.46166
O -9.64194 4.53863 -8.03027
H -10.1398 3.74356 -8.3768
H -9.85634 4.6703 -7.0624
O -6.82157 14.7423 -1.7698
H -5.84849 14.7638 -1.54021
H -6.94261 14.9879 -2.73164
O -0.17848 14.7388 13.8613
H 0.0333908 15.0268 14.7952
H 0.672334 14.5791 13.3606
O 6.93834 2.77309 1.61011
H 6.35293 3.47751 2.01155
H 7.30417 2.19034 2.33582
O 6.26014 9.90228 -12.6759
H 6.29559 10.6816 -12.0502
H 5.83548 10.1845 -13.5361
O 8.76743 -12.7996 -3.30501
H 8.08026 -12.3528 -3.87791
H 8.93667 -13.724 -3.6471
O 0.685403 -2.8529 -6.94258
H 0.414106 -3.80512 -7.0831
H 1.41704 -2.81172 -6.26207
O -0.596564 4.05965 13.444
H -1.49977 4.13252 13.8671
H -0.698372 3.80212 12.4831
O -1.96603 -6.44831 13.6473
H -1.84148 -5.49018 13.3893
H -1.07506 -6.86102 13.8368
O 14.4885 -10.7344 14.2781
H 13.5368 -10.5338 14.0452
H 14.9401 -11.1626 13.4953
O 12.4806 9.72575 -6.98989
H 11.7594 9.15314 -7.37985
H 12.5392 10.5828 -7.50191
O -7.90227 -6.64417 5.86016
H -8.26908 -6.73954 4.93473
H -8.59408 -6.23028 6.45191
O 11.1569 12.375 -0.661958
H 10.8975 11.4245 -0.832963
H 10.6232 12.978 -1.25495
O -2.86345 -2.53021 11.589
H -2.83641 -1.63948 11.1352
H -3.74388 -2.64303 12.0496
O -7.40873 -4.91019 -13.0996
H -8.08984 -4.1952 -12.9416
H -7.19393 -5.36296 -12.2341
O -1.82812 7.10668 -10.3747
H -2.45746 6.33501 -10.2822
H -1.89875 7.48571 -11.2974
O -6.05266 -0.703365 -11.1007
H -6.38034 -1.64819 -11.1039
H -6.17383 -0.31165 -10.1886
O -7.13455 -7.79548 12.4258
H -7.28672 -7.99442 11.4576
H -7.6243 -6.96006 12.6754
O 9.41589 8.07972 -14.685
H 9.1902 9.02489 -14.9212
H 9.19673 7.48197 14.7631
O -0.109272 -0.391805 8.91007
H 0.740457 -0.0829098 9.33741
H -0.0202136 -0.339805 7.91537
O -7.5122 -10.1866 -12.5567
H -6.82741 -9.46127 -12.4862
H -7.10959 -11.0546 -12.2658
O 6.01814 -15.0458 -3.3513
H 6.6887 -14.8299 -2.64149
H 5.16686 -14.5548 -3.16606
O -9.08717 13.1101 -1.16014
H -8.38858 13.7163 -1.54035
H -9.09191 13.1908 -0.163384
O 0.657865 -10.3927 9.327
H -0.121955 -10.9854 9.12532
H 0.486526 -9.47927 8.95785
O 9.79222 -1.70604 -0.94576
H 8.94542 -1.8795 -1.44868
H 9.75054 -0.799587 -0.525422
O -10.1553 -11.7984 1.85805
H -11.1297 -12.0112 1.93184
H -9.74318 -12.3662 1.14544
O 14.3675 8.86555 -5.16056
H 13.5103 9.20518 -5.54789
H 14.5872 7.9776 -5.56472
O -8.75674 -12.9296 -2.8211
H -8.57538 -12.7496 -1.85426
H -8.30503 -13.7796 -3.09239
O -14.2306 13.9009 -7.83211
H -13.5248 13.2089 -7.68032
H -14.969 13.7748 -7.16955
O -11.2511 -5.97124 12.4879
H -10.9268 -6.37711 11.6334
H -10.4694 -5.7647 13.0765
O 9.92541 9.76318 -0.698897
H 9.60305 10.1407 0.169207
H 10.3153 8.8555 -0.543337
O -7.80046 -4.33373 10.6393
H -7.04767 -4.11513 10.0184
H -8.57111 -4.69537 10.1146
O -1.15079 10.0481 9.27231
H -0.687854 9.60808 8.5028
H -0.557406 10.0229 10.0769
O -6.40021 10.444 -14.5185
H -6.93465 11.232 -14.2127
H -5.5836 10.3536 -13.9484
O 4.14901 -6.14387 3.08741
H 4.56753 -6.98129 2.73579
H 3.16701 -6.28797 3.20979
O 3.85338 -9.71876 -3.29924
H 4.52352 -8.99956 -3.11558
H 2.94439 -9.40551 -3.02411
O 13.2995 10.9629 0.549113
H 13.9318 11.526 1.08129
H 12.7757 11.546 -0.0718537
O -4.46064 -6.21514 8.44261
H -3.62826 -6.76462 8.36988
H -4.56767 -5.89525 9.38404
O 10.5599 -6.18036 -3.06629
H 10.7888 -5.77967 -3.95348
H 10.8561 -5.56468 -2.33605
O 1.83332 -4.78133 -9.85589
H 2.46384 -4.20218 -9.33905
H 0.905975 -4.66469 -9.50023
O -5.70801 9.16538 -7.8029
H -6.70487 9.20234 -7.73228
H -5.44557 8.43939 -8.43862
O -11.5885 6.23384 12.3248
H -12.4867 5.80975 12.4404
H -11.1185 6.26486 13.207
O -8.04997 -13.4523 -8.45864
H -8.97053 -13.8046 -8.62759
H -7.37516 -14.1353 -8.73843
O 3.20867 3.96721 -12.2474
H 3.27162 4.78404 -12.8209
H 3.88795 4.02073 -11.5154
O -3.8804 -7.86965 -11.6254
H -4.54198 -7.46603 -10.9934
H -4.29991 -8.64575 -12.0963
O -14.4081 -14.5761 -4.91655
H -13.8326 14.826 -4.94958
H -13.9441 -13.8226 -5.38249
O -9.42908 13.059 -4.41594
H -9.86391 13.1638 -3.52151
H -8.59425 12.5169 -4.31926
O 10.6316 -7.17083 -10.2223
H 9.93843 -6.99612 -9.52291
H 10.1914 -7.24179 -11.1174
O -7.74626 1.55898 8.50924
H -7.70888 2.04777 7.6376
H -8.6917 1.52789 8.83369
O 9.43515 12.5903 -13.1614
H 9.42348 12.9106 -14.1087
H 10.2098 11.972 -13.0282
O 1.87448 6.25543 -8.30344
H 1.35815 5.94913 -9.10323
H 1.75204 7.24085 -8.18501
O -5.14567 -10.4128 -0.0834293
H -5.86914 -9.76957 -0.334205
H -5.49552 -11.0607 0.593313
O -7.32566 -3.21418 3.02975
H -7.10802 -2.85455 2.12235
H -7.60811 -4.17022 2.95044
O 6.3458 6.89259 5.8782
H 6.09203 7.76229 6.30162
H 7.04976 6.44586 6.43043
O 11.9338 -13.8068 -1.83048
H 12.2865 -13.4968 -2.71341
H 12.6041 -14.409 -1.39667
O -12.8122 8.18558 -8.48652
H -12.9933 8.53425 -9.40615
H -13.1172 7.23523 -8.42431
O 4.86797 -11.1657 4.84731
H 5.51149 -10.4007 4.87383
H 5.2396 -11.8941 4.27159
O 13.9203 8.52166 14.6724
H 14.3506 9.21932 -14.974
H 13.8366 8.86396 13.7365
O -8.31753 12.0877 13.0303
H -7.61166 11.4572 12.7073
H -8.11234 13.0116 12.7072
O 5.49638 -3.62063 2.21306
H 4.79715 -4.11216 2.73225
H 6.17226 -4.27076 1.8658
O 5.56035 -9.06688 -12.6346
H 4.93111 -8.30527 -12.7898
H 6.0525 -8.92298 -11.776
O 13.9355 -13.1292 -14.8578
H 13.783 -13.1503 -13.8697
H 14.2009 -12.2056 15.0848
O 1.99818 -7.57173 3.54407
H 1.26754 -7.18921 4.10969
H 1.61037 -7.925 2.69268
O 11.3738 7.40758 -3.73612
H 11.4125 8.39378 -3.57489
H 12.0854 6.95397 -3.1996
O 11.9351 4.32644 -9.85835
H 12.3881 4.69885 -9.04831
H 12.6132 3.88526 -10.4463
O -7.11047 -13.3131 12.9262
H -7.65315 -12.8753 13.6431
H -7.58854 -13.2347 12.0514
O -13.681 -12.6565 -12.5887
H -13.8785 -13.5783 -12.2549
H -14.4909 -12.0807 -12.4762
O 1.44053 -5.88655 10.4938
H 0.654367 -5.32485 10.2359
H 1.62715 -5.77085 11.4695
O 13.6923 -1.38771 -1.36147
H 13.0506 -0.79489 -1.84819
H 14.2307 -0.840815 -0.720289
O -4.64944 -11.3334 -6.25215
H -4.38947 -11.0166 -7.16437
H -4.82608 -10.5447 -5.6632
O -3.82165 0.251998 8.33509
H -3.73995 -0.330893 7.52661
H -2.98394 0.188826 8.8776
O 3.23207 6.81792 10.6673
H 4.15446 6.4434 10.5724
H 2.81923 6.47718 11.512
O -2.15672 5.15161 10.0124
H -2.40836 5.52224 9.11833
H -2.50086 5.7547 10.7321
O -9.45305 -1.18283 -9.6927
H -10.287 -0.853752 -10.1358
H -8.65651 -0.762411 -10.1273
O -3.46821 2.95613 10.8606
H -3.29806 2.08525 10.3994
H -2.79502 3.63079 10.5577
O -5.39307 -5.68158 5.96476
H -6.0249 -6.44006 6.12463
H -4.78721 -5.58045 6.75393
O 9.28691 -10.3759 -6.37524
H 8.54249 -9.7082 -6.38109
H 9.2986 -10.8544 -5.49717
O -0.235577 -12.2894 14.1852
H -0.451041 -13.1787 13.7818
H -0.692453 -11.5678 13.6649
O -6.11762 4.66996 10.0895
H -6.23702 5.6598 10.0119
H -5.14664 4.44411 10.0103
O 1.59539 -11.3258 -4.16075
H 1.41236 -10.414 -3.79305
H 2.51708 -11.612 -3.89877
O -10.5465 7.77897 4.26603
H -11.5029 7.59271 4.04107
H -10.4755 8.6752 4.70398
O 5.64949 0.214473 3.11999
H 4.85699 -0.394375 3.08367
H 6.44142 -0.24484 2.71756
O 4.3886 -9.49165 -8.29256
H 3.60848 -9.18403 -7.74771
H 4.26089 -9.21309 -9.24449
O -4.2218 -14.3431 -9.46352
H -3.96332 -14.9813 -8.73821
H -3.71067 -14.5593 -10.2954
O -0.50093 -9.37937 6.37428
H 0.372711 -9.15595 6.80661
H -0.544184 -10.363 6.19896
O 4.56702 -8.95696 2.50318
H 5.34754 -9.39475 2.05685
H 3.99981 -9.65404 2.94184
O -14.8082 10.4062 -14.3693
H -14.4464 10.878 -13.5653
H -14.0573 9.97247 -14.8673
O 10.1901 3.04678 -2.32604
H 10.8419 3.39257 -1.65109
H 9.31085 2.8737 -1.88209
O -3.45949 -5.61055 -13.6061
H -3.53385 -6.18563 -14.4209
H -3.69565 -6.14769 -12.7963
O -6.87906 2.21133 5.30446
H -7.57538 1.50503 5.43236
H -7.0616 2.70976 4.45693
O 7.49564 8.58349 -2.73723
H 8.22371 8.10921 -3.23224
H 6.89868 9.0507 -3.38949
O 7.57565 -12.9719 13.5939
H 7.56361 -11.9721 13.6155
H 7.28991 -13.3279 14.4837
O 5.43653 -0.923193 -4.05357
H 5.09994 -0.939831 -4.99511
H 5.87526 -0.0430821 -3.87193
O -3.59577 4.78866 -3.48896
H -3.23344 4.44975 -2.62067
H -4.09579 4.0557 -3.95029
O 12.3887 7.40712 6.9014
H 11.7159 6.8415 7.37839
H 13.2313 6.88447 6.77122
O -5.22008 14.4072 7.12803
H -5.7654 -14.9849 7.26384
H -4.44177 14.6146 6.53534
O -9.82791 8.10876 7.80014
H -9.71656 7.6309 6.92875
H -10.693 8.61039 7.79703
O 13.4854 8.28918 0.362895
H 14.0005 7.96399 -0.430185
H 13.4759 9.28917 0.366988
O -3.44285 -12.6397 -15.0277
H -3.28211 -11.738 14.7901
H -2.98382 -12.6964 -14.141
O -3.1798 -3.84395 5.0415
H -4.04381 -4.33621 5.14751
H -2.62161 -4.29632 4.3459
O 6.0954 -4.40176 -3.75059
H 5.37484 -3.73434 -3.56241
H 6.98535 -4.00269 -3.52966
O -4.35436 1.65506 -13.6378
H -4.18904 2.32144 -14.3649
H -5.33755 1.58121 -13.4705
O -12.4157 4.16937 -1.06885
H -12.3993 4.44692 -0.108242
H -12.2642 3.18299 -1.13345
O 1.01183 6.56301 -1.95091
H 0.0773179 6.58739 -1.5957
H 1.0122 6.85224 -2.90821
O -14.8775 7.35002 -2.25954
H -15.096 7.85046 -3.09733
H 14.714 6.57813 -2.15901
O 6.66589 6.20573 -1.43053
H 5.75553 5.79694 -1.36556
H 6.60017 7.09581 -1.88164
O 9.74044 -13.8597 -14.3482
H 9.82311 -13.0242 -14.8915
H 8.93847 -13.7933 -13.7545
O -6.818 6.15743 0.246966
H -7.52354 6.18431 0.955177
H -5.97504 5.77999 0.630403
O 7.43695 4.83045 -11.9839
H 7.36946 5.71092 -12.4533
H 7.62577 4.11037 -12.6517
O 6.48397 -10.9061 1.78876
H 7.42581 -11.1495 1.55684
H 5.95424 -11.739 1.94891
O -2.40776 -9.15705 -1.32846
H -2.37131 -9.7663 -2.12065
H -2.51455 -9.69968 -0.495267
O -13.1866 3.50906 8.48259
H -14.0892 3.07905 8.50667
H -12.5433 2.90745 8.00902
O 4.67996 11.7611 3.35264
H 3.93381 11.7291 2.68758
H 5.46819 11.2613 2.99356
O -1.41402 -6.99518 -10.6153
H -2.25509 -7.36535 -11.0098
H -0.80506 -7.74722 -10.363
O 5.71671 12.4835 10.5117
H 5.41796 13.2901 11.0218
H 6.29254 12.7682 9.74522
O -15.0418 -14.4538 4.8327
H 14.4345 -14.354 5.4946
H 14.8523 -14.9734 4.04252
O -6.54177 -4.21301 -6.5611
H -7.07765 -3.79615 -5.82685
H -5.58877 -3.91926 -6.48632
O -0.723623 10.8766 13.3687
H -1.38599 11.6234 13.4299
H 0.186599 11.252 13.1935
O -4.33246 5.47669 0.983242
H -4.4241 4.52601 1.27971
H -3.48822 5.86211 1.35577
O 4.44193 8.15221 0.346519
H 4.15219 7.98588 -0.596064
H 4.3705 7.30422 0.871758
O -11.3696 4.48827 -10.6044
H -10.7248 5.25006 -10.541
H -10.9765 3.76536 -11.1728
O -2.16672 13.8087 3.35844
H -1.30764 13.3141 3.49033
H -2.23626 14.1081 2.40681
O 6.67963 -2.01007 10.885
H 6.79699 -2.97112 10.6346
H 6.37852 -1.94789 11.8366
O -2.80893 -13.2397 -3.22246
H -1.94363 -13.4076 -2.7501
H -2.73635 -13.5484 -4.17087
O 13.6765 -7.09006 8.55223
H 12.9871 -7.15719 7.83091
H 14.2098 -6.25342 8.42682
O -10.4112 10.8858 -9.64523
H -10.0381 11.7158 -10.0599
H -10.2709 10.1123 -10.2633
O 6.64211 10.1533 2.71354
H 6.56033 9.9809 1.73187
H 7.03502 9.35009 3.16141
O 2.72879 0.684271 -5.33648
H 3.44801 1.34704 -5.12781
H 3.14284 -0.164037 -5.66665
O -3.4657 8.40927 14.1275
H -3.26695 8.92174 13.292
H -4.10603 8.92911 14.693
O -4.61462 -6.99442 14.0005
H -5.19786 -7.37589 13.2833
H -3.67783 -6.91293 13.6601
O -11.8832 -13.8607 -6.51058
H -10.9564 -14.2111 -6.64564
H -11.8685 -13.1362 -5.8214
O -13.5839 2.39154 11.1766
H -12.727 2.66671 10.7406
H -13.9277 1.55983 10.7405
O -6.81886 7.48947 6.34388
H -6.0512 7.08241 6.83893
H -6.47287 8.14797 5.67549
O 5.30899 -12.0965 -6.19053
H 4.97562 -11.1537 -6.18522
H 4.84369 -12.6105 -6.91119
O -12.6497 -12.9133 2.48914
H -13.3605 -12.7657 1.80129
H -12.5561 -13.893 2.66669
O -3.42776 2.99877 -10.9122
H -3.32022 2.71798 -11.866
H -3.65693 3.97148 -10.8749
O 1.97883 13.1577 -1.90247
H 1.19027 12.9415 -1.32671
H 2.78816 12.6883 -1.54922
O 9.45146 7.95554 -5.52774
H 9.94397 7.59904 -4.73375
H 9.53662 8.95162 -5.55314
O -12.9061 -2.66045 -0.847398
H -12.4908 -3.51785 -0.543232
H -13.0618 -2.6973 -1.83454
O -0.871913 -5.99009 -13.2725
H -1.80287 -5.86203 -13.6145
H -0.898825 -6.15524 -12.2865
O -13.6684 -2.38498 -6.73338
H -13.9217 -2.39591 -7.70074
H -13.8 -1.46475 -6.36472
O 13.4386 9.70019 9.12998
H 14.2894 10.1986 8.96359
H 12.6614 10.3178 9.00909
O -7.22785 13.8963 2.75168
H -7.8661 13.3628 2.19657
H -7.32326 13.6356 3.71241
O 15.0367 1.33611 -13.5696
H -14.1957 1.24622 -13.7041
H 14.5847 1.41182 -14.4585
O 12.0894 6.2442 -11.9545
H 12.8871 6.77674 -11.6715
H 11.7751 5.68226 -11.1893
O -2.43381 12.7382 14.5627
H -1.86303 13.3884 14.0612
H -3.31718 13.1595 14.7682
O 6.01148 -3.9494 -14.7063
H 6.64864 -4.18767 -13.9733
H 5.12552 -3.7056 -14.3117
O 0.388889 -6.36472 5.27811
H -0.400037 -5.77886 5.09253
H 0.282592 -6.79249 6.17577
O -14.2106 -13.3374 9.56093
H -13.6763 -14.0067 9.04451
H -14.3008 -12.4979 9.0251
O -9.16617 2.19511 12.4624
H -9.64553 1.41832 12.0539
H -8.50591 1.86261 13.1358
O 1.90202 -14.6886 4.32728
H 1.99498 -14.5935 3.33612
H 2.24691 -13.8637 4.7751
O 2.81721 -8.03423 6.28598
H 2.59325 -7.99017 5.31234
H 3.81013 -8.00444 6.40129
O -14.1821 5.75444 -8.38558
H -13.5273 5.32614 -7.76281
H -13.8638 5.6494 -9.32776
O -1.17504 8.24174 -8.00453
H -1.15622 7.44245 -7.40381
H -1.06082 7.94814 -8.95365
O 2.62181 10.9697 -6.79606
H 2.55455 11.1463 -5.81404
H 2.7094 11.8374 -7.28553
O -5.11042 -5.71913 11.321
H -5.93818 -5.19523 11.12
H -4.5894 -5.25688 12.0386
O -10.6168 -14.6883 12.7232
H -11.3223 -14.1166 12.3043
H -10.1805 -14.1859 13.4697
O -3.13323 -10.3203 13.8544
H -3.86022 -10.3264 13.1677
H -2.25153 -10.176 13.4051
O 12.5952 -8.92422 0.118117
H 12.7618 -8.55444 -0.795981
H 12.4644 -9.91388 0.0585985
O -8.80435 -2.50856 -5.34958
H -9.31116 -2.80576 -6.15883
H -9.32296 -2.74222 -4.52707
O 13.1215 2.44817 -11.402
H 13.108 1.45574 -11.2796
H 14.0684 2.76325 -11.4662
O 10.467 7.43906 12.0302
H 10.7193 6.75173 12.7114
H 11.2935 7.7966 11.5954
O -5.71435 7.36668 -9.89751
H -6.62135 6.9595 -10.0053
H -5.12685 7.0767 -10.653
O 6.29236 13.4356 14.1707
H 5.93458 13.7465 13.2901
H 5.74438 12.6668 14.5005
O -0.902694 9.81593 0.0732552
H -0.548953 9.57174 0.976202
H -1.79371 9.38309 -0.063899
O 0.382108 10.5067 3.03849
H -0.130205 10.8452 3.82782
H 0.581109 9.53455 3.16223
O 10.9456 -5.41624 -5.87221
H 11.0017 -6.40797 -5.98794
H 10.4499 -5.01811 -6.64409
O -14.1104 -10.7222 8.53506
H -13.7338 -10.4519 7.64898
H -13.6242 -10.2412 9.26467