LAMMPS (15 May 2015)
Reading data file ...
  orthogonal box = (-14.9458 -14.9458 -14.9458) to (14.9458 14.9458 14.9458)
  2 by 2 by 5 MPI processor grid
  reading atoms ...
  2611 atoms
  reading velocities ...
  2611 velocities
  scanning bonds ...
  3 = max bonds/atom
  scanning angles ...
  3 = max angles/atom
  scanning dihedrals ...
  8 = max dihedrals/atom
  scanning impropers ...
  1 = max impropers/atom
  reading bonds ...
  1749 bonds
  reading angles ...
  894 angles
  reading dihedrals ...
  44 dihedrals
  reading impropers ...
  10 impropers
Finding 1-2 1-3 1-4 neighbors ...
 Special bond factors lj:   0          0          0         
 Special bond factors coul: 0          0          0         
  4 = max # of 1-2 neighbors
  8 = max # of 1-3 neighbors
  20 = max # of 1-4 neighbors
  16 = max # of special neighbors
2611 atoms in group all
2592 atoms in group water
19 atoms in group naph
864 atoms in group O
1728 atoms in group H
8 atoms in group C
8 atoms in group He
2 atoms in group S
1 atoms in group Na
Setting atom values ...
  864 settings made for charge
Setting atom values ...
  1728 settings made for charge
Setting atom values ...
  2 settings made for charge
Setting atom values ...
  8 settings made for charge
Setting atom values ...
  8 settings made for charge
Setting atom values ...
  1 settings made for charge
Finding 1-2 1-3 1-4 neighbors ...
 Special bond factors lj:   0          0          0.5       
 Special bond factors coul: 0          0          0.5       
  4 = max # of 1-2 neighbors
  8 = max # of 1-3 neighbors
  20 = max # of 1-4 neighbors
  16 = max # of special neighbors
Finding SHAKE clusters ...
  0 = # of size 2 clusters
  0 = # of size 3 clusters
  0 = # of size 4 clusters
  864 = # of frozen angles
PPPM initialization ...
  G vector (1/distance) = 0.249226
  grid = 20 20 20
  stencil order = 5
  estimated absolute RMS force accuracy = 0.00369187
  estimated relative force accuracy = 1.1118e-05
  using double precision FFTs
  3d grid and FFT values/proc = 3179 400
Neighbor list info ...
  6 neighbor list requests
  update every 1 steps, delay 0 steps, check yes
  master list distance cutoff = 14
Setting up run ...
Memory usage per processor = 14.9131 Mbytes
Step Temp PotEng Density E_vdwl E_tail E_coul E_long ljcoul born water naph Press Volume 14[1] 14[2] 14[3] msd[4] msd2[4] msd3[4] msd4[4] Lx Ly Lz E_mol E_bond E_angle E_dihed Cella Cellb Cellc 
       0    296.31967   -8547.8837   0.97644921    1492.0931    -21.58751    30623.582   -40671.712    32085.302    51.960752   -8583.2935    56.997355    223.47796    26708.402   -2.2046001   -1.7783688   -2.1075357 2.8907779e-30 2.6249037e-30 2.911968e-30 3.4330058e-30     29.89161     29.89161     29.89161    8.1538225    2.6095331    1.1212219    4.2831951     29.89161     29.89161     29.89161 
   10000    292.95683   -8554.8873   0.95674515    1506.2806   -21.151889    30596.074   -40669.051    32103.001    20.505604   -8562.8714    29.135974    475.86464    27258.458   -2.9647095   -1.6588181   -2.4341134    13.520944     12.82255    13.552358    12.844605    30.095421    30.095421    30.095421    11.808769    3.9822369    3.1773364    3.7628459    30.095421    30.095421    30.095421 
   20000    293.40348   -8485.8882   0.94883152    1371.7521   -20.976933    30798.386   -40672.322    32172.056    19.058464   -8498.3321    33.420831   -569.10528    27485.805   -3.3026962   -2.1314295   -3.1926297    27.156134    24.677276    27.284689    24.769567    30.178859    30.178859    30.178859     16.29624    5.3582699    6.9549286    3.4047219    30.178859    30.178859    30.178859 
   30000    302.80992   -8544.0553   0.96722823     1432.639   -21.383651    30680.427   -40672.454    32111.947    22.502982   -8555.5322    32.860546   -96.959258    26963.024   -3.0101615   -2.9081868   -3.6766755    39.658217    35.163868     39.90467    35.341693    29.986299    29.986299    29.986299    15.332933    4.9317236    3.3432103    5.8744278    29.986299    29.986299    29.986299 
   40000    294.57391   -8553.7328   0.95557802    1478.4564   -21.126086    30618.366   -40669.611    32097.707    20.241007   -8569.7063    37.099603      77.4215    27291.751   -2.5937377   -4.1140503   -3.9096454    55.458062    46.326376    55.760931    46.532447    30.107669    30.107669    30.107669    19.056151     5.773733    3.9814857    8.1761839    30.107669    30.107669    30.107669 
   50000    290.09711   -8481.0643   0.96157486    1408.5943   -21.258665    30761.807   -40670.705    32170.031    21.628745    -8495.108    35.302427   -321.98827    27121.547   -1.1989584   -5.1265846   -3.9144029    73.863298    58.162527    74.266588    58.338838     30.04495     30.04495     30.04495    19.239748    7.3012555    4.6436945    6.1897166     30.04495     30.04495     30.04495 
   60000    308.71004    -8449.973   0.94581317    1477.0034   -20.910203    30722.859   -40668.336     32193.63    27.143317   -8464.9205    35.857733    8.2941768    27573.519 -0.066941381   -5.9809445   -3.8761669    96.794956    71.092538    97.388365    71.354079    30.210928    30.210928    30.210928    18.499915    8.2104711    5.7255617    3.9472993    30.210928    30.210928    30.210928 
   70000    293.07799    -8593.247   0.94702397    1515.3144   -20.936972    30551.945   -40674.072    32071.433    16.763736   -8601.8863     29.57628    373.30199    27538.266  -0.21602908   -6.4710011   -3.9557654    112.73131    82.908793     113.4584    83.187233    30.198047    30.198047    30.198047    13.564885    4.5203871    4.6963174     3.999426    30.198047    30.198047    30.198047 
   80000     292.3669   -8557.3687   0.95144887    1450.5944   -21.034798    30649.307   -40670.347    32103.845    17.091517   -8563.9576    27.623712   -389.22231    27410.194  -0.83441365   -6.7822049   -3.9415729    129.01831    98.231919    129.88043    98.663624    30.151161    30.151161    30.151161    13.076812    6.4630797     2.692458    3.4064985    30.151161    30.151161    30.151161 
   90000    294.03071    -8476.553   0.93953543    1478.1876   -20.771414    30697.159   -40669.856    32173.599    22.519181   -8491.4647    35.683121    9.3040906    27757.759   -1.0960684   -6.9064265   -3.9089966    142.76641    111.67856    143.66051    112.16139    30.278066    30.278066    30.278066    17.955947    7.4369468    4.1921894    5.3781964    30.278066    30.278066    30.278066 
  100000    298.52825   -8517.0931   0.95406617    1441.3422   -21.092662    30701.539   -40675.185      32142.5    21.473541   -8528.1489    32.148463   -188.42202    27334.999   -1.1931963   -6.4036695   -4.3315112    153.52495    125.93827    154.56124    126.55021    30.123564    30.123564    30.123564    15.210429     3.763676    4.6621474    6.0576303    30.123564    30.123564    30.123564 
  110000    309.70447    -8454.255   0.94333237    1517.7321   -20.855357    30681.492   -40671.466    32204.586    15.493917    -8465.181    31.781344    489.01766    27646.033   -1.4952277   -6.2227817   -5.3020373    167.56582    136.92089     168.7243     137.6609    30.237388    30.237388    30.237388    17.986152    9.1315214    4.3392205     3.909978    30.237388    30.237388    30.237388 
  120000    293.18288   -8534.0745   0.94353835     1361.976   -20.859911    30758.271   -40669.962    32118.872     22.23476   -8545.7885     32.57388   -1064.9857    27639.998   -2.0019566   -6.5553085   -5.4886077    180.84578    146.47256    182.07913    147.27966    30.235188    30.235188    30.235188    15.639996    5.4553452     4.254423    5.0672759    30.235188    30.235188    30.235188 
  130000    302.26128   -8504.0538   0.95204713    1483.5864   -21.048024    30671.397   -40673.476    32158.202    17.829917   -8513.1808    30.174956    222.57817    27392.969   -2.4262352   -6.5612822   -4.9000443    188.10408    156.92316     189.4048    157.81671    30.144844    30.144844    30.144844    14.439102    5.8135397    3.1582023    4.9886675    30.144844    30.144844    30.144844 
  140000    298.77563   -8502.0468     0.950576    1449.5715     -21.0155    30704.557   -40671.202    32150.212    24.932019   -8513.8079     32.77657    6.1460061    27435.363   -3.2314175   -5.6152596   -4.5932438     190.1574    167.88031    191.43197    168.82375    30.160387    30.160387    30.160387    15.026734    7.3115134    2.6641296    4.1594041    30.160387    30.160387    30.160387 
  150000    284.24185   -8556.2853   0.95511391    1364.9751   -21.115825    30736.471   -40670.916    32100.762    21.800142   -8566.5583     31.38879   -821.15836    27305.013   -4.2685551   -4.7614375   -4.5618966    202.95154    183.58745    204.34545    184.63835    30.112545    30.112545    30.112545    13.184935    5.8160663    2.4407662    4.5852868    30.112545    30.112545    30.112545 
  160000    295.76909    -8523.157   0.95033078    1493.4328   -21.010079    30641.529    -40672.35    32135.709    20.262823   -8532.3533    30.206332    220.41071    27442.443   -5.0379654   -4.0151177   -4.9332254     217.6245    196.25343    219.05689    197.37636    30.162981    30.162981    30.162981    14.230884    6.3728611     3.398235    3.7069079    30.162981    30.162981    30.162981 
  170000    305.17674   -8554.6457   0.94913374    1490.3204   -20.983615    30602.234   -40664.873    32094.911    18.627335   -8567.1527    33.490646    51.772586    27477.053   -4.4809565   -3.6667338   -5.1557109    227.04121    208.75603     228.5649    210.02223    30.175656    30.175656    30.175656    17.672851    10.219561    5.3896987    1.8486029    30.175656    30.175656    30.175656 
  180000    292.72329    -8546.334      0.94922    1492.5785   -20.985522     30625.09   -40676.091    32115.056    23.598421   -8556.1985    30.850005    200.66639    27474.556   -3.3971774   -3.7298211   -5.1573028    233.27478    218.64008    234.82764    219.97894    30.174742    30.174742    30.174742    12.088532    4.8587856     3.603825    3.1277813    30.174742    30.174742    30.174742 
  190000    299.16328   -8520.1141   0.94729185    1415.5291   -20.942894     30722.37   -40671.182    32145.077    13.764733   -8526.2078    27.036571   -475.70291    27530.479   -3.2892202   -3.3572852   -4.9964126    247.18328    235.25585    248.90098    236.80155    30.195201    30.195201    30.195201    13.168454    5.2325202    6.0991453    1.6565093    30.195201    30.195201    30.195201 
  200000    300.13983    -8439.353   0.94519742    1429.6339    -20.89659    30789.022   -40670.159    32221.138    18.414749   -8447.5928    29.136376   -104.36569    27591.482   -4.3328898   -2.3269585   -4.8539421      261.801      249.432    263.64333     251.0596    30.217487    30.217487    30.217487    12.150228    5.3585371    2.6141604    3.4816912    30.217487    30.217487    30.217487 
  210000    296.34881   -8591.6351   0.94964085    1632.6138   -20.994826    30437.268    -40673.49    32071.062     19.81442   -8599.2636    28.623299    1174.9282     27462.38   -5.5114229   -0.9484065   -4.8204823    271.77755    252.79788    273.74155    254.47008    30.170283    30.170283    30.170283    11.973713     4.846359    3.3268371    3.1111514    30.170283    30.170283    30.170283 
  220000    288.77153   -8518.1767   0.95651216    1443.5042   -21.146738    30693.853   -40673.669    32136.709    21.795465   -8532.8351    35.805216   -21.463863    27265.098   -6.0871571   0.09122828   -5.0626143    294.86933    267.56766    296.99044    269.32792    30.097865    30.097865    30.097865    18.135163    5.4074622    5.5839288    6.2147116    30.097865    30.097865    30.097865 
  230000    297.79406   -8565.1378   0.96200676      1460.21   -21.268214    30635.367   -40672.314    32095.413    21.432267   -8571.1112    27.241668   -58.026886    27109.371   -6.3637061   0.69315041   -5.4008309    311.70323    277.51854    313.85349    279.20586    30.040453    30.040453    30.040453    11.599244    7.1472787    1.8998049    2.0568364    30.040453    30.040453    30.040453 
  240000     295.9528   -8599.9152   0.94330795    1407.2637   -20.854817    30655.527   -40674.439    32067.648    15.997034   -8605.8865    26.826109   -611.93715    27646.749   -6.6472948    1.4034935   -5.9530524    335.68507    291.20333     337.9519    292.76596    30.237649    30.237649    30.237649     11.73344     3.110071    6.0215711    2.2382002    30.237649    30.237649    30.237649 
  250000    296.62286   -8588.9682   0.95826172     1450.962   -21.185418    30618.424   -40671.914    32069.353    21.218002   -8598.2748    30.492058   -151.04531    27215.318   -7.3685615    2.4466144    -6.412327    363.26828     300.2886    365.86232    302.09507    30.079537    30.079537    30.079537    13.560087    7.5348427    3.7660069    1.8683764    30.079537    30.079537    30.079537 
  260000    295.56501   -8531.7266   0.94174322     1413.086   -20.820224    30714.905   -40671.044    32125.415    23.395918   -8539.2856    28.379197    -680.0391    27692.684   -7.9790281    3.2455055   -5.8856211    388.83908    315.79709     391.6198     317.5602    30.254387    30.254387    30.254387    11.325917    5.4263245     2.710235    2.4862929    30.254387    30.254387    30.254387 
  270000    302.07629   -8564.8787   0.95042965    1453.1706   -21.012265    30642.633   -40673.406    32101.217    15.599056     -8572.13    28.263552    13.232424    27439.588   -8.5183496    3.3807312   -4.6768485    401.04243    328.00927    403.86318    329.74564    30.161935    30.161935    30.161935    12.723285    5.1442325    3.0613701    3.8898252    30.161935    30.161935    30.161935 
  280000    285.25114     -8639.29   0.95664464    1570.3563   -21.149667    30453.315   -40675.461    32025.042    19.778696   -8646.5453    28.404974    415.89772    27261.322   -9.1865852    3.4470367   -3.7807624    414.29041    335.38763    417.24322    337.11199    30.096475    30.096475    30.096475      12.5002    7.2341308     4.223166    0.8579033    30.096475    30.096475    30.096475 
  290000    303.36632   -8569.9526   0.94947245    1454.9382   -20.991103    30635.458    -40671.57    32090.301    21.086012   -8576.7642    27.802672   -169.40527    27467.251   -9.9005317    3.8265608   -3.5669978    447.00783    354.31329    450.24943    356.30099    30.172067    30.172067    30.172067    11.221614    5.7652788    2.2269732    2.9413342    30.172067    30.172067    30.172067 
  300000    299.90783   -8583.5779   0.94496947    1472.7584    -20.89155    30608.457   -40674.152    32083.854     18.25232   -8589.5361    26.849717   -8.5270838    27598.138   -10.039307    3.7918716   -3.7491832    459.33064    364.40511     462.6405    366.29721    30.219917    30.219917    30.219917    9.3585389    3.7973025    3.0129784    2.1609143    30.219917    30.219917    30.219917 
  310000    285.13997   -8498.1149   0.95481865     1415.304   -21.109298    30747.821   -40675.139    32160.238     23.99604   -8508.1832    31.177585   -517.35333    27313.457   -10.166276    4.0785894   -3.5752354     470.9622     371.0243      474.373     372.9302    30.115649    30.115649    30.115649    13.899728    4.3086285    6.4474954    2.7805738    30.115649    30.115649    30.115649 
  320000    291.65035   -8524.1206    0.9525175    1477.6773   -21.058424    30655.922   -40669.474    32126.191    28.466032    -8536.224    33.161879    89.611956    27379.442   -10.392779    4.9180268   -3.1792154     498.7843     385.5376    502.35226    387.40367    30.139881    30.139881    30.139881    11.754736    6.1320285    3.2110634    2.1400901    30.139881    30.139881    30.139881 
  330000    293.80021   -8513.2886   0.95561113    1476.1462   -21.126818    30670.194   -40672.875    32141.594    25.873199   -8523.0823    30.920538    13.174759    27290.806    -10.61026    5.7013637   -2.3806823    527.78557    401.12766     531.5065    403.05193    30.107321    30.107321    30.107321    13.246203    7.4003629    3.3675249       2.0392    30.107321    30.107321    30.107321 
  340000    296.08823   -8544.2201   0.97144429    1434.4142    -21.47686    30682.072   -40671.176    32118.321    19.641433   -8549.9894    27.246119    196.33787    26846.005   -11.173199    5.5929818   -1.5863521    546.11737    411.44792    550.00614    413.29031    29.942856    29.942856    29.942856    10.470503    5.7763208    2.5589782    1.9141189    29.942856    29.942856    29.942856 
  350000    295.62563   -8588.4818   0.96679494    1603.9488   -21.374072    30465.643   -40668.335    32066.822    24.144151    -8595.313    28.205217    1152.1862    26975.108    -11.98842    5.0659931  -0.28184918    568.97754    423.14386    573.05824    425.22751    29.990778    29.990778    29.990778    10.261387     4.474288    2.5663557    2.7670668    29.990778    29.990778    29.990778 
  360000    301.97156   -8496.2267   0.95555619    1497.6394   -21.125603    30665.211   -40670.846     32160.23    23.746078   -8505.8929    30.791788    349.33785    27292.375   -11.692707    4.9028062   0.76809646    583.27344    440.60522    587.41495     442.6476    30.107898    30.107898    30.107898    11.768042    5.0222119     3.972181     2.241063    30.107898    30.107898    30.107898 
  370000    291.20947   -8483.8048   0.96312048    1446.3265   -21.292836    30730.822   -40674.631    32178.398    20.043387   -8492.5234    30.011456    152.74069    27078.022   -11.015327    4.7576855    1.0248032    575.67626    445.03649    579.86188     447.2135    30.028869    30.028869    30.028869    13.676819    7.2012036     4.129934    2.1458878    30.028869    30.028869    30.028869 
  380000     299.7609   -8491.2224   0.94543755    1442.3901   -20.901899    30726.094   -40674.107     32172.39    16.995361   -8499.2279    28.907335   -167.45754    27584.474   -10.651526    4.7280861    1.0319272    589.20349    465.05476    593.44245    467.42361    30.214928    30.214928    30.214928    14.401134    5.4548734    2.8947944    5.3607624    30.214928    30.214928    30.214928 
  390000     293.9029   -8379.4428   0.94018554    1363.8533   -20.785786    30916.431   -40671.935    32277.979    23.091817   -8389.1531    30.496031    -570.5095    27738.565   -10.308227    4.5174941   0.92865884    592.25051    477.21484    596.47154    479.74098    30.271086    30.271086    30.271086    12.207298    5.8934281    2.9581144    2.8937376    30.271086    30.271086    30.271086 
  400000    302.10704   -8474.3738   0.93065815    1394.1668   -20.575153    30791.365   -40670.476     32190.29    15.816926     -8479.21    25.411274   -561.60205    28022.532   -10.038462    4.2618375   0.65242454    604.00933    498.37125    608.28728    501.04305    30.374033    30.374033    30.374033    10.569788    6.7295707    1.8186739     1.741822    30.374033    30.374033    30.374033 
  410000    290.56649   -8583.2434   0.94831497     1455.239   -20.965513    30622.154   -40669.862    32078.635    19.723144   -8587.6879    25.410074   -308.46801    27500.776   -9.6869572    4.0929698   0.35237591    601.72603    504.62595    605.95645    507.43794    30.184338    30.184338    30.184338    9.2263308    3.5844459    2.5335846    2.7572349    30.184338    30.184338    30.184338 
  420000    290.50333   -8593.5434   0.96227681    1507.1346   -21.274184    30560.641   -40673.645    32062.242    26.807404    -8603.712    31.442791    16.151181    27101.763   -9.6965719     3.902053   0.21915737    603.98907    509.98106    608.31791    512.82407    30.037643    30.037643    30.037643    12.326549    4.7545911     3.537191    3.5583784    30.037643    30.037643    30.037643 
  430000    306.98355   -8431.9968   0.94921115    1516.4974   -20.985326    30704.154   -40668.879    32218.491    23.145091   -8444.4806    33.469101    681.18959    27474.812   -10.648928    3.8301283 -0.0081113819    630.65232    523.15737     635.1433    526.08433    30.174835    30.174835    30.174835    16.230854    6.8514131    4.3832348     4.040207    30.174835    30.174835    30.174835 
  440000     287.1366   -8514.2981   0.95305701    1409.8214   -21.070351    30736.164   -40676.147     32142.09    24.965851   -8525.7077    32.479937   -737.52237    27363.943   -11.443139    3.5544182 1.3004916e-05    649.15228    530.84609    653.78202    533.72743    30.134193    30.134193    30.134193    15.862978    8.8352816    3.8161737    3.0552703    30.134193    30.134193    30.134193 
  450000    298.43587   -8525.6564   0.95567624    1411.0127   -21.128257    30719.662   -40669.032    32129.328    22.475057   -8535.7607    31.232496    -320.1654    27288.947   -11.426887    3.1987059   0.44824196    657.95242     541.4189    662.67857    544.35736    30.106638    30.106638    30.106638    12.700289    4.6892001    2.8451386    4.1739686    30.106638    30.106638    30.106638 
  460000    289.15038   -8499.4972   0.93942869    1526.9904   -20.769054     30637.52    -40673.68    32162.472    22.807361   -8504.9279    26.199737     247.7092    27760.913   -11.443583    2.8525725   0.90937744    679.20245    562.97138    684.05752     566.0037    30.279213    30.279213    30.279213    9.6718707    3.6380407    1.7682976    3.6502953    30.279213    30.279213    30.279213 
  470000    307.67079   -8547.8013   0.93765126    1483.9723   -20.729758    30625.992   -40671.134    32115.175    15.518149   -8554.8206    27.748983   -225.97033    27813.537   -11.660941    3.0108591    1.3107674    700.79253    576.66614    705.77301    579.64514    30.298333    30.298333    30.298333    13.368396    5.7329897    2.3099918    4.4279793    30.298333    30.298333    30.298333 
  480000    298.89429   -8488.4033   0.93876359    1397.7179    -20.75435    30771.948   -40671.298    32177.083    13.336708   -8494.2283    26.579384   -560.97158    27780.581   -12.040231    3.7131258    1.5749372    728.47473    588.06565    733.68814     591.0263    30.286362    30.286362    30.286362    13.228676    6.3407945    1.8276044    4.1022432    30.286362    30.286362    30.286362 
  490000    292.05977    -8590.519    0.9599123    1469.5183   -21.221909     30601.56   -40674.275    32074.558    17.742015   -8597.6966    28.399508    64.302487    27168.521   -12.383303    4.2633398    1.6694894    748.61215    593.94925    754.00332    597.04119    30.062286    30.062286    30.062286     12.67788    6.8634248    2.9605584    2.3526191    30.062286    30.062286    30.062286 
  500000    295.50373    -8532.603   0.95535824    1504.2607   -21.121227    30622.619   -40668.074    32124.064    23.936639   -8538.5913    27.109437    391.10036     27298.03   -12.721411    4.1191865    2.1299202    768.05215    604.70398     773.5636    607.93073    30.109978    30.109978    30.109978    8.5912188    3.0759794    1.9606452    3.1779311    30.109978    30.109978    30.109978 
  510000    303.34452   -8580.5221   0.95893902    1587.4694   -21.200392    30496.269   -40671.901    32086.155    18.783833   -8582.9183    23.596637    1027.7529    27196.096   -12.596528    3.9347479    2.4502504    780.62949    619.00793    786.22391    622.00241    30.072453    30.072453    30.072453    7.6399316    3.2115294    1.6513024     2.271469    30.072453    30.072453    30.072453 
  520000     294.5927   -8485.3025   0.93448721    1442.1501   -20.659807    30728.971   -40666.415    32178.019    13.762256   -8487.4884    22.845701    -324.8089     27907.71   -12.616134    4.1360484    2.8344399    812.36571    644.48357    818.25923    647.98924     30.33249     30.33249     30.33249    9.9915929    5.0282581     3.203274     1.427006     30.33249     30.33249     30.33249 
  530000    307.73856   -8549.2782   0.95732815    1419.2616   -21.164778    30692.456   -40670.753    32108.984    23.897676   -8555.2673    27.153895   -523.22993    27241.858   -12.418894    4.4305934    3.1710528    812.74683     641.5042    818.61131    644.78986    30.089311    30.089311    30.089311    9.7575808    3.9600229    2.4158462    2.9932765    30.089311    30.089311    30.089311 
  540000    300.95013   -8573.1507   0.95808206    1489.4488   -21.181446    30597.202    -40668.43    32082.711    25.120614   -8580.0137    28.044505    60.174336    27220.422   -12.310197     4.517965    3.6631484    830.74602    654.91169    836.74876    658.31213    30.081417    30.081417    30.081417    8.6288656    2.9367221    3.7249296     1.690508    30.081417    30.081417    30.081417 
  550000    307.05321   -8526.6952   0.94873836    1486.3883   -20.974874    30642.293   -40669.572    32126.018    23.638184   -8537.9509    32.230602   -48.837239    27488.504   -12.221314    4.5522694    3.6777187    847.53434    672.97673    853.61898    676.38216    30.179847    30.179847    30.179847    14.196209    6.9333467    3.7698021    2.9620567    30.179847    30.179847    30.179847 
  560000     297.9097   -8574.6658   0.96173445     1375.181   -21.262194      30712.4   -40674.958    32087.544    21.300026   -8583.4219    30.018299   -713.86156    27117.046   -11.995833    3.7532745     3.001047    837.85094    684.73177     843.8284    688.45965    30.043288    30.043288    30.043288    12.710557    6.0022621    3.5490888    2.7037012    30.043288    30.043288    30.043288 
  570000     308.0886   -8529.8262   0.94270433    1527.1301   -20.841472    30602.509   -40670.069    32134.892    15.588519   -8534.0894    25.104635    344.52994    27664.451   -11.911016    2.7817843    2.5051396    837.39318    701.19515    843.45115    704.99473    30.244101    30.244101    30.244101    10.603413     3.738635    2.6268337    3.4443406    30.244101    30.244101    30.244101 
  580000    285.63354   -8541.8825   0.95061943    1404.2862   -21.016461    30714.179   -40669.796    32118.918    20.563761   -8547.2047    26.338643   -539.81519     27434.11   -12.169197    1.7798525    2.9415499    845.98305    708.77499      852.083    712.78503    30.159927    30.159927    30.159927    9.4480294    4.4028092    1.9501655    2.5029906    30.159927    30.159927    30.159927 
  590000    292.56621   -8499.3567   0.95378015    1434.8719   -21.086338    30728.679   -40671.782    32168.457    16.179962   -8502.7853    24.515004   -24.854674    27343.196   -11.966369    1.3536903    3.1996281    853.34956      720.202    859.47291    724.38579    30.126575    30.126575    30.126575    8.8749311    3.9118471    2.9590008     1.740697    30.126575    30.126575    30.126575 
  600000    304.37651   -8520.8047   0.96006226     1497.839   -21.225224    30641.839   -40669.963    32139.311    21.591994   -8526.1782    26.598721    437.47375    27164.278   -11.399449    1.4343233    3.2726432    852.68226    728.76815    858.85002    732.96986    30.060721    30.060721    30.060721    9.4802515    4.7792296    2.5700189    1.7850361    30.060721    30.060721    30.060721 
  610000     298.7979   -8543.7597   0.95491868    1458.9856   -21.111509    30658.727   -40669.561    32121.761     17.06356   -8546.4273    23.779092       58.149    27310.596   -11.151113    2.1567373    3.0597812    871.48929    749.34885    877.78702    753.88174    30.114597    30.114597    30.114597    8.0881376    4.6871845    1.3312681    1.7233182    30.114597    30.114597    30.114597 
  620000    292.16332   -8497.2734   0.95099216    1451.8951   -21.024701    30709.272   -40671.296    32165.889    16.302883   -8502.9702    26.721542    125.21715    27423.357   -11.217546    3.0102955    2.3545915    893.07236    769.06442     899.4824    773.59282    30.155987    30.155987    30.155987    12.855677    6.4906007    2.3449902    3.7069245    30.155987    30.155987    30.155987 
  630000    308.73397   -8607.5757   0.94230869    1429.6047   -20.832725    30631.706   -40677.532    32061.913     20.22971   -8613.2276    26.484705   -605.25149    27676.066   -11.113989    4.1638373    1.8753663    916.86333    786.21661     923.4769    790.82814    30.248334    30.248334    30.248334    8.6455732     4.114349    2.6629507    1.6678767    30.248334    30.248334    30.248334 
  640000    297.51413   -8505.6444   0.96253642    1439.2353   -21.279924     30721.68   -40674.327    32159.855    22.340189   -8509.5831      25.2186    44.593204    27094.453   -10.496635    5.7135702    1.6092969    925.45846    786.49179    932.10131    790.97101    30.034942    30.034942    30.034942    7.7670641    1.8453749    3.7397688    1.7919082    30.034942    30.034942    30.034942 
  650000     303.2462     -8490.66   0.93491843    1542.1672    -20.66934    30629.931    -40671.07    32176.514    16.254095   -8493.1274    23.136757    510.19749    27894.838    -10.34592    6.8558794    1.9937817    977.83215     820.0774    984.90388    824.86466    30.327826    30.327826    30.327826    8.3114454    2.9354061    3.2610716    1.8270701    30.327826    30.327826    30.327826 
  660000    296.25605   -8539.7339    0.9446726    1428.9351   -20.884987    30691.796   -40672.911    32122.006    19.609484   -8546.8958    28.046867   -389.00399    27606.811   -10.245724    7.5743366     1.838564    989.93867    822.54753    997.10105    827.25822    30.223082    30.223082    30.223082    12.445762    5.1701957    3.2504254    3.5154344    30.223082    30.223082    30.223082 
  670000     302.0938   -8546.2944     0.952001    1392.8006   -21.047005    30724.903   -40673.182    32114.279    24.472263   -8551.4592    26.211799   -693.12286    27394.297   -10.054694    7.4288992    1.9233686    983.69221    821.22596    990.87624    826.07234    30.145331    30.145331    30.145331    9.1833396    4.7077329    1.8038088    2.4244846    30.145331    30.145331    30.145331 
  680000    302.97156   -8511.8776   0.95506975    1456.7001   -21.114849    30696.143    -40674.98    32148.395    25.563535   -8522.2111    31.448309    209.32995    27306.276   -9.6850616    6.4450676    2.6115442     978.3118    832.47881    985.37555    837.34898    30.113009    30.113009    30.113009    10.259299    3.0090912    4.7682646    2.2458664    30.113009    30.113009    30.113009 
  690000     290.6009   -8542.5347   0.94672716    1404.0463    -20.93041    30714.041   -40669.861    32116.773    22.245174   -8547.5031    25.898741   -751.51353    27546.899   -9.7815466    5.4340087    3.4542083    995.14585    855.27492     1002.329    860.42027    30.201203    30.201203    30.201203    9.2388371    4.3814674    3.9228965   0.77941865    30.201203    30.201203    30.201203 
  700000    290.23985   -8607.8139   0.95659653    1463.9161   -21.148603    30589.281   -40670.432    32056.281    18.064601   -8611.7961    25.130854   -308.80739    27262.693   -9.7930514    5.0145576    4.3047024    1003.2317    858.46321    1010.4712    863.55628     30.09698     30.09698     30.09698    9.4208335    3.4475334    4.0038054    1.7014765     30.09698     30.09698     30.09698 
  710000    300.27106   -8446.8965   0.96122203    1520.9476   -21.250865    30696.644   -40672.978     32219.14    19.702563   -8452.5943    26.948663    1031.6866    27131.502   -9.3108213    5.1232754    5.0741916    1020.5915    871.05901     1027.887    876.21182    30.048626    30.048626    30.048626    8.4892171    1.5827834    2.5161877    3.8293667    30.048626    30.048626    30.048626 
  720000    287.74939   -8575.0824   0.95054907    1453.2375   -21.014905    30632.312   -40671.356    32087.335    19.228718   -8580.1422    26.074669   -380.73146     27436.14   -9.0276797    4.9917373    5.5337471    1037.4049    886.60856    1044.8924    891.82086    30.160671    30.160671    30.160671    10.724395    4.7063612     2.103319    3.3761973    30.160671    30.160671    30.160671 
  730000    289.18801   -8524.5222   0.94315211    1422.6213   -20.851372    30713.397   -40672.475    32142.785    14.084565   -8528.3982    24.727394   -553.18804    27651.317   -9.1565099    4.7487473    6.0219009    1058.2347    900.93377      1065.88    906.19201    30.239314    30.239314    30.239314    11.935003    5.7954376    2.3567421    3.5251178    30.239314    30.239314    30.239314 
  740000     293.0361   -8509.0083    0.9311032    1517.1655   -20.584992    30632.212   -40669.001    32152.503    17.459667   -8514.2334    25.810078    121.45183    28009.138   -9.4320219    4.5136611    6.9066302    1092.7074    919.45665    1100.5922    924.56116    30.369193    30.369193    30.369193    10.615349    3.5494785    4.7087674    1.9777468    30.369193    30.369193    30.369193 
  750000    295.31263   -8466.3413   0.93730049    1346.8787   -20.722003    30847.543   -40671.758    32196.209    18.935154   -8472.3755    26.756178   -1052.0777    27823.946    -9.679458    4.1761448    7.5679266    1117.6918    932.99808    1125.8137    938.47564    30.302112    30.302112    30.302112    10.994788    5.7841488    1.5197361     3.281061    30.302112    30.302112    30.302112 
  760000    298.25742   -8554.8572   0.94818322    1437.5229   -20.962601     30666.13   -40670.429    32106.779    17.836455   -8562.6928    28.798217   -263.98102    27504.597   -9.3298057    3.7770633    7.8918252    1114.5288    932.65046    1122.6341    938.07012    30.185736    30.185736    30.185736    11.918792    5.2164337    2.2750953    4.1166719    30.185736    30.185736    30.185736 
  770000    295.83935    -8456.328   0.94919929    1391.2895   -20.985064    30811.694   -40672.719    32204.542    19.426037   -8464.8939    29.551017   -275.67518    27475.155   -8.8665539    3.6298521    7.9290702    1121.8127    947.08095    1129.9793    952.50613    30.174961    30.174961    30.174961    13.407096    4.6472297    4.0482311    4.2197458    30.174961    30.174961    30.174961 
  780000    302.35784   -8551.7457   0.95034193    1503.7293   -21.010326    30601.054   -40669.887    32107.175    18.619374    -8559.066    28.330675    5.3662849    27442.121   -8.6948606    4.1280232    8.1148494     1135.912    953.86017    1144.1253    959.29406    30.162863    30.162863    30.162863    13.357406    6.2076624    3.7074259    2.8713499    30.162863    30.162863    30.162863 
  790000    291.69275   -8549.4285    0.9534702    1428.6189   -21.079486     30681.17   -40671.964    32107.828     23.04049   -8559.2602    30.911203   -496.28266    27352.085   -8.0879461    4.8737738    8.4634999    1152.6609    961.94122    1160.9912    967.34811    30.129839    30.129839    30.129839    12.746424    7.2076155    3.1985264    1.9125665    30.129839    30.129839    30.129839 
  800000    300.02298   -8586.9307   0.94572947    1478.3999   -20.908352    30598.625   -40675.041    32084.758    13.175145   -8591.7484    25.726029   -28.313145     27575.96   -7.5665855    5.3866284     8.688134    1172.6813    975.50569    1181.0854    980.90016    30.211819    30.211819    30.211819    11.085773     5.742346    2.6460028    2.2559757    30.211819    30.211819    30.211819 
  810000    306.11431   -8593.0215   0.95021188    1429.5971    -21.00745    30635.083   -40672.972    32065.092    20.596127   -8602.2163    30.202239   -784.23354    27445.876   -7.7787201    5.6012275    8.7663855    1184.4445    980.34497    1192.9893    985.76523    30.164239    30.164239    30.164239    15.269702    9.2298102    3.6074923    2.0596883    30.164239    30.164239    30.164239 
  820000    303.57881   -8501.4844   0.96024337       1553.1   -21.229228    30603.641   -40673.523    32158.125    19.845308    -8510.928    30.672774    690.30776    27159.154   -8.4196564    5.5346335    8.9481484    1206.4682    991.65337    1215.1796    997.26161    30.058831    30.058831    30.058831    15.297525    7.1691377    3.6150087    3.7468332    30.058831    30.058831    30.058831 
  830000    298.11493   -8634.9657   0.96490428    1485.5379   -21.332273    30538.982   -40672.099     32022.54    23.312054   -8643.9478    30.314295   -151.52613    27027.964   -9.5068032    5.6449575    8.7684408    1227.3245    1000.5894    1236.1409    1006.0865    30.010353    30.010353    30.010353    12.613067    5.9365461    3.0973363    3.1007551    30.010353    30.010353    30.010353 
  840000    305.11506   -8517.4462   0.96283618    1457.8247   -21.286551    30683.483   -40671.182    32138.514    24.081038   -8528.7225     32.56284    131.70562    27086.018   -10.960664    5.3978259    8.3166587    1243.8345    1006.2869    1252.8396    1011.8942    30.031825    30.031825    30.031825    12.428067    7.2478933     2.684938     2.025406    30.031825    30.031825    30.031825 
  850000    292.92497   -8493.0954   0.96030343    1500.5064   -21.230556    30671.084   -40675.098    32170.774    22.046839   -8499.7782    27.913343    565.34222    27157.456   -12.302435    4.8518217    7.8334537    1268.5352    1023.3428    1277.7454    1028.9426    30.058204    30.058204    30.058204    10.412621    6.8933308    2.2693353    1.0938068    30.058204    30.058204    30.058204 
  860000    291.55452   -8576.2885   0.95834697     1534.923   -21.187302    30546.473   -40671.171    32087.074    15.509234   -8582.4693    27.368102    391.17929    27212.897   -13.427272    4.5990765    7.1300458    1281.6642    1029.0853    1290.9365    1034.5246    30.078645    30.078645    30.078645    13.486095    8.1972861    1.5308799    3.2402456    30.078645    30.078645    30.078645 
  870000    300.33483   -8615.3821   0.95760741    1540.6407   -21.170952     30506.47   -40673.998    32043.567    24.714735   -8623.7349    29.523754    138.58581    27233.914   -14.177123    4.8307138     6.797581    1308.6915    1041.3361    1318.1632    1046.8842    30.086386    30.086386    30.086386     11.50566    5.4174078    3.4212592    2.1449051    30.086386    30.086386    30.086386 
  880000     306.6695   -8525.2891    0.9383347      1448.85   -20.744868    30685.043   -40670.319    32134.029    20.608707   -8533.1426    28.598414   -158.96997    27793.279   -14.383886    4.9992292    6.8328999    1337.3006    1062.5964    1346.9663    1068.2922    30.290976    30.290976    30.290976    11.137095    6.3022894    2.7476474    1.7117613    30.290976    30.290976    30.290976 
  890000    300.44667   -8525.7443   0.95629137     1412.823   -21.141857     30721.09   -40672.132    32136.883    18.172751   -8534.0635    29.460982   -182.88372    27271.393   -14.236903    4.3994352     5.958063    1314.6167    1065.8369     1324.118    1071.7686    30.100181    30.100181    30.100181    12.474609    3.8419868    5.4615068    2.6954396    30.100181    30.100181    30.100181 
  900000    295.23584   -8489.0053   0.95283284     1484.776   -21.065395    30685.816   -40674.419    32171.467    20.191081   -8497.4995    29.559576    41.889753    27370.381   -14.577237    3.5325305     5.130619    1318.8568     1084.345    1328.4132    1090.3604    30.136556    30.136556    30.136556    14.821373    5.8145404    4.7885321    3.4452778    30.136556    30.136556    30.136556 
  910000    303.83041   -8515.4762   0.94813845    1486.7349   -20.961611    30659.387   -40672.454    32152.223    14.860377   -8520.2742    25.759643    325.77901    27505.896   -14.691885    2.9452483    5.2873796    1331.5295    1098.1578     1341.143    1104.3271    30.186211    30.186211    30.186211    10.855396    3.6245836    2.2394804    4.5488579    30.186211    30.186211    30.186211 
  920000    304.21943   -8516.5926   0.95352978    1490.2561   -21.080803    30654.336    -40673.58    32144.829    20.843576   -8524.7408    29.229057    239.89644    27350.376   -14.258707    2.0954343      5.92208    1336.0018    1110.8539    1345.7028    1116.9942    30.129212    30.129212    30.129212    12.395938    5.9776857    4.1649314    2.0518983    30.129212    30.129212    30.129212 
  930000    291.26665   -8551.1511   0.95951885    1490.6855    -21.21321    30612.536    -40670.97    32100.371    24.063732   -8564.1498    34.211848    171.76576    27179.662   -13.556499    1.0188648    6.4758005    1328.9648     1118.447    1338.6425     1124.844    30.066394    30.066394    30.066394    16.596931    6.5345945    4.9609365    4.8422662    30.066394    30.066394    30.066394 
  940000    297.34602    -8463.813   0.95837338    1392.5527   -21.187886    30799.126   -40670.701    32192.836    20.030626   -8472.7623    30.137184   -503.36656    27212.147   -12.707073 -0.073340072    7.2598281    1334.1347    1132.8202    1343.7974    1139.4672    30.078368    30.078368    30.078368    15.209587    8.6723138    3.3841356    2.8379734    30.078368    30.078368    30.078368 
  950000    300.25653    -8561.108    0.9730519    1488.2015   -21.512402    30610.121   -40674.176    32094.769    25.065237   -8571.7189    32.123307    168.88476    26801.651   -12.265139  -0.67777275     7.647494     1330.102    1132.1369    1339.6645     1138.687    29.926357    29.926357    29.926357    14.745247    5.5542065    2.5854154    5.5753848    29.926357    29.926357    29.926357 
  960000    294.53012   -8545.9198   0.95822531    1515.8581   -21.184613    30595.923   -40671.767    32108.158    24.808527   -8558.0583    33.323101    397.38526    27216.353   -12.457855   -1.0132237    7.4547788    1349.2426    1152.0991     1359.031    1158.9229    30.079918    30.079918    30.079918     14.06592    5.3153019    6.5197774     1.776564    30.079918    30.079918    30.079918 
  970000    298.39598   -8492.7568    0.9485563    1369.0501   -20.970849    30795.014   -40670.732    32165.843    19.191677   -8502.6726    30.886617   -719.35338    27493.779   -12.155128   -1.7045766    7.4271606    1351.9344    1161.8938    1361.8175    1168.9081    30.181778    30.181778    30.181778    13.910814    4.2496443    6.6531304    2.4654937    30.181778    30.181778    30.181778 
  980000    297.25955   -8478.6051   0.93899764    1392.8001   -20.759524    30790.788   -40671.103    32184.606    19.741035   -8482.9541      25.1085   -705.05461    27773.656   -11.388969   -2.1786258    8.1324101     1372.684     1182.829     1382.612    1189.8552    30.283845    30.283845    30.283845    8.9097391    3.6919661    3.0157208    1.8457172    30.283845    30.283845    30.283845 
  990000    298.41755   -8566.7921   0.94871018    1532.9684   -20.974251    30558.771   -40670.062    32095.459    17.254574   -8572.4644    26.646523    188.14296     27489.32   -9.8547367   -2.1583992    9.5132852    1381.0477    1186.5971    1391.0901    1193.6316    30.180146    30.180146    30.180146    11.530195    5.0139309    3.4744112    2.7322139    30.180146    30.180146    30.180146 
 1000000     300.4636   -8514.7388   0.96294243    1438.2159     -21.2889    30706.486   -40676.076    32142.835    23.155721   -8527.7418    34.291864    19.811496    27083.029   -8.5952551   -2.2121857    10.828952      1393.91    1184.5573     1403.964    1191.3765     30.03072     30.03072     30.03072     16.63554    7.7402349    4.1510284    4.0685119     30.03072     30.03072     30.03072 
 1010000    298.23487   -8554.8125   0.95564873    1467.2432   -21.127649    30637.827   -40673.332    32107.396    18.801729   -8562.5831    28.898225   -189.68451    27289.732   -7.5936522   -1.8098067    11.957374    1425.8308    1198.3047    1436.1269    1205.0769    30.106927    30.106927    30.106927    13.450065    4.5185473    2.7424475    5.4727312    30.106927    30.106927    30.106927 
 1020000    290.99324   -8514.6186     0.961353    1497.9045    -21.25376    30646.894   -40670.453    32147.249    18.802491    -8520.737     27.37215    523.05661    27127.806   -6.3234532  -0.97106888    12.457438    1436.1394    1206.3187    1446.5588    1213.4228    30.047261    30.047261    30.047261    11.035961    3.9613328    3.4309164    3.0540612    30.047261    30.047261    30.047261 
 1030000    310.34373   -8591.1419   0.95662631    1500.8658   -21.149262    30567.951   -40674.393    32067.873    22.093026   -8602.7909    32.798295    345.70799    27261.845   -5.2667726  -0.65061531    12.513093    1457.1306    1232.3393     1467.732    1239.4714    30.096668    30.096668    30.096668    14.434224    4.1269078    3.4459399    5.7211111    30.096668    30.096668    30.096668 
 1040000     301.7489   -8538.9869   0.96596766    1459.1762   -21.355782    30659.866   -40670.045    32121.892     18.50647   -8547.3468    29.715721    347.13244     26998.21   -5.1918214  -0.58037637    12.183412    1448.8009    1233.6489    1459.2908    1240.7696    29.999337    29.999337    29.999337    12.015561    3.5403658     6.042962    1.9966713    29.999337    29.999337    29.999337 
 1050000    297.94377    -8535.394   0.96206615    1510.0552   -21.269527    30607.989   -40667.513    32117.462    21.851223   -8545.9366    31.812106    712.84681    27107.697   -5.2496611  -0.89185723    11.906009    1461.8803    1255.1786    1472.4597    1262.3977    30.039835    30.039835    30.039835     14.07464    3.7503153    3.7959698    5.6478114    30.039835    30.039835    30.039835 
 1060000    290.29513   -8524.0905    0.9442287    1537.0494   -20.875173    30599.049    -40674.23    32137.249    19.724469   -8534.2949    31.079649    395.89404    27619.789   -5.1846463  -0.97329881    12.380756    1500.3967    1279.9968    1511.2765    1287.4794    30.227817    30.227817    30.227817    14.041436    4.5199216      3.99869    4.9149214    30.227817    30.227817    30.227817 
 1070000    289.39852   -8566.7086   0.95302774    1540.7445   -21.069704    30552.506   -40673.592    32097.967    16.353115   -8574.2717    28.632864    530.49678    27364.784   -4.9828163   -1.0496475    12.916433    1512.8306     1277.664    1523.7856    1285.1745    30.134501    30.134501    30.134501    13.632946    5.7742818    2.1231945     4.748972    30.134501    30.134501    30.134501 
 1080000    287.64451   -8525.6305   0.94362442    1413.7824   -20.861814    30715.935   -40673.186    32128.084    22.494503   -8541.0981    36.329451    -541.7775    27637.477   -4.7480271   -1.0221549    13.488164    1545.3433    1293.8912    1556.6393    1301.4589    30.234268    30.234268    30.234268     17.83805    5.5502428    5.4871456    5.4901257    30.234268    30.234268    30.234268 
 1090000    290.91845   -8577.2535   0.95309185    1438.9311   -21.071121    30640.558   -40670.813    32078.866    21.694131   -8587.0201    30.837735    -499.0426    27362.943   -4.3299064   -1.0109894    13.763512     1554.627    1296.4041    1565.8967     1303.621    30.133825    30.133825    30.133825    14.070799    7.7507912    4.6807921    1.3425353    30.133825    30.133825    30.133825 
 1100000    297.89838   -8515.2945   0.93129137    1459.7615   -20.589152    30685.316   -40671.575    32143.869     21.79785   -8523.6312    28.925922   -193.58239    28003.479   -3.8689413   -1.5028416    14.288876    1595.7366    1322.3018    1607.3275    1329.8555    30.367147    30.367147    30.367147    11.203369    7.3856496    1.6324533     2.000881    30.367147    30.367147    30.367147 
 1110000    297.30721   -8522.0033   0.95658545    1454.4717   -21.148358    30681.442   -40675.936    32138.703    18.359846   -8536.1334    35.278359    178.92718    27263.009    -3.277858   -2.0207497    14.679071     1599.547    1315.6738    1611.1819    1323.0024    30.097096    30.097096    30.097096    18.018947     7.532682    6.5024124    3.2918973    30.097096    30.097096    30.097096 
 1120000    295.80388   -8542.5928   0.94438697     1495.299   -20.878672    30621.791   -40672.747    32120.277    17.691753   -8550.1095    28.395349    89.736426    27615.161   -2.7926834   -2.3574422    14.957396     1629.516    1336.6091     1641.378    1344.1608    30.226128    30.226128    30.226128    13.063331    7.3154323    3.1963313    2.0514797    30.226128    30.226128    30.226128 
 1130000    283.29385   -8573.4916   0.95130604    1564.8348    -21.03164    30517.888   -40669.909     32081.47    22.284619   -8585.2304     32.77044    716.95543    27414.309   -2.2064939   -1.8883796    14.088098    1595.5721     1332.129     1607.189    1339.8485     30.15267     30.15267     30.15267    13.695102    9.1098831    2.1986131    1.9066755     30.15267     30.15267     30.15267 
 1140000    295.83138    -8535.721   0.93266472    1485.2688   -20.619515    30637.457   -40672.674    32123.582     19.76337   -8545.1194     30.01792   -104.53412    27962.243   -1.7931179  -0.79190263    12.377292    1563.6146    1352.0842    1574.9703    1360.1615    30.352235    30.352235    30.352235    14.227638    6.4597824    4.3028876    2.9783869    30.352235    30.352235    30.352235 
 1150000    302.04968    -8556.855   0.95144781    1447.8406   -21.034775    30653.005   -40669.602    32105.852    16.028145   -8562.9175    27.097277   -42.856173    27410.224   -1.2789716  -0.34373219    10.583222    1504.8668    1340.5892    1515.8181    1349.0627    30.151172    30.151172    30.151172    11.901389    6.9295083    2.4835117    2.0681348    30.151172    30.151172    30.151172 
 1160000    296.50917   -8523.9304   0.95270494    1510.4505   -21.062567    30621.256   -40669.972    32131.916    20.852903   -8534.2664    31.398585    402.43513    27374.055   -1.0205842   -1.0430403    9.6059968    1484.6911    1345.3108     1495.471    1353.8739    30.137904    30.137904    30.137904    14.334823    5.5838658    5.1493921    3.0482369    30.137904    30.137904    30.137904 
 1170000    296.93393   -8548.5778    0.9654953    1489.4929   -21.345339    30621.994   -40672.419    32111.722    21.110385   -8557.9209    30.688513    442.35681    27011.419   -1.1429945   -1.4108575    9.6355527    1477.7984    1338.5562    1488.5737    1347.1829    30.004229    30.004229    30.004229    12.354895    5.1688522    3.1271037    3.6413043    30.004229    30.004229    30.004229 
 1180000    293.05823   -8566.3598   0.95468368    1549.9117   -21.106314    30544.257   -40671.709     32095.96    19.314787   -8572.9731    27.719663    588.90889    27317.318  -0.87254282   -1.3113464     9.877556    1512.7112    1366.7981    1523.7362    1375.7157    30.117068    30.117068    30.117068    11.180158    3.4801319    3.0783172    3.8997746    30.117068    30.117068    30.117068 
 1190000    300.93154   -8613.6482   0.95937582    1451.7422   -21.210049    30594.936   -40673.718    32049.548    18.340121   -8623.5541    31.115904   -131.09997    27183.714  0.037236758  -0.79292329    9.6945688    1521.0559    1375.0316    1532.0994    1383.8698    30.067888    30.067888    30.067888    13.391328    4.6181931    4.3279299    3.8253629    30.067888    30.067888    30.067888 
 1200000     290.4135   -8457.3456   0.95657566     1411.147   -21.148142    30789.388   -40671.058    32195.968    25.715447   -8467.1035    30.906042   -194.43911    27263.288    1.5569235  -0.81271054    9.3066879     1532.431     1386.415    1543.5831    1395.3282    30.097199    30.097199    30.097199    13.176798    6.7663105    2.6609312    3.2750788    30.097199    30.097199    30.097199 
 1210000    307.35599   -8636.6225   0.96382538    1501.0379    -21.30842     30521.52   -40672.349    32018.356    25.510093   -8646.1097    30.795625    28.123379    27058.219    2.6036175   -0.3939964    8.8432847    1540.8129    1395.3718    1551.9406    1404.3133    30.021547    30.021547    30.021547    13.168569    6.0932593    3.1198918    3.3766593    30.021547    30.021547    30.021547 
 1220000    297.43665    -8533.623   0.95226056     1463.198   -21.052743     30664.23   -40672.773    32126.028    22.452757   -8542.0388     29.46851   -111.70582     27386.83    2.9320532   0.88493771    8.1535499    1560.4433    1421.3741    1571.6906    1430.6219    30.142591    30.142591    30.142591     11.72187    5.1453973    4.4131673    1.8113813    30.142591    30.142591    30.142591 
 1230000    295.49169   -8517.8052   0.95363115    1447.5584   -21.083044    30689.325   -40670.685    32139.264    18.702164   -8528.1034    31.381235   -224.12206    27347.469    2.3871671    2.5006319    7.0908364    1549.2506     1425.476      1560.48     1435.007    30.128144    30.128144    30.128144    15.995763    8.6519725    4.9869047    2.1139297    30.128144    30.128144    30.128144 
 1240000    291.27492   -8551.2995   0.94749877    1431.1243   -20.947468    30680.086   -40673.699    32111.912    20.246491   -8560.1749    29.822821   -158.57328    27524.466    1.4484904    3.6094012    6.1859259    1558.6058    1447.6152    1569.8813    1457.0331    30.193002    30.193002    30.193002     11.18872    2.4139213    4.3110146    3.6018944    30.193002    30.193002    30.193002 
 1250000    300.40056   -8426.6468   0.94804085    1423.1257   -20.959453    30808.744   -40672.114    32227.703    25.126422   -8437.8812     32.19385   -102.98612    27508.728    1.1473894    4.2223285    6.6184784     1582.112    1458.5155    1593.6663    1468.1946    30.187247    30.187247    30.187247    13.597253    7.4872906    3.6913147    2.2113513    30.187247    30.187247    30.187247 
 1260000    308.92636   -8574.3529   0.95838179    1442.8679   -21.188072    30643.737   -40674.383    32086.727    21.065297   -8582.8658    29.701001   -161.85855    27211.909    1.0566491    4.4138109     7.506877    1603.4322    1461.9003    1615.1111    1471.3986     30.07828     30.07828     30.07828    13.425037    5.8522271    6.2816734     1.137137     30.07828     30.07828     30.07828 
 1270000    299.10204   -8555.2398   0.94647073    1479.3013    -20.92474    30623.014   -40669.312     32105.38    17.860592   -8562.5302    28.215118    -9.406677    27554.363    1.2803692    4.3182263    8.3286775    1643.1164    1484.4163    1655.0741    1493.9874     30.20393     30.20393     30.20393     11.75679     4.906734    3.6215758    2.7686517     30.20393     30.20393     30.20393 
 1280000    293.79836   -8572.1463   0.96362665    1521.5934   -21.304026    30569.903   -40675.469    32095.304     17.49703   -8578.5196    27.677374    568.12129    27063.799    1.8126102    4.4066524    9.0181811    1651.6838    1473.1546    1663.6657     1482.574    30.023611    30.023611    30.023611    11.826382    6.0069423    4.1047163    1.5361489    30.023611    30.023611    30.023611 
 1290000    300.22671   -8548.1555   0.95079107    1466.6793   -21.020255    30649.208   -40674.537    32115.875    21.033135   -8554.5379     27.40265   -136.97565    27429.157    2.1837172    4.7260374    9.2277913    1689.6192    1499.3018    1701.8636    1508.8927    30.158112    30.158112    30.158112    10.493653    4.9563973    2.7849755    2.2037257    30.158112    30.158112    30.158112 
 1300000    298.98455    -8580.919   0.95463261    1457.0855   -21.105185    30623.419   -40674.206    32082.149     19.46139   -8587.9133    28.099467    -147.2403     27318.78    2.1535669    4.4902397    8.9779761    1681.4925    1500.3751    1693.7201    1509.7834    30.117605    30.117605    30.117605    12.782307    6.9436899    2.1602657    3.1507343    30.117605    30.117605    30.117605 
 1310000     298.0936   -8537.6847   0.95421174    1509.2422    -21.09588    30618.121     -40676.6    32120.843    27.616704   -8546.9655     30.37668    128.25981    27330.829    2.3776081    4.3713252    8.6814704    1680.4294    1505.0677     1692.561     1514.486    30.122032    30.122032    30.122032    11.551795    6.4441272    1.1904846    3.4437275    30.122032    30.122032    30.122032 
 1320000    307.79864   -8495.5365     0.938523    1424.8406   -20.749031    30740.071   -40669.419    32168.096    17.564258   -8499.8714    25.083933   -301.02821    27787.702    2.5501814    4.5231945    8.5910821    1714.7175    1537.5371    1727.2268    1547.2008     30.28895     30.28895     30.28895    8.9712264    3.0821521    1.6150143     3.632793     30.28895     30.28895     30.28895 
 1330000    288.37759   -8573.5288   0.94408409    1467.9687   -20.871976    30612.157   -40669.304     32083.81    17.187424   -8583.6854    31.028616   -540.00191     27624.02    2.1138592    5.0226467     8.993331    1734.7028    1546.1721    1747.3116     1555.952    30.229361    30.229361    30.229361    15.649191    7.1244853    4.8339836    3.2503012    30.229361    30.229361    30.229361 
 1340000    296.19591   -8576.8402   0.94985031    1414.5519   -20.999457    30670.306   -40674.012    32087.823    18.034512   -8585.6292    29.788415   -669.61534    27456.324    1.3511192    6.0133468    9.6541593    1763.2908    1550.6708    1776.1221    1560.2929    30.168066    30.168066    30.168066    12.314181     6.412342    2.0802815    3.0408269    30.168066    30.168066    30.168066 
 1350000    286.99575   -8546.3913    0.9458945    1456.3085   -20.912001    30648.836   -40668.122    32105.363     20.69423    -8558.291    32.811712   -432.38311    27571.148   0.59035132     7.220957    10.374471    1808.6656    1563.4275    1821.8193     1572.847    30.210062    30.210062    30.210062    16.585848    11.096828    1.7647827    3.1945398    30.210062    30.210062    30.210062 
 1360000    297.84379   -8572.5715   0.95368847    1574.1415   -21.084312    30511.446   -40671.048    32088.307    18.364381   -8580.3306    28.843463    722.53967    27345.825  0.002667523    8.1717168    11.387221    1853.4632    1566.7721    1866.9553     1576.201     30.12754     30.12754     30.12754    12.888983    5.0842754    4.1347185    3.1937695     30.12754     30.12754     30.12754 
 1370000    287.62466   -8575.9492   0.96422048    1472.4306   -21.317155    30609.789   -40669.862    32081.231    22.305575   -8583.8595    29.227381    105.51745    27047.131  -0.33935237    8.8947827    12.155468    1897.3067     1576.101    1911.0913    1585.3481    30.017446    30.017446    30.017446    11.692957     4.802384    2.9884287    3.5176795    30.017446    30.017446    30.017446 
 1380000    299.71411   -8537.6716   0.95533207       1487.6   -21.120648    30632.836    -40671.73    32122.007     19.54934   -8545.9284    29.377381    181.15356    27298.778  -0.62132655     9.204933    12.650315    1939.5819    1597.6959    1953.7143    1606.7484    30.110253    30.110253    30.110253    13.622722    6.4637587    4.3185967    2.6330367    30.110253    30.110253    30.110253 
 1390000    299.48517   -8471.9047   0.94172034    1434.6591   -20.819718    30748.839   -40673.735    32183.594    20.724204   -8487.1328    36.047787   -215.57227    27693.357   -0.9981551    9.5193192    13.204105    1986.0332    1621.9809    2000.4725    1630.9182    30.254632    30.254632    30.254632    18.331564    9.1958689    5.1081573    3.6952169    30.254632    30.254632    30.254632 
 1400000    299.15379   -8532.9214   0.94742369     1529.652   -20.945809    30600.578   -40674.657    32128.681    22.494749   -8541.9637    29.988127    557.81231    27526.647   -1.3532923    9.5240462    14.212632    2026.1949     1630.713    2041.0368    1639.7231      30.1938      30.1938      30.1938    11.505912    3.3460215    5.7115486     2.007429      30.1938      30.1938      30.1938 
 1410000     291.9907    -8574.826   0.96864573    1524.8181   -21.414989     30560.65   -40674.837    32082.302    24.581569   -8587.6737    34.262677    545.61928    26923.567   -1.2634893    9.2940788    15.304617    2052.6154    1624.6268    2067.5385    1632.9985    29.971665    29.971665    29.971665    14.542537    7.6033829    4.5181184    2.2172292    29.971665    29.971665    29.971665 
 1420000    302.18597   -8512.4967   0.94222917    1453.5825   -20.830967    30689.216   -40670.365    32147.327    16.302233   -8520.9695    29.303734   -173.16277    27678.402    -1.267227    9.1300601    16.265968    2128.6445    1670.4008    2144.1441    1678.9859    30.249185    30.249185    30.249185    15.069751    7.3385402    3.7690883    3.5366639    30.249185    30.249185    30.249185 
 1430000    297.68741   -8461.5206   0.94823656    1494.1377    -20.96378    30695.542   -40671.902    32189.611     21.03239   -8475.7994    35.242541     118.3769     27503.05   -2.1587779    8.6863493     16.81447    2149.1928    1679.4661    2164.9171    1688.2181     30.18517     30.18517     30.18517     20.70109     6.811116    6.9431918    6.1681331     30.18517     30.18517     30.18517 
 1440000     292.8653   -8458.7605   0.93818198    1481.0305   -20.741491    30723.785   -40673.021    32203.252    22.305235    -8464.645    26.625978   -83.360043    27797.803   -3.0838377    8.3518931    17.387964    2183.8448    1699.2315    2199.7649    1708.2369    30.292619    30.292619    30.292619    9.4448595    3.9715013    1.5977592    3.4146825    30.292619    30.292619    30.292619 
 1450000    304.15283   -8496.2887   0.95273384    1472.2209   -21.063206    30692.452   -40673.752    32161.616    24.120522   -8507.4582    32.232648    159.17804    27373.225   -3.3842693    8.0330952    17.127346     2174.365    1705.8821    2190.2195    1715.0969    30.137599    30.137599    30.137599     12.79064    7.5931125    2.2621581    2.4388623    30.137599    30.137599    30.137599 
 1460000    297.01839   -8633.6986   0.94643562    1523.8946   -20.923964    30503.257   -40673.464    32032.097    15.979105   -8638.4928    25.718097   -32.097304    27555.385   -3.5269958    7.5278258     16.62279    2171.1489    1731.6484    2186.9701    1740.9617    30.204304    30.204304    30.204304    12.613871      6.58154    3.2656487    2.3386569    30.204304    30.204304    30.204304 
 1470000    294.64065   -8462.0708   0.93931578    1574.7502   -20.766558    30625.064   -40672.728    32200.194    20.386825   -8469.0427    27.738469    751.12589     27764.25   -3.7738123      7.42786    16.316844    2178.0277    1750.1885    2193.8784    1759.9157    30.280426    30.280426    30.280426    10.843141    6.0479815    2.2032228    2.1452578    30.280426    30.280426    30.280426 
 1480000    300.14228   -8475.8333   0.94151707    1499.8715   -20.815224    30680.064   -40671.452    32181.525    19.226254   -8484.9632    29.945102    21.665917    27699.336   -3.7382609    7.3052168     16.07313    2176.9491    1760.0877    2192.8873    1769.8001    30.256809    30.256809    30.256809    15.682772    8.7688646    3.6965037    2.7014263    30.256809    30.256809    30.256809 
 1490000    302.71197   -8618.3507   0.95165473     1537.769   -21.039349    30500.659   -40669.928    32037.231    22.236552   -8628.4203    31.108926    305.18353    27404.265   -3.0905976    7.1575582    15.820029    2153.8908    1750.6618    2169.5824    1760.4462    30.148986    30.148986    30.148986    13.148941    6.0713658    3.3205418    2.9508306    30.148986    30.148986    30.148986 
 1500000    293.50098    -8563.415    0.9532677    1448.3095   -21.075009    30647.684   -40673.876    32099.128    17.939967   -8573.2701    30.930058   -171.83834    27357.895   -2.3644725    6.6334623    15.612146    2152.1163    1766.4413    2167.7144    1775.9123    30.131972    30.131972    30.131972     14.46746      6.27695    4.1753421    3.3057764    30.131972    30.131972    30.131972 
 1510000    303.48056   -8530.6498   0.94717288    1504.5943   -20.940264     30625.85   -40673.783    32133.101    18.283935   -8539.0494    29.339819    370.15724    27533.936   -2.0173192    6.0594532     16.37988    2191.1067    1787.0149    2207.0685    1796.6973    30.196465    30.196465    30.196465    12.688701    6.0768274    2.9453342     3.227529    30.196465    30.196465    30.196465 
 1520000    309.90156   -8499.2806   0.94967896    1440.6531   -20.995669    30721.532   -40670.736    32160.073    23.107506   -8505.7716    27.486663   -87.036872    27461.278   -1.9389021    5.6481869     17.86106     2249.562    1794.0015    2265.9122    1803.4313     30.16988     30.16988     30.16988    9.2709149    3.2261327    5.0126117   0.87807516     30.16988     30.16988     30.16988 
 1530000    293.22487   -8452.4879   0.93946625    1410.3448   -20.769884    30795.162   -40673.356    32208.646    17.630106    -8462.058    30.339966   -570.81563    27759.803   -1.7353968    5.8283305    19.496228    2340.7096    1813.9753    2357.7878    1823.2993    30.278809    30.278809    30.278809    15.361036    7.7022582    3.8839227    3.1966411    30.278809    30.278809    30.278809 
 1540000    308.85141    -8571.835   0.94528461    1499.6825   -20.898518    30586.166   -40669.421     32085.18     21.56755   -8580.4331    29.496597    85.650056    27588.937   -0.8310454    5.8343646    20.097725    2385.0553    1830.3907    2402.5176    1839.8702    30.216558    30.216558    30.216558    11.736657    4.5041206    2.8104406    3.4623609    30.216558    30.216558    30.216558 
 1550000    294.44316   -8685.1254   0.96713308    1474.4152   -21.381547    30497.195   -40668.634    31974.119    18.873324    -8691.602    27.858144   -191.59399    26965.676  -0.13077331    5.3847388    19.522112    2347.8449     1823.693      2364.91    1833.1407    29.987282    29.987282    29.987282      11.8977    5.3296811    3.4494815    2.5898954    29.987282    29.987282    29.987282 
 1560000    294.58235    -8531.405   0.94915105    1446.5473   -20.983997    30684.552   -40675.343    32130.795    21.288876   -8541.4778    31.056735    -182.7416    27476.552 -0.082042449    4.0709861    18.828472    2337.1098    1857.8277    2354.1731    1867.5022    30.175472    30.175472    30.175472    12.838464    4.0049521    3.7858638    3.9763763    30.175472    30.175472    30.175472 
 1570000    291.25939   -8534.0397   0.95161309    1376.5533   -21.038429    30747.106   -40670.816    32122.416    22.282372   -8543.1961    30.194806   -761.52395    27405.464  -0.58475345    2.5687706     18.47622    2307.3532    1860.7189    2324.2252    1870.8453    30.149426    30.149426    30.149426    13.116761    6.9340338    3.7178424    2.1231103    30.149426    30.149426    30.149426 
 1580000    302.78141   -8537.3971   0.94505564    1528.9905   -20.893455    30587.771   -40671.079     32117.78    19.875554   -8549.0192    32.515529    262.33702    27595.622   -1.2034928     1.612164    18.296747    2321.7554    1891.3279    2338.7465    1901.7393    30.218998    30.218998    30.218998    16.920453     10.16633    1.9905089    4.2138473    30.218998    30.218998    30.218998 
 1590000    306.01785   -8595.0782    0.9441895    1428.9465   -20.874307    30639.351   -40675.322    32067.073    22.098343   -8603.7639    29.559976   -543.73127    27620.936   -1.2943609     1.518688    18.703024     2348.862    1902.6382    2365.9487    1912.8722    30.228236    30.228236    30.228236    11.946684    6.6919484    3.2042524    1.8301316    30.228236    30.228236    30.228236 
 1600000    309.64257   -8496.5015   0.93820637    1500.9077   -20.742031    30664.232   -40672.359    32168.284    17.597983   -8502.3217    26.562164    191.05033     27797.08   -1.3916333    1.9261472    19.222748    2402.3357     1930.783    2419.8717    1941.1471    30.292357    30.292357    30.292357    10.717814    5.0828862    1.8964746    3.3751237    30.292357    30.292357    30.292357 
 1610000    291.22186   -8500.1225   0.94520899    1404.0821   -20.896846    30759.271   -40675.587     32162.99    21.260336   -8509.2874    30.061739   -429.84642    27591.144   -2.1319552    2.2369977    19.542294    2410.0785    1923.3174     2427.625    1933.3175    30.217364    30.217364    30.217364    12.110959    3.9549493    2.3862397     4.895315    30.217364    30.217364    30.217364 
 1620000    297.96637   -8525.6548    0.9579633    1491.7192    -21.17882    30640.287   -40671.807     32129.17    24.015148   -8536.6563    32.180337    278.07755    27223.796   -2.4140809    2.2683959     19.71496    2423.1852    1928.9282    2440.9041    1939.3801     30.08266     30.08266     30.08266    14.145267     7.792587    3.5726211    2.4764468     30.08266     30.08266     30.08266 
 1630000    289.61449   -8581.9602   0.97754547    1573.0246   -21.611746    30504.509   -40671.052    32071.275    27.869968   -8590.7218    30.373346    899.88088     26678.45    -1.964138    1.7966287    19.232541    2390.0244    1920.3946    2407.4622    1930.9873    29.880431    29.880431    29.880431     11.55848    5.7061494    1.6171701    3.6349044    29.880431    29.880431    29.880431 
 1640000    306.39016   -8526.9778    0.9475308    1458.8081   -20.948177    30676.259   -40673.178    32136.703    19.312639   -8532.2333    26.203682    -94.32531    27523.536   -1.4028636    1.7334459     18.87404    2425.8522    1971.6042    2443.4979    1982.4493    30.192662    30.192662    30.192662    11.133309    5.5547666     3.994575    1.3413608    30.192662    30.192662    30.192662 
 1650000    299.72157   -8495.4818   0.95460714    1443.2893   -21.104622    30717.056   -40670.329    32156.207    25.242814   -8507.7398    33.362567   -55.281234    27319.509  -0.86660214    1.7991567    18.752871    2424.5097     1973.571    2442.1553    1984.1011    30.117873    30.117873    30.117873    14.501478     7.679612    1.0817142    5.2110712    30.117873    30.117873    30.117873 
 1660000    295.40425   -8526.4094   0.94634652    1439.5948   -20.921994      30700.3   -40674.638    32138.844    21.972673   -8530.7444    25.257076   -292.63812    27557.979  -0.55696793    1.9002537    19.291037    2472.3496    1997.2738    2490.3793     2008.352    30.205251    30.205251    30.205251    8.3333008    4.9580753    1.6492028    1.4914407    30.205251    30.205251    30.205251 
 1670000    286.01396   -8526.3461   0.95515716     1457.331   -21.116782     30671.38   -40671.906    32126.374    23.452847   -8539.3433    34.113964   -237.93934    27303.777  -0.42933433     2.564396    19.169891    2465.5195    1988.7331    2483.4854    1999.3061    30.112091    30.112091    30.112091    16.848936    6.9998027    4.9009115    4.1728005    30.112091    30.112091    30.112091 
 1680000    308.37766    -8435.467   0.94779849    1435.3916   -20.954095    30787.155   -40670.763    32223.918    19.582548    -8442.088    27.575169   -103.73445    27515.762  -0.52834199    3.7153887    18.785078    2474.3576    2003.6297    2492.4674    2014.5286    30.189819    30.189819    30.189819    12.749863    4.4694923    5.6225594    2.5407097    30.189819    30.189819    30.189819 
 1690000    306.78984   -8520.9179   0.93909487    1487.0763   -20.761674     30651.39   -40674.122     32134.09    25.137713   -8534.8137    34.657477   -27.803628    27770.781  -0.61873454    4.8287782    18.684364     2510.416    2030.6557    2528.7691    2041.9668      30.2828      30.2828      30.2828     14.73803    7.3091905    3.7478465    3.3986941      30.2828      30.2828      30.2828 
 1700000    295.41823   -8458.2044   0.94472503    1475.2669   -20.886146    30712.989   -40660.733    32195.698    13.444362   -8466.1436    28.825364    288.50925    27605.279  -0.65039587    5.4221699    18.755431    2531.4393    2039.6426    2549.8955    2050.7928    30.222523    30.222523    30.222523     14.27181    6.8183069    3.5598189    3.3946848    30.222523    30.222523    30.222523 
 1710000    286.32683   -8581.7104   0.94520904    1510.9538   -20.896847    30565.969   -40671.684    32077.197    20.622449    -8589.119    28.305415   -112.50676    27591.143  -0.89636446     5.561091    18.815489    2542.6622    2047.1884    2561.1551    2058.1169    30.217363    30.217363    30.217363    13.050558    5.5410655    2.9002882    3.8389013    30.217363    30.217363    30.217363 
 1720000    282.42888   -8536.6794   0.95857611    1521.4772   -21.192368    30599.349   -40670.949    32122.358    19.661268   -8546.7869     31.29988    470.56559    27206.392  -0.56610607      5.56236    18.604215    2526.2971    2038.2647    2544.6577    2049.0431    30.076248    30.076248    30.076248    13.443279    5.7318392    5.5819743    1.7952816    30.076248    30.076248    30.076248 
 1730000    314.21243   -8556.0769   0.95442548    1459.1745   -21.100606    30646.646   -40671.955    32110.915    16.006874   -8559.4504    24.474118    7.1201086    27324.708 -0.017426808    5.9142972    18.983262    2563.8268    2053.2161    2582.4774    2064.3505    30.119783    30.119783    30.119783    10.057591    5.7946466    2.6107973    1.4312099    30.119783    30.119783    30.119783 
 1740000    290.82826   -8445.4472   0.94347885    1436.6846   -20.858595    30780.354   -40673.776    32220.183    17.713577   -8451.8293    27.240698    125.85187    27641.741   0.22829165    6.0224559    19.395542    2613.5445    2082.1524     2632.575    2093.4124    30.235823    30.235823    30.235823    11.290755    5.6327655    4.6851597   0.74116973    30.235823    30.235823    30.235823 
 1750000    289.41167   -8551.9832    0.9557783     1469.866   -21.130514    30634.557   -40672.381    32103.661    21.892887    -8565.636    34.783246     13.86572    27286.033   0.22185397    5.6831911    19.702609    2625.9069    2087.0381     2645.041    2098.1349    30.105566    30.105566    30.105566    15.974075    6.8618283     4.545863    3.8308291    30.105566    30.105566    30.105566 
 1760000    294.82741   -8458.1738   0.95525612    1459.0405   -21.118969    30738.654   -40672.958    32195.065    23.747688   -8471.8047    34.749936    114.98977    27300.948   0.20935436    5.0243555    20.009274    2648.5937    2106.9645    2667.8179    2118.0712    30.111051    30.111051    30.111051     17.08987    6.3896212    4.7608836    5.1311392    30.111051    30.111051    30.111051 
 1770000    298.37257   -8500.6027   0.95089472    1464.1466   -21.022547    30689.447   -40669.657    32156.338    18.278095   -8511.0599    31.479779    137.03936    27426.167   0.74912384    4.6864695    20.123137    2678.4014    2131.6055    2697.8892    2143.0858    30.157017    30.157017    30.157017    15.461523    6.7075022    5.2542205    2.7837121    30.157017    30.157017    30.157017 
 1780000    293.21679   -8469.9217   0.94012775     1450.589   -20.784509    30737.853   -40673.034    32191.737     17.48999   -8479.1353    29.998107   -186.72725     27740.27    1.6588712     4.647454    19.436763    2679.0728    2156.7702    2698.6823    2168.6871    30.271706    30.271706    30.271706    14.670283    8.2783521    4.3577344    1.8787068    30.271706    30.271706    30.271706 
 1790000     298.6618   -8524.0774    0.9542184    1463.3939   -21.096027    30667.725   -40668.241    32133.122    19.092218   -8531.8511    28.869779    98.783002    27330.638    2.7036854    4.8308438    17.703378    2617.2406    2156.1093    2636.3431    2168.3768    30.121962    30.121962    30.121962    13.045385    8.3120205    2.2023552    2.0768244    30.121962    30.121962    30.121962 
 1800000     299.6633   -8470.1045   0.94475367    1437.7107   -20.886779    30747.318   -40671.786    32187.738     18.17665   -8479.7678     30.55003    -315.5356    27604.442    3.9548074    4.8832904    16.292008    2622.7369    2200.3292    2641.8125    2213.0997    30.222217    30.222217    30.222217    16.652681    9.7775565    3.0038177    3.1251488    30.222217    30.222217    30.222217 
 1810000    305.22172   -8582.7245   0.94190919     1477.305   -20.823893    30601.246    -40675.33    32084.434    14.940186   -8590.6978    28.797243   -276.01423    27687.805      5.31145    4.4963929    15.328532     2617.701    2216.7992    2636.7725    2229.6831    30.252609    30.252609    30.252609    14.055196     5.230018    4.3583854    3.7231463    30.252609    30.252609    30.252609 
 1820000    293.34852   -8588.2505   0.94869788    1514.9144   -20.973979     30553.05   -40673.264    32067.033    21.904633   -8601.8768    34.600292   -71.591364    27489.677    6.4663857    4.5041622    14.795447    2627.6667    2226.1594    2646.7803    2239.2787    30.180276    30.180276    30.180276    17.049874    9.9813508    3.5770337    3.0760187    30.180276    30.180276    30.180276 
 1830000    304.26986   -8563.0168   0.97064056    1431.7522   -21.459091     30665.83   -40674.216    32093.412     25.62885   -8573.6535    32.095814    -207.6723    26868.234    7.1041005    4.9107027    14.256841    2604.8375    2203.8458    2623.7424    2216.9184    29.951118    29.951118    29.951118    13.617056    7.2044809    4.0388837    2.1248326    29.951118    29.951118    29.951118 
 1840000    291.35519   -8540.9288   0.95240602    1538.8412   -21.055959    30573.676   -40668.146    32116.345    17.228785   -8549.0029    29.130126    271.54778    27382.647    7.0346142    5.4646322    13.784446    2632.9841    2240.9763     2652.164    2254.5489    30.141057    30.141057    30.141057    14.699647    7.5323731    4.4715554    2.2585367    30.141057    30.141057    30.141057 
 1850000     301.9898   -8587.5647   0.94734807    1494.3502   -20.944137     30580.69   -40672.286    32074.939     21.04566   -8593.9391    27.318453    81.551993    27528.844    6.2647411    5.4213263    13.338784    2617.2133    2253.9735    2636.2779    2267.8457    30.194603    30.194603    30.194603    9.6808454    4.4070584    2.2415048    2.4266176    30.194603    30.194603    30.194603 
 1860000    294.56499   -8593.3867   0.94890102    1473.0533    -20.97847    30588.535   -40666.343    32063.323    19.243607   -8600.2547    27.846438   -263.24282    27483.791    5.1181589    5.4036447    12.674432    2590.1967    2265.8481    2609.1217    2279.8416    30.178122    30.178122    30.178122    11.368862    5.4181511    2.7802498     2.570528    30.178122    30.178122    30.178122 
 1870000    306.65248   -8540.4808   0.96444547    1424.7607   -21.322129    30692.619     -40672.8    32117.596    21.105188   -8550.2714    31.112782   -187.40501    27040.821    4.6487369    6.1453903    12.227639    2564.3367    2248.4122    2583.0675    2262.1629    30.015111    30.015111    30.015111    14.940289    4.9828622    1.8279221    6.6397131    30.015111    30.015111    30.015111 
 1880000    298.99479   -8588.4562   0.96045326    1534.6184   -21.233869    30539.003    -40675.28    32070.746    24.109358   -8598.0021    30.779832    309.41831    27153.219    5.1040859    7.1871283    12.257464    2602.0775    2261.0371    2621.0124    2274.8933    30.056641    30.056641    30.056641    13.203076    5.9592795    3.8369178    2.9390581    30.056641    30.056641    30.056641 
 1890000    308.94254   -8432.9601   0.94189091    1471.8446   -20.823489    30753.381   -40675.597    32221.592    24.457766   -8448.3681     36.23147    144.77436    27688.342    5.8046293     7.546758    12.636832    2671.7488    2301.8765     2691.179    2315.7263    30.252805    30.252805    30.252805    17.410702     5.988786    4.7733571    5.3317634    30.252805    30.252805    30.252805 
 1900000    297.43428   -8537.9214   0.95085232    1487.4351   -21.021609     30631.02   -40671.071    32122.167    17.309715   -8546.4688    29.569011    45.527902    27427.391    6.4695036    7.1203266    13.476087    2699.0229    2300.4716    2718.7778    2314.2099    30.157465    30.157465    30.157465    14.694344    6.3537484    2.2927406    5.2624044    30.157465    30.157465    30.157465 
 1910000    298.35391   -8518.6298    0.9532396    1404.1359   -21.074388    30735.848   -40670.596    32131.886    29.172673    -8529.253    31.697519   -399.16921    27358.702     7.130586    6.5459652    14.693698    2748.6645    2308.9242    2768.7414    2322.5646    30.132268    30.132268    30.132268    11.982649    6.6175497    1.8646603    2.8532692    30.132268    30.132268    30.132268 
 1920000    299.71269    -8559.789   0.95068139    1489.5797    -21.01783    30609.381    -40669.85    32099.656    20.322191    -8566.933    28.161819    165.51215    27432.322    7.4962092    6.1557983    15.495603    2796.2859    2327.9186    2816.6684    2341.5313    30.159272    30.159272    30.159272    11.100623    4.7912882    2.7541659      3.02037    30.159272    30.159272    30.159272 
 1930000    293.39943   -8558.5865   0.94999864    1458.4217   -21.002736    30644.469   -40673.602    32092.799    31.095163   -8569.8281    32.244254   -409.87905    27452.037    7.1244367    5.8641901    15.366523    2791.7562     2340.214    2812.1563    2354.0746    30.166495    30.166495    30.166495      12.1242    3.5270726    2.9818755    4.8390899    30.166495    30.166495    30.166495 
 1940000     300.4831    -8564.365   0.94545333    1465.6645   -20.902248    30627.775   -40670.744    32088.915     25.42692   -8575.8049    32.342177   -440.78604    27584.014    6.3149773    5.4747642     14.44327    2771.8859    2371.7865     2792.162    2385.8406     30.21476     30.21476     30.21476    12.939714    5.9723271    3.0218054    3.5566756     30.21476     30.21476     30.21476 
 1950000    293.80768   -8563.6826   0.96475899    1480.5375    -21.32906    30617.208   -40675.448    32098.069    21.005632   -8572.8251    30.471604    95.291415    27032.034     5.481715     5.110698    13.783157    2719.7113    2359.2328    2739.4819    2373.4307     30.01186     30.01186     30.01186    14.020122    6.0126295    4.6614503    2.8576187     30.01186     30.01186     30.01186 
 1960000    303.85497     -8490.14    0.9382749    1444.2638   -20.743546    30715.562   -40668.068    32158.091    22.478005   -8503.2332    33.836739     -611.515     27795.05    5.2933202    4.8981868    14.340674    2781.8755    2410.2138    2802.2401    2425.0425    30.291619    30.291619    30.291619     18.10248    11.906792    2.9044413    3.0365619    30.291619    30.291619    30.291619 
 1970000    297.86645   -8573.1324   0.97105544    1513.4346   -21.468263    30568.709   -40671.499    32079.778    23.833283   -8586.6017    34.937528    703.13699    26856.755    6.1593824    4.5799082    14.795059    2758.3813    2361.4494    2778.5732    2375.8673    29.946852    29.946852    29.946852    16.223301    10.448566    2.0906239    3.1791844    29.946852    29.946852    29.946852 
 1980000    300.89718   -8572.5156   0.94863287    1447.1478   -20.972541    30636.704   -40670.761    32083.531    21.293281   -8582.4679    30.924783   -533.06805     27491.56    7.3854174    3.9564142    14.321867    2818.0844     2422.523     2838.584     2437.047    30.180966    30.180966    30.180966    14.393209    7.5405618    3.9600762    2.4438662    30.180966    30.180966    30.180966 
 1990000    304.87525   -8527.7439   0.95253157     1507.876   -21.058735    30622.402   -40673.552    32134.909    16.428094   -8537.2286    30.543479    324.55835    27379.038    8.6469245    3.7875508     13.79634    2835.4208    2431.9099    2856.0998    2446.4842    30.139732    30.139732    30.139732    15.529469    7.3979812    5.5859603    2.1608216    30.139732    30.139732    30.139732 
 2000000    294.67033   -8560.7057   0.95192979     1480.318    -21.04543    30614.841   -40673.177    32095.545    20.659572   -8573.3457    33.685459   -96.196963    27396.346    9.8205898    4.3226229    13.654905     2876.039    2444.6974    2896.9391    2459.0288    30.146082    30.146082    30.146082    17.312267     4.635162    6.2719655    5.2950396    30.146082    30.146082    30.146082 
 2010000     312.0218   -8493.3361   0.93867472    1518.0795   -20.752385     30649.34   -40671.163     32169.74    18.432291   -8498.6589    26.075153    476.21931    27783.211    10.676897    4.4445499    14.079336    2957.7616    2489.7914    2979.3737     2504.387    30.287318    30.287318    30.287318    10.407039    4.8842393    1.6579827     3.178278    30.287318    30.287318    30.287318 
 2020000    304.52826   -8507.3145   0.93801945    1519.2991   -20.737898    30629.633   -40671.102     32150.24    19.430299   -8517.6634    31.086805    214.61129    27802.619    10.927585    4.7011521    14.464136    2999.7463    2508.6171    3021.5798     2523.524    30.294369    30.294369    30.294369    14.855103     6.554093    5.0926834    2.8829788    30.294369    30.294369    30.294369 
 2030000    293.99498   -8517.7373   0.96610583    1469.6449   -21.358837    30672.332   -40672.486    32140.449    22.886893   -8528.1504    31.771969    440.53305    26994.349    10.308955    5.2304282    14.024296    2944.0723    2475.9312    2965.5051    2490.5478    29.997907    29.997907    29.997907    12.771192    5.7139243    2.7581697    3.4160243    29.997907    29.997907    29.997907 
 2040000    292.50498   -8573.0933   0.95342819    1497.0804   -21.078557     30589.59   -40670.882    32084.702    23.046103   -8580.2463    28.231582     14.60773     27353.29    9.5220447    5.8629056    13.533127    2952.2249    2510.4909    2973.8325    2525.7676    30.130282    30.130282    30.130282    11.118364    3.8108497    3.6874075    3.4264111    30.130282    30.130282    30.130282 
 2050000    298.23779   -8534.0671   0.96534027    1465.8531   -21.341912    30655.648   -40672.175    32124.952    17.891002   -8545.1155    32.390292    180.55026    27015.757    8.8235458    5.2019168    13.099956    2904.3476    2501.5863    2925.5565      2516.53    30.005835    30.005835    30.005835    16.606555    7.8921186    4.5743471    3.4121965    30.005835    30.005835    30.005835 
 2060000     301.0629   -8601.7253   0.94870123    1458.0188   -20.974053    30597.867   -40670.947    32056.691    20.168268   -8609.2739    28.522688   -436.70692    27489.579     8.935118    4.5101143    13.557298    2953.8554    2543.9242    2975.3947    2559.3819    30.180241    30.180241    30.180241    13.335966    7.2412298     3.105453    2.4491838    30.180241    30.180241    30.180241 
 2070000     300.2625   -8552.1777   0.94343195     1488.474   -20.857558    30618.835   -40672.884    32109.666    18.500727   -8559.8177    28.497576   -114.75908    27643.115    8.7728921    3.7075543    14.082701    2987.4955    2572.9382     3009.377    2588.7472    30.236324    30.236324    30.236324    13.397511    5.2526744    4.7198768    3.0024917    30.236324    30.236324    30.236324 
 2080000    303.08668    -8611.689   0.94613047    1531.5584   -20.917218    30505.193   -40665.542    32040.215    17.453574   -8623.7847    33.012836    206.64709    27564.272    8.6936681    2.4593889    14.026762    2981.7049    2583.9743    3003.4675    2599.9335    30.207551    30.207551    30.207551    17.101274    7.1512135    4.6839249    4.2619122    30.207551    30.207551    30.207551 
 2090000    293.53579   -8484.1457   0.94059887    1391.8967   -20.794924    30777.832   -40669.292    32170.414       20.109   -8495.1073    31.756528    -585.9033    27726.376    8.8787437    1.4206615    13.366909    2961.3925    2588.8726    2982.9824    2604.9903    30.266651    30.266651    30.266651    15.418143    5.4312381    5.2287094     3.876584    30.266651    30.266651    30.266651 
 2100000    302.84162    -8530.705   0.96181428    1461.2467   -21.263958    30670.386   -40673.746    32134.315    18.581827   -8537.4086    27.967521     391.7421    27114.796    8.8582733    0.9827718    12.060615     2898.799     2567.744    2919.9945    2584.0121    30.042457    30.042457    30.042457    11.407766    5.4775868    1.8859646    3.6840758    30.042457    30.042457    30.042457 
Loop time of 5192.4 on 20 procs for 2100000 steps with 2611 atoms

Pair  time (%) = 3014.43 (58.0546)
Bond  time (%) = 3.91084 (0.0753185)
Kspce time (%) = 1310.67 (25.2421)
Neigh time (%) = 123.226 (2.37319)
Comm  time (%) = 236.709 (4.55875)
Outpt time (%) = 1.20421 (0.0231918)
Other time (%) = 502.254 (9.67287)

Nlocal:    130.55 ave 149 max 119 min
Histogram: 4 1 4 1 2 5 0 0 2 1
Nghost:    5921.8 ave 6021 max 5819 min
Histogram: 1 0 3 4 2 3 2 1 3 1
Neighs:    72299.1 ave 89927 max 60337 min
Histogram: 2 3 2 3 3 3 2 1 0 1

Total # of neighbors = 1445981
Ave neighs/atom = 553.804
Ave special neighs/atom = 2.06281
Neighbor list builds = 51909
Dangerous builds = 0
System init for write_data ...
PPPM initialization ...
  G vector (1/distance) = 0.260078
  grid = 24 24 24
  stencil order = 5
  estimated absolute RMS force accuracy = 0.00165291
  estimated relative force accuracy = 4.97769e-06
  using double precision FFTs
  3d grid and FFT values/proc = 4332 1152
