LAMMPS (3 Mar 2020)


units real

boundary p p p

atom_style full
pair_style lj/cut/coul/long 10.0
kspace_style ewald 1.0e-4
bond_style harmonic
angle_style harmonic
dihedral_style harmonic
improper_style cvff

read_data 3.4.data
  orthogonal box = (-0.307406 -0.111927 0) to (29.2126 30.4881 157)
  2 by 2 by 20 MPI processor grid
  reading atoms ...
  6610 atoms
  scanning bonds ...
  3 = max bonds/atom
  scanning angles ...
  6 = max angles/atom
  scanning dihedrals ...
  9 = max dihedrals/atom
  scanning impropers ...
  1 = max impropers/atom
  reading bonds ...
  7236 bonds
  reading angles ...
  13080 angles
  reading dihedrals ...
  20826 dihedrals
  reading impropers ...
  3096 impropers
  4 = max # of 1-2 neighbors
  6 = max # of 1-3 neighbors
  18 = max # of 1-4 neighbors
  18 = max # of special neighbors
  special bonds CPU = 0.044997 secs
  read_data CPU = 0.443108 secs

#settings
neighbor 2.0 bin
neigh_modify delay 2 check yes

#group
group he id 1:322
322 atoms in group he
group allc4 molecule  2:301
3600 atoms in group allc4
group graphene subtract all allc4 he
2688 atoms in group graphene
region vacuo block INF INF INF INF 116.0 INF
group c4h6 molecule 2:151
1500 atoms in group c4h6
group c4h10 molecule 152:301
2100 atoms in group c4h10

fix 1 graphene  setforce 0.0 0.0 0.0
fix 11 he       setforce 0.0 0.0 0.0

#structure optimization
minimize 1.0e-4 1.0e-6 1000 10000
WARNING: Using 'neigh_modify every 1 delay 0 check yes' setting during minimization (../min.cpp:190)
Ewald initialization ...
  using 12-bit tables for long-range coulomb (../kspace.cpp:332)
  G vector (1/distance) = 0.192904
  estimated absolute RMS force accuracy = 0.0427943
  estimated relative force accuracy = 0.000128874
  KSpace vectors: actual max1d max3d = 651 15 14895
                  kxmax kymax kzmax  = 4 4 15
Neighbor list info ...
  update every 1 steps, delay 0 steps, check yes
  max neighbors/atom: 2000, page size: 100000
  master list distance cutoff = 12
  ghost atom cutoff = 12
  binsize = 6, bins = 5 6 27
  1 neighbor lists, perpetual/occasional/extra = 1 0 0
  (1) pair lj/cut/coul/long, perpetual
      attributes: half, newton on
      pair build: half/bin/newton
      stencil: half/bin/3d/newton
      bin: standard
WARNING: Inconsistent image flags (../domain.cpp:785)
Per MPI rank memory allocation (min/avg/max) = 38.49 | 38.86 | 39.55 Mbytes
Step Temp E_pair E_mol TotEng Press 
       0            0    28111.992    12332.214    40444.206    9573.9564 
      10            0    28054.842    12225.693    40280.535    12704.662 
Loop time of 0.340514 on 80 procs for 10 steps with 6610 atoms

74.4% CPU use with 80 MPI tasks x no OpenMP threads

Minimization stats:
  Stopping criterion = energy tolerance
  Energy initial, next-to-last, final = 
         40444.2059941       40282.637969      40280.5349744
  Force two-norm initial, final = 349.843 66.5148
  Force max component initial, final = 19.2238 4.34992
  Final line search alpha, max atom move = 0.0153092 0.0665939
  Iterations, force evaluations = 10 20

MPI task timing breakdown:
Section |  min time  |  avg time  |  max time  |%varavg| %total
---------------------------------------------------------------
Pair    | 2.3842e-06 | 0.014785   | 0.05021    |  11.6 |  4.34
Bond    | 4.7684e-06 | 0.0010234  | 0.0038671  |   3.8 |  0.30
Kspace  | 0.085866   | 0.12357    | 0.17906    |   4.9 | 36.29
Neigh   | 0          | 0          | 0          |   0.0 |  0.00
Comm    | 3.8147e-06 | 0.079258   | 0.11028    |  10.1 | 23.28
Output  | 0          | 0          | 0          |   0.0 |  0.00
Modify  | 1.9073e-06 | 2.2802e-05 | 6.0558e-05 |   0.0 |  0.01
Other   |            | 0.1219     |            |       | 35.79

Nlocal:    82.625 ave 192 max 0 min
Histogram: 20 0 4 7 16 12 4 5 8 4
Nghost:    2211.06 ave 4449 max 0 min
Histogram: 8 4 4 8 5 33 2 4 6 6
Neighs:    19526.4 ave 69492 max 0 min
Histogram: 20 12 24 12 0 0 0 0 6 6

Total # of neighbors = 1562110
Ave neighs/atom = 236.325
Ave special neighs/atom = 11.3156
Neighbor list builds = 0
Dangerous builds = 0

compute  mobile allc4  temp
velocity allc4  create  298.0 45218
fix 3 all nvt temp 298.0 298.0 100.0

#variable
variable Nc4h10 equal count(c4h10,vacuo)/14.0
variable Nc4h6 equal count(c4h6,vacuo)/10.0
variable st equal step/1000000

#statistics
fix number allc4 print 10000 "${st} ns  c4h6 c4h10 = ${Nc4h6} ${Nc4h10}" file number.tem

#number density calculation
compute dense allc4 chunk/atom bin/1d z lower 2
fix C4H10number c4h10 ave/chunk 100 10 100000 dense density/number ave one file c4h10density.tem
fix C4H6number c4h6 ave/chunk 100 10 100000 dense density/number ave one file c4h6density.tem

timestep  1
thermo   10000
dump mydump all  xyz 10000 10ps.xyz
dump_modify  mydump element He Cp C H C3 C2
thermo_style custom step temp press etotal

echo both
restart 5000000  *.restart
run 10000000
Ewald initialization ...
  using 12-bit tables for long-range coulomb (../kspace.cpp:332)
  G vector (1/distance) = 0.192904
  estimated absolute RMS force accuracy = 0.0427943
  estimated relative force accuracy = 0.000128874
  KSpace vectors: actual max1d max3d = 651 15 14895
                  kxmax kymax kzmax  = 4 4 15
WARNING: Inconsistent image flags (../domain.cpp:785)
Per MPI rank memory allocation (min/avg/max) = 37.63 | 38 | 38.69 Mbytes
Step Temp Press TotEng 
      10    162.27901    13735.114     43477.46 
0.01 ns  c4h6 c4h10 = 0 0
   10000    292.37293    13031.484    50478.751 
0.02 ns  c4h6 c4h10 = 0 0
   20000    304.11431    12621.557    50615.355 
0.03 ns  c4h6 c4h10 = 0 0
   30000    301.62061    12921.255    50527.825 
0.04 ns  c4h6 c4h10 = 0 0
   40000    298.84842    13113.871    50455.397 
0.05 ns  c4h6 c4h10 = 0 0
   50000    295.80921    12982.882    50463.903 
0.06 ns  c4h6 c4h10 = 1 0
   60000    302.76668    13145.859    50439.297 
0.07 ns  c4h6 c4h10 = 1 0
   70000    297.85378    13211.928    50287.602 
0.08 ns  c4h6 c4h10 = 1.2 0
   80000    293.95292    12790.124    50150.362 
0.09 ns  c4h6 c4h10 = 1 0
   90000    302.44184    12943.543    50277.828 
0.1 ns  c4h6 c4h10 = 1 0
  100000    300.49454    13198.669     50200.02 
0.11 ns  c4h6 c4h10 = 1 0
  110000    297.31182    13708.713    50088.495 
0.12 ns  c4h6 c4h10 = 2 0
  120000    299.47629    13118.102    50048.452 
0.13 ns  c4h6 c4h10 = 2 0
  130000    298.75994      13333.9     50025.82 
0.14 ns  c4h6 c4h10 = 3.1 0
  140000    294.38799    13517.258    49933.772 
0.15 ns  c4h6 c4h10 = 3.5 0
  150000    296.60545     13312.33    50108.423 
0.16 ns  c4h6 c4h10 = 4 0
  160000    297.56145    13031.629    50033.905 
0.17 ns  c4h6 c4h10 = 5.4 0
  170000    299.47808     13132.73    50146.968 
0.18 ns  c4h6 c4h10 = 7.3 0
  180000    301.46626    12228.152    50193.411 
0.19 ns  c4h6 c4h10 = 6.5 0
  190000    303.52593    13215.422    50210.576 
0.2 ns  c4h6 c4h10 = 7.6 0
  200000    295.25962    13241.961     49978.94 
0.21 ns  c4h6 c4h10 = 9 0
  210000    297.60607    13392.137    50044.578 
0.22 ns  c4h6 c4h10 = 8.1 0
  220000     301.4098    13072.879    50142.396 
0.23 ns  c4h6 c4h10 = 8.5 0
  230000    295.26384    12747.107     50048.89 
0.24 ns  c4h6 c4h10 = 10.1 0
  240000    296.04178     13032.56    50068.306 
0.25 ns  c4h6 c4h10 = 10.6 0
  250000    300.19926     13299.45    49981.239 
0.26 ns  c4h6 c4h10 = 13.1 0
  260000    297.78698    13618.453    49880.366 
0.27 ns  c4h6 c4h10 = 12.6 0
  270000    291.64867    12841.332    49976.312 
0.28 ns  c4h6 c4h10 = 14 0
  280000    303.54056    13517.043    50203.179 
0.29 ns  c4h6 c4h10 = 14.7 0
  290000    298.88669    12563.464    49928.884 
0.3 ns  c4h6 c4h10 = 14.5 0
  300000    293.88246    13002.339    50044.919 
0.31 ns  c4h6 c4h10 = 15.6 0
  310000    306.72624    13433.019    50124.442 
0.32 ns  c4h6 c4h10 = 15.7 0
  320000    295.66045    13172.536    49981.658 
0.33 ns  c4h6 c4h10 = 17 0
  330000    296.24296    13608.879    50000.889 
0.34 ns  c4h6 c4h10 = 19 0
  340000    295.09654    13332.229    49979.584 
0.35 ns  c4h6 c4h10 = 18.6 0
  350000    299.23847    12681.945    50140.637 
0.36 ns  c4h6 c4h10 = 18.3 0
  360000    300.59064    13558.141    49937.195 
0.37 ns  c4h6 c4h10 = 18.3 0
  370000    294.36684    12733.588    50033.157 
0.38 ns  c4h6 c4h10 = 18 0
  380000     291.0573    13254.194    49914.725 
0.39 ns  c4h6 c4h10 = 19.2 0
  390000    293.98671    13423.754    49796.003 
0.4 ns  c4h6 c4h10 = 20.5 0
  400000    296.63301    13470.351    49849.379 
0.41 ns  c4h6 c4h10 = 20 0
  410000    303.55595     13070.12    50070.698 
0.42 ns  c4h6 c4h10 = 21.6 0
  420000    302.22131    13230.725    50014.699 
0.43 ns  c4h6 c4h10 = 22.1 0
  430000    299.63549     13166.05    50012.426 
0.44 ns  c4h6 c4h10 = 21.9 0
  440000    301.94839    13380.686    50089.234 
0.45 ns  c4h6 c4h10 = 20.4 0
  450000    294.59011    13018.632    49945.663 
0.46 ns  c4h6 c4h10 = 21.5 0
  460000    301.82251    13288.119    50064.974 
0.47 ns  c4h6 c4h10 = 20.2 0
  470000    291.32435    13181.178     49822.65 
0.48 ns  c4h6 c4h10 = 18.7 0
  480000    298.32647    13005.899    49945.501 
0.49 ns  c4h6 c4h10 = 19.4 0
  490000    299.09018    13848.785    49973.227 
0.5 ns  c4h6 c4h10 = 20.3 0
  500000    297.82456    13121.415    49923.596 
0.51 ns  c4h6 c4h10 = 20.9 0
  510000    295.32794    13252.685    49980.928 
0.52 ns  c4h6 c4h10 = 20.3 0
  520000    297.46296    12804.982     49881.31 
0.53 ns  c4h6 c4h10 = 20.8 0
  530000    307.17832    12492.504    50051.866 
0.54 ns  c4h6 c4h10 = 21.5 0
  540000    299.91991     13739.45    50048.493 
0.55 ns  c4h6 c4h10 = 21.7 0
  550000    299.07353    13551.921    49980.563 
0.56 ns  c4h6 c4h10 = 22.4 0
  560000    292.22726    13513.066    49807.272 
0.57 ns  c4h6 c4h10 = 22 0
  570000    287.82792    13135.279     49832.65 
0.58 ns  c4h6 c4h10 = 22.1 0
  580000    296.67193    13478.989     49855.06 
0.59 ns  c4h6 c4h10 = 23.5 0
  590000    296.89255    12718.874    49885.037 
0.6 ns  c4h6 c4h10 = 24.4 0
  600000    300.06327    13159.217    49951.212 
0.61 ns  c4h6 c4h10 = 24.5 0
  610000    289.66853    12454.332    49685.313 
0.62 ns  c4h6 c4h10 = 25.3 0
  620000    292.58226    13341.081    49895.245 
0.63 ns  c4h6 c4h10 = 25 0
  630000    301.92395    13273.114    50051.518 
0.64 ns  c4h6 c4h10 = 23.8 0
  640000    298.73199    12783.428    49941.306 
0.65 ns  c4h6 c4h10 = 26.2 0
  650000    301.11585     13180.15    49976.205 
0.66 ns  c4h6 c4h10 = 24.7 0
  660000    299.98138    13370.135    49911.041 
0.67 ns  c4h6 c4h10 = 25.5 0
  670000    305.43578    13762.406    50099.101 
0.68 ns  c4h6 c4h10 = 25 0
  680000    290.61832    13066.985    49809.755 
0.69 ns  c4h6 c4h10 = 26.3 0
  690000    296.58861    13127.519    49981.735 
0.7 ns  c4h6 c4h10 = 26.2 0
  700000    300.12706    13227.235    50045.104 
0.71 ns  c4h6 c4h10 = 25.7 0
  710000    297.26596    13006.122    50007.781 
0.72 ns  c4h6 c4h10 = 27 0
  720000    299.83694    13340.479    49960.756 
0.73 ns  c4h6 c4h10 = 27.5 0
  730000    296.97268    13340.135    49849.857 
0.74 ns  c4h6 c4h10 = 27.5 0
  740000    294.87491    13034.554    49865.077 
0.75 ns  c4h6 c4h10 = 27.7 0
  750000    299.54973    13187.258    49864.725 
0.76 ns  c4h6 c4h10 = 27.6 0
  760000    301.86081    13256.663    50048.629 
0.77 ns  c4h6 c4h10 = 26.6 0
  770000    303.62742    12930.764     50082.34 
0.78 ns  c4h6 c4h10 = 26.3 0
  780000    295.84776    13453.396    49710.654 
0.79 ns  c4h6 c4h10 = 25.4 0
  790000    296.56281    13362.795    49851.662 
0.8 ns  c4h6 c4h10 = 24 0
  800000    299.98422    12441.914    49965.845 
0.81 ns  c4h6 c4h10 = 24.4 0
  810000    299.26903    13039.132    49965.921 
0.82 ns  c4h6 c4h10 = 24.8 0
  820000    303.08602    12766.157    49893.138 
0.83 ns  c4h6 c4h10 = 25 0
  830000    303.56636    13172.459    49962.048 
0.84 ns  c4h6 c4h10 = 26.5 0
  840000    299.20616    13346.177     49918.73 
0.85 ns  c4h6 c4h10 = 25.4 0
  850000    298.71632    13436.206    49981.929 
0.86 ns  c4h6 c4h10 = 26 0
  860000    298.50531    13667.577    49953.662 
0.87 ns  c4h6 c4h10 = 27 0
  870000    304.03004    13481.001    50023.108 
0.88 ns  c4h6 c4h10 = 27.6 0
  880000    299.34765     13243.35    49912.757 
0.89 ns  c4h6 c4h10 = 26.5 0
  890000    290.59907    13148.875    49907.352 
0.9 ns  c4h6 c4h10 = 27.1 0
  900000    298.10639    13561.713    49907.555 
0.91 ns  c4h6 c4h10 = 27.2 0
  910000    299.08087    12765.407    49921.517 
0.92 ns  c4h6 c4h10 = 28.1 0
  920000    299.02537    14091.862    50085.743 
0.93 ns  c4h6 c4h10 = 28 0
  930000    298.37535    13626.485    49925.071 
0.94 ns  c4h6 c4h10 = 28.2 0
  940000    295.62257    13271.225    49954.614 
0.95 ns  c4h6 c4h10 = 29 0
  950000    300.37632    13159.635     50072.84 
0.96 ns  c4h6 c4h10 = 30 0
  960000    295.74741    13905.056    49990.255 
0.97 ns  c4h6 c4h10 = 29.8 0
  970000    295.42852    12954.352    49787.607 
0.98 ns  c4h6 c4h10 = 30.5 0
  980000    303.28131    13688.721    49915.382 
0.99 ns  c4h6 c4h10 = 28.4 0
  990000    304.01875    13212.163    50062.702 
1 ns  c4h6 c4h10 = 27.7 0
 1000000    299.75371    13301.597     49972.54 
1.01 ns  c4h6 c4h10 = 29.6 0
 1010000    297.85089    13605.587    49909.036 
1.02 ns  c4h6 c4h10 = 32.6 0
 1020000    295.96799    13483.279    49894.787 
1.03 ns  c4h6 c4h10 = 32.7 0
 1030000     304.9857    13535.034    49972.034 
1.04 ns  c4h6 c4h10 = 32 0
 1040000    291.55853    13464.483    49751.637 
1.05 ns  c4h6 c4h10 = 32.5 0
 1050000    299.48569    13529.599    49952.143 
1.06 ns  c4h6 c4h10 = 33 0
 1060000    296.89933    13194.519    50046.192 
1.07 ns  c4h6 c4h10 = 32.8 0
 1070000    296.72418    13166.695    50039.345 
1.08 ns  c4h6 c4h10 = 32.9 0
 1080000    294.81737    13480.359     49840.29 
1.09 ns  c4h6 c4h10 = 32.7 0
 1090000    298.19526    13606.958    49866.912 
1.1 ns  c4h6 c4h10 = 33.1 0
 1100000    297.80801    13053.845    49928.916 
1.11 ns  c4h6 c4h10 = 33.6 0
 1110000    299.45471    13077.013    49883.523 
1.12 ns  c4h6 c4h10 = 33.4 0
 1120000    296.51811    13436.875    49940.468 
1.13 ns  c4h6 c4h10 = 32.9 0
 1130000    295.99715    13152.519    49949.527 
1.14 ns  c4h6 c4h10 = 33.7 0
 1140000    297.45493     12979.98    49933.015 
1.15 ns  c4h6 c4h10 = 33.4 0
 1150000    295.08533    12771.504    49875.854 
1.16 ns  c4h6 c4h10 = 32.8 0
 1160000    300.48866    13199.686    50170.042 
1.17 ns  c4h6 c4h10 = 33.1 0
 1170000    302.32765    12736.001    49963.929 
1.18 ns  c4h6 c4h10 = 33.8 0
 1180000    300.96039    12825.449    49989.173 
1.19 ns  c4h6 c4h10 = 33.1 0
 1190000    296.72548     12850.72    49994.411 
1.2 ns  c4h6 c4h10 = 32.5 0
 1200000     298.1375    12980.789    50035.475 
1.21 ns  c4h6 c4h10 = 32.3 0
 1210000    300.37992    13260.634    50094.921 
1.22 ns  c4h6 c4h10 = 33 0
 1220000    296.41535    13728.507    49765.618 
1.23 ns  c4h6 c4h10 = 32.8 0
 1230000    308.62205      13428.3    50214.972 
1.24 ns  c4h6 c4h10 = 30.1 0
 1240000    303.40684    13619.217    49974.787 
1.25 ns  c4h6 c4h10 = 30.7 0
 1250000    297.69593    13508.174    49928.524 
1.26 ns  c4h6 c4h10 = 31.2 0
 1260000    298.89088    12586.396    50040.342 
1.27 ns  c4h6 c4h10 = 31.3 0
 1270000    299.51871    13802.674    49920.429 
1.28 ns  c4h6 c4h10 = 31.6 0
 1280000    290.39366     13154.04    49793.469 
1.29 ns  c4h6 c4h10 = 32.6 0
 1290000    301.48189    12766.026    49938.403 
1.3 ns  c4h6 c4h10 = 32.2 0
 1300000    299.99993    13331.979    50018.233 
1.31 ns  c4h6 c4h10 = 32.3 0
 1310000    298.22278    13121.719     49789.66 
1.32 ns  c4h6 c4h10 = 33 0
 1320000    302.40504    13341.132     50107.98 
1.33 ns  c4h6 c4h10 = 33.5 0
 1330000    302.20763    13854.269    49921.028 
1.34 ns  c4h6 c4h10 = 34 0
 1340000     294.6865    13443.702    49679.578 
1.35 ns  c4h6 c4h10 = 34 0
 1350000    293.70424    13405.679    49834.027 
1.36 ns  c4h6 c4h10 = 34.6 0
 1360000    297.77574    13809.509    49846.935 
1.37 ns  c4h6 c4h10 = 35.2 0
 1370000    299.71575     12595.24    50067.913 
1.38 ns  c4h6 c4h10 = 35.4 0
 1380000    301.55056    13532.237    50019.181 
1.39 ns  c4h6 c4h10 = 36.7 0
 1390000     300.1624    13664.628    49956.182 
1.4 ns  c4h6 c4h10 = 31.6 0
 1400000    294.40643    13385.217    49922.534 
1.41 ns  c4h6 c4h10 = 35.9 0
 1410000    297.85679    13597.934    49930.122 
1.42 ns  c4h6 c4h10 = 36.1 0
 1420000    292.11505    13740.779     49859.02 
1.43 ns  c4h6 c4h10 = 36.7 0
 1430000    295.49138    13734.706    49966.433 
1.44 ns  c4h6 c4h10 = 36.2 0
 1440000    295.15375    13176.663    49910.384 
1.45 ns  c4h6 c4h10 = 35.8 0
 1450000    295.93989    13112.489    49913.888 
1.46 ns  c4h6 c4h10 = 35.8 0
 1460000    296.72255     13379.21    49942.458 
1.47 ns  c4h6 c4h10 = 35.2 0
 1470000    301.49561    13539.012    50060.429 
1.48 ns  c4h6 c4h10 = 36 0
 1480000    302.96921    12680.189    49978.295 
1.49 ns  c4h6 c4h10 = 37.2 0
 1490000    294.50108    12471.691    49967.068 
1.5 ns  c4h6 c4h10 = 36.6 0
 1500000    299.38618    13013.886    50026.113 
1.51 ns  c4h6 c4h10 = 36.1 0
 1510000    295.24313    12627.056    49713.429 
1.52 ns  c4h6 c4h10 = 33.8 0
 1520000    297.53952    13608.192    50003.395 
1.53 ns  c4h6 c4h10 = 34 0
 1530000      303.292    13202.644    50106.844 
1.54 ns  c4h6 c4h10 = 35.4 0
 1540000    294.15969    13147.313    49993.954 
1.55 ns  c4h6 c4h10 = 36.3 0
 1550000    295.04818    13107.769    49985.966 
1.56 ns  c4h6 c4h10 = 36.2 0
 1560000    296.39386    13167.467    49987.577 
1.57 ns  c4h6 c4h10 = 36.1 0
 1570000    302.87537    13394.219    49950.667 
1.58 ns  c4h6 c4h10 = 36.7 0
 1580000    295.93612    13177.969     49887.28 
1.59 ns  c4h6 c4h10 = 36 0
 1590000    298.51909    13291.853    49898.004 
1.6 ns  c4h6 c4h10 = 37.6 0
 1600000    299.19419    13384.281    49957.884 
1.61 ns  c4h6 c4h10 = 37.7 0
 1610000    297.72299    13130.312    50047.381 
1.62 ns  c4h6 c4h10 = 37.2 0
 1620000    300.08969    13911.061    49870.065 
1.63 ns  c4h6 c4h10 = 37.4 0
 1630000    302.64309    13470.636    50022.072 
1.64 ns  c4h6 c4h10 = 37.4 0
 1640000    297.59726    13257.384    49921.547 
1.65 ns  c4h6 c4h10 = 39.2 0
 1650000    294.38251    13419.578     50014.73 
1.66 ns  c4h6 c4h10 = 40 0
 1660000    296.31065    13132.174    49930.183 
1.67 ns  c4h6 c4h10 = 40.7 0
 1670000    294.55929    13428.617    50016.895 
1.68 ns  c4h6 c4h10 = 37.3 0
 1680000    303.28991      13510.3    49948.443 
1.69 ns  c4h6 c4h10 = 37.6 0
 1690000    298.73818    13650.385    49940.273 
1.7 ns  c4h6 c4h10 = 37.9 0
 1700000    291.83844    13240.068    49897.143 
1.71 ns  c4h6 c4h10 = 37.8 0
 1710000    301.42461    13530.798    49973.878 
1.72 ns  c4h6 c4h10 = 39.2 0
 1720000    298.84009    13517.338    50002.149 
1.73 ns  c4h6 c4h10 = 39.3 0
 1730000    294.24016    13513.533    49994.665 
1.74 ns  c4h6 c4h10 = 40.7 0
 1740000    300.34745    13403.719    49961.941 
1.75 ns  c4h6 c4h10 = 39.9 0
 1750000    292.97584    13859.959     49843.18 
1.76 ns  c4h6 c4h10 = 40.1 0
 1760000    297.16246    13380.942    49942.963 
1.77 ns  c4h6 c4h10 = 39.9 0
 1770000    298.47317     13188.42    49898.383 
1.78 ns  c4h6 c4h10 = 38.6 0
 1780000    291.75391    13041.013    49761.314 
1.79 ns  c4h6 c4h10 = 38.1 0
 1790000    295.82511    13377.756    49889.231 
1.8 ns  c4h6 c4h10 = 38 0
 1800000    299.38422    13165.197    49918.198 
1.81 ns  c4h6 c4h10 = 38.7 0
 1810000    300.80027    13117.641    50086.084 
1.82 ns  c4h6 c4h10 = 39.7 0
 1820000    300.65495    12935.855    49955.158 
1.83 ns  c4h6 c4h10 = 39.9 0
 1830000    305.15794    12754.103    50190.177 
1.84 ns  c4h6 c4h10 = 38.1 0
 1840000    297.75695    12996.169    50004.937 
1.85 ns  c4h6 c4h10 = 40.3 0
 1850000     295.1486    13203.276    49890.927 
1.86 ns  c4h6 c4h10 = 41 0
 1860000    300.32399    13332.476    50001.239 
1.87 ns  c4h6 c4h10 = 39.7 0
 1870000    296.96726    13176.315    50094.566 
1.88 ns  c4h6 c4h10 = 39.9 0
 1880000    298.95952    13789.508    49978.221 
1.89 ns  c4h6 c4h10 = 40.4 0
 1890000    295.15165     13614.85    49803.141 
1.9 ns  c4h6 c4h10 = 39.6 0
 1900000      303.212    13983.551    49989.509 
1.91 ns  c4h6 c4h10 = 40.1 0
 1910000     306.5127    13509.347    49927.193 
1.92 ns  c4h6 c4h10 = 41.2 0
 1920000    303.02937     13652.87    49887.988 
1.93 ns  c4h6 c4h10 = 39.6 0
 1930000    302.41233    13405.554    49962.256 
1.94 ns  c4h6 c4h10 = 38.6 0
 1940000    301.30253    13683.651    50132.845 
1.95 ns  c4h6 c4h10 = 39.7 0
 1950000    302.97774     12551.76    49912.722 
1.96 ns  c4h6 c4h10 = 39.8 0
 1960000    302.91927    13403.119    50000.811 
1.97 ns  c4h6 c4h10 = 40.9 0
 1970000    304.02033    13232.647    49987.443 
1.98 ns  c4h6 c4h10 = 39.6 0
 1980000    294.94864    13193.216    49862.008 
1.99 ns  c4h6 c4h10 = 38.1 0
 1990000    290.66524    12775.132    49922.794 
2 ns  c4h6 c4h10 = 40.5 0
 2000000    297.12247    13538.937    49846.863 
2.01 ns  c4h6 c4h10 = 41.4 0
 2010000    290.61295    13376.079    49911.588 
2.02 ns  c4h6 c4h10 = 41.5 0
 2020000     296.7304    12932.247    49951.487 
2.03 ns  c4h6 c4h10 = 41.7 0
 2030000     305.0203    12673.034    50040.444 
2.04 ns  c4h6 c4h10 = 41.9 0
 2040000    296.43416    13362.225    49865.581 
2.05 ns  c4h6 c4h10 = 42 0
 2050000    300.01547    12958.786     49995.06 
2.06 ns  c4h6 c4h10 = 41.4 0
 2060000    302.93963    13124.983    49995.073 
2.07 ns  c4h6 c4h10 = 40.1 0
 2070000    297.34942    13617.916    49965.124 
2.08 ns  c4h6 c4h10 = 39.9 0
 2080000    295.40722      12797.6    49814.275 
2.09 ns  c4h6 c4h10 = 40.9 0
 2090000    301.64559    13529.531    49939.826 
2.1 ns  c4h6 c4h10 = 40.7 0
 2100000    304.21842    14701.885    50006.701 
2.11 ns  c4h6 c4h10 = 40.9 0
 2110000    294.02821    13477.281    49775.262 
2.12 ns  c4h6 c4h10 = 41.6 0
 2120000    298.19929    14002.506    49935.541 
2.13 ns  c4h6 c4h10 = 42.3 0
 2130000    297.64994    13627.495    49929.648 
2.14 ns  c4h6 c4h10 = 40.3 0
 2140000    294.80768    12747.385    49822.954 
2.15 ns  c4h6 c4h10 = 41.7 0
 2150000     297.2047    13178.321    49873.204 
2.16 ns  c4h6 c4h10 = 41 0
 2160000    300.79969    13172.048    50048.048 
2.17 ns  c4h6 c4h10 = 41.6 0
 2170000    294.45198    12665.658    49913.779 
2.18 ns  c4h6 c4h10 = 42 0
 2180000    292.59994    12757.692    49835.892 
2.19 ns  c4h6 c4h10 = 41.9 0
 2190000    297.61777    13400.145    49915.019 
2.2 ns  c4h6 c4h10 = 41.5 0
 2200000    301.00935    13114.782    49899.518 
2.21 ns  c4h6 c4h10 = 40.2 0
 2210000    299.61547    13047.566    49922.029 
2.22 ns  c4h6 c4h10 = 40.2 0
 2220000    298.11392    12645.429     49926.37 
2.23 ns  c4h6 c4h10 = 41.2 0
 2230000    302.42172    13688.702    50042.131 
2.24 ns  c4h6 c4h10 = 41.7 0
 2240000    300.99646    13294.267     50088.34 
2.25 ns  c4h6 c4h10 = 41.2 0
 2250000    295.13545    13505.158    49823.921 
2.26 ns  c4h6 c4h10 = 40.7 0
 2260000     296.4413    12731.437    49941.101 
2.27 ns  c4h6 c4h10 = 41.4 0
 2270000    297.00657    12590.736    50041.837 
2.28 ns  c4h6 c4h10 = 40.4 0
 2280000    303.05995    13283.355    49966.295 
2.29 ns  c4h6 c4h10 = 40.5 0
 2290000    301.89234    13256.841    50086.784 
2.3 ns  c4h6 c4h10 = 40.3 0
 2300000    293.23264    13616.496    49876.167 
2.31 ns  c4h6 c4h10 = 40.9 0
 2310000    301.24202     13129.94    49941.734 
2.32 ns  c4h6 c4h10 = 40.1 0
 2320000    293.23258    13553.652    49810.584 
2.33 ns  c4h6 c4h10 = 41.1 0
 2330000    292.60234    13546.563    49798.526 
2.34 ns  c4h6 c4h10 = 40.8 0
 2340000    294.67126    13650.032    49805.747 
2.35 ns  c4h6 c4h10 = 42 0
 2350000     300.9536    13377.847    50027.171 
2.36 ns  c4h6 c4h10 = 42.3 0
 2360000     297.1957    14075.219    49928.575 
2.37 ns  c4h6 c4h10 = 41.9 0
 2370000    301.67969    13262.131    50019.122 
2.38 ns  c4h6 c4h10 = 42.2 0
 2380000    300.70989     13314.89    49978.421 
2.39 ns  c4h6 c4h10 = 42.5 0
 2390000     299.9568    13399.092    49859.462 
2.4 ns  c4h6 c4h10 = 43 0
 2400000    288.97115    12916.292    49721.621 
2.41 ns  c4h6 c4h10 = 41.8 0
 2410000    298.44623    13081.798    49990.876 
2.42 ns  c4h6 c4h10 = 41.1 0
 2420000    291.87622    13329.328    49722.046 
2.43 ns  c4h6 c4h10 = 42.2 0
 2430000    299.80956     13602.81    49958.378 
2.44 ns  c4h6 c4h10 = 41.8 0
 2440000    299.53382    13835.389    50039.333 
2.45 ns  c4h6 c4h10 = 41.4 0
 2450000    301.23213    13729.937    50011.188 
2.46 ns  c4h6 c4h10 = 42.4 0
 2460000    301.02418    12682.603     49967.36 
2.47 ns  c4h6 c4h10 = 41.8 0
 2470000    297.65924    13781.345    49951.014 
2.48 ns  c4h6 c4h10 = 42.2 0
 2480000    297.66107    13719.135    49792.549 
2.49 ns  c4h6 c4h10 = 43.2 0
 2490000    297.72808    13011.907    49890.561 
2.5 ns  c4h6 c4h10 = 44.6 0
 2500000     298.2525    13424.016    49892.789 
2.51 ns  c4h6 c4h10 = 43 0
 2510000     297.5513    13414.566     49800.58 
2.52 ns  c4h6 c4h10 = 42.8 0
 2520000    296.56326    13342.183     49912.07 
2.53 ns  c4h6 c4h10 = 42.7 0
 2530000    306.09238    13481.402    50069.117 
2.54 ns  c4h6 c4h10 = 42.4 0
 2540000    296.31513    13244.954    49820.987 
2.55 ns  c4h6 c4h10 = 43.8 0
 2550000     297.1861    13466.598    49873.864 
2.56 ns  c4h6 c4h10 = 44.9 0
 2560000     310.5628    13515.579    50140.804 
2.57 ns  c4h6 c4h10 = 44.7 0
 2570000    296.36683    13784.368    50003.054 
2.58 ns  c4h6 c4h10 = 46 0
 2580000    297.13385    13053.466    49732.462 
2.59 ns  c4h6 c4h10 = 46 0
 2590000    296.13193    13566.566    49818.517 
2.6 ns  c4h6 c4h10 = 45.9 0
 2600000    301.50797    13882.613    49939.382 
2.61 ns  c4h6 c4h10 = 46.3 0
 2610000    294.90647    13342.131    49914.746 
2.62 ns  c4h6 c4h10 = 46 0
 2620000    293.10462    12784.713    49688.866 
2.63 ns  c4h6 c4h10 = 43.8 0
 2630000    299.53765    13571.607    49787.202 
2.64 ns  c4h6 c4h10 = 43.8 0
 2640000    297.44782    13343.569    49831.564 
2.65 ns  c4h6 c4h10 = 43.9 0
 2650000    304.77433    12766.137    49874.921 
2.66 ns  c4h6 c4h10 = 43.7 0
 2660000     307.5578    13376.528    49973.053 
2.67 ns  c4h6 c4h10 = 43.3 0
 2670000    295.44684    13223.304    49856.746 
2.68 ns  c4h6 c4h10 = 43.3 0
 2680000    295.63322    13615.379    50013.733 
2.69 ns  c4h6 c4h10 = 43.9 0
 2690000    300.93829    13117.969    49876.201 
2.7 ns  c4h6 c4h10 = 44 0
 2700000    296.07751    13382.072    49879.979 
2.71 ns  c4h6 c4h10 = 43.7 0
 2710000    296.60695    13680.018    49731.004 
2.72 ns  c4h6 c4h10 = 44.4 0
 2720000    301.96418    13563.422     49758.47 
2.73 ns  c4h6 c4h10 = 44.2 0
 2730000    301.00392      13033.3    50032.991 
2.74 ns  c4h6 c4h10 = 44.3 0
 2740000    292.72791    12747.304    49842.601 
2.75 ns  c4h6 c4h10 = 43.9 0
 2750000    299.27782    12706.348    49872.343 
2.76 ns  c4h6 c4h10 = 44.7 0
 2760000    302.27856    13580.129    50047.776 
2.77 ns  c4h6 c4h10 = 43.7 0
 2770000    304.26133    13536.243    49875.116 
2.78 ns  c4h6 c4h10 = 42.7 0
 2780000    297.91628    12691.816    49815.541 
2.79 ns  c4h6 c4h10 = 43.3 0
 2790000    295.10227    12937.658    49848.659 
2.8 ns  c4h6 c4h10 = 44.4 0
 2800000    295.59393    13318.916    49905.964 
2.81 ns  c4h6 c4h10 = 45 0
 2810000    293.29708    13607.981    49870.313 
2.82 ns  c4h6 c4h10 = 44.1 0
 2820000    298.54493    13490.506    49872.355 
2.83 ns  c4h6 c4h10 = 45 0
 2830000    295.08787     13503.34    49793.732 
2.84 ns  c4h6 c4h10 = 45.4 0
 2840000    308.59152    12425.247    50108.325 
2.85 ns  c4h6 c4h10 = 45.5 0
 2850000    295.87592    13078.315     49976.15 
2.86 ns  c4h6 c4h10 = 46.1 0
 2860000    298.58511    13433.715    50080.289 
2.87 ns  c4h6 c4h10 = 45.7 0
 2870000    297.07121    13033.026     49888.03 
2.88 ns  c4h6 c4h10 = 47.7 0
 2880000     295.4602    13122.081    49986.663 
2.89 ns  c4h6 c4h10 = 47.5 0
 2890000    299.52727    13277.518    49922.924 
2.9 ns  c4h6 c4h10 = 46.7 0
 2900000    297.67944    13238.846    50044.948 
2.91 ns  c4h6 c4h10 = 45.8 0
 2910000     303.1393    13188.284    49956.418 
2.92 ns  c4h6 c4h10 = 45 0
 2920000    294.82478    13721.471     49774.98 
2.93 ns  c4h6 c4h10 = 46.6 0
 2930000    294.98866    13078.622    49896.672 
2.94 ns  c4h6 c4h10 = 47.1 0
 2940000    294.87722    13164.068    49809.392 
2.95 ns  c4h6 c4h10 = 45.4 0
 2950000    294.80253    12417.972    49868.122 
2.96 ns  c4h6 c4h10 = 45 0
 2960000    296.46267    12820.342    49998.662 
2.97 ns  c4h6 c4h10 = 44.3 0
 2970000     300.6658    13000.457    49984.275 
2.98 ns  c4h6 c4h10 = 45.2 0
 2980000    293.92286    13259.956    49864.006 
2.99 ns  c4h6 c4h10 = 45.9 0
 2990000    296.33381    12910.373    49814.245 
3 ns  c4h6 c4h10 = 48.2 0
 3000000    297.57338    12850.064     49879.96 
3.01 ns  c4h6 c4h10 = 48.4 0
 3010000     290.9524    13007.045    49882.939 
3.02 ns  c4h6 c4h10 = 49.5 0
 3020000    298.84538    13078.237    49846.179 
3.03 ns  c4h6 c4h10 = 49.6 0
 3030000    289.14197    13174.958    49953.482 
3.04 ns  c4h6 c4h10 = 49.8 0
 3040000    296.64741    13288.465    49961.351 
3.05 ns  c4h6 c4h10 = 50.9 0
 3050000    294.16368    13556.678    49794.107 
3.06 ns  c4h6 c4h10 = 50.7 0
 3060000    304.29334    13605.692    49940.498 
3.07 ns  c4h6 c4h10 = 50.7 0
 3070000     296.1755    13492.846    49955.612 
3.08 ns  c4h6 c4h10 = 50.8 0
 3080000    295.73114    13604.054    49838.373 
3.09 ns  c4h6 c4h10 = 49.5 0
 3090000    296.97665    13207.594    49920.516 
3.1 ns  c4h6 c4h10 = 48.8 0
 3100000    294.80004    13650.218    49951.695 
3.11 ns  c4h6 c4h10 = 50.9 0
 3110000    294.96075     13072.65    50038.904 
3.12 ns  c4h6 c4h10 = 50 0
 3120000    292.68322    13770.826    49936.691 
3.13 ns  c4h6 c4h10 = 50.4 0
 3130000    293.95733    13203.274    49944.317 
3.14 ns  c4h6 c4h10 = 49.8 0
 3140000    296.97968    13258.304    49985.056 
3.15 ns  c4h6 c4h10 = 51.8 0
 3150000    299.66296    13050.558    49894.499 
3.16 ns  c4h6 c4h10 = 52 0
 3160000    297.47645    13434.024    50108.483 
3.17 ns  c4h6 c4h10 = 50.7 0
 3170000    294.43012    13290.042    49897.441 
3.18 ns  c4h6 c4h10 = 50.9 0
 3180000    300.58266    13792.753    49978.961 
3.19 ns  c4h6 c4h10 = 50.5 0
 3190000    297.39589    13602.443    49848.412 
3.2 ns  c4h6 c4h10 = 51.2 0
 3200000    294.86543    13055.635    49979.613 
3.21 ns  c4h6 c4h10 = 51 0
 3210000    295.09661    13585.187    50001.443 
3.22 ns  c4h6 c4h10 = 51.5 0
 3220000    293.84275    12645.108     49985.84 
3.23 ns  c4h6 c4h10 = 48.8 0
 3230000    295.93732    12913.765    49876.826 
3.24 ns  c4h6 c4h10 = 48.9 0
 3240000     298.6894    13210.942    49996.598 
3.25 ns  c4h6 c4h10 = 47.2 0
 3250000    300.46541    13543.098    50053.434 
3.26 ns  c4h6 c4h10 = 47.7 0
 3260000    297.76026    13662.539    49916.925 
3.27 ns  c4h6 c4h10 = 47.6 0
 3270000    296.10496    13326.837    49953.968 
3.28 ns  c4h6 c4h10 = 47.4 0
 3280000    294.33383    13532.016    49843.217 
3.29 ns  c4h6 c4h10 = 49.4 0
 3290000    299.94646     13251.22    49875.916 
3.3 ns  c4h6 c4h10 = 49.6 0
 3300000    296.46144    13218.759    49959.168 
3.31 ns  c4h6 c4h10 = 49.1 0
 3310000    296.39263    13045.361    49856.322 
3.32 ns  c4h6 c4h10 = 48.4 0
 3320000    298.64496    13530.891    49951.606 
3.33 ns  c4h6 c4h10 = 48.2 0
 3330000     303.0105    13289.604    50079.482 
3.34 ns  c4h6 c4h10 = 50.2 0
 3340000    291.04392    12804.626    49925.273 
3.35 ns  c4h6 c4h10 = 48.8 0
 3350000    304.60801    13644.034    50053.974 
3.36 ns  c4h6 c4h10 = 49.3 0
 3360000    287.85605    13351.943    49888.875 
3.37 ns  c4h6 c4h10 = 49.2 0
 3370000    291.19634    13194.098    49760.454 
3.38 ns  c4h6 c4h10 = 49.3 0
 3380000    292.60682     13388.87    49819.789 
3.39 ns  c4h6 c4h10 = 48.3 0
 3390000    295.23329    13497.694    49858.152 
3.4 ns  c4h6 c4h10 = 47.2 0
 3400000    298.41361    13512.789    50016.043 
3.41 ns  c4h6 c4h10 = 47.5 0
 3410000    302.46928    13593.168     50056.49 
3.42 ns  c4h6 c4h10 = 46.8 0
 3420000    300.21128    12720.261    49962.758 
3.43 ns  c4h6 c4h10 = 45.6 0
 3430000    300.43817    13068.514    49866.616 
3.44 ns  c4h6 c4h10 = 46.6 0
 3440000    295.92438     12566.03    49970.567 
3.45 ns  c4h6 c4h10 = 45.5 0
 3450000    297.57708    13094.229    49889.448 
3.46 ns  c4h6 c4h10 = 45.1 0
 3460000    297.04492    13317.401    49964.881 
3.47 ns  c4h6 c4h10 = 44.9 0
 3470000    295.77866    13677.515    49926.062 
3.48 ns  c4h6 c4h10 = 47.7 0
 3480000    292.49353    12609.764    49926.876 
3.49 ns  c4h6 c4h10 = 46.6 0
 3490000    296.40433    12828.154    49934.216 
3.5 ns  c4h6 c4h10 = 46.9 0
 3500000    296.44801     13491.55     50015.64 
3.51 ns  c4h6 c4h10 = 47 0
 3510000    294.31329    13294.138    49893.969 
3.52 ns  c4h6 c4h10 = 46.5 0
 3520000    298.95709    13902.412    49883.184 
3.53 ns  c4h6 c4h10 = 45.9 0
 3530000    295.78307    12935.265    49981.812 
3.54 ns  c4h6 c4h10 = 45.6 0
 3540000    297.63167    13027.858    49910.212 
3.55 ns  c4h6 c4h10 = 46.8 0
 3550000    295.78305    13432.974    49991.808 
3.56 ns  c4h6 c4h10 = 46.9 0
 3560000    299.84777    13166.748    49924.302 
3.57 ns  c4h6 c4h10 = 45.9 0
 3570000    293.62616    12989.453    49768.284 
3.58 ns  c4h6 c4h10 = 48.6 0
 3580000    296.94469    13300.851    49888.801 
3.59 ns  c4h6 c4h10 = 48 0
 3590000    301.25337    13692.229    49939.711 
3.6 ns  c4h6 c4h10 = 46.8 0
 3600000    294.54927    13037.106    49887.429 
3.61 ns  c4h6 c4h10 = 48 0
 3610000    301.00498    13082.144    50040.396 
3.62 ns  c4h6 c4h10 = 47.7 0
 3620000    295.27803    13298.798    49894.221 
3.63 ns  c4h6 c4h10 = 47.3 0
 3630000    300.24043    13029.389    50126.533 
3.64 ns  c4h6 c4h10 = 47.9 0
 3640000    297.21523    13244.027    49984.125 
3.65 ns  c4h6 c4h10 = 46.5 0
 3650000    298.77425    13375.491     49985.54 
3.66 ns  c4h6 c4h10 = 48.8 0
 3660000    299.76012    13011.021    49936.652 
3.67 ns  c4h6 c4h10 = 49.7 0
 3670000    293.50226    13469.666    49980.573 
3.68 ns  c4h6 c4h10 = 50.6 0
 3680000    306.35678    13160.516    50043.224 
3.69 ns  c4h6 c4h10 = 51.2 0
 3690000    308.34566    12842.841    50140.476 
3.7 ns  c4h6 c4h10 = 50.1 0
 3700000    291.38378    12920.934    49783.835 
3.71 ns  c4h6 c4h10 = 48.8 0
 3710000    292.10523    13375.163    49763.198 
3.72 ns  c4h6 c4h10 = 48.3 0
 3720000    297.58536    13179.923    49947.035 
3.73 ns  c4h6 c4h10 = 48.9 0
 3730000    295.65362    12814.071    49948.582 
3.74 ns  c4h6 c4h10 = 49.5 0
 3740000    299.79349    13281.838    49877.138 
3.75 ns  c4h6 c4h10 = 50.5 0
 3750000    296.21084    12959.966    49887.395 
3.76 ns  c4h6 c4h10 = 51.3 0
 3760000    294.04619    12656.746    49851.178 
3.77 ns  c4h6 c4h10 = 51.9 0
 3770000    297.45129      13194.4    49837.328 
3.78 ns  c4h6 c4h10 = 52.9 0
 3780000    298.31469    13019.783    49849.965 
3.79 ns  c4h6 c4h10 = 51.4 0
 3790000    303.84799    13360.691    50198.805 
3.8 ns  c4h6 c4h10 = 51 0
 3800000    301.77268    13361.118    49851.665 
3.81 ns  c4h6 c4h10 = 50.7 0
 3810000    297.92332    13075.284    49881.175 
3.82 ns  c4h6 c4h10 = 52.1 0
 3820000    298.15804    13115.448    49968.153 
3.83 ns  c4h6 c4h10 = 53.4 0
 3830000    293.09739    13319.521    49790.473 
3.84 ns  c4h6 c4h10 = 52.6 0
 3840000    295.00886        13156    49910.864 
3.85 ns  c4h6 c4h10 = 53.7 0
 3850000     295.7138    13184.233    49828.189 
3.86 ns  c4h6 c4h10 = 51.9 0
 3860000    293.33851    12691.961    49839.597 
3.87 ns  c4h6 c4h10 = 51.7 0
 3870000    292.86056    13062.429    49864.698 
3.88 ns  c4h6 c4h10 = 51.7 0
 3880000    291.29975     13535.23    49835.172 
3.89 ns  c4h6 c4h10 = 52.8 0
 3890000     295.9571    13274.532    49961.227 
3.9 ns  c4h6 c4h10 = 53 0
 3900000    300.77338    12942.863    49888.747 
3.91 ns  c4h6 c4h10 = 52.5 0
 3910000    297.58908    13790.567    49828.869 
3.92 ns  c4h6 c4h10 = 50.9 0
 3920000    291.49516    12774.372    49765.112 
3.93 ns  c4h6 c4h10 = 51 0
 3930000    303.22911    13323.107    50040.505 
3.94 ns  c4h6 c4h10 = 49.1 0
 3940000    299.81809    13756.085    50120.694 
3.95 ns  c4h6 c4h10 = 49.8 0
 3950000    297.54569    13581.007    50021.999 
3.96 ns  c4h6 c4h10 = 50.5 0
 3960000    301.59363    13456.923    50020.952 
3.97 ns  c4h6 c4h10 = 49.6 0
 3970000    297.74298    12149.504    49889.076 
3.98 ns  c4h6 c4h10 = 47.7 0
 3980000     295.3778     13489.31    49899.222 
3.99 ns  c4h6 c4h10 = 49 0
 3990000    291.20791     13304.85    49946.879 
4 ns  c4h6 c4h10 = 49.1 0
 4000000    302.23623    13459.043    50086.318 
4.01 ns  c4h6 c4h10 = 47.9 0
 4010000    296.03227    13853.448    50000.664 
4.02 ns  c4h6 c4h10 = 48.4 0
 4020000    294.05587     12734.09    49890.708 
4.03 ns  c4h6 c4h10 = 46.4 0
 4030000      300.264    13244.364    50076.952 
4.04 ns  c4h6 c4h10 = 47.1 0
 4040000     289.8988    13226.656     49794.18 
4.05 ns  c4h6 c4h10 = 47.8 0
 4050000    297.43365    13284.507    49902.759 
4.06 ns  c4h6 c4h10 = 47 0
 4060000    301.65569    13227.982    50002.662 
4.07 ns  c4h6 c4h10 = 48 0
 4070000    294.72279    13062.696    49898.012 
4.08 ns  c4h6 c4h10 = 46.6 0
 4080000    293.45658    12920.836    49819.042 
4.09 ns  c4h6 c4h10 = 49.3 0
 4090000    293.09591      13100.4    49948.328 
4.1 ns  c4h6 c4h10 = 47.7 0
 4100000    299.48641    13725.798    49884.496 
4.11 ns  c4h6 c4h10 = 47.2 0
 4110000    298.57122    13394.335    49972.481 
4.12 ns  c4h6 c4h10 = 45.3 0
 4120000    295.97683    13545.503    49823.089 
4.13 ns  c4h6 c4h10 = 46.4 0
 4130000    299.76242     12993.95     49861.89 
4.14 ns  c4h6 c4h10 = 48.1 0
 4140000    301.12764    13553.315    50009.404 
4.15 ns  c4h6 c4h10 = 47 0
 4150000    298.65247    13740.414     49975.51 
4.16 ns  c4h6 c4h10 = 48.2 0
 4160000    296.19175    13669.837    49920.829 
4.17 ns  c4h6 c4h10 = 49 0
 4170000    294.98407    13145.995    49883.406 
4.18 ns  c4h6 c4h10 = 48.2 0
 4180000     298.9554    13603.548    49903.542 
4.19 ns  c4h6 c4h10 = 48.2 0
 4190000    294.57316    13523.598     49858.46 
4.2 ns  c4h6 c4h10 = 48.3 0
 4200000    295.17027     12894.23    49954.057 
4.21 ns  c4h6 c4h10 = 47.8 0
 4210000    304.14319    12810.028    49903.461 
4.22 ns  c4h6 c4h10 = 48.7 0
 4220000    295.42675    12966.506    49987.906 
4.23 ns  c4h6 c4h10 = 47.1 0
 4230000    293.19341     13178.26    49773.005 
4.24 ns  c4h6 c4h10 = 47.9 0
 4240000    295.32625    13157.799    49870.124 
4.25 ns  c4h6 c4h10 = 48.8 0
 4250000    301.31697     13511.47    50012.681 
4.26 ns  c4h6 c4h10 = 49.6 0
 4260000    300.86905    13063.002    49938.404 
4.27 ns  c4h6 c4h10 = 49.9 0
 4270000    298.50676    13202.427    50119.499 
4.28 ns  c4h6 c4h10 = 49.9 0
 4280000    296.46866    14006.551    49857.048 
4.29 ns  c4h6 c4h10 = 49 0
 4290000    298.76665     13497.95    50025.069 
4.3 ns  c4h6 c4h10 = 49.5 0
 4300000    296.78868      13547.8    49961.362 
4.31 ns  c4h6 c4h10 = 49.2 0
 4310000    299.79957    13734.687    49920.113 
4.32 ns  c4h6 c4h10 = 50 0
 4320000    297.84775    12596.642     50132.86 
4.33 ns  c4h6 c4h10 = 49.8 0
 4330000    304.16331    13177.464    49980.944 
4.34 ns  c4h6 c4h10 = 50.2 0
 4340000    299.56391    13128.507    49915.989 
4.35 ns  c4h6 c4h10 = 49 0
 4350000    295.69655    13309.624    50032.598 
4.36 ns  c4h6 c4h10 = 48.1 0
 4360000    296.41198    12991.717    49966.855 
4.37 ns  c4h6 c4h10 = 47.4 0
 4370000    297.78636    13580.147    49921.614 
4.38 ns  c4h6 c4h10 = 47.2 0
 4380000    296.41433    12967.341    50123.586 
4.39 ns  c4h6 c4h10 = 48.3 0
 4390000    296.39277    13354.149    49790.892 
4.4 ns  c4h6 c4h10 = 47.6 0
 4400000    298.20834    13548.338    49994.256 
4.41 ns  c4h6 c4h10 = 46.9 0
 4410000    292.86634    13457.387    49893.756 
4.42 ns  c4h6 c4h10 = 47.7 0
 4420000    298.94227     13199.25    49937.657 
4.43 ns  c4h6 c4h10 = 49.1 0
 4430000     294.2098    12942.147    49990.015 
4.44 ns  c4h6 c4h10 = 49.6 0
 4440000    298.66714    13457.319    49912.909 
4.45 ns  c4h6 c4h10 = 48.8 0
 4450000    288.68626    13286.243    49767.188 
4.46 ns  c4h6 c4h10 = 46.7 0
 4460000    298.50096    13422.237    49882.302 
4.47 ns  c4h6 c4h10 = 47 0
 4470000    298.30886    13960.852    49912.113 
4.48 ns  c4h6 c4h10 = 48 0
 4480000    293.56002    12520.082    49854.584 
4.49 ns  c4h6 c4h10 = 47.6 0
 4490000    295.43743    13432.611    49926.672 
4.5 ns  c4h6 c4h10 = 46.6 0
 4500000    292.28759    13153.499    49624.176 
4.51 ns  c4h6 c4h10 = 47.3 0
 4510000    296.96969     13089.55     49848.55 
4.52 ns  c4h6 c4h10 = 47.3 0
 4520000    296.55082    12367.978    49968.046 
4.53 ns  c4h6 c4h10 = 47.3 0
 4530000    294.57499    12925.376    49912.648 
4.54 ns  c4h6 c4h10 = 48.9 0
 4540000    298.56545    13063.296    49944.595 
4.55 ns  c4h6 c4h10 = 49.6 0
 4550000    298.63409    13174.064      49781.8 
4.56 ns  c4h6 c4h10 = 48.6 0
 4560000    294.38331    13880.877    49843.948 
4.57 ns  c4h6 c4h10 = 47.4 0
 4570000     304.1404    13302.214    49994.779 
4.58 ns  c4h6 c4h10 = 48.1 0
 4580000    300.81495    13280.175    49943.296 
4.59 ns  c4h6 c4h10 = 46.4 0
 4590000    303.56014    13359.141    49971.497 
4.6 ns  c4h6 c4h10 = 46.9 0
 4600000    296.34692    13205.096    49989.572 
4.61 ns  c4h6 c4h10 = 48.5 0
 4610000    303.95219    12926.483    49989.565 
4.62 ns  c4h6 c4h10 = 48.6 0
 4620000    293.61011    12952.753     49841.16 
4.63 ns  c4h6 c4h10 = 48.6 0
 4630000    297.80424    13144.003    49908.518 
4.64 ns  c4h6 c4h10 = 49.7 0
 4640000    300.26706     12942.45    49961.128 
4.65 ns  c4h6 c4h10 = 49 0
 4650000    297.54742     13371.64     49897.01 
4.66 ns  c4h6 c4h10 = 48.7 0
 4660000    300.21726    12842.845    50029.551 
4.67 ns  c4h6 c4h10 = 47.9 0
 4670000    305.60485    13045.301    50039.622 
4.68 ns  c4h6 c4h10 = 48.8 0
 4680000     294.7691    12837.087    49908.175 
4.69 ns  c4h6 c4h10 = 49.2 0
 4690000    294.10548    13051.948    49886.835 
4.7 ns  c4h6 c4h10 = 49.4 0
 4700000    296.64482    13847.545     49908.35 
4.71 ns  c4h6 c4h10 = 50.5 0
 4710000    299.86446    13400.208    49913.204 
4.72 ns  c4h6 c4h10 = 49.7 0
 4720000    293.14075    13190.076    49831.216 
4.73 ns  c4h6 c4h10 = 49.2 0
 4730000    296.34356     12863.08    50020.473 
4.74 ns  c4h6 c4h10 = 50.9 0
 4740000    298.46625    12958.291    49899.904 
4.75 ns  c4h6 c4h10 = 50.4 0
 4750000    298.37895    14257.838     50152.05 
4.76 ns  c4h6 c4h10 = 48.5 0
 4760000    305.25968    13102.364    50007.237 
4.77 ns  c4h6 c4h10 = 47.5 0
 4770000    293.50539    13322.654    49662.143 
4.78 ns  c4h6 c4h10 = 47.5 0
 4780000    294.16861    12775.103    49776.235 
4.79 ns  c4h6 c4h10 = 48.8 0
 4790000    293.82214    13802.582    49874.925 
4.8 ns  c4h6 c4h10 = 48.8 0
 4800000    300.31044     13065.41    49914.711 
4.81 ns  c4h6 c4h10 = 47.9 0
 4810000    300.87219     12840.53    49898.128 
4.82 ns  c4h6 c4h10 = 48.8 0
 4820000     294.1764    12978.741    49850.504 
4.83 ns  c4h6 c4h10 = 47.1 0
 4830000    297.37015    13385.576    49917.205 
4.84 ns  c4h6 c4h10 = 47.8 0
 4840000    298.54446    13321.785    49967.166 
4.85 ns  c4h6 c4h10 = 47.4 0
 4850000    300.23686    12978.527    50018.065 
4.86 ns  c4h6 c4h10 = 47.3 0
 4860000    294.20365     13095.42    49811.456 
4.87 ns  c4h6 c4h10 = 47 0
 4870000    299.85944    13955.849    50039.334 
4.88 ns  c4h6 c4h10 = 46.3 0
 4880000    299.74362    13139.493    49955.948 
4.89 ns  c4h6 c4h10 = 46.6 0
 4890000    299.33774    13583.989    49841.999 
4.9 ns  c4h6 c4h10 = 46.4 0
 4900000    294.33769    13064.792    49833.974 
4.91 ns  c4h6 c4h10 = 47 0
 4910000    297.45358    13125.543     49965.34 
4.92 ns  c4h6 c4h10 = 47.2 0
 4920000    298.90018    13232.036    49937.338 
4.93 ns  c4h6 c4h10 = 46.7 0
 4930000    298.97247    13283.883    49852.163 
4.94 ns  c4h6 c4h10 = 47.8 0
 4940000    293.82559     13287.95      49726.7 
4.95 ns  c4h6 c4h10 = 45.7 0
 4950000    301.95364    13055.518    50052.992 
4.96 ns  c4h6 c4h10 = 45.7 0
 4960000    295.43352    13029.174    49905.983 
4.97 ns  c4h6 c4h10 = 44.2 0
 4970000      299.237    14147.473    49950.147 
4.98 ns  c4h6 c4h10 = 45.3 0
 4980000    301.95885    13472.903    49951.805 
4.99 ns  c4h6 c4h10 = 46.3 0
 4990000    292.78253    13156.547    49927.237 
5 ns  c4h6 c4h10 = 47.2 0
 5000000    297.76682    13109.403    49935.759 
5.01 ns  c4h6 c4h10 = 46.3 0
 5010000    302.35177    13661.692    49956.929 
5.02 ns  c4h6 c4h10 = 44.1 0
 5020000    298.78774    12937.444    49844.892 
5.03 ns  c4h6 c4h10 = 43.9 0
 5030000    295.30449    13564.035    49906.158 
5.04 ns  c4h6 c4h10 = 44.9 0
 5040000    297.36707    13526.582    49906.263 
5.05 ns  c4h6 c4h10 = 43.3 0
 5050000    297.42392    13801.768    49845.772 
5.06 ns  c4h6 c4h10 = 42.7 0
 5060000    294.48421    13267.226    49788.581 
5.07 ns  c4h6 c4h10 = 42.7 0
 5070000    297.61821    13440.218    49744.805 
5.08 ns  c4h6 c4h10 = 43.5 0
 5080000    291.51599    13650.297    49798.511 
5.09 ns  c4h6 c4h10 = 42.6 0
 5090000    292.64475    12890.275    49710.309 
5.1 ns  c4h6 c4h10 = 43.6 0
 5100000     298.8864    13705.515    49857.703 
5.11 ns  c4h6 c4h10 = 43 0
 5110000    300.57678    13240.246    49912.532 
5.12 ns  c4h6 c4h10 = 42.7 0
 5120000    294.58829    13291.505    49866.974 
5.13 ns  c4h6 c4h10 = 43.4 0
 5130000    302.55082     13641.48    50014.613 
5.14 ns  c4h6 c4h10 = 42.8 0
 5140000    298.85243    14028.986    49868.733 
5.15 ns  c4h6 c4h10 = 42.8 0
 5150000     298.8059    13851.631    49934.601 
5.16 ns  c4h6 c4h10 = 43.8 0
 5160000    299.31546    13585.882    49929.916 
5.17 ns  c4h6 c4h10 = 44.6 0
 5170000    299.48606    13843.788    49985.394 
5.18 ns  c4h6 c4h10 = 43.8 0
 5180000    298.27296    13321.972    50002.348 
5.19 ns  c4h6 c4h10 = 43.8 0
 5190000     298.9472    12830.062    49963.462 
5.2 ns  c4h6 c4h10 = 44.6 0
 5200000    296.71536    13158.785    49890.484 
5.21 ns  c4h6 c4h10 = 44.5 0
 5210000    301.82263    13537.286    49942.908 
5.22 ns  c4h6 c4h10 = 44.7 0
 5220000    300.30704     13235.31    49902.722 
5.23 ns  c4h6 c4h10 = 45.6 0
 5230000    291.74769    13340.039     49919.03 
5.24 ns  c4h6 c4h10 = 47.4 0
 5240000    292.97488    13492.489    49763.648 
5.25 ns  c4h6 c4h10 = 45.8 0
 5250000     294.8345    13592.314    49839.691 
5.26 ns  c4h6 c4h10 = 45.3 0
 5260000      297.516    13366.662    50045.894 
5.27 ns  c4h6 c4h10 = 45.8 0
 5270000    299.46822    13004.667    49983.898 
5.28 ns  c4h6 c4h10 = 45.1 0
 5280000    301.08862    13496.784     49982.31 
5.29 ns  c4h6 c4h10 = 47.5 0
 5290000    298.24798    13030.601    49912.664 
5.3 ns  c4h6 c4h10 = 46.8 0
 5300000    295.82544    13136.866    49833.152 
5.31 ns  c4h6 c4h10 = 45.4 0
 5310000    299.40131    13542.596    49874.128 
5.32 ns  c4h6 c4h10 = 45 0
 5320000    298.33972    13620.103    49797.683 
5.33 ns  c4h6 c4h10 = 44.1 0
 5330000    294.34948    13049.018    49937.273 
5.34 ns  c4h6 c4h10 = 44.1 0
 5340000    298.73613    13274.203     49954.31 
5.35 ns  c4h6 c4h10 = 43.5 0
 5350000    298.89666    13229.439    49957.564 
5.36 ns  c4h6 c4h10 = 42.9 0
 5360000    294.74417    12793.477    49775.987 
5.37 ns  c4h6 c4h10 = 43.3 0
 5370000    293.48682    12855.034    49830.708 
5.38 ns  c4h6 c4h10 = 42.3 0
 5380000    297.36876    13844.985    49805.891 
5.39 ns  c4h6 c4h10 = 43.3 0
 5390000    299.65186    13122.796    49843.917 
5.4 ns  c4h6 c4h10 = 43.5 0
 5400000    296.59292    12601.788    49904.402 
5.41 ns  c4h6 c4h10 = 45.1 0
 5410000    297.81501    13469.963    49831.473 
5.42 ns  c4h6 c4h10 = 46.4 0
 5420000    295.59501    13553.806    49906.885 
5.43 ns  c4h6 c4h10 = 46 0
 5430000    298.71633    13312.452    49833.739 
5.44 ns  c4h6 c4h10 = 46.5 0
 5440000    295.63682    12984.992    50019.115 
5.45 ns  c4h6 c4h10 = 46.9 0
 5450000    300.50425    13074.834    49981.739 
5.46 ns  c4h6 c4h10 = 47.4 0
 5460000     294.0507    12895.103    49812.242 
5.47 ns  c4h6 c4h10 = 49 0
 5470000    296.04392    13546.555    49921.431 
5.48 ns  c4h6 c4h10 = 49.1 0
 5480000    295.13617    13103.286    49776.514 
5.49 ns  c4h6 c4h10 = 49.5 0
 5490000    289.59195    13867.035    49717.923 
5.5 ns  c4h6 c4h10 = 49.9 0
 5500000    295.47934    13309.512    49828.012 
5.51 ns  c4h6 c4h10 = 50.9 0
 5510000    297.84282    12800.969    49748.944 
5.52 ns  c4h6 c4h10 = 50.6 0
 5520000    303.01074    12844.738    49990.635 
5.53 ns  c4h6 c4h10 = 51.4 0
 5530000    299.80692    13122.943    49909.469 
5.54 ns  c4h6 c4h10 = 51.6 0
 5540000     290.3766    13291.888    49915.415 
5.55 ns  c4h6 c4h10 = 51.2 0
 5550000    301.93123    12744.338    50048.006 
5.56 ns  c4h6 c4h10 = 51.8 0
 5560000    292.42656    12906.252    49845.275 
5.57 ns  c4h6 c4h10 = 50.5 0
 5570000    295.95883    13348.671    49983.911 
5.58 ns  c4h6 c4h10 = 50.7 0
 5580000    293.39208    12674.545    49845.879 
5.59 ns  c4h6 c4h10 = 51.7 0
 5590000    297.25864    13902.222    49904.146 
5.6 ns  c4h6 c4h10 = 51.1 0
 5600000    300.62237    12789.653    49981.938 
5.61 ns  c4h6 c4h10 = 51.3 0
 5610000    294.96222    12867.528    49905.121 
5.62 ns  c4h6 c4h10 = 50.5 0
 5620000    299.87698    13746.899    49992.966 
5.63 ns  c4h6 c4h10 = 51.1 0
 5630000    295.50756    13277.856    49980.092 
5.64 ns  c4h6 c4h10 = 52.2 0
 5640000    299.21901    12859.389    50044.725 
5.65 ns  c4h6 c4h10 = 51.4 0
 5650000    299.59436    13095.739    49847.984 
5.66 ns  c4h6 c4h10 = 51.6 0
 5660000    290.98321    12991.393    49729.881 
5.67 ns  c4h6 c4h10 = 50.9 0
 5670000    299.34489    13222.701    49815.932 
5.68 ns  c4h6 c4h10 = 52 0
 5680000    294.91466    12950.169    49847.407 
5.69 ns  c4h6 c4h10 = 51 0
 5690000    294.20486    13095.493     49858.48 
5.7 ns  c4h6 c4h10 = 51.8 0
 5700000    297.97851    13086.074    49811.882 
5.71 ns  c4h6 c4h10 = 53.9 0
 5710000    297.28578    13223.823    50109.722 
5.72 ns  c4h6 c4h10 = 54 0
 5720000     296.1846    13241.457      49821.8 
5.73 ns  c4h6 c4h10 = 52.7 0
 5730000      304.272    12686.289    50081.423 
5.74 ns  c4h6 c4h10 = 52.5 0
 5740000     299.1402    13556.441    49888.375 
5.75 ns  c4h6 c4h10 = 51.3 0
 5750000    303.71976    13511.873    50062.072 
5.76 ns  c4h6 c4h10 = 53.6 0
 5760000    295.12844    12801.278    49829.843 
5.77 ns  c4h6 c4h10 = 54.4 0
 5770000    305.02259    13348.375    49906.919 
5.78 ns  c4h6 c4h10 = 53.9 0
 5780000    292.14896    13969.113    49738.074 
5.79 ns  c4h6 c4h10 = 53.7 0
 5790000    302.08325     13138.71     50049.19 
5.8 ns  c4h6 c4h10 = 51.8 0
 5800000    298.23044    13189.294    49901.549 
5.81 ns  c4h6 c4h10 = 51.5 0
 5810000    292.09245    13270.732    49893.341 
5.82 ns  c4h6 c4h10 = 51.9 0
 5820000    302.57779    13562.674    49871.108 
5.83 ns  c4h6 c4h10 = 51.5 0
 5830000    301.48833    13443.736    49979.401 
5.84 ns  c4h6 c4h10 = 51.8 0
 5840000    291.88046    13820.093    49902.619 
5.85 ns  c4h6 c4h10 = 50.9 0
 5850000    295.45878    13671.699    49831.894 
5.86 ns  c4h6 c4h10 = 50.3 0
 5860000    293.50758    13170.783    49891.795 
5.87 ns  c4h6 c4h10 = 50.4 0
 5870000    294.89533    13345.609    49983.872 
5.88 ns  c4h6 c4h10 = 50.1 0
 5880000    302.35796    12961.814    50126.927 
5.89 ns  c4h6 c4h10 = 48.4 0
 5890000     301.1581    12917.773    49819.929 
5.9 ns  c4h6 c4h10 = 50.4 0
 5900000    301.99975    13132.737    50066.532 
5.91 ns  c4h6 c4h10 = 49.4 0
 5910000    300.83441    12961.426    50003.723 
5.92 ns  c4h6 c4h10 = 49.6 0
 5920000    295.65799    13530.949    49866.983 
5.93 ns  c4h6 c4h10 = 48.5 0
 5930000    294.10943    13146.446    49804.366 
5.94 ns  c4h6 c4h10 = 49.3 0
 5940000    305.04007    13821.845    50102.948 
5.95 ns  c4h6 c4h10 = 48.7 0
 5950000    296.44174    13654.476    49843.098 
5.96 ns  c4h6 c4h10 = 48 0
 5960000    298.57078    13709.288    49993.378 
5.97 ns  c4h6 c4h10 = 46.2 0
 5970000    293.73382    13055.984    49745.693 
5.98 ns  c4h6 c4h10 = 45.7 0
 5980000    298.92801    13212.115    50090.662 
5.99 ns  c4h6 c4h10 = 45.7 0
 5990000    290.69873    13495.512    49876.459 
6 ns  c4h6 c4h10 = 44.7 0
 6000000    296.00383    12824.932    49875.993 
6.01 ns  c4h6 c4h10 = 45.7 0
 6010000    295.98329    13016.964    49890.036 
6.02 ns  c4h6 c4h10 = 47 0
 6020000    301.18567    13188.695    49979.607 
6.03 ns  c4h6 c4h10 = 47.2 0
 6030000    301.84431    12805.748    49936.645 
6.04 ns  c4h6 c4h10 = 47.6 0
 6040000    293.69558    12774.431    49973.205 
6.05 ns  c4h6 c4h10 = 46.8 0
 6050000    300.86326    13647.149    49914.572 
6.06 ns  c4h6 c4h10 = 47.6 0
 6060000    293.49935    13714.403    49717.213 
6.07 ns  c4h6 c4h10 = 47.9 0
 6070000    301.58677    13309.498    50011.608 
6.08 ns  c4h6 c4h10 = 48.7 0
 6080000    295.14595    13107.561    50040.414 
6.09 ns  c4h6 c4h10 = 49.6 0
 6090000    299.03733    12924.683    49918.375 
6.1 ns  c4h6 c4h10 = 50.2 0
 6100000    295.13015    13393.252    49870.935 
6.11 ns  c4h6 c4h10 = 49.8 0
 6110000    297.00503    13264.385    49885.121 
6.12 ns  c4h6 c4h10 = 49.2 0
 6120000    297.55564    12918.102    50095.938 
6.13 ns  c4h6 c4h10 = 48.8 0
 6130000    297.69739    13429.303    49902.227 
6.14 ns  c4h6 c4h10 = 48.8 0
 6140000    300.11192    13370.866    49904.296 
6.15 ns  c4h6 c4h10 = 49.9 0
 6150000    299.93509    12942.523    49957.965 
6.16 ns  c4h6 c4h10 = 46.9 0
 6160000    302.58095    13334.692    49979.967 
6.17 ns  c4h6 c4h10 = 46.3 0
 6170000    300.46792    13364.954    50021.271 
6.18 ns  c4h6 c4h10 = 48.8 0
 6180000    297.56571     13177.83    49946.486 
6.19 ns  c4h6 c4h10 = 48 0
 6190000    301.37824    13078.691    50001.966 
6.2 ns  c4h6 c4h10 = 47.6 0
 6200000    295.60709    13119.216    49972.968 
6.21 ns  c4h6 c4h10 = 47.4 0
 6210000     294.9309    12551.228    49814.822 
6.22 ns  c4h6 c4h10 = 47.6 0
 6220000     298.8172    13157.749    49873.262 
6.23 ns  c4h6 c4h10 = 46.9 0
 6230000    297.19922    13035.538    49894.492 
6.24 ns  c4h6 c4h10 = 46.2 0
 6240000    295.82572    13372.269    49918.621 
6.25 ns  c4h6 c4h10 = 46.7 0
 6250000    295.12601    13146.214    49783.981 
6.26 ns  c4h6 c4h10 = 47.7 0
 6260000     304.1853    13483.548    50111.903 
6.27 ns  c4h6 c4h10 = 47.7 0
 6270000    300.53138    13364.264    49868.476 
6.28 ns  c4h6 c4h10 = 46.8 0
 6280000    303.63762    13005.872    50093.875 
6.29 ns  c4h6 c4h10 = 46.9 0
 6290000    300.76517    12763.457      49949.8 
6.3 ns  c4h6 c4h10 = 46.7 0
 6300000    304.17114    13499.342    50025.904 
6.31 ns  c4h6 c4h10 = 47.1 0
 6310000    304.40107    12829.776     49928.77 
6.32 ns  c4h6 c4h10 = 49.2 0
 6320000    301.91103    13282.483    50053.533 
6.33 ns  c4h6 c4h10 = 49.4 0
 6330000    300.77484     12652.87    49993.534 
6.34 ns  c4h6 c4h10 = 50.4 0
 6340000    294.68269    12653.322      49870.4 
6.35 ns  c4h6 c4h10 = 50.7 0
 6350000      297.128    13511.341    49927.023 
6.36 ns  c4h6 c4h10 = 51.1 0
 6360000    291.35159    13516.859    49796.044 
6.37 ns  c4h6 c4h10 = 50.3 0
 6370000    297.22151    13266.531    49917.222 
6.38 ns  c4h6 c4h10 = 49.3 0
 6380000    294.32972    13303.358    49795.641 
6.39 ns  c4h6 c4h10 = 49.4 0
 6390000    295.61065    13614.311    49908.538 
6.4 ns  c4h6 c4h10 = 48.5 0
 6400000    292.79072    13173.015    49805.746 
6.41 ns  c4h6 c4h10 = 47.9 0
 6410000    298.93447    13679.625    49871.995 
6.42 ns  c4h6 c4h10 = 48 0
 6420000    294.86305    13216.624    49721.561 
6.43 ns  c4h6 c4h10 = 48.2 0
 6430000    292.13461    13133.921    49754.424 
6.44 ns  c4h6 c4h10 = 47.6 0
 6440000    294.16021    12922.727    49820.705 
6.45 ns  c4h6 c4h10 = 48.8 0
 6450000    292.06937    13217.403    49838.911 
6.46 ns  c4h6 c4h10 = 49.6 0
 6460000    301.54303    13354.911    49937.651 
6.47 ns  c4h6 c4h10 = 48.8 0
 6470000    304.59073     13419.86    49925.261 
6.48 ns  c4h6 c4h10 = 50.4 0
 6480000    295.76701    13214.468    49857.042 
6.49 ns  c4h6 c4h10 = 51.3 0
 6490000    298.03122    13142.461     49866.13 
6.5 ns  c4h6 c4h10 = 51 0
 6500000    298.33803    13328.561    49849.956 
6.51 ns  c4h6 c4h10 = 51.2 0
 6510000    302.25456    13615.439     49927.77 
6.52 ns  c4h6 c4h10 = 51.5 0
 6520000    294.54993    13141.381    49903.401 
6.53 ns  c4h6 c4h10 = 52 0
 6530000    300.17228    13505.619    50016.363 
6.54 ns  c4h6 c4h10 = 52.5 0
 6540000    299.02181    12886.326    49930.344 
6.55 ns  c4h6 c4h10 = 53.9 0
 6550000    296.88224    13402.991    49858.207 
6.56 ns  c4h6 c4h10 = 51.3 0
 6560000    297.73148    12808.236    49935.901 
6.57 ns  c4h6 c4h10 = 51.4 0
 6570000    296.95304    12914.417    49951.316 
6.58 ns  c4h6 c4h10 = 52 0
 6580000    295.71166    12762.863    49915.289 
6.59 ns  c4h6 c4h10 = 52.8 0
 6590000    301.33905    13254.098     50049.23 
6.6 ns  c4h6 c4h10 = 52.3 0
 6600000    300.20828    13007.946    49994.835 
6.61 ns  c4h6 c4h10 = 51.7 0
 6610000    292.98554    13271.697    49895.041 
6.62 ns  c4h6 c4h10 = 52.5 0
 6620000    301.13241    13575.852    49963.345 
6.63 ns  c4h6 c4h10 = 53.7 0
 6630000     299.5738    12887.829      49911.1 
6.64 ns  c4h6 c4h10 = 53.9 0
 6640000    297.06796    13638.461    49852.875 
6.65 ns  c4h6 c4h10 = 53.2 0
 6650000    300.75119     13093.35    49961.715 
6.66 ns  c4h6 c4h10 = 53.3 0
 6660000    297.89284    13318.136    49981.566 
6.67 ns  c4h6 c4h10 = 52.9 0
 6670000    296.44324    13144.635    49977.683 
6.68 ns  c4h6 c4h10 = 51.7 0
 6680000    298.05576    13122.963    50033.895 
6.69 ns  c4h6 c4h10 = 52.7 0
 6690000    298.87151     12963.67    49953.538 
6.7 ns  c4h6 c4h10 = 51.4 0
 6700000    303.20463    13305.329    49851.826 
6.71 ns  c4h6 c4h10 = 51.8 0
 6710000    297.81058    13482.393    49898.182 
6.72 ns  c4h6 c4h10 = 50.8 0
 6720000     298.1265    13189.898    50021.879 
6.73 ns  c4h6 c4h10 = 51.1 0
 6730000    300.36179    13467.136    49941.629 
6.74 ns  c4h6 c4h10 = 51.1 0
 6740000    290.15037    13146.591    49854.575 
6.75 ns  c4h6 c4h10 = 52 0
 6750000    304.37553    12816.808    50011.858 
6.76 ns  c4h6 c4h10 = 53.3 0
 6760000    303.33112    12952.369    50071.305 
6.77 ns  c4h6 c4h10 = 53.2 0
 6770000    291.18682    13202.419    49786.494 
6.78 ns  c4h6 c4h10 = 54 0
 6780000     300.5221    13113.948    49956.454 
6.79 ns  c4h6 c4h10 = 53.2 0
 6790000    300.11132    13703.767    49856.479 
6.8 ns  c4h6 c4h10 = 53.4 0
 6800000     302.1206     13173.45    50110.729 
6.81 ns  c4h6 c4h10 = 54.2 0
 6810000    296.58199    13136.021    49986.761 
6.82 ns  c4h6 c4h10 = 54 0
 6820000    296.50155    12858.122    49865.779 
6.83 ns  c4h6 c4h10 = 54 0
 6830000    297.26376    12895.491    49967.994 
6.84 ns  c4h6 c4h10 = 55.7 0
 6840000    300.72162    13400.036    50030.819 
6.85 ns  c4h6 c4h10 = 55.6 0
 6850000    290.25218    13137.326    49798.754 
6.86 ns  c4h6 c4h10 = 55.8 0
 6860000    295.75008    13488.682    49722.173 
6.87 ns  c4h6 c4h10 = 55.7 0
 6870000    293.72469    13530.183    49855.898 
6.88 ns  c4h6 c4h10 = 57 0
 6880000    301.20446    13153.225    50097.751 
6.89 ns  c4h6 c4h10 = 57 0
 6890000    303.25061    13328.453    49957.312 
6.9 ns  c4h6 c4h10 = 56.4 0
 6900000    298.76265    13651.917    49852.188 
6.91 ns  c4h6 c4h10 = 57.9 0
 6910000    299.67988    12693.057    50034.901 
6.92 ns  c4h6 c4h10 = 57.7 0
 6920000    293.36387    13840.434    49952.701 
6.93 ns  c4h6 c4h10 = 57.1 0
 6930000     298.8178     13422.28     49954.47 
6.94 ns  c4h6 c4h10 = 54.7 0
 6940000    302.67576    13360.288    49872.936 
6.95 ns  c4h6 c4h10 = 56.1 0
 6950000    296.73548    13259.879    50063.214 
6.96 ns  c4h6 c4h10 = 55.3 0
 6960000     298.7991    13841.988    49965.873 
6.97 ns  c4h6 c4h10 = 55.7 0
 6970000    308.04846    12800.537    50116.485 
6.98 ns  c4h6 c4h10 = 56.5 0
 6980000    296.23299    13805.562     50042.59 
6.99 ns  c4h6 c4h10 = 56.1 0
 6990000    290.74771    13388.915    49850.468 
7 ns  c4h6 c4h10 = 58 0
 7000000     294.8832    13238.175    49889.969 
7.01 ns  c4h6 c4h10 = 56.6 0
 7010000    303.18199    12784.164    49971.219 
7.02 ns  c4h6 c4h10 = 56.2 0
 7020000    296.53126     12760.99    50019.252 
7.03 ns  c4h6 c4h10 = 56.8 0
 7030000      296.384    13629.058    49916.807 
7.04 ns  c4h6 c4h10 = 57.3 0
 7040000    294.61435    13688.089     49814.08 
7.05 ns  c4h6 c4h10 = 57 0
 7050000    299.91487    13431.742    49974.387 
7.06 ns  c4h6 c4h10 = 56.4 0
 7060000    299.20801    13172.292    49891.625 
7.07 ns  c4h6 c4h10 = 55.9 0
 7070000    293.00595    12725.208    49763.458 
7.08 ns  c4h6 c4h10 = 54.9 0
 7080000    294.25914    13556.626    49859.243 
7.09 ns  c4h6 c4h10 = 55.6 0
 7090000     308.5902    13671.905    50047.455 
7.1 ns  c4h6 c4h10 = 56 0
 7100000    301.20381    13956.919    49943.777 
7.11 ns  c4h6 c4h10 = 56.4 0
 7110000    300.53356    13793.751    50097.016 
7.12 ns  c4h6 c4h10 = 55.1 0
 7120000    298.83574    13406.686    49781.306 
7.13 ns  c4h6 c4h10 = 57.1 0
 7130000    296.35378    13059.453     49874.97 
7.14 ns  c4h6 c4h10 = 56 0
 7140000    298.07767    13479.957    49844.035 
7.15 ns  c4h6 c4h10 = 55.1 0
 7150000    299.06573    12953.475    50031.563 
7.16 ns  c4h6 c4h10 = 54.4 0
 7160000    293.86335    13411.498    50065.961 
7.17 ns  c4h6 c4h10 = 56 0
 7170000    304.13588    13774.123    49981.434 
7.18 ns  c4h6 c4h10 = 54.4 0
 7180000    295.31414    13227.675     49903.19 
7.19 ns  c4h6 c4h10 = 54.7 0
 7190000    300.06209    13605.152    49874.388 
7.2 ns  c4h6 c4h10 = 53.3 0
 7200000    298.01277    13469.285    50034.317 
7.21 ns  c4h6 c4h10 = 53.4 0
 7210000    302.18468    13130.934    49956.436 
7.22 ns  c4h6 c4h10 = 54.3 0
 7220000    298.17945    13544.122    50012.415 
7.23 ns  c4h6 c4h10 = 55 0
 7230000    298.02037    12998.176    49899.525 
7.24 ns  c4h6 c4h10 = 53.6 0
 7240000    300.53455    13199.964    49960.241 
7.25 ns  c4h6 c4h10 = 55.1 0
 7250000    301.16015    13182.256    49942.962 
7.26 ns  c4h6 c4h10 = 53.5 0
 7260000    300.15174    13460.643    50091.175 
7.27 ns  c4h6 c4h10 = 54 0
 7270000    303.70717    12455.755    50062.348 
7.28 ns  c4h6 c4h10 = 53.3 0
 7280000    298.53458    13133.026    49913.717 
7.29 ns  c4h6 c4h10 = 54.3 0
 7290000    296.42959    13432.674    49916.407 
7.3 ns  c4h6 c4h10 = 55.1 0
 7300000    297.59212    13768.959     49943.11 
7.31 ns  c4h6 c4h10 = 55.7 0
 7310000    294.04206    13201.905    49745.719 
7.32 ns  c4h6 c4h10 = 54.4 0
 7320000     290.7551    13285.118    49728.961 
7.33 ns  c4h6 c4h10 = 53.8 0
 7330000    302.08127     13302.85    49997.755 
7.34 ns  c4h6 c4h10 = 53.2 0
 7340000    296.82554    13101.298    49890.889 
7.35 ns  c4h6 c4h10 = 54.7 0
 7350000    298.51571    12531.782    49830.477 
7.36 ns  c4h6 c4h10 = 54.5 0
 7360000    297.95734    12701.578    49924.258 
7.37 ns  c4h6 c4h10 = 55 0
 7370000    292.92358    13300.861    49669.926 
7.38 ns  c4h6 c4h10 = 56 0
 7380000    302.30974    12927.509    49983.333 
7.39 ns  c4h6 c4h10 = 54.7 0
 7390000    296.09517    13289.041    50016.607 
7.4 ns  c4h6 c4h10 = 53.9 0
 7400000    296.66242    12801.181    49906.139 
7.41 ns  c4h6 c4h10 = 53.8 0
 7410000    299.27407    13383.344    49985.176 
7.42 ns  c4h6 c4h10 = 54 0
 7420000    296.62076    12851.589    49906.522 
7.43 ns  c4h6 c4h10 = 52.8 0
 7430000    295.71559    13744.614    50029.517 
7.44 ns  c4h6 c4h10 = 52.7 0
 7440000      298.577    12847.559    49934.051 
7.45 ns  c4h6 c4h10 = 51.7 0
 7450000    301.29847    12916.068    50014.632 
7.46 ns  c4h6 c4h10 = 51.9 0
 7460000    303.75183    13661.938    50122.221 
7.47 ns  c4h6 c4h10 = 52.1 0
 7470000    303.27126    13130.565    49843.939 
7.48 ns  c4h6 c4h10 = 54.1 0
 7480000    300.57667    13983.048    49897.384 
7.49 ns  c4h6 c4h10 = 52.5 0
 7490000    299.89732    13308.712    49967.093 
7.5 ns  c4h6 c4h10 = 53.8 0
 7500000    303.33701    13523.155    50118.789 
7.51 ns  c4h6 c4h10 = 53 0
 7510000    297.08796    12714.364    49975.571 
7.52 ns  c4h6 c4h10 = 52.4 0
 7520000    296.34844    13819.981    49934.837 
7.53 ns  c4h6 c4h10 = 54 0
 7530000     301.6884    13899.983    49986.155 
7.54 ns  c4h6 c4h10 = 54.2 0
 7540000    296.75776    13238.393    49912.299 
7.55 ns  c4h6 c4h10 = 53.5 0
 7550000    294.55524    12926.286    49843.823 
7.56 ns  c4h6 c4h10 = 53 0
 7560000    298.59728    13324.418    49971.089 
7.57 ns  c4h6 c4h10 = 52.7 0
 7570000    298.54548     13569.09    49911.281 
7.58 ns  c4h6 c4h10 = 49.8 0
 7580000    297.17763    13493.762    49909.255 
7.59 ns  c4h6 c4h10 = 50.7 0
 7590000    300.02532    13549.745    49843.139 
7.6 ns  c4h6 c4h10 = 50.6 0
 7600000    293.18867    13301.313    49958.236 
7.61 ns  c4h6 c4h10 = 49.8 0
 7610000     291.8474    13456.352      49886.3 
7.62 ns  c4h6 c4h10 = 50.3 0
 7620000    302.42163    13647.134    49926.513 
7.63 ns  c4h6 c4h10 = 49.1 0
 7630000    298.50147    13277.922    49921.119 
7.64 ns  c4h6 c4h10 = 49.9 0
 7640000     295.9449    13510.136    49887.189 
7.65 ns  c4h6 c4h10 = 49.9 0
 7650000    294.10127    12522.888    49911.658 
7.66 ns  c4h6 c4h10 = 49.5 0
 7660000    298.79538    13064.629    49907.949 
7.67 ns  c4h6 c4h10 = 50.2 0
 7670000    294.35878    13311.902    49814.752 
7.68 ns  c4h6 c4h10 = 50 0
 7680000    293.53591     13641.37    49976.456 
7.69 ns  c4h6 c4h10 = 47.9 0
 7690000    296.77167    13123.356    49876.479 
7.7 ns  c4h6 c4h10 = 50 0
 7700000     293.6217    13288.148    49852.088 
7.71 ns  c4h6 c4h10 = 49.7 0
 7710000    299.48463    13367.763    50078.773 
7.72 ns  c4h6 c4h10 = 50.5 0
 7720000    305.27882    13168.836    50085.295 
7.73 ns  c4h6 c4h10 = 50.9 0
 7730000    301.18798    12905.476    49834.269 
7.74 ns  c4h6 c4h10 = 50.8 0
 7740000    293.27679    13115.313    49808.396 
7.75 ns  c4h6 c4h10 = 50.6 0
 7750000    291.18535    12987.053    49811.731 
7.76 ns  c4h6 c4h10 = 51.4 0
 7760000      298.548    13194.087    49952.818 
7.77 ns  c4h6 c4h10 = 51.4 0
 7770000     303.6136    13507.475    50036.162 
7.78 ns  c4h6 c4h10 = 51.6 0
 7780000    300.68134    13040.189    49987.217 
7.79 ns  c4h6 c4h10 = 52.9 0
 7790000    304.15541    13177.585    50006.016 
7.8 ns  c4h6 c4h10 = 51.9 0
 7800000    298.78289    13635.508    49990.735 
7.81 ns  c4h6 c4h10 = 51.8 0
 7810000    304.22038    12709.224    50055.898 
7.82 ns  c4h6 c4h10 = 52.6 0
 7820000    292.66145    13656.453    49814.343 
7.83 ns  c4h6 c4h10 = 52.7 0
 7830000     295.2418    13150.519    49953.935 
7.84 ns  c4h6 c4h10 = 52 0
 7840000    299.99758    13478.972    50036.073 
7.85 ns  c4h6 c4h10 = 52.9 0
 7850000    300.05715    14023.829    50026.959 
7.86 ns  c4h6 c4h10 = 52.7 0
 7860000    301.11391     13108.99    50068.766 
7.87 ns  c4h6 c4h10 = 54 0
 7870000    300.00589    13421.473    49958.295 
7.88 ns  c4h6 c4h10 = 54.7 0
 7880000    299.19428    13159.686    50068.677 
7.89 ns  c4h6 c4h10 = 55.8 0
 7890000    301.61611     13093.65    50004.292 
7.9 ns  c4h6 c4h10 = 53.5 0
 7900000    302.29509    13240.931    50133.513 
7.91 ns  c4h6 c4h10 = 54.8 0
 7910000    298.78744    12910.628    49961.643 
7.92 ns  c4h6 c4h10 = 54.9 0
 7920000    296.13609    13633.534    49971.045 
7.93 ns  c4h6 c4h10 = 55.5 0
 7930000    296.12703     12888.17    49883.989 
7.94 ns  c4h6 c4h10 = 56.3 0
 7940000    301.00532    12918.561    49953.729 
7.95 ns  c4h6 c4h10 = 55.3 0
 7950000    301.68397    13814.399    50004.913 
7.96 ns  c4h6 c4h10 = 56 0
 7960000    293.99314    13050.865    49949.427 
7.97 ns  c4h6 c4h10 = 56.3 0
 7970000    298.87461    13069.516    50006.977 
7.98 ns  c4h6 c4h10 = 56.6 0
 7980000    294.07557    13164.797    49833.266 
7.99 ns  c4h6 c4h10 = 56.9 0
 7990000    298.44127    12835.675    49868.573 
8 ns  c4h6 c4h10 = 58.8 0
 8000000    295.81893    13264.121    49904.494 
8.01 ns  c4h6 c4h10 = 59.9 0
 8010000    301.61295     12982.74    50074.757 
8.02 ns  c4h6 c4h10 = 58.8 0
 8020000    295.48533    12978.382    49890.569 
8.03 ns  c4h6 c4h10 = 58.5 0
 8030000    299.05241    12748.367    49895.252 
8.04 ns  c4h6 c4h10 = 57.8 0
 8040000    296.88318    13383.877    49870.859 
8.05 ns  c4h6 c4h10 = 59.7 0
 8050000     296.3435    13150.692    49778.201 
8.06 ns  c4h6 c4h10 = 59.4 0
 8060000     302.4996    13203.674    50048.413 
8.07 ns  c4h6 c4h10 = 56.6 0
 8070000    298.10584    13869.362    49810.648 
8.08 ns  c4h6 c4h10 = 56.1 0
 8080000    296.65889    13665.234    49888.313 
8.09 ns  c4h6 c4h10 = 56.2 0
 8090000     299.0146    13647.537     49837.17 
8.1 ns  c4h6 c4h10 = 54.8 0
 8100000    293.79926    12981.653     49789.81 
8.11 ns  c4h6 c4h10 = 55.7 0
 8110000    297.61065    13528.019    49946.964 
8.12 ns  c4h6 c4h10 = 55.9 0
 8120000    296.12209    12949.388    50041.558 
8.13 ns  c4h6 c4h10 = 55.1 0
 8130000    299.09872    13393.894    49887.731 
8.14 ns  c4h6 c4h10 = 55.3 0
 8140000      301.135    13363.849    49961.873 
8.15 ns  c4h6 c4h10 = 57 0
 8150000    300.16506    13568.545    49839.859 
8.16 ns  c4h6 c4h10 = 57.3 0
 8160000    294.26908    13511.471    50052.787 
8.17 ns  c4h6 c4h10 = 57.5 0
 8170000    296.26473    12832.321    49926.955 
8.18 ns  c4h6 c4h10 = 56.2 0
 8180000    300.21312    13253.636    50056.796 
8.19 ns  c4h6 c4h10 = 55.7 0
 8190000     298.6222    13509.053    49943.233 
8.2 ns  c4h6 c4h10 = 56.2 0
 8200000    292.99747    13438.464    49895.551 
8.21 ns  c4h6 c4h10 = 55 0
 8210000     304.4482    13177.239    49986.123 
8.22 ns  c4h6 c4h10 = 56 0
 8220000    299.22356    14001.859    49908.607 
8.23 ns  c4h6 c4h10 = 57.2 0
 8230000    297.89496    13589.098    49919.437 
8.24 ns  c4h6 c4h10 = 55 0
 8240000    297.23617    13491.322    49963.924 
8.25 ns  c4h6 c4h10 = 54.8 0
 8250000    294.88823    13053.466    49953.765 
8.26 ns  c4h6 c4h10 = 54 0
 8260000     292.7577    13154.717    49911.318 
8.27 ns  c4h6 c4h10 = 53 0
 8270000    294.68696    13109.572    49855.722 
8.28 ns  c4h6 c4h10 = 54.5 0
 8280000    294.78774    13140.045    49973.775 
8.29 ns  c4h6 c4h10 = 51.4 0
 8290000    294.30545    12746.024    49955.781 
8.3 ns  c4h6 c4h10 = 52 0
 8300000    293.32355    13481.205    49807.385 
8.31 ns  c4h6 c4h10 = 54.8 0
 8310000    293.35105     14235.12    49688.408 
8.32 ns  c4h6 c4h10 = 54.2 0
 8320000    294.34766    13302.909    49984.362 
8.33 ns  c4h6 c4h10 = 55.8 0
 8330000    297.43545    12822.157    49882.076 
8.34 ns  c4h6 c4h10 = 54.9 0
 8340000    298.62579    12965.602    49901.808 
8.35 ns  c4h6 c4h10 = 54.1 0
 8350000    299.86503    13722.767    49857.337 
8.36 ns  c4h6 c4h10 = 51.3 0
 8360000    293.02578    13531.434    49860.807 
8.37 ns  c4h6 c4h10 = 52.6 0
 8370000    295.33516     13186.71    49962.022 
8.38 ns  c4h6 c4h10 = 51.5 0
 8380000    298.41857    13772.337    49938.834 
8.39 ns  c4h6 c4h10 = 52.9 0
 8390000    297.20645    13605.513    49905.833 
8.4 ns  c4h6 c4h10 = 53.3 0
 8400000    298.44146     12778.91    49922.977 
8.41 ns  c4h6 c4h10 = 52.3 0
 8410000    296.05493    13351.252     49855.86 
8.42 ns  c4h6 c4h10 = 53.7 0
 8420000    298.48347    13848.264    49857.069 
8.43 ns  c4h6 c4h10 = 52.5 0
 8430000    293.48071    13530.596     49811.91 
8.44 ns  c4h6 c4h10 = 52 0
 8440000    296.10917    13858.049    49918.291 
8.45 ns  c4h6 c4h10 = 52.8 0
 8450000    297.29969    14069.395    49760.343 
8.46 ns  c4h6 c4h10 = 52 0
 8460000    295.81328    13866.329    49801.155 
8.47 ns  c4h6 c4h10 = 51.3 0
 8470000    294.10165    13631.378    49888.739 
8.48 ns  c4h6 c4h10 = 51.4 0
 8480000    298.95748    13422.329    49919.004 
8.49 ns  c4h6 c4h10 = 50.4 0
 8490000    294.62194    12810.076    49772.752 
8.5 ns  c4h6 c4h10 = 49.3 0
 8500000    299.32296    13584.859     49850.68 
8.51 ns  c4h6 c4h10 = 50.6 0
 8510000    296.93708    13835.006    49767.393 
8.52 ns  c4h6 c4h10 = 51.4 0
 8520000    294.30616    13336.469    49768.853 
8.53 ns  c4h6 c4h10 = 51.6 0
 8530000    297.07891    12832.558    49927.288 
8.54 ns  c4h6 c4h10 = 52 0
 8540000    296.66048    13727.004    49651.317 
8.55 ns  c4h6 c4h10 = 52 0
 8550000    301.07731    13707.058    49837.888 
8.56 ns  c4h6 c4h10 = 51.7 0
 8560000    300.24769    12999.398    49907.752 
8.57 ns  c4h6 c4h10 = 51.5 0
 8570000    297.06962    13564.024    49866.543 
8.58 ns  c4h6 c4h10 = 50 0
 8580000    301.52322    13102.582    49958.438 
8.59 ns  c4h6 c4h10 = 48.6 0
 8590000    300.01425    13022.861    49985.041 
8.6 ns  c4h6 c4h10 = 48.6 0
 8600000    298.13335    13863.786    49905.214 
8.61 ns  c4h6 c4h10 = 48.9 0
 8610000    292.90887    13629.242    49827.063 
8.62 ns  c4h6 c4h10 = 50.1 0
 8620000    293.30764    13278.123    49807.368 
8.63 ns  c4h6 c4h10 = 50.6 0
 8630000    299.68362    13164.358    49997.802 
8.64 ns  c4h6 c4h10 = 51 0
 8640000    302.95508    13549.483    49948.586 
8.65 ns  c4h6 c4h10 = 51.8 0
 8650000     299.3143     13542.32    49988.409 
8.66 ns  c4h6 c4h10 = 52.2 0
 8660000    297.66848    13467.171    49779.111 
8.67 ns  c4h6 c4h10 = 52.5 0
 8670000    294.75391    13101.938    49918.096 
8.68 ns  c4h6 c4h10 = 53.9 0
 8680000    298.87486    13153.896    50098.409 
8.69 ns  c4h6 c4h10 = 54.6 0
 8690000    294.08094    13294.868    49742.153 
8.7 ns  c4h6 c4h10 = 55 0
 8700000    304.75602    12994.072    49963.929 
8.71 ns  c4h6 c4h10 = 54.1 0
 8710000    290.62816    13007.864    49874.343 
8.72 ns  c4h6 c4h10 = 54.7 0
 8720000    293.36728    14015.086    50030.502 
8.73 ns  c4h6 c4h10 = 54.4 0
 8730000    294.20948    13341.601    49963.782 
8.74 ns  c4h6 c4h10 = 53.8 0
 8740000    300.84892    13477.589    49947.784 
8.75 ns  c4h6 c4h10 = 53.7 0
 8750000    301.05189     13208.19    49972.755 
8.76 ns  c4h6 c4h10 = 53.3 0
 8760000    298.48857    12735.846     50005.45 
8.77 ns  c4h6 c4h10 = 52.8 0
 8770000    299.00505     13376.19    49978.391 
8.78 ns  c4h6 c4h10 = 54.2 0
 8780000    304.16284     13230.65    50057.394 
8.79 ns  c4h6 c4h10 = 54.2 0
 8790000    303.07815    13324.182    49990.633 
8.8 ns  c4h6 c4h10 = 53.3 0
 8800000    303.32326    13431.225    50064.606 
8.81 ns  c4h6 c4h10 = 52.9 0
 8810000    298.82235    13962.729    49943.609 
8.82 ns  c4h6 c4h10 = 52.7 0
 8820000     299.7521     13272.75    50000.447 
8.83 ns  c4h6 c4h10 = 52.4 0
 8830000    299.74212    12853.735    49894.414 
8.84 ns  c4h6 c4h10 = 52.6 0
 8840000    302.13342    12577.159    49948.632 
8.85 ns  c4h6 c4h10 = 52.7 0
 8850000     295.4932    13454.924      49933.5 
8.86 ns  c4h6 c4h10 = 51 0
 8860000    309.52276    13891.288    50061.651 
8.87 ns  c4h6 c4h10 = 52.2 0
 8870000    294.28972    13040.857    49827.512 
8.88 ns  c4h6 c4h10 = 51.3 0
 8880000    300.55363    13206.316    49914.025 
8.89 ns  c4h6 c4h10 = 52 0
 8890000    304.80899     13145.95    50066.879 
8.9 ns  c4h6 c4h10 = 53.1 0
 8900000    292.44752    13514.117    49759.965 
8.91 ns  c4h6 c4h10 = 52.2 0
 8910000    297.80677    13192.301    49894.943 
8.92 ns  c4h6 c4h10 = 54 0
 8920000    294.87662    13735.239    49761.781 
8.93 ns  c4h6 c4h10 = 53.1 0
 8930000    299.20184    13175.769    50035.975 
8.94 ns  c4h6 c4h10 = 52.1 0
 8940000    296.07248    13290.443    49861.899 
8.95 ns  c4h6 c4h10 = 50.8 0
 8950000    292.40913    13820.651    49722.406 
8.96 ns  c4h6 c4h10 = 50.9 0
 8960000    301.97317    13149.239    49939.861 
8.97 ns  c4h6 c4h10 = 48.6 0
 8970000    298.98484    13359.145     49930.19 
8.98 ns  c4h6 c4h10 = 47.5 0
 8980000    300.47675    13076.214    49957.894 
8.99 ns  c4h6 c4h10 = 47.6 0
 8990000    298.46816    13580.666    50029.657 
9 ns  c4h6 c4h10 = 47.4 0
 9000000    295.89333    13542.218    49930.287 
9.01 ns  c4h6 c4h10 = 47.2 0
 9010000    303.80602    13444.419    49997.386 
9.02 ns  c4h6 c4h10 = 47.2 0
 9020000    298.14074    13138.893    49784.384 
9.03 ns  c4h6 c4h10 = 48.5 0
 9030000    293.81054    12601.199    49842.863 
9.04 ns  c4h6 c4h10 = 51.4 0
 9040000    301.58412    13394.175    50060.272 
9.05 ns  c4h6 c4h10 = 51.8 0
 9050000    297.60527    13597.534    49948.671 
9.06 ns  c4h6 c4h10 = 52.2 0
 9060000    303.06503    12835.258    49969.129 
9.07 ns  c4h6 c4h10 = 52.3 0
 9070000    298.63147    12789.015    49888.976 
9.08 ns  c4h6 c4h10 = 53 0
 9080000    292.79895    12775.622    49836.486 
9.09 ns  c4h6 c4h10 = 54.1 0
 9090000    297.75569    13046.668    49905.719 
9.1 ns  c4h6 c4h10 = 52 0
 9100000    299.21169    13219.816    49848.065 
9.11 ns  c4h6 c4h10 = 51.8 0
 9110000    296.16028    12939.334    49979.924 
9.12 ns  c4h6 c4h10 = 53.8 0
 9120000    298.48793    13480.896    49963.213 
9.13 ns  c4h6 c4h10 = 52.4 0
 9130000    296.02595    13303.047    49994.836 
9.14 ns  c4h6 c4h10 = 51.5 0
 9140000    296.07149     13063.72    49855.739 
9.15 ns  c4h6 c4h10 = 52.1 0
 9150000    299.22025    12868.318    50034.195 
9.16 ns  c4h6 c4h10 = 51.7 0
 9160000      303.334    12836.453    50087.651 
9.17 ns  c4h6 c4h10 = 51.7 0
 9170000    298.05733    13525.632    50004.151 
9.18 ns  c4h6 c4h10 = 53.6 0
 9180000     296.7538    12904.997    49871.068 
9.19 ns  c4h6 c4h10 = 52.5 0
 9190000    292.93673    13355.928    49917.041 
9.2 ns  c4h6 c4h10 = 54.3 0
 9200000    297.98779    13475.707    49917.589 
9.21 ns  c4h6 c4h10 = 52.1 0
 9210000    302.88572    12590.263    49925.592 
9.22 ns  c4h6 c4h10 = 52.1 0
 9220000    299.72874    13359.535    50033.682 
9.23 ns  c4h6 c4h10 = 53.8 0
 9230000    299.67595    13423.403    49843.162 
9.24 ns  c4h6 c4h10 = 53.1 0
 9240000    298.88811    13976.421    49869.122 
9.25 ns  c4h6 c4h10 = 53.3 0
 9250000    292.92977    13633.579    49718.327 
9.26 ns  c4h6 c4h10 = 53.2 0
 9260000     295.5988    12995.415     49879.65 
9.27 ns  c4h6 c4h10 = 52.2 0
 9270000    294.12166    13050.647     49808.46 
9.28 ns  c4h6 c4h10 = 53.9 0
 9280000    298.36845    13008.758    49916.762 
9.29 ns  c4h6 c4h10 = 53.2 0
 9290000    298.75609    14079.497    49782.652 
9.3 ns  c4h6 c4h10 = 53.8 0
 9300000    298.70225    13272.391    50144.978 
9.31 ns  c4h6 c4h10 = 54.2 0
 9310000    300.09921    13085.529    50086.702 
9.32 ns  c4h6 c4h10 = 50.9 0
 9320000     300.1326    13498.299     49961.87 
9.33 ns  c4h6 c4h10 = 51.2 0
 9330000    287.61619     12433.27    49783.478 
9.34 ns  c4h6 c4h10 = 50.1 0
 9340000    296.90482    13024.203    49925.237 
9.35 ns  c4h6 c4h10 = 49.1 0
 9350000    302.65242    13062.512    49829.295 
9.36 ns  c4h6 c4h10 = 49.1 0
 9360000    292.83265    13118.172    49792.443 
9.37 ns  c4h6 c4h10 = 50.1 0
 9370000    295.14466    13295.197    49925.554 
9.38 ns  c4h6 c4h10 = 49.9 0
 9380000    299.78906    13026.341    49896.438 
9.39 ns  c4h6 c4h10 = 48.8 0
 9390000    302.87715    14313.922     50001.19 
9.4 ns  c4h6 c4h10 = 47.9 0
 9400000     301.2443    13320.648    50010.921 
9.41 ns  c4h6 c4h10 = 47.8 0
 9410000     293.2918    13376.975     49785.94 
9.42 ns  c4h6 c4h10 = 51.3 0
 9420000    297.56592    13058.269    49870.105 
9.43 ns  c4h6 c4h10 = 48.8 0
 9430000    299.83227    13469.642    49909.406 
9.44 ns  c4h6 c4h10 = 50.4 0
 9440000    298.74063    13040.008    49983.242 
9.45 ns  c4h6 c4h10 = 47.9 0
 9450000    301.69501    13007.624    50045.631 
9.46 ns  c4h6 c4h10 = 48.6 0
 9460000    296.17248    13090.298    49935.286 
9.47 ns  c4h6 c4h10 = 49.8 0
 9470000    303.13676    13594.873    49946.537 
9.48 ns  c4h6 c4h10 = 51.1 0
 9480000    301.36124    13449.889    49980.092 
9.49 ns  c4h6 c4h10 = 50.6 0
 9490000    296.18841    13216.028    49864.132 
9.5 ns  c4h6 c4h10 = 51.7 0
 9500000    302.30182    13733.407    49945.556 
9.51 ns  c4h6 c4h10 = 51.4 0
 9510000    301.00532    13046.428    50058.542 
9.52 ns  c4h6 c4h10 = 52.2 0
 9520000    294.71347    12843.892    49933.642 
9.53 ns  c4h6 c4h10 = 50.8 0
 9530000    295.58996    13182.141    49890.654 
9.54 ns  c4h6 c4h10 = 51.1 0
 9540000     300.5036    13428.926    50067.238 
9.55 ns  c4h6 c4h10 = 50.9 0
 9550000    301.42402    13479.387    49875.059 
9.56 ns  c4h6 c4h10 = 51.2 0
 9560000    296.75301    13185.647    49991.298 
9.57 ns  c4h6 c4h10 = 50.9 0
 9570000    291.83948    13038.724    49804.365 
9.58 ns  c4h6 c4h10 = 49.7 0
 9580000    305.72211    13644.138    49970.461 
9.59 ns  c4h6 c4h10 = 49 0
 9590000    290.21525    12994.208    49726.854 
9.6 ns  c4h6 c4h10 = 48.3 0
 9600000    300.29018    13796.113    49929.048 
9.61 ns  c4h6 c4h10 = 49 0
 9610000    297.73693    13317.949    49860.885 
9.62 ns  c4h6 c4h10 = 50 0
 9620000    295.87248    14086.954    49923.505 
9.63 ns  c4h6 c4h10 = 48.1 0
 9630000    300.85696    13665.476     49954.25 
9.64 ns  c4h6 c4h10 = 47.7 0
 9640000    295.37503    13027.372    49888.268 
9.65 ns  c4h6 c4h10 = 48.1 0
 9650000    295.62525    13589.325    49770.183 
9.66 ns  c4h6 c4h10 = 49.8 0
 9660000     298.6362    12946.894     50038.15 
9.67 ns  c4h6 c4h10 = 50.8 0
 9670000     292.8777    13249.489    49849.306 
9.68 ns  c4h6 c4h10 = 50 0
 9680000    296.51208    13566.227    49818.246 
9.69 ns  c4h6 c4h10 = 50.8 0
 9690000    299.60213    13022.815    49977.399 
9.7 ns  c4h6 c4h10 = 50.7 0
 9700000    296.64538    13045.425    49872.086 
9.71 ns  c4h6 c4h10 = 49.8 0
 9710000      301.217    13282.978    50143.957 
9.72 ns  c4h6 c4h10 = 50.7 0
 9720000    298.78852    13141.854    49866.026 
9.73 ns  c4h6 c4h10 = 51 0
 9730000    292.75081    13173.713    49829.107 
9.74 ns  c4h6 c4h10 = 51.4 0
 9740000     287.3334    13532.394    49802.853 
9.75 ns  c4h6 c4h10 = 51.2 0
 9750000    296.84539    13410.864     50110.88 
9.76 ns  c4h6 c4h10 = 52.9 0
 9760000    293.89789    12630.257    49858.571 
9.77 ns  c4h6 c4h10 = 54 0
 9770000    293.70306    13824.011    50050.839 
9.78 ns  c4h6 c4h10 = 53.6 0
 9780000    297.27618    13426.531      49849.5 
9.79 ns  c4h6 c4h10 = 53.1 0
 9790000    303.32782    13479.202    49951.656 
9.8 ns  c4h6 c4h10 = 53.4 0
 9800000    300.21698    13516.887    50113.037 
9.81 ns  c4h6 c4h10 = 51.7 0
 9810000    295.46579    13437.901    49977.091 
9.82 ns  c4h6 c4h10 = 51.6 0
 9820000     304.5649    13853.798    49909.544 
9.83 ns  c4h6 c4h10 = 51.5 0
 9830000    299.25109    12754.702    49914.046 
9.84 ns  c4h6 c4h10 = 51.1 0
 9840000    298.75988    13359.109    49846.538 
9.85 ns  c4h6 c4h10 = 49.7 0
 9850000    304.55497    12813.765    50041.589 
9.86 ns  c4h6 c4h10 = 51.6 0
 9860000    299.52409    13554.174    49970.427 
9.87 ns  c4h6 c4h10 = 51.4 0
 9870000    295.89041    13350.258    49836.725 
9.88 ns  c4h6 c4h10 = 50.1 0
 9880000    290.99079    13329.478     49854.18 
9.89 ns  c4h6 c4h10 = 49.7 0
 9890000    298.97616    13533.509    50048.112 
9.9 ns  c4h6 c4h10 = 50.5 0
 9900000    299.15711    13113.072    49999.246 
9.91 ns  c4h6 c4h10 = 50 0
 9910000    301.00548    13555.789     49921.22 
9.92 ns  c4h6 c4h10 = 49.6 0
 9920000    298.46966    13678.865    49881.044 
9.93 ns  c4h6 c4h10 = 48.9 0
 9930000    294.15758     13389.12    49987.294 
9.94 ns  c4h6 c4h10 = 49.9 0
 9940000    296.64761     13432.17    49954.458 
9.95 ns  c4h6 c4h10 = 50 0
 9950000     302.0874     13153.33    50050.624 
9.96 ns  c4h6 c4h10 = 50.8 0
 9960000    306.09391    13113.999    50012.003 
9.97 ns  c4h6 c4h10 = 49.7 0
 9970000    295.67281    13342.705    49898.119 
9.98 ns  c4h6 c4h10 = 49.7 0
 9980000      296.202    12775.573    49924.123 
9.99 ns  c4h6 c4h10 = 50.2 0
 9990000     299.6421    13103.935    49882.288 
10 ns  c4h6 c4h10 = 51 0
10000000    298.31253    13903.991    49819.806 
10000010    295.09663    13111.534     49813.54 
Loop time of 161524 on 80 procs for 10000000 steps with 6610 atoms

Performance: 5.349 ns/day, 4.487 hours/ns, 61.910 timesteps/s
70.6% CPU use with 80 MPI tasks x no OpenMP threads

MPI task timing breakdown:
Section |  min time  |  avg time  |  max time  |%varavg| %total
---------------------------------------------------------------
Pair    | 17.594     | 4231.2     | 16152      |7278.8 |  2.62
Bond    | 10.775     | 381.96     | 1471.5     |2346.4 |  0.24
Kspace  | 57951      | 69852      | 76995      |1686.3 | 43.25
Neigh   | 4838       | 5403.4     | 5795.1     | 324.8 |  3.35
Comm    | 26118      | 44049      | 51864      |2637.0 | 27.27
Output  | 25.457     | 25.527     | 25.592     |   0.3 |  0.02
Modify  | 15255      | 23691      | 38658      |3740.7 | 14.67
Other   |            | 1.389e+04  |            |       |  8.60

Nlocal:    82.625 ave 220 max 0 min
Histogram: 16 5 14 12 12 5 0 8 3 5
Nghost:    2189.56 ave 5016 max 326 min
Histogram: 8 8 18 18 7 1 6 4 4 6
Neighs:    20571.8 ave 82352 max 0 min
Histogram: 30 25 5 4 2 2 0 0 5 7

Total # of neighbors = 1645741
Ave neighs/atom = 248.977
Ave special neighs/atom = 11.3156
Neighbor list builds = 599735
Dangerous builds = 0
Total wall time: 44:52:04
