LAMMPS description

60 atoms
36 bonds
36 angles
0 dihedrals
12 impropers

3 atom types
1 bond types
1 angle types
0 dihedral types
1 improper types

0.000 4.692 xlo xhi
0.000 8.127 ylo yhi
0.000 15.2149 zlo zhi

Masses

1 15.99950
2 14.00670
3 6.94100

Bond Coeffs

1 525.0 1.2676

Angle Coeffs

1 105.0 120.00000

Improper Coeffs

1 60.00 0.000

Atoms

1 1 1 -0.6500000 1.720000 0.271000 8.875000
2 1 1 -0.6500000 3.597000 1.354000 8.875000
3 1 1 -0.6500000 1.720000 2.438000 8.875000
4 1 2 0.9500000 2.346000 1.354000 8.875000
5 2 1 -0.6500000 2.972000 0.271000 1.268000
6 2 1 -0.6500000 1.095000 1.354000 1.268000
7 2 1 -0.6500000 2.972000 2.438000 1.268000
8 2 2 0.9500000 2.346000 1.354000 1.268000
9 3 3 1.0000000 2.346000 1.354000 5.072000
10 4 3 1.0000000 2.346000 1.354000 12.679000
11 5 1 -0.6500000 -0.626000 3.793000 13.947000
12 5 1 -0.6500000 1.251000 2.709000 13.947000
13 5 1 -0.6500000 -0.626000 1.625000 13.947000
14 5 2 0.9500000 0.000000 2.709000 13.947000
15 6 1 -0.6500000 -1.251000 2.709000 6.340000
16 6 1 -0.6500000 0.626000 1.625000 6.340000
17 6 1 -0.6500000 0.626000 3.793000 6.340000
18 6 2 0.9500000 0.000000 2.709000 6.340000
19 7 3 1.0000000 0.000000 2.709000 10.143000
20 8 3 1.0000000 0.000000 2.709000 2.536000
21 9 1 -0.6500000 -0.626000 -1.084000 3.804000
22 9 1 -0.6500000 -0.626000 1.084000 3.804000
23 9 1 -0.6500000 1.251000 0.000000 3.804000
24 9 2 0.9500000 0.000000 0.000000 3.804000
25 10 1 -0.6500000 -1.251000 0.000000 11.411000
26 10 1 -0.6500000 0.626000 -1.084000 11.411000
27 10 1 -0.6500000 0.626000 1.084000 11.411000
28 10 2 0.9500000 0.000000 0.000000 11.411000
29 11 3 1.0000000 0.000000 0.000000 7.607000
30 12 3 1.0000000 0.000000 0.000000 0.000000
31 13 1 -0.6500000 1.720000 2.979000 3.804000
32 13 1 -0.6500000 1.720000 5.147000 3.804000
33 13 1 -0.6500000 3.597000 4.063000 3.804000
34 13 2 0.9500000 2.346000 4.063000 3.804000
35 14 1 -0.6500000 1.095000 4.063000 11.411000
36 14 1 -0.6500000 2.972000 2.979000 11.411000
37 14 1 -0.6500000 2.972000 5.147000 11.411000
38 14 2 0.9500000 2.346000 4.063000 11.411000
39 15 3 1.0000000 2.346000 4.063000 7.607000
40 16 3 1.0000000 2.346000 4.063000 0.000000
41 17 1 -0.6500000 -0.626000 4.334000 8.875000
42 17 1 -0.6500000 1.251000 5.417000 8.875000
43 17 1 -0.6500000 -0.626000 6.501000 8.875000
44 17 2 0.9500000 0.000000 5.417000 8.875000
45 18 1 -0.6500000 0.626000 4.334000 1.268000
46 18 1 -0.6500000 -1.251000 5.417000 1.268000
47 18 1 -0.6500000 0.626000 6.501000 1.268000
48 18 2 0.9500000 0.000000 5.417000 1.268000
49 19 3 1.0000000 0.000000 5.417000 5.072000
50 20 3 1.0000000 0.000000 5.417000 12.679000
51 21 1 -0.6500000 1.720000 7.856000 13.947000
52 21 1 -0.6500000 3.597000 6.772000 13.947000
53 21 1 -0.6500000 1.720000 5.688000 13.947000
54 21 2 0.9500000 2.346000 6.772000 13.947000
55 22 1 -0.6500000 1.095000 6.772000 6.340000
56 22 1 -0.6500000 2.972000 5.688000 6.340000
57 22 1 -0.6500000 2.972000 7.856000 6.340000
58 22 2 0.9500000 2.346000 6.772000 6.340000
59 23 3 1.0000000 2.346000 6.772000 10.143000
60 24 3 1.0000000 2.346000 6.772000 2.536000

Bonds

