LAMMPS data file via write_data, version 9 Dec 2014, timestep = 0

13500 atoms
2 atom types
9000 bonds
1 bond types
4500 angles
1 angle types

-1.8176715436271188e+01 1.8176715436271188e+01 xlo xhi
-1.8176715436271188e+01 1.8176715436271188e+01 ylo yhi
-5.4530289399133082e+01 5.4530289399133082e+01 zlo zhi

Masses

1 1.008
2 15.9994

Atoms # full

5834 1945 1 4.2380000000000001e-01 -1.4236368724516677e+01 -1.6473757754291405e+01 -5.0981216967228050e+01 0 -6 -1
5833 1945 2 -8.4760000000000002e-01 -1.5004879597179452e+01 -1.7059065928020324e+01 -5.0722749624697606e+01 0 -6 -1
10924 3642 2 -8.4760000000000002e-01 -1.7836714577993362e+01 -1.5739323719165228e+01 -5.0645262445197389e+01 3 -7 -1
5835 1945 1 4.2380000000000001e-01 -1.4903390553762994e+01 -1.7953822204255722e+01 -5.1157618771394162e+01 0 -6 -1
3434 1145 1 4.2380000000000001e-01 -1.3898483830670376e+01 -1.5773709141931496e+01 -5.3540650260215969e+01 6 -3 2
10925 3642 1 4.2380000000000001e-01 -1.7861941393870431e+01 -1.5980763265190069e+01 -5.1615350347962305e+01 3 -7 -1
13327 4443 2 -8.4760000000000002e-01 -1.6429249481427931e+01 -1.7762605591735110e+01 -4.8293559334317976e+01 2 0 -2
9869 3290 1 4.2380000000000001e-01 -1.5344856590453508e+01 -1.1785566120315424e+01 -4.9552300893527885e+01 -3 -2 0
10926 3642 1 4.2380000000000001e-01 -1.7064466023767366e+01 -1.6199492550203352e+01 -5.0207225010913305e+01 3 -7 -1
4592 1531 1 4.2380000000000001e-01 -1.3209629762146863e+01 -1.1004483855546017e+01 -5.2562085709609967e+01 -5 2 1
4593 1531 1 4.2380000000000001e-01 -1.4645364427088634e+01 -1.1435268110358381e+01 -5.1914229713891295e+01 -5 2 1
5240 1747 1 4.2380000000000001e-01 -1.3535740542657120e+01 -1.4518868410922572e+01 -5.2029656977647832e+01 -5 1 -2
8056 2686 2 -8.4760000000000002e-01 -1.3952270211264528e+01 -1.3938906465068813e+01 -5.3740284617767678e+01 6 1 0
9640 3214 2 -8.4760000000000002e-01 -1.0727599409511827e+01 -1.3888593174896918e+01 -4.9604480281246659e+01 0 4 1
4591 1531 2 -8.4760000000000002e-01 -1.4003145309023868e+01 -1.1604814739472594e+01 -5.2661764690719188e+01 -5 2 1
3263 1088 1 4.2380000000000001e-01 -9.8621084275641113e+00 -1.0346762010225618e+01 -5.0624243354196622e+01 -1 2 1
3433 1145 2 -8.4760000000000002e-01 -1.4113667012220299e+01 -1.6712884440303849e+01 -5.3808317816459706e+01 6 -3 2
9641 3214 1 4.2380000000000001e-01 -1.1206504298873437e+01 -1.3768246108501771e+01 -4.8734901825582291e+01 0 4 1
6087 2029 1 4.2380000000000001e-01 -1.0414591076032172e+01 -1.4463099857219131e+01 -5.3378228237289768e+01 -2 -3 -1
9642 3214 1 4.2380000000000001e-01 -1.0790492430599528e+01 -1.3045818236374130e+01 -5.0139059434316032e+01 0 4 1
7028 2343 1 4.2380000000000001e-01 -1.7547681654341432e+01 -1.0627791370148723e+01 -4.9914791997374252e+01 2 -1 1
5241 1747 1 4.2380000000000001e-01 -1.2244653374958400e+01 -1.4569698712681884e+01 -5.1031089659071384e+01 -5 1 -2
5239 1747 2 -8.4760000000000002e-01 -1.3224913515783269e+01 -1.4751767892881183e+01 -5.1108166670350258e+01 -5 1 -2
255 85 1 4.2380000000000001e-01 -9.7810249254755597e+00 -1.5132149684277854e+01 -4.8991020860943024e+01 -6 -1 4
12912 4304 1 4.2380000000000001e-01 -1.2593434687839121e+01 -1.5881645347820021e+01 -4.7807499143840168e+01 -6 1 1
3196 1066 2 -8.4760000000000002e-01 -9.3692435309785651e+00 -1.2029544983537345e+01 -5.2940576978206501e+01 1 1 2
648 216 1 4.2380000000000001e-01 -9.5278985538748380e+00 -1.6784984648466391e+01 -5.2439717230181266e+01 6 3 -1
8058 2686 1 4.2380000000000001e-01 -1.3621605503206892e+01 -1.3053006723410380e+01 -5.3414950279664680e+01 6 1 0
11720 3907 1 4.2380000000000001e-01 -1.7596420798119773e+01 -1.5340337407473484e+01 -5.3674819641165392e+01 1 -6 -2
11719 3907 2 -8.4760000000000002e-01 -1.6665332234786408e+01 -1.5039963169806878e+01 -5.3881820615330859e+01 1 -6 -2
3435 1145 1 4.2380000000000001e-01 -1.5062738599040577e+01 -1.6918394400046871e+01 -5.3569510861065304e+01 6 -3 2
9870 3290 1 4.2380000000000001e-01 -1.5786921197253283e+01 -1.3228362342148444e+01 -5.0176435847536879e+01 -3 -2 0
254 85 1 4.2380000000000001e-01 -1.0452901680839817e+01 -1.6315371106112451e+01 -4.8088139258710832e+01 -6 -1 4
9868 3290 2 -8.4760000000000002e-01 -1.5217104939482754e+01 -1.2775459501103075e+01 -4.9490732960745930e+01 -3 -2 0
3264 1088 1 4.2380000000000001e-01 -1.1472127374207250e+01 -1.0125228285797787e+01 -5.0783580378315406e+01 -1 2 1
6085 2029 2 -8.4760000000000002e-01 -1.0890967267360269e+01 -1.3979957585278338e+01 -5.4112829655120969e+01 -2 -3 -1
3197 1066 1 4.2380000000000001e-01 -9.5843194472635389e+00 -1.1722114090049212e+01 -5.2013631148690067e+01 1 1 2
253 85 2 -8.4760000000000002e-01 -9.5919628410299609e+00 -1.5936056085833254e+01 -4.8427114817560501e+01 -6 -1 4
3262 1088 2 -8.4760000000000002e-01 -1.0738181295620031e+01 -1.0804395114308019e+01 -5.0776125734572886e+01 -1 2 1
12744 4248 1 4.2380000000000001e-01 -1.5069208840944730e+01 -9.3074109685963311e+00 -4.8927470141303310e+01 5 5 1
12742 4248 2 -8.4760000000000002e-01 -1.4328090200267624e+01 -9.2955208449536961e+00 -4.8256201353558282e+01 5 5 1
7029 2343 1 4.2380000000000001e-01 -1.6920113183076712e+01 -9.8435325391526778e+00 -5.1202317684502731e+01 2 -1 1
11949 3983 1 4.2380000000000001e-01 -1.3105830465406607e+01 -1.4437081351077993e+01 -4.9458363683239241e+01 -3 12 1
11947 3983 2 -8.4760000000000002e-01 -1.3164356317258664e+01 -1.4387801052703576e+01 -4.8461294890799564e+01 -3 12 1
7027 2343 2 -8.4760000000000002e-01 -1.6702626876284608e+01 -1.0310786458605586e+01 -5.0345361745662338e+01 2 -1 1
10205 3402 1 4.2380000000000001e-01 -1.5318444385345556e+01 -1.3151105116955994e+01 -4.7833889357153502e+01 8 3 -1
5466 1822 1 4.2380000000000001e-01 -9.2263917490541303e+00 -9.9228645360754886e+00 -4.8843262388709043e+01 3 -5 1
11948 3983 1 4.2380000000000001e-01 -1.3691789350605468e+01 -1.3580070480973047e+01 -4.8197883200044465e+01 -3 12 1
646 216 2 -8.4760000000000002e-01 -9.9266967048423140e+00 -1.7080890476116842e+01 -5.3307703260057046e+01 6 3 -1
8057 2686 1 4.2380000000000001e-01 -1.4946636611476876e+01 -1.3979896564136247e+01 -5.3642533589172679e+01 6 1 0
13328 4443 1 4.2380000000000001e-01 -1.6040347062210518e+01 -1.7616853684966348e+01 -4.9203235809775116e+01 2 0 -2
3198 1066 1 4.2380000000000001e-01 -1.0078019657058459e+01 -1.2660926365715104e+01 -5.3255210017947022e+01 1 1 2
647 216 1 4.2380000000000001e-01 -9.4789997317126780e+00 -1.6599774531657818e+01 -5.4061423924707114e+01 6 3 -1
6232 2078 2 -8.4760000000000002e-01 -1.7896922173081144e+01 -9.5988815422888099e+00 -4.3429528561413420e+01 -2 -1 -1
9227 3076 1 4.2380000000000001e-01 -1.3611206561276047e+01 -1.6836009792697901e+01 -4.1325143735831396e+01 -3 1 -1
6677 2226 1 4.2380000000000001e-01 -1.0061616487935703e+01 -1.3623927294268377e+01 -4.6597243956063252e+01 2 -2 0
9505 3169 2 -8.4760000000000002e-01 -1.4451327657570101e+01 -1.0714397044460446e+01 -4.5921118832914281e+01 2 -3 1
11476 3826 2 -8.4760000000000002e-01 -1.0035012901392887e+01 -1.0353901215464822e+01 -4.7248123885374994e+01 -4 -3 0
12065 4022 1 4.2380000000000001e-01 -1.6325547975871842e+01 -1.6949256534679950e+01 -4.4978697022639160e+01 5 -14 2
1214 405 1 4.2380000000000001e-01 -1.7622713927554472e+01 -1.5936856232216787e+01 -4.2791680547616430e+01 0 -6 2
11358 3786 1 4.2380000000000001e-01 -1.7743104746211834e+01 -1.2401441526951217e+01 -4.3102357733724922e+01 0 3 1
11478 3826 1 4.2380000000000001e-01 -1.0167658138611616e+01 -9.7639291456567623e+00 -4.6451670372676624e+01 -4 -3 0
10175 3392 1 4.2380000000000001e-01 -1.3123656037681839e+01 -1.0369093706446714e+01 -4.3153684650893432e+01 4 -5 1
10174 3392 2 -8.4760000000000002e-01 -1.2668558017173698e+01 -1.0204957832404375e+01 -4.4028867606955728e+01 4 -5 1
5233 1745 2 -8.4760000000000002e-01 -1.1803517589939904e+01 -1.5735618162891610e+01 -4.4419563703185347e+01 2 -8 1
6678 2226 1 4.2380000000000001e-01 -1.1469639467166418e+01 -1.2833241194366639e+01 -4.6354523383146763e+01 2 -2 0
12911 4304 1 4.2380000000000001e-01 -1.2202094616577069e+01 -1.6140275296384491e+01 -4.6243341225512673e+01 -6 1 1
6676 2226 2 -8.4760000000000002e-01 -1.0559688152273385e+01 -1.2773145850917702e+01 -4.6764861236896806e+01 2 -2 0
6199 2067 2 -8.4760000000000002e-01 -1.0581832383654449e+01 -1.1999490506055045e+01 -4.2759244963905196e+01 3 5 -2
5235 1745 1 4.2380000000000001e-01 -1.2335643524212205e+01 -1.5052302473959998e+01 -4.3919642049988830e+01 2 -8 1
12996 4332 1 4.2380000000000001e-01 -1.4145967065354936e+01 -1.5100969909674269e+01 -4.2766706535897406e+01 -1 -1 0
11477 3826 1 4.2380000000000001e-01 -1.0305623445231404e+01 -1.1288941077617581e+01 -4.7019059724606059e+01 -4 -3 0
10155 3385 1 4.2380000000000001e-01 -1.5622894539163953e+01 -1.0786449836778905e+01 -4.2283026824358068e+01 5 9 2
9226 3076 2 -8.4760000000000002e-01 -1.4411106998808974e+01 -1.6249059525999012e+01 -4.1450238397814765e+01 -3 1 -1
12910 4304 2 -8.4760000000000002e-01 -1.1983668929962978e+01 -1.6378200221548038e+01 -4.7189745974768016e+01 -6 1 1
9506 3169 1 4.2380000000000001e-01 -1.3614608597884756e+01 -1.0521305794042052e+01 -4.5408657142471839e+01 2 -3 1
6200 2067 1 4.2380000000000001e-01 -1.0577636823853299e+01 -1.1655187258782631e+01 -4.3698094084475493e+01 3 5 -2
12064 4022 2 -8.4760000000000002e-01 -1.6318245117226681e+01 -1.7290263777327020e+01 -4.4038664720684665e+01 5 -14 2
6201 2067 1 4.2380000000000001e-01 -1.1493222366036758e+01 -1.1881430691561855e+01 -4.2364998619324794e+01 3 5 -2
9507 3169 1 4.2380000000000001e-01 -1.4425728106049744e+01 -1.0230275694355267e+01 -4.6795745142451274e+01 2 -3 1
12175 4059 2 -8.4760000000000002e-01 -1.4681438188373745e+01 -1.5913484460730837e+01 -4.5667357038380722e+01 5 -6 -1
9270 3090 1 4.2380000000000001e-01 -9.3151622817824258e+00 -1.0414474239541661e+01 -4.3689924507419342e+01 -2 -2 2
12994 4332 2 -8.4760000000000002e-01 -1.3940176407935589e+01 -1.4318917221797827e+01 -4.3354961411528834e+01 -1 -1 0
10206 3402 1 4.2380000000000001e-01 -1.4997817570518405e+01 -1.2849048524829604e+01 -4.6261443251271572e+01 8 3 -1
5234 1745 1 4.2380000000000001e-01 -1.1935797602925913e+01 -1.6633545520292756e+01 -4.3999767968339206e+01 2 -8 1
10154 3385 1 4.2380000000000001e-01 -1.5486367392101995e+01 -1.1232659602467661e+01 -4.3847917772077928e+01 5 9 2
12177 4059 1 4.2380000000000001e-01 -1.4555142885843152e+01 -1.5147654689573727e+01 -4.5036837999676770e+01 5 -6 -1
12995 4332 1 4.2380000000000001e-01 -1.4215188035745578e+01 -1.3474525404313065e+01 -4.2895210323292950e+01 -1 -1 0
10176 3392 1 4.2380000000000001e-01 -1.1840561850978760e+01 -9.6649350779084937e+00 -4.3877878291462316e+01 4 -5 1
11858 3953 1 4.2380000000000001e-01 -1.4359267401574517e+01 -1.7560854996125979e+01 -4.7075661900712070e+01 0 0 0
10153 3385 2 -8.4760000000000002e-01 -1.5308719551639275e+01 -1.1505853450496682e+01 -4.2902504441212521e+01 5 9 2
10204 3402 2 -8.4760000000000002e-01 -1.5460925637221512e+01 -1.3467714522572015e+01 -4.6896095362110174e+01 8 3 -1
12066 4022 1 4.2380000000000001e-01 -1.5457462721172110e+01 -1.7768412212664551e+01 -4.3864229229952905e+01 5 -14 2
12176 4059 1 4.2380000000000001e-01 -1.5071319383389030e+01 -1.5578273402152584e+01 -4.6525043577846219e+01 5 -6 -1
1282 428 2 -8.4760000000000002e-01 -1.1518653458792512e+01 -1.6787674559154571e+01 -4.1514936582012439e+01 3 6 3
1284 428 1 4.2380000000000001e-01 -1.0722182274287553e+01 -1.7088001003782338e+01 -4.2039758150653149e+01 3 6 3
8139 2713 1 4.2380000000000001e-01 -9.1294104278746371e+00 -1.4181787722441522e+01 -4.0949870831264029e+01 3 -5 -2
9268 3090 2 -8.4760000000000002e-01 -9.8418408245138718e+00 -9.7603505105882444e+00 -4.4232816632842393e+01 -2 -2 2
8138 2713 1 4.2380000000000001e-01 -9.2580330322343620e+00 -1.3254423954051079e+01 -4.2287809231139335e+01 3 -5 -2
1283 428 1 4.2380000000000001e-01 -1.1275045571826222e+01 -1.5986195581388385e+01 -4.0968780335498046e+01 3 6 3
1215 405 1 4.2380000000000001e-01 -1.8096831124473102e+01 -1.4829285724769065e+01 -4.1689352579290080e+01 0 -6 2
6233 2078 1 4.2380000000000001e-01 -1.8067383345414338e+01 -1.0573003045849870e+01 -4.3577954586849451e+01 -2 -1 -1
6962 2321 1 4.2380000000000001e-01 -1.7086204179488995e+01 -1.2271676015675407e+01 -3.8100795871746229e+01 -2 3 2
7467 2489 1 4.2380000000000001e-01 -1.0273764026559427e+01 -9.8759047683009022e+00 -3.9622283569718654e+01 -3 10 0
6961 2321 2 -8.4760000000000002e-01 -1.6619356158995320e+01 -1.2491382055487186e+01 -3.7244185002196140e+01 -2 3 2
11826 3942 1 4.2380000000000001e-01 -9.6310153185421097e+00 -1.3902952391196743e+01 -3.4177438005194801e+01 -7 1 1
6963 2321 1 4.2380000000000001e-01 -1.7296245201839287e+01 -1.2623369979474285e+01 -3.6520030038393941e+01 -2 3 2
11548 3850 2 -8.4760000000000002e-01 -1.2337006326049675e+01 -1.2343382172238311e+01 -3.9859264045615326e+01 -3 -8 2
7465 2489 2 -8.4760000000000002e-01 -1.1093391356018371e+01 -9.9942706094301332e+00 -3.9061747604362488e+01 -3 10 0
2043 681 1 4.2380000000000001e-01 -1.8054670860756026e+01 -1.2419771697070157e+01 -4.0416382991658828e+01 3 6 1
2041 681 2 -8.4760000000000002e-01 -1.7136990281861760e+01 -1.2778332672561584e+01 -4.0245221132662962e+01 3 6 1
11550 3850 1 4.2380000000000001e-01 -1.2032719875623627e+01 -1.1524132363112043e+01 -3.9373219288073706e+01 -3 -8 2
8491 2831 2 -8.4760000000000002e-01 -1.4621533124099335e+01 -1.0987412158819593e+01 -3.5632173224889655e+01 1 7 2
3419 1140 1 4.2380000000000001e-01 -1.0614861820054561e+01 -1.0096628278874393e+01 -3.5160068038870911e+01 1 -5 1
3868 1290 2 -8.4760000000000002e-01 -1.3577372774619796e+01 -1.4238587425749349e+01 -3.7226817579128905e+01 -2 3 1
5394 1798 1 4.2380000000000001e-01 -1.4695015313182367e+01 -1.5622232101678906e+01 -3.4085973863607798e+01 1 12 0
3179 1060 1 4.2380000000000001e-01 -1.6527732539831867e+01 -1.4118952118291883e+01 -3.5649508295116213e+01 7 -2 1
7152 2384 1 4.2380000000000001e-01 -1.4630809288101466e+01 -1.0043646354250138e+01 -4.0034559619833878e+01 -1 3 0
7466 2489 1 4.2380000000000001e-01 -1.0826662893681616e+01 -1.0219373320100052e+01 -3.8124632511629194e+01 -3 10 0
13040 4347 1 4.2380000000000001e-01 -1.6052219296926449e+01 -1.5201717240476041e+01 -3.8768266320704704e+01 9 3 2
3178 1060 2 -8.4760000000000002e-01 -1.5968433167459992e+01 -1.4936878284097377e+01 -3.5784345231284135e+01 7 -2 1
7862 2621 1 4.2380000000000001e-01 -1.6949513636708538e+01 -1.7155147374366070e+01 -3.9378423794028954e+01 -1 0 1
3869 1290 1 4.2380000000000001e-01 -1.3780053241159056e+01 -1.4908000188030265e+01 -3.7941525339111166e+01 -2 3 1
11549 3850 1 4.2380000000000001e-01 -1.3249784600011409e+01 -1.2599824689676243e+01 -3.9541344153451384e+01 -3 -8 2
8492 2831 1 4.2380000000000001e-01 -1.4936178965834811e+01 -1.1740250520183624e+01 -3.6210301580825679e+01 1 7 2
10578 3526 1 4.2380000000000001e-01 -1.2372541141177781e+01 -9.3361730406574441e+00 -3.9957090288233694e+01 -4 3 0
3087 1029 1 4.2380000000000001e-01 -1.7717852376057287e+01 -1.6216365930965633e+01 -3.5707899292978169e+01 5 -1 1
3870 1290 1 4.2380000000000001e-01 -1.2761711406808280e+01 -1.3718060665920591e+01 -3.7479302084320835e+01 -2 3 1
3003 1001 1 4.2380000000000001e-01 -1.1182080955157058e+01 -1.3764930681891368e+01 -3.9932817330078045e+01 0 7 0
7150 2384 2 -8.4760000000000002e-01 -1.5541684814103245e+01 -1.0415330398297231e+01 -4.0213882645493662e+01 -1 3 0
9228 3076 1 4.2380000000000001e-01 -1.4646609029485116e+01 -1.5816631457354234e+01 -4.0579867925547028e+01 -3 1 -1
3002 1001 1 4.2380000000000001e-01 -1.0610812885615871e+01 -1.5135484343072795e+01 -3.9253213070467091e+01 0 7 0
1807 603 2 -8.4760000000000002e-01 -1.7938174494357693e+01 -1.5452840236246914e+01 -3.8847415146677697e+01 1 4 0
2042 681 1 4.2380000000000001e-01 -1.6456629911995314e+01 -1.2127273226472763e+01 -4.0581719817316731e+01 3 6 1
13453 4485 2 -8.4760000000000002e-01 -1.2799870024406566e+01 -1.3969129240672251e+01 -3.4755954295434073e+01 2 0 1
8493 2831 1 4.2380000000000001e-01 -1.3675638707823113e+01 -1.1153883829449832e+01 -3.5353657630828849e+01 1 7 2
13455 4485 1 4.2380000000000001e-01 -1.3306484716815449e+01 -1.4171117158900701e+01 -3.5594132339959927e+01 2 0 1
10200 3400 1 4.2380000000000001e-01 -1.5778198000077856e+01 -1.1457286423942916e+01 -3.4647958667851746e+01 0 1 0
13041 4347 1 4.2380000000000001e-01 -1.5617917465767752e+01 -1.3818537918195007e+01 -3.9519813642569972e+01 9 3 2
10199 3400 1 4.2380000000000001e-01 -1.7208653496721769e+01 -1.0774008602706969e+01 -3.4256097740653402e+01 0 1 0
3001 1001 2 -8.4760000000000002e-01 -1.0572674911100508e+01 -1.4547346484709362e+01 -4.0061074045177186e+01 0 7 0
12108 4036 1 4.2380000000000001e-01 -1.1389027969513410e+01 -1.6915809674935826e+01 -3.7931026243477433e+01 1 2 0
3420 1140 1 4.2380000000000001e-01 -9.3398428086688838e+00 -1.0883706910309805e+01 -3.5809267733633099e+01 1 -5 1
3180 1060 1 4.2380000000000001e-01 -1.5081677686572631e+01 -1.4675207817548648e+01 -3.6165387596451581e+01 7 -2 1
12107 4036 1 4.2380000000000001e-01 -1.0023829511143456e+01 -1.6182410397471607e+01 -3.7416259146417275e+01 1 2 0
12106 4036 2 -8.4760000000000002e-01 -1.0861827634754176e+01 -1.6066267947794802e+01 -3.7949428984468888e+01 1 2 0
3418 1140 2 -8.4760000000000002e-01 -1.0168518919242523e+01 -1.0362918648447796e+01 -3.6014390843182689e+01 1 -5 1
1808 603 1 4.2380000000000001e-01 -1.7868265491560699e+01 -1.4596731288772885e+01 -3.9359460263227831e+01 1 4 0
7861 2621 2 -8.4760000000000002e-01 -1.6315833584447020e+01 -1.7811242760324603e+01 -3.8968559870403361e+01 -1 0 1
13039 4347 2 -8.4760000000000002e-01 -1.5316325699143754e+01 -1.4735760632095081e+01 -3.9259535139019640e+01 9 3 2
7151 2384 1 4.2380000000000001e-01 -1.6214440897314365e+01 -9.6759220781672752e+00 -4.0187909801501739e+01 -1 3 0
7863 2621 1 4.2380000000000001e-01 -1.6435369918262019e+01 -1.7814501587741983e+01 -3.7975735391987399e+01 -1 0 1
939 313 1 4.2380000000000001e-01 -1.6825065575924082e+01 -1.6128591992204871e+01 -3.1308421069189670e+01 -5 -1 1
6365 2122 1 4.2380000000000001e-01 -1.3829632630784692e+01 -1.2852842941115220e+01 -2.7438122235781403e+01 2 -3 2
3456 1152 1 4.2380000000000001e-01 -1.7005342879822532e+01 -1.2261806774451939e+01 -2.8624314932419285e+01 -5 0 -1
2444 815 1 4.2380000000000001e-01 -1.0051017648578979e+01 -1.0770768993050435e+01 -2.9853482047803080e+01 -2 -4 3
13197 4399 1 4.2380000000000001e-01 -1.7045879552204891e+01 -1.4097858379461563e+01 -3.0403224199507470e+01 -6 2 2
1816 606 2 -8.4760000000000002e-01 -1.6845461256120995e+01 -1.7960070325164804e+01 -3.0817019753495341e+01 4 6 1
1302 434 1 4.2380000000000001e-01 -1.0198045248549631e+01 -9.4399485097602760e+00 -3.3341987672258313e+01 -3 -5 -1
3455 1152 1 4.2380000000000001e-01 -1.6121435619166252e+01 -1.1334310973147131e+01 -2.7611849630170592e+01 -5 0 -1
5392 1798 2 -8.4760000000000002e-01 -1.4608924914630562e+01 -1.5995928523580909e+01 -3.3162426665282318e+01 1 12 0
9309 3103 1 4.2380000000000001e-01 -9.7781245594345769e+00 -1.0225330246150774e+01 -2.7702312947499397e+01 0 -6 -3
5393 1798 1 4.2380000000000001e-01 -1.4424229075018429e+01 -1.6977272754669965e+01 -3.3215820924694718e+01 1 12 0
1301 434 1 4.2380000000000001e-01 -1.1750833779424420e+01 -9.9144948563499682e+00 -3.3167976067879302e+01 -3 -5 -1
1300 434 2 -8.4760000000000002e-01 -1.1117437392109059e+01 -9.3839822163933686e+00 -3.3731327960910761e+01 -3 -5 -1
7920 2640 1 4.2380000000000001e-01 -1.7278293582739614e+01 -1.7497591666649800e+01 -2.7628611753043412e+01 -3 4 0
7919 2640 1 4.2380000000000001e-01 -1.6915251214240509e+01 -1.7364746003620507e+01 -2.9215173684902787e+01 -3 4 0
12164 4055 1 4.2380000000000001e-01 -1.5492125459522409e+01 -1.2184378843902708e+01 -3.2814385093182899e+01 3 5 -1
2443 815 2 -8.4760000000000002e-01 -9.4942116955730746e+00 -1.0999106075984072e+01 -3.0652124212514249e+01 -2 -4 3
11399 3800 1 4.2380000000000001e-01 -1.4320119436076991e+01 -1.3378002279841731e+01 -2.9655993303751053e+01 6 4 -1
10198 3400 2 -8.4760000000000002e-01 -1.6577393752143614e+01 -1.1521793901264594e+01 -3.4050359357904320e+01 0 1 0
12165 4055 1 4.2380000000000001e-01 -1.5798893604938206e+01 -1.2697272838354207e+01 -3.1294694483042068e+01 3 5 -1
12163 4055 2 -8.4760000000000002e-01 -1.5136373182347345e+01 -1.2231069503594135e+01 -3.1880971840875894e+01 3 5 -1
11398 3800 2 -8.4760000000000002e-01 -1.3343276432873610e+01 -1.3269158104181766e+01 -2.9471790446776716e+01 6 4 -1
6356 2119 1 4.2380000000000001e-01 -1.4398691740181372e+01 -1.7501621615910288e+01 -2.8114328106035792e+01 -1 -5 1
430 144 2 -8.4760000000000002e-01 -1.2640463238145195e+01 -1.0889224249816369e+01 -3.1831141404890253e+01 6 0 1
432 144 1 4.2380000000000001e-01 -1.2020397793127861e+01 -1.0822461348360680e+01 -3.1049437139272705e+01 6 0 1
937 313 2 -8.4760000000000002e-01 -1.6532506064209169e+01 -1.5237196691017031e+01 -3.1654576163223201e+01 -5 -1 1
11400 3800 1 4.2380000000000001e-01 -1.2896582204792232e+01 -1.4163306871205975e+01 -2.9502810585845818e+01 6 4 -1
2379 793 1 4.2380000000000001e-01 -1.0987479180721541e+01 -1.2137387949071579e+01 -2.7555844256719219e+01 1 -1 -1
4351 1451 2 -8.4760000000000002e-01 -1.0476157332269418e+01 -1.4498265481756020e+01 -2.8557447629086855e+01 -5 1 -1
4352 1451 1 4.2380000000000001e-01 -1.0306956540792207e+01 -1.3969714030936744e+01 -2.7725579577049565e+01 -5 1 -1
431 144 1 4.2380000000000001e-01 -1.3321072728353506e+01 -1.1600845283736529e+01 -3.1656882327879089e+01 6 0 1
2378 793 1 4.2380000000000001e-01 -1.1751959599682923e+01 -1.2167771676956233e+01 -2.8998506037332032e+01 1 -1 -1
938 313 1 4.2380000000000001e-01 -1.5683507899012490e+01 -1.5342957715614443e+01 -3.2172279477070802e+01 -5 -1 1
10918 3640 2 -8.4760000000000002e-01 -1.2825530498546462e+01 -1.5653225195670521e+01 -3.0679422560296000e+01 1 0 0
3454 1152 2 -8.4760000000000002e-01 -1.6828949237127738e+01 -1.1326197773555551e+01 -2.8318502767424953e+01 -5 0 -1
13454 4485 1 4.2380000000000001e-01 -1.3420826093894572e+01 -1.3576338577900895e+01 -3.4077626163181215e+01 2 0 1
4353 1451 1 4.2380000000000001e-01 -9.6081828626213088e+00 -1.4678336884309138e+01 -2.9020259264659728e+01 -5 1 -1
7918 2640 2 -8.4760000000000002e-01 -1.6840100821130115e+01 -1.6923998356677114e+01 -2.8320693986905557e+01 -3 4 0
2377 793 2 -8.4760000000000002e-01 -1.1109388947271077e+01 -1.1659056758331387e+01 -2.8425520794740628e+01 1 -1 -1
10920 3640 1 4.2380000000000001e-01 -1.1893862189909981e+01 -1.6011511972169941e+01 -3.0739628444294972e+01 1 0 0
10919 3640 1 4.2380000000000001e-01 -1.3351685350879013e+01 -1.5957685146854097e+01 -3.1473440953969725e+01 1 0 0
6357 2119 1 4.2380000000000001e-01 -1.3402299783360839e+01 -1.7907133268501020e+01 -2.9342900392526481e+01 -1 -5 1
4943 1648 1 4.2380000000000001e-01 -1.7660693748095291e+01 -9.7258885884051640e+00 -2.8679777532274816e+01 1 2 2
11824 3942 2 -8.4760000000000002e-01 -1.0112442053376984e+01 -1.3114682397607222e+01 -3.3794216507634182e+01 -7 1 1
11825 3942 1 4.2380000000000001e-01 -1.1098355863421681e+01 -1.3279121936882447e+01 -3.3824771328630348e+01 -7 1 1
13195 4399 2 -8.4760000000000002e-01 -1.6871301332597579e+01 -1.3709535196961630e+01 -2.9498388550800005e+01 -6 2 2
13196 4399 1 4.2380000000000001e-01 -1.6981263204297473e+01 -1.4420411645445357e+01 -2.8803720959960028e+01 -6 2 2
6355 2119 2 -8.4760000000000002e-01 -1.3610106710370076e+01 -1.8057896825383320e+01 -2.8376418819498223e+01 -1 -5 1
1477 493 2 -8.4760000000000002e-01 -1.3594916250321299e+01 -1.0126094057177779e+01 -2.0914511610621158e+01 0 4 1
1479 493 1 4.2380000000000001e-01 -1.3223814365398717e+01 -9.9614388650742249e+00 -2.1828389096239579e+01 0 4 1
10819 3607 2 -8.4760000000000002e-01 -1.2540913949498043e+01 -1.3764042092314194e+01 -2.3350661261874052e+01 3 5 0
3213 1071 1 4.2380000000000001e-01 -1.3003203462773291e+01 -1.4759832197865105e+01 -2.4676166069016755e+01 1 3 -1
4947 1649 1 4.2380000000000001e-01 -1.0410521588946308e+01 -1.1572850963000418e+01 -2.3306454523958028e+01 -1 0 0
11666 3889 1 4.2380000000000001e-01 -1.2126327681752681e+01 -1.0236640436530628e+01 -2.6818827591851090e+01 1 -6 2
4164 1388 1 4.2380000000000001e-01 -1.5128164763811688e+01 -1.5950423897306145e+01 -2.2717149550529918e+01 -3 2 2
4163 1388 1 4.2380000000000001e-01 -1.5860524545380335e+01 -1.7287198063139201e+01 -2.3303076572469116e+01 -3 2 2
6182 2061 1 4.2380000000000001e-01 -1.3160620212955223e+01 -1.0697959654311628e+01 -2.4425513527316479e+01 8 0 0
3996 1332 1 4.2380000000000001e-01 -1.6973537803032880e+01 -1.5706262332680710e+01 -2.0890315380477865e+01 -4 -3 -1
6181 2061 2 -8.4760000000000002e-01 -1.3973483237216286e+01 -1.1104187512806575e+01 -2.4008101703368268e+01 8 0 0
11667 3889 1 4.2380000000000001e-01 -1.3476244721913101e+01 -9.8409636783294179e+00 -2.5989496305307295e+01 1 -6 2
3090 1030 1 4.2380000000000001e-01 -1.6577631339553346e+01 -1.5464756026602416e+01 -2.5481021874039985e+01 2 -1 0
5312 1771 1 4.2380000000000001e-01 -1.4763584136351124e+01 -1.3490519554878187e+01 -2.1291446356313354e+01 2 -7 -1
2221 741 2 -8.4760000000000002e-01 -1.0435424822119636e+01 -1.6984653313589895e+01 -2.4907064636884520e+01 -2 -3 -1
10820 3607 1 4.2380000000000001e-01 -1.3046655950906091e+01 -1.2972268430379494e+01 -2.3008141924787374e+01 3 5 0
6366 2122 1 4.2380000000000001e-01 -1.4642250507630850e+01 -1.3765758651579517e+01 -2.6355133968553179e+01 2 -3 2
3442 1148 2 -8.4760000000000002e-01 -1.7856229168331783e+01 -1.5796985327852438e+01 -2.4261632939829450e+01 -4 -3 1
2223 741 1 4.2380000000000001e-01 -1.1090631760377766e+01 -1.6314789004690102e+01 -2.5256329115067743e+01 -2 -3 -1
2222 741 1 4.2380000000000001e-01 -9.7499638336180361e+00 -1.7177805744568992e+01 -2.5609086981008460e+01 -2 -3 -1
10821 3607 1 4.2380000000000001e-01 -1.1560165765702706e+01 -1.3611073252471160e+01 -2.3229279492158717e+01 3 5 0
6013 2005 2 -8.4760000000000002e-01 -9.9129786530160047e+00 -1.3361000167499199e+01 -2.2783526826145941e+01 -2 -12 0
6183 2061 1 4.2380000000000001e-01 -1.4174417477517487e+01 -1.1977875349781659e+01 -2.4451153612963950e+01 8 0 0
921 307 1 4.2380000000000001e-01 -1.2635036997664608e+01 -1.5912251060173526e+01 -2.0640531239623137e+01 -1 0 0
1127 376 1 4.2380000000000001e-01 -1.7983813832189810e+01 -1.1038077463635998e+01 -2.0954468899022018e+01 -1 -5 -1
4945 1649 2 -8.4760000000000002e-01 -1.0827140768457330e+01 -1.0680113241696544e+01 -2.3478058195902225e+01 -1 0 0
233 78 1 4.2380000000000001e-01 -1.0402229374227847e+01 -1.7478093831262662e+01 -2.3408624992448001e+01 4 1 -1
3088 1030 2 -8.4760000000000002e-01 -1.5768668055651881e+01 -1.5328236561444138e+01 -2.6052809282901229e+01 2 -1 0
3017 1006 1 4.2380000000000001e-01 -1.6599277422684366e+01 -1.4288356640729038e+01 -2.2818830418613729e+01 0 4 1
3016 1006 2 -8.4760000000000002e-01 -1.5627141094883369e+01 -1.4279368523789856e+01 -2.3053074252947692e+01 0 4 1
4162 1388 2 -8.4760000000000002e-01 -1.5078997594482193e+01 -1.6947237006673635e+01 -2.2779968452567822e+01 -3 2 2
3018 1006 1 4.2380000000000001e-01 -1.5509933780740711e+01 -1.3911315265626236e+01 -2.3975462048111204e+01 0 4 1
4099 1367 2 -8.4760000000000002e-01 -1.0620806600334143e+01 -1.1712969981778921e+01 -2.0557047346151926e+01 1 2 1
3212 1071 1 4.2380000000000001e-01 -1.4099659606426524e+01 -1.5764836065707080e+01 -2.5350241469698481e+01 1 3 -1
4564 1522 2 -8.4760000000000002e-01 -9.8712435997174044e+00 -1.5648816794689550e+01 -2.1005183608390404e+01 -5 -3 -1
4566 1522 1 4.2380000000000001e-01 -1.0209806835593028e+01 -1.4828894399387311e+01 -2.1466813547838946e+01 -5 -3 -1
3211 1071 2 -8.4760000000000002e-01 -1.3150533492600735e+01 -1.5451653123056490e+01 -2.5383044891572908e+01 1 3 -1
11665 3889 2 -8.4760000000000002e-01 -1.2659086546812860e+01 -9.4803235388636864e+00 -2.6439153070710621e+01 1 -6 2
10179 3393 1 4.2380000000000001e-01 -1.6169171143985359e+01 -9.6734055524947795e+00 -2.2105622801209456e+01 -1 6 1
1921 641 2 -8.4760000000000002e-01 -1.1284981141095898e+01 -1.2964301597456075e+01 -2.6039095519891042e+01 1 -1 -1
6364 2122 2 -8.4760000000000002e-01 -1.4452746524258336e+01 -1.2831203695039054e+01 -2.6656290528321687e+01 2 -3 2
1478 493 1 4.2380000000000001e-01 -1.4118755300881041e+01 -1.0977910057289167e+01 -2.0915978260852565e+01 0 4 1
3443 1148 1 4.2380000000000001e-01 -1.7992013232323597e+01 -1.6744627366789103e+01 -2.3972604820080143e+01 -4 -3 1
485 162 1 4.2380000000000001e-01 -9.6500795896663281e+00 -9.5126248165434788e+00 -2.4368874911601484e+01 7 -6 -1
5311 1771 2 -8.4760000000000002e-01 -1.4611862205232407e+01 -1.2743518274400076e+01 -2.0644167789866362e+01 2 -7 -1
10177 3393 2 -8.4760000000000002e-01 -1.6178487928552364e+01 -9.8521266634609930e+00 -2.3089478462381532e+01 -1 6 1
4565 1522 1 4.2380000000000001e-01 -1.0195578244564331e+01 -1.6461662389451732e+01 -2.1489011136780142e+01 -5 -3 -1
232 78 2 -8.4760000000000002e-01 -1.0632877850155859e+01 -1.7734975839210275e+01 -2.2470108655592380e+01 4 1 -1
4946 1649 1 4.2380000000000001e-01 -1.0666178611502474e+01 -1.0080888650359398e+01 -2.2693825403189965e+01 -1 0 0
4101 1367 1 4.2380000000000001e-01 -1.1024284063423480e+01 -1.0821521114806632e+01 -2.0763262899282189e+01 1 2 1
1923 641 1 4.2380000000000001e-01 -1.1827525687088634e+01 -1.3757305687788740e+01 -2.6316205477000491e+01 1 -1 -1
1922 641 1 4.2380000000000001e-01 -1.0416050855385311e+01 -1.3273518045518685e+01 -2.5652643263043633e+01 1 -1 -1
3994 1332 2 -8.4760000000000002e-01 -1.7801502863688274e+01 -1.5281867626743905e+01 -2.1256870958674018e+01 -4 -3 -1
6015 2005 1 4.2380000000000001e-01 -9.5356218644983333e+00 -1.4097206390400054e+01 -2.3345311706257263e+01 -2 -12 0
6014 2005 1 4.2380000000000001e-01 -9.2319664005550557e+00 -1.3072912515555332e+01 -2.2110304859187391e+01 -2 -12 0
10178 3393 1 4.2380000000000001e-01 -1.5266637632158512e+01 -1.0136904602020026e+01 -2.3385165057743091e+01 -1 6 1
3089 1030 1 4.2380000000000001e-01 -1.5845155938620266e+01 -1.5888347948330544e+01 -2.6877687963701746e+01 2 -1 0
13286 4429 1 4.2380000000000001e-01 -1.7726108852062936e+01 -9.9601779997915312e+00 -2.4098441165769902e+01 -1 3 2