 Data file for a-pinene O2, ver. b

          58  atoms
          58  bonds
         110  angles
          72  dihedrals
           4  impropers

          29  atom types
          29  bond types
          55  angle types
          36  dihedral types
           2  improper types

   -75.00000000       75.000000000000000      xlo xhi
   -75.00000000       75.000000000000000      ylo yhi
   -75.00000000       75.000000000000000      zlo zhi

 Masses

   1   12.011
   2   12.011
   3   12.011
   4   12.011
   5    1.008
   6    1.008
   7    1.008
   8    1.008
   9   12.011
  10    1.008
  11    1.008
  12    1.008
  13   12.011
  14    1.008
  15    1.008
  16    1.008
  17   12.011
  18    1.008
  19   12.011
  20   15.999
  21   12.011
  22    1.008
  23    1.008
  24    1.008
  25   12.011
  26    1.008
  27   15.999
  28   15.999
  29   15.999

 Pair Coeffs

   1    0.0830    3.4500
   2    0.0830    3.4500
   3    0.0830    3.4500
   4    0.0830    3.4500
   5    0.0300    2.5000
   6    0.0300    2.5000
   7    0.0300    2.5000
   8    0.0300    2.5000
   9    0.0660    3.5000
  10    0.0300    2.5000
  11    0.0300    2.5000
  12    0.0300    2.5000
  13    0.0660    3.5000
  14    0.0300    2.5000
  15    0.0300    2.5000
  16    0.0300    2.5000
  17    0.0660    3.5000
  18    0.0300    2.5000
  19    0.0700    3.5500
  20    0.2100    2.9600
  21    0.0660    3.5000
  22    0.0300    2.5000
  23    0.0300    2.5000
  24    0.0300    2.5000
  25    0.0700    3.5500
  26    0.0300    2.5000
  27    0.2100    2.9600
  28    0.1400    2.9000
  29    0.1400    2.9000

 Bond Coeffs

   1  260.0000    1.5200
   2  260.0000    1.5200
   3  260.0000    1.5200
   4  340.0000    1.0880
   5  340.0000    1.0880
   6  340.0000    1.0880
   7  340.0000    1.0880
   8  280.0000    1.5100
   9  340.0000    1.0900
  10  340.0000    1.0900
  11  340.0000    1.0900
  12  280.0000    1.5100
  13  340.0000    1.0900
  14  340.0000    1.0900
  15  340.0000    1.0900
  16  280.0000    1.5100
  17  340.0000    1.0900
  18  317.0000    1.5220
  19  570.0000    1.2290
  20  317.0000    1.5220
  21  340.0000    1.0900
  22  340.0000    1.0900
  23  340.0000    1.0900
  24  317.0000    1.5220
  25  340.0000    1.0900
  26  570.0000    1.2290
  27  320.0000    1.4100
  28  469.2840    1.3226
  29  260.0000    1.5200

 Angle Coeffs

   1   30.0000   83.0000
   2   30.0000   83.0000
   3   37.5000  117.2000
   4   37.5000  117.2000
   5   37.5000  117.2000
   6   37.5000  117.2000
   7   37.5000  117.2000
   8   37.5000  110.7000
   9   37.5000  110.7000
  10   37.5000  110.7000
  11   37.5000  117.2000
  12   37.5000  110.7000
  13   37.5000  110.7000
  14   37.5000  110.7000
  15   37.5000  117.2000
  16   37.5000  110.7000
  17   63.0000  111.1000
  18   80.0000  120.4000
  19   70.0000  116.0000
  20   35.0000  109.5000
  21   35.0000  109.5000
  22   37.5000  110.7000
  23   63.0000  111.1000
  24   35.0000  115.0000
  25   80.0000  120.4000
  26   50.0000  109.5000
  27   85.0220  110.0400
  28   35.0000  114.3000
  29   35.0000  114.3000
  30   80.0000  120.4000
  31   35.0000  109.5000
  32   37.5000  117.2000
  33   35.0000  109.5000
  34   35.0000  114.3000
  35   30.0000   83.0000
  36   33.0000  107.8000
  37   33.0000  107.8000
  38   37.5000  117.2000
  39   33.0000  107.8000
  40   33.0000  107.8000
  41   35.0000  109.5000
  42   30.0000   83.0000
  43   35.0000  123.0000
  44   33.0000  107.8000
  45   37.5000  117.2000
  46   37.5000  117.2000
  47   63.0000  111.1000
  48   33.0000  107.8000
  49   33.0000  107.8000
  50   37.5000  117.2000
  51   33.0000  107.8000
  52   35.0000  109.5000
  53   35.0000  109.5000
  54   37.5000  117.2000
  55   37.5000  117.2000

 Dihedral Coeffs

   1    0.0000    0.0000    0.3000    0.0000
   2    0.0000    0.0000    0.3000    0.0000
   3    0.0000    0.0000    0.3000    0.0000
   4    0.0000    0.0000    0.2750    0.0000
   5    0.6500   -0.2500    0.6700    0.0000
   6    0.0000    0.0000    0.3600    0.0000
   7    0.0000    0.0000    0.3000    0.0000
   8    0.0000    0.0000   -0.1000    0.0000
   9    0.0000    0.0000    0.3000    0.0000
  10    0.0000    0.0000    0.7600    0.0000
  11    0.0000    0.0000    0.3000    0.0000
  12    0.0000    0.0000    0.3000    0.0000
  13    0.0000    0.0000    0.3000    0.0000
  14    0.0000    0.0000    0.3000    0.0000
  15    0.0000    0.0000    0.3000    0.0000
  16    0.0000    0.0000    0.3000    0.0000
  17    0.0000    0.0000    0.3000    0.0000
  18    0.0000    0.0000    0.3000    0.0000
  19    0.0000    0.0000    0.3000    0.0000
  20    0.0000    1.5000    0.0000    0.0000
  21    0.0000    0.0000    0.3000    0.0000
  22    0.0000    0.0000    0.3000    0.0000
  23    0.0000    0.0000    0.3000    0.0000
  24    0.0000    0.0000    0.7600    0.0000
  25    0.0000    0.0000    0.2750    0.0000
  26    0.0000    0.0000    0.3000    0.0000
  27   -2.0600   -0.3130    0.3150    0.0000
  28   -2.0600   -0.3130    0.3150    0.0000
  29    0.0000    0.0000    0.3000    0.0000
  30    0.0000    0.0000    0.3000    0.0000
  31    0.0000    0.0000    0.3000    0.0000
  32    0.0000    0.0000    0.3000    0.0000
  33    0.0000    0.0000    0.2750    0.0000
  34    0.0000    0.0000    0.3600    0.0000
  35    0.0000    0.0000    0.3000    0.0000
  36    0.0000    0.0000    0.3000    0.0000

 Improper Coeffs

   1   10.5000  -1   2
   2   10.5000  -1   2

 Atoms

   1  1  1    -0.0332    -0.3892    -0.5929    -0.3294
   2  1  2    -0.1965    -0.1380    -0.1163     1.1955
   3  1  3    -0.1128     0.8435    -1.5786    -0.1731
   4  1  4    -0.1758     0.9734    -1.1993     1.3388
   5  1  5     0.1145     1.9572    -0.7748     1.6175
   6  1  6     0.1145     0.7002    -2.0115     2.0382
   7  1  7     0.1242     0.5410    -2.6281    -0.3559
   8  1  8     0.1470    -1.0435    -0.2592     1.8116
   9  1  9    -0.2286    -1.7231    -1.3444    -0.4413
  10  1 10     0.0921    -2.5721    -0.6456    -0.2883
  11  1 11     0.0921    -1.7888    -2.1462     0.3248
  12  1 12     0.0921    -1.8002    -1.8117    -1.4457
  13  1 13    -0.2368    -0.2972     0.4862    -1.4213
  14  1 14     0.0959    -1.1490     1.1900    -1.3326
  15  1 15     0.0959    -0.3374     0.0027    -2.4168
  16  1 16     0.0959     0.6430     1.0706    -1.3535
  17  1 17    -0.2541     2.1012    -1.2758    -0.9957
  18  1 18     0.1300     2.3941    -0.2038    -0.9141
  19  1 19     0.3492     0.3312     1.3124     1.3003
  20  1 20    -0.3940     1.5060     1.6694     1.2572
  21  1 21     0.0143    -0.7558     2.4196     1.4472
  22  1 22     0.1301    -0.9636     2.5823     2.5261
  23  1 23     0.1301    -0.3979     3.3484     0.9630
  24  1 24     0.1300     2.9765    -1.8351    -0.5864
  25  1 25     0.2716     1.9962    -1.6328    -2.4699
  26  1 26     0.0977     2.9503    -1.4717    -3.0604
  27  1 27    -0.3894     0.9893    -2.0691    -3.0116
  28  1 28    -0.1540    -2.0260     2.0982     0.7838
  29  1 29    -0.1450    -2.8078     1.2926     1.5367
  30  2  1    -0.0332    60.0530     0.7199     0.3007
  31  2  2    -0.1965    58.9395    -0.0572    -0.5779
  32  2  3    -0.1128    60.6332     1.3152    -1.0502
  33  2  4    -0.1758    59.4619     0.6641    -1.8567
  34  2  5     0.1145    59.7903    -0.0395    -2.6461
  35  2  6     0.1145    58.7369     1.3881    -2.2735
  36  2  7     0.1242    60.6181     2.4225    -1.0373
  37  2  8     0.1470    57.9184     0.2064    -0.2495
  38  2  9    -0.2286    59.3904     1.7961     1.1721
  39  2 10     0.0921    58.7764     1.3228     1.9669
  40  2 11     0.0921    58.7286     2.4456     0.5605
  41  2 12     0.0921    60.1752     2.4311     1.6347
  42  2 13    -0.2368    60.9958    -0.1449     1.1542
  43  2 14     0.0959    60.4330    -0.6113     1.9877
  44  2 15     0.0959    61.7944     0.4946     1.5781
  45  2 16     0.0959    61.4716    -0.9536     0.5628
  46  2 17    -0.2541    62.0236     0.8444    -1.4921
  47  2 18     0.1300    62.1161    -0.2647    -1.4355
  48  2 19     0.3492    59.1110    -1.5547    -0.5619
  49  2 20    -0.3940    59.8131    -2.1883    -1.3462
  50  2 21     0.0143    58.3638    -2.3544     0.5477
  51  2 22     0.1301    57.3577    -2.6393     0.1735
  52  2 23     0.1301    58.9595    -3.2476     0.8170
  53  2 24     0.1300    62.1894     1.0825    -2.5702
  54  2 25     0.2716    63.1779     1.4615    -0.7185
  55  2 26     0.0977    64.2056     1.1639    -1.0930
  56  2 27    -0.3894    63.0527     2.2269     0.2282
  57  2 28    -0.1540    58.1879    -1.6101     1.8015
  58  2 29    -0.1450    57.1292    -0.7711     1.7550

 Bonds

           1           1           2           1
           2           2           3           1
           3           3           4           2
           4           4           5           4
           5           5           6           4
           6           6           7           3
           7           7           8           2
           8           8           9           1
           9           9          10           9
          10          10          11           9
          11          11          12           9
          12          12          13           1
          13          13          14          13
          14          14          15          13
          15          15          16          13
          16          16          17           3
          17          17          18          17
          18          18          19           2
          19          19          20          19
          20          20          21          19
          21          21          22          21
          22          22          23          21
          23          23          24          17
          24          24          25          17
          25          25          26          25
          26          26          27          25
          27          27          28          21
          28          28          29          28
          29          29           4           3
30 1 31 30
31 2 32 30
32 3 33 31
33 4 34 33
34 5 35 33
35 6 36 32
36 7 37 31
37 8 38 30
38 9 39 38
39 10 40 38
40 11 41 38
41 12 42 30
42 13 43 42
43 14 44 42
44 15 45 42
45 16 46 32
46 17 47 46
47 18 48 31
48 19 49 48
49 20 50 48
50 21 51 50
51 22 52 50
52 23 53 46
53 24 54 46
54 25 55 54
55 26 56 54
56 27 57 50
57 28 58 57
58 29 33 32

 Angles

           1           1           2           1           3
           2           2           1           2           4
           3           3           2           4           5
           4           4           2           4           6
           5           5           1           3           7
           6           6           1           2           8
           7           7           2           1           9
           8           8           1           9          10
           9           9           1           9          11
          10          10           1           9          12
          11          11           2           1          13
          12          12           1          13          14
          13          13           1          13          15
          14          14           1          13          16
          15          15           1           3          17
          16          16           3          17          18
          17          17           1           2          19
          18          18           2          19          20
          19          19           2          19          21
          20          20          19          21          22
          21          21          19          21          23
          22          22           3          17          24
          23          23           3          17          25
          24          24          17          25          26
          25          25          17          25          27
          26          26          19          21          28
          27          27          21          28          29
          28          28           9           1          13
          29          29           5           4           6
          30          30          20          19          21
          31          31          24          17          25
          32          32           4           2           8
          33          33           8           2          19
          34          34           7           3          17
          35          35           2           4           3
          36          36          15          13          16
          37          37          22          21          23
          38          38           4           3           7
          39          39          10           9          12
          40          40          11           9          12
          41          41          23          21          28
          42          42           1           3           4
          43          43          26          25          27
          44          44          14          13          15
          45          45           3           1          13
          46          46           3           4           6
          47          47           4           2          19
          48          48          10           9          11
          49          49          14          13          16
          50          50           4           3          17
          51          51          18          17          24
          52          52          18          17          25
          53          55          22          21          28
          54          54           3           1           9
          55          55           3           4           5
56 1 31 30 32
57 2 30 31 33
58 3 31 33 34
59 4 31 33 35
60 5 30 32 36
61 6 30 31 37
62 7 31 30 38
63 8 30 38 39
64 9 30 38 40
65 10 30 38 41
66 11 31 30 42
67 12 30 42 43
68 13 30 42 44
69 14 30 42 45
70 15 30 32 46
71 16 32 46 47
72 17 30 31 48
73 18 31 48 49
74 19 31 48 50
75 20 48 50 51
76 21 48 50 52
77 22 32 46 53
78 23 32 46 54
79 24 46 54 55
80 25 46 54 56
81 26 48 50 57
82 27 50 57 58
83 28 38 30 42
84 29 34 33 35
85 30 49 48 50
86 31 53 46 54
87 32 33 31 37
88 33 37 31 48
89 34 36 32 46
90 35 31 33 32
91 36 44 42 45
92 37 51 50 52
93 38 33 32 36
94 39 39 38 41
95 40 40 38 41
96 41 52 50 57
97 42 30 32 33
98 43 55 54 56
99 44 43 42 44
100 45 32 30 42
101 46 32 33 35
102 47 33 31 48
103 48 39 38 40
104 49 43 42 45
105 50 33 32 46
106 51 47 46 53
107 52 47 46 54
108 55 51 50 57
109 54 32 30 38
110 55 32 33 34

 Dihedrals

           1           1          10           9           1           2
           2           2          14          13           1           2
           3           3          18          17           3           1
           4           4          22          21          19           2
           5           5          29          28          21          19
           6           6          26          25          17          18
           7           7          14          13           1           9
           8           8          25          17           3           7
           9           9          13           1           9          11
          10          10          29          28          21          23
          11          11          24          17           3           7
          12          12          24          17           3           4
          13          13          18          17           3           7
          14          14          24          17           3           1
          15          15          15          13           1           2
          16          16          15          13           1           9
          17          17          14          13           1           3
          18          18          13           1           9          10
          19          19          11           9           1           2
          20          20          28          21          19           2
          21          21          10           9           1           3
          22          22          16          13           1           2
          23          23          15          13           1           3
          24          24          29          28          21          22
          25          25          21          19           2           8
          26          26          16          13           1           9
          27          27          25          17           3           4
          28          28          25          17           3           1
          29          29          18          17           3           4
          30          30          12           9           1           3
          31          31          13           1           9          12
          32          32          16          13           1           3
          33          33          23          21          19           2
          34          34          26          25          17          24
          35          35          12           9           1           2
          36          36          11           9           1           3
37 1 39 38 30 31
38 2 43 42 30 31
39 3 47 46 32 30
40 4 51 50 48 31
41 5 58 57 50 48
42 6 55 54 46 47
43 7 43 42 30 38
44 8 54 46 32 36
45 9 42 30 38 40
46 10 58 57 50 52
47 11 53 46 32 36
48 12 53 46 32 33
49 13 47 46 32 36
50 14 53 46 32 30
51 15 44 42 30 31
52 16 44 42 30 38
53 17 43 42 30 32
54 18 42 30 38 39
55 19 40 38 30 31
56 20 57 50 48 31
57 21 39 38 30 32
58 22 45 42 30 31
59 23 44 42 30 32
60 24 58 57 50 51
61 25 50 48 31 37
62 26 45 42 30 38
63 27 54 46 32 33
64 28 54 46 32 30
65 29 47 46 32 33
66 30 41 38 30 32
67 31 42 30 38 41
68 32 45 42 30 32
69 33 52 50 48 31
70 34 55 54 46 53
71 35 41 38 30 31
72 36 40 38 30 32

 Impropers

           1           1          19           2          20          21
           2           2          25          17          27          26
3 1 48 31 49 50
4 2 54 46 56 55
