 Data file for a-pineneO2, ver. a, + ethanol peroxy

          39  atoms
          38  bonds
          69  angles
          49  dihedrals
           2  impropers

          39  atom types
          38  bond types
          69  angle types
          49  dihedral types
           2  improper types

   -75.00000000       75.000000000000000      xlo xhi
   -75.00000000       75.000000000000000      ylo yhi
   -75.00000000       75.000000000000000      zlo zhi

 Masses

   1   12.011
   2   12.011
   3   12.011
   4   12.011
   5    1.008
   6    1.008
   7    1.008
   8    1.008
   9   12.011
  10    1.008
  11    1.008
  12    1.008
  13   12.011
  14    1.008
  15    1.008
  16    1.008
  17   12.011
  18    1.008
  19   15.999
  20   12.011
  21    1.008
  22   15.999
  23   12.011
  24   15.999
  25   12.011
  26    1.008
  27    1.008
  28    1.008
  29   15.999
       30     15.999  
       31     12.011  
       32     12.011  
       33     15.999  
       34     15.999  
       35      1.008  
       36      1.008  
       37      1.008  
       38      1.008  
       39      1.008  

 Pair Coeffs

   1    0.0830    3.4500
   2    0.0830    3.4500
   3    0.0830    3.4500
   4    0.0830    3.4500
   5    0.0300    2.5000
   6    0.0300    2.5000
   7    0.0300    2.5000
   8    0.0300    2.5000
   9    0.0660    3.5000
  10    0.0300    2.5000
  11    0.0300    2.5000
  12    0.0300    2.5000
  13    0.0660    3.5000
  14    0.0300    2.5000
  15    0.0300    2.5000
  16    0.0300    2.5000
  17    0.0660    3.5000
  18    0.0300    2.5000
  19    0.1400    2.9000
  20    0.0700    3.5500
  21    0.0300    2.5000
  22    0.2100    2.9600
  23    0.0700    3.5500
  24    0.2100    2.9600
  25    0.0660    3.5000
  26    0.0300    2.5000
  27    0.0300    2.5000
  28    0.0300    2.5000
  29    0.1400    2.9000
       30      0.170  3.1200000 
       31      0.066  3.5000000 
       32      0.066  3.5000000 
       33      0.140  2.9000000 
       34      0.140  2.9000000 
       35      0.000  0.0000000 
       36      0.030  2.5000000 
       37      0.030  2.5000000 
       38      0.030  2.5000000 
       39      0.030  2.5000000 

 Bond Coeffs

   1  260.0000    1.5200
   2  260.0000    1.5200
   3  260.0000    1.5200
   4  340.0000    1.0880
   5  340.0000    1.0880
   6  340.0000    1.0880
   7  340.0000    1.0880
   8  280.0000    1.5100
   9  340.0000    1.0900
  10  340.0000    1.0900
  11  340.0000    1.0900
  12  280.0000    1.5100
  13  340.0000    1.0900
  14  340.0000    1.0900
  15  340.0000    1.0900
  16  280.0000    1.5100
  17  340.0000    1.0900
  18  320.0000    1.4100
  19  317.0000    1.5220
  20  340.0000    1.0900
  21  570.0000    1.2290
  22  317.0000    1.5220
  23  570.0000    1.2290
  24  317.0000    1.5220
  25  340.0000    1.0900
  26  340.0000    1.0900
  27  340.0000    1.0900
  28  469.2840    1.3226
  29  260.0000    1.5200
       30   320.0000     1.4100 
       31   268.0000     1.5290 
       32   320.0000     1.4100 
       33   469.2840     1.3226 
       34   553.0000     0.9450 
       35   340.0000     1.0900 
       36   340.0000     1.0900 
       37   340.0000     1.0900 
       38   340.0000     1.0900 

 Angle Coeffs

   1   30.0000   83.0000
   2   30.0000   83.0000
   3   37.5000  117.2000
   4   37.5000  117.2000
   5   37.5000  117.2000
   6   37.5000  117.2000
   7   37.5000  117.2000
   8   37.5000  110.7000
   9   37.5000  110.7000
  10   37.5000  110.7000
  11   37.5000  117.2000
  12   37.5000  110.7000
  13   37.5000  110.7000
  14   37.5000  110.7000
  15   37.5000  117.2000
  16   37.5000  110.7000
  17   50.0000  109.5000
  18   63.0000  111.1000
  19   35.0000  115.0000
  20   80.0000  120.4000
  21   63.0000  111.1000
  22   80.0000  120.4000
  23   70.0000  116.0000
  24   35.0000  109.5000
  25   35.0000  109.5000
  26   35.0000  109.5000
  27   85.0220  110.0400
  28   35.0000  114.3000
  29   35.0000  114.3000
  30   37.5000  117.2000
  31   50.0000  109.5000
  32   35.0000  114.3000
  33   30.0000   83.0000
  34   33.0000  107.8000
  35   33.0000  107.8000
  36   33.0000  107.8000
  37   30.0000   83.0000
  38   33.0000  107.8000
  39   35.0000  109.5000
  40   37.5000  117.2000
  41   33.0000  107.8000
  42   37.5000  117.2000
  43   33.0000  107.8000
  44   80.0000  120.4000
  45   35.0000  109.5000
  46   33.0000  107.8000
  47   37.5000  117.2000
  48   63.0000  111.1000
  49   33.0000  107.8000
  50   33.0000  107.8000
  51   37.5000  117.2000
  52   35.0000  109.5000
  53   37.5000  117.2000
  54   37.5000  117.2000
  55   35.0000  123.0000
       56     50.000    109.500
       57     50.000    109.500
       58     85.022    110.040
       59     55.000    108.500
       60     35.000    109.500
       61     35.000    109.500
       62     37.500    110.700
       63     37.500    110.700
       64     35.000    109.500
       65     33.000    107.800
       66     33.000    107.800
       67     37.500    110.700
       68     37.500    110.700
       69     35.000    109.500

 Dihedral Coeffs

   1    0.0000    0.0000    0.3000    0.0000
   2    0.0000    0.0000    0.3000    0.0000
   3    0.0000    0.0000    0.3000    0.0000
   4    0.0000    0.0000    0.2750    0.0000
   5    0.6500   -0.2500    0.6700    0.0000
   6   -2.0600   -0.3130    0.3150    0.0000
   7    0.0000    0.0000    0.3000    0.0000
   8    0.0000    0.0000    0.3000    0.0000
   9    0.0000    0.0000    0.2750    0.0000
  10    0.6500   -0.2500    0.6700    0.0000
  11    0.0000    0.0000    0.4680    0.0000
  12    0.0000    0.0000    0.3000    0.0000
  13    0.0000    0.0000    0.3600    0.0000
  14    0.0000    0.0000    0.3000    0.0000
  15    0.0000    0.0000    0.3000    0.0000
  16    0.0000    0.0000    0.3000    0.0000
  17    0.0000    0.0000    0.3000    0.0000
  18    0.0000    0.0000    0.3000    0.0000
  19    0.0000    0.0000    0.3000    0.0000
  20    0.0000    0.0000    0.3000    0.0000
  21   -2.0600   -0.3130    0.3150    0.0000
  22    0.0000    0.0000    0.2750    0.0000
  23    0.0000    0.0000    0.3000    0.0000
  24    0.0000    0.0000    0.4680    0.0000
  25    0.0000    0.0000    0.3000    0.0000
  26    0.0000    0.0000    0.2750    0.0000
  27    0.0000    0.0000    0.3000    0.0000
  28    0.0000    0.0000    0.3000    0.0000
  29    0.0000    0.0000    0.3000    0.0000
  30    0.0000    0.0000    0.7600    0.0000
  31    0.0000    0.0000    0.3000    0.0000
  32    0.0000    0.0000   -0.1000    0.0000
  33    0.0000    0.0000    0.3000    0.0000
  34    0.0000    0.0000    0.3000    0.0000
       35      4.319      0.000      0.000      0.000 
       36      0.650     -0.250      0.670      0.000 
       37     -0.356     -0.174      0.492      0.000 
       38      0.000      0.000      0.300      0.000 
       39      0.000      0.000      0.468      0.000 
       40      0.000      0.000      0.468      0.000 
       41      0.000      0.000      0.468      0.000 
       42      0.000      0.000      0.300      0.000 
       43      0.000      0.000      0.300      0.000 
       44      0.000      0.000      0.468      0.000 
       45      0.000      0.000      0.300      0.000 
       46      0.000      0.000      0.760      0.000 
       47      0.000      0.000      0.352      0.000 
       48      0.000      0.000      0.760      0.000 
       49      0.000      0.000      0.352      0.000 

 Improper Coeffs

   1   10.5000  -1   2
   2   10.5000  -1   2

 Atoms

   1  1  1    -0.0396    -1.3960    -0.4984     0.2050
   2  1  2    -0.2069    -0.7038    -0.5526     1.6557
   3  1  3    -0.1216    -0.0413    -1.0273    -0.4191
   4  1  4    -0.1689     0.4775    -1.3566     1.0242
   5  1  5     0.1277     1.4804    -0.9605     1.2604
   6  1  6     0.1277     0.4387    -2.4367     1.2534
   7  1  7     0.1259    -0.1694    -1.9027    -1.0864
   8  1  8     0.1297    -1.3229    -1.0883     2.4025
   9  1  9    -0.2308    -2.4856    -1.5799     0.1052
  10  1 10     0.0902    -3.3628    -1.3069     0.7300
  11  1 11     0.0902    -2.1049    -2.5648     0.4481
  12  1 12     0.0902    -2.8236    -1.6835    -0.9483
  13  1 13    -0.2280    -1.9415     0.8551    -0.2748
  14  1 14     0.0941    -2.8221     1.1491     0.3363
  15  1 15     0.0941    -2.2587     0.7803    -1.3345
  16  1 16     0.0941    -1.1826     1.6582    -0.2032
  17  1 17     0.0656     0.8412     0.0070    -1.1090
  18  1 18     0.1592     0.9980     0.9010    -0.4688
  19  1 19    -0.1540     0.1688     0.4599    -2.3549
  20  1 20     0.2649     2.2252    -0.5305    -1.5263
  21  1 21     0.1246     2.6620     0.0362    -2.3993
  22  1 22    -0.3720     2.7930    -1.4584    -0.9776
  23  1 23     0.3386    -0.3246     0.8272     2.1836
  24  1 24    -0.3955     0.6592     1.4444     1.7681
  25  1 25    -0.3052    -1.2768     1.4327     3.2096
  26  1 26     0.1169    -2.3110     1.4222     2.7997
  27  1 27     0.1169    -0.9720     2.4664     3.4598
  28  1 28     0.1169    -1.2926     0.8030     4.1267
  29  1 29    -0.1450     0.7885     1.5419    -2.8747
  30  2 30    -0.5837    59.3022    -2.0388     1.0087
  31  2 31     0.0072    59.2152    -0.6306     0.8316
  32  2 32     0.0702    60.2395    -0.1586    -0.1904
  33  2 33    -0.1540    60.1275     1.2552    -0.3433
  34  2 34    -0.1450    61.1333     1.6172    -1.3310
  35  2 35     0.4189    58.6307    -2.2831     1.6685
  36  2 36     0.0804    59.3844    -0.1404     1.7963
  37  2 37     0.0804    58.2021    -0.3761     0.5025
  38  2 38     0.1128    60.0648    -0.6511    -1.1542
  39  2 39     0.1128    61.2515    -0.4166     0.1432

 Bonds

           1           1           2           1
           2           2           3           1
           3           3           4           2
           4           4           5           4
           5           5           6           4
           6           6           7           3
           7           7           8           2
           8           8           9           1
           9           9          10           9
          10          10          11           9
          11          11          12           9
          12          12          13           1
          13          13          14          13
          14          14          15          13
          15          15          16          13
          16          16          17           3
          17          17          18          17
          18          18          19          17
          19          19          20          17
          20          20          21          20
          21          21          22          20
          22          22          23           2
          23          23          24          23
          24          24          25          23
          25          25          26          25
          26          26          27          25
          27          27          28          25
          28          28          29          19
          29          29           4           3
30  30  31  30
31  31  32  31
32  32  33  32
33  33  34  33
34  34  35  30
35  35  36  31
36  36  37  31
37  37  38  32
38  38  39  32

 Angles

           1           1           2           1           3
           2           2           1           2           4
           3           3           2           4           5
           4           4           2           4           6
           5           5           1           3           7
           6           6           1           2           8
           7           7           2           1           9
           8           8           1           9          10
           9           9           1           9          11
          10          10           1           9          12
          11          11           2           1          13
          12          12           1          13          14
          13          13           1          13          15
          14          14           1          13          16
          15          15           1           3          17
          16          16           3          17          18
          17          17           3          17          19
          18          18           3          17          20
          19          19          17          20          21
          20          20          17          20          22
          21          21           1           2          23
          22          22           2          23          24
          23          23           2          23          25
          24          24          23          25          26
          25          25          23          25          27
          26          26          23          25          28
          27          27          17          19          29
          28          28           9           1          13
          29          29           5           4           6
          30          30           4           2           8
          31          31          19          17          20
          32          32           7           3          17
          33          33           2           4           3
          34          34          15          13          16
          35          35          10           9          12
          36          36          11           9          12
          37          37           1           3           4
          38          38          26          25          27
          39          39          18          17          20
          40          40           4           3           7
          41          41          14          13          15
          42          42           3           1          13
          43          43          26          25          28
          44          44          24          23          25
          45          45          18          17          19
          46          46          27          25          28
          47          47           3           4           6
          48          48           4           2          23
          49          49          10           9          11
          50          50          14          13          16
          51          51           4           3          17
          52          52           8           2          23
          53          53           3           1           9
          54          54           3           4           5
          55          55          21          20          22
56  56  30  31 32
57  57  31  32 33
58  58  32  33 34
59  59  31  30 35
60  60  30  31 36
61  61  30  31 37
62  62  31  32 38
63  63  31  32 39
64  64  33  32 38
65  65  38  32 39
66  66  36  31 37
67  67  32  31 36
68  68  32  31 37
69  69  33  32 39

 Dihedrals

           1           1          10           9           1           2
           2           2          14          13           1           2
           3           3          18          17           3           1
           4           4          26          25          23           2
           5           5          29          19          17           3
           6           6          20          17           3           4
           7           7          14          13           1           9
           8           8          13           1           9          11
           9           9          28          25          23           2
          10          10          29          19          17          20
          11          11          21          20          17          19
          12          12          15          13           1           2
          13          13          21          20          17          18
          14          14          15          13           1           9
          15          15          14          13           1           3
          16          16          13           1           9          10
          17          17          11           9           1           2
          18          18          10           9           1           3
          19          19          16          13           1           2
          20          20          15          13           1           3
          21          21          20          17           3           1
          22          22          25          23           2           8
          23          23          16          13           1           9
          24          24          19          17           3           7
          25          25          18          17           3           4
          26          26          27          25          23           2
          27          27          12           9           1           3
          28          28          13           1           9          12
          29          29          16          13           1           3
          30          30          29          19          17          18
          31          31          18          17           3           7
          32          32          20          17           3           7
          33          33          12           9           1           2
          34          34          11           9           1           3
35  35  33  32  31  30
36  36  34  33  32  31
37  37  35  30  31  32
38  38  39  32  31  37
39  39  38  32  31  30
40  40  39  32  31  30
41  41  37  31  32  33
42  42  38  32  31  36
43  43  39  32  31  36
44  44  36  31  32  33
45  45  38  32  31  37
46  46  39  32  33  34
47  47  37  31  30  35
48  48  38  32  33  34
49  49  36  31  30  35

 Impropers

           1           1          20          17          21          22
           2           2          23          25           2          24
