LAMMPS data file via write_data, version 15 May 2015, timestep = 2000000

2611 atoms
6 atom types
1749 bonds
4 bond types
894 angles
3 angle types
44 dihedrals
3 dihedral types
10 impropers
1 improper types

-1.5041119988788440e+01 1.5041119988788440e+01 xlo xhi
-1.5041119988788440e+01 1.5041119988788440e+01 ylo yhi
-1.5041119988788440e+01 1.5041119988788440e+01 zlo zhi

Masses

1 15.9994
2 1.00794
3 12.0107
4 1.00794
5 12.0107
6 12.0107

Bond Coeffs # harmonic

1 1000 1
2 469 1.4
3 367 1.08
4 469 0.7

Angle Coeffs # harmonic

1 100 109.47
2 35 120
3 63 120

Dihedral Coeffs # opls

1 0 7.25 0 0
2 0 7.25 0 0
3 0 7.25 0 0

Improper Coeffs # cvff

1 2.5 -1 2

Atoms # full

311 104 2 4.0999999999999998e-01 -8.5109895493280820e+00 -8.9463030377205648e+00 -1.3139535209892518e+01 1 1 -1
312 104 2 4.0999999999999998e-01 -9.5966957393514463e+00 -1.0129744301725523e+01 -1.2844165972455794e+01 1 1 -1
310 104 1 -8.1999999999999995e-01 -8.6326373210576577e+00 -9.9317895896889112e+00 -1.3021283609243472e+01 1 1 -1
2144 715 2 4.0999999999999998e-01 -1.0506633514569094e+01 -1.2688279315681283e+01 -1.2885837424368720e+01 1 2 1
2182 728 1 -8.1999999999999995e-01 -8.3705249460142763e+00 -7.1388024687228100e+00 -1.4018026433006479e+01 1 -1 2
2143 715 1 -8.1999999999999995e-01 -1.0145594471199098e+01 -1.3008240058900689e+01 -1.3761760493394865e+01 1 2 1
472 158 1 -8.1999999999999995e-01 -1.4839487273579770e+01 -7.9665871346792692e+00 -1.1278935434628695e+01 -1 0 1
1873 625 1 -8.1999999999999995e-01 -9.1079902335558955e+00 -1.0708112351813952e+01 -8.0741264814927476e+00 -1 -1 1
795 265 2 4.0999999999999998e-01 -1.1935542272960397e+01 -8.3323585214767917e+00 -1.2391083701460527e+01 1 1 0
859 287 1 -8.1999999999999995e-01 -1.1684386940771551e+01 -1.3218231812590446e+01 -8.8143092931741727e+00 0 0 0
2227 743 1 -8.1999999999999995e-01 -1.1309849693969582e+01 -1.2583069523680077e+01 -1.1403217058948009e+01 0 2 2
2228 743 2 4.0999999999999998e-01 -1.1148941489999922e+01 -1.2850073714667070e+01 -1.0453068296217776e+01 0 2 2
2394 798 2 4.0999999999999998e-01 -1.2696459075733181e+01 -1.4798912634915506e+01 -1.4129877113216242e+01 1 0 1
1255 419 1 -8.1999999999999995e-01 -1.2627974527674102e+01 -8.7818907423453219e+00 -9.3435609870654055e+00 0 1 2
1455 485 2 4.0999999999999998e-01 -8.7031484165836002e+00 -7.0187541466639924e+00 -9.6976439223947750e+00 0 -2 2
1257 419 2 4.0999999999999998e-01 -1.2581805720873980e+01 -8.1440684098005622e+00 -8.5747850196131168e+00 0 1 2
1726 576 1 -8.1999999999999995e-01 -9.3771275342452931e+00 -6.2068215547579779e+00 -7.9249513826141227e+00 0 1 1
1728 576 2 4.0999999999999998e-01 -1.0137446492981905e+01 -6.8428398817470679e+00 -7.7931896737341892e+00 0 1 1
2458 820 1 -8.1999999999999995e-01 -1.3574170794405264e+01 -1.3566741167047288e+01 -1.3163567124351403e+01 0 1 1
964 322 1 -8.1999999999999995e-01 -1.1021013395828128e+01 -7.0625773088800008e+00 -1.1359107905104207e+01 0 1 2
2229 743 2 4.0999999999999998e-01 -1.2081446947463668e+01 -1.1948357469711668e+01 -1.1444973270119291e+01 0 2 2
860 287 2 4.0999999999999998e-01 -1.1510032821368128e+01 -1.3969215956517893e+01 -8.1774507555437026e+00 0 0 0
1256 419 2 4.0999999999999998e-01 -1.2124264640658408e+01 -8.4043840052615515e+00 -1.0120561872020449e+01 0 1 2
2184 728 2 4.0999999999999998e-01 -8.9676380324806786e+00 -6.3406719010710830e+00 -1.3937970754512307e+01 1 -1 2
2176 726 1 -8.1999999999999995e-01 -1.2809210991194327e+01 -5.2050788552736797e+00 -1.3648380897503273e+01 0 1 1
965 322 2 4.0999999999999998e-01 -1.0046760936590413e+01 -7.2806279760189909e+00 -1.1416129078669234e+01 0 1 2
2178 726 2 4.0999999999999998e-01 -1.2249930487431291e+01 -5.0971336811573966e+00 -1.2826481573302322e+01 0 1 1
2430 810 2 4.0999999999999998e-01 -1.4503533611731148e+01 -1.1184158752264963e+01 -1.1952586255823434e+01 2 0 2
793 265 1 -8.1999999999999995e-01 -1.2637545369141836e+01 -8.9771335443393703e+00 -1.2693444750716930e+01 1 1 0
966 322 2 4.0999999999999998e-01 -1.1147638581317366e+01 -6.0751345347070842e+00 -1.1453385106309327e+01 0 1 2
794 265 2 4.0999999999999998e-01 -1.3531081825352546e+01 -8.6783583527821690e+00 -1.2358345710185388e+01 1 1 0
2145 715 2 4.0999999999999998e-01 -1.0641523125173364e+01 -1.3828358941226288e+01 -1.4047111384131250e+01 1 2 1
1874 625 2 4.0999999999999998e-01 -1.0041824469185032e+01 -1.1029355857731531e+01 -8.2313574967069627e+00 -1 -1 1
164 55 2 4.0999999999999998e-01 -1.2986730094190447e+01 -1.0034593001821101e+01 -1.4666191933285926e+01 -2 -1 2
2429 810 2 4.0999999999999998e-01 -1.3084041946017972e+01 -1.0392626871727561e+01 -1.1794299235948252e+01 2 0 2
2428 810 1 -8.1999999999999995e-01 -1.3583012993543290e+01 -1.1228181214258818e+01 -1.1564424950590134e+01 2 0 2
1890 630 2 4.0999999999999998e-01 -7.8851035090916941e+00 -1.0168172114533743e+01 -1.4922252387073813e+01 1 -1 1
2459 820 2 4.0999999999999998e-01 -1.2957672714858898e+01 -1.3174908576842913e+01 -1.2480659587254944e+01 0 1 1
2183 728 2 4.0999999999999998e-01 -7.5368594567149128e+00 -6.8835857988594533e+00 -1.4507752554952859e+01 1 -1 2
474 158 2 4.0999999999999998e-01 -1.4185796262290225e+01 -8.1434458862969539e+00 -1.0543153979144430e+01 -1 0 1
1875 625 2 4.0999999999999998e-01 -8.4595760052606543e+00 -1.1384542972607218e+01 -8.4233627444109871e+00 -1 -1 1
2379 793 2 4.0999999999999998e-01 -8.4095237695184029e+00 -1.3392512147863233e+01 -1.4700360501495798e+01 0 2 1
1184 395 2 4.0999999999999998e-01 -1.3144372932964327e+01 -1.0384539066605496e+01 -8.3066695278257860e+00 1 2 0
468 156 2 4.0999999999999998e-01 -1.4871962527033013e+01 -1.2100095812817701e+01 -1.0614589972036981e+01 0 0 -1
861 287 2 4.0999999999999998e-01 -1.2345522283474100e+01 -1.2585730344856273e+01 -8.4108154100566566e+00 0 0 0
1625 542 2 4.0999999999999998e-01 -1.3742692315088695e+01 -6.4379313304893628e+00 -1.4844053969776850e+01 2 1 1
1453 485 1 -8.1999999999999995e-01 -8.4341433681455946e+00 -7.2526056099558582e+00 -1.0631943184718320e+01 0 -2 2
1454 485 2 4.0999999999999998e-01 -7.7392226626656493e+00 -6.6077165457179312e+00 -1.0950013395573713e+01 0 -2 2
2460 820 2 4.0999999999999998e-01 -1.4416471264783761e+01 -1.3028983522141857e+01 -1.3199788775631047e+01 0 1 1
1446 482 2 4.0999999999999998e-01 -8.0772172307470029e+00 -1.3585504830360122e+01 -1.2185033462576499e+01 1 -1 -1
696 232 2 4.0999999999999998e-01 -7.7877582399259220e+00 -1.3222311757792674e+01 -9.8854156139415679e+00 -1 0 0
694 232 1 -8.1999999999999995e-01 -7.5845349137971150e+00 -1.2742728929358353e+01 -9.0317962790282422e+00 -1 0 0
1183 395 1 -8.1999999999999995e-01 -1.3046332624002956e+01 -1.1154862447953601e+01 -7.6766255936541619e+00 1 2 0
84 28 2 4.0999999999999998e-01 -4.4805902325387859e+00 -1.4498841376140552e+01 -1.0890233603166786e+01 -1 0 0
2326 776 1 -8.1999999999999995e-01 -6.6540743698595701e+00 -5.1783590342859220e+00 -1.0851187720537943e+01 1 0 -1
2155 719 1 -8.1999999999999995e-01 -3.6687580644723923e+00 -5.4887323639135737e+00 -1.0207838911575614e+01 1 -1 2
748 250 1 -8.1999999999999995e-01 -7.3882440107441916e-01 -6.5784060541388705e+00 -8.8866381392314473e+00 -1 0 0
2016 672 2 4.0999999999999998e-01 -5.7744346627797061e+00 -6.1251469999090400e+00 -1.4815137247776434e+01 0 2 0
82 28 1 -8.1999999999999995e-01 -4.7246569339003450e+00 -1.3815614349386237e+01 -1.1578417922260263e+01 -1 0 0
222 74 2 4.0999999999999998e-01 -4.4670939254308131e+00 -5.2901125648210243e+00 -1.3178576265273591e+01 1 0 -2
2327 776 2 4.0999999999999998e-01 -5.8681545218694726e+00 -5.2046007149589535e+00 -1.0233444462964441e+01 1 0 -1
2405 802 2 4.0999999999999998e-01 -4.8185715977298056e+00 -1.4330178634335599e+01 -1.3202174530700407e+01 -1 0 1
2406 802 2 4.0999999999999998e-01 -5.6529567996335217e+00 -1.3956606694637463e+01 -1.4555237528087819e+01 -1 0 1
749 250 2 4.0999999999999998e-01 -5.9861123067563327e-01 -7.5026753025799415e+00 -9.2416479919030756e+00 -1 0 0
1086 362 2 4.0999999999999998e-01 -1.4991126405240109e+00 -1.2715962392084410e+01 -1.4415741947084236e+01 1 1 0
1688 563 2 4.0999999999999998e-01 -6.9321972720970848e-02 -1.0881926602406963e+01 -1.3141801216456777e+01 0 -1 0
2157 719 2 4.0999999999999998e-01 -3.4131336253171138e+00 -5.0609744216161641e+00 -1.1074813343738342e+01 1 -1 2
695 232 2 4.0999999999999998e-01 -7.3455553364942698e+00 -1.3407979753419461e+01 -8.3244805962579509e+00 -1 0 0
340 114 1 -8.1999999999999995e-01 -1.6160685289438597e+00 -1.4546015619354504e+01 -8.9618244343828177e+00 -1 0 2
422 141 2 4.0999999999999998e-01 -7.2287875317237136e+00 -1.0754680322591593e+01 -1.2321915191777618e+01 -1 0 1
597 199 2 4.0999999999999998e-01 -2.4110661780602669e+00 -1.1473639841662404e+01 -1.0058936301452528e+01 0 2 1
478 160 1 -8.1999999999999995e-01 -5.4795018686975325e+00 -1.1066137623175660e+01 -9.2391699338901496e+00 0 1 0
2063 688 2 4.0999999999999998e-01 -5.0053043133886046e+00 -1.1083477445624423e+01 -1.3221571981317719e+01 0 1 0
342 114 2 4.0999999999999998e-01 -2.0449533304968774e+00 -1.3864441159317041e+01 -8.3689673972252177e+00 -1 0 2
2113 705 1 -8.1999999999999995e-01 -5.8267801624219651e-01 -7.7066990620034375e+00 -1.4932725700709351e+01 1 1 1
651 217 2 4.0999999999999998e-01 -1.7954197596851316e+00 -1.0082196182507438e+01 -7.9822272786527639e+00 0 0 2
750 250 2 4.0999999999999998e-01 -1.6855804526888836e+00 -6.4790190237521212e+00 -8.5804673174064199e+00 -1 0 0
2404 802 1 -8.1999999999999995e-01 -4.9178554249918758e+00 -1.4520456528598386e+01 -1.4178853826980699e+01 -1 0 1
957 319 2 4.0999999999999998e-01 -7.3752530339976952e+00 -8.2943541081934313e+00 -9.4657809140066362e+00 -2 0 0
1710 570 2 4.0999999999999998e-01 -2.0089529403014357e+00 -1.3973079078455283e+01 -1.1068416138768239e+01 -1 2 1
1464 488 2 4.0999999999999998e-01 -4.5784252326025214e+00 -8.7818281821272706e+00 -9.7183871043291123e+00 2 1 0
2124 708 2 4.0999999999999998e-01 -3.0309122034056699e+00 -8.3442666765422402e+00 -1.2054062200600594e+01 1 0 0
2122 708 1 -8.1999999999999995e-01 -3.0751329834717271e+00 -8.6555115451870925e+00 -1.3003344300791124e+01 1 0 0
220 74 1 -8.1999999999999995e-01 -5.4542693435810783e+00 -5.3680321805746249e+00 -1.3317783169764969e+01 1 0 -2
650 217 2 4.0999999999999998e-01 -7.3536513307020357e-01 -9.9882904126185927e+00 -9.2207748353873065e+00 0 0 2
595 199 1 -8.1999999999999995e-01 -3.1709609290230087e+00 -1.2089318096770741e+01 -1.0267420417227374e+01 0 2 1
1444 482 1 -8.1999999999999995e-01 -7.4783416942053158e+00 -1.4030820620261352e+01 -1.1519445554496603e+01 1 -1 -1
2156 719 2 4.0999999999999998e-01 -3.2799647370661749e+00 -6.4089361760502932e+00 -1.0162783036802622e+01 1 -1 2
987 329 2 4.0999999999999998e-01 -4.1260059070834174e+00 -6.9097226951718991e+00 -7.7583654048029826e+00 -1 0 0
1462 488 1 -8.1999999999999995e-01 -3.6830994034769429e+00 -8.6442381380310493e+00 -1.0141974160184853e+01 2 1 0
221 74 2 4.0999999999999998e-01 -5.9148343889346169e+00 -5.3955561482040704e+00 -1.2430603633520697e+01 1 0 -2
596 199 2 4.0999999999999998e-01 -4.0207195249065020e+00 -1.1703501485172765e+01 -9.9082251184359151e+00 0 2 1
1445 482 2 4.0999999999999998e-01 -6.5601730529310505e+00 -1.3639844525889945e+01 -1.1583237592575383e+01 1 -1 -1
83 28 2 4.0999999999999998e-01 -4.1351210482047378e+00 -1.3014369089568355e+01 -1.1476345499840718e+01 -1 0 0
1085 362 2 4.0999999999999998e-01 -2.5574916177506370e+00 -1.1528032158969658e+01 -1.4048060216830825e+01 1 1 0
1709 570 2 4.0999999999999998e-01 -1.6281613963014756e+00 -1.3186786240348230e+01 -1.2448008650069486e+01 -1 2 1
649 217 1 -8.1999999999999995e-01 -1.6954040059776396e+00 -1.0124390014512395e+01 -8.9763006620660377e+00 0 0 2
421 141 1 -8.1999999999999995e-01 -6.3149360898584206e+00 -1.1093238236167368e+01 -1.2097818266625955e+01 -1 0 1
1463 488 2 4.0999999999999998e-01 -3.0038358136416221e+00 -9.2125792656988015e+00 -9.6776954474342833e+00 2 1 0
480 160 2 4.0999999999999998e-01 -6.3587697893560726e+00 -1.1529984731508019e+01 -9.3473326681074909e+00 0 1 0
2062 688 1 -8.1999999999999995e-01 -4.2161553899078843e+00 -1.0894046046989095e+01 -1.3805802320790047e+01 0 1 0
479 160 2 4.0999999999999998e-01 -5.6249098103658959e+00 -1.0169407454631624e+01 -8.8212023217949440e+00 0 1 0
2064 688 2 4.0999999999999998e-01 -3.7513947377169075e+00 -1.0070198171354807e+01 -1.3481398905259686e+01 0 1 0
956 319 2 4.0999999999999998e-01 -7.0700217430446557e+00 -8.3798290391848944e+00 -7.8638876850240775e+00 -2 0 0
1708 570 1 -8.1999999999999995e-01 -1.3776675540944474e+00 -1.3942836225255707e+01 -1.1843354503811977e+01 -1 2 1
955 319 1 -8.1999999999999995e-01 -6.7598046596998209e+00 -8.6656350346682540e+00 -8.7705549936267992e+00 -2 0 0
2123 708 2 4.0999999999999998e-01 -2.2945169303670419e+00 -8.2903413205053340e+00 -1.3510547065715617e+01 1 0 0
1933 645 1 -8.1999999999999995e-01 -3.6085157962664667e+00 -1.3190724947909079e+01 -7.5283099582810218e+00 1 -1 2
423 141 2 4.0999999999999998e-01 -5.9453798914552394e+00 -1.0571329341947862e+01 -1.1329050016238181e+01 -1 0 1
1935 645 2 4.0999999999999998e-01 -4.0358651717348106e+00 -1.2674206492649237e+01 -8.2702981958241377e+00 1 -1 2
1084 362 1 -8.1999999999999995e-01 -1.6569543644889020e+00 -1.1911463872498137e+01 -1.3843174480506624e+01 1 1 0
1125 375 2 4.0999999999999998e-01 -1.2868512702340830e+01 -1.4338049936543859e+01 -1.9061870971188775e+00 2 1 2
2225 742 2 4.0999999999999998e-01 -1.2898027442568829e+01 -6.2759028555437357e+00 -3.4176705188209944e+00 0 0 0
2224 742 1 -8.1999999999999995e-01 -1.2583116866230588e+01 -7.1721268809158607e+00 -3.7300472003562319e+00 0 0 0
2226 742 2 4.0999999999999998e-01 -1.2913707062431110e+01 -7.8783770701505116e+00 -3.1040390727658558e+00 0 0 0
414 138 2 4.0999999999999998e-01 -1.0901082619286957e+01 -8.0736309025102884e+00 -4.0250821803257004e+00 1 0 1
736 246 1 -8.1999999999999995e-01 -1.1751600283359283e+01 -1.1880086152274300e+01 -5.3853507807835665e+00 0 1 2
913 305 1 -8.1999999999999995e-01 -8.2399513021323969e+00 -1.4310201585398733e+01 -6.3861808335309842e+00 0 1 2
914 305 2 4.0999999999999998e-01 -8.3122217091659198e+00 -1.3700561620576922e+01 -5.5968257365724021e+00 0 1 2
1031 344 2 4.0999999999999998e-01 -1.0135497252462116e+01 -1.0120447368851167e+01 -7.1533468007790191e-01 0 0 1
1124 375 2 4.0999999999999998e-01 -1.4191898630599711e+01 -1.4550373039721180e+01 -2.8389800720357314e+00 2 1 2
1030 344 1 -8.1999999999999995e-01 -9.9834119495309217e+00 -1.0914483851973067e+01 -1.3038425371827582e+00 0 0 1
738 246 2 4.0999999999999998e-01 -1.2583920378205546e+01 -1.1847785492305995e+01 -4.8320287680133021e+00 0 1 2
737 246 2 4.0999999999999998e-01 -1.1988035729831140e+01 -1.1764692737393039e+01 -6.3501035953815794e+00 0 1 2
412 138 1 -8.1999999999999995e-01 -9.9654117043144872e+00 -8.3854507147955886e+00 -3.8599951777937083e+00 1 0 1
1032 344 2 4.0999999999999998e-01 -9.1044599191120312e+00 -1.0819528386555520e+01 -1.7711670008984441e+00 0 0 1
767 256 2 4.0999999999999998e-01 -1.0245836729063296e+01 -1.2248273825342922e+01 -4.6632024631594149e+00 -1 2 0
766 256 1 -8.1999999999999995e-01 -9.3998675027614027e+00 -1.2577869103071777e+01 -4.2440743151510656e+00 -1 2 0
768 256 2 4.0999999999999998e-01 -8.7689179785248399e+00 -1.1812034245821943e+01 -4.1201185419182789e+00 -1 2 0
2070 690 2 4.0999999999999998e-01 -7.7865036180707659e+00 -1.3832567854580999e+01 -2.2178842713627507e+00 0 1 0
413 138 2 4.0999999999999998e-01 -9.9861799440786339e+00 -9.2657350120190038e+00 -3.3860399116865736e+00 1 0 1
698 233 2 4.0999999999999998e-01 -1.2205525380360143e+01 -7.7650808862811536e+00 -6.4974545437750759e+00 0 -1 -1
144 48 2 4.0999999999999998e-01 -9.0836865092791577e+00 -7.0664717532045271e+00 -4.7584527512615917e+00 1 0 0
12 4 2 4.0999999999999998e-01 -1.4143474863614879e+01 -1.2359490765925178e+01 -3.1529794077653364e+00 -1 1 0
2068 690 1 -8.1999999999999995e-01 -7.8592028407278072e+00 -1.4423992863047804e+01 -3.0209388400813566e+00 0 1 0
265 89 1 -8.1999999999999995e-01 -1.3459405679252518e+01 -9.4380428711038071e+00 -2.2128980154655036e+00 0 -1 -1
10 4 1 -8.1999999999999995e-01 -1.3314666860616009e+01 -1.1806793859283317e+01 -3.0659806186216159e+00 -1 1 0
11 4 2 4.0999999999999998e-01 -1.2650089970269676e+01 -1.2290033797858161e+01 -2.4960840964047115e+00 -1 1 0
1727 576 2 4.0999999999999998e-01 -8.8563029647741551e+00 -6.1292745528372414e+00 -7.0748375659326266e+00 0 1 1
894 298 2 4.0999999999999998e-01 -1.0786299234099538e+01 -1.4687650882366885e+01 -1.3822118574906010e+00 -1 -1 1
96 32 2 4.0999999999999998e-01 -1.1419341117501272e+01 -7.6248683109113573e+00 -4.1235493782587618e-01 -1 1 0
345 115 2 4.0999999999999998e-01 -8.6759173805789018e+00 -8.8030392691996777e+00 -5.4613233078684420e+00 0 2 1
266 89 2 4.0999999999999998e-01 -1.3311144362041201e+01 -1.0382900931287256e+01 -2.5048350450967423e+00 0 -1 -1
2505 835 2 4.0999999999999998e-01 -1.0964698229949411e+01 -1.2497220412704216e+01 -1.3674468000596658e+00 1 0 1
2050 684 1 -8.1999999999999995e-01 -1.4040799323157364e+01 -7.5413297603261018e+00 -6.6069283404573707e+00 1 1 0
267 89 2 4.0999999999999998e-01 -1.4283884961731632e+01 -9.3888363896254674e+00 -1.6491799977184680e+00 0 -1 -1
2104 702 1 -8.1999999999999995e-01 -1.0239621503226971e+01 -5.7081225690434394e+00 -1.9984972431283445e+00 0 1 1
1185 395 2 4.0999999999999998e-01 -1.3803099310707680e+01 -1.1149250365333701e+01 -7.0229910830469606e+00 1 2 0
2503 835 1 -8.1999999999999995e-01 -1.1608109014554774e+01 -1.3223042607954797e+01 -1.1241977396591167e+00 1 0 1
1396 466 1 -8.1999999999999995e-01 -1.2322191795931252e+01 -5.1848751869872114e+00 -3.2230630118300851e-02 1 1 0
94 32 1 -8.1999999999999995e-01 -1.0709379292531558e+01 -8.2347829872822196e+00 -6.0327038735360716e-02 -1 1 0
343 115 1 -8.1999999999999995e-01 -8.1261875396179484e+00 -9.0400299252425640e+00 -6.2623213704861520e+00 0 2 1
699 233 2 4.0999999999999998e-01 -1.1161803874308987e+01 -8.8987418104644220e+00 -7.0378177955528809e+00 0 -1 -1
2069 690 2 4.0999999999999998e-01 -8.4426444390098343e+00 -1.3986646346025601e+01 -3.7052554993713738e+00 0 1 0
2051 684 2 4.0999999999999998e-01 -1.4569934175366066e+01 -8.1239509280503306e+00 -5.9900537676233956e+00 1 1 0
2106 702 2 4.0999999999999998e-01 -1.0753925626962184e+01 -5.7133393456822610e+00 -1.1409254300138798e+00 0 1 1
227 76 2 4.0999999999999998e-01 -8.0569709405342440e+00 -7.8002350401715113e+00 -7.8231751116953419e-01 0 1 -1
1808 603 2 4.0999999999999998e-01 -8.3675459043516938e+00 -5.9916131932353114e+00 -2.5346266316594530e+00 0 -2 1
142 48 1 -8.1999999999999995e-01 -8.5135750154852214e+00 -6.3401399462975778e+00 -5.1423542433706881e+00 1 0 0
1632 544 2 4.0999999999999998e-01 -1.1918587320019354e+01 -5.7129219777195885e+00 -5.5803926713733922e+00 -2 1 0
757 253 1 -8.1999999999999995e-01 -7.6306612178780160e+00 -1.2864957778825863e+01 -4.5170364503417737e-01 -1 -1 0
824 275 2 4.0999999999999998e-01 -1.4413051847305130e+01 -1.1994655085552575e+01 -9.3772654170810199e-01 -3 0 -1
671 224 2 4.0999999999999998e-01 -1.4793544018434369e+01 -5.0510554413202389e+00 -4.9112571046969151e+00 1 0 2
1123 375 1 -8.1999999999999995e-01 -1.3396246755231843e+01 -1.5002256398876245e+01 -2.4356131248436270e+00 2 1 2
143 48 2 4.0999999999999998e-01 -8.9457901876918733e+00 -5.4539210996394196e+00 -4.9757063591544508e+00 1 0 0
697 233 1 -8.1999999999999995e-01 -1.1299572439346576e+01 -7.9191216151453068e+00 -6.8917718089626394e+00 0 -1 -1
2052 684 2 4.0999999999999998e-01 -1.4452772000333100e+01 -6.6307756170734127e+00 -6.6406186303479871e+00 1 1 0
2105 702 2 4.0999999999999998e-01 -1.0560255222558879e+01 -6.4526863696195811e+00 -2.5839749358208088e+00 0 1 1
2504 835 2 4.0999999999999998e-01 -1.1687563443074776e+01 -1.3278257648712353e+01 -1.2890698032565595e-01 1 0 1
759 253 2 4.0999999999999998e-01 -8.4121048967479553e+00 -1.3345292979593435e+01 -5.3471032747228975e-02 -1 -1 0
344 115 2 4.0999999999999998e-01 -8.6267027325798900e+00 -9.6953090984504904e+00 -6.8280590595639552e+00 0 2 1
123 41 2 4.0999999999999998e-01 -6.8549548714485553e+00 -9.9906566401103039e+00 -3.9579432720152337e+00 1 0 1
121 41 1 -8.1999999999999995e-01 -7.4438216424983983e+00 -1.0250104361233458e+01 -3.1925099508341308e+00 1 0 1
1934 645 2 4.0999999999999998e-01 -4.3052669500136656e+00 -1.3725054711291742e+01 -7.0497758535012691e+00 1 -1 2
986 329 2 4.0999999999999998e-01 -3.3645618338343226e+00 -5.8279166513137479e+00 -6.8010604933822574e+00 -1 0 0
1668 556 2 4.0999999999999998e-01 -7.2800973463834140e-01 -8.4884096726268119e+00 -4.9862823349172203e+00 -2 2 1
122 41 2 4.0999999999999998e-01 -6.8782345154545705e+00 -1.0531139034583635e+01 -2.4172061479247802e+00 1 0 1
484 162 1 -8.1999999999999995e-01 -5.3276300995907153e+00 -1.4696002064688674e+01 -5.8469722876070591e+00 0 0 0
2520 840 2 4.0999999999999998e-01 -1.7851515945882497e+00 -1.0906968736687666e+01 -5.7357535579685877e+00 0 2 1
1807 603 1 -8.1999999999999995e-01 -7.3848149576382198e+00 -5.8160294749143180e+00 -2.5927266329424530e+00 0 -2 1
1809 603 2 4.0999999999999998e-01 -7.0910477454701919e+00 -5.8776095742683871e+00 -3.5465998324980621e+00 0 -2 1
322 108 1 -8.1999999999999995e-01 -4.8944341261711983e+00 -8.5424411933331683e+00 -2.0223617955442794e+00 0 0 1
2295 765 2 4.0999999999999998e-01 -1.0499867074479656e+00 -6.3378111853101817e+00 -3.6962958094001568e+00 0 -1 0
904 302 1 -8.1999999999999995e-01 -3.4359077998584553e-01 -1.4603132252476858e+01 -2.1111003832386341e+00 -1 0 1
2518 840 1 -8.1999999999999995e-01 -1.7603367904900100e+00 -1.1895802077003337e+01 -5.5889266280648133e+00 0 2 1
2519 840 2 4.0999999999999998e-01 -2.4145886366724252e+00 -1.2340150482322930e+01 -6.2008697086635625e+00 0 2 1
323 108 2 4.0999999999999998e-01 -4.0953138829120181e+00 -7.9545677570507163e+00 -1.8967550232025836e+00 0 0 1
2293 765 1 -8.1999999999999995e-01 -1.5457032891435993e+00 -5.5306467338130094e+00 -3.3758024537536535e+00 0 -1 0
2008 670 1 -8.1999999999999995e-01 -3.8835167899952925e+00 -1.2719958609657192e+01 -3.5739242920973808e+00 0 1 2
906 302 2 4.0999999999999998e-01 -5.4438561229026483e-01 -1.3966143633487007e+01 -2.8553398030476327e+00 -1 0 1
996 332 2 4.0999999999999998e-01 -2.4355537825895777e+00 -8.5299138466874673e+00 -6.5785483092613273e+00 -1 0 0
2275 759 1 -8.1999999999999995e-01 -3.3784093301059883e+00 -1.0851328521888002e+01 -1.5097182075251840e+00 1 0 1
995 332 2 4.0999999999999998e-01 -3.1331375690923995e+00 -9.5175675305966081e+00 -5.4810734267301253e+00 -1 0 0
1666 556 1 -8.1999999999999995e-01 -1.5479724552211138e-01 -7.8155197634564644e+00 -4.5187227402196957e+00 -2 2 1
1373 458 2 4.0999999999999998e-01 -5.6214695812220015e+00 -1.4079701263003731e+01 -5.5036260519835878e-01 0 0 1
1916 639 2 4.0999999999999998e-01 -1.3177152403337029e+00 -8.1234364034659841e+00 -1.0823924424416020e+00 -1 1 0
1984 662 1 -8.1999999999999995e-01 -5.8572054291782809e+00 -7.2819777176332936e+00 -6.3056411882566721e+00 0 0 -1
994 332 1 -8.1999999999999995e-01 -2.3979247371022865e+00 -9.4344065812844828e+00 -6.1537633088822599e+00 -1 0 0
1985 662 2 4.0999999999999998e-01 -5.8810078665816583e+00 -6.4452292656887540e+00 -6.8526794116188388e+00 0 0 -1
2010 670 2 4.0999999999999998e-01 -4.1983907671903022e+00 -1.3584901355210757e+01 -3.9646848042289307e+00 0 1 2
1372 458 1 -8.1999999999999995e-01 -4.9871929584850196e+00 -1.4494454310890719e+01 -1.2027723193293447e+00 0 0 1
1986 662 2 4.0999999999999998e-01 -6.7906823902098985e+00 -7.6048039743411380e+00 -6.1495344372610479e+00 0 0 -1
639 213 2 4.0999999999999998e-01 -3.9170499467701880e-01 -1.2857462317967562e+01 -5.0220445515707723e+00 -1 0 1
2533 845 1 -8.1999999999999995e-01 -2.8612995269857748e+00 -6.8789174782485496e+00 -1.3255884445972832e+00 -1 2 -1
2277 759 2 4.0999999999999998e-01 -3.4939181313141141e+00 -1.1664349303583492e+01 -2.0803496931203345e+00 1 0 1
2009 670 2 4.0999999999999998e-01 -3.1728424007306124e+00 -1.2329078715158058e+01 -4.1588347098797840e+00 0 1 2
1917 639 2 4.0999999999999998e-01 -1.8013111354868911e+00 -9.6821837528758650e+00 -1.0278413956285917e+00 -1 1 0
324 108 2 4.0999999999999998e-01 -5.6468900706120770e+00 -8.2077572419903859e+00 -1.4551210355893360e+00 0 0 1
226 76 1 -8.1999999999999995e-01 -7.2329126232892076e+00 -8.0242454431066790e+00 -2.6201703887249828e-01 0 1 -1
2310 770 2 4.0999999999999998e-01 -4.8046779593734232e+00 -9.0027044758135979e+00 -3.7767872829844791e+00 1 0 0
2308 770 1 -8.1999999999999995e-01 -4.5573190694672512e+00 -8.9638321269410959e+00 -4.7449132497688922e+00 1 0 0
2309 770 2 4.0999999999999998e-01 -4.8769595274111612e+00 -8.1008815424001668e+00 -5.1362080876599148e+00 1 0 0
1915 639 1 -8.1999999999999995e-01 -1.0291286428184243e+00 -9.0726866594311879e+00 -1.2073207926232605e+00 -1 1 0
486 162 2 4.0999999999999998e-01 -6.3138625980344898e+00 -1.4597870191719446e+01 -5.9799420640878171e+00 0 0 0
1374 458 2 4.0999999999999998e-01 -4.7271461056229729e+00 -1.3817429123866329e+01 -1.8912328178248163e+00 0 0 1
2276 759 2 4.0999999999999998e-01 -3.6292272457235981e+00 -1.0037668689829538e+01 -2.0341354361833410e+00 1 0 1
2534 845 2 4.0999999999999998e-01 -2.4769242060241012e+00 -6.0560223313753596e+00 -1.7439956055857095e+00 -1 2 -1
985 329 1 -8.1999999999999995e-01 -3.2350419614981831e+00 -6.5871063498041096e+00 -7.4388856703510724e+00 -1 0 0
2535 845 2 4.0999999999999998e-01 -3.3300343372831573e+00 -6.6335513478095471e+00 -4.7703172494224155e-01 -1 2 -1
2550 850 2 4.0999999999999998e-01 -7.3216717465540855e+00 -5.0527989748763833e+00 -9.8760180764149297e-01 -1 1 0
1946 649 2 4.0999999999999998e-01 -3.2651161555814436e+00 -1.5006190487066474e+01 -3.6049907445603857e-01 0 0 0
228 76 2 4.0999999999999998e-01 -6.7593347968913537e+00 -7.1808320687635874e+00 -8.3572305447621176e-03 0 1 -1
888 296 2 4.0999999999999998e-01 -1.3108000158803179e+01 -6.5507802672970818e+00 3.0691061467513325e+00 1 0 0
1997 666 2 4.0999999999999998e-01 -9.9661330743217054e+00 -7.7579831397010892e+00 6.8130355142757022e+00 0 -1 0
1996 666 1 -8.1999999999999995e-01 -1.0422449473434877e+01 -8.4284014496302184e+00 6.2279885205313743e+00 0 -1 0
845 282 2 4.0999999999999998e-01 -1.0271539433359060e+01 -8.2833190230149985e+00 3.4591577118990546e+00 -1 2 1
1998 666 2 4.0999999999999998e-01 -1.0190104423195685e+01 -9.3513809688119736e+00 6.5347293861657914e+00 0 -1 0
844 282 1 -8.1999999999999995e-01 -1.0408773618004140e+01 -8.9137344057065402e+00 2.6951494690192614e+00 -1 2 1
846 282 2 4.0999999999999998e-01 -9.9195985015403796e+00 -9.7671153520041827e+00 2.8751883894197636e+00 -1 2 1
871 291 1 -8.1999999999999995e-01 -1.2290503250969959e+01 -1.2864641127513117e+01 4.1421359454442932e+00 1 3 -2
873 291 2 4.0999999999999998e-01 -1.2636612513325623e+01 -1.2269168685870783e+01 4.8671092376178269e+00 1 3 -2
1732 578 1 -8.1999999999999995e-01 -8.6709921594769579e+00 -1.3717302179629598e+01 3.4810541756073814e+00 2 -1 1
1734 578 2 4.0999999999999998e-01 -9.3205108189187484e+00 -1.4044014681427917e+01 4.1676033789313376e+00 2 -1 1
959 320 2 4.0999999999999998e-01 -1.3544011543277650e+01 -1.0320937694884920e+01 1.5089155260482254e+00 0 0 -2
572 191 2 4.0999999999999998e-01 -1.0533463350594950e+01 -1.4595171669323141e+01 6.5637167301069095e+00 -3 0 2
1231 411 1 -8.1999999999999995e-01 -1.4088043108969664e+01 -6.7433714078164808e+00 5.9009907089683065e+00 0 1 -1
2523 841 2 4.0999999999999998e-01 -1.0926628204076373e+01 -5.8778185845711892e+00 4.3133203419793755e+00 0 -1 1
886 296 1 -8.1999999999999995e-01 -1.2937039467237357e+01 -6.8300999463789225e+00 2.1242684245955541e+00 1 0 0
1733 578 2 4.0999999999999998e-01 -7.7471123154072314e+00 -1.4005906853010679e+01 3.7322885551122500e+00 2 -1 1
887 296 2 4.0999999999999998e-01 -1.3301658650313232e+01 -7.7495750760725572e+00 1.9773545546547009e+00 1 0 0
2479 827 1 -8.1999999999999995e-01 -9.5033901216253156e+00 -1.4219052508106788e+01 1.0226508468857443e+00 0 1 0
2313 771 2 4.0999999999999998e-01 -1.3021512375516977e+01 -1.4328453816375191e+01 1.5182923948813123e+00 0 -1 -1
95 32 2 4.0999999999999998e-01 -1.0571374653145483e+01 -8.0581363863757378e+00 9.1420669271951027e-01 -1 1 0
960 320 2 4.0999999999999998e-01 -1.2215556423993782e+01 -9.4594005620204964e+00 1.9082836448238769e+00 0 0 -2
571 191 1 -8.1999999999999995e-01 -1.0542426668752976e+01 -1.4529693248375267e+01 5.5659203565344217e+00 -3 0 2
9 3 2 4.0999999999999998e-01 -8.0212512738442605e+00 -6.8347077358339998e+00 3.3036498240655749e+00 -1 0 0
958 320 1 -8.1999999999999995e-01 -1.3215525344997001e+01 -9.4645357286169123e+00 1.9072092095824527e+00 0 0 -2
7 3 1 -8.1999999999999995e-01 -8.5487341910558019e+00 -6.0846491805318266e+00 3.7025724689428738e+00 -1 0 0
2311 771 1 -8.1999999999999995e-01 -1.2576787595560582e+01 -1.3432806129083708e+01 1.5175976225490135e+00 0 -1 -1
872 291 2 4.0999999999999998e-01 -1.1519671013854760e+01 -1.3398828497335749e+01 4.4891616701448012e+00 1 3 -2
2312 771 2 4.0999999999999998e-01 -1.2421760460656182e+01 -1.3136917332142760e+01 2.4601377037644685e+00 0 -1 -1
1759 587 1 -8.1999999999999995e-01 -8.4585315693734415e+00 -1.1064630137655143e+01 3.2749611389786235e+00 0 0 0
1761 587 2 4.0999999999999998e-01 -7.9477107246237848e+00 -1.1091854063742941e+01 2.4157252772596376e+00 0 0 0
1760 587 2 4.0999999999999998e-01 -8.8312455452827230e+00 -1.1971822671124285e+01 3.4700286083628473e+00 0 0 0
1233 411 2 4.0999999999999998e-01 -1.3254203958373234e+01 -6.8607202307260433e+00 5.3616328646678770e+00 0 1 -1
2481 827 2 4.0999999999999998e-01 -9.3695895105087175e+00 -1.3842235403988866e+01 1.9392050619845644e+00 0 1 0
2521 841 1 -8.1999999999999995e-01 -1.1646425760518788e+01 -6.4878936467266204e+00 4.6444777499761205e+00 0 -1 1
419 140 2 4.0999999999999998e-01 -1.4389358906861670e+01 -9.7691096097967147e+00 3.3366570056738762e+00 0 1 -1
825 275 2 4.0999999999999998e-01 -1.3912214587989832e+01 -1.2430707428061362e+01 5.5410267012158698e-01 -3 0 -1
346 116 1 -8.1999999999999995e-01 -1.4298472033924497e+01 -1.1511103582006022e+01 5.8831363233028551e+00 0 1 1
1398 466 2 4.0999999999999998e-01 -1.2451392170250248e+01 -5.8112716798274739e+00 7.3646960564763120e-01 1 1 0