LAMMPS data file via write_data, version 15 May 2015, timestep = 4999000

2611 atoms
6 atom types
1749 bonds
4 bond types
894 angles
3 angle types
44 dihedrals
3 dihedral types
10 impropers
1 improper types

-1.5145600709193225e+01 1.5145600709193225e+01 xlo xhi
-1.5145600709193225e+01 1.5145600709193225e+01 ylo yhi
-1.5145600709193225e+01 1.5145600709193225e+01 zlo zhi

Masses

1 15.9994
2 1.00794
3 12.0107
4 1.00794
5 12.0107
6 12.0107

Bond Coeffs # harmonic

1 1000 1
2 469 1.4
3 367 1.08
4 469 0.7

Angle Coeffs # harmonic

1 100 109.47
2 35 120
3 63 120

Dihedral Coeffs # opls

1 0 7.25 0 0
2 0 7.25 0 0
3 0 7.25 0 0

Improper Coeffs # cvff

1 2.5 -1 2

Atoms # full

709 237 1 -8.1999999999999995e-01 -9.7276698167009297e+00 -1.0511460696789454e+01 -1.4174149460309865e+01 0 -1 0
1815 605 2 4.0999999999999998e-01 -9.1839847610025203e+00 -1.2380517218023984e+01 -1.4195683555500024e+01 1 -1 -1
1814 605 2 4.0999999999999998e-01 -8.5111226661884487e+00 -1.3839139552087005e+01 -1.4489252979453791e+01 1 -1 -1
558 186 2 4.0999999999999998e-01 -1.1903792709257692e+01 -7.3921743123044115e+00 -1.4683672279447860e+01 1 -2 2
1813 605 1 -8.1999999999999995e-01 -9.2318484855227378e+00 -1.3357993297196085e+01 -1.3990246643637665e+01 1 -1 -1
1022 341 2 4.0999999999999998e-01 -1.4833071105125512e+01 -1.1632362027801632e+01 -1.2151269760162860e+01 1 -3 -1
1310 437 2 4.0999999999999998e-01 -1.3323025513223900e+01 -1.1161210624131895e+01 -1.3913335559141293e+01 2 -2 0
1021 341 1 -8.1999999999999995e-01 -1.4577461999728790e+01 -1.1622180189638840e+01 -1.3117972979501484e+01 1 -3 -1
2076 692 2 4.0999999999999998e-01 -8.5355649213514582e+00 -5.4491874585389635e+00 -8.2511632421824341e+00 0 -1 0
2592 864 2 4.0999999999999998e-01 -1.0370589783990525e+01 -5.8256727738493996e+00 -1.1863581067036836e+01 2 -1 3
2426 809 2 4.0999999999999998e-01 -9.0623622629885592e+00 -9.2538158962240686e+00 -8.2421831398828118e+00 2 -2 1
2427 809 2 4.0999999999999998e-01 -1.0430939919484368e+01 -1.0105569941425799e+01 -7.9813843112371794e+00 2 -2 1
968 323 2 4.0999999999999998e-01 -1.3861674711605753e+01 -1.3923722371209882e+01 -1.1227356992834521e+01 1 0 1
265 89 1 -8.1999999999999995e-01 -1.3289466103387685e+01 -1.4767356627715255e+01 -1.4706368778071324e+01 2 -1 -3
663 221 2 4.0999999999999998e-01 -1.2330641544335009e+01 -1.2311789631852122e+01 -1.1416611120954801e+01 1 -1 0
661 221 1 -8.1999999999999995e-01 -1.2102180053242233e+01 -1.1353081513317097e+01 -1.1585840883837850e+01 1 -1 0
662 221 2 4.0999999999999998e-01 -1.2665417679814654e+01 -1.1003350076290047e+01 -1.2334443609251782e+01 1 -1 0
1309 437 1 -8.1999999999999995e-01 -1.2503356380408231e+01 -1.0751281073914759e+01 -1.4313404246012425e+01 2 -2 0
1736 579 2 4.0999999999999998e-01 -1.2167101681441006e+01 -9.1377071271948509e+00 -1.3450491963837999e+01 1 -2 0
1763 588 2 4.0999999999999998e-01 -1.1197217009709313e+01 -9.9336816589699772e+00 -1.1083307449403124e+01 2 -5 2
1266 422 2 4.0999999999999998e-01 -1.2967086451120341e+01 -5.5249894671807684e+00 -1.4298116147346002e+01 -1 0 -1
2343 781 2 4.0999999999999998e-01 -1.1959821051146234e+01 -1.1093502993840165e+01 -9.4813892468631753e+00 3 0 0
1169 390 2 4.0999999999999998e-01 -1.5126444197004883e+01 -1.3554687111469415e+01 -8.6252019222425051e+00 0 -1 -1
1764 588 2 4.0999999999999998e-01 -9.9873730795928441e+00 -9.0490504181980000e+00 -1.0435070873101246e+01 2 -5 2
1762 588 1 -8.1999999999999995e-01 -1.0952699326102595e+01 -9.0447750287520954e+00 -1.0695995285097986e+01 2 -5 2
1737 579 2 4.0999999999999998e-01 -1.2066958461173858e+01 -8.2783260610628027e+00 -1.2065594463700780e+01 1 -2 0
1735 579 1 -8.1999999999999995e-01 -1.2116862345361957e+01 -8.2174523887121325e+00 -1.3062468891400814e+01 1 -2 0
969 323 2 4.0999999999999998e-01 -1.2504194458138713e+01 -1.4012184713333726e+01 -1.2130644045804601e+01 1 0 1
2092 698 1 -8.1999999999999995e-01 -9.9303230578613757e+00 -5.5740226385834024e+00 -1.3971816882513835e+01 4 0 -1
2122 708 1 -8.1999999999999995e-01 -1.4764636133723359e+01 -8.6792474148831218e+00 -1.3595611510384296e+01 2 -1 -2
2077 693 1 -8.1999999999999995e-01 -8.2209237765086609e+00 -8.9460847370304251e+00 -1.0064622620938433e+01 5 1 -3
2341 781 1 -8.1999999999999995e-01 -1.2003550976377031e+01 -1.1376963179945866e+01 -8.5234264257279246e+00 3 0 0
2335 779 1 -8.1999999999999995e-01 -7.7362620085410541e+00 -1.3795692198584804e+01 -8.3352625031371126e+00 1 0 -2
2337 779 2 4.0999999999999998e-01 -7.7834846956955328e+00 -1.3090076760446955e+01 -9.0422501085487550e+00 1 0 -2
2590 864 1 -8.1999999999999995e-01 -1.0538125195768117e+01 -5.9566785458369953e+00 -1.0886481147197010e+01 2 -1 3
2336 779 2 4.0999999999999998e-01 -7.9925158842236375e+00 -1.4678832635634409e+01 -8.7281384523170971e+00 1 0 -2
262 88 1 -8.1999999999999995e-01 -1.4427888531448192e+01 -6.4984117697285573e+00 -1.1194745759201176e+01 2 -3 1
862 288 1 -8.1999999999999995e-01 -1.2745135955725791e+01 -1.4192972305746631e+01 -7.8299002072309323e+00 -1 1 -2
263 88 2 4.0999999999999998e-01 -1.4879813493980105e+01 -7.3544917985642950e+00 -1.1445436488796922e+01 2 -3 1
2124 708 2 4.0999999999999998e-01 -1.3914436295091022e+01 -8.2308243998949067e+00 -1.3319873181172442e+01 2 -1 -2
2342 781 2 4.0999999999999998e-01 -1.2107386811130732e+01 -1.2370314547668906e+01 -8.4741742188049578e+00 3 0 0
967 323 1 -8.1999999999999995e-01 -1.2866626739274221e+01 -1.3825031335152831e+01 -1.1217642807658631e+01 1 0 1
2591 864 2 4.0999999999999998e-01 -1.1207926421546134e+01 -6.6880362063741359e+00 -1.0758274648452797e+01 2 -1 3
2075 692 2 4.0999999999999998e-01 -9.0501824123048600e+00 -5.9994285781814796e+00 -9.6999244169536709e+00 0 -1 0
2093 698 2 4.0999999999999998e-01 -9.0209048592668779e+00 -5.9049692194343191e+00 -1.4223585657225714e+01 4 0 -1
41 14 2 4.0999999999999998e-01 -8.2976786352868608e+00 -9.9499116128508085e+00 -1.3220905251261261e+01 0 -3 0
2094 698 2 4.0999999999999998e-01 -1.0619984970443497e+01 -6.0411623093296640e+00 -1.4525081353113494e+01 4 0 -1
2352 784 2 4.0999999999999998e-01 -8.8461642398051499e+00 -1.2638606530217197e+01 -1.2259166215710557e+01 1 -3 2
711 237 2 4.0999999999999998e-01 -1.0693066476121867e+01 -1.0718955961092409e+01 -1.4331977196178514e+01 0 -1 0
2074 692 1 -8.1999999999999995e-01 -8.2596111969339354e+00 -5.6631520434123193e+00 -9.1881922154142970e+00 0 -1 0
920 307 2 4.0999999999999998e-01 -9.4405722183054905e+00 -1.5083100771851557e+01 -1.2979912894203245e+01 3 -1 0
2351 784 2 4.0999999999999998e-01 -9.4186039270110342e+00 -1.2360850863997182e+01 -1.0755281221395290e+01 1 -3 2
2350 784 1 -8.1999999999999995e-01 -8.5949214629769166e+00 -1.2401076644436223e+01 -1.1320863857897276e+01 1 -3 2
2079 693 2 4.0999999999999998e-01 -7.9727053781733943e+00 -9.3711235981437930e+00 -1.0935073199964863e+01 5 1 -3
40 14 1 -8.1999999999999995e-01 -7.6818156333937822e+00 -9.3771781108406280e+00 -1.2679939490032986e+01 0 -3 0
864 288 2 4.0999999999999998e-01 -1.2265709055793145e+01 -1.4995762701720677e+01 -8.1843463027913117e+00 -1 1 -2
267 89 2 4.0999999999999998e-01 -1.4248411344830529e+01 -1.4538127648370054e+01 -1.4539536935196519e+01 2 -1 -3
2123 708 2 4.0999999999999998e-01 -1.4671585233545658e+01 -9.6684478152811302e+00 -1.3482568524750922e+01 2 -1 -2
710 237 2 4.0999999999999998e-01 -9.3040680374195901e+00 -1.0222917985340770e+01 -1.5032787460149990e+01 0 -1 0
264 88 2 4.0999999999999998e-01 -1.5091141902015593e+01 -5.8841127898143490e+00 -1.0767327029437524e+01 2 -3 1
2301 767 2 4.0999999999999998e-01 -5.8446152568793366e+00 -1.1990266829198967e+01 -1.5081464527898033e+01 3 -3 -1
1629 543 2 4.0999999999999998e-01 -2.2464221048494224e+00 -1.2480505451206390e+01 -1.4625716749061024e+01 1 -2 0
2249 750 2 4.0999999999999998e-01 -2.3548579266061740e+00 -6.4401719000127891e+00 -8.0313863903891018e+00 2 0 -2
1328 443 2 4.0999999999999998e-01 -7.0239202481408682e+00 -6.8767479752801677e+00 -1.4746605350470933e+01 1 -1 -1
1130 377 2 4.0999999999999998e-01 -1.8948289377820462e+00 -1.3412005617245699e+01 -8.1135729778204624e+00 0 1 -2
1026 342 2 4.0999999999999998e-01 -3.3110422245054991e+00 -1.3684190700388530e+01 -1.0214374931554287e+01 1 0 1
906 302 2 4.0999999999999998e-01 -2.0672248020214088e+00 -1.0967025805651168e+01 -1.1253112928561293e+01 0 -1 1
875 292 2 4.0999999999999998e-01 -2.5808103189959830e-01 -8.5150247950399631e+00 -8.5259318569288300e+00 2 -2 0
1185 395 2 4.0999999999999998e-01 -2.4232346924610333e+00 -6.8781492683035008e+00 -1.2896339303364382e+01 5 -1 0
1274 425 2 4.0999999999999998e-01 -2.2628048805433387e-01 -7.7929262470833027e+00 -1.2467619560205478e+01 -2 0 -3
1024 342 1 -8.1999999999999995e-01 -4.2041993646373470e+00 -1.4081440841043152e+01 -1.0003620912914172e+01 1 0 1
904 302 1 -8.1999999999999995e-01 -1.4215798314143608e+00 -1.1701853173680501e+01 -1.1460780815634800e+01 0 -1 1
1131 377 2 4.0999999999999998e-01 -1.1624582608213796e+00 -1.2898810280479809e+01 -9.4798705885494776e+00 0 1 -2
608 203 2 4.0999999999999998e-01 -3.3246189576680223e+00 -5.9242913560797366e+00 -1.0396318875660899e+01 3 0 -2
1597 533 1 -8.1999999999999995e-01 -1.4802328164697993e+00 -9.1397705129164528e+00 -1.5077830538595935e+01 -1 -2 3
2221 741 1 -8.1999999999999995e-01 -4.3002972700787350e+00 -1.0442560986016446e+01 -7.8206570034620979e+00 3 0 1
1198 400 1 -8.1999999999999995e-01 -3.2846521009004341e+00 -1.4148587614478203e+01 -1.4563091328982514e+01 1 -1 0
609 203 2 4.0999999999999998e-01 -2.5923166405416289e+00 -7.3546216802502000e+00 -1.0105812375606497e+01 3 0 -2
1628 543 2 4.0999999999999998e-01 -1.5068290737829884e+00 -1.1799547625157516e+01 -1.3338936248830873e+01 1 -2 0
1350 450 2 4.0999999999999998e-01 -4.8117374153509100e+00 -1.4534590500369514e+01 -1.1643992393891390e+01 2 1 3
1599 533 2 4.0999999999999998e-01 -1.7500622219398689e+00 -8.5393092185717077e+00 -1.4325106857233717e+01 -1 -2 3
607 203 1 -8.1999999999999995e-01 -2.5974081570994425e+00 -6.3798223575917543e+00 -9.8828886006129597e+00 3 0 -2
1627 543 1 -8.1999999999999995e-01 -1.5978287190940943e+00 -1.1777310243042248e+01 -1.4334516075436822e+01 1 -2 0
2557 853 1 -8.1999999999999995e-01 -2.5042603415565967e+00 -9.4136780076757525e+00 -1.0446981063148645e+01 0 -1 -1
1598 533 2 4.0999999999999998e-01 -1.5925116198797014e+00 -1.0093751992201160e+01 -1.4799860327454549e+01 -1 -2 3
223 75 1 -8.1999999999999995e-01 -5.8307105383249400e+00 -1.1930242696591964e+01 -9.5669950820362573e+00 3 -2 0
1199 400 2 4.0999999999999998e-01 -3.8949737040110399e+00 -1.4382261447394960e+01 -1.3806216897065589e+01 1 -1 0
893 298 2 4.0999999999999998e-01 -4.9643096333710304e+00 -7.0355591471459960e+00 -1.3906129833563467e+01 3 -4 2
2178 726 2 4.0999999999999998e-01 -5.8927422750125071e+00 -7.0313344796625987e+00 -8.3548392620224661e+00 2 -1 2
2558 853 2 4.0999999999999998e-01 -3.4692656576017633e+00 -9.1992609223384338e+00 -1.0597794474550856e+01 0 -1 -1
1675 559 1 -8.1999999999999995e-01 -4.6827842588140847e+00 -8.1544017084715463e+00 -1.1263469496470202e+01 0 -2 -1
905 302 2 4.0999999999999998e-01 -4.9013390393818490e-01 -1.1389963103553379e+01 -1.1273463329017952e+01 0 -1 1
1184 395 2 4.0999999999999998e-01 -2.3600132990715128e+00 -8.2528388535941879e+00 -1.2017284067516639e+01 5 -1 0
2177 726 2 4.0999999999999998e-01 -6.9938386854633130e+00 -6.7025664515959082e+00 -9.5150133109528738e+00 2 -1 2
894 298 2 4.0999999999999998e-01 -6.2561789647958701e+00 -6.3137901443997269e+00 -1.3215746869884043e+01 3 -4 2
2035 679 1 -8.1999999999999995e-01 -3.4634098885761535e+00 -6.3278793023342033e+00 -1.4810429189616881e+01 0 -2 0
1676 559 2 4.0999999999999998e-01 -5.1804904659931239e+00 -8.1326810302174835e+00 -1.2130516979202023e+01 0 -2 -1
2317 773 1 -8.1999999999999995e-01 -6.1860619558058332e+00 -1.2300114162571973e+01 -1.3392145361280095e+01 4 -2 1
1677 559 2 4.0999999999999998e-01 -5.3118224281042448e+00 -7.9520907623237607e+00 -1.0512912434167998e+01 0 -2 -1
1183 395 1 -8.1999999999999995e-01 -1.9051629377166392e+00 -7.7168197237174958e+00 -1.2728444820804246e+01 5 -1 0
2559 853 2 4.0999999999999998e-01 -2.3620684902778191e+00 -9.6525422990755239e+00 -9.4864187240926547e+00 0 -1 -1
2319 773 2 4.0999999999999998e-01 -5.6956539549267031e+00 -1.3081550904575320e+01 -1.3006384793138221e+01 4 -2 1
42 14 2 4.0999999999999998e-01 -7.3641787565771200e+00 -8.6102065058055892e+00 -1.3237448229546160e+01 0 -3 0
224 75 2 4.0999999999999998e-01 -6.4562362256242221e+00 -1.1939529513083819e+01 -1.0347114289451447e+01 3 -2 0
1025 342 2 4.0999999999999998e-01 -4.1938439255026037e+00 -1.4450753869629059e+01 -9.0743979727575379e+00 1 0 1
2222 741 2 4.0999999999999998e-01 -4.9695297713237263e+00 -1.0824463617809029e+01 -8.4580210742254387e+00 3 0 1
225 75 2 4.0999999999999998e-01 -5.3405296051649334e+00 -1.2800697621136413e+01 -9.5224363807652210e+00 3 -2 0
2078 693 2 4.0999999999999998e-01 -7.4611660227717396e+00 -8.3826402628753804e+00 -9.7401951077212914e+00 5 1 -3
2176 726 1 -8.1999999999999995e-01 -6.1778814446629031e+00 -7.2355900513404459e+00 -9.2912847547737556e+00 2 -1 2
1129 377 1 -8.1999999999999995e-01 -1.6535943570636213e+00 -1.3657754327378148e+01 -9.0523850159363377e+00 0 1 -2
892 298 1 -8.1999999999999995e-01 -5.9002091875586640e+00 -7.1734759890507833e+00 -1.3582053293867528e+01 3 -4 2
765 255 2 4.0999999999999998e-01 -8.4950091695518992e-01 -5.8066775564140176e+00 -9.6824244831390605e+00 0 -3 0
2318 773 2 4.0999999999999998e-01 -6.7189861213380748e+00 -1.1853323248357876e+01 -1.2673588261340681e+01 4 -2 1
1348 450 1 -8.1999999999999995e-01 -4.9268311088857502e+00 -1.4822621866895956e+01 -1.2594647969211184e+01 2 1 3
142 48 1 -8.1999999999999995e-01 -7.4514986768091980e+00 -1.5133162292990237e+01 -1.4672664432445949e+01 3 0 -2
2036 679 2 4.0999999999999998e-01 -2.8117856317608450e+00 -5.6265639381769041e+00 -1.5099388068725425e+01 0 -2 0
691 231 1 -8.1999999999999995e-01 -8.7150340124311096e+00 -1.2178425596895620e+01 -6.3794246774803316e+00 3 -4 1
253 85 1 -8.1999999999999995e-01 -1.1150369101792126e+01 -1.2827644119368468e+01 -1.0227585957077974e+00 4 -2 2
255 85 2 4.0999999999999998e-01 -1.1185351171634018e+01 -1.3011591089339788e+01 -4.0468078625696791e-02 4 -2 2
242 81 2 4.0999999999999998e-01 -9.5097737155536990e+00 -1.0405121975950449e+01 -3.5269913581097008e+00 1 -1 1
2113 705 1 -8.1999999999999995e-01 -1.3107128780118460e+01 -1.0523143853308152e+01 -4.0103864475613520e+00 4 -3 -1
2115 705 2 4.0999999999999998e-01 -1.2740910264685745e+01 -1.0059022556553341e+01 -4.8168789531985325e+00 4 -3 -1
1868 623 2 4.0999999999999998e-01 -9.9731521165386976e+00 -1.3267539388550238e+01 -5.6577341652615676e+00 -3 1 1
2114 705 2 4.0999999999999998e-01 -1.2612920093469098e+01 -1.1380392168652646e+01 -3.8660338207171581e+00 4 -3 -1
243 81 2 4.0999999999999998e-01 -8.9750951471526736e+00 -1.1555073248880863e+01 -4.5556975489280109e+00 1 -1 1
254 85 2 4.0999999999999998e-01 -1.0226169633257260e+01 -1.2541460148605159e+01 -1.2755606056538404e+00 4 -2 2
281 94 2 4.0999999999999998e-01 -1.1983808824511023e+01 -1.3365939899920134e+01 -2.7854685563429236e+00 -2 0 0
280 94 1 -8.1999999999999995e-01 -1.2361487075362826e+01 -1.3712031107362144e+01 -3.6442670570370854e+00 -2 0 0
282 94 2 4.0999999999999998e-01 -1.1635270209829912e+01 -1.3767267892343948e+01 -4.3294770476216264e+00 -2 0 0
559 187 1 -8.1999999999999995e-01 -1.2651334764816029e+01 -9.2853431430059441e+00 -6.4808975556561954e+00 0 -1 0
2039 680 2 4.0999999999999998e-01 -1.2553537644538810e+01 -9.5149963140765728e+00 -2.3276327973521127e+00 1 -4 2
2038 680 1 -8.1999999999999995e-01 -1.2198532407925441e+01 -8.5892378275925338e+00 -2.1976434455991729e+00 1 -4 2
2040 680 2 4.0999999999999998e-01 -1.2316143755117272e+01 -8.0656317392568191e+00 -3.0414199937454427e+00 1 -4 2
2267 756 2 4.0999999999999998e-01 -8.9551185398006332e+00 -8.7863000191063367e+00 -6.1667448325258380e+00 1 -3 -1
2388 796 2 4.0999999999999998e-01 -1.4642199332209374e+01 -1.2500993273308556e+01 -1.6350686892424626e+00 2 -3 -2
693 231 2 4.0999999999999998e-01 -8.4492538689448864e+00 -1.2796792462078535e+01 -7.1189773709462258e+00 3 -4 1
692 231 2 4.0999999999999998e-01 -8.9576332067475573e+00 -1.1286735223415644e+01 -6.7615092581298537e+00 3 -4 1
1818 606 2 4.0999999999999998e-01 -1.4703854367477865e+01 -7.3807180756567785e+00 -3.9819282275577290e+00 2 -5 -3
561 187 2 4.0999999999999998e-01 -1.2332822934284202e+01 -8.3545737239810514e+00 -6.6602665770613463e+00 0 -1 0
1365 455 2 4.0999999999999998e-01 -1.2654098573847984e+01 -6.7927279917218488e+00 -5.1268887734401343e+00 4 0 0
2199 733 2 4.0999999999999998e-01 -1.0256887315890225e+01 -8.2646675577555584e+00 -2.6873839904076888e+00 3 0 -1
1363 455 1 -8.1999999999999995e-01 -1.3129708165755762e+01 -6.8554087803646944e+00 -4.2494941850724963e+00 4 0 0
1364 455 2 4.0999999999999998e-01 -1.3074788882229576e+01 -5.9758065716248598e+00 -3.7770130587054371e+00 4 0 0
307 103 1 -8.1999999999999995e-01 -1.1901951926228868e+01 -6.6128697300615418e+00 -6.5099375746506620e+00 1 1 1
2520 840 2 4.0999999999999998e-01 -8.3725615938950320e+00 -6.3656262961698715e+00 -6.1160092532994010e+00 2 1 0
2263 755 1 -8.1999999999999995e-01 -9.0018403044002167e+00 -1.4972507656363614e+01 -3.3738407149617995e+00 2 -1 0
241 81 1 -8.1999999999999995e-01 -9.3517201006528055e+00 -1.1385450131275544e+01 -3.6450185334395631e+00 1 -1 1
1901 634 2 4.0999999999999998e-01 -1.3968864921836071e+01 -1.4194370514287062e+01 -4.3140978099242755e+00 -1 -2 0
2266 756 1 -8.1999999999999995e-01 -8.5671515065125803e+00 -8.1395869162784749e+00 -5.5100878302473202e+00 1 -3 -1
2268 756 2 4.0999999999999998e-01 -9.0863546595088724e+00 -8.1795569611462930e+00 -4.6563986672481370e+00 1 -3 -1
2197 733 1 -8.1999999999999995e-01 -9.4458386601906383e+00 -8.7774891427865462e+00 -2.9687533495283578e+00 3 0 -1
1404 468 2 4.0999999999999998e-01 -1.4681361009826210e+01 -5.9043165937289110e+00 -3.7653171051479895e-01 2 -2 0
536 179 2 4.0999999999999998e-01 -1.4434770951059544e+01 -8.3294296415764215e+00 -6.8112507893401624e+00 2 -2 0
1001 334 2 4.0999999999999998e-01 -1.2339122661241715e+01 -5.3922281203052691e+00 -1.5930172859780516e+00 2 -3 -2
308 103 2 4.0999999999999998e-01 -1.2681721646943373e+01 -6.0581999516388798e+00 -6.8002052519144129e+00 1 1 1
1869 623 2 4.0999999999999998e-01 -1.1156506832880595e+01 -1.4195076422877722e+01 -6.2947995006937738e+00 -3 1 1
1993 665 1 -8.1999999999999995e-01 -7.7947456612118327e+00 -1.4171111868921932e+01 -9.4652861852826575e-01 1 0 0
1900 634 1 -8.1999999999999995e-01 -1.4940830879141384e+01 -1.4337936914003324e+01 -4.5001769898626449e+00 -1 -2 0
2387 796 2 4.0999999999999998e-01 -1.3166660951263115e+01 -1.2878259548621569e+01 -1.0460338493628587e+00 2 -3 -2
1995 665 2 4.0999999999999998e-01 -7.9882551276261680e+00 -1.3198167526637310e+01 -1.0725763050802612e+00 1 0 0
2198 733 2 4.0999999999999998e-01 -8.7054335958920532e+00 -8.6141591349245132e+00 -2.3167730973363891e+00 3 0 -1
777 259 2 4.0999999999999998e-01 -1.3858741611717708e+01 -1.1470297534546454e+01 -7.2912026398924867e+00 1 -1 -1
731 244 2 4.0999999999999998e-01 -8.8690605667793552e+00 -1.1450987880505419e+01 -2.0071289568867439e+00 1 0 0
1902 634 2 4.0999999999999998e-01 -1.5043313872917450e+01 -1.4922975590373515e+01 -5.3046529539574703e+00 -1 -2 0
2386 796 1 -8.1999999999999995e-01 -1.4147958276467349e+01 -1.3051432689100977e+01 -9.6224118716625462e-01 2 -3 -2
1867 623 1 -8.1999999999999995e-01 -1.0722448143599141e+01 -1.3894794915370035e+01 -5.4454593169643992e+00 -3 1 1
336 112 2 4.0999999999999998e-01 -1.2411313039286807e+01 -7.7137649104649793e+00 -6.5877841460049247e-01 1 1 0
1994 665 2 4.0999999999999998e-01 -8.3448645759035518e+00 -1.4706152753663870e+01 -1.5876643643595152e+00 1 0 0
334 112 1 -8.1999999999999995e-01 -1.2348727483143048e+01 -6.9624180372149045e+00 -1.8799693603845924e-03 1 1 0
309 103 2 4.0999999999999998e-01 -1.1068206059295624e+01 -6.0621526681515778e+00 -6.5490930781858570e+00 1 1 1
560 187 2 4.0999999999999998e-01 -1.2258602537867887e+01 -9.9082089587187774e+00 -7.1574731444196695e+00 0 -1 0
775 259 1 -8.1999999999999995e-01 -1.4655671962550974e+01 -1.1649053442773216e+01 -6.7142251805207689e+00 1 -1 -1
2519 840 2 4.0999999999999998e-01 -9.2657098884942783e+00 -5.0490890883045658e+00 -5.7478770293467782e+00 2 1 0
535 179 1 -8.1999999999999995e-01 -1.5137389692355526e+01 -7.8404990457503336e+00 -7.3281922755021869e+00 2 -2 0
730 244 1 -8.1999999999999995e-01 -8.4119853487086989e+00 -1.1566306277970963e+01 -1.1252340552756088e+00 1 0 0
732 244 2 4.0999999999999998e-01 -7.8986744892462708e+00 -1.0736900353779838e+01 -9.0488783101307568e-01 1 0 0
2518 840 1 -8.1999999999999995e-01 -8.6911117148747294e+00 -5.4768822075777948e+00 -6.4455765992286818e+00 2 1 0
776 259 2 4.0999999999999998e-01 -1.4401930924780880e+01 -1.1541985450366480e+01 -5.7529205388665989e+00 1 -1 -1
2265 755 2 4.0999999999999998e-01 -9.4965650240912822e+00 -1.4376038328350084e+01 -4.0058426868333967e+00 2 -1 0
1360 454 1 -8.1999999999999995e-01 -7.9568656414727865e+00 -5.7121195338210384e+00 -4.3091823177161181e-01 0 -4 0
766 256 1 -8.1999999999999995e-01 -1.4056837004528111e+01 -5.1516285842503766e+00 -6.5351173647779532e+00 2 2 -1
2425 809 1 -8.1999999999999995e-01 -9.5979964969718985e+00 -9.7490553895378191e+00 -7.5582325116627977e+00 2 -2 1
863 288 2 4.0999999999999998e-01 -1.3563012657006711e+01 -1.4485086913947949e+01 -7.3342174041075499e+00 -1 1 -2
870 290 2 4.0999999999999998e-01 -2.5650574080439430e+00 -9.8078739181788883e+00 -7.3791228186615276e+00 2 -3 -2
674 225 2 4.0999999999999998e-01 -1.2110391257818698e-01 -8.5069526019826753e+00 -2.9176306702014774e+00 0 -2 2
2474 825 2 4.0999999999999998e-01 -2.2602230212305940e+00 -1.1878240053733936e+01 -6.6578488752541762e+00 2 -2 0
1495 499 1 -8.1999999999999995e-01 -4.7123896074449547e+00 -9.7680489201080540e+00 -3.7076863568538343e-01 3 1 2
2138 713 2 4.0999999999999998e-01 -3.7538992021470641e-01 -6.7926939583796599e+00 -4.6192964703556640e+00 4 -1 -2
2473 825 1 -8.1999999999999995e-01 -1.6471060896113485e+00 -1.2610061552186107e+01 -6.3603938142029346e+00 2 -2 0
2250 750 2 4.0999999999999998e-01 -3.3947727001868024e+00 -6.0264987377633723e+00 -6.8422868518116555e+00 2 0 -2
603 201 2 4.0999999999999998e-01 -5.2066418597241437e-01 -1.2124330659023492e+01 -3.7486465170977397e+00 2 0 -1
2467 823 1 -8.1999999999999995e-01 -2.5478200708780481e+00 -1.5124773445546781e+01 -5.5491119718639652e+00 1 -2 1
2223 741 2 4.0999999999999998e-01 -4.7143613176753316e+00 -9.6841051540306928e+00 -7.3174171841889226e+00 3 0 1
2139 713 2 4.0999999999999998e-01 -1.7944416507822734e+00 -6.5995613398528956e+00 -5.4038329387519806e+00 4 -1 -2
1427 476 2 4.0999999999999998e-01 -1.1042209812661863e+00 -1.4810480778194920e+01 -3.0449917103802715e+00 1 1 0
895 299 1 -8.1999999999999995e-01 -1.4157929896414636e+00 -1.1139864058482082e+01 -7.2681471133786424e-01 0 -4 -2
868 290 1 -8.1999999999999995e-01 -1.6320581339107747e+00 -9.4585252804274145e+00 -7.2929684380163229e+00 2 -3 -2
675 225 2 4.0999999999999998e-01 -2.1616096555496966e-01 -1.0007486412374885e+01 -3.5547082809592094e+00 0 -2 2
444 148 2 4.0999999999999998e-01 -5.1552494315167472e+00 -8.3993687872183500e+00 -5.3458595462149034e+00 -1 -1 -2
1653 551 2 4.0999999999999998e-01 -4.6884320833805049e+00 -1.0607832410808435e+01 -3.7832024016682713e+00 0 0 1
2137 713 1 -8.1999999999999995e-01 -1.3562646712043893e+00 -6.9852837530496945e+00 -4.5919377463436248e+00 4 -1 -2
1282 428 1 -8.1999999999999995e-01 -4.2525246012530040e+00 -1.3746732471641806e+01 -1.4554054316926557e+00 1 -2 1
1501 501 1 -8.1999999999999995e-01 -2.6962731594792562e+00 -7.7209466572584313e+00 -2.3698047614707249e+00 2 -6 4
657 219 2 4.0999999999999998e-01 -4.4181848647406632e+00 -8.3029053613528347e+00 -2.6894091634323214e+00 0 -1 -1
2416 806 1 -8.1999999999999995e-01 -5.1972747320128683e+00 -5.5724406341497925e+00 -6.7684006312363838e+00 3 -3 0
1925 642 2 4.0999999999999998e-01 -5.3350909295511872e+00 -1.4522736017565551e+01 -6.9718493318428152e+00 0 -1 1
1503 501 2 4.0999999999999998e-01 -2.2076944843055486e+00 -8.5715495377373543e+00 -2.1755873944244772e+00 2 -6 4
1283 428 2 4.0999999999999998e-01 -4.2321408941445764e+00 -1.3527766698119619e+01 -4.7990911077783593e-01 1 -2 1
2126 709 2 4.0999999999999998e-01 -2.9139437870273586e+00 -6.7482895697871488e+00 -6.8710211581081815e-01 2 -3 1
897 299 2 4.0999999999999998e-01 -8.3576463550186730e-01 -1.0731479795039849e+01 -1.4316154191490185e+00 0 -4 -2
1651 551 1 -8.1999999999999995e-01 -4.7696577388307073e+00 -1.1603383536590700e+01 -3.8304775188842459e+00 0 0 1
1284 428 2 4.0999999999999998e-01 -4.8919919269608148e+00 -1.4498794480894027e+01 -1.6149012158809075e+00 1 -2 1
2457 819 2 4.0999999999999998e-01 -7.2570215440472632e+00 -7.8338254731096839e+00 -6.0322197861533233e-01 1 -1 1
1312 438 1 -8.1999999999999995e-01 -5.9689626449287552e+00 -1.3302218185332849e+01 -5.7668313498335344e+00 0 0 3
442 148 1 -8.1999999999999995e-01 -5.8060631318093758e+00 -8.1587747564783157e+00 -6.0659364689195439e+00 -1 -1 -2
1313 438 2 4.0999999999999998e-01 -6.7728210847555204e+00 -1.2801085025368474e+01 -6.0871933827866975e+00 0 0 3
1314 438 2 4.0999999999999998e-01 -5.5715028546013752e+00 -1.2827684679702280e+01 -4.9814661577358041e+00 0 0 3
2455 819 1 -8.1999999999999995e-01 -7.3011492680791354e+00 -8.7252105905541502e+00 -1.0542652320358261e+00 1 -1 1
443 148 2 4.0999999999999998e-01 -6.7322245551821975e+00 -8.1504974656594626e+00 -5.6889599577652490e+00 -1 -1 -2
2418 806 2 4.0999999999999998e-01 -5.6416865860786256e+00 -6.4448351298722439e+00 -6.5649781952375008e+00 3 -3 0
2475 825 2 4.0999999999999998e-01 -8.6910784203005598e-01 -1.2215115039878173e+01 -5.8718341256679434e+00 2 -2 0
1502 501 2 4.0999999999999998e-01 -2.3842020875117385e+00 -7.3495127908671360e+00 -3.2442206494303765e+00 2 -6 4
2456 819 2 4.0999999999999998e-01 -6.5115492964113333e+00 -9.2755239268436149e+00 -7.8289496543258963e-01 1 -1 1
2468 823 2 4.0999999999999998e-01 -2.5232853551289516e+00 -1.4156489717537619e+01 -5.7976663921240323e+00 1 -2 1
655 219 1 -8.1999999999999995e-01 -5.0992038609929597e+00 -8.7260554834855881e+00 -3.2869974474383667e+00 0 -1 -1
656 219 2 4.0999999999999998e-01 -5.9524940479747954e+00 -8.8541795481166119e+00 -2.7815919350554630e+00 0 -1 -1
673 225 1 -8.1999999999999995e-01 -5.0866453064867123e-01 -9.4211489993607760e+00 -2.7993244781008482e+00 0 -2 2
1637 546 2 4.0999999999999998e-01 -2.6721503780128995e+00 -1.3378835812176051e+01 -2.5099395508183449e+00 4 -3 1
1636 546 1 -8.1999999999999995e-01 -1.6947541107275335e+00 -1.3178021343704875e+01 -2.5757018822012352e+00 4 -3 1
1638 546 2 4.0999999999999998e-01 -1.3761691142072845e+00 -1.2786242857213821e+01 -1.7125866771639746e+00 4 -3 1
1652 551 2 4.0999999999999998e-01 -4.2799428692657262e+00 -1.2014632329148704e+01 -3.0617067255352275e+00 0 0 1
1497 499 2 4.0999999999999998e-01 -4.7380726694430511e+00 -1.0700933720469427e+01 -7.2996347760119207e-01 3 1 2
2248 750 1 -8.1999999999999995e-01 -2.4672664061355931e+00 -6.3420287233463597e+00 -7.0426058536279150e+00 2 0 -2
869 290 2 4.0999999999999998e-01 -1.5379795453818463e+00 -8.9695886022396500e+00 -6.4257632614740388e+00 2 -3 -2
2549 850 2 4.0999999999999998e-01 -1.9832540642143837e+00 -8.2125557414369510e+00 -5.3670543496787460e-01 -1 -1 -2
896 299 2 4.0999999999999998e-01 -1.6983507327738447e+00 -1.0433906908258722e+01 -7.7399419705322714e-02 0 -4 -2
2127 709 2 4.0999999999999998e-01 -4.2972055116811312e+00 -6.1407860468388744e+00 -6.7398446076484930e-02 2 -3 1
2110 704 1 -8.1999999999999995e-01 -1.1325821641209863e+01 -1.1636651283985653e+01 7.3280904954459345e+00 -2 -3 -2
877 293 1 -8.1999999999999995e-01 -1.1975881153276305e+01 -8.1925038251663125e+00 2.3052509768954295e+00 2 0 0
2111 704 2 4.0999999999999998e-01 -1.1437929693471212e+01 -1.0650736112282626e+01 7.2041637313413815e+00 -2 -3 -2
879 293 2 4.0999999999999998e-01 -1.1962961457838581e+01 -9.0649073142520251e+00 2.7938201604479715e+00 2 0 0
2393 798 2 4.0999999999999998e-01 -9.6678869902705316e+00 -7.0243023318511817e+00 4.4683394417249040e+00 1 -3 1
2394 798 2 4.0999999999999998e-01 -8.4889071744914038e+00 -7.9796899735732332e+00 3.8652254145240299e+00 1 -3 1
2392 798 1 -8.1999999999999995e-01 -8.7221179030388711e+00 -7.0482398233086005e+00 4.1444528644457321e+00 1 -3 1
878 293 2 4.0999999999999998e-01 -1.2531517515606952e+01 -7.5342613797111966e+00 2.8131288679667890e+00 2 0 0
1727 576 2 4.0999999999999998e-01 -1.1077902326489278e+01 -1.3421524446408251e+01 5.9273387120967023e+00 2 2 -2
1726 576 1 -8.1999999999999995e-01 -1.1243481385073196e+01 -1.4262263843113477e+01 5.4118820313344145e+00 2 2 -2
1694 565 2 4.0999999999999998e-01 -9.2230480712022818e+00 -1.1654148236325410e+01 4.0838785285373689e+00 2 -1 0
2507 836 2 4.0999999999999998e-01 -9.3926755822380841e+00 -9.7491615517504755e+00 5.3880967097731904e+00 2 -3 -1
888 296 2 4.0999999999999998e-01 -1.2528076149326031e+01 -1.3224523026990457e+01 4.5437567226691087e+00 1 -2 0
102 34 2 4.0999999999999998e-01 -1.0294932520309679e+01 -1.3245071142793474e+01 2.1703160818989105e+00 2 -1 -1
2021 674 2 4.0999999999999998e-01 -1.1848479172260232e+01 -5.2770605437897320e+00 4.3513208144859590e+00 1 -3 -3
1065 355 2 4.0999999999999998e-01 -1.2589105945019520e+01 -1.0389615050434760e+01 4.7798833243393410e+00 2 -1 2
1017 339 2 4.0999999999999998e-01 -1.3845358511635167e+01 -8.3920343542973121e+00 6.6630457989831946e+00 3 -1 2
1016 339 2 4.0999999999999998e-01 -1.4246968899157512e+01 -9.9690074466893712e+00 6.5275083914566885e+00 3 -1 2
101 34 2 4.0999999999999998e-01 -1.0654726582466655e+01 -1.4721521996971916e+01 1.5726985661300183e+00 2 -1 -1
2108 703 2 4.0999999999999998e-01 -1.4126735826889760e+01 -6.1580597306304181e+00 6.5709732956255031e+00 1 1 1
1738 580 1 -8.1999999999999995e-01 -1.0705064983974708e+01 -8.9722931853444230e+00 6.4862529406740563e+00 0 -4 -1
1740 580 2 4.0999999999999998e-01 -1.1592599178351005e+01 -8.6960189149478637e+00 6.1175928210848376e+00 0 -4 -1