2611
Atoms. Timestep: 0
O -14.5085 9.03189 9.6502
H -14.3085 8.05333 9.60098
H -14.7313 9.27954 10.5931
O -6.99802 -11.8067 -7.96456
H -7.21972 -10.8685 -7.69861
H -7.79772 -12.3906 -7.82476
O -8.49202 13.9962 -7.9383
H -7.7997 13.4341 -7.48587
H -8.66274 14.8173 -7.3936
O -7.98402 -12.4831 -14.0865
H -7.29544 -12.0766 -13.486
H -8.741 -11.8411 -14.2082
O -8.48822 10.744 -11.8887
H -9.43 10.9179 -12.1765
H -8.47738 10.0104 -11.2092
O 8.01963 13.8189 -9.13679
H 8.73192 13.2196 -9.50207
H 7.54434 13.3547 -8.38939
O -7.3716 9.10549 -1.70765
H -7.30758 9.13556 -0.710145
H -6.49589 9.37804 -2.10622
O -11.9108 -14.4056 -7.65729
H -11.974 14.8258 -7.15545
H -12.6775 -13.8157 -7.40388
O -7.10968 13.2295 -2.06322
H -7.37224 14.0497 -2.57151
H -7.68199 12.4616 -2.35094
O -13.4154 12.7808 -2.24369
H -12.5829 12.3067 -1.95724
H -14.0787 12.7713 -1.49538
O -10.5364 9.67859 -6.98051
H -10.931 9.68098 -6.06166
H -9.81552 8.98738 -7.03187
O -10.0714 -8.82663 -9.5997
H -10.0963 -8.2378 -8.79181
H -10.2905 -9.76564 -9.33465
O 12.2607 -14.7532 3.20942
H 12.4725 -13.995 3.82611
H 12.9711 -14.8215 2.50895
O 14.1318 15.0199 -2.60765
H 14.3291 -14.6276 -1.73496
H 14.6385 -14.6167 -3.33832
O 14.4928 -10.8925 2.56585
H 13.5162 -10.6777 2.56899
H 14.6249 -11.8393 2.27229
O -7.19168 13.5171 0.669525
H -7.12936 13.2768 -0.299176
H -6.33137 13.2892 1.12551
O -12.9134 -14.7213 -1.23719
H -13.307 14.5408 -1.62831
H -12.9283 -14.7828 -0.239187
O -7.9277 -10.0416 0.858024
H -7.57137 -10.9519 0.64729
H -7.18806 -9.37152 0.795744
O -10.2138 -14.6614 -2.56242
H -9.69205 -13.8813 -2.21702
H -11.1672 -14.5797 -2.27191
O -9.45146 -8.21373 -3.00448
H -9.87769 -7.37613 -3.34619
H -9.73108 -8.98644 -3.57434
O -0.987646 -14.0712 13.0659
H -0.730886 -14.5075 13.9283
H -1.95971 -14.2267 12.8901
O -8.61792 -14.9388 11.4462
H -8.00421 -14.2144 11.7601
H -8.51027 14.3508 12.0304
O -10.0369 -12.5239 13.5004
H -9.06742 -12.754 13.416
H -10.5726 -13.3639 13.5868
O -11.9882 -12.775 2.93225
H -11.9127 -13.0251 3.89753
H -11.1296 -12.3636 2.62644
O -9.48602 8.69094 -14.3503
H -9.22849 9.56711 -14.7578
H -8.69384 8.29275 -13.8878
O -12.3127 -10.2372 12.5825
H -11.8588 -9.38801 12.3126
H -11.6914 -11.0075 12.4389
O -9.23519 -14.4395 -12.8911
H -8.75472 -14.4124 -12.0145
H -8.76829 -13.8449 -13.5456
O 12.3454 -7.41194 13.9803
H 12.5043 -7.37256 14.9669
H 12.4104 -8.36031 13.6699
O -8.77241 -11.8891 -5.16745
H -8.08487 -11.1948 -5.38041
H -9.59974 -11.4445 -4.82407
O -13.0714 -8.68988 -10.7886
H -12.3071 -8.19936 -10.3701
H -12.7278 -9.50072 -11.2624
O 14.2904 -6.25322 -14.1916
H 13.8276 -7.12957 -14.0582
H 14.6838 -5.94856 -13.3242
O -5.95376 -5.79467 -7.78582
H -5.23252 -5.35784 -7.24823
H -6.64264 -6.17771 -7.1704
O 12.9375 -4.05407 -7.87693
H 13.5739 -4.69489 -7.44751
H 12.229 -3.79708 -7.21968
O -13.9116 -3.94558 -10.5457
H -12.9345 -4.13781 -10.4542
H -14.3573 -4.70358 -11.0219
O -10.835 -11.5118 -1.34493
H -10.793 -11.133 -0.420396
H -11.7882 -11.5561 -1.64398
O -11.8296 -2.19237 -7.69087
H -11.9659 -1.35544 -8.22096
H -11.0151 -2.66825 -8.02279
O -7.82858 -4.78477 -1.69048
H -7.95038 -5.02995 -0.728677
H -7.22399 -5.44919 -2.12985
O -8.53253 -2.44733 -9.97556
H -8.79788 -1.48374 -9.94236
H -7.89057 -2.59051 -10.7288
O -4.40568 12.8266 -2.1182
H -4.35637 11.8722 -2.41289
H -5.35842 13.1302 -2.12975
O -7.17829 -13.0032 1.01322
H -6.20441 -13.0743 1.2289
H -7.48344 -13.8452 0.568151
O 14.6976 -12.3172 -0.911643
H -14.8057 -11.663 -1.38384
H -14.8771 -12.775 -0.190136
O -9.87613 -8.45279 -0.344558
H -9.19312 -9.00842 0.129562
H -9.6191 -8.35756 -1.30627
O -10.4032 -10.9194 1.51251
H -10.7214 -10.2789 2.21148
H -9.59406 -10.5444 1.06024
O -13.7749 -5.28395 2.07777
H -14.6446 -4.89877 1.76905
H -13.587 -6.12785 1.57523
O -13.9646 -5.18788 5.05514
H -14.8825 -4.91621 5.34419
H -13.9331 -5.24701 4.05737
O 13.2529 -10.4371 8.26908
H 13.7304 -10.9875 7.58419
H 12.4551 -10.939 8.6029
O -14.7475 -11.5565 12.508
H -13.9549 -11.0172 12.7927
H 14.723 -11.6667 13.2819
O -10.8212 -13.7203 8.09356
H -11.6592 -13.6978 8.63883
H -10.2454 -14.4789 8.3984
O -10.3532 -6.66799 7.36456
H -9.89744 -7.42068 6.88944
H -11.0799 -7.03267 7.94672
O -7.26324 -2.70833 11.9619
H -6.88057 -1.80367 12.1494
H -6.87294 -3.06603 11.1135
O -4.51241 -8.21088 13.2493
H -5.30856 -7.90525 12.7271
H -3.7634 -8.42298 12.6216
O -2.21976 -8.11042 11.9654
H -1.82068 -9.02109 11.8585
H -2.04497 -7.5711 11.1417
O -11.2707 -7.73849 11.8488
H -11.6327 -6.97359 12.3816
H -11.6923 -7.7421 10.942
O 9.66673 -5.55849 -10.2767
H 9.61216 -5.65478 -9.2828
H 10.5577 -5.17914 -10.5264
O -10.099 -4.30778 -8.84189
H -9.4012 -3.75096 -9.29252
H -9.74623 -4.64072 -7.9674
O -12.974 -5.0156 -13.4652
H -12.7728 -5.9881 -13.3479
H -12.3456 -4.4753 -12.9056
O -3.6697 1.45211 -9.15215
H -4.1594 0.714674 -9.61733
H -2.99296 1.84677 -9.77367
O -8.15607 0.493334 -9.4662
H -9.05142 0.89333 -9.27033
H -7.43774 1.12077 -9.16563
O -6.91436 -4.12839 5.15388
H -5.94443 -4.01611 4.93787
H -7.11854 -3.66954 6.01863
O -6.22108 2.45909 -8.70467
H -6.05291 2.66075 -7.73976
H -5.35739 2.2271 -9.15216
O -11.5692 -6.74029 -4.72036
H -12.3667 -7.24667 -4.39234
H -11.2378 -6.13509 -3.99653
O 15.0247 -0.993379 -3.49669
H -14.6482 -1.80791 -3.09771
H 14.2777 -1.26717 -4.10254
O -6.03826 -3.63271 -4.21573
H -5.87666 -2.98904 -3.46768
H -7.02053 -3.79522 -4.30928
O -10.0915 -1.18786 4.34989
H -10.1245 -1.57511 3.42849
H -10.7323 -1.67816 4.94067
O -8.98926 -4.26904 -5.87054
H -9.76775 -4.23516 -5.24378
H -8.95619 -3.42567 -6.40687
O 14.7307 -5.16345 -0.772566
H -14.3874 -4.99558 -0.633201
H 14.2014 -4.44075 -0.328116
O -11.3279 -8.78425 3.18643
H -11.0873 -7.81361 3.18226
H -12.2285 -8.90267 3.60464
O -12.146 -7.78682 8.93923
H -12.0778 -8.77838 9.04958
H -12.8728 -7.57332 8.28645
O -11.9245 -13.1579 5.68466
H -12.1497 -12.2019 5.87273
H -11.5107 -13.5689 6.49697
O -6.60882 -1.34398 7.1882
H -6.54783 -2.10863 7.82977
H -5.7121 -1.18223 6.7762
O -11.8213 -10.4105 9.31642
H -11.0209 -10.5743 9.8931
H -12.3995 -11.2264 9.30908
O -6.192 -3.37374 9.2332
H -5.57388 -3.94016 9.77828
H -7.05022 -3.865 9.08442
O 14.9633 2.29427 13.1969
H 15.025 3.19583 12.7687
H -14.2248 1.87134 13.2154
O -10.1453 -1.85172 12.0612
H -9.15857 -1.94665 12.1932
H -10.4042 -0.891162 12.1626
O -12.3976 -6.08559 14.0535
H -13.3044 -5.66445 14.0705
H -11.7629 -5.53214 14.5928
O -7.52758 -9.84148 9.88879
H -6.80124 -9.90389 9.20428
H -7.93591 -8.92911 9.85928
O 13.9183 -2.94901 13.6845
H 14.2206 -2.78666 14.6238
H 14.3802 -3.75793 13.3208
O -11.7764 -1.04154 -11.8259
H -11.1812 -0.399132 -12.3087
H -12.7324 -0.79932 -11.9916
O -3.10595 -7.47285 -10.7419
H -3.93829 -7.95239 -10.4639
H -3.33656 -6.76372 -11.4082
O -11.2708 -3.61793 -11.5919
H -10.8985 -3.70619 -10.668
H -11.4593 -2.65496 -11.7847
O -4.34766 -0.832668 -10.2976
H -3.78947 -1.55563 -9.89044
H -5.18669 -1.22923 -10.6701
O 12.3824 -0.348482 -8.25667
H 11.8925 -0.86524 -8.95875
H 12.4419 -0.894886 -7.42126
O -6.77205 3.15572 2.22399
H -6.05963 3.05125 1.53004
H -7.64865 3.33497 1.77738
O -9.0352 2.52514 -5.91943
H -9.38251 2.04325 -6.72391
H -8.05048 2.37119 -5.83801
O 12.7445 0.197499 1.09261
H 13.3288 0.356619 0.296782
H 12.016 0.882262 1.11355
O 8.28131 1.62987 4.32103
H 8.00236 2.3289 4.97948
H 8.0594 0.724189 4.6823
O 15.0216 -1.36218 2.20283
H 15.0337 -1.54806 3.18534
H 14.538 -0.503705 2.03198
O -11.9761 -2.16629 -1.21337
H -12.1546 -3.13375 -1.39274
H -12.182 -1.96117 -0.256522
O 12.4469 -0.00428257 4.64488
H 13.3836 -0.0161849 4.99471
H 12.3021 -0.797064 4.0528
O 9.42394 -2.8221 13.4209
H 9.10984 -2.24504 12.667
H 10.0849 -3.48912 13.077
O 13.3915 -3.73862 0.837919
H 12.509 -4.06198 1.17963
H 13.6727 -2.92976 1.3543
O -12.934 -0.985281 6.53306
H -12.4223 -0.680277 7.33628
H -12.3881 -1.64963 6.02256
O -12.8264 -0.550256 -14.8721
H -13.1902 -0.45968 -13.945
H -12.1466 -1.28333 -14.8932
O 10.5221 1.18211 6.31342
H 9.59147 1.13295 5.95068
H 11.11 0.548949 5.80992
O -4.26173 -0.371615 6.36375
H -4.06162 0.188495 7.16764
H -3.7071 -0.0584131 5.59283
O -10.1479 -2.69549 9.20051
H -10.4934 -2.45301 10.1071
H -10.2821 -1.92611 8.57595
O -12.3015 9.50357 12.6258
H -13.1044 10.0467 12.8713
H -11.8862 9.87843 11.797
O 14.8882 10.7761 -9.98272
H -14.5087 10.0924 -10.1984
H 14.0396 10.3159 -9.72157
O -10.3821 0.933546 -13.3144
H -9.38395 0.959062 -13.2598
H -10.6733 1.21538 -14.2286
O -10.3905 2.1685 7.03182
H -9.4826 2.18506 7.45068
H -10.2987 2.06848 6.04107
O -13.7232 8.39075 -10.6741
H -14.3565 7.68189 -10.3634
H -12.8232 7.98604 -10.8357
O -6.34174 12.3583 -7.41543
H -6.28648 11.8538 -8.27708
H -5.49482 12.871 -7.27447
O -13.4913 5.86789 14.768
H -12.6941 6.33026 14.3797
H -13.2071 5.31433 -14.5433
O -8.31274 8.6459 -10.0977
H -7.41753 8.26225 -10.3245
H -8.59436 8.3234 -9.19398
O -13.671 3.9947 -6.22784
H -13.7243 3.20643 -5.61481
H -13.9024 3.70977 -7.15805
O -12.2268 6.58477 -5.35777
H -11.5787 6.76926 -6.09661
H -12.8566 5.86097 -5.63981
O -13.6238 1.35361 3.47462
H -12.8552 1.12078 2.87878
H -13.7933 2.33817 3.43063
O -11.7215 9.19817 -4.31109
H -11.4377 9.0573 -3.3626
H -11.9988 8.32383 -4.70941
O -14.0995 3.90287 2.49444
H -14.518 4.25905 1.65896
H -14.6161 4.22291 3.2886
O -13.2382 1.90698 -0.388346
H -14.0738 1.36366 -0.469717
H -13.4749 2.87745 -0.34159
O -10.9265 1.39448 1.73039
H -10.6267 0.470026 1.49473
H -11.6338 1.68947 1.08792
O -12.3682 8.52321 4.31323
H -13.3376 8.30216 4.20641
H -12.2056 8.87207 5.23621
O 14.9226 0.324155 8.14551
H 14.7629 0.0134931 7.20851
H 15.01 -0.468354 8.7491
O -9.47471 6.77284 7.85059
H -10.41 6.73609 7.49849
H -9.19103 7.7272 7.9441
O -14.9745 -0.314358 5.05187
H -14.249 -0.830483 5.50705
H -14.5676 0.366226 4.4426
O -5.85126 2.10155 14.8724
H -6.00719 1.19204 -14.8364
H -6.72216 2.4895 14.5707
O -3.50994 -14.5955 12.5135
H -3.85098 -13.656 12.5465
H -3.50524 -14.9153 11.566
O -12.5557 4.59622 10.3433
H -12.5121 4.17698 9.43641
H -12.8721 3.9198 11.0083
O -13.9249 1.51036 10.4573
H -14.0215 0.74184 11.0898
H -14.4923 1.35052 9.64944
O -11.259 -0.0199432 8.64793
H -10.9742 0.847543 8.24004
H -11.405 0.105166 9.62929
O 13.5748 10.2491 -13.4721
H 12.7705 10.333 -14.0604
H 13.7005 9.29125 -13.214
O -8.46767 14.3375 -4.53458
H -8.91318 13.7028 -5.16601
H -9.10915 14.5935 -3.81137
O -13.6186 10.6537 -12.4587
H -14.4945 10.7343 -12.9344
H -13.5253 9.73031 -12.0863
O -12.3198 14.1828 -14.0561
H -11.6857 14.2668 -14.8247
H -11.909 13.611 -13.346
O 12.4543 9.37628 -9.81408
H 11.8926 9.75955 -10.5473
H 11.9176 9.33222 -8.97142
O 14.8897 7.76172 -7.52348
H -14.6621 8.59581 -7.62467
H -14.9844 7.12897 -8.26592
O -1.59843 11.6841 -3.64249
H -1.77904 12.406 -2.97448
H -1.74508 10.7914 -3.21636
O -0.239492 9.07029 -10.7551
H -0.287302 9.87482 -11.3471
H 0.204396 8.32087 -11.2464
O -12.1975 5.77834 -2.86118
H -12.2134 6.17837 -3.77756
H -11.7001 4.91111 -2.88466
O -7.69255 8.68128 -4.51476
H -7.87222 8.74781 -3.53328
H -7.46208 7.7366 -4.74814
O -8.85151 2.53628 0.280708
H -9.06154 3.42577 -0.12512
H -9.58525 2.27431 0.907615
O -10.6327 4.90956 -0.457888
H -11.3805 5.47029 -0.813567
H -10.9295 4.45053 0.379507
O 10.2404 13.1423 -2.59007
H 10.14 12.2271 -2.19994
H 11.1486 13.2327 -2.99878
O -12.6462 13.2855 4.84011
H -11.8551 13.2737 5.45171
H -12.4096 13.771 3.99846
O -14.978 7.20295 5.3698
H 14.8239 6.30203 5.04893
H 14.5637 7.47104 6.15907
O -4.10171 10.3291 -7.88528
H -4.8334 10.7299 -8.43665
H -4.38035 10.3098 -6.92507
O 14.2435 4.46304 4.75116
H 13.4542 4.08614 4.2664
H 14.3593 3.98503 5.62186
O -7.29394 12.2901 9.68599
H -8.03714 11.6881 9.9781
H -6.52985 12.2111 10.3263
O -5.247 11.099 5.52482
H -4.88644 10.4077 4.8986
H -5.37249 11.9608 5.03344
O -8.83856 13.8054 2.80332
H -8.39254 14.2339 3.58914
H -8.30988 13.9947 1.97587
O -8.57652 13.1222 13.3496
H -9.02815 13.2201 14.2364
H -7.59134 13.0193 13.4868
O -6.56646 4.99349 13.8978
H -7.30507 4.32015 13.9309
H -6.27272 5.21197 14.8284
O -11.6547 7.22562 -8.2498
H -11.7278 7.35799 -9.23832
H -11.9936 8.03989 -7.77853
O -4.16412 -12.4129 -11.0969
H -3.95922 -12.2615 -10.1299
H -4.35395 -13.3828 -11.2496
O -7.78209 -14.5494 -10.5531
H -6.80346 -14.6978 -10.6955
H -8.10415 14.9559 -9.81183
O -10.8097 -11.5513 -9.20312
H -11.0996 -11.5421 -10.1601
H -10.5366 -12.4784 -8.94645
O -4.79518 14.8741 -7.49128
H -5.06686 -14.8764 -6.59233
H -5.57688 14.9142 -8.11366
O -7.43567 -14.8079 4.47626
H -7.05053 15.0375 5.36499
H -7.29062 -13.8324 4.31132
O -10.9065 8.84999 -1.64205
H -11.4694 8.43711 -0.926
H -11.0011 9.84494 -1.60822
O -5.69673 14.3946 -4.46944
H -5.36959 13.5058 -4.14843
H -6.69508 14.382 -4.52544
O 3.22775 -12.588 -1.53872
H 2.57314 -12.107 -2.12192
H 4.13442 -12.5572 -1.95945
O -9.55751 13.3655 -14.2887
H -9.70355 12.4793 -13.8491
H -9.40003 14.0626 -13.5892
O -9.30361 11.5455 0.877311
H -8.86045 12.4375 0.787303
H -8.62671 10.8219 0.742482
O -3.39021 10.0773 0.208702
H -2.59707 10.669 0.0645046
H -3.11377 9.27084 0.731398
O -0.714936 -10.1078 -7.3676
H -0.418907 -10.1033 -6.41242
H -1.58259 -10.5989 -7.44537
O -10.0447 -7.5734 -7.1307
H -10.8298 -7.46361 -6.52115
H -9.19912 -7.48707 -6.6039
O -11.3398 -10.5064 -4.63852
H -12.0071 -9.7814 -4.46822
H -11.5703 -11.3079 -4.08674
O -6.7784 10.3744 0.684482
H -6.73964 10.1748 1.66361
H -5.99405 10.9393 0.428147
O -4.71578 12.6633 1.44807
H -4.05488 12.1683 0.884021
H -4.22857 13.2503 2.09469
O -4.80995 10.2296 -2.77161
H -3.9285 9.84847 -2.4927
H -4.87961 10.2131 -3.76906
O -8.367 -12.7893 -2.36488
H -9.1363 -12.4547 -1.8206
H -8.4416 -12.4385 -3.29837
O -3.48581 -12.5383 -0.294312
H -3.60612 -12.1568 0.62218
H -4.12607 -12.0994 -0.924763
O -6.89751 -14.7128 7.11023
H -7.66033 14.9531 7.59475
H -6.07532 -14.7569 7.67775
O -3.07841 14.3956 2.86338
H -2.31138 14.3766 2.22202
H -2.78441 14.8149 3.7223
O -8.28805 11.3205 4.12933
H -8.53476 11.9661 3.40654
H -7.92126 11.8218 4.91303
O -8.06879 -9.70599 3.68815
H -8.56948 -9.34863 2.89973
H -7.55596 -8.96473 4.12123
O -3.02807 13.6261 14.4834
H -3.25101 14.2936 13.773
H -2.4525 12.9061 14.0956
O -8.41086 -12.4214 7.77823
H -7.87743 -13.1568 7.36033
H -9.37568 -12.683 7.80463
O -5.77924 -7.58063 4.05382
H -6.22194 -6.70046 4.22511
H -4.81528 -7.52513 4.31403
O 0.0998094 -7.68187 -12.6313
H 1.04656 -8.00378 -12.6384
H -0.492697 -8.38021 -13.0329
O -4.19852 -11.8875 13.3481
H -4.27011 -11.7261 14.3324
H -4.82628 -11.278 12.8638
O -3.73603 -7.11182 7.42394
H -4.53647 -7.70247 7.52615
H -3.32391 -7.26151 6.52519
O -9.9097 12.3376 -5.90904
H -10.8988 12.3801 -6.05043
H -9.53669 11.5489 -6.39774
O -4.03029 -5.92494 -13.0043
H -4.20792 -4.98914 -13.3088
H -3.62406 -6.44787 -13.7537
O -1.93165 14.6361 -8.03396
H -2.84275 14.9212 -7.73625
H -1.61558 13.8795 -7.46164
O -2.6566 -6.94282 -5.12288
H -3.38953 -6.26336 -5.15697
H -2.02057 -6.78521 -5.87828
O -13.7505 -7.44207 -7.88823
H -14.4873 -7.74725 -8.49153
H -13.3506 -8.23254 -7.42425
O -5.90449 -2.57745 -1.41846
H -5.98035 -2.1651 -0.510587
H -6.50251 -3.37713 -1.47236
O 2.0863 -11.3584 0.93693
H 2.34172 -10.3927 0.889314
H 2.53432 -11.8586 0.195931
O -7.68126 -6.83988 -5.75818
H -8.29326 -6.05084 -5.70452
H -7.31302 -7.03847 -4.84989
O -6.61822 -7.29982 -2.89138
H -7.45206 -7.81918 -2.7043
H -5.91127 -7.55551 -2.23195
O -9.08309 -5.97565 0.718594
H -9.69039 -5.86781 1.50573
H -9.29063 -6.83591 0.252865
O 4.01149 -9.18843 2.9529
H 3.92982 -9.08865 1.96124
H 3.3883 -8.54996 3.40458
O -0.28536 -9.57221 3.87313
H -0.112081 -10.3875 3.32057
H -0.298765 -9.82238 4.84125
O -4.49069 -12.7543 2.33572
H -4.85184 -12.4012 3.1988
H -3.6256 -13.2266 2.50474
O -0.944379 -12.7612 -11.9904
H -0.85588 -13.1494 -11.0731
H -1.91058 -12.6019 -12.1932
O -3.99018 -12.1154 10.6656
H -3.93567 -11.7806 11.6063
H -3.10299 -12 10.2188
O -5.24127 13.5555 4.47
H -6.02691 13.9916 4.03119
H -4.41752 13.7335 3.93171
O -9.19084 -9.50574 6.25602
H -8.95114 -9.74622 5.31542
H -9.70704 -10.2553 6.67047
O -10.3283 -5.20753 -14.2631
H -9.91478 -5.66474 -13.4757
H -9.61124 -4.9344 -14.9044
O -7.50087 -12.3134 3.75926
H -7.75205 -11.346 3.72557
H -7.59721 -12.7147 2.84839
O 0.26341 -5.80104 9.86989
H 0.780068 -5.1395 9.32634
H 0.436605 -5.64158 10.8418
O -6.32832 -10.5569 12.3375
H -6.60122 -9.77559 12.8988
H -6.74599 -10.479 11.4322
O 0.0601653 2.70029 -14.7404
H -0.359247 2.29645 -13.9274
H 0.135558 2.00613 14.6378
O -6.00663 -0.434236 -14.1662
H -5.12127 -0.272859 -13.7302
H -6.04976 -1.3781 -14.4938
O 1.99006 -2.80969 15.0354
H 2.9053 -2.4844 -14.8209
H 1.37651 -2.6771 -14.2802
O -2.87176 -3.22388 -10.0381
H -3.40797 -3.87731 -10.5724
H -1.89779 -3.37428 -10.2078
O -1.79306 -5.91129 -7.5511
H -1.42105 -6.27566 -8.40483
H -2.01721 -4.94415 -7.67111
O -7.39912 -9.56493 -6.00498
H -6.59131 -9.92135 -5.53548
H -7.34259 -8.56778 -6.0552
O -0.648718 -0.789685 -7.06163
H 0.0743379 -1.08927 -6.43917
H -0.84094 0.179476 -6.90737
O -7.77566 -7.82443 -10.9533
H -8.46111 -8.21716 -10.3402
H -6.87039 -8.17014 -10.7063
O -5.21126 -8.26634 -9.34422
H -5.10415 -9.126 -8.84468
H -5.52923 -7.55439 -8.71809
O -4.4755 0.472866 -5.23885
H -4.66841 0.346992 -4.26573
H -4.86318 -0.289622 -5.75686
O -2.48651 3.82238 0.651705
H -2.89167 4.21722 1.47631
H -1.52129 3.62082 0.818244
O 3.35207 -6.73577 4.13191
H 3.57083 -6.8865 5.09599
H 4.08726 -6.21232 3.70119
O -12.376 -7.23803 0.390711
H -11.4893 -7.68679 0.279966
H -13.1004 -7.92748 0.394154
O -4.12964 -3.99369 3.67872
H -4.24233 -3.02366 3.46342
H -3.74415 -4.46818 2.88734
O -8.28169 -0.0231995 1.54513
H -9.02895 -0.675418 1.41774
H -8.26506 0.618569 0.778404
O -10.7727 -6.22117 2.95931
H -11.7064 -5.87934 2.85263
H -10.2947 -5.67573 3.64779
O -6.86481 -6.06491 10.8076
H -7.30455 -6.4735 11.6075
H -7.56365 -5.69261 10.1969
O -14.0266 -9.2479 4.14167
H -14.4733 -10.1138 3.91663
H -14.5406 -8.49232 3.73556
O -12.2522 -4.92953 -1.21122
H -12.3408 -5.70646 -0.587887
H -11.3785 -4.9877 -1.69419
O -9.81748 -11.0421 10.9463
H -9.64112 -11.8595 11.4947
H -9.05132 -10.8876 10.3225
O 0.604221 -4.98197 -12.878
H 0.183082 -5.88607 -12.8053
H -0.110048 -4.28249 -12.9018
O -0.547129 -0.517652 -9.68538
H -1.0595 -1.23387 -10.1592
H -0.623978 -0.651009 -8.69729
O -2.4495 -6.06865 9.71574
H -1.45216 -6.01066 9.67133
H -2.81453 -6.23939 8.80052
O 2.89086 2.94757 -14.869
H 1.93679 3.06478 14.9494
H 2.92657 2.52635 -13.9627
O -2.07458 2.28653 -11.132
H -1.08678 2.44138 -11.1147
H -2.43721 2.54751 -12.0267
O -3.49105 -0.316544 -13.1057
H -2.61754 0.000411216 -13.4752
H -3.4581 -0.294075 -12.1065
O -2.70624 7.01108 -11.6434
H -2.11976 7.35301 -12.3777
H -3.27108 6.26193 -11.9895
O -6.29236 -2.79013 -11.6566
H -5.57121 -2.64271 -12.3336
H -6.00836 -3.50468 -11.0173
O -4.48306 5.6496 -8.72946
H -4.19213 5.85434 -9.66405
H -4.96075 6.44107 -8.34813
O -3.04797 6.96248 -3.28055
H -3.53565 6.66885 -2.45838
H -2.50528 6.2014 -3.63587
O 0.460165 5.45235 -7.36241
H -0.485921 5.74595 -7.49932
H 1.04074 5.85896 -8.06784
O -3.28104 4.40315 -6.71237
H -3.77676 3.55898 -6.50829
H -3.54835 4.73639 -7.61653
O -7.61127 3.4745 -11.0416
H -7.22882 3.34596 -10.1266
H -7.76973 2.58249 -11.4649
O -8.30993 -2.15562 -7.19279
H -7.96145 -2.33975 -8.11185
H -7.58904 -1.73665 -6.64071
O -3.07887 3.60048 -2.42286
H -2.1764 3.82479 -2.79062
H -3.01656 3.49007 -1.43093
O -4.68698 2.25073 0.176463
H -4.21262 2.99605 0.644976
H -4.17131 1.40193 0.293206
O -5.75802 0.954268 3.52489
H -6.47447 0.353113 3.87892
H -6.17113 1.79518 3.17528
O -10.4006 -1.65327 1.47645
H -10.0449 -2.4807 1.04188
H -11.4002 -1.66886 1.45487
O -4.32176 4.85491 5.85265
H -5.20479 5.09365 6.25671
H -3.61818 5.47568 6.19854
O -3.4257 -2.94955 6.27817
H -3.32235 -3.10438 5.29565
H -3.60093 -1.97944 6.44611
O -1.80053 -2.57443 8.43049
H -2.36932 -2.75859 9.23211
H -2.34322 -2.70206 7.6003
O -1.51378 0.122407 9.29255
H -1.6626 -0.809264 8.9611
H -2.2901 0.696658 9.03259
O -3.95334 -1.06611 3.15822
H -4.38812 -0.250521 3.54005
H -3.07198 -1.2149 3.60665
O -3.14347 -2.47646 10.8157
H -3.87623 -1.80525 10.7037
H -3.53683 -3.36004 11.0699
O 0.351937 0.79335 13.6413
H -0.509868 0.808093 13.1342
H 0.988326 0.161607 13.1986
O -6.43236 -2.9947 14.8362
H -5.7046 -3.61301 14.5395
H -7.25752 -3.52294 15.0365
O -0.762603 -6.19742 -10.2786
H -0.0128238 -6.60734 -10.798
H -1.60061 -6.7206 -10.4336
O -11.0135 -2.52807 -14.9712
H -10.4962 -2.57567 14.2684
H -10.8628 -3.36393 -14.4433
O 0.890324 -2.54568 10.2094
H 1.4953 -3.18739 9.73796
H 0.00158286 -2.52762 9.75129
O -8.28392 2.79876 13.9157
H -9.02653 3.36385 14.2752
H -8.44588 2.61252 12.9466
O -3.60403 1.70874 8.29715
H -4.57251 1.48535 8.40743
H -3.46433 2.68287 8.47483
O -8.57103 5.11072 -12.9231
H -8.2975 4.36181 -12.3195
H -8.02948 5.92428 -12.7113
O -6.42215 6.60587 -2.89906
H -6.22949 5.69602 -3.26657
H -7.34086 6.61823 -2.50429
O 1.35473 4.71295 -3.47124
H 1.91119 4.17694 -4.10611
H 0.386816 4.58878 -3.68976
O -3.43751 5.3791 14.7985
H -3.09262 5.15784 13.8863
H -3.98003 6.21804 14.7553
O -8.50221 7.79403 -7.33774
H -7.50409 7.85485 -7.32889
H -8.79428 7.02435 -6.77002
O -14.4491 1.53532 -4.84047
H -14.9156 1.41615 -5.71694
H -14.4049 0.65707 -4.3643
O -9.02636 5.0981 -5.80619
H -9.32736 4.15269 -5.93116
H -9.00608 5.3152 -4.83024
O -4.83864 7.44224 -0.565967
H -5.53237 7.12897 -1.21452
H -4.43034 8.29208 -0.899257
O 14.8462 0.839351 -7.46416
H 13.9239 0.674024 -7.81359
H -14.8664 -0.0155859 -7.11263
O -5.26083 -0.279133 -2.70815
H -5.65779 0.591999 -2.41906
H -5.63833 -1.01871 -2.15089
O -9.93061 1.99002 4.44324
H -9.43279 1.12273 4.4459
H -10.5167 2.03543 3.63428
O -7.09608 5.80674 6.40159
H -7.87623 6.31032 6.77279
H -7.32928 5.45057 5.49672
O -8.10982 4.63009 4.13534
H -7.60909 4.45249 3.28814
H -8.61874 3.81087 4.39972
O -11.5313 10.2271 2.36399
H -10.5523 10.4175 2.43695
H -11.8431 9.76214 3.19259
O -8.29668 5.15106 9.66219
H -8.17926 5.71982 10.4763
H -8.90632 5.61295 9.01798
O -12.7072 3.64165 7.62989
H -12.0082 2.97635 7.36775
H -13.6103 3.29203 7.38045
O -5.82764 4.10654 11.1565
H -5.87088 4.61978 10.2993
H -5.95081 4.73264 11.9265
O -6.33619 0.827109 8.69582
H -6.64297 1.68433 8.2822
H -6.62354 0.059196 8.12332
O 0.187181 2.46454 9.464
H 0.888332 2.10577 10.0802
H -0.525733 1.77559 9.33315
O -5.01895 5.14062 -11.9678
H -4.57841 4.65898 -12.7254
H -5.75837 4.57703 -11.5995
O -5.72564 11.2538 -9.9824
H -6.69409 11.1725 -10.218
H -5.20341 11.4995 -10.7991
O -5.31442 8.12918 -11.029
H -4.91716 8.91085 -11.5099
H -4.75541 7.31674 -11.1947
O -7.75396 0.505949 -12.1225
H -7.79208 0.284455 -11.1481
H -7.37546 -0.270564 -12.6263
O -1.41724 11.4995 13.3625
H -0.435623 11.669 13.2746
H -1.78669 11.2139 12.4783
O -10.0781 4.66502 15.0054
H -9.46145 4.8478 -14.323
H -10.6003 5.49112 14.7935
O -5.56629 10.5196 -5.42734
H -5.97594 11.2704 -5.94562
H -6.27684 9.86362 -5.17282
O -1.66314 -14.0535 -4.78648
H -0.676312 -13.9494 -4.91034
H -1.84585 -14.4559 -3.8894
O -10.0519 12.8657 -9.78833
H -9.40201 13.3767 -9.22568
H -10.6952 12.3799 -9.19654
O -9.02628 6.75176 -2.39251
H -9.95221 6.40075 -2.253
H -8.91288 7.60472 -1.88297
O -1.01947 -13.134 -1.00786
H -0.715242 -12.4122 -1.62949
H -1.95777 -12.9488 -0.715784
O -11.1675 11.8336 -12.3153
H -11.97 11.2622 -12.1429
H -10.9608 12.3729 -11.4989
O -1.06917 14.745 0.894409
H -0.471392 14.9673 1.66465
H -0.936051 -14.6783 0.164771
O -7.64782 -0.203071 5.0494
H -7.39587 -0.642592 5.91158
H -8.60341 -0.408012 4.83757
O -13.2833 9.38181 7.3865
H -13.6014 9.92737 6.61112
H -13.8864 9.53248 8.1698
O -11.2212 4.85752 5.21822
H -11.5874 4.11063 5.77325
H -11.198 5.69648 5.76192
O -5.97254 6.67171 1.88433
H -6.52801 7.41686 2.25341
H -5.59267 6.94526 1.00065
O -4.73806 9.23347 3.62472
H -5.58137 8.78735 3.92444
H -4.30367 8.68135 2.91304
O -5.86295 9.51914 12.5546
H -6.82024 9.73409 12.748
H -5.30653 10.3419 12.6708
O -12.2285 6.68384 6.90965
H -12.8023 7.49446 7.0269
H -12.7251 5.87546 7.22576
O -3.96679 10.4099 8.28141
H -4.03984 11.1583 7.62215
H -4.60767 9.68343 8.03336
O -8.83144 10.5958 12.6555
H -8.66743 11.565 12.8389
H -9.69514 10.4914 12.1624
O -8.12361 6.60066 11.8797
H -8.68797 7.40372 12.0711
H -7.68077 6.29588 12.7229
O -10.5532 0.864335 11.9271
H -10.0671 1.61631 11.4819
H -11.1947 1.23383 12.5994
O -8.64613 2.73395 10.9426
H -8.83918 3.61829 10.5175
H -7.90062 2.2836 10.4512
O 2.97118 13.8076 14.0653
H 2.94069 14.6853 13.5871
H 3.65454 13.2174 13.6355
O -1.74291 12.9173 -13.0841
H -2.33559 13.0006 -12.2829
H -2.24143 13.2114 -13.8995
O -0.177339 -13.8946 -9.468
H 0.722851 -14.2177 -9.17597
H -0.882539 -14.3054 -8.89014
O 0.763426 11.4054 -13.216
H 0.115344 12.1567 -13.091
H 0.901869 11.2438 -14.1931
O 1.60721 14.0851 -6.96643
H 1.01692 13.2867 -6.84732
H 1.38723 14.769 -6.27082
O 3.94871 -10.4865 -8.73634
H 3.93345 -11.0376 -7.90202
H 3.01627 -10.2125 -8.97192
O -6.61279 -11.3678 -11.4137
H -7.13889 -11.8426 -10.7082
H -5.66423 -11.6837 -11.3914
O 2.77153 -2.27749 -7.76805
H 2.36814 -2.00034 -6.89599
H 2.89916 -1.47227 -8.34714
O -4.37886 -12.343 -8.49076
H -5.35832 -12.1708 -8.38573
H -4.0718 -12.9693 -7.7742
O -1.46013 -11.3588 5.77236
H -0.95098 -10.9522 6.53094
H -1.48418 -12.3525 5.88174
O -1.51981 -12.2354 2.71918
H -1.53522 -11.7961 3.6174
H -0.830089 -12.9595 2.71405
O 6.58488 -14.2131 -14.449
H 6.99906 -13.7419 -13.6702
H 6.90864 -13.799 14.7944
O -5.46702 3.84558 -3.35851
H -4.56002 3.77278 -2.94369
H -6.11236 3.27439 -2.85127
O -1.71969 -12.042 9.17384
H -0.914019 -12.3665 9.66945
H -1.56923 -11.1001 8.87335
O -2.10447 -14.8096 5.37759
H -2.69141 -14.5433 6.14217
H -1.33836 14.7402 5.71934
O 1.41618 -10.4717 6.47228
H 1.13975 -11.2223 7.07243
H 2.02687 -10.8208 5.76151
O -2.1305 9.68029 4.39006
H -3.10433 9.60059 4.17716
H -1.9832 9.47692 5.35803
O 0.573812 -13.0251 10.7392
H 0.372411 -13.4739 11.6099
H 1.51399 -13.231 10.4677
O 2.76601 14.4412 11.1227
H 3.00567 14.1186 10.207
H 3.5489 14.9165 11.5242
O -0.369886 14.3698 9.71804
H -0.184289 13.6079 10.3386
H -0.0702319 -14.8692 10.1411
O -1.50209 9.15003 7.07873
H -2.15967 8.50338 7.46531
H -0.754946 9.29368 7.72769
O -3.34576 14.4079 9.9095
H -3.84356 14.4115 9.0422
H -2.36277 14.3713 9.72946
O -5.08062 -12.0535 5.25322
H -4.74685 -11.1171 5.36124
H -6.04839 -12.0355 5.002
O -6.36113 -13.1765 9.81185
H -6.77653 -12.6809 9.04908
H -5.58838 -12.6518 10.169
O -5.70822 12.9895 12.8771
H -5.28677 13.8728 13.0824
H -5.29872 12.6096 12.0476
O 0.831472 -5.88636 12.4871
H 1.21676 -5.27383 13.1773
H 0.611776 -6.76652 12.9079
O 2.99047 -14.6698 -8.93883
H 2.51306 15.0455 -8.14596
H 3.13395 14.7036 -9.6171
O 2.51642 -9.50019 -11.6251
H 2.41774 -9.89395 -12.539
H 1.73277 -9.76336 -11.0624
O -6.61974 -9.32607 -12.9481
H -6.67657 -10.0458 -12.2562
H -6.90639 -8.45559 -12.548
O -3.98648 -4.44492 -5.82978
H -3.72242 -3.54786 -6.18414
H -4.57191 -4.32728 -5.02763
O -1.6191 -5.65206 -2.54001
H -1.90147 -6.093 -3.39199
H -0.807013 -5.09299 -2.70728
O -0.64259 -10.4071 12.1506
H -0.791998 -10.838 13.0405
H -0.216775 -11.0648 11.5291
O -2.21131 9.2439 -2.23361
H -1.62045 9.28795 -1.42803
H -2.22671 8.30775 -2.58489
O -1.27801 -7.25199 -0.239799
H -0.630929 -7.96672 -0.50526
H -1.70218 -6.86548 -1.05877
O 9.7313 -10.3488 -1.61843
H 9.98627 -10.5006 -0.663473
H 9.12971 -9.55234 -1.6802
O 8.03752 -8.36401 -0.370729
H 8.37383 -7.45312 -0.609888
H 7.97053 -8.44408 0.623816
O -1.15561 -9.23755 8.17218
H -1.80991 -8.59198 8.56608
H -0.299062 -8.76259 7.97033
O -5.96018 -11.5008 -1.74154
H -6.82628 -12.0006 -1.75154
H -5.74357 -11.1907 -2.66727
O 1.48016 -7.55763 6.22854
H 1.46733 -8.55756 6.22544
H 2.33509 -7.23652 6.63597
O 3.6244 -6.09961 -1.50652
H 3.06358 -5.49259 -0.943473
H 3.03329 -6.74033 -1.99652
O -2.20403 -8.04484 2.0883
H -2.05118 -7.9281 1.10696
H -1.68084 -8.83161 2.41585
O -3.66531 -9.66134 5.3145
H -2.76989 -10.1064 5.30338
H -3.59894 -8.76787 4.87028
O -1.19479 -11.8552 14.9545
H -1.03121 -12.4378 -14.3435
H -1.36163 -12.4272 14.1514
O -4.68511 -7.99366 -1.13172
H -4.20235 -7.12391 -1.0293
H -4.99855 -8.30843 -0.235787
O -7.53267 -12.989 13.0147
H -7.3927 -13.2278 13.9757
H -7.03775 -12.1457 12.8054
O -2.1661 -6.60421 14.6111
H -2.23848 -7.42767 -14.9203
H -2.11279 -6.86321 13.6467
O 0.785498 -6.85655 3.12352
H 0.333959 -7.7487 3.13796
H 1.54908 -6.85895 3.76924
O 2.40513 -9.50563 10.2857
H 3.24275 -9.30068 10.792
H 2.4534 -9.0878 9.37841
O 7.08 0.655513 -14.6104
H 8.01061 0.298084 -14.6894
H 7.04569 1.58169 -14.9859
O 1.15067 -8.42558 13.3406
H 2.03204 -8.76424 13.0112
H 0.423209 -9.0426 13.0404
O 1.57906 -1.60282 -5.24121
H 1.99339 -0.821516 -4.77439
H 1.63675 -2.41058 -4.65452
O -1.41401 -3.95425 -14.8808
H -1.68623 -3.48526 14.3731
H -1.49586 -4.94259 -15.0092
O 0.108721 0.681725 -12.258
H 0.0503139 -0.00184201 -12.9856
H -0.198806 0.27834 -11.3962
O -4.58073 -9.86886 -14.7016
H -5.38227 -9.4974 -14.233
H -4.4156 -9.35102 14.5531
O -1.90551 -9.07023 -14.6291
H -1.49868 -9.48026 14.6486
H -2.85367 -9.37535 -14.5401
O 4.69458 14.8716 0.53679
H 3.72492 14.83 0.295874
H 5.11084 13.9727 0.40018
O 4.87962 -5.93029 -5.71779
H 4.99553 -5.12075 -6.29332
H 5.16644 -6.74332 -6.22448
O -3.52726 -9.06881 -3.36681
H -3.99438 -8.66327 -2.58109
H -3.2884 -8.35019 -4.01992
O -1.16278 -9.78066 -2.00387
H -2.13385 -9.77801 -2.24269
H -1.0541 -10.0717 -1.05335
O -3.06131 -2.34742 -7.4634
H -2.30517 -1.75521 -7.18493
H -3.00645 -2.51767 -8.44728
O -5.80411 -1.62647 -6.13336
H -5.91785 -2.11282 -5.26702
H -5.0139 -1.99636 -6.622
O -0.909011 -6.74918 5.34902
H -0.149344 -6.98631 5.95457
H -0.554828 -6.53136 4.43955
O -4.33941 -13.3951 -5.35758
H -3.36559 -13.4688 -5.14249
H -4.84628 -14.093 -4.85168
O -0.127487 2.86142 -7.10276
H -1.0964 2.62082 -7.04503
H -0.0146888 3.83734 -6.916
O -3.32994 -7.01599 4.71564
H -3.42479 -6.03282 4.5594
H -2.36028 -7.25045 4.78501
O -8.88985 -4.31481 13.6315
H -8.36827 -3.74516 12.9963
H -8.81625 -5.27355 13.3569
O 5.34902 -11.6177 9.33578
H 5.25428 -10.6261 9.42462
H 5.91425 -11.8283 8.53819
O -6.31017 -7.72384 1.14523
H -6.22532 -7.6932 2.14116
H -6.30691 -6.79229 0.781612
O 4.27696 -7.92146 6.56169
H 4.75065 -7.10031 6.88003
H 4.94808 -8.59169 6.24481
O -5.78824 -9.27333 7.25671
H -6.71835 -9.06128 6.95681
H -5.18493 -9.32458 6.46084
O 2.22511 -4.37636 8.4566
H 1.36692 -4.39908 7.94375
H 2.96589 -4.72495 7.88236
O 6.45225 5.84642 13.6037