2611
Atoms. Timestep: 4998000
O 7.43106 -8.62578 4.97336
H 8.03519 -9.3192 4.58075
H 6.84915 -8.24519 4.25469
O 4.5181 -5.84265 15.0101
H 5.01407 -5.74425 -14.3839
H 4.52299 -4.97021 14.5215
O -5.80179 8.9733 2.58653
H -6.14259 8.13942 2.15241
H -5.10954 8.7354 3.26781
O -5.75592 -5.27087 5.78726
H -5.26526 -4.57688 5.26039
H -5.61618 -6.16802 5.36828
O -13.6416 12.2062 0.46396
H -12.7489 11.7581 0.416072
H -13.7624 12.7946 -0.335493
O -8.31025 10.6353 -13.1482
H -8.66872 9.74948 -12.8535
H -8.41499 11.3 -12.4085
O 1.35251 12.0672 10.1639
H 2.28415 12.206 10.4998
H 1.34341 12.1398 9.16665
O -3.80245 1.03495 -10.1648
H -2.92492 1.46881 -9.96071
H -4.51077 1.42156 -9.57423
O 11.2351 -7.62993 -5.75715
H 12.0925 -7.54631 -6.26503
H 11.4057 -7.46456 -4.78579
O 4.23822 -11.869 6.79733
H 5.022 -12.4899 6.78408
H 3.45054 -12.3352 7.20013
O -12.4246 12.4338 4.3802
H -12.0745 12.8357 5.22629
H -12.2254 13.0445 3.6138
O 10.6139 -11.8036 -0.14425
H 10.8046 -11.0123 -0.725213
H 9.62515 -11.909 -0.0385552
O 11.9983 3.74805 -7.14289
H 11.1231 4.02137 -7.54203
H 12.138 2.76816 -7.28519
O -7.23922 -9.42096 -13.2864
H -8.03964 -9.57202 -13.8665
H -6.91358 -8.483 -13.4054
O 9.80547 2.36588 -4.78495
H 10.261 1.98731 -5.59066
H 9.58262 3.32684 -4.94877
O -3.37913 -4.54852 12.5952
H -3.42966 -5.39554 12.0661
H -2.91566 -3.84564 12.0556
O -1.06901 0.0818491 -13.7445
H -0.563613 0.942251 -13.6794
H -1.58748 -0.064746 -12.9021
O -11.2648 5.67298 9.44286
H -10.694 5.80486 10.2533
H -12.2283 5.76048 9.6959
O -14.0684 -1.6078 7.74912
H -13.8659 -1.77002 6.78339
H -13.4181 -2.11396 8.31561
O -11.6374 -9.78681 12.7141
H -11.6695 -10.344 11.8843
H -10.7745 -9.28239 12.7437
O 10.2034 -7.78179 -0.405677
H 10.3452 -8.62577 -0.922914
H 9.37233 -7.32876 -0.72836
O 3.51369 8.14004 6.5919
H 4.51136 8.1466 6.6595
H 3.21806 7.31868 6.10411
O 1.80119 -8.40223 3.66411
H 2.21382 -9.18106 4.13647
H 1.7677 -7.61703 4.28241
O 8.35859 1.80011 -2.67682
H 8.77125 1.88747 -3.58348
H 8.88157 2.34202 -2.01896
O 0.370395 10.4845 4.58082
H 1.00332 10.7978 5.2888
H 0.350262 11.1492 3.83396
O -1.32821 -2.45862 -5.45845
H -0.367569 -2.20836 -5.33808
H -1.38691 -3.33706 -5.93264
O 4.82655 11.6488 -5.95434
H 4.61452 12.1283 -6.80586
H 4.6983 10.6657 -6.0846
O -1.53942 14.1103 2.85927
H -1.60047 14.6964 3.66716
H -2.40175 14.1478 2.35435
O 2.6604 5.72897 14.0843
H 2.63269 6.71057 13.8955
H 3.03844 5.57571 14.9973
O -13.2145 -2.59784 -12.3593
H -13.5106 -3.55298 -12.3601
H -14.0049 -2.00373 -12.5084
O 4.93502 -5.48179 1.67451
H 5.49136 -4.69177 1.93201
H 5.12284 -6.2396 2.29934
O 12.6899 0.596465 8.40674
H 13.0771 0.498269 7.49
H 11.9854 1.30603 8.39674
O -7.11131 5.49143 -10.4228
H -7.64431 4.64978 -10.5094
H -6.74528 5.56013 -9.49471
O -11.0191 -12.2927 1.15978
H -11.0113 -13.2558 1.42855
H -10.4492 -11.766 1.79047
O 11.525 -14.8371 -4.65269
H 11.7886 -14.1951 -3.93271
H 11.6289 -14.3981 -5.54511
O -0.498603 11.9396 14.4385
H -0.0841415 11.0803 14.7381
H -0.692845 11.8922 13.4587
O -3.29188 -10.5657 2.84502
H -2.64851 -9.80093 2.80973
H -4.22552 -10.2204 2.74972
O 8.75256 5.707 -13.0864
H 8.21231 6.40135 -12.611
H 9.58677 5.52073 -12.5674
O 4.15147 0.415248 -10.7497
H 3.49685 0.297435 -11.4963
H 3.86076 -0.128784 -9.96259
O 0.331374 14.915 13.8667
H -0.0828904 14.276 13.2186
H 0.821143 -14.6288 13.365
O -6.13065 12.1256 -2.27398
H -5.53241 11.4923 -1.78306
H -5.58793 12.6665 -2.9165
O 3.82131 -9.86686 -0.810704
H 3.80917 -8.99446 -0.322103
H 3.65215 -9.70662 -1.78316
O -1.76881 6.15622 -15.0188
H -1.25257 6.58456 14.4964
H -2.00197 5.2178 14.9831
O 7.26686 5.04225 11.9064
H 6.35144 5.44352 11.9371
H 7.81015 5.50474 11.2058
O -12.7258 2.66076 -8.88141
H -12.0192 2.44824 -9.55631
H -12.8251 1.89213 -8.2495
O -9.24602 2.33198 -7.57544
H -9.26624 3.31395 -7.38762
H -9.68769 1.83997 -6.82522
O 1.49405 -6.67385 6.0208
H 2.47034 -6.64841 6.23569
H 1.09426 -5.77106 6.17922
O -8.49384 15.0803 -14.2982
H -7.53251 -15.0041 -14.5128
H -8.77018 14.202 -14.6885
O -14.3585 2.02136 -5.6525
H -14.5999 2.86525 -6.13155
H -15.0291 1.84323 -4.93246
O -12.7259 8.62635 9.80797
H -13.5932 9.02662 9.51224
H -11.9754 9.24144 9.56641
O 0.161914 -11.4837 5.19302
H 0.170987 -10.8292 4.43709
H 0.50467 -11.0409 6.0215
O -12.1558 -3.02631 9.25276
H -11.232 -3.39619 9.35132
H -12.7655 -3.47359 9.90712
O 1.27911 12.1186 7.42401
H 1.83492 11.5054 6.86279
H 1.08184 12.9536 6.91022
O 5.63014 6.92299 8.77217
H 5.12079 6.41473 9.46656
H 5.45001 6.52835 7.87119
O 13.363 -1.64772 5.86213
H 13.5109 -2.1303 6.72537
H 13.9601 -0.846621 5.82153
O -11.4489 -5.84479 -8.76058
H -10.9188 -5.99782 -9.59457
H -11.0528 -5.08233 -8.24903
O -0.69281 -7.59974 10.1611
H -1.59829 -8.02147 10.2079
H 0.00842264 -8.3004 10.2926
O 14.0669 3.58673 8.05528
H 14.6443 2.77192 8.00353
H 14.0322 4.02819 7.15869
O 10.844 -13.6022 -11.9962
H 10.6986 -14.2222 -12.7672
H 10.1917 -12.8462 -12.0489
O 1.73108 11.7501 -11.5389
H 1.42335 12.5693 -12.0227
H 2.71288 11.6268 -11.6832
O 14.2018 -13.663 14.4771
H 13.8419 -14.4909 14.0469
H 13.6331 -13.4218 -14.9933
O -14.0689 -1.36994 4.70817
H -14.4545 -2.21651 4.3413
H -13.3118 -1.06968 4.12804
O -11.0709 -0.158476 10.6174
H -11.3164 -0.74516 9.84568
H -11.8873 0.313367 10.9503
O -8.70128 1.15883 0.865049
H -8.45645 0.1942 0.962535
H -8.25465 1.5357 0.0536027
O 1.50175 3.80095 12.5446
H 1.91377 4.51932 13.1051
H 1.76449 3.93209 11.5887
O -10.7726 -1.65346 -12.0721
H -11.6184 -2.12767 -12.3166
H -10.927 -1.09581 -11.2565
O 5.7517 8.94679 -1.66883
H 4.88032 8.95252 -2.15936
H 5.57963 8.93389 -0.683852
O -2.33933 3.72012 -5.24029
H -3.12259 3.71534 -4.61865
H -1.70538 4.44548 -4.9721
O 3.092 4.9893 -3.98447
H 4.04693 4.69423 -3.9527
H 2.78692 5.23073 -3.06328
O -6.44494 4.16487 2.02229
H -6.39852 3.38356 2.64467
H -7.2486 4.07512 1.43404
O 12.8422 -2.1731 -3.21122
H 13.698 -1.72874 -2.94643
H 13.0268 -3.11828 -3.4805
O -12.6171 -2.04972 -9.53108
H -12.9895 -2.90409 -9.16865
H -12.4979 -2.13133 -10.5206
O 5.76553 10.4148 -9.151
H 5.62227 9.51515 -8.73869
H 6.48275 10.9002 -8.65104
O -9.80058 4.47229 2.55114
H -10.7911 4.34618 2.49728
H -9.35783 3.5844 2.67592
O -5.7185 -12.6145 -8.75589
H -6.26334 -12.6954 -9.5905
H -5.63117 -13.5133 -8.32644
O -8.16932 2.99725 -10.1468
H -8.20855 2.27977 -10.8422
H -8.66956 2.70066 -9.33333
O 2.895 2.92473 -10.5131
H 3.51814 2.36707 -11.0615
H 2.39765 3.55392 -11.1104
O 0.407112 7.58973 4.13001
H 0.368121 8.58115 4.25457
H -0.128239 7.14247 4.84647
O 10.6756 -14.5202 -14.5102
H 10.6592 -13.8576 14.9978
H 11.1879 14.9259 -14.7937
O -12.3462 11.9925 8.11127
H -12.0417 11.174 7.62397
H -13.2014 11.796 8.59082
O -9.27482 -11.4268 -3.05403
H -9.69733 -10.5554 -2.80505
H -9.0584 -11.4254 -4.03031
O 5.37895 -6.00886 -5.85542
H 4.493 -5.66016 -6.16112
H 5.83071 -6.48066 -6.61258
O -8.41093 12.1631 13.7429
H -8.09229 12.1992 12.7958
H -7.84782 11.5182 14.2597
O -6.37134 -14.7093 -3.52932
H -6.17573 -13.8258 -3.95509
H -5.52654 15.0172 -3.45882
O -10.9085 -13.0432 -1.5312
H -10.195 -12.4975 -1.97071
H -10.8936 -12.879 -0.544894
O 2.84121 -3.16053 -12.9048
H 1.91933 -3.16778 -12.5175
H 2.83822 -2.64688 -13.7628
O 5.1143 -8.09368 13.3466
H 4.8728 -7.26044 13.844
H 4.94815 -8.88943 13.929
O -14.2639 -6.81885 -10.8849
H -13.9214 -7.72947 -10.6537
H 15.0314 -6.74712 -10.6195
O -12.8202 -14.6076 14.4401
H -12.7102 14.6791 14.6564
H -13.4213 -14.1815 15.1161
O 4.94851 6.25572 -6.53941
H 4.39535 5.75633 -7.20618
H 5.57736 5.62309 -6.08743
O -6.89396 -4.3831 8.04588
H -6.47318 -4.86946 7.28014
H -6.77961 -3.39792 7.91823
O 9.52372 -7.74025 10.6695
H 9.89227 -6.85707 10.3795
H 8.60188 -7.61277 11.0355
O -14.3187 -13.3075 10.8572
H -14.7607 -13.579 10.0023
H -14.1959 -14.1115 11.4389
O -11.6144 -13.3203 -4.36535
H -11.1791 -13.4225 -3.47093
H -11.1942 -13.954 -5.0149
O 14.893 3.11436 -9.83565
H 14.5015 3.91172 -9.37646
H -14.5213 2.84232 -9.37071
O 6.078 9.6646 11.5551
H 6.37369 10.397 10.9418
H 6.60331 9.70902 12.4049
O -2.48591 8.65558 -1.10146
H -1.96696 9.05383 -0.345125
H -3.42446 8.47881 -0.805085
O -5.04011 8.14238 -0.342071
H -6.01123 8.28369 -0.534206
H -4.9248 7.30716 0.195577
O 14.0438 5.91727 -10.1388
H 13.73 5.69544 -11.062
H 14.1774 6.90519 -10.0606
O 13.0736 -10.3693 -4.78809
H 12.2123 -10.8772 -4.80314
H 13.4519 -10.3271 -5.71281
O 14.522 11.4695 6.64801
H 13.5814 11.636 6.94383
H 14.9543 12.3383 6.4067
O -4.79044 -2.99506 -4.90514
H -4.32074 -3.38155 -4.11143
H -4.20682 -2.30617 -5.33499
O -12.797 -7.68093 -6.98316
H -13.6669 -7.19274 -7.05332
H -12.0932 -7.18238 -7.48925
O -2.05908 9.83681 -9.98858
H -2.348 10.736 -9.65993
H -2.85066 9.22725 -10.0309
O -9.11952 -13.107 11.2039
H -9.91354 -13.3683 11.7527
H -9.39852 -12.984 10.2515
O -8.16836 13.3704 6.63387
H -7.23179 13.0354 6.73672
H -8.71003 13.0947 7.42795
O 11.0685 -6.35965 -12.1217
H 10.2184 -6.77185 -11.7939
H 11.4479 -6.91948 -12.8583
O -4.93275 -6.18394 8.59893
H -4.70485 -6.05228 7.63421
H -5.74366 -5.64484 8.82643
O 2.48484 5.87389 5.42915
H 1.73162 6.42405 5.06865
H 2.11598 5.1105 5.95936
O -0.244082 0.909518 -11.1572
H -0.337072 1.02334 -10.1681
H 0.707465 0.698078 -11.3804
O 12.3287 9.94456 -13.0685
H 12.2711 9.03549 -13.4811
H 13.151 10.4086 -13.3979
O -11.6292 -7.06766 0.484862
H -12.0049 -7.58461 1.25401
H -11.2322 -7.70048 -0.179864
O -7.12404 6.61292 8.5285
H -6.77426 6.80177 7.61092
H -8.07851 6.90515 8.58804
O 3.2539 -10.4306 4.61487
H 4.0201 -10.8259 5.12145
H 3.06363 -10.99 3.80815
O 7.71269 -11.4842 8.92055
H 7.17699 -12.0989 9.49947
H 7.12114 -11.0874 8.21868
O 7.40897 7.45129 -11.5813
H 7.03941 7.24572 -10.6752
H 7.66043 8.41805 -11.6272
O -3.10591 -0.59626 -6.43787
H -3.64704 0.0568235 -5.90813
H -2.34737 -0.93137 -5.87906
O 6.28503 -3.39431 -8.7666
H 5.90551 -3.02624 -7.91781
H 5.53952 -3.6796 -9.3689
O 13.5507 -5.61915 -10.0595
H 13.08 -5.54246 -10.9383
H 12.8788 -5.60413 -9.31901
O -2.92592 11.2974 7.80836
H -2.03917 10.836 7.7812
H -3.16707 11.6104 6.88974
O 6.74435 -0.418559 5.69859
H 6.9301 -0.967158 4.88342
H 7.55877 -0.396863 6.27843
O 5.80287 -11.2755 3.52739
H 4.87867 -11.4071 3.16895
H 6.23542 -10.5051 3.05906
O 12.2568 6.74234 -7.93369
H 11.3829 6.31883 -8.17255
H 12.8051 6.86441 -8.76093
O -2.49597 -1.88651 -9.21233
H -3.05845 -1.16272 -9.61195
H -2.45005 -1.76396 -8.22095
O 8.98347 14.1188 0.91534
H 9.77837 14.3795 1.46317
H 9.11642 14.4195 -0.0290525
O -4.16081 14.1072 1.98356
H -4.09969 15.0935 1.83093
H -4.99476 13.7552 1.55861
O 14.4764 14.0728 -9.78124
H 14.6543 14.8229 -10.4181
H 14.449 13.2085 -10.2835
O 7.74377 -14.1627 -14.5887
H 8.72097 -14.3551 -14.4992
H 7.23749 -15.0237 -14.6365
O 6.8913 -0.280721 -11.0821
H 7.11102 0.395315 -11.7854
H 5.90164 -0.305187 -10.9409
O -4.34755 -9.66404 12.0843
H -4.08265 -10.0344 11.194
H -4.74041 -10.3929 12.645
O -11.4956 13.0987 -9.13363
H -11.1366 12.8194 -8.24308
H -11.9262 12.3145 -9.58031
O -8.18378 -13.3574 8.01965
H -8.4063 -12.3929 8.16183
H -8.33719 -13.597 7.061
O 14.9422 -1.0241 -1.58363
H -15.0075 -1.57568 -0.808157
H 14.6768 -0.115262 -1.26187
O -4.14298 1.09307 -4.55872
H -3.66345 1.95875 -4.41514
H -4.52238 0.774167 -3.69021
O -6.03408 -3.49584 12.8849
H -5.0444 -3.63869 12.8935
H -6.2762 -2.8854 12.1308
O -13.9615 7.24247 -1.90851
H -14.9043 6.91246 -1.95476
H -13.6883 7.3378 -0.951302
O 14.5022 -14.0368 -0.102809
H 14.6897 -14.6851 0.635114
H -15.0273 -14.091 -0.78691
O 1.89748 6.98457 -5.64383
H 2.44217 7.80368 -5.82363
H 2.43559 6.3387 -5.10231
O 11.7793 -1.70384 10.0787
H 12.1024 -0.83231 9.70999
H 10.9905 -1.54284 10.6719
O 2.02115 8.79908 -7.96076
H 2.13299 8.67965 -8.94727
H 1.14252 8.41576 -7.67611
O -0.052252 -5.81897 -14.1387
H 0.619166 -5.83629 -14.8795
H 0.291321 -5.25114 -13.3907
O -5.01699 6.71851 -11.6981
H -5.6076 6.17492 -11.1017
H -5.41249 7.629 -11.8188
O 9.38563 -12.5927 -8.56939
H 8.94744 -11.8294 -9.04412
H 10.3092 -12.3271 -8.29289
O 3.48494 -9.24525 -13.2558
H 3.33673 -8.26208 -13.3624
H 2.95305 -9.73903 -13.9437
O 7.91311 -10.4075 -10.9663
H 8.85879 -10.4707 -11.2851
H 7.29456 -10.4267 -11.7517
O 3.39312 -12.3382 -12.1316
H 4.25335 -12.8415 -12.2128
H 2.62773 -12.9815 -12.1474
O 5.21111 5.35038 6.66494
H 5.84644 4.70507 6.24081
H 4.28924 4.96297 6.6593
O -5.9054 -7.9119 -6.38877
H -6.84933 -7.58349 -6.35559
H -5.73908 -8.52665 -5.6178
O 8.22956 9.92217 -6.86004
H 7.85014 10.842 -6.95917
H 7.89661 9.51412 -6.00998
O -13.882 0.428549 1.11806
H -13.0283 0.528678 0.607136
H -14.1428 -0.536426 1.14546
O -12.3479 3.72257 2.44464
H -12.7758 3.10134 3.10112
H -13.0018 3.94531 1.72157
O 9.04925 1.58262 12.5332
H 9.23058 2.4664 12.9645
H 8.13939 1.26306 12.7978
O -10.7529 2.72117 10.0925
H -10.9469 3.69675 9.98965
H -11.6044 2.22934 10.2741
O -12.6101 9.76876 3.53959
H -13.2652 9.38546 4.19071
H -12.5098 10.7497 3.70605
O -6.6958 -13.1466 3.45555
H -7.16499 -13.0857 2.57458
H -7.21345 -13.7438 4.06826
O 6.89591 14.91 9.12737
H 7.46107 -15.0639 9.90231
H 5.95208 14.7825 9.43214
O -5.18507 4.03618 -0.903804
H -5.13912 4.52976 -0.0353449
H -6.01113 3.47298 -0.923785
O 4.96445 1.96074 -6.52567
H 5.13914 2.02068 -7.50844
H 3.9909 2.10741 -6.35062
O 11.7545 7.30535 -14.2706
H 10.8301 7.47695 -14.6111
H 12.2472 6.72686 -14.9207
O -13.6424 7.83803 -5.05497
H -13.3031 7.36595 -5.86856
H -13.1818 7.47743 -4.24395
O 9.6153 9.98413 -14.0468
H 10.4977 10.1383 -13.6024
H 9.73304 9.34903 -14.8102
O 10.9132 -1.39036 -5.11862
H 10.9885 -0.540472 -4.5971
H 11.7797 -1.88733 -5.07291
O 4.96346 -0.584433 -5.05927
H 5.65134 -0.737241 -4.34975
H 4.90381 0.393243 -5.26064
O 3.86816 -11.0095 13.7842
H 4.00186 -12.0005 13.7835
H 3.10837 -10.7761 14.391
O -4.14245 -8.15253 1.63459
H -4.52798 -8.64395 2.4155
H -4.48042 -7.2114 1.63317
O 9.62448 -10.3586 4.34732
H 10.3493 -10.9128 4.75654
H 10.0261 -9.55124 3.91503
O 10.944 12.3646 -11.3973
H 11.2221 13.2839 -11.1188
H 11.4757 11.6872 -10.8891
O -9.84714 6.08717 11.6258
H -10.1923 6.9314 12.0358
H -9.03274 5.78477 12.121
O 7.31596 -13.9089 -9.72009
H 8.03973 -13.2974 -9.40046
H 7.66663 -14.8442 -9.76755
O 5.23399 -3.90675 -2.993
H 4.98625 -3.12219 -2.42462
H 6.16521 -3.78795 -3.33751
O 3.61521 -9.0456 -3.32763
H 3.78132 -9.29271 -4.28226
H 3.93759 -8.11331 -3.16373
O 7.97577 -2.94918 -11.8566
H 7.10275 -3.4227 -11.7401
H 7.8374 -1.96439 -11.7517
O 2.95129 1.08771 7.54468
H 2.95466 2.06068 7.31383
H 2.47594 0.953081 8.41409
O -0.218696 0.268545 12.4965
H -0.112159 -0.207937 13.3692
H -0.520378 1.20713 12.6638
O -7.33772 2.54996 -1.35432
H -7.96376 3.3218 -1.2434
H -7.58261 2.03781 -2.17755
O 0.404822 -1.23353 14.664
H -0.202968 -1.99603 14.4424
H 0.0187263 -0.709328 -14.8337
O -9.70705 1.05958 4.13418
H -10.3277 1.77171 4.46224
H -9.90028 0.866272 3.17228
O 6.80089 -5.85659 -10.0921
H 6.45947 -6.31712 -9.2728
H 6.98632 -4.89667 -9.8821
O 14.239 -8.25478 -6.43929
H 14.3626 -8.21653 -5.44771
H 14.5806 -7.40972 -6.85058
O 4.41813 -6.13412 6.63503
H 5.28282 -6.63357 6.68799
H 4.51491 -5.25065 7.09337
O -7.70742 -0.305661 5.67354
H -7.07282 -0.245509 4.90307
H -8.59068 0.0812943 5.40884
O -12.5542 11.0872 -10.8498
H -12.3511 10.11 -10.7874
H -13.545 11.2223 -10.85
O 5.22776 2.48818 10.7854
H 5.42799 2.48876 11.7652
H 4.2686 2.24481 10.6414
O 10.5945 -12.6249 13.9272
H 10.9401 -12.7651 12.9994
H 10.9286 -11.7503 14.2787
O 3.68114 -11.5059 1.5853
H 3.65151 -12.503 1.51463
H 3.5139 -11.1029 0.68555
O -13.2043 -6.83134 15.0687
H -13.9538 -7.47833 14.9287
H -12.5117 -7.24615 -14.598
O -12.8635 -10.4367 -7.18716
H -12.0965 -10.8702 -7.66016
H -12.7121 -9.44923 -7.14218
O 12.9248 -12.4279 -13.3052
H 12.5568 -11.522 -13.5143
H 12.2105 -12.9896 -12.8877
O -8.29526 1.88088 10.2731
H -7.82767 1.80824 9.39212
H -9.24968 2.13911 10.1235
O -1.14944 10.0222 -4.86622
H -0.582503 9.28595 -4.49688
H -1.64222 10.4698 -4.12002
O 0.373021 7.32228 -12.4163
H 0.346925 8.32181 -12.4308
H -0.529004 6.96184 -12.6538
O 2.20226 -14.1756 -5.66775
H 2.11204 -13.6593 -6.51932
H 2.21632 -13.5424 -4.8939
O 10.6738 14.7932 7.79308
H 10.2126 -14.6413 8.12655
H 10.7598 14.8397 6.79788
O 1.91644 -9.41124 -11.0472
H 1.22551 -8.73126 -11.2926
H 2.63097 -9.42773 -11.7466
O -5.84764 -9.94717 2.92473
H -6.12212 -10.9056 2.84664
H -6.54929 -9.43917 3.4243
O -3.67506 6.68794 -6.8547
H -3.50807 6.83169 -5.8793
H -2.80142 6.63926 -7.33879
O -2.38843 14.0568 8.17769
H -2.57812 14.7038 8.91617
H -2.71005 13.1472 8.44069
O -14.2504 -4.3578 -9.34545
H 15.0621 -4.41862 -9.66889
H -13.7196 -5.11705 -9.72192
O 11.2169 0.474377 -0.602063
H 11.6012 0.914014 0.209722
H 11.4448 -0.49925 -0.593231
O 3.2896 -5.12687 -7.78968
H 3.58543 -4.99188 -8.73532
H 2.82465 -4.3032 -7.4651
O -0.924064 -12.5183 -5.39073
H -0.0987656 -12.0787 -5.74516
H -0.762663 -12.8226 -4.45196
O -9.02437 4.52606 -0.613236
H -8.57467 5.34505 -0.969591
H -9.35707 4.70467 0.312707
O -2.43387 -6.53583 -9.27751
H -2.90306 -7.25913 -9.78413
H -3.10963 -5.95006 -8.8301
O 11.2923 -6.44903 -3.2133
H 12.0793 -5.86682 -3.41731
H 11.3368 -6.74764 -2.25999
O 13.703 -3.41783 11.399
H 12.8789 -3.0764 10.9472
H 13.7458 -3.05763 12.3309
O 7.9843 -12.1607 0.854004
H 7.32471 -11.7497 0.224746
H 7.5353 -12.8794 1.38487
O 4.85803 -7.15401 -0.548033
H 4.93741 -6.44652 0.154191
H 4.49093 -6.75157 -1.38663
O -11.3506 4.87594 -10.6154
H -11.2667 3.89084 -10.7654
H -11.1179 5.08963 -9.66667
O 0.598153 -4.3173 12.2106
H 0.798315 -5.09548 12.8058
H 1.44823 -3.97918 11.8068
O -5.10449 -7.6725 5.03642
H -5.75328 -8.37022 4.73276
H -4.32498 -8.11331 5.4814
O 12.4331 -9.64912 -12.1873
H 12.8947 -9.63603 -11.3003
H 12.6671 -8.82127 -12.6971
O 14.2666 -1.94182 13.9587
H 13.7245 -1.2339 14.4113
H -15.0187 -1.71711 14.0345
O 8.72804 -6.69594 15.0506
H 9.6536 -6.54573 -14.8588
H 8.17017 -7.12317 -14.4947
O -13.5298 8.30453 -13.1784
H -12.6654 8.79094 -13.3055
H -13.346 7.37967 -12.8455
O -1.20713 -12.2411 12.7974
H -1.58351 -11.3301 12.9662
H -1.3905 -12.8288 13.5854
O -2.7232 6.19064 -9.51522
H -2.28641 6.14707 -10.4137
H -3.43216 6.89581 -9.52311
O -5.26763 13.2769 -14.7437
H -5.72805 12.4367 -15.03
H -4.38624 13.0495 -14.3297
O -4.56224 -12.5901 6.74662
H -3.68461 -12.2094 6.45544
H -4.63592 -13.5364 6.43193
O -5.35047 -9.25001 -3.84187
H -6.11327 -9.18454 -3.19859
H -4.65033 -8.57894 -3.59807
O 8.2654 10.0148 -11.7977
H 8.83689 10.041 -12.6179
H 8.25645 10.918 -11.3687
O -11.2177 -12.1976 -11.5435
H -10.4251 -12.5319 -12.0535
H -12.0174 -12.7545 -11.7677
O 3.87536 9.02152 -13.9211
H 3.69015 8.09939 -13.5815
H 4.45579 9.50711 -13.2675
O 11.4922 -0.911607 3.83163
H 11.2155 -1.78886 3.43945
H 12.1951 -1.06398 4.52635
O 5.41992 -1.70985 -1.17423
H 6.35338 -2.03516 -1.02329
H 5.25159 -0.904528 -0.605836
O -0.489483 -9.98031 -3.95676
H 0.201334 -9.33263 -3.63545
H -0.388842 -10.1131 -4.94276
O -13.1606 -9.26402 8.8975
H -12.7793 -8.34138 8.95478
H -13.2598 -9.52467 7.93719
O -8.71842 9.92446 9.29174
H -7.91566 10.1318 8.73269
H -8.94171 8.95341 9.20715
O -1.94055 -9.6226 13.0476
H -1.82996 -8.99825 13.8208
H -2.84013 -9.48413 12.6334
O 10.4181 -2.91198 -8.16385
H 10.5336 -2.55521 -9.09085
H 10.0748 -2.18622 -7.56775
O 6.40115 -13.5779 6.98021
H 7.08568 -13.4671 6.25971
H 6.84974 -13.8739 7.8235
O -8.07631 -11.336 -5.65045
H -8.5583 -10.5436 -6.02442
H -8.23639 -12.1305 -6.23619
O 7.21522 4.07058 2.91412
H 7.83371 3.28515 2.89109
H 7.53284 4.72491 3.60037
O 9.18863 8.07761 -8.90576
H 9.5101 8.51446 -9.74587
H 9.13819 8.75789 -8.17458
O 3.47937 14.2554 -10.8949
H 3.55977 14.3079 -9.89951
H 4.31578 13.8622 -11.2766
O -4.39989 3.86353 -3.5335
H -4.45266 3.78557 -2.53796
H -5.26594 4.21754 -3.88648
O 5.74222 11.3163 6.40628
H 5.77947 10.662 7.16158
H 6.41178 12.0427 6.56122
O -9.20349 -10.4012 -15.0264
H -8.89942 -10.9247 14.4345
H -10.1969 -10.475 -14.9385
O 8.8523 -7.4616 -11.0477
H 8.47725 -8.38155 -10.9337
H 8.14723 -6.7854 -10.8341
O -5.39726 9.5029 -11.9762
H -4.99831 9.25529 -12.8591
H -5.09582 10.4213 -11.7201
O -8.21163 -4.36353 2.28115
H -9.03158 -4.10622 1.76984
H -8.37 -5.2327 2.74957
O 0.481106 -3.99787 -11.6173
H -0.459462 -3.68228 -11.492
H 0.708277 -4.66031 -10.9035
O -0.754455 3.10003 -12.8124
H -0.802616 2.418 -12.0827
H -1.68006 3.36501 -13.0826
O -6.56543 -10.6226 6.67689
H -6.18166 -9.91933 7.2753
H -5.95706 -11.4161 6.66229
O -7.15043 -11.7628 -1.06375
H -7.98514 -11.7053 -1.6114
H -6.61915 -10.9232 -1.17674
O -12.6036 0.383947 -7.64717
H -13.0125 -0.475032 -7.95523
H -13.0932 0.715899 -6.84093
O 0.969713 -13.3295 -14.2725
H 0.821345 -13.6269 -13.3293
H 0.616049 -14.0231 -14.9001
O 12.7364 -12.7637 1.51738
H 13.3135 -13.2091 0.832938
H 11.9488 -12.3434 1.06675
O 13.8836 2.22462 -3.49342
H 13.0838 1.69434 -3.77461
H 14.2033 1.89908 -2.60361
O 3.1698 -11.3681 -9.56195
H 3.26424 -12.0559 -10.2817
H 2.54717 -10.6482 -9.86852
O 14.3774 10.9555 1.89389
H 13.5856 11.2571 1.36278
H -15.0804 11.5006 1.63976
O -11.3269 2.79781 5.33584
H -11.6702 2.32653 6.14825
H -12.0166 3.44379 5.00886
O -9.86446 7.68242 8.0655
H -10.5724 8.14858 7.53502
H -10.2628 6.89214 8.53102
O 12.4746 -5.09819 6.97311
H 13.0152 -4.62935 7.67155
H 11.7554 -4.4871 6.6424
O -12.3607 3.46626 -3.76524
H -13.2868 3.18638 -4.018
H -12.3488 4.44842 -3.57766
O 0.143936 -5.73515 -9.38408
H 0.546594 -6.43617 -8.79553
H -0.845396 -5.70793 -9.24112
O -14.894 -5.83062 -6.94656
H -14.919 -5.18751 -7.7119
H 15.0402 -5.37445 -6.11723
O 5.89169 -1.31086 -14.0429
H 4.89656 -1.37577 -14.1169
H 6.31573 -1.97403 -14.6597
O 8.71704 8.05026 -0.67194
H 8.10617 8.02212 -1.46314
H 9.35027 7.27737 -0.712106
O 14.8909 -11.2957 -6.70071
H -15.0458 -12.146 -6.28293
H -14.6126 -10.6392 -6.73958
O -6.63567 4.90793 -5.47819
H -6.60956 5.28301 -6.40479
H -7.51533 4.45753 -5.32559
O 0.196083 4.66452 8.52103
H -0.638321 5.18359 8.33583
H -0.0216107 3.87925 9.10061
O -4.39421 -13.0351 1.69523
H -3.78848 -12.2984 1.99593
H -5.06888 -13.224 2.40873
O -2.06971 14.9037 5.56357
H -2.09089 14.5462 6.49721
H -2.94391 -14.9148 5.35457
O -11.9788 6.00273 -3.22234
H -12.7565 6.17331 -2.6173
H -11.2248 6.61157 -2.97576
O -10.2919 -14.8287 1.91252
H -9.42465 14.9468 2.03937
H -10.66 -14.5646 2.80399
O 2.99521 -1.49465 -15.0696
H 3.58372 -1.38255 14.3866
H 2.04428 -1.32552 14.9282
O 8.98827 -6.21263 -4.50718
H 9.8377 -6.22315 -3.97962
H 9.20091 -6.11486 -5.47939
O -7.71081 1.64469 -13.3773
H -7.30617 0.937478 -12.7976
H -7.44766 1.48643 -14.329
O 11.1802 11.6022 5.38815
H 10.6474 11.7139 6.22696
H 11.6372 10.7128 5.39952
O -1.929 -12.3811 7.11669
H -1.41838 -12.2684 6.26432
H -1.3478 -12.1264 7.88955
O -10.4132 -4.715 0.328656
H -10.7087 -5.63244 0.59499
H -10.225 -4.69741 -0.653287
O 10.6718 14.1572 12.7995
H 11.3542 13.4379 12.9298
H 11.1301 15.0099 12.5489
O -6.35666 1.72252 -6.21156
H -6.33693 2.0982 -7.13808
H -5.46084 1.84308 -5.78386
O -11.8621 15.0442 9.79717
H -11.8531 -15.0918 10.7898
H -12.7387 -14.9001 9.43135
O -0.827506 13.1974 11.6746
H -0.0658042 12.7929 11.1685
H -1.69058 12.9393 11.2405
O -15.0454 14.443 1.86888
H 14.4823 14.1472 2.48599
H -14.5205 13.647 1.56742
O -7.86454 9.23309 -0.628709
H -8.09912 9.49646 -1.56443
H -8.293 9.86843 0.0137268
O 9.57222 1.08149 3.9824
H 10.2919 0.387982 3.94926
H 8.87416 0.870411 3.29821
O -7.69964 5.81268 -14.6533
H -6.77365 5.99789 -14.9823
H -8.18191 5.24278 14.9382
O -1.65721 -6.40754 7.71535
H -0.771543 -6.19985 7.30011
H -1.52782 -6.63404 8.6807
O 11.7961 11.6276 10.5578
H 12.2745 12.1998 9.89173
H 12.1312 11.8349 11.4769
O 10.6415 -14.698 5.10759
H 10.6374 -13.6995 5.16097
H 9.73658 -15.0206 4.83005
O 13.2731 6.87534 -1.911
H 12.9325 6.21826 -2.58341
H 12.9525 7.79218 -2.1488
O 7.82533 -12.4232 4.85904
H 8.53601 -11.7209 4.81967
H 6.99024 -12.0768 4.43182
O -9.17369 -8.43068 12.6372
H -8.7656 -9.3023 12.3657
H -9.00473 -8.27218 13.61
O 13.7068 7.19625 6.64679
H 13.7179 7.17179 7.64641
H 13.619 6.26563 6.29157
O 13.0155 -6.02608 10.6882
H 13.6307 -5.24899 10.821
H 12.1604 -5.70805 10.2789
O -12.3459 -14.5181 -8.45369
H -13.2617 -14.864 -8.24961
H -11.7689 14.9866 -8.7723
O 5.45913 11.4606 -3.24929
H 5.28503 11.6555 -4.21453
H 4.98471 10.62 -2.98809
O -0.512375 -9.53719 -6.80312
H 0.409219 -9.21815 -7.02411
H -1.05706 -9.58827 -7.64018
O 5.85542 -12.3488 10.6965
H 5.99892 -11.7191 11.4599
H 4.91584 -12.2625 10.3653
O 1.59803 -8.28609 -8.38589
H 2.46238 -8.58152 -7.97898
H 1.64213 -8.39646 -9.37878
O -12.6178 -8.14735 2.81171
H -13.1167 -7.55606 3.44534
H -13.0561 -9.04555 2.77879
O -8.33374 -4.86584 13.086
H -9.02192 -4.23855 13.4506
H -7.43247 -4.43506 13.1319
O 5.97449 9.73555 8.46644
H 6.46708 10.3103 9.11984
H 6.08155 8.77448 8.72107
O -13.5198 -14.4589 4.33171
H -13.9665 -14.7257 3.4778
H -12.531 -14.4114 4.18987
O -12.8999 -2.43485 -5.66625
H -12.2959 -3.22068 -5.79935
H -13.7414 -2.56879 -6.18954
O -6.39215 -6.89398 -13.6461
H -5.76667 -6.83457 -14.424
H -6.26288 -6.09929 -13.053
O -2.40558 -10.5332 -1.81327
H -1.81448 -10.1417 -1.10807
H -1.93893 -10.4973 -2.69696
O 6.21932 12.1379 13.316
H 7.09309 12.2595 12.8452
H 5.47253 12.1988 12.6538
O -6.02805 14.1896 10.975
H -5.73228 14.9791 10.4372
H -6.90494 13.8586 10.6265
O -0.295547 -11.1072 -10.517
H 0.61696 -10.7573 -10.7289
H -0.787821 -10.4385 -9.95981
O 11.6648 -9.74144 11.7752
H 10.8821 -9.22121 11.4336
H 12.5103 -9.34383 11.4189
O 5.05853 -14.6748 -4.6506
H 5.6474 -14.1685 -4.02064
H 4.53233 14.9014 -4.14082
O -1.36087 -3.57497 14.3587
H -1.98248 -3.86671 13.6318
H -1.13595 -4.35768 14.939
O -12.6389 5.13925 -15.0685
H -12.6473 6.11016 -14.8293
H -12.7102 4.5902 -14.2358
O -10.2652 -15.006 -12.4444
H -9.59612 -15.0973 -13.1819
H -9.78766 -14.9103 -11.571
O 9.06725 13.6998 -4.29438
H 8.4927 13.8321 -5.10206
H 9.70841 14.4629 -4.21283
O 2.87635 5.52445 -8.29803
H 2.30187 4.73393 -8.0859
H 2.30735 6.34496 -8.35248
O 6.29258 -7.37899 -7.87272
H 6.11541 -8.33233 -8.1171
H 7.27142 -7.25248 -7.71201
O 13.3742 8.39256 2.98065
H 13.2485 7.85259 2.14843
H 13.5947 9.33657 2.73534
O 2.39525 11.6844 -3.17763
H 1.60318 11.6164 -2.57104
H 2.14057 12.188 -4.00318
O 7.63221 -6.69439 6.86755
H 8.09144 -5.96364 6.36252
H 7.81425 -7.57173 6.4236
O 13.4585 -4.96621 -3.80269
H 13.3411 -4.58972 -4.72163
H 13.9735 -5.82171 -3.85627
O -8.47664 -9.20272 9.79117
H -7.69729 -8.96764 9.21038
H -8.61729 -8.48069 10.4686
O 7.1202 1.75252 8.82467
H 6.96723 2.10506 7.90148
H 6.37652 2.05093 9.42288
O 8.18573 -6.31751 1.54349
H 8.07691 -7.2539 1.8771
H 8.23071 -6.32269 0.54454
O 1.53123 -9.67132 6.86126
H 2.34245 -9.96069 6.35319
H 1.30422 -8.72838 6.61777
O -10.2546 8.70087 12.5503
H -10.5006 9.6688 12.5
H -11.0784 8.1551 12.7037
O 2.12255 -12.7955 -3.03452
H 2.41781 -13.2912 -2.21781
H 2.1154 -11.8138 -2.84418
O -10.1667 2.1637 -4.61857
H -10.3463 1.2238 -4.90895
H -10.9965 2.55336 -4.21907
O -2.41372 7.81916 6.6281
H -2.25766 6.98918 7.16357
H -1.86448 8.56594 7.0031
O -12.8928 -14.501 -11.9908
H -13.6335 -15.0978 -11.6823
H -12.1046 -15.0571 -12.2542
O -6.21096 -3.51911 -9.78076
H -6.27624 -4.39125 -9.29593
H -6.01692 -2.78792 -9.12679
O 4.13516 -14.1221 -0.627767
H 4.94982 -14.0857 -0.0490118
H 4.17439 -14.9358 -1.20774
O 10.3393 3.9948 2.19982
H 10.6525 3.05048 2.30053
H 10.7532 4.56104 2.91256
O 1.09343 7.72498 8.09186
H 2.00097 7.74807 7.67258
H 0.588096 8.54982 7.83842
O 14.8426 14.1956 5.73199
H -14.6651 14.6383 5.23912
H 14.2321 13.7483 5.0785
O 2.20337 -0.642619 -12.1128
H 1.48011 -0.895614 -12.7554
H 3.01353 -1.20279 -12.2855
O -9.35265 -1.31261 8.43506
H -9.18155 -0.55948 9.07026
H -9.45159 -2.1653 8.94799
O -15.1043 -11.9455 7.0788
H 14.8858 -11.7604 8.02462
H 14.3469 -12.2171 6.55238
O -1.54786 -14.5169 11.1508
H -1.56687 -13.8375 11.8843
H -1.31557 14.8449 11.5314
O -2.94018 -1.36253 14.4021
H -2.58576 -2.29737 14.4225
H -2.55273 -0.842458 -15.0936
O -13.7572 -6.24009 -1.27269
H -13.1965 -6.64696 -0.551548
H -13.1636 -5.86333 -1.9838
O 13.4252 -14.9906 12.2698
H 14.0603 14.6715 11.7769
H 13.288 -14.1468 11.751
O 15.0956 -0.272316 -12.7591
H 14.7148 0.268485 -12.0091
H 14.3671 -0.511209 -13.4011
O 4.08427 -9.69455 -6.0179
H 4.93041 -9.30091 -6.37715
H 4.02896 -10.6588 -6.27697
O -1.89371 9.79972 12.9415
H -1.74418 9.96932 13.9156
H -2.76443 9.32433 12.8158
O -12.7547 -9.31634 6.0288
H -13.0713 -9.94973 5.32271
H -13.4525 -8.6177 6.18696
O -10.2753 5.85588 -8.40928
H -10.241 5.73251 -7.41753
H -9.45507 6.34021 -8.71351
O -14.5205 -11.1074 -14.0731
H -14.7 -11.0988 -13.0894
H -15.0768 -11.8159 -14.5073
O -4.13413 14.9135 -10.8071
H -4.46446 14.6486 -9.90118
H -3.1375 14.8364 -10.8341
O 1.38483 -14.0934 -0.123701
H 1.18405 -13.5071 0.661109
H 2.35832 -14.0332 -0.344272
O 6.50859 5.04725 -14.3594
H 7.48243 5.14285 -14.1534
H 6.19192 5.8557 -14.8554
O -14.5569 9.23396 5.59333
H -14.9526 10.137 5.76034
H 14.9982 8.53343 5.72336
O -10.0102 -1.14001 -7.99732
H -10.6936 -1.54382 -8.60548
H -10.4156 -0.369542 -7.50536
O -12.6832 4.47833 12.2978
H -11.974 3.81913 12.0478
H -12.7177 4.56938 13.293
O -14.017 4.1662 0.0247081
H -13.1341 3.91271 -0.370582
H -14.7151 4.16608 -0.691248
O 11.7216 6.00866 3.5718
H 11.1822 6.74659 3.97738
H 12.5474 6.38929 3.15571
O 14.9559 3.85369 -12.6206
H -15.0681 3.26261 -13.3928
H 14.772 3.29163 -11.8142
O 7.27484 -12.8511 -5.46767
H 7.20217 -13.0458 -4.48951
H 7.72047 -13.6189 -5.92806
O 14.3112 1.37797 -0.501814
H 13.6579 1.86455 0.0782428
H 15.0939 1.08762 0.0486371
O 3.66649 9.3609 -3.42291
H 3.81898 9.01163 -4.34743
H 3.13292 10.2054 -3.46943
O -5.66225 -3.25384 2.70016
H -6.53701 -3.70522 2.52408
H -4.91768 -3.82123 2.34855
O -13.5713 -10.9937 3.79798
H -14.5053 -11.2845 3.59063
H -12.9612 -11.7854 3.76796
O 5.15424 -3.76876 8.3638
H 6.1457 -3.77005 8.23355
H 4.81336 -2.82976 8.31863
O 4.62992 14.4648 10.4682
H 4.4706 15.0931 11.2297
H 4.16582 13.5976 10.6489
O -0.732486 10.0073 8.11506
H -0.597408 9.95359 9.10442
H -0.00530179 10.5606 7.7089
O 10.6999 2.51517 7.62326
H 10.1315 3.22841 7.21319
H 10.3655 2.31018 8.54309
O -5.62853 12.295 5.80715
H -5.76922 11.384 6.19464
H -4.6484 12.4692 5.71245
O -11.8054 -6.88078 8.80955
H -11.274 -6.85101 9.6561
H -11.2723 -6.47549 8.06692
O 14.6228 4.44895 -6.64213
H 14.8434 5.38551 -6.36979
H 13.6897 4.41698 -7.00018
O -14.9263 14.1974 10.7043
H -14.6431 14.4606 9.78214
H -14.5419 13.3018 10.9283
O 8.7392 12.4582 12.4256
H 9.38931 13.2155 12.4875
H 9.19721 11.6562 12.0422
O 12.7301 -7.74193 -13.997