LAMMPS data file via write_data, version 15 May 2015, timestep = 1009000

2593 atoms
6 atom types
1728 bonds
4 bond types
864 angles
3 angle types
0 dihedrals
3 dihedral types
0 impropers
1 improper types

-1.5126619426203943e+01 1.5126619426203943e+01 xlo xhi
-1.5126619426203943e+01 1.5126619426203943e+01 ylo yhi
-1.5126619426203943e+01 1.5126619426203943e+01 zlo zhi

Masses

1 15.9994
2 1.00794
3 12.0107
4 1.00794
5 12.0107
6 12.0107

Bond Coeffs # harmonic

1 1000 1
2 469 1.4
3 367 1.08
4 469 0.7

Angle Coeffs # harmonic

1 100 109.47
2 35 120
3 63 120

Dihedral Coeffs # opls

1 0 7.25 0 0
2 0 7.25 0 0
3 0 7.25 0 0

Improper Coeffs # cvff

1 2.5 -1 2

Atoms # full

1841 614 2 4.0999999999999998e-01 -1.1807810024648534e+01 -9.5761017289712740e+00 -9.9016292689512753e+00 0 -1 0
1943 648 2 4.0999999999999998e-01 -1.1596021332722685e+01 -1.1389657554522348e+01 -1.1415838416746251e+01 -1 0 0
1589 530 2 4.0999999999999998e-01 -8.8119006566252445e+00 -8.8876799571341252e+00 -1.2168232915869641e+01 0 0 -1
1590 530 2 4.0999999999999998e-01 -9.2859593919751546e+00 -7.3951625453976302e+00 -1.1705075440293971e+01 0 0 -1
1588 530 1 -8.1999999999999995e-01 -9.0951230071369480e+00 -8.3253287636410498e+00 -1.1391295439464940e+01 0 0 -1
1840 614 1 -8.1999999999999995e-01 -1.0956195608967553e+01 -1.0069131901682042e+01 -1.0079841867883118e+01 0 -1 0
1842 614 2 4.0999999999999998e-01 -1.0234959003608369e+01 -9.4159878933698451e+00 -1.0310723348439534e+01 0 -1 0
1984 662 1 -8.1999999999999995e-01 -7.7964432879345100e+00 -9.9966997561796056e+00 -9.7252858879666029e+00 -1 -1 1
988 330 1 -8.1999999999999995e-01 -1.2845443562562007e+01 -6.6604792759583216e+00 -7.7105262369538003e+00 0 1 -1
1944 648 2 4.0999999999999998e-01 -1.2533706122804244e+01 -1.1950109510862081e+01 -1.2629714676627129e+01 -1 0 0
1985 662 2 4.0999999999999998e-01 -7.8821992703879422e+00 -9.6753361492320966e+00 -8.7821756367184420e+00 -1 -1 1
1986 662 2 4.0999999999999998e-01 -8.2800562700549030e+00 -9.3699005802667177e+00 -1.0336290708550875e+01 -1 -1 1
1942 648 1 -8.1999999999999995e-01 -1.1594414085412868e+01 -1.1859457388432013e+01 -1.2298658405828137e+01 -1 0 0
506 169 2 4.0999999999999998e-01 -1.0596787332835859e+01 -1.3215799281634624e+01 -1.1540847519748137e+01 0 -1 0
2200 734 1 -8.1999999999999995e-01 -1.4585599403747375e+01 -1.3112641255076216e+01 -1.2433804152982731e+01 1 -2 0
965 322 2 4.0999999999999998e-01 -8.4514892920590974e+00 -1.1019365985717407e+01 -1.3259263663468971e+01 -1 0 0
1132 378 1 -8.1999999999999995e-01 -1.3940874233862408e+01 -1.0816929275525283e+01 -1.0617422566127614e+01 -1 0 0
1134 378 2 4.0999999999999998e-01 -1.4481904875602886e+01 -1.0013277814947850e+01 -1.0865446304729524e+01 -1 0 0
2098 700 1 -8.1999999999999995e-01 -8.7092604568358141e+00 -1.4886309912930537e+01 -9.2271694485167313e+00 -2 1 -1
1174 392 1 -8.1999999999999995e-01 -1.0126935844720798e+01 -1.2341919048988075e+01 -8.7244128359620596e+00 1 1 1
1176 392 2 4.0999999999999998e-01 -1.0102124884463599e+01 -1.1445373929769694e+01 -9.1667666118784243e+00 1 1 1
2237 746 2 4.0999999999999998e-01 -9.2899930819879124e+00 -5.6971887136935262e+00 -8.3834408975825081e+00 -1 -2 -1
222 74 2 4.0999999999999998e-01 -1.2049565407242758e+01 -7.6311804129776428e+00 -1.4620285098101595e+01 0 1 0
2257 753 1 -8.1999999999999995e-01 -1.2614047191834416e+01 -6.8643369048635048e+00 -1.0525060931240112e+01 3 0 -1
2259 753 2 4.0999999999999998e-01 -1.1647466292549613e+01 -6.8556517405252713e+00 -1.0781442553529260e+01 3 0 -1
2079 693 2 4.0999999999999998e-01 -1.4200316169009980e+01 -7.6351104286236318e+00 -1.1085505561493935e+01 2 0 -1
2561 854 2 4.0999999999999998e-01 -1.4082447038555344e+01 -6.2575839783102758e+00 -1.4412031208850859e+01 1 0 1
507 169 2 4.0999999999999998e-01 -1.1211237480602028e+01 -1.4721419526779361e+01 -1.1690558676569870e+01 0 -1 0
2492 831 2 4.0999999999999998e-01 -1.2620883846468832e+01 -9.3448810661101049e+00 -1.3919730427141342e+01 0 1 -1
990 330 2 4.0999999999999998e-01 -1.2775320653725403e+01 -6.7846193744944507e+00 -8.7003533006739886e+00 0 1 -1
505 169 1 -8.1999999999999995e-01 -1.0381185662314248e+01 -1.4191984115976386e+01 -1.1515065877983382e+01 0 -1 0
2491 831 1 -8.1999999999999995e-01 -1.1625721286516301e+01 -9.4033593962345670e+00 -1.3999212323565427e+01 0 1 -1
2493 831 2 4.0999999999999998e-01 -1.1248836016007285e+01 -9.8166628222069932e+00 -1.3170222957945693e+01 0 1 -1
2201 734 2 4.0999999999999998e-01 -1.4549565942757722e+01 -1.2975661396559012e+01 -1.3423765626270679e+01 1 -2 0
1707 569 2 4.0999999999999998e-01 -9.3588004543813774e+00 -5.3034948708213623e+00 -1.2314413484083989e+01 -1 2 0
158 53 2 4.0999999999999998e-01 -8.0866336814928026e+00 -6.0983647100453666e+00 -1.3953397911430864e+01 -3 0 -1
2077 693 1 -8.1999999999999995e-01 -1.4972805182109003e+01 -8.2080062789118600e+00 -1.1359616250030957e+01 2 0 -1
2099 700 2 4.0999999999999998e-01 -7.9059097860718390e+00 -1.4328255297189468e+01 -9.4352279537862671e+00 -2 1 -1
2100 700 2 4.0999999999999998e-01 -9.5079597949390138e+00 -1.4508513018343555e+01 -9.6956077746920730e+00 -2 1 -1
1133 378 2 4.0999999999999998e-01 -1.4376025064940592e+01 -1.1638424825379783e+01 -1.0986034029066639e+01 -1 0 0
1175 392 2 4.0999999999999998e-01 -9.3541973360439226e+00 -1.2424571872042655e+01 -8.0950248054503859e+00 1 1 1
220 74 1 -8.1999999999999995e-01 -1.2412913363296687e+01 -6.7575222068170646e+00 -1.4943990512057070e+01 0 1 0
1006 336 1 -8.1999999999999995e-01 -1.4434075153749001e+01 -9.3009491211887116e+00 -1.3580207060679735e+01 0 -1 1
1705 569 1 -8.1999999999999995e-01 -9.8901816195961523e+00 -5.7132632439245583e+00 -1.1572922055783257e+01 -1 2 0
794 265 2 4.0999999999999998e-01 -1.3310890975437385e+01 -1.1621653573382808e+01 -9.2793966503152063e+00 0 2 -1
964 322 1 -8.1999999999999995e-01 -8.6685400955650511e+00 -1.0073444195107296e+01 -1.3500523920947616e+01 -1 0 0
2552 851 2 4.0999999999999998e-01 -1.0415849178055712e+01 -5.1228288570886331e+00 -1.4214227840132121e+01 1 2 0
795 265 2 4.0999999999999998e-01 -1.2004219877703637e+01 -1.2337490909259540e+01 -8.6107844402379001e+00 0 2 -1
2560 854 1 -8.1999999999999995e-01 -1.4965947914902452e+01 -5.7995898405592659e+00 -1.4313273075827366e+01 1 0 1
2258 753 2 4.0999999999999998e-01 -1.2962360012642559e+01 -5.9271005842188220e+00 -1.0506302586668429e+01 3 0 -1
2551 851 1 -8.1999999999999995e-01 -9.5206209236398998e+00 -5.2068175978836546e+00 -1.4651946761031640e+01 1 2 0
966 322 2 4.0999999999999998e-01 -8.9674634066618069e+00 -1.0032818237169071e+01 -1.4453980780554028e+01 -1 0 0
1007 336 2 4.0999999999999998e-01 -1.4589707125031493e+01 -8.7541236057573251e+00 -1.2757500471007063e+01 0 -1 1
793 265 1 -8.1999999999999995e-01 -1.2929389132582285e+01 -1.2000382974964996e+01 -8.4361256430314491e+00 0 2 -1
618 206 2 4.0999999999999998e-01 -8.6491784288243032e+00 -1.4956847771577522e+01 -1.1728799446393429e+01 0 1 1
2022 674 2 4.0999999999999998e-01 -1.3462792766126395e+01 -1.4526999610688392e+01 -1.1842449821804399e+01 0 1 0
1706 569 2 4.0999999999999998e-01 -9.6466259515665378e+00 -5.2759671662665220e+00 -1.0707163210310600e+01 -1 2 0
1845 615 2 4.0999999999999998e-01 -1.2897622638198039e+01 -5.1452468925429198e+00 -1.3590873275827386e+01 0 0 1
2024 675 2 4.0999999999999998e-01 -1.0969407497685703e+01 -1.2591334254063659e+01 -1.4943249967346796e+01 1 -1 0
2236 746 1 -8.1999999999999995e-01 -9.4927570517702371e+00 -6.3599868152300107e+00 -7.6625587644758548e+00 -1 -2 -1
945 315 2 4.0999999999999998e-01 -7.4618398480630264e+00 -1.1219648225264523e+01 -1.0790512131969022e+01 1 0 -1
943 315 1 -8.1999999999999995e-01 -6.9969031688233869e+00 -1.1878178674113297e+01 -1.1382337380359919e+01 1 0 -1
944 315 2 4.0999999999999998e-01 -6.7811906014106782e+00 -1.2702516680281033e+01 -1.0858867678829132e+01 1 0 -1
1790 597 2 4.0999999999999998e-01 -9.1610297868801815e-01 -1.2569221634196204e+01 -1.4039112418418965e+01 1 0 0
2505 835 2 4.0999999999999998e-01 -7.1682008336755816e+00 -9.2580236263348308e+00 -1.3758999966974320e+01 -1 1 1
1789 597 1 -8.1999999999999995e-01 -7.8341094947531609e-01 -1.2543995281967154e+01 -1.5029991852583723e+01 1 0 0
748 250 1 -8.1999999999999995e-01 -5.9278779386843237e+00 -8.0152355927341858e+00 -7.9169355100385426e+00 0 -1 -2
666 222 2 4.0999999999999998e-01 -1.7715386423887836e-01 -1.0052190270470398e+01 -9.7095633761396805e+00 0 2 0
1875 625 2 4.0999999999999998e-01 -1.9159897583383643e+00 -9.5428338994374009e+00 -1.4279617468078118e+01 0 1 0
34 12 1 -8.1999999999999995e-01 -5.5578440765824304e+00 -5.2818097283675289e+00 -8.0424238880628423e+00 -1 1 0
848 283 2 4.0999999999999998e-01 -5.8320407633070879e+00 -5.8606211164021591e+00 -1.1501617031526925e+01 -1 0 1
855 285 2 4.0999999999999998e-01 -5.1591326173365282e+00 -1.0276607851519252e+01 -1.3572794266750890e+01 -2 -1 -1
853 285 1 -8.1999999999999995e-01 -5.1209835983297953e+00 -1.1244962472888428e+01 -1.3325975380704618e+01 -2 -1 -1
2503 835 1 -8.1999999999999995e-01 -6.3867353244175042e+00 -8.8047515099416920e+00 -1.4187884175060878e+01 -1 1 1
664 222 1 -8.1999999999999995e-01 -5.0265093495550417e-01 -9.2049312065069735e+00 -9.2896951446261440e+00 0 2 0
159 53 2 4.0999999999999998e-01 -6.7921492571366304e+00 -7.0203966245717613e+00 -1.3577869000392033e+01 -3 0 -1
665 222 2 4.0999999999999998e-01 -5.5146971776342824e-01 -8.4864069565491498e+00 -9.9835432784253086e+00 0 2 0
854 285 2 4.0999999999999998e-01 -5.6687065842814555e+00 -1.1401264863873280e+01 -1.2503993202508649e+01 -2 -1 -1
35 12 2 4.0999999999999998e-01 -5.8166560206668443e+00 -6.2307077825877606e+00 -7.8616077729477647e+00 -1 1 0
2508 836 2 4.0999999999999998e-01 -6.2572135950840408e+00 -1.3189854941368427e+01 -8.7407658908611232e+00 0 2 -2
2429 810 2 4.0999999999999998e-01 -4.7744324673269443e+00 -8.3065548402703069e+00 -1.1548891093482997e+01 -1 1 -1
927 309 2 4.0999999999999998e-01 -4.4128556861014090e+00 -1.0333029578898898e+01 -9.8941703712536366e+00 1 0 1
1333 445 1 -8.1999999999999995e-01 -1.8838748350728967e+00 -1.3223257985535282e+01 -1.2051576917537821e+01 -1 0 -1
157 53 1 -8.1999999999999995e-01 -7.1706670111174615e+00 -6.0951165126275839e+00 -1.3552050047897595e+01 -3 0 -1
1335 445 2 4.0999999999999998e-01 -1.7730266319682908e+00 -1.4016968468683670e+01 -1.1453394719846070e+01 -1 0 -1
1754 585 2 4.0999999999999998e-01 -6.7258330222808915e-01 -7.1477505403756503e+00 -1.2137536493615656e+01 0 -1 2
926 309 2 4.0999999999999998e-01 -5.8817071321204857e+00 -9.6916851984997656e+00 -1.0207231964105212e+01 1 0 1
1058 353 2 4.0999999999999998e-01 -2.3156292681774477e+00 -5.6207189179521979e+00 -1.2130830476279446e+01 0 1 1
3 1 2 4.0999999999999998e-01 -1.3208858950321023e-01 -1.4974712510024604e+01 -1.0414280036848556e+01 -1 2 -2
1059 353 2 4.0999999999999998e-01 -2.8565251836543304e+00 -6.7288808065996335e+00 -1.3201467472151684e+01 0 1 1
2355 785 2 4.0999999999999998e-01 -8.2740345647064650e-01 -1.0519409876568545e+01 -1.2695772132832785e+01 1 0 0
206 69 2 4.0999999999999998e-01 -3.2296821160360345e+00 -1.0339848282341658e+01 -1.2291914581549891e+01 -2 0 1
453 151 2 4.0999999999999998e-01 -3.6723899533844566e+00 -1.3766356645866976e+01 -1.4585287991883465e+01 -1 -3 -1
1057 353 1 -8.1999999999999995e-01 -2.0629692131015940e+00 -6.4189214195684734e+00 -1.2677750274746518e+01 0 1 1
207 69 2 4.0999999999999998e-01 -2.8273824864128621e+00 -8.7810432641706004e+00 -1.2566025213343851e+01 -2 0 1
2210 737 2 4.0999999999999998e-01 -2.9250960362355389e+00 -1.0292778103171930e+01 -8.4937818458018572e+00 0 0 -2
205 69 1 -8.1999999999999995e-01 -2.5201812896614246e+00 -9.7295079853030160e+00 -1.2644304807022820e+01 -2 0 1
549 183 2 4.0999999999999998e-01 -1.9465082432812864e-01 -1.2366336786255340e+01 -1.0983850948088975e+01 1 -1 1
547 183 1 -8.1999999999999995e-01 -5.8293969499798592e-02 -1.2037066254815159e+01 -1.0049467025353692e+01 1 -1 1
969 323 2 4.0999999999999998e-01 -1.1728622396360002e+00 -9.6244439758189415e+00 -7.7561357112100016e+00 -1 -1 2
2507 836 2 4.0999999999999998e-01 -5.4170996129224154e+00 -1.4181018303177416e+01 -9.7300375475174796e+00 0 2 -2
452 151 2 4.0999999999999998e-01 -4.5949495196654624e+00 -1.2860679875122731e+01 -1.3587546456930870e+01 -1 -3 -1
925 309 1 -8.1999999999999995e-01 -4.8954969191428095e+00 -9.5632721260300961e+00 -1.0312041765475588e+01 1 0 1
451 151 1 -8.1999999999999995e-01 -4.0561676349973617e+00 -1.3699679213956081e+01 -1.3664226422937277e+01 -1 -3 -1
2412 804 2 4.0999999999999998e-01 -2.4497290733605741e+00 -1.3211684754873836e+01 -8.0277368367924851e+00 1 0 -2
2211 737 2 4.0999999999999998e-01 -2.0683740723042856e+00 -1.1390285915253731e+01 -9.3472212495032281e+00 0 0 -2
2209 737 1 -8.1999999999999995e-01 -2.9804374425281051e+00 -1.1139910692809920e+01 -9.0223547347190163e+00 0 0 -2
2506 836 1 -8.1999999999999995e-01 -6.2291423810326094e+00 -1.3602698335755722e+01 -9.6511822374345329e+00 0 2 -2
1334 445 2 4.0999999999999998e-01 -2.7278033126636068e+00 -1.3319010537706598e+01 -1.2579499044679455e+01 -1 0 -1
2428 810 1 -8.1999999999999995e-01 -4.5640398137471454e+00 -7.6888873947114798e+00 -1.2306721852832423e+01 -1 1 -1
2430 810 2 4.0999999999999998e-01 -4.9204819052208855e+00 -8.0728959590103528e+00 -1.3158527025603185e+01 -1 1 -1
750 250 2 4.0999999999999998e-01 -5.5745152086494993e+00 -8.7090020829101178e+00 -8.5445567543005421e+00 0 -1 -2
2410 804 1 -8.1999999999999995e-01 -2.1396836720099071e+00 -1.4155616467704974e+01 -7.9139371761244792e+00 1 0 -2
674 225 2 4.0999999999999998e-01 -4.3625392180156002e+00 -5.6512551480398567e+00 -1.4874225010945826e+01 0 1 0
1965 655 2 4.0999999999999998e-01 -4.4832946011983719e+00 -1.5105791151770658e+01 -1.2519762459961154e+01 -3 0 -1
2 1 2 4.0999999999999998e-01 -1.2321033873152860e+00 -1.4549983390221849e+01 -9.2844891817992288e+00 -1 2 -2
2411 804 2 4.0999999999999998e-01 -2.9141493593908532e+00 -1.4731572772061282e+01 -7.6520921190101143e+00 1 0 -2
2504 835 2 4.0999999999999998e-01 -6.6555899638243989e+00 -8.4550235292137543e+00 -1.5085376866399150e+01 -1 1 1
1992 664 2 4.0999999999999998e-01 -1.1697047287348180e+01 -1.0863535168503947e+01 -2.4899820477659027e+00 1 0 -1
1990 664 1 -8.1999999999999995e-01 -1.0858219659598117e+01 -1.0440327616552365e+01 -2.1474194038563095e+00 1 0 -1
1531 511 1 -8.1999999999999995e-01 -1.4960634783758261e+01 -1.0547556006395494e+01 -4.9435756764886722e+00 -1 1 -1
1309 437 1 -8.1999999999999995e-01 -1.4840262672701705e+01 -8.1802501135908585e+00 -6.5454386946798682e+00 0 -1 1
29 10 2 4.0999999999999998e-01 -1.0743181386971608e+01 -1.4022503551020421e+01 -3.6558052187706007e+00 0 0 0
1991 664 2 4.0999999999999998e-01 -1.1052010034246340e+01 -9.5029432785683152e+00 -1.8578654752262143e+00 1 0 -1
1901 634 2 4.0999999999999998e-01 -7.9343307309625182e+00 -8.6052798453939019e+00 -4.2757414779340266e+00 0 0 0
1126 376 1 -8.1999999999999995e-01 -8.5970907351703438e+00 -1.4217457633590874e+01 -6.5055356811101746e+00 1 0 2
1930 644 1 -8.1999999999999995e-01 -1.4618755614384215e+01 -6.0477114548123563e+00 -4.8930960970767092e+00 1 -1 -1
28 10 1 -8.1999999999999995e-01 -1.1008862422330289e+01 -1.4544975715336994e+01 -4.4660656813795629e+00 0 0 0
1848 616 2 4.0999999999999998e-01 -1.4450380559018072e+01 -5.5657480489064870e+00 -1.8048691243124502e+00 2 0 -1
1127 376 2 4.0999999999999998e-01 -8.6395510805128080e+00 -1.4607386126046395e+01 -7.4254479024287594e+00 1 0 2
1128 376 2 4.0999999999999998e-01 -7.8400016661334400e+00 -1.4633522529888307e+01 -6.0017581996133860e+00 1 0 2
1763 588 2 4.0999999999999998e-01 -1.2222233892552888e+01 -1.0951086152718306e+01 -7.0606317298858556e+00 -1 1 0
1078 360 1 -8.1999999999999995e-01 -9.7314014562668572e+00 -1.3652396862083581e+01 -1.6153070371339666e+00 0 0 -1
1344 448 2 4.0999999999999998e-01 -1.2700183502114719e+01 -1.2375663536899449e+01 -3.7073583156133907e+00 -1 2 0
1342 448 1 -8.1999999999999995e-01 -1.2642350963920702e+01 -1.1377373159235686e+01 -3.7199005671464889e+00 -1 2 0
1902 634 2 4.0999999999999998e-01 -7.7284932536716235e+00 -7.7346067099930860e+00 -5.6419090735231539e+00 0 0 0
30 10 2 4.0999999999999998e-01 -1.0227759479499230e+01 -1.4618469336007699e+01 -5.0861966930475422e+00 0 0 0
729 243 2 4.0999999999999998e-01 -1.4105231449517602e+01 -1.2661470746198280e+01 -7.3956714896361824e+00 -1 -1 0
1762 588 1 -8.1999999999999995e-01 -1.1624995206418959e+01 -1.0579474671284700e+01 -6.3497896490217478e+00 -1 1 0
1946 649 2 4.0999999999999998e-01 -1.2946547955059827e+01 -1.4658990837604406e+01 -4.6539553463928520e+00 1 0 -2
2323 775 1 -8.1999999999999995e-01 -8.9400511967183132e+00 -1.1547481788863919e+01 -6.0795059827699358e+00 0 2 0
2325 775 2 4.0999999999999998e-01 -9.1381376102642182e+00 -1.2526162775988270e+01 -6.1345595971980185e+00 0 2 0
757 253 1 -8.1999999999999995e-01 -1.1342822436530582e+01 -7.7883909338260837e+00 -5.3782210310384286e+00 0 1 2
1343 448 2 4.0999999999999998e-01 -1.2225043129209048e+01 -1.1078418449703371e+01 -4.5781347155411094e+00 -1 2 0
1764 588 2 4.0999999999999998e-01 -1.0669826307240289e+01 -1.0732930995638000e+01 -6.6031453828854616e+00 -1 1 0
1080 360 2 4.0999999999999998e-01 -9.8085327682893890e+00 -1.2780554688510776e+01 -1.1315430710823460e+00 0 0 -1
2260 754 1 -8.1999999999999995e-01 -1.1847546196236564e+01 -8.0295204220370628e+00 -2.1084937959798005e+00 0 0 -1
2425 809 1 -8.1999999999999995e-01 -1.0053580338825292e+01 -6.0126372642749999e+00 -3.9562116755641146e+00 1 1 1
2426 809 2 4.0999999999999998e-01 -1.0260442690288681e+01 -6.7266022844460966e+00 -4.6252016161144400e+00 1 1 1
1947 649 2 4.0999999999999998e-01 -1.4437173064158756e+01 -1.4456288324553402e+01 -5.2894104753867559e+00 1 0 -2
2262 754 2 4.0999999999999998e-01 -1.2339861026906419e+01 -7.2359635095879105e+00 -1.7507520908965351e+00 0 0 -1
1900 634 1 -8.1999999999999995e-01 -7.8343637409928100e+00 -7.6828407650514094e+00 -4.6488344026642139e+00 0 0 0
759 253 2 4.0999999999999998e-01 -1.1921132903710582e+01 -7.4277295943307555e+00 -6.1100447753367284e+00 0 1 2
1233 411 2 4.0999999999999998e-01 -8.9182121491555364e+00 -9.4886943760417140e+00 -6.9040303183314791e+00 1 0 -1
701 234 2 4.0999999999999998e-01 -1.2129537404282534e+01 -1.1401857641009959e+01 -3.0549003318492218e-01 -2 1 -1
2527 843 1 -8.1999999999999995e-01 -8.7219241696888439e+00 -1.0364204078030737e+01 -3.9187475105293679e-01 2 0 -1
2529 843 2 4.0999999999999998e-01 -9.4563015627911149e+00 -1.0382000109480526e+01 -1.0704458526824627e+00 2 0 -1
1945 649 1 -8.1999999999999995e-01 -1.3926282459250398e+01 -1.4656911999615710e+01 -4.4534520245134583e+00 1 0 -2
1846 616 1 -8.1999999999999995e-01 -1.3758670010284154e+01 -5.8299773361109022e+00 -1.1327047113851805e+00 2 0 -1
758 253 2 4.0999999999999998e-01 -1.1481744656491708e+01 -8.7756012313943526e+00 -5.2994679808698955e+00 0 1 2
2427 809 2 4.0999999999999998e-01 -9.0765189344644313e+00 -6.0280487409203580e+00 -3.7436108759123510e+00 1 1 1
2261 754 2 4.0999999999999998e-01 -1.1697189891153799e+01 -7.9136691286488157e+00 -3.0903578662990192e+00 0 0 -1
1079 360 2 4.0999999999999998e-01 -1.0390691417811617e+01 -1.4302621942033975e+01 -1.2376435744587990e+00 0 0 -1
1532 511 2 4.0999999999999998e-01 -1.4199497867674975e+01 -1.0895851186607898e+01 -4.3963584746640567e+00 -1 1 -1
727 243 1 -8.1999999999999995e-01 -1.4811117860487474e+01 -1.3037813039037745e+01 -6.7955244537295698e+00 -1 -1 0
2324 775 2 4.0999999999999998e-01 -8.8096287697517628e+00 -1.1287093455178454e+01 -5.1228067059562505e+00 0 2 0
989 330 2 4.0999999999999998e-01 -1.3709198814649868e+01 -7.0465368039748491e+00 -7.3865323145780071e+00 0 1 -1
1866 622 2 4.0999999999999998e-01 -1.3875274791129289e+01 -1.2323859137463421e+01 -1.8813081101567519e-01 -1 1 1
1932 644 2 4.0999999999999998e-01 -1.5043071904666968e+01 -5.5715020994423483e+00 -4.1228585126956574e+00 1 -1 -1
1847 616 2 4.0999999999999998e-01 -1.2946151519505289e+01 -5.2585422214372670e+00 -1.2482954020020998e+00 2 0 -1
900 300 2 4.0999999999999998e-01 -8.1632655785132471e+00 -1.4003545383049774e+01 -1.7679931540447136e+00 0 -1 0
288 96 2 4.0999999999999998e-01 -8.3594443935878573e+00 -1.0591737252458595e+01 -3.1389947960822511e+00 0 2 1
1864 622 1 -8.1999999999999995e-01 -1.4601106333821191e+01 -1.2997123444808834e+01 -3.2944372362545238e-01 -1 1 1
1227 409 2 4.0999999999999998e-01 -1.2906733982630751e+01 -5.0741286663361045e+00 -7.1703835535227531e+00 0 1 1
286 96 1 -8.1999999999999995e-01 -7.7099115198584132e+00 -1.0478034427963506e+01 -3.8908354106707517e+00 0 2 1
867 289 2 4.0999999999999998e-01 -7.6878768153876367e+00 -7.2627341987904810e+00 -1.2121101775348322e+00 0 0 1
2442 814 2 4.0999999999999998e-01 -1.0815850615439443e+01 -5.1761075781916244e+00 -2.6075596012302604e+00 1 0 -1
1231 411 1 -8.1999999999999995e-01 -8.4489851347552403e+00 -8.7141983881770599e+00 -7.3283740085544968e+00 1 0 -1
2120 707 2 4.0999999999999998e-01 -1.4850131108008336e+01 -1.4951891892117294e+01 -3.0178514668694767e+00 -1 1 0
2238 746 2 4.0999999999999998e-01 -1.0418207151170050e+01 -6.2040956141109795e+00 -7.3171233366480903e+00 -1 -2 -1
1311 437 2 4.0999999999999998e-01 -1.4832066020270474e+01 -9.0549675246969894e+00 -6.0607864128397697e+00 0 -1 1
1931 644 2 4.0999999999999998e-01 -1.4246809948921523e+01 -5.3774616672148259e+00 -5.5353633631134791e+00 1 -1 -1
866 289 2 4.0999999999999998e-01 -8.0738896127746820e+00 -8.5385973551411922e+00 -2.6870037515880973e-01 0 0 1
1232 411 2 4.0999999999999998e-01 -9.0842133692587037e+00 -7.9467649561729639e+00 -7.4156473914969601e+00 1 0 -1
865 289 1 -8.1999999999999995e-01 -8.1366041379916307e+00 -7.5450996662394623e+00 -3.6417200349290013e-01 0 0 1
1310 437 2 4.0999999999999998e-01 -1.4851776412945959e+01 -7.4318246541013115e+00 -5.8822552213804062e+00 0 -1 1
2567 856 2 4.0999999999999998e-01 -1.4667287294851098e+01 -7.1467993614081591e+00 -4.5678695338889064e-01 -1 1 -1
441 147 2 4.0999999999999998e-01 -7.1482038560797578e+00 -1.1719741388502406e+01 -6.6637469932643576e+00 1 -1 0
1147 383 1 -8.1999999999999995e-01 -6.3593554289051184e+00 -1.5075128030671161e+01 -5.1004716068219942e+00 -1 1 1
357 119 2 4.0999999999999998e-01 -6.4311902075834482e-01 -1.2795763232564958e+01 -2.4340222200113821e+00 0 1 0
2195 732 2 4.0999999999999998e-01 -1.9616002050501535e-01 -1.0547543832287712e+01 -3.6140797421630193e+00 -1 -1 -1
898 300 1 -8.1999999999999995e-01 -7.2363479897134830e+00 -1.4365583487173341e+01 -1.8671788927327366e+00 0 -1 0
968 323 2 4.0999999999999998e-01 -1.0863321215982040e+00 -1.0862166202636230e+01 -6.6943396023102562e+00 -1 -1 2
2102 701 2 4.0999999999999998e-01 -3.6778277804170951e+00 -1.0138112231139399e+01 -2.9735856337862678e+00 0 1 1
1467 489 2 4.0999999999999998e-01 -2.8934397823982394e-01 -8.1506260115748184e+00 -5.4191787828979763e+00 1 2 0
1722 574 2 4.0999999999999998e-01 -6.5102169157253407e+00 -1.3864843542479159e+01 -1.8180252029828736e-01 0 1 0
1939 647 1 -8.1999999999999995e-01 -2.3279360502810800e+00 -1.3215157343539641e+01 -2.1069150385099427e+00 1 0 2
967 323 1 -8.1999999999999995e-01 -1.5850877890750539e+00 -1.0031157219965063e+01 -6.9408197826474591e+00 -1 -1 2
2103 701 2 4.0999999999999998e-01 -2.3094424552096395e+00 -9.9598970962481506e+00 -3.8468643314638307e+00 0 1 1
899 300 2 4.0999999999999998e-01 -6.7974722779277545e+00 -1.3945107899550292e+01 -2.6613287415256703e+00 0 -1 0
897 299 2 4.0999999999999998e-01 -1.5762825993099572e+00 -7.0849405187573566e+00 -2.5334412889667881e+00 -1 1 1
1785 595 2 4.0999999999999998e-01 -4.2262676493683582e+00 -8.8745286046328786e+00 -1.0029724325716707e+00 -1 0 2
1662 554 2 4.0999999999999998e-01 -9.8134287422839073e-01 -5.6152594916125551e+00 -5.7658242263796424e+00 -1 0 -1
1465 489 1 -8.1999999999999995e-01 -9.3931179517672980e-01 -7.4696567221502637e+00 -5.7566817602350842e+00 1 2 0
1104 368 2 4.0999999999999998e-01 -5.3155787529201461e+00 -1.2068667066111004e+01 -4.5113191206648509e+00 2 1 -3
896 299 2 4.0999999999999998e-01 -2.8506643413643129e+00 -6.9711861037399103e+00 -1.5186182446853937e+00 -1 1 1
984 328 2 4.0999999999999998e-01 -2.1028439676749162e+00 -1.4447018056494853e+01 -3.1421832101972846e+00 -1 1 0
440 147 2 4.0999999999999998e-01 -5.7467180599768621e+00 -1.1004684315459631e+01 -7.1012234412847217e+00 1 -1 0
2512 838 1 -8.1999999999999995e-01 -4.4014704394231359e+00 -7.5559042906069731e+00 -5.1826461552339911e+00 0 0 -1
1751 584 2 4.0999999999999998e-01 -6.7831330458575323e-01 -1.4320061216073281e+01 -6.6299973712461195e+00 -1 1 1
1466 489 2 4.0999999999999998e-01 -1.7045119776473960e+00 -7.9323953236144940e+00 -6.2043727965667088e+00 1 2 0
1881 627 2 4.0999999999999998e-01 -5.8343053182119604e+00 -6.4063293495420339e+00 -2.5670760597784170e+00 1 0 -2
2101 701 1 -8.1999999999999995e-01 -2.6894235585770776e+00 -1.0289965275197943e+01 -2.9827144916069877e+00 0 1 1
1940 647 2 4.0999999999999998e-01 -2.3724853944237481e+00 -1.2229688765710293e+01 -2.2710876277956071e+00 1 0 2
537 179 2 4.0999999999999998e-01 -3.0637849514347710e+00 -5.3313095776515080e+00 -3.4320913942964246e+00 1 -1 0
52 18 1 -8.1999999999999995e-01 -4.2676756441516055e+00 -1.0566942941964673e+01 -5.5912475878279864e+00 0 -2 0
1880 627 2 4.0999999999999998e-01 -6.8546637931341152e+00 -7.2755328788796447e+00 -3.4999257634397658e+00 1 0 -2
2194 732 1 -8.1999999999999995e-01 -6.5466112853950875e-02 -9.9099142472800210e+00 -4.3733117459775173e+00 -1 -1 -1
1598 533 2 4.0999999999999998e-01 -4.7107527014566166e+00 -1.1045921621072985e+01 -2.5062349015533947e-01 0 1 0
439 147 1 -8.1999999999999995e-01 -6.4696240541865055e+00 -1.1631087311604094e+01 -7.3929626702464111e+00 1 -1 0
1879 627 1 -8.1999999999999995e-01 -6.5958372034346464e+00 -7.0544796060566028e+00 -2.5595907792253687e+00 1 0 -2
1941 647 2 4.0999999999999998e-01 -2.6378630789264079e+00 -1.3412475639396387e+01 -1.1768094921772789e+00 1 0 2
1784 595 2 4.0999999999999998e-01 -5.6408827981210923e+00 -8.5686464919265219e+00 -1.7593816173228927e+00 -1 0 2
2513 838 2 4.0999999999999998e-01 -4.1225496851583294e+00 -6.7862351408380590e+00 -4.6082784935564920e+00 0 0 -1
1750 584 1 -8.1999999999999995e-01 -3.9485660402805323e-02 -1.4785204455789414e+01 -6.0171135282845718e+00 -1 1 1
287 96 2 4.0999999999999998e-01 -6.9519509758421520e+00 -1.1120305676108208e+01 -3.7765153409754380e+00 0 2 1
1752 584 2 4.0999999999999998e-01 -3.5186963164304608e-01 -1.4685978484873230e+01 -5.0723087557602025e+00 -1 1 1
53 18 2 4.0999999999999998e-01 -3.4730579290335317e+00 -1.0709742200544380e+01 -6.1813972758672939e+00 0 -2 0
895 299 1 -8.1999999999999995e-01 -2.3830487149717428e+00 -6.5450719126219070e+00 -2.2931167313408931e+00 -1 1 1
2514 838 2 4.0999999999999998e-01 -4.4676374751557848e+00 -7.2550306056287281e+00 -6.1340569719456628e+00 0 0 -1
1103 368 2 4.0999999999999998e-01 -6.3941364187685075e+00 -1.3288992614611496e+01 -4.6312091775589064e+00 2 1 -3
1102 368 1 -8.1999999999999995e-01 -6.1068186535416782e+00 -1.2504208629826275e+01 -4.0819840959505758e+00 2 1 -3
54 18 2 4.0999999999999998e-01 -4.2486005069235429e+00 -9.6362088131028258e+00 -5.2259316753753904e+00 0 -2 0
1783 595 1 -8.1999999999999995e-01 -5.0309274614958674e+00 -9.2887372731333073e+00 -1.4284596396445863e+00 -1 0 2
749 250 2 4.0999999999999998e-01 -6.7947556666218532e+00 -8.3277569287940167e+00 -7.5284267944759860e+00 0 -1 -2
1957 653 1 -8.1999999999999995e-01 -1.3560265771631583e+01 -8.0477481936450417e+00 6.6105090877648269e+00 -2 1 -2
1958 653 2 4.0999999999999998e-01 -1.4297581032123031e+01 -7.7396856191507437e+00 6.0092194415286198e+00 -2 1 -2
2576 859 2 4.0999999999999998e-01 -1.3890018004240909e+01 -1.3193698663406748e+01 3.0701706066255294e+00 0 3 1
2577 859 2 4.0999999999999998e-01 -1.3587633405234875e+01 -1.2101848623429749e+01 1.8940406081949543e+00 0 3 1
2344 782 1 -8.1999999999999995e-01 -9.5997896091109816e+00 -1.1213886379260922e+01 6.8371094839081028e+00 1 -1 0
1316 439 2 4.0999999999999998e-01 -1.4760736457547361e+01 -1.1857067954051013e+01 6.5999990719318067e+00 -1 1 -1
2346 782 2 4.0999999999999998e-01 -1.0316961504085960e+01 -1.1155611375080831e+01 6.1425923223184515e+00 1 -1 0
1959 653 2 4.0999999999999998e-01 -1.3936716092495420e+01 -8.6397129830759596e+00 7.3232141016492616e+00 -2 1 -2
2345 782 2 4.0999999999999998e-01 -8.8235071155935270e+00 -1.1728085886647360e+01 6.4723219554328839e+00 1 -1 0
2568 856 2 4.0999999999999998e-01 -1.4980165179932831e+01 -7.6796321735626369e+00 1.0548516824264507e+00 -1 1 -1
700 234 1 -8.1999999999999995e-01 -1.2579817562856789e+01 -1.1346560667136373e+01 5.8573138881395792e-01 -2 1 -1
1744 582 1 -8.1999999999999995e-01 -1.1910227404216474e+01 -1.1104109551930254e+01 5.0674609869857239e+00 2 -1 -1
16 6 1 -8.1999999999999995e-01 -1.3503837839480591e+01 -7.6235257436913297e+00 2.3520694508900259e+00 -2 1 1
125 42 2 4.0999999999999998e-01 -1.4006431441241595e+01 -9.1821480815382941e+00 3.5618210293793862e+00 -2 -2 0
50 17 2 4.0999999999999998e-01 -1.0695858364382905e+01 -7.8855447934275240e+00 4.6810137048245561e+00 0 0 0
599 200 2 4.0999999999999998e-01 -9.9746003458010204e+00 -6.2397101256375347e+00 1.1253230910623202e-01 -1 -1 -1
17 6 2 4.0999999999999998e-01 -1.3202722527735666e+01 -6.8004869445769689e+00 2.8337563832165937e+00 -2 1 1
2166 722 2 4.0999999999999998e-01 -1.1388416421041745e+01 -5.4373519978875748e+00 5.9541598578130586e+00 0 -1 1
1746 582 2 4.0999999999999998e-01 -1.2843936215206478e+01 -1.1422497866982244e+01 5.2314802881380782e+00 2 -1 -1
604 202 1 -8.1999999999999995e-01 -1.3032702541018793e+01 -1.4409257791980773e+01 4.3394647078170490e+00 0 0 1
606 202 2 4.0999999999999998e-01 -1.3700377675680173e+01 -1.4099974949061096e+01 5.0166940895972463e+00 0 0 1
1315 439 1 -8.1999999999999995e-01 -1.4529099951315365e+01 -1.2517746944745435e+01 5.8859028686208017e+00 -1 1 -1
18 6 2 4.0999999999999998e-01 -1.2754854514314488e+01 -7.9730915111052081e+00 1.7891188855571070e+00 -2 1 1
924 308 2 4.0999999999999998e-01 -1.0315201937319276e+01 -1.3424619153496550e+01 3.4735714011159704e+00 1 -1 0
2575 859 1 -8.1999999999999995e-01 -1.4140892403036522e+01 -1.2297655825705309e+01 2.7037625528180538e+00 0 3 1