LAMMPS data file via write_data, version 15 May 2015, timestep = 18500000

2593 atoms
6 atom types
1728 bonds
4 bond types
864 angles
3 angle types
0 dihedrals
3 dihedral types
0 impropers
1 improper types

-1.5131086167383161e+01 1.5131086167383161e+01 xlo xhi
-1.5131086167383161e+01 1.5131086167383161e+01 ylo yhi
-1.5131086167383161e+01 1.5131086167383161e+01 zlo zhi

Masses

1 15.9994
2 1.00794
3 12.0107
4 1.00794
5 12.0107
6 12.0107

Bond Coeffs # harmonic

1 1000 1
2 469 1.4
3 367 1.08
4 469 0.7

Angle Coeffs # harmonic

1 100 109.47
2 35 120
3 63 120

Dihedral Coeffs # opls

1 0 7.25 0 0
2 0 7.25 0 0
3 0 7.25 0 0

Improper Coeffs # cvff

1 2.5 -1 2

Atoms # full

1351 451 1 -8.1999999999999995e-01 -9.4611069468333966e+00 -9.3204048023819670e+00 -1.2171471545647748e+01 2 -6 -2
1352 451 2 4.0999999999999998e-01 -8.6120041466594373e+00 -9.3899359049058155e+00 -1.2695118796551377e+01 2 -6 -2
2035 679 1 -8.1999999999999995e-01 -1.3683502483312534e+01 -6.3590009462940937e+00 -1.1217240092275127e+01 2 3 -1
2124 708 2 4.0999999999999998e-01 -9.0616990741435757e+00 -8.5237956424504731e+00 -8.8499439532340105e+00 -3 -3 9
1647 549 2 4.0999999999999998e-01 -9.0419711159233636e+00 -7.6677712689556667e+00 -1.2984321369906690e+01 -5 -6 0
2285 762 2 4.0999999999999998e-01 -1.1630219348967682e+01 -1.1668063399345687e+01 -1.0738772941397961e+01 1 1 4
2284 762 1 -8.1999999999999995e-01 -1.1258023129617001e+01 -1.1555973197265988e+01 -1.1660143067997844e+01 1 1 4
875 292 2 4.0999999999999998e-01 -1.2752822670099341e+01 -8.8890549982243883e+00 -9.4206916525648392e+00 -4 0 -3
1516 506 1 -8.1999999999999995e-01 -1.2383032098179463e+01 -1.2183629403485465e+01 -9.1051103341097779e+00 -3 -4 7
874 292 1 -8.1999999999999995e-01 -1.3437192175626249e+01 -8.8756839759481174e+00 -1.0149715918156783e+01 -4 0 -3
2122 708 1 -8.1999999999999995e-01 -9.7566648444409179e+00 -9.0012082364874360e+00 -9.3876398744889187e+00 -3 -3 9
1154 385 2 4.0999999999999998e-01 -8.5331320581594330e+00 -1.2053825953304171e+01 -8.3354444325334089e+00 -5 -5 2
1517 506 2 4.0999999999999998e-01 -1.2833672189922927e+01 -1.3049414999744860e+01 -8.8874965737051674e+00 -3 -4 7
1229 410 2 4.0999999999999998e-01 -1.3194365957298146e+01 -1.1133013947094060e+01 -1.2718854522944957e+01 4 0 -6
131 44 2 4.0999999999999998e-01 -8.9656362210055320e+00 -1.0542516132319365e+01 -9.8682746471147524e+00 0 -2 3
1353 451 2 4.0999999999999998e-01 -9.2791796749805400e+00 -8.8638558276596537e+00 -1.1300562696468036e+01 2 -6 -2
1228 410 1 -8.1999999999999995e-01 -1.3541586282403495e+01 -1.0199409388365151e+01 -1.2630327669586297e+01 4 0 -6
2123 708 2 4.0999999999999998e-01 -1.0663696384315399e+01 -8.7879832533596733e+00 -9.0245338250353520e+00 -3 -3 9
769 257 1 -8.1999999999999995e-01 -1.1094168402791018e+01 -8.5625217417466128e+00 -1.4294265215679440e+01 2 -7 0
1230 410 2 4.0999999999999998e-01 -1.3148109532014370e+01 -9.7732916070991269e+00 -1.1815701004408940e+01 4 0 -6
1518 506 2 4.0999999999999998e-01 -1.2193961046841643e+01 -1.1684496331669337e+01 -8.2594536504628842e+00 -3 -4 7
1645 549 1 -8.1999999999999995e-01 -8.6241931865450390e+00 -6.8105815502793803e+00 -1.3285492315492144e+01 -5 -6 0
290 97 2 4.0999999999999998e-01 -1.2456585914013241e+01 -6.3139767772840116e+00 -9.9653527886285662e+00 3 -6 4
291 97 2 4.0999999999999998e-01 -1.2194903856117275e+01 -6.6583835284129371e+00 -8.3906850471782786e+00 3 -6 4
289 97 1 -8.1999999999999995e-01 -1.1935397068791181e+01 -6.0616862788276489e+00 -9.1500438050667796e+00 3 -6 4
659 220 2 4.0999999999999998e-01 -1.2524703997952766e+01 -6.0978770007536660e+00 -1.2326157789358730e+01 2 -10 -1
771 257 2 4.0999999999999998e-01 -1.0586143260069655e+01 -9.0748999360356510e+00 -1.3601880852322264e+01 2 -7 0
658 220 1 -8.1999999999999995e-01 -1.1955383108358221e+01 -5.9026065347426382e+00 -1.3124756764932595e+01 2 -10 -1
2316 772 2 4.0999999999999998e-01 -1.3539447831094712e+01 -5.4132513853345028e+00 -1.4335689794041757e+01 1 5 4
2286 762 2 4.0999999999999998e-01 -1.0656395879545105e+01 -1.0757477310327376e+01 -1.1681732646888840e+01 1 1 4
770 257 2 4.0999999999999998e-01 -1.1354682947968488e+01 -7.6706483892830413e+00 -1.3924520489949597e+01 2 -7 0
876 292 2 4.0999999999999998e-01 -1.4299111847439763e+01 -9.2471926761649854e+00 -9.8046176973076093e+00 -4 0 -3
1956 652 2 4.0999999999999998e-01 -1.2283984914702915e+01 -1.3164404712152923e+01 -1.1551434225317681e+01 -1 -3 5
1579 527 1 -8.1999999999999995e-01 -7.8110056951443418e+00 -5.8560412622817370e+00 -1.0720850483179369e+01 0 1 -2
130 44 1 -8.1999999999999995e-01 -8.2493911719192390e+00 -1.1232055449498604e+01 -9.9757239255101382e+00 0 -2 3
254 85 2 4.0999999999999998e-01 -1.5102769753772582e+01 -1.1795294734108788e+01 -8.0371659596182283e+00 1 4 2
63 21 2 4.0999999999999998e-01 -1.3154824838168370e+01 -1.4283664478044480e+01 -1.3803054420917125e+01 -2 0 3
132 44 2 4.0999999999999998e-01 -8.5198393069392857e+00 -1.1886315228656670e+01 -1.0681995200161648e+01 0 -2 3
1580 527 2 4.0999999999999998e-01 -8.6099782049854134e+00 -5.2813591784041165e+00 -1.0543648391584773e+01 0 1 -2
2347 783 1 -8.1999999999999995e-01 -1.2853127902861221e+01 -1.4679505934806588e+01 -8.1060059517143017e+00 1 -1 4
1581 527 2 4.0999999999999998e-01 -7.6836550463902782e+00 -6.4933460827021356e+00 -9.9608231704028345e+00 0 1 -2
1646 549 2 4.0999999999999998e-01 -8.3470511955668236e+00 -6.2762358299084244e+00 -1.2486941135101535e+01 -5 -6 0
1954 652 1 -8.1999999999999995e-01 -1.2823748312518127e+01 -1.3852205815638527e+01 -1.2036822744795785e+01 -1 -3 5
609 203 2 4.0999999999999998e-01 -7.9997161145556852e+00 -1.2264343028546003e+01 -1.2785374780529290e+01 -3 -1 2
607 203 1 -8.1999999999999995e-01 -8.7843411343134683e+00 -1.2633982508998852e+01 -1.2287632939747690e+01 -3 -1 2
2037 679 2 4.0999999999999998e-01 -1.3682373363376573e+01 -7.3387362039189421e+00 -1.1016903641923555e+01 2 3 -1
61 21 1 -8.1999999999999995e-01 -1.2708508581789539e+01 -1.4503403252379300e+01 -1.4670541384264329e+01 -2 0 3
1955 652 2 4.0999999999999998e-01 -1.2579591220554660e+01 -1.4763135256607322e+01 -1.1704238918514308e+01 -1 -3 5
1214 405 2 4.0999999999999998e-01 -1.3808111843863527e+01 -8.1738543800462153e+00 -1.4047462758987002e+01 0 -8 -1
2202 734 2 4.0999999999999998e-01 -8.4460046269536200e+00 -1.4192889647089880e+01 -1.1813233898477908e+01 2 -5 0
2200 734 1 -8.1999999999999995e-01 -8.0140602936153691e+00 -1.5085438885957560e+01 -1.1683630158745867e+01 2 -5 0
608 203 2 4.0999999999999998e-01 -9.6293496508359482e+00 -1.2271611726453832e+01 -1.2680907880242165e+01 -3 -1 2
1213 405 1 -8.1999999999999995e-01 -1.4193267740852127e+01 -7.7584469313723918e+00 -1.4871543232033604e+01 0 -8 -1
2231 744 2 4.0999999999999998e-01 -1.4400541091673466e+01 -1.3502440388123070e+01 -1.2915922847503042e+01 3 -2 2
2036 679 2 4.0999999999999998e-01 -1.4515500678828122e+01 -5.9443716372420816e+00 -1.0848623101662165e+01 2 3 -1
674 225 2 4.0999999999999998e-01 -1.0684945488724637e+01 -5.2011607963527986e+00 -9.8801913843888087e+00 5 -1 3
526 176 1 -8.1999999999999995e-01 -1.2043611366977080e+01 -8.4985065749069673e+00 -7.6754420431980410e+00 4 -3 4
647 216 2 4.0999999999999998e-01 -1.0825121591304171e+01 -1.3584887773432886e+01 -1.4807974290118942e+01 -5 2 6
1323 441 2 4.0999999999999998e-01 -1.0893685094259347e+01 -1.4564680741911289e+01 -7.9128240922734747e+00 3 -2 5
423 141 2 4.0999999999999998e-01 -8.3685138410246100e+00 -1.4170705658944865e+01 -1.5040602412335980e+01 -2 -2 8
2103 701 2 4.0999999999999998e-01 -2.4126794152347539e+00 -1.4638580505046946e+01 -1.0051595128899930e+01 4 4 3
351 117 2 4.0999999999999998e-01 -6.5395211511279534e+00 -7.9931468908150149e+00 -8.2989988555743199e+00 -3 -3 -3
1057 353 1 -8.1999999999999995e-01 -6.0405925920022323e+00 -1.4811884226971223e+01 -1.0016093257502343e+01 0 3 3
349 117 1 -8.1999999999999995e-01 -7.2824920462826643e+00 -7.3301276578858268e+00 -8.3907411828242928e+00 -3 -3 -3
350 117 2 4.0999999999999998e-01 -7.2665262213366777e+00 -6.7018753483980422e+00 -7.6128845198667667e+00 -3 -3 -3
1028 343 2 4.0999999999999998e-01 -2.7000765808323735e+00 -1.1072654396705175e+01 -1.3923219424286433e+01 -1 -4 -6
1179 393 2 4.0999999999999998e-01 -5.3964558655825989e-01 -1.0095233999369144e+01 -1.0572946663488761e+01 0 -5 2
879 293 2 4.0999999999999998e-01 -3.6111930737597611e+00 -6.7948240922411394e+00 -1.2369596048206322e+01 -2 -5 4
1267 423 1 -8.1999999999999995e-01 -4.7667961661858183e+00 -1.4891915915177357e+01 -1.5081830459319356e+01 -2 -1 3
2101 701 1 -8.1999999999999995e-01 -2.5269565051004648e+00 -1.4609245599856479e+01 -9.0585707919633265e+00 4 4 3
345 115 2 4.0999999999999998e-01 -2.9141363001175211e+00 -7.5402111427226188e+00 -1.4554988404356108e+01 -3 -5 5
1761 587 2 4.0999999999999998e-01 -4.6621570446780041e+00 -6.1148410059377447e+00 -1.0188004902335564e+01 -3 -4 1
2022 674 2 4.0999999999999998e-01 -5.2268277789669231e+00 -1.2361630336366009e+01 -1.3417221529874173e+01 0 3 -2
1846 616 1 -8.1999999999999995e-01 -5.4490476968700658e+00 -6.6838832105654742e+00 -1.1871757342951172e+01 0 -2 3
201 67 2 4.0999999999999998e-01 -3.3650854359171323e+00 -1.3637439463146436e+01 -7.9605868732618275e+00 -3 -4 -3
877 293 1 -8.1999999999999995e-01 -2.9031023012796133e+00 -7.2389040066000954e+00 -1.2918611211435419e+01 -2 -5 4
1058 353 2 4.0999999999999998e-01 -5.6953048441465537e+00 -1.3884896717946273e+01 -1.0162678961103753e+01 0 3 3
200 67 2 4.0999999999999998e-01 -4.6999072451313193e+00 -1.2696983569441549e+01 -7.9821679454420122e+00 -3 -4 -3
468 156 2 4.0999999999999998e-01 -1.3607917286557694e+00 -1.3294515198315382e+01 -8.7696613372854628e+00 -2 1 5
1847 616 2 4.0999999999999998e-01 -5.5985944295400749e+00 -6.9638521710898225e+00 -1.2820055922340170e+01 0 -2 3
466 156 1 -8.1999999999999995e-01 -9.4772843384627237e-01 -1.2424056578334053e+01 -8.5018976568742506e+00 -2 1 5
1134 378 2 4.0999999999999998e-01 -4.3777841945887701e+00 -9.1169828836912021e+00 -7.7619598531774869e+00 -5 2 4
848 283 2 4.0999999999999998e-01 -1.1414106218822440e+00 -8.0020448818983709e+00 -1.0031740624093398e+01 1 0 2
2020 674 1 -8.1999999999999995e-01 -6.2206487087795814e+00 -1.2251973845381674e+01 -1.3434900297102395e+01 0 3 -2
467 156 2 4.0999999999999998e-01 -1.6415974188288232e+00 -1.1842509124659756e+01 -8.0772031086497869e+00 -2 1 5
1759 587 1 -8.1999999999999995e-01 -4.3239674017477778e+00 -5.7600706290647850e+00 -9.3163498719380442e+00 -3 -4 1
1029 343 2 4.0999999999999998e-01 -3.4717646460350160e+00 -1.0703026109807736e+01 -1.2532340536608773e+01 -1 -4 -6
292 98 1 -8.1999999999999995e-01 -1.2386066542192911e+00 -6.7031597644761902e+00 -8.7331188422186976e+00 4 -2 1
2323 775 1 -8.1999999999999995e-01 -7.2344118363122298e+00 -9.7219747552017868e+00 -1.3549378258120708e+01 0 1 5
2021 674 2 4.0999999999999998e-01 -6.6284979769402561e+00 -1.2994358027422695e+01 -1.3966446975943617e+01 0 3 -2
2324 775 2 4.0999999999999998e-01 -6.7678250703013774e+00 -1.0605034908852325e+01 -1.3499192926702321e+01 0 1 5
1848 616 2 4.0999999999999998e-01 -6.2337314774618484e+00 -6.1518480186845732e+00 -1.1553595343327011e+01 0 -2 3
293 98 2 4.0999999999999998e-01 -1.5545072120891366e+00 -6.0064599923711501e+00 -9.3771943068759729e+00 4 -2 1
1768 590 1 -8.1999999999999995e-01 -5.7514302062749572e+00 -7.5581065744745262e+00 -1.4415017008196882e+01 -10 -8 3
2532 844 2 4.0999999999999998e-01 -5.4948350600189109e+00 -1.0751088938742580e+01 -8.6735578266860553e+00 2 -4 7
2530 844 1 -8.1999999999999995e-01 -5.6158316260774210e+00 -1.1543118246228515e+01 -9.2719444558109085e+00 2 -4 7
2531 844 2 4.0999999999999998e-01 -6.5911633161738212e+00 -1.1691322976984608e+01 -9.4355923336662730e+00 2 -4 7
2325 775 2 4.0999999999999998e-01 -6.5935801912240244e+00 -9.0240952112355206e+00 -1.3869246262914546e+01 0 1 5
1596 532 2 4.0999999999999998e-01 -4.9221324300869380e+00 -9.2125617552459431e+00 -1.1530165241638294e+01 -3 -5 4
421 141 1 -8.1999999999999995e-01 -7.4437906772366729e+00 -1.4529930351225364e+01 -1.4914659475804502e+01 -2 -2 8
878 293 2 4.0999999999999998e-01 -2.1534830745880118e+00 -7.5294437641926191e+00 -1.2323905799652373e+01 -2 -5 4
1594 532 1 -8.1999999999999995e-01 -4.3625359293909831e+00 -9.9333734740526403e+00 -1.1121142830614719e+01 -3 -5 4
1027 343 1 -8.1999999999999995e-01 -3.4008393890371824e+00 -1.1369495978760821e+01 -1.3274502636431306e+01 -1 -4 -6
847 283 1 -8.1999999999999995e-01 -1.5061224923482399e+00 -8.5047440828278269e+00 -1.0815510953787488e+01 1 0 2
294 98 2 4.0999999999999998e-01 -3.7725382588279288e-01 -6.4084672544356405e+00 -8.3193017309355746e+00 4 -2 1
849 283 2 4.0999999999999998e-01 -2.3345903530651224e+00 -8.9933912147171782e+00 -1.0541864935317207e+01 1 0 2
1595 532 2 4.0999999999999998e-01 -4.9570763465621628e+00 -1.0618959050393419e+01 -1.0701010562350922e+01 -3 -5 4
1059 353 2 4.0999999999999998e-01 -6.7639789647762658e+00 -1.5006750602909722e+01 -1.0678479714341773e+01 0 3 3
1760 587 2 4.0999999999999998e-01 -3.3798456358303763e+00 -5.4494602483795074e+00 -9.4266786011222656e+00 -3 -4 1
1178 393 2 4.0999999999999998e-01 -3.3766884287957843e-01 -1.1564565400692514e+01 -9.8896145387441852e+00 0 -5 2
1132 378 1 -8.1999999999999995e-01 -5.3700368707994990e+00 -9.1208735688026650e+00 -7.8862035809736284e+00 -5 2 4
1770 590 2 4.0999999999999998e-01 -4.8262336878375987e+00 -7.4548334202708029e+00 -1.4780206204310939e+01 -10 -8 3
1611 537 2 4.0999999999999998e-01 -5.2587454993456717e-01 -1.1434729684483864e+01 -1.4993817620584551e+01 -4 -3 -1
2376 792 2 4.0999999999999998e-01 -2.4448626333441723e+00 -8.0667157767354229e+00 -7.8112940753507845e+00 2 -2 3
2070 690 2 4.0999999999999998e-01 -1.4310107760744936e+01 -1.4308991095384552e+01 -5.7835133687634137e+00 -2 -3 2
2068 690 1 -8.1999999999999995e-01 -1.4075848003445975e+01 -1.3336902990852293e+01 -5.7699546334818663e+00 -2 -3 2
2056 686 1 -8.1999999999999995e-01 -1.2290470315374041e+01 -1.1342025616452814e+01 -6.4641463186639534e+00 -2 -5 3
2057 686 2 4.0999999999999998e-01 -1.2806762114863846e+01 -1.2150363677134610e+01 -6.1812160569575987e+00 -2 -5 3
2058 686 2 4.0999999999999998e-01 -1.1445546349427593e+01 -1.1283244552992768e+01 -5.9324838847992929e+00 -2 -5 3
1256 419 2 4.0999999999999998e-01 -1.3471374695185913e+01 -1.2626795221518730e+01 -2.5202475226378080e+00 2 -3 -2
1255 419 1 -8.1999999999999995e-01 -1.4347610299539193e+01 -1.2240774565060772e+01 -2.2317757319882716e+00 2 -3 -2
1257 419 2 4.0999999999999998e-01 -1.4220676398257167e+01 -1.1283575676542577e+01 -1.9716316595757899e+00 2 -3 -2
951 317 2 4.0999999999999998e-01 -8.9016709753737615e+00 -9.5050048943433261e+00 -8.1859106199750720e-01 3 -5 -1
162 54 2 4.0999999999999998e-01 -1.1529536131213835e+01 -1.2001990208167932e+01 -3.7760562806407147e+00 -1 -2 -4
950 317 2 4.0999999999999998e-01 -9.7621738630637758e+00 -9.1119162899753583e+00 -2.1496387817696654e+00 3 -5 -1
1758 586 2 4.0999999999999998e-01 -9.2582756149468359e+00 -1.1683066270256571e+01 -4.0710495309085228e+00 1 -4 1
949 317 1 -8.1999999999999995e-01 -9.7240870633844132e+00 -9.7101547137513649e+00 -1.3492156085132372e+00 3 -5 -1
1756 586 1 -8.1999999999999995e-01 -9.8835528561516703e+00 -1.1379020427448344e+01 -4.7897995945373637e+00 1 -4 1
161 54 2 4.0999999999999998e-01 -1.1289614078881529e+01 -1.2717507842138508e+01 -2.3279044218788449e+00 -1 -2 -4
160 54 1 -8.1999999999999995e-01 -1.1875614055146297e+01 -1.2689599223042265e+01 -3.1377453019401926e+00 -1 -2 -4
1837 613 1 -8.1999999999999995e-01 -1.0293206739822995e+01 -1.2318823981991478e+01 -1.1602866854240226e+00 -4 -8 3
356 119 2 4.0999999999999998e-01 -1.1811984618555668e+01 -7.0166571005322140e+00 -3.3506736337052079e+00 -6 0 -1
2083 695 1 -8.1999999999999995e-01 -1.3777442386395974e+01 -7.7120898303054393e+00 -3.1738226242285545e+00 6 -4 4
788 263 2 4.0999999999999998e-01 -8.2392388198798390e+00 -7.1407866660708619e+00 -3.1641193840057369e+00 -2 1 2
1757 586 2 4.0999999999999998e-01 -9.4490325598598801e+00 -1.1499235534795851e+01 -5.6824123974341383e+00 1 -4 1
284 95 2 4.0999999999999998e-01 -1.1191872082730779e+01 -6.1337562113462543e+00 -5.1494785044244864e+00 -2 -1 -2
2179 727 1 -8.1999999999999995e-01 -1.5065344722340175e+01 -7.4295263364415129e+00 -7.3601152002945467e+00 2 -6 -3
355 119 1 -8.1999999999999995e-01 -1.1359832591131294e+01 -6.1312653928560934e+00 -3.2427061505694521e+00 -6 0 -1
787 263 1 -8.1999999999999995e-01 -9.1012408222417420e+00 -7.5626221100791149e+00 -3.4452324997109862e+00 -2 1 2
789 263 2 4.0999999999999998e-01 -9.8582732718257695e+00 -6.9420154729755996e+00 -3.2408640521871188e+00 -2 1 2
1141 381 1 -8.1999999999999995e-01 -1.3663519118229837e+01 -9.7339271118552411e+00 -1.2190229331534113e+00 3 -10 0
1155 385 2 4.0999999999999998e-01 -9.2143299478880802e+00 -1.3157286751987110e+01 -7.3429647797701287e+00 -5 -5 2
1153 385 1 -8.1999999999999995e-01 -8.8156443056669644e+00 -1.2241652408785059e+01 -7.3947398197790442e+00 -5 -5 2
1915 639 1 -8.1999999999999995e-01 -1.0863617402600035e+01 -6.5705124013002845e+00 -1.1871881912671789e-01 -5 3 5
587 196 2 4.0999999999999998e-01 -1.4700205737798758e+01 -1.2608843510727921e+01 -4.4664498015026943e-01 -8 -3 0
1839 613 2 4.0999999999999998e-01 -1.0082586666188956e+01 -1.1371196679774330e+01 -1.4004090390546722e+00 -4 -8 3
2084 695 2 4.0999999999999998e-01 -1.4479503033501276e+01 -8.1734905761099430e+00 -3.7162591160949923e+00 6 -4 4
285 95 2 4.0999999999999998e-01 -1.0760892436557516e+01 -5.7452283418878842e+00 -6.6759037222020279e+00 -2 -1 -2
283 95 1 -8.1999999999999995e-01 -1.1451768718239883e+01 -6.1988414381134209e+00 -6.1129277556341961e+00 -2 -1 -2
1094 365 2 4.0999999999999998e-01 -8.2559725023426687e+00 -8.5524168342345437e+00 -4.8364924406382794e+00 1 -6 0
2085 695 2 4.0999999999999998e-01 -1.3912038783295488e+01 -6.7225980850299774e+00 -3.2268028762405727e+00 6 -4 4
1260 420 2 4.0999999999999998e-01 -1.0857567380080221e+01 -1.4535063793601685e+01 -3.0824401486708215e+00 0 5 -2
2348 783 2 4.0999999999999998e-01 -1.3436826555050768e+01 -1.4298917752827984e+01 -7.3887436410125913e+00 1 -1 4
2069 690 2 4.0999999999999998e-01 -1.4914287728032907e+01 -1.2792227461934656e+01 -5.7508650226309825e+00 -2 -3 2
1143 381 2 4.0999999999999998e-01 -1.3137082612548014e+01 -9.4911852153167491e+00 -2.0338591510245614e+00 3 -10 0
2293 765 1 -8.1999999999999995e-01 -8.1983871344796437e+00 -1.2995396995531317e+01 -3.1683742959201115e+00 -4 1 1
2180 727 2 4.0999999999999998e-01 -1.4888750469808606e+01 -6.4506203133829398e+00 -7.2572826235464003e+00 2 -6 -3
1142 381 2 4.0999999999999998e-01 -1.4588657052178039e+01 -9.3623608833764091e+00 -1.2969683862825576e+00 3 -10 0
2294 765 2 4.0999999999999998e-01 -8.1802438464815594e+00 -1.3995189463732249e+01 -3.1785226974348486e+00 -4 1 1
471 157 2 4.0999999999999998e-01 -7.6222533373245538e+00 -6.7925284577183014e+00 -5.7331233229772174e+00 0 -2 9
1331 444 2 4.0999999999999998e-01 -1.3130106017413796e+01 -5.5964216783894685e+00 -6.3139972539400659e+00 3 0 4
1838 613 2 4.0999999999999998e-01 -9.5273396424329988e+00 -1.2711825989137960e+01 -6.5135233018325955e-01 -4 -8 3
1725 575 2 4.0999999999999998e-01 -8.6245586908310230e+00 -5.1462736318780209e+00 -1.9956747666532504e+00 -4 -8 5
1330 444 1 -8.1999999999999995e-01 -1.3984012691526242e+01 -5.1503881704877799e+00 -6.5821661496498134e+00 3 0 4
1724 575 2 4.0999999999999998e-01 -1.0031087563753580e+01 -5.4490395371732738e+00 -1.2232233274656803e+00 -4 -8 5
1321 441 1 -8.1999999999999995e-01 -1.0086626534777100e+01 -1.4911953445599430e+01 -7.4352517786729413e+00 3 -2 5
527 176 2 4.0999999999999998e-01 -1.2771124612642339e+01 -8.8947692401476122e+00 -7.1153370985895794e+00 4 -3 4
528 176 2 4.0999999999999998e-01 -1.1678158645462368e+01 -7.6860865474431623e+00 -7.2210906478762462e+00 4 -3 4
357 119 2 4.0999999999999998e-01 -1.1877964936537612e+01 -5.5687717900164078e+00 -2.5983793720664234e+00 -6 0 -1
2371 791 1 -8.1999999999999995e-01 -1.4927356580130608e+01 -5.0648005075693998e+00 -2.9575889373947870e+00 -2 -1 7
1917 639 2 4.0999999999999998e-01 -1.1102846087998525e+01 -7.5405572216768322e+00 -1.6113905060104194e-01 -5 3 5
1093 365 1 -8.1999999999999995e-01 -7.4988394125271585e+00 -8.6306146557509464e+00 -5.4850689561332349e+00 1 -6 0
461 154 2 4.0999999999999998e-01 -7.2702906919707360e+00 -1.1646979139702960e+01 -6.2577164927672175e+00 3 -3 5
909 303 2 4.0999999999999998e-01 -2.1586822713297238e-01 -1.3746844003651400e+01 -1.1985804246902863e+00 4 -3 6
64 22 1 -8.1999999999999995e-01 -6.6448606343171868e-01 -5.3608574519794949e+00 -3.5145347969866521e+00 2 2 1
2533 845 1 -8.1999999999999995e-01 -2.1187112936409491e-01 -5.0485611534507697e+00 -6.8952091407567195e-01 -2 -3 -1
1095 365 2 4.0999999999999998e-01 -7.2445216127348182e+00 -9.5924482057009950e+00 -5.5861416354348865e+00 1 -6 0
729 243 2 4.0999999999999998e-01 -4.3949798685910633e+00 -5.5683769636853615e+00 -7.4890011470877367e+00 -5 -7 -1
2399 800 2 4.0999999999999998e-01 -1.8445030245454248e+00 -1.3594067878724998e+01 -4.6564144394874258e+00 0 3 -1
880 294 1 -8.1999999999999995e-01 -1.9736591833755863e+00 -1.4880529063387980e+01 -1.9330541921649793e+00 -1 -1 5
923 308 2 4.0999999999999998e-01 -4.2214047784157458e+00 -7.0855822204618750e+00 -4.1332639139032352e+00 0 5 4
924 308 2 4.0999999999999998e-01 -5.5716073098568764e+00 -7.9518526279013706e+00 -4.4385522287858628e+00 0 5 4
1763 588 2 4.0999999999999998e-01 -6.8260613287458920e+00 -1.3520780023303757e+01 -7.7749620627659155e-01 2 -6 2
1699 567 1 -8.1999999999999995e-01 -7.0166156788496892e+00 -5.6573717014688434e+00 -2.5930055604548858e+00 -3 -2 6
125 42 2 4.0999999999999998e-01 -1.7659140824754846e+00 -7.5825415983376452e+00 -5.1029876862027539e+00 4 -3 3
126 42 2 4.0999999999999998e-01 -2.0783462772999073e+00 -6.1490248189164376e+00 -4.3859886019037582e+00 4 -3 3
1442 481 2 4.0999999999999998e-01 -5.0175315757923222e-01 -9.8281016439560283e+00 -5.7804066541980959e+00 5 -2 9
460 154 1 -8.1999999999999995e-01 -6.5020643643875164e+00 -1.1164600840437458e+01 -5.8368166887455732e+00 3 -3 5
118 40 1 -8.1999999999999995e-01 -4.8343471427955524e+00 -8.0143770842072612e+00 -1.1174645846582081e+00 -5 1 -2
1392 464 2 4.0999999999999998e-01 -5.0739351195539264e+00 -1.3944337635869257e+01 -4.6948675971988152e+00 -2 -1 1
2375 792 2 4.0999999999999998e-01 -2.3067981556967645e+00 -9.0872160707974015e+00 -6.5439388728174279e+00 2 -2 3
462 154 2 4.0999999999999998e-01 -5.9306259279299134e+00 -1.1817497970626146e+01 -5.3396239439355355e+00 3 -3 5
120 40 2 4.0999999999999998e-01 -4.4140999231137030e+00 -8.9039726040249612e+00 -1.2964317909123455e+00 -5 1 -2
1391 464 2 4.0999999999999998e-01 -4.2394868680748772e+00 -1.2916257788877264e+01 -5.6505977943392409e+00 -2 -1 1
1443 481 2 4.0999999999999998e-01 -1.6901483782572768e-01 -8.7904669816846663e+00 -4.5641536756464589e+00 5 -2 9
941 314 2 4.0999999999999998e-01 -3.1349266280940391e+00 -1.0591643275804671e+01 -1.5296857594494107e+00 -2 0 6
727 243 1 -8.1999999999999995e-01 -4.4451925708514519e+00 -5.4887267712067516e+00 -6.4934351375494792e+00 -5 -7 -1
1390 464 1 -8.1999999999999995e-01 -4.6320416311295407e+00 -1.3048417193494872e+01 -4.7404045945087390e+00 -2 -1 1
119 40 2 4.0999999999999998e-01 -4.9910509683814244e+00 -7.5394986488945239e+00 -1.9834619943587910e+00 -5 1 -2
65 22 2 4.0999999999999998e-01 -7.0133151395056181e-01 -5.2751627952357918e+00 -2.5188864222898335e+00 2 2 1
2072 691 2 4.0999999999999998e-01 -9.9647667574152798e-01 -1.4942453450096190e+01 -3.4999385653546131e+00 -2 -1 -3
150 50 2 4.0999999999999998e-01 -1.4307241166761013e+00 -1.1212306635019907e+01 -3.0422651767568514e+00 -6 -1 0
149 50 2 4.0999999999999998e-01 -1.9346700321279631e+00 -9.6793609773699174e+00 -3.2928396620417146e+00 -6 -1 0
470 157 2 4.0999999999999998e-01 -6.3657593698242021e+00 -5.7662658815347108e+00 -5.9193494578456978e+00 0 -2 9
922 308 1 -8.1999999999999995e-01 -5.1501199738568477e+00 -7.2869534589591733e+00 -3.8218881520925798e+00 0 5 4
2374 792 1 -8.1999999999999995e-01 -2.7045005694392898e+00 -8.9635402548123224e+00 -7.4530891664523979e+00 2 -2 3
1133 378 2 4.0999999999999998e-01 -5.8058118010653796e+00 -9.5137983877288921e+00 -7.0764339487662973e+00 -5 2 4
728 243 2 4.0999999999999998e-01 -3.6932412766827678e+00 -6.0019192187523345e+00 -6.0796481391767134e+00 -5 -7 -1
27 9 2 4.0999999999999998e-01 -5.2066133828350445e+00 -1.2965625278923858e+01 -2.8695053423938184e+00 2 -1 2
469 157 1 -8.1999999999999995e-01 -7.3626076316224589e+00 -5.8456300479441463e+00 -5.9228192989212047e+00 0 -2 9
148 50 1 -8.1999999999999995e-01 -1.8682455787257144e+00 -1.0417581733026646e+01 -2.6215463812916369e+00 -6 -1 0
25 9 1 -8.1999999999999995e-01 -5.6152370008744317e+00 -1.2572649688916272e+01 -2.0457249734928826e+00 2 -1 2
2295 765 2 4.0999999999999998e-01 -7.3221922367512109e+00 -1.2649515593676625e+01 -2.8327171714098984e+00 -4 1 1
1700 567 2 4.0999999999999998e-01 -6.3662003380104437e+00 -6.1239880182475623e+00 -3.1923770563351539e+00 -3 -2 6
26 9 2 4.0999999999999998e-01 -4.9629309543941211e+00 -1.1948894878271810e+01 -1.6150929717203422e+00 2 -1 2
940 314 1 -8.1999999999999995e-01 -3.9974190835875980e+00 -1.0499848271286531e+01 -1.0319935475922293e+00 -2 0 6
2398 800 1 -8.1999999999999995e-01 -1.8920871957554635e+00 -1.2609093085382625e+01 -4.4903500694069898e+00 0 3 -1
1441 481 1 -8.1999999999999995e-01 -8.2210827372612805e-01 -9.0201967133356753e+00 -5.2857561661963111e+00 5 -2 9
2400 800 2 4.0999999999999998e-01 -2.8430995484349673e+00 -1.2343247014486792e+01 -4.3324943079779388e+00 0 3 -1
124 42 1 -8.1999999999999995e-01 -2.3839298221728633e+00 -6.7965930760696267e+00 -5.0840509637145761e+00 4 -3 3
942 314 2 4.0999999999999998e-01 -3.8173951019190699e+00 -1.0510196127296933e+01 -4.8377088780199529e-02 -2 0 6
1488 496 2 4.0999999999999998e-01 -6.5129882399602970e+00 -8.7847900575432369e+00 -6.7418180589981880e-01 2 -4 1
1486 496 1 -8.1999999999999995e-01 -7.2423357643552384e+00 -9.2492044993404505e+00 -1.7179888341325089e-01 2 -4 1
199 67 1 -8.1999999999999995e-01 -3.9797624982378981e+00 -1.3079325921602898e+01 -7.4031834459021404e+00 -3 -4 -3
487 163 1 -8.1999999999999995e-01 -1.2340362424898291e+01 -8.3602354727629340e+00 6.1573007780236058e+00 0 -4 -3
488 163 2 4.0999999999999998e-01 -1.2536143848016248e+01 -8.8679559815168840e+00 5.3183093990832493e+00 0 -4 -3
1401 467 2 4.0999999999999998e-01 -1.0798291075993621e+01 -1.0681974710503892e+01 3.7853698018599946e+00 0 1 3
1399 467 1 -8.1999999999999995e-01 -1.1674037024642757e+01 -1.0431606834399489e+01 4.1981676000209145e+00 0 1 3
1400 467 2 4.0999999999999998e-01 -1.2402765481823943e+01 -1.0985664371857798e+01 3.7956851257316639e+00 0 1 3
2148 716 2 4.0999999999999998e-01 -1.1554406071802092e+01 -1.3732644720341362e+01 3.6722662400543538e+00 -2 -3 1
2147 716 2 4.0999999999999998e-01 -1.1864398707276944e+01 -1.3949952207393666e+01 5.2607726853511334e+00 -2 -3 1
2146 716 1 -8.1999999999999995e-01 -1.1663384641145402e+01 -1.3272356422946149e+01 4.5533308815959810e+00 -2 -3 1
257 86 2 4.0999999999999998e-01 -1.1170411746916443e+01 -8.7631156726270731e+00 3.5755086990492035e+00 6 -1 2
256 86 1 -8.1999999999999995e-01 -1.1464601065615579e+01 -7.9789331098754710e+00 3.0291321383177330e+00 6 -1 2
2312 771 2 4.0999999999999998e-01 -1.0246372016116382e+01 -1.2010101812513769e+01 5.2517385148940630e+00 2 -2 2
1019 340 2 4.0999999999999998e-01 -8.9881937296727372e+00 -1.3708833305996334e+01 5.6140171447972786e+00 -3 1 -1
1018 340 1 -8.1999999999999995e-01 -9.0328353353252666e+00 -1.4511135806121041e+01 6.2092775765312833e+00 -3 1 -1
473 158 2 4.0999999999999998e-01 -1.1567259349307481e+01 -1.4529656808114044e+01 9.6698241633291993e-01 0 -4 1
258 86 2 4.0999999999999998e-01 -1.1552523900931142e+01 -8.2539449196999364e+00 2.0717111051451749e+00 6 -1 2
1566 522 2 4.0999999999999998e-01 -9.2629146385068282e+00 -6.1550078498772507e+00 4.0868447543693005e+00 4 -11 3
1564 522 1 -8.1999999999999995e-01 -8.5852030547877618e+00 -6.8319994337618457e+00 3.7997794373798062e+00 4 -11 3
1565 522 2 4.0999999999999998e-01 -8.5766703646306262e+00 -6.8925704540640282e+00 2.8016435247015128e+00 4 -11 3
2128 710 1 -8.1999999999999995e-01 -1.1023542399248054e+01 -5.4953791069409661e+00 5.1672664418973060e+00 1 -4 5
1669 557 1 -8.1999999999999995e-01 -9.2996410295515997e+00 -1.0241342714457161e+01 2.4746294185911477e+00 -2 -8 1
489 163 2 4.0999999999999998e-01 -1.1409620806985540e+01 -7.9967169095018846e+00 6.1174092577294044e+00 0 -4 -3
1279 427 1 -8.1999999999999995e-01 -1.3368484585984680e+01 -5.7240373167937904e+00 7.1942861926438262e-01 6 -2 4
1521 507 2 4.0999999999999998e-01 -1.1146298886033186e+01 -9.7007281050901870e+00 5.6584043904114978e-02 -6 -3 -3
2129 710 2 4.0999999999999998e-01 -1.1369829355380093e+01 -6.1387285820790947e+00 4.4844753522654646e+00 1 -4 5
1671 557 2 4.0999999999999998e-01 -9.3067170981125216e+00 -9.2840446674203339e+00 2.1855835526750251e+00 -2 -8 1
2311 771 1 -8.1999999999999995e-01 -9.2566752954092699e+00 -1.1894984951728013e+01 5.3369768689589758e+00 2 -2 2
2359 787 1 -8.1999999999999995e-01 -1.4657395186403047e+01 -5.8120194766414954e+00 6.1322629879395425e+00 0 -5 1
472 158 1 -8.1999999999999995e-01 -1.2021406006900845e+01 -1.4015968825424826e+01 1.6949195120787675e+00 0 -4 1
586 196 1 -8.1999999999999995e-01 -1.4434262703631417e+01 -1.2990939479228757e+01 4.3839405537612919e-01 -8 -3 0
1484 495 2 4.0999999999999998e-01 -8.2264165905236446e+00 -1.1732812363383639e+01 6.9753010595761307e+00 -3 1 2
1670 557 2 4.0999999999999998e-01 -8.5174635158854226e+00 -1.0708301419494216e+01 2.0621188096187577e+00 -2 -8 1
1236 412 2 4.0999999999999998e-01 -1.4086905212362279e+01 -8.4972159155448956e+00 6.5757931482400718e+00 -2 0 6
2313 771 2 4.0999999999999998e-01 -8.9146792972198838e+00 -1.1365108163241333e+01 4.5609057555000110e+00 2 -2 2
575 192 2 4.0999999999999998e-01 -9.3678898700289253e+00 -7.0762218059445381e+00 4.5027295035937165e-01 5 -2 2
1908 636 2 4.0999999999999998e-01 -1.3936451647628058e+01 -5.4970784322408246e+00 2.9855423600875657e+00 -4 -6 4