2593
Atoms. Timestep: 1000000
O -2.67327 14.0813 -6.15038
H -1.71874 13.8133 -6.01987
H -3.1842 13.3152 -6.54032
O -5.93827 -14.1907 0.56408
H -6.04772 -13.3889 1.15158
H -6.72767 -14.2679 -0.0449077
O 12.1335 -7.95429 6.17494
H 12.3451 -8.49128 5.35832
H 12.8201 -7.23622 6.28877
O -15.072 -14.6312 3.49192
H -14.9676 14.7677 2.89
H 14.187 -14.6086 3.85444
O 11.2461 13.439 2.92805
H 10.4939 14.0466 2.67327
H 11.2084 12.6099 2.37026
O -12.0991 -7.57695 0.455045
H -11.472 -6.81137 0.598468
H -13.0401 -7.26715 0.591684
O 6.41137 13.3112 -3.68255
H 6.67019 13.7267 -4.55452
H 6.13901 12.361 -3.83394
O 4.19888 3.64312 -7.98319
H 5.03135 4.18076 -8.11704
H 3.99511 3.13098 -8.81755
O -0.943585 -13.1733 10.4118
H -1.6635 -12.5197 10.6453
H -1.1542 -14.0613 10.8205
O -8.85924 12.9415 0.161791
H -7.90964 12.6638 0.307072
H -8.88953 13.911 -0.0812594
O -6.32055 9.63144 1.7336
H -5.74037 9.36133 0.965223
H -7.18378 9.12834 1.69244
O -4.87399 -5.3868 -9.62663
H -5.6296 -5.80131 -9.11948
H -4.87292 -5.73264 -10.5649
O -1.16225 -8.61817 11.028
H -0.669482 -9.07673 10.2885
H -0.574411 -7.92078 11.438
O 13.0816 -6.96656 11.3916
H 13.158 -6.10343 10.8925
H 13.9632 -7.19044 11.8071
O 0.558503 5.71796 -13.7062
H 1.02243 5.92684 -12.8453
H 0.875006 4.83363 -14.0494
O 11.1811 -1.39743 -13.881
H 10.3807 -1.84975 -13.4877
H 10.9849 -0.425389 -14.0099
O -8.59287 -10.9049 -0.343835
H -9.44043 -10.4615 -0.635438
H -8.14892 -11.3276 -1.1339
O -4.18071 -8.11326 -3.95293
H -4.40697 -7.33808 -4.54274
H -4.90874 -8.24366 -3.27992
O 7.96305 0.0468716 7.52068
H 7.59377 0.249119 6.61365
H 8.12148 -0.936939 7.60427
O -9.95469 -1.86487 -0.712775
H -9.45694 -2.55282 -1.24092
H -9.44454 -1.65078 0.120224
O -5.46655 1.82738 14.9592
H -6.28449 2.20903 14.5287
H -5.32484 0.892086 14.635
O 5.72196 -5.51862 -8.27921
H 5.29961 -6.42245 -8.2107
H 5.05549 -4.81892 -8.02189
O 7.9645 9.55628 -9.7055
H 8.08002 10.5494 -9.68553
H 8.51425 9.17161 -10.447
O 12.0866 -9.58954 11.5761
H 12.3753 -8.66169 11.34
H 12.5898 -10.2478 11.0161
O 1.08373 -10.7743 -8.2223
H 1.19025 -11.7587 -8.08238
H 0.226473 -10.5972 -8.70576
O -13.2626 -9.57554 10.2246
H -12.4679 -9.0141 9.99403
H -14.0821 -9.17908 9.81088
O 9.08615 8.68365 4.60793
H 10.0411 8.80922 4.87669
H 9.0343 8.53828 3.61993
O -3.22537 9.8541 -8.81802
H -3.46542 10.5734 -8.16616
H -3.42608 10.1655 -9.74685
O 3.42491 -4.62829 9.99566
H 4.41417 -4.49517 9.93558
H 3.01995 -4.53311 9.08631
O 12.276 -1.87739 -8.85684
H 12.1819 -0.883587 -8.91591
H 13.2134 -2.1378 -9.08798
O 13.6164 -1.79797 -12.3294
H 12.654 -1.70054 -12.583
H 13.9261 -2.72376 -12.5462
O 10.5413 -0.179895 -0.982768
H 11.172 -0.41684 -1.72177
H 10.562 0.808279 -0.830926
O 6.16692 -14.8662 3.4653
H 5.89305 -14.3646 4.28585
H 6.69833 14.5193 3.72868
O 4.3793 -11.8976 -4.53876
H 5.16536 -11.9704 -5.15258
H 4.42871 -11.0352 -4.03486
O 4.52144 -13.5646 -12.7144
H 5.09344 -12.9999 -12.1196
H 4.78162 -14.5249 -12.6132
O -4.87894 13.5511 12.4829
H -4.20537 12.8483 12.2544
H -4.78955 14.3177 11.847
O -13.3403 -3.75888 -10.6732
H -12.496 -3.23101 -10.581
H -14.0628 -3.32935 -10.1314
O -14.8053 -9.00542 5.68264
H 14.9809 -9.76584 6.19074
H -14.6929 -9.26733 4.72412
O 0.971275 -10.06 12.2712
H 1.07699 -10.1753 11.2836
H 0.0155346 -9.85531 12.4825
O -3.50607 9.81662 2.33214
H -3.12099 10.4159 1.63029
H -4.40852 9.49924 2.04091
O -10.8499 -4.05556 5.4241
H -11.3608 -3.6145 6.16192
H -9.87057 -4.00367 5.6195
O -13.3639 -10.4204 3.01943
H -13.8046 -11.316 3.07899
H -14.0167 -9.75047 2.66596
O -1.37965 8.4635 6.17186
H -1.35138 8.95484 5.30137
H -2.31537 8.16137 6.35384
O -15.0426 13.4145 -6.85497
H 14.9762 12.5227 -6.43646
H 15.0443 13.3427 -7.84696
O 6.56048 13.5421 -1.08103
H 7.49928 13.8068 -0.860704
H 6.45908 13.4683 -2.07313
O -10.8825 3.87376 -5.64646
H -10.4666 2.98922 -5.43533
H -10.228 4.60457 -5.45265
O 11.1822 -13.9606 -6.9946
H 11.4708 -14.5082 -7.77999
H 11.9638 -13.8072 -6.38998
O 3.44212 -11.2301 10.9419
H 3.06154 -11.3888 10.0309
H 2.97915 -11.8196 11.6038
O 5.85709 3.7806 1.01848
H 5.60779 4.20158 1.8906
H 5.98778 4.49351 0.329532
O 13.2592 6.70338 -2.88143
H 14.2328 6.89093 -3.0112
H 12.7348 7.54045 -3.03743
O 10.1525 -5.1787 -8.7665
H 9.29654 -4.69248 -8.94216
H 10.0449 -6.14219 -9.0116
O 7.41245 13.7715 12.226
H 7.11173 13.702 11.2749
H 6.79223 14.3739 12.7285
O -9.27429 -5.64406 -14.5
H -10.0073 -5.17843 -14.0042
H -9.16186 -5.22402 14.7901
O 6.05382 -5.27908 9.79459
H 6.11113 -5.18201 10.7882
H 6.46416 -6.14882 9.52045
O 12.0298 0.835502 -8.44781
H 12.1596 1.59918 -7.81541
H 12.6787 0.915418 -9.20451
O -5.95264 4.556 11.9621
H -6.87274 4.75986 12.2965
H -5.7854 3.57212 12.0253
O 10.3274 2.60831 12.287
H 10.3377 2.91482 11.3352
H 10.8796 3.22942 12.8432
O 11.7325 -13.4635 8.77885
H 12.1764 -14.3302 8.55149
H 10.9749 -13.6323 9.40935
O 3.03485 -11.5078 8.26902
H 3.96423 -11.2153 8.04392
H 2.78292 -12.2877 7.69612
O 10.7862 -13.3921 11.6566
H 10.5691 -14.2954 11.2868
H 11.2494 -13.4948 12.5369
O 4.26738 3.01001 10.0278
H 4.54223 2.62684 10.9097
H 4.22075 2.27921 9.34685
O 9.44541 -10.4028 -8.03142
H 8.46665 -10.4694 -7.83758
H 9.74862 -11.2301 -8.5042
O 7.31304 3.93366 12.1232
H 8.06904 4.11866 11.4953
H 7.43336 3.02921 12.5324
O -12.2983 -0.713717 7.21384
H -13.2878 -0.856751 7.23372
H -11.8323 -1.58747 7.35319
O 10.625 -15.083 -4.56791
H 10.0351 14.3268 -4.77355
H 10.8259 -14.5857 -5.41187
O 1.13111 4.51977 -8.31983
H 1.90695 3.95426 -8.59955
H 0.531733 3.99003 -7.71975
O -5.09769 5.49903 -3.98942
H -5.82638 6.16759 -3.84105
H -4.25715 5.81973 -3.55281
O -5.68895 -1.06056 -5.17058
H -5.00019 -1.20138 -5.88175
H -5.88597 -1.93142 -4.72028
O -5.63339 -10.6449 -12.5791
H -6.07691 -10.2632 -11.7683
H -6.32059 -10.8175 -13.2848
O -12.0275 -3.71445 7.78947
H -11.1932 -3.87274 8.31762
H -12.7996 -4.15707 8.24538
O 5.30396 -0.526065 -6.5529
H 4.58111 -0.675489 -7.22753
H 5.01504 -0.891973 -5.66824
O -1.1685 14.2115 -11.0348
H -0.321342 14.4712 -10.5713
H -1.15048 14.549 -11.9759
O -6.73828 2.3904 7.48929
H -7.20269 2.82028 6.71502
H -6.08264 3.03412 7.8839
O -14.4338 -6.4235 12.7906
H -14.401 -5.50551 12.3954
H -14.9889 -6.40869 13.6223
O 5.63739 -2.36962 -9.83529
H 4.79514 -2.00371 -9.43943
H 6.40901 -2.15028 -9.23825
O 14.3508 -3.77411 -4.62547
H 13.5982 -4.42364 -4.73378
H 14.1713 -3.18429 -3.83815
O -7.78571 7.01931 9.62949
H -8.07797 7.56289 10.4163
H -6.85716 7.28318 9.36848
O 7.63167 -6.41171 6.72866
H 6.87813 -6.46947 6.07382
H 7.42631 -6.98169 7.52423
O 14.1689 -5.54119 -15.0612
H 14.4073 -4.944 -14.2954
H 13.8819 -6.43303 -14.7116
O 3.50505 9.69562 -11.4854
H 3.78254 10.1484 -12.3327
H 2.57976 9.98506 -11.2404
O -9.67393 -0.173094 15.0574
H -9.08697 0.593581 14.7973
H -10.6328 0.0990852 14.9773
O -8.172 -0.228229 -8.77582
H -7.53187 0.318483 -8.23609
H -7.66175 -0.810491 -9.40874
O 9.24786 4.92777 10.3318
H 9.01525 5.34 9.45094
H 9.9753 5.45863 10.7665
O -4.80476 -2.68119 -9.19034
H -5.69728 -2.4654 -9.58635
H -4.67971 -3.67314 -9.17108
O 12.7633 4.78642 -11.2138
H 12.7935 5.18195 -10.2958
H 13.515 5.15513 -11.7605
O 1.68549 11.3912 3.43351
H 2.32058 12.1562 3.54052
H 1.27549 11.4234 2.52201
O -14.3439 -0.350493 -12.9528
H 14.988 -0.830409 -12.7731
H -13.8754 -0.170237 -12.088
O 13.8503 1.61156 13.8325
H 13.4647 0.714244 14.0473
H 14.2377 2.01495 14.6614
O 6.13277 12.7041 9.69654
H 5.22286 12.298 9.61232
H 6.63657 12.5731 8.84273
O -5.39219 6.01067 -8.23328
H -4.59218 6.21431 -7.66893
H -5.12105 5.4245 -8.99673
O -8.54089 9.20982 11.296
H -8.33217 9.52185 10.3692
H -9.11558 9.88772 11.7544
O 11.8025 4.61089 13.9395
H 12.6906 4.66406 14.396
H 11.0798 4.85171 14.5874
O 14.8651 2.10612 -13.9588
H 14.8434 1.25903 -13.4279
H -14.7998 2.79711 -13.4627
O -1.59203 2.36238 -8.56111
H -2.39734 1.76971 -8.57507
H -1.54684 2.88343 -9.41342
O -11.2109 7.10933 5.60044
H -11.6474 6.3735 5.08277
H -10.5781 6.71718 6.2681
O -4.81067 -5.23144 -5.7861
H -5.35855 -5.67974 -6.49237
H -3.96299 -4.88755 -6.19004
O -4.60729 11.0136 -10.8122
H -3.70353 11.3336 -11.0965
H -4.96789 11.6199 -10.1035
O 0.835841 4.37639 10.312
H 0.318965 4.86751 9.61082
H 1.41032 5.02152 10.8157
O -12.3948 0.977247 9.30085
H -12.0772 0.594233 8.43345
H -13.3942 0.956007 9.32851
O -9.08332 11.741 -4.50537
H -8.81503 12.6834 -4.3056
H -10.066 11.7056 -4.68702
O -14.0228 -5.68225 -5.84232
H -14.6003 -4.95875 -5.4642
H -13.1355 -5.67568 -5.38116
O 6.88589 10.5617 1.79474
H 6.36269 10.4598 0.948658
H 6.27203 10.4721 2.57905
O -9.92798 3.09408 6.59667
H -9.16272 3.02557 5.95662
H -10.6988 2.55756 6.25323
O 3.52831 7.32118 -1.87045
H 3.20079 6.58145 -1.28265
H 3.64514 8.15218 -1.32661
O -10.447 8.70063 -3.01762
H -10.9196 9.33138 -2.40217
H -9.73212 9.19263 -3.51442
O 0.082218 -13.4107 -14.8239
H -0.127083 -12.96 -13.9561
H -0.650242 -13.2277 14.711
O 5.31282 7.81382 -11.8785
H 5.04358 6.86853 -11.6943
H 4.52779 8.41726 -11.7386
O -13.8905 -5.26021 8.8681
H -14.8885 -5.26688 8.93049
H -13.5756 -6.12186 8.47009
O 11.9583 1.74084 2.98536
H 11.4656 1.63762 3.84937
H 12.9377 1.82668 3.16839
O 0.315412 -6.31471 12.08
H 1.31172 -6.4004 12.0776
H 0.0492919 -5.53484 12.6465
O 2.5844 -12.5703 0.179543
H 1.61242 -12.5655 0.414485
H 2.82975 -13.46 -0.205593
O -13.9356 10.994 -13.3095
H -13.2373 11.637 -12.9953
H -13.513 10.3035 -13.8965
O 2.04536 -12.8352 12.6903
H 1.69359 -13.5331 12.0665
H 1.36103 -12.1151 12.8049
O -0.381312 0.014373 13.9303
H -1.10936 0.641934 13.6545
H 0.487556 0.320171 13.541
O 12.9286 6.42725 -5.89365
H 12.5098 6.22992 -6.78002
H 12.2437 6.32754 -5.17185
O -6.32249 12.4516 1.59769
H -5.49002 12.8176 1.18173
H -6.286 11.4523 1.59273
O -14.6499 13.064 -9.71272
H -14.0123 13.7739 -10.0117
H 14.6748 13.1661 -10.2024
O -11.3863 -1.65515 2.69479
H -11.7917 -0.745961 2.59982
H -11.9235 -2.316 2.17068
O 0.13526 -11.7413 -3.75487
H 0.702543 -11.4883 -2.97119
H -0.621365 -11.0933 -3.84169
O -10.1069 -11.4174 13.5926
H -9.52669 -11.1281 12.8312
H -10.9808 -11.7498 13.2381
O 14.2812 -10.935 7.29254
H 13.8398 -11.7052 6.83221
H 14.6335 -11.2342 8.17931
O 3.47308 11.5847 9.62667
H 3.00939 12.352 9.18369
H 3.26754 11.591 10.6053
O 5.88047 10.5084 -4.3424
H 5.43519 10.5044 -5.23777
H 5.80236 9.602 -3.92726
O -7.99081 13.6331 -9.20626
H -8.91854 13.8693 -8.91734
H -7.87479 12.6404 -9.17563
O 11.7051 -9.8631 -12.9102
H 11.9141 -10.6388 -13.5056
H 10.8726 -9.4115 -13.231
O -13.0174 6.88502 -13.9492
H -13.7864 6.94878 -13.3132
H -13.2015 6.17078 -14.6244
O -0.164515 -5.56812 9.23382
H -0.0996107 -5.54107 10.2313
H -1.12693 -5.56695 8.96227
O -9.81892 13.285 9.8348
H -10.228 12.6976 9.13653
H -9.97865 12.8888 10.739
O 2.4045 14.9438 10.9587
H 2.17037 14.4531 10.1194
H 3.24542 -14.7248 10.816
O -0.171343 -11.7064 2.77936
H -0.127463 -12.1568 1.88763
H -0.948655 -11.0776 2.79727
O 9.22543 -0.316379 11.4389
H 9.41408 0.579547 11.841
H 8.95774 -0.955599 12.1598
O 4.22173 -1.57014 -4.47765
H 4.67679 -2.21622 -3.86488
H 3.55435 -1.03407 -3.96074
O -12.5481 -8.27506 13.0373
H -13.1497 -7.48574 12.9151
H -12.935 -9.06574 12.5629
O -3.76461 3.97644 -15.0743
H -4.22344 3.12164 -14.8319
H -4.41669 4.73245 -15.0176
O -7.49067 -10.5692 9.02356
H -7.24228 -9.70631 9.46367
H -6.66368 -11.0273 8.69761
O 3.2984 14.9113 -6.72262
H 2.48095 -14.7178 -6.85118
H 3.58168 14.9496 -5.76436
O 3.39912 -1.01275 -8.6567
H 3.10456 -1.60031 -7.90306
H 2.59887 -0.590838 -9.0828
O 8.15889 8.88815 7.15029
H 8.65914 8.83065 6.28633
H 8.0129 7.96769 7.5128
O -1.32925 -0.957001 -5.7784
H -0.490154 -0.413068 -5.78296
H -2.04607 -0.459872 -5.28952
O 1.97808 -9.31541 -13.047
H 2.47579 -9.24924 -13.9118
H 1.00656 -9.46336 -13.232
O 1.33268 2.19924 -11.5922
H 1.3975 1.78256 -12.4989
H 0.407379 2.55188 -11.4528
O 9.70918 -1.50257 -9.95115
H 10.5378 -1.93745 -9.5987
H 9.20671 -1.08155 -9.196
O 15.0242 9.17675 9.44639
H -14.2505 8.81878 9.26496
H 15.0582 9.79794 10.2293
O -4.81416 -13.207 13.5523
H -5.81096 -13.2045 13.4726
H -4.55234 -13.5656 14.4483
O -2.97989 7.28179 -7.35912
H -2.04147 7.01634 -7.58019
H -3.21332 8.12109 -7.85009
O 12.365 -14.5861 3.75367
H 12.129 -13.7585 3.24445
H 11.8598 14.8272 3.37894
O -3.55672 -8.84872 -6.53519
H -2.83551 -9.51984 -6.70675
H -3.62551 -8.67724 -5.55242
O -0.661931 9.51028 13.0506
H -0.551816 8.73779 12.4252
H -0.0322549 10.2422 12.7903
O -14.8454 7.84625 2.35993
H 15.0544 7.54956 1.4503
H 14.5862 7.74269 3.00272
O -12.0096 8.30338 -10.3938
H -11.7617 9.26906 -10.4713
H -12.3704 8.12427 -9.47852
O -6.08916 -9.58589 -9.76122
H -6.48879 -10.253 -9.13252
H -5.09339 -9.59692 -9.67011
O 4.62264 -8.02333 -8.64592
H 4.22646 -8.70876 -8.03503
H 4.54184 -8.33434 -9.59287
O -1.21101 3.16307 -11.277
H -1.74209 2.62868 -11.9345
H -1.36576 4.13791 -11.4374
O -7.78618 2.55253 10.0774
H -7.57857 2.23795 9.15117
H -8.36109 3.36941 10.031
O 1.61055 -4.06824 -10.228
H 1.85774 -5.02643 -10.084
H 0.93463 -3.79209 -9.54472
O -4.65747 14.2265 3.79877
H -4.62147 14.2888 2.80137
H -4.27627 13.3497 4.09195
O 7.9338 6.08365 8.00582
H 7.97254 5.45207 7.23151
H 7.11377 5.89758 8.54702
O -9.53028 3.65437 2.86827
H -10.4142 4.12037 2.82935
H -9.13185 3.61834 1.95179
O -0.067255 12.1453 -4.63251
H -0.168072 12.2024 -5.62576
H -0.674831 11.4355 -4.2761
O 8.58755 9.45521 -1.98065
H 7.76888 9.89623 -1.61288
H 8.42374 8.47315 -2.0739
O -14.8799 3.76896 -1.68835
H -14.3329 3.05948 -1.24407
H 14.3823 3.42903 -1.8383
O -7.18914 -8.84519 13.2649
H -7.26451 -8.43942 12.3541
H -7.97668 -8.57244 13.8175
O -11.3261 -2.01534 -10.6204
H -11.5594 -1.05057 -10.742
H -10.7987 -2.33264 -11.4085
O -10.295 11.106 12.2831
H -10.3735 11.1016 13.28
H -11.109 10.685 11.8828
O -0.863741 0.110144 10.4607
H -1.11738 0.590449 9.6211
H -0.0289588 0.513003 10.836
O 13.2641 13.004 -11.2064
H 13.7968 13.5772 -11.829
H 12.7925 12.2935 -11.7287
O 12.0423 12.6811 5.37072
H 11.6597 13.2028 4.6082
H 11.3044 12.3929 5.98093
O 8.73251 2.84804 -12.9024
H 8.44269 3.24643 -13.7726
H 8.95453 3.57998 -12.2582
O -12.1649 14.8668 -10.2662
H -12.7511 -14.5266 -10.4103
H -11.484 14.8173 -10.997
O 6.43233 6.22759 -0.263615
H 7.13557 6.50287 -0.919091
H 6.00714 7.04221 0.130829
O 1.98815 -5.4382 -14.1357
H 1.04381 -5.46001 -14.4639
H 2.04647 -4.85311 -13.3268
O 11.9202 -13.2003 -2.94599
H 12.8042 -12.9442 -3.33699
H 11.4049 -13.7398 -3.61192
O 4.29425 7.01113 7.36356
H 4.7376 6.84962 6.48189
H 4.83117 6.58242 8.09012
O 8.96009 -2.24515 0.153577
H 8.67043 -1.8969 1.04509
H 9.35581 -1.49978 -0.382882
O 7.09701 -4.72246 13.8345
H 7.67377 -5.31347 13.2705
H 6.57695 -4.10396 13.2454
O 11.6792 -0.62884 -3.46962
H 11.2249 -0.0255725 -4.12511
H 11.508 -1.58183 -3.71959
O -9.31162 -2.58302 -13.9785
H -8.62857 -2.84266 -13.2959
H -9.21514 -1.61124 -14.1937
O 3.19453 -9.48757 14.3644
H 2.6024 -8.89438 13.819
H 2.87061 -10.4315 14.3006
O -0.41598 -3.9545 -5.19654
H -0.868646 -3.06627 -5.27468
H -0.444668 -4.26066 -4.24501
O -4.89613 -14.9285 -4.84653
H -4.55197 -14.985 -3.90934
H -4.27535 14.7734 -5.45956
O -0.0429341 8.44894 -14.8167
H -0.373212 7.61973 -14.3658
H -0.630462 8.66016 14.5928
O -4.93819 -8.02445 7.71735
H -5.72801 -8.46174 7.28731
H -4.20748 -8.69703 7.83427
O -3.88819 -11.6465 -9.30417
H -4.28297 -12.3951 -9.83677
H -4.15432 -11.7432 -8.34511
O 14.9316 12.1202 10.3769
H -14.9867 12.2883 11.3243
H 14.1917 12.7447 10.1269
O 8.49748 2.97833 -8.84846
H 8.82612 2.21305 -9.40191
H 8.42326 2.6913 -7.89343
O -0.837912 3.2242 -14.4572
H -1.63223 2.69946 -14.7633
H -1.07836 3.74595 -13.6387
O -9.14388 9.58995 -11.5841
H -9.86917 10.1159 -11.1399
H -9.54155 8.79553 -12.0431
O 12.7231 3.35861 11.0436
H 13.2526 4.18864 10.8685
H 12.8631 3.06739 11.99
O -15.0357 14.9697 -12.351
H 14.634 -14.4729 -12.7622
H -14.0876 15.0112 -12.6662
O 6.08742 -13.0323 -10.4666
H 5.93455 -13.1529 -9.4858
H 6.39337 -12.0969 -10.6438
O 8.79722 3.44204 14.7125
H 9.42606 3.02226 14.0581
H 8.09889 3.96004 14.2186
O -6.51004 9.82912 -12.1977
H -7.4428 9.96953 -11.8657
H -5.87855 10.3936 -11.6661
O -1.17209 1.55783 8.12391
H -2.07702 1.67179 7.71393
H -0.576427 2.3053 7.82988
O 8.81613 12.0551 -9.61081
H 8.6113 13.0263 -9.73269
H 9.51409 11.948 -8.90276
O -11.9711 3.19228 10.9227
H -12.0021 2.36449 10.3626
H -11.0522 3.58509 10.8865
O -13.855 0.401905 -10.4517
H -13.188 0.592324 -9.73141
H -14.77 0.648895 -10.1324
O -13.9124 5.66152 -9.3253
H -12.9785 5.86715 -9.03279
H -14.2208 4.8173 -8.8869
O 9.61307 4.68285 -6.53497
H 10.0396 4.86918 -7.42004
H 9.20464 3.77016 -6.54736
O 8.15493 -9.07526 13.9616
H 8.53419 -9.99726 14.0393
H 7.4131 -8.9632 14.6228
O -7.48139 -7.24871 2.75378
H -8.09822 -7.71085 3.39089
H -7.16348 -6.39197 3.15987
O 10.0707 4.48297 -1.16293
H 10.9359 4.27619 -1.61967
H 10.1446 4.25815 -0.191355
O -12.9044 -14.4538 5.33935
H -12.3942 14.9294 5.04318
H -13.7163 -14.3437 4.76613
O 14.9278 6.49858 -0.329381
H 14.4809 7.36377 -0.556827
H 14.5367 5.76518 -0.885419
O 5.45859 -8.01974 -3.97537
H 4.71417 -7.41048 -4.24849
H 6.13601 -8.06814 -4.70936
O -0.925095 -12.1157 7.65257
H -0.976465 -12.7961 8.38361
H -0.81931 -12.5791 6.77278
O -8.30306 -14.6104 -11.3733
H -9.28198 -14.7009 -11.5563
H -7.9718 14.7549 -10.9159
O -1.99729 10.2496 -5.02295
H -2.6541 9.55079 -4.73966
H -2.36093 10.7498 -5.8088
O 1.37784 5.71321 -11.116
H 0.515445 5.25359 -10.9038
H 1.96832 5.70287 -10.309
O 1.49154 6.54449 8.13713
H 0.972597 7.39816 8.18105
H 2.42889 6.73874 7.84797
O 9.51391 8.7297 9.53376
H 9.15204 9.28843 10.28
H 8.90394 8.79305 8.74388
O 11.6069 7.49645 -0.30339
H 11.255 7.57817 -1.23583
H 12.2436 8.24558 -0.12058
O -0.74731 6.80326 -9.00142
H 0.0371437 6.25454 -8.71244
H -0.831836 6.76547 -9.99711
O 14.6016 -0.755346 1.9918
H 14.0516 -1.54299 1.714
H 14.4749 -0.588642 2.96962
O -1.12383 -9.99413 -13.8139
H -0.784769 -10.8723 -13.4764
H -1.10448 -9.99135 -14.8137
O 12.7998 13.3623 -2.21723
H 13.6562 13.8688 -2.31716
H 12.041 13.9212 -2.55166
O -9.43363 -1.5095 4.65072
H -9.70897 -1.36779 5.60155
H -10.2268 -1.79545 4.1131
O 7.64936 -13.6606 -2.46429
H 6.944 -13.4983 -1.77429
H 8.55007 -13.6453 -2.03018
O 10.0987 -8.0718 -9.47304
H 11.0817 -8.25334 -9.44705
H 9.61718 -8.76658 -8.93879
O 15.0407 6.9345 -12.4013
H 14.1802 7.05926 -12.8953
H -15.0852 7.6115 -11.6682
O 2.03882 4.38395 6.15403
H 2.18405 5.26354 5.70103
H 1.4515 4.51344 6.95294
O -6.86254 -1.40058 7.60936
H -6.94695 -1.91988 6.75896
H -6.37974 -0.543441 7.42996
O 0.0915857 -7.04312 -7.96421
H -0.813062 -6.87361 -8.35517
H 0.738175 -7.25127 -8.69808
O 7.6397 -4.68375 -10.0114
H 7.19188 -3.97631 -10.5582
H 6.97108 -5.10404 -9.39798
O -10.7313 -6.65387 11.6108
H -11.3618 -6.79976 12.3731
H -11.0334 -7.18842 10.8215
O -9.75427 -2.09268 10.4016
H -9.65152 -3.04333 10.1089
H -9.8398 -2.05789 11.3973
O -2.66927 11.3186 -2.00199
H -1.9545 11.9919 -1.8131
H -2.28125 10.3982 -1.95394
O 11.1521 -0.71642 2.07739
H 11.4263 -1.00587 1.16032
H 11.2603 0.27422 2.16049
O -0.342892 -3.2259 -8.55677
H -0.334543 -2.32935 -8.11394
H -1.20774 -3.34926 -9.04339
O -7.62057 -10.7313 -14.8413
H -8.58817 -10.8873 -15.0397
H -7.18653 -10.2886 14.5647
O -5.6795 -14.0814 5.46911
H -5.58182 -14.8954 4.8966
H -6.13634 -14.3279 6.32382
O 10.7408 -14.1036 -14.0808
H 9.78182 -13.8227 -14.119
H 10.9015 -14.8319 -14.747
O -7.25166 -15.0494 7.39008
H -7.73627 -14.851 8.24199
H -7.90682 14.8448 6.6952
O 12.2913 0.359292 7.39814
H 12.2195 1.23053 7.88369
H 11.834 -0.355692 7.927
O -10.6862 -9.357 -0.965664
H -11.3575 -8.8882 -0.39162
H -11.1422 -10.0718 -1.49579
O -11.2179 7.63732 -5.59009
H -10.9545 7.69969 -4.62741
H -12.0907 7.15528 -5.66635
O -4.66688 -14.3977 11.1029
H -4.43955 -13.7236 11.8058
H -4.48211 -14.0119 10.199
O 6.84766 6.70327 4.17906
H 7.42295 7.39731 4.61188
H 7.19383 5.79343 4.40782
O -4.88087 10.3972 -3.07266
H -4.06666 10.8286 -2.68415
H -4.75852 10.2814 -4.05836
O 6.28643 -12.7775 -0.34298
H 5.75655 -13.2667 0.349721
H 6.77266 -12.016 0.0856254
O -0.0957259 -12.3125 -0.042397
H -0.470029 -11.3887 -0.122728
H -0.536232 -12.9101 -0.71238
O -3.6383 8.94638 11.0614
H -3.78342 9.47236 11.8995
H -3.27673 8.0433 11.2931
O -14.6738 3.07907 -7.80562
H -14.0072 2.65637 -8.41953
H -14.3058 3.09782 -6.876
O 14.2206 -12.8434 -4.16041
H 14.3043 -13.2393 -5.07489
H 14.0881 -11.8551 -4.23588
O -10.8067 -14.7598 -12.5073
H -10.6125 14.8309 -13.2835
H -10.6649 -13.8077 -12.7783
O -14.732 13.0802 -14.98
H -14.3344 13.9976 -14.9648
H -14.4229 12.5696 -14.1777
O 6.89464 7.43866 -8.07463
H 5.94506 7.34018 -8.37224
H 7.32274 8.19411 -8.57062
O 11.8246 -9.53812 -6.93207
H 10.8637 -9.63961 -7.1896
H 12.1628 -8.65198 -7.24887
O 8.57513 -7.06787 1.67676
H 8.79027 -7.69506 2.4253
H 7.68172 -6.64906 1.83918
O -11.7268 13.1887 4.30707
H -11.45 13.363 3.36208
H -12.0965 12.2626 4.3807
O -6.90476 -6.15999 -7.74679
H -7.62642 -5.49854 -7.54267
H -7.07054 -7.00277 -7.23473
O -9.90482 -10.2045 7.88971
H -10.1741 -10.7021 7.06516
H -9.01362 -10.5338 8.20162
O 1.89081 7.41837 0.80165
H 0.901628 7.27455 0.773087
H 2.35718 6.53434 0.770839
O -10.9425 -7.05779 -7.53381
H -10.777 -6.27177 -6.9382
H -10.6436 -7.89364 -7.07343
O 1.59504 14.035 6.17134
H 0.745304 13.9523 5.65069
H 2.28042 13.4137 5.79165
O 2.65654 13.0552 -10.1243
H 3.02126 12.7415 -9.24765
H 2.19881 13.9354 -9.99916
O -12.1239 12.997 -6.29829
H -11.904 12.9879 -5.32282
H -13.0841 13.2478 -6.42117
O -4.68933 8.92185 -0.263887
H -4.45267 7.97463 -0.480075
H -4.69518 9.46403 -1.10411
O 7.30284 -11.4331 -14.4423
H 6.63839 -10.688 -14.4988
H 7.55997 -11.7211 14.8259
O 7.25941 -6.05588 -2.52064
H 6.27252 -5.89715 -2.54919
H 7.43951 -6.97118 -2.16043
O -3.43136 11.5474 7.08023
H -2.80734 11.2716 7.81133
H -4.05066 12.2552 7.41994
O -14.159 -12.3981 9.20574
H -13.4268 -11.8824 9.6507
H -13.7845 -13.2387 8.81467
O -9.8433 -4.48712 9.4084
H -10.2914 -5.1174 10.0423
H -9.04611 -4.93372 9.00218
O 1.63762 1.74757 -14.8436
H 0.6389 1.73626 -14.7946
H 1.93029 1.44361 14.4404
O 0.875748 4.43085 -4.81075
H 0.355966 3.89766 -5.47822
H 1.7267 4.74928 -5.22843
O -14.6344 -10.6625 -6.67197
H 14.6783 -10.7517 -7.14242
H -14.089 -9.95168 -7.11613
O 13.3302 -2.86226 1.02546
H 13.1439 -2.97797 0.0498259
H 12.4904 -3.01677 1.5458
O -4.02774 -2.20824 8.34114
H -3.64267 -1.55714 7.6871
H -5.02329 -2.2244 8.24852
O -13.5581 2.93103 -5.3447
H -13.9752 2.91819 -4.43598
H -12.7947 3.57697 -5.35193
O -14.1665 4.0728 -12.249
H -13.2431 3.78973 -11.9896
H -14.2644 5.05819 -12.1098
O -6.33002 -1.44993 -13.49
H -5.77579 -2.28179 -13.4615
H -6.80648 -1.39682 -14.3676
O -10.07 7.57604 -13.0395
H -11.0041 7.32292 -13.2913
H -9.4265 6.9366 -13.4602
O 13.2743 12.6512 13.4448
H 14.1061 12.6696 13.9995
H 13.352 13.3199 12.7053
O -0.662013 10.3522 0.779116
H 0.229888 10.8042 0.794429
H -0.84523 10.0075 -0.141518
O -11.6143 5.3692 1.92936
H -12.2841 5.80626 2.52962
H -10.9958 6.06247 1.55943
O -7.17397 14.1071 -3.79295
H -6.57134 14.1373 -4.59039
H -6.76387 13.5297 -3.08694
O 3.47745 -2.44613 13.3922
H 2.84727 -2.67529 12.6504
H 3.75219 -3.28253 13.8665
O 6.54255 -10.1069 -10.6556
H 7.38748 -10.1757 -11.186
H 5.99893 -9.33834 -10.9928
O -4.62908 -4.97938 5.94855
H -5.3016 -4.67295 6.62219
H -3.71772 -4.67429 6.22482
O -8.05925 -3.16324 -6.88788
H -7.44838 -2.92704 -6.13222
H -7.99483 -2.46381 -7.59965
O -3.909 -1.48926 -7.07943
H -4.14243 -1.93455 -7.94384
H -2.9338 -1.61084 -6.89456
O -1.69801 -8.67834 5.31122
H -1.7232 -8.94087 4.34664
H -1.42696 -7.7189 5.38856
O 7.72414 -10.7737 1.46217
H 7.90345 -11.7255 1.71071
H 8.37011 -10.1774 1.93877
O -4.45413 -3.46084 -14.0751
H -5.27731 -3.97731 -13.8392
H -3.64978 -3.93259 -13.7139
O 14.8965 5.89053 7.56277
H 14.9915 4.89583 7.52377
H 14.1802 6.13149 8.21764
O -8.96515 -11.1265 -11.9875
H -8.42216 -11.887 -11.6313
H -9.35848 -10.6122 -11.2254
O 4.99826 13.009 -11.6198
H 4.2885 13.1927 -10.9398
H 4.65389 12.354 -12.2924
O 5.32065 9.67156 -9.25404
H 6.26014 9.82823 -9.55864
H 4.69231 9.83217 -10.0152
O -3.20024 -5.28021 14.062
H -3.61035 -4.36882 14.096
H -3.92285 -5.9714 14.0706
O -8.76943 -3.54711 -2.54545
H -8.57785 -4.42569 -2.108
H -8.07997 -3.36667 -3.24692
O -6.69239 -9.17657 4.98571
H -5.9478 -8.52171 4.85639
H -6.42479 -10.0639 4.6103
O -10.7043 -5.71844 2.0527
H -9.88875 -5.42739 1.55254
H -10.4337 -6.11172 2.93139
O -6.19656 10.7328 13.2868
H -6.85435 10.5891 14.0261
H -5.6207 9.92096 13.1905
O -0.307628 -1.42335 7.11862
H 0.670302 -1.43184 7.32731
H -0.669899 -0.501562 7.25659
O -2.32075 6.22862 14.468
H -2.52293 6.29829 13.4911
H -2.66163 5.35592 14.8175
O -2.86893 -2.53211 13.3982
H -2.2825 -2.33005 12.6138
H -3.61901 -1.87168 13.4325
O 3.32656 5.24965 -5.76452
H 3.41643 4.67087 -6.57502
H 3.5816 6.18858 -5.99549
O -6.90405 -8.11695 10.6018
H -7.40748 -7.86517 9.77533
H -6.31096 -7.35945 10.8746
O -7.02766 -1.50919 13.6107
H -7.99793 -1.43112 13.3816
H -6.6568 -2.34668 13.2094
O 0.0936611 -6.40275 -3.49611
H 0.459319 -7.25066 -3.1123
H -0.231942 -6.5712 -4.42647
O -8.62725 -14.2365 -0.716029
H -9.38533 -14.0378 -0.0948685
H -8.94926 -14.1869 -1.66145
O 13.35 -0.212306 11.4531
H 13.0049 -0.0613019 12.3794
H 13.8331 -1.08707 11.4159
O -13.7707 10.787 5.9177
H -14.2062 11.6562 5.68337
H -13.5723 10.7672 6.89759
O -8.16318 -3.69436 5.67285
H -8.45696 -2.85191 5.22126
H -7.68095 -4.27396 5.01597
O 4.57426 -1.28379 -14.1388
H 4.33341 -1.39882 15.0881
H 3.87838 -1.71846 -13.5671
O -4.15064 11.6 -6.93037
H -4.53357 12.0901 -7.7134
H -4.89102 11.1803 -6.40533
O 7.44676 10.3938 11.3667
H 6.81915 9.92889 11.9912
H 6.92738 10.9914 10.7559
O -10.7302 11.8833 7.55443
H -10.7285 11.3096 6.73534
H -11.6736 12.0673 7.83043
O -9.4009 14.418 5.7511
H -10.1446 13.7548 5.66764
H -8.74548 14.2791 5.00874
O -6.80327 -7.43331 -11.3074
H -7.72449 -7.31753 -10.936
H -6.36267 -8.21607 -10.8679
O -9.12183 6.52859 7.28874
H -8.3899 6.79316 7.91663
H -9.79268 5.96922 7.7756
O -0.468462 6.85899 -3.21944
H -0.214074 5.89682 -3.31677
H -0.159616 7.36831 -4.02267
O -11.7799 12.7767 -3.69556
H -11.7403 11.8853 -3.24407
H -12.1216 13.4615 -3.05186
O 10.5201 1.42551 -14.0763
H 9.75168 1.95275 -13.7137
H 11.1244 2.03058 -14.5947
O 6.88909 -3.91404 7.21029
H 7.25073 -4.80143 6.92442
H 6.50273 -3.99196 8.12932
O -10.2397 -10.0736 -9.91522
H -10.5201 -10.5376 -9.07492
H -10.2406 -9.08479 -9.76619
O 1.53904 13.4918 8.93543
H 1.52983 13.4967 7.9355
H 0.618388 13.3016 9.2763
O 2.59238 14.7826 1.87337
H 3.46241 -14.9352 2.0127
H 2.32613 14.8509 0.911901
O -12.2159 -11.7282 11.5619
H -11.6014 -12.1804 10.9155
H -12.5465 -10.8722 11.1644
O 5.46519 15.0387 0.752233
H 5.82911 14.9875 1.68224
H 6.0042 14.4493 0.1505
O -11.8689 -3.08261 -7.07914
H -11.8245 -3.45585 -8.0058
H -12.8166 -2.85286 -6.85741
O -7.2364 7.11955 -3.04501
H -7.43996 8.09849 -3.03048
H -7.30654 6.75073 -2.11817
O -10.1928 -12.493 -13.8852
H -9.83996 -11.8309 -13.2241
H -10.1896 -12.0861 -14.7986
O -2.4964 -11.6056 -6.26736
H -2.01078 -12.2386 -6.87019
H -2.41088 -11.9153 -5.32038
O -6.00676 -11.5652 3.96705
H -6.64691 -11.781 3.22975
H -5.75841 -12.4052 4.44935
O 12.8866 -4.89281 -9.79711
H 12.6539 -5.11934 -10.7429
H 12.0583 -4.62486 -9.30507
O -3.22191 14.6511 8.36275
H -3.45594 -14.6283 8.70166
H -4.0395 14.0753 8.36279
O 8.21258 -13.1542 2.5983
H 8.87144 -12.8358 3.27986
H 7.48298 -13.6648 3.05313
O -3.40353 14.2626 -1.99224
H -3.5311 13.2715 -1.95321
H -2.48709 14.4938 -1.66566
O -8.85124 5.41822 -4.52579
H -8.51464 5.31032 -5.46122
H -8.40052 6.20148 -4.09764
O -13.4572 -8.60491 -8.17853
H -12.5972 -8.14669 -7.95372
H -14.0716 -7.95778 -8.6298
O -5.82114 -1.99443 4.7616
H -5.65193 -2.59157 3.97753
H -6.08069 -1.08462 4.43778
O -2.83516 11.1266 12.6912
H -3.05404 11.1851 13.6652
H -1.9634 10.6511 12.5734
O -12.3971 0.696536 -14.7736
H -12.8395 0.905602 14.5449
H -13.0889 0.642419 -14.0536
O -8.39322 10.2904 8.89315
H -7.81129 11.0787 9.09277
H -8.59001 10.261 7.91316
O -1.31067 13.1403 9.75528
H -1.83757 13.7331 9.14623
H -1.52238 12.1837 9.5547
O 14.3015 -8.46155 -13.9036
H 14.5378 -8.22222 -12.9619
H 13.4375 -8.96478 -13.9129
O 7.74857 -8.70303 3.94389
H 7.01829 -9.32267 3.65629
H 7.34791 -7.87163 4.3289
O -0.271283 7.67578 10.915
H -0.339972 8.15332 10.0391
H 0.613686 7.21396 10.9744
O 6.23525 13.8087 6.50022
H 6.58702 13.0279 7.01657
H 6.9766 14.4584 6.33209
O -6.15793 7.19933 -11.3045
H -5.29547 6.79123 -11.6039
H -6.18381 8.16115 -11.577
O -10.2271 5.55357 14.6672
H -10.2465 6.4095 14.1505
H -9.54521 5.61939 -14.795
O -10.597 10.5616 -7.67974
H -10.2987 9.74676 -7.18277
H -11.2837 11.0485 -7.13993
O -13.3972 12.0013 13.1131
H -13.8312 12.3035 13.9619
H -13.8208 11.1485 12.8075
O 14.3135 5.05593 14.9998
H 14.3113 5.74703 -14.468
H -15.0933 4.44728 -15.0675
O -0.195547 -3.66327 -12.2671
H 0.578234 -3.78941 -11.6464
H -1.03028 -3.52219 -11.7349
O 13.8515 7.19125 -9.58854
H 14.1318 8.14191 -9.45556
H 14.5946 6.58266 -9.31026
O 10.7739 -4.67969 3.03172
H 10.8452 -5.36427 2.3063
H 10.593 -5.13527 3.90334
O -5.97591 5.67063 2.29649
H -6.47718 4.87286 1.96143
H -6.37603 5.97709 3.16018
O 9.28598 -2.68608 7.45777
H 8.37514 -3.09879 7.45706
H 9.85198 -3.12883 8.15317
O 1.50409 1.88063 9.42442
H 2.19428 1.75055 8.7126
H 1.36124 2.85878 9.5754
O -8.43128 8.59805 -0.554568
H -8.13729 9.2066 -1.2916
H -9.23445 8.98595 -0.102432
O -5.47413 3.91925 -1.76178
H -5.57074 4.49581 -2.57309
H -5.4446 2.95842 -2.03728
O -3.77803 -6.54218 -12.0782
H -3.16404 -5.93944 -12.5878
H -3.98627 -7.34965 -12.6301
O 14.6116 -2.53042 10.8469
H -14.7752 -1.99153 10.5952
H 14.7169 -2.86933 11.7818
O 8.49548 -6.97545 12.0978
H 8.13588 -7.06947 11.1695
H 8.29588 -7.80568 12.6183
O -3.05994 1.67487 -13.0182
H -4.04836 1.72841 -12.8764
H -2.80652 0.735027 -13.2473
O 9.58737 13.7332 -1.03151
H 9.65624 13.9413 -0.0558476
H 9.70922 14.5728 -1.56082
O 13.1588 -12.6573 13.062
H 14.0893 -12.8386 12.7437
H 12.7037 -12.0357 12.4245
O -12.3594 8.2517 12.4779
H -13.2814 7.93133 12.6954
H -12.4089 8.94867 11.7625
O -10.9378 -14.2816 1.09992
H -10.568 -13.9335 1.9613
H -11.9141 -14.0715 1.04721
O 10.1716 -12.7653 -10.9901
H 10.4442 -13.5745 -11.5105
H 9.66422 -12.1418 -11.5849
O -2.40472 -3.51857 -10.4586
H -3.03093 -2.87579 -10.0174
H -2.79081 -4.44018 -10.4194
O -8.54254 8.5774 -5.83506
H -8.0998 8.18453 -6.64104
H -9.45219 8.17665 -5.72587
O 2.26903 9.17936 4.87397
H 2.1432 9.97913 4.28703
H 2.37806 9.47602 5.8227
O 3.34307 -6.74467 6.54244
H 2.62307 -7.37207 6.83898