2593
Atoms. Timestep: 18495000
O 5.65718 3.87687 5.17364
H 5.08477 4.50339 4.64469
H 5.85049 4.27759 6.0692
O -12.8911 6.26423 6.27144
H -13.121 7.21881 6.46092
H -12.068 6.01226 6.78032
O -4.41934 2.437 -9.65581
H -4.81821 3.01104 -8.94073
H -4.8827 2.61562 -10.5238
O 14.0181 0.251928 10.6209
H 13.9711 0.333939 9.62537
H 13.1262 -0.0295597 10.9746
O 0.122356 1.81492 -8.73525
H 0.422019 2.62452 -8.23057
H 0.162687 1.01504 -8.13647
O 13.9194 -14.9167 7.52179
H 12.9885 14.9571 7.36356
H 14.0465 -14.0399 7.05799
O 11.1311 -7.76156 -11.2255
H 12.0243 -7.94163 -11.6375
H 11.0241 -8.32126 -10.4038
O 8.72446 -8.75274 -14.3589
H 8.42867 -8.74252 14.8887
H 9.70016 -8.53928 -14.3098
O -5.90641 -11.8778 -0.217892
H -5.31373 -12.6808 -0.155865
H -5.62972 -11.3189 -0.999591
O 2.19836 -11.8023 11.996
H 1.34015 -11.4032 12.3188
H 2.49954 -12.5083 12.637
O 8.29181 -0.65002 -11.9395
H 7.46294 -0.97799 -11.4863
H 8.64916 0.143561 -11.4471
O 5.7017 -9.32482 8.00727
H 6.53519 -8.90782 7.64481
H 4.9108 -8.77283 7.74316
O 7.00794 11.8615 13.9801
H 6.95694 10.9662 14.4225
H 6.1333 12.335 14.0841
O -5.46029 8.99585 13.4301
H -5.36345 9.81689 13.9927
H -6.39417 8.64685 13.5078
O 6.65183 -5.82117 9.44955
H 6.1232 -5.05489 9.81471
H 6.74862 -5.71763 8.45966
O 6.72847 -3.98606 -4.40902
H 6.85631 -4.91143 -4.05222
H 6.62232 -3.34686 -3.64736
O 10.78 6.04163 -11.964
H 11.33 5.22994 -12.1604
H 10.3412 6.35838 -12.8049
O -7.53796 11.4371 -7.6861
H -7.78314 11.9815 -6.88394
H -7.23078 10.5317 -7.3932
O 5.45342 13.6188 3.21986
H 5.90234 14.2108 2.55056
H 5.17182 12.7679 2.77637
O 13.0802 4.34627 -11.8648
H 14.0211 4.00943 -11.8992
H 12.7617 4.34943 -10.9169
O -9.37532 14.3629 -14.8183
H -9.75304 14.004 14.5309
H -10.1025 14.433 -14.1355
O -1.76117 -7.69138 -3.75531
H -2.0365 -7.65905 -2.79452
H -2.30589 -7.03746 -4.28032
O -7.20162 10.3364 4.52914
H -6.96439 9.60748 5.17131
H -7.52348 11.1358 5.03641
O 8.75466 -13.6937 -11.0851
H 8.61838 -13.0576 -11.8445
H 7.9591 -13.6656 -10.4799
O -4.61646 2.84363 -14.6541
H -3.89882 2.17983 -14.8646
H -4.94452 3.25999 14.7007
O -12.9106 -1.52988 -3.74837
H -13.4452 -0.828148 -4.21935
H -12.6935 -2.26809 -4.38701
O -8.14636 0.768824 -9.32373
H -8.6335 -0.00113951 -9.73581
H -8.75245 1.56314 -9.28258
O 13.6502 -6.32637 9.3256
H 13.2694 -6.32347 10.2502
H 13.4713 -7.21059 8.8942
O -3.22172 5.8945 7.13542
H -2.3559 6.38685 7.04646
H -3.09053 5.09202 7.71746
O -15.0607 12.1466 3.55427
H -14.5615 12.2433 2.69322
H -15.0654 13.0223 4.03705
O -12.2924 -10.2003 10.7282
H -11.6538 -10.4804 11.4449
H -11.9282 -9.40033 10.2513
O 1.41903 -9.92765 -3.99558
H 0.728355 -10.1877 -3.32083
H 1.91916 -10.7415 -4.29131
O 10.8123 12.8354 12.207
H 10.207 12.888 11.4128
H 10.3063 13.0948 13.0296
O 6.50505 7.15119 15.0141
H 6.53182 7.83408 -14.4586
H 6.31308 7.60232 14.1426
O 1.21798 -5.36513 10.4113
H 0.899357 -5.6476 9.50646
H 2.20098 -5.53285 10.4858
O 2.58979 -10.1169 -14.0732
H 1.74362 -10.4665 -13.671
H 3.19453 -9.79114 -13.3465
O 5.40348 -3.65459 10.745
H 4.68861 -3.42934 11.4069
H 5.63725 -2.83864 10.2163
O 10.6282 -10.3615 12.4617
H 9.90502 -10.8693 11.9936
H 10.37 -9.39762 12.527
O 14.7098 -10.9481 -2.23162
H -14.7784 -10.6126 -1.61772
H 13.9064 -10.3568 -2.16262
O -3.61009 -9.23559 0.608697
H -2.69615 -9.59153 0.413784
H -4.27753 -9.97739 0.543693
O -13.6305 9.40184 -0.940651
H -14.2127 8.89568 -0.304394
H -12.8612 9.80175 -0.442435
O -1.37774 -10.6539 -0.719896
H -0.893222 -11.4736 -0.41434
H -0.762768 -10.0887 -1.26974
O -1.69663 7.172 -5.35582
H -1.54824 7.56308 -6.26412
H -2.04893 6.24063 -5.44744
O -8.70194 -13.3158 -10.6902
H -9.68373 -13.4974 -10.7455
H -8.41468 -12.79 -11.4908
O 8.7389 -4.69507 14.8199
H 8.14042 -4.57438 14.0279
H 8.87919 -3.8128 -14.9336
O 8.05132 -1.54926 -2.32259
H 8.2918 -0.816419 -1.68614
H 8.66597 -1.52116 -3.11087
O -5.88001 5.56858 -3.57725
H -4.97883 5.41938 -3.17034
H -5.88474 6.44097 -4.066
O 7.52368 -3.6639 -10.9763
H 8.37893 -4.14927 -11.1577
H 6.84717 -3.90977 -11.6704
O -6.06031 10.0291 1.86169
H -6.35525 9.84277 2.79884
H -5.20716 9.54109 1.67749
O -1.79813 -14.5822 -2.13871
H -1.39003 -13.964 -2.81041
H -1.07704 15.0917 -1.69112
O 9.40408 -1.84061 4.66283
H 9.98957 -2.6053 4.39374
H 8.47764 -2.17494 4.83575
O -10.2318 5.92111 6.99987
H -9.53687 6.22102 6.3463
H -10.0624 6.35045 7.88696
O 11.4283 13.7776 6.99576
H 11.0628 13.7469 7.92605
H 10.7756 13.3548 6.3671
O -9.75123 -12.4406 -1.79701
H -9.29888 -11.5497 -1.75754
H -9.1364 -13.1083 -2.21673
O 6.11235 -7.46994 0.448686
H 6.77597 -7.2379 -0.262456
H 6.32111 -6.95513 1.28016
O -13.0342 -4.56283 9.4764
H -13.3169 -5.51977 9.54212
H -13.6815 -4.06285 8.90103
O 0.588216 5.28816 -5.18361
H 0.979707 5.01532 -4.30483
H 0.0978039 6.15295 -5.07591
O 3.17742 -9.45205 11.1974
H 2.81601 -10.3754 11.327
H 3.38857 -9.04875 12.0877
O -4.52987 10.8286 9.96084
H -3.6031 10.8938 10.3307
H -4.49722 10.9055 8.96435
O -0.0672569 -0.433792 8.79764
H -0.316847 -0.548631 7.83614
H -0.887073 -0.505764 9.3657
O 0.172338 2.45407 -5.51363
H 0.971241 1.86773 -5.37977
H 0.260633 3.27245 -4.9458
O 4.73803 1.61193 -12.9849
H 5.197 1.9682 -12.1711
H 4.3403 2.36986 -13.5019
O -14.8829 -7.22111 -13.9636
H -14.4212 -6.33447 -13.9907
H -14.2835 -7.89597 -13.5332
O -14.217 13.0147 -6.36269
H -14.145 14.0003 -6.20964
H -14.9037 12.6309 -5.74539
O -9.91454 3.00531 0.212908
H -9.29468 2.22173 0.254726
H -10.86 2.68634 0.279298
O -6.03474 3.77007 4.42224
H -6.65439 3.00302 4.25595
H -6.07609 4.4052 3.65097
O -3.64793 -13.4548 -9.22061
H -4.44487 -12.8818 -9.41189
H -3.87739 -14.4129 -9.39198
O -6.20765 -0.819223 -7.97383
H -6.91184 -0.254224 -8.40378
H -6.63037 -1.63381 -7.57671
O -3.84405 13.9526 3.7282
H -4.12672 14.9118 3.73418
H -4.5896 13.3876 3.3748
O 10.2714 3.27355 -5.76757
H 9.47097 3.59484 -6.27356
H 10.4022 2.29657 -5.93602
O 8.71393 -3.69216 0.441445
H 8.79521 -2.77152 0.82326
H 8.74446 -4.36386 1.18162
O -14.5334 -13.6789 14.6263
H -14.7298 -14.4153 -14.929
H 14.9875 -13.6876 13.8948
O 9.76365 -5.42572 -10.8222
H 10.0069 -4.94755 -9.97833
H 10.4093 -6.1729 -10.9799
O -3.94046 12.8195 13.4731
H -3.64897 12.1639 12.7766
H -4.73081 12.4541 13.9648
O 3.85769 6.56582 -6.58582
H 4.547 5.84923 -6.69223
H 3.29386 6.61102 -7.41045
O -4.96863 -2.65791 -12.8436
H -5.69768 -2.72212 -12.1621
H -5.1944 -3.23472 -13.6286
O -13.8523 4.45451 -4.02681
H -12.9612 4.89848 -4.12127
H -14.5059 5.09972 -3.63129
O -3.16511 4.74913 -5.18029
H -3.15451 4.95103 -4.20096
H -2.97892 3.77694 -5.32221
O -6.33346 3.71305 9.01338
H -6.20391 3.3707 8.0828
H -7.20923 3.38722 9.36949
O -0.597544 12.1829 -0.933065
H -0.177082 11.8375 -0.0940708
H -1.47317 12.6134 -0.714285
O -11.6531 -14.9313 -4.81827
H -11.2318 15.0026 -5.68437
H -12.1185 -14.0536 -4.93227
O 10.87 -1.82805 -12.4803
H 9.98974 -1.49799 -12.1396
H 11.4219 -1.05169 -12.7847
O 10.1673 7.57217 -9.83847
H 10.315 6.94813 -10.6058
H 10.7176 7.27651 -9.05768
O 7.36772 5.27351 -1.38077
H 7.71727 4.42063 -0.99301
H 8.12346 5.91563 -1.50926
O 13.8953 -11.9456 -4.56297
H 12.9791 -11.6531 -4.83663
H 14.1426 -11.5038 -3.70067
O -10.7902 -7.62586 1.88047
H -11.2257 -8.37262 2.38314
H -11.3922 -7.32693 1.14002
O 2.19582 -2.7215 5.28871
H 2.78721 -3.26175 4.69009
H 1.37677 -3.24956 5.51291
O -0.0243508 3.8006 8.07458
H 0.225173 4.73693 8.32154
H 0.6543 3.16619 8.4446
O 8.26876 6.45608 9.18766
H 8.70818 6.94755 8.43577
H 8.96239 6.16721 9.8475
O 9.21773 -12.0292 -13.4897
H 8.90693 -11.8993 -14.4312
H 9.56225 -11.1621 -13.1298
O 8.16227 -1.79675 -14.8509
H 8.17621 -1.69947 -13.8558
H 7.23946 -2.04064 15.0536
O 11.636 -11.0503 -0.208265
H 12.3197 -10.5357 0.309157
H 11.6647 -12.0116 0.0656462
O 1.91358 2.14463 13.4849
H 1.24052 2.02304 12.7553
H 1.8613 1.37288 14.1186
O -6.13225 3.07112 -11.762
H -5.81548 2.90375 -12.6956
H -7.04564 3.47734 -11.7878
O -9.88812 -5.94184 -7.17613
H -10.4922 -6.04112 -6.38545
H -9.77185 -4.97127 -7.38695
O -3.57405 7.04256 14.9137
H -4.04327 7.64794 14.2708
H -4.24857 6.49498 -14.794
O -12.2827 -7.65139 -9.12774
H -13.0409 -8.12272 -9.57828
H -12.0261 -8.14903 -8.29922
O 0.81554 -7.78351 -9.02735
H 0.239635 -7.26672 -8.39393
H 1.31353 -7.14901 -9.61843
O -9.60738 -1.42919 -10.383
H -9.54524 -2.42414 -10.3045
H -10.5372 -1.13484 -10.1622
O 8.45232 10.518 2.6924
H 7.81934 10.67 1.93332
H 7.93362 10.3716 3.5347
O 14.3287 2.66704 3.35872
H 14.5745 3.60978 3.58402
H 14.9639 2.3117 2.67304
O 4.38038 6.06632 3.34997
H 5.13328 5.84926 2.72869
H 3.71007 5.32446 3.33331
O 10.3611 -8.3891 10.0314
H 11.0082 -9.11523 10.2637
H 9.89802 -8.07742 10.8611
O -4.61107 7.58444 -9.7779
H -5.39569 7.48127 -10.3892
H -3.81169 7.14163 -10.184
O 4.99087 9.63155 -13.3808
H 5.08731 8.98096 -12.6275
H 5.78999 10.2321 -13.4069
O 3.88101 -6.46027 10.5153
H 4.63239 -6.17429 9.9207
H 3.88281 -7.45676 10.5989
O 0.0322807 -4.21796 5.8241
H -0.499078 -4.23211 6.67111
H -0.118152 -5.06956 5.322
O 3.17112 -5.04653 -3.03398
H 3.51509 -4.13264 -2.81846
H 3.43573 -5.29084 -3.96685
O -8.14638 -3.33667 -6.89755
H -7.8962 -4.13385 -6.34812
H -7.77601 -3.43866 -7.8208
O -13.9273 1.18317 1.84963
H -13.3024 0.919311 2.58444
H -13.963 0.455194 1.16499
O 9.3216 -0.790751 9.21249
H 8.84701 -1.55006 8.76732
H 8.70007 -0.0117565 9.2951
O 11.7268 4.20389 4.83088
H 12.5113 4.51296 5.36843
H 11.4272 4.94051 4.2246
O 11.6601 -10.9214 8.57739
H 12.5666 -10.5378 8.40116
H 11.749 -11.7396 9.1453
O -0.312283 9.2183 -0.583707
H -0.45291 9.18897 0.405903
H 0.506923 9.75407 -0.788213
O -1.41181 -8.26581 9.75409
H -0.457209 -8.54771 9.85014
H -1.53983 -7.8186 8.86889
O -7.59588 -8.86836 9.57542
H -7.23006 -9.75396 9.86155
H -6.84119 -8.23265 9.4133
O -7.43788 -6.64991 -9.44356
H -7.52887 -7.17666 -8.59844
H -6.49551 -6.70838 -9.77293
O 4.68172 -0.668128 -14.7986
H 3.80007 -0.530477 14.9528
H 4.91521 0.146535 -14.2678
O -12.7603 -7.27773 -3.20462
H -13.3622 -8.02281 -3.49202
H -13.3042 -6.55648 -2.77576
O -5.93866 14.1837 -2.02781
H -5.92927 14.228 -1.02885
H -5.6798 13.264 -2.32309
O -0.958111 15.0511 1.31903
H -1.24128 -14.9128 2.24785
H -1.66743 14.4939 0.88722
O 9.14235 8.40599 -6.12629
H 8.50116 8.85374 -5.5031
H 8.70858 8.28269 -7.01882
O -3.72208 -5.83864 -10.091
H -3.78892 -6.50438 -9.34782
H -4.15007 -6.21318 -10.9135
O 3.85537 -9.31114 -0.656681
H 4.35278 -8.80742 0.0495802
H 4.5036 -9.67564 -1.32519
O 2.11072 11.5013 8.97012
H 2.71983 11.7589 8.22006
H 2.22933 12.1402 9.73022
O 10.2955 -6.30521 -13.9474
H 9.747 -5.71571 -14.5404
H 10.5187 -5.81527 -13.1047
O 2.5259 -6.00314 0.687831
H 2.96846 -6.70627 0.131316
H 1.55775 -5.94566 0.444207
O -9.18813 0.247751 -13.2535
H -9.45027 -0.0345173 -12.3307
H -9.02225 -0.562607 -13.8155
O 13.4608 -4.39132 2.31705
H 14.0087 -4.67854 1.53138
H 13.5718 -5.0514 3.05998
O 4.56524 -3.86443 0.821299
H 5.04707 -3.72549 -0.0438629
H 3.59989 -4.05098 0.638963
O 13.2726 11.5289 11.5466
H 13.7675 12.3833 11.388
H 12.3207 11.7327 11.7754
O -11.2808 6.39783 -10.1944
H -10.4308 6.55577 -9.69194
H -11.3349 7.03212 -10.9656
O -12.7895 5.56407 -8.05238
H -12.2661 5.75232 -8.88339
H -12.1674 5.51245 -7.27118
O -8.05465 -6.27748 12.9912
H -8.85732 -5.84231 12.5833
H -7.228 -5.94187 12.5395
O -8.30068 -1.91357 4.58171
H -7.47763 -1.45566 4.91767
H -8.71965 -1.36023 3.86182
O -11.8892 -3.2366 11.4857
H -12.3395 -3.48142 10.6271
H -12.5489 -3.29046 12.2353
O -13.152 4.85665 9.04053
H -12.3313 5.05204 8.50372
H -13.3113 3.8696 9.05871
O 8.56112 -14.7769 -14.3593
H 7.61242 -14.7486 -14.0444
H 9.01356 -13.9146 -14.132
O 12.5111 0.332865 -13.4177
H 12.9588 -0.180822 -14.1496
H 13.1216 0.388102 -12.6277
O 12.1888 -9.58805 -2.32997
H 11.6635 -10.1209 -1.66658
H 11.8499 -8.6474 -2.34528
O -4.39077 -14.5911 14.0111
H -4.22462 14.632 13.8985
H -5.29923 -14.4502 14.4046
O 10.0981 10.638 0.428756
H 9.65066 10.3804 1.28518
H 9.55901 10.3013 -0.343276
O 2.67611 -6.48584 3.57071
H 2.58073 -6.22993 2.60875
H 1.79576 -6.80802 3.91878
O 1.09542 -4.01899 -8.65101
H 0.684961 -3.30224 -9.21471
H 1.31443 -4.80897 -9.22366
O 14.8191 9.28886 -3.0177
H -14.7349 9.31157 -2.25709
H 13.8919 9.42587 -2.66913
O 9.8137 12.3803 4.74827
H 10.428 13.0834 4.39016
H 9.55124 11.7594 4.00968
O -8.2648 -4.58424 -13.6637
H -8.97971 -3.97771 -14.0115
H -8.68416 -5.40201 -13.2695
O -8.20042 12.8888 5.27954
H -8.52197 13.8214 5.11576
H -8.30737 12.6646 6.24819
O 15.0555 8.83382 -5.74109
H -15.0547 9.065 -4.77261
H -14.259 8.92381 -6.19156
O -13.1023 4.16259 -0.576103
H -13.156 5.00297 -1.11541
H -13.2991 3.37699 -1.16267
O -10.8339 3.6928 7.93043
H -10.0636 3.05545 7.90963
H -10.5553 4.56546 7.52939
O 0.958006 5.75363 -13.2221
H 0.248529 5.81304 -13.9243
H 1.57388 6.53725 -13.3034
O -5.68286 -2.07011 -5.47414
H -5.42891 -1.3343 -6.10189
H -6.23956 -1.69753 -4.73169
O -9.47714 -9.59863 -4.63486
H -9.52018 -10.5187 -5.02425
H -9.31209 -9.66068 -3.65055
O 1.93302 4.74935 -2.83632
H 2.04833 5.15513 -1.92967
H 2.76232 4.24926 -3.08559
O -2.57107 -13.4586 -6.57948
H -2.93912 -13.3609 -7.50413
H -2.06152 -14.3164 -6.51248
O -6.11296 -8.80344 -5.18141
H -5.28127 -8.92053 -5.72412
H -6.85192 -8.47617 -5.77031
O -11.0202 13.9995 6.63254
H -10.3205 14.6208 6.27987
H -11.1263 13.2272 6.00634
O -4.78474 7.49793 -0.387822
H -4.61923 7.6248 0.590173
H -4.44072 8.29144 -0.889779
O -8.95728 -8.47544 14.2615
H -8.65173 -7.69308 13.7188
H -9.6164 -8.16799 14.9478
O 12.282 -9.39917 -7.36853
H 12.1036 -9.89111 -8.22067
H 11.9567 -9.94326 -6.59518
O -3.78148 2.52578 5.65613
H -4.69202 2.70461 5.28344
H -3.1261 3.16691 5.25688
O -13.7609 -7.75719 3.82319
H -13.18 -8.55752 3.6751
H -13.1936 -6.93426 3.85222
O -1.65152 -1.88936 -14.6402
H -2.18383 -1.16273 -14.2059
H -1.37821 -2.55999 -13.9507
O 12.9964 9.50998 -7.12268
H 12.4329 8.68447 -7.15339
H 13.5851 9.48183 -6.31481
O -0.958276 -1.40477 -8.63364
H -0.408874 -1.33368 -7.80114
H -1.86247 -1.00988 -8.47101
O -15.0904 -2.4737 3.94274
H 14.4161 -2.72889 3.27177
H -14.7763 -3.29167 4.4246
O 5.65032 -11.0692 10.0657
H 5.53806 -10.4463 9.29153
H 4.85962 -11.679 10.1202
O -3.26189 -12.8956 9.0885
H -3.51724 -12.0336 9.52637
H -3.31387 -12.7931 8.09515
O -10.7379 5.71194 -6.43884
H -10.5469 4.73046 -6.42455
H -10.2918 6.14968 -5.65824
O 1.24303 12.6216 -13.8962
H 0.398042 13.0242 -13.5442
H 1.12102 11.6355 -14.0082
O -4.70453 -3.55733 -9.09596
H -4.41172 -4.38816 -9.5692
H -5.53025 -3.19904 -9.5316
O -8.89647 0.579383 9.25856
H -9.35442 1.11383 9.96892
H -7.96559 0.36261 9.55256
O 14.4444 14.8699 -3.08387
H -15.0271 14.2292 -2.84989
H 14.4624 15.0516 -4.06704
O -2.01077 -5.08456 -14.2695
H -2.04044 -6.04539 -13.9941
H -2.34041 -4.51223 -13.5187
O -12.5438 -8.91223 -6.84408
H -12.2235 -9.85414 -6.74334
H -13.0947 -8.66062 -6.04836
O 6.72143 6.87392 4.66626
H 7.12842 6.15513 5.22988
H 5.79581 6.60487 4.40018
O 8.55472 13.0002 -5.17835
H 9.11912 13.5102 -4.52927
H 9.05748 12.8797 -6.03431
O 6.04714 13.7313 -4.00489
H 6.98102 13.7274 -4.3624
H 5.45849 14.2603 -4.61607
O -12.1255 6.37821 11.359
H -12.7804 6.47665 12.1082
H -12.5859 5.98404 10.5636
O 8.42051 -11.518 10.8851
H 7.45417 -11.261 10.8759
H 8.85055 -11.2287 10.0299
O 2.68475 -3.3883 -6.57087
H 2.33462 -3.53917 -7.49532
H 3.56742 -3.84724 -6.46973
O -11.1935 0.66613 -5.42233
H -10.5589 0.0356757 -5.86933
H -10.8566 0.884518 -4.50648
O 11.6112 14.0646 3.31411
H 10.7881 14.1077 2.74796
H 12.3241 13.5591 2.828
O -9.12637 -12.1516 -14.893
H -9.76336 -12.6837 14.752
H -9.63484 -11.4758 -14.3594
O -13.1272 -11.6267 -14.2151
H -13.466 -12.2282 -14.9386
H -12.1276 -11.6521 -14.2015
O 4.80531 10.5207 -9.80903
H 3.83162 10.6608 -9.98871
H 4.919 9.77811 -9.14903
O 13.7074 1.8688 8.35469
H 13.5467 2.82581 8.59612
H 13.5223 1.73506 7.38113
O -7.58538 1.40924 7.04926
H -8.18259 1.01921 7.7501
H -6.7056 0.933981 7.0589
O -11.1222 -1.03707 13.41
H -11.7801 -0.294652 13.5363
H -11.3669 -1.56455 12.5965
O -5.61017 -3.94569 8.14417
H -5.05053 -4.09848 7.32966
H -6.49851 -3.57486 7.87345
O -5.42473 -6.55107 -1.62908
H -5.76939 -6.30494 -2.53494
H -5.51903 -7.53729 -1.49323
O -2.96601 -6.64074 -5.80617
H -2.16345 -6.42132 -6.3609
H -3.53406 -5.82411 -5.70416
O 7.39181 0.74986 -4.5628
H 7.34965 0.149448 -3.76424
H 7.33094 1.70306 -4.26671
O -2.64388 5.31321 -11.9989
H -2.34177 4.50557 -12.5053
H -3.46205 5.69138 -12.432
O -13.6476 13.8748 1.8466
H -14.1541 14.7224 2.00447
H -13.0226 13.7128 2.61021
O 8.33716 4.49023 -11.2824
H 9.00689 3.93841 -10.7855
H 8.06216 4.01029 -12.1155
O -14.0633 -7.15329 9.9883
H -14.9562 -6.8509 9.65492
H -14.1883 -7.75525 10.777
O 10.3986 -2.35118 14.0887
H 10.3066 -2.22685 13.1008
H 9.65224 -1.8766 14.5553
O -3.80625 -6.89599 10.6919
H -3.76581 -6.72781 11.6768
H -2.93966 -7.2895 10.3851
O -0.863029 -7.52032 2.18613
H -1.19282 -8.45293 2.33255
H -0.481897 -7.44234 1.26492
O 12.0075 -10.5795 -9.79997
H 12.3458 -11.5073 -9.64246
H 12.4891 -10.1768 -10.5783
O -6.028 -13.8872 -12.3142
H -5.50869 -13.1448 -12.7374
H -5.86181 -14.7373 -12.8139
O -9.86251 -10.1854 8.15575
H -10.7801 -9.81492 8.2998
H -9.21109 -9.69768 8.73689
O 9.6273 6.65326 -0.898124
H 9.8538 7.33446 -1.59428
H 10.4675 6.22697 -0.563097
O -3.10037 5.13547 3.77198
H -3.9013 4.58274 3.54183
H -3.21402 5.52207 4.68718
O -10.8373 9.13655 -8.78418
H -10.4997 9.97571 -9.21059
H -10.063 8.55641 -8.53129
O 4.85924 5.42152 -2.63922
H 5.73941 5.37028 -2.16738
H 4.74355 6.33439 -3.03067
O 8.18958 12.5472 7.03692
H 8.65244 12.1674 6.23599
H 7.31113 12.9369 6.76058
O -7.50496 3.36961 -4.01436
H -6.84642 4.1221 -4.00605
H -8.38998 3.69756 -3.68398
O 6.67703 10.8485 -5.61313
H 5.78743 11.2481 -5.39198
H 7.39761 11.5172 -5.42998
O -8.00262 7.53659 6.41029
H -7.05337 7.26007 6.26058
H -8.0887 7.95759 7.31324
O 13.0788 2.4741 14.1558
H 13.467 2.8715 13.3243
H 12.1138 2.26053 14.004
O -2.29036 -0.463125 10.5081
H -3.04789 -1.03514 10.1936
H -2.19474 -0.552154 11.4995
O 3.42988 14.2199 0.29668
H 2.96542 14.1296 1.17763
H 4.36417 14.5444 0.444192
O -6.98922 -14.4809 14.9871
H -7.78413 -15.0799 15.0832
H -7.16527 -13.6157 -14.7462
O 3.43305 10.2201 14.6871
H 3.9981 9.88188 -14.7631
H 2.90098 9.46497 14.3043
O -13.5984 -5.00773 -5.43497
H -13.2383 -5.57957 -4.69787
H -12.8576 -4.46035 -5.82435
O 6.89661 5.7516 1.93371
H 7.75226 6.23182 2.12665
H 6.99437 5.22183 1.09124
O -13.0087 -4.67069 -13.8768
H -12.3204 -4.89635 -13.1874
H -13.6734 -4.03284 -13.4879
O -1.55291 14.4063 -12.8843
H -1.16201 14.8172 -12.0607
H -1.93741 -15.0786 -13.4646
O 4.2839 2.93353 -3.82646
H 4.47006 3.877 -3.55227
H 5.14803 2.44596 -3.95104
O -14.9412 14.2536 -13.8699
H -14.9208 13.2576 -13.7824
H 14.3618 14.5939 -13.5968
O -4.89581 10.9001 -8.6213
H -5.02652 9.98161 -8.24805
H -5.78661 11.33 -8.76831
O -11.7165 -5.50363 -10.7318
H -11.8126 -6.09236 -9.92926
H -12.5002 -4.88491 -10.7871
O 9.13875 -9.6321 -9.39728
H 8.83566 -9.14345 -10.2154
H 9.68835 -10.4231 -9.66595
O 10.1226 13.1537 -7.2622
H 9.96707 13.4521 -8.20389
H 10.4172 13.9335 -6.70988
O 8.03088 5.29238 13.6459
H 7.57291 6.07338 14.0705
H 7.38756 4.81284 13.0491
O -9.24023 -0.988084 -6.25783
H -8.76999 -1.85922 -6.3991
H -8.56718 -0.25016 -6.20855
O 11.2323 -7.68923 14.1698
H 11.0343 -6.94201 14.8042
H 12.096 -8.12352 14.4255
O -13.9505 -11.9783 1.97377
H -13.7619 -12.0501 2.95319
H -14.4822 -12.7717 1.67768
O 12.1598 -4.23092 -13.2395
H 11.915 -3.2944 -12.9886
H 12.0233 -4.35927 -14.2218
O 3.43174 8.50949 0.457233
H 3.71294 8.49142 1.41669
H 4.24259 8.50212 -0.12794
O 3.49087 13.208 -12.3014
H 3.21887 12.382 -11.8077
H 3.01108 13.2457 -13.1779
O -0.112007 -15.0021 12.8764
H -0.112841 14.4341 13.5186
H -1.02071 -14.5853 12.8537
O 6.75213 4.24323 7.8387
H 7.22496 5.07224 8.13726
H 7.03758 3.47299 8.40897
O -1.68216 3.66693 -13.8738
H -2.09039 3.22178 -14.6708
H -1.11886 3.0076 -13.3759
O -7.51026 1.39223 -6.00126
H -7.3851 2.13928 -5.3484
H -6.62811 1.15253 -6.40662
O -6.52426 7.83219 -4.82064
H -6.80427 8.63281 -4.29096
H -5.92629 8.11993 -5.5687
O -8.14063 -2.54995 8.36534
H -8.71067 -1.9922 7.76207
H -7.39826 -1.99037 8.73372
O -3.70658 -6.29392 13.3582
H -2.99106 -5.80868 13.8607
H -4.32347 -6.74156 14.0055
O 3.77572 11.5108 2.45549
H 4.07406 10.5592 2.52969
H 2.838 11.54 2.10939
O -6.29327 -5.89622 -4.17164
H -6.47166 -6.59192 -4.86744
H -5.73571 -5.16574 -4.56595
O -7.31397 10.6282 -4.13988
H -7.30084 11.3967 -4.77957
H -7.86211 10.8703 -3.33931
O -12.3688 7.18441 -4.62067
H -12.4164 7.12751 -5.6179
H -11.5891 7.75185 -4.35601
O 1.22784 13.6635 1.95575
H 1.08857 12.6766 1.8749
H 0.376489 14.1394 1.73514
O -3.18773 12.4983 -11.5872
H -3.17312 11.5109 -11.7443
H -2.60431 12.9517 -12.2611
O 14.1879 4.31169 0.334375
H -15.0811 4.50508 0.0333626
H 13.9122 3.40828 0.0060312
O -1.87089 7.44595 -2.19749
H -1.56359 8.34713 -1.89185
H -1.5535 7.28481 -3.13197
O -8.74956 -3.93658 1.19229
H -8.7763 -4.32256 2.11439
H -7.89745 -4.20513 0.743133
O 9.09195 -7.59795 12.6025
H 9.87909 -7.54906 13.2173
H 8.26236 -7.76367 13.1357
O -9.88914 -6.51236 -12.4466
H -9.33632 -7.19673 -11.9712
H -10.5112 -6.07614 -11.7964
O 6.3514 13.2377 -8.44773
H 7.01287 12.522 -8.22387
H 5.44738 12.9729 -8.11222
O 3.02791 4.10126 -13.1698
H 2.23085 4.70395 -13.1321
H 3.7907 4.58397 -13.6001
O 13.4084 10.1301 2.36998
H 12.9122 10.7514 1.76364
H 13.9066 10.6607 3.05572
O -5.53899 11.1178 -14.8288
H -6.24413 11.185 -14.1229
H -4.81619 10.4996 -14.52
O -11.6119 -7.65653 -14.3057
H -12.3361 -7.38573 -14.9399
H -11.1487 -6.84029 -13.9606
O 1.75134 6.96219 -1.19968
H 0.837146 7.36738 -1.20629
H 2.33387 7.46435 -0.560563
O -13.8906 11.1752 5.78943
H -14.4497 11.3078 6.60779
H -14.3037 11.6635 5.02077
O -8.13676 12.5076 8.02665
H -8.16873 13.4083 8.45969
H -8.9895 12.0188 8.21074
O -7.69851 5.79231 12.6091
H -8.32084 6.51382 12.9126
H -7.39455 5.98493 11.6761
O 12.0135 7.56998 0.316601
H 11.3996 7.94074 1.01344
H 12.9591 7.63894 0.634654
O -10.5059 -6.70977 -4.6847
H -10.1497 -7.61741 -4.90658
H -11.3247 -6.80242 -4.11815
O 13.9528 1.45583 0.0732931
H 13.5592 0.690249 0.582105
H 14.9057 1.584 0.348285
O -2.32135 1.38798 14.8045
H -2.46595 0.561568 14.2603
H -1.38608 1.39468 -15.0444
O 1.93691 7.86021 13.617
H 1.64942 6.94491 13.335
H 1.66751 8.52396 12.9193
O 1.57081 -10.5357 -7.99553
H 1.49161 -9.53915 -7.97146
H 1.97414 -10.8171 -8.86623
O 7.60788 -7.61187 -12.1943
H 7.92276 -7.67988 -13.141
H 8.32175 -7.19045 -11.6351
O -13.4927 -4.8928 -2.04963
H -13.0243 -4.00986 -2.07961
H -14.0406 -4.95125 -1.21513
O 6.29793 -11.4624 -11.9654
H 6.50008 -10.838 -12.72
H 5.69399 -12.191 -12.2884
O 15.0901 5.36373 3.1728
H -14.186 5.07566 2.93131
H 14.4587 5.10161 2.44299
O 7.08514 10.5269 -11.2409
H 6.26603 10.4819 -10.669
H 7.89207 10.3324 -10.6832
O -6.52219 6.19758 10.2181
H -6.40135 5.24604 9.93541
H -5.63455 6.65801 10.2268
O 12.0696 8.66515 -2.14709
H 11.707 9.59601 -2.19175
H 12.1785 8.39542 -1.19035
O -14.9323 6.69338 -8.98948
H -14.1954 6.13236 -8.61251
H 14.9042 6.25492 -9.81021
O -0.515244 -14.3709 -10.9028
H -1.23054 -13.6734 -10.859
H -0.071306 -14.4495 -10.0102
O 2.70095 7.87166 -3.77999
H 3.15472 7.50597 -4.5926
H 1.93752 7.2768 -3.52844
O 10.2937 -6.87774 7.81744
H 10.3641 -7.504 8.59385
H 10.7324 -6.00942 8.04875
O -0.117553 10.4165 13.3343
H -0.394335 9.90655 14.1487
H 0.879674 10.4856 13.3072
O -11.0091 12.9033 -11.5588
H -10.0829 13.2686 -11.4657
H -11.0195 11.9446 -11.2745
O 11.0817 -0.106864 6.69946
H 10.3373 -0.443908 7.27582
H 11.0888 -0.61064 5.83568
O 11.7228 11.5194 -5.17365
H 11.0848 12.1719 -5.58243
H 12.1413 10.9664 -5.89414
O -1.21315 -9.60581 -9.13152
H -0.255253 -9.5316 -8.85422
H -1.79703 -9.21092 -8.42222
O -2.79035 13.4186 -3.70999
H -3.60454 12.8745 -3.50745
H -2.6451 14.0858 -2.97941
O 1.03904 14.6819 8.50159
H 1.81598 -14.9587 8.78516
H 0.191693 15.087 8.8449
O 14.3218 12.1521 -4.47886
H 13.3475 12.0036 -4.64769
H 14.6961 11.3716 -3.97814
O 6.8584 13.0965 -1.61044
H 6.55097 13.0906 -2.56197
H 7.83877 13.2909 -1.57812
O -2.69063 2.26255 -6.1148
H -1.72478 2.16438 -5.87511
H -2.93103 1.58813 -6.81289
O 6.03997 14.9776 0.438718
H 6.56711 14.3159 -0.0944378
H 6.22147 -14.3026 0.0983334
O 9.62365 13.7816 9.26241
H 9.08926 14.5789 9.54291
H 9.1405 13.296 8.53386
O -0.515809 -13.8299 9.90512
H -1.42825 -13.4999 9.66324
H -0.505409 -14.1069 10.8659
O -13.9065 -9.90689 -9.81956
H -13.3506 -10.7053 -9.58849
H -14.4352 -9.62578 -9.01866
O -2.014 -7.72638 -13.5458
H -2.61355 -8.35521 -14.0408
H -1.48101 -8.23616 -12.8705
O 1.10825 14.2765 -1.33786
H 1.84559 14.393 -0.672482
H 0.523 13.5158 -1.05711
O 0.77219 -7.65337 -5.36128
H 1.27498 -8.43277 -4.98752
H 0.0759668 -7.36058 -4.70591
O 7.71664 7.0275 -8.33039
H 7.4863 6.0615 -8.44764
H 8.0321 7.40308 -9.20182
O -8.01433 -1.11893 12.475
H -8.80638 -0.674628 12.8936
H -8.32566 -1.79407 11.8063
O 5.69505 -10.3472 -2.75142
H 6.53995 -9.83896 -2.91807
H 5.88989 -11.1355 -2.16785
O -2.78158 -7.25994 -1.159
H -3.64006 -6.84988 -1.46696
H -2.96875 -7.91458 -0.426626
O 3.69209 -2.10769 -12.703
H 4.09399 -1.67087 -13.5078
H 2.69497 -2.08801 -12.7761
O -10.4867 3.21629 12.7981
H -10.1421 2.43141 13.3131
H -9.83802 3.97382 12.8715
O 8.68261 1.04255 5.43558
H 8.93699 0.0784526 5.35964
H 7.87412 1.21916 4.87423
O 1.72992 -12.7409 -2.00738
H 2.30111 -12.4217 -2.76355
H 1.17359 -13.5136 -2.31303
O 8.64597 -1.05274 1.94027
H 8.96137 -1.15405 2.88378
H 7.65079 -0.955393 1.93014
O -14.7443 1.5431 -9.14622
H -13.9537 1.82765 -9.68845
H -14.5819 1.75638 -8.18284
O -3.35669 9.59755 -14.2194
H -2.59798 9.09161 -14.6297
H -3.24358 9.62039 -13.2261
O -14.5244 -1.62041 -11.8865
H 14.9137 -1.05939 -11.5694
H -14.3926 -1.48038 -12.8678
O -3.78059 -10.4316 -2.22042
H -3.00654 -10.5679 -1.60219
H -3.63 -10.9497 -3.06236
O 3.46192 11.4883 -5.03205
H 2.51701 11.1674 -5.09604
H 3.63774 11.8247 -4.1069
O -11.2687 11.216 5.04063
H -12.1804 10.9691 5.369
H -10.9106 10.4798 4.4664
O -2.65167 -0.970983 13.223
H -3.54359 -1.2605 13.5703
H -1.92881 -1.3699 13.7872
O 7.12268 -14.0822 11.7246
H 7.79052 -13.3646 11.5271
H 7.57204 -14.8307 12.2123
O -10.0869 -1.60148 2.03134
H -11.085 -1.6397 1.98451
H -9.7324 -2.49102 2.3195
O -3.73009 -13.6893 -0.34692
H -3.11363 -13.8177 -1.12375
H -3.21254 -13.3434 0.435673
O -2.82366 -0.572241 -12.6224
H -3.70121 -1.03233 -12.4875
H -2.53571 -0.145735 -11.765
O 12.3181 -10.7279 -13.4527
H 12.9327 -10.7749 -12.6652
H 11.7104 -11.522 -13.4491
O -8.75339 -9.75224 -1.94578
H -8.88404 -9.39644 -1.02042
H -7.80344 -9.613 -2.22538
O 9.02451 0.513687 -0.399813
H 9.79284 1.12732 -0.217888
H 8.78217 0.0254149 0.438532
O -8.38327 -9.54851 5.80478
H -8.87167 -9.89236 6.60678
H -7.53529 -9.10541 6.09557
O -3.52675 -9.97895 9.61072
H -3.36551 -9.66239 8.67597
H -2.83368 -9.59096 10.2182
O -4.60016 8.01316 10.8945
H -5.01342 8.0852 11.8022
H -4.3193 8.92098 10.5831
O 13.5222 6.64216 10.3967
H 13.7851 6.24629 9.51691
H 12.926 6.00435 10.8844
O 14.0791 -13.823 10.2292
H 14.4664 -12.903 10.1695
H 14.2075 -14.2959 9.35759
O 11.1717 7.43317 -4.49523
H 10.2335 7.6102 -4.7924
H 11.4015 8.0423 -3.73619
O -13.6355 -3.09206 13.4512
H -14.4698 -3.64131 13.4042
H -13.759 -2.25238 12.9224
O -5.41933 -0.305186 6.4512
H -5.36573 -0.758022 5.56124
H -4.57212 -0.464725 6.95791
O -7.13909 2.15439 12.1134
H -6.58324 2.77574 12.6656
H -7.72639 2.68585 11.503
O 5.73218 8.34484 12.7067
H 6.03934 7.75619 11.959
H 4.75171 8.51789 12.6135
O 5.33129 14.7437 10.2932
H 5.8506 -14.9727 10.9959
H 5.10525 13.8263 10.6208
O -7.09079 6.92239 -10.7035
H -7.14707 6.65949 -11.6667
H -7.06102 6.1004 -10.1348
O 1.62391 1.26267 -11.7428
H 1.23006 2.17812 -11.6603
H 2.59029 1.33652 -11.989
O -6.36496 0.114904 10.1916
H -5.66521 -0.59735 10.1367
H -6.55926 0.318044 11.1513
O -6.51285 -4.37001 -0.284388
H -6.25681 -5.18897 -0.797911
H -6.51692 -3.57994 -0.897365
O 3.4305 4.36732 -10.3978
H 3.10386 4.10733 -11.3064
H 3.27089 3.6152 -9.75838
O -0.320795 12.4914 -9.62788
H -0.660942 13.1482 -10.3009
H -1.0273 11.8086 -9.44186
O 11.0805 -13.1662 -3.49621
H 10.4399 -13.5816 -2.85033
H 11.9287 -12.9328 -3.02089
O -9.49494 5.43535 0.45267
H -9.61016 4.44281 0.413086
H -8.6199 5.68608 0.0386657
O 7.60894 9.82015 -14.3592
H 8.04662 9.81756 -13.4601
H 8.23911 9.44278 -15.0378
O 11.0648 12.8049 -14.9361
H 11.298 13.7053 14.8993
H 10.5689 12.9146 -14.0748
O -9.9541 -13.0307 8.37391
H -10.1136 -12.0642 8.17312
H -10.7305 -13.3972 8.88664
O 13.712 -8.60373 -11.1058
H 14.5959 -8.66026 -11.5699
H 13.8501 -8.30729 -10.1608
O -11.0644 7.55912 -12.724
H -10.1886 7.76565 -12.2878
H -11.4834 8.40717 -13.0484
O -2.28146 -13.0677 -13.7595
H -2.70145 -12.5883 -12.989
H -2.94009 -13.1355 -14.5089
O 9.93093 -7.55488 -4.23255
H 10.4421 -7.09079 -3.50914
H 10.2876 -7.27609 -5.12418
O 9.60475 8.95543 -12.6544
H 9.12672 8.11788 -12.3899
H 9.5184 9.63323 -11.9243
O -6.25821 5.53878 2.22948
H -6.46928 5.29844 1.28204
H -7.04182 6.00778 2.63687
O -9.21208 -2.05883 -14.7646
H -8.28809 -1.84841 -15.0839
H -9.88056 -1.6459 14.8195
O 12.5626 -7.38044 0.215648
H 11.9369 -7.1336 0.955607
H 12.8138 -8.34473 0.299332
O -0.0386569 -3.56632 -12.2482
H -0.958115 -3.90361 -12.0463
H 0.0924796 -2.67535 -11.8136
O -6.90134 -2.45003 -10.9734
H -7.51884 -1.67627 -10.832
H -7.4371 -3.28012 -11.1279
O -8.15389 8.40594 14.7097
H -8.75221 9.02503 -14.9844
H -8.66036 8.00538 13.9462
O 13.5779 1.03684 5.63671
H 13.9187 1.70472 4.9751
H 12.6719 0.72096 5.35489
O -4.36673 13.714 -9.18264
H -4.58792 12.8457 -8.73881
H -3.71383 13.5532 -9.92279
O 0.00292772 8.4326 -14.4887
H 0.964743 8.56226 -14.7296
H -0.429708 7.82818 15.0451
O -0.101803 -6.77737 -0.375444
H 0.514454 -6.9331 -1.14741
H -1.00298 -6.51048 -0.716931
O 1.3053 -5.86318 -12.9855
H 0.567952 -6.46606 -13.2901
H 0.914582 -5.02771 -12.5991
O 3.93246 -0.248389 10.8924
H 3.64306 -1.1401 11.2403
H 3.14576 0.36806 10.86
O -0.854374 -6.12979 -7.23192
H -0.138708 -6.59874 -6.71435
H -0.447437 -5.39124 -7.76942
O 5.88536 6.84205 10.34
H 6.80394 6.84574 9.94483
H 5.27548 7.39357 9.77096
O -12.7661 14.2732 -2.34931
H -12.6343 14.5333 -3.30584
H -12.9686 15.0886 -1.80704
O 6.60179 4.20763 11.5999
H 6.66326 5.1064 11.1658
H 7.28497 3.59681 11.1997
O -10.1683 0.78726 6.01968
H -9.83869 0.0847069 6.65035
H -9.45765 1.47877 5.89013
O 13.118 -3.45095 8.4915
H 13.7442 -3.07017 7.81112
H 13.497 -4.30261 8.85348
O 1.87614 -14.5234 -12.2715
H 1.09907 -14.507 -11.6424
H 2.19054 14.7373 -12.3885