LAMMPS data file via write_data, version 15 May 2015, timestep = 1190000

4560 atoms
7 atom types
5040 bonds
3 bond types
7200 angles
2 angle types
10560 dihedrals
3 dihedral types
2400 impropers
1 improper types

-1.0763502675555259e-01 4.1387635026745990e+01 xlo xhi
-4.0433884491974936e-02 3.5938433884472119e+01 ylo yhi
-3.5711112484589691e-01 2.9555111124838550e+01 zlo zhi
-6.7234083837551181e-02 -1.7036217651000683e+01 -4.1707816797290791e-02 xy xz yz

Masses

1 12.0107
2 1.008
3 12.0107
4 12.0107
5 12.0107
6 12.0107
7 12.0107

Pair Coeffs # lj/cut/coul/long

1 0 3.55
2 0 2.42
3 0 3.55
4 0 3.55
5 0 3.55
6 0 0
7 0 3.55

Bond Coeffs # harmonic

1 469 1.4
2 367 1.08
3 469 0.7

Angle Coeffs # harmonic

1 35 120
2 63 120

Dihedral Coeffs # opls

1 0 7.25 0 0
2 0 7.25 0 0
3 0 7.25 0 0

Improper Coeffs # cvff

1 2.5 -1 2

Atoms # full

219 13 3 0.0000000000000000e+00 -3.4181444691512652e-01 3.0996101593153011e+00 3.1350805289820087e+00 1 0 0
220 13 4 -4.5900000000000003e-02 3.2200426163969920e-01 4.1263569364279107e+00 2.3631885204687046e+00 1 0 0
224 13 2 4.5900000000000003e-02 3.9900952532110701e-01 5.1692319975516616e+00 2.7553330284211737e+00 1 0 0
580 33 4 -4.5900000000000003e-02 2.6667849207230647e+00 6.7558546153458439e+00 3.9842842718121085e+00 1 0 0
228 13 3 0.0000000000000000e+00 -5.6591648970233410e-01 1.8439696148145448e+00 2.5704211903591649e+00 1 0 0
989 53 4 -4.5900000000000003e-02 -1.3437131203891650e+00 7.0366062508053320e+00 3.5167519066550175e+00 1 0 0
600 34 2 4.5900000000000003e-02 6.3203045551343706e-02 5.6954427451380312e+00 6.9489176193772568e+00 1 0 0
245 14 4 -4.5900000000000003e-02 -4.9399162057014347e+00 1.4291829756791796e+00 9.0509832700776354e+00 1 0 0
227 13 4 -4.5900000000000003e-02 -1.9189611050031996e-01 1.5698140939120180e+00 1.2551917522680904e+00 1 0 0
4390 233 1 -4.5900000000000003e-02 2.2447668425727141e+00 7.0132949839789005e-01 5.4282233707032610e+00 1 1 0
733 13 6 0.0000000000000000e+00 -4.4072040384132949e-01 2.4338692214760234e+00 2.9352757637289946e+00 1 0 0
987 53 4 -4.5900000000000003e-02 -7.8214620064288642e-01 7.9631614728284195e+00 1.3436920148802167e+00 1 0 0
230 13 1 -4.5900000000000003e-02 7.9259088858890436e-01 3.7178391996204283e+00 1.0910810319303170e+00 1 0 0
217 13 7 -4.5900000000000003e-02 -1.3083413403289905e+00 2.4594026262378312e+00 5.2162085796912612e+00 1 0 0
218 13 5 -4.5900000000000003e-02 -5.8434762861978529e-01 3.3910492119656843e+00 4.4913398730963303e+00 1 0 0
221 13 1 -4.5900000000000003e-02 -1.6026885840448861e+00 1.2449280117019113e+00 4.6697487716368746e+00 1 0 0
222 13 2 4.5900000000000003e-02 -1.4854451216926225e+00 2.6267172756567496e+00 6.2701779465640737e+00 1 0 0
223 13 2 4.5900000000000003e-02 -4.3055943264783059e-01 4.3929232363144601e+00 4.7146918982054187e+00 1 0 0
248 14 1 -4.5900000000000003e-02 -3.5948165557790768e+00 3.4369943242054393e+00 8.6534330991943005e+00 1 0 0
4380 233 4 -4.5900000000000003e-02 2.5620242022261075e+00 1.1188377172428730e+00 4.1703224406223756e+00 1 1 0
244 14 1 -4.5900000000000003e-02 -4.1512573483668422e+00 2.2446766671113543e+00 8.1993150711306502e+00 1 0 0
603 34 2 4.5900000000000003e-02 9.5765105581254950e-01 3.4150386437831113e+00 7.6084548746480261e+00 1 0 0
4396 234 5 -4.5900000000000003e-02 -7.6276749359982965e-01 1.8963243495876708e-01 9.2489306608264794e+00 1 1 0
4394 233 2 4.5900000000000003e-02 1.7469554598652826e+00 1.4078914949697976e+00 6.0656879677771913e+00 1 1 0
579 33 3 0.0000000000000000e+00 3.4210079008494643e+00 5.8351880467897361e+00 3.2282554797620855e+00 1 0 0
252 14 2 4.5900000000000003e-02 -3.0248604235714671e+00 4.0228955645692093e+00 7.9129929977288924e+00 1 0 0
581 33 1 -4.5900000000000003e-02 4.5736470423325954e+00 4.0017056991816142e+00 1.5384213081668123e+00 1 0 0
596 34 5 -4.5900000000000003e-02 -5.3253252987039712e-01 6.3291687763440940e+00 8.8890192677462618e+00 1 0 0
577 33 7 -4.5900000000000003e-02 4.0364174281138014e+00 5.1997449261418254e+00 9.9302688658237814e-01 1 0 0
588 33 3 0.0000000000000000e+00 3.9378710206275649e+00 4.6929264748431425e+00 3.7463898043085493e+00 1 0 0
589 33 4 -4.5900000000000003e-02 4.5053845882916344e+00 3.7191556918236652e+00 2.8781957311455555e+00 1 0 0
593 33 2 4.5900000000000003e-02 4.7358408509827150e+00 2.7373965302763552e+00 3.1766949675504979e+00 1 0 0
753 33 6 0.0000000000000000e+00 3.6312933041866224e+00 5.1921562560410379e+00 3.3109500727750705e+00 1 0 0
4383 233 2 4.5900000000000003e-02 3.0209748529312210e+00 1.3601887079961195e+00 1.4802337677541382e+00 1 1 0
4379 233 3 0.0000000000000000e+00 3.2624882332620260e+00 2.6276432581586678e-01 3.2744318194757991e+00 1 1 0
578 33 5 -4.5900000000000003e-02 3.5099159009925458e+00 6.1460291081930283e+00 1.8132095359924936e+00 1 0 0
226 13 1 -4.5900000000000003e-02 4.9454363972210214e-01 2.5244025553580474e+00 5.4883456076027048e-01 1 0 0
4384 233 2 4.5900000000000003e-02 2.1508337261135759e+00 1.9936885811080201e+00 3.6584106559127223e+00 1 1 0
586 33 1 -4.5900000000000003e-02 3.1382562286968336e+00 5.4283158437816095e+00 5.9756612859784770e+00 1 0 0
587 33 4 -4.5900000000000003e-02 3.8042408821735054e+00 4.4269699608311130e+00 5.1890237812076814e+00 1 0 0
585 33 2 4.5900000000000003e-02 4.9640322634411840e+00 3.3168778048521212e+00 7.8685699227141459e-01 1 0 0
591 33 2 4.5900000000000003e-02 3.0719290176921508e+00 5.2569260550424550e+00 7.0472112796508437e+00 1 0 0
592 33 2 4.5900000000000003e-02 4.2339507316081209e+00 3.5163894481222440e+00 5.6052780905424422e+00 1 0 0
590 33 1 -4.5900000000000003e-02 2.6045935260987605e+00 6.5868826658309159e+00 5.3748388883600065e+00 1 0 0
584 33 2 4.5900000000000003e-02 2.2967866319933337e+00 7.6039896543830983e+00 3.4962324154533806e+00 1 0 0
234 13 2 4.5900000000000003e-02 1.3057874494812238e+00 4.4251157327005224e+00 4.9135373926236015e-01 1 0 0
229 13 4 -4.5900000000000003e-02 -1.2221579508757565e+00 8.7642941706200050e-01 3.3497826605760581e+00 1 0 0
249 14 2 4.5900000000000003e-02 -4.0856607671127430e+00 1.9834535079620852e+00 7.1000486281938757e+00 1 0 0
985 53 2 4.5900000000000003e-02 -1.9808458415106101e+00 6.4791067149183226e+00 5.5829594019478295e+00 1 0 0
599 34 1 -4.5900000000000003e-02 5.3041227409442371e-01 4.1627263365121845e+00 8.3207494417788812e+00 1 0 0
4401 234 2 4.5900000000000003e-02 -1.0783361593495764e+00 1.1485258336210802e+00 8.7859791475001163e+00 1 1 0
225 13 2 4.5900000000000003e-02 -2.0678271123669019e+00 3.9282177217749037e-01 5.2009537289871801e+00 1 0 0
595 34 7 -4.5900000000000003e-02 4.4637383590119484e-02 5.4451537871495299e+00 7.9543601377157351e+00 1 0 0
981 53 1 -4.5900000000000003e-02 -1.4500173289672884e+00 7.1973808259319902e+00 4.9294576319642198e+00 1 0 0
4378 233 5 -4.5900000000000003e-02 3.4384233298043920e+00 5.0592977288744845e-01 1.9133049146239678e+00 1 1 0
582 33 2 4.5900000000000003e-02 3.9690049942039209e+00 5.3041900944229399e+00 -8.6869261232576545e-02 1 0 0
583 33 2 4.5900000000000003e-02 3.1567513093040880e+00 7.0865109579196215e+00 1.4330586939074870e+00 1 0 0
1010 54 2 4.5900000000000003e-02 -4.8798840639039973e+00 6.1758176907763467e+00 8.6016296667808234e+00 1 0 0
232 13 2 4.5900000000000003e-02 -4.3546036481775785e-01 6.5090560824919308e-01 8.1021639744751606e-01 1 0 0
1493 53 6 0.0000000000000000e+00 -5.4403554843649959e-01 8.6518537520218661e+00 2.9817360441988625e+00 1 0 0
1009 54 2 4.5900000000000003e-02 -3.2874618823578610e+00 7.4663071481801255e+00 7.0806124789217302e+00 1 0 0
1005 54 4 -4.5900000000000003e-02 -4.5022560563312073e+00 7.1912913882386693e+00 8.8639450210739188e+00 1 0 0
594 33 2 4.5900000000000003e-02 2.1199718353094208e+00 7.4753824616895903e+00 5.8875761149221510e+00 1 0 0
977 53 7 -4.5900000000000003e-02 -8.2350736240941647e-01 8.3650701754759744e+00 5.5089399538989134e+00 1 0 0
982 53 2 4.5900000000000003e-02 -9.6117128218734615e-01 8.5808761170552472e+00 6.6128526117461330e+00 1 0 0
1004 54 1 -4.5900000000000003e-02 -3.5786110856717990e+00 7.8706258350949367e+00 8.0097938996893099e+00 1 0 0
988 53 3 0.0000000000000000e+00 -8.0914236661342520e-01 8.0612754393245059e+00 2.7207887465624849e+00 1 0 0
993 53 2 4.5900000000000003e-02 -1.9200522414953280e+00 6.1718365887722237e+00 3.0505412694659970e+00 1 0 0
601 34 2 4.5900000000000003e-02 -8.6857919327748778e-01 7.3604298019370198e+00 8.6101413033736467e+00 1 0 0
1064 57 2 4.5900000000000003e-02 7.2084865275858574e+00 6.3815716418081037e+00 9.9019154381259700e-01 1 0 0
1353 73 2 4.5900000000000003e-02 4.9386578048595897e+00 8.8443594499296463e+00 2.9875713320054933e+00 1 0 0
986 53 1 -4.5900000000000003e-02 -1.2127538300308260e-01 8.8545696323553589e+00 5.6118332017526651e-01 1 0 0
235 14 7 -4.5900000000000003e-02 -5.3102828203919064e+00 2.3879909672887405e+00 1.3199471831656677e+01 1 0 0
236 14 5 -4.5900000000000003e-02 -4.5400992806833607e+00 3.1448625789659936e+00 1.2356854911902238e+01 1 0 0
597 34 3 0.0000000000000000e+00 -5.9975569290196606e-01 5.9082595531227673e+00 1.0245143208265405e+01 1 0 0
734 14 6 0.0000000000000000e+00 -4.6207547636864614e+00 2.3206532935850626e+00 1.0486144874664800e+01 1 0 0
239 14 1 -4.5900000000000003e-02 -5.8598861219559089e+00 1.2360622980931870e+00 1.2603735861393339e+01 1 0 0
240 14 2 4.5900000000000003e-02 -5.5401737246916545e+00 2.6602304849649463e+00 1.4232159232831751e+01 1 0 0
243 14 2 4.5900000000000003e-02 -6.3732449661482491e+00 6.0082273440403389e-01 1.3292224035081066e+01 1 0 0
4416 235 4 -4.5900000000000003e-02 -5.8496315487185599e+00 8.8046061834845368e-01 1.9041702698508644e+01 1 1 0
4420 235 2 4.5900000000000003e-02 -6.0557141078100036e+00 1.9237101455554870e+00 1.8722268052014556e+01 1 1 0
237 14 3 0.0000000000000000e+00 -4.3896654147141332e+00 2.8301837458143408e+00 1.0979807142901908e+01 1 0 0
4402 234 2 4.5900000000000003e-02 -1.8755630495403963e+00 1.6848162703321174e+00 1.0939691959810496e+01 1 1 0
1022 55 1 -4.5900000000000003e-02 -8.3682797291038309e+00 8.2817415402219403e+00 1.5310533477638826e+01 1 0 0
242 14 2 4.5900000000000003e-02 -3.2191096767332725e+00 4.6606336621785731e+00 1.0253026403490539e+01 1 0 0
255 15 3 0.0000000000000000e+00 -8.7329872122954626e+00 3.1359188513843983e+00 1.8150752308049803e+01 1 0 0
256 15 4 -4.5900000000000003e-02 -8.0340251958020197e+00 3.9062593390734306e+00 1.7186451061660080e+01 1 0 0
260 15 2 4.5900000000000003e-02 -7.7132423400614751e+00 4.9543835563165697e+00 1.7349836201851929e+01 1 0 0
1029 55 2 4.5900000000000003e-02 -1.0164581268324753e+01 5.8153198288612007e+00 1.7951130762180117e+01 1 0 0
4414 235 5 -4.5900000000000003e-02 -4.8974797216089430e+00 3.3955077239130083e-01 1.6831720879620814e+01 1 1 0
264 15 3 0.0000000000000000e+00 -9.4038186968187230e+00 1.9470911411525980e+00 1.7795099031661547e+01 1 0 0
262 15 1 -4.5900000000000003e-02 -8.3956841926576899e+00 2.0422404697192689e+00 1.5607406965496500e+01 1 0 0
266 15 1 -4.5900000000000003e-02 -7.8418130381856077e+00 3.3338636917697109e+00 1.5893294391847267e+01 1 0 0
4408 234 1 -4.5900000000000003e-02 -1.9294397678996482e+00 3.2296697482385567e-01 1.2692124818942323e+01 1 1 0
238 14 4 -4.5900000000000003e-02 -3.6992252339802523e+00 3.7301750125553848e+00 1.0045599987318868e+01 1 0 0
263 15 4 -4.5900000000000003e-02 -9.1592202827687448e+00 1.3539249589190663e+00 1.6556408852316476e+01 1 0 0
735 15 6 0.0000000000000000e+00 -8.9358186587638855e+00 2.4300794466148741e+00 1.8056116307351200e+01 1 0 0
246 14 3 0.0000000000000000e+00 -5.0679374313952534e+00 1.7452750404399400e+00 1.0413928552360540e+01 1 0 0
265 15 4 -4.5900000000000003e-02 -1.0034130005080639e+01 1.0993145335316983e+00 1.8733885003233809e+01 1 0 0
604 34 1 -4.5900000000000003e-02 -8.4337075316637655e-01 4.9695150823036807e+00 1.2901842561969119e+01 1 0 0
605 34 4 -4.5900000000000003e-02 -3.9591845633226885e-01 4.1210032562232994e+00 1.1889419227324725e+01 1 0 0
606 34 3 0.0000000000000000e+00 -1.8579803452331234e-01 4.6139857912796689e+00 1.0559208958485126e+01 1 0 0
267 15 2 4.5900000000000003e-02 -8.3802413167046605e+00 1.6779655765730790e+00 1.4586134467516725e+01 1 0 0
1007 54 4 -4.5900000000000003e-02 -5.7201800573703867e+00 7.1440658147517153e+00 1.1026793708910468e+01 1 0 0
611 34 2 4.5900000000000003e-02 8.0124301888262917e-01 2.7904158784497248e+00 9.8721302638184767e+00 1 0 0
610 34 2 4.5900000000000003e-02 -1.6082085681497649e-01 3.1566871495087665e+00 1.2228541484147478e+01 1 0 0
241 14 2 4.5900000000000003e-02 -3.9938738200153279e+00 3.9495303538482656e+00 1.2771437657800981e+01 1 0 0
620 35 2 4.5900000000000003e-02 -6.3267275016866922e+00 7.4840349558547050e+00 1.9124766805519965e+01 1 0 0
598 34 4 -4.5900000000000003e-02 -1.1665378364434513e+00 6.7703492451795411e+00 1.1213874628714670e+01 1 0 0
754 34 6 0.0000000000000000e+00 -4.2685153115065777e-01 5.2697351630792175e+00 1.0483689408396003e+01 1 0 0
609 34 2 4.5900000000000003e-02 -9.9300840299578397e-01 4.4589314953691019e+00 1.3853387514951930e+01 1 0 0
613 35 7 -4.5900000000000003e-02 -4.5709948930833582e+00 5.5870466007324433e+00 1.6085926306066067e+01 1 0 0
618 35 2 4.5900000000000003e-02 -4.6103558464280354e+00 5.8894790185588928e+00 1.5028311716228652e+01 1 0 0
615 35 3 0.0000000000000000e+00 -5.2609665779416819e+00 5.7423755563987759e+00 1.8402716227890810e+01 1 0 0
617 35 1 -4.5900000000000003e-02 -4.0047732696103600e+00 4.3045349881886832e+00 1.6401916556808779e+01 1 0 0
621 35 2 4.5900000000000003e-02 -3.5406031675516729e+00 3.6849198426554830e+00 1.5667655780450893e+01 1 0 0
624 35 3 0.0000000000000000e+00 -4.6979326358088054e+00 4.5331401972314280e+00 1.8735588367393333e+01 1 0 0
625 35 4 -4.5900000000000003e-02 -4.0192122198213305e+00 3.8029267800346056e+00 1.7678995467378488e+01 1 0 0
629 35 2 4.5900000000000003e-02 -3.4654203305251814e+00 2.9170313671219823e+00 1.7828653778031587e+01 1 0 0
755 35 6 0.0000000000000000e+00 -4.9526823792290280e+00 5.1167741520942789e+00 1.8437896453004278e+01 1 0 0
270 15 2 4.5900000000000003e-02 -7.2209590652093771e+00 3.8163983750829567e+00 1.5126441126305929e+01 1 0 0
4398 234 4 -4.5900000000000003e-02 -1.5975259141032936e+00 7.5764039095698621e-01 1.1409305303687743e+01 1 1 0
4412 234 2 4.5900000000000003e-02 -2.5152504221001557e+00 9.9561817764751204e-01 1.3313755020360109e+01 1 1 0
614 35 5 -4.5900000000000003e-02 -5.1930711313943405e+00 6.3112280597608006e+00 1.7105664383551360e+01 1 0 0
247 14 4 -4.5900000000000003e-02 -5.7528291065454642e+00 8.6436899568456504e-01 1.1257240981631195e+01 1 0 0
4419 235 2 4.5900000000000003e-02 -5.3254441289971819e+00 1.3069457721596098e+00 1.6445132702008188e+01 1 1 0
1025 55 4 -4.5900000000000003e-02 -9.8053143065704287e+00 6.7370800262549810e+00 1.8336350672415168e+01 1 0 0
608 34 1 -4.5900000000000003e-02 -1.2142527783723480e+00 6.2745109341258658e+00 1.2593060366763954e+01 1 0 0
616 35 4 -4.5900000000000003e-02 -5.9664908391207732e+00 6.5299572327199709e+00 1.9379177992646554e+01 1 0 0
612 34 2 4.5900000000000003e-02 -1.6922354399617276e+00 6.8785486553962505e+00 1.3348665927979287e+01 1 0 0
269 15 2 4.5900000000000003e-02 -1.0398956152872270e+01 1.0577623763864630e-01 1.8465681556102382e+01 1 0 0
1011 54 2 4.5900000000000003e-02 -6.0821676691421542e+00 6.1925836275356652e+00 1.0690182020368164e+01 1 0 0
254 15 5 -4.5900000000000003e-02 -8.9301548299729454e+00 3.5732361802000838e+00 1.9499832300161088e+01 1 0 0
1006 54 3 0.0000000000000000e+00 -4.8460619070018014e+00 7.7607202448462251e+00 1.0107421948429280e+01 1 0 0
1023 55 4 -4.5900000000000003e-02 -9.1593106088336960e+00 7.4477908215573745e+00 1.6092219144706881e+01 1 0 0
619 35 2 4.5900000000000003e-02 -5.5809866973727402e+00 7.2844116186709780e+00 1.6910428556106616e+01 1 0 0
1015 55 3 0.0000000000000000e+00 -8.5370235257649583e+00 8.8117319936634679e+00 1.8083259754826738e+01 1 0 0
1494 54 6 0.0000000000000000e+00 -4.5660022857271416e+00 8.4199424725444718e+00 1.0303754672154625e+01 1 0 0
1003 54 2 4.5900000000000003e-02 -6.5823729926948245e+00 6.9992302662227743e+00 1.2996184724671576e+01 1 0 0
1495 55 6 0.0000000000000000e+00 -8.8129681973549090e+00 8.2776372121493758e+00 1.7637233021659590e+01 1 0 0
999 54 1 -4.5900000000000003e-02 -5.9513079278176431e+00 7.6337265250804238e+00 1.2324962197961803e+01 1 0 0
602 34 2 4.5900000000000003e-02 -1.5693869765387243e+00 7.7489522425260020e+00 1.0970331784534686e+01 1 0 0
1024 55 3 0.0000000000000000e+00 -9.2391004516114279e+00 7.6957638026502897e+00 1.7462136559330702e+01 1 0 0
251 14 2 4.5900000000000003e-02 -6.2332979854987638e+00 3.2968488023536517e-02 1.0810497165904216e+01 1 0 0
4415 235 3 0.0000000000000000e+00 -5.1629947377305578e+00 -1.1803777646728096e-02 1.8168928240751498e+01 1 1 0
607 34 4 -4.5900000000000003e-02 4.0463329043700647e-01 3.7427421901141247e+00 9.6364155644596394e+00 1 0 0
268 15 2 4.5900000000000003e-02 -9.5890301571725605e+00 4.1690237909387068e-01 1.6315228048933569e+01 1 0 0
1027 55 2 4.5900000000000003e-02 -8.1679342873892473e+00 8.0899876339389127e+00 1.4252648777103419e+01 1 0 0
1389 75 2 4.5900000000000003e-02 -3.2251189933662410e+00 8.9081732754183864e+00 1.6977625327444748e+01 1 0 0
995 54 7 -4.5900000000000003e-02 -5.3981220702651118e+00 8.8422862432424250e+00 1.2629873456560826e+01 1 0 0
280 16 1 -4.5900000000000003e-02 -1.2726324089414172e+01 2.3207805743726881e+00 2.3156053265860852e+01 1 0 0
638 36 2 4.5900000000000003e-02 -1.0639885384453994e+01 7.3418755799791438e+00 2.5917769981189778e+01 1 0 0
258 15 2 4.5900000000000003e-02 -9.8369337106551775e+00 3.2948752728986945e+00 2.1441661563111079e+01 1 0 0
634 36 4 -4.5900000000000003e-02 -1.0203422072857101e+01 6.4024214031815365e+00 2.6152469523893441e+01 1 0 0
4433 236 3 0.0000000000000000e+00 -9.4898291321263777e+00 6.7484989782738133e-02 2.5608367474599529e+01 1 1 0
257 15 1 -4.5900000000000003e-02 -1.0132368426712052e+01 1.5156057512837671e+00 2.0114746637030123e+01 1 0 0
284 16 1 -4.5900000000000003e-02 -1.2231221578717619e+01 3.5439578675941639e+00 2.3536279128690111e+01 1 0 0
279 16 2 4.5900000000000003e-02 -1.4717114925512222e+01 6.2534556065481828e-01 2.8354102424530467e+01 1 0 0
1042 56 3 0.0000000000000000e+00 -1.3675399389237148e+01 7.8502184018292631e+00 2.5251081447112835e+01 1 0 0
288 16 2 4.5900000000000003e-02 -1.1892817929032425e+01 4.2037427824873808e+00 2.2831636644029366e+01 1 0 0
271 16 7 -4.5900000000000003e-02 -1.3700332683855221e+01 2.5208185955786337e+00 2.8076424712864167e+01 1 0 0
272 16 5 -4.5900000000000003e-02 -1.3194844718600205e+01 3.4126781489829678e+00 2.7156865622393859e+01 1 0 0
273 16 3 0.0000000000000000e+00 -1.2943121379558091e+01 3.0143851639955010e+00 2.5847880610932268e+01 1 0 0
274 16 4 -4.5900000000000003e-02 -1.2312612522887186e+01 3.9160045595787589e+00 2.4928123366259467e+01 1 0 0
275 16 1 -4.5900000000000003e-02 -1.4209809930777606e+01 1.2827928229532271e+00 2.7632492067204620e+01 1 0 0
1013 55 7 -4.5900000000000003e-02 -9.1270822231223967e+00 8.0816412624354594e+00 2.0323098191573415e+01 1 0 0
277 16 2 4.5900000000000003e-02 -1.2854980177641057e+01 4.3776281289696533e+00 2.7670446118187513e+01 1 0 0
278 16 2 4.5900000000000003e-02 -1.1931599152902077e+01 4.7653352949474073e+00 2.5354209939503384e+01 1 0 0
261 15 2 4.5900000000000003e-02 -1.0644997793941764e+01 9.5865706135748152e-01 2.0935716677079469e+01 1 0 0
282 16 3 0.0000000000000000e+00 -1.3477718752103709e+01 1.7814170755007184e+00 2.5365920121545873e+01 1 0 0
1043 56 4 -4.5900000000000003e-02 -1.4406971747995987e+01 7.1024239060385224e+00 2.6229088074147679e+01 1 0 0
736 16 6 0.0000000000000000e+00 -1.3223014121956055e+01 2.3800936025762462e+00 2.5731301950166831e+01 1 0 0
632 36 5 -4.5900000000000003e-02 -9.2266963747726791e+00 6.0917547585967311e+00 2.3872611757863819e+01 1 0 0
636 36 2 4.5900000000000003e-02 -8.6407500092031082e+00 5.7201183017145043e+00 2.1970930511999573e+01 1 0 0
4438 236 2 4.5900000000000003e-02 -1.0789218988800940e+01 1.7097142037401425e+00 2.6292054920574508e+01 1 1 0
253 15 7 -4.5900000000000003e-02 -9.6092678105520068e+00 2.7872813202287827e+00 2.0459878519307924e+01 1 0 0
623 35 4 -4.5900000000000003e-02 -4.8175954316698526e+00 3.9793749784746457e+00 2.0023738047645399e+01 1 0 0
627 35 2 4.5900000000000003e-02 -5.7586803640422541e+00 4.2550219041623514e+00 2.1927296893214276e+01 1 0 0
644 36 1 -4.5900000000000003e-02 -1.0313862756036904e+01 5.9370872052750965e+00 2.7479922611088668e+01 1 0 0
631 36 7 -4.5900000000000003e-02 -8.5809175915110867e+00 5.3167217840035237e+00 2.2954925455066721e+01 1 0 0
635 36 1 -4.5900000000000003e-02 -8.0187767272575456e+00 4.1087401599550608e+00 2.3395416857566506e+01 1 0 0
628 35 2 4.5900000000000003e-02 -4.4600897469291203e+00 3.0048153707220679e+00 2.0335082257441005e+01 1 0 0
639 36 2 4.5900000000000003e-02 -7.6081659699449551e+00 3.4580833308855325e+00 2.2704687602094143e+01 1 0 0
283 16 4 -4.5900000000000003e-02 -1.4114309943178410e+01 9.4329774338962302e-01 2.6252138032352658e+01 1 0 0
4430 235 2 4.5900000000000003e-02 -6.3566645342478960e+00 1.1676123706532975e+00 2.1075357973972046e+01 1 1 0
4444 236 1 -4.5900000000000003e-02 -1.0106975184767030e+01 4.9626942738154661e-01 2.7897031996290583e+01 1 1 0
1047 56 2 4.5900000000000003e-02 -1.4912819907057603e+01 6.2544151982346223e+00 2.5908315821243722e+01 1 0 0
633 36 3 0.0000000000000000e+00 -9.4583423147940469e+00 5.6353926701117221e+00 2.5214925587996401e+01 1 0 0
4437 236 2 4.5900000000000003e-02 -1.0174354505998515e+01 1.3211862069725917e+00 2.4086818795024605e+01 1 1 0
640 36 1 -4.5900000000000003e-02 -9.6868869654152725e+00 4.7493306720516602e+00 2.7933499496158127e+01 1 0 0
641 36 4 -4.5900000000000003e-02 -8.9806904806777137e+00 4.0084424101990663e+00 2.7035760985095067e+01 1 0 0
642 36 3 0.0000000000000000e+00 -8.8580033076629388e+00 4.4395814542853245e+00 2.5659098934899138e+01 1 0 0
643 36 4 -4.5900000000000003e-02 -8.0552574292308989e+00 3.6781614217505285e+00 2.4748714010017061e+01 1 0 0
622 35 1 -4.5900000000000003e-02 -5.6394063891721684e+00 4.6905660216070801e+00 2.0931620891197934e+01 1 0 0
646 36 2 4.5900000000000003e-02 -8.4386194316655008e+00 3.0896214969233791e+00 2.7372769285768822e+01 1 0 0
647 36 2 4.5900000000000003e-02 -7.4525000091945435e+00 2.8098761788647755e+00 2.5039295402328662e+01 1 0 0
756 36 6 0.0000000000000000e+00 -9.2763402253981226e+00 4.9466375044110178e+00 2.5362284299077547e+01 1 0 0
281 16 4 -4.5900000000000003e-02 -1.3382806670881022e+01 1.4696624166770336e+00 2.4002940118120137e+01 1 0 0
4434 236 4 -4.5900000000000003e-02 -1.0233846110588658e+01 8.4292440155082415e-01 2.6555046439862917e+01 1 1 0
231 13 2 4.5900000000000003e-02 -1.6212023761182458e+01 2.1733485711241483e+00 2.9463623296188096e+01 1 0 -1
259 15 2 4.5900000000000003e-02 -8.5756414990840888e+00 4.5499973827509539e+00 1.9779481447624427e+01 1 0 0
648 36 2 4.5900000000000003e-02 -1.0916040804020533e+01 6.4404071429131085e+00 2.8249651094001312e+01 1 0 0
4432 236 5 -4.5900000000000003e-02 -9.5678426334378379e+00 4.8609751558119524e-01 2.4298397741481125e+01 1 1 0
1039 56 2 4.5900000000000003e-02 -1.4957544041308072e+01 7.1121363678106198e+00 2.8347382802109927e+01 1 0 0
626 35 1 -4.5900000000000003e-02 -6.0482064305214909e+00 6.0860162291195836e+00 2.0708587421861434e+01 1 0 0
4448 236 2 4.5900000000000003e-02 -1.0513293224220842e+01 1.0709592259510030e+00 2.8758391101314977e+01 1 1 0
4426 235 1 -4.5900000000000003e-02 -6.0361964611291059e+00 4.8212738303937142e-01 2.0366286115554523e+01 1 1 0
276 16 2 4.5900000000000003e-02 -1.3807750731573392e+01 2.7629721321837764e+00 2.9081717004769889e+01 1 0 0
630 35 2 4.5900000000000003e-02 -6.6487024278904050e+00 6.5909372556944463e+00 2.1399983034824800e+01 1 0 0
1021 55 2 4.5900000000000003e-02 -1.0224270568715568e+01 6.2856293898881299e+00 2.0393061057371032e+01 1 0 0
637 36 2 4.5900000000000003e-02 -9.6656460913043194e+00 6.9804721757209549e+00 2.3534453870286058e+01 1 0 0
645 36 2 4.5900000000000003e-02 -9.9201555651125695e+00 4.5086849350531955e+00 2.8944642104770846e+01 1 0 0
4436 236 2 4.5900000000000003e-02 -8.9372164683690247e+00 2.0653478249332713e-01 2.2308037467846756e+01 1 1 0
1017 55 1 -4.5900000000000003e-02 -9.7531071134767746e+00 6.9698448157872059e+00 1.9715902154159348e+01 1 0 0
1035 56 1 -4.5900000000000003e-02 -1.4474283665292468e+01 7.6213561615828977e+00 2.7511454322231771e+01 1 0 0
1018 55 2 4.5900000000000003e-02 -9.0562945215630855e+00 8.0195941237911654e+00 2.1381536565395994e+01 1 0 0
1496 56 6 0.0000000000000000e+00 -1.3354307549825752e+01 8.4097579988566764e+00 2.5447069328775331e+01 1 0 0
1040 56 1 -4.5900000000000003e-02 -1.2641003673830802e+01 8.0024904194499626e+00 2.3024000072792212e+01 1 0 0
1041 56 4 -4.5900000000000003e-02 -1.3469676871617816e+01 7.3037486569504155e+00 2.3956868459912364e+01 1 0 0
1407 76 2 4.5900000000000003e-02 -8.2579261720302739e+00 8.7402439494553015e+00 2.4470999902295269e+01 1 0 0
287 16 2 4.5900000000000003e-02 -1.4556369775231852e+01 7.6382032354529755e-02 2.5810852405150129e+01 1 0 0
1031 56 7 -4.5900000000000003e-02 -1.3922255522667506e+01 8.8633132172302176e+00 2.7828421277555506e+01 1 0 0
285 16 2 4.5900000000000003e-02 -1.2577454558536020e+01 2.0737022653355330e+00 2.2089094324926219e+01 1 0 0
286 16 2 4.5900000000000003e-02 -1.3708196800445572e+01 5.8369861799874712e-01 2.3567039935968268e+01 1 0 0
1045 56 2 4.5900000000000003e-02 -1.2543421202151885e+01 7.6217173596853494e+00 2.2049806395203618e+01 1 0 0
1406 76 2 4.5900000000000003e-02 -8.8850839389911282e+00 8.9109148956207402e+00 2.6759025678964303e+01 1 0 0
979 53 3 0.0000000000000000e+00 -1.2101350518127663e-01 9.1125996313108608e+00 3.2927075004247373e+00 1 0 0
980 53 4 -4.5900000000000003e-02 5.6721432650215586e-01 1.0017871686264742e+01 2.5171213532138226e+00 1 0 0
984 53 2 4.5900000000000003e-02 1.0242517215031761e+00 1.0876741258993157e+01 3.0249003795891833e+00 1 0 0
1361 74 2 4.5900000000000003e-02 -1.1695279751006824e+00 1.3270017812431318e+01 8.5309966055589506e+00 1 0 0
990 53 1 -4.5900000000000003e-02 4.9673024726625181e-01 9.9676524943248506e+00 1.1103089950844354e+00 1 0 0
2253 93 6 0.0000000000000000e+00 -3.8399968484179969e-01 1.4276256539991566e+01 3.0082157328658612e+00 1 0 0
994 53 2 4.5900000000000003e-02 9.5884534344963113e-01 1.0759272219713024e+01 5.1540044482421421e-01 1 0 0
1741 93 1 -4.5900000000000003e-02 -1.5644413105791612e+00 1.3489167445928723e+01 4.9019488677628003e+00 1 0 0
978 53 5 -4.5900000000000003e-02 -1.8937875317817543e-01 9.2875691368701929e+00 4.7118462387284499e+00 1 0 0
983 53 2 4.5900000000000003e-02 2.2516787558717688e-01 1.0179942900544043e+01 5.0535135086761533e+00 1 0 0
1012 54 2 4.5900000000000003e-02 -2.2012299940570430e+00 9.5310868420280599e+00 7.8091927958434724e+00 1 0 0
1363 74 2 4.5900000000000003e-02 8.5673873745353468e-01 9.4190719091315902e+00 7.7965108683047220e+00 1 0 0
1745 93 2 4.5900000000000003e-02 -1.9572708958581115e+00 1.2962705349234707e+01 5.7095155327275640e+00 1 0 0
2513 133 2 4.5900000000000003e-02 -1.6130734341521280e+00 1.7835376437701104e+01 3.0368505075259784e+00 1 0 0
1338 73 5 -4.5900000000000003e-02 3.6564923279374724e+00 1.2261758804735848e+01 1.6558611733860173e+00 1 0 0
1339 73 3 0.0000000000000000e+00 3.4540109364690510e+00 1.1909193107367027e+01 3.0107136699113757e+00 1 0 0
1340 73 4 -4.5900000000000003e-02 2.8160646811425214e+00 1.2781336548152616e+01 3.9007169741575360e+00 1 0 0
1341 73 1 -4.5900000000000003e-02 4.7007592512155645e+00 1.0131534621776780e+01 1.1999760553087482e+00 1 0 0
1337 73 7 -4.5900000000000003e-02 4.1986491588118149e+00 1.1358499944495932e+01 7.5402178507714535e-01 1 0 0
1343 73 2 4.5900000000000003e-02 3.3256654437759723e+00 1.3230882408739264e+01 1.3429554794446796e+00 1 0 0
1348 73 3 0.0000000000000000e+00 3.8722051920675380e+00 1.0665008316427315e+01 3.4426320575725891e+00 1 0 0
1349 73 4 -4.5900000000000003e-02 4.6679519794142541e+00 9.8132173862136796e+00 2.6046234781781052e+00 1 0 0
1513 73 6 0.0000000000000000e+00 3.7240686819160773e+00 1.1279019254959502e+01 3.2399657378030753e+00 1 0 0
1356 74 5 -4.5900000000000003e-02 -6.6977419767215718e-01 1.2339750745747150e+01 8.8371231526716159e+00 1 0 0
1354 73 2 4.5900000000000003e-02 1.9667017137511942e+00 1.3038150355743378e+01 5.9149904088314438e+00 1 0 0
1346 73 1 -4.5900000000000003e-02 2.8581049001546037e+00 1.1010377481360699e+01 5.6244939785133337e+00 1 0 0
1347 73 4 -4.5900000000000003e-02 3.6435564368374371e+00 1.0235311958577951e+01 4.7938746447186329e+00 1 0 0
1350 73 1 -4.5900000000000003e-02 2.4625444756512960e+00 1.2311159208309075e+01 5.2105260446563912e+00 1 0 0
1351 73 2 4.5900000000000003e-02 2.5261501940224176e+00 1.0736191979812650e+01 6.6558447068255173e+00 1 0 0
1352 73 2 4.5900000000000003e-02 4.1059492056959224e+00 9.3227445996094005e+00 5.1240396858890502e+00 1 0 0
1345 73 2 4.5900000000000003e-02 5.1112429246460600e+00 9.4499366520264498e+00 4.7951510261302244e-01 1 0 0
1355 74 7 -4.5900000000000003e-02 -1.2700259696729077e-01 1.1381597646587648e+01 7.9077261768090725e+00 1 0 0
1359 74 1 -4.5900000000000003e-02 5.0490154821384614e-01 1.0286235254621925e+01 8.3935045926817704e+00 1 0 0
1360 74 2 4.5900000000000003e-02 -1.2385528271489576e-01 1.1498720029074049e+01 6.8532381777689260e+00 1 0 0
1747 93 4 -4.5900000000000003e-02 -6.2683479782687035e-01 1.3238556356100682e+01 1.3077051760572214e+00 1 0 0
1748 93 3 0.0000000000000000e+00 -6.8547331111973664e-01 1.3732454106384994e+01 2.6311189142877294e+00 1 0 0
1765 94 4 -4.5900000000000003e-02 -5.2268160929766569e+00 1.3772381291646839e+01 8.6273102854987211e+00 1 0 0
1746 93 1 -4.5900000000000003e-02 1.1346814335827637e-01 1.3941563663316712e+01 4.1238043968858251e-01 1 0 0
1342 73 2 4.5900000000000003e-02 4.2441560472625479e+00 1.1697576694608207e+01 -3.3366747170135724e-01 1 0 0
1749 93 4 -4.5900000000000003e-02 -1.4558527771434546e+00 1.3046489125817647e+01 3.5831354978773193e+00 1 0 0
1764 94 1 -4.5900000000000003e-02 -4.5094786039821768e+00 1.4655114390049066e+01 7.8302092733019268e+00 1 0 0
1344 73 2 4.5900000000000003e-02 2.4214023389955877e+00 1.3774038130171306e+01 3.6154190303879341e+00 1 0 0