LAMMPS (15 May 2015)
Reading data file ...
  triclinic box = (-0.107635 -0.0404339 -0.357111) to (41.3876 35.9384 29.5551) with tilt (-0.0672341 -17.0362 -0.0417078)
  5 by 4 by 3 MPI processor grid
  reading atoms ...
  4560 atoms
  reading velocities ...
  4560 velocities
  scanning bonds ...
  3 = max bonds/atom
  scanning angles ...
  3 = max angles/atom
  scanning dihedrals ...
  8 = max dihedrals/atom
  scanning impropers ...
  1 = max impropers/atom
  reading bonds ...
  5040 bonds
  reading angles ...
  7200 angles
  reading dihedrals ...
  10560 dihedrals
  reading impropers ...
  2400 impropers
Finding 1-2 1-3 1-4 neighbors ...
 Special bond factors lj:   0          0          0         
 Special bond factors coul: 0          0          0         
  4 = max # of 1-2 neighbors
  8 = max # of 1-3 neighbors
  20 = max # of 1-4 neighbors
  16 = max # of special neighbors
4560 atoms in group all
720 atoms in group C
480 atoms in group S
1920 atoms in group H
720 atoms in group Si
240 atoms in group Na
240 atoms in group Ba
240 atoms in group O
4560 atoms in group naphthalene
1200 atoms in group fixed
960 atoms in group CO
Setting atom values ...
  720 settings made for charge
Setting atom values ...
  720 settings made for charge
Setting atom values ...
  1920 settings made for charge
Setting atom values ...
  480 settings made for charge
Setting atom values ...
  240 settings made for charge
Setting atom values ...
  240 settings made for charge
Setting atom values ...
  240 settings made for charge
Finding 1-2 1-3 1-4 neighbors ...
 Special bond factors lj:   0          0          0.5       
 Special bond factors coul: 0          0          0.5       
  4 = max # of 1-2 neighbors
  8 = max # of 1-3 neighbors
  20 = max # of 1-4 neighbors
  16 = max # of special neighbors
PPPM initialization ...
  G vector (1/distance) = 0.253736
  grid = 15 15 18
  stencil order = 5
  estimated absolute RMS force accuracy = 0.000588995
  estimated relative force accuracy = 1.77374e-06
  using double precision FFTs
  3d grid and FFT values/proc = 1040 90
Neighbor list info ...
  6 neighbor list requests
  update every 1 steps, delay 0 steps, check yes
  master list distance cutoff = 12
Setting up run ...
Memory usage per processor = 14.0465 Mbytes
Step Temp Density PotEng E_vdwl E_tail E_coul E_long Press Volume Xy Xz Yz E_mol E_bond E_angle E_dihed 14[1] 14[2] 14[3] msd[4] msd2[4] msd3[4] msd4[4] naphthal Cella Cellb Cellc CellAlpha CellBeta CellGamma 2 27[1] 27[2] 27[3] 
       0          298    1.2509986    3460.9361            0            0    339.87165   -377.76855   -15893.533    44657.537 -0.067234084   -17.036218 -0.041707817     3498.833    1521.0094     935.4334    889.67826    28.379601    18.846571    14.337846 2.3535127e-29 2.3910021e-29 2.2534249e-29 2.2900766e-29          298     41.49527    35.978931    34.423473    90.016431    119.66323    90.107069 7.2177013e-23    28.379761    18.846182    14.337739 
   10000    299.79531    1.2509986    3509.4408            0            0    341.50917   -377.72036   -9123.0184    44657.537 -0.067234084   -17.036218 -0.041707817     3545.652    1467.3706    975.93717    940.26963    28.379556    18.844145    14.337545 0.00030683742 0.00030651622 0.00031697556 0.00031642476    299.79531     41.49527    35.978931    34.423473    90.016431    119.66323    90.107069    920.51225    28.379417    18.845831    14.338021 
   20000    298.38525    1.2509986    3584.0151            0            0    341.56851    -377.7394    -7900.164    44657.537 -0.067234084   -17.036218 -0.041707817     3620.186    1539.4952     985.3824    931.81792    28.381053    18.845141    14.338094 0.00032796084 0.00032787864 0.00033598551 0.00033577843    298.38525     41.49527    35.978931    34.423473    90.016431    119.66323    90.107069    983.88252    28.379868    18.846108    14.337995 
   30000    303.57156    1.2509986    3550.8859            0            0    341.37028    -377.6919   -8752.2095    44657.537 -0.067234084   -17.036218 -0.041707817    3587.2075    1486.7474    1018.0832    919.16779    28.378734    18.844761    14.337112 0.00032416367 0.00032385816 0.00032894804 0.00032863152    303.57156     41.49527    35.978931    34.423473    90.016431    119.66323    90.107069      972.491    28.380054    18.845713    14.337741 
   40000     303.9108    1.2509986    3605.4532            0            0    342.03179   -377.65448   -7264.0358    44657.537 -0.067234084   -17.036218 -0.041707817    3641.0759    1538.2825    1013.0106    927.95257    28.380236    18.845095    14.337853 0.00032579207 0.0003256915 0.00032744511 0.00032739672     303.9108     41.49527    35.978931    34.423473    90.016431    119.66323    90.107069    977.37621    28.379931    18.846022    14.337954 
   50000    296.78018    1.2509986    3566.1124            0            0    341.02177   -377.73195   -9308.5795    44657.537 -0.067234084   -17.036218 -0.041707817    3602.8225    1537.4005    982.93496    921.17387    28.380953    18.844153    14.338011 0.00033360716 0.00033332887 0.00033844784 0.00033810999    296.78018     41.49527    35.978931    34.423473    90.016431    119.66323    90.107069    1000.8215    28.380185    18.845885    14.337842 
   60000    293.70672    1.2509986    3449.7313            0            0    341.49939   -377.77299   -8313.8138    44657.537 -0.067234084   -17.036218 -0.041707817    3486.0049    1473.7297    992.87392    870.86414    28.378635    18.846102    14.337151 0.00034260069 0.00034238734 0.00033963854 0.00033923938    293.70672     41.49527    35.978931    34.423473    90.016431    119.66323    90.107069    1027.8021    28.379472    18.846459    14.337508 
   70000    300.17863    1.2509986     3486.025            0            0    341.18741   -377.75672   -9413.8137    44657.537 -0.067234084   -17.036218 -0.041707817    3522.5943    1506.6064    955.58523    907.43085    28.380504    18.846345    14.337691  0.000324926 0.0003246909 0.00032844039 0.00032793973    300.17863     41.49527    35.978931    34.423473    90.016431    119.66323    90.107069    974.77801    28.379385    18.846474    14.337645 
   80000    299.91765    1.2509986    3481.0986            0            0    341.18043   -377.75599   -8185.3975    44657.537 -0.067234084   -17.036218 -0.041707817    3517.6741     1485.186    997.57715    883.15317    28.380579    18.845144    14.336988 0.00034751162 0.00034712179 0.00035767433 0.00035734888    299.91765     41.49527    35.978931    34.423473    90.016431    119.66323    90.107069    1042.5349    28.379533    18.845671    14.337463 
   90000    297.30831    1.2509986    3466.5428            0            0    340.93019   -377.76435   -10057.719    44657.537 -0.067234084   -17.036218 -0.041707817    3503.3769    1492.7975    921.67201    929.66749    28.380744    18.845133    14.337915  0.000343723 0.00034358031 0.00035698683 0.00035696354    297.30831     41.49527    35.978931    34.423473    90.016431    119.66323    90.107069     1031.169     28.37999    18.846291    14.338019 
  100000    296.18023    1.2509986    3582.5971            0            0     341.2121   -377.79014   -8781.6362    44657.537 -0.067234084   -17.036218 -0.041707817    3619.1752    1533.3448    993.36724    933.08244     28.37847    18.846467    14.337252 0.0003374806 0.00033708552 0.00033574252 0.00033487202    296.18023     41.49527    35.978931    34.423473    90.016431    119.66323    90.107069    1012.4418    28.379345    18.846229     14.33727 
  110000    295.54528    1.2509986    3462.6529            0            0    341.09871   -377.79916   -8011.5393    44657.537 -0.067234084   -17.036218 -0.041707817    3499.3533     1512.585    951.92678    879.87922    28.381804    18.845759    14.338583 0.00034528795 0.0003449974 0.00035156376 0.00035127994    295.54528     41.49527    35.978931    34.423473    90.016431    119.66323    90.107069    1035.8638    28.379886    18.846583    14.338077 
  120000    295.98948    1.2509986     3541.851            0            0    341.65936   -377.78435   -6676.9797    44657.537 -0.067234084   -17.036218 -0.041707817    3577.9759    1497.7702    988.16238    929.23436    28.379973    18.846126    14.337462 0.00034916759 0.00034899705 0.00035676478 0.00035635938    295.98948     41.49527    35.978931    34.423473    90.016431    119.66323    90.107069    1047.5028    28.379994    18.846431    14.337505 
  130000     301.0109    1.2509986     3434.883            0            0    341.15923   -377.80547   -7595.2489    44657.537 -0.067234084   -17.036218 -0.041707817    3471.5292    1433.4913    970.59998     910.8819    28.379653    18.846944    14.337332 0.00034567344 0.00034555449 0.00035190144 0.00035171131     301.0109     41.49527    35.978931    34.423473    90.016431    119.66323    90.107069    1037.0203    28.380048    18.846374    14.337742 
  140000    296.21828    1.2509986    3537.3222            0            0    341.25462   -377.71156   -7990.6635    44657.537 -0.067234084   -17.036218 -0.041707817    3573.7791    1469.3456    1023.2522    927.50691    28.382043    18.845438      14.3375 0.00033008908 0.00032983428 0.00032993101 0.00032921171    296.21828     41.49527    35.978931    34.423473    90.016431    119.66323    90.107069    990.26724     28.37991    18.845746    14.337533 
  150000    305.12356    1.2509986    3522.2934            0            0    341.56354   -377.71938   -9241.4366    44657.537 -0.067234084   -17.036218 -0.041707817    3558.4492    1487.2379    1014.9266    902.12548    28.379641    18.845057    14.337666 0.00034777019 0.00034766789 0.00035308252  0.000353053    305.12356     41.49527    35.978931    34.423473    90.016431    119.66323    90.107069    1043.3106    28.379446    18.846214    14.337692 
  160000    296.81331    1.2509986    3506.6184            0            0    341.92267   -377.76759   -8517.4447    44657.537 -0.067234084   -17.036218 -0.041707817    3542.4633    1512.6412     971.1718     903.4608    28.378245    18.845381    14.337971 0.00033847156 0.00033841281 0.00034419858 0.00034399898    296.81331     41.49527    35.978931    34.423473    90.016431    119.66323    90.107069    1015.4147    28.379647    18.846195    14.337953 
  170000    298.68727    1.2509986    3535.6972            0            0    342.00393   -377.65672   -7662.9229    44657.537 -0.067234084   -17.036218 -0.041707817      3571.35    1509.7512    993.43772    911.86594    28.382653     18.84623    14.338205 0.00035333527 0.00035303181 0.00036289412 0.00036225456    298.68727     41.49527    35.978931    34.423473    90.016431    119.66323    90.107069    1060.0058     28.38001    18.846671    14.337692 
  180000     295.6286    1.2509986    3550.4228            0            0    341.92832    -377.6432   -8177.8439    44657.537 -0.067234084   -17.036218 -0.041707817    3586.1377     1538.217    967.69651    923.05719    28.379679    18.845372    14.337681 0.00033465996 0.00033456496 0.0003422561 0.00034222062     295.6286     41.49527    35.978931    34.423473    90.016431    119.66323    90.107069    1003.9799    28.379745    18.845922    14.337903 
  190000    292.44866    1.2509986    3526.6666            0            0    341.85129    -377.7384   -9109.6502    44657.537 -0.067234084   -17.036218 -0.041707817    3562.5537    1492.4092    995.68266    914.57857    28.378454    18.847275     14.33737 0.00033858615 0.00033853483 0.00033680819 0.00033661559    292.44866     41.49527    35.978931    34.423473    90.016431    119.66323    90.107069    1015.7584    28.379633    18.846304    14.337598 
  200000    300.82483    1.2509986    3510.4229            0            0    342.06064   -377.70598   -8269.3989    44657.537 -0.067234084   -17.036218 -0.041707817    3546.0682    1483.2426    973.16133    927.77093    28.377145    18.844489    14.336507 0.00036369115 0.00036321445 0.00037459163 0.00037424126    300.82483     41.49527    35.978931    34.423473    90.016431    119.66323    90.107069    1091.0735    28.379098    18.845989    14.337744 
  210000    293.62802    1.2509986    3459.6918            0            0     341.4931    -377.7547   -7192.1789    44657.537 -0.067234084   -17.036218 -0.041707817    3495.9534      1482.66    979.63662    881.92399    28.379555    18.848052    14.337503 0.00034264202 0.00034255398 0.00034360297 0.00034331428    293.62802     41.49527    35.978931    34.423473    90.016431    119.66323    90.107069    1027.9261    28.379785    18.846477    14.337718 
  220000    298.49437    1.2509986    3533.7588            0            0    342.25366   -377.65985   -9689.9687    44657.537 -0.067234084   -17.036218 -0.041707817     3569.165     1495.352     994.0007    916.39896    28.379104    18.845934    14.335992 0.00035236387 0.00035202942 0.00035436712 0.00035384927    298.49437     41.49527    35.978931    34.423473    90.016431    119.66323    90.107069    1057.0916    28.379768    18.846584    14.337324 
  230000     300.7513    1.2509986    3476.1336            0            0    341.10949   -377.76409   -9231.1678    44657.537 -0.067234084   -17.036218 -0.041707817    3512.7882    1487.3948    963.82218    906.35374    28.379015    18.845791    14.337222 0.00035150799 0.00035139916 0.00035758862 0.00035744806     300.7513     41.49527    35.978931    34.423473    90.016431    119.66323    90.107069     1054.524    28.380074    18.846272    14.337789 
  240000    298.14642    1.2509986    3492.8695            0            0    341.92152   -377.63956   -7905.4072    44657.537 -0.067234084   -17.036218 -0.041707817    3528.5876    1515.9716    948.30414    903.51974    28.377909    18.845032    14.335739 0.00033654147 0.00033618788 0.00033728632 0.00033688201    298.14642     41.49527    35.978931    34.423473    90.016431    119.66323    90.107069    1009.6244    28.379528    18.845877    14.337285 
  250000     303.2099    1.2509986    3522.3934            0            0    341.75055   -377.72207   -8599.5011    44657.537 -0.067234084   -17.036218 -0.041707817     3558.365    1525.5579    981.79817    896.73459    28.379025    18.846899    14.338167 0.00034828166 0.00034790799 0.00035329547 0.00035283845     303.2099     41.49527    35.978931    34.423473    90.016431    119.66323    90.107069     1044.845    28.379629    18.846187    14.338336 
  260000     297.5822    1.2509986    3551.0277            0            0    342.07636   -377.67374   -6598.4482    44657.537 -0.067234084   -17.036218 -0.041707817    3586.6251    1546.7932    996.50108     891.2862    28.378189    18.846054    14.337234 0.00035763219 0.00035740994 0.00036108062 0.00036104732     297.5822     41.49527    35.978931    34.423473    90.016431    119.66323    90.107069    1072.8966    28.379872    18.845804    14.337998 
  270000    299.65238    1.2509986    3389.3838            0            0    342.22589   -377.67814   -8565.8178    44657.537 -0.067234084   -17.036218 -0.041707817    3424.8361    1458.7662    956.78651    859.88311    28.379745    18.845869    14.337276 0.00034416211 0.00034409432 0.00034749239 0.00034721103    299.65238     41.49527    35.978931    34.423473    90.016431    119.66323    90.107069    1032.4863    28.379791     18.84609    14.337981 
  280000    289.94412    1.2509986    3454.7107            0            0    341.44008   -377.74974   -6861.5659    44657.537 -0.067234084   -17.036218 -0.041707817    3491.0204    1501.6201    978.60753    861.55026    28.379275    18.844862    14.337442 0.00034759922 0.00034716123 0.00035254632 0.00035202007    289.94412     41.49527    35.978931    34.423473    90.016431    119.66323    90.107069    1042.7977    28.379547    18.845573    14.337594 
  290000     299.7589    1.2509986    3506.0093            0            0    341.23704   -377.75891   -9043.9556    44657.537 -0.067234084   -17.036218 -0.041707817    3542.5312    1524.7072    995.94951     867.3263    28.381308    18.845067    14.337444 0.00035295197 0.00035264672 0.00036007643 0.00035962233     299.7589     41.49527    35.978931    34.423473    90.016431    119.66323    90.107069    1058.8559    28.380076    18.846301    14.337301 
  300000    297.37137    1.2509986    3434.8207            0            0    342.01258    -377.7676   -7446.5328    44657.537 -0.067234084   -17.036218 -0.041707817    3470.5757    1478.9662    990.01388    852.15644    28.377891     18.84518     14.33765 0.00034498792 0.00034484213 0.00035503591 0.00035495438    297.37137     41.49527    35.978931    34.423473    90.016431    119.66323    90.107069    1034.9638    28.379757    18.845934    14.338029 
  310000    300.78641    1.2509986    3405.2591            0            0    341.79747   -377.71833   -8529.8179    44657.537 -0.067234084   -17.036218 -0.041707817      3441.18    1489.1425    973.35462    832.75031    28.380256    18.845742    14.338309 0.00033803062 0.00033784334 0.00034573093 0.00034561844    300.78641     41.49527    35.978931    34.423473    90.016431    119.66323    90.107069    1014.0918    28.379919    18.845821     14.33756 
  320000    293.30683    1.2509986    3554.2703            0            0    341.18938   -377.75845   -8308.7964    44657.537 -0.067234084   -17.036218 -0.041707817    3590.8393    1510.9817    1001.0612    921.29338    28.380506    18.845309    14.337459 0.0003589234 0.00035884396 0.00037067302 0.00037048909    293.30683     41.49527    35.978931    34.423473    90.016431    119.66323    90.107069    1076.7702    28.379939     18.84639     14.33767 
  330000    295.36396    1.2509986    3430.1117            0            0    341.41395   -377.85874   -7163.6307    44657.537 -0.067234084   -17.036218 -0.041707817    3466.5565    1499.3706    949.56528    862.73134    28.379916     18.84407    14.337555 0.00035466516 0.0003544772 0.0003652768 0.00036509167    295.36396     41.49527    35.978931    34.423473    90.016431    119.66323    90.107069    1063.9955    28.379348    18.846051    14.337742 
  340000    297.37091    1.2509986     3444.527            0            0    341.76946   -377.78531   -6905.5348    44657.537 -0.067234084   -17.036218 -0.041707817    3480.5429    1449.2597    961.34091    912.31329    28.382621     18.84646      14.3387 0.00036295863 0.0003629311 0.00037148553 0.00037135612    297.37091     41.49527    35.978931    34.423473    90.016431    119.66323    90.107069    1088.8759    28.379799     18.84603    14.337793 
  350000    296.07047    1.2509986    3547.1683            0            0      341.334   -377.78014   -8570.5114    44657.537 -0.067234084   -17.036218 -0.041707817    3583.6145    1540.2086    979.66422    913.09045    28.378412    18.845968    14.337186 0.00034837175 0.00034832164 0.00035247852 0.00035242547    296.07047     41.49527    35.978931    34.423473    90.016431    119.66323    90.107069    1045.1153    28.379868    18.846378    14.337726 
  360000    299.66557    1.2509986    3451.8132            0            0    342.39463   -377.63259   -8716.7313    44657.537 -0.067234084   -17.036218 -0.041707817    3487.0512    1461.5676    988.76563    883.82081    28.381853    18.846127    14.338315 0.00035403285 0.00035389896 0.00036635581 0.00036616134    299.66557     41.49527    35.978931    34.423473    90.016431    119.66323    90.107069    1062.0986    28.379751    18.846448    14.337488 
  370000    301.14934    1.2509986    3397.0029            0            0    341.57677   -377.68854   -7206.7309    44657.537 -0.067234084   -17.036218 -0.041707817    3433.1147    1424.0529    975.20458    879.25204    28.382095    18.845287    14.337666 0.00035643906 0.00035590392 0.00035722928 0.00035627531    301.14934     41.49527    35.978931    34.423473    90.016431    119.66323    90.107069    1069.3172    28.379857    18.846906    14.337783 
  380000    301.65284    1.2509986    3478.2051            0            0    341.19013    -377.8564   -5955.7131    44657.537 -0.067234084   -17.036218 -0.041707817    3514.8714    1476.4267    988.01836    892.27466    28.379981    18.844665    14.337443 0.00035431123 0.00035404309 0.00035553902 0.00035534155    301.65284     41.49527    35.978931    34.423473    90.016431    119.66323    90.107069    1062.9337    28.380179     18.84608    14.337452 
  390000    302.09213    1.2509986    3457.8434            0            0    342.05718   -377.64128   -5923.4483    44657.537 -0.067234084   -17.036218 -0.041707817    3493.4275    1456.6697    960.26372    917.76788    28.380107    18.846489    14.337284 0.00033987734 0.00033970258  0.000345215 0.00034513842    302.09213     41.49527    35.978931    34.423473    90.016431    119.66323    90.107069     1019.632    28.380146    18.846331    14.337805 
  400000    296.24102    1.2509986    3485.3293            0            0    342.39598   -377.69754   -8417.1911    44657.537 -0.067234084   -17.036218 -0.041707817    3520.6309    1460.3242    1009.8669    899.11591    28.381486    18.846127    14.338124 0.00035033422 0.00035028878 0.00035491883 0.00035489656    296.24102     41.49527    35.978931    34.423473    90.016431    119.66323    90.107069    1051.0027    28.379809    18.846377     14.33781 
  410000    295.82244    1.2509986    3437.9678            0            0    341.82205   -377.70339   -9295.5262    44657.537 -0.067234084   -17.036218 -0.041707817    3473.8491     1448.446    982.09843    891.53349    28.378399    18.844715    14.336716 0.00035653987 0.00035615239 0.00036894275 0.00036839139    295.82244     41.49527    35.978931    34.423473    90.016431    119.66323    90.107069    1069.6196    28.380171     18.84635    14.338177 
  420000    297.15662    1.2509986    3425.0987            0            0    341.48809   -377.70378   -10049.747    44657.537 -0.067234084   -17.036218 -0.041707817    3461.3144    1476.7273    949.08486    883.76322     28.38039    18.846417    14.338075 0.00036679834 0.00036597732 0.00036582163 0.00036501684    297.15662     41.49527    35.978931    34.423473    90.016431    119.66323    90.107069     1100.395    28.379169    18.846868    14.337736 
  430000    294.40951    1.2509986    3379.1138            0            0    341.67737   -377.78763   -7858.2108    44657.537 -0.067234084   -17.036218 -0.041707817    3415.2241    1447.4482    934.73853    879.41488    28.379292    18.845141     14.33719 0.00035466582 0.00035431643 0.00035488103 0.00035412821    294.40951     41.49527    35.978931    34.423473    90.016431    119.66323    90.107069    1063.9975     28.38021    18.846359     14.33808 
  440000    296.22509    1.2509986    3403.1928            0            0    341.87611   -377.73069   -7310.6535    44657.537 -0.067234084   -17.036218 -0.041707817    3439.0474     1435.556    967.86455    881.63398    28.381566    18.845647    14.336766 0.00034799837 0.00034785226 0.0003458054 0.00034540384    296.22509     41.49527    35.978931    34.423473    90.016431    119.66323    90.107069    1043.9951    28.379806    18.845937    14.337449 
  450000    291.13341    1.2509986    3456.7765            0            0    341.96663   -377.73034   -7237.2667    44657.537 -0.067234084   -17.036218 -0.041707817    3492.5402    1445.6263    995.29815    898.91212    28.377936     18.84662    14.337959 0.00035637172 0.0003562764 0.00035235441 0.00035213479    291.13341     41.49527    35.978931    34.423473    90.016431    119.66323    90.107069    1069.1152    28.379484    18.846045    14.337743 
  460000    292.46723    1.2509986     3468.975            0            0     341.4043   -377.79113   -8283.1392    44657.537 -0.067234084   -17.036218 -0.041707817    3505.3618    1483.6866     957.3384    908.43159    28.379468    18.846042     14.33728 0.00035440231 0.00035398426 0.0003507638 0.00035016269    292.46723     41.49527    35.978931    34.423473    90.016431    119.66323    90.107069    1063.2069    28.379525    18.846596    14.337302 
  470000    300.75513    1.2509986    3397.4148            0            0    340.80706   -377.73704   -8868.3362    44657.537 -0.067234084   -17.036218 -0.041707817    3434.3448    1448.1807    938.71028    888.36183    28.380686    18.844561    14.338765 0.00035319736 0.0003530665 0.00035934516 0.00035900749    300.75513     41.49527    35.978931    34.423473    90.016431    119.66323    90.107069    1059.5921    28.379712     18.84623    14.338094 
  480000    297.21197    1.2509986    3448.8237            0            0    341.93858    -377.6949   -8237.1428    44657.537 -0.067234084   -17.036218 -0.041707817      3484.58    1478.4932    984.43252    871.75261    28.380982    18.846543    14.338712 0.00035343423 0.00035308116 0.00036138127 0.00036066962    297.21197     41.49527    35.978931    34.423473    90.016431    119.66323    90.107069    1060.3027    28.379956    18.846527    14.338182 
  490000    293.44269    1.2509986    3462.4636            0            0    341.74579   -377.73232   -8126.0982    44657.537 -0.067234084   -17.036218 -0.041707817    3498.4501    1495.5899    975.77276    876.03397    28.379845    18.845511    14.335391 0.0003413077 0.00033963349 0.00034240636 0.00034053888    293.44269     41.49527    35.978931    34.423473    90.016431    119.66323    90.107069    1023.9231    28.380473    18.846167    14.336659 
  500000    295.72694    1.2509986    3467.9661            0            0    341.62481    -377.7175   -9250.8439    44657.537 -0.067234084   -17.036218 -0.041707817    3504.0588    1475.4056    975.36536    902.44004     28.37951    18.846571    14.336629 0.00034571801 0.00034540659 0.00034971095 0.00034943474    295.72694     41.49527    35.978931    34.423473    90.016431    119.66323    90.107069     1037.154    28.380242    18.845906    14.337801 
  510000    293.89203    1.2509986    3458.9228            0            0    341.69201   -377.77891   -7740.2645    44657.537 -0.067234084   -17.036218 -0.041707817    3495.0097    1478.4154    966.77664    898.42676    28.379068      18.8453    14.336673 0.00035317789 0.00035311655 0.00035153876 0.00035144879    293.89203     41.49527    35.978931    34.423473    90.016431    119.66323    90.107069    1059.5337    28.379956     18.84613    14.337595 
  520000    295.55172    1.2509986    3419.1652            0            0    341.14419   -377.70738   -9338.3611    44657.537 -0.067234084   -17.036218 -0.041707817    3455.7284    1430.4322    999.67833    872.78643     28.38062     18.84454    14.337295 0.00034990791 0.00034958707 0.00034962448 0.00034952757    295.55172     41.49527    35.978931    34.423473    90.016431    119.66323    90.107069    1049.7237    28.380083    18.845977     14.33732 
  530000     291.9758    1.2509986    3417.8031            0            0    341.75994   -377.76048   -8513.5189    44657.537 -0.067234084   -17.036218 -0.041707817    3453.8036    1471.2125    934.38075    893.81854    28.380897    18.845117    14.337998 0.00036372904 0.00036362463 0.00036196709 0.00036183863     291.9758     41.49527    35.978931    34.423473    90.016431    119.66323    90.107069    1091.1871      28.3798     18.84591    14.337909 
  540000    296.23616    1.2509986    3507.2644            0            0    341.31183    -377.7504   -8225.4649    44657.537 -0.067234084   -17.036218 -0.041707817    3543.7029     1468.874    948.71427    959.58014    28.377895    18.845537    14.336806 0.00035673671 0.00035649431 0.00035233993 0.00035204975    296.23616     41.49527    35.978931    34.423473    90.016431    119.66323    90.107069    1070.2101    28.379923    18.846548    14.337452 
  550000    301.46018    1.2509986    3489.1942            0            0    341.60923   -377.73205   -6166.6474    44657.537 -0.067234084   -17.036218 -0.041707817     3525.317    1513.0318    963.92813    892.81409     28.37827    18.845844    14.336494 0.00035266934 0.00035244711 0.0003530244 0.00035273596    301.46018     41.49527    35.978931    34.423473    90.016431    119.66323    90.107069     1058.008    28.379628    18.846634     14.33775 
  560000    303.64421    1.2509986    3411.6277            0            0    341.87373   -377.71702   -6499.5998    44657.537 -0.067234084   -17.036218 -0.041707817     3447.471    1452.8175    932.09627    906.62568    28.378426    18.845009    14.336269 0.00034904167 0.00034851835 0.00034850403 0.00034791828    303.64421     41.49527    35.978931    34.423473    90.016431    119.66323    90.107069     1047.125    28.379659    18.846223    14.337024 
  570000    296.22761    1.2509986    3470.7556            0            0    341.23795   -377.79926   -7528.7904    44657.537 -0.067234084   -17.036218 -0.041707817    3507.3169    1473.4517    950.57908    924.38145    28.380224    18.844807     14.33756 0.00035390969 0.00035385158 0.00035409216 0.00035405671    296.22761     41.49527    35.978931    34.423473    90.016431    119.66323    90.107069    1061.7291    28.379839    18.846001    14.337878 
  580000    300.90213    1.2509986    3486.0302            0            0    341.18943   -377.80387   -8495.1995    44657.537 -0.067234084   -17.036218 -0.041707817    3522.6446    1495.0318    955.18922    913.79099    28.377167    18.844368    14.335516 0.00036647391 0.00036598115 0.0003629032 0.00036231148    300.90213     41.49527    35.978931    34.423473    90.016431    119.66323    90.107069    1099.4217    28.379593    18.846598    14.337199 
  590000    300.99618    1.2509986    3463.7581            0            0    341.90283   -377.66776   -6767.5786    44657.537 -0.067234084   -17.036218 -0.041707817     3499.523    1474.4753    971.41334    899.22469     28.37801    18.847097    14.336336 0.00035773785 0.00035705896 0.00035200699 0.00035115945    300.99618     41.49527    35.978931    34.423473    90.016431    119.66323    90.107069    1073.2136    28.379146    18.845879    14.337282 
  600000    300.96579    1.2509986    3550.0444            0            0     341.9403   -377.71712   -7739.4758    44657.537 -0.067234084   -17.036218 -0.041707817    3585.8213    1526.3538    982.01472    917.82945     28.37891    18.844655    14.336176 0.00033903141 0.00033883425 0.00033991292 0.00033957758    300.96579     41.49527    35.978931    34.423473    90.016431    119.66323    90.107069    1017.0942    28.379678    18.846069    14.337318 
  610000    301.21999    1.2509986    3400.9127            0            0      341.222   -377.78747   -8162.1114    44657.537 -0.067234084   -17.036218 -0.041707817    3437.4781     1470.668    931.88346    884.59665    28.378802    18.844323    14.337389 0.00035774333 0.00035726605 0.00035882474 0.00035817352    301.21999     41.49527    35.978931    34.423473    90.016431    119.66323    90.107069      1073.23    28.379205    18.845888    14.337453 
  620000    301.50187    1.2509986    3442.1621            0            0    341.92485   -377.70818   -8256.1823    44657.537 -0.067234084   -17.036218 -0.041707817    3477.9454    1491.6287    940.21064    890.15033    28.380075    18.845838    14.337274 0.00034824913 0.00034811733 0.00035177864 0.00035162272    301.50187     41.49527    35.978931    34.423473    90.016431    119.66323    90.107069    1044.7474    28.379964    18.846459    14.337856 
  630000    301.55805    1.2509986    3402.6787            0            0    341.49102   -377.68315   -7589.4339    44657.537 -0.067234084   -17.036218 -0.041707817    3438.8709    1457.3657    942.27267    887.57215    28.381331    18.844781    14.337733 0.00035322534 0.00035318336 0.00035415008 0.00035409931    301.55805     41.49527    35.978931    34.423473    90.016431    119.66323    90.107069     1059.676    28.379922    18.846064    14.337694 
  640000    300.56776    1.2509986    3471.0236            0            0    342.44124   -377.71392   -7490.6627    44657.537 -0.067234084   -17.036218 -0.041707817    3506.2962    1520.7343    965.15656     871.0797    28.377729    18.844855    14.336576 0.00037165301 0.00037138558 0.00036953993 0.0003691277    300.56776     41.49527    35.978931    34.423473    90.016431    119.66323    90.107069     1114.959    28.379987    18.846099    14.337281 
  650000    294.05123    1.2509986    3414.9802            0            0    341.75473   -377.77158   -7994.7091    44657.537 -0.067234084   -17.036218 -0.041707817     3450.997    1469.4106    932.69424    889.64497    28.378987    18.846778     14.33715 0.00034857698 0.00034853613 0.00035099383 0.0003507969    294.05123     41.49527    35.978931    34.423473    90.016431    119.66323    90.107069    1045.7309    28.379631    18.846305    14.337645 
  660000    295.32162    1.2509986     3405.203            0            0    341.87594   -377.73612   -8191.1358    44657.537 -0.067234084   -17.036218 -0.041707817    3441.0632    1475.0713    925.24913    886.36743    28.381662    18.845291    14.337438 0.00035516162 0.00035487044 0.00034960608 0.00034946278    295.32162     41.49527    35.978931    34.423473    90.016431    119.66323    90.107069    1065.4849    28.379708    18.846325    14.337222 
  670000    293.77752    1.2509986    3530.7712            0            0     342.2025   -377.66709   -7899.4915    44657.537 -0.067234084   -17.036218 -0.041707817    3566.2358    1505.0953    982.07294    924.08375    28.376007     18.84633     14.33677 0.00036035792 0.00036026459 0.00035594688 0.00035580889    293.77752     41.49527    35.978931    34.423473    90.016431    119.66323    90.107069    1081.0738    28.379777    18.846184    14.338044 
  680000    293.45942    1.2509986    3468.1907            0            0    341.74518   -377.73081   -7802.6984    44657.537 -0.067234084   -17.036218 -0.041707817    3504.1763    1501.7529     954.0816    895.52357    28.381612    18.845694    14.336763 0.00034852354 0.00034814204 0.00035036434 0.00034978607    293.45942     41.49527    35.978931    34.423473    90.016431    119.66323    90.107069    1045.5706    28.379915    18.846494    14.337229 
  690000    301.34113    1.2509986    3461.5182            0            0    341.86397   -377.68409   -9470.9356    44657.537 -0.067234084   -17.036218 -0.041707817    3497.3384    1464.6289    950.96842    924.84111    28.381197    18.844568    14.337969 0.00037349567 0.00037341334 0.0003730422 0.00037289602    301.34113     41.49527    35.978931    34.423473    90.016431    119.66323    90.107069     1120.487     28.37997    18.846039    14.337604 
  700000    294.21319    1.2509986    3466.7302            0            0    341.83524   -377.70971   -7962.1705    44657.537 -0.067234084   -17.036218 -0.041707817    3502.6047    1494.7376    942.78675    901.24649    28.380643    18.844594    14.337901 0.0003564836 0.00035643729 0.00035879252 0.00035872323    294.21319     41.49527    35.978931    34.423473    90.016431    119.66323    90.107069    1069.4508    28.379893    18.846084    14.337877 
  710000     292.8901    1.2509986    3516.7176            0            0     341.3723   -377.70626   -7819.7012    44657.537 -0.067234084   -17.036218 -0.041707817    3553.0515    1503.1748    987.69801    902.52976     28.37959    18.847091    14.336737 0.00036252653 0.00036223043 0.00037005304 0.00036972105     292.8901     41.49527    35.978931    34.423473    90.016431    119.66323    90.107069    1087.5796    28.379834    18.846713    14.337644 
  720000    301.46228    1.2509986    3439.6345            0            0    342.05177   -377.73761   -7104.8723    44657.537 -0.067234084   -17.036218 -0.041707817    3475.3204    1488.3556    955.77151    880.33691    28.381397    18.844918    14.337327 0.0003574875 0.0003573255 0.00035184623 0.00035157869    301.46228     41.49527    35.978931    34.423473    90.016431    119.66323    90.107069    1072.4625     28.37981    18.846201     14.33734 
  730000    299.57644    1.2509986    3476.9763            0            0    341.48032   -377.69184   -8175.1219    44657.537 -0.067234084   -17.036218 -0.041707817    3513.1878    1498.7128     969.1166    892.29094    28.379308    18.846621    14.338114 0.00035457206 0.00035432938 0.00035514493 0.00035469587    299.57644     41.49527    35.978931    34.423473    90.016431    119.66323    90.107069    1063.7162    28.379385    18.845935    14.337941 
  740000     297.9285    1.2509986    3429.7021            0            0     341.4062   -377.73654   -8984.1684    44657.537 -0.067234084   -17.036218 -0.041707817    3466.0324    1488.1512    946.64984    880.26926    28.376508    18.844677    14.336887 0.00035322093 0.00035315217 0.00035014097 0.00035000446     297.9285     41.49527    35.978931    34.423473    90.016431    119.66323    90.107069    1059.6628    28.379831    18.846003     14.33756 
  750000    305.46705    1.2509986    3462.3165            0            0     341.6105   -377.77927   -7666.8906    44657.537 -0.067234084   -17.036218 -0.041707817    3498.4852    1506.8347    940.81731    893.25443     28.37833    18.845654    14.337825 0.00035495247 0.0003543814 0.00035739314 0.00035666138    305.46705     41.49527    35.978931    34.423473    90.016431    119.66323    90.107069    1064.8574     28.37908    18.846409    14.337502 
  760000    296.65336    1.2509986    3525.1447            0            0    341.01471   -377.82124   -7315.0031    44657.537 -0.067234084   -17.036218 -0.041707817    3561.9513    1514.5331      988.037    904.69027    28.380354    18.846312     14.33688 0.00035216864 0.00035193664 0.00036102562 0.00036093051    296.65336     41.49527    35.978931    34.423473    90.016431    119.66323    90.107069    1056.5059    28.379678    18.846586    14.337491 
  770000     301.8385    1.2509986    3443.7342            0            0    341.98129    -377.7218   -9173.6717    44657.537 -0.067234084   -17.036218 -0.041707817    3479.4747    1506.6904    951.46904    870.08955    28.380912    18.845204    14.337729 0.00035957528  0.000359396 0.00036098446 0.00036094302     301.8385     41.49527    35.978931    34.423473    90.016431    119.66323    90.107069    1078.7258    28.379947    18.846508    14.337936 
  780000    296.34055    1.2509986    3470.1548            0            0    341.32926   -377.76256   -8383.0281    44657.537 -0.067234084   -17.036218 -0.041707817    3506.5881    1465.7154    957.43993    925.09726    28.380058    18.846625    14.337064  0.000364448 0.00036409961 0.00037076481 0.00037006622    296.34055     41.49527    35.978931    34.423473    90.016431    119.66323    90.107069     1093.344    28.380203    18.846307     14.33811 
  790000    301.56051    1.2509986    3433.6094            0            0    340.95663   -377.76322    -8151.278    44657.537 -0.067234084   -17.036218 -0.041707817     3470.416    1472.9268    971.55296    875.93384    28.381351    18.846637    14.337881 0.00035229132 0.0003522835 0.00035272561 0.00035267804    301.56051     41.49527    35.978931    34.423473    90.016431    119.66323    90.107069     1056.874    28.379827    18.846236    14.337762 
  800000     301.7925    1.2509986     3495.743            0            0     342.0437   -377.73107   -7770.4091    44657.537 -0.067234084   -17.036218 -0.041707817    3531.4304    1483.8699    949.81276    933.33347    28.378874    18.845873    14.336596 0.00034951314 0.00034928647 0.0003523416 0.00035194434     301.7925     41.49527    35.978931    34.423473    90.016431    119.66323    90.107069    1048.5394    28.379546    18.846607    14.337744 
Loop time of 2382.27 on 60 procs for 800000 steps with 4560 atoms

Pair  time (%) = 436.706 (18.3315)
Bond  time (%) = 47.66 (2.00061)
Kspce time (%) = 1232.47 (51.7349)
Neigh time (%) = 12.3224 (0.517253)
Comm  time (%) = 478.14 (20.0707)
Outpt time (%) = 0.519944 (0.0218256)
Other time (%) = 174.458 (7.32318)

Nlocal:    76 ave 84 max 67 min
Histogram: 1 1 8 5 16 12 2 5 7 3
Nghost:    3996.17 ave 4075 max 3891 min
Histogram: 4 8 5 3 0 4 7 12 13 4
Neighs:    28110 ave 30942 max 24578 min
Histogram: 1 1 6 7 8 16 6 4 6 5

Total # of neighbors = 1686598
Ave neighs/atom = 369.868
Ave special neighs/atom = 10.6316
Neighbor list builds = 5402
Dangerous builds = 0
System init for write_data ...
PPPM initialization ...
  G vector (1/distance) = 0.253736
  grid = 15 15 18
  stencil order = 5
  estimated absolute RMS force accuracy = 0.000588995
  estimated relative force accuracy = 1.77374e-06
  using double precision FFTs
  3d grid and FFT values/proc = 1040 90
