LAMMPS data file via write_data, version 15 May 2015, timestep = 18500000

2593 atoms
6 atom types
1728 bonds
4 bond types
864 angles
3 angle types
0 dihedrals
3 dihedral types
0 impropers
1 improper types

-1.4820304934104058e+01 1.4820304934104058e+01 xlo xhi
-1.4820304934104058e+01 1.4820304934104058e+01 ylo yhi
-1.4820304934104058e+01 1.4820304934104058e+01 zlo zhi

Masses

1 15.9994
2 1.00794
3 12.0107
4 1.00794
5 12.0107
6 12.0107

Bond Coeffs # harmonic

1 1000 1
2 469 1.4
3 367 1.08
4 469 0.7

Angle Coeffs # harmonic

1 100 109.47
2 35 120
3 63 120

Dihedral Coeffs # opls

1 0 7.25 0 0
2 0 7.25 0 0
3 0 7.25 0 0

Improper Coeffs # cvff

1 2.5 -1 2

Atoms # full

2022 674 2 4.0999999999999998e-01 -1.4211230893953202e+01 -7.2399151575496230e+00 -1.2277277313511252e+01 -1 5 10
1241 414 2 4.0999999999999998e-01 -1.2995716064556451e+01 -1.2018757739779302e+01 -1.0672710551632465e+01 1 -1 -1
1537 513 1 -8.1999999999999995e-01 -1.0823732836540749e+01 -1.1022657688798478e+01 -8.6915871447008861e+00 -1 5 7
1556 519 2 4.0999999999999998e-01 -8.8835521946719513e+00 -1.2891825707708744e+01 -1.3090348359043951e+01 0 4 5
1557 519 2 4.0999999999999998e-01 -1.0264682059443601e+01 -1.3450322549222140e+01 -1.2421568638808086e+01 0 4 5
1555 519 1 -8.1999999999999995e-01 -9.4574696712744704e+00 -1.3699755169534837e+01 -1.2956564773849175e+01 0 4 5
2166 722 2 4.0999999999999998e-01 -1.0294750030368176e+01 -6.6997381597370715e+00 -8.2313022222443095e+00 1 4 6
1240 414 1 -8.1999999999999995e-01 -1.2836401529960645e+01 -1.2871488511240679e+01 -1.1170202762069573e+01 1 -1 -1
2020 674 1 -8.1999999999999995e-01 -1.3730305093173300e+01 -8.0044306258865277e+00 -1.1848027058979085e+01 -1 5 10
1242 414 2 4.0999999999999998e-01 -1.2237472513680368e+01 -1.3464480158217780e+01 -1.0631988745554739e+01 1 -1 -1
1561 521 1 -8.1999999999999995e-01 -7.8951344799721443e+00 -1.4520768091192101e+01 -1.0401992885504178e+01 2 4 4
556 186 1 -8.1999999999999995e-01 -1.1159452665214847e+01 -7.5002153069897330e+00 -1.1928616002598583e+01 -4 5 2
2021 674 2 4.0999999999999998e-01 -1.2744102887555179e+01 -7.8447477498977793e+00 -1.1892027140070836e+01 -1 5 10
275 92 2 4.0999999999999998e-01 -1.0822731619470737e+01 -9.4173733790369667e+00 -1.1396751594349515e+01 -4 0 7
1813 605 1 -8.1999999999999995e-01 -1.2790884567637143e+01 -9.1375270959042396e+00 -1.4795520435817183e+01 -5 7 6
612 204 2 4.0999999999999998e-01 -1.1119178483993029e+01 -1.2702885727902052e+01 -8.8852902050596505e+00 -2 7 5
557 186 2 4.0999999999999998e-01 -1.0862302814880096e+01 -6.6221871661947542e+00 -1.1553385475261502e+01 -4 5 2
50 17 2 4.0999999999999998e-01 -1.3140293462547358e+01 -1.1157513067065835e+01 -1.4190516589693626e+01 1 0 8
610 204 1 -8.1999999999999995e-01 -1.1480122221102603e+01 -1.3629973613857626e+01 -8.7840129942673357e+00 -2 7 5
1563 521 2 4.0999999999999998e-01 -7.7409285941026429e+00 -1.4363105921238351e+01 -9.4265993350558297e+00 2 4 4
274 92 1 -8.1999999999999995e-01 -1.0139699853473122e+01 -9.9829941966574758e+00 -1.0934615149283685e+01 -4 0 7
51 17 2 4.0999999999999998e-01 -1.3102874063795875e+01 -1.2252229678594691e+01 -1.2979360059687675e+01 1 0 8
1538 513 2 4.0999999999999998e-01 -1.1784489031613070e+01 -1.0889766872207682e+01 -8.9351377044419067e+00 -1 5 7
558 186 2 4.0999999999999998e-01 -1.0515623784779311e+01 -7.7961746165431727e+00 -1.2634251787505749e+01 -4 5 2
611 204 2 4.0999999999999998e-01 -1.1655675141490416e+01 -1.3815543628752440e+01 -7.8171757090858645e+00 -2 7 5
276 92 2 4.0999999999999998e-01 -9.2870276062107759e+00 -9.4684653959246958e+00 -1.0843843235749796e+01 -4 0 7
1858 620 1 -8.1999999999999995e-01 -7.8048863518507883e+00 -8.3397095774550216e+00 -1.1028413309721431e+01 4 8 6
1860 620 2 4.0999999999999998e-01 -7.4658674859920167e+00 -7.7511792629078569e+00 -1.1762394012533372e+01 4 8 6
169 57 1 -8.1999999999999995e-01 -7.9261512208999720e+00 -5.1475386892239872e+00 -1.2988697787762510e+01 3 5 4
1539 513 2 4.0999999999999998e-01 -1.0250811943022253e+01 -1.0433862066453996e+01 -9.2617719420634064e+00 -1 5 7
2451 817 2 4.0999999999999998e-01 -1.4182454289355533e+01 -7.1295552695068976e+00 -8.8711355321458871e+00 -4 11 2
2449 817 1 -8.1999999999999995e-01 -1.3523080541515061e+01 -6.6707299166880851e+00 -9.4667317848388741e+00 -4 11 2
2450 817 2 4.0999999999999998e-01 -1.3577536859437773e+01 -7.0597617874027767e+00 -1.0386361102076417e+01 -4 11 2
321 107 2 4.0999999999999998e-01 -1.4688325252469197e+01 -5.3600445340466916e+00 -1.2397166954821973e+01 1 2 8
982 328 1 -8.1999999999999995e-01 -8.1603818152373595e+00 -1.1412025908924146e+01 -1.3013772794928741e+01 4 4 5
171 57 2 4.0999999999999998e-01 -7.8607256707836592e+00 -5.7254711244227963e+00 -1.3802173659229066e+01 3 5 4
2164 722 1 -8.1999999999999995e-01 -1.0627074301879928e+01 -7.6399070029049776e+00 -8.3066182656323910e+00 1 4 6
1468 490 1 -8.1999999999999995e-01 -1.0012493511027888e+01 -8.7430217782964466e+00 -1.4023901193754021e+01 2 7 6
2165 722 2 4.0999999999999998e-01 -1.1440005784742169e+01 -7.6604678180824282e+00 -8.8886397677696145e+00 1 4 6
49 17 1 -8.1999999999999995e-01 -1.3684957082034174e+01 -1.1806772324444001e+01 -1.3659636803538060e+01 1 0 8
60 20 2 4.0999999999999998e-01 -7.4421457487928766e+00 -1.1396836696941650e+01 -1.4653342374143159e+01 4 10 2
164 55 2 4.0999999999999998e-01 -8.0135993299540988e+00 -1.4590277206415895e+01 -1.3620850751422029e+01 -2 1 3
1052 351 2 4.0999999999999998e-01 -1.3595624784257478e+01 -5.6983949592141094e+00 -1.4317635500645801e+01 -1 8 4
802 268 1 -8.1999999999999995e-01 -1.3567435249350952e+01 -1.0012043402927372e+01 -8.5781493957111046e+00 1 9 4
1470 490 2 4.0999999999999998e-01 -1.0936307065279429e+01 -9.0956925504963362e+00 -1.4172969001161634e+01 2 7 6
170 57 2 4.0999999999999998e-01 -8.8736880506212810e+00 -5.1271235596246552e+00 -1.2669657764160515e+01 3 5 4
984 328 2 4.0999999999999998e-01 -8.5947737254679595e+00 -1.0512229558013313e+01 -1.3054998608611166e+01 4 4 5
803 268 2 4.0999999999999998e-01 -1.3911838591547673e+01 -1.0800862308425785e+01 -8.0690516921563322e+00 1 9 4
983 328 2 4.0999999999999998e-01 -7.8112622365563773e+00 -1.1571617819405008e+01 -1.2090368583965649e+01 4 4 5
1562 521 2 4.0999999999999998e-01 -7.7391846691180977e+00 -1.3671082637302685e+01 -1.0905722572629402e+01 2 4 4
804 268 2 4.0999999999999998e-01 -1.4083761583033178e+01 -9.9130687701845517e+00 -9.4288200186018312e+00 1 9 4
2399 800 2 4.0999999999999998e-01 -1.4721366659838333e+01 -9.3929630929776931e+00 -1.1440975305624903e+01 4 5 8
2565 855 2 4.0999999999999998e-01 -8.5143146329373831e+00 -5.0742179970005807e+00 -8.4688077742992718e+00 -1 9 4
1815 605 2 4.0999999999999998e-01 -1.3702180175677981e+01 -9.0492279755418892e+00 -1.4393310343994564e+01 -5 7 6
1224 408 2 4.0999999999999998e-01 -1.4077129542364155e+01 -1.4651172942085282e+01 -1.2982298300734595e+01 2 7 3
1694 565 2 4.0999999999999998e-01 -3.9631834145924234e+00 -5.7714789800012181e+00 -9.6309582116076875e+00 0 5 8
1865 622 2 4.0999999999999998e-01 -1.8573408942442793e+00 -1.4700578557215476e+01 -9.0944400597253772e+00 0 3 6
2534 845 2 4.0999999999999998e-01 -1.2629588829208522e+00 -1.3475690188527539e+01 -1.0491794926581015e+01 1 2 10
393 131 2 4.0999999999999998e-01 -3.0851049691420052e+00 -1.4367602054469472e+01 -1.4557134770953599e+01 -3 5 11
1866 622 2 4.0999999999999998e-01 -3.5535884252727534e-01 -1.4145518049165723e+01 -8.7740299615051001e+00 0 3 6
391 131 1 -8.1999999999999995e-01 -3.9971442515839506e+00 -1.3990613461094828e+01 -1.4395600383430729e+01 -3 5 11
2495 832 2 4.0999999999999998e-01 -1.9888435274882514e+00 -9.3748225910372582e+00 -1.3833507431160113e+01 1 12 5
665 222 2 4.0999999999999998e-01 -2.6721664510154621e+00 -8.8340847405969178e+00 -9.8075595419924007e+00 -1 1 4
392 131 2 4.0999999999999998e-01 -4.5581909352440366e+00 -1.4667781938777592e+01 -1.3919471336356342e+01 -3 5 11
2496 832 2 4.0999999999999998e-01 -9.2795628818316800e-01 -9.9577494587873119e+00 -1.2737414675940371e+01 1 12 5
2535 845 2 4.0999999999999998e-01 -1.1435388665436754e+00 -1.1851800352596117e+01 -1.0615994481998840e+01 1 2 10
476 159 2 4.0999999999999998e-01 -8.9860157371829352e-01 -5.6488058607596336e+00 -1.2295573771831197e+01 -2 7 3
2353 785 1 -8.1999999999999995e-01 -6.1768895335066141e+00 -8.0960621249583173e+00 -1.3656724380564476e+01 4 6 5
2533 845 1 -8.1999999999999995e-01 -1.5589996424821013e+00 -1.2672357583486342e+01 -1.1008559852673951e+01 1 2 10
1238 413 2 4.0999999999999998e-01 -6.9180271747738322e+00 -6.2911333356006960e+00 -9.3032515586395306e+00 0 9 4
1693 565 1 -8.1999999999999995e-01 -3.4242961394564446e+00 -5.3816222463886128e+00 -8.8842041824014260e+00 0 5 8
1859 620 2 4.0999999999999998e-01 -7.2961550316494046e+00 -8.1514055429104744e+00 -1.0188316041688301e+01 4 8 6
2494 832 1 -8.1999999999999995e-01 -1.1465639405754722e+00 -9.1824136132461724e+00 -1.3329946837881039e+01 1 12 5
878 293 2 4.0999999999999998e-01 -5.3390081599615069e+00 -8.3806071256649091e+00 -9.4037496553510636e+00 2 9 7
2082 694 2 4.0999999999999998e-01 -7.7865239827469068e-01 -7.2699967027918184e+00 -9.5481515125619083e+00 -5 3 5
2407 803 1 -8.1999999999999995e-01 -4.8026741195643616e+00 -9.6009644440243722e+00 -1.1996221225774921e+01 1 8 6
2355 785 2 4.0999999999999998e-01 -7.1130760252060901e+00 -8.3408678602537218e+00 -1.3909022558117030e+01 4 6 5
2080 694 1 -8.1999999999999995e-01 -1.3452726685747898e+00 -7.7314648350785316e+00 -1.0230806639755743e+01 -5 3 5
867 289 2 4.0999999999999998e-01 -3.9340902211034088e+00 -1.4384303887250839e+01 -7.9390532900460515e+00 -4 5 7
2417 806 2 4.0999999999999998e-01 -6.1486029612771276e-01 -9.2534680966936378e+00 -1.0471454853042729e+01 5 8 7
895 299 1 -8.1999999999999995e-01 -4.3649889001389415e+00 -6.0821805136189884e+00 -1.1476056348484772e+01 5 6 1
877 293 1 -8.1999999999999995e-01 -6.1660516272627319e+00 -7.9073676604444429e+00 -9.1003144546441561e+00 2 9 7
664 222 1 -8.1999999999999995e-01 -3.6250121515343761e+00 -9.0822984459680036e+00 -9.6329043906701415e+00 -1 1 4
475 159 1 -8.1999999999999995e-01 -1.7849589878004686e+00 -5.9441151020428489e+00 -1.2652214181449345e+01 -2 7 3
2354 785 2 4.0999999999999998e-01 -5.7694560552872147e+00 -8.8393873218680561e+00 -1.3126163345062876e+01 4 6 5
1949 650 2 4.0999999999999998e-01 -6.1163880197533089e+00 -1.1619534624588091e+01 -9.9797734228582939e+00 2 15 6
2416 806 1 -8.1999999999999995e-01 -1.4717577809001092e-01 -1.0136913225285749e+01 -1.0442726788285473e+01 5 8 7
1950 650 2 4.0999999999999998e-01 -5.5420082611022146e+00 -1.2348201713759622e+01 -1.1323587767775974e+01 2 15 6
2408 803 2 4.0999999999999998e-01 -4.4187497223381342e+00 -9.3788301595153563e+00 -1.1099957972066594e+01 1 8 6
666 222 2 4.0999999999999998e-01 -3.6713231144727843e+00 -9.6889843772397022e+00 -8.8392943751376425e+00 -1 1 4
1368 456 2 4.0999999999999998e-01 -3.9966758278815142e+00 -1.2773492720915756e+01 -1.3186046408871716e+01 5 3 8
1948 650 1 -8.1999999999999995e-01 -6.3521630907452344e+00 -1.2205677194305393e+01 -1.0754935590519866e+01 2 15 6
896 299 2 4.0999999999999998e-01 -3.4360067456802987e+00 -6.0492545733131831e+00 -1.1844753307926265e+01 5 6 1
2081 694 2 4.0999999999999998e-01 -1.4166031232361096e+00 -7.1584266925274491e+00 -1.1047243194439702e+01 -5 3 5
477 159 2 4.0999999999999998e-01 -1.6783362042720213e+00 -6.2504594292684121e+00 -1.3598160338390294e+01 -2 7 3
865 289 1 -8.1999999999999995e-01 -3.4483798472093792e+00 -1.4804384625853027e+01 -8.7056346583666411e+00 -4 5 7
2409 803 2 4.0999999999999998e-01 -4.3492014071923091e+00 -1.0414275349100951e+01 -1.2360799410346498e+01 1 8 6
1366 456 1 -8.1999999999999995e-01 -3.9567591069788435e+00 -1.2185212028611666e+01 -1.2378357193673967e+01 5 3 8
897 299 2 4.0999999999999998e-01 -4.9011764381562255e+00 -6.7569269300706427e+00 -1.1983254128174540e+01 5 6 1
1367 456 2 4.0999999999999998e-01 -3.0838663503521389e+00 -1.2321214322247689e+01 -1.1909751795220020e+01 5 3 8
879 293 2 4.0999999999999998e-01 -6.0892340858276377e+00 -7.6931490838827017e+00 -8.1265388797645564e+00 2 9 7
1246 416 1 -8.1999999999999995e-01 -4.2951132446781202e+00 -1.0888045191202886e+01 -7.7611359003668090e+00 0 6 2
1247 416 2 4.0999999999999998e-01 -4.2084449497975864e+00 -1.1878460075471786e+01 -7.8688223441338145e+00 0 6 2
1237 413 1 -8.1999999999999995e-01 -7.2401505271897300e+00 -5.3825010636260266e+00 -9.5690585147672209e+00 0 9 4
1239 413 2 4.0999999999999998e-01 -6.9794178191359277e+00 -5.2005893980724007e+00 -1.0517191411921274e+01 0 9 4
335 112 2 4.0999999999999998e-01 -2.8599218465205531e+00 -6.7797078805463755e+00 -7.6639823779424692e+00 -1 3 8
785 262 2 4.0999999999999998e-01 -1.1311686978784930e+01 -1.0483490982442785e+01 -2.7583800251135902e+00 -1 12 8
1283 428 2 4.0999999999999998e-01 -1.2067371397026481e+01 -8.7817277507565095e+00 -4.4857588493484286e+00 -4 8 5
544 182 1 -8.1999999999999995e-01 -1.0116220196234199e+01 -6.4040092993674094e+00 -5.2299689516801742e+00 -6 4 2
546 182 2 4.0999999999999998e-01 -9.9872022878396933e+00 -5.8871841829006133e+00 -4.3836383067535234e+00 -6 4 2
786 262 2 4.0999999999999998e-01 -1.1291648698058427e+01 -1.1897320945313593e+01 -1.9414417468476941e+00 -1 12 8
784 262 1 -8.1999999999999995e-01 -1.0729214866714786e+01 -1.1146879265349146e+01 -2.2886230491529567e+00 -1 12 8
1102 368 1 -8.1999999999999995e-01 -1.3810763505662466e+01 -1.1067499642862948e+01 -2.9382147473078817e+00 -2 10 2
1282 428 1 -8.1999999999999995e-01 -1.1851380052898676e+01 -9.0088018708417472e+00 -3.5361197187659439e+00 -4 8 5
1284 428 2 4.0999999999999998e-01 -1.1694484032229527e+01 -8.1670496476850758e+00 -3.0195287545545160e+00 -4 8 5
25 9 1 -8.1999999999999995e-01 -1.2333060696669978e+01 -8.9103347545522027e+00 -6.1833704901415203e+00 0 3 8
524 175 2 4.0999999999999998e-01 -1.0406079600261073e+01 -6.2585574421758903e+00 -2.1929271206472709e+00 -1 7 10
549 183 2 4.0999999999999998e-01 -1.1306085963550938e+01 -1.4764385758292244e+01 -5.9145506043271574e+00 -2 7 5
2507 836 2 4.0999999999999998e-01 -8.7081565627678224e+00 -1.2513959419277057e+01 -7.3350559274386384e-02 0 6 4
547 183 1 -8.1999999999999995e-01 -1.0818065154383241e+01 -1.3895520986181356e+01 -5.8312495396121626e+00 -2 7 5
2346 782 2 4.0999999999999998e-01 -8.4627639733677285e+00 -9.2114680260695874e+00 -3.4082877327497929e+00 2 5 8
1804 602 1 -8.1999999999999995e-01 -9.6283743351559217e+00 -1.0894308947831760e+01 -5.8069324184810149e+00 1 11 3
1103 368 2 4.0999999999999998e-01 -1.3421030101200015e+01 -1.0154540755804964e+01 -2.8172055924058235e+00 -2 10 2
930 310 2 4.0999999999999998e-01 -1.2695353164830873e+01 -1.0744690155657306e+01 -5.6343703286405482e+00 5 8 7
1350 450 2 4.0999999999999998e-01 -1.1012650099321206e+01 -8.3331612315402186e+00 -5.4928030633779912e-01 -1 1 8
548 183 2 4.0999999999999998e-01 -1.1478034086047050e+01 -1.3145629511258383e+01 -5.7850634365632754e+00 -2 7 5
2345 782 2 4.0999999999999998e-01 -9.4395478018147436e+00 -1.0105869841375705e+01 -2.4529639384747739e+00 2 5 8
523 175 1 -8.1999999999999995e-01 -1.1251975319568558e+01 -6.7394695760687142e+00 -1.9622469969106326e+00 -1 7 10
1806 602 2 4.0999999999999998e-01 -1.0364865984713356e+01 -1.1069315850233499e+01 -5.1534938293196308e+00 1 11 3
2049 683 2 4.0999999999999998e-01 -1.1458783194613023e+01 -1.3820634884762528e+01 -7.3549537588963965e-01 1 6 2
525 175 2 4.0999999999999998e-01 -1.2023426779757814e+01 -6.1063977845931898e+00 -2.0263728170391992e+00 -1 7 10
2047 683 1 -8.1999999999999995e-01 -1.0699837206155543e+01 -1.4358681233380924e+01 -1.1022875716801650e+00 1 6 2
27 9 2 4.0999999999999998e-01 -1.2855206271231397e+01 -9.0264936791546297e+00 -7.0282968179768055e+00 0 3 8
692 231 2 4.0999999999999998e-01 -9.3861307707399639e+00 -1.3398147612756013e+01 -4.8640078398887070e+00 2 6 4
635 212 2 4.0999999999999998e-01 -8.9936049220500287e+00 -9.2718867066124186e+00 -5.3523365098485147e+00 1 14 5
634 212 1 -8.1999999999999995e-01 -8.5379658286464739e+00 -8.5052991929604325e+00 -4.8998257492173227e+00 1 14 5
928 310 1 -8.1999999999999995e-01 -1.2388865096104240e+01 -1.1609096465781549e+01 -5.2357525089698793e+00 5 8 7
193 65 1 -8.1999999999999995e-01 -1.3425802815710959e+01 -5.0459960098421774e+00 -2.2625383083175041e+00 -6 6 8
1427 476 2 4.0999999999999998e-01 -1.3717053997962228e+01 -8.4331349643465430e+00 -3.4197271664393369e-01 -2 5 0
636 212 2 4.0999999999999998e-01 -9.0742076206847742e+00 -7.6720798196936624e+00 -5.0348055385825692e+00 1 14 5
2181 727 2 4.0999999999999998e-01 -1.3615928304925099e+01 -6.4600687977737987e+00 -6.0040066863006700e+00 1 2 4
1104 368 2 4.0999999999999998e-01 -1.4467936119988270e+01 -1.1249028200594671e+01 -2.2066404672122264e+00 -2 10 2
1318 440 1 -8.1999999999999995e-01 -1.4208156923564736e+01 -7.7990571188158286e+00 -2.2156793051492993e+00 0 5 3
2344 782 1 -8.1999999999999995e-01 -8.5303259939920988e+00 -9.6981560033718992e+00 -2.5373115226837228e+00 2 5 8
2530 844 1 -8.1999999999999995e-01 -9.0420613964631968e+00 -5.2997664561741420e+00 -2.7699299348226099e+00 -1 9 5
929 310 2 4.0999999999999998e-01 -1.2850136581209926e+01 -1.1754634233596972e+01 -4.3604943881359723e+00 5 8 7
1319 440 2 4.0999999999999998e-01 -1.3889676469301017e+01 -6.8517301284831875e+00 -2.2499014996239879e+00 0 5 3
2179 727 1 -8.1999999999999995e-01 -1.4373230289363141e+01 -5.8204588744486276e+00 -6.1360000002878188e+00 1 2 4
811 271 1 -8.1999999999999995e-01 -8.0141492254649762e+00 -1.4068284653459660e+01 -7.2641652969542161e+00 -1 9 5
545 182 2 4.0999999999999998e-01 -9.9215489453061139e+00 -5.8141647134010412e+00 -6.0136881926825421e+00 -6 4 2
1805 602 2 4.0999999999999998e-01 -1.0020194957716260e+01 -1.0691881547581735e+01 -6.7044451637737197e+00 1 11 3
812 271 2 4.0999999999999998e-01 -8.6644442838009113e+00 -1.3328554485755129e+01 -7.0911190382804810e+00 -1 9 5
2180 727 2 4.0999999999999998e-01 -1.4146718759225156e+01 -5.1831364577917309e+00 -6.8725745185613896e+00 1 2 4
26 9 2 4.0999999999999998e-01 -1.1395891846128810e+01 -8.6408969390768071e+00 -6.4050621932913945e+00 0 3 8
2531 844 2 4.0999999999999998e-01 -8.1729464270473962e+00 -5.0948371015392002e+00 -3.2201215652539279e+00 -1 9 5
3 1 2 4.0999999999999998e-01 -1.4373975362115900e+01 -1.3049002649852508e+01 -6.6798740489435353e+00 2 6 4
2508 836 2 4.0999999999999998e-01 -8.8522220727991652e+00 -1.3850415755879469e+01 -1.0006231460409829e+00 0 6 4
2289 763 2 4.0999999999999998e-01 -7.9920777840945885e+00 -5.5333599347676188e+00 -6.5305508737913680e+00 2 4 6
1320 440 2 4.0999999999999998e-01 -1.4736333130960539e+01 -8.0031233587856967e+00 -3.0399463944248151e+00 0 5 3
691 231 1 -8.1999999999999995e-01 -8.5859508993877220e+00 -1.3146140510725393e+01 -4.3197340216742326e+00 2 6 4
2506 836 1 -8.1999999999999995e-01 -8.2054343076128511e+00 -1.3235674424588366e+01 -5.4919420962922949e-01 0 6 4
693 231 2 4.0999999999999998e-01 -8.4555448068622070e+00 -1.2155394760323565e+01 -4.3577668395449258e+00 2 6 4
2543 848 2 4.0999999999999998e-01 -1.3415674795038166e+01 -1.2500115454886593e+01 -4.9411463448548609e-01 -5 3 7
1 1 1 -8.1999999999999995e-01 -1.4818444996317435e+01 -1.2256706456414221e+01 -7.0978966107869494e+00 2 6 4
1946 649 2 4.0999999999999998e-01 -1.4658001878042757e+01 -8.7157186387073118e+00 -5.2895013676018650e+00 -2 3 3
1915 639 1 -8.1999999999999995e-01 -1.3820150651742040e+01 -1.4760492243633896e+01 -5.8476718890010755e+00 5 8 6
194 65 2 4.0999999999999998e-01 -1.4416815496461325e+01 -4.9801339962206743e+00 -2.3790947720934756e+00 -6 6 8
905 302 2 4.0999999999999998e-01 -1.0888393852332456e+01 -5.1002663398388002e+00 -8.0995305712985299e-02 0 8 5
2542 848 1 -8.1999999999999995e-01 -1.2575550708052990e+01 -1.2760334220239178e+01 -1.8187013368544669e-02 -5 3 7
541 181 1 -8.1999999999999995e-01 -1.8256764578270257e-01 -6.9640297646039695e+00 -5.8081807473847107e+00 0 8 11
1464 488 2 4.0999999999999998e-01 -3.7312817773266929e+00 -1.0469626775845777e+01 -4.0965249253090441e-01 0 2 5
1463 488 2 4.0999999999999998e-01 -4.9415406972736164e+00 -9.3858010441226334e+00 -2.4442569005300818e-01 0 2 5
334 112 1 -8.1999999999999995e-01 -2.6960258676009321e+00 -7.3122327607432753e+00 -6.8335699928800047e+00 -1 3 8
836 279 2 4.0999999999999998e-01 -9.1568849649950579e-01 -1.1415203457804738e+01 -5.9789369891851862e-01 -9 4 9
1881 627 2 4.0999999999999998e-01 -5.8177081069249930e+00 -1.3150199512387985e+01 -8.1173991312500959e-01 5 10 -2
1074 358 2 4.0999999999999998e-01 -3.4827821498769218e-01 -1.0552352798222525e+01 -6.5883217155525049e+00 -6 8 1
1218 406 2 4.0999999999999998e-01 -2.8915641879300882e+00 -1.0576680766961006e+01 -6.6323161899986154e+00 -1 8 7
1332 444 2 4.0999999999999998e-01 -7.1178071520480213e+00 -9.9814564050735761e+00 -5.9359121145098470e+00 -1 5 1
1248 416 2 4.0999999999999998e-01 -5.1255922138556365e+00 -1.0680373092610363e+01 -7.2442158085492050e+00 0 6 2
336 112 2 4.0999999999999998e-01 -1.7708697484332401e+00 -7.1322247396569765e+00 -6.4993355405808959e+00 -1 3 8
2095 699 1 -8.1999999999999995e-01 -2.8959938800620755e+00 -1.1950345681082922e+01 -1.6004533647462189e+00 0 3 5
1880 627 2 4.0999999999999998e-01 -5.7393908331630517e+00 -1.4104566693630366e+01 -2.1345227566561782e+00 5 10 -2
939 313 2 4.0999999999999998e-01 -5.5272769212467097e+00 -5.6524099027762471e+00 -2.5608406486652022e+00 -2 12 4
1209 403 2 4.0999999999999998e-01 -8.2838937939142454e-01 -1.2297385726432971e+01 -3.9347708067067533e+00 2 1 7
938 313 2 4.0999999999999998e-01 -5.8137636380891191e+00 -5.0352420358450853e+00 -4.0453385348551301e+00 -2 12 4
1879 627 1 -8.1999999999999995e-01 -5.2966600005190116e+00 -1.3356627680693443e+01 -1.6399461965627626e+00 5 10 -2
1378 460 1 -8.1999999999999995e-01 -5.2270384330775546e+00 -1.3474442495597621e+01 -7.1894736385792708e+00 0 5 3
2254 752 1 -8.1999999999999995e-01 -6.0042714190475390e+00 -1.1108018083653700e+01 -3.1264551279093684e+00 3 11 4
2256 752 2 4.0999999999999998e-01 -6.8466986999454020e+00 -1.0602262378387952e+01 -2.9405604327247890e+00 3 11 4
1150 384 1 -8.1999999999999995e-01 -1.2537726888939993e+00 -5.1403222296532878e+00 -4.0519094343418445e+00 -6 0 5
2288 763 2 4.0999999999999998e-01 -6.5771664559667737e+00 -6.2144471519719442e+00 -6.0823869067676579e+00 2 4 6
1331 444 2 4.0999999999999998e-01 -6.1587579630073108e+00 -1.0718967614546258e+01 -4.8390954777941992e+00 -1 5 1
1588 530 1 -8.1999999999999995e-01 -2.6827384500860063e-01 -8.2224746412312442e+00 -3.0942609331707338e-01 3 2 2
2055 685 2 4.0999999999999998e-01 -4.4407991284170745e+00 -7.5301304833447462e+00 -6.2062783620002921e+00 -5 4 4
1217 406 2 4.0999999999999998e-01 -2.0934309704868479e+00 -9.3636931277079505e+00 -5.8850885348131090e+00 -1 8 7
2255 752 2 4.0999999999999998e-01 -5.9728392139421427e+00 -1.1925901944223106e+01 -2.5519053998962313e+00 3 11 4
1854 618 2 4.0999999999999998e-01 -3.0155347756962900e+00 -7.1712917631832749e+00 -2.0863151583789854e+00 1 6 6
1216 406 1 -8.1999999999999995e-01 -2.0573553628416512e+00 -1.0330275750994600e+01 -6.1389506119954689e+00 -1 8 7
2287 763 1 -8.1999999999999995e-01 -7.2153080758808557e+00 -5.4653582927387312e+00 -5.9044247170103006e+00 2 4 6
1568 523 2 4.0999999999999998e-01 -4.8191370469594066e+00 -6.2533724725011890e+00 -7.7294325954685306e-01 -1 5 8
2096 699 2 4.0999999999999998e-01 -2.5585252634521698e+00 -1.1892864754827329e+01 -2.5400491658800561e+00 0 3 5
1639 547 1 -8.1999999999999995e-01 -4.3123585106146987e+00 -1.2839499810154010e+01 -4.8417765462222739e+00 2 11 0
1207 403 1 -8.1999999999999995e-01 -1.7618826303799260e+00 -1.2110832792776300e+01 -4.2410675951790839e+00 2 1 7
881 294 2 4.0999999999999998e-01 -7.1190048860845527e+00 -9.2147426191646744e+00 -1.4733798041993360e+00 3 2 8
1208 403 2 4.0999999999999998e-01 -1.7497469875569305e+00 -1.1374955714683871e+01 -4.9180956919539174e+00 2 1 7
1152 384 2 4.0999999999999998e-01 -1.4905427289881690e+00 -5.6839733189844530e+00 -3.2466685811032079e+00 -6 0 5
1853 618 2 4.0999999999999998e-01 -1.6143550615530700e+00 -7.6466459712826911e+00 -1.3953457982012303e+00 1 6 6
880 294 1 -8.1999999999999995e-01 -6.6113648911701421e+00 -8.8652083264703130e+00 -6.8587943619295721e-01 3 2 8
2054 685 2 4.0999999999999998e-01 -5.6459080697882484e+00 -8.4904116681097062e+00 -5.6656515792899551e+00 -5 4 4
1567 523 1 -8.1999999999999995e-01 -4.7853438001694215e+00 -6.9248901029760006e+00 -1.5131807057486562e+00 -1 5 8
1852 618 1 -8.1999999999999995e-01 -2.0455433063922470e+00 -6.9551125041954149e+00 -1.9749038601032218e+00 1 6 6
1151 384 2 4.0999999999999998e-01 -1.1479438385819698e+00 -5.7438606808429196e+00 -4.8422074710207372e+00 -6 0 5
2097 699 2 4.0999999999999998e-01 -3.5633258890132105e+00 -1.2691856491472283e+01 -1.5307460536075723e+00 0 3 5
1640 547 2 4.0999999999999998e-01 -3.3857963989193678e+00 -1.2528580212757651e+01 -4.6300194539941231e+00 2 11 0
1569 523 2 4.0999999999999998e-01 -5.3879971712564103e+00 -7.6924231620709680e+00 -1.2947057527649033e+00 -1 5 8
1330 444 1 -8.1999999999999995e-01 -6.2442416691440670e+00 -1.0448235419110741e+01 -5.7979625243449018e+00 -1 5 1
1380 460 2 4.0999999999999998e-01 -4.8723007284518136e+00 -1.3352598400972173e+01 -6.2624652384409281e+00 0 5 3
1641 547 2 4.0999999999999998e-01 -4.9690522296642889e+00 -1.2338485331314104e+01 -4.2780680672174700e+00 2 11 0
2053 685 1 -8.1999999999999995e-01 -5.4329611947597307e+00 -7.6418163821415117e+00 -6.1499748658667919e+00 -5 4 4
2415 805 2 4.0999999999999998e-01 -2.2527992465465605e+00 -5.4547186192377612e+00 -9.2556313459025041e-01 7 3 2
590 197 2 4.0999999999999998e-01 -3.5027599836158014e+00 -1.4367487271819579e+01 -4.7189972677828784e+00 1 4 8
2299 767 1 -8.1999999999999995e-01 -4.8030162361904161e-02 -1.4581696255581615e+01 -6.1339418656506322e+00 -1 4 12
1590 530 2 4.0999999999999998e-01 -4.6250249387071385e-01 -9.1917062175476580e+00 -1.5811602139333303e-01 3 2 2
591 197 2 4.0999999999999998e-01 -1.8821028867124792e+00 -1.4552903819371199e+01 -4.6428651959515719e+00 1 4 8
1379 460 2 4.0999999999999998e-01 -6.2258070349289216e+00 -1.3515717137966401e+01 -7.1614189461016222e+00 0 5 3
937 313 1 -8.1999999999999995e-01 -6.0289021222528572e+00 -4.9545309756824505e+00 -3.0720808431822473e+00 -2 12 4
1738 580 1 -8.1999999999999995e-01 -7.5780203334929954e+00 -5.2200855969122184e+00 8.2342987494849318e-01 3 1 -2
1698 566 2 4.0999999999999998e-01 -1.1266289264931830e+01 -1.1650851104386929e+01 4.3925452927976494e-01 -5 8 6
1696 566 1 -8.1999999999999995e-01 -1.0483494257714533e+01 -1.1248284379404883e+01 9.1380842491167336e-01 -5 8 6
1428 476 2 4.0999999999999998e-01 -1.3449132564468082e+01 -8.8843880405132616e+00 1.2044081012380552e+00 -2 5 0
1554 518 2 4.0999999999999998e-01 -9.0805304472711050e+00 -8.1844288226681261e+00 1.1959187095063406e+00 -1 8 6
1697 566 2 4.0999999999999998e-01 -1.0556837496122579e+01 -1.0251215469754740e+01 8.9136417351263120e-01 -5 8 6
458 153 2 4.0999999999999998e-01 -1.3749360839574727e+01 -1.1292535973417428e+01 5.4117887459390381e+00 2 1 4
144 48 2 4.0999999999999998e-01 -7.5576846389499233e+00 -8.8423379535841775e+00 2.6670800831312818e+00 -1 3 4
28 10 1 -8.1999999999999995e-01 -1.1599405678553214e+01 -1.0350707615783644e+01 4.3446664514366731e+00 -1 10 2
457 153 1 -8.1999999999999995e-01 -1.3951213789843266e+01 -1.1614345713531062e+01 4.4867356095896760e+00 2 1 4
1426 476 1 -8.1999999999999995e-01 -1.4060253768802156e+01 -8.9836062205751315e+00 4.1909541254050175e-01 -2 5 0
519 173 2 4.0999999999999998e-01 -1.0670885605454956e+01 -1.4513881861164153e+01 3.8069174313997678e+00 5 5 3
661 221 1 -8.1999999999999995e-01 -1.3033979588759003e+01 -1.3997406041074013e+01 6.0909353934261325e+00 5 7 8
29 10 2 4.0999999999999998e-01 -1.2119809655015901e+01 -1.1157852193159030e+01 4.0658713412239571e+00 -1 10 2
143 48 2 4.0999999999999998e-01 -7.7903278948934886e+00 -9.6702525757785427e+00 4.0552944709961558e+00 -1 3 4
2065 689 1 -8.1999999999999995e-01 -1.2491917378606599e+01 -8.2812533575583736e+00 2.8114945680990644e+00 0 8 3
614 205 2 4.0999999999999998e-01 -1.0034840779672745e+01 -1.0386220916205719e+01 5.0728032789105697e+00 3 5 3
2066 689 2 4.0999999999999998e-01 -1.1640992834357803e+01 -7.8130551671507469e+00 2.5732777204751471e+00 0 8 3
613 205 1 -8.1999999999999995e-01 -9.0961812777335584e+00 -1.0189871777432529e+01 5.3563429904718696e+00 3 5 3
30 10 2 4.0999999999999998e-01 -1.1656165612399233e+01 -9.6541008708078380e+00 3.6294414843684528e+00 -1 10 2
2067 689 2 4.0999999999999998e-01 -1.3133592442473120e+01 -7.6249872557388656e+00 3.2084798234277194e+00 0 8 3
2352 784 2 4.0999999999999998e-01 -9.1691392232194300e+00 -1.3231707622389802e+01 3.4060400418747676e+00 -1 4 5
615 205 2 4.0999999999999998e-01 -8.6551568976944910e+00 -1.1035378991369960e+01 5.6574151598731284e+00 3 5 3
1348 450 1 -8.1999999999999995e-01 -1.0908346633486300e+01 -8.2673389827241657e+00 4.4309947334144795e-01 -1 1 8
166 56 1 -8.1999999999999995e-01 -1.3666601680692738e+01 -1.0732324346221361e+01 7.0026476520297471e+00 -4 4 4
2379 793 2 4.0999999999999998e-01 -8.2635509469936537e+00 -1.3575030352994734e+01 5.6443470597356153e+00 -1 6 5
2350 784 1 -8.1999999999999995e-01 -9.8702428759762562e+00 -1.3420564040733817e+01 2.7184236437248579e+00 -1 4 5
2351 784 2 4.0999999999999998e-01 -9.9761879051964080e+00 -1.2624176332024607e+01 2.1229644407631802e+00 -1 4 5
2497 833 1 -8.1999999999999995e-01 -1.1464033764753955e+01 -5.2757110781478040e+00 6.9751338929235942e+00 4 7 6
2377 793 1 -8.1999999999999995e-01 -8.0571177327486545e+00 -1.2816065378160626e+01 5.0267817787049651e+00 -1 6 5
2544 848 2 4.0999999999999998e-01 -1.2792884017068289e+01 -1.3024073578523659e+01 9.2161991562883827e-01 -5 3 7
1552 518 1 -8.1999999999999995e-01 -8.0991137064636796e+00 -8.0025262941335455e+00 1.2572540817038949e+00 -1 8 6
1553 518 2 4.0999999999999998e-01 -7.9333519700192596e+00 -7.0237527289617709e+00 1.1366109704864691e+00 -1 8 6
518 173 2 4.0999999999999998e-01 -1.1718508796490873e+01 -1.4677840754384716e+01 5.0488143371263803e+00 5 5 3
507 169 2 4.0999999999999998e-01 -8.7440153732794261e+00 -8.8101669123363529e+00 6.7515330103803066e+00 -4 4 4