LAMMPS data file via write_data, version 15 May 2015, timestep = 1009000

2593 atoms
6 atom types
1728 bonds
4 bond types
864 angles
3 angle types
0 dihedrals
3 dihedral types
0 impropers
1 improper types

-1.4970939945582986e+01 1.4970939945582986e+01 xlo xhi
-1.4970939945582986e+01 1.4970939945582986e+01 ylo yhi
-1.4970939945582986e+01 1.4970939945582986e+01 zlo zhi

Masses

1 15.9994
2 1.00794
3 12.0107
4 1.00794
5 12.0107
6 12.0107

Bond Coeffs # harmonic

1 1000 1
2 469 1.4
3 367 1.08
4 469 0.7

Angle Coeffs # harmonic

1 100 109.47
2 35 120
3 63 120

Dihedral Coeffs # opls

1 0 7.25 0 0
2 0 7.25 0 0
3 0 7.25 0 0

Improper Coeffs # cvff

1 2.5 -1 2

Atoms # full

1198 400 1 -8.1999999999999995e-01 -1.1431054530873045e+01 -1.1093204686744265e+01 -1.1285330516146436e+01 -2 2 -1
2186 729 2 4.0999999999999998e-01 -9.2598551148428569e+00 -1.7473141883351087e+00 -6.2767090130525656e+00 -2 0 1
1496 499 2 4.0999999999999998e-01 -8.8013515117774830e+00 -9.8943387369777227e+00 -1.2916540832625884e+01 -1 3 1
1200 400 2 4.0999999999999998e-01 -1.0907197109277774e+01 -1.0889830715312817e+01 -1.2112483746222100e+01 -2 2 -1
1199 400 2 4.0999999999999998e-01 -1.1055432148336111e+01 -1.1908664356867909e+01 -1.0844985856207884e+01 -2 2 -1
1495 499 1 -8.1999999999999995e-01 -9.7428447017005180e+00 -9.7804159100714081e+00 -1.3233687673810994e+01 -1 3 1
1497 499 2 4.0999999999999998e-01 -9.8551121439329030e+00 -1.0238002423996198e+01 -1.4115719777791135e+01 -1 3 1
1108 370 1 -8.1999999999999995e-01 -1.0862656753155015e+01 -1.2043983733057599e+01 -7.4320467450438406e+00 -3 2 -2
1110 370 2 4.0999999999999998e-01 -1.0257619832097919e+01 -1.2295403853839227e+01 -8.1874858146164051e+00 -3 2 -2
1109 370 2 4.0999999999999998e-01 -1.0313700625161562e+01 -1.1787663819045324e+01 -6.6364855719603817e+00 -3 2 -2
2127 709 2 4.0999999999999998e-01 -1.2825872367729266e+01 -6.4918292989965209e-02 -1.3426314308333128e+01 -3 1 0
1670 557 2 4.0999999999999998e-01 -1.3668645696175410e+01 -1.4887569312313168e+01 -5.0349047499984749e+00 -2 2 -1
1285 429 1 -8.1999999999999995e-01 -1.2920621135504934e+01 -1.3148547977815483e+01 -5.9683401207682465e+00 -4 1 1
1287 429 2 4.0999999999999998e-01 -1.2210938913022041e+01 -1.2891464007346409e+01 -6.6242585156755158e+00 -4 1 1
45 15 2 4.0999999999999998e-01 -1.1755282318987957e+01 -8.2102778165889010e+00 -7.4186226402641688e+00 -4 0 2
1516 506 1 -8.1999999999999995e-01 -1.4019518968205938e+01 -1.0039420619547926e+01 -6.8367985365268922e+00 -3 2 1
43 15 1 -8.1999999999999995e-01 -1.1195828192179743e+01 -9.0035583980370095e+00 -7.6588036861419226e+00 -4 0 2
1943 648 2 4.0999999999999998e-01 -9.3317334794956430e+00 -1.4288631697551416e+01 -1.0847362294616435e+01 -4 1 1
2084 695 2 4.0999999999999998e-01 -7.5163670189058243e+00 -2.6734152942282599e+00 -5.1771180748315686e+00 -3 0 0
1942 648 1 -8.1999999999999995e-01 -1.0097977508501961e+01 -1.3852289133286892e+01 -1.0375721317677549e+01 -4 1 1
2207 736 2 4.0999999999999998e-01 -1.4953020456287577e+01 -5.6360296693258771e+00 -1.2390521046278472e+01 -3 1 -2
1275 425 2 4.0999999999999998e-01 -1.3633940551173133e+01 -7.9795488382478350e+00 -7.5405740473613427e+00 -2 1 2
746 249 2 4.0999999999999998e-01 -1.3319396158640679e+01 -1.0386708175422902e+01 -1.1619378005749727e+01 -2 2 -1
1944 648 2 4.0999999999999998e-01 -1.0180807097128017e+01 -1.4230473511956738e+01 -9.4537203294870142e+00 -4 1 1
950 317 2 4.0999999999999998e-01 -1.1678584596004660e+01 -1.4730442462349048e+01 -1.0639456962272206e+01 -2 0 -1
44 15 2 4.0999999999999998e-01 -1.1766599757015619e+01 -9.8246316454222882e+00 -7.6641424864285819e+00 -4 0 2
745 249 1 -8.1999999999999995e-01 -1.4147701029276190e+01 -9.8267749125804063e+00 -1.1638243883515781e+01 -2 2 -1
1735 579 1 -8.1999999999999995e-01 -9.4310582382122128e+00 -1.1636058894658925e+01 -5.1711393299138351e+00 -3 1 1
1566 522 2 4.0999999999999998e-01 -9.5170308207647274e+00 -9.2570745210042702e+00 -7.6347837071049316e+00 -2 1 2
1258 420 1 -8.1999999999999995e-01 -1.4074635832087381e+01 -1.3937881701090864e+01 -1.4906074610065982e+01 0 1 -1
1273 425 1 -8.1999999999999995e-01 -1.3192439386708072e+01 -7.0899405621404972e+00 -7.4237673369685941e+00 -2 1 2
1286 429 2 4.0999999999999998e-01 -1.2868503851265601e+01 -1.2549792620926182e+01 -5.1691243651344525e+00 -4 1 1
2295 765 2 4.0999999999999998e-01 -1.0685254683962732e+01 -8.7064728387207388e+00 -9.5128978955328520e+00 -1 1 1
840 280 2 4.0999999999999998e-01 -1.2126957808459649e+01 -8.2450117981567743e+00 -1.3861894955764463e+01 -5 3 0
882 294 2 4.0999999999999998e-01 -9.9454780460405310e+00 -4.4390305019655916e+00 -6.6546664076773290e+00 -3 -1 -1
838 280 1 -8.1999999999999995e-01 -1.2768881094075812e+01 -8.8723270685667508e+00 -1.4302780412036885e+01 -5 3 0
1564 522 1 -8.1999999999999995e-01 -8.5345611295134312e+00 -9.4433908487862723e+00 -7.6378715512050528e+00 -2 1 2
700 234 1 -8.1999999999999995e-01 -1.0088627337873717e+01 -7.1537553816166959e+00 -1.4202891313008672e+01 -3 2 1
1517 506 2 4.0999999999999998e-01 -1.4612914998822218e+01 -9.9668511835770310e+00 -7.6384124244259821e+00 -3 2 1
179 60 2 4.0999999999999998e-01 -7.7411878955265925e+00 -6.0629889488550379e+00 -6.9071031643255267e+00 -2 3 -1
2128 710 1 -8.1999999999999995e-01 -1.0047266794998624e+01 -1.4559322790727521e+01 -1.4967674169813041e+01 -1 2 -1
2185 729 1 -8.1999999999999995e-01 -9.2932948329715259e+00 -2.0137517751933931e+00 -5.3134526856302600e+00 -2 0 1
1565 522 2 4.0999999999999998e-01 -8.0314048830766467e+00 -8.5793422812906570e+00 -7.6229097332667690e+00 -2 1 2
2244 748 2 4.0999999999999998e-01 -1.4357630447608202e+01 -1.2966018549180351e+01 -6.8771591689242548e+00 -3 1 -1
2293 765 1 -8.1999999999999995e-01 -1.0182257854315207e+01 -8.5322276811019115e+00 -1.0359421824216666e+01 -1 1 1
558 186 2 4.0999999999999998e-01 -1.0359610639339259e+01 -6.2293179734281594e+00 -5.1603363192273832e+00 -5 -1 1
870 290 2 4.0999999999999998e-01 -1.4695813103353437e+01 -8.0820892487186171e+00 -1.1513716809621718e+01 -3 0 1
701 234 2 4.0999999999999998e-01 -1.0963423569278024e+01 -6.7927529946495149e+00 -1.3879814255422767e+01 -3 2 1
2506 836 1 -8.1999999999999995e-01 -7.7404902487506320e+00 -7.5126516866883302e+00 -1.1644044879121804e+01 -2 3 0
1595 532 2 4.0999999999999998e-01 -1.4831568823883270e+01 -1.4832489464613319e+01 -7.3918737852532788e+00 -1 3 0
2422 808 1 -8.1999999999999995e-01 -9.4119832658266738e+00 -1.1643670337142833e+00 -1.3960341541300519e+01 0 2 0
2367 789 2 4.0999999999999998e-01 -7.5935904046447504e+00 -1.1031972155203899e+01 -7.5858333103496784e+00 -3 2 0
702 234 2 4.0999999999999998e-01 -9.8629785197784550e+00 -7.9849494396168721e+00 -1.3694787930405443e+01 -3 2 1
2424 808 2 4.0999999999999998e-01 -8.9022699224889816e+00 -1.8272518807908984e+00 -1.3411938470648558e+01 0 2 0
934 312 1 -8.1999999999999995e-01 -1.2171177384915879e+01 -4.1517040646790537e+00 -1.1487091614162940e+01 -3 -1 2
880 294 1 -8.1999999999999995e-01 -9.1085178844166386e+00 -4.9659736563611165e+00 -6.5070230863871945e+00 -3 -1 -1
1103 368 2 4.0999999999999998e-01 -1.2898315132567406e+01 -1.6757012188403717e+00 -1.4511330031843389e+01 -2 1 0
271 91 1 -8.1999999999999995e-01 -1.3710925832185540e+01 -4.3262574679562693e+00 -5.7761311590983464e+00 -2 0 0
951 317 2 4.0999999999999998e-01 -1.3295819326718837e+01 -1.4510188203469832e+01 -1.0690313359423648e+01 -2 0 -1
1104 368 2 4.0999999999999998e-01 -1.2661038697771041e+01 -2.4661917785716216e+00 -1.3102298119864944e+01 -2 1 0
2417 806 2 4.0999999999999998e-01 -9.4692997632068661e+00 -2.9973507508590558e-01 -8.6641474874920892e+00 2 2 0
1998 666 2 4.0999999999999998e-01 -1.2509451328526820e+01 -8.6043866509924527e-01 -9.5995703699769699e+00 -2 2 -1
176 59 2 4.0999999999999998e-01 -1.2764595272614855e+01 -6.4309260075381278e+00 -8.9342332097710724e+00 -2 0 -1
1102 368 1 -8.1999999999999995e-01 -1.2211951798434125e+01 -1.9745149733145517e+00 -1.3848317459653888e+01 -2 1 0
2418 806 2 4.0999999999999998e-01 -8.1962130544251259e+00 -1.1062113378211720e+00 -8.0353449254921276e+00 2 2 0
2508 836 2 4.0999999999999998e-01 -8.5117716098448888e+00 -7.6255874061685720e+00 -1.1017673893326478e+01 -2 3 0
2564 855 2 4.0999999999999998e-01 -1.2241820872087942e+01 -5.3202024999819741e+00 -1.2881149537067200e+01 -3 2 2
2416 806 1 -8.1999999999999995e-01 -9.0702383005835063e+00 -6.6843186417502132e-01 -7.8246341763602647e+00 2 2 0
839 280 2 4.0999999999999998e-01 -1.3412487388251218e+01 -9.2231132051853439e+00 -1.3622567193558458e+01 -5 3 0
1397 466 2 4.0999999999999998e-01 -1.2790674681613815e+01 -9.5949908250200338e+00 -5.2888707311497853e+00 -1 0 2
175 59 1 -8.1999999999999995e-01 -1.3101441663061930e+01 -5.9153771481387913e+00 -9.7220872691022144e+00 -2 0 -1
2563 855 1 -8.1999999999999995e-01 -1.2410361838360526e+01 -5.9919089057754213e+00 -1.3602519340440226e+01 -3 2 2
1274 425 2 4.0999999999999998e-01 -1.3636693642439944e+01 -6.5926440282710157e+00 -6.6785799489437192e+00 -2 1 2
311 104 2 4.0999999999999998e-01 -1.1576522920316604e+01 -2.8252318023549403e+00 -7.3386516872821943e+00 -2 3 1
881 294 2 4.0999999999999998e-01 -8.4965312638788788e+00 -4.4568869486852378e+00 -5.9018179785444929e+00 -3 -1 -1
2565 855 2 4.0999999999999998e-01 -1.2396679366483870e+01 -5.5359001605957125e+00 -1.4492372587911046e+01 -3 2 2
936 312 2 4.0999999999999998e-01 -1.1846586666217451e+01 -3.3012935757143396e+00 -1.1073071302920260e+01 -3 -1 2
471 157 2 4.0999999999999998e-01 -1.0732840124615763e+01 -5.1703454176982717e+00 -1.0954443981002354e+01 -2 2 3
1996 666 1 -8.1999999999999995e-01 -1.2773262170561580e+01 -1.6835552867932950e+00 -1.0102415123611335e+01 -2 2 -1
469 157 1 -8.1999999999999995e-01 -9.8131355278416486e+00 -5.5409061283802998e+00 -1.0824835653085429e+01 -2 2 3
1518 506 2 4.0999999999999998e-01 -1.4220219414088836e+01 -1.0889185722580784e+01 -6.3493679239791962e+00 -3 2 1
5 2 2 4.0999999999999998e-01 -8.0623916910237412e+00 -3.1244053327786983e+00 -1.2131439720302923e+01 -3 2 0
470 157 2 4.0999999999999998e-01 -9.8754408814071102e+00 -6.5058590113613288e+00 -1.0569974916732328e+01 -2 2 3
273 91 2 4.0999999999999998e-01 -1.4289593009185065e+01 -4.3362529686010216e+00 -6.5916153158165187e+00 -2 0 0
1997 666 2 4.0999999999999998e-01 -1.3765840776096351e+01 -1.6965732506442670e+00 -1.0223197969533080e+01 -2 2 -1
310 104 1 -8.1999999999999995e-01 -1.1431740378253894e+01 -3.3146612888032454e+00 -6.4787290553120087e+00 -2 3 1
312 104 2 4.0999999999999998e-01 -1.2247228839347370e+01 -3.8498411823912466e+00 -6.2584314867680622e+00 -2 3 1
2423 808 2 4.0999999999999998e-01 -1.0341428702716819e+01 -1.5010361937707088e+00 -1.4111189246675027e+01 0 2 0
2259 753 2 4.0999999999999998e-01 -1.4528627699310981e+01 -4.9661716089345198e+00 -8.7935884875807098e+00 -1 1 0
6 2 2 4.0999999999999998e-01 -8.9718684169125442e+00 -4.0000792616637248e+00 -1.1095778648297344e+01 -3 2 0
1259 420 2 4.0999999999999998e-01 -1.3528609756972930e+01 -1.4444504301935122e+01 -1.4238872123617904e+01 0 1 -1
2294 765 2 4.0999999999999998e-01 -1.0442352131211138e+01 -9.2099354874920536e+00 -1.1047195820627280e+01 -1 1 1
177 59 2 4.0999999999999998e-01 -1.3664687682234895e+01 -6.5114017876006951e+00 -1.0294345006824114e+01 -2 0 -1
4 2 1 -8.1999999999999995e-01 -8.4091548391584823e+00 -3.1794361159719919e+00 -1.1195118789261864e+01 -3 2 0
935 312 2 4.0999999999999998e-01 -1.2705753258713614e+01 -4.6660533679723315e+00 -1.0816536953452610e+01 -3 -1 2
2301 767 2 4.0999999999999998e-01 -1.3960793124729298e+01 -2.5244519272977257e+00 -5.0571367582196558e+00 -1 1 2
1730 577 2 4.0999999999999998e-01 -7.5324722061491647e+00 -6.1809387109597047e+00 -1.2784343642981067e+01 0 3 0
2451 817 2 4.0999999999999998e-01 -1.0634025256925792e+01 -1.4550598329029242e+01 -7.0997810724098320e+00 -3 4 -3
747 249 2 4.0999999999999998e-01 -1.4943660852233981e+01 -1.0413935543251924e+01 -1.1785418483766705e+01 -2 2 -1
272 91 2 4.0999999999999998e-01 -1.4149191533133065e+01 -4.8559010088628636e+00 -5.0499280355076053e+00 -2 0 0
1871 624 2 4.0999999999999998e-01 -9.4196721476676295e+00 -8.6365525897271844e+00 -1.2882598328442256e+00 -3 0 1
340 114 1 -8.1999999999999995e-01 -1.0405772161576998e+01 -9.2137630296509929e+00 1.3043363883828238e+00 -3 3 0
341 114 2 4.0999999999999998e-01 -9.7874111260417571e+00 -9.4369063608027446e+00 5.5080663812560005e-01 -3 3 0
342 114 2 4.0999999999999998e-01 -1.1329073799202302e+01 -9.5266302808431806e+00 1.0816297724147343e+00 -3 3 0
1804 602 1 -8.1999999999999995e-01 -1.4514977466691366e+01 -1.3697827380641712e+01 1.6142180748245138e-01 0 2 -2
1353 451 2 4.0999999999999998e-01 -1.2769775618396331e+01 -1.4128233562535291e+01 -1.9261459415769711e+00 0 0 -1
2570 857 2 4.0999999999999998e-01 -1.4544060398842980e+01 -5.1157452253990243e-01 -1.9402963010772396e+00 -2 2 1
389 130 2 4.0999999999999998e-01 -1.0556036196778479e+01 -1.2908555195450280e+01 2.1180685642049095e+00 -4 1 0
255 85 2 4.0999999999999998e-01 -1.4947988918812676e+01 -4.3111785799880114e+00 -2.6092894391641899e+00 -3 0 0
1351 451 1 -8.1999999999999995e-01 -1.2660859253234014e+01 -1.3167503761335299e+01 -1.6709880705361506e+00 0 0 -1
2013 671 2 4.0999999999999998e-01 -1.2768730359972242e+01 -9.0136739841556022e+00 -2.7058056153437509e+00 -2 1 0
2103 701 2 4.0999999999999998e-01 -1.2014622674014808e+01 -1.0703923283794923e+01 -3.8381032588448196e+00 -1 2 1
388 130 1 -8.1999999999999995e-01 -1.0889275943882858e+01 -1.3515318237607172e+01 1.3964316323733694e+00 -4 1 0
390 130 2 4.0999999999999998e-01 -1.1354059019353009e+01 -1.2975074761124715e+01 6.9494487404696947e-01 -4 1 0
1352 451 2 4.0999999999999998e-01 -1.2607035347424373e+01 -1.2607170779566303e+01 -2.4974866800814119e+00 0 0 -1
1870 624 1 -8.1999999999999995e-01 -9.6018827531893614e+00 -9.5175142478775463e+00 -1.7249243258505853e+00 -3 0 1
2074 692 1 -8.1999999999999995e-01 -1.1803654179153838e+01 -1.3123456031511701e+01 4.3364313356346447e+00 -1 2 0
734 245 2 4.0999999999999998e-01 -1.2968323216462029e+01 -2.4008604215020455e+00 3.9615498056674010e+00 -3 2 -2
1396 466 1 -8.1999999999999995e-01 -1.2406184524789627e+01 -9.1451983762803746e+00 -4.4827540571786901e+00 -1 0 2
1280 427 2 4.0999999999999998e-01 -1.0608415736641469e+01 -1.0800940585031340e+01 2.8715955766716998e+00 -1 0 2
1805 602 2 4.0999999999999998e-01 -1.3760710967763725e+01 -1.3637978424993289e+01 -4.9239018653328515e-01 0 2 -2
2011 671 1 -8.1999999999999995e-01 -1.2552628917358357e+01 -9.1526309431701112e+00 -1.7393889580659216e+00 -2 1 0
1856 619 2 4.0999999999999998e-01 -1.3258662774901149e+01 -1.4310431937583093e+01 3.4055819771339468e+00 0 2 -2
2012 671 2 4.0999999999999998e-01 -1.1713629776768657e+01 -9.6908391264699834e+00 -1.6594994742716462e+00 -2 1 0
245 82 2 4.0999999999999998e-01 -8.8082920496295252e+00 -1.3152376221205248e+01 -1.8166842289610337e+00 -3 1 0
246 82 2 4.0999999999999998e-01 -8.7859379943443408e+00 -1.1520043045730130e+01 -1.8558636280628562e+00 -3 1 0
2532 844 2 4.0999999999999998e-01 -1.4912451611988510e+01 -6.5451356738301563e+00 -4.3576652453775147e+00 -2 3 1
1855 619 1 -8.1999999999999995e-01 -1.4056428761791317e+01 -1.4650568750897662e+01 2.9077403260995940e+00 0 2 -2
1872 624 2 4.0999999999999998e-01 -9.2237136508574125e+00 -9.5152231666507312e+00 -2.6506418928348090e+00 -3 0 1
583 195 1 -8.1999999999999995e-01 -7.7928824864021360e+00 -4.6079280218241667e+00 2.5465649505189685e+00 -2 0 -2
1806 602 2 4.0999999999999998e-01 -1.4191831513361418e+01 -1.3428590538568418e+01 1.0686473907884295e+00 0 2 -2
567 189 2 4.0999999999999998e-01 -1.3694458086245946e+01 -1.8112121624294275e-01 -4.8605456747569242e+00 -3 1 0
2101 701 1 -8.1999999999999995e-01 -1.1801830366865474e+01 -1.1677207019217198e+01 -3.7520321880717376e+00 -1 2 1
896 299 2 4.0999999999999998e-01 -8.0179282656876456e+00 -1.4075444447148925e+01 -1.2210981115212149e-01 -1 1 1
920 307 2 4.0999999999999998e-01 -1.3942087465697426e+01 -9.5666386587102927e+00 -1.0021051749757603e+00 -2 0 2
977 326 2 4.0999999999999998e-01 -1.4560809039057132e+01 -8.7939205318018629e+00 3.3714753790797314e+00 -1 1 1
1507 503 1 -8.1999999999999995e-01 -1.2714756012317531e+01 -1.0633892994439559e+01 1.1055331935078652e+00 -3 1 0
2492 831 2 4.0999999999999998e-01 -7.8837652842061798e+00 -1.3532782466970215e+01 -3.2496269518558396e+00 -1 4 -1
244 82 1 -8.1999999999999995e-01 -8.2513635171027939e+00 -1.2348195896017479e+01 -2.0242767541552986e+00 -3 1 0
2299 767 1 -8.1999999999999995e-01 -1.4354932260334525e+01 -1.7894582803327399e+00 -4.5054043836273685e+00 -1 1 2
976 326 1 -8.1999999999999995e-01 -1.3780222231102270e+01 -9.3669541291305691e+00 3.6210488338722282e+00 -1 1 1
2331 777 2 4.0999999999999998e-01 -9.9611299501624337e+00 -7.7809227609603759e+00 2.1639913115326248e+00 -2 0 -1
1405 469 1 -8.1999999999999995e-01 -1.1586816281769787e+01 -3.5335324952014027e+00 -3.7726755069936591e+00 -1 2 -1
1539 513 2 4.0999999999999998e-01 -1.1491137347404244e+01 -2.6462914786687719e-02 -1.1804458909340294e+00 -3 0 -1
2187 729 2 4.0999999999999998e-01 -1.0183612608735666e+01 -1.7677777389566938e+00 -4.9303065133541022e+00 -2 0 1
723 241 2 4.0999999999999998e-01 -1.0266850587761242e+01 -1.4498957439270464e+01 -1.6582859189002086e-01 -2 1 -3
919 307 1 -8.1999999999999995e-01 -1.4894729081741913e+01 -9.5376553883755797e+00 -6.9944381835876257e-01 -2 0 2
2075 692 2 4.0999999999999998e-01 -1.2449444710784354e+01 -1.2609547822817898e+01 4.9010753662206827e+00 -1 2 0
1508 503 2 4.0999999999999998e-01 -1.3530520211310918e+01 -1.0985594704262482e+01 6.4639847850641985e-01 -3 1 0
1279 427 1 -8.1999999999999995e-01 -1.0063901389736619e+01 -1.1608808686820097e+01 3.0970363864210722e+00 -1 0 2
721 241 1 -8.1999999999999995e-01 -9.6862272086238832e+00 -1.4719758187718748e+01 -9.4946991149431881e-01 -2 1 -3
1509 503 2 4.0999999999999998e-01 -1.2977348877223566e+01 -1.0206360151111550e+01 1.9705364386632755e+00 -3 1 0
1281 427 2 4.0999999999999998e-01 -1.0619508104568840e+01 -1.2247236059359114e+01 3.6296541799618982e+00 -1 0 2
2491 831 1 -8.1999999999999995e-01 -7.7773019568005646e+00 -1.3836696851129686e+01 -4.1963431366159636e+00 -1 4 -1
2580 860 2 4.0999999999999998e-01 -1.3878236975925772e+01 -1.0698485940917145e+01 4.9083558444254383e+00 -3 1 0
2102 701 2 4.0999999999999998e-01 -1.1099168360523045e+01 -1.1925015096355565e+01 -4.4189858833867568e+00 -1 2 1
2569 857 1 -8.1999999999999995e-01 -1.4514165364100037e+01 -1.4950808392956851e+00 -1.7619934604084442e+00 -2 2 1
1406 469 2 4.0999999999999998e-01 -1.2541344720838385e+01 -3.5318407059326322e+00 -3.4746105579570923e+00 -1 2 -1
1324 442 1 -8.1999999999999995e-01 -8.5108905674940907e+00 -1.4662812693908052e+00 -5.8872294131985825e-01 -1 -1 1
2330 777 2 4.0999999999999998e-01 -1.0226583668312275e+01 -6.9454257163217381e+00 3.5416797392288846e+00 -2 0 -1
2586 862 2 4.0999999999999998e-01 -1.2350095636525614e+01 -1.8442528900568256e-01 1.1571461271764125e+00 -1 1 -1
2329 777 1 -8.1999999999999995e-01 -9.8729140588120643e+00 -6.8892763134876649e+00 2.6080122435338975e+00 -2 0 -1
556 186 1 -8.1999999999999995e-01 -1.1190004227006607e+01 -6.4216201827868655e+00 -4.6374249623312451e+00 -5 -1 1
585 195 2 4.0999999999999998e-01 -8.5775565493906711e+00 -5.1864157288751187e+00 2.7692947692563248e+00 -2 0 -2
978 326 2 4.0999999999999998e-01 -1.3058672457734440e+01 -8.7954825678446280e+00 4.0118892198108309e+00 -1 1 1
1931 644 2 4.0999999999999998e-01 -1.2566598120533289e+01 -6.7923100012966238e+00 -1.0696153172076919e+00 -2 -1 -1
733 245 1 -8.1999999999999995e-01 -1.2532810224115735e+01 -1.6603396755238720e+00 4.4733383657782344e+00 -3 2 -2
461 154 2 4.0999999999999998e-01 -8.6107778631591607e+00 -6.0494419586942900e+00 9.6560718009405022e-01 -2 -2 1
737 246 2 4.0999999999999998e-01 -9.4950228627310764e+00 -2.1033164362203571e+00 2.7091986295634225e+00 -2 1 -1
254 85 2 4.0999999999999998e-01 -1.3847703735609276e+01 -5.4829005026751272e+00 -2.3212154871914450e+00 -3 0 0
584 195 2 4.0999999999999998e-01 -8.1151572538737273e+00 -3.7098452534840671e+00 2.2473052249255279e+00 -2 0 -2
689 230 2 4.0999999999999998e-01 -1.3417506904414429e+01 -3.9128717138678724e+00 2.2020309981824706e+00 -2 0 2
1930 644 1 -8.1999999999999995e-01 -1.3410256264209290e+01 -6.3262797797643078e+00 -8.0310687120974933e-01 -2 -1 -1
1534 512 1 -8.1999999999999995e-01 -1.2485162475065236e+01 -5.1897716049830436e+00 1.4385376616939229e+00 -2 0 -2
2180 727 2 4.0999999999999998e-01 -7.8728001355063970e+00 -5.4047334715812685e+00 -2.5371981469607423e+00 -2 0 1
735 245 2 4.0999999999999998e-01 -1.2335718295473368e+01 -8.9915796061558595e-01 3.8554976361574038e+00 -3 2 -2
953 318 2 4.0999999999999998e-01 -1.3756095422898637e+01 -5.1266712029700550e+00 4.6216253306839530e+00 -1 0 -2
688 230 1 -8.1999999999999995e-01 -1.3572694914085229e+01 -2.9635395285196928e+00 2.4752620490644635e+00 -2 0 2
690 230 2 4.0999999999999998e-01 -1.3379194708719265e+01 -2.3585289199169051e+00 1.7029345357681951e+00 -2 0 2
557 186 2 4.0999999999999998e-01 -1.1639287013219034e+01 -5.5611876927403490e+00 -4.3970692328096792e+00 -5 -1 1
253 85 1 -8.1999999999999995e-01 -1.4284142133719074e+01 -4.9292073020169518e+00 -3.0303807492677297e+00 -3 0 0
1932 644 2 4.0999999999999998e-01 -1.4090662256458792e+01 -7.0032653181000288e+00 -5.2255695964074356e-01 -2 -1 -1
1915 639 1 -8.1999999999999995e-01 -1.2287082177683835e+01 -1.7473141159597656e+00 -2.0157231908524054e-01 -4 1 -1
1917 639 2 4.0999999999999998e-01 -1.3196149191751124e+01 -1.7676240066378970e+00 -6.1769130213293622e-01 -4 1 -1
1536 512 2 4.0999999999999998e-01 -1.2958730097487946e+01 -5.3745324517402491e+00 5.7739471783246366e-01 -2 0 -2
2061 687 2 4.0999999999999998e-01 -1.0434829983393239e+01 -6.5669889845934986e+00 -2.8715827280636095e+00 -4 2 -1
2060 687 2 4.0999999999999998e-01 -1.0198070807858780e+01 -5.3825026793259045e+00 -1.7727270682171632e+00 -4 2 -1
736 246 1 -8.1999999999999995e-01 -8.7839230507523443e+00 -2.0289983238619289e+00 2.0100677612850024e+00 -2 1 -1
462 154 2 4.0999999999999998e-01 -8.8507852869538208e+00 -6.5786340230713076e+00 -5.6046574505961289e-01 -2 -2 1
1325 442 2 4.0999999999999998e-01 -8.5378439735811238e+00 -1.6301666122245031e+00 3.9737298139790234e-01 -1 -1 1
1398 466 2 4.0999999999999998e-01 -1.1825403630019890e+01 -8.3839248848985424e+00 -4.7710701346227289e+00 -1 0 2
1326 442 2 4.0999999999999998e-01 -8.7743025002849144e+00 -5.2010027846039719e-01 -7.7667413645799499e-01 -1 -1 1
2100 700 2 4.0999999999999998e-01 -9.3865658557567393e+00 -2.7700292591798163e+00 -1.1298724392586017e+00 -4 1 0
2099 700 2 4.0999999999999998e-01 -1.0435562657127161e+01 -3.4276404505983002e+00 -2.1946257774194802e+00 -4 1 0
2098 700 1 -8.1999999999999995e-01 -9.8434942715054277e+00 -3.6140501632824069e+00 -1.4106127423732993e+00 -4 1 0
1916 639 2 4.0999999999999998e-01 -1.1876977960475523e+01 -2.6579372946110986e+00 -2.5207272616435894e-01 -4 1 -1
2059 687 1 -8.1999999999999995e-01 -1.0073300640081190e+01 -6.3561827692063506e+00 -1.9633826574991780e+00 -4 2 -1
460 154 1 -8.1999999999999995e-01 -8.2167671836032596e+00 -6.5767494379806628e+00 2.1283074167094007e-01 -2 -2 1
1535 512 2 4.0999999999999998e-01 -1.1947216197646231e+01 -5.9906408427007420e+00 1.7015817507613971e+00 -2 0 -2
468 156 2 4.0999999999999998e-01 -8.5422735131669754e+00 -1.1637257758578738e+01 3.4852589144242874e+00 -1 2 0
2179 727 1 -8.1999999999999995e-01 -7.6492455248188786e+00 -5.4631970564416559e+00 -3.5101191828615566e+00 -2 0 1
2571 857 2 4.0999999999999998e-01 -1.4328477196862138e+01 -1.9829574553836355e+00 -2.6149100944763486e+00 -2 2 1
738 246 2 4.0999999999999998e-01 -7.9207860125878913e+00 -1.7633501919911456e+00 2.4394808851300187e+00 -2 1 -1
1295 432 2 4.0999999999999998e-01 -7.8582972586109898e+00 -1.4745325665533073e+01 3.1798553184297038e+00 -2 1 1
1407 469 2 4.0999999999999998e-01 -1.1514171751212533e+01 -3.0798103333251472e+00 -4.6608359557053713e+00 -1 2 -1
2181 727 2 4.0999999999999998e-01 -7.5278856107793768e+00 -4.5421584835573423e+00 -3.8801594022652992e+00 -2 0 1
314 105 2 4.0999999999999998e-01 -7.5386600570408158e+00 -8.7515263313145191e+00 3.8424858716786741e+00 -1 1 -1
467 156 2 4.0999999999999998e-01 -7.6147617478448417e+00 -1.0393777527689100e+01 3.9951855824829412e+00 -1 2 0
466 156 1 -8.1999999999999995e-01 -7.6034059040366371e+00 -1.1322534200278140e+01 3.6247101796192798e+00 -1 2 0
2076 692 2 4.0999999999999998e-01 -1.1604828891045184e+01 -1.4001169168135522e+01 4.7723878790865495e+00 -1 2 0
319 107 1 -8.1999999999999995e-01 -1.2391581919677536e+01 -7.4748605799577721e+00 4.9546131210157949e+00 -2 0 0
1737 579 2 4.0999999999999998e-01 -8.9279704114030345e+00 -1.2477755294578614e+01 -4.9751290693734127e+00 -3 1 1
1736 579 2 4.0999999999999998e-01 -8.8636735244656961e+00 -1.0846501875697943e+01 -4.9373777615399561e+00 -3 1 1
2370 790 2 4.0999999999999998e-01 -8.8611446924516191e+00 -8.0714406170280490e+00 5.3610079263620900e+00 -1 1 0
457 153 1 -8.1999999999999995e-01 -1.2697754958869996e+01 -1.3426143706696216e+01 8.4757213774755602e+00 -4 0 -1
459 153 2 4.0999999999999998e-01 -1.3589785348988684e+01 -1.2997394652084871e+01 8.3328018263218215e+00 -4 0 -1
2421 807 2 4.0999999999999998e-01 -8.5400872629790765e+00 -1.1162616989119883e+01 8.8441670010265003e+00 -2 1 1
1612 538 1 -8.1999999999999995e-01 -1.1090993835038748e+01 -1.0886752625768370e+01 1.1395257753253409e+01 -1 2 -1
1613 538 2 4.0999999999999998e-01 -1.1617538715594193e+01 -1.1069788916870667e+01 1.2225449383392364e+01 -1 2 -1
811 271 1 -8.1999999999999995e-01 -8.3105465874437918e+00 -1.3612926353125854e+01 1.2317176251329093e+01 -3 2 -2
1614 538 2 4.0999999999999998e-01 -1.0134243477152321e+01 -1.0724177371667338e+01 1.1636438164277005e+01 -1 2 -1
1442 481 2 4.0999999999999998e-01 -7.5535029225125436e+00 -6.1570025267163899e+00 1.3269673187478061e+01 -3 2 1
2129 710 2 4.0999999999999998e-01 -1.0072824247092953e+01 -1.3561217138020265e+01 1.4918510472130320e+01 -1 2 -2
2579 860 2 4.0999999999999998e-01 -1.2868975336376380e+01 -1.0873568801841399e+01 6.1800804035878816e+00 -3 1 0
2419 807 1 -8.1999999999999995e-01 -8.8280027954217974e+00 -1.0844125263669937e+01 7.9410404309177647e+00 -2 1 1
1500 500 2 4.0999999999999998e-01 -1.4542981380478571e+01 -6.4794410852340025e+00 1.3898317255102041e+01 1 0 -1
1058 353 2 4.0999999999999998e-01 -1.4695948299478083e+01 -4.5345286723239902e+00 1.3996152098619460e+01 -1 2 -1
458 153 2 4.0999999999999998e-01 -1.1995447197511481e+01 -1.2718037252696879e+01 8.5486527964640562e+00 -4 0 -1
904 302 1 -8.1999999999999995e-01 -8.8177280240550857e+00 -9.9909445758592099e+00 1.2874367094007694e+01 0 2 0
905 302 2 4.0999999999999998e-01 -8.9485838967666886e+00 -9.0054618241692843e+00 1.2982396894102513e+01 0 2 0
1610 537 2 4.0999999999999998e-01 -1.0554393717403638e+01 -1.0767552596842956e+01 7.4682952438807231e+00 -2 2 -1
1609 537 1 -8.1999999999999995e-01 -1.1518305257848070e+01 -1.0612240527633366e+01 7.2521409542053465e+00 -2 2 -1
2339 780 2 4.0999999999999998e-01 -1.3559330366691448e+01 -3.1484079629295358e+00 1.1915699542200178e+01 -2 2 -1
1793 598 2 4.0999999999999998e-01 -1.2622724403210469e+01 -8.1764256744443067e+00 1.1134427959518090e+01 -1 1 0
1611 537 2 4.0999999999999998e-01 -1.1823951268047018e+01 -9.7632625982946735e+00 7.6831712411957991e+00 -2 2 -1
906 302 2 4.0999999999999998e-01 -7.8784602679376796e+00 -1.0231286040360558e+01 1.3119279425261022e+01 0 2 0
1264 422 1 -8.1999999999999995e-01 -9.9020382647285921e+00 -1.1828572823894984e+01 1.4496766617709740e+01 -3 2 -2
378 126 2 4.0999999999999998e-01 -1.4647909878437940e+01 -1.2639155496706335e+01 6.6748070560422068e+00 -2 0 -1
1265 422 2 4.0999999999999998e-01 -9.4779227671735580e+00 -1.1673880763775536e+01 1.3604485065974606e+01 -3 2 -2
2420 807 2 4.0999999999999998e-01 -8.1890573349991556e+00 -1.1180993467927284e+01 7.2494925534375536e+00 -2 1 1
1346 449 2 4.0999999999999998e-01 -1.4525557184204855e+01 -6.1429643708677872e-02 5.7849513352544779e+00 -1 0 1
1197 399 2 4.0999999999999998e-01 -1.4409920645144561e+01 -1.1317396071343707e+01 1.1033377709378593e+01 -3 3 1
2578 860 1 -8.1999999999999995e-01 -1.3624988909681253e+01 -1.1289198024459168e+01 5.6744463345295113e+00 -3 1 0
1134 378 2 4.0999999999999998e-01 -1.2618392382379795e+01 -1.0402535300541548e+01 1.4356204631094458e+01 -3 2 -1
1195 399 1 -8.1999999999999995e-01 -1.3955315995979094e+01 -1.0643868010507418e+01 1.0450570052161355e+01 -3 3 1
1266 422 2 4.0999999999999998e-01 -1.0861688293542045e+01 -1.1549519145396367e+01 1.4462548848736171e+01 -3 2 -2
1882 628 1 -8.1999999999999995e-01 -1.3903463436762280e+01 -4.6207214523196427e-01 1.2216805872222311e+01 -1 0 -2
321 107 2 4.0999999999999998e-01 -1.1479917269233704e+01 -7.6285244056292587e+00 5.3356972407505712e+00 -2 0 0
1201 401 1 -8.1999999999999995e-01 -8.1768459188615346e+00 -1.3299942359817120e+01 9.6129969802975470e+00 0 2 0
1203 401 2 4.0999999999999998e-01 -8.5629907633355131e+00 -1.3295577581499046e+01 1.0535408558540775e+01 0 2 0
2436 812 2 4.0999999999999998e-01 -1.4729858439170174e+01 -1.0382336354514887e+01 9.0135342186525929e+00 -3 2 -1
2404 802 1 -8.1999999999999995e-01 -1.0027392756601582e+01 -2.0657541416401699e+00 5.8443844978074839e+00 -1 -2 1
2079 693 2 4.0999999999999998e-01 -1.1925916902050689e+01 -7.5853344554890363e+00 9.6106557906203260e+00 -1 0 -2
2281 761 1 -8.1999999999999995e-01 -9.0153201334160737e+00 -8.1380206261245540e+00 8.1761702430078902e+00 -3 1 0
277 93 1 -8.1999999999999995e-01 -1.0720862966293293e+01 -1.4645922865452670e+01 1.2207676292400892e+01 -5 0 -1
1196 399 2 4.0999999999999998e-01 -1.2973892604845576e+01 -1.0645487626598726e+01 1.0642340478701557e+01 -3 3 1
1810 604 1 -8.1999999999999995e-01 -1.3870798512289179e+01 -7.8919705295662164e+00 7.4324946109267476e+00 -1 -1 0
80 27 2 4.0999999999999998e-01 -8.6417600626382338e+00 -1.4397328965649798e+00 8.6436817250870188e+00 -4 -1 -2
2368 790 1 -8.1999999999999995e-01 -9.7982620525576092e+00 -7.8097694460187945e+00 5.5918957836695196e+00 -1 1 0