2593
Atoms. Timestep: 1000000
O -5.23996 2.90102 -4.96239
H -5.5766 2.27347 -5.66439
H -5.82871 3.70853 -4.92715
O -10.4994 -1.33187 -8.88135
H -11.3539 -1.57653 -8.42318
H -10.6325 -1.35975 -9.87202
O -1.40206 14.6519 3.93974
H -0.674259 13.9677 3.89402
H -2.29009 14.1928 3.96374
O -13.0215 -11.3848 13.5809
H -13.4844 -11.2951 14.4627
H -12.9165 -12.3537 13.3566
O 14.0858 13.086 -0.256849
H 13.465 12.4401 -0.701106
H -14.8284 12.9467 -0.601377
O -5.91911 -6.90898 4.42007
H -6.73122 -6.60858 3.9199
H -5.18076 -7.09951 3.77317
O 5.53478 1.22554 -11.3429
H 5.01629 1.45795 -10.52
H 6.41248 0.823988 -11.0815
O -8.02731 0.74486 7.70652
H -7.30545 1.10475 7.11547
H -8.56831 1.5027 8.07113
O 12.5509 8.5144 8.42877
H 12.8485 8.42074 7.4787
H 13.0814 9.23533 8.87465
O -6.21508 12.0367 9.22843
H -5.48237 11.5643 9.71825
H -5.88254 12.9225 8.90486
O 12.8043 14.4368 -5.42899
H 13.6181 14.1192 -5.9156
H 12.3867 -14.6511 -5.93505
O -7.17771 2.81764 4.18636
H -8.17342 2.85364 4.10146
H -6.93006 2.66573 5.14319
O 6.68499 11.4697 -3.87852
H 6.52716 10.7157 -3.24096
H 6.04732 12.2137 -3.67918
O 3.03394 -8.89788 -8.00477
H 2.22209 -8.90946 -8.58847
H 2.75557 -8.81024 -7.04834
O -7.6159 -7.61906 -10.7914
H -8.53298 -7.37507 -11.1067
H -7.65425 -7.88458 -9.8281
O 14.3348 -5.34514 -0.642367
H -14.6856 -5.82582 -0.947244
H 14.5961 -4.56862 -0.0690202
O 0.375987 -9.46295 9.70682
H 0.155226 -8.9918 8.85288
H 0.335539 -10.4516 9.56212
O -14.2118 3.51711 11.696
H 14.6874 3.24226 11.5106
H -14.207 4.26685 12.3577
O 13.8394 -14.3511 -14.4885
H 14.7151 -14.0474 -14.1133
H 13.0967 -14.0385 -13.8963
O 9.2265 11.1634 -2.38827
H 8.536 10.5182 -2.06143
H 9.42085 10.9835 -3.35254
O 7.67639 14.6637 7.9924
H 8.46072 14.2305 8.43634
H 7.93328 -14.8893 7.0704
O -3.0089 10.8799 -10.7351
H -3.35793 11.1403 -11.6353
H -2.66941 11.6924 -10.2614
O 2.47135 7.06791 -3.96226
H 3.06225 7.8738 -3.99846
H 1.84465 7.07884 -4.7414
O 1.36326 3.84661 -10.9812
H 0.809143 4.65633 -11.1742
H 0.766219 3.08979 -10.7153
O -2.28296 11.0385 13.2197
H -2.39738 11.948 12.8201
H -1.38778 10.9787 13.6613
O 7.48145 5.37456 2.59176
H 7.5474 5.73285 3.523
H 7.1989 6.1068 1.97214
O -9.51856 -1.40193 5.14635
H -9.31785 -2.38112 5.11706
H -9.84053 -1.15489 6.06027
O 10.8897 -10.1888 -7.67634
H 11.4116 -9.49347 -7.18222
H 10.5233 -9.79426 -8.51901
O -3.04863 3.38579 14.0546
H -3.8101 2.74654 13.9476
H -2.52425 3.14579 14.8715
O 13.4309 -14.7383 -8.76646
H 12.7792 -13.985 -8.67775
H 12.9336 14.239 -8.82943
O 3.84497 4.84427 1.59967
H 4.29477 4.50012 0.775545
H 2.95321 5.22659 1.35772
O 5.55017 12.2159 10.0407
H 5.13182 13.0121 10.4777
H 5.45053 12.2895 9.04844
O -3.89563 1.76138 -2.81322
H -3.05354 1.33983 -3.14955
H -4.40289 2.1517 -3.58151
O 1.86134 12.1532 8.48521
H 2.4422 11.4329 8.10619
H 1.93925 12.1542 9.48214
O 1.73016 1.24078 13.2452
H 2.4964 1.18031 13.8848
H 0.90472 1.51452 13.7388
O 0.0884654 -1.19566 6.70023
H 0.354536 -0.654223 7.49772
H 0.683427 -1.99606 6.62722
O -1.99428 -12.8697 11.3603
H -1.56729 -13.1062 12.233
H -2.98796 -12.9434 11.4446
O 0.295913 -12.028 8.70733
H 1.19058 -12.1849 8.28913
H -0.213189 -12.8882 8.73788
O -9.62184 14.1924 -14.5086
H -10.0092 -14.7302 -14.4493
H -10.2285 13.545 -14.0475
O -9.03985 1.09962 -2.34917
H -8.96943 1.0918 -3.34662
H -9.98938 1.26603 -2.08337
O 13.8621 -4.93051 -8.65557
H 13.4118 -4.06089 -8.45321
H 14.8375 -4.85705 -8.44781
O 2.18363 -11.6149 -11.1542
H 3.01774 -12.0919 -10.8772
H 1.49378 -11.7053 -10.436
O 8.08205 11.343 -6.71219
H 8.61302 10.7752 -6.08324
H 7.9765 12.2593 -6.32579
O 7.5603 1.16199 10.3435
H 7.66411 0.519659 11.1028
H 8.23008 1.89869 10.4361
O 13.9733 -10.7911 -1.03786
H 13.9248 -9.79348 -0.988926
H 14.0199 -11.0759 -1.99526
O 4.9749 -11.9718 -12.9771
H 5.0006 -10.9743 -12.9126
H 4.78863 -12.3595 -12.0744
O 3.70168 -1.93629 11.3747
H 3.39881 -1.00124 11.1906
H 4.23166 -2.2742 10.5969
O -1.81455 13.0881 -9.56646
H -2.04945 13.5725 -10.4091
H -0.865297 13.2857 -9.32193
O -7.07152 4.17334 -14.8253
H -7.66014 4.67466 -14.1911
H -6.76009 3.32719 -14.3928
O 0.912743 0.585784 4.82006
H 0.54537 -0.0949629 5.45374
H 1.8596 0.355489 4.59563
O -14.8717 -3.76522 -12.5898
H 14.8932 -4.76182 -12.5636
H -14.6286 -3.47406 -13.515
O -2.1208 -13.755 -3.30591
H -2.43054 -13.2659 -4.12129
H -2.36872 -14.7207 -3.38219
O -10.8794 -0.545295 12.0811
H -11.2358 -0.0396311 12.8667
H -10.7134 0.0875334 11.3248
O 0.969768 5.07991 3.43708
H -0.0214837 4.95017 3.46006
H 1.24016 5.42369 2.53783
O -1.67295 6.68006 -7.72103
H -1.6601 5.70454 -7.94041
H -2.07972 7.18723 -8.48081
O 4.35363 -9.70683 11.541
H 5.09657 -9.04293 11.4561
H 4.47742 -10.4338 10.8656
O -2.90766 -13.7943 0.351309
H -3.32894 -14.0347 1.22577
H -2.26248 -14.5101 0.0842218
O -4.26515 10.4518 10.5132
H -3.34677 10.2448 10.176
H -4.3849 10.0511 11.4215
O -10.0899 -6.9495 -11.5234
H -10.7981 -6.86694 -10.8224
H -10.4411 -6.60547 -12.3942
O -5.30931 -5.21437 -6.12874
H -6.0856 -5.01099 -5.53213
H -4.51516 -4.68212 -5.83552
O -4.02917 -13.6997 3.90632
H -4.77673 -13.0482 3.77767
H -3.18811 -13.2037 4.12201
O 5.68106 14.2017 -12.1446
H 5.9751 13.4694 -11.5304
H 6.37934 14.3499 -12.8449
O -0.709596 -14.2621 13.3847
H 0.0880567 -13.7256 13.6601
H -1.23038 -14.5259 14.1965
O -3.78389 13.8478 -11.4144
H -4.59639 14.3749 -11.1656
H -4.02124 13.1848 -12.1244
O -12.5365 3.20693 2.65105
H -13.3131 3.76458 2.94401
H -11.8385 3.20525 3.36707
O 4.82694 -2.39138 -3.50701
H 5.06077 -3.35457 -3.63936
H 5.12232 -2.09859 -2.59763
O 13.2263 1.31443 6.77872
H 13.9476 0.732816 6.40256
H 13.5605 2.254 6.85275
O 7.76793 -0.711181 -3.22409
H 8.07624 -0.181467 -2.43397
H 8.14052 -1.63758 -3.17022
O 0.534103 2.83017 -2.25819
H 0.927091 1.99893 -1.86506
H 0.896607 2.96649 -3.18012
O -14.4754 13.5517 -10.3158
H 14.6347 14.1356 -9.96587
H -14.4554 13.6044 -11.3142
O -2.01554 12.2078 0.536943
H -1.38627 12.9846 0.51335
H -2.30195 12.0394 1.4801
O 0.946998 4.36465 12.9984
H 1.91714 4.48536 13.2087
H 0.518206 3.80911 13.7108
O -13.4015 9.36697 -1.59102
H -12.8483 9.45883 -0.763098
H -12.9 8.82972 -2.26909
O 12.0399 14.6171 9.98277
H 11.2322 14.4066 10.5334
H 12.2126 13.8673 9.34414
O 13.5834 -5.7193 7.96358
H 13.9798 -4.85706 7.64839
H 14.1767 -6.12428 8.65926
O 5.13012 13.363 7.23151
H 5.94503 13.8507 7.5446
H 4.31401 13.8872 7.47455
O -6.39251 11.6219 -7.1812
H -6.06184 12.159 -7.95717
H -7.3793 11.4847 -7.26711
O 9.97637 14.4483 12.0206
H 9.76144 -14.582 12.5627
H 9.14388 14.111 11.5811
O -0.656294 9.07704 -9.81366
H -1.47414 9.0315 -10.3872
H -0.795456 9.75042 -9.08762
O -1.25312 3.07426 8.44687
H -1.69958 2.21268 8.20541
H -0.898192 3.0157 9.37989
O 9.78878 -9.10013 -9.87873
H 9.44307 -8.16188 -9.8894
H 10.4494 -9.22038 -10.6197
O -4.51367 -13.2474 -2.07439
H -3.73232 -13.1094 -2.68298
H -4.30084 -12.8782 -1.16979
O -6.38577 0.0150139 -3.72725
H -6.39183 0.508575 -4.5969
H -7.19829 -0.564792 -3.6674
O -1.84146 0.233414 -3.75251
H -1.02397 0.27904 -3.17843
H -1.57333 0.0698857 -4.70189
O -12.2323 -2.87151 -6.96017
H -11.4155 -3.3851 -6.69733
H -12.6943 -2.53704 -6.13885
O 8.27155 13.533 -4.97271
H 8.06807 14.2821 -4.34233
H 7.74166 12.7257 -4.7131
O -4.95099 9.77739 -4.89299
H -4.82264 10.6688 -5.32763
H -4.89892 9.88032 -3.89969
O 10.7827 11.8776 -4.90014
H 10.3114 12.4956 -5.52933
H 11.2902 12.4128 -4.22489
O 1.33533 -13.043 11.371
H 1.25008 -14.0384 11.413
H 0.919915 -12.7084 10.5252
O 2.51887 -14.8034 4.97386
H 2.74345 14.0933 5.20813
H 3.25739 -14.2008 5.27617
O -13.136 -4.3484 -9.26146
H -13.076 -3.87844 -8.38085
H -13.5569 -3.7412 -9.93532
O -8.7168 5.15594 -8.30821
H -8.61212 6.05184 -8.73988
H -7.95623 4.99852 -7.67838
O -10.2361 14.6901 9.9593
H -9.58944 -14.4258 10.1913
H -10.2727 14.0257 10.7057
O 1.79697 -7.08173 14.7966
H 1.90134 -6.97915 13.8074
H 1.95974 -8.03476 -14.7907
O -9.49948 4.98692 -0.121496
H -8.67962 4.54514 0.242647
H -9.39543 5.12233 -1.10678
O 13.3925 1.40831 12.5829
H 13.8604 0.708459 12.0432
H 12.9081 2.03302 11.9705
O 9.13771 -12.8322 -10.0054
H 9.12229 -12.5435 -10.9627
H 10.0767 -13.0479 -9.73739
O 12.7941 10.5713 5.98248
H 13.53 10.0972 5.49919
H 11.9733 10.0002 5.98267
O -12.4544 11.7149 -9.83849
H -12.6498 11.0009 -9.16621
H -13.2288 12.3455 -9.88966
O 6.32156 6.41065 6.09006
H 5.60725 6.1961 5.42398
H 6.25927 5.7772 6.86129
O 9.53243 -4.16895 4.83567
H 10.2075 -4.74673 4.37695
H 9.62031 -3.22859 4.50714
O 5.78444 1.5244 4.52914
H 6.52525 1.5512 3.858
H 6.04332 2.06003 5.33289
O 14.2602 1.1677 1.28227
H 14.7344 1.02253 0.41397
H 13.8206 2.06586 1.27589
O -9.238 -3.87379 -7.19133
H -9.42479 -2.90577 -7.35864
H -8.53824 -3.96051 -6.48227
O -6.88276 -12.4421 2.7002
H -6.69946 -11.5525 2.2818
H -6.79621 -12.3673 3.69361
O 9.62185 -1.80534 -10.9398
H 8.9604 -2.21843 -11.5657
H 9.24477 -0.956696 -10.5689
O -13.6727 -5.67231 5.21859
H -13.6259 -5.14126 4.37257
H -14.0176 -5.09303 5.9571
O -10.5536 12.7468 -6.12038
H -11.0847 12.4179 -5.33953
H -11.0379 13.5046 -6.55747
O -0.314694 -8.884 6.52838
H 0.449539 -8.99665 5.8934
H -0.770918 -9.764 6.6603
O 6.31595 -8.53532 14.1942
H 6.43389 -8.81633 -14.696
H 5.60424 -7.83507 14.139
O -10.95 -13.3797 -5.25868
H -10.4173 -13.5142 -6.09416
H -10.5643 -12.6192 -4.73634
O 10.4124 9.53231 5.25479
H 9.78095 10.296 5.12063
H 9.89291 8.70166 5.45512
O -0.60928 -3.69107 9.39721
H -0.474278 -2.70189 9.45421
H -0.0148448 -4.06821 8.68703
O -11.227 -8.47063 -2.27977
H -10.2952 -8.52215 -1.92067
H -11.7827 -7.89185 -1.68295
O -2.48618 3.10079 -13.2205
H -2.84728 2.17642 -13.0977
H -2.75136 3.66848 -12.4412
O 10.8231 -13.5263 -3.51538
H 11.5167 -13.7164 -2.8206
H 10.8933 -12.5714 -3.80384
O 9.07476 -6.4334 -9.85107
H 9.95223 -6.17304 -10.2538
H 8.5408 -5.61094 -9.65514
O 4.21238 3.11528 -5.10933
H 4.5479 2.22427 -4.80359
H 3.27735 3.24978 -4.78135
O -2.74465 0.270659 -13.3264
H -1.80463 0.134075 -13.0139
H -3.36641 0.219689 -12.5449
O -11.9018 3.60437 -0.142144
H -11.0821 4.17674 -0.123731
H -12.2559 3.49929 0.787117
O -2.72426 -9.40496 -14.3037
H -2.16341 -8.84375 -13.695
H -3.36922 -9.94291 -13.7609
O 5.10462 -9.10784 -12.9192
H 5.97068 -8.72969 -12.5923
H 4.3543 -8.50473 -12.6487
O 2.39267 -11.0821 12.9772
H 1.97071 -11.742 12.3555
H 3.0112 -10.4881 12.4629
O -7.37324 -3.88857 11.7341
H -6.54588 -4.34596 11.4082
H -8.15825 -4.497 11.6178
O 10.9773 -10.6874 -4.20897
H 10.9947 -10.7447 -5.20715
H 11.18 -9.75012 -3.92538
O -14.7473 -8.17909 4.44708
H -14.1992 -7.53879 4.98516
H 14.165 -8.21031 4.81246
O 5.05579 -11.8661 -3.33991
H 4.30474 -11.4877 -3.88089
H 5.92854 -11.5788 -3.73446
O 11.2693 -11.6299 11.8997
H 11.5159 -11.0337 12.6636
H 10.6756 -12.3644 12.2283
O -2.47618 -9.88357 -10.8218
H -1.58654 -10.0847 -11.2317
H -2.89677 -10.7335 -10.5044
O -13.5738 -11.0152 1.18794
H -12.6133 -11.2899 1.1448
H -14.0559 -11.361 0.383001
O -12.7843 2.60822 13.8925
H -12.3433 3.50568 13.8865
H -13.0692 2.37064 12.9639
O -12.2167 10.4836 6.49425
H -11.4613 10.1043 5.96005
H -11.8573 10.9063 7.32618
O 0.153986 2.7637 -14.8566
H -0.611011 2.87021 -14.2214
H 1.01442 2.91697 -14.3707
O 7.80002 6.91568 -10.1384
H 6.84175 7.17111 -10.0103
H 8.3194 7.71326 -10.4451
O 5.92389 9.70452 3.01236
H 5.94273 9.00704 2.29605
H 4.99341 9.792 3.36801
O -8.30074 10.2552 13.4933
H -8.03732 9.31056 13.689
H -8.99383 10.2655 12.7726
O -3.58218 -0.381354 -8.04267
H -3.37651 -1.26783 -8.45716
H -4.20086 -0.511192 -7.26787
O 1.77779 -1.80634 -13.5361
H 1.77763 -2.73698 -13.902
H 2.55778 -1.30247 -13.9071
O 6.9068 -1.60508 4.90762
H 6.38494 -2.15311 4.25396
H 6.49513 -0.697068 4.9849
O -8.40013 13.8502 -10.5191
H -8.41194 12.8792 -10.7579
H -7.70305 14.3185 -11.0619
O -0.500584 -8.43748 -3.58722
H -0.138501 -7.53202 -3.36592
H -0.192313 -9.09651 -2.90122
O 8.74143 4.3903 5.66632
H 8.1434 3.68039 6.03824
H 9.12759 4.0795 4.79786
O -13.909 12.8066 13.1385
H -14.8858 12.6878 12.9604
H -13.6668 12.3427 13.9907
O -5.89819 10.2497 -14.6269
H -5.36672 9.85905 14.4641
H -6.82524 10.4506 14.8991
O 7.62835 10.2225 5.23712
H 7.18662 10.1732 4.34135
H 7.76348 11.1805 5.48991
O 14.5142 2.50043 -14.8569
H -14.3849 2.58692 14.6658
H 13.9447 2.13537 14.2492
O 5.48146 -2.45187 -13.1034
H 5.22553 -2.14508 -14.0201
H 5.29346 -3.42999 -13.0146
O -0.946573 7.57258 3.9943
H -1.21471 6.71703 3.55149
H -1.1371 7.51467 4.97424
O -7.65059 9.27789 -5.4112
H -7.99897 10.202 -5.25412
H -6.65082 9.29564 -5.42007
O 7.11888 9.66046 -14.1423
H 6.88359 10.1262 -13.2893
H 8.10304 9.7357 -14.3026
O -12.6916 -14.0072 -0.916936
H -11.869 -13.484 -1.1396
H -12.5477 -14.507 -0.0629135
O -4.53389 -12.7156 12.2462
H -4.75557 -13.332 13.0018
H -4.30673 -11.8119 12.609
O -11.906 -10.1608 7.50967
H -12.1866 -9.93213 6.57753
H -10.9215 -10.335 7.52811
O -7.87748 -5.67699 -0.145552
H -8.57343 -5.13566 0.326191
H -6.97057 -5.4124 0.182243
O 2.72911 2.90051 -13.4007
H 2.34997 3.34 -12.5864
H 3.69798 3.13335 -13.4846
O -9.33624 -11.5969 5.38357
H -9.92669 -12.3845 5.20786
H -9.71505 -10.789 4.93204
O -10.5031 -2.54874 -11.5451
H -10.5942 -2.55717 -12.5409
H -9.88677 -3.28301 -11.2606
O 7.01368 14.7281 5.28131
H 7.59589 -14.4956 4.75408
H 6.59283 14.0614 4.66618
O 6.54657 0.751374 -7.2718
H 6.33378 1.65865 -7.63445
H 5.70334 0.307282 -6.96899
O 11.4757 6.49172 -4.05357
H 10.997 6.28189 -3.20107
H 12.3566 6.01864 -4.06633
O 6.54379 -11.4509 12.8413
H 6.14801 -10.5549 13.0423
H 5.83237 -12.0576 12.4865
O 10.9021 -11.2704 -14.3943
H 11.5484 -11.7318 -13.7865
H 11.4042 -10.6944 14.8033
O -9.82961 11.822 0.498263
H -10.3788 10.9971 0.632056
H -9.91462 12.1289 -0.449642
O 4.02698 -9.2326 -1.38274
H 3.91021 -9.03528 -0.409409
H 4.21323 -10.2074 -1.50519
O -0.626014 14.6336 0.263353
H -0.445642 -14.6673 -0.557574
H 0.148573 14.7115 0.890955
O 0.771714 -1.00724 -3.717
H 1.45404 -0.401993 -3.30708
H 0.965674 -1.11629 -4.6919
O 3.98617 4.60052 12.4211
H 3.27582 4.96828 11.821
H 4.47319 3.86543 11.9495
O 12.3673 -1.47185 9.89922
H 11.7231 -0.841881 9.46557
H 12.1229 -2.4126 9.66426
O 12.2759 -4.14451 -4.07334
H 13.1785 -3.8932 -4.42291
H 12.1295 -3.70925 -3.18506
O 7.68299 -2.60076 11.5835
H 6.77696 -2.68526 11.1689
H 7.96475 -3.48655 11.9522
O 8.55445 -0.816919 -8.34205
H 7.84907 -0.130587 -8.16506
H 8.29753 -1.67914 -7.90558
O 10.0165 7.71602 8.67353
H 9.48278 8.4936 9.00592
H 10.9662 7.99759 8.53702
O -4.86417 10.4681 6.9869
H -5.62658 10.7829 7.55222
H -4.20331 11.2103 6.87537
O 3.30975 9.7581 3.82104
H 2.94036 8.84788 4.00809
H 2.595 10.3323 3.42183
O -3.00076 -4.1512 -4.92716
H -3.02203 -3.3252 -4.36393
H -2.0839 -4.27162 -5.30769
O 8.56679 -5.99857 -5.54889
H 7.89387 -6.47 -6.11886
H 8.34899 -6.14694 -4.58427
O -7.42474 -11.712 14.3123
H -7.90225 -10.8905 14.0007
H -7.73688 -12.5003 13.7821
O -13.6566 -13.7635 -13.6198
H -12.7682 -13.6268 -14.058
H -13.5465 -13.7325 -12.6263
O 14.0886 7.6521 -14.731
H 13.3442 8.17278 14.6936
H -14.8763 8.02718 14.8132
O 13.6111 14.1265 4.21818
H 13.5714 14.582 3.3289
H 13.278 14.7487 4.9266
O 7.30542 -9.96875 1.9775
H 6.51674 -10.3725 1.5139
H 7.79541 -10.6797 2.48194
O -1.84024 -3.11379 -11.8933
H -1.2378 -2.36871 -11.6072
H -2.03842 -3.02603 -12.8695
O 11.1632 13.0322 2.99212
H 11.1541 13.5443 2.13329
H 11.9842 13.268 3.51204
O -8.28374 7.87367 -7.80268
H -7.92632 8.0615 -6.88786
H -8.15464 8.67802 -8.38259
O 11.5522 -5.17891 -0.00488768
H 11.0367 -4.32251 -0.0330769
H 12.4629 -5.03259 -0.390989
O -9.56851 -6.72428 -8.13325
H -10.4884 -6.97389 -8.43551
H -9.56306 -5.76971 -7.83544
O 13.7512 -2.508 4.19366
H 13.796 -2.39182 3.20148
H 13.7668 -3.48278 4.41615
O 11.3756 -6.86027 10.3716
H 11.0541 -6.97581 11.3114
H 11.7427 -5.93734 10.256
O 14.0659 5.23167 -3.9314
H 14.1677 4.61122 -4.70896
H 14.5403 6.09021 -4.12568
O 1.99816 -7.9777 11.7156
H 1.56077 -8.43989 10.9442
H 2.90425 -8.37156 11.8699
O -0.73237 11.8573 -14.1919
H -0.573854 10.9048 -13.932
H 0.116868 12.2532 -14.5412
O 11.0064 3.53543 -2.80555
H 12.0048 3.54916 -2.75106
H 10.6207 3.79358 -1.91983
O -8.33542 1.9403 11.9967
H -7.98498 2.84912 12.2229
H -7.57114 1.30252 11.9017
O -13.9277 10.2433 -7.63265
H -13.5574 9.77522 -6.83029
H -14.2676 9.56674 -8.28587
O -5.48877 -2.54809 6.15251
H -5.80994 -1.90566 5.45676
H -5.60483 -2.14287 7.0593
O -3.75553 -0.532025 13.8444
H -3.41727 -0.554889 14.7852
H -4.0931 -1.43811 13.5895
O -5.68889 9.71371 1.80462
H -5.09315 10.3013 2.35218
H -6.01919 10.2223 1.00954
O 6.88157 12.1041 13.3698
H 7.34509 12.4123 12.5391
H 6.84828 11.1047 13.3816
O -3.13801 -7.60391 3.88518
H -2.58577 -6.77032 3.89468
H -3.2849 -7.91712 4.8234
O 1.87645 8.18541 -11.482
H 2.40516 7.34478 -11.5993
H 1.05941 7.99224 -10.9388
O 5.81197 -13.5734 9.97086
H 5.34737 -12.7793 9.57896
H 6.63641 -13.7722 9.44106
O 0.575994 -6.22355 6.16681
H 0.183128 -7.0544 6.56087
H 0.747672 -5.55877 6.89382
O -3.22036 7.58504 1.95754
H -2.70818 8.43518 2.07947
H -3.68158 7.59809 1.07039
O -8.79747 12.0405 8.18817
H -8.41531 11.7175 7.3224
H -8.05919 12.373 8.77496
O 9.07194 -6.36822 -0.879864
H 9.02415 -7.28145 -0.475313
H 9.98085 -5.98165 -0.723722
O -10.4905 -14.3175 1.20006
H -9.75738 -14.5905 0.57726
H -10.388 -13.3502 1.43189
O -0.234853 8.84538 -1.06613
H -0.882286 8.18655 -1.44916
H 0.12267 8.49633 -0.199936
O -0.435912 11.8896 4.4216
H -1.17052 11.2426 4.21769
H -0.549379 12.2406 5.35105
O 7.38086 -5.98 -13.5783
H 7.57181 -6.92575 -13.3156
H 8.18385 -5.59086 -14.0297
O 10.6686 -12.7489 1.28799
H 11.1427 -12.5346 2.14196
H 11.1055 -13.536 0.852633
O 2.90966 -5.27248 2.17773
H 3.85957 -5.55249 2.0391
H 2.43659 -5.25101 1.297
O 14.4556 -10.589 -6.45981
H 14.558 -10.972 -5.54179
H 13.6842 -9.95291 -6.47145
O 9.37889 9.32856 -10.8087
H 9.29873 9.73999 -11.7166
H 9.15636 10.0111 -10.1126
O -11.3814 2.20169 -8.66565
H -10.6656 1.59891 -9.0183
H -11.0072 2.77021 -7.93301
O 4.70638 -13.4923 -10.598
H 5.12661 -14.142 -11.2314
H 5.38963 -13.1816 -9.93727
O 10.5805 13.3245 -14.7101
H 10.5363 14.1583 14.5822
H 10.7984 13.5612 -13.7633
O 4.93383 -2.95178 -6.1287
H 5.79046 -3.07047 -6.63074
H 5.13411 -2.6817 -5.18695
O -10.1289 14.7796 7.33328
H -10.2649 -14.8655 8.30408
H -9.4645 14.0389 7.23371
O 6.13838 0.554414 0.565929
H 5.40805 0.852167 1.18066
H 6.4793 1.33932 0.0486015
O 14.8061 13.2795 -13.0537
H 13.9644 12.7876 -12.8312
H 14.5794 14.1326 -13.5234
O 10.7605 -3.4121 13.2653
H 10.7973 -2.41686 13.3552
H 11.6848 -3.76885 13.1294
O -11.4214 6.24457 -9.19352
H -11.1408 6.01686 -8.26114
H -10.6849 6.0133 -9.82913
O -14.0492 11.0223 1.94786
H -13.7643 11.55 2.74806
H -14.4394 11.6385 1.26382
O 0.680135 -5.18345 -11.4034
H 1.34145 -5.20845 -12.153
H 0.419145 -4.2356 -11.2206
O -12.5043 13.3191 6.36137
H -12.5006 12.3268 6.48449
H -11.8436 13.735 6.98624
O 8.23454 12.8072 1.04952
H 8.73606 13.2137 0.285869
H 8.53981 11.8646 1.18467
O 2.09534 7.53346 5.32192
H 1.17955 7.75198 4.985
H 2.46081 6.75442 4.81252
O 9.88456 10.5805 13.7648
H 9.61944 10.829 12.8332
H 9.79468 11.3783 14.3609
O 12.2929 10.0126 -6.44232
H 11.7452 10.7118 -5.9828
H 11.8364 9.12647 -6.3634
O -11.1608 -6.19792 1.82511
H -11.9119 -5.88962 2.40888
H -10.8328 -5.43226 1.27185
O -3.99302 13.5841 4.19115
H -4.81281 13.2155 3.75296
H -4.02797 14.5834 4.17655
O -3.19276 -8.40156 6.62609
H -2.21707 -8.60776 6.55225
H -3.42217 -8.21262 7.58088
O 5.55605 -7.18516 11.1378
H 6.35377 -6.86673 10.6258
H 5.61949 -6.86881 12.0843
O -7.00545 -7.43304 13.0317
H -6.03913 -7.50033 12.7834
H -7.11099 -6.78801 13.7885
O -3.44315 -14.151 -9.14036
H -3.57581 -14.5468 -8.23169
H -2.90872 -14.7811 -9.70361
O 5.30032 2.59278 10.7854
H 5.96487 1.91738 10.4658
H 5.27969 3.36591 10.1516
O -4.87514 2.02443 11.1506
H -5.27309 1.84364 12.05
H -4.49349 1.17823 10.7788
O 4.23354 7.91564 -7.62583
H 4.60288 8.07795 -6.71085
H 3.67831 8.69906 -7.90494
O 4.35422 -1.86184 1.95981
H 5.18062 -2.40855 2.09436
H 3.60502 -2.25319 2.49413
O -0.236549 -10.6812 -12.2549
H 0.686637 -10.91 -11.9462
H -0.228327 -9.78228 -12.6929
O -8.33 -14.7259 -0.609262
H -7.34162 -14.8769 -0.624735
H -8.67099 -14.6546 -1.54659
O 6.31563 7.55125 10.5449
H 5.33187 7.69554 10.4384
H 6.55371 7.5812 11.5157
O -0.0790536 2.55915 10.9791
H 0.475497 3.28616 11.3839
H 0.339218 1.67233 11.1754
O -13.1907 13.2644 -1.42172
H -13.0585 14.2552 -1.39216
H -12.306 12.8073 -1.33029
O -12.9471 -4.23517 2.82338
H -13.3413 -4.0192 1.93014
H -12.3368 -3.49518 3.10609
O -8.5116 0.295472 3.41002
H -8.69352 -0.257564 4.22303
H -7.60581 0.0714871 3.05039
O 14.0204 -14.412 1.628
H -14.8541 -14.3203 1.86113
H 13.9084 14.7056 0.948504
O 2.88914 -12.4818 7.81105
H 3.10265 -13.4361 8.01994
H 2.6226 -12.4024 6.85053
O -14.6183 -8.39944 -14.8252
H -14.454 -9.32247 -14.4774
H 14.7614 -8.4541 14.1326
O -11.919 11.3304 -4.04326
H -11.3568 10.6261 -4.47658
H -12.6012 10.8968 -3.45455
O 1.25201 12.2447 13.8739
H 1.96624 12.9117 14.0859
H 0.884402 12.4283 12.9623
O -1.74019 5.35664 2.99695
H -1.94949 4.4506 2.62921
H -2.49974 5.97798 2.80473
O 1.20827 -9.84803 4.50873
H 0.862821 -9.44701 3.66032
H 1.40017 -10.8188 4.36459
O 11.2281 -13.2039 8.31989
H 11.6686 -12.322 8.48808
H 11.6904 -13.914 8.85085
O -1.00067 -14.3806 9.29317
H -1.37829 -13.8934 10.0806
H -1.5167 14.6185 9.1443
O 14.5554 -6.64327 12.0695
H 14.6901 -6.12386 11.2257
H 14.8871 -7.57797 11.942
O -12.442 -13.1448 10.1906
H -12.3348 -13.145 11.1849
H -11.8787 -13.8699 9.79454
O -7.3404 -14.7745 6.53572
H -7.46617 14.2904 5.9199
H -7.34984 -13.9258 6.007
O -10.8053 8.9975 -11.5213
H -10.7272 9.62817 -12.2934
H -11.7126 8.5772 -11.5247
O 11.991 7.53466 -11.6044
H 11.4157 8.08989 -11.0038
H 11.4269 7.12617 -12.322
O -5.00417 0.949474 -11.477
H -5.70968 1.13744 -12.1602
H -4.92211 -0.0384382 -11.3457
O 4.57741 -10.8836 9.13599
H 3.8403 -11.3157 8.61644
H 5.35149 -10.7032 8.52921
O 13.6594 9.02975 -1.42238
H 13.4627 9.96714 -1.13506
H 14.5843 8.98387 -1.79962
O 2.17778 12.6164 -1.42876
H 2.28963 12.6134 -0.435065
H 1.33933 12.1284 -1.67125
O 2.76295 -14.8248 13.2849
H 3.62862 14.5894 13.5439
H 2.41772 -14.2817 14.0503
O 11.932 5.25249 10.5629
H 12.0913 5.63856 11.4714
H 11.0317 5.53636 10.2332
O -2.18081 7.052 10.6149
H -1.27664 7.37504 10.8943
H -2.32493 6.12476 10.9604
O 12.8499 11.0258 13.5106
H 11.9019 10.74 13.6506
H 12.9048 12.0239 13.5389
O -6.73952 1.62596 -13.7065
H -6.33661 1.6672 -14.6208
H -7.49967 0.976268 -13.7063
O 9.81728 -13.2396 13.8164
H 8.86975 -12.9207 13.8367
H 10.3536 -12.7341 14.4922
O -8.17598 -13.5798 9.79125
H -7.24143 -13.6011 9.43614
H -8.77274 -13.1225 9.13194
O 9.66617 12.4827 8.42429
H 10.6246 12.3992 8.15168
H 9.08325 12.4301 7.6135
O 4.92394 -5.14572 -12.9575
H 5.85844 -5.37734 -13.2277
H 4.61904 -5.7729 -12.2408
O -12.4877 7.30253 6.35871
H -11.6103 7.0758 6.7813
H -13.1861 7.39285 7.06865
O 5.06324 7.38432 -1.24037
H 4.15612 7.79885 -1.16798
H 5.01038 6.56408 -1.8099
O -13.2791 8.89914 14.456
H -13.2768 9.03771 13.4656
H -13.172 9.7805 14.9161
O -4.92885 -9.12408 -0.968939
H -4.65338 -8.83075 -1.88437
H -4.4559 -9.97341 -0.734678
O 1.28781 5.55496 0.601053
H 0.441127 5.91488 0.992878
H 1.16866 5.41938 -0.382492
O 5.49918 11.8511 -0.242636
H 5.684 11.1037 -0.88079
H 6.36066 12.2851 0.0208422
O -13.0557 -6.00416 14.7987
H -12.3239 -5.79616 -14.395
H -13.3246 -6.96242 14.8955
O 6.69712 -1.85254 -10.494
H 7.20146 -1.0285 -10.236
H 6.53669 -1.84983 -11.481
O 11.8204 -4.35998 9.25607
H 11.1005 -4.10096 8.61224
H 12.3773 -5.0888 8.85779
O -12.663 6.94182 -11.6375
H -13.632 6.6985 -11.6789
H -12.3323 6.83527 -10.6998
O -9.97826 2.9046 7.59171
H -9.25763 3.58636 7.46586
H -10.8187 3.22317 7.15338
O 7.78434 9.50262 9.35621
H 7.38786 9.36503 8.44857
H 7.46365 8.78342 9.97253
O 11.6993 -12.6545 -8.63074
H 11.8211 -11.8398 -8.06382
H 12.0917 -12.4923 -9.53609
O 8.21684 8.46415 -5.17909
H 9.03248 8.18316 -5.68478
H 7.94729 7.73528 -4.54978
O -2.27408 7.36045 -12.0427
H -2.61269 6.74464 -11.3313
H -2.13635 6.84732 -12.8898
O -2.20058 -12.7814 -13.4789
H -1.46503 -12.104 -13.4877
H -3.06987 -12.3321 -13.6849
O 14.2607 -6.39116 -13.2141
H 13.3184 -6.63516 -12.9852
H 14.6197 -7.04062 -13.8844
O 0.333373 -7.71657 2.75832
H 0.630625 -7.4927 1.83017
H 0.0289456 -6.88386 3.22077
O 2.61901 8.43841 -1.03018
H 2.44276 8.91819 -0.170708
H 1.92113 7.73579 -1.16885
O -5.25843 2.89101 -9.21196
H -5.57599 2.13751 -9.78757
H -5.45092 3.76108 -9.66569
O -7.87047 -4.02697 -5.04163
H -7.76115 -4.72246 -4.3315
H -8.13775 -3.16011 -4.62084
O 10.6935 3.03794 0.223907
H 10.9026 2.99976 1.20103
H 9.79944 3.4656 0.0908374
O 8.82588 11.6974 -9.41482
H 7.9714 12.1485 -9.67221
H 8.81362 11.4939 -8.43584
O -10.9445 3.49891 -12.8892
H -10.8453 2.62378 -13.3627
H -11.8117 3.51211 -12.3913
O -13.8907 1.99333 -8.0224
H -14.3519 1.44936 -8.72335
H -12.9008 1.92792 -8.1475
O -12.9005 14.897 2.01246
H -12.9214 14.0105 2.47462
H -11.9525 -14.6431 1.91447
O 1.96125 -13.0892 -14.7043
H 1.43965 -12.8297 -13.8916
H 2.16322 -12.2729 14.5972
O 9.59594 5.52138 -7.90559
H 10.4847 5.11474 -8.11687
H 9.03002 5.53239 -8.72994
O -9.06937 -9.41698 13.3682
H -8.40555 -8.68599 13.5261
H -9.51233 -9.27931 12.4824
O -6.86953 12.2539 0.429994
H -6.64226 12.7147 -0.427872
H -7.84182 12.0203 0.435459
O 13.6659 4.68216 -1.10219
H 13.0691 5.25026 -0.535623
H 13.59 4.9683 -2.05733
O -11.357 11.4192 8.91728
H -10.4142 11.7216 8.77752
H -11.5925 11.4987 9.88588
O 8.4377 -7.90326 12.6625
H 8.16616 -8.28434 11.7788
H 7.71551 -8.07045 13.3337
O -14.6421 -7.05513 -6.41632
H -13.8802 -7.41494 -6.95485
H -14.5728 -7.38901 -5.47629
O -2.7299 6.78396 -5.13059
H -2.43232 6.8144 -6.08477
H -3.40166 7.50657 -4.96775
O 1.28276 11.0341 2.53613
H 1.82158 11.7483 2.08954
H 0.6971 11.4458 3.2343
O -5.1643 8.02823 -7.15674
H -5.62295 8.51203 -7.90207
H -5.0914 8.63169 -6.36272
O 10.0401 -8.57284 4.3564
H 10.4834 -8.98764 5.15096
H 10.7028 -8.01253 3.85963
O -11.0898 -2.67059 -14.4239
H -10.2929 -2.29506 -14.897
H -11.9246 -2.35379 -14.8742
O -13.3821 0.535139 2.76214
H -12.9071 1.40747 2.87787
H -14.29 0.698595 2.37611
O -2.4994 -7.54478 1.15373
H -3.19904 -8.07976 0.680188
H -2.64444 -7.60617 2.14121
O 2.34141 -3.10777 3.68136
H 1.46047 -2.86344 3.27616
H 2.63658 -3.99509 3.32715
O -12.7482 -7.09941 -0.213426
H -13.4917 -7.28487 0.428992
H -11.9627 -6.73051 0.283405
O -10.4324 -14.1787 -11.2794
H -11.3684 -14.0377 -10.957
H -9.96874 -14.8323 -10.6813
O 12.5225 -6.82521 2.08447
H 13.3375 -7.32869 1.79772
H 12.2069 -6.24606 1.33286
O -6.19433 9.26305 -11.9588
H -6.10647 8.29028 -12.1732
H -6.02196 9.8028 -12.7828
O -14.8444 -9.53673 12.2219
H -13.9691 -9.97181 12.4328
H 14.8015 -9.63902 11.2468
O 3.98584 -0.308597 -6.58357
H 3.88429 -0.675946 -5.65908
H 3.15552 -0.494138 -7.10901
O 9.32945 13.5871 -1.25016
H 8.92422 14.4307 -1.60237
H 9.40233 12.9182 -1.98988
O 14.8454 -8.40591 -3.96044
H 14.0125 -8.26806 -3.42452
H 14.8655 -9.34246 -4.31031
O 8.26215 -0.184193 12.6926
H 9.16857 -0.258433 13.1083
H 8.01226 -1.05982 12.2794
O 3.08361 14.314 -13.3868
H 2.8834 -14.5845 -13.6486
H 3.94278 14.2849 -12.876
O -14.2156 -8.4628 1.61449
H -13.983 -9.42483 1.47185
H -14.4242 -8.31001 2.58045
O 2.62737 0.774501 -2.24939
H 2.71147 0.44733 -1.3082
H 3.52747 0.771451 -2.68499
O 12.052 -13.5058 -12.6123
H 11.7056 -14.3725 -12.2534
H 12.7508 -13.1448 -11.9947
O 8.81685 -5.09487 12.1732
H 8.69517 -5.96496 12.6508
H 9.53384 -4.56409 12.625
O -6.86626 7.95645 8.70697
H -5.90068 7.79939 8.4998
H -7.2032 7.22506 9.29984
O -0.0923885 -5.93183 11.2459
H 0.709199 -6.52726 11.1925
H 0.164811 -5.00218 10.9822
O -5.02607 -4.85421 9.87434
H -4.72628 -4.61017 8.95211
H -4.29526 -5.35167 10.3417
O 2.82069 -9.59308 -14.6783
H 2.50828 -10.2286 14.4583
H 3.72301 -9.87468 -14.352
O 3.87958 0.938941 14.8227
H 4.83898 1.1528 14.639
H 3.50368 1.61299 -14.3841
O 9.69388 6.56107 -12.8341
H 9.19677 6.29163 -12.0093
H 9.08726 6.49287 -13.6261
O 11.9346 -8.58467 -3.07776
H 11.551 -7.80436 -3.57165
H 12.3608 -8.26635 -2.23102
O -14.6185 -0.913492 10.5269
H 14.3417 -1.12014 10.1042
H -14.434 0.0663703 10.4511
O 8.22734 -1.87451 -13.4357
H 7.30694 -1.94485 -13.8202
H 8.73266 -1.15386 -13.9103
O 12.9081 -9.47755 10.4252
H 12.3152 -10.0992 10.937
H 12.4475 -8.59755 10.3093
O 0.272146 -12.2591 -6.8559
H 1.11116 -12.398 -6.32988
H -0.196902 -11.4403 -6.52509
O 12.7523 -5.14932 4.33488
H 12.8576 -5.72184 5.14794
H 12.3825 -5.69897 3.58582
O 2.22059 5.68237 10.629
H 1.46937 5.67188 11.2889
H 2.51555 6.62531 10.4747
O 14.4984 6.46787 -11.4983
H 14.3937 5.57441 -11.935
H 13.638 6.97332 -11.5631
O 12.2381 12.838 7.47854
H 12.5783 12.0229 7.00973
H 12.701 13.6476 7.11766
O 9.68822 -1.54734 4.10468
H 10.2663 -0.750506 4.28021
H 8.97371 -1.60091 4.80222
O -6.67652 -8.63551 -13.1698
H -6.67517 -9.63283 -13.2424
H -7.02808 -8.36711 -12.2729
O -10.7023 -14.0815 4.68514
H -11.6225 -13.725 4.52341
H -10.694 -14.6098 5.53409
O 4.21796 7.51535 13.1198
H 4.28686 6.51903 13.0694
H 4.14917 7.7967 14.0769
O 10.9808 2.36787 2.87478
H 11.2174 1.63872 3.5169
H 11.8072 2.87195 2.62371
O 13.3635 9.20781 11.5258
H 13.677 9.64554 10.6832
H 13.0822 9.90897 12.1809
O 6.13374 -14.7581 -7.66605
H 5.21417 14.8958 -8.01063
H 6.50194 -13.9493 -8.12436
O 6.86486 5.80303 -6.73133
H 6.77624 6.70703 -6.31314
H 7.81769 5.64854 -6.99244
O 12.8992 -5.27719 13.8453
H 13.4045 -5.49353 14.6806
H 13.4066 -5.61395 13.0521
O 5.05176 -6.51381 6.71182
H 5.7735 -6.29179 6.05629
H 4.22349 -6.77927 6.21842
O -9.98267 9.53752 11.4137
H -10.8335 10.0615 11.4526
H -9.69847 9.43355 10.4607
O 1.97466 -9.04404 -5.3528
H 1.91819 -9.90624 -4.84944
H 1.14738 -8.50704 -5.18793
O 3.63573 11.1492 14.4741
H 2.68054 11.2668 14.7457
H 4.13138 12.0054 14.6194
O 13.1779 -1.06007 -7.09791
H 13.2763 -0.125165 -7.43882
H 12.658 -1.0504 -6.24377
O -0.355909 13.0458 6.81882
H -0.271427 13.9877 6.49375
H 0.439651 12.8137 7.37844
O 11.833 -9.43779 -12.1151
H 12.1494 -9.77926 -13.0001
H 11.5591 -8.48036 -12.2059
O -4.71701 9.47885 -1.90248
H -5.71019 9.5293 -1.79767
H -4.37607 8.65264 -1.45407
O 4.05647 14.5674 10.9252
H 3.43864 14.9033 11.6361
H 4.76035 -14.5885 10.7437
O -6.31234 -8.82442 6.31818
H -6.18253 -8.11888 5.62153
H -5.45262 -9.31506 6.45989
O -3.61833 -8.15058 9.21701
H -3.29156 -9.08678 9.3462
H -4.61165 -8.12576 9.32947
O -6.9237 3.90775 0.614007
H -6.67362 3.33112 -0.163745
H -6.16325 3.94086 1.26251
O 0.142631 1.5053 -10.2785
H -0.816338 1.30923 -10.0739
H 0.727775 0.872627 -9.77132