2593
Atoms. Timestep: 18495000
O -14.2027 -13.1264 -8.71638
H -13.8347 -12.2045 -8.5953
H -13.5248 -13.6978 -9.17907
O 8.12967 -8.59756 6.37376
H 8.8643 -8.36584 5.73609
H 7.36066 -7.97302 6.23746
O -11.4731 3.71327 -13.4764
H -12.1489 3.50278 -14.1828
H -11.4683 2.98432 -12.7919
O -10.7121 -10.6711 11.9012
H -10.7469 -11.5941 12.2842
H -10.3092 -10.7047 10.9866
O 14.5486 -4.68932 4.22977
H 14.9052 -4.02452 3.57339
H 13.5662 -4.54554 4.34941
O 13.3659 -3.73746 -0.188582
H 13.8549 -3.11168 0.419123
H 13.9346 -4.54023 -0.367983
O 14.225 -7.32273 9.00592
H 14.2403 -8.1512 8.4461
H -14.8875 -6.90195 9.00345
O 8.88449 2.33761 10.1573
H 8.30148 2.06712 10.9235
H 9.77663 1.89438 10.2447
O -10.8293 -7.16054 -5.41042
H -10.4676 -6.51669 -6.08471
H -10.2802 -7.11284 -4.57604
O -12.9961 -11.4724 2.16703
H -13.6441 -12.1095 2.58429
H -13.364 -10.5437 2.21476
O 12.2573 -1.29398 8.51569
H 12.6995 -2.18895 8.57529
H 11.5268 -1.32786 7.83366
O 10.2395 2.09917 14.6218
H 10.0241 1.23207 -14.9487
H 11.2115 2.30278 14.739
O -11.3225 0.0811064 -3.06379
H -12.3144 0.0425805 -3.18496
H -10.8987 -0.691653 -3.5363
O 2.56156 12.8033 13.4481
H 2.33031 12.0589 14.0745
H 1.73873 13.0976 12.9619
O 6.47086 -5.32602 4.08372
H 7.45368 -5.16067 4.00163
H 6.05438 -4.59677 4.62663
O 1.78401 12.4445 4.0903
H 1.07066 12.817 4.6839
H 1.36297 12.0248 3.28619
O -10.3829 -13.5559 13.6245
H -9.63349 -12.9261 13.8292
H -10.0256 -14.4871 13.5532
O -11.005 -4.42165 -2.86473
H -11.8015 -4.21744 -3.43384
H -10.3014 -3.72702 -3.01452
O -3.07664 -0.236545 -6.91923
H -2.13128 -0.197271 -6.59559
H -3.09423 -0.118441 -7.91207
O -4.49609 -10.3721 -11.2914
H -4.23133 -11.2462 -10.8843
H -5.36553 -10.0715 -10.8993
O -4.58722 9.56496 9.39622
H -3.72587 9.82699 8.96102
H -5.25922 9.33355 8.69275
O 6.22298 -14.26 13.6348
H 5.66456 -14.3523 14.4592
H 7.06472 -13.7675 13.8558
O -0.929102 4.60262 -9.31983
H -1.3698 4.63353 -8.42271
H -0.787632 3.64998 -9.58904
O 8.26023 -12.4132 14.5399
H 9.2166 -12.7017 14.5862
H 7.95757 -12.1158 -14.5742
O -1.75424 1.53833 10.1544
H -2.17263 1.00194 9.42146
H -0.758516 1.49306 10.0739
O -5.88682 13.0102 -7.13799
H -6.16433 13.8674 -6.70423
H -6.4772 12.2688 -6.81894
O -2.40813 3.61491 -1.988
H -3.05084 3.85172 -1.25941
H -2.24145 2.62895 -1.97798
O 3.40806 14.0378 -14.2235
H 2.77645 13.587 -14.8543
H 3.38161 -14.9937 -14.3748
O 9.80409 4.01676 12.762
H 10.0338 3.34446 13.4657
H 9.46639 3.54474 11.9476
O 0.278655 11.9818 -5.48511
H 0.421621 12.7208 -6.14342
H -0.57555 12.1378 -4.98914
O 14.2469 -14.8342 5.5676
H 14.1826 14.9669 6.54131
H 14.1373 14.3492 5.03034
O 4.03006 1.65577 13.6823
H 3.19193 2.0536 14.0555
H 4.08577 0.691688 13.942
O 10.1634 -6.24157 11.5004
H 10.9934 -6.24592 10.9427
H 10.013 -5.32343 11.867
O 2.54826 -9.84143 -12.6422
H 1.56785 -9.76801 -12.8249
H 3.03147 -10.047 -13.4932
O 0.480599 14.4347 9.21986
H 1.04158 14.8357 8.49565
H 0.847138 13.5378 9.46741
O -8.59302 6.3632 -10.6727
H -8.98259 5.81742 -9.93081
H -7.74697 6.795 -10.36
O -0.826643 2.88682 -5.05471
H -1.48795 3.53887 -5.42553
H -0.721446 3.04105 -4.07229
O -0.167942 4.81857 -1.58385
H -0.0940272 4.56333 -0.619799
H -0.922978 4.31585 -2.0048
O 4.28478 -9.38577 4.98269
H 3.3273 -9.30414 5.25941
H 4.53095 -8.61034 4.40121
O -7.30211 1.51713 -4.35981
H -7.35854 1.69488 -3.37735
H -6.90948 0.610176 -4.51243
O 5.82171 8.68851 7.65597
H 6.49111 8.55163 6.92579
H 5.74994 9.66405 7.86378
O 0.00516405 1.48997 6.45542
H -0.799707 2.04498 6.66554
H -0.0493082 1.16829 5.51014
O 7.84437 -13.1449 -2.11629
H 7.40319 -12.7953 -1.28978
H 7.33751 -12.8356 -2.92094
O 1.55824 -4.87264 2.83641
H 1.43478 -5.17451 1.89109
H 1.40194 -3.88665 2.89456
O 7.08079 7.49445 10.043
H 7.26785 8.28083 10.6317
H 6.81986 7.81453 9.13223
O 5.81435 13.9459 3.19701
H 6.59068 13.672 2.62934
H 6.05513 14.7646 3.71836
O 6.97444 6.19638 -14.3718
H 7.35433 6.60573 14.8184
H 6.55565 5.31641 -14.596
O -8.18963 -9.19672 4.74198
H -8.85914 -9.92008 4.57309
H -8.06081 -8.66041 3.90785
O -3.41959 7.89802 -14.3644
H -2.96154 8.57622 -13.7897
H -4.22287 8.31195 -14.7927
O 10.9584 -13.6498 14.9166
H 11.2173 -14.1648 14.0994
H 10.5033 -14.2601 -14.4547
O 10.6726 -2.41258 -8.02321
H 11.4367 -3.05608 -8.07007
H 10.7683 -1.84034 -7.20872
O 10.5948 -0.412345 0.691299
H 9.68279 -0.644047 0.352815
H 10.5297 0.360986 1.32195
O -4.773 -0.20543 11.4874
H -3.79979 -0.157272 11.2626
H -4.88102 -0.467282 12.4465
O 13.8042 -14.5547 13.785
H 13.3811 14.5653 13.893
H 13.8277 -14.0892 14.6697
O -4.4774 14.7804 -12.8157
H -4.94558 -14.7788 -12.0615
H -4.91726 -14.9949 -13.6799
O -13.0267 -11.4264 5.83957
H -12.9786 -10.4288 5.78972
H -13.1985 -11.705 6.78449
O -7.2142 -4.34793 -10.7449
H -8.19003 -4.30319 -10.9589
H -6.6857 -4.02513 -11.5301
O 5.22257 -2.13335 -15.0012
H 5.70316 -2.58192 14.2649
H 5.38892 -2.63658 -14.1533
O -7.27556 1.62375 -14.7869
H -7.34848 2.4428 -14.2178
H -6.31095 1.40828 -14.9388
O -12.0596 7.46248 -2.48142
H -13.0355 7.28756 -2.35098
H -11.531 6.87781 -1.866
O 6.73637 -11.3498 -6.45965
H 6.07892 -12.0485 -6.17764
H 7.56964 -11.7912 -6.79257
O 9.5223 1.02106 -8.26644
H 8.54524 0.810251 -8.29665
H 9.99309 0.339848 -7.7058
O 1.05026 -10.6435 -3.77688
H 0.880644 -11.1853 -2.95363
H 1.82712 -10.0336 -3.62035
O 11.1226 -7.25743 -9.57208
H 11.0755 -6.56668 -10.2936
H 12.0638 -7.58334 -9.48351
O -14.7387 -6.49592 -3.20677
H 14.4095 -6.23514 -3.62221
H -13.9865 -6.18978 -3.79023
O 3.98958 1.94419 0.384899
H 4.91909 1.74949 0.698098
H 4.02745 2.46719 -0.466593
O -11.909 -2.12272 6.27096
H -12.1127 -1.27752 6.76509
H -11.5351 -2.79841 6.90629
O 5.91701 11.3569 8.17877
H 6.81874 11.5255 7.78072
H 5.27266 12.0467 7.84868
O 8.60206 -11.0348 1.05272
H 8.44708 -10.7486 1.99827
H 9.58364 -11.0368 0.861687
O -3.86184 -10.7248 10.2833
H -3.44175 -11.6108 10.4796
H -3.58014 -10.4163 9.3747
O -3.87598 6.69554 -4.82528
H -3.16053 7.11042 -4.26313
H -3.95857 5.72542 -4.59714
O -14.8468 8.49157 -0.794568
H -14.231 8.97669 -0.17372
H 14.4762 9.1235 -1.13422
O 9.95916 2.08491 1.84721
H 10.9072 2.29189 2.08866
H 9.71176 2.57965 1.01413
O -2.19364 10.336 8.33205
H -1.82713 10.9701 9.01292
H -2.28458 10.8058 7.45396
O 13.9047 0.136316 11.13
H 14.5109 -0.471913 10.6175
H 13.5878 0.872359 10.5318
O -1.91352 3.10101 -14.9381
H -2.63776 3.17867 14.3964
H -1.02258 3.19139 14.6365
O 6.7794 -12.0529 -9.28188
H 7.3761 -11.749 -10.0246
H 7.03995 -11.5903 -8.43445
O 14.3864 11.4724 1.73873
H 14.6586 12.3338 1.30994
H 13.4676 11.2234 1.43257
O 8.92227 -8.75645 -9.93851
H 8.42264 -8.42168 -10.7374
H 9.62852 -8.0951 -9.68586
O -1.45163 9.03342 -5.79175
H -0.878398 8.51739 -5.15526
H -1.76472 9.87483 -5.35129
O -9.87841 0.979415 14.6978
H -8.92511 1.22283 14.8767
H -10.4809 1.61759 -14.8426
O 12.6088 1.99437 -1.99149
H 12.6429 2.58853 -1.18786
H 12.7629 1.04664 -1.7121
O 7.23933 -9.46387 9.97845
H 6.32225 -9.6377 9.61962
H 7.92037 -9.82825 9.3433
O 0.727907 8.73506 0.325808
H 1.00463 9.3988 -0.369085
H 1.46153 8.62993 0.997189
O 4.9579 6.18574 -6.00231
H 5.22173 5.41639 -5.42051
H 4.55842 6.90848 -5.43834
O 3.08505 -12.7916 -11.3655
H 3.02452 -12.6452 -12.3528
H 2.94225 -11.9233 -10.8904
O -6.04129 3.30073 -8.72176
H -5.4319 3.97301 -9.14209
H -6.27613 3.5967 -7.79588
O -0.526411 -1.08953 3.94709
H -1.36156 -1.59864 4.15527
H -0.766591 -0.19512 3.5698
O 10.8555 8.77008 -2.75493
H 9.8896 8.75855 -2.49615
H 11.141 7.84858 -3.0182
O 8.51218 11.4481 14.6678
H 8.11502 11.9248 13.8836
H 8.94629 12.1121 -14.743
O -14.3085 3.09064 11.4506
H -14.8684 2.63648 12.1437
H -13.6851 2.42649 11.0381
O -7.72987 -8.89296 -11.1948
H -8.59234 -8.68116 -11.6545
H -7.38618 -8.07313 -10.7368
O 9.39345 -1.3659 11.6956
H 9.07172 -1.7211 10.8179
H 8.67948 -0.800164 12.1081
O -3.14686 2.62327 6.09968
H -3.94041 3.2263 6.18109
H -3.11627 2.23514 5.17858
O -0.313574 11.7517 6.28739
H 0.598224 11.4925 6.60589
H -0.408894 12.7465 6.32332
O 10.4447 -4.40963 -0.349673
H 11.3353 -3.99161 -0.170433
H 9.81775 -4.19207 0.3984
O 9.64904 -10.189 -3.52437
H 8.73363 -9.98923 -3.17491
H 10.0607 -9.34971 -3.87954
O -0.688474 -6.8334 2.66386
H -0.728633 -7.70043 3.16049
H -0.0341294 -6.22334 3.11068
O -7.83876 13.3256 5.70425
H -7.82897 13.465 4.71406
H -7.74376 12.3504 5.90454
O 10.5112 5.05278 -11.3048
H 10.3102 5.04934 -12.2844
H 11.0942 4.27163 -11.0814
O -8.19885 2.60231 9.57076
H -9.04626 2.50144 10.092
H -8.38798 3.08945 8.71816
O -10.1213 1.70002 -1.24011
H -10.5635 1.92117 -0.370885
H -10.8009 1.33503 -1.87644
O 9.82636 -5.1507 -14.0876
H 9.15616 -5.74669 -14.5299
H 10.5154 -5.70911 -13.6257
O 0.945861 -2.22858 1.90176
H 1.72968 -1.6312 1.73218
H 0.385505 -1.84319 2.63488
O -1.92412 13.6974 4.13429
H -1.54298 12.9746 3.55785
H -1.401 13.7563 4.98451
O 8.38353 1.43902 -5.20861
H 8.55009 1.34725 -4.22686
H 9.17276 1.87478 -5.64129
O 12.0996 -6.44304 -12.3966
H 12.6444 -7.28117 -12.4242
H 12.7071 -5.6494 -12.4286
O 3.28111 12.6495 -4.38004
H 3.37539 13.5344 -4.83611
H 2.40016 12.2424 -4.62127
O 9.67871 8.89688 1.47304
H 9.94889 8.28551 0.729246
H 9.75819 8.41534 2.34585
O 9.31907 6.88239 3.68155
H 9.93982 6.39566 3.06693
H 9.13482 6.31699 4.48552
O -10.5122 11.7585 11.9437
H -9.91294 12.4376 12.3676
H -11.3583 11.6848 12.4716
O -0.784242 -6.15099 -8.03296
H -0.833871 -5.25919 -7.58326
H -0.544766 -6.02591 -8.99577
O 12.6818 -5.58686 -4.04968
H 12.1863 -5.48757 -4.91261
H 12.5396 -4.77181 -3.48801
O -0.332204 -8.41796 9.44313
H -1.25929 -8.64479 9.74157
H 0.325605 -8.98536 9.93846
O 1.44249 3.86006 7.82691
H 2.25857 4.2101 7.36704
H 1.06809 3.0941 7.30429
O 0.806502 8.29839 -3.54831
H 1.5197 7.64251 -3.30095
H 1.02447 8.70984 -4.43329
O 8.48711 0.272654 5.79196
H 7.76982 0.485083 6.45556
H 9.21614 0.953787 5.85965
O 14.2242 10.6083 6.6301
H 13.9148 9.67421 6.80822
H -14.7995 10.6182 6.54048
O -0.547007 6.55368 11.0333
H -0.721296 6.63291 12.0148
H 0.0984316 5.80785 10.8685
O 9.53602 -0.118705 -13.8595
H 9.92988 -1.03469 -13.783
H 9.12586 0.141834 -12.9855
O 10.8234 6.71437 -0.205854
H 9.94707 6.79913 -0.680037
H 11.5697 6.8302 -0.861369
O 14.8289 -0.438435 -9.94952
H 14.8623 -0.0945663 -9.0111
H 13.8759 -0.569251 -10.2228
O 11.0983 13.6673 0.710735
H 10.8602 14.4342 0.114723
H 10.6911 13.8077 1.61325
O 9.07864 -6.60897 -7.0131
H 8.7182 -6.46687 -7.93499
H 8.55886 -7.33319 -6.55995
O 3.35443 -1.49045 -4.7311
H 3.86762 -0.927611 -5.37905
H 2.7958 -2.1509 -5.23283
O -3.61679 9.17469 0.561837
H -4.1244 9.21404 -0.298854
H -4.08834 9.72326 1.25228
O -7.63136 14.5873 3.25699
H -7.87243 -14.464 3.19136
H -8.33124 14.0379 2.80057
O 1.18111 4.47313 10.7265
H 1.08226 4.20102 9.76935
H 2.0732 4.17613 11.0671
O -0.200101 -4.21895 -1.94732
H -0.762862 -4.40741 -2.75217
H 0.283718 -3.35303 -2.07425
O -5.73108 13.8745 7.96396
H -6.41729 13.6437 7.27412
H -6.15233 13.8606 8.8708
O -1.72667 -14.6446 -13.0985
H -2.49695 14.7582 -12.9368
H -0.9658 14.8613 -13.495
O -3.17427 0.500757 -13.0998
H -3.91514 1.05304 -13.482
H -2.42572 0.444171 -13.7604
O 14.3487 -0.926845 14.9518
H 13.972 -0.791605 14.0354
H 14.067 -1.82117 -14.7203
O -13.5429 7.40736 -14.2615
H -14.1088 6.85135 -14.8703
H -14.1211 7.83339 -13.5657
O 11.7992 -11.4667 3.84701
H 11.9575 -11.8056 4.77444
H 11.2817 -10.612 3.88823
O -5.06238 -5.94739 6.91966
H -5.60489 -6.77556 6.77889
H -5.61851 -5.26003 7.38685
O -4.00411 13.5629 -4.59597
H -3.11956 13.8829 -4.93534
H -4.72375 14.1864 -4.90164
O 10.2945 -2.09917 6.71203
H 9.82084 -1.40423 6.17102
H 9.71837 -2.3716 7.48264
O 3.16288 -0.372497 2.10303
H 2.81055 0.505877 1.78003
H 3.47048 -0.280336 3.05007
O 6.6963 -13.8213 4.34828
H 7.35917 -13.3629 3.75627
H 6.16013 -13.1363 4.84142
O 13.6668 -3.75225 8.81155
H 14.3637 -3.39807 8.18799
H 14.0589 -3.85564 9.72563
O 10.8242 -0.55596 -6.04083
H 10.637 -0.622854 -5.06078
H 11.8117 -0.590919 -6.19471
O -5.52381 -4.37664 12.4757
H -5.86395 -3.48815 12.7837
H -4.82426 -4.24077 11.7742
O 1.78124 12.131 -9.6573
H 0.887985 11.8545 -10.0118
H 2.18019 12.8214 -10.2608
O -14.4612 -5.40159 -0.663947
H -14.7312 -5.69797 -1.58007
H -13.5494 -4.99255 -0.701125
O -3.10274 -3.46115 8.49689
H -2.33605 -2.95151 8.10645
H -3.96185 -3.10235 8.13192
O 12.4824 1.75841 3.28932
H 13.3714 2.21171 3.35378
H 12.5463 0.841618 3.68353
O 3.95407 -2.79331 -9.93445
H 3.39371 -2.38854 -9.21184
H 4.52233 -2.08437 -10.3522
O -1.4444 -6.61373 -13.0765
H -0.955042 -6.2384 -13.8637
H -2.22608 -7.1501 -13.3947
O 0.866015 -14.7681 1.92361
H 0.693699 14.4023 1.42453
H 1.81696 -14.75 2.23246
O -5.73231 5.67761 10.785
H -5.04385 4.9583 10.8779
H -5.31499 6.56544 10.979
O 7.06299 -4.01554 13.8019
H 6.79764 -4.07114 12.8393
H 6.80469 -4.86158 14.2682
O -14.2538 -13.0784 3.94023
H -13.9367 -12.7255 4.82054
H -14.9653 -13.7643 4.09281
O 2.93886 -11.1209 1.35478
H 3.10359 -10.1392 1.25922
H 2.15463 -11.2702 1.95701
O 2.28 2.44497 2.46503
H 2.65097 2.12321 1.59391
H 2.79125 3.2491 2.76835
O 6.5234 6.87035 -10.3657
H 5.74217 6.3633 -10.7298
H 7.19557 6.22784 -9.99776
O -2.01961 12.2617 -12.1479
H -2.96486 12.5062 -12.3641
H -1.78738 12.602 -11.2367
O -3.49677 -14.9629 13.8943
H -3.31938 -14.1271 14.4139
H -2.63018 14.6026 13.6875
O -0.0437662 -5.96728 -10.8699
H 0.604906 -5.20856 -10.9296
H -0.502685 -6.08358 -11.7507
O 1.91753 2.7513 14.8292
H 2.3444 3.24317 -14.4316
H 1.34099 3.3797 14.307
O -7.70138 10.7065 6.0719
H -7.86939 10.3667 6.99725
H -8.15874 10.1122 5.41038
O -7.68671 6.28695 -4.93995
H -7.30635 6.95315 -5.58144
H -8.62272 6.54819 -4.70405
O 4.8126 3.90218 -4.07239
H 4.68931 3.88116 -3.08024
H 4.73308 2.97476 -4.43787
O -8.83736 3.94157 7.38906
H -8.86283 4.33134 6.4685
H -9.3863 4.5062 8.00539
O 8.1123 -9.79003 12.6363
H 7.7165 -9.39561 11.8069
H 8.09126 -10.7878 12.5737
O -7.2747 11.4421 9.49244
H -6.353 11.6183 9.83802
H -7.91122 12.1042 9.888
O -10.8918 11.8378 -8.20581
H -10.763 12.3094 -9.07813
H -10.0226 11.4417 -7.90964
O 9.3188 -5.14876 3.64109
H 8.95579 -5.95641 3.1764
H 9.51138 -4.43511 2.96758
O -11.352 -8.30173 9.51448
H -12.0197 -7.64092 9.85717
H -10.5446 -7.81632 9.17904
O 4.22576 8.71502 -11.822
H 4.30633 8.87786 -10.8387
H 4.59551 9.49877 -12.321
O 2.34155 -5.37999 14.3101
H 1.7568 -4.57786 14.4311
H 2.75269 -5.35827 13.3988
O -6.3949 0.658546 5.87979
H -5.43067 0.650301 5.61482
H -6.55673 1.40469 6.52561
O -11.228 -13.9099 3.90877
H -12.1495 -13.5213 3.90878
H -10.9257 -14.0507 2.96603
O -11.6984 2.32495 4.25435
H -11.256 3.21733 4.34381
H -12.5447 2.31757 4.78695
O -11.9864 -7.91786 0.583516
H -11.7999 -6.93548 0.571396
H -12.3972 -8.18991 -0.28668
O 4.32883 10.8772 -2.54378
H 4.58044 11.2869 -3.42058
H 4.69239 11.4358 -1.79826
O -1.80445 -14.3765 8.45876
H -1.05747 -14.9936 8.70606
H -1.70837 -13.5181 8.96276
O -14.186 -10.2517 12.897
H 14.8737 -10.1303 13.1493
H -13.8976 -11.1826 13.1212
O 7.90538 10.7838 -8.53209
H 8.55656 11.3302 -8.00536
H 7.89648 9.84708 -8.18219
O -9.91585 -14.819 6.00445
H -10.2545 -14.4649 5.1327
H -8.99805 14.8245 5.87747
O 3.18264 -7.02495 -8.20123
H 3.12068 -6.4049 -8.98335
H 3.69429 -7.84295 -8.4641
O -9.01348 -6.47757 -3.20514
H -8.81418 -5.53794 -3.4833
H -9.75158 -6.47602 -2.53044
O -7.9847 -10.7474 -4.11196
H -8.14599 -10.1114 -4.86661
H -8.85987 -11.0156 -3.70925
O 6.66978 3.63556 7.1506
H 7.08515 4.20366 6.44016
H 5.7218 3.92019 7.29311
O 14.8897 10.7535 -3.53499
H -14.1549 10.6378 -3.72424
H 14.6909 10.4402 -2.60637
O -10.6768 -7.18191 -12.0983
H -11.4687 -7.04561 -12.6936
H -10.3992 -6.30462 -11.7067
O -2.33492 11.3128 -4.37607
H -2.25383 11.2014 -3.38561
H -2.97491 12.0545 -4.5768
O 6.82331 -4.86071 7.43534
H 7.5288 -5.52743 7.6757
H 6.00592 -5.3406 7.11662
O 10.3075 14.9276 12.1439
H 11.0596 -14.5651 11.7481
H 9.45279 -14.5838 12.0389
O -3.00541 -2.46 -14.7452
H -2.16593 -1.93612 -14.601
H -3.11761 -3.12084 -14.0031
O -9.49275 -14.9596 -13.0501
H -9.86825 -14.0586 -13.2674
H -8.90944 14.7519 -13.8016
O -4.93891 11.1262 11.4751
H -4.6846 10.5298 10.7138
H -4.15987 11.2275 12.0939
O 9.49197 13.9778 -13.8535
H 10.2047 13.7836 -13.1795
H 8.67326 14.3114 -13.3861
O -8.37692 6.29596 0.0857363
H -7.72838 6.37579 -0.671245
H -8.03076 6.80166 0.875955
O 9.67986 -3.9864 -4.61714
H 10.0816 -4.37735 -5.44523
H 10.3553 -3.40764 -4.16017
O -8.87859 3.59385 1.20696
H -8.53438 4.40708 0.737723
H -8.14442 3.18681 1.75039
O -1.38922 14.3353 -5.14894
H -1.75928 -14.7562 -5.10855
H -0.408767 14.3586 -4.95358
O 0.313345 -5.79985 9.76033
H 0.443846 -5.39419 8.85567
H -0.0271745 -6.73476 9.66043
O 4.63923 -1.42682 11.0091
H 5.55609 -1.72531 10.744
H 4.48372 -0.495447 10.6799
O 10.1713 -9.10903 4.19975
H 9.65134 -8.50336 3.59739
H 11.0341 -8.66984 4.4499
O -5.15137 10.2389 -14.5815
H -5.03734 10.8295 -13.7826
H -4.58856 10.5828 14.6864
O 1.59895 -3.81495 -11.4244
H 2.51638 -3.65429 -11.0604
H 1.00546 -3.04712 -11.1832
O 12.6702 4.97697 8.00157
H 13.4949 4.83541 8.54909
H 11.8851 4.57294 8.47098
O -10.013 -11.6613 -8.97504
H -10.1167 -11.4403 -8.00529
H -10.5195 -10.9967 -9.52435
O -10.0434 -11.3662 5.48897
H -10.9781 -11.6915 5.63237
H -9.39951 -12.1068 5.68108
O 8.74813 -11.0654 -11.2746
H 8.66946 -10.1785 -10.8195
H 8.10378 -11.1065 -12.0383
O -12.6171 13.6595 1.39594
H -13.568 13.8759 1.61694
H -12.5479 13.4099 0.430068
O 12.0799 -0.315671 -10.5898
H 11.1436 -0.0832109 -10.3265
H 12.2549 0.00846576 -11.5194
O -12.375 10.2901 -3.28628
H -12.2407 9.31929 -3.08732
H -11.8071 10.552 -4.06658
O -10.6264 13.1417 -10.7383
H -10.9608 13.1771 -11.6801
H -10.4569 14.0709 -10.4097
O 14.8841 14.3747 8.72048
H -14.3157 14.7566 9.14712
H 14.071 14.7628 9.15423
O -6.11424 -7.98906 -3.80752
H -6.40951 -8.34717 -2.92176
H -6.7262 -8.32486 -4.52359
O 11.9489 6.04516 2.19771
H 12.7599 6.61873 2.08231
H 11.3548 6.14347 1.39937
O 11.6482 -13.6626 2.19666
H 12.0276 -12.8825 2.69422
H 11.8332 -13.5567 1.21964
O 5.35648 -2.95459 4.85299
H 4.72893 -3.38083 5.50452
H 5.09219 -2.00066 4.71092
O 14.057 -14.6958 -1.51069
H 13.2332 -14.1372 -1.41491
H 14.7809 -14.152 -1.93534
O 9.54704 -14.5986 -5.18248
H 10.093 -13.7619 -5.13975
H 9.90008 14.8293 -5.9072
O 12.9011 -3.6895 -8.36712
H 13.5717 -4.3971 -8.14423
H 12.986 -3.44211 -9.33232
O 3.6908 -13.6038 -8.47598
H 3.86554 -13.0226 -9.27073
H 4.40786 -14.2974 -8.40612
O -5.13141 10.3923 4.88897
H -6.00575 10.3506 5.37249
H -4.39121 10.5201 5.54911
O -13.5098 11.7912 8.49112
H -14.3348 12.3432 8.36974
H -13.0678 11.6532 7.60483
O -2.22743 -8.5092 -9.93322
H -1.28332 -8.83736 -9.96414
H -2.6822 -8.87824 -9.12267
O -3.61228 -6.3088 2.25579
H -2.63669 -6.17076 2.42658
H -3.74343 -7.15254 1.73531
O -9.53158 10.3912 8.16102
H -10.0959 10.9742 7.57661
H -8.86062 10.9534 8.64441
O -14.8467 0.299456 -7.41846
H -13.9359 0.359985 -7.82679
H -14.9063 0.927042 -6.6422
O 12.4169 -10.8536 -7.16662
H 12.1464 -11.1816 -8.07178
H 11.9073 -10.0216 -6.94758
O -7.52922 7.54074 2.36835
H -8.38884 7.38416 2.85471
H -7.36946 8.52412 2.282
O 14.4286 11.9286 -12.4016
H 13.5925 11.3806 -12.3756
H 14.7794 12.0457 -11.4725
O -5.33275 9.63139 -1.50828
H -5.89059 10.4433 -1.33624
H -5.00997 9.64317 -2.45468
O -6.02711 7.56846 -10.033
H -6.17499 7.9943 -10.9256
H -5.40336 6.79322 -10.1328
O -5.94016 -12.5405 -4.26504
H -6.65607 -11.8433 -4.30291
H -5.34254 -12.3624 -3.48329
O 13.3284 -12.2699 8.79745
H 14.3276 -12.2386 8.82512
H 13.03 -12.5995 7.90173
O 14.4592 9.79365 -6.22602
H 13.5108 9.52502 -6.39477
H 14.556 10.097 -5.27807
O -8.74344 -1.19828 8.23656
H -8.39989 -1.68123 7.43112
H -7.98679 -0.728795 8.69161
O -4.43558 6.84615 8.19765
H -5.32556 7.10226 8.57495
H -4.46322 6.91753 7.20059
O 8.02506 7.65561 -12.4285
H 7.58527 7.44637 -11.5551
H 7.66517 7.04835 -13.1368
O 6.63825 -14.1215 -6.03736
H 7.57174 -14.1715 -5.68226
H 6.64449 -14.3114 -7.01914
O 5.42959 8.70938 -1.37357
H 5.07575 9.43657 -1.96178
H 6.24289 9.03617 -0.892165
O -14.6455 5.84717 3.79208
H -14.3393 6.16167 4.69059
H -14.5793 6.59857 3.13556
O 6.30965 12.4155 -7.26051
H 5.77487 13.0643 -7.80181
H 6.89428 11.8772 -7.86754
O -6.36628 14.7588 -2.98826
H -6.63474 -14.5499 -3.63831
H -6.23071 -14.8529 -2.08537
O -8.81875 -7.437 8.41986
H -8.46264 -8.31872 8.11041
H -8.65264 -6.74525 7.71709
O -5.03498 -2.5291 6.28538
H -5.92493 -2.73835 5.88015
H -5.16461 -1.96768 7.1027
O 9.20237 -11.9052 -7.41905
H 9.6554 -11.0272 -7.5733
H 9.58282 -12.5903 -8.04032
O 8.34764 14.3949 -10.7029
H 8.38616 13.5376 -11.2163
H 8.64848 -14.8719 -11.2883
O -13.4134 2.79556 -4.8806
H -12.7842 3.29494 -4.28508
H -13.3492 3.15656 -5.81095
O 11.7977 -10.4737 -1.56981
H 12.1518 -9.60473 -1.22411
H 11.279 -10.312 -2.40928
O 2.91982 -9.14552 -2.52435
H 3.80935 -9.57183 -2.36004
H 2.50554 -8.89126 -1.65043
O 13.1294 2.7907 -14.6003
H 13.4763 2.45516 14.5435
H 12.8374 3.74191 -14.6999
O -6.43537 -0.92695 -4.9959
H -6.52356 -1.1483 -5.9671
H -6.21443 -1.75686 -4.48362
O -1.88077 6.52858 13.4552
H -2.17688 6.83316 14.3605
H -2.50255 6.89194 12.7614
O -3.02952 0.946478 3.81526
H -2.86637 1.73329 3.22002
H -3.61116 0.285144 3.34162
O 11.6652 -5.91693 9.27115
H 12.2474 -6.70991 9.0915
H 12.2336 -5.09865 9.3566
O -0.358548 -13.3251 4.63699
H 0.0263356 -12.4044 4.57243
H 0.0597994 -13.9107 3.94267
O -5.26788 -4.90966 4.33036
H -5.34778 -5.16475 5.29397
H -4.53204 -5.43721 3.90582
O 6.58761 -0.447081 -6.06657
H 6.78252 -1.3665 -5.72498
H 7.33576 0.167228 -5.81577
O 0.126041 13.2812 -13.6273
H -0.532092 12.7272 -13.1174
H 0.925249 13.4612 -13.0538
O -4.75898 14.1698 2.68556
H -5.67863 14.3534 3.03273
H -4.10806 14.1795 3.44464
O 12.6231 -11.7318 13.9161
H 12.6498 -10.9459 14.5339
H 12.0858 -12.4651 14.3326
O 7.22159 1.24217 8.16344
H 7.7186 1.28686 9.03003
H 6.96569 2.16576 7.87795
O -2.069 4.25662 -12.4433
H -1.31671 4.88204 -12.2362
H -2.01566 3.977 -13.402
O -10.0054 -10.0016 -1.49535
H -10.5818 -9.92578 -2.30897
H -10.3479 -10.7379 -0.911671
O -14.6887 0.295337 -0.882446
H 14.3775 0.00129347 -0.949419
H -14.1048 -0.500717 -0.723243
O -3.81844 -12.237 -13.5359
H -3.75766 -11.5518 -12.8101
H -3.15633 -12.966 -13.3622
O 1.59012 7.18456 14.6139
H 2.10083 7.26431 -14.5498
H 2.1518 6.71419 13.9332
O 13.4043 -1.62352 -6.45367
H 13.1981 -2.42035 -7.02159
H 13.9317 -0.961848 -6.98665
O -14.8482 7.09819 -10.979
H -13.9404 6.72408 -11.1686
H 14.8977 7.7035 -11.7265
O -13.3732 -9.95193 -7.14776
H -12.7075 -10.6349 -6.84711
H -13.4023 -9.93218 -8.14715
O 4.52915 4.82488 -8.29308
H 3.53689 4.78889 -8.41193
H 4.75482 5.47826 -7.57047
O 14.5398 14.2567 1.069
H 14.6127 14.6908 0.171049
H 13.8592 14.7409 1.61896
O -6.61633 -14.4436 -5.96687
H -6.42015 -13.6552 -5.38382
H -7.55077 -14.3754 -6.3164
O 14.5595 10.4072 9.81109
H -14.6018 10.695 9.38637
H 14.525 10.7417 10.7529
O 6.99506 -11.1003 -13.4889
H 6.14364 -11.4731 -13.8578
H 6.93425 -10.1028 -13.4531
O 14.2582 -4.91725 -12.0891
H 13.7569 -4.17163 -11.6501
H -14.7852 -4.8226 -11.8944
O -13.0188 -6.79836 -13.7005
H -12.9698 -7.75787 -13.9779
H -13.9483 -6.58545 -13.3995
O -9.82811 -0.189468 12.1297
H -9.82458 -0.284136 13.1252
H -8.89843 -0.00859053 11.8088
O -2.92243 -2.54929 4.35988
H -3.61865 -2.56392 5.07757
H -3.29886 -2.94508 3.52223
O 6.43051 14.0206 -13.2697
H 5.70008 13.6018 -13.8092
H 6.65714 13.4267 -12.4978
O -1.66672 -10.2014 0.567618
H -1.85352 -10.4104 -0.392284
H -1.04188 -10.8863 0.942407
O -2.70249 4.47465 -6.95794
H -3.22971 4.69072 -7.77975
H -3.2957 4.53725 -6.15533
O 7.54062 2.8077 -12.5292
H 6.92968 2.92496 -11.7462
H 8.34445 2.28292 -12.249
O 10.7127 14.0401 -7.2424
H 10.5672 13.1449 -7.66353
H 11.5598 14.0249 -6.71121
O 13.7148 -3.60549 11.449
H 13.8382 -4.0138 12.3535
H 12.8348 -3.13184 11.4144
O -5.48928 10.3493 -9.38512
H -5.52187 10.7531 -8.47083
H -5.41041 9.35541 -9.30797
O 4.1345 5.69046 13.6228
H 4.38298 6.64685 13.4693
H 4.29875 5.45299 14.5802
O -8.66668 -0.949879 2.80256
H -7.94338 -1.62819 2.93193
H -8.56316 -0.519086 1.90607
O 9.59796 8.70081 13.9332
H 9.14059 9.57552 13.7729
H 9.01281 7.95532 13.614
O -3.53257 0.690664 8.30315
H -4.01571 1.40829 8.80474
H -3.42234 0.967607 7.3486
O -3.69415 13.9544 -8.40774
H -4.49844 13.4175 -8.15309
H -3.63742 14.766 -7.82628
O -9.59173 -0.351535 5.21306
H -8.92581 0.383997 5.33773
H -9.53623 -0.696091 4.27593
O -0.023986 4.2403 13.2494
H 0.542378 4.29166 12.4268
H -0.618567 5.04303 13.2953
O -0.324742 -9.30513 14.1674
H -0.930451 -8.54976 13.9174
H 0.53527 -9.22353 13.6637
O -4.57909 -6.38197 -8.60859
H -4.12798 -6.32484 -9.49923
H -3.97988 -6.85276 -7.96105
O -5.9386 -10.2699 0.321182
H -6.385 -9.47904 -0.0974281
H -6.62529 -10.9632 0.539925
O 9.36839 -3.86259 12.472
H 9.59787 -2.89334 12.3831
H 8.54944 -3.96073 13.0375
O -6.82747 3.6094 -6.03496
H -7.10339 4.50639 -5.68958
H -7.01842 2.91279 -5.34338
O 3.11933 10.0704 11.6356
H 2.55466 10.0391 10.8109
H 2.69395 10.6761 12.308
O 6.32864 -12.198 11.4437
H 6.46515 -12.8077 12.2245
H 7.18344 -12.1162 10.9312
O -5.75564 -5.36532 -14.6932
H -5.25848 -6.16902 14.9995
H -6.2102 -4.91834 14.5561
O 2.3277 5.12278 -5.1074
H 2.8532 4.27373 -5.16192
H 2.12479 5.44906 -6.03063
O -7.45369 0.0736449 10.5761
H -7.58922 1.02475 10.2986
H -6.50271 -0.0598954 10.8551
O -10.3631 -3.19784 1.33307
H -9.65781 -2.4925 1.40424
H -10.8051 -3.31812 2.22198
O -5.32628 -1.34002 14.015
H -6.15637 -1.6884 14.4504
H -4.52945 -1.60058 14.5602
O 13.8333 -8.75745 -12.1776
H 13.707 -8.57273 -11.203
H 14.5618 -9.43196 -12.2973
O 2.3129 10.6247 -14.6827
H 2.59024 10.0966 -13.8801
H 1.37233 10.3896 -14.9277
O -11.8255 4.36752 -9.72963
H -11.7172 5.03145 -8.98972
H -12.0061 4.85009 -10.5867
O 13.9224 11.7058 -8.1723
H 14.2975 11.3283 -7.32565
H 13.6732 12.6636 -8.02858
O 7.1061 -6.89467 14.5134
H 6.49428 -7.09503 13.7482
H 7.83705 -7.57645 14.5431
O -12.0561 7.20415 1.75972
H -12.4112 6.42892 1.23731
H -11.9255 7.98553 1.14947
O -11.6507 -11.8009 -6.37154
H -12.107 -12.6351 -6.06175
H -11.4166 -11.2356 -5.58056
O -6.77198 -1.07346 -7.69881
H -6.3513 -0.229071 -8.03054
H -6.20866 -1.85461 -7.96803
O 4.21226 -10.9776 -14.7642
H 4.24365 -10.4789 14.3893
H 3.60425 -11.7662 -14.8555
O -3.56061 -3.88356 -3.76218
H -2.78537 -3.79272 -4.38728
H -3.83959 -4.84266 -3.71432
O 0.794635 -2.08963 8.16759
H 0.458282 -2.97052 8.50061
H 1.10905 -2.18824 7.22344
O 7.20302 -1.21256 9.73393
H 7.5247 -2.15783 9.78856
H 7.54537 -0.791998 8.89374
O 3.8988 -11.8254 9.95608
H 4.71321 -11.9447 10.524
H 4.1559 -11.8713 8.99078
O -4.2779 7.95512 12.2474
H -5.27347 7.92182 12.3354
H -4.0339 8.41549 11.3939
O -3.05099 6.68837 4.00482
H -2.63067 6.87046 4.89374
H -2.3356 6.54474 3.32101
O 2.31346 -8.58306 13.2592
H 2.18047 -7.60592 13.4251
H 3.28868 -8.77187 13.1439
O 5.08717 1.78284 3.65525
H 4.85497 2.73457 3.85599
H 5.47503 1.72122 2.7356
O 6.87261 0.829434 -8.66954
H 6.19055 1.27788 -9.24719
H 6.45911 0.588187 -7.79158
O 12.0596 12.3379 7.4446
H 12.8525 11.7344 7.36013
H 12.1979 12.9644 8.21168
O 10.3165 10.5055 6.26764
H 10.8689 9.93575 5.65921
H 10.9096 11.1495 6.75087
O 3.25312 -14.71 2.98473
H 2.97217 14.4586 3.42839
H 4.24611 -14.6119 3.05055
O 3.29753 -3.8619 6.58337
H 2.60272 -4.58012 6.62085
H 2.85105 -2.96826 6.53794
O 7.34148 -8.57889 -5.87323
H 7.14131 -9.55273 -5.98082
H 7.02587 -8.27091 -4.9757
O 11.8615 3.0578 -10.5552
H 12.0118 2.19044 -10.0808
H 12.6704 3.2859 -11.097
O -6.05883 -13.6914 -10.7211
H -5.56317 -13.4552 -9.88532
H -6.63608 -12.9221 -10.9949
O 7.28583 4.71743 0.788907
H 6.29237 4.72005 0.903065
H 7.61695 5.65912 0.729136
O 14.1353 6.18886 11.57
H 14.4068 5.65248 10.7709
H 13.1415 6.15094 11.675
O 12.7216 2.34061 -6.91904
H 12.0536 1.61004 -7.06054
H 12.7371 2.59538 -5.95217
O -4.4023 1.73867 -5.52061
H -3.9926 1.02624 -6.09034
H -5.03866 2.28003 -6.07014
O -1.59075 7.26585 0.671331
H -2.34461 7.91982 0.734769
H -0.731004 7.75982 0.541581
O -8.54661 5.85023 10.5609
H -8.90638 5.85045 11.494
H -7.59154 5.55407 10.572
O -9.10661 -2.3464 -4.14567
H -8.25323 -2.77046 -3.84247
H -9.00323 -2.02547 -5.08711
O 0.875088 13.6183 -7.5089
H 0.747255 14.5795 -7.75302
H 1.33173 13.1415 -8.26001
O 13.7407 7.89602 1.44306
H 13.5452 8.83639 1.72146
H 14.3453 7.90304 0.646548
O -1.82472 9.76686 -13.0211
H -1.74922 10.735 -12.7822
H -1.07811 9.5164 -13.6374
O -3.85479 13.6805 -1.94737
H -3.06971 13.0742 -2.07436
H -4.17901 13.9971 -2.83877
O 1.80339 -12.8235 -5.05599
H 1.65832 -11.8871 -4.73647
H 1.21905 -12.9997 -5.84813
O 8.59889 1.43202 -2.58121
H 8.84901 2.15233 -1.93422
H 8.07224 0.726378 -2.10717
O 7.78409 4.43057 -3.09947
H 8.40681 4.84835 -3.76105
H 6.97246 4.09043 -3.57441
O 5.53979 3.74091 -14.4735
H 6.06063 3.26343 -13.7659
H 5.15249 3.07365 14.91
O -9.5845 -4.34552 -12.3857
H -9.15566 -4.93462 -13.0706
H -9.90457 -3.50485 -12.8226
O 11.8288 10.8889 0.832672
H 11.6225 11.8657 0.888654
H 11.0316 10.3623 1.1279
O 11.7068 13.7494 -12.0552
H 12.6293 13.7224 -12.4401
H 11.7098 13.3203 -11.1519
O 9.546 3.27911 -0.763574
H 9.93779 3.87945 -1.46078
H 8.85464 3.77992 -0.24279
O -12.4575 -0.141281 11.7247
H -12.9674 -0.689584 12.3876
H -11.545 0.0531538 12.0845
O -12.003 6.22963 -7.29978
H -12.8352 6.65113 -6.93936
H -11.2058 6.61661 -6.83648
O 2.30881 9.28679 4.18995
H 2.70965 9.00976 3.31669
H 1.3536 9.54776 4.05039
O 13.64 -5.39986 13.774
H 12.826 -5.83503 14.1586
H 14.295 -6.10323 13.4979
O -3.54829 -13.6141 0.504484
H -3.73232 -14.4069 1.08555
H -3.96329 -12.7998 0.910375
O -1.66297 -7.7815 6.22791
H -2.52493 -8.04145 6.66317
H -1.55541 -6.78813 6.26841
O 8.22941 13.3039 1.86226
H 8.14453 12.3689 1.51787
H 9.00231 13.3573 2.49453
O -9.24663 11.6953 -13.1478
H -8.69111 12.4485 -13.5001
H -8.86746 11.38 -12.2779
O -6.23335 8.56345 -12.5385
H -5.64138 9.08002 -13.1571
H -7.10089 9.0478 -12.4254
O 3.52205 3.70736 11.7146
H 3.83904 2.97429 12.3163
H 3.64748 4.58929 12.169
O 0.809358 -11.098 -8.23564
H 1.63535 -10.7982 -8.71298
H 0.438511 -10.3381 -7.70182
O -12.9859 -8.67387 5.5992
H -12.5852 -7.88417 6.06376
H -12.9443 -8.53499 4.60976
O -5.70647 -0.682161 0.47724
H -6.0084 -1.32764 1.17881
H -5.47106 -1.1819 -0.356333
O 12.1563 -9.79603 9.20271
H 12.3983 -9.62023 10.1569
H 12.6041 -10.6354 8.89451
O -6.31418 5.47663 14.041
H -6.75429 6.32322 13.7417
H -5.7895 5.65034 14.8744
O -2.96879 11.1537 13.2068
H -2.35848 10.3615 13.2031
H -2.50518 11.9296 13.6346
O 13.9793 -1.29056 1.6016
H 13.2109 -1.00922 1.02679
H 13.7711 -1.08874 2.55863
O 0.841928 -3.255 14.4986
H 1.33548 -2.51462 14.0422
H 0.049812 -2.8802 14.9804