LAMMPS data file via write_data, version 15 May 2015, timestep = 2000000

2611 atoms
6 atom types
1749 bonds
4 bond types
894 angles
3 angle types
44 dihedrals
3 dihedral types
10 impropers
1 improper types

-1.5156234654054717e+01 1.5156234654054717e+01 xlo xhi
-1.5156234654054717e+01 1.5156234654054717e+01 ylo yhi
-1.5156234654054717e+01 1.5156234654054717e+01 zlo zhi

Masses

1 15.9994
2 1.00794
3 12.0107
4 1.00794
5 12.0107
6 12.0107

Bond Coeffs # harmonic

1 1000 1
2 469 1.4
3 367 1.08
4 469 0.7

Angle Coeffs # harmonic

1 100 109.47
2 35 120
3 63 120

Dihedral Coeffs # opls

1 0 7.25 0 0
2 0 7.25 0 0
3 0 7.25 0 0

Improper Coeffs # cvff

1 2.5 -1 2

Atoms # full

283 95 1 -8.1999999999999995e-01 -9.6380642404663774e+00 -8.4503700537363731e+00 -1.0908127472026205e+01 0 -1 1
69 23 2 4.0999999999999998e-01 -1.3800375223082741e+01 -1.3551979847046496e+01 -1.2447184437718926e+01 0 -2 -1
2313 771 2 4.0999999999999998e-01 -7.7499101607156851e+00 -1.0276979637355684e+01 -1.4843376939001995e+01 2 0 1
1028 343 2 4.0999999999999998e-01 -1.4565419409159903e+01 -6.1918305442343069e+00 -1.1284340414361999e+01 1 -1 -1
2073 691 2 4.0999999999999998e-01 -7.6310020554515452e+00 -5.1710496538825712e+00 -8.9059059455209564e+00 3 0 -1
1780 594 1 -8.1999999999999995e-01 -1.2075383596211061e+01 -1.1640786796728699e+01 -8.2344184931334148e+00 0 1 1
53 18 2 4.0999999999999998e-01 -9.1990398335133285e+00 -6.6410959188617102e+00 -1.1080474846201209e+01 -1 0 0
68 23 2 4.0999999999999998e-01 -1.2348595741776595e+01 -1.2869074502438432e+01 -1.2143067307524282e+01 0 -2 -1
2572 858 1 -8.1999999999999995e-01 -8.9801139888053676e+00 -1.0525555117739220e+01 -1.2509910376259821e+01 0 1 0
285 95 2 4.0999999999999998e-01 -9.2557955415808912e+00 -8.9625950388344719e+00 -1.1677187116417981e+01 0 -1 1
597 199 2 4.0999999999999998e-01 -1.2111844823575765e+01 -1.3573431289873758e+01 -8.8730051217785828e+00 1 0 0
2169 723 2 4.0999999999999998e-01 -1.1947283480931025e+01 -8.0190174825434006e+00 -8.5775878310419262e+00 3 -1 0
595 199 1 -8.1999999999999995e-01 -1.2673255580387599e+01 -1.4391690283414214e+01 -8.9964016692277333e+00 1 0 0
284 95 2 4.0999999999999998e-01 -9.3132534390730655e+00 -8.8466109164681122e+00 -1.0049379746828240e+01 0 -1 1
2286 762 2 4.0999999999999998e-01 -1.1263372819691538e+01 -1.1751760402078110e+01 -1.0154539759689790e+01 1 1 0
2284 762 1 -8.1999999999999995e-01 -1.1236492947438917e+01 -1.1753185005649959e+01 -1.1154155734677076e+01 1 1 0
2189 730 2 4.0999999999999998e-01 -1.1933585415438998e+01 -8.8202308654698207e+00 -1.3016324045552793e+01 2 -1 0
2285 762 2 4.0999999999999998e-01 -1.1725554538480148e+01 -1.0953267733837862e+01 -1.1501873530574562e+01 1 1 0
2188 730 1 -8.1999999999999995e-01 -1.1960286907198606e+01 -9.3162108032146591e+00 -1.2148425754155820e+01 2 -1 0
2190 730 2 4.0999999999999998e-01 -1.1343859552640689e+01 -8.8773919258581699e+00 -1.1494658331182039e+01 2 -1 0
890 297 2 4.0999999999999998e-01 -1.0785402284483116e+01 -1.0887014154878498e+01 -1.4380368844210512e+01 1 -1 0
67 23 1 -8.1999999999999995e-01 -1.2953720025936207e+01 -1.3215850905879552e+01 -1.2859675467543024e+01 0 -2 -1
866 289 2 4.0999999999999998e-01 -1.0709719844312488e+01 -5.5889272028219334e+00 -9.4745587501113526e+00 1 -1 2
865 289 1 -8.1999999999999995e-01 -1.1399445512391001e+01 -6.1816303300685238e+00 -9.0587005818148576e+00 1 -1 2
535 179 1 -8.1999999999999995e-01 -9.4154302933918430e+00 -9.2457832929752524e+00 -8.0506842932630036e+00 1 0 1
537 179 2 4.0999999999999998e-01 -1.0399679908452125e+01 -9.0700922570282057e+00 -8.0691762226331605e+00 1 0 1
867 289 2 4.0999999999999998e-01 -1.1852212330172106e+01 -5.6935604070963777e+00 -8.3125461160501573e+00 1 -1 2
733 245 1 -8.1999999999999995e-01 -9.5297594180216194e+00 -1.3228743639387849e+01 -1.4046564576757639e+01 1 1 -1
2076 692 2 4.0999999999999998e-01 -8.1058331153214258e+00 -6.4568915507270894e+00 -1.4498651067348222e+01 1 0 1
735 245 2 4.0999999999999998e-01 -1.0239077397957953e+01 -1.2723686432946709e+01 -1.4538236973388068e+01 1 1 -1
1509 503 2 4.0999999999999998e-01 -1.2022689182620224e+01 -1.4545300051365638e+01 -1.3761725033905806e+01 1 1 0
343 115 1 -8.1999999999999995e-01 -1.1284905479101049e+01 -8.2015078873733955e+00 -1.4355699263826525e+01 0 1 3
2074 692 1 -8.1999999999999995e-01 -8.7050680077153935e+00 -7.1664944525902241e+00 -1.4869242192725222e+01 1 0 1
1508 503 2 4.0999999999999998e-01 -1.0479274131350602e+01 -1.5007275891016590e+01 -1.4028106100894737e+01 1 1 0
1781 594 2 4.0999999999999998e-01 -1.2210708583013766e+01 -1.0650935931215393e+01 -8.1915350890736320e+00 0 1 1
54 18 2 4.0999999999999998e-01 -8.9162734505451695e+00 -5.2911961249639692e+00 -1.1954731250781581e+01 -1 0 0
2574 858 2 4.0999999999999998e-01 -8.3052228633763789e+00 -1.1225899304255009e+01 -1.2742281846544248e+01 0 1 0
2573 858 2 4.0999999999999998e-01 -9.7292130830744874e+00 -1.0942352651668608e+01 -1.1995044476534375e+01 0 1 0
734 245 2 4.0999999999999998e-01 -8.7197325761614444e+00 -1.3315564011277262e+01 -1.4626457053668092e+01 1 1 -1
2071 691 1 -8.1999999999999995e-01 -7.6654670779581595e+00 -5.5755562558747567e+00 -7.9920442829396263e+00 3 0 -1
345 115 2 4.0999999999999998e-01 -1.0366016412359201e+01 -7.9888433542841897e+00 -1.4687923945279341e+01 0 1 3
596 199 2 4.0999999999999998e-01 -1.3023047337972418e+01 -1.4692800533590960e+01 -8.1093081707353090e+00 1 0 0
1029 343 2 4.0999999999999998e-01 -1.3117080161113101e+01 -6.0053354154801895e+00 -1.0553557546312064e+01 1 -1 -1
195 65 2 4.0999999999999998e-01 -8.9629805315156297e+00 -1.3312266376679366e+01 -1.1686835358427695e+01 0 -2 0
194 65 2 4.0999999999999998e-01 -7.7381802305028513e+00 -1.2966746966374110e+01 -1.0663609515830455e+01 0 -2 0
2167 723 1 -8.1999999999999995e-01 -1.2012436969609155e+01 -8.8463306331453762e+00 -8.0196769950523805e+00 3 -1 0
740 247 2 4.0999999999999998e-01 -1.3096171137210531e+01 -1.2577094462378493e+01 -1.4942252580125299e+01 1 1 0
344 115 2 4.0999999999999998e-01 -1.1959685896682661e+01 -7.9167446264313135e+00 -1.5036535395563869e+01 0 1 3
1265 422 2 4.0999999999999998e-01 -1.4461973566477601e+01 -9.4120845162793216e+00 -1.1705116367939679e+01 1 2 0
52 18 1 -8.1999999999999995e-01 -9.3977735713563302e+00 -5.6644414196000650e+00 -1.1161760807551241e+01 -1 0 0
1001 334 2 4.0999999999999998e-01 -1.3059693810257187e+01 -5.5848588947194227e+00 -1.4672889408418570e+01 0 -2 0
193 65 1 -8.1999999999999995e-01 -8.1744868851095092e+00 -1.3688759964918047e+01 -1.1200536189068451e+01 0 -2 0
1027 343 1 -8.1999999999999995e-01 -1.4085679029936863e+01 -5.7589095625375197e+00 -1.0521198793850651e+01 1 -1 -1
2072 691 2 4.0999999999999998e-01 -6.7446198423186328e+00 -5.5987486574990424e+00 -7.6028668659347645e+00 3 0 -1
903 301 2 4.0999999999999998e-01 -3.9544884728314482e+00 -8.0360854094565752e+00 -1.3908130073562187e+01 0 -1 -1
269 90 2 4.0999999999999998e-01 -7.4914352130264730e+00 -1.4669784207604687e+01 -1.2833761306134893e+01 -1 1 0
170 57 2 4.0999999999999998e-01 -4.4089893232067112e-01 -8.7611534288661765e+00 -1.3985752648073600e+01 0 -1 2
1426 476 1 -8.1999999999999995e-01 -2.8731841237918552e+00 -7.3252499856314692e+00 -8.5019443618880075e+00 0 -1 1
1622 541 2 4.0999999999999998e-01 -3.1295492543993753e+00 -1.1856641448618856e+01 -8.9816397505271013e+00 1 0 -1
1865 622 2 4.0999999999999998e-01 -7.4836738841514627e+00 -7.5554744095175215e+00 -1.2400062789153734e+01 1 -1 -1
2174 725 2 4.0999999999999998e-01 -1.8609874128010766e+00 -1.4956154662906762e+01 -1.4239332409865408e+01 0 -1 2
928 310 1 -8.1999999999999995e-01 -3.5731729433548658e+00 -1.4252188208948811e+01 -1.4026780357942762e+01 0 0 2
1623 541 2 4.0999999999999998e-01 -3.5928415888280369e+00 -1.3226127749859840e+01 -8.2224440630320395e+00 1 0 -1
270 90 2 4.0999999999999998e-01 -6.6507629753226887e+00 -1.4746441105089241e+01 -1.4231582646818431e+01 -1 1 0
1164 388 2 4.0999999999999998e-01 -2.9619557830493513e+00 -1.2182603862534121e+01 -1.1602843105965807e+01 0 0 0
1428 476 2 4.0999999999999998e-01 -2.2164710978563580e+00 -7.1841931674929738e+00 -7.7611424215585068e+00 0 -1 1
2041 681 1 -8.1999999999999995e-01 -2.3029995478872127e+00 -1.4393446638177886e+01 -1.1303038055068928e+01 0 -1 2
1940 647 2 4.0999999999999998e-01 -6.6075470404567831e+00 -1.1355373773636556e+01 -1.0124968202960781e+01 0 -1 0
679 227 1 -8.1999999999999995e-01 -1.4598616656985950e+00 -6.5674156942867121e+00 -1.0794798368833327e+01 0 1 1
1850 617 2 4.0999999999999998e-01 -3.5252148533228507e+00 -9.1317136765810893e+00 -9.1590620593822081e+00 1 -1 0
1109 370 2 4.0999999999999998e-01 -7.5578645984859856e+00 -1.4606375472381105e+01 -9.1964478380705188e+00 1 0 0
943 315 1 -8.1999999999999995e-01 -2.3049403494859000e-01 -1.2297027186336310e+01 -1.3194326189516657e+01 0 1 -1
1866 622 2 4.0999999999999998e-01 -6.2915626902490409e+00 -6.9788643546419742e+00 -1.1444603530957590e+01 1 -1 -1
274 92 1 -8.1999999999999995e-01 -1.4843368207106167e+00 -8.9138851896225368e+00 -1.2573185854122318e+01 0 1 0
681 227 2 4.0999999999999998e-01 -4.9248298275156621e-01 -6.6456448255225968e+00 -1.1035661879163214e+01 0 1 1
929 310 2 4.0999999999999998e-01 -3.3887240572222908e+00 -1.4662400093238048e+01 -1.3133661474480217e+01 0 0 2
1162 388 1 -8.1999999999999995e-01 -2.9474014428988760e+00 -1.1499875127005897e+01 -1.2333340324186622e+01 0 0 0
1904 635 2 4.0999999999999998e-01 -5.9013505383870761e+00 -1.0954418404266384e+01 -1.2361270038057242e+01 2 0 0
1905 635 2 4.0999999999999998e-01 -6.1437600361720470e+00 -9.4522443200058675e+00 -1.1768630828800413e+01 2 0 0
1621 541 1 -8.1999999999999995e-01 -3.0734732563779605e+00 -1.2854990710625220e+01 -8.9921650379204099e+00 1 0 -1
321 107 2 4.0999999999999998e-01 -4.5531902006021756e+00 -6.5621366567482475e+00 -7.9355887210999230e+00 0 2 -1
1849 617 1 -8.1999999999999995e-01 -3.5437630772596940e+00 -1.0130514018391867e+01 -9.2038991237759760e+00 1 -1 0
185 62 2 4.0999999999999998e-01 -5.9142618358503736e+00 -1.1582716287935082e+01 -1.4631271988837117e+01 0 1 2
2173 725 1 -8.1999999999999995e-01 -8.7450068130688763e-01 -1.5111856279291585e+01 -1.4289903711396258e+01 0 -1 2
184 62 1 -8.1999999999999995e-01 -5.0167223339015887e+00 -1.1618846816959952e+01 -1.4191870193195575e+01 0 1 2
1427 476 2 4.0999999999999998e-01 -2.4122416515088041e+00 -7.2118475582508550e+00 -9.3820741715197009e+00 0 -1 1
275 92 2 4.0999999999999998e-01 -1.8039737012333692e+00 -7.9754731177214611e+00 -1.2442145511834749e+01 0 1 0
2043 681 2 4.0999999999999998e-01 -1.3797338145251423e+00 -1.4767978308443569e+01 -1.1217814887603959e+01 0 -1 2
945 315 2 4.0999999999999998e-01 -3.7394431711429554e-01 -1.3285188964495966e+01 -1.3140336548343379e+01 0 1 -1
1851 617 2 4.0999999999999998e-01 -4.2076808213206096e+00 -1.0420950865615939e+01 -9.8929681974831816e+00 1 -1 0
186 62 2 4.0999999999999998e-01 -4.3305548782544481e+00 -1.1223423626770693e+01 -1.4802420315757233e+01 0 1 2
1939 647 1 -8.1999999999999995e-01 -7.0329730980114142e+00 -1.1871139469717065e+01 -9.3813587999125865e+00 0 -1 0
680 227 2 4.0999999999999998e-01 -1.5814452740324665e+00 -5.8195089641592279e+00 -1.0142257575058267e+01 0 1 1
901 301 1 -8.1999999999999995e-01 -3.5272203573053851e+00 -7.3937263144855576e+00 -1.4544348018233558e+01 0 -1 -1
2042 681 2 4.0999999999999998e-01 -2.5035340171897893e+00 -1.3817546475299645e+01 -1.0510522148722313e+01 0 -1 2
242 81 2 4.0999999999999998e-01 -2.8085910448566285e+00 -5.8498862329198893e+00 -1.3771824421618531e+01 1 0 0
276 92 2 4.0999999999999998e-01 -2.2443397455017386e+00 -9.5478753155424076e+00 -1.2430327019865500e+01 0 1 0
1903 635 1 -8.1999999999999995e-01 -6.0275855700222429e+00 -1.0415907562707339e+01 -1.1528187026712999e+01 2 0 0
1941 647 2 4.0999999999999998e-01 -6.4260325986979137e+00 -1.1872198812253680e+01 -8.5866395856799045e+00 0 -1 0
930 310 2 4.0999999999999998e-01 -4.4089474885266249e+00 -1.3705484582881612e+01 -1.3976257105817648e+01 0 0 2
1163 388 2 4.0999999999999998e-01 -3.5328212597587356e+00 -1.1803501954548992e+01 -1.3085039082723311e+01 0 0 0
1864 622 1 -8.1999999999999995e-01 -6.5472772243111343e+00 -7.7051015598300463e+00 -1.2082683627572488e+01 1 -1 -1
944 315 2 4.0999999999999998e-01 -1.1018506948041598e+00 -1.1825785195219908e+01 -1.3057852275404613e+01 0 1 -1
1755 585 2 4.0999999999999998e-01 -1.2228679796979414e-01 -1.2335300177195318e+01 -1.1096761845394315e+01 0 1 -1
1932 644 2 4.0999999999999998e-01 -9.9803418188389141e+00 -1.4637181562737226e+01 -1.6274900984477085e+00 2 1 -1
2201 734 2 4.0999999999999998e-01 -1.1249590316911814e+01 -9.2007555698075478e+00 -1.5325727427777753e+00 -1 -1 0
2202 734 2 4.0999999999999998e-01 -1.1233660951605733e+01 -8.3525842111866808e+00 -2.9278727647256293e+00 -1 -1 0
2200 734 1 -8.1999999999999995e-01 -1.1815863943736634e+01 -8.8246581117056770e+00 -2.2659494828428315e+00 -1 -1 0
1601 534 2 4.0999999999999998e-01 -1.2885309716203343e+01 -1.3740437320375580e+01 -5.3130695059474480e+00 1 2 0
746 249 2 4.0999999999999998e-01 -1.3985394044363435e+01 -1.0064554458460595e+01 -2.3659549299220402e+00 1 0 -1
2036 679 2 4.0999999999999998e-01 -1.3484714019836600e+01 -1.1839152099129800e+01 -3.8162601537722125e+00 0 2 -1
664 222 1 -8.1999999999999995e-01 -1.4822311822348420e+01 -1.0942211238596558e+01 -6.4114492017116849e+00 1 1 -1
2035 679 1 -8.1999999999999995e-01 -1.2825258294729661e+01 -1.2293772880501539e+01 -4.4149208475187383e+00 0 2 -1
931 311 1 -8.1999999999999995e-01 -1.3926884091155484e+01 -1.4966430719286409e+01 -1.8738120075458866e+00 1 0 0
2037 679 2 4.0999999999999998e-01 -1.2098141440738438e+01 -1.1651838914777194e+01 -4.6581870019183995e+00 0 2 -1
165 55 2 4.0999999999999998e-01 -8.8410929295975436e+00 -1.1955375188767459e+01 -1.3369683630907634e+00 0 -1 -1
1559 520 2 4.0999999999999998e-01 -9.4021092249717917e+00 -6.8991554388232661e+00 -2.6849670199343496e+00 -2 -1 0
1226 409 2 4.0999999999999998e-01 -9.9587416682537864e+00 -1.1178377323362493e+01 -5.7414234710249517e+00 1 0 -1
1225 409 1 -8.1999999999999995e-01 -1.0687812730492659e+01 -1.0835747868738039e+01 -5.1489565831481308e+00 1 0 -1
1227 409 2 4.0999999999999998e-01 -1.0332688450667067e+01 -1.0096361553127847e+01 -4.5769852807963591e+00 1 0 -1
1834 612 1 -8.1999999999999995e-01 -8.4803319637119152e+00 -1.1515483067087112e+01 -6.6133148273981774e+00 3 0 1
1915 639 1 -8.1999999999999995e-01 -1.3593287696119965e+01 -7.2782340225394675e+00 -6.5844777267233745e-01 2 0 1
2527 843 1 -8.1999999999999995e-01 -1.0130603402957734e+01 -7.4579443957994593e+00 -4.0794032003002290e+00 0 0 0
1916 639 2 4.0999999999999998e-01 -1.2817288783990728e+01 -7.8360050824117913e+00 -9.5285169047237162e-01 2 0 1
2528 843 2 4.0999999999999998e-01 -1.0988849229086076e+01 -7.4826063126485076e+00 -4.5920068658658995e+00 0 0 0
1600 534 1 -8.1999999999999995e-01 -1.2984147762585550e+01 -1.4503509576632210e+01 -5.9517465160382645e+00 1 2 0
2529 843 2 4.0999999999999998e-01 -9.3753236482009825e+00 -7.2575741615761986e+00 -4.7033910281053952e+00 0 0 0
1560 520 2 4.0999999999999998e-01 -8.3093313024318132e+00 -5.7568719124707997e+00 -2.2756561900347485e+00 -2 -1 0
2246 749 2 4.0999999999999998e-01 -9.4837142253143032e+00 -1.1601329000660616e+01 -3.5629282508189970e+00 2 0 -1
1836 612 2 4.0999999999999998e-01 -8.7393231611172695e+00 -1.0911979827485293e+01 -7.3674129396578172e+00 3 0 1
2385 795 2 4.0999999999999998e-01 -1.4216523474293233e+01 -6.1935920075220210e+00 -3.9497689960664122e+00 1 0 -1
1558 520 1 -8.1999999999999995e-01 -9.0060707274429710e+00 -6.3829476159310587e+00 -1.9255991188437012e+00 -2 -1 0
1379 460 2 4.0999999999999998e-01 -8.2276609559313076e+00 -6.8610714643995525e+00 -6.9243372696422867e+00 -1 -1 1
1487 496 2 4.0999999999999998e-01 -1.1010477818488468e+01 -1.4864579648038518e+01 -3.3167315453295974e+00 1 0 1
1378 460 1 -8.1999999999999995e-01 -8.3232393650975922e+00 -7.6626177342193973e+00 -6.3341297773434064e+00 -1 -1 1
1880 627 2 4.0999999999999998e-01 -1.3773900580464172e+01 -7.6430605936980571e+00 -5.5482561772691081e+00 0 -1 1
1825 609 1 -8.1999999999999995e-01 -1.0570066505246109e+01 -9.9739798432848215e+00 -2.7139299359055791e-01 0 -1 0
2384 795 2 4.0999999999999998e-01 -1.3665321948596912e+01 -6.7666679811336419e+00 -2.5234901417870308e+00 1 0 -1
666 222 2 4.0999999999999998e-01 -1.4885353636479035e+01 -9.9952567987452348e+00 -6.0963943348356491e+00 1 1 -1
933 311 2 4.0999999999999998e-01 -1.4677635787930644e+01 -1.4309277662775736e+01 -1.8068920643455968e+00 1 0 0
163 55 1 -8.1999999999999995e-01 -8.9267015748420278e+00 -1.2186863644119917e+01 -3.6792716171879292e-01 0 -1 -1
164 55 2 4.0999999999999998e-01 -8.8489946160181425e+00 -1.3177253057026805e+01 -2.5370352877278712e-01 0 -1 -1
2090 697 2 4.0999999999999998e-01 -7.8079994511503186e+00 -1.5012246734731146e+01 -3.4375633363290365e+00 -1 0 -1
932 311 2 4.0999999999999998e-01 -1.3069535120114271e+01 -1.4477714220577964e+01 -2.0352599549261949e+00 1 0 0
2091 697 2 4.0999999999999998e-01 -8.1418356855590552e+00 -1.4886474459731950e+01 -5.0310643155271766e+00 -1 0 -1
2124 708 2 4.0999999999999998e-01 -1.3036401948606709e+01 -5.2646389503052777e+00 -5.3047719136649647e+00 1 1 0
1486 496 1 -8.1999999999999995e-01 -1.1341953964359385e+01 -1.4080585439500144e+01 -2.7919142280136562e+00 1 0 1
299 100 2 4.0999999999999998e-01 -9.8581418622901360e+00 -5.5029031163062392e+00 -6.8156036656003316e-01 -1 1 1
2168 723 2 4.0999999999999998e-01 -1.2244812469508325e+01 -8.5969383870719511e+00 -7.0795909937204264e+00 3 -1 0
1488 496 2 4.0999999999999998e-01 -1.2075198664298874e+01 -1.3626624445147410e+01 -3.2981040688117798e+00 1 0 1
1827 609 2 4.0999999999999998e-01 -9.9918290743324647e+00 -1.0788270764358604e+01 -2.2111057598044148e-01 0 -1 0
1514 505 2 4.0999999999999998e-01 -8.6289755208404344e+00 -7.2657209298074967e+00 -2.5461951663060667e-01 0 -1 1
745 249 1 -8.1999999999999995e-01 -1.4484059154635665e+01 -1.0710869451670529e+01 -2.9435071376619479e+00 1 0 -1
2247 749 2 4.0999999999999998e-01 -8.4756171560843363e+00 -1.2876923559625240e+01 -3.4109106841704904e+00 2 0 -1
2245 749 1 -8.1999999999999995e-01 -8.6272432205627929e+00 -1.1921410399312389e+01 -3.1580062309532888e+00 2 0 -1
1879 627 1 -8.1999999999999995e-01 -1.3034301288111314e+01 -8.2966745697974407e+00 -5.3878249411657375e+00 0 -1 1
2089 697 1 -8.1999999999999995e-01 -7.7015408357207216e+00 -1.4441128719397533e+01 -4.2514720153868382e+00 -1 0 -1
2383 795 1 -8.1999999999999995e-01 -1.3664219246680153e+01 -5.9820541213091403e+00 -3.1434388623442686e+00 1 0 -1
1881 627 2 4.0999999999999998e-01 -1.3138823637659847e+01 -8.7019670887984990e+00 -4.4796566910131919e+00 0 -1 1
2122 708 1 -8.1999999999999995e-01 -1.2385070710924049e+01 -5.0661811535975989e+00 -6.0371233743344650e+00 1 1 0
536 179 2 4.0999999999999998e-01 -8.9862125922494194e+00 -8.6654669773675543e+00 -7.3586137084071090e+00 1 0 1
1782 594 2 4.0999999999999998e-01 -1.2370040605842428e+01 -1.2055091512166134e+01 -7.3733230442346152e+00 0 1 1
1930 644 1 -8.1999999999999995e-01 -9.3857808667622962e+00 -1.4968300242729073e+01 -8.9481402705386692e-01 2 1 -1
2362 788 1 -8.1999999999999995e-01 -1.5128400491154597e+01 -6.4852675487246820e+00 -5.3881981101987737e+00 2 -1 1
396 132 2 4.0999999999999998e-01 -1.5138164102094056e+01 -7.6720978747771431e+00 -1.0898228188424302e+00 0 0 -1
1917 639 2 4.0999999999999998e-01 -1.3264888064260212e+01 -6.5236089194182476e+00 -9.0423876787722790e-02 2 0 1
1835 612 2 4.0999999999999998e-01 -7.5670299171861517e+00 -1.1886255891281657e+01 -6.7817292746710862e+00 3 0 1
1092 364 2 4.0999999999999998e-01 -6.3811758240914607e-01 -8.3408250195405085e+00 -6.2551884698266278e+00 0 2 -1
2235 745 2 4.0999999999999998e-01 -4.1374392006104976e-01 -1.0873310357367181e+01 -6.6103969608552138e+00 0 0 0
1380 460 2 4.0999999999999998e-01 -7.4571683123604968e+00 -7.8366630789459499e+00 -5.8655300976893106e+00 -1 -1 1
1208 403 2 4.0999999999999998e-01 -5.6186804788816005e+00 -7.1478906503210879e+00 -5.6893233818052611e+00 -1 -1 2
1090 364 1 -8.1999999999999995e-01 -1.2521063996758208e-01 -9.1966513841455999e+00 -6.3218538623453924e+00 0 2 -1
424 142 1 -8.1999999999999995e-01 -4.8096842400388820e+00 -1.2780985563330567e+01 -4.3160549700544362e+00 1 2 2
982 328 1 -8.1999999999999995e-01 -2.8648492442398350e+00 -6.5027557338283852e+00 -3.3754846509323535e+00 0 -1 -1
451 151 1 -8.1999999999999995e-01 -2.1051586451970739e+00 -1.3848431895820045e+01 -5.5505221474907529e+00 1 1 0
2441 814 2 4.0999999999999998e-01 -8.9066735835535482e-01 -6.1899113468382705e+00 -6.1409827297532491e+00 1 0 0
2442 814 2 4.0999999999999998e-01 -1.9422890767700984e+00 -6.7238621464803998e+00 -5.0116028836389894e+00 1 0 0
470 157 2 4.0999999999999998e-01 -4.4048949425310600e+00 -5.0992643966905415e+00 -9.2612389875581869e-01 1 -1 0
460 154 1 -8.1999999999999995e-01 -7.0782335363654081e+00 -5.1600961951659485e+00 -3.5585688851228134e+00 -1 0 1
2261 754 2 4.0999999999999998e-01 -4.0486439038676991e+00 -1.2015189789954988e+01 -1.3483698509246977e+00 -1 1 -1
1023 341 2 4.0999999999999998e-01 -4.2101084048338020e+00 -9.4691321217473181e+00 -6.1739798229518641e+00 2 2 2
1124 375 2 4.0999999999999998e-01 -5.7486513137602522e+00 -1.2905733340266506e+01 -6.3537501529786802e+00 1 1 1
984 328 2 4.0999999999999998e-01 -3.6271904827147772e+00 -6.2008941413459375e+00 -2.8030583001105089e+00 0 -1 -1
1706 569 2 4.0999999999999998e-01 -5.1307720878744476e+00 -9.3893673559572548e+00 -1.0025496991127287e+00 2 0 0
462 154 2 4.0999999999999998e-01 -6.5493683355344015e+00 -5.9058707600243157e+00 -3.9636350075405229e+00 -1 0 1
375 125 2 4.0999999999999998e-01 -1.8405177876986976e+00 -9.8394240884689275e+00 -1.2002839088388875e+00 -1 0 0
1123 375 1 -8.1999999999999995e-01 -5.7373643934632028e+00 -1.2065892728957092e+01 -6.8964258254249469e+00 1 1 1
1125 375 2 4.0999999999999998e-01 -4.9692035350622579e+00 -1.1493735624196816e+01 -6.6091599567404202e+00 1 1 1
320 107 2 4.0999999999999998e-01 -4.3685552828622285e+00 -5.5935053437094400e+00 -6.6339843630115318e+00 0 2 -1
651 217 2 4.0999999999999998e-01 -7.1537264138060390e+00 -1.0357476680840076e+01 -3.6456272586541214e+00 0 1 -1
1705 569 1 -8.1999999999999995e-01 -5.4729047391970695e+00 -8.4499825344442989e+00 -9.8114909618179880e-01 2 0 0
471 157 2 4.0999999999999998e-01 -4.8607182482231881e+00 -6.5783883071995213e+00 -4.0561619744314825e-01 1 -1 0
1207 403 1 -8.1999999999999995e-01 -5.7096584640386912e+00 -7.4799728634340434e+00 -4.7504937769259499e+00 -1 -1 2
1021 341 1 -8.1999999999999995e-01 -3.7082816228261883e+00 -1.0329184025939204e+01 -6.2658336038677618e+00 2 2 2
452 151 2 4.0999999999999998e-01 -3.0378851587323208e+00 -1.3544062469738284e+01 -5.3572942232623131e+00 1 1 0
1209 403 2 4.0999999999999998e-01 -5.7595676380291199e+00 -8.4787000996255628e+00 -4.7535842017013010e+00 -1 -1 2
1952 651 2 4.0999999999999998e-01 -2.9395276416939033e+00 -1.0777637145576495e+01 -4.7880485062831770e+00 1 -1 0
373 125 1 -8.1999999999999995e-01 -1.8871178069572849e+00 -9.0092608388986370e+00 -1.7558142944241553e+00 -1 0 0
1951 651 1 -8.1999999999999995e-01 -2.6752141564823724e+00 -1.1172325096398088e+01 -3.9080960366608277e+00 1 -1 0
1549 517 1 -8.1999999999999995e-01 -4.9434074102409813e+00 -1.4889293863431474e+01 -6.8888101189724189e+00 2 0 1
983 328 2 4.0999999999999998e-01 -2.3329863282721863e+00 -7.1932566993332774e+00 -2.8852940586464726e+00 0 -1 -1
374 125 2 4.0999999999999998e-01 -1.2674185957508222e+00 -9.0950257346063808e+00 -2.5359257304106162e+00 -1 0 0
649 217 1 -8.1999999999999995e-01 -6.3327332933167675e+00 -1.0127792470449354e+01 -4.1682858440112476e+00 0 1 -1
2260 754 1 -8.1999999999999995e-01 -4.3317593014726654e+00 -1.1057100457840495e+01 -1.3051606065345194e+00 -1 1 -1
1953 651 2 4.0999999999999998e-01 -1.9238640229129960e+00 -1.1817925742483080e+01 -4.0445852584901285e+00 1 -1 0
1022 341 2 4.0999999999999998e-01 -3.0003524918513200e+00 -1.0228986762761341e+01 -6.9649426690636513e+00 2 2 2
453 151 2 4.0999999999999998e-01 -1.6189753991603943e+00 -1.3134085561712489e+01 -6.0538030842099619e+00 1 1 0
2203 735 1 -8.1999999999999995e-01 -3.6365094213150915e+00 -1.3749747827775568e+01 -1.8606515919636575e+00 3 1 -1
426 142 2 4.0999999999999998e-01 -4.0756452821266720e+00 -1.2101974035171098e+01 -4.3253664960100373e+00 1 2 2
650 217 2 4.0999999999999998e-01 -5.7055973077972251e+00 -1.0906657434746508e+01 -4.1631532210094129e+00 0 1 -1
425 142 2 4.0999999999999998e-01 -4.6977578522144885e+00 -1.3381989301880525e+01 -3.5247121127289311e+00 1 2 2
2440 814 1 -8.1999999999999995e-01 -1.4712095052655858e+00 -6.9551231091025141e+00 -5.8628131711013705e+00 1 0 0
2262 754 2 4.0999999999999998e-01 -3.8344233186858485e+00 -1.0531144343666892e+01 -1.9950762666149462e+00 -1 1 -1
2205 735 2 4.0999999999999998e-01 -4.2191102563385403e+00 -1.4426215156042431e+01 -1.4101799051687145e+00 3 1 -1
469 157 1 -8.1999999999999995e-01 -4.1459299665128846e+00 -5.8806732574516527e+00 -3.5841453677067037e-01 1 -1 0
2204 735 2 4.0999999999999998e-01 -2.7204280571321622e+00 -1.3779766489256023e+01 -1.4608387215540972e+00 3 1 -1
545 182 2 4.0999999999999998e-01 -1.6062186863726602e-01 -9.1819311625800673e+00 -4.4307000569568729e+00 0 -1 0
290 97 2 4.0999999999999998e-01 -1.3377817270665009e+00 -7.4748854279091272e+00 -4.0767902017964985e-01 1 0 -2
2233 745 1 -8.1999999999999995e-01 -6.1293189126609704e-01 -1.1851611478849113e+01 -6.6670334565369238e+00 0 0 0
1707 569 2 4.0999999999999998e-01 -5.9261114136512205e+00 -8.2405009937113860e+00 -1.8475656964407143e+00 2 0 0
319 107 1 -8.1999999999999995e-01 -5.0010797851030677e+00 -6.1969397295446953e+00 -7.1195111054520392e+00 0 2 -1
2234 745 2 4.0999999999999998e-01 -3.2299359833356611e-01 -1.2199726816339549e+01 -7.5584974588436795e+00 0 0 0
1661 554 2 4.0999999999999998e-01 -6.1307438294560974e+00 -1.5149880996570662e+01 -4.3574325117026902e+00 0 2 -1
2214 738 2 4.0999999999999998e-01 -8.7647924705469897e+00 -1.1759525105345338e+01 4.3765086096906920e+00 2 1 0
793 265 1 -8.1999999999999995e-01 -1.2711344587522436e+01 -1.4590065768752174e+01 4.6762311489397845e+00 2 1 -1
2494 832 1 -8.1999999999999995e-01 -1.1556588386555813e+01 -1.0323369857162081e+01 2.4588173744043296e+00 0 0 0
123 41 2 4.0999999999999998e-01 -1.0706725815957267e+01 -6.8603785975222085e+00 6.4536047411745052e+00 1 -1 0
563 188 2 4.0999999999999998e-01 -1.2763857321159268e+01 -1.0786333428020903e+01 6.1604787032102415e+00 0 0 1
1250 417 2 4.0999999999999998e-01 -1.4699332151344747e+01 -1.1877274373646848e+01 2.4507516987768874e+00 1 -1 -1
1996 666 1 -8.1999999999999995e-01 -9.7137644180028335e+00 -7.6041881539718696e+00 4.6860094873680360e+00 0 1 0
1515 505 2 4.0999999999999998e-01 -9.2297553734076558e+00 -7.4318451487624806e+00 1.2546772994839159e+00 0 -1 1
1513 505 1 -8.1999999999999995e-01 -8.3930782941560018e+00 -7.3456854395015325e+00 7.1384044896777077e-01 0 -1 1
562 188 1 -8.1999999999999995e-01 -1.2869778532706821e+01 -1.1621352338612512e+01 5.6205891555823015e+00 0 0 1
1245 415 2 4.0999999999999998e-01 -8.3291603915819490e+00 -8.3587294428976620e+00 6.5481503620931534e+00 1 0 -1
1439 480 2 4.0999999999999998e-01 -1.1818694676472850e+01 -8.9037982059766527e+00 6.8640089587061510e+00 0 1 1
981 327 2 4.0999999999999998e-01 -1.0007959755573790e+01 -1.3377162480196498e+01 5.7336845312836360e+00 1 -1 0
160 54 1 -8.1999999999999995e-01 -1.3399483249566893e+01 -7.9128271689956868e+00 2.2085966523826208e+00 0 0 -2
795 265 2 4.0999999999999998e-01 -1.2470384989471144e+01 -1.3619906160412617e+01 4.6500524439746478e+00 2 1 -1
2495 832 2 4.0999999999999998e-01 -1.2382028169840634e+01 -9.8067658276983973e+00 2.6862507991049256e+00 0 0 0
1440 480 2 4.0999999999999998e-01 -1.3300851234585435e+01 -8.4832533691272385e+00 6.3228393396334184e+00 0 1 1
2212 738 1 -8.1999999999999995e-01 -8.9881620104250288e+00 -1.2728826498437883e+01 4.2739539629957832e+00 2 1 0
1438 480 1 -8.1999999999999995e-01 -1.2800214482148977e+01 -9.0692098586747569e+00 6.9600005288192364e+00 0 1 1
2496 832 2 4.0999999999999998e-01 -1.0962642934834768e+01 -1.0373019146454221e+01 3.2617621226501541e+00 0 0 0
1998 666 2 4.0999999999999998e-01 -9.4833591029894091e+00 -8.5323623599591336e+00 4.3938407528482415e+00 0 1 0
2213 738 2 4.0999999999999998e-01 -9.4273130485191743e+00 -1.2877744476946260e+01 3.3879932636834766e+00 2 1 0
979 327 1 -8.1999999999999995e-01 -1.0541121872052376e+01 -1.3157816494802651e+01 6.5507414655853857e+00 1 -1 0
1877 626 2 4.0999999999999998e-01 -1.1340364428252681e+01 -1.3383384649639980e+01 2.0373757873305109e+00 0 0 0
1876 626 1 -8.1999999999999995e-01 -1.0409685203436995e+01 -1.3678775052910343e+01 2.2531006651272349e+00 0 0 0
2533 845 1 -8.1999999999999995e-01 -1.0983079763557740e+01 -6.6019704626504279e+00 2.5363170179555645e+00 1 0 -2
980 327 2 4.0999999999999998e-01 -1.1327060930868692e+01 -1.2595042809658391e+01 6.2947294917616219e+00 1 -1 0
1878 626 2 4.0999999999999998e-01 -1.0303254440801403e+01 -1.4644527006993417e+01 2.0165585447012404e+00 0 0 0
1997 666 2 4.0999999999999998e-01 -1.0122214009050138e+01 -7.1057873134136003e+00 3.9213382377944441e+00 0 1 0
2535 845 2 4.0999999999999998e-01 -1.1761104195188592e+01 -7.2002369553973464e+00 2.3447139478225729e+00 1 0 -2
2534 845 2 4.0999999999999998e-01 -1.1300316341910396e+01 -5.7883122356618646e+00 3.0234287103945832e+00 1 0 -2
162 54 2 4.0999999999999998e-01 -1.3903395738906697e+01 -8.0347997462970717e+00 3.0636706036383892e+00 0 0 -2
333 111 2 4.0999999999999998e-01 -7.6365873624140796e+00 -9.7194853739784541e+00 3.6053326550663982e+00 0 0 0
1019 340 2 4.0999999999999998e-01 -9.5119699044072163e+00 -1.4461301236334176e+01 7.3643457302368240e+00 1 1 -2
564 188 2 4.0999999999999998e-01 -1.3842550220291036e+01 -1.1812075033597120e+01 5.4890723645098483e+00 0 0 1
161 54 2 4.0999999999999998e-01 -1.3993485498581403e+01 -8.1387182364962953e+00 1.4365272634714792e+00 0 0 -2
1249 417 1 -8.1999999999999995e-01 -1.5026699305213372e+01 -1.1238813136410105e+01 3.1472820934673464e+00 1 -1 -1