LAMMPS data file via write_data, version 15 May 2015, timestep = 4999000

2611 atoms
6 atom types
1749 bonds
4 bond types
894 angles
3 angle types
44 dihedrals
3 dihedral types
10 impropers
1 improper types

-1.5052232996800829e+01 1.5052232996800829e+01 xlo xhi
-1.5052232996800829e+01 1.5052232996800829e+01 ylo yhi
-1.5052232996800829e+01 1.5052232996800829e+01 zlo zhi

Masses

1 15.9994
2 1.00794
3 12.0107
4 1.00794
5 12.0107
6 12.0107

Bond Coeffs # harmonic

1 1000 1
2 469 1.4
3 367 1.08
4 469 0.7

Angle Coeffs # harmonic

1 100 109.47
2 35 120
3 63 120

Dihedral Coeffs # opls

1 0 7.25 0 0
2 0 7.25 0 0
3 0 7.25 0 0

Improper Coeffs # cvff

1 2.5 -1 2

Atoms # full

1780 594 1 -8.1999999999999995e-01 -1.0133051580912291e+01 -1.3622263937368132e+01 -1.1768295642207477e+01 3 2 2
1781 594 2 4.0999999999999998e-01 -1.1104086307368338e+01 -1.3485636673773035e+01 -1.1964506760479013e+01 3 2 2
2063 688 2 4.0999999999999998e-01 -1.4214784551178994e+01 -1.3657638310784922e+01 -9.0797140305775343e+00 1 3 0
2064 688 2 4.0999999999999998e-01 -1.3939957043997740e+01 -1.3764226992364431e+01 -1.0685931077716756e+01 1 3 0
1782 594 2 4.0999999999999998e-01 -9.8626204814660525e+00 -1.4543200533603551e+01 -1.2049039401797085e+01 3 2 2
2320 774 1 -8.1999999999999995e-01 -9.8947848077640295e+00 -8.6877339110217608e+00 -1.4732493807069806e+01 -1 1 1
896 299 2 4.0999999999999998e-01 -1.0593079803789541e+01 -6.3697162269256697e+00 -1.1771737187587691e+01 3 -2 0
895 299 1 -8.1999999999999995e-01 -1.1455950838238522e+01 -6.6615096116925674e+00 -1.1358960653683527e+01 3 -2 0
633 211 2 4.0999999999999998e-01 -1.2668827012849073e+01 -8.5296169158901805e+00 -8.6174918802330911e+00 0 -2 -3
897 299 2 4.0999999999999998e-01 -1.1304617112389453e+01 -7.4911999208387083e+00 -1.0821572182643752e+01 3 -2 0
203 68 2 4.0999999999999998e-01 -1.3260180092924173e+01 -9.2786265379348709e+00 -1.0542546673494464e+01 2 0 0
2430 810 2 4.0999999999999998e-01 -1.3485023928234641e+01 -1.2860734566240595e+01 -1.2689796939149740e+01 2 1 -1
2482 828 1 -8.1999999999999995e-01 -7.8003651642854859e+00 -1.4233324511344822e+01 -1.4756531796184230e+01 3 0 1
2484 828 2 4.0999999999999998e-01 -8.4292770168189293e+00 -1.3469230952525994e+01 -1.4900424858318575e+01 3 0 1
604 202 1 -8.1999999999999995e-01 -8.3207738832367220e+00 -1.1696043700558798e+01 -1.0907293210834814e+01 0 -1 1
2049 683 2 4.0999999999999998e-01 -1.3945618086106208e+01 -1.0806908452362176e+01 -1.2574096282396619e+01 1 1 0
606 202 2 4.0999999999999998e-01 -8.9716441157384832e+00 -1.2371450958974535e+01 -1.1254088901359907e+01 0 -1 1
2428 810 1 -8.1999999999999995e-01 -1.2976844302570367e+01 -1.3655844808042094e+01 -1.2358696556318044e+01 2 1 -1
1427 476 2 4.0999999999999998e-01 -8.9421936232296027e+00 -1.0227216789662430e+01 -1.2016731576411306e+01 1 0 0
1426 476 1 -8.1999999999999995e-01 -8.9344393644587186e+00 -9.2451018065465291e+00 -1.2205051262887938e+01 1 0 0
544 182 1 -8.1999999999999995e-01 -8.5821983962133075e+00 -7.2555735353042836e+00 -1.0229942565710820e+01 -1 -2 -1
1428 476 2 4.0999999999999998e-01 -9.3933049486931104e+00 -9.0690718028129744e+00 -1.3075987594080654e+01 1 0 0
632 211 2 4.0999999999999998e-01 -1.1371315573730676e+01 -9.3901643079062467e+00 -9.1101852892354955e+00 0 -2 -3
631 211 1 -8.1999999999999995e-01 -1.2098595742710820e+01 -8.7694682635829562e+00 -9.4032283931558318e+00 0 -2 -3
2429 810 2 4.0999999999999998e-01 -1.2927437566275476e+01 -1.4344689091765897e+01 -1.3081971606990962e+01 2 1 -1
2322 774 2 4.0999999999999998e-01 -1.0654406151313683e+01 -9.2961237387973412e+00 -1.4962518856620214e+01 -1 1 1
2501 834 2 4.0999999999999998e-01 -9.4451529841775184e+00 -1.0889693387349238e+01 -9.3128375233181764e+00 2 1 0
1140 380 2 4.0999999999999998e-01 -7.9041016130380415e+00 -1.2265882676204807e+01 -9.2454322495303494e+00 -1 0 0
546 182 2 4.0999999999999998e-01 -8.5733038769640011e+00 -8.0023742557687036e+00 -1.0894986806983233e+01 -1 -2 -1
1138 380 1 -8.1999999999999995e-01 -7.8301582944107704e+00 -1.2721473844705178e+01 -8.3582776162228427e+00 -1 0 0
1215 405 2 4.0999999999999998e-01 -1.1980138898475793e+01 -1.4206740394433035e+01 -8.4517549977896138e+00 2 0 1
1181 394 2 4.0999999999999998e-01 -1.2580376167685062e+01 -1.0877215594550236e+01 -1.4670635724239519e+01 2 -2 1
1262 421 2 4.0999999999999998e-01 -1.3413107231468876e+01 -5.3637550422442963e+00 -1.1197593224864512e+01 0 -1 2
1368 456 2 4.0999999999999998e-01 -1.5009629151789078e+01 -1.1808671391698891e+01 -8.1124481281127956e+00 3 0 -5
545 182 2 4.0999999999999998e-01 -8.9078375793665980e+00 -7.5979708465682245e+00 -9.3485814114589338e+00 -1 -2 -1
873 291 2 4.0999999999999998e-01 -1.1393642282852131e+01 -5.0561977580057071e+00 -1.0388906150089779e+01 1 -2 0
2500 834 1 -8.1999999999999995e-01 -1.0127235181892301e+01 -1.0804808757294929e+01 -8.5864541981564617e+00 2 1 0
2112 704 2 4.0999999999999998e-01 -1.4171176812102475e+01 -7.8001557348845676e+00 -1.4584461728586181e+01 1 1 -3
202 68 1 -8.1999999999999995e-01 -1.3869580425777992e+01 -9.7276469439650022e+00 -1.1196064992435161e+01 2 0 0
2062 688 1 -8.1999999999999995e-01 -1.4598428424340165e+01 -1.3485053865812876e+01 -9.9869660705583598e+00 1 3 0
1139 380 2 4.0999999999999998e-01 -8.2908159753039428e+00 -1.2171395250861197e+01 -7.6616555418130989e+00 -1 0 0
1614 538 2 4.0999999999999998e-01 -1.4295895889246280e+01 -8.4307548085657871e+00 -1.2412027042926761e+01 1 0 2
1213 405 1 -8.1999999999999995e-01 -1.2200151304923150e+01 -1.3249313049278484e+01 -8.6388423603332427e+00 2 0 1
1214 405 2 4.0999999999999998e-01 -1.1366835694012181e+01 -1.2759920121570834e+01 -8.8960463881180623e+00 2 0 1
2165 722 2 4.0999999999999998e-01 -1.3724199264980774e+01 -5.3648162610744023e+00 -1.3613401195422645e+01 3 -2 -3
2047 683 1 -8.1999999999999995e-01 -1.3801139723863786e+01 -1.1328165647754112e+01 -1.3415221266033454e+01 1 1 0
45 15 2 4.0999999999999998e-01 -9.8085867142572027e+00 -5.5909982948441534e+00 -1.4139827926500049e+01 2 0 1
1261 421 1 -8.1999999999999995e-01 -1.4340084444338025e+01 -5.1156553447104258e+00 -1.1479078684825389e+01 0 -1 2
204 68 2 4.0999999999999998e-01 -1.4694503132219081e+01 -1.0038072227519226e+01 -1.0723610810875492e+01 2 0 0
2502 834 2 4.0999999999999998e-01 -9.7011776273937684e+00 -1.1004834001683342e+01 -7.7041055476494753e+00 2 1 0
1612 538 1 -8.1999999999999995e-01 -1.4750670330566384e+01 -7.7093913644796066e+00 -1.2934415075451614e+01 1 0 2
1059 353 2 4.0999999999999998e-01 -9.8697893692070533e+00 -1.1240111195861498e+01 -1.4771626525693902e+01 0 0 5
2483 828 2 4.0999999999999998e-01 -8.1039028795493095e+00 -1.4771309792138254e+01 -1.3970077108437746e+01 3 0 1
1366 456 1 -8.1999999999999995e-01 -1.4196422007515775e+01 -1.1743546413183083e+01 -7.5340649441102068e+00 3 0 -5
2048 683 2 4.0999999999999998e-01 -1.4558417325058109e+01 -1.1159391908223752e+01 -1.4046189031490293e+01 1 1 0
1613 538 2 4.0999999999999998e-01 -1.4656163168591496e+01 -6.8384531235971231e+00 -1.2452119257306791e+01 1 0 2
1367 456 2 4.0999999999999998e-01 -1.3520164663028675e+01 -1.2417009396613707e+01 -7.8327251315167690e+00 3 0 -5
404 135 2 4.0999999999999998e-01 -1.4077461171242886e+01 -7.3616407387116860e+00 -7.5874767263557441e+00 1 -2 1
2011 671 1 -8.1999999999999995e-01 -9.0264671959192579e+00 -8.0544019886287508e+00 -7.5343886096237522e+00 -1 -2 3
1297 433 1 -8.1999999999999995e-01 -2.7232014506760827e-01 -1.4798375763538147e+01 -1.0728291308616425e+01 0 0 1
1254 418 2 4.0999999999999998e-01 -5.2345795077137378e+00 -1.0036140145090709e+01 -1.4941904172410403e+01 4 1 3
122 41 2 4.0999999999999998e-01 -4.2859127957995504e+00 -9.0703191418986666e+00 -1.2705283687034205e+01 1 0 0
2015 672 2 4.0999999999999998e-01 -7.5141296787477145e+00 -7.9280948273178700e+00 -1.2650239244771704e+01 0 -1 1
2120 707 2 4.0999999999999998e-01 -3.0284355040229940e+00 -9.0960758250012042e+00 -1.4497685881851138e+01 -1 1 2
2014 672 1 -8.1999999999999995e-01 -6.9510948710608904e+00 -7.2358541624452881e+00 -1.3101757734032589e+01 0 -1 1
2016 672 2 4.0999999999999998e-01 -7.1235509115330258e+00 -6.3428515930926945e+00 -1.2685969815888175e+01 0 -1 1
702 234 2 4.0999999999999998e-01 -6.0474230276561940e+00 -1.0373224933260570e+01 -9.2386455760457977e+00 4 1 0
700 234 1 -8.1999999999999995e-01 -5.5973838853764057e+00 -1.1094613884159497e+01 -9.7650836506695207e+00 4 1 0
605 202 2 4.0999999999999998e-01 -7.4567123933883446e+00 -1.1780318200301853e+01 -1.1403649750163439e+01 0 -1 1
2268 756 2 4.0999999999999998e-01 -1.4786939789536468e-01 -5.3510084071971722e+00 -1.3260730449956302e+01 0 -3 -1
121 41 1 -8.1999999999999995e-01 -4.6436090070364173e+00 -8.7791955081795159e+00 -1.3592625066034204e+01 1 0 0
630 210 2 4.0999999999999998e-01 -4.4422086173577302e+00 -1.0024398454553376e+01 -1.0750090722684767e+01 -2 -2 2
1957 653 1 -8.1999999999999995e-01 -2.1550769349573855e+00 -1.3182680881878417e+01 -1.1592838508566782e+01 1 -1 -1
1958 653 2 4.0999999999999998e-01 -1.4919830111430130e+00 -1.3867092858200142e+01 -1.1289587786486283e+01 1 -1 -1
1959 653 2 4.0999999999999998e-01 -2.1645100628507752e+00 -1.3147583178157351e+01 -1.2592215041337033e+01 1 -1 -1
1118 373 2 4.0999999999999998e-01 -3.4529364762504677e+00 -1.4466581435108465e+01 -1.0860094707215891e+01 -1 1 2
95 32 2 4.0999999999999998e-01 -4.8522315979330433e+00 -1.3249757446895526e+01 -7.9460234424828533e+00 1 0 2
992 331 2 4.0999999999999998e-01 -6.4244263557942656e+00 -1.3192123987601180e+01 -1.3759247693450842e+01 1 -1 2
846 282 2 4.0999999999999998e-01 -1.8112013040396668e+00 -1.3848403892678055e+01 -1.4444205919661858e+01 1 2 -1
2258 753 2 4.0999999999999998e-01 -7.5902407713310716e-01 -1.0656181981519936e+01 -9.9090481240851069e+00 1 -2 -2
96 32 2 4.0999999999999998e-01 -6.4196285984577468e+00 -1.3676986638963641e+01 -8.1120545535485320e+00 1 0 2
94 32 1 -8.1999999999999995e-01 -5.4738944365686280e+00 -1.3983259119940531e+01 -8.2209504258281871e+00 1 0 2
1322 441 2 4.0999999999999998e-01 -5.9527089114792808e-01 -1.0439696695821507e+01 -1.2484898366417536e+01 0 1 -1
2549 850 2 4.0999999999999998e-01 -5.4121104899857411e+00 -6.5467303999041313e+00 -7.8701396470624854e+00 0 -3 2
2399 800 2 4.0999999999999998e-01 -9.9688406903874238e-01 -6.5936350158258996e+00 -1.1832420813405589e+01 1 2 -2
2121 707 2 4.0999999999999998e-01 -1.4192912087675591e+00 -9.3630749536787050e+00 -1.4419005265059516e+01 -1 1 2
844 282 1 -8.1999999999999995e-01 -1.6991953545081326e+00 -1.2866653863639186e+01 -1.4290271543237226e+01 1 2 -1
2398 800 1 -8.1999999999999995e-01 -2.0371396458333990e-01 -6.0165579573191117e+00 -1.1637645227550578e+01 1 2 -2
718 240 1 -8.1999999999999995e-01 -6.5046703237533858e+00 -9.2280934669313304e+00 -7.9884231971001096e+00 2 2 1
991 331 1 -8.1999999999999995e-01 -5.8952535123530794e+00 -1.2469687488135822e+01 -1.3314123123922753e+01 1 -1 2
1119 373 2 4.0999999999999998e-01 -4.4466753584512180e+00 -1.4541015148177680e+01 -9.5663531628383840e+00 -1 1 2
1740 580 2 4.0999999999999998e-01 -6.7157734698466101e+00 -6.8096348581479003e+00 -1.0192081342022679e+01 1 -4 0
2257 753 1 -8.1999999999999995e-01 -1.3740110154654985e+00 -1.0644954710029818e+01 -1.0697552583160634e+01 1 -2 -2
993 331 2 4.0999999999999998e-01 -5.3155633086631831e+00 -1.2870161403519575e+01 -1.2604437150843136e+01 1 -1 2
719 240 2 4.0999999999999998e-01 -7.4661974334181087e+00 -9.0401104481960601e+00 -7.7879181189203432e+00 2 2 1
629 210 2 4.0999999999999998e-01 -2.8719679683870378e+00 -9.6650804426965138e+00 -1.1018529602379648e+01 -2 -2 2
1117 373 1 -8.1999999999999995e-01 -4.1759730706701248e+00 -1.4995139728676770e+01 -1.0415214398122089e+01 -1 1 2
1323 441 2 4.0999999999999998e-01 -6.4239949880044911e-01 -1.1449427314733235e+01 -1.3767492424467401e+01 0 1 -1
1739 580 2 4.0999999999999998e-01 -5.1368466054110176e+00 -7.0247671856791563e+00 -9.8349642789884371e+00 1 -4 0
123 41 2 4.0999999999999998e-01 -5.5334023812148665e+00 -8.3407387933875903e+00 -1.3465748511163131e+01 1 0 0
1738 580 1 -8.1999999999999995e-01 -5.8928368946777372e+00 -6.3701345303162018e+00 -9.8319575637928693e+00 1 -4 0
628 210 1 -8.1999999999999995e-01 -3.8132767837015997e+00 -9.3469064059404481e+00 -1.1131566210533116e+01 -2 -2 2
2259 753 2 4.0999999999999998e-01 -1.7558414726775275e+00 -1.1558873871322156e+01 -1.0835507500435003e+01 1 -2 -2
1662 554 2 4.0999999999999998e-01 -3.5425808143066817e-01 -1.2526441961404259e+01 -7.9347425217440231e+00 -1 0 1
1253 418 2 4.0999999999999998e-01 -5.6536697398325106e+00 -1.1598266821722238e+01 -1.4716187130599812e+01 4 1 3
701 234 2 4.0999999999999998e-01 -5.0167693961147908e+00 -1.1637384361260244e+01 -9.1581558950803306e+00 4 1 0
2119 707 1 -8.1999999999999995e-01 -2.1950070010580571e+00 -9.2255932073312650e+00 -1.5034990694809105e+01 -1 1 2
1321 441 1 -8.1999999999999995e-01 -2.4479948160584009e-01 -1.0605745379234090e+01 -1.3406674860316924e+01 0 1 -1
32 11 2 4.0999999999999998e-01 -2.9597803850422011e+00 -1.2362142150232218e+01 -7.7841512364084577e+00 1 -1 -2
1852 618 1 -8.1999999999999995e-01 -1.3610849277435525e+01 -1.3152048713163330e+01 -3.8846816078186350e+00 2 -1 0
954 318 2 4.0999999999999998e-01 -1.1656030998609335e+01 -1.4761272833022774e+01 -6.3210468795868060e+00 1 -2 0
1793 598 2 4.0999999999999998e-01 -1.1772933806377800e+01 -1.1948949136254596e+01 -5.7713489800451985e+00 2 1 1
952 318 1 -8.1999999999999995e-01 -1.1036912858196402e+01 -1.4064149884397420e+01 -5.9594026601144954e+00 1 -2 0
953 318 2 4.0999999999999998e-01 -1.0335165518477151e+01 -1.4501138558175288e+01 -5.3966719615180931e+00 1 -2 0
1792 598 1 -8.1999999999999995e-01 -1.2163120544344535e+01 -1.1048959040899728e+01 -5.9658905327489826e+00 2 1 1
1794 598 2 4.0999999999999998e-01 -1.2939170832018753e+01 -1.1149623353242280e+01 -6.5885356165308870e+00 2 1 1
151 51 1 -8.1999999999999995e-01 -8.3912500107952255e+00 -6.8140789478578743e+00 -1.8028080500030192e+00 2 0 1
1911 637 2 4.0999999999999998e-01 -1.1312953062370365e+01 -9.5043464514845049e+00 -5.6483476203390399e+00 3 1 -1
650 217 2 4.0999999999999998e-01 -8.3988375142213911e+00 -1.1884483052481887e+01 -5.5925823763795357e+00 1 1 -2
1910 637 2 4.0999999999999998e-01 -1.2032795171203514e+01 -8.1812071974366525e+00 -6.2791838883182969e+00 3 1 -1
1909 637 1 -8.1999999999999995e-01 -1.1236959159042447e+01 -8.5151506917194997e+00 -5.7740096039901800e+00 3 1 -1
2447 816 2 4.0999999999999998e-01 -1.0775620441736290e+01 -7.8844019942152812e+00 -4.2228012654109897e+00 1 0 -1
153 51 2 4.0999999999999998e-01 -9.2802858084014659e+00 -6.9113643993286935e+00 -2.2502733113474562e+00 2 0 1
2446 816 1 -8.1999999999999995e-01 -1.0896699224717953e+01 -7.4359138029449392e+00 -3.3372096183225519e+00 1 0 -1
651 217 2 4.0999999999999998e-01 -9.6387390272102689e+00 -1.2689990564015238e+01 -6.2858546207264556e+00 1 1 -2
1126 376 1 -8.1999999999999995e-01 -1.1284751875064174e+01 -1.2169188134854531e+01 -1.8903862242840663e+00 3 -3 0
1853 618 2 4.0999999999999998e-01 -1.3657539108178550e+01 -1.2904481221468114e+01 -2.9168982262684331e+00 2 -1 0
1538 513 2 4.0999999999999998e-01 -1.0209900519194246e+01 -1.4890059926913152e+01 -3.0407987747553360e+00 5 0 1
2448 816 2 4.0999999999999998e-01 -1.1095747563997303e+01 -8.1241302039551506e+00 -2.6394903158515088e+00 1 0 -1
1128 376 2 4.0999999999999998e-01 -1.1494016189543744e+01 -1.1199015236894729e+01 -1.7677189012383110e+00 3 -3 0
1468 490 1 -8.1999999999999995e-01 -1.3896973376457188e+01 -1.3375462517148851e+01 -1.1001930422565174e+00 1 3 1
1836 612 2 4.0999999999999998e-01 -1.1349055078606412e+01 -9.6292551372436375e+00 -4.7649315478976462e-01 3 0 0
318 106 2 4.0999999999999998e-01 -1.3985004478182246e+01 -1.5003554788590776e+01 -4.0584165394950045e+00 0 -1 -1
749 250 2 4.0999999999999998e-01 -1.3751862460894570e+01 -6.4979334568300651e+00 -2.2547367745144573e+00 0 0 0
1854 618 2 4.0999999999999998e-01 -1.3550917067896048e+01 -1.2321628621289618e+01 -4.4386535095436468e+00 2 -1 0
405 135 2 4.0999999999999998e-01 -1.4008394212033609e+01 -8.5354644597040021e+00 -6.4542546969836323e+00 1 -2 1
917 306 2 4.0999999999999998e-01 -9.7157855304030534e+00 -1.2901531489570377e+01 -2.0042214781900221e+00 -1 0 -2
916 306 1 -8.1999999999999995e-01 -8.9103717982101429e+00 -1.3483582979196324e+01 -2.1164671333195173e+00 -1 0 -2
2160 720 2 4.0999999999999998e-01 -8.2936997333454254e+00 -1.4225110529823015e+01 -4.0775034987026437e+00 1 1 4
1494 498 2 4.0999999999999998e-01 -1.3001343191642221e+01 -1.4906444604354954e+01 -6.7330332339106747e-01 -1 -2 0
497 166 2 4.0999999999999998e-01 -1.0969045261815378e+01 -5.4058593394470797e+00 -3.4082529426355581e+00 0 0 0
2317 773 1 -8.1999999999999995e-01 -1.4627265480707885e+01 -6.1471063707465987e+00 -6.3799607765573363e-01 2 -3 1
550 184 1 -8.1999999999999995e-01 -1.4037865029832648e+01 -5.2723402601992042e+00 -5.3133621028373383e+00 1 -2 0
152 51 2 4.0999999999999998e-01 -7.6954186084300371e+00 -6.5971451443541245e+00 -2.4875216036385890e+00 2 0 1
1127 376 2 4.0999999999999998e-01 -1.2130097885124497e+01 -1.2701260499926391e+01 -1.8417715578468261e+00 3 -3 0
1835 612 2 4.0999999999999998e-01 -1.2691528397093863e+01 -8.9964094833060226e+00 -1.1577393066226289e+00 3 0 0
750 250 2 4.0999999999999998e-01 -1.2644224569267568e+01 -7.1939710499256320e+00 -3.2322307791699600e+00 0 0 0
918 306 2 4.0999999999999998e-01 -8.6914501707347114e+00 -1.3921504645557162e+01 -1.2444738871162286e+00 -1 0 -2
2013 671 2 4.0999999999999998e-01 -9.6645882492833231e+00 -8.4927952573588215e+00 -6.9013900667416355e+00 -1 -2 3
2158 720 1 -8.1999999999999995e-01 -8.6266254953288843e+00 -1.4778277686329425e+01 -4.8412055129650238e+00 1 1 4
748 250 1 -8.1999999999999995e-01 -1.3568662038349167e+01 -6.8154552764227976e+00 -3.1851623581598982e+00 0 0 0
1834 612 1 -8.1999999999999995e-01 -1.1771844266335762e+01 -9.3457290401957813e+00 -1.3372698600880977e+00 3 0 0
552 184 2 4.0999999999999998e-01 -1.3863362784342376e+01 -5.8379461729902129e+00 -4.5073142141498757e+00 1 -2 0
1470 490 2 4.0999999999999998e-01 -1.4785227976015967e+01 -1.3643905493450061e+01 -1.4730421287153437e+00 1 3 1
403 135 1 -8.1999999999999995e-01 -1.3482992464931172e+01 -8.0279376686616857e+00 -7.1372216351427182e+00 1 -2 1
320 107 2 4.0999999999999998e-01 -1.4884844537752388e+01 -7.6303627104716858e+00 -4.4905267256548118e+00 0 1 0
1469 490 2 4.0999999999999998e-01 -1.4004675084468737e+01 -1.3106918952093526e+01 -1.4292664095049012e-01 1 3 1
2012 671 2 4.0999999999999998e-01 -9.1131193663747521e+00 -7.0608870519844054e+00 -7.4602688467536353e+00 -1 -2 3
649 217 1 -8.1999999999999995e-01 -9.1473533999425118e+00 -1.1819641747282091e+01 -6.2525776517417153e+00 1 1 -2
551 184 2 4.0999999999999998e-01 -1.4742775613252583e+01 -5.7033554600343130e+00 -5.8767458248560676e+00 1 -2 0
2029 677 1 -8.1999999999999995e-01 -7.6632791789330650e+00 -1.2066644519121505e+01 -4.0067685995590328e+00 2 2 0
524 175 2 4.0999999999999998e-01 -8.3037416666928010e+00 -7.2534339912058021e+00 -1.0957447757713545e-01 2 0 1
1013 338 2 4.0999999999999998e-01 -1.0579607579270043e+01 -5.4002094402788501e+00 -7.4229344896858533e+00 3 2 0
981 327 2 4.0999999999999998e-01 -8.1522810246545170e+00 -5.5308428900879107e+00 -6.2195109572546006e+00 1 -1 1
2031 677 2 4.0999999999999998e-01 -8.2294108967903323e+00 -1.2426147079493534e+01 -3.2649282699313318e+00 2 2 0
1012 338 1 -8.1999999999999995e-01 -9.5809569818852864e+00 -5.4243783737101179e+00 -7.3761676972321659e+00 3 2 0
761 254 2 4.0999999999999998e-01 -1.2966918885153039e+01 -5.0429226853237434e+00 -6.7210502198605244e+00 -2 0 -3
2154 718 2 4.0999999999999998e-01 -3.3938640595950247e+00 -9.8419566976081327e+00 -1.8783908054758935e+00 0 1 -1
52 18 1 -8.1999999999999995e-01 -6.0332426780124830e+00 -9.5156072537135881e+00 -4.5841273564634655e-01 2 0 1
979 327 1 -8.1999999999999995e-01 -7.4207701989241519e+00 -5.2361385735204369e+00 -5.6045999517926610e+00 1 -1 1
583 195 1 -8.1999999999999995e-01 -7.6765271683750314e-01 -7.1592594947291071e+00 -7.0725687330871292e+00 -2 3 1
212 71 2 4.0999999999999998e-01 -2.7273739923605991e+00 -1.2576108513708053e+01 -1.4275313250672550e+00 1 -1 2
54 18 2 4.0999999999999998e-01 -6.8839700280757938e+00 -1.0037043784435035e+01 -3.9177031539688656e-01 2 0 1
1086 362 2 4.0999999999999998e-01 -1.1622861187810081e+00 -8.4369342040159907e+00 -3.9294000790234254e+00 3 0 -1
1661 554 2 4.0999999999999998e-01 -1.1685061714593257e+00 -1.3452322464669225e+01 -6.8639624919096391e+00 -1 0 1
585 195 2 4.0999999999999998e-01 -5.2227134436115286e-01 -7.5530555665643000e+00 -6.1866867538897559e+00 -2 3 1
195 65 2 4.0999999999999998e-01 -5.0368650392103476e-02 -6.0626443409099906e+00 -4.4842332723720535e+00 0 -2 0
464 155 2 4.0999999999999998e-01 -6.8595661193452351e-01 -7.3492852324388007e+00 -1.0196500679209652e+00 -1 0 1
31 11 1 -8.1999999999999995e-01 -3.8738970373990700e+00 -1.2068389085173258e+01 -7.5045548228583563e+00 1 -1 -2
1084 362 1 -8.1999999999999995e-01 -1.2318662298511658e+00 -7.5202481623921731e+00 -4.3229983269451076e+00 3 0 -1
799 267 1 -8.1999999999999995e-01 -6.5134222921313860e+00 -9.8515228710898839e+00 -3.1805159758389276e+00 0 0 -1
463 155 1 -8.1999999999999995e-01 -1.3803642576869546e+00 -7.5198177745181995e+00 -3.2051421412864833e-01 -1 0 1
211 71 1 -8.1999999999999995e-01 -3.2363429848490757e+00 -1.3269362601722818e+01 -9.1721419199466681e-01 1 -1 2
241 81 1 -8.1999999999999995e-01 -5.1503649212477622e+00 -1.3843984969401305e+01 -4.2955416324108509e+00 0 1 -1
1587 529 2 4.0999999999999998e-01 -3.6765851872826634e+00 -1.4993095006434853e+01 -3.9260351842815311e+00 2 0 0
1085 362 2 4.0999999999999998e-01 -2.1616290039005293e+00 -7.1736984687126615e+00 -4.1984239253097648e+00 3 0 -1
2054 685 2 4.0999999999999998e-01 -3.4101202232269952e+00 -5.5922309511035682e+00 -5.0207773488908103e+00 3 -1 1
213 71 2 4.0999999999999998e-01 -2.9476884170965025e+00 -1.4179955114213245e+01 -1.2131434148207028e+00 1 -1 2
2548 850 1 -8.1999999999999995e-01 -5.3352790424239203e+00 -6.5076747928860605e+00 -6.8738235240355543e+00 0 -3 2
1235 412 2 4.0999999999999998e-01 -1.0504547908841531e+00 -1.1339513459425028e+01 -3.4112267922449977e+00 1 -1 -1
242 81 2 4.0999999999999998e-01 -6.0408054454907738e+00 -1.3647126380113702e+01 -3.8851313129748064e+00 0 1 -1
2053 685 1 -8.1999999999999995e-01 -3.6581449147353329e+00 -6.2906285450982313e+00 -4.3493617941904965e+00 3 -1 1
584 195 2 4.0999999999999998e-01 -1.6949631922173367e+00 -6.7876739360139755e+00 -7.0268113344646501e+00 -2 3 1
265 89 1 -8.1999999999999995e-01 -5.8946659904917844e+00 -1.3601061940433709e+01 -6.4622172744617856e-01 1 -2 0
413 138 2 4.0999999999999998e-01 -4.9235428591018575e+00 -1.0714953809154132e+01 -4.2308608321353773e+00 1 0 1
1660 554 1 -8.1999999999999995e-01 -1.2208909373765273e+00 -1.2643416251582980e+01 -7.4496252344925962e+00 -1 0 1
2055 685 2 4.0999999999999998e-01 -4.2869297000001332e+00 -6.9464006660536572e+00 -4.7672934799929347e+00 3 -1 1
1236 412 2 4.0999999999999998e-01 -1.6490972032398403e+00 -1.0718754092476294e+01 -2.0244645336214173e+00 1 -1 -1
465 155 2 4.0999999999999998e-01 -2.1731077952286544e+00 -7.9629213291216425e+00 -7.3919214632637065e-01 -1 0 1
243 81 2 4.0999999999999998e-01 -4.6433014335916525e+00 -1.2990623726873910e+01 -4.4169314290553423e+00 0 1 -1
412 138 1 -8.1999999999999995e-01 -4.2759891214980339e+00 -1.1280295005912937e+01 -4.7418771875608883e+00 1 0 1
800 267 2 4.0999999999999998e-01 -7.1925385745418149e+00 -9.1591800837801323e+00 -3.4245175942067103e+00 0 0 -1
2550 850 2 4.0999999999999998e-01 -5.9822104377439338e+00 -5.8343670593006092e+00 -6.5157582353923900e+00 0 -3 2
801 267 2 4.0999999999999998e-01 -6.2614032809393070e+00 -9.7467211822922089e+00 -2.2184467028696897e+00 0 0 -1
2030 677 2 4.0999999999999998e-01 -7.1073433143284648e+00 -1.1309019261343732e+01 -3.6646961335920825e+00 2 2 0
414 138 2 4.0999999999999998e-01 -3.3581000173585931e+00 -1.1160649262529439e+01 -4.3634082391700471e+00 1 0 1
33 11 2 4.0999999999999998e-01 -3.8841971298499285e+00 -1.1904628776657256e+01 -6.5180707960940669e+00 1 -1 -2
267 89 2 4.0999999999999998e-01 -4.9044295943521661e+00 -1.3461448787412191e+01 -6.5000508117836731e-01 1 -2 0
1234 412 1 -8.1999999999999995e-01 -1.8869607212556776e+00 -1.1117030304510717e+01 -2.9103941478178452e+00 1 -1 -1
2153 718 2 4.0999999999999998e-01 -4.2985875127088278e+00 -9.0735210408419160e+00 -7.5687100455485989e-01 0 1 -1
2152 718 1 -8.1999999999999995e-01 -3.4869004355703819e+00 -9.0062159457200952e+00 -1.3371367922229140e+00 0 1 -1
532 178 1 -8.1999999999999995e-01 -6.2213898292252345e-01 -1.1162227550500093e+01 -1.6450523602366474e-01 2 3 0
266 89 2 4.0999999999999998e-01 -6.3392819297934295e+00 -1.2823078883522669e+01 -2.0222477225813762e-01 1 -2 0
720 240 2 4.0999999999999998e-01 -5.9252346890614742e+00 -8.6453315037844867e+00 -7.4185836481680285e+00 2 2 1
373 125 1 -8.1999999999999995e-01 -1.0933134848218042e+01 -1.1104388837612309e+01 8.9512964602839062e-01 2 2 1
371 124 2 4.0999999999999998e-01 -1.1512176185630578e+01 -7.1314984437619060e+00 6.7321453219381908e+00 1 2 -1
1783 595 1 -8.1999999999999995e-01 -1.2047930222415987e+01 -1.3410174372911063e+01 4.9640475482098800e+00 1 1 1
1784 595 2 4.0999999999999998e-01 -1.2957275275662482e+01 -1.3794845428632197e+01 4.8053213106459722e+00 1 1 1
1812 604 2 4.0999999999999998e-01 -9.9295637203442944e+00 -1.1391552023019708e+01 4.3859924449098706e+00 3 2 -1
1810 604 1 -8.1999999999999995e-01 -1.0018672764312855e+01 -1.1634392493136547e+01 3.4199891607109798e+00 3 2 -1
1250 417 2 4.0999999999999998e-01 -7.9173102691874764e+00 -1.3217666648741071e+01 6.7975105975321704e+00 0 -1 0
1811 604 2 4.0999999999999998e-01 -1.0499600980811312e+01 -1.2507423294339363e+01 3.3387516462959397e+00 3 2 -1
1205 402 2 4.0999999999999998e-01 -1.1244469476257944e+01 -8.4890591337687731e+00 2.0148443559407703e+00 1 -1 2
1204 402 1 -8.1999999999999995e-01 -1.0396553672026698e+01 -8.3096017120361321e+00 2.5137512595119453e+00 1 -1 2
374 125 2 4.0999999999999998e-01 -1.0783388801330158e+01 -1.1123086524562396e+01 1.8837149022581734e+00 2 2 1
1146 382 2 4.0999999999999998e-01 -1.0689818781512788e+01 -8.1044176014214919e+00 4.2216517979837178e+00 0 0 0
375 125 2 4.0999999999999998e-01 -1.1673132693445570e+01 -1.1733918305556037e+01 6.5812732597859736e-01 2 2 1
418 140 1 -8.1999999999999995e-01 -1.3099209296847183e+01 -9.5313061743177023e+00 5.0062026981568053e+00 2 3 -2
2032 678 1 -8.1999999999999995e-01 -1.4929234452248393e+01 -1.1587368123189805e+01 4.0316509331347703e+00 2 2 -1
1144 382 1 -8.1999999999999995e-01 -1.0878598777439255e+01 -8.0422414401015416e+00 5.2017387824349477e+00 0 0 0
1785 595 2 4.0999999999999998e-01 -1.1361684495869145e+01 -1.4133298199352998e+01 4.8850980914587652e+00 1 1 1
376 126 1 -8.1999999999999995e-01 -8.5955075785428754e+00 -1.4716773144518976e+01 7.0534159523227871e+00 2 1 -2
372 124 2 4.0999999999999998e-01 -1.2430465409580449e+01 -5.8440553311881960e+00 6.3246411408373433e+00 1 2 -1
1206 402 2 4.0999999999999998e-01 -9.6306788042351172e+00 -8.2844388015429047e+00 1.8711963588764888e+00 1 -1 2
1145 382 2 4.0999999999999998e-01 -1.0039887519533526e+01 -7.7965348651186206e+00 5.6878107560462396e+00 0 0 0
1771 591 1 -8.1999999999999995e-01 -1.3469980318209521e+01 -1.2775725532330110e+01 1.6960664781851449e+00 2 1 1
419 140 2 4.0999999999999998e-01 -1.2671166458605141e+01 -9.9446176018532597e+00 5.8099609132521515e+00 2 3 -2
370 124 1 -8.1999999999999995e-01 -1.2003685764473719e+01 -6.3349263325581280e+00 7.0842325314940027e+00 1 2 -1
1549 517 1 -8.1999999999999995e-01 -1.0871368116869302e+01 -1.4140930748120628e+01 2.2235856709109392e+00 3 1 0
420 140 2 4.0999999999999998e-01 -1.2647775269614346e+01 -8.6637899889893770e+00 4.7971637855997606e+00 2 3 -2
2173 725 1 -8.1999999999999995e-01 -8.4616844048615683e+00 -1.0641193639560385e+01 1.3596771885800685e-01 0 -3 3
1773 591 2 4.0999999999999998e-01 -1.2512931264158672e+01 -1.2941144805547914e+01 1.9343265282011117e+00 2 1 1
377 126 2 4.0999999999999998e-01 -9.3932616556885051e+00 -1.4897647779571805e+01 6.4781359392303557e+00 2 1 -2
1772 591 2 4.0999999999999998e-01 -1.3944259229903965e+01 -1.2375270600751914e+01 2.4801389510710372e+00 2 1 1
466 156 1 -8.1999999999999995e-01 -1.2598870665412303e+01 -1.1941471316110107e+01 7.2254760420862603e+00 0 0 0
467 156 2 4.0999999999999998e-01 -1.2359893273808325e+01 -1.2370237886510386e+01 6.3541992068641449e+00 0 0 0
1371 457 2 4.0999999999999998e-01 -8.8453539480234795e+00 -1.0388726926117645e+01 5.5677715522695266e+00 2 -1 -1
2034 678 2 4.0999999999999998e-01 -1.4269358940629797e+01 -1.0884353839466232e+01 4.2969988496133702e+00 2 2 -1
742 248 1 -8.1999999999999995e-01 -1.2138564674591404e+01 -6.8349443095196261e+00 8.9945455408363628e-01 2 -1 0
2174 725 2 4.0999999999999998e-01 -8.4876081158378831e+00 -9.6419805872895665e+00 1.6720066796432320e-01 0 -3 3
1636 546 1 -8.1999999999999995e-01 -8.7798783171802235e+00 -1.4600238729186021e+01 5.3610039121378961e-01 0 2 2
1637 546 2 4.0999999999999998e-01 -8.1981624629638645e+00 -1.3973464853069668e+01 1.0545937838965251e+00 0 2 2
2369 790 2 4.0999999999999998e-01 -9.5138273325633271e+00 -6.3355219576206832e+00 4.4286177804554079e+00 3 -2 0
1551 517 2 4.0999999999999998e-01 -1.0145804055559060e+01 -1.4316809911409385e+01 1.5582304402302753e+00 3 1 0
2370 790 2 4.0999999999999998e-01 -7.9622146482453058e+00 -6.1219096462569436e+00 4.8908865307178004e+00 3 -2 0
2368 790 1 -8.1999999999999995e-01 -8.6327750364710205e+00 -6.7884869837230806e+00 4.5651600930313663e+00 3 -2 0
989 330 2 4.0999999999999998e-01 -8.1753681020215048e+00 -8.7999662870563711e+00 3.8726981153392757e+00 0 1 0
523 175 1 -8.1999999999999995e-01 -8.2701990590787027e+00 -7.8191320745357755e+00 7.1440056128347784e-01 2 0 1
1514 505 2 4.0999999999999998e-01 -1.4411988382002013e+01 -1.4572475161522711e+01 6.4786559301651998e+00 1 -2 0
1249 417 1 -8.1999999999999995e-01 -7.5855693636100643e+00 -1.2277001083014472e+01 6.7256040190464574e+00 0 -1 0