2611
Atoms. Timestep: 4998000
O 11.2177 9.70789 -0.226317
H 11.2752 10.6997 -0.112541
H 11.6196 9.25708 0.57072
O 11.537 -7.15713 -0.431105
H 10.8689 -7.88809 -0.569922
H 11.6096 -6.95286 0.545122
O 2.15521 14.1376 -6.00558
H 1.98619 15.0193 -6.44604
H 2.11535 13.4099 -6.69031
O -6.88253 -14.5827 11.3519
H -6.55896 -13.6367 11.3711
H -6.13529 15.0056 11.0709
O -5.92484 -10.1914 9.48061
H -6.29284 -10.7066 8.70657
H -5.64795 -9.28088 9.17355
O 7.9929 -3.89991 -10.6005
H 8.68793 -3.70939 -11.2938
H 8.20739 -4.76215 -10.1417
O 1.42449 -13.2283 14.9678
H 2.41546 -13.1013 14.9246
H 0.981063 -12.3436 -15.0788
O 5.60954 -13.0946 -4.29348
H 5.71607 -12.741 -5.22281
H 5.46534 -14.0835 -4.32761
O 11.7527 9.22091 -4.59824
H 11.688 8.48885 -5.27641
H 11.7314 8.82689 -3.67938
O -0.617015 -14.3789 -6.38941
H -0.615092 -14.9142 -5.54476
H -0.62755 -14.9968 -7.17562
O -3.76374 -11.5082 -6.96491
H -2.83485 -11.4871 -7.33466
H -3.84643 -10.8323 -6.23261
O 14.4966 10.1131 5.38223
H -15.0269 10.8314 5.18448
H 14.9657 9.23275 5.45218
O 14.8405 1.28364 6.73527
H -14.593 1.77963 7.16069
H 14.1382 1.0947 7.42166
O 9.59674 -2.74704 5.38352
H 10.3522 -2.1761 5.705
H 9.9452 -3.6497 5.13096
O -11.4645 -4.67163 -14.2147
H -10.9654 -4.95633 -15.0332
H -12.4467 -4.68332 -14.4023
O -3.7809 7.80158 -0.85431
H -4.22271 8.2165 -0.0589151
H -2.99321 7.26312 -0.554947
O -9.6705 13.9 -12.5307
H -9.32569 13.7737 -11.6005
H -10.6623 13.7722 -12.5387
O -6.75536 -10.6646 -1.33123
H -5.94205 -10.9799 -0.842204
H -7.57499 -10.9677 -0.84508
O -13.9138 5.15079 -3.79342
H -13.6872 4.58941 -4.58935
H -14.5871 5.84259 -4.05431
O 6.81677 -1.06574 5.10497
H 5.97134 -1.59645 5.04497
H 7.59763 -1.68793 5.16101
O -5.7798 -11.7687 11.673
H -6.04998 -11.2076 10.8906
H -5.55967 -11.1762 12.448
O 8.47575 -1.24001 -0.47293
H 7.6534 -1.64768 -0.869867
H 8.85204 -1.85563 0.219481
O 13.7288 1.69176 0.0443292
H 12.7513 1.90299 0.0450731
H 14.1063 1.86415 -0.865472
O 14.4661 1.98537 2.60512
H -14.7448 1.85637 2.75954
H 14.2536 1.80562 1.64463
O -14.1208 -5.10947 1.95218
H -14.2471 -4.68609 1.05508
H -13.6559 -5.98814 1.84358
O 13.8048 5.63009 11.6412
H 12.8557 5.32106 11.7017
H 13.9575 6.36843 12.2981
O -0.584085 4.13587 6.01409
H -1.48854 4.20229 5.59271
H -0.402928 4.9627 6.54659
O -0.67002 6.05547 -6.72236
H -0.0640673 6.03679 -5.92707
H -0.312297 6.69915 -7.39891
O 5.08978 -12.9538 -0.626147
H 5.99186 -13.2772 -0.34035
H 4.50718 -13.7378 -0.840627
O -13.8832 -0.633758 -2.55539
H -14.3246 -1.50474 -2.77111
H -14.5674 0.0955425 -2.55471
O 6.91907 8.37105 14.5413
H 6.87913 9.27789 14.9609
H 6.85369 8.46046 13.5475
O -5.18256 -13.5958 -8.40308
H -4.66701 -13.0179 -7.77039
H -6.10083 -13.2192 -8.52556
O -9.65092 7.96634 2.311
H -9.51368 7.60303 3.23251
H -9.31805 7.30488 1.63893
O -0.894665 -6.32092 6.64373
H -0.0122386 -6.67451 6.95406
H -1.58461 -7.04172 6.71024
O 5.19747 -10.6371 -14.1929
H 6.09359 -10.4346 -14.5879
H 4.48204 -10.3963 -14.8488
O -3.534 4.88669 13.2518
H -4.36885 4.86604 12.7017
H -2.74584 5.0404 12.6559
O -2.03953 -0.935531 -12.4615
H -2.73532 -1.57412 -12.1327
H -1.33886 -0.814943 -11.7582
O -7.85804 -8.28996 12.3177
H -7.29744 -7.56054 12.7097
H -7.80972 -9.09894 12.9036
O 12.9795 13.6498 8.37065
H 13.7691 14.2568 8.4611
H 12.2186 14.0101 8.91024
O -4.52118 9.46438 -13.2866
H -4.65665 8.65366 -13.8561
H -3.83173 10.0549 -13.706
O -3.74796 -7.121 -12.7099
H -3.78523 -7.59702 -11.8313
H -4.65666 -6.77174 -12.9386
O -10.0794 13.9111 -6.51892
H -9.2915 13.8821 -7.13401
H -9.76218 14.0011 -5.57485
O 1.00956 -8.57745 9.51986
H 1.1077 -7.73647 8.98775
H 0.637928 -9.29959 8.93641
O 0.324224 -11.2296 8.0557
H -0.557486 -11.5305 7.69227
H 0.287503 -11.2212 9.05499
O -13.8919 1.23151 -12.8202
H -13.1431 0.659359 -12.4856
H -14.2355 0.860011 -13.6827
O 1.84605 9.41633 -7.7815
H 1.55447 10.3708 -7.71805
H 2.18739 9.11226 -6.89209
O -8.47375 -4.17461 14.0094
H -8.10648 -5.08544 13.821
H -8.14891 -3.8624 14.9022
O -2.59522 -4.61162 5.23391
H -2.82341 -4.98815 4.33604
H -1.95298 -5.2218 5.69781
O 6.45084 4.95354 8.02004
H 6.26379 5.75613 8.5865
H 5.68576 4.8016 7.39427
O -11.9683 -1.8437 6.5155
H -11.09 -2.09919 6.11121
H -11.8352 -1.60342 7.47706
O -9.20813 -6.51227 -0.549243
H -8.64056 -6.58791 -1.3691
H -9.99862 -5.93143 -0.743523
O 4.1709 10.799 -1.55225
H 4.84401 11.2832 -2.11127
H 3.25016 11.0168 -1.87598
O 12.3226 -1.95932 4.25552
H 13.0021 -2.67958 4.11558
H 12.7828 -1.07314 4.31025
O -12.4569 7.50916 14.7022
H -12.2182 7.9436 -14.6198
H -12.06 8.03199 13.9477
O 11.9856 -5.50757 -14.84
H 11.265 -5.08356 14.8019
H 12.8731 -5.1338 15.0811
O -4.28286 -4.40092 8.9946
H -4.29408 -4.63826 8.02324
H -4.09678 -3.42371 9.09682
O 10.1299 2.67767 8.13366
H 9.38307 2.92325 7.51558
H 10.4156 3.48577 8.64876
O 6.88903 0.792115 14.2147
H 7.21789 1.68176 14.5315
H 7.66945 0.212314 13.9806
O 3.50509 13.1939 12.0027
H 4.16626 12.5166 12.3254
H 3.36489 13.8864 12.7104
O 8.56883 13.7895 8.33803
H 8.89703 12.8459 8.38077
H 7.59306 13.8132 8.55559
O 7.67919 12.3634 3.07043
H 7.27114 11.6504 3.64064
H 8.64412 12.4704 3.31017
O 10.7751 13.1175 -14.0697
H 10.5747 14.0366 -13.7303
H 10.2769 12.9611 -14.9225
O -1.44657 14.4418 -1.77398
H -2.20028 13.8957 -1.40833
H -1.07133 13.9917 -2.5843
O -15.0522 12.4869 -10.3546
H -15.0487 11.6027 -9.88755
H -14.5735 12.404 -11.2287
O 3.00728 -6.39835 -5.43616
H 3.33622 -6.88332 -4.62584
H 2.12469 -6.7765 -5.71553
O 7.35024 -3.45894 7.25101
H 6.85383 -2.84423 7.86397
H 8.32729 -3.24916 7.2881
O 9.98667 -4.28245 13.8525
H 10.5392 -3.47444 13.6478
H 9.17853 -4.01011 14.3747
O -14.9439 -9.11348 -10.3971
H -14.0598 -9.20967 -9.93993
H 14.6342 -9.84442 -10.0958
O -0.356767 -1.56891 7.3399
H -0.613073 -1.51914 8.30522
H -1.18266 -1.59503 6.77667
O 10.9193 -13.9926 -10.2712
H 11.6289 -14.6878 -10.386
H 10.4326 -14.1519 -9.41229
O -3.66224 -13.8675 -1.11907
H -3.70427 -13.877 -2.11814
H -2.90251 -14.4407 -0.811973
O -10.6902 -12.3639 8.9176
H -10.0272 -13.0738 9.1555
H -10.3768 -11.4829 9.272
O 5.4319 -10.8932 8.53248
H 4.69483 -10.226 8.42487
H 5.38683 -11.5622 7.79059
O -0.521933 8.1898 -3.18721
H -1.23796 8.83064 -3.46407
H -0.93581 7.41057 -2.71655
O -9.31039 -5.2979 6.40342
H -9.38886 -5.43119 7.39139
H -9.59869 -6.13067 5.93079
O 3.59418 7.2793 -2.73548
H 4.28042 7.83127 -2.26176
H 3.14803 6.66862 -2.08124
O -8.98958 7.52648 5.0073
H -8.18067 8.01635 5.33242
H -9.58995 7.32397 5.78096
O -7.41797 -1.9649 -14.0164
H -6.87461 -1.86596 -13.1827
H -8.02463 -1.17599 -14.1144
O 10.5538 -8.29719 -6.20584
H 10.5222 -8.35699 -5.20812
H 10.4195 -7.34703 -6.48723
O -8.99954 3.90302 -7.8563
H -8.45038 4.73451 -7.77232
H -8.43996 3.17202 -8.24684
O -4.51897 -12.5595 -3.69544
H -5.40383 -12.1354 -3.88829
H -3.83338 -11.847 -3.54598
O 4.45569 -12.4371 -11.7396
H 4.8117 -12.7955 -10.8765
H 5.21739 -12.2236 -12.3513
O 11.5469 3.98092 6.01888
H 10.5711 4.18841 6.08812
H 11.7741 3.7594 5.07055
O -10.6702 2.28289 13.4528
H -11.1524 1.44729 13.716
H -10.4981 2.8387 14.2661
O -14.4301 -13.949 11.9312
H -13.9698 -14.0754 11.0525
H 15.0612 -14.6547 12.0458
O -7.93631 4.24565 -4.02833
H -8.44254 4.35636 -3.17305
H -6.98596 4.01002 -3.82504
O 14.7085 1.81867 -2.51355
H -14.6653 2.3955 -2.52819
H 14.1423 2.02215 -3.31236
O 12.8247 -7.0766 -10.4439
H 12.5495 -7.78283 -9.79161
H 13.7995 -7.17115 -10.646
O -6.50726 -13.6587 -0.593313
H -6.76431 -12.9766 -1.27789
H -5.52072 -13.817 -0.634561
O 0.42627 -3.04593 12.2147
H -0.0223572 -3.91218 12.4346
H 1.32646 -3.22782 11.819
O -12.3451 -4.09195 8.442
H -12.8428 -3.36373 7.97085
H -12.2034 -4.85826 7.81534
O 10.7394 -9.09558 8.8748
H 10.2395 -9.86199 8.47149
H 10.1112 -8.53445 9.41374
O -8.23714 -2.46306 -0.884452
H -7.86793 -1.85216 -1.58481
H -9.22071 -2.57587 -1.02544
O 10.5888 -2.96851 -6.23652
H 9.93015 -2.78652 -6.96661
H 10.1391 -3.47428 -5.50034
O -5.09443 5.86983 0.346296
H -4.4349 6.57899 0.0970709
H -5.90887 5.95557 -0.227593
O -9.71575 -2.93411 5.42389
H -9.72188 -3.81813 5.89131
H -8.97448 -2.36994 5.78752
O 7.39027 -14.1671 -13.8013
H 8.3871 -14.2291 -13.8515
H 7.06612 -14.6572 -12.9922
O 12.367 -8.82911 11.4202
H 12.1236 -8.18695 12.1471
H 11.5336 -9.19427 11.0052
O 5.92751 -11.7295 -6.57814
H 6.87978 -11.4513 -6.7037
H 5.35408 -10.9172 -6.47204
O -10.3381 -7.96387 13.4406
H -11.0974 -7.7811 12.8161
H -9.50155 -8.11352 12.9135
O -2.13858 14.1403 -14.5743
H -2.7272 14.2327 -13.7712
H -1.18121 14.1245 -14.2858
O 12.3815 -3.6733 0.653387
H 11.5362 -3.48661 1.15411
H 12.1667 -3.85962 -0.305347
O 10.6508 8.54453 -8.86232
H 10.18 8.70164 -9.73047
H 10.0907 8.89436 -8.11135
O -6.48198 -3.32504 -3.25276
H -7.45978 -3.53044 -3.29443
H -6.28265 -2.82178 -2.41192
O -3.05844 1.72472 -10.3835
H -3.39041 1.24562 -11.196
H -3.26008 1.17978 -9.56958
O 14.7007 14.3709 -5.0959
H 14.7291 13.3717 -5.06659
H -14.8699 14.7424 -4.40474
O 15.0721 -8.97262 -4.41412
H -14.4568 -8.30419 -4.0744
H 14.4915 -9.27976 -3.66008
O 5.79846 -2.6228 -11.3187
H 5.11702 -3.25355 -11.6899
H 6.61202 -3.13515 -11.0437
O 14.4311 -2.68034 -1.70726
H 13.6327 -2.40641 -2.24353
H 14.4986 -2.10486 -0.892225
O 2.623 -9.67298 1.79702
H 1.65681 -9.41612 1.77449
H 2.91846 -9.93972 0.879649
O 1.01903 5.80438 10.6881
H 1.13936 6.76277 10.4292
H 1.88501 5.44053 11.0311
O 13.1167 1.61334 -14.0934
H 13.4733 1.11086 -14.881
H 13.0263 2.58109 -14.3285
O -13.7258 8.14673 5.38677
H -12.8449 8.51074 5.08415
H -13.578 7.48289 6.1199
O 13.7483 -0.155157 14.0006
H 14.4213 0.133729 13.3196
H 13.1832 -0.887653 13.6209
O -6.72082 9.71748 -8.7887
H -6.98433 10.4078 -8.11487
H -6.38691 10.1695 -9.61586
O 14.8207 3.91123 9.96282
H -14.7327 3.2524 10.3628
H 14.4859 4.52666 10.6764
O 8.00999 1.12646 3.87773
H 7.64277 0.33791 4.37104
H 8.74214 1.54459 4.41544
O -2.1835 -4.88063 -7.73442
H -1.38609 -4.2847 -7.63942
H -3.01815 -4.33436 -7.66384
O -5.58927 10.3339 -3.85354
H -4.70211 9.91503 -3.65992
H -6.27693 9.61784 -3.9734
O 3.69257 5.59667 -8.01471
H 3.41284 5.28031 -7.10825
H 3.03025 6.26486 -8.35361
O -10.9116 -2.17194 3.11832
H -11.467 -1.36784 3.33022
H -10.5706 -2.57475 3.96772
O 5.0115 -0.470483 10.973
H 4.03795 -0.540874 10.7556
H 5.16479 0.322152 11.5631
O 4.82956 -6.25929 -8.60244
H 4.82532 -6.2052 -9.60097
H 5.51611 -6.9239 -8.30755
O -12.5069 -6.34925 6.70498
H -12.1246 -7.05263 6.10571
H -12.8014 -5.56733 6.15555
O -13.1208 -9.28312 1.06619
H -13.3566 -9.16896 2.03128
H -12.7523 -10.2011 0.919436
O -7.81454 -15.0571 7.11063
H -8.57451 14.8989 6.50445
H -8.12454 -14.3951 7.79304
O -0.539665 -4.47059 8.78846
H -0.728253 -5.0958 8.03112
H 0.173374 -4.85935 9.37195
O -4.60395 14.3587 -6.39502
H -3.80775 14.4319 -5.79443
H -4.48668 14.9674 -7.17971
O -4.79624 8.6356 3.88896
H -4.48152 9.55485 4.1255
H -4.05998 7.9789 4.05232
O -10.0023 -4.14876 1.69874
H -10.4361 -3.41707 2.22454
H -9.00916 -4.08668 1.79775
O 4.66258 12.6428 6.42407
H 4.12906 11.8702 6.76829
H 5.29045 12.9578 7.13583
O 5.94479 3.60723 -12.2012
H 5.90368 4.28684 -11.4688
H 5.17582 2.97418 -12.1121
O 12.3061 5.6527 -11.8053
H 13.2995 5.67692 -11.9174
H 12.0619 4.9366 -11.1514
O -12.2253 -0.717176 9.14752
H -12.1923 0.215221 8.78757
H -13.1512 -0.918539 9.46707
O -13.2747 -8.94593 -6.6723
H -13.7587 -8.25371 -7.20757
H -13.6621 -8.98613 -5.75125
O -3.17778 11.2367 11.3404
H -2.73655 10.7222 12.0757
H -2.61415 12.0276 11.1023
O -3.30082 4.5085 -3.94424
H -3.89644 4.11188 -3.24571
H -3.84405 4.74687 -4.74928
O -3.78846 -9.92978 -4.77045
H -3.4611 -9.08766 -5.19903
H -3.11599 -10.2466 -4.10154
O -1.93403 10.1702 6.88446
H -2.13914 9.93153 7.83366
H -2.78644 10.2365 6.36579
O -12.6122 -9.7404 4.00994
H -13.349 -9.40245 4.59556
H -11.7351 -9.39748 4.34636
O 8.18824 13.2557 -0.868526
H 8.54566 12.335 -1.02555
H 7.36268 13.2014 -0.306808
O -2.98763 3.44354 -14.7265
H -3.28351 3.95364 14.6563
H -3.21882 2.4772 -14.8395
O 7.09284 -15.0897 -11.3015
H 7.83127 14.4621 -11.5177
H 7.39569 -14.4598 -10.5862
O 11.08 -11.7182 3.06548
H 10.2988 -12.2958 3.30235
H 10.9223 -11.2936 2.17392
O 12.1538 -10.0698 0.524189
H 12.7266 -10.4947 -0.176843
H 12.7288 -9.54312 1.15026
O -6.6647 6.90348 11.7742
H -6.27317 7.40036 12.5487
H -6.34468 5.95619 11.7898
O -1.04148 5.38711 8.86061
H -1.6074 4.87121 9.50374
H -0.132199 5.5252 9.25323
O -14.21 7.97256 2.3958
H -13.3531 8.42683 2.15188
H -14.2544 7.85527 3.38791
O 2.14814 11.6564 -3.55411
H 2.75509 12.0871 -4.22206
H 1.98755 10.7045 -3.81479
O -7.14637 13.0529 -10.7031
H -6.83817 13.7879 -11.3071
H -6.93002 12.1687 -11.117
O 6.26234 5.60897 -3.00685
H 6.28262 5.35853 -2.03893
H 6.54977 6.56111 -3.11088
O -2.59253 12.8209 -10.6277
H -2.93264 12.2772 -9.86037
H -3.36296 13.1256 -11.1877
O 5.27598 -9.12978 2.40436
H 4.30244 -9.24555 2.20731
H 5.76897 -9.96147 2.1489
O 4.43922 -2.25619 5.10556
H 3.68682 -2.49201 5.72062
H 4.24732 -2.61401 4.19169
O -0.792184 -7.17393 -0.637
H -0.311786 -6.34752 -0.930741
H -1.74993 -7.121 -0.919709
O -12.6411 -12.4985 7.10106
H -12.2393 -13.1209 6.42931
H -11.9548 -12.2626 7.7891
O -9.81377 3.44497 7.8901
H -9.63048 2.51836 7.56173
H -10.8014 3.59946 7.91793
O 4.18407 -8.45748 8.67797
H 3.6297 -8.05648 9.40727
H 4.4153 -7.75151 8.00853
O -4.6194 8.15019 -8.23825
H -5.47865 8.66078 -8.20684
H -4.68623 7.42722 -8.9259
O 9.94569 -12.4584 -0.195514
H 10.3703 -11.7725 -0.786556
H 10.649 -13.075 0.158243
O 7.01621 -14.5315 12.1717
H 6.70637 -14.0339 11.3615
H 7.30984 -13.8798 12.8711
O -10.5296 -2.2961 -4.83433
H -10.9924 -1.44137 -4.59934
H -9.78673 -2.10724 -5.47658
O -5.0604 1.38867 14.8367
H -4.3744 1.07979 14.1779
H -5.94185 0.968006 14.6221
O 14.8642 -9.83338 11.5117
H -14.9521 -9.29199 12.2646
H 13.9148 -9.5653 11.3481
O -14.8918 -1.42953 -14.0623
H 14.6565 -1.04967 -14.7281
H 14.9495 -1.27682 -13.1378
O -9.16609 -4.70414 -4.04014
H -9.67458 -5.56522 -4.03741
H -9.78387 -3.95297 -4.27275
O -7.60911 2.95728 13.2897
H -8.44282 2.94907 12.7376
H -7.48641 2.06364 13.7214
O 2.97872 6.34451 -0.161812
H 2.16604 6.92602 -0.199451
H 3.08451 5.97903 0.76298
O 2.61195 -4.54247 -8.77385
H 3.00753 -3.62825 -8.86179
H 3.32962 -5.19392 -8.52771
O -8.9012 1.13302 6.80099
H -8.49002 0.230691 6.93041
H -8.1982 1.7806 6.50699
O 4.22109 14.3233 -11.9269
H 5.18995 14.5708 -11.9349
H 3.80167 14.6457 -11.0783
O -14.647 5.72562 14.5806
H -15.0854 6.40389 13.9909
H -13.7206 6.02797 14.8048
O 5.85797 8.18873 -1.38052
H 5.49598 9.00174 -0.924453
H 6.65008 8.44278 -1.93553
O -4.93797 8.83786 1.1712
H -4.99084 8.91976 2.16645
H -5.78511 8.43523 0.82442
O -7.8838 -8.20511 1.10759
H -8.26045 -7.36338 0.720765
H -6.92612 -8.2978 0.835078
O -2.18289 -12.5663 14.3878
H -3.00834 -12.1266 14.034
H -2.35468 -13.543 14.5167
O -8.31125 6.29081 8.29214
H -7.90969 5.4588 7.90937
H -7.58955 6.96217 8.46077
O -1.11834 -11.5357 -0.154098
H -0.789588 -10.7845 0.418281
H -0.712113 -12.3947 0.157602
O -8.50668 0.744102 -0.325502
H -9.45306 0.579775 -0.603658
H -8.13725 -0.0804548 0.103038
O 13.3327 5.1776 -7.91639
H 13.9623 5.92948 -8.11217
H 12.697 5.06767 -8.68044
O 1.47557 14.5986 3.48676
H 2.14491 14.9561 2.83546
H 1.17411 -14.8558 4.09279
O -8.00685 -8.17552 -8.98239
H -8.83323 -8.0182 -8.44168
H -8.25569 -8.30011 -9.9429
O 10.2343 0.905319 5.34884
H 10.7998 0.468367 4.64935
H 10.7945 1.53892 5.88245
O -14.8216 -4.67744 -5.53448
H 14.3923 -4.71775 -5.74572
H -14.544 -5.52317 -5.07875
O 8.43187 -1.72437 9.96028
H 9.39412 -1.9639 9.83097
H 8.29701 -0.757515 9.74345
O 12.8244 0.959863 -11.4996
H 13.0543 1.7581 -10.9429
H 12.984 1.16918 -12.4644
O -6.11197 -0.725272 -8.9624
H -5.26606 -0.461577 -8.49881
H -6.62934 -1.35272 -8.38046
O 4.29772 14.4385 -4.12959
H 3.43759 14.3767 -4.63592
H 4.84324 13.6175 -4.29778
O -5.20204 5.50868 3.11467
H -6.09962 5.0722 3.17675
H -4.9745 5.66775 2.15397
O 6.61583 10.7508 5.33624
H 5.84366 11.3718 5.47074
H 6.27614 9.8183 5.21365
O -6.19432 10.4493 -11.3765
H -7.15507 10.4586 -11.6537
H -5.62017 10.2494 -12.1704
O 9.47345 7.89152 5.02448
H 10.3659 7.90285 5.47541
H 8.75205 7.83351 5.71458
O 4.36295 -14.2778 9.11385
H 4.44105 -13.886 8.19711
H 3.40269 -14.2842 9.3929
O 11.0756 12.4428 -1.36755
H 10.8148 12.1583 -2.29007
H 12.0399 12.2279 -1.21258
O -0.944749 -7.23729 -8.45409
H -1.74055 -6.64305 -8.57063
H -0.661828 -7.23121 -7.49496
O -7.91936 -7.34879 9.74906
H -7.75319 -7.7615 10.6446
H -7.08931 -7.40987 9.19472
O 7.50371 9.77551 1.5157
H 7.73394 10.7007 1.81752
H 6.5151 9.63989 1.58114
O 12.8889 -4.36035 -6.5666
H 13.4824 -4.00099 -7.28679
H 12.2334 -3.65659 -6.29286
O -0.799117 -5.31086 13.0917
H -1.62295 -5.45295 13.6404
H -0.780637 -5.97127 12.341
O 10.0702 -5.35686 4.76315
H 9.81343 -6.15833 4.22306
H 10.4244 -5.65237 5.65041
O -14.2368 13.9345 -7.8859
H -14.6525 14.1508 -8.76933
H -14.9482 13.891 -7.1845
O -7.9909 -10.6425 -10.9617
H -7.26074 -11.0877 -11.4799
H -8.77693 -11.2574 -10.8976
O -13.9009 5.41069 1.09258
H -13.6864 6.22427 1.63303
H -14.2551 5.68771 0.199383
O -14.4165 -10.2485 6.20127
H -13.527 -10.6882 6.32512
H -15.0668 -10.6193 6.86431
O 14.3209 7.89441 13.1872
H 15.0883 8.47727 12.9199
H 13.4656 8.40292 13.0877
O 3.82986 -10.4539 -0.883989
H 4.48747 -11.1788 -1.08905
H 3.45672 -10.091 -1.73787
O -14.1149 9.42144 11.9757
H -13.1158 9.38867 11.9457
H -14.4203 10.3688 11.8799
O 14.7015 -2.058 -4.87984
H 15.025 -2.99408 -4.74164
H -14.9268 -1.61027 -5.57518
O -8.39325 11.3632 -1.29138
H -8.91268 11.1634 -0.460535
H -7.80045 12.1526 -1.13214
O -3.75766 -8.60465 -10.2293
H -2.81189 -8.92108 -10.3028
H -4.22177 -9.10781 -9.50026
O -12.2211 -9.1737 -9.57734
H -11.8231 -10.091 -9.56699
H -12.4588 -8.90296 -8.6445
O -8.05782 7.58605 -9.78874
H -8.84267 8.05354 -10.1955
H -7.41381 8.26351 -9.43334
O -9.39692 6.64116 12.2184
H -9.67344 6.13232 11.4031
H -8.45942 6.96987 12.1041
O -11.4784 12.7978 2.98118
H -12.1556 12.8857 2.25072
H -10.5597 12.8878 2.59654
O -0.823856 9.25341 -12.8399
H -1.47059 8.77877 -12.2428
H 0.013867 8.71324 -12.9201
O 2.11164 8.1738 13.4941
H 2.1768 8.49376 14.4393
H 1.1513 8.0258 13.2577
O -9.66161 -12.0454 -7.0349
H -9.24257 -11.1445 -6.92219
H -9.83529 -12.4471 -6.13573
O -2.69866 1.04436 12.9776
H -2.3039 1.75135 12.3908
H -2.21512 1.02933 13.8528
O 9.91254 -9.70694 -9.59323
H 9.78816 -8.81637 -10.0308
H 9.02958 -10.1716 -9.52616
O 6.42212 3.63976 10.5524
H 6.40006 3.34446 9.59721
H 7.11204 4.35494 10.6643
O 11.7249 -6.81915 2.47505
H 11.0266 -7.48224 2.74462
H 11.5886 -5.96731 2.98081
O 14.6599 3.32493 -6.59267
H 14.1554 4.07318 -7.02346
H 14.0567 2.83518 -5.96314
O 6.83368 11.9545 -12.5997
H 6.13632 11.7586 -11.9103
H 7.72435 11.6396 -12.2718
O 0.913018 6.4687 6.58681
H 1.73506 6.15176 7.05989
H 0.886406 7.46829 6.59815
O -6.74572 2.29756 4.85807
H -7.05994 3.14094 4.42218
H -5.75041 2.32166 4.95187
O 9.2039 -5.65261 -1.47202
H 8.44857 -6.16988 -1.06962
H 10.0222 -6.22666 -1.50236
O 13.275 13.549 15.032
H 13.7807 12.7062 -14.9742
H 12.3866 13.5115 -14.7008
O 11.9768 -14.2253 0.430444
H 12.831 -14.3755 0.928202
H 11.3969 -15.0359 0.511496
O -1.26394 5.11728 11.9134
H -0.96205 4.16442 11.944
H -0.667065 5.63654 11.3018
O 12.0738 -14.2519 6.10284
H 11.6361 -13.4561 6.52135
H 11.4483 -15.0315 6.1345
O 11.0745 4.80003 9.51255
H 11.1661 5.73402 9.16717
H 11.0693 4.81342 10.5124
O -13.7328 11.7244 -12.7865
H -14.3136 11.3025 -13.4826
H -13.3403 11.0126 -12.2039
O 9.2628 7.64509 2.39424
H 9.42268 7.76807 3.37369
H 8.57453 8.30085 2.08394
O -5.36377 -9.40532 -7.92212
H -5.13742 -10.3597 -7.72726
H -6.13286 -9.36875 -8.56022
O 6.38229 -8.84102 -11.8592
H 7.08073 -8.56857 -12.521
H 5.75816 -9.49668 -12.2841
O 3.45464 -14.9891 -9.25349
H 2.58286 -14.5363 -9.06648
H 3.50261 14.3452 -8.73906
O -4.82491 -5.76948 6.39904
H -5.71589 -5.66389 5.95742
H -4.10002 -5.58267 5.73598
O -5.62335 -5.4635 2.3395
H -6.45554 -5.51041 2.892
H -5.85336 -5.15722 1.41575
O 10.8265 -11.6406 13.0333
H 10.9442 -10.9245 13.7214
H 11.7176 -11.8846 12.6504
O -7.66397 -10.237 -6.40169
H -8.02399 -9.36153 -6.72419
H -6.66696 -10.1862 -6.34338
O 8.24186 1.07431 1.05442
H 8.29871 0.24142 0.503907
H 7.9525 0.841123 1.98281
O 8.22226 8.23035 -11.2601
H 8.57825 8.84143 -11.9671
H 7.85394 8.77294 -10.5052
O 2.22986 7.13088 -9.83055
H 1.67317 6.6401 -10.5008
H 1.66314 7.80402 -9.35545
O 8.62047 -14.8415 -2.43452
H 8.0668 -14.0419 -2.20189
H 8.51964 14.6549 -1.7217
O -2.95622 4.95852 4.90525
H -2.74955 5.80547 5.39511
H -3.48306 5.16971 4.08193
O 8.44178 -10.7734 8.71131
H 8.63204 -10.9698 9.6732
H 7.45278 -10.7376 8.56773
O 0.829051 -13.6055 -9.54855
H 1.16251 -12.8533 -10.1169
H 0.382848 -14.2881 -10.1273
O -11.6566 -5.34319 -0.403647
H -11.3682 -4.53507 0.109899
H -12.5605 -5.18129 -0.799755
O 7.82538 10.7448 8.00221
H 7.37253 10.9217 7.12833
H 8.78392 10.5108 7.83955
O -13.4991 -6.55964 -3.53477
H -13.7573 -6.12759 -2.67066
H -12.5838 -6.95349 -3.45012
O 0.563812 8.84742 3.25084
H -0.238059 9.43501 3.35928
H 1.10403 9.16146 2.4701
O 14.1275 -1.38689 -11.5023
H 13.7718 -0.463656 -11.357
H 13.3996 -2.05361 -11.3418
O 10.036 -14.3296 -13.9034
H 10.7768 -13.7137 -13.6354
H 9.90803 -14.2858 -14.8943
O -12.3472 -4.03995 -6.83671
H -13.2087 -4.4921 -6.6056
H -12.0174 -3.52636 -6.0446
O 7.31624 11.0418 15.0661
H 7.73823 11.6713 14.4136
H 7.1199 11.527 -14.2724
O 6.27708 -0.873313 -13.7352
H 6.8125 -0.742924 -12.9007
H 6.46941 -0.128687 -14.3744
O 5.55151 12.6066 -0.0217633
H 5.08566 12.9479 0.794637
H 5.23007 11.6822 -0.226989
O 12.0052 -1.93699 -2.40227
H 11.7061 -1.66256 -3.31619
H 11.7051 -1.25555 -1.73474
O -13.0308 13.5931 0.531957
H -13.9318 13.8893 0.849201
H -12.9803 13.6865 -0.462391
O -3.57709 0.311064 -8.23154
H -3.05588 -0.5422 -8.24867
H -3.19705 0.919863 -7.53516
O 4.36727 9.72668 -5.55887
H 4.87648 8.88003 -5.71345
H 3.44895 9.50783 -5.22903
O 11.7049 6.9947 -6.33099
H 10.7689 6.90861 -6.67225
H 12.3101 6.4044 -6.86517
O 6.38644 3.27768 4.42365
H 6.81884 4.06156 3.97803
H 6.81488 2.43328 4.10202
O 5.77129 -13.0933 -9.06838
H 5.25032 -13.9442 -9.13542
H 5.78858 -12.7872 -8.11653
O 13.8373 -7.8113 -14.63
H 14.4393 -7.62475 -13.8535
H 13.2899 -6.9987 -14.8301
O 12.4084 -14.988 -6.37229
H 13.246 15.0808 -5.83967
H 11.8728 14.3583 -6.34876
O -6.00307 -8.96106 -3.19661
H -5.69289 -9.60344 -3.89744
H -6.17128 -9.45444 -2.34322
O -0.80011 -7.65819 11.4677
H -0.650345 -7.99109 10.5367
H -1.26862 -8.36181 12.002
O -5.59275 6.34969 -10.0274
H -6.55529 6.56107 -10.1972
H -5.46696 5.35774 -10.0123
O 13.3016 4.20932 -14.911
H 12.5331 4.83723 -14.788
H 14.056 4.68945 14.8318
O -3.06671 -2.03649 6.2123
H -2.84617 -2.88878 5.73798
H -3.72106 -1.51171 5.66782
O 2.09783 -2.62161 6.97987
H 1.96502 -3.2109 6.18293
H 1.23349 -2.17572 7.21246
O 8.12029 -4.84258 9.86582
H 7.78501 -4.30347 9.09319
H 8.78064 -4.30244 10.3876
O 2.30707 10.1169 4.90038
H 1.60871 9.47404 4.5857
H 2.16119 11.0061 4.46676
O -5.89802 -4.24417 -10.8478
H -5.96865 -5.21947 -10.6384
H -6.58735 -3.99878 -11.5294
O 0.0895042 -3.5907 -7.12012
H 0.692434 -2.81316 -6.94147
H 0.616598 -4.43916 -7.07204
O 7.8453 -2.85733 15.0952
H 7.43308 -2.29946 -14.3749
H 7.67327 -2.43362 14.2059
O -12.8878 8.73853 -4.07746
H -12.284 8.29973 -3.41192
H -13.8399 8.60698 -3.80131
O 4.65325 7.52969 -14.2624
H 4.80603 6.55864 -14.0788
H 5.38376 7.87661 -14.8507
O 12.5142 10.6603 -11.1877
H 12.4126 11.3071 -10.4318
H 12.7158 9.75109 -10.8235
O 9.81182 7.68729 9.247
H 9.19695 7.96166 8.50763
H 10.7536 7.67744 8.91095
O -1.84922 -11.1174 -13.409
H -1.77576 -11.561 -14.3022
H -2.81008 -10.9234 -13.2113
O -8.31211 -4.1843 -12.404
H -9.245 -4.50257 -12.2353
H -8.33942 -3.34316 -12.9441
O 14.9326 -4.33589 11.5696
H -14.7819 -5.03938 11.0418
H 14.3338 -3.81247 10.9634
O 13.1694 -13.274 3.79733
H 12.776 -13.4846 4.69223
H 12.5609 -12.6527 3.30362
O 4.71703 8.69427 4.98305
H 4.70556 7.89968 4.376
H 3.86846 9.21142 4.87125
O 6.95847 -8.01402 -8.54814
H 7.66902 -7.31214 -8.59813
H 7.01274 -8.60137 -9.35566
O 9.45454 10.1884 -7.06388
H 10.3294 10.5366 -6.7272
H 9.00641 9.65989 -6.34284
O 2.81699 0.773245 14.4913
H 3.33004 1.62666 14.5834
H 3.45187 0.000633947 14.4947
O -2.24255 2.29607 -6.03198
H -2.42023 2.94408 -6.77261
H -2.7357 2.58451 -5.21124
O -11.4959 -3.19442 -9.21587
H -11.9886 -3.34384 -8.3586
H -12.1236 -2.82493 -9.90106
O -6.72114 -4.72138 -0.103918
H -7.02243 -5.48437 -0.675828
H -7.21241 -3.89173 -0.369134
O 12.2085 8.00336 -2.20788
H 12.3734 7.06585 -1.90146
H 11.7261 8.50805 -1.49194
O -14.5103 10.5103 -0.842048
H -13.5375 10.7325 -0.777757
H -15.051 11.3432 -0.723905
O 10.4823 10.3706 7.59565
H 10.8466 10.4725 6.66996
H 11.1823 10.6325 8.26004
O 12.5575 11.0739 9.34179
H 12.9365 11.8931 8.91146
H 13.3009 10.5202 9.71705
O -5.62224 12.6893 0.741659
H -4.9404 12.022 0.441977
H -6.00757 13.1533 -0.0559888
O 11.8529 10.6361 5.02112
H 11.6774 10.0707 4.21522
H 12.8299 10.6198 5.23339
O -12.1007 -6.61704 -10.5333
H -11.1441 -6.49847 -10.267
H -12.3077 -7.59261 -10.6069
O -12.0298 -0.0261868 -4.53156
H -12.5402 -0.230039 -3.69612
H -11.3341 0.665266 -4.3368
O 12.6935 -13.0443 9.53721
H 12.5367 -12.9462 10.5199
H 12.0265 -13.684 9.15544
O 9.79612 4.13924 -1.33086
H 8.87236 3.85766 -1.07127
H 9.88206 4.12266 -2.32703
O 3.24061 12.9347 -14.131
H 3.92136 13.2868 -14.7734
H 3.33309 13.4078 -13.2549
O -13.5215 6.54453 -1.50629
H -13.6918 5.97505 -2.31048
H -14.0973 7.36109 -1.54815
O -4.99034 5.15826 -6.27977
H -4.42893 5.9843 -6.32971
H -5.94763 5.39536 -6.44528
O -9.75111 -13.2147 -0.792591
H -10.1772 -12.3111 -0.748171
H -10.1322 -13.7985 -0.0756981
O -5.09875 -8.77332 5.81451
H -5.65446 -9.45195 5.33424
H -5.49363 -8.59692 6.71616
O -9.15958 -14.8331 9.68229
H -8.37991 -14.6827 10.2902
H -9.52755 14.4399 9.83287
O 9.93327 14.6312 6.16221
H 9.4865 14.5062 7.04808
H 9.57298 -14.7378 5.72016
O 5.18656 11.8535 -4.13256
H 4.85525 11.1106 -4.71417
H 6.18231 11.9131 -4.20282
O 9.3719 -5.57694 -6.4017
H 10.2538 -5.33503 -6.80636
H 8.63662 -5.1376 -6.9178
O 1.97427 8.84932 -4.43501
H 2.51083 8.30204 -3.79267
H 1.01997 8.55145 -4.41057
O -11.7609 9.62001 7.50551
H -11.7003 10.2985 6.7734
H -11.1827 8.83542 7.28149
O 8.67838 -6.19637 -9.49223
H 8.8192 -6.77145 -10.2981
H 9.56417 -5.95713 -9.09455
O -12.689 -2.30521 0.109002
H -13.5639 -1.82316 0.061301
H -12.3152 -2.22678 1.03319
O -6.35612 8.06314 9.22898
H -6.43797 7.59068 10.1065
H -5.53061 8.62754 9.23002
O -12.9631 -4.45144 4.46114
H -13.6164 -4.47319 3.70433
H -12.7278 -3.50248 4.67117
O -9.70177 -13.5119 -4.75869
H -8.90332 -13.7286 -5.3204
H -9.76406 -14.1633 -4.00251
O 9.99066 -3.51328 -3.1056
H 10.6903 -2.95359 -2.66149
H 9.84422 -4.34755 -2.57403
O -11.1297 11.2034 -6.77082
H -10.6656 12.0151 -6.41606
H -12.0243 11.113 -6.33319
O 10.6504 -11.2125 -13.526
H 11.1916 -11.0789 -12.6958
H 11.1469 -10.8416 -14.3108
O -6.72282 -13.9584 3.98469
H -6.3195 -13.1089 3.64469
H -7.4339 -13.7451 4.65466
O 13.1989 14.6311 -10.3977
H 13.6322 13.7827 -10.7018
H 13.8966 -14.8533 -10.277
O 4.467 -12.7211 6.58703
H 5.05777 -12.7191 5.78018
H 3.51999 -12.8774 6.30635
O -3.22931 7.22471 -6.19337
H -3.50587 7.84045 -6.9312
H -2.25864 7.00431 -6.28938
O 11.9127 12.3114 -6.08297
H 11.9379 12.6684 -7.01674
H 12.617 11.6096 -5.97536
O -7.43789 -6.00853 -6.33716
H -7.42801 -5.25268 -5.68249
H -8.26012 -5.94853 -6.90316
O 10.7964 5.70586 -14.2582
H 11.0444 5.59082 -13.2963
H 10.346 6.58996 -14.3829
O 4.81025 14.5911 14.2979
H 5.64415 14.8218 13.7965
H 4.49768 -14.7999 14.8108
O -7.11551 -10.675 5.16515
H -7.57955 -9.84462 4.85661
H -6.77311 -11.1795 4.37257
O -6.55378 -12.432 -12.5169
H -7.37346 -12.743 -12.998
H -6.02593 -13.2244 -12.2112
O 13.0231 1.79603 -4.9531
H 13.0625 0.807632 -4.80639
H 12.1332 2.04067 -5.33809
O 5.62649 5.13695 -14.5132
H 4.86651 4.59827 -14.8769
H 6.01898 4.66785 -13.7221
O -3.1037 -9.91405 2.19205
H -2.49753 -9.26151 2.64675
H -3.88614 -9.42733 1.80358
O 5.67368 10.7062 12.6735
H 5.81478 10.6521 13.662
H 6.15215 9.95026 12.2267
O 7.13454 8.80293 11.7614
H 8.13396 8.79521 11.728
H 6.77274 8.1965 11.0533
O 7.51869 7.87333 7.34642
H 7.61997 8.86601 7.41223
H 6.58122 7.65096 7.07864
O -9.89095 -5.11544 -7.75425
H -10.8397 -4.81958 -7.64286
H -9.46974 -4.60829 -8.50617
O -14.6098 15.0814 -14.6428
H -13.673 14.7318 -14.6305
H 14.9494 14.3358 -14.8562
O -6.85476 14.9903 14.0796
H -7.46744 -14.6349 14.632
H -6.81863 -14.8398 13.1475
O -6.05448 13.454 3.24684
H -6.27236 14.4036 3.47219
H -5.82396 13.3863 2.27613
O -3.93404 14.0921 -12.5751
H -4.16857 14.8729 -11.996
H -4.75257 13.7742 -13.0536
O 4.48916 -5.66755 1.30918
H 4.37451 -6.53854 0.831427
H 5.31462 -5.21126 0.976891
O -3.59517 2.57065 8.78545
H -3.98189 3.41546 8.41565
H -4.18423 2.22649 9.51659
O 9.50997 -0.46074 13.4753
H 9.09108 -1.11421 12.8448
H 10.3487 -0.85289 13.8531
O -12.092 13.7924 -11.0356
H -12.842 13.4457 -11.5989
H -12.0098 14.781 -11.1618
O 13.4281 -12.1155 12.1144
H 14.155 -12.7842 12.2711
H 13.8327 -11.2172 11.9433
O 9.45183 8.26301 -14.5834
H 9.98233 9.05814 -14.8773
H 8.57916 8.24569 -15.0715
O 5.57776 5.72674 -0.227374
H 4.60361 5.78549 -0.445546
H 6.0427 6.54965 -0.553957
O -5.20363 3.89892 -2.03406
H -5.46357 3.03227 -1.60821
H -5.00179 4.57241 -1.32295
O 9.78956 -9.18538 -0.75888
H 10.4883 -9.70579 -0.268055
H 8.88244 -9.50841 -0.489056
O 7.0699 -11.1169 -2.83189
H 6.52982 -11.8453 -3.2534
H 8.02809 -11.2139 -3.10108
O -10.1222 -11.749 14.9591
H -10.8763 -12.1237 14.4197
H -10.3382 -10.8101 -14.9635
O 4.92194 2.9437 -8.54082
H 4.30406 2.52555 -9.2067
H 4.60499 3.86758 -8.32633
O 7.04907 2.83489 -0.587443
H 7.38554 2.28072 0.173937
H 6.33928 3.45767 -0.258268
O -3.46313 -6.82665 10.1907
H -3.66639 -6.52726 11.1229
H -3.40145 -6.02918 9.5905
O 7.17423 -9.98898 14.0221
H 6.41902 -9.82899 13.3864
H 7.80988 -9.21787 13.9853
O 8.77262 -13.0603 4.02532
H 8.48596 -13.7394 3.34961
H 7.96649 -12.6818 4.4802
O -0.285841 13.3185 -7.98466
H 0.405214 12.9456 -8.60389
H -0.333062 12.755 -7.15984
O 0.752608 0.868617 -8.6802
H 0.479252 0.320347 -9.47058
H 0.344184 0.485703 -7.8516
O -4.44729 -0.228907 4.63419
H -5.15327 0.0497593 3.98307
H -4.17403 0.558471 5.18679
O 0.185511 -7.54226 -5.81112
H -0.420411 -7.58674 -5.01684
H 0.521388 -8.45935 -6.02591
O -4.22369 11.4598 4.24348
H -4.90655 12.1031 3.89722
H -4.36893 11.3142 5.22212
O -12.0443 3.68174 0.521387
H -12.1341 2.99871 1.24624
H -12.56 4.50162 0.770252
O -10.5724 4.96563 -4.40936