Coarse-grained polymer melt: 90 chains of length 60 monomers

5400 atoms
5310 bonds
5220 angles

2 atom types
2 bond types
2 angle types

1.882972 82.771044 xlo xhi
1.882972 82.771044 ylo yhi
1.882972 82.771044 zlo zhi

Masses

   1  55.09830 # Gt
   2  54.09040 # G

Atoms

      1       1       1    0.0000  2.909571e+01  1.567216e+01  1.861026e+01 -1 0 0 # Gt
      2       1       2    0.0000  3.051364e+01  1.227728e+01  1.985428e+01 -1 0 0 # G
      3       1       2    0.0000  2.916560e+01  1.207472e+01  2.351525e+01 -1 0 0 # G
      4       1       2    0.0000  2.943043e+01  1.566001e+01  2.337259e+01 -1 0 0 # G
      5       1       2    0.0000  3.235161e+01  1.767989e+01  2.142271e+01 -1 0 0 # G
      6       1       2    0.0000  3.587814e+01  1.998146e+01  2.009342e+01 -1 0 0 # G
      7       1       2    0.0000  3.943487e+01  1.940072e+01  1.772607e+01 -1 0 0 # G
      8       1       2    0.0000  4.003138e+01  1.591124e+01  1.748077e+01 -1 0 0 # G
      9       1       2    0.0000  3.806330e+01  1.568191e+01  2.051623e+01 -1 0 0 # G
     10       1       2    0.0000  4.130247e+01  1.516692e+01  2.226179e+01 -1 0 0 # G
     11       1       2    0.0000  4.405742e+01  1.480159e+01  2.483963e+01 -1 0 0 # G
     12       1       2    0.0000  4.207150e+01  1.607848e+01  2.778133e+01 -1 0 0 # G
     13       1       2    0.0000  4.357029e+01  2.013930e+01  2.843898e+01 -1 0 0 # G
     14       1       2    0.0000  4.612188e+01  2.323819e+01  2.865441e+01 -1 0 0 # G
     15       1       2    0.0000  4.886382e+01  2.519444e+01  2.634804e+01 -1 0 0 # G
     16       1       2    0.0000  4.765143e+01  2.775760e+01  2.309929e+01 -1 0 0 # G
     17       1       2    0.0000  4.671749e+01  3.050095e+01  2.527067e+01 -1 0 0 # G
     18       1       2    0.0000  4.447095e+01  2.883478e+01  2.814573e+01 -1 0 0 # G
     19       1       2    0.0000  4.389488e+01  2.618405e+01  2.558393e+01 -1 0 0 # G
     20       1       2    0.0000  4.330132e+01  2.462412e+01  2.176542e+01 -1 0 0 # G
     21       1       2    0.0000  4.288211e+01  2.037463e+01  2.275457e+01 -1 0 0 # G
     22       1       2    0.0000  3.957060e+01  1.953784e+01  2.437331e+01 -1 0 0 # G
     23       1       2    0.0000  3.817346e+01  2.233250e+01  2.586006e+01 -1 0 0 # G
     24       1       2    0.0000  3.865460e+01  2.535323e+01  2.648656e+01 -1 0 0 # G
     25       1       2    0.0000  3.871044e+01  2.882487e+01  2.587315e+01 -1 0 0 # G
     26       1       2    0.0000  3.832782e+01  3.284446e+01  2.699737e+01 -1 0 0 # G
     27       1       2    0.0000  3.934014e+01  3.631888e+01  2.631114e+01 -1 0 0 # G
     28       1       2    0.0000  4.245191e+01  3.393483e+01  2.592500e+01 -1 0 0 # G
     29       1       2    0.0000  4.227173e+01  3.110622e+01  2.345480e+01 -1 0 0 # G
     30       1       2    0.0000  4.195629e+01  3.007873e+01  1.928689e+01 -1 0 0 # G
     31       1       2    0.0000  3.872970e+01  2.838720e+01  1.675765e+01 -1 0 0 # G
     32       1       2    0.0000  4.009349e+01  2.593464e+01  1.421350e+01 -1 0 0 # G
     33       1       2    0.0000  4.093051e+01  2.568484e+01  1.068342e+01 -1 0 0 # G
     34       1       2    0.0000  4.020198e+01  2.726635e+01  6.870259e+00 -1 0 0 # G
     35       1       2    0.0000  3.800806e+01  2.830173e+01  3.327049e+00 -1 0 0 # G
     36       1       2    0.0000  3.952869e+01  2.808687e+01  8.032351e+01 -1 0 -1 # G
     37       1       2    0.0000  4.052914e+01  3.103643e+01  7.770761e+01 -1 0 -1 # G
     38       1       2    0.0000  4.025382e+01  3.322653e+01  8.073306e+01 -1 0 -1 # G
     39       1       2    0.0000  3.716969e+01  3.294544e+01  8.018064e+01 -1 0 -1 # G
     40       1       2    0.0000  3.766803e+01  3.534295e+01  7.675595e+01 -1 0 -1 # G
     41       1       2    0.0000  3.903453e+01  3.868550e+01  7.676799e+01 -1 0 -1 # G
     42       1       2    0.0000  4.057834e+01  3.835071e+01  8.040957e+01 -1 0 -1 # G
     43       1       2    0.0000  4.320751e+01  3.626019e+01  8.231066e+01 -1 0 -1 # G
     44       1       2    0.0000  4.609818e+01  3.861297e+01  1.904511e+00 -1 0 0 # G
     45       1       2    0.0000  4.533627e+01  4.121644e+01  8.025647e+01 -1 0 -1 # G
     46       1       2    0.0000  4.782769e+01  4.104760e+01  7.711657e+01 -1 0 -1 # G
     47       1       2    0.0000  5.101420e+01  4.219059e+01  7.909125e+01 -1 0 -1 # G
     48       1       2    0.0000  5.455434e+01  4.187265e+01  8.097924e+01 -1 0 -1 # G
     49       1       2    0.0000  5.506014e+01  4.483617e+01  2.975128e+00 -1 0 0 # G
     50       1       2    0.0000  5.695073e+01  4.809884e+01  4.332586e+00 -1 0 0 # G
     51       1       2    0.0000  5.830374e+01  5.174482e+01  2.536308e+00 -1 0 0 # G
     52       1       2    0.0000  5.856098e+01  5.502308e+01  5.102459e+00 -1 0 0 # G
     53       1       2    0.0000  5.683968e+01  5.292566e+01  6.704454e+00 -1 0 0 # G
     54       1       2    0.0000  5.248212e+01  5.177180e+01  5.897241e+00 -1 0 0 # G
     55       1       2    0.0000  4.906792e+01  4.952625e+01  7.348545e+00 -1 0 0 # G
     56       1       2    0.0000  4.476793e+01  4.868536e+01  7.382638e+00 -1 0 0 # G
     57       1       2    0.0000  4.286566e+01  4.673634e+01  4.387524e+00 -1 0 0 # G
     58       1       2    0.0000  4.404399e+01  4.352015e+01  4.316592e+00 -1 0 0 # G
     59       1       2    0.0000  4.778486e+01  4.422441e+01  5.038742e+00 -1 0 0 # G
     60       1       1    0.0000  4.906637e+01  4.458016e+01  8.229501e+01 -1 0 -1 # Gt
     61       2       1    0.0000  1.412069e+01  8.200316e+00  1.978063e+01 0 0 0 # Gt
     62       2       2    0.0000  1.352549e+01  4.389440e+00  2.167174e+01 0 0 0 # G
     63       2       2    0.0000  1.267547e+01  8.206009e+01  2.043024e+01 0 -1 0 # G
     64       2       2    0.0000  1.597004e+01  8.128347e+01  2.043645e+01 0 -1 0 # G
     65       2       2    0.0000  1.780708e+01  7.920066e+01  2.364548e+01 0 -1 0 # G
     66       2       2    0.0000  2.134804e+01  7.941819e+01  2.635504e+01 0 -1 0 # G
     67       2       2    0.0000  2.094911e+01  7.628810e+01  2.778802e+01 0 -1 0 # G
     68       2       2    0.0000  1.845159e+01  7.329101e+01  2.574022e+01 0 -1 0 # G
     69       2       2    0.0000  1.612767e+01  7.077022e+01  2.469757e+01 0 -1 0 # G
     70       2       2    0.0000  1.213726e+01  7.210121e+01  2.464044e+01 0 -1 0 # G
     71       2       2    0.0000  8.518798e+00  7.389945e+01  2.495383e+01 0 -1 0 # G
     72       2       2    0.0000  7.693913e+00  7.745332e+01  2.517890e+01 0 -1 0 # G
     73       2       2    0.0000  1.171073e+01  7.819850e+01  2.466667e+01 0 -1 0 # G
     74       2       2    0.0000  1.340073e+01  8.202490e+01  2.546736e+01 0 -1 0 # G
     75       2       2    0.0000  1.327397e+01  4.308741e+00  2.876150e+01 0 0 0 # G
     76       2       2    0.0000  1.438003e+01  7.734688e+00  3.020581e+01 0 0 0 # G
     77       2       2    0.0000  1.642271e+01  1.014277e+01  3.255807e+01 0 0 0 # G
     78       2       2    0.0000  1.886475e+01  1.207078e+01  2.988781e+01 0 0 0 # G
     79       2       2    0.0000  2.259135e+01  1.210028e+01  3.060011e+01 0 0 0 # G
     80       2       2    0.0000  2.662399e+01  1.327207e+01  3.012844e+01 0 0 0 # G
     81       2       2    0.0000  2.491109e+01  1.482578e+01  2.798121e+01 0 0 0 # G
     82       2       2    0.0000  2.576364e+01  1.152544e+01  2.628086e+01 0 0 0 # G
     83       2       2    0.0000  2.875115e+01  9.592672e+00  2.870035e+01 0 0 0 # G
     84       2       2    0.0000  3.110220e+01  6.829184e+00  3.099140e+01 0 0 0 # G
     85       2       2    0.0000  3.212001e+01  2.984647e+00  3.202472e+01 0 0 0 # G
     86       2       2    0.0000  3.523875e+01  2.434730e+00  3.508573e+01 0 0 0 # G
     87       2       2    0.0000  3.874428e+01  2.175094e+00  3.520527e+01 0 0 0 # G
     88       2       2    0.0000  3.962712e+01  8.213820e+01  3.162815e+01 0 -1 0 # G
     89       2       2    0.0000  4.244841e+01  7.934851e+01  2.982159e+01 0 -1 0 # G
     90       2       2    0.0000  4.553362e+01  7.790622e+01  2.714643e+01 0 -1 0 # G
     91       2       2    0.0000  4.546735e+01  7.572805e+01  2.375295e+01 0 -1 0 # G
     92       2       2    0.0000  4.892875e+01  7.310566e+01  2.262053e+01 0 -1 0 # G
     93       2       2    0.0000  5.042563e+01  7.008636e+01  2.126658e+01 0 -1 0 # G
     94       2       2    0.0000  5.304905e+01  6.680569e+01  2.088360e+01 0 -1 0 # G
     95       2       2    0.0000  5.441458e+01  6.342817e+01  2.270598e+01 0 -1 0 # G
     96       2       2    0.0000  5.669624e+01  6.048458e+01  2.381933e+01 0 -1 0 # G
     97       2       2    0.0000  5.856232e+01  5.995632e+01  2.715445e+01 0 -1 0 # G
     98       2       2    0.0000  5.516277e+01  6.118952e+01  2.823363e+01 0 -1 0 # G
     99       2       2    0.0000  5.242451e+01  6.398494e+01  2.832299e+01 0 -1 0 # G
    100       2       2    0.0000  4.898943e+01  6.433793e+01  2.697904e+01 0 -1 0 # G
    101       2       2    0.0000  4.895433e+01  6.192821e+01  2.366454e+01 0 -1 0 # G
    102       2       2    0.0000  5.158620e+01  6.010225e+01  2.168983e+01 0 -1 0 # G
    103       2       2    0.0000  5.187347e+01  5.651121e+01  2.199246e+01 0 -1 0 # G
    104       2       2    0.0000  4.858808e+01  5.612723e+01  2.350997e+01 0 -1 0 # G
    105       2       2    0.0000  4.516100e+01  5.902028e+01  2.364329e+01 0 -1 0 # G
    106       2       2    0.0000  4.568741e+01  6.118536e+01  2.648885e+01 0 -1 0 # G
    107       2       2    0.0000  4.661376e+01  6.232818e+01  3.055955e+01 0 -1 0 # G
    108       2       2    0.0000  4.881269e+01  6.357228e+01  3.314741e+01 0 -1 0 # G
    109       2       2    0.0000  5.173224e+01  6.087938e+01  3.261746e+01 0 -1 0 # G
    110       2       2    0.0000  5.146131e+01  5.759840e+01  3.354217e+01 0 -1 0 # G
    111       2       2    0.0000  5.069581e+01  5.400666e+01  3.428799e+01 0 -1 0 # G
    112       2       2    0.0000  4.868103e+01  5.276144e+01  3.133285e+01 0 -1 0 # G
    113       2       2    0.0000  4.519449e+01  5.242933e+01  2.916800e+01 0 -1 0 # G
    114       2       2    0.0000  4.423337e+01  5.550134e+01  2.715330e+01 0 -1 0 # G
    115       2       2    0.0000  4.215931e+01  5.763451e+01  2.858923e+01 0 -1 0 # G
    116       2       2    0.0000  3.914476e+01  5.839533e+01  3.075714e+01 0 -1 0 # G
    117       2       2    0.0000  3.865277e+01  6.114866e+01  3.372666e+01 0 -1 0 # G
    118       2       2    0.0000  3.963474e+01  6.135649e+01  3.757337e+01 0 -1 0 # G
    119       2       2    0.0000  3.842321e+01  5.841876e+01  4.047187e+01 0 -1 0 # G
    120       2       1    0.0000  3.764946e+01  5.532102e+01  3.994169e+01 0 -1 0 # Gt
    121       3       1    0.0000  5.479534e+01  2.752830e+00  4.687004e+01 0 0 0 # Gt
    122       3       2    0.0000  5.238059e+01  8.148219e+01  4.882289e+01 0 -1 0 # G
    123       3       2    0.0000  5.263145e+01  7.814636e+01  4.661683e+01 0 -1 0 # G
    124       3       2    0.0000  4.991529e+01  7.536099e+01  4.469202e+01 0 -1 0 # G
    125       3       2    0.0000  4.709127e+01  7.256273e+01  4.611610e+01 0 -1 0 # G
    126       3       2    0.0000  4.832519e+01  6.992726e+01  4.321444e+01 0 -1 0 # G
    127       3       2    0.0000  4.804192e+01  7.301521e+01  4.126896e+01 0 -1 0 # G
    128       3       2    0.0000  4.868979e+01  7.723722e+01  4.015472e+01 0 -1 0 # G
    129       3       2    0.0000  5.201706e+01  7.939089e+01  4.201986e+01 0 -1 0 # G
    130       3       2    0.0000  5.400726e+01  8.207772e+01  4.156262e+01 0 -1 0 # G
    131       3       2    0.0000  5.460702e+01  3.843509e+00  3.831491e+01 0 0 0 # G
    132       3       2    0.0000  5.622164e+01  4.176375e+00  3.488968e+01 0 0 0 # G
    133       3       2    0.0000  5.771032e+01  7.400444e+00  3.248948e+01 0 0 0 # G
    134       3       2    0.0000  5.856422e+01  8.803407e+00  2.861141e+01 0 0 0 # G
    135       3       2    0.0000  5.986315e+01  8.966024e+00  2.465165e+01 0 0 0 # G
    136       3       2    0.0000  5.695924e+01  7.104959e+00  2.277765e+01 0 0 0 # G
    137       3       2    0.0000  5.510511e+01  9.102742e+00  2.415700e+01 0 0 0 # G
    138       3       2    0.0000  5.525931e+01  1.226355e+01  2.594724e+01 0 0 0 # G
    139       3       2    0.0000  5.286744e+01  1.073900e+01  2.772245e+01 0 0 0 # G
    140       3       2    0.0000  4.991627e+01  1.104502e+01  2.469601e+01 0 0 0 # G
    141       3       2    0.0000  4.635201e+01  1.153953e+01  2.273740e+01 0 0 0 # G
    142       3       2    0.0000  4.465506e+01  7.960965e+00  2.302024e+01 0 0 0 # G
    143       3       2    0.0000  4.713916e+01  5.291031e+00  2.372193e+01 0 0 0 # G
    144       3       2    0.0000  5.060627e+01  6.416953e+00  2.189383e+01 0 0 0 # G
    145       3       2    0.0000  5.068202e+01  9.452666e+00  2.023746e+01 0 0 0 # G
    146       3       2    0.0000  4.896831e+01  1.096144e+01  1.661677e+01 0 0 0 # G
    147       3       2    0.0000  4.923045e+01  9.600900e+00  1.304722e+01 0 0 0 # G
    148       3       2    0.0000  5.130726e+01  6.280361e+00  1.300807e+01 0 0 0 # G
    149       3       2    0.0000  5.217342e+01  2.640056e+00  1.383180e+01 0 0 0 # G
    150       3       2    0.0000  5.031998e+01  8.190203e+01  1.682396e+01 0 -1 0 # G
    151       3       2    0.0000  4.886822e+01  4.082762e+00  1.748387e+01 0 0 0 # G
    152       3       2    0.0000  4.747271e+01  3.534427e+00  1.395290e+01 0 0 0 # G
    153       3       2    0.0000  4.505020e+01  4.767436e+00  1.159566e+01 0 0 0 # G
    154       3       2    0.0000  4.442258e+01  9.078262e+00  1.086688e+01 0 0 0 # G
    155       3       2    0.0000  4.727722e+01  9.216790e+00  9.322787e+00 0 0 0 # G
    156       3       2    0.0000  4.888978e+01  7.712726e+00  5.825415e+00 0 0 0 # G
    157       3       2    0.0000  5.107237e+01  8.292584e+00  2.106857e+00 0 0 0 # G
    158       3       2    0.0000  5.465568e+01  9.560953e+00  8.130650e+01 0 0 -1 # G
    159       3       2    0.0000  5.794798e+01  7.267705e+00  8.027754e+01 0 0 -1 # G
    160       3       2    0.0000  6.043017e+01  9.457514e+00  7.896556e+01 0 0 -1 # G
    161       3       2    0.0000  6.038944e+01  1.193606e+01  8.214793e+01 0 0 -1 # G
    162       3       2    0.0000  5.873522e+01  1.521692e+01  2.861232e+00 0 0 0 # G
    163       3       2    0.0000  5.900655e+01  1.502291e+01  6.244269e+00 0 0 0 # G
    164       3       2    0.0000  6.213462e+01  1.475610e+01  8.147906e+00 0 0 0 # G
    165       3       2    0.0000  6.346476e+01  1.661698e+01  4.973596e+00 0 0 0 # G
    166       3       2    0.0000  6.477102e+01  1.782658e+01  8.204883e+01 0 0 -1 # G
    167       3       2    0.0000  6.316902e+01  1.631411e+01  7.896153e+01 0 0 -1 # G
    168       3       2    0.0000  5.922380e+01  1.720001e+01  7.912969e+01 0 0 -1 # G
    169       3       2    0.0000  5.998785e+01  2.103648e+01  7.773680e+01 0 0 -1 # G
    170       3       2    0.0000  5.737088e+01  2.413576e+01  7.755082e+01 0 0 -1 # G
    171       3       2    0.0000  5.468947e+01  2.708226e+01  7.662343e+01 0 0 -1 # G
    172       3       2    0.0000  5.232188e+01  2.776031e+01  7.280074e+01 0 0 -1 # G
    173       3       2    0.0000  5.013929e+01  2.701114e+01  6.956958e+01 0 0 -1 # G
    174       3       2    0.0000  4.919231e+01  2.726451e+01  6.612215e+01 0 0 -1 # G
    175       3       2    0.0000  4.808207e+01  3.086861e+01  6.637822e+01 0 0 -1 # G
    176       3       2    0.0000  4.692471e+01  3.066564e+01  7.014298e+01 0 0 -1 # G
    177       3       2    0.0000  4.498900e+01  3.180027e+01  7.319526e+01 0 0 -1 # G
    178       3       2    0.0000  4.157972e+01  3.337585e+01  7.367774e+01 0 0 -1 # G
    179       3       2    0.0000  3.841845e+01  3.180040e+01  7.173125e+01 0 0 -1 # G
    180       3       1    0.0000  4.107883e+01  3.150622e+01  6.946052e+01 0 0 -1 # Gt
    181       4       1    0.0000  6.732941e+01  2.716764e+01  3.545926e+01 -1 0 0 # Gt
    182       4       2    0.0000  6.869424e+01  2.424413e+01  3.837011e+01 -1 0 0 # G
    183       4       2    0.0000  6.845242e+01  1.981820e+01  3.931582e+01 -1 0 0 # G
    184       4       2    0.0000  6.960995e+01  1.679935e+01  3.785636e+01 -1 0 0 # G
    185       4       2    0.0000  6.832614e+01  1.462956e+01  3.423078e+01 -1 0 0 # G
    186       4       2    0.0000  6.663582e+01  1.458828e+01  3.093679e+01 -1 0 0 # G
    187       4       2    0.0000  6.491295e+01  1.661168e+01  2.856230e+01 -1 0 0 # G
    188       4       2    0.0000  6.681781e+01  1.985389e+01  2.622957e+01 -1 0 0 # G
    189       4       2    0.0000  6.471716e+01  2.147299e+01  2.415367e+01 -1 0 0 # G
    190       4       2    0.0000  6.396557e+01  1.788742e+01  2.263416e+01 -1 0 0 # G
    191       4       2    0.0000  6.679582e+01  1.702022e+01  2.082240e+01 -1 0 0 # G
    192       4       2    0.0000  6.781632e+01  1.731869e+01  1.683108e+01 -1 0 0 # G
    193       4       2    0.0000  6.765031e+01  1.456306e+01  1.338438e+01 -1 0 0 # G
    194       4       2    0.0000  6.825762e+01  1.065559e+01  1.173065e+01 -1 0 0 # G
    195       4       2    0.0000  6.563698e+01  7.876084e+00  1.031470e+01 -1 0 0 # G
    196       4       2    0.0000  6.548900e+01  5.069316e+00  1.362419e+01 -1 0 0 # G
    197       4       2    0.0000  6.441850e+01  4.343059e+00  1.793433e+01 -1 0 0 # G
    198       4       2    0.0000  6.708750e+01  5.944561e+00  2.095321e+01 -1 0 0 # G
    199       4       2    0.0000  7.057656e+01  8.231381e+00  1.967642e+01 -1 0 0 # G
    200       4       2    0.0000  7.422791e+01  7.041868e+00  1.829602e+01 -1 0 0 # G
    201       4       2    0.0000  7.713121e+01  9.645762e+00  1.917774e+01 -1 0 0 # G
    202       4       2    0.0000  7.564025e+01  1.356648e+01  1.854162e+01 -1 0 0 # G
    203       4       2    0.0000  7.519388e+01  1.747607e+01  1.876069e+01 -1 0 0 # G
    204       4       2    0.0000  7.200964e+01  1.983118e+01  1.747681e+01 -1 0 0 # G
    205       4       2    0.0000  6.936965e+01  2.055110e+01  2.001335e+01 -1 0 0 # G
    206       4       2    0.0000  7.077010e+01  1.751852e+01  2.260952e+01 -1 0 0 # G
    207       4       2    0.0000  7.068134e+01  1.603973e+01  2.678252e+01 -1 0 0 # G
    208       4       2    0.0000  7.196069e+01  1.308011e+01  2.928670e+01 -1 0 0 # G
    209       4       2    0.0000  7.047553e+01  1.080764e+01  3.109590e+01 -1 0 0 # G
    210       4       2    0.0000  6.718206e+01  8.143424e+00  2.952718e+01 -1 0 0 # G
    211       4       2    0.0000  6.366576e+01  5.702454e+00  2.970544e+01 -1 0 0 # G
    212       4       2    0.0000  6.176679e+01  5.806530e+00  3.292318e+01 -1 0 0 # G
    213       4       2    0.0000  6.045627e+01  6.358789e+00  3.640457e+01 -1 0 0 # G
    214       4       2    0.0000  5.947374e+01  8.305009e+00  3.913972e+01 -1 0 0 # G
    215       4       2    0.0000  5.735302e+01  5.896926e+00  4.204366e+01 -1 0 0 # G
    216       4       2    0.0000  5.674382e+01  6.529413e+00  4.597681e+01 -1 0 0 # G
    217       4       2    0.0000  5.425741e+01  8.410132e+00  4.854632e+01 -1 0 0 # G
    218       4       2    0.0000  5.317911e+01  7.463261e+00  5.176063e+01 -1 0 0 # G
    219       4       2    0.0000  5.550401e+01  4.830090e+00  5.117782e+01 -1 0 0 # G
    220       4       2    0.0000  5.741119e+01  7.250161e+00  5.163179e+01 -1 0 0 # G
    221       4       2    0.0000  5.676685e+01  9.458899e+00  5.536187e+01 -1 0 0 # G
    222       4       2    0.0000  5.564133e+01  1.254610e+01  5.691085e+01 -1 0 0 # G
    223       4       2    0.0000  5.847097e+01  1.184249e+01  5.932588e+01 -1 0 0 # G
    224       4       2    0.0000  6.031884e+01  1.097926e+01  6.331035e+01 -1 0 0 # G
    225       4       2    0.0000  6.319978e+01  1.338716e+01  6.495151e+01 -1 0 0 # G
    226       4       2    0.0000  6.736149e+01  1.412472e+01  6.599048e+01 -1 0 0 # G
    227       4       2    0.0000  6.912240e+01  1.151756e+01  6.359300e+01 -1 0 0 # G
    228       4       2    0.0000  7.187296e+01  8.299033e+00  6.358831e+01 -1 0 0 # G
    229       4       2    0.0000  7.175263e+01  5.027906e+00  6.105953e+01 -1 0 0 # G
    230       4       2    0.0000  7.143980e+01  2.656218e+00  6.396186e+01 -1 0 0 # G
    231       4       2    0.0000  6.976317e+01  2.659103e+00  6.754578e+01 -1 0 0 # G
    232       4       2    0.0000  7.070720e+01  6.053556e+00  6.759565e+01 -1 0 0 # G
    233       4       2    0.0000  7.463139e+01  7.723398e+00  6.734626e+01 -1 0 0 # G
    234       4       2    0.0000  7.859043e+01  8.386232e+00  6.622672e+01 -1 0 0 # G
    235       4       2    0.0000  8.106969e+01  8.211208e+00  6.925372e+01 -1 0 0 # G
    236       4       2    0.0000  7.935461e+01  4.852742e+00  7.106039e+01 -1 0 0 # G
    237       4       2    0.0000  7.974698e+01  5.438598e+00  7.424757e+01 -1 0 0 # G
    238       4       2    0.0000  8.082930e+01  9.175039e+00  7.439236e+01 -1 0 0 # G
    239       4       2    0.0000  8.217575e+01  1.207008e+01  7.562579e+01 -1 0 0 # G
    240       4       1    0.0000  8.172465e+01  1.553664e+01  7.736607e+01 -1 0 0 # Gt
    241       5       1    0.0000  3.538378e+01  4.375688e+01  5.394705e+01 0 0 0 # Gt
    242       5       2    0.0000  3.403382e+01  4.613029e+01  5.717915e+01 0 0 0 # G
    243       5       2    0.0000  3.525252e+01  4.849004e+01  6.053701e+01 0 0 0 # G
    244       5       2    0.0000  3.722029e+01  4.906199e+01  6.348962e+01 0 0 0 # G
    245       5       2    0.0000  3.681785e+01  5.269711e+01  6.224420e+01 0 0 0 # G
    246       5       2    0.0000  3.673543e+01  5.278468e+01  5.830497e+01 0 0 0 # G
    247       5       2    0.0000  3.495410e+01  5.068678e+01  5.597768e+01 0 0 0 # G
    248       5       2    0.0000  3.409694e+01  5.283429e+01  5.335134e+01 0 0 0 # G
    249       5       2    0.0000  3.776216e+01  5.531484e+01  5.339901e+01 0 0 0 # G
    250       5       2    0.0000  3.977028e+01  5.834981e+01  5.510728e+01 0 0 0 # G
    251       5       2    0.0000  4.319075e+01  6.038716e+01  5.596367e+01 0 0 0 # G
    252       5       2    0.0000  4.306208e+01  6.102477e+01  5.219396e+01 0 0 0 # G
    253       5       2    0.0000  4.035478e+01  6.074404e+01  4.911412e+01 0 0 0 # G
    254       5       2    0.0000  3.746377e+01  6.104403e+01  5.093110e+01 0 0 0 # G
    255       5       2    0.0000  3.552533e+01  5.956545e+01  5.428485e+01 0 0 0 # G
    256       5       2    0.0000  3.321609e+01  5.664865e+01  5.622081e+01 0 0 0 # G
    257       5       2    0.0000  3.242224e+01  5.444387e+01  5.984160e+01 0 0 0 # G
    258       5       2    0.0000  3.213470e+01  5.132741e+01  6.247491e+01 0 0 0 # G
    259       5       2    0.0000  3.075793e+01  5.015012e+01  6.573578e+01 0 0 0 # G
    260       5       2    0.0000  3.063700e+01  4.846601e+01  6.859434e+01 0 0 0 # G
    261       5       2    0.0000  2.743393e+01  4.620594e+01  6.956693e+01 0 0 0 # G
    262       5       2    0.0000  2.712884e+01  4.437294e+01  7.257165e+01 0 0 0 # G
    263       5       2    0.0000  2.519004e+01  4.321209e+01  7.539914e+01 0 0 0 # G
    264       5       2    0.0000  2.166815e+01  4.155179e+01  7.699121e+01 0 0 0 # G
    265       5       2    0.0000  1.954251e+01  4.366414e+01  7.820789e+01 0 0 0 # G
    266       5       2    0.0000  1.854701e+01  4.785487e+01  7.818804e+01 0 0 0 # G
    267       5       2    0.0000  1.541116e+01  5.028442e+01  7.992266e+01 0 0 0 # G
    268       5       2    0.0000  1.374819e+01  5.340498e+01  8.202626e+01 0 0 0 # G
    269       5       2    0.0000  1.592459e+01  5.554152e+01  8.021827e+01 0 0 0 # G
    270       5       2    0.0000  1.899387e+01  5.454369e+01  7.760714e+01 0 0 0 # G
    271       5       2    0.0000  2.268312e+01  5.527402e+01  7.674159e+01 0 0 0 # G
    272       5       2    0.0000  2.564876e+01  5.456343e+01  7.996193e+01 0 0 0 # G
    273       5       2    0.0000  2.953620e+01  5.523246e+01  8.155948e+01 0 0 0 # G
    274       5       2    0.0000  3.271045e+01  5.607083e+01  2.906117e+00 0 0 1 # G
    275       5       2    0.0000  3.448504e+01  5.904343e+01  8.165229e+01 0 0 0 # G
    276       5       2    0.0000  3.327169e+01  5.772684e+01  7.889368e+01 0 0 0 # G
    277       5       2    0.0000  3.434262e+01  5.669716e+01  7.493167e+01 0 0 0 # G
    278       5       2    0.0000  3.391056e+01  6.018625e+01  7.503068e+01 0 0 0 # G
    279       5       2    0.0000  3.021696e+01  6.210900e+01  7.523151e+01 0 0 0 # G
    280       5       2    0.0000  3.013696e+01  6.331951e+01  7.827723e+01 0 0 0 # G
    281       5       2    0.0000  3.088835e+01  6.469637e+01  8.167156e+01 0 0 0 # G
    282       5       2    0.0000  3.410602e+01  6.392173e+01  8.226089e+01 0 0 0 # G
    283       5       2    0.0000  3.735348e+01  6.283409e+01  2.841217e+00 0 0 1 # G
    284       5       2    0.0000  3.859514e+01  6.281581e+01  7.198332e+00 0 0 1 # G
    285       5       2    0.0000  4.079947e+01  6.428489e+01  8.516902e+00 0 0 1 # G
    286       5       2    0.0000  4.349498e+01  6.090572e+01  8.545539e+00 0 0 1 # G
    287       5       2    0.0000  4.298007e+01  5.733429e+01  7.182795e+00 0 0 1 # G
    288       5       2    0.0000  3.939308e+01  5.795546e+01  7.526444e+00 0 0 1 # G
    289       5       2    0.0000  3.788274e+01  5.972018e+01  1.051767e+01 0 0 1 # G
    290       5       2    0.0000  4.126465e+01  6.141891e+01  1.207357e+01 0 0 1 # G
    291       5       2    0.0000  4.087062e+01  6.289008e+01  1.526703e+01 0 0 1 # G
    292       5       2    0.0000  4.006458e+01  5.881217e+01  1.558402e+01 0 0 1 # G
    293       5       2    0.0000  4.093180e+01  5.559190e+01  1.262010e+01 0 0 1 # G
    294       5       2    0.0000  3.771747e+01  5.463171e+01  1.078508e+01 0 0 1 # G
    295       5       2    0.0000  3.611111e+01  5.399648e+01  1.421144e+01 0 0 1 # G
    296       5       2    0.0000  3.789616e+01  5.170797e+01  1.673788e+01 0 0 1 # G
    297       5       2    0.0000  4.115584e+01  5.144294e+01  1.558364e+01 0 0 1 # G
    298       5       2    0.0000  4.216660e+01  5.425968e+01  1.783729e+01 0 0 1 # G
    299       5       2    0.0000  4.501615e+01  5.429165e+01  2.099935e+01 0 0 1 # G
    300       5       1    0.0000  4.724658e+01  5.198929e+01  2.375991e+01 0 0 1 # Gt
    301       6       1    0.0000  1.274894e+01  1.390288e+01  2.046262e+01 1 0 0 # Gt
    302       6       2    0.0000  1.615361e+01  1.277803e+01  2.244113e+01 1 0 0 # G
    303       6       2    0.0000  1.763973e+01  1.482926e+01  2.580684e+01 1 0 0 # G
    304       6       2    0.0000  1.897881e+01  1.730632e+01  2.740418e+01 1 0 0 # G
    305       6       2    0.0000  1.909243e+01  2.015358e+01  2.523065e+01 1 0 0 # G
    306       6       2    0.0000  2.036223e+01  1.759988e+01  2.228991e+01 1 0 0 # G
    307       6       2    0.0000  1.720510e+01  1.658326e+01  2.129273e+01 1 0 0 # G
    308       6       2    0.0000  1.440218e+01  1.886237e+01  2.373455e+01 1 0 0 # G
    309       6       2    0.0000  1.256419e+01  1.819811e+01  2.693451e+01 1 0 0 # G
    310       6       2    0.0000  1.494377e+01  1.981696e+01  2.956201e+01 1 0 0 # G
    311       6       2    0.0000  1.419475e+01  1.972484e+01  3.273549e+01 1 0 0 # G
    312       6       2    0.0000  1.247938e+01  1.945661e+01  3.610829e+01 1 0 0 # G
    313       6       2    0.0000  9.784771e+00  1.739807e+01  3.728044e+01 1 0 0 # G
    314       6       2    0.0000  7.658043e+00  1.999547e+01  3.651355e+01 1 0 0 # G
    315       6       2    0.0000  9.443555e+00  2.303970e+01  3.770491e+01 1 0 0 # G
    316       6       2    0.0000  1.104868e+01  2.660545e+01  3.837166e+01 1 0 0 # G
    317       6       2    0.0000  1.182635e+01  3.084809e+01  3.768509e+01 1 0 0 # G
    318       6       2    0.0000  1.501019e+01  3.347995e+01  3.820383e+01 1 0 0 # G
    319       6       2    0.0000  1.367788e+01  3.659872e+01  4.077040e+01 1 0 0 # G
    320       6       2    0.0000  1.213221e+01  3.898671e+01  4.333675e+01 1 0 0 # G
    321       6       2    0.0000  1.170820e+01  4.078444e+01  4.721345e+01 1 0 0 # G
    322       6       2    0.0000  9.722522e+00  4.399350e+01  4.660923e+01 1 0 0 # G
    323       6       2    0.0000  7.763310e+00  4.203121e+01  4.531786e+01 1 0 0 # G
    324       6       2    0.0000  6.528253e+00  4.250305e+01  4.890900e+01 1 0 0 # G
    325       6       2    0.0000  5.422922e+00  4.428754e+01  5.260959e+01 1 0 0 # G
    326       6       2    0.0000  6.581877e+00  4.607768e+01  5.641853e+01 1 0 0 # G
    327       6       2    0.0000  5.434742e+00  4.586035e+01  5.951833e+01 1 0 0 # G
    328       6       2    0.0000  8.264584e+01  4.637978e+01  5.814812e+01 0 0 0 # G
    329       6       2    0.0000  8.008407e+01  4.673410e+01  5.599301e+01 0 0 0 # G
    330       6       2    0.0000  7.701878e+01  4.811564e+01  5.649878e+01 0 0 0 # G
    331       6       2    0.0000  7.913635e+01  4.978585e+01  5.875228e+01 0 0 0 # G
    332       6       2    0.0000  1.910887e+00  5.218307e+01  5.984249e+01 1 0 0 # G
    333       6       2    0.0000  5.511740e+00  5.081063e+01  6.047579e+01 1 0 0 # G
    334       6       2    0.0000  7.334903e+00  5.419218e+01  5.899670e+01 1 0 0 # G
    335       6       2    0.0000  9.876017e+00  5.585571e+01  6.023398e+01 1 0 0 # G
    336       6       2    0.0000  1.302049e+01  5.814806e+01  5.923976e+01 1 0 0 # G
    337       6       2    0.0000  1.139098e+01  5.842495e+01  5.627926e+01 1 0 0 # G
    338       6       2    0.0000  1.212454e+01  5.536687e+01  5.454269e+01 1 0 0 # G
    339       6       2    0.0000  1.294521e+01  5.317899e+01  5.657986e+01 1 0 0 # G
    340       6       2    0.0000  1.684852e+01  5.485069e+01  5.709207e+01 1 0 0 # G
    341       6       2    0.0000  1.978258e+01  5.247767e+01  5.846777e+01 1 0 0 # G
    342       6       2    0.0000  1.781638e+01  4.917267e+01  5.887704e+01 1 0 0 # G
    343       6       2    0.0000  1.474660e+01  5.115345e+01  5.997263e+01 1 0 0 # G