LAMMPS data file via write_data, version 15 May 2015, timestep = 1009000

2593 atoms
6 atom types
1728 bonds
4 bond types
864 angles
3 angle types
0 dihedrals
3 dihedral types
0 impropers
1 improper types

-1.4992060177008137e+01 1.4992060177008137e+01 xlo xhi
-1.4992060177008137e+01 1.4992060177008137e+01 ylo yhi
-1.4992060177008137e+01 1.4992060177008137e+01 zlo zhi

Masses

1 15.9994
2 1.00794
3 12.0107
4 1.00794
5 12.0107
6 12.0107

Bond Coeffs # harmonic

1 1000 1
2 469 1.4
3 367 1.08
4 469 0.7

Angle Coeffs # harmonic

1 100 109.47
2 35 120
3 63 120

Dihedral Coeffs # opls

1 0 7.25 0 0
2 0 7.25 0 0
3 0 7.25 0 0

Improper Coeffs # cvff

1 2.5 -1 2

Atoms # full

2361 787 2 4.0999999999999998e-01 -6.7935551882007736e+00 -1.4696720483024633e+01 -1.2277912850120510e+01 2 -2 0
238 80 1 -8.1999999999999995e-01 -1.0536134763341492e+01 -1.2528097726024090e+01 -1.1072149489035864e+01 0 -1 2
240 80 2 4.0999999999999998e-01 -1.0728203168688008e+01 -1.2028298631705274e+01 -1.0227583256658495e+01 0 -1 2
2307 769 2 4.0999999999999998e-01 -1.0946063498250183e+01 -1.1205210835658212e+01 -1.2689699562519722e+01 -4 0 -1
763 255 1 -8.1999999999999995e-01 -1.3766002130415238e+01 -1.2108826058144423e+01 -1.1480438996139640e+01 0 -1 2
764 255 2 4.0999999999999998e-01 -1.4155720319362063e+01 -1.2121269688177044e+01 -1.2401279039513124e+01 0 -1 2
239 80 2 4.0999999999999998e-01 -9.5839682721373922e+00 -1.2833635270869092e+01 -1.1069448213402415e+01 0 -1 2
2479 827 1 -8.1999999999999995e-01 -1.3848471335629139e+01 -9.2784833439612164e+00 -1.3074141376710275e+01 0 -1 0
1554 518 2 4.0999999999999998e-01 -8.6753642922286165e+00 -9.0412402068113700e+00 -7.6647528157900462e+00 0 0 0
528 176 2 4.0999999999999998e-01 -1.2293000016150456e+01 -7.8446260641892067e+00 -1.0463392588053864e+01 1 0 1
2249 750 2 4.0999999999999998e-01 -7.5368991676983477e+00 -1.2770581540865592e+01 -1.1344455127677582e+01 2 -1 -1
2305 769 1 -8.1999999999999995e-01 -1.1263280690712477e+01 -1.0374009164373199e+01 -1.3146272133895382e+01 -4 0 -1
2306 769 2 4.0999999999999998e-01 -1.0609176998978349e+01 -9.6349494611668298e+00 -1.2985273261436369e+01 -4 0 -1
1351 451 1 -8.1999999999999995e-01 -1.1069387292516797e+01 -1.0718838614958280e+01 -9.1476171536427682e+00 1 -1 1
2480 827 2 4.0999999999999998e-01 -1.2938631816942491e+01 -9.6668666005858128e+00 -1.3220195617632509e+01 0 -1 0
1046 349 2 4.0999999999999998e-01 -1.4947398563549717e+01 -1.4171751490409511e+01 -8.5448189080285815e+00 1 1 1
600 200 2 4.0999999999999998e-01 -8.1568482478097248e+00 -9.3984781288119184e+00 -9.5678051698838829e+00 0 0 -1
697 233 1 -8.1999999999999995e-01 -6.7536131257757948e+00 -1.0471973643826489e+01 -1.3311300124051549e+01 -2 1 2
1390 464 1 -8.1999999999999995e-01 -1.2009419677166823e+01 -6.6179011191337622e+00 -9.3920705979530776e+00 1 0 1
74 25 2 4.0999999999999998e-01 -1.4598757132695527e+01 -3.2842934864236177e+00 -1.0451332237022905e+01 -1 -2 1
728 243 2 4.0999999999999998e-01 -1.4510854224779877e+01 -4.5467372884178641e+00 -1.4792889351860850e+01 0 -1 0
598 200 1 -8.1999999999999995e-01 -7.9629227254918344e+00 -1.0207067940462565e+01 -9.0123262015296568e+00 0 0 -1
2359 787 1 -8.1999999999999995e-01 -7.7379314590004000e+00 -1.4849246381766626e+01 -1.2569238808655960e+01 2 -2 0
599 200 2 4.0999999999999998e-01 -7.8049704244427334e+00 -1.0992502562175396e+01 -9.6107616857369997e+00 0 0 -1
2267 756 2 4.0999999999999998e-01 -7.2336192790452669e+00 -6.7783422511666203e-01 -1.3508858000864766e+01 0 -1 2
1436 479 2 4.0999999999999998e-01 -8.8176918260650901e+00 -1.4448581782989990e+01 -8.7090385743169598e+00 -2 2 2
187 63 1 -8.1999999999999995e-01 -1.4907941257143747e+01 -1.2345155142088220e+01 -1.3812353825261473e+01 -1 -1 1
798 266 2 4.0999999999999998e-01 -1.4213337968847833e+01 -1.1188974851898966e+01 -9.9455485925950278e+00 -2 -1 0
2248 750 1 -8.1999999999999995e-01 -7.7590389204278249e+00 -1.1844025123039589e+01 -1.1040928119063054e+01 2 -1 -1
1954 652 1 -8.1999999999999995e-01 -8.9668876264066135e+00 -1.2949233172089622e+01 -1.4627946990047832e+01 0 0 0
1290 430 2 4.0999999999999998e-01 -1.4456648802722285e+01 -7.8512771730067037e+00 -1.2517521388661764e+01 0 0 1
1353 451 2 4.0999999999999998e-01 -1.1589805779975345e+01 -9.9539862883942440e+00 -9.5272840362518458e+00 1 -1 1
306 102 2 4.0999999999999998e-01 -1.4738084884975736e+01 -9.2013466411108542e+00 -9.7303385935114726e+00 -1 1 0
699 233 2 4.0999999999999998e-01 -7.3434495501180796e+00 -1.0455333779706564e+01 -1.4118639995880903e+01 -2 1 2
1288 430 1 -8.1999999999999995e-01 -1.4863914763963097e+01 -7.0479025987615875e+00 -1.2083119242227257e+01 0 0 1
1885 629 1 -8.1999999999999995e-01 -5.3159727238228953e+00 -1.4458000577685876e+01 -1.1392441525733506e+01 -2 1 0
765 255 2 4.0999999999999998e-01 -1.2775300332180979e+01 -1.2232900383193822e+01 -1.1536087704267624e+01 0 -1 2
2388 796 2 4.0999999999999998e-01 -1.2410245617011451e+01 -1.3128564137295369e+01 -1.4168101104951051e+01 1 0 1
2250 750 2 4.0999999999999998e-01 -7.6865839511294718e+00 -1.1213720620759432e+01 -1.1813875720394885e+01 2 -1 -1
976 326 1 -8.1999999999999995e-01 -1.1607319127945331e+01 -2.7147373399332153e-01 -1.1997571789436877e+01 1 0 1
796 266 1 -8.1999999999999995e-01 -1.4407683277969584e+01 -1.0951011531818043e+01 -8.9939264081970549e+00 -2 -1 0
2481 827 2 4.0999999999999998e-01 -1.4533530036301158e+01 -9.8602644958744001e+00 -1.3512555039506502e+01 0 -1 0
801 267 2 4.0999999999999998e-01 -1.2169314078139413e+01 -1.6545572415425891e+00 -7.5508595516986183e+00 -1 0 -1
956 319 2 4.0999999999999998e-01 -8.7337411653311037e+00 -8.1124674476739358e+00 -1.1608306125471181e+01 0 -1 0
955 319 1 -8.1999999999999995e-01 -9.0038615935119637e+00 -8.4883178811194568e+00 -1.2494733154071604e+01 0 -1 0
903 301 2 4.0999999999999998e-01 -9.6653482888377980e+00 -5.1742398484932615e+00 -7.7552038754288919e+00 1 1 1
823 275 1 -8.1999999999999995e-01 -8.1116298731250893e+00 -7.5841901132885283e+00 -1.0069469669319609e+01 0 0 -2
527 176 2 4.0999999999999998e-01 -1.2975424556568942e+01 -8.8906440838974952e+00 -1.1515400326134262e+01 1 0 1
526 176 1 -8.1999999999999995e-01 -1.2362792456873970e+01 -8.8060052879538269e+00 -1.0729588894693110e+01 1 0 1
94 32 1 -8.1999999999999995e-01 -5.3570478061941849e+00 -6.9377426317960413e+00 -1.0157748135834531e+01 -2 1 1
698 233 2 4.0999999999999998e-01 -6.6654231118010010e+00 -9.5461496793678986e+00 -1.2943803150561642e+01 -2 1 2
1352 451 2 4.0999999999999998e-01 -1.0112950291677819e+01 -1.0448806667211400e+01 -9.0367460039285206e+00 1 -1 1
662 221 2 4.0999999999999998e-01 -1.1585995506533951e+01 -7.4480537788778953e+00 -1.3719325267135515e+01 0 0 2
95 32 2 4.0999999999999998e-01 -5.4843533390207870e+00 -5.9877086328491274e+00 -9.8727740150035963e+00 -2 1 1
797 266 2 4.0999999999999998e-01 -1.3616775237688998e+01 -1.1177578951304723e+01 -8.4254959678902530e+00 -2 -1 0
590 197 2 4.0999999999999998e-01 -7.5035221346188044e+00 -3.1438302496471096e+00 -1.4676543791271460e+01 -1 0 2
1955 652 2 4.0999999999999998e-01 -9.9638671999664723e+00 -1.3026777072565507e+01 -1.4628389680660998e+01 0 0 0
733 245 1 -8.1999999999999995e-01 -1.4158654404805938e+01 -4.7259116149237954e+00 -1.3007694389076475e+01 0 1 1
42 14 2 4.0999999999999998e-01 -7.7223980896950311e+00 -3.7755181309005970e-01 -9.6076059882080216e+00 0 2 2
978 326 2 4.0999999999999998e-01 -1.1035980577812005e+01 -1.0471448604789977e+00 -1.1729452376206277e+01 1 0 1
824 275 2 4.0999999999999998e-01 -7.3875942348117878e+00 -7.7515085673672459e+00 -9.4003221893986861e+00 0 0 -2
589 197 1 -8.1999999999999995e-01 -7.1849557718906665e+00 -3.6705225684588108e+00 -1.3888449788419694e+01 -1 0 2
2209 737 1 -8.1999999999999995e-01 -9.2800474496003975e+00 -2.0470785872033570e+00 -8.4608345919669325e+00 -1 0 0
73 25 1 -8.1999999999999995e-01 -1.4990881386480789e+01 -2.8982374695618009e+00 -1.1286305793553506e+01 -1 -2 1
825 275 2 4.0999999999999998e-01 -8.5196438364298590e+00 -6.6867723159130978e+00 -9.9016977636316685e+00 0 0 -2
1252 418 1 -8.1999999999999995e-01 -1.0404165335799355e+01 -2.4409350477534826e+00 -1.1150168316414465e+01 0 1 2
1861 621 1 -8.1999999999999995e-01 -6.5739758904826644e+00 -7.3560740671622522e+00 -1.4720204244776186e+01 -1 2 1
1254 418 2 4.0999999999999998e-01 -1.0550176282598656e+01 -3.4158867193510627e+00 -1.1317892989858823e+01 0 1 2
1863 621 2 4.0999999999999998e-01 -6.6596996593499966e+00 -6.3597670412067728e+00 -1.4717914887271784e+01 -1 2 1
1332 444 2 4.0999999999999998e-01 -5.4152252111519950e+00 -7.5664497615176636e+00 -1.3360972027809575e+01 1 0 1
734 245 2 4.0999999999999998e-01 -1.4314509468936565e+01 -5.6519999858885015e+00 -1.2664108837304605e+01 0 1 1
799 267 1 -8.1999999999999995e-01 -1.1892928083649476e+01 -2.3472094472092859e+00 -8.2170615865009466e+00 -1 0 -1
2005 669 1 -8.1999999999999995e-01 -7.6050802545992253e+00 -3.3533611449181251e+00 -1.1077423800452911e+01 1 0 0
1674 558 2 4.0999999999999998e-01 -1.3238818654470371e+01 -3.4709036199704641e+00 -8.8003515085651181e+00 0 0 1
1325 442 2 4.0999999999999998e-01 -1.1388358888529453e+01 -5.5044534501415860e+00 -1.2213191173047466e+01 1 0 3
591 197 2 4.0999999999999998e-01 -6.1886779839981703e+00 -3.6096552061530982e+00 -1.3827562557089601e+01 -1 0 2
845 282 2 4.0999999999999998e-01 -8.5146387187392527e+00 -4.4341190183321437e+00 -9.9488445387152566e+00 0 -2 1
718 240 1 -8.1999999999999995e-01 -5.5965777772799292e+00 -4.1810034302330301e+00 -9.6313891888928111e+00 2 -1 2
735 245 2 4.0999999999999998e-01 -1.3220063662840985e+01 -4.4480764940897721e+00 -1.2803154589473907e+01 0 1 1
2210 737 2 4.0999999999999998e-01 -8.8288876143600437e+00 -2.8981848582195706e+00 -8.1924050070202838e+00 -1 0 0
1673 558 2 4.0999999999999998e-01 -1.3695020738890886e+01 -5.0341303688639609e+00 -8.6787827766396219e+00 0 0 1
1324 442 1 -8.1999999999999995e-01 -1.1432474002627814e+01 -4.9391552508066994e+00 -1.1389496258827393e+01 1 0 3
1672 558 1 -8.1999999999999995e-01 -1.3888152774310216e+01 -4.1594274058433154e+00 -9.1232782332220914e+00 0 0 1
720 240 2 4.0999999999999998e-01 -6.3213523238249572e+00 -3.8803374939767394e+00 -1.0251295124708527e+01 2 -1 2
844 282 1 -8.1999999999999995e-01 -9.1701636581114752e+00 -5.0576618192886809e+00 -9.5228598180646529e+00 0 -2 1
957 319 2 4.0999999999999998e-01 -8.5281231124243888e+00 -7.9967657599809661e+00 -1.3224137633706281e+01 0 -1 0
663 221 2 4.0999999999999998e-01 -1.0622249286932147e+01 -6.3492563374766462e+00 -1.4447620899068539e+01 0 0 2
800 267 2 4.0999999999999998e-01 -1.0932871382867074e+01 -2.2105330790607169e+00 -8.4611767067413854e+00 -1 0 -1
1293 431 2 4.0999999999999998e-01 -1.1790871878090124e+01 -1.4313235563948847e+00 -1.3549335612226326e+01 -1 0 -1
1292 431 2 4.0999999999999998e-01 -1.0705188641308123e+01 -2.2338726447128092e+00 -1.4467912734100622e+01 -1 0 -1
2268 756 2 4.0999999999999998e-01 -5.6817439596626436e+00 -1.0881443851616552e+00 -1.3209015094205565e+01 0 -1 2
1291 431 1 -8.1999999999999995e-01 -1.1679286655400784e+01 -2.0883252199376354e+00 -1.4294908572863678e+01 -1 0 -1
1956 652 2 4.0999999999999998e-01 -8.5992972946888102e+00 -1.3381729654064028e+01 -1.3804657486834017e+01 0 0 0
661 221 1 -8.1999999999999995e-01 -1.1564794705966133e+01 -6.5694795848029628e+00 -1.4196440996198426e+01 0 0 2
1253 418 2 4.0999999999999998e-01 -9.9138957520991440e+00 -2.3209999923856000e+00 -1.0286899697801022e+01 0 1 2
846 282 2 4.0999999999999998e-01 -9.9025635236336100e+00 -5.2652337375914069e+00 -1.0171308628464180e+01 0 -2 1
1825 609 1 -8.1999999999999995e-01 -9.1152645166821813e+00 -5.6404722737101487e+00 -1.4443883225459533e+01 0 -1 1
2007 669 2 4.0999999999999998e-01 -7.5142660691381424e+00 -3.3802495867105637e+00 -1.2072919296852495e+01 1 0 0
40 14 1 -8.1999999999999995e-01 -7.3495965133058236e+00 -5.2661941578603511e-01 -1.0523454955679323e+01 0 2 2
1392 464 2 4.0999999999999998e-01 -1.1132088054803589e+01 -6.8625443594841151e+00 -8.9792504935856492e+00 1 0 1
2006 669 2 4.0999999999999998e-01 -7.6827692574465480e+00 -2.4032547057186129e+00 -1.0775358205416087e+01 1 0 0
1326 442 2 4.0999999999999998e-01 -1.1614700030692553e+01 -5.5198756347939355e+00 -1.0596061293299865e+01 1 0 3
2211 737 2 4.0999999999999998e-01 -8.7239821100726278e+00 -1.2687559170591651e+00 -8.1693098196548029e+00 -1 0 0
2266 756 1 -8.1999999999999995e-01 -6.2780046375989027e+00 -4.3921850311860844e-01 -1.3681614226114307e+01 0 -1 2
1827 609 2 4.0999999999999998e-01 -8.4214752683382503e+00 -5.0299000922466170e+00 -1.4061993696457423e+01 0 -1 1
1910 637 2 4.0999999999999998e-01 -1.2736228228029155e+01 -6.9328718240291920e-01 -9.4697158110743107e+00 1 2 0
75 25 2 4.0999999999999998e-01 -1.4643429954854266e+01 -3.3979859727962420e+00 -1.2079722710597773e+01 -1 -2 1
438 146 2 4.0999999999999998e-01 -1.1901536800087760e+01 -1.1363320778772895e+01 -7.7332894026509518e+00 1 1 -1
2082 694 2 4.0999999999999998e-01 -5.2224909812511715e+00 -1.1470353517697177e+01 -1.3537153367447338e+01 -2 0 1
2520 840 2 4.0999999999999998e-01 -6.8194873345991880e+00 -1.0670839883653802e+01 -7.7562986702301542e+00 0 -1 0
1391 464 2 4.0999999999999998e-01 -1.2729442443901910e+01 -6.6699219767826001e+00 -8.7000861112243975e+00 1 0 1
2045 682 2 4.0999999999999998e-01 -5.2097457130829170e+00 -7.8008908373778150e+00 -8.6787448517538675e+00 1 -2 -1
189 63 2 4.0999999999999998e-01 -1.4955076858349143e+01 -1.3111789777079645e+01 -1.4452690490669880e+01 -1 -1 1
1184 395 2 4.0999999999999998e-01 -1.0536714823390103e+01 -1.4090545574943310e+01 -7.5760005978616052e+00 -1 1 0
2225 742 2 4.0999999999999998e-01 -1.2270116557875051e+01 -1.4243126206639566e+01 -5.4414600881428736e+00 0 0 0
1183 395 1 -8.1999999999999995e-01 -1.1156393662227291e+01 -1.4576644818079876e+01 -6.9598129937123616e+00 -1 1 0
296 99 2 4.0999999999999998e-01 -1.2885243152986000e+01 -8.1581227992418235e+00 -6.3457751934027797e+00 -1 1 -2
2526 842 2 4.0999999999999998e-01 -1.1373284593743515e+01 -1.0441814400734446e+01 -3.0435541047873915e+00 -1 -3 0
2524 842 1 -8.1999999999999995e-01 -1.1613855491545927e+01 -9.4810164624735105e+00 -2.9058064643538568e+00 -1 -3 0
1366 456 1 -8.1999999999999995e-01 -1.4443336462726664e+01 -1.1706640479591073e+01 -3.4066488550954386e+00 3 0 3
1367 456 2 4.0999999999999998e-01 -1.4380519013237691e+01 -1.1798365316817041e+01 -4.4004405614455830e+00 3 0 3
582 194 2 4.0999999999999998e-01 -1.0012290137218962e+01 -7.4146150607143566e+00 -1.7084272076644886e+00 1 -1 -2
1368 456 2 4.0999999999999998e-01 -1.3698145645610269e+01 -1.2216682691549298e+01 -2.9770803670366792e+00 3 0 3
580 194 1 -8.1999999999999995e-01 -9.4287019807544414e+00 -8.2251583607573160e+00 -1.7576810898599060e+00 1 -1 -2
1981 661 1 -8.1999999999999995e-01 -8.2735912548578838e+00 -1.0745927170806844e+01 -2.2608841091055858e+00 -2 1 2
1983 661 2 4.0999999999999998e-01 -8.9333802575638686e+00 -1.1438456370408813e+01 -2.5525399906844886e+00 -2 1 2
1553 518 2 4.0999999999999998e-01 -8.8579373956064735e+00 -8.1228429684950427e+00 -6.3269222905786329e+00 0 0 0
1791 597 2 4.0999999999999998e-01 -1.1662072604959276e+01 -1.2506222736238771e+01 -2.0269963031030027e+00 3 0 1
143 48 2 4.0999999999999998e-01 -9.9665067239941116e+00 -9.4168144123797788e+00 -5.2909137544208953e+00 -1 1 1
1982 661 2 4.0999999999999998e-01 -8.6208024261112559e+00 -9.8368620710417414e+00 -2.4911589885835212e+00 -2 1 2
495 165 2 4.0999999999999998e-01 -5.9311215497502943e+00 -1.4504232005391948e+01 -1.1534657693314330e+00 -2 -1 2
2224 742 1 -8.1999999999999995e-01 -1.2816188392833221e+01 -1.3647727781885584e+01 -4.8521488043378280e+00 0 0 0
1790 597 2 4.0999999999999998e-01 -1.1148429308577118e+01 -1.2881309896513695e+01 -3.5310100560494977e+00 3 0 1
1789 597 1 -8.1999999999999995e-01 -1.1075956985918953e+01 -1.2219562773266734e+01 -2.7848063424263039e+00 3 0 1
2446 816 1 -8.1999999999999995e-01 -6.5667737446186472e+00 -1.2065602590197445e+01 -4.6844061417323957e+00 2 0 2
2525 842 2 4.0999999999999998e-01 -1.0849089343469350e+01 -9.0048480956046113e+00 -2.4717812777296828e+00 -1 -3 0
2447 816 2 4.0999999999999998e-01 -6.8508962828718403e+00 -1.1369526924930140e+01 -4.0250622283842556e+00 2 0 2
142 48 1 -8.1999999999999995e-01 -1.0082004984083973e+01 -1.0407572748053148e+01 -5.3619037715331590e+00 -1 1 1
2448 816 2 4.0999999999999998e-01 -6.5305252855810263e+00 -1.1663185698839387e+01 -5.5991346427045432e+00 2 0 2
689 230 2 4.0999999999999998e-01 -5.1157819890232528e+00 -1.0580664693385781e+01 -6.8352592759191388e-01 1 -2 1
2055 685 2 4.0999999999999998e-01 -6.2401902878704529e+00 -6.6447379528694839e+00 -2.5335479087791235e-01 -2 0 1
297 99 2 4.0999999999999998e-01 -1.3106397488686806e+01 -9.5065405302986807e+00 -7.2398879284962518e+00 -1 1 -2
2206 736 1 -8.1999999999999995e-01 -7.5604092209281335e+00 -1.4560714607054129e+01 -4.9402874269306309e+00 0 -1 0
1552 518 1 -8.1999999999999995e-01 -8.9924534830538114e+00 -8.1588445546074535e+00 -7.3171700889227331e+00 0 0 0
2518 840 1 -8.1999999999999995e-01 -6.1190305399802121e+00 -1.0674697619645748e+01 -7.0426272514872537e+00 0 -1 0
144 48 2 4.0999999999999998e-01 -1.1005011863980981e+01 -1.0613081931302441e+01 -5.6871817090977164e+00 -1 1 1
71 24 2 4.0999999999999998e-01 -1.2287208885459444e+01 -8.3045328647223524e+00 -4.1117174256660469e+00 0 -2 0
2519 840 2 4.0999999999999998e-01 -5.5512753740330876e+00 -9.8559934777523814e+00 -7.1284125546497830e+00 0 -1 0
2208 736 2 4.0999999999999998e-01 -7.3464460031023133e+00 -1.3608816097767578e+01 -4.7209919653073253e+00 0 -1 0
1821 607 2 4.0999999999999998e-01 -5.5717272954972668e+00 -1.4499331066676678e+01 -6.0669209436120148e+00 0 0 1
70 24 1 -8.1999999999999995e-01 -1.2730313261477900e+01 -7.5135622993634952e+00 -4.5336244227708118e+00 0 -2 0
2409 803 2 4.0999999999999998e-01 -1.0476214781331525e+01 -1.4459343655243210e+01 -5.9437759826863967e-01 2 1 1
1597 533 1 -8.1999999999999995e-01 -1.4154095196129774e+01 -9.3429070335395625e+00 -1.4096940928367800e+00 -1 0 1
581 194 2 4.0999999999999998e-01 -8.6394817117123992e+00 -8.1047288647868214e+00 -1.1555103914743938e+00 1 -1 -2
1770 590 2 4.0999999999999998e-01 -1.0581263631066225e+01 -5.0694500742514244e+00 -1.3324612551758062e+00 0 -1 1
2053 685 1 -8.1999999999999995e-01 -6.5054748384511409e+00 -7.1550492929378269e+00 -1.0713938881529810e+00 -2 0 1
295 99 1 -8.1999999999999995e-01 -1.3387560038902961e+01 -8.5551983607731881e+00 -7.1138833428751971e+00 -1 1 -2
1598 533 2 4.0999999999999998e-01 -1.3542083559112708e+01 -9.7163034058366158e+00 -2.1068299666692081e+00 -1 0 1
1599 533 2 4.0999999999999998e-01 -1.4967580540540675e+01 -9.9198781516727248e+00 -1.3367047211932519e+00 -1 0 1
437 146 2 4.0999999999999998e-01 -1.2662321523178727e+01 -1.2237963151227145e+01 -6.5831657961329704e+00 1 1 -1
1819 607 1 -8.1999999999999995e-01 -5.4999075417647294e+00 -1.4000314275128478e+01 -6.9305213395903813e+00 0 0 1
2226 742 2 4.0999999999999998e-01 -1.3224471939674165e+01 -1.4189534623738977e+01 -4.1174846449146010e+00 0 0 0
1109 370 2 4.0999999999999998e-01 -6.3268320732155789e+00 -3.4244302202933472e+00 -8.0662176682456810e-01 0 0 -2
506 169 2 4.0999999999999998e-01 -1.4185254747649340e+01 -4.1485594040057645e+00 -1.9525258385715389e+00 0 -1 -1
690 230 2 4.0999999999999998e-01 -6.6740849356114804e+00 -1.0545331152434516e+01 -1.1703735788057674e+00 1 -2 1
2103 701 2 4.0999999999999998e-01 -1.3557647867952253e+01 -1.3851587056664881e+01 -1.2176536278593133e+00 0 1 1
2101 701 1 -8.1999999999999995e-01 -1.3413692778854474e+01 -1.2916733322963081e+01 -8.9314339884949234e-01 0 1 1
436 146 1 -8.1999999999999995e-01 -1.2541754165017831e+01 -1.1322146266691863e+01 -6.9662119839671846e+00 1 1 -1
494 165 2 4.0999999999999998e-01 -5.0642596780766738e+00 -1.3234734856996592e+01 -1.7043782634554123e+00 -2 -1 2
2454 818 2 4.0999999999999998e-01 -1.3784781126325719e+01 -5.3674277195618814e+00 -5.0198020848191938e-01 -3 -2 1
980 327 2 4.0999999999999998e-01 -1.3743519062346323e+01 -1.3244994860393895e+00 -6.3070484147043402e+00 0 1 0
1973 658 2 4.0999999999999998e-01 -9.4292118878938425e+00 -2.2642537524605544e-01 -3.9431613266664698e+00 1 -1 1
1479 493 2 4.0999999999999998e-01 -1.4276558753858573e+01 -7.4737492532337768e+00 -6.5967507856722030e-01 1 -2 2
723 241 2 4.0999999999999998e-01 -9.8054106044770748e+00 -4.3513396511351221e+00 -5.3450295961660910e+00 -1 0 -1
901 301 1 -8.1999999999999995e-01 -9.8281364750365725e+00 -5.5756726484480126e+00 -6.8539085720807105e+00 1 1 1
1019 340 2 4.0999999999999998e-01 -8.9240047849832536e+00 -1.2317504920251032e+01 -6.6975378396139753e+00 0 2 2
2407 803 1 -8.1999999999999995e-01 -1.0371063994628038e+01 -1.4857845876673686e+01 -1.5054872457890554e+00 2 1 1
493 165 1 -8.1999999999999995e-01 -5.9334004851699849e+00 -1.3514540465731145e+01 -1.2965982669835530e+00 -2 -1 2
2349 783 2 4.0999999999999998e-01 -1.3802204085239998e+01 -3.5183452700056819e+00 -5.6674853876239162e+00 1 1 2
722 241 2 4.0999999999999998e-01 -9.2044682666991484e+00 -3.6657404666365547e+00 -3.9902605065330778e+00 -1 0 -1
1414 472 1 -8.1999999999999995e-01 -7.1167293930865103e+00 -5.5262992135980085e+00 -3.1591435915324944e+00 0 2 2
1890 630 2 4.0999999999999998e-01 -1.1972763835653584e+01 -7.0343178650491929e+00 -6.0557692873259406e-01 -1 -1 1
1307 436 2 4.0999999999999998e-01 -1.3206861631383822e+01 -1.1961357353571351e+00 -5.5249222505758766e-01 2 -2 1
1573 525 1 -8.1999999999999995e-01 -7.7490140187804100e+00 -2.8980834520373300e+00 -3.4657679888603585e+00 -2 -1 1
1477 493 1 -8.1999999999999995e-01 -1.4835320105139784e+01 -6.6781709623019765e+00 -4.2553329835197928e-01 1 -2 2
1769 590 2 4.0999999999999998e-01 -1.1550053521518889e+01 -5.6037880021408704e+00 -2.5335050577257494e+00 0 -1 1
1768 590 1 -8.1999999999999995e-01 -1.0982868464633786e+01 -5.8804881105286135e+00 -1.7577991727776698e+00 0 -1 1
2452 818 1 -8.1999999999999995e-01 -1.3153218735512148e+01 -4.5966828897120884e+00 -4.1793916104352213e-01 -3 -2 1
133 45 1 -8.1999999999999995e-01 -1.0526484788024778e+01 -1.0111985284877409e+00 -5.1950105159531752e+00 0 0 3
1965 655 2 4.0999999999999998e-01 -7.3443178518925087e+00 -1.2928672316518632e+01 -1.5793692373531698e-01 -2 0 -1
902 301 2 4.0999999999999998e-01 -9.6271376124309231e+00 -6.5547956714722950e+00 -6.8838929954506671e+00 1 1 1
1575 525 2 4.0999999999999998e-01 -7.8098946205121740e+00 -2.3101730740085564e+00 -2.6591476058922332e+00 -2 -1 1
2073 691 2 4.0999999999999998e-01 -8.6383359070756516e+00 -8.0242682603540203e+00 -3.6194116814894048e+00 1 2 1
2071 691 1 -8.1999999999999995e-01 -9.0223175610994808e+00 -7.7010955139446162e+00 -4.4843388124434700e+00 1 2 1
2072 691 2 4.0999999999999998e-01 -9.2518115607586697e+00 -6.7310055855492017e+00 -4.4053482829060471e+00 1 2 1
2046 682 2 4.0999999999999998e-01 -5.3378423962546222e+00 -7.4391245715424148e+00 -7.0915166939173231e+00 1 -2 -1
979 327 1 -8.1999999999999995e-01 -1.3072914605956226e+01 -5.9403347214428415e-01 -6.4362404702314642e+00 0 1 0
2347 783 1 -8.1999999999999995e-01 -1.4605927668640767e+01 -3.0217837893623205e+00 -5.3397101700820464e+00 1 1 2
1357 453 1 -8.1999999999999995e-01 -1.2285289204616847e+01 -3.0828750075590854e+00 -3.1898078167247021e+00 0 0 0
1574 525 2 4.0999999999999998e-01 -6.7922011345313731e+00 -2.9856627155409221e+00 -3.7429330213150500e+00 -2 -1 1
2123 708 2 4.0999999999999998e-01 -1.3161971325668855e+01 -5.9641169385591795e+00 -5.7661933603730091e+00 0 0 -1
1359 453 2 4.0999999999999998e-01 -1.2410177122091952e+01 -2.3665372927483368e+00 -3.8762805427379625e+00 0 0 0
1416 472 2 4.0999999999999998e-01 -6.7671209193326103e+00 -6.1799100331366326e+00 -2.4879146266912340e+00 0 2 2
752 251 2 4.0999999999999998e-01 -8.2561854440640978e+00 -1.6457418448433163e+00 -4.3869964441785747e-01 1 0 0
721 241 1 -8.1999999999999995e-01 -1.0012262874377507e+01 -4.0863299631233794e+00 -4.4032421991399637e+00 -1 0 -1
2124 708 2 4.0999999999999998e-01 -1.2071243024355603e+01 -5.2914985112031800e+00 -6.7783561163369725e+00 0 0 -1
1850 617 2 4.0999999999999998e-01 -5.5258263323443568e+00 -5.4545136408467325e+00 -6.1679627538462221e+00 -1 0 1
1537 513 1 -8.1999999999999995e-01 -9.6974629188164805e+00 -2.9477683701626844e-02 -7.2402974262422148e-01 1 1 -1
135 45 2 4.0999999999999998e-01 -1.1256681780372020e+01 -5.5873829203929404e-01 -5.7069417741621571e+00 0 0 3
1851 617 2 4.0999999999999998e-01 -6.6549000827102596e+00 -5.9836876918173161e+00 -5.1135698044634967e+00 -1 0 1
1308 436 2 4.0999999999999998e-01 -1.2422370433331034e+01 -2.0177682523805718e+00 -1.7255526570334041e+00 2 -2 1
72 24 2 4.0999999999999998e-01 -1.3538667003715053e+01 -7.2613010389657502e+00 -4.0017316753553427e+00 0 -2 0
1415 472 2 4.0999999999999998e-01 -6.9853983681520830e+00 -4.5955826663269264e+00 -2.8178221495044742e+00 0 2 2
134 45 2 4.0999999999999998e-01 -1.0491254307892561e+01 -1.9778702712938063e+00 -5.4485574920446691e+00 0 0 3
2122 708 1 -8.1999999999999995e-01 -1.3042702791509434e+01 -5.3542176601050055e+00 -6.5496341147084802e+00 0 0 -1
1306 436 1 -8.1999999999999995e-01 -1.2376807579580378e+01 -1.2317710347014419e+00 -1.1090188604801323e+00 2 -2 1
1849 617 1 -8.1999999999999995e-01 -6.0066617687308028e+00 -6.2605497664490315e+00 -5.8228764702243421e+00 -1 0 1
1020 340 2 4.0999999999999998e-01 -7.9838055368902170e+00 -1.3532516926363250e+01 -7.2510248955673733e+00 0 2 2
753 251 2 4.0999999999999998e-01 -6.7836258351245480e+00 -9.8010432814724524e-01 -6.7337414611235857e-01 1 0 0
1358 453 2 4.0999999999999998e-01 -1.1410303854944640e+01 -3.5422058124173130e+00 -3.3427694017247234e+00 0 0 0
1108 370 1 -8.1999999999999995e-01 -5.6555845665688462e+00 -4.1617477696994225e+00 -7.3065413139952895e-01 0 0 -2
751 251 1 -8.1999999999999995e-01 -7.3606508804446991e+00 -1.7740780585565563e+00 -8.6476206782117693e-01 1 0 0
1964 655 2 4.0999999999999998e-01 -8.2355701877847096e+00 -1.1657665167899014e+01 -6.6467868520626538e-01 -2 0 -1
2054 685 2 4.0999999999999998e-01 -6.2503402090745954e+00 -8.1157667046325201e+00 -9.6226141826212341e-01 -2 0 1
688 230 1 -8.1999999999999995e-01 -5.9492908417939940e+00 -1.0029027993897817e+01 -7.1420907273633283e-01 1 -2 1
1888 630 1 -8.1999999999999995e-01 -1.2115439234280867e+01 -7.9037319282290195e+00 -1.3256071315168505e-01 -1 -1 1
1889 630 2 4.0999999999999998e-01 -1.2398437609444676e+01 -8.5997062095235961e+00 -7.9249495890899624e-01 -1 -1 1
1018 340 1 -8.1999999999999995e-01 -8.7236735854950442e+00 -1.2901478143599412e+01 -7.4841915781759267e+00 0 2 2
1016 339 2 4.0999999999999998e-01 -1.1029548367173048e+01 -8.1088579041269533e+00 1.2594904453651008e+00 -1 -1 2
178 60 1 -8.1999999999999995e-01 -1.0482724544646222e+01 -1.1039641500652571e+01 4.8794440462175235e+00 0 2 -1
1021 341 1 -8.1999999999999995e-01 -1.2447138909750711e+01 -1.3228862754946276e+01 4.9000604668916505e+00 -1 0 0
179 60 2 4.0999999999999998e-01 -9.9222497549097906e+00 -1.1071002971954130e+01 4.0518777568477002e+00 0 2 -1
180 60 2 4.0999999999999998e-01 -1.0693633661273147e+01 -1.0088123368818090e+01 5.1033014282604885e+00 0 2 -1
634 212 1 -8.1999999999999995e-01 -1.0155197088911914e+01 -1.3951652361622298e+01 9.5438347606965301e-01 -1 1 2
2066 689 2 4.0999999999999998e-01 -1.2756580824235211e+01 -9.8851459341520442e+00 2.7747148532391090e+00 1 0 1
1023 341 2 4.0999999999999998e-01 -1.1626507259451484e+01 -1.2715315185268960e+01 4.6494331307910723e+00 -1 0 0
1022 341 2 4.0999999999999998e-01 -1.3149149553526701e+01 -1.2596373475659115e+01 5.2273521927463680e+00 -1 0 0
2067 689 2 4.0999999999999998e-01 -1.4272049311403405e+01 -9.2777685531848650e+00 2.7426977295187402e+00 1 0 1
1912 638 1 -8.1999999999999995e-01 -6.7718550705103873e+00 -1.1209321632977682e+01 4.0923659432522381e+00 -1 1 1
2065 689 1 -8.1999999999999995e-01 -1.3717548795967080e+01 -1.0077207817906860e+01 2.9737984650476772e+00 1 0 1
1622 541 2 4.0999999999999998e-01 -7.4669038051177825e+00 -1.3838971017405846e+01 6.6893774802866250e+00 2 1 0
1611 537 2 4.0999999999999998e-01 -9.0483889399171549e+00 -1.8831678231832374e+00 6.5938612293768326e+00 0 0 0
1061 354 2 4.0999999999999998e-01 -9.2953645278040842e+00 -9.8135598688840027e+00 1.7326332824432473e+00 -1 0 1
2014 672 1 -8.1999999999999995e-01 -5.7779650090512913e+00 -1.3919078693747496e+01 5.4355524187350976e+00 0 1 1
865 289 1 -8.1999999999999995e-01 -1.3853406876673171e+01 -1.2538906024819720e+00 3.3398223425341360e+00 1 0 1
2285 762 2 4.0999999999999998e-01 -1.3027205393252103e+01 -1.4313775564768864e+01 2.9670365375697880e+00 1 1 4
2015 672 2 4.0999999999999998e-01 -6.1488245011324825e+00 -1.3660317783543036e+01 4.5436513297156313e+00 0 1 1
208 70 1 -8.1999999999999995e-01 -9.5217734223205763e+00 -7.1535695625323736e+00 6.5708059068614499e+00 -2 -2 1
1060 354 1 -8.1999999999999995e-01 -8.9904998567156262e+00 -1.0651840810261740e+01 2.1846554904715969e+00 -1 0 1
1914 638 2 4.0999999999999998e-01 -7.6352317150293434e+00 -1.1161987454115861e+01 3.5900496467098275e+00 -1 1 1
1963 655 1 -8.1999999999999995e-01 -8.0458392178449696e+00 -1.2266537881156898e+01 1.0555354426871588e-01 -2 0 -1
1864 622 1 -8.1999999999999995e-01 -1.3627055021109250e+01 -7.0768743327617925e+00 2.4199850758283237e+00 -1 -1 2
1062 354 2 4.0999999999999998e-01 -8.6030470097342686e+00 -1.1274913140479011e+01 1.5052125830981087e+00 -1 0 1
1621 541 1 -8.1999999999999995e-01 -8.4015771759273008e+00 -1.3958428334271163e+01 7.0241865245848967e+00 2 1 0
1634 545 2 4.0999999999999998e-01 -1.1975035564198414e+01 -7.9946007743755443e+00 4.1899161810134995e+00 2 -1 0
1633 545 1 -8.1999999999999995e-01 -1.1629741814037603e+01 -8.4649030299880152e+00 5.0020550486948903e+00 2 -1 0
1913 638 2 4.0999999999999998e-01 -6.9381808225581718e+00 -1.1018429201320345e+01 5.0597734854032002e+00 -1 1 1
636 212 2 4.0999999999999998e-01 -9.7924897727998736e+00 -1.3206194544211748e+01 3.9517192257238598e-01 -1 1 2
1635 545 2 4.0999999999999998e-01 -1.0881762299449679e+01 -7.9347977965342720e+00 5.4014253189500305e+00 2 -1 0
1373 458 2 4.0999999999999998e-01 -1.3725779407057336e+01 -1.0505748046614928e+01 6.7734461444708440e+00 0 1 -2