2593
Atoms. Timestep: 1000000
O -0.29769 14.0546 -10.4966
H -0.0226613 13.7623 -11.4125
H -0.565838 -14.9285 -10.5206
O -0.942398 -7.9838 -3.55534
H -0.647391 -8.46297 -2.72871
H -1.93973 -7.9113 -3.56058
O -6.10732 6.86862 3.4023
H -6.45609 5.96923 3.13886
H -5.31031 6.75632 3.9957
O 14.1034 -14.0846 -11.5486
H -14.9433 -14.3898 -11.2358
H 13.6784 -13.52 -10.8411
O -7.81525 -13.995 0.389559
H -7.73687 -13.4167 -0.422447
H -7.37592 -13.5418 1.16517
O 13.526 6.99799 -1.21321
H 13.4278 6.19741 -0.622131
H 13.428 6.7207 -2.16895
O 0.226027 11.9958 2.85619
H -0.5584 12.0952 2.24403
H -0.0930512 11.7339 3.767
O 8.23555 6.50013 14.0604
H 7.66507 6.01277 13.3994
H 8.82759 7.14555 13.5778
O 13.0925 -8.95019 -13.0136
H 12.9438 -8.09502 -13.5101
H 13.2974 -8.74826 -12.0559
O -11.44 3.90838 3.36095
H -11.1792 3.88745 4.3261
H -12.411 4.13398 3.28286
O 1.46125 -9.66318 -7.56324
H 2.37816 -9.52028 -7.93582
H 0.810205 -9.77536 -8.31391
O -4.15852 6.48678 -9.08864
H -4.16471 7.48621 -9.05625
H -3.48072 6.17913 -9.75639
O 11.4332 -3.57681 -7.87387
H 12.267 -3.97863 -7.49551
H 11.167 -2.78374 -7.326
O -7.95102 0.444558 -11.8973
H -7.36792 0.439097 -11.085
H -8.03396 -0.485828 -12.2543
O 10.13 -14.0804 -3.66251
H 11.0318 -14.4033 -3.94953
H 9.82326 -13.356 -4.27986
O -7.74298 12.9655 13.5958
H -7.3327 12.8001 12.699
H -7.27637 12.4094 14.2835
O 0.642169 11.5322 14.5625
H 0.126596 12.0396 -14.6932
H 0.542163 11.9815 13.6748
O -12.8384 0.321502 -5.59709
H -13.54 0.935 -5.95937
H -12.0093 0.843997 -5.39791
O 6.46385 0.340126 10.9689
H 5.6816 0.935322 11.1526
H 7.30829 0.872857 11.0243
O -13.347 11.3744 -11.871
H -13.5059 11.6992 -12.8033
H -13.61 10.412 -11.804
O 9.3579 4.56109 -8.86065
H 9.71151 3.89743 -9.51979
H 8.8247 4.08482 -8.1615
O -12.4657 7.4511 5.34488
H -11.6329 7.13009 4.89404
H -12.2377 8.18902 5.98003
O -10.9977 2.2576 12.2197
H -10.0755 2.32093 12.6013
H -11.5611 2.99855 12.585
O -14.6007 -7.26376 -2.46289
H -14.6832 -7.44035 -1.48209
H 14.4424 -7.06325 -2.84257
O 12.2597 -1.43576 -9.80247
H 11.9798 -1.87679 -10.6551
H 12.1868 -2.08965 -9.04944
O -13.348 14.2416 1.97762
H -12.9088 14.8803 2.60938
H -14.3409 14.3445 2.03626
O 4.95075 12.0889 10.5442
H 5.47797 11.5269 9.90688
H 5.42878 12.1358 11.4212
O -8.4727 5.58877 13.6373
H -8.38558 5.87099 14.5926
H -9.30064 5.98991 13.2454
O -6.77198 9.71808 8.78624
H -6.51597 8.77862 8.55861
H -7.76803 9.80523 8.77053
O -2.96709 11.0237 -7.99716
H -3.00422 11.8513 -8.55721
H -3.4277 11.1903 -7.12536
O 2.97127 -9.77503 7.49893
H 3.50083 -9.16093 8.08407
H 3.11547 -9.52889 6.54051
O -4.58579 -5.15236 -14.8115
H -3.87737 -4.7793 -14.2124
H -4.3339 -4.99161 14.1803
O 13.111 -8.82717 9.03126
H 12.1919 -8.85668 8.63835
H 13.4795 -9.7551 9.08741
O 3.41208 11.7167 -0.824489
H 2.56286 11.3696 -0.42664
H 3.39778 12.7165 -0.820439
O 8.55647 1.33631 -2.42107
H 8.8878 1.65157 -1.53181
H 7.81522 0.678723 -2.28656
O 7.20084 -12.0152 -7.69473
H 6.47441 -11.8876 -7.01948
H 6.79672 -12.1184 -8.60356
O 1.90642 13.0355 -9.0671
H 1.17343 13.4752 -9.58609
H 1.60871 12.8958 -8.12273
O -11.5859 3.57827 -7.02186
H -11.8315 4.51513 -7.27064
H -11.6226 3.47687 -6.02772
O 11.252 -3.75956 10.612
H 11.7199 -2.88818 10.4647
H 10.2633 -3.61014 10.6177
O 10.446 -8.30362 0.565491
H 9.92307 -7.45319 0.508802
H 11.2169 -8.26384 -0.0701828
O 8.15058 2.92977 1.90848
H 7.48827 2.2548 1.58335
H 8.22947 2.86693 2.90336
O -0.513002 13.0921 -13.4122
H -1.51136 13.0742 -13.466
H -0.150706 13.6801 -14.1353
O 4.58889 6.03075 -12.9049
H 5.17585 5.67777 -12.1763
H 5.15633 6.4091 -13.6362
O 5.48778 14.8856 -4.95407
H 5.72922 14.1773 -4.29081
H 6.0658 14.7939 -5.7649
O -10.1434 -0.279822 -4.30881
H -10.5549 -1.18267 -4.18428
H -10.4157 0.31746 -3.55444
O 7.53002 7.37937 -11.0298
H 7.91852 7.18059 -10.1301
H 8.24581 7.3101 -11.7247
O 13.1374 -5.02985 -6.39763
H 13.1237 -4.54988 -5.52048
H 13.8972 -4.68998 -6.95177
O -8.68737 -8.71759 -4.51405
H -9.42006 -9.02625 -5.12055
H -8.30753 -7.85969 -4.86
O 4.74701 -9.19936 -5.74531
H 5.06522 -10.0855 -5.4085
H 5.51465 -8.55926 -5.77605
O -12.5443 6.63416 -1.39247
H -12.7751 7.30575 -2.09647
H -11.5692 6.41839 -1.44462
O 5.24191 -6.14126 6.58147
H 6.22875 -6.24245 6.45558
H 5.06522 -5.54184 7.36213
O -14.3851 5.42543 -5.40381
H -13.9777 6.12185 -4.8131
H -14.1087 4.51764 -5.0884
O -0.174466 -2.70618 -5.98781
H -0.252135 -1.73471 -6.21176
H -1.04907 -3.15906 -6.16078
O -0.0455603 0.731704 5.39098
H -0.577409 1.55876 5.20913
H 0.560266 0.548095 4.6169
O -4.00395 -6.89574 3.9562
H -3.2453 -7.49643 4.20832
H -3.64346 -6.05604 3.55012
O -0.994763 4.1769 10.0992
H -1.47607 3.30196 10.0467
H -1.21308 4.72633 9.29271
O 5.0001 -10.658 2.97066
H 5.3454 -10.5257 2.04157
H 5.55094 -10.122 3.61043
O -0.367626 7.99444 8.38086
H -0.429922 7.97599 9.37872
H -0.751585 8.85204 8.03874
O -3.65938 0.506267 11.6383
H -3.44813 -0.469991 11.6857
H -4.50326 0.689506 12.1425
O -9.63981 -9.4776 4.47709
H -9.41116 -9.28981 3.52189
H -9.15979 -8.82955 5.06832
O 5.67421 -4.41242 -4.84158
H 5.34472 -4.10265 -5.73345
H 4.91587 -4.41836 -4.18978
O -0.428149 6.46315 2.98483
H 0.00245183 6.82737 3.81059
H -1.07448 7.13447 2.62214
O -13.4884 -11.3769 -12.8142
H -14.2623 -11.5297 -12.1996
H -12.9383 -10.6142 -12.4743
O -8.00788 9.86978 -14.8938
H -7.58268 10.5576 -14.3055
H -7.58634 8.97909 -14.7237
O 10.595 -12.7275 3.22459
H 9.63612 -12.7478 2.94168
H 10.8497 -13.6172 3.60343
O 12.9196 3.02594 5.09323
H 11.9513 3.26136 5.17692
H 13.0069 2.07503 4.79643
O 10.0349 2.36789 -0.176956
H 9.39573 2.77517 0.475376
H 10.6941 3.05892 -0.473464
O 3.86501 -7.15588 14.5705
H 4.75099 -6.84333 14.2281
H 3.49693 -6.47966 -14.7375
O 14.9328 -13.7988 -0.448745
H 14.471 -14.526 -0.956608
H 14.7143 -13.8808 0.523602
O -9.09519 -5.3244 4.57825
H -9.14669 -5.87411 5.41199
H -9.29537 -4.36916 4.79595
O 1.53044 3.5097 -8.69017
H 0.783263 3.27572 -8.06815
H 1.55166 2.85586 -9.44647
O 10.788 -14.1008 0.493502
H 10.3816 -13.2416 0.182778
H 11.4287 -13.9162 1.23865
O -1.45385 -5.06439 13.1204
H -0.574867 -5.21541 12.6682
H -1.4359 -5.47835 14.0305
O 0.458774 6.53557 -5.26934
H 0.929262 6.06185 -6.01377
H -0.196914 5.91414 -4.84057
O 0.100418 -3.14576 10.0039
H 0.602215 -4.00664 10.0878
H 0.64943 -2.40152 10.3843
O -4.6652 -1.96864 3.0012
H -4.59772 -1.13539 2.45248
H -4.65305 -1.73016 3.97224
O 10.2107 -11.3946 12.1147
H 10.3669 -10.5073 12.5485
H 9.24055 -11.4906 11.8922
O -14.4615 -8.64285 12.506
H -14.8124 -9.19203 13.2644
H -13.7946 -9.17801 11.9875
O -7.43886 1.94774 -1.04586
H -7.15547 2.82121 -0.650037
H -6.92775 1.20463 -0.613991
O -10.138 -11.4734 -10.8818
H -10.562 -10.9005 -10.1804
H -10.2692 -11.053 -11.7796
O 13.4866 7.456 -11.2058
H 13.2438 6.50958 -10.9929
H 14.0493 7.47796 -12.0321
O -1.16639 -1.61266 13.3439
H -1.71233 -2.08272 12.6504
H -0.648741 -2.28515 13.8728
O -5.35649 9.16408 -8.95941
H -6.15955 9.7554 -9.03285
H -4.5281 9.72407 -8.97054
O -6.64667 -9.61207 5.39012
H -6.21347 -9.77964 4.50457
H -6.04293 -9.9286 6.12173
O -3.38648 -10.3463 -8.1522
H -4.32805 -10.683 -8.15062
H -2.85601 -10.8365 -7.46067
O -8.7419 -0.70694 -7.23746
H -9.09112 -1.13581 -6.40435
H -8.22585 -1.37973 -7.76755
O 4.4405 -13.8777 -9.63462
H 5.33872 -14.3113 -9.70632
H 4.51647 -12.9111 -9.87943
O 3.27469 -6.25195 4.5101
H 3.66511 -6.21288 5.42987
H 3.54648 -5.43734 3.99776
O 4.90554 -10.9852 -13.928
H 5.45469 -11.7181 -14.3296
H 5.44277 -10.1422 -13.9017
O 7.87108 -5.93399 7.34146
H 8.41172 -6.43254 6.66389
H 8.32176 -5.98771 8.2325
O 5.01204 -3.39634 14.6947
H 4.68698 -3.41037 -14.3058
H 5.42129 -2.50583 14.4961
O 6.12598 6.71736 -1.01743
H 5.73649 7.61926 -1.20406
H 6.60842 6.38819 -1.82913
O 8.56256 -3.09842 10.6761
H 7.67824 -3.00288 10.2192
H 8.86593 -2.20426 11.0054
O 0.911109 4.06836 3.56902
H 0.210264 3.37105 3.41895
H 0.523317 4.97352 3.39508
O -12.334 -1.2292 3.79085
H -12.904 -1.57672 3.04633
H -12.8884 -0.658492 4.39655
O -7.88097 5.05665 9.5673
H -7.43122 4.38158 10.1521
H -8.82572 5.1829 9.8697
O 13.4859 0.361519 -7.53228
H 13.9529 1.11616 -7.99311
H 12.9803 -0.178202 -8.20529
O 4.6695 10.187 1.61399
H 4.55579 9.34096 1.09326
H 5.63642 10.4415 1.62943
O -14.2122 -7.73489 -6.5976
H 14.7411 -7.68413 -6.48993
H -13.8384 -6.81126 -6.68222
O 6.72685 -4.63127 11.9753
H 7.53613 -4.12564 11.6764
H 6.15888 -4.04182 12.5497
O 14.6859 0.773198 13.2965
H -14.8299 0.272664 12.5454
H -14.5526 1.16733 13.8829
O -13.7566 -9.64595 -8.93404
H -14.038 -9.18609 -8.09185
H -12.7671 -9.55719 -9.04762
O 6.6847 -5.93861 -11.8774
H 6.56109 -6.03764 -12.8648
H 7.6143 -5.62256 -11.6879
O -4.12627 -12.8542 10.7023
H -4.76248 -12.3564 10.1129
H -4.13635 -13.8242 10.4595
O 4.95154 -5.0713 2.30405
H 5.50856 -4.49355 1.70748
H 4.04701 -5.19683 1.89659
O -5.58546 0.728478 -14.2451
H -5.86913 1.53854 -13.732
H -6.09656 -0.0674384 -13.9207
O -0.394619 -9.54307 -1.34499
H 0.0641546 -10.2492 -1.88434
H -1.28031 -9.88573 -1.0318
O 7.68898 -7.85144 -2.56107
H 7.39459 -8.66304 -3.06564
H 8.49286 -7.45611 -3.00543
O 6.06379 5.45142 12.7543
H 5.59496 4.56926 12.7985
H 6.56954 5.51744 11.8942
O -4.59792 13.4351 -9.43846
H -4.22409 14.3501 -9.287
H -5.21361 13.198 -8.68702
O 3.51633 3.69665 13.1538
H 3.30123 4.67081 13.2223
H 2.85043 3.24946 12.5567
O -2.60398 3.13859 -9.52948
H -2.22488 3.89278 -10.0656
H -3.38532 3.46674 -8.99866
O -5.81882 4.81409 13.9114
H -5.51379 5.05685 14.8323
H -6.74595 5.15922 13.7656
O 14.9246 12.7918 4.98172
H -14.4416 12.388 4.27411
H 13.9935 12.8935 4.63166
O -6.42659 -3.90024 1.35354
H -5.62872 -3.39992 1.68975
H -6.52365 -4.75464 1.86396
O -14.3347 6.3261 11.6799
H -14.1787 6.85825 12.512
H -13.9046 5.42813 11.773
O -2.9449 3.17837 -13.135
H -3.52242 2.88077 -12.3749
H -3.31996 4.01693 -13.5301
O 13.2308 7.59015 5.0535
H 13.0843 7.04942 4.22519
H 13.9615 7.17663 5.59658
O 7.24352 -0.144677 -6.70792
H 7.30788 -1.11343 -6.46851
H 6.97653 0.381202 -5.90039
O -6.25355 13.072 4.82137
H -6.52266 12.2692 5.35335
H -6.02309 12.7924 3.88938
O 14.0453 -10.4983 6.93907
H 13.3346 -11.1067 6.58588
H 14.8389 -10.5245 6.33123
O 2.57138 6.32992 -2.72547
H 1.89051 6.60527 -2.04684
H 2.98761 7.14446 -3.12948
O -2.76291 2.0195 -5.44758
H -3.5587 2.62043 -5.52207
H -3.05704 1.06647 -5.51948
O -4.65101 -12.9532 6.83309
H -4.34339 -13.1545 7.76305
H -4.21351 -12.1135 6.51169
O -3.6659 8.85415 -4.90381
H -4.4574 8.39197 -5.30364
H -2.83744 8.57796 -5.39095
O -11.5096 10.5035 11.1057
H -12.3837 10.0207 11.052
H -11.0403 10.25 11.9515
O -3.49502 12.7672 7.93226
H -3.55275 13.3234 8.76129
H -2.9031 13.2216 7.2666
O -11.9091 3.26373 -10.2251
H -11.9738 2.56911 -10.9416
H -11.4707 2.86967 -9.41737
O 8.67378 7.20761 5.99045
H 9.59005 6.96514 6.30919
H 8.19913 7.72476 6.70264
O 8.93594 1.75365 11.1321
H 9.26324 2.36349 11.8539
H 9.24264 2.09432 10.2434
O 10.4468 14.5437 10.8021
H 9.71183 14.3841 10.143
H 11.3247 14.5642 10.3238
O -13.2091 -14.5558 -4.53919
H -12.593 -14.0841 -5.16993
H -13.0993 -14.177 -3.62025
O -8.71006 8.06414 -8.7256
H -8.87787 7.22438 -8.20927
H -7.83387 7.99289 -9.20222
O -1.32723 -5.12972 -14.0601
H -1.77345 -4.2385 -14.1411
H -1.01387 -5.26126 -13.1196
O 12.0557 -6.59001 -14.3788
H 12.2546 -5.68303 -14.0076
H 12.0634 -6.55027 14.5682
O -1.56027 -5.98527 9.18744
H -0.865328 -5.55551 9.76391
H -2.45392 -5.58336 9.38696
O -9.33437 12.6503 -0.680001
H -10.1085 13.1195 -0.255112
H -9.47322 11.6615 -0.625399
O -9.3385 12.7994 7.08196
H -10.0996 13.4043 6.84814
H -9.07405 12.2697 6.27609
O -10.2638 12.0122 -9.23957
H -10.2378 12.9922 -9.0428
H -11.0325 11.5951 -8.75467
O 0.537914 -10.5627 3.10262
H 0.779757 -10.6532 4.06869
H 1.23024 -11.0167 2.5418
O 11.6839 4.99676 -7.56463
H 11.454 5.00143 -6.59145
H 10.8674 4.77808 -8.09892
O 3.25163 -9.82095 13.9573
H 3.58841 -8.8827 14.0361
H 3.67126 -10.3865 14.6672
O -2.76729 9.45774 -12.409
H -2.57524 9.09305 -11.4979
H -3.09133 10.4004 -12.3292
O -13.9559 9.19768 10.802
H -14.1366 8.23359 10.6075
H -14.6054 9.5269 11.4874
O -4.66945 1.10144 2.57976
H -5.56688 0.755531 2.30605
H -4.61008 1.12125 3.57777
O -10.7673 -9.56415 -8.85431
H -10.1541 -10.1519 -8.32659
H -10.4029 -8.63313 -8.87253
O 11.8202 -6.26283 -9.55463
H 12.6534 -5.85652 -9.9296
H 12.0224 -7.1793 -9.20947
O -14.5269 13.5811 -1.68831
H -13.5917 13.5664 -1.33449
H -14.8717 12.6451 -1.75795
O -6.6818 -6.22249 3.20446
H -5.95606 -6.61188 3.77159
H -7.37187 -5.79849 3.79096
O 13.9855 4.69772 -14.5294
H 13.8245 4.22661 -13.6621
H 13.125 4.77108 14.9126
O 9.81184 -0.800226 11.4743
H 10.768 -0.856876 11.187
H 9.44776 0.102368 11.2447
O 7.49526 -2.90387 -8.16709
H 6.54616 -3.07654 -7.90374
H 8.01825 -3.75392 -8.10519
O -0.514683 -13.4444 14.8403
H -0.224395 -12.5082 14.6424
H 0.22529 -14.0777 14.6138
O 3.46177 -9.10539 4.87399
H 3.23984 -9.52926 3.99591
H 3.58859 -8.12169 4.74666
O 12.0669 1.46704 1.42112
H 11.2799 1.65708 0.834163
H 12.5818 2.31091 1.57185
O 0.435385 -9.72522 7.81243
H 1.41954 -9.56398 7.73898
H 0.108095 -9.39184 8.69656
O 6.36214 12.6032 12.9125
H 6.37595 13.5598 13.2036
H 7.1161 12.1114 13.3479
O -6.87519 7.52109 11.6452
H -7.26887 7.78935 10.7659
H -7.20392 6.60991 11.8934
O -4.65472 14.5925 9.77558
H -4.75212 14.1291 10.6563
H -5.49939 14.4907 9.25014
O -9.31557 11.5267 -5.25301
H -10.288 11.3477 -5.10388
H -9.21089 12.2644 -5.91995
O -12.7439 14.6169 -12.0762
H -12.7824 14.8335 -13.0517
H -13.3617 13.8556 -11.8792
O 7.61973 8.81704 8.1547
H 6.62203 8.88113 8.13378
H 8.01311 9.56642 7.62213
O -11.6265 -1.70551 12.7108
H -11.9703 -2.52467 12.2518
H -11.8392 -1.75611 13.6866
O -3.52359 12.2189 -11.7624
H -2.56122 12.4086 -11.5679
H -4.10047 12.7853 -11.1739
O -4.23475 -12.6839 -1.13852
H -4.02997 -13.0073 -2.06231
H -3.38684 -12.4061 -0.687017
O 8.32229 -10.7727 0.41678
H 8.63894 -9.83016 0.310725
H 8.53155 -11.29 -0.413032
O -6.53633 -2.84923 7.14142
H -5.98081 -2.89731 7.97151
H -6.65417 -3.76834 6.76553
O -14.6169 11.1281 0.972642
H -14.7115 10.1461 0.809469
H -14.1055 11.2777 1.81883
O -13.7998 -0.444042 -2.63471
H -13.9543 0.254618 -3.33325
H -12.8371 -0.438067 -2.36451
O 5.08444 5.55021 9.1436
H 4.7324 5.70584 8.22068
H 4.40064 5.83797 9.81409
O -3.01699 -3.07635 12.0942
H -3.9157 -3.51122 12.038
H -2.34507 -3.74078 12.4213
O 10.746 1.71998 -6.31422
H 11.3215 2.06148 -7.05722
H 9.90451 2.25845 -6.26998
O -5.64428 2.98053 -4.98461
H -5.3015 3.64799 -4.32359
H -6.17482 2.28042 -4.50678
O 10.0126 12.8081 13.2146
H 10.3318 13.271 12.3877
H 9.05402 12.5467 13.1013
O 13.0128 -1.58159 7.54286
H 13.7311 -1.9732 6.96782
H 12.1673 -2.10125 7.42029
O -9.68516 -7.46823 -11.2218
H -8.74393 -7.49191 -11.5587
H -10.085 -6.57176 -11.4127
O 4.43504 0.976125 12.8904
H 3.96397 0.386003 12.2348
H 4.24559 1.93363 12.6731
O -2.21114 -1.53572 9.03033
H -2.13172 -1.29718 8.06247
H -1.34321 -1.9134 9.35283
O 3.34635 12.7542 13.454
H 4.31423 12.8029 13.2075
H 3.24608 12.2523 14.3131
O 5.07341 7.62136 -6.21487
H 4.34947 7.17458 -5.68928
H 4.79195 7.69828 -7.17132
O 14.8801 6.28923 6.74907
H 14.7709 5.79534 7.61168
H -14.1282 6.18068 6.41931
O 7.36669 -10.6228 6.51519
H 6.67346 -11.3433 6.5306
H 8.23115 -10.9845 6.86426
O -5.67035 2.69946 -12.3528
H -5.97438 2.17905 -11.5548
H -6.15153 3.57555 -12.3824
O -8.84662 -2.99673 0.597531
H -7.98342 -3.43008 0.856444
H -8.96684 -2.15379 1.12189
O -0.520299 -9.85452 -9.40763
H -1.27463 -9.19862 -9.38073
H -0.597057 -10.4172 -10.2307
O 2.04065 6.97778 -11.9082
H 2.82643 6.5248 -12.3293
H 1.56704 7.52987 -12.5944
O -14.7623 -7.12713 9.0894
H 14.3015 -7.59764 9.0936
H -14.9028 -6.15704 8.89159
O 9.21363 -3.93546 -14.5027
H 8.86396 -3.23144 14.8254
H 10.0379 -3.59946 -14.047
O 2.55992 6.29211 10.3394
H 1.75246 5.80726 10.0034
H 2.54445 6.31257 11.339
O 12.4297 -8.83554 11.6621
H 13.1525 -8.88202 12.3516
H 12.8386 -8.70667 10.7587
O -13.7869 -13.4258 -14.5914
H -14.7319 -13.3665 -14.9129
H -13.6374 -12.7502 -13.8695
O 10.34 -8.62086 13.4528
H 11.0277 -8.57088 12.7285
H 9.69641 -7.86188 13.3543
O -13.6645 -4.79483 6.19725
H -13.8226 -5.67233 5.74454
H -12.6854 -4.67651 6.36216
O -10.6904 -11.2079 -1.25891
H -10.8962 -11.3019 -0.284868
H -10.4812 -12.1069 -1.64365
O 5.20186 10.1235 -14.6605
H 4.25543 10.4253 -14.5459
H 5.21305 9.1975 14.9082
O 9.31149 13.4333 -4.46587
H 10.0919 12.8235 -4.60424
H 9.63783 14.3291 -4.16407
O -7.17509 -4.8866 -13.5885
H -7.91949 -4.56709 -14.1748
H -6.32847 -4.93043 -14.1188
O -9.68402 -13.9775 4.69411
H -8.81174 -13.7467 5.1252
H -10.1312 -14.7045 5.215
O 13.0334 -4.21307 -13.133
H 12.6911 -3.51845 -12.5003
H 13.5461 -3.77028 -13.8685
O -8.25985 -12.9638 -9.91369
H -7.78142 -13.6612 -10.4473
H -8.7259 -12.3319 -10.5329
O 6.33953 12.6212 7.91496
H 6.46268 13.6134 7.92943
H 5.74055 12.3707 7.15441
O 5.00179 10.3637 -9.91349
H 5.19143 11.327 -9.72375
H 5.29357 10.1436 -10.8443
O 10.3605 3.84735 5.56576
H 9.47629 3.56446 5.19411
H 10.2537 4.0938 6.52899
O 8.47302 12.2341 2.5185
H 7.85056 11.6959 3.08673
H 9.41072 12.1123 2.84383
O -3.22681 -12.9165 -11.685
H -3.23704 -12.0437 -11.1971
H -2.38489 -12.9897 -12.2196
O -0.906088 -12.2393 -3.87752
H -1.85205 -12.2813 -3.55608
H -0.738232 -11.3506 -4.30415
O -3.61596 -10.7035 5.29288
H -4.23694 -10.5576 4.52278
H -2.79062 -10.1537 5.16426
O -0.420846 5.10569 12.7461
H -0.549372 4.12246 12.8753
H -0.608474 5.34403 11.7932
O 6.4779 14.4338 -7.54037
H 7.29005 14.4846 -8.12155
H 6.26686 13.4759 -7.34558
O 0.651412 12.0691 -6.35598
H 1.31756 12.7911 -6.16893
H 0.0607168 11.9459 -5.55858
O -4.72682 4.83187 -3.38204
H -4.2386 5.08915 -4.21594
H -5.08366 5.65358 -2.93775
O -2.01318 -12.1758 0.256169
H -1.87928 -11.4812 0.962921
H -1.60617 -13.0388 0.555602
O 9.92019 -12.4041 -10.6171
H 10.132 -12.0947 -11.5441
H 9.08403 -11.957 -10.2994
O -3.646 5.21995 -5.82467
H -3.79703 4.60197 -6.59618
H -3.33658 6.10802 -6.16458
O 0.67741 -12.7488 11.0899
H -0.166854 -12.4288 10.6601
H 1.17629 -13.3335 10.4503
O 12.8758 0.847799 -2.72558
H 13.1353 0.306117 -3.52508
H 13.4909 0.6366 -1.96598
O 9.68469 6.12655 -1.3585
H 10.4298 5.47937 -1.51968
H 9.2667 5.93896 -0.469659
O -4.09378 -5.43519 9.64219
H -4.69795 -4.64322 9.55435
H -4.4541 -6.19147 9.09615
O -1.60486 -1.27355 6.26625
H -1.00911 -2.076 6.23293
H -1.07424 -0.455118 6.0459
O -10.5547 6.92422 -5.32399
H -10.7295 6.27875 -6.06747
H -10.984 7.80192 -5.53675
O -13.6346 -7.7967 -14.3302
H -12.99 -8.52451 -14.564
H -14.5374 -8.02049 -14.6975
O 11.2234 5.99202 14.6404
H 10.7532 6.67593 14.0827
H 11.1619 6.24888 -14.3413
O 11.781 -5.98631 6.4686
H 11.5554 -6.05575 7.4403
H 12.4433 -6.69612 6.22865
O 11.7406 -5.06034 12.8809
H 11.6058 -4.54036 12.0375
H 10.8801 -5.49595 13.145
O 5.12209 9.20959 -1.0678
H 5.73466 9.54591 -1.78306
H 4.45383 9.91807 -0.841013
O 6.60643 9.70937 -12.1399
H 6.37945 9.5157 -13.0943
H 6.85509 8.8585 -11.6772
O -12.0875 3.47194 -4.48676
H -11.4829 3.77343 -3.74954
H -12.9209 3.08155 -4.09569
O 2.43957 13.9522 6.72227
H 1.87579 14.0002 5.89777
H 1.96028 13.4245 7.42355
O -4.7857 11.6751 -2.11668
H -4.79314 12.5458 -1.62497
H -5.72283 11.4167 -2.35112
O -6.27484 -8.39157 -1.37937
H -5.91914 -9.24316 -0.994364
H -7.23994 -8.50906 -1.61329
O -12.3031 9.83962 6.96551
H -12.2575 10.3755 6.12246
H -13.1332 10.0798 7.46862
O -13.1613 -13.5423 11.1463
H -12.5857 -13.3831 11.9483
H -13.9125 -14.1551 11.3915
O -4.16944 -7.78163 -14.4511
H -4.31704 -6.80368 -14.5987
H -4.88587 -8.30086 -14.917
O 2.28424 6.24943 13.2925
H 1.39277 5.79643 13.2949
H 2.17841 7.19507 13.6
O -13.1277 6.23179 -12.4412
H -13.6125 5.76535 -11.7013
H -12.8863 7.15744 -12.1499
O 7.27998 -13.597 9.95599
H 7.40459 -12.7284 10.4355
H 6.30701 -13.8262 9.92897
O -9.31367 1.15603 -14.0225
H -8.86689 1.07835 -13.1312
H -10.1047 0.545102 -14.0531
O 6.58493 12.3918 -4.06332
H 6.47722 11.4841 -4.46884
H 7.53826 12.6824 -4.14504
O 12.475 0.984982 -10.9103
H 13.4004 1.28712 -11.1387
H 12.5216 0.131432 -10.3914
O -3.27341 -3.42044 -11.6029
H -2.87209 -3.1933 -12.4902
H -2.9719 -2.75462 -10.9204
O -10.5122 -4.06444 -1.68127
H -10.1433 -3.48169 -0.957202
H -11.2003 -4.67933 -1.29613
O -3.80528 -5.45311 -9.77449
H -3.34535 -5.28385 -8.90285
H -3.46469 -4.81102 -10.4613
O 13.7982 -3.49905 14.2232
H 14.6946 -3.88053 13.9976
H 13.0834 -4.14077 13.9455
O 13.7725 -14.3846 5.41824
H 14.1902 -14.3846 6.32682
H 14.1969 14.8514 4.85638
O 14.503 -5.55102 -10.7969
H -14.564 -5.8107 -11.1965
H 14.0154 -4.94754 -11.4278
O -6.98123 11.9906 10.6021
H -7.21459 11.243 9.98039
H -6.81263 12.8229 10.0741
O -5.63703 1.2691 -9.96042
H -5.76441 1.25759 -8.96866
H -4.70704 0.974723 -10.1804
O -4.68837 12.2228 11.7552
H -5.5471 12.1204 11.2532
H -4.0812 11.459 11.5363
O -7.39812 11.0423 -9.50328
H -6.95892 11.4686 -8.71247
H -8.35925 11.316 -9.53848
O -11.9775 10.8882 -4.90489
H -12.1461 9.90262 -4.89501
H -12.707 11.3562 -4.40613
O -7.30303 1.12103 -3.50614
H -8.05097 0.496402 -3.7306
H -7.49483 1.57086 -2.6339
O -9.89284 6.43199 -1.49671
H -9.23141 6.52049 -0.751979
H -9.47215 6.73054 -2.35336
O -8.04924 -0.340657 7.43665
H -8.33808 0.180635 6.63367
H -7.77005 -1.25872 7.15529
O -11.9097 -7.59765 12.1655
H -12.244 -8.3298 11.5721
H -12.6747 -7.20987 12.6797
O -11.8994 -13.4897 -10.0718
H -11.3929 -12.7936 -10.5804
H -12.1672 -14.2269 -10.6921
O -3.80347 5.10501 12.0823
H -3.09879 4.40197 12.1778
H -4.48515 4.99399 12.8055
O -8.57559 13.6847 -6.82556
H -8.97348 13.9664 -7.69863
H -8.41043 14.4917 -6.25864
O 2.35106 -4.90877 -14.0192
H 3.02345 -4.56568 -13.3634
H 1.75346 -5.57153 -13.568
O -6.29624 -11.6062 9.37834
H -6.64352 -11.3942 10.2918
H -7.05569 -11.6202 8.72798
O -2.29515 14.0678 11.5804
H -2.25954 14.5822 12.4371
H -2.96167 13.327 11.6638
O -3.76322 11.059 0.558769
H -3.6987 10.0779 0.741014
H -4.09474 11.2037 -0.373483
O 0.305235 -1.31672 -9.93064
H 0.155692 -0.918802 -9.02551
H 0.431337 -0.584531 -10.5999
O -4.0883 -8.23419 -3.02308
H -3.87056 -8.96334 -3.67182
H -4.95653 -8.43858 -2.57101
O -11.2047 -4.3556 7.33026
H -11.2921 -3.67171 8.05455
H -11.2621 -5.27134 7.72783
O 12.9663 -10.1259 -3.20295
H 13.0059 -9.48883 -2.4332
H 12.8293 -11.0551 -2.85984
O -14.2744 -11.6775 -6.49509
H -13.4808 -12.2153 -6.21071
H -14.5196 -11.9164 -7.43465
O -12.7922 -0.749345 -10.3077
H -13.1944 -1.64917 -10.4765
H -12.3594 -0.74153 -9.40623
O -6.68965 6.76408 7.89732
H -7.21186 6.19847 8.53554
H -5.73327 6.47204 7.89882
O 1.39383 -6.55634 -6.75035
H 1.52678 -6.33019 -5.7854
H 1.57533 -7.52934 -6.89273
O -4.12388 -10.9867 12.907
H -4.11196 -11.9007 12.5014
H -4.11489 -11.0643 13.9039
O -11.9322 -13.4971 8.67431
H -12.0738 -13.5055 9.66418
H -11.7862 -12.557 8.36638
O 7.00483 -11.3975 -10.4247
H 6.93658 -10.4108 -10.5722
H 6.75341 -11.8782 -11.2647
O -3.53842 14.9607 1.45306
H -3.91451 -14.1391 1.07596
H -3.55701 -14.9424 2.45194
O 9.81802 -2.17602 1.64566
H 9.62889 -1.36002 2.19185
H 9.78751 -2.98471 2.23306
O -6.20453 -7.13634 -9.93406
H -6.01716 -7.93113 -9.35686
H -5.41295 -6.52536 -9.92716
O 1.53247 -7.39686 -11.8982
H 1.3134 -8.25307 -11.4304
H 1.38299 -7.50627 -12.8809
O 11.3726 12.1774 6.27139
H 11.077 12.1971 5.31631
H 12.0465 11.4494 6.39679
O 6.31164 1.70515 -10.9573
H 6.95068 1.39449 -10.2537
H 5.80655 2.50009 -10.6213
O -0.887809 -13.5763 4.49802
H -0.337618 -12.8335 4.8793
H -0.691503 -13.6694 3.52193
O 0.470805 12.5891 12.0769
H -0.277375 12.6694 11.4183
H 1.28683 12.2433 11.6138
O -12.0461 12.9661 13.4311
H -11.2117 13.5022 13.5583
H -12.3513 13.0445 12.482
O -8.2588 -5.40448 -7.48558
H -7.69126 -5.77967 -6.75273
H -8.33935 -6.07625 -8.22191
O 7.87725 9.62362 -2.80252
H 8.08284 10.5635 -2.53008
H 8.69511 9.05862 -2.69375
O 8.45178 3.87772 -12.5463
H 8.12743 3.33124 -13.3184
H 9.25293 3.43826 -12.1401
O 13.9972 3.39163 -12.2638
H 14.4366 2.57138 -11.8976
H 14.2285 4.17773 -11.6907
O -13.653 8.04044 -3.80526
H -13.9715 8.88876 -3.38237
H -13.78 8.09361 -4.79571
O -5.34766 8.25633 -14.4845
H -4.53204 8.52302 -13.9711
H -5.2832 8.60756 14.5276
O -7.14536 13.4437 0.798078
H -7.99448 13.2447 0.308851
H -7.12732 14.4099 1.05505
O 14.6427 -2.74609 5.85111
H -14.862 -1.92374 5.49209
H -14.6256 -3.47574 5.94142
O 4.21845 -9.58597 -3.0748
H 4.83541 -10.3009 -2.74594
H 4.43612 -9.36973 -4.02654
O 14.7912 9.83475 13.3223
H 13.7982 9.80692 13.2072
H -14.9175 10.5293 14.0014
O -13.5999 -9.54033 8.61684
H -14.1796 -8.7299 8.70084
H -14.1698 -10.3394 8.42515
O 7.84146 3.13953 4.58469
H 7.55334 3.8928 5.17589
H 7.22772 2.36074 4.71411
O 13.9015 -0.616281 -4.90253
H 14.4314 -1.4585 -5.0015
H 13.6689 -0.260519 -5.80768
O 8.23844 0.76818 -9.35475
H 8.12835 0.759769 -8.36089
H 8.60047 -0.113439 -9.65746
O 12.4704 2.65459 13.8939
H 13.2967 2.2193 13.5364
H 11.9879 2.01391 14.4911
O 14.5605 -4.76969 2.87125
H 14.5244 -4.36832 3.78642
H 13.6313 -4.95486 2.55157
O -2.58738 8.24056 3.59517
H -2.74872 9.18674 3.87564
H -2.96772 8.09414 2.68202
O -10.3588 8.74887 -10.9328
H -9.76262 8.6136 -10.1415
H -10.0927 9.58552 -11.4115
O -3.32563 8.06858 0.908853
H -2.77381 7.82689 0.11071
H -4.28957 8.11296 0.646559
O -10.9235 -6.49434 -3.44584
H -10.7877 -6.35504 -2.46496
H -10.1161 -6.17586 -3.94257
O -6.0932 0.0470587 9.47065
H -6.24974 -0.664916 10.1552
H -6.89031 0.113473 8.87053
O 4.18286 6.36033 6.58513
H 5.01868 6.10162 6.10095
H 3.97152 7.31929 6.39626
O -3.95799 -6.16771 -4.72739
H -4.01608 -5.32843 -4.18684
H -4.12019 -6.95724 -4.13555
O 13.638 5.0552 0.707737
H 14.6009 4.78858 0.668223
H 13.3957 5.29078 1.64888
O -10.1642 10.1612 -1.42807
H -9.94929 9.75163 -2.31466
H -11.0851 10.5498 -1.45491
O 9.0179 -6.14036 12.8214
H 8.55127 -5.27179 12.9881
H 8.86933 -6.42198 11.8735
O -2.51674 1.85057 9.54863
H -1.66009 1.39946 9.29842
H -3.01796 1.27784 10.1973
O -2.12905 8.6022 -9.61811
H -2.11437 9.29544 -8.89759
H -1.29909 8.0471 -9.56351
O 11.8336 -3.94321 4.1601
H 11.9528 -4.25335 5.10326
H 11.0123 -4.36202 3.77281
O -0.904026 -4.83726 4.1407
H -0.273432 -5.59772 3.98578
H -0.890081 -4.58449 5.1081
O -2.74037 -1.6604 -9.69955
H -1.82956 -1.67575 -9.28706
H -2.91119 -0.758759 -10.0968
O 2.35293 -1.93861 -5.1064
H 1.43712 -2.29019 -5.30038
H 2.43854 -1.01185 -5.4721
O 14.1159 7.44405 -13.9143
H 13.652 6.64039 -14.2869
H -14.8675 7.42824 -14.1843
O -6.71627 -13.2813 2.63647
H -6.67113 -12.2862 2.54975
H -6.02299 -13.591 3.28717
O -1.71266 -12.2517 -6.90531
H -1.16224 -12.3335 -7.73616
H -1.14637 -12.4617 -6.10833
O -3.463 -4.48479 2.95029
H -3.72057 -3.51856 2.94622
H -2.50361 -4.57286 3.21815
O 8.35193 13.9308 -9.70748
H 8.85752 14.2502 -10.5089
H 8.99635 13.6181 -9.0097
O -7.25836 -7.13301 -12.2835
H -6.78365 -7.16501 -11.404
H -7.2205 -6.20302 -12.649
O -9.77546 5.21958 1.79109
H -10.1632 4.56166 2.43668
H -10.2803 6.08077 1.84927
O 12.8482 0.434349 3.83819
H 12.6688 0.551577 2.86145
H 12.1909 -0.214068 4.2223
O 5.00712 11.2395 5.7923
H 5.12175 12.1662 5.43464
H 4.50687 10.6851 5.12723
O 13.0548 -8.35896 2.9117
H 12.8634 -7.95046 3.80414
H 12.344 -8.08895 2.26221
O 7.96793 9.02067 -7.18418
H 8.2252 8.48398 -7.98775
H 8.42214 8.64794 -6.37504
O -4.73609 -2.63717 -7.73653
H -4.52971 -2.22873 -8.62565
H -5.71213 -2.84849 -7.6853
O -8.33075 3.56802 -10.0588
H -8.59845 2.61158 -9.94263
H -7.37211 3.61406 -10.3396
O -11.7875 -1.50577 -7.76254
H -11.4485 -2.41168 -7.5089
H -12.0458 -1.00348 -6.93736
O -7.26495 4.61777 2.42203
H -8.24376 4.80308 2.3352
H -7.12391 3.86581 3.06594
O 11.2914 11.5429 8.95857
H 10.2966 11.5057 8.86388
H 11.6927 11.9096 8.11925
O -1.14538 13.4356 -7.92368
H -1.05834 13.4458 -8.9198
H -0.492625 12.7831 -7.53878
O -12.5678 11.6424 -7.52167
H -13.5436 11.4432 -7.43154
H -12.1165 11.5032 -6.64029
O -10.004 14.4898 14.001
H -9.21189 13.8858 13.9136
H -9.70731 -14.5044 13.9242
O 5.3467 -6.97 -9.62523
H 5.7305 -6.48392 -10.4103
H 4.71796 -6.36677 -9.13458
O -2.88469 4.97433 2.35291
H -3.57999 5.11364 3.05796
H -1.98489 5.20783 2.72141
O 9.15528 -5.10477 -7.63323
H 10.0685 -4.79182 -7.89411
H 8.9741 -5.99299 -8.05536
O -14.7793 9.36304 -10.1986
H 14.3321 8.85703 -10.4154
H 14.9276 10.2815 -9.8837
O -9.00257 -12.8782 13.9577
H -8.37834 -12.9295 13.1782
H -8.47472 -12.7845 14.8018
O -2.51654 10.5171 11.6947
H -1.78088 10.4098 11.0259
H -2.45852 9.78572 12.3742
O -9.65947 -9.6189 1.71204
H -10.2047 -10.4565 1.74574
H -9.75822 -9.19286 0.812765
O -4.77078 -13.6506 -5.92675
H -4.09349 -14.3595 -6.12372
H -5.63939 -14.0794 -5.67849
O -11.3947 -11.7978 4.8568
H -10.9053 -12.6697 4.87215
H -10.785 -11.0793 4.52213
O -13.636 -0.447604 8.22226
H -14.0944 -0.148038 7.38553
H -12.6974 -0.102845 8.22984
O -1.60362 -9.63869 14.686
H -2.03919 -9.15626 13.9261
H -0.81196 -10.1475 14.3478
O -6.40819 -8.16696 9.68912
H -7.38927 -8.20545 9.49952
H -5.95264 -8.93932 9.24653
O 1.10594 10.5748 0.522966
H 1.31371 9.59695 0.546733
H 1.11093 10.9393 1.45411
O -3.15473 -7.75281 1.24313
H -3.71728 -7.52056 2.03656
H -3.20033 -7.01138 0.573697
O 8.00132 10.9341 6.37124
H 7.43646 11.558 6.91129
H 8.86638 11.3808 6.14292
O 4.64355 -3.62758 -7.31227
H 4.12162 -2.77608 -7.36215
H 4.02687 -4.40444 -7.4393
O -14.2828 -12.4023 -9.1362
H -13.4693 -12.7478 -9.60384
H -14.3851 -11.4253 -9.32325
O -14.9477 12.4533 -9.76139
H -14.1368 12.3953 -10.3436
H -14.6666 12.57 -8.80889
O 11.5831 0.959106 -14.0886
H 11.7639 1.41381 -13.2165
H 12.2847 0.266209 -14.2549
O -0.563884 -9.25358 -12.4668
H -0.194796 -9.23457 -13.396
H -1.4456 -8.78219 -12.4487
O 3.25929 -13.7246 -3.13523
H 3.88184 -12.9516 -3.01307
H 2.71564 -13.5871 -3.96317
O -7.09813 -10.8721 1.3173
H -7.75065 -10.1527 1.55508
H -7.10568 -11.0152 0.327635
O -9.18561 10.1591 5.81338
H -9.83329 9.94786 6.54539
H -8.52335 9.41459 5.7292
O 11.8202 4.83485 8.84095
H 12.7278 4.75368 9.25282
H 11.8809 5.38146 8.0058
O 5.39516 -4.51971 8.83188
H 6.2358 -4.09365 9.16614
H 4.68402 -4.4475 9.53118
O 2.73233 -12.2179 -0.710923
H 1.99409 -11.7991 -1.23973
H 3.24132 -12.8518 -1.29317
O -10.865 3.53429 6.09067
H -11.5538 3.66164 6.80435
H -9.9692 3.8103 6.43894
O 7.13941 5.8791 -6.01796
H 6.34762 6.44707 -6.24254
H 7.90547 6.46485 -5.75337
O -13.6893 -3.27646 -10.3533
H -14.2996 -4.0664 -10.4127
H -12.7512 -3.56489 -10.5448
O -1.94145 7.3367 -6.51949
H -1.03993 6.9908 -6.25954
H -2.03908 7.29845 -7.51395
O -13.6192 5.20624 0.840527
H -13.2319 5.50094 -0.0330314
H -13.509 5.93466 1.51669
O 4.26029 7.69765 -8.98758
H 3.67992 7.34989 -9.72391
H 4.78018 8.4858 -9.31695
O 0.518985 -2.9632 -14.916