2593
Atoms. Timestep: 18495000
O 11.0693 11.318 -1.11942
H 11.6402 11.5808 -1.89723
H 10.1857 11.7818 -1.18273
O -5.87407 10.7791 -6.94876
H -6.7918 11.0003 -6.61892
H -5.80272 9.79321 -7.0997
O -6.43243 8.65487 10.6695
H -6.20158 9.37426 11.3246
H -7.40278 8.71579 10.4358
O -11.5468 13.8137 5.76483
H -10.7841 14.2493 6.2428
H -11.1936 13.2453 5.02185
O 10.6525 8.171 2.67238
H 11.2987 8.46972 3.37463
H 10.9784 8.46359 1.77344
O -9.5019 -7.20784 -0.21137
H -9.40538 -7.69352 -1.08011
H -10.461 -6.9614 -0.0720636
O -10.8347 -2.92732 -11.7039
H -11.2765 -2.08716 -11.3894
H -9.94786 -2.70593 -12.1093
O 12.5283 14.2065 6.79828
H 12.4889 13.9102 7.75252
H 12.9945 -14.9309 6.74236
O -9.4373 3.50038 -5.23995
H -10.2504 3.98263 -5.56592
H -9.70556 2.81348 -4.56458
O -12.845 -12.5475 -3.34829
H -13.5817 -12.4927 -2.67433
H -13.0902 -13.2091 -4.05693
O 12.3038 -4.29882 -2.73123
H 11.6911 -3.77215 -3.32043
H 11.7658 -4.79643 -2.05091
O 0.0499648 -1.26382 9.50256
H 0.571069 -1.18179 8.65307
H -0.775942 -1.80246 9.33625
O 0.825692 -7.53622 -1.30153
H 0.0436447 -7.24572 -1.85283
H 1.66801 -7.41029 -1.82551
O 1.1488 1.25249 6.35402
H 1.76261 1.69163 7.01
H 1.1016 0.272328 6.54628
O -11.8675 11.2631 10.3178
H -11.1394 11.0855 9.65582
H -12.7006 10.7898 10.032
O 6.37832 -10.0583 0.181582
H 5.7454 -9.42297 0.623995
H 6.54925 -9.75891 -0.757082
O 10.1595 14.1862 10.8116
H 9.31234 13.9373 11.281
H 10.173 -14.8474 10.6493
O 13.9222 6.1272 -5.7429
H 13.2108 6.26128 -5.05308
H 14.4651 6.96259 -5.82859
O 1.6147 -1.30187 7.18706
H 1.57869 -2.26436 6.91829
H 2.3559 -1.16693 7.84458
O 7.43287 3.65422 5.3473
H 6.4379 3.55462 5.35385
H 7.77522 3.51945 4.41749
O -9.77167 1.8675 10.8953
H -10.1374 1.02546 11.2918
H -9.13563 2.2908 11.5405
O -4.65869 6.76449 10.1884
H -5.18538 7.6081 10.2925
H -5.25817 5.97731 10.333
O -11.5942 -14.6112 10.3006
H -11.2252 14.5498 10.6548
H -11.2764 -14.4736 9.36253
O -0.395166 3.83276 -10.5227
H -0.3054 2.84521 -10.6516
H -1.32592 4.04699 -10.2266
O 8.19765 1.56484 -5.17514
H 7.54014 0.982094 -4.69765
H 8.30851 2.42273 -4.67348
O -4.1508 -3.46001 -14.0597
H -4.88906 -3.95818 -13.6051
H -3.79741 -2.75431 -13.4457
O -1.97968 9.0431 -5.87915
H -2.20861 9.87728 -5.3775
H -1.09499 8.69798 -5.56591
O -8.4561 -9.16283 -14.7017
H -8.36297 -9.94714 14.7053
H -7.56729 -8.94935 -14.2963
O -8.70859 -13.5989 -10.9709
H -8.86368 -14.5026 -11.3698
H -8.95192 -12.8942 -11.6374
O 4.53589 4.10446 -5.95283
H 3.6204 4.463 -6.13516
H 4.7214 4.14778 -4.97119
O 8.23708 1.35504 9.11017
H 9.19606 1.62211 9.01559
H 7.68127 2.16659 9.2901
O -4.09128 -12.1249 1.99881
H -3.41419 -12.5967 1.43404
H -4.77055 -12.7828 2.32401
O 6.45927 14.893 -1.30752
H 5.67843 -14.5103 -1.4055
H 6.89579 14.7639 -2.19785
O -5.41699 -14.416 8.30706
H -4.87456 -13.5775 8.35818
H -5.54568 -14.6719 7.34899
O 10.3327 -9.61863 12.0644
H 9.47297 -9.52059 11.5632
H 10.6397 -10.5691 12.0169
O -13.8514 -11.2656 12.84
H -14.6584 -11.5393 13.3632
H -14.0691 -10.4605 12.2883
O -12.2616 -6.75148 -6.89963
H -11.3236 -7.07141 -7.03271
H -12.2711 -6.02207 -6.21568
O -5.37087 12.1755 10.1385
H -4.45162 12.0533 9.76434
H -5.41945 11.7586 11.0461
O -2.41432 11.216 -13.3879
H -1.51907 10.8482 -13.1367
H -3.09878 10.9073 -12.7275
O 10.6135 -8.67051 2.00048
H 10.1434 -9.49894 1.6961
H 9.93827 -7.97123 2.23501
O 3.53189 14.037 -4.57057
H 4.30919 13.408 -4.58033
H 3.33976 14.3439 -5.50268
O 2.05146 4.77169 -13.3759
H 1.1886 4.61742 -12.8947
H 2.75347 5.05017 -12.7205
O 3.84211 13.9292 -12.5194
H 3.45771 13.7354 -11.6169
H 3.55831 14.8418 -12.8135
O 0.242929 -6.59433 -8.06488
H 0.884738 -7.28398 -7.72964
H -0.442237 -7.03178 -8.64721
O 1.91479 13.8969 1.76176
H 2.87775 13.6602 1.63296
H 1.7103 13.9409 2.7396
O -11.6158 -10.3379 -11.5158
H -10.9716 -10.6365 -12.2199
H -11.7771 -11.0865 -10.8727
O -4.64152 -3.64682 4.49578
H -4.99924 -3.79893 3.57446
H -4.54428 -4.52464 4.9647
O -2.76233 -8.97107 -6.09743
H -3.34098 -9.12383 -6.89851
H -2.86133 -9.73813 -5.4636
O 4.47031 -0.998202 -7.42486
H 5.3193 -1.44375 -7.14092
H 4.25965 -0.25039 -6.79532
O -11.4626 -5.3346 5.90102
H -12.0462 -5.21517 5.09787
H -10.5983 -4.85189 5.75974
O 4.55146 3.17246 13.2104
H 3.6471 3.46318 12.8981
H 4.45733 2.37891 13.8115
O 7.73738 -10.0653 14.7114
H 7.56467 -9.16028 14.3228
H 7.49187 -10.7674 14.043
O 7.27433 -14.3488 -5.84338
H 7.8707 -14.5212 -6.6273
H 6.46936 -13.8369 -6.14321
O 2.93513 -10.3067 14.9191
H 2.65487 -9.6962 -14.3604
H 3.54209 -9.81579 14.2942
O -6.65893 -3.65722 8.41069
H -7.13052 -4.27919 7.78566
H -7.01782 -2.73129 8.29332
O 11.9339 6.46827 -10.2592
H 11.9748 5.50841 -10.5366
H 11.6376 6.52744 -9.30602
O 13.5186 7.01042 6.19928
H 14.2267 6.89061 5.50347
H 13.5854 6.27448 6.87297
O 13.4912 14.2072 3.00697
H 13.6534 13.2234 2.93141
H 12.8871 14.3868 3.78335
O -15.0095 -11.747 1.75642
H -14.2844 -11.8011 2.44287
H 14.2146 -11.2859 2.14823
O -14.2756 1.92529 -5.31856
H -14.3384 1.54657 -4.39523
H -13.9896 1.20827 -5.95418
O -4.71245 -11.2825 -1.02017
H -3.79417 -10.9439 -0.815243
H -5.30135 -10.5155 -1.27495
O 10.894 14.0558 4.48299
H 11.3451 14.0417 5.37528
H 9.97046 14.4262 4.58231
O -5.27593 -7.19071 3.27772
H -5.99354 -6.49673 3.21995
H -4.80746 -7.25986 2.39701
O -4.78264 -8.47567 -9.92701
H -5.45916 -9.15713 -9.64799
H -3.95844 -8.93843 -10.2533
O 0.0295006 -11.7495 -1.164
H 0.742769 -12.344 -0.792916
H 0.374335 -11.2839 -1.97899
O -4.32445 2.12434 10.4941
H -4.92703 2.79067 10.9332
H -4.81165 1.25854 10.3803
O 10.1705 -4.6057 12.1955
H 10.9314 -4.16956 11.7152
H 10.513 -5.37707 12.7317
O -9.29426 9.84279 2.60478
H -8.81637 9.98258 1.73761
H -8.79502 9.1748 3.15656
O -7.63803 8.07128 -13.426
H -7.16052 8.68901 -12.8013
H -8.4261 7.6694 -12.9598
O 12.6748 12.8369 0.435417
H 12.1232 12.1779 -0.0758195
H 13.3726 13.2254 -0.166318
O 7.92168 -14.2119 14.5121
H 7.87957 -13.2822 14.878
H 7.01157 -14.6248 14.5456
O 1.28906 3.21666 -8.16014
H 1.40073 3.69824 -7.29093
H 1.13875 3.88094 -8.8923
O -0.828443 6.30974 -4.13559
H 0.0906663 6.13702 -3.78158
H -0.95527 5.80924 -4.99194
O 8.92132 3.39203 3.12187
H 9.62045 4.10654 3.14651
H 9.12118 2.75572 2.37682
O 4.75797 4.19497 5.75712
H 4.21203 4.98616 5.48165
H 4.29002 3.70745 6.49418
O -9.10087 2.51545 -1.55497
H -9.86392 2.00881 -1.9562
H -9.36824 3.4696 -1.42066
O 2.15703 -14.0572 -12.7792
H 1.1677 -14.1241 -12.6501
H 2.35074 -13.7126 -13.6977
O -4.964 8.26528 5.98056
H -4.52647 9.16163 6.05151
H -5.95639 8.3811 5.93968
O -12.6113 2.56208 12.9724
H -12.5987 3.5529 12.8381
H -12.4161 2.10554 12.1045
O 11.8691 -0.0522293 11.0427
H 12.6967 0.426762 10.7503
H 11.9144 -0.225908 12.0264
O 12.1465 6.20408 13.4288
H 12.4023 6.54392 12.5238
H 11.2512 6.57073 13.6817
O 6.31159 11.5332 -0.587461
H 5.86748 12.3469 -0.212407
H 6.68097 10.9808 0.159734
O -14.8509 14.1847 13.3751
H 14.3839 13.6486 13.0656
H -14.8734 14.2639 14.3717
O 8.3294 13.6503 -13.7238
H 8.11605 13.9898 -14.6399
H 7.55126 13.8149 -13.1178
O 2.10661 -12.4091 8.13536
H 2.41733 -12.742 7.24508
H 2.459 -13.0062 8.85592
O 6.04833 -7.85624 -7.86873
H 7.0054 -7.62512 -8.0434
H 5.47578 -7.05363 -8.03586
O -12.1285 -11.7252 7.70169
H -12.6637 -10.9197 7.44745
H -12.2599 -11.9194 8.67378
O -8.76961 2.51332 -8.05509
H -9.20467 3.00304 -7.29957
H -8.28572 1.71381 -7.69934
O 12.8157 -5.23196 -8.33284
H 13.0752 -5.77139 -7.53184
H 13.6276 -5.04428 -8.88555
O 12.4425 12.8111 -3.27579
H 12.9291 12.9679 -2.41637
H 12.9977 13.1429 -4.03842
O 6.53563 -10.954 -11.5875
H 7.25327 -11.3682 -12.1473
H 5.63999 -11.231 -11.9354
O -11.4491 -7.15993 2.85989
H -11.2607 -7.58829 3.74359
H -10.8329 -7.53717 2.16853
O -11.6954 2.50001 -3.30733
H -12.5432 2.02551 -3.54424
H -11.5819 3.29621 -3.90154
O 13.8243 3.51816 4.98709
H 14.4315 4.30738 4.89627
H 13.4305 3.50462 5.90615
O -7.6892 -11.2329 13.4819
H -8.32405 -11.8728 13.049
H -7.2532 -10.6698 12.78
O -8.99885 8.85675 -3.74628
H -9.15831 8.27874 -2.94603
H -8.5235 8.32837 -4.44968
O 4.99838 -10.585 7.04567
H 4.53235 -11.1682 6.38041
H 4.44721 -9.76841 7.21685
O 13.2714 4.88397 -1.12393
H 13.8368 5.5722 -0.669332
H 13.0276 5.20454 -2.03919
O 7.42486 1.90068 -14.525
H 6.72703 2.54298 -14.8418
H 7.055 0.971785 -14.5415
O -2.64326 -1.34955 -12.6566
H -1.77632 -1.81524 -12.4793
H -2.87397 -0.766686 -11.8775
O -11.6731 -7.5522 -3.08767
H -11.542 -6.86427 -3.80144
H -11.6955 -7.10482 -2.19366
O 9.20171 -5.83632 -2.00576
H 9.72286 -6.60073 -2.38524
H 8.45887 -6.18916 -1.43691
O -1.54547 14.6853 5.31652
H -1.89314 -14.916 4.47778
H -1.74324 13.7051 5.30622
O 14.5872 -9.32549 8.24638
H 14.5858 -9.53757 9.22359
H -14.5014 -9.39928 7.89066
O 14.2264 1.07876 10.5538
H 14.7947 1.11865 9.73202
H 14.2315 1.9705 11.0062
O 9.92586 -9.18642 -14.0276
H 9.10767 -9.46897 -14.5282
H 10.4272 -9.99659 -13.7239
O -8.8712 12.637 -7.89937
H -8.61104 12.3662 -6.9726
H -8.41006 13.4913 -8.1388
O 10.626 -4.32039 3.64726
H 10.1356 -4.40002 2.77948
H 10.6854 -5.21976 4.08031
O 12.6248 1.40635 0.204623
H 13.5057 1.38589 -0.268143
H 12.3174 0.47061 0.377436
O -7.9792 -1.42089 -9.11911
H -8.29273 -2.24406 -9.59239
H -7.54352 -0.804737 -9.7752
O 11.5861 -2.60234 7.32814
H 12.4368 -2.10673 7.50329
H 11.5725 -3.44285 7.86968
O -5.78044 -3.74228 13.4843
H -5.48983 -3.04416 12.83
H -5.37709 -3.54934 14.3787
O 5.89943 14.3125 5.03536
H 5.85138 -14.7417 4.78166
H 4.97394 13.9514 5.14935
O 14.154 0.632129 -8.48763
H 14.5591 1.44239 -8.9111
H 14.7729 0.277759 -7.78669
O 3.13293 -14.027 10.1038
H 4.04386 -13.6326 10.2246
H 2.77646 -14.3205 10.9907
O -12.4903 2.83861 7.77957
H -12.303 2.84373 6.79733
H -13.3681 2.39058 7.94914
O 13.7822 14.1204 -8.86105
H 12.8148 14.0866 -9.11205
H 13.885 14.6104 -7.99551
O 14.1272 -9.50009 -9.27356
H 14.7076 -9.15463 -8.5362
H 14.1408 -8.85579 -10.0382
O 3.81177 -2.09364 -12.8362
H 3.03327 -1.86277 -12.2527
H 3.62168 -1.80576 -13.7748
O 8.90576 -7.59627 -11.8478
H 9.11128 -8.19274 -12.6236
H 9.75947 -7.25643 -11.4533
O 11.7964 -11.6484 -1.20725
H 11.4417 -10.7462 -0.961829
H 11.8539 -12.2182 -0.38753
O -6.83265 -1.71381 4.92396
H -6.90027 -1.45148 5.88652
H -5.99078 -2.23343 4.77847
O 7.40085 -6.8731 0.032008
H 6.98121 -7.75637 -0.176918
H 6.68847 -6.2148 0.275027
O 12.0307 -1.37512 -12.5114
H 11.899 -0.464983 -12.9041
H 12.3998 -1.98895 -13.2091
O -14.4337 -8.54633 -7.17802
H -13.5894 -8.02523 -7.30212
H -14.7337 -8.47329 -6.22693
O 5.70803 14.2136 -14.9678
H 5.45086 13.3435 -14.5474
H 4.96062 14.5372 14.4723
O -12.8749 -14.9944 -1.70037
H -12.1922 -14.7624 -2.39319
H -13.0738 -14.1869 -1.14504
O 10.1826 1.78571 1.39975
H 11.1579 1.60683 1.27086
H 9.65275 1.01495 1.04601
O -5.98195 -13.9827 -7.26793
H -5.53839 -13.6447 -6.43793
H -5.5191 -14.8128 -7.57877
O -6.68759 2.742 7.92814
H -5.87139 2.31722 7.5366
H -7.0591 3.40849 7.28185
O -2.06543 3.65641 11.6995
H -2.80239 3.16371 11.2369
H -1.23487 3.09963 11.6898
O 6.47717 -9.16902 3.60506
H 6.73306 -8.3411 4.10404
H 5.79751 -8.9413 2.90783
O 10.7408 -7.24545 13.0703
H 10.5924 -8.11575 12.6007
H 11.1855 -7.41301 13.9501
O 4.43825 -8.76875 1.33733
H 3.88345 -9.4244 0.825234
H 3.91786 -7.92564 1.47247
O -3.69844 -5.95533 5.67671
H -4.08571 -6.87686 5.64971
H -3.78261 -5.58539 6.6019
O 1.45781 10.5578 4.10677
H 1.28412 9.63532 4.4513
H 2.44411 10.709 4.04142
O -14.8212 1.92158 2.87409
H -14.4541 2.56109 2.19869
H 14.7233 2.43088 3.5912
O 3.74309 -8.90057 -3.4462
H 4.72467 -8.7699 -3.3071
H 3.28647 -8.011 -3.45562
O -13.0981 -9.3171 6.91049
H -13.3015 -8.917 6.01693
H -12.3276 -8.8329 7.32488
O 9.67942 7.67902 11.3721
H 9.54566 7.51255 10.3952
H 8.79901 7.62457 11.8431
O 14.7112 13.8494 -13.9121
H -14.6007 13.2643 -13.5173
H 14.3575 14.4656 -13.2086
O -0.483983 -13.7606 -12.6227
H -1.1152 -13.552 -13.3697
H -0.982913 -13.7648 -11.7561
O 3.8189 6.0604 0.805953
H 4.03396 6.84689 1.38482
H 3.96516 5.21663 1.32227
O -5.79079 -12.4328 4.85403
H -6.41721 -12.3021 4.08563
H -5.66008 -11.5627 5.32919
O -7.97605 11.7007 -5.43836
H -7.31757 12.3173 -5.00683
H -8.90152 11.9475 -5.15111
O 11.2384 -3.25159 -9.00371
H 12.0402 -3.83934 -8.89646
H 11.5128 -2.29406 -8.91583
O -14.1157 0.508296 -2.7367
H -13.7428 0.760839 -1.84391
H -13.4454 -0.0420898 -3.23433
O -3.04546 6.74157 -11.6703
H -3.58091 6.98337 -12.4794
H -2.11334 6.50633 -11.9455
O 2.18568 2.1502 -12.1127
H 2.44008 2.88537 -11.4844
H 1.36182 1.69428 -11.7761
O 11.5453 -13.3918 0.841833
H 11.7914 -13.0508 1.74905
H 11.204 -14.3285 0.919172
O 1.68453 4.91921 -5.94232
H 1.11116 5.71458 -6.13869
H 1.60252 4.6799 -4.97489
O 3.11703 9.07476 13.453
H 2.63825 8.65952 12.6795
H 3.78855 8.4284 13.8152
O 10.8606 5.30645 2.42909
H 11.7008 4.87932 2.09503
H 11.0115 6.28725 2.55226
O -14.3485 -1.68447 7.76883
H -14.4737 -2.4426 8.40873
H -13.9968 -2.03542 6.90105
O -13.5551 -0.0874663 -6.89928
H -12.8733 -0.315901 -7.59418
H -13.7078 -0.879998 -6.30895
O -14.7567 9.53952 -11.5553
H -14.7939 9.54742 -12.5545
H 14.5384 10.1233 -11.1901
O 14.21 -1.65875 -0.550395
H 14.1514 -1.39482 -1.51311
H 13.8528 -2.58574 -0.436568
O -14.8666 11.0719 -5.51381
H -14.6089 11.2101 -4.55756
H 14.2202 10.7164 -5.55941
O -12.4148 12.6052 -0.277259
H -12.4024 13.3303 -0.965743
H -13.1315 12.795 0.393785
O 0.355831 11.0805 8.70228
H -0.526693 11.4463 8.40697
H 0.452759 10.1401 8.37621
O -12.4335 -8.04931 10.0778
H -12.111 -7.68483 9.20429
H -11.6506 -8.22868 10.6735
O 1.77799 -1.26536 -11.2778
H 1.85572 -0.272324 -11.1897
H 0.912717 -1.49369 -11.724
O 1.13702 2.52742 3.66491
H 0.254808 2.99817 3.66708
H 1.21616 1.96396 4.4872
O -13.7013 -13.0617 -10.9858
H -13.3678 -13.2068 -11.9173
H -12.9237 -12.981 -10.3622
O 2.77085 4.60354 8.72017
H 3.19739 3.77777 8.35127
H 1.84911 4.38729 9.04195
O -12.4785 -6.90761 -0.329738
H -12.7885 -7.8484 -0.192875
H -13.1893 -6.38809 -0.803803
O 3.26812 -5.55085 -13.8218
H 2.85968 -6.46312 -13.7926
H 2.73912 -4.96846 -14.439
O -6.95675 -3.63058 -2.6674
H -7.64386 -3.35127 -3.33805
H -6.82913 -2.89983 -1.99685
O -0.434735 -6.15591 14.2418
H 0.312252 -5.59602 14.6002
H -1.24932 -6.02624 14.8071
O -2.56007 -6.09115 -14.0466
H -3.12822 -5.64342 -14.737
H -2.53316 -7.07489 -14.224
O -3.96896 -13.7822 -3.21602
H -4.26852 -14.4446 -2.52941
H -3.16675 -14.1384 -3.69506
O -3.64043 -0.464553 -8.53958
H -2.96709 -0.95716 -7.98834
H -4.1273 0.191612 -7.96311
O 12.4825 -7.42662 -6.14178
H 13.0239 -7.83858 -5.40894
H 11.9479 -8.13631 -6.60054
O -0.83132 5.0623 6.27057
H -1.54887 4.73034 5.65834
H -0.994397 6.02556 6.48379
O -11.2425 -0.357655 -13.4779
H -11.8043 -0.955193 -14.05
H -10.2883 -0.415901 -13.7714
O -13.1926 9.99224 -0.0741821
H -14.1302 10.1011 0.256075
H -12.8239 10.8856 -0.330898
O 10.9049 -7.0028 4.52041
H 10.3473 -7.50345 3.85834
H 10.7062 -7.33499 5.4424
O -1.86667 -8.65593 6.58705
H -2.59063 -8.56337 5.90351
H -1.24326 -9.38895 6.3151
O 8.34759 -7.61198 11.1914
H 7.57967 -7.88899 11.7689
H 8.79035 -6.80817 11.5887
O 14.0301 11.6424 14.8629
H 14.2424 12.3338 -14.4667
H 14.2903 10.7393 -14.8158
O -7.77618 6.27281 -10.4451
H -8.31015 6.10244 -11.2732
H -8.39304 6.36118 -9.66308
O -6.71053 9.66442 -2.71892
H -7.56188 9.45491 -3.19979
H -5.9681 9.76006 -3.38191
O -11.6211 5.8784 4.30597
H -10.7522 6.36153 4.1983
H -11.4535 4.97503 4.70061
O -13.2238 -8.16653 -12.1525
H -13.3335 -7.4634 -11.45
H -12.7663 -8.96335 -11.758
O -12.7646 4.44052 -12.476
H -12.1202 3.9935 -13.0963
H -13.6866 4.09278 -12.6459
O 14.5002 -0.673049 14.8368
H -14.7348 -0.703929 14.2185
H 14.6522 -1.3008 -14.42
O -3.1298 -14.4009 11.2662
H -3.74599 -14.7022 11.9938
H -2.94835 14.8563 10.6459
O -5.23285 -12.8174 14.1797
H -6.04845 -12.4857 13.7057
H -5.1791 -13.8123 14.0941
O -10.5565 -5.54398 -12.6903
H -10.8645 -4.5943 -12.7463
H -10.1605 -5.81809 -13.5667
O -1.13902 -10.2796 -14.7435
H -1.36318 -11.2452 -14.8744
H -0.985923 -9.84938 14.3871
O 4.72154 0.855012 14.7935
H 4.78719 0.868398 -14.2291
H 5.43569 0.262808 14.4204
O -1.25363 -11.819 -7.42962
H -0.379116 -11.5232 -7.04542
H -1.2179 -11.756 -8.42695
O 1.81646 5.33201 4.50357
H 2.31203 4.5836 4.06288
H 1.26166 4.96914 5.25219
O -13.6416 0.573316 4.8685
H -14.1125 0.913119 4.05445
H -14.3155 0.249647 5.53263
O -7.71076 -5.56055 6.73721
H -8.20825 -4.91339 6.15963
H -7.78707 -6.47948 6.35035
O 10.6129 0.0379431 -5.10464
H 11.2523 0.513732 -5.70848
H 9.76524 0.563994 -5.03583
O -11.9341 0.625029 9.14115
H -12.9105 0.409521 9.13317
H -11.771 1.45254 8.60399
O -4.96585 -1.52703 11.9848
H -4.37568 -0.920206 12.5172
H -5.03399 -1.18716 11.0469
O 0.582914 -6.21691 4.04635
H -0.0493353 -5.5175 4.3795
H 0.0737074 -7.04888 3.8262
O 6.43136 -2.40549 -12.1801
H 5.46374 -2.65191 -12.2338
H 6.98327 -3.23612 -12.1069
O -8.60123 -6.63258 12.3463
H -8.88463 -7.54576 12.0535
H -8.99589 -5.9485 11.7329
O -9.41301 11.0147 -12.1826
H -10.3087 10.5895 -12.0527
H -9.30203 11.2714 -13.1427
O -2.52838 -11.9129 11.1811
H -1.78467 -12.0385 10.5246
H -2.80005 -12.8013 11.551
O -9.75799 -11.787 -13.0528
H -9.26093 -11.0777 -13.5526
H -9.62826 -12.6682 -13.5073
O -2.10303 6.55014 10.98
H -3.06419 6.49454 10.7098
H -1.80845 5.66792 11.3472
O 11.0686 -9.24223 -3.82115
H 11.4363 -8.6458 -3.10773
H 11.5218 -10.1325 -3.77763
O 14.5818 3.75565 -13.1011
H 14.3253 3.44424 -14.016
H 13.7819 4.14633 -12.6456
O -12.5414 11.5275 -6.69035
H -13.4461 11.5343 -6.26438
H -12.118 10.6312 -6.55921
O 7.60469 -0.770369 7.64012
H 7.8187 0.047684 8.17388
H 8.39124 -1.01312 7.07239
O 12.9554 -12.866 10.1971
H 12.4028 -12.7795 11.026
H 13.8746 -13.1758 10.4401
O -13.1716 -2.60768 5.54173
H -12.1885 -2.74623 5.66163
H -13.4723 -3.06181 4.70315
O -13.242 -6.51021 -10.0767
H -13.7691 -5.69018 -10.2996
H -13.0536 -6.5286 -9.09483
O -3.38777 12.2224 13.3921
H -3.00208 12.7572 14.1438
H -2.68115 12.0564 12.7043
O 12.0144 8.83364 11.9292
H 11.0669 8.734 11.6254
H 12.0501 9.45656 12.7106
O 13.8977 -10.2923 5.30922
H 13.5256 -10.3843 6.23277
H 14.728 -9.73578 5.33839
O -13.4327 8.36599 -4.89525
H -13.9423 8.82416 -5.62346
H -12.8527 9.0311 -4.425
O 8.649 13.0618 -10.103
H 8.18564 12.7331 -9.28014
H 7.99346 13.114 -10.8564
O 11.1076 -6.80866 -10.4578
H 10.9209 -7.37083 -9.65219
H 11.6813 -6.03238 -10.1968
O -2.3206 9.65463 -8.52291
H -1.82921 10.5134 -8.66752
H -2.32052 9.4306 -7.54838
O 8.24897 -0.794128 -1.65814
H 8.2958 -1.77084 -1.86734
H 8.26171 -0.269914 -2.50958
O 3.22907 -3.66161 6.73197
H 4.0144 -3.11931 6.43352
H 3.48994 -4.221 7.5187
O -6.48048 -14.9468 11.5733
H -5.90807 -14.1562 11.356
H -6.35159 14.3673 10.8772
O -3.7913 -12.0014 -6.52634
H -4.40928 -11.5879 -7.19495
H -2.85799 -11.9928 -6.88518
O 0.208294 -8.2676 -5.17021
H 0.174085 -7.29284 -4.94975
H -0.718232 -8.60397 -5.33849
O 4.13896 1.25891 -5.83311
H 3.15719 1.11337 -5.95499
H 4.34348 2.23462 -5.91113
O -8.8267 -6.55808 -10.7462
H -8.00986 -6.94567 -11.1734
H -9.45124 -6.23224 -11.4559
O 11.6868 3.34938 -7.86639
H 11.246 3.74093 -7.05878
H 11.0309 2.7789 -8.36057
O -5.13559 -12.0711 -9.13855
H -5.93433 -11.5082 -9.35093
H -5.41286 -12.8386 -8.56072
O 12.7614 11.0835 -11.1809
H 12.3479 11.9431 -11.481
H 12.0418 10.4139 -10.9969
O -5.7767 10.179 3.03612
H -6.37537 9.74359 2.36384
H -6.20453 10.1385 3.93903
O -10.313 -9.67776 1.71821
H -9.60063 -9.74867 1.02008
H -10.2998 -10.4964 2.29227
O 5.9152 0.171241 11.73
H 5.73283 -0.58534 11.1021
H 6.42908 0.884004 11.2527
O -8.22603 -7.70057 5.37743
H -8.13329 -7.62777 4.38444
H -8.78765 -8.49679 5.60224
O -8.30835 -2.71069 -4.85436
H -8.56723 -3.11093 -5.7334
H -8.64741 -1.77137 -4.80305
O 9.08246 -4.78138 -14.4153
H 9.169 -4.01147 -13.7831
H 8.17231 -5.1857 -14.3255
O 13.6394 -5.90092 7.62369
H 14.0649 -5.39831 8.37619
H 13.421 -6.82925 7.92435
O -4.58356 -8.61887 5.40602
H -5.2525 -9.20556 5.86234
H -4.99658 -8.21454 4.59003
O 14.2231 -15.0022 -11.4498
H 14.8903 -14.3002 -11.2007
H 13.8509 14.6025 -10.62
O -5.52848 -6.40032 -8.15123
H -5.20985 -7.28066 -8.50249
H -5.36843 -5.69023 -8.83685
O -12.5473 -2.19241 -0.490308
H -13.4863 -1.85495 -0.424419
H -11.9266 -1.53688 -0.0602867
O 3.24011 1.19893 10.5093
H 2.39861 1.15053 11.0473
H 3.96419 1.61442 11.0598
O -6.53438 -9.84392 11.4551
H -6.20658 -10.0417 10.5314
H -6.05537 -9.04307 11.8144
O 11.2828 -14.9583 -6.58929
H 11.1136 -14.0043 -6.8365
H 10.9681 14.4655 -7.32758
O 10.9073 -11.4324 -12.8224
H 11.7568 -10.9556 -12.5969
H 11.0085 -12.4068 -12.6218
O 13.7535 1.51728 -11.6202
H 13.9477 1.54127 -10.6396
H 14.3985 2.11012 -12.1023
O -14.3906 -0.749887 1.73792
H -14.6534 0.136885 2.11803
H 14.8945 -1.09305 1.1534
O 4.30367 8.78371 -2.7751
H 4.53756 9.46314 -2.0797
H 3.62435 8.14942 -2.40617
O -5.18274 -3.09437 -5.43406
H -5.7529 -3.19401 -4.61865
H -5.41612 -3.80909 -6.09332
O 3.74441 -1.06438 8.62632
H 4.67187 -1.43528 8.67269
H 3.58038 -0.476879 9.41869
O 2.57479 -7.16174 10.0595
H 2.02906 -7.35017 9.24303
H 1.99879 -6.72873 10.7528
O -12.3971 5.03395 12.1682
H -12.7621 5.91174 12.4782
H -12.5084 4.95791 11.1773
O -3.99875 -11.9652 8.74748
H -3.60132 -11.7589 9.64158
H -3.26827 -12.0528 8.07025
O 4.10814 8.60414 -5.73267
H 4.1237 8.69013 -4.73654
H 4.90211 8.07625 -6.03409
O 8.34754 6.43076 9.30631
H 7.98466 5.60082 9.7299
H 7.87901 6.59409 8.43814
O 8.36409 7.86359 4.72421
H 8.67234 8.19597 3.8329
H 8.25958 8.63636 5.35016
O 6.58996 -6.52507 4.48315
H 6.32879 -6.96054 5.34459
H 6.15428 -5.62738 4.41797
O 1.08235 -5.91388 11.7834
H 1.00226 -5.03172 11.3195
H 0.406749 -5.96625 12.5188
O 8.62505 11.6911 9.30625
H 9.17504 12.5259 9.2842
H 8.97679 11.0423 8.63151
O -4.80023 13.5784 -7.23391
H -4.0181 13.3565 -7.81611
H -5.3446 12.7541 -7.07859
O -2.06703 13.5689 -14.5285
H -2.11719 12.6884 -14.0573
H -1.68259 14.2556 -13.9117
O 2.84875 -4.9069 -11.0916
H 3.21149 -4.02419 -10.793
H 2.91526 -4.97509 -12.087
O -14.9122 9.22801 -14.2602
H 14.7686 8.34963 -14.5965
H -13.916 9.25403 -14.3425
O -2.5287 11.6697 -4.48439
H -2.18577 12.1046 -3.6518
H -2.04584 12.041 -5.27746
O 6.82919 3.16988 10.3956
H 5.96194 3.66688 10.3677
H 7.45891 3.63317 11.0191
O -12.1233 11.6353 -13.3699
H -12.2071 12.0665 -14.2682
H -12.2681 12.3207 -12.6563
O 8.17938 -12.1181 -13.5871
H 7.92636 -11.3137 -14.1245
H 9.15899 -12.0914 -13.3882
O 14.9614 3.42049 14.0344
H -14.6115 4.26389 14.3319
H -14.3828 2.81478 13.6148
O -6.5233 -4.78981 -12.7072
H -6.23768 -4.44413 -11.8135
H -6.72663 -5.76639 -12.6375
O -7.8203 14.472 -1.43608
H -7.16293 -14.8663 -1.11545
H -7.9908 14.6066 -2.41216
O 5.55303 -4.94498 0.674093
H 4.67241 -5.07875 1.12855
H 6.10181 -4.29221 1.19625
O -14.1423 9.56096 9.00866
H -14.6546 9.48649 8.15313
H -14.6236 9.06261 9.72976
O -6.51266 1.69743 -0.146894
H -7.38823 1.8513 -0.604738
H -6.09913 2.57757 0.0860227
O 7.58709 0.365733 -7.67697
H 7.88576 0.771873 -6.81339
H 6.92486 0.971021 -8.11854
O 14.9728 -6.14698 10.236
H -14.233 -6.7207 10.3221
H 14.1856 -6.62503 10.6256
O -12.7845 5.98776 1.74867
H -13.7655 6.12731 1.8835
H -12.3406 5.86306 2.63595
O 4.05458 -11.9272 -12.2624
H 3.9758 -12.5993 -12.9985
H 3.64116 -12.295 -11.4295
O -4.39142 3.38379 -3.17092
H -3.70366 2.9703 -3.76752
H -5.30498 3.14263 -3.49828
O -4.8842 13.8575 3.86508
H -5.03776 13.5182 2.93708
H -4.19315 14.58 3.84568
O 0.590565 5.82437 10.3217
H 0.242472 5.09844 9.72864
H -0.126952 6.50433 10.4726
O -1.89351 8.83412 12.4178
H -1.69073 8.45487 13.3206
H -1.82652 8.11142 11.73
O -2.87088 13.196 -9.42442
H -2.9346 14.1316 -9.77151
H -2.06 12.7531 -9.80685
O -9.71447 5.17561 -12.1059
H -10.4063 5.87631 -11.932
H -9.8096 4.83845 -13.0425
O -12.5663 -3.7791 -8.13541
H -11.9304 -4.46218 -8.49461
H -12.1479 -2.87258 -8.19078
O -7.39962 10.4322 5.30063
H -8.37917 10.3636 5.48956
H -6.97161 11.0345 5.97437
O -7.72489 -0.262687 12.8915
H -7.25076 -0.667456 12.1097
H -7.70117 0.734142 12.8161
O 3.98059 -4.89528 9.04196
H 4.74249 -4.72872 9.66782
H 3.37911 -5.59474 9.42782
O 4.17516 -14.0565 -2.09772
H 4.09669 -13.0613 -2.15681
H 3.50251 -14.4804 -2.70412
O -14.0785 11.9254 1.90875
H -14.2498 12.5933 2.63298
H -13.3518 11.3013 2.19592
O 7.64591 3.49669 -0.351981
H 7.50952 2.54794 -0.0670244
H 8.23312 3.96239 0.310003
O -11.9038 2.20558 -14.3361
H -12.2282 2.21467 14.7383
H -11.5897 1.28601 -14.1003
O 12.5263 9.35501 -2.99303
H 11.9794 9.07498 -2.20414
H 12.1014 9.01355 -3.83133
O -8.00154 -4.72229 10.4097
H -7.98625 -5.62342 9.97656
H -7.17001 -4.22218 10.1681
O -5.17972 1.51504 -7.5568
H -5.1007 1.83932 -8.49941
H -5.21706 2.29868 -6.93676
O -3.18681 0.802227 -10.9697
H -3.66312 1.68087 -11.0018
H -3.16961 0.466722 -10.0278
O 8.26169 -14.5497 0.906811
H 7.96754 -14.7903 -0.0181206
H 8.99366 14.8532 1.19496
O -9.81276 3.61662 2.81075
H -8.915 3.17789 2.7725
H -9.73973 4.55512 2.47341
O -11.6383 -0.865347 1.88136
H -11.111 -0.0505616 1.6405
H -12.6089 -0.630552 1.93469
O 11.6069 10.8389 13.8012
H 12.2511 11.3786 14.3432
H 10.6711 11.0787 14.0597
O -10.3655 10.9 -2.48323
H -9.93839 11.294 -1.66942
H -9.74284 10.2369 -2.89855
O -9.61092 2.47095 6.58075
H -10.2647 2.85411 5.92829
H -8.71962 2.36949 6.13892
O -0.304676 3.88402 8.56294
H -0.900839 3.08121 8.5642
H -0.334153 4.31965 7.66334
O 14.8893 7.17729 -0.211774
H -14.307 7.38914 -0.737277
H 14.4653 8.02741 0.10039
O 12.7005 -7.36806 11.3927
H 12.4397 -7.75725 10.5093
H 11.8919 -7.2945 11.9763
O 11.0898 14.164 -8.9911
H 11.1611 -14.8588 -8.99354
H 10.1566 13.896 -9.23042
O -8.03216 7.39222 -5.91452
H -8.57078 6.64801 -6.30942
H -7.35862 7.70733 -6.58307
O 1.67503 -13.6924 -8.91463
H 2.07751 -13.522 -9.81402
H 1.7356 -12.8627 -8.35976
O 14.4547 -4.68623 0.368588
H 13.491 -4.93494 0.27167
H 14.6638 -4.53287 1.33433
O -1.57373 7.04686 -9.37701
H -1.85172 7.9424 -9.02969
H -2.29606 6.67708 -9.96132
O -8.4649 0.639014 4.34814
H -9.37514 0.409068 4.69238
H -7.85894 -0.149112 4.45578
O -7.60356 9.08263 14.1061
H -8.56317 9.15008 13.8331
H -7.54792 8.76834 -14.9665
O -0.509572 -8.65201 3.44916
H -0.0273976 -9.2573 4.08245
H -1.36092 -9.0867 3.15562
O 8.55853 -14.0153 -8.49978
H 8.77176 -13.0414 -8.57616
H 8.7097 -14.4599 -9.38264
O 4.96003 4.07158 -13.1876
H 4.956 4.55853 -14.0609
H 4.05593 3.67809 -13.0212
O -11.8693 4.3032 -6.12002
H -12.3109 3.58366 -6.65596
H -12.357 5.16579 -6.25452
O -6.62265 7.36131 -0.633305
H -6.2854 7.7697 -1.48148
H -6.40203 6.38606 -0.622209
O -6.00179 -13.4479 -0.321896
H -5.40938 -14.115 0.12975
H -5.44978 -12.6835 -0.6548
O 1.86916 -7.99179 -13.9207
H 2.43414 -8.30166 -13.1561
H 1.03795 -7.56194 -13.5683
O 5.5017 10.0655 -9.22655
H 4.9479 9.29806 -8.90371
H 5.6445 9.9819 -10.2127
O -5.7098 -8.53046 -14.5186
H -4.75477 -8.6927 -14.2706
H -5.7545 -8.15342 14.5766
O -0.147835 9.82494 -13.4406
H 0.679387 10.0569 -13.9522
H -0.565411 9.00659 -13.8353
O 2.74513 14.5062 7.16965
H 2.60741 -14.5236 7.17004
H 2.84377 14.183 8.1108
O 11.2788 -6.87839 -14.3196
H 10.6898 -7.68493 -14.2688
H 10.7178 -6.06536 -14.4752
O -12.4505 0.0549421 -11.0066
H -12.7892 0.984243 -10.8595
H -12.121 -0.0348785 -11.9465
O 7.67723 4.4122 -13.1489
H 8.05356 3.77937 -13.8255
H 6.71454 4.19461 -12.9882
O -4.67577 3.14969 -11.2643
H -5.62764 3.31173 -11.0043
H -4.50856 3.53274 -12.1727
O -13.6158 -12.1238 -0.74403
H -14.4265 -11.922 -0.194566
H -12.8971 -11.4611 -0.533633
O -14.8929 -2.41006 -13.1922
H -14.884 -3.40984 -13.1755
H -14.9014 -2.06118 -12.2551
O -5.43399 3.69909 12.9052
H -4.95596 3.43058 13.7414
H -5.17625 4.63346 12.6593
O -7.59377 11.7839 -1.04432
H -7.00576 11.4303 -1.77172
H -7.90029 12.7055 -1.28197
O -10.7866 9.51121 -6.16902
H -10.1651 9.41633 -5.39142
H -10.3709 9.09971 -6.98007
O 11.9603 -0.569833 13.7819
H 12.9147 -0.627341 14.0745
H 11.3709 -0.962098 14.4881
O 5.09571 13.5008 11.4883
H 4.48436 13.5273 12.2792
H 4.99676 12.6229 11.0198
O 6.4503 13.7755 -11.6168
H 6.22939 14.298 -10.7934
H 5.62718 13.6685 -12.1744
O 11.7609 -13.1802 -9.19
H 11.5404 -12.2092 -9.09721
H 12.6883 -13.2784 -9.55073
O -1.56943 -4.29826 4.68664
H -2.40701 -4.74299 5.0038
H -1.65793 -4.07431 3.71611
O -5.74615 -7.47029 12.7848
H -4.95776 -6.87067 12.922
H -6.58316 -6.92327 12.7746
O 10.7473 4.53135 10.2994
H 10.8775 5.34279 9.7297
H 10.0132 4.70011 10.957
O 8.17546 -6.44955 -8.45951
H 8.87947 -6.28141 -7.76957
H 8.44316 -6.01797 -9.3209
O -4.99046 -1.92186 -10.5623
H -4.60364 -1.36267 -9.82909
H -5.75047 -1.43209 -10.9894
O -10.42 -12.2146 -0.868459
H -10.6869 -11.6185 -1.62566
H -10.5015 -13.1701 -1.15176
O -14.1965 2.6718 -9.23082
H -14.7747 3.32659 -8.74416
H -13.2576 3.01439 -9.26101
O 1.42397 11.1752 -6.74718
H 1.03582 11.1749 -5.82563
H 2.40735 11.3488 -6.69459
O 13.3968 -5.84896 5.02914
H 13.4871 -5.81805 6.02453
H 12.5765 -6.36596 4.7848
O -4.24735 7.04812 13.348
H -5.13986 7.3391 13.0036
H -3.52624 7.55305 12.8737
O 11.9405 -3.10016 -14.6211
H 11.2081 -3.7202 -14.9022
H 12.5566 -2.94078 14.6278
O -0.845722 11.1148 2.4825
H -0.817037 10.5273 1.6738
H 0.0454839 11.1016 2.93581
O -2.64215 -13.7655 -10.8412
H -3.47137 -13.22 -10.7197
H -2.24103 -13.9658 -9.94735
O 7.01899 9.93066 5.85686
H 6.21624 9.39837 5.58819
H 6.7759 10.5442 6.60809
O -5.79133 7.92351 -7.31364
H -5.57375 7.7435 -8.27289
H -4.98276 7.7525 -6.75071
O 5.41747 10.5569 13.1395
H 5.65992 11.1506 13.9067
H 4.51288 10.161 13.2973
O 3.10791 -3.88532 -6.18232
H 3.61085 -4.42662 -6.85609
H 3.65383 -3.08994 -5.91915
O 14.5635 -5.18109 -4.45187
H 13.9157 -4.68838 -3.87085
H 14.2761 -6.13511 -4.53681
O 9.48592 2.3865 13.756
H 10.3731 1.95026 13.6061
H 9.07859 2.03282 14.598
O -4.8138 -4.53896 -10.0493
H -3.88319 -4.6374 -10.4017
H -4.99279 -3.57658 -9.845
O -10.9723 -2.10008 7.61976
H -11.6735 -1.84673 8.28614
H -11.0464 -1.50873 6.81681
O 11.3659 9.19162 0.140698
H 11.1357 10.1045 -0.196248
H 10.716 8.52679 -0.227545
O -13.5455 3.34168 1.02357
H -14.0717 3.26717 0.176505
H -12.823 4.0232 0.908235
O -5.43092 12.3349 1.3918
H -6.15617 12.5198 0.72865
H -5.64296 11.4957 1.89238
O -1.56587 8.79649 0.61072
H -1.5907 9.10004 -0.341726
H -1.0086 7.96931 0.682487
O 3.86744 -11.4659 -1.94172
H 3.67486 -11.2473 -0.985145
H 3.92565 -10.62 -2.47175
O -1.05725 5.70642 -7.15315
H -1.94272 5.28111 -6.96613
H -1.10565 6.21207 -8.01449
O -14.6412 -13.5922 11.4902
H -14.1835 -12.9823 12.1371
H -14.7281 -14.5026 11.8948
O 11.9627 12.9591 9.15082
H 12.5018 12.2141 9.54351
H 11.3675 13.3467 9.85466
O 11.7982 9.01659 5.03165
H 12.2522 9.90051 5.1435
H 12.0419 8.41786 5.79459
O 0.685709 -5.35835 -5.61222
H 0.279704 -5.5627 -6.5029
H 1.56443 -4.8996 -5.74384