LAMMPS data file via write_data, version 15 May 2015, timestep = 1009000

2593 atoms
6 atom types
1728 bonds
4 bond types
864 angles
3 angle types
0 dihedrals
3 dihedral types
0 impropers
1 improper types

-1.4888795951756736e+01 1.4888795951756736e+01 xlo xhi
-1.4888795951756736e+01 1.4888795951756736e+01 ylo yhi
-1.4888795951756736e+01 1.4888795951756736e+01 zlo zhi

Masses

1 15.9994
2 1.00794
3 12.0107
4 1.00794
5 12.0107
6 12.0107

Bond Coeffs # harmonic

1 1000 1
2 469 1.4
3 367 1.08
4 469 0.7

Angle Coeffs # harmonic

1 100 109.47
2 35 120
3 63 120

Dihedral Coeffs # opls

1 0 7.25 0 0
2 0 7.25 0 0
3 0 7.25 0 0

Improper Coeffs # cvff

1 2.5 -1 2

Atoms # full

2193 731 2 4.0999999999999998e-01 -1.4813558902883450e+01 -1.2398480190536993e+01 -1.0542427279136078e+01 1 0 3
919 307 1 -8.1999999999999995e-01 -1.2579353230390044e+01 -1.0630181876384777e+01 -1.2558190025912825e+01 0 0 2
1079 360 2 4.0999999999999998e-01 -1.1360711515492921e+01 -1.6387837037520878e+00 -1.2693668408882425e+01 0 1 1
1609 537 1 -8.1999999999999995e-01 -5.1913324986500786e+00 -9.4543325499079209e+00 -1.3156587756421203e+01 -3 2 0
2498 833 2 4.0999999999999998e-01 -9.7150170138357090e+00 -1.0696964387996283e+01 -1.0825105850859021e+01 -1 1 0
2497 833 1 -8.1999999999999995e-01 -9.9086952660352292e+00 -1.1556007106324087e+01 -1.0351268990062206e+01 -1 1 0
2499 833 2 4.0999999999999998e-01 -1.0075174197797566e+01 -1.2277308851639976e+01 -1.1023575161733378e+01 -1 1 0
944 315 2 4.0999999999999998e-01 -7.1259681690747092e+00 -1.4882085141479521e+01 -1.4561594114128791e+01 1 1 -1
921 307 2 4.0999999999999998e-01 -1.2063926062698874e+01 -1.1433131260066300e+01 -1.2857512840871284e+01 0 0 2
920 307 2 4.0999999999999998e-01 -1.3373435405380167e+01 -1.0923297680329316e+01 -1.2025739515990402e+01 0 0 2
2191 731 1 -8.1999999999999995e-01 -1.3997087323032432e+01 -1.1907352283739637e+01 -1.0845997002275931e+01 1 0 3
1011 337 2 4.0999999999999998e-01 -8.3207111391540352e+00 -6.6761501119704949e+00 -8.2086153205507717e+00 -1 1 2
1473 491 2 4.0999999999999998e-01 -9.5334786190170000e+00 -1.0449854853305059e+01 -1.4454435441367007e+01 -1 2 2
1471 491 1 -8.1999999999999995e-01 -9.1253847050753656e+00 -1.1151746749588321e+01 -1.3870659826071284e+01 -1 2 2
1472 491 2 4.0999999999999998e-01 -8.4599471140664164e+00 -1.0728396880156909e+01 -1.3255879620403748e+01 -1 2 2
1575 525 2 4.0999999999999998e-01 -8.0822986165790169e+00 -1.1928443435345216e+01 -1.0160690918069907e+01 -1 -1 1
1573 525 1 -8.1999999999999995e-01 -7.1629489219620064e+00 -1.1848102575090376e+01 -1.0545825280129826e+01 -1 -1 1
2377 793 1 -8.1999999999999995e-01 -6.0541910341469354e+00 -1.4390887871444745e+01 -1.1519338765273034e+01 0 1 1
1352 451 2 4.0999999999999998e-01 -1.3992060227369686e+01 -1.4885319695131342e+01 -8.3225418597658525e+00 1 2 0
2379 793 2 4.0999999999999998e-01 -5.1110880391718574e+00 -1.4120537008459758e+01 -1.1325808150786184e+01 0 1 1
2349 783 2 4.0999999999999998e-01 -1.0414437804785347e+01 -7.5089780729234823e+00 -1.4176850400908295e+01 2 3 1
2156 719 2 4.0999999999999998e-01 -5.6328491849707536e+00 -1.1255871593620483e+01 -9.9213600010071765e+00 1 2 -1
12 4 2 4.0999999999999998e-01 -1.1473911178149717e+01 -9.2787740218259955e+00 -1.2871936069170594e+01 1 2 0
11 4 2 4.0999999999999998e-01 -1.0769738939923339e+01 -8.0969440158744668e+00 -1.1992156988107183e+01 1 2 0
10 4 1 -8.1999999999999995e-01 -1.0884401846445968e+01 -8.4720160079918401e+00 -1.2912026780759181e+01 1 2 0
2192 731 2 4.0999999999999998e-01 -1.3285704495755496e+01 -1.1979197569834579e+01 -1.0146883442447690e+01 1 0 3
140 47 2 4.0999999999999998e-01 -1.3780891164241201e+01 -1.4722684931244702e+01 -1.2477780192384111e+01 0 2 3
2223 741 2 4.0999999999999998e-01 -1.3643341867802269e+01 -9.8202903075589916e+00 -1.4422164913376406e+01 -1 1 3
141 47 2 4.0999999999999998e-01 -1.2161859652066383e+01 -1.4571412691725522e+01 -1.2327961721425643e+01 0 2 3
970 324 1 -8.1999999999999995e-01 -7.9131932464391026e+00 -9.6623668698206799e+00 -1.1871843251640030e+01 1 1 1
636 212 2 4.0999999999999998e-01 -1.3608491774842442e+01 -8.5469647389916528e+00 -8.4404700999161975e+00 0 3 2
1574 525 2 4.0999999999999998e-01 -6.8748188890491733e+00 -1.2734409031212930e+01 -1.0908356579630453e+01 -1 -1 1
1278 426 2 4.0999999999999998e-01 -1.2899145328800293e+01 -4.5784037795420964e+00 -8.6957526032971391e+00 0 0 0
1712 571 2 4.0999999999999998e-01 -7.3698159554740998e+00 -8.0567047427020277e-01 -7.8722745206262461e+00 1 3 2
2467 823 1 -8.1999999999999995e-01 -1.4076675808276816e+01 -1.0014963946893515e+01 -8.0982130104103547e+00 0 2 -1
971 324 2 4.0999999999999998e-01 -7.5833043720527309e+00 -1.0279546641407361e+01 -1.1157525799207400e+01 1 1 1
2468 823 2 4.0999999999999998e-01 -1.3242592255885386e+01 -1.0563969959805405e+01 -8.0445103867207628e+00 0 2 -1
1181 394 2 4.0999999999999998e-01 -1.1189036660216001e+01 -1.1601550172568233e+01 -9.1875875433718512e+00 2 3 0
1180 394 1 -8.1999999999999995e-01 -1.1893364957469139e+01 -1.1778319506705296e+01 -8.5000838718216229e+00 2 3 0
1823 608 2 4.0999999999999998e-01 -1.0205769241787623e+01 -1.4161252756085759e+01 -1.2641211037563725e+01 0 0 1
1380 460 2 4.0999999999999998e-01 -5.3355312413457217e+00 -4.2026478745848355e+00 -1.0355629523052144e+01 -1 2 -2
1822 608 1 -8.1999999999999995e-01 -1.0697201197522180e+01 -1.3292216257194914e+01 -1.2698283217655558e+01 0 0 1
972 324 2 4.0999999999999998e-01 -7.3340823413073997e+00 -8.8476843046000440e+00 -1.1902005758147888e+01 1 1 1
1824 608 2 4.0999999999999998e-01 -1.0131008788044339e+01 -1.2619810340456350e+01 -1.3175025638495333e+01 0 0 1
1711 571 1 -8.1999999999999995e-01 -6.4263651322636086e+00 -5.1382322825301507e-01 -7.7150716629391471e+00 1 3 2
2221 741 1 -8.1999999999999995e-01 -1.4596610453713122e+01 -9.5185144783833593e+00 -1.4408117411916201e+01 -1 1 3
952 318 1 -8.1999999999999995e-01 -7.0240029388687164e+00 -1.2996375331307826e+01 -1.4446184294141201e+01 0 1 0
193 65 1 -8.1999999999999995e-01 -1.4837636093924543e+01 -1.3562098386197565e+00 -1.1803375080666987e+01 0 3 2
1182 394 2 4.0999999999999998e-01 -1.1468068129741084e+01 -1.2151315510555882e+01 -7.6754726713243855e+00 2 3 0
1722 574 2 4.0999999999999998e-01 -7.9797492423779168e+00 -1.0682286198794566e+01 -7.6361579169616682e+00 1 2 1
635 212 2 4.0999999999999998e-01 -1.3802928464226536e+01 -7.2125305237549080e+00 -7.5195621101071595e+00 0 3 2
2378 793 2 4.0999999999999998e-01 -6.2247983669566160e+00 -1.4324845715630751e+01 -1.2502455548129552e+01 0 1 1
2257 753 1 -8.1999999999999995e-01 -9.2213103517241919e+00 -2.3370952619724488e+00 -1.4372867748713205e+01 3 1 1
1432 478 1 -8.1999999999999995e-01 -5.5470002551113016e+00 -5.3885477170185805e+00 -1.4359324409795274e+01 -1 0 3
954 318 2 4.0999999999999998e-01 -7.6969105237194855e+00 -1.2262961853649550e+01 -1.4349814773007067e+01 0 1 0
1078 360 1 -8.1999999999999995e-01 -1.1164849385811168e+01 -1.2355574893876824e+00 -1.1799781683759534e+01 0 1 1
205 69 1 -8.1999999999999995e-01 -1.1920149515392598e+01 -2.1827130518197198e+00 -1.4231120415667988e+01 0 2 2
2258 753 2 4.0999999999999998e-01 -1.0200594522223135e+01 -2.2416567159019714e+00 -1.4551420208970441e+01 3 1 1
1701 567 2 4.0999999999999998e-01 -1.2864904060754260e+01 -5.3581366482052051e+00 -1.4690750380299166e+01 2 1 2
1433 478 2 4.0999999999999998e-01 -6.0859681616497809e+00 -6.2119169847115874e+00 -1.4181663298366784e+01 -1 0 3
2198 733 2 4.0999999999999998e-01 -1.1349506320845178e+01 -8.5760515026760711e+00 -8.0503592133484894e+00 1 2 4
2535 845 2 4.0999999999999998e-01 -8.6951023795999021e+00 -2.8633742353549039e+00 -8.5325291358636086e+00 -1 0 1
1094 365 2 4.0999999999999998e-01 -9.8419845085744164e+00 -3.8244352866329638e+00 -1.1780833305008866e+01 1 0 3
1093 365 1 -8.1999999999999995e-01 -8.8504349756515293e+00 -3.7549737611662568e+00 -1.1890339636575181e+01 1 0 3
1789 597 1 -8.1999999999999995e-01 -1.2497936668849627e+01 -1.9997699925627384e+00 -8.8165738651866050e+00 1 0 -1
670 224 1 -8.1999999999999995e-01 -1.0221167891569360e+01 -6.8885264741239638e+00 -1.0592179749811741e+01 0 4 -1
1378 460 1 -8.1999999999999995e-01 -5.8352003212165577e+00 -4.6145971553749803e+00 -9.5936482509492400e+00 -1 2 -2
1080 360 2 4.0999999999999998e-01 -1.0987652146781480e+01 -2.5725083982428565e-01 -1.1907039336399887e+01 0 1 1
2166 722 2 4.0999999999999998e-01 -1.4562727995924014e+01 -1.3976329065013879e+01 -1.4118664134546780e+01 1 0 1
1035 345 2 4.0999999999999998e-01 -7.4601101557342444e+00 -7.7929656783909618e+00 -1.3667991915714813e+01 0 2 1
1699 567 1 -8.1999999999999995e-01 -1.2102566689683311e+01 -4.9512444552503698e+00 -1.4187493457739446e+01 2 1 2
672 224 2 4.0999999999999998e-01 -9.2747114416707355e+00 -6.6499476373207766e+00 -1.0809636291424667e+01 0 4 -1
634 212 1 -8.1999999999999995e-01 -1.3539784669821733e+01 -7.5494777589878863e+00 -8.4235582145469579e+00 0 3 2
2197 733 1 -8.1999999999999995e-01 -1.0597693563557854e+01 -8.9213548649556813e+00 -8.6120799096078446e+00 1 2 4
2259 753 2 4.0999999999999998e-01 -9.0838649078900904e+00 -2.9173502238907023e+00 -1.3570122527822745e+01 3 1 1
1838 613 2 4.0999999999999998e-01 -1.4191554195553000e+01 -6.8334462025091334e+00 -1.4272610383169617e+01 -1 0 2
2231 744 2 4.0999999999999998e-01 -1.3114828383629584e+01 -4.7148452518310791e-01 -7.8316284270491705e+00 -1 2 -1
2533 845 1 -8.1999999999999995e-01 -7.9010544189760017e+00 -3.1824743364982044e+00 -8.0151801390126032e+00 -1 0 1
1790 597 2 4.0999999999999998e-01 -1.3092918698331015e+01 -1.9973219663375410e+00 -9.6203010649370650e+00 1 0 -1
1276 426 1 -8.1999999999999995e-01 -1.3562320926971585e+01 -4.9817924856353422e+00 -9.3261990164265995e+00 0 0 0
1277 426 2 4.0999999999999998e-01 -1.3675881837986216e+01 -5.9524673820122924e+00 -9.1143472018806762e+00 0 0 0
277 93 1 -8.1999999999999995e-01 -7.6671916595314116e+00 -6.1398962863843494e+00 -1.1170745940973571e+01 -2 1 0
2199 733 2 4.0999999999999998e-01 -1.0397681692034540e+01 -8.2661234108743997e+00 -9.3405399543403540e+00 1 2 4
1570 524 1 -8.1999999999999995e-01 -9.7412340939512685e+00 -1.7335175621281191e+00 -9.3863008762483844e+00 0 3 1
2173 725 1 -8.1999999999999995e-01 -1.1518888898433616e+01 -4.3357092996143649e+00 -1.1479614163229297e+01 2 1 1
2534 845 2 4.0999999999999998e-01 -7.1954243444179156e+00 -3.4989508426517784e+00 -8.6491484848891247e+00 -1 0 1
2174 725 2 4.0999999999999998e-01 -1.1702915395149212e+01 -4.4830370019084711e+00 -1.2451424570128289e+01 2 1 1
671 224 2 4.0999999999999998e-01 -1.0796574216997861e+01 -6.0744401123073413e+00 -1.0670652167591737e+01 0 4 -1
2175 725 2 4.0999999999999998e-01 -1.2379465134240290e+01 -4.3554157327774234e+00 -1.0970686677723917e+01 2 1 1
278 93 2 4.0999999999999998e-01 -6.9026367016157755e+00 -5.8482854600035061e+00 -1.0595936579438247e+01 -2 1 0
1033 345 1 -8.1999999999999995e-01 -7.0988234369863585e+00 -7.5018461568694184e+00 -1.4553829544309410e+01 0 2 1
1095 365 2 4.0999999999999998e-01 -8.5425833307889434e+00 -2.8567003406805629e+00 -1.1576780645255202e+01 1 0 3
1571 524 2 4.0999999999999998e-01 -9.5640618979219738e+00 -1.1226275192303223e+00 -8.6146725448256625e+00 0 3 1
207 69 2 4.0999999999999998e-01 -1.2278453986805211e+01 -3.0955173776432687e+00 -1.4427062211039265e+01 0 2 2
279 93 2 4.0999999999999998e-01 -8.0316274729678021e+00 -5.3512641424690290e+00 -1.1665955912321287e+01 -2 1 0
1791 597 2 4.0999999999999998e-01 -1.1544518964545725e+01 -2.0779318747673425e+00 -9.1079025528979045e+00 1 0 -1
1572 524 2 4.0999999999999998e-01 -9.8172638431577024e+00 -1.1961641974402220e+00 -1.0226215978567721e+01 0 3 1
1379 460 2 4.0999999999999998e-01 -5.2017903910564414e+00 -5.1383207857976405e+00 -9.0240060785324765e+00 -1 2 -2
1058 353 2 4.0999999999999998e-01 -8.4697143101389472e+00 -6.4817673776992457e-01 -1.4175816570309726e+01 0 4 1
1700 567 2 4.0999999999999998e-01 -1.1260410023185830e+01 -5.4466874803953509e+00 -1.4400320544118147e+01 2 1 2
2354 785 2 4.0999999999999998e-01 -5.0003541781719623e+00 -1.6885492340247286e+00 -8.0433683625440757e+00 2 1 2
1010 337 2 4.0999999999999998e-01 -9.3371866489882489e+00 -7.8628225400023695e+00 -7.7340863878871753e+00 -1 1 2
194 65 2 4.0999999999999998e-01 -1.4708197648756114e+01 -8.1027053551038364e-01 -1.2631132851887768e+01 0 3 2
2222 741 2 4.0999999999999998e-01 -1.4730580060526261e+01 -8.8721819265104109e+00 -1.3656922844694835e+01 -1 1 3
1009 337 1 -8.1999999999999995e-01 -8.5326448818387437e+00 -7.3264566637681900e+00 -7.4791138644244652e+00 -1 1 2
2074 692 1 -8.1999999999999995e-01 -1.1322131075075916e+01 -1.1616343364451724e+01 -9.7059592014831253e-01 1 3 0
2076 692 2 4.0999999999999998e-01 -1.1342749470592334e+01 -1.1120530861341898e+01 -1.8387731707149335e+00 1 3 0
551 184 2 4.0999999999999998e-01 -1.2861659302690796e+01 -1.3677983984161468e+01 -6.6188397870379987e+00 -1 3 2
1680 560 2 4.0999999999999998e-01 -5.2325303385795685e+00 -4.2448407654948941e+00 -3.5508436984862968e+00 2 2 2
539 180 2 4.0999999999999998e-01 -1.1018462473667054e+01 -9.9637679301287676e+00 -4.8496395931694440e+00 -2 3 0
538 180 1 -8.1999999999999995e-01 -1.2013851441023753e+01 -9.9512355401969135e+00 -4.9446698147420776e+00 -2 3 0
568 190 1 -8.1999999999999995e-01 -9.2262411012976955e+00 -9.8686484183856393e-02 -7.1565818355607203e+00 0 -1 2
648 216 2 4.0999999999999998e-01 -8.8785225534267624e+00 -1.0453749911674468e+01 -5.5653381137076821e+00 1 2 2
646 216 1 -8.1999999999999995e-01 -9.4252361480142497e+00 -1.0442660882404059e+01 -4.7280996045137762e+00 1 2 2
647 216 2 4.0999999999999998e-01 -8.8577267113688336e+00 -1.0137305476062313e+01 -3.9634572914926380e+00 1 2 2
1523 508 2 4.0999999999999998e-01 -8.9555140291495015e+00 -1.2551095770376810e+01 -6.5707378745206988e+00 1 4 1
1522 508 1 -8.1999999999999995e-01 -9.8744707342364002e+00 -1.2930290081801788e+01 -6.4624916949984268e+00 1 4 1
721 241 1 -8.1999999999999995e-01 -6.1841899357922969e+00 -1.2113197422815530e+01 -3.2751006481033542e+00 -1 1 -2
1646 549 2 4.0999999999999998e-01 -1.2341399566225935e+01 -1.4433404529531918e+01 -2.3189936086530878e+00 2 2 0
1647 549 2 4.0999999999999998e-01 -1.1816530684031664e+01 -1.3344463518709395e+01 -1.2211265891594838e+00 2 2 0
1645 549 1 -8.1999999999999995e-01 -1.1651544116312293e+01 -1.4246698842107385e+01 -1.6195456586890735e+00 2 2 0
722 241 2 4.0999999999999998e-01 -6.2395957248185550e+00 -1.2631916883949822e+01 -2.4219610001285741e+00 -1 1 -2
1524 508 2 4.0999999999999998e-01 -1.0217797201292845e+01 -1.2716197952842407e+01 -5.5480090805908215e+00 1 4 1
723 241 2 4.0999999999999998e-01 -6.7384061783165965e+00 -1.1284422933719220e+01 -3.1978732375674994e+00 -1 1 -2
1043 348 2 4.0999999999999998e-01 -1.4544078715415118e+01 -2.3066435538771550e+00 -5.6287560278242932e+00 0 2 0
1721 574 2 4.0999999999999998e-01 -6.9266025163126352e+00 -1.1146909393437085e+01 -6.4778836921074010e+00 1 2 1
1026 342 2 4.0999999999999998e-01 -1.2793281706752211e+01 -1.1412386046524048e+01 -5.5964203228096743e+00 0 3 1
1909 637 1 -8.1999999999999995e-01 -8.2932165459783960e+00 -7.7809698763223212e+00 -1.1775536897547703e+00 0 5 -1
2319 773 2 4.0999999999999998e-01 -6.9487360600515720e+00 -7.4492156071924498e-01 -2.7741728210235870e+00 1 0 0
540 180 2 4.0999999999999998e-01 -1.2328736206809399e+01 -9.0058800029281922e+00 -5.0291533651609921e+00 -2 3 0
1247 416 2 4.0999999999999998e-01 -1.3282923176046113e+01 -1.3577814414884870e+01 -4.1874936321429939e+00 0 3 -1
2075 692 2 4.0999999999999998e-01 -1.0782962100466481e+01 -1.1100488540031844e+01 -3.0488014731012569e-01 1 3 0
1626 542 2 4.0999999999999998e-01 -6.7622742167846486e+00 -9.1208489705405427e+00 -3.8971879717093039e+00 1 0 1
1399 467 1 -8.1999999999999995e-01 -5.4321654832857558e+00 -1.1354549542198088e+01 -5.6715991880825403e+00 1 2 0
1246 416 1 -8.1999999999999995e-01 -1.3844500382673219e+01 -1.3767431705414911e+01 -3.3820972426210698e+00 0 3 -1
1624 542 1 -8.1999999999999995e-01 -7.2415250919611429e+00 -9.5432817120613187e+00 -3.1278660931431350e+00 1 0 1
1400 467 2 4.0999999999999998e-01 -5.6928946823894169e+00 -1.1841037629835169e+01 -4.8377307144760788e+00 1 2 0
2011 671 1 -8.1999999999999995e-01 -1.1746373970323349e+01 -7.7421342123417789e+00 -2.3890198547849568e+00 1 1 0
1042 348 1 -8.1999999999999995e-01 -1.4679052829696667e+01 -1.4928122595519326e+00 -5.0635590492222384e+00 0 2 0
1967 656 2 4.0999999999999998e-01 -8.5646025620929205e+00 -1.2961258229779911e+01 -2.3823827506186372e+00 1 1 1
508 170 1 -8.1999999999999995e-01 -1.0670371139744868e+01 -8.9466874907313052e+00 -1.9085987066123522e-01 -2 0 0
1024 342 1 -8.1999999999999995e-01 -1.3417225094176299e+01 -1.2174656462742655e+01 -5.7685404987122872e+00 0 3 1
570 190 2 4.0999999999999998e-01 -9.8524267755044903e+00 -5.8832833897233350e-01 -6.5498452464640611e+00 0 -1 2
1968 656 2 4.0999999999999998e-01 -9.8933902711524428e+00 -1.3898253570358907e+01 -2.2308740571385428e+00 1 1 1
1625 542 2 4.0999999999999998e-01 -7.6186851389909807e+00 -8.8295590516849884e+00 -2.5376651398874621e+00 1 0 1
1966 656 1 -8.1999999999999995e-01 -9.0475795481033909e+00 -1.3758006695805912e+01 -2.7455798681431958e+00 1 1 1
1783 595 1 -8.1999999999999995e-01 -1.4846193584774158e+01 -9.4476375327788702e+00 -5.9165860018247862e-01 2 2 0
1720 574 1 -8.1999999999999995e-01 -7.8873718616084254e+00 -1.1146378097917989e+01 -6.7552083857483378e+00 1 2 1
2013 671 2 4.0999999999999998e-01 -1.1995736484531367e+01 -7.5725570195737308e+00 -3.3424603532758876e+00 1 1 0
1025 342 2 4.0999999999999998e-01 -1.4361957620135991e+01 -1.1856022782626617e+01 -5.6914688662105402e+00 0 3 1
1910 637 2 4.0999999999999998e-01 -7.8777310114061194e+00 -7.2586822581962593e+00 -4.3285612919663663e-01 0 5 -1
2205 735 2 4.0999999999999998e-01 -5.4785883462402705e+00 -7.4304462584635322e+00 -5.3321337379933720e+00 1 0 -1
1520 507 2 4.0999999999999998e-01 -8.6832878054937392e+00 -2.8611423471466022e+00 -1.8188085425386369e-01 1 2 0
2203 735 1 -8.1999999999999995e-01 -6.1436773386034851e+00 -8.1764122433724928e+00 -5.2978065240058108e+00 1 0 -1
510 170 2 4.0999999999999998e-01 -1.1156949537805669e+01 -8.5780180245087756e+00 -9.8288976431588182e-01 -2 0 0
778 260 1 -8.1999999999999995e-01 -1.4206610277666652e+01 -1.0804761617330048e+01 -3.0376340859281523e+00 1 1 0
779 260 2 4.0999999999999998e-01 -1.3485750596259315e+01 -1.0385378219164263e+01 -3.5894181678760475e+00 1 1 0
1713 571 2 4.0999999999999998e-01 -6.3607153825000786e+00 -6.3659864119506082e-02 -6.8245492937135293e+00 1 3 2
1911 637 2 4.0999999999999998e-01 -9.2561935185865920e+00 -7.9511503881719756e+00 -9.6850603912953481e-01 0 5 -1
2313 771 2 4.0999999999999998e-01 -1.2141844947525520e+01 -3.8556573010605355e-01 -5.6756741732377325e+00 3 2 2
266 89 2 4.0999999999999998e-01 -1.2673282394493860e+01 -2.8592812964421981e+00 -6.7451467788377713e+00 -3 0 1
1860 620 2 4.0999999999999998e-01 -5.3112817205594531e+00 -6.2178854613741095e+00 -2.6012109485585313e+00 -1 1 1
1044 348 2 4.0999999999999998e-01 -1.4849651169345558e+01 -7.0269094799383680e-01 -5.6522792796433645e+00 0 2 0
1460 487 2 4.0999999999999998e-01 -1.2380540718701718e+01 -5.7989287602692858e+00 -3.3159827685171983e-01 0 3 0
2012 671 2 4.0999999999999998e-01 -1.2469191295445368e+01 -7.3987904160468378e+00 -1.7893223841830306e+00 1 1 0
1508 503 2 4.0999999999999998e-01 -1.1766624668032673e+01 -6.7620393101436527e+00 -5.2587931624322888e+00 0 2 0
1507 503 1 -8.1999999999999995e-01 -1.2500831620671136e+01 -7.3987002936635591e+00 -5.0230179253476877e+00 0 2 0
550 184 1 -8.1999999999999995e-01 -1.2369366696034440e+01 -1.4518508819462015e+01 -6.8450099192583487e+00 -1 3 2
715 239 1 -8.1999999999999995e-01 -6.6604991067378876e+00 -3.8270778271600818e+00 -3.6658917569672234e-01 0 2 1
1695 565 2 4.0999999999999998e-01 -1.2474161073006739e+01 -1.8222149463554818e+00 -7.7953189641985077e-01 -1 3 0
1192 398 1 -8.1999999999999995e-01 -7.5129187006891973e+00 -1.2482385400553376e+01 -4.0819550766376622e-01 0 2 2
2318 773 2 4.0999999999999998e-01 -6.6077272713756621e+00 -7.9029511472696434e-01 -4.3704954168858769e+00 1 0 0
2311 771 1 -8.1999999999999995e-01 -1.1329024811694417e+01 -6.2416068176370665e-01 -5.1442771834167651e+00 3 2 2
1248 416 2 4.0999999999999998e-01 -1.4121367762655446e+01 -1.2905050160397321e+01 -2.9582699739787959e+00 0 3 -1
633 211 2 4.0999999999999998e-01 -6.2562042534334203e+00 -3.8032800568203751e+00 -5.1687660519803167e+00 -1 3 0
2101 701 1 -8.1999999999999995e-01 -8.6293695193345936e+00 -5.1233428440466167e+00 -2.9028260052435471e+00 0 2 -1
2102 701 2 4.0999999999999998e-01 -8.5226818892777878e+00 -6.0209910608566624e+00 -2.4752369392966447e+00 0 2 -1
2019 673 2 4.0999999999999998e-01 -1.3647082465005182e+01 -4.9549542397550503e+00 -2.2496350601412214e+00 0 3 -1
2103 701 2 4.0999999999999998e-01 -7.7275017034486098e+00 -4.7328306568486855e+00 -3.0875464436779207e+00 0 2 -1
1509 503 2 4.0999999999999998e-01 -1.3354391628363867e+01 -7.0945261704336433e+00 -5.4459841716877548e+00 0 2 0
1679 560 2 4.0999999999999998e-01 -6.3819604117648705e+00 -3.1028189750532835e+00 -3.3478937246375597e+00 2 2 2
1194 398 2 4.0999999999999998e-01 -7.3889043775562238e+00 -1.1543143110131693e+01 -7.2824443134700623e-01 0 2 2
552 184 2 4.0999999999999998e-01 -1.1478474811554383e+01 -1.4287962417404355e+01 -7.2363498845112959e+00 -1 3 2
1858 620 1 -8.1999999999999995e-01 -5.0489158501552431e+00 -6.8682741016193027e+00 -1.8883675781807554e+00 -1 1 1
1459 487 1 -8.1999999999999995e-01 -1.3197745320046993e+01 -5.9566110364018510e+00 -8.8594467242913488e-01 0 3 0
1461 487 2 4.0999999999999998e-01 -1.3984604222317806e+01 -5.5177555179601132e+00 -4.5207146712853330e-01 0 3 0
1784 595 2 4.0999999999999998e-01 -1.3971679577871043e+01 -9.8281521199186344e+00 -2.9095802816743443e-01 2 2 0
2317 773 1 -8.1999999999999995e-01 -6.7038991455168961e+00 -1.3392563764845811e+00 -3.5402067960742283e+00 1 0 0
1678 560 1 -8.1999999999999995e-01 -6.1251331301037322e+00 -4.0478072653591344e+00 -3.1453500114344024e+00 2 2 2
1694 565 2 4.0999999999999998e-01 -1.1121907322793248e+01 -2.5022653511246453e+00 -1.6672429283151402e-01 -1 3 0
957 319 2 4.0999999999999998e-01 -1.1558838254398466e+01 -3.0942283883933115e+00 -2.7696455123242867e+00 0 0 0
2204 735 2 4.0999999999999998e-01 -6.9543116023631075e+00 -7.9248120609556896e+00 -5.8265374766520228e+00 1 0 -1
2017 673 1 -8.1999999999999995e-01 -1.4057299231653893e+01 -4.1599706322316958e+00 -2.6965246664063915e+00 0 3 -1
632 211 2 4.0999999999999998e-01 -6.8889845501732996e+00 -3.6186368697736828e+00 -6.6627833893499702e+00 -1 3 0
2018 673 2 4.0999999999999998e-01 -1.3531029052912741e+01 -3.3408585277068887e+00 -2.4683096300590197e+00 0 3 -1
2312 771 2 4.0999999999999998e-01 -1.1435066546058870e+01 -1.5446254692991328e+00 -4.7681299079106640e+00 3 2 2
956 319 2 4.0999999999999998e-01 -1.0773095834773638e+01 -3.9052966863280041e+00 -3.9492084473111095e+00 0 0 0
955 319 1 -8.1999999999999995e-01 -1.1385014421264843e+01 -3.1390066705561264e+00 -3.7533970311737761e+00 0 0 0
631 211 1 -8.1999999999999995e-01 -6.2324593723771180e+00 -4.1341471316484100e+00 -6.1121377373012162e+00 -1 3 0
563 188 2 4.0999999999999998e-01 -9.6573178935316726e+00 -5.7689659998201286e+00 -4.5465163822957191e+00 1 0 1
1693 565 1 -8.1999999999999995e-01 -1.1792099029371865e+01 -2.5421578819004420e+00 -9.0783066867763118e-01 -1 3 0
716 239 2 4.0999999999999998e-01 -6.3791633816223250e+00 -3.9265999172272359e+00 -1.3210170686257161e+00 0 2 1
2114 705 2 4.0999999999999998e-01 -1.4236307973972522e+01 -5.2221741323832056e+00 -6.1202230637090462e+00 -1 1 2
2113 705 1 -8.1999999999999995e-01 -1.4361464792105815e+01 -6.2132268995921596e+00 -6.1664527089396532e+00 -1 1 2
265 89 1 -8.1999999999999995e-01 -1.2995655051198378e+01 -3.5909086999832507e+00 -6.1444936680290798e+00 -3 0 1
562 188 1 -8.1999999999999995e-01 -1.0262891896615077e+01 -6.0069019130214762e+00 -5.3058934866129821e+00 1 0 1
564 188 2 4.0999999999999998e-01 -9.7192780355640132e+00 -6.3575910980642831e+00 -6.0684471592405806e+00 1 0 1
267 89 2 4.0999999999999998e-01 -1.2610437028528953e+01 -3.4656148060610903e+00 -5.2302204806865085e+00 -3 0 1
2188 730 1 -8.1999999999999995e-01 -1.4043204559081216e+01 -1.2434312697917882e+00 -4.2380398014727483e-01 1 1 -1
2469 823 2 4.0999999999999998e-01 -1.4691596345687019e+01 -1.0269051892721539e+01 -7.3516883463084950e+00 0 2 -1
717 239 2 4.0999999999999998e-01 -7.0168242139858767e+00 -4.6992607729153075e+00 -3.1452890757137197e-02 0 2 1
2189 730 2 4.0999999999999998e-01 -1.4129037289053294e+01 -2.7221207299668748e-01 -2.0164862225935742e-01 1 1 -1
187 63 1 -8.1999999999999995e-01 -1.2181355904004995e+01 -1.3015485234612743e+01 3.4238955510727411e+00 -1 1 1
993 331 2 4.0999999999999998e-01 -1.2839134166398834e+01 -9.3430367740634566e+00 1.5925419004729857e+00 1 2 1
992 331 2 4.0999999999999998e-01 -1.2807446813027694e+01 -7.9575247727320368e+00 2.4562225635698756e+00 1 2 1
991 331 1 -8.1999999999999995e-01 -1.2323281577561916e+01 -8.5058958314336159e+00 1.7744159600830418e+00 1 2 1
2405 802 2 4.0999999999999998e-01 -1.3184199802142578e+01 -8.6048242020883912e+00 4.9633446205593383e+00 2 0 2
656 219 2 4.0999999999999998e-01 -1.0914250923926463e+01 -1.1626018298604908e+01 3.8466231661769630e+00 0 1 2
501 167 2 4.0999999999999998e-01 -1.0962657107319169e+01 -5.9534004250386818e+00 7.0420471844879824e+00 2 2 1
188 63 2 4.0999999999999998e-01 -1.2812725404657662e+01 -1.2597635771378185e+01 2.7706258950861109e+00 -1 1 1
189 63 2 4.0999999999999998e-01 -1.2181016591569895e+01 -1.4007668095423837e+01 3.2991562104709242e+00 -1 1 1
1152 384 2 4.0999999999999998e-01 -5.8056814354075517e+00 -1.3517446703697502e+01 4.7712661246497508e+00 0 1 1
655 219 1 -8.1999999999999995e-01 -1.0538306129161946e+01 -1.1092330557518780e+01 4.6041387209290381e+00 0 1 2
2489 830 2 4.0999999999999998e-01 -9.3080899962877410e+00 -1.0009706299125689e+01 4.4163063657183894e+00 0 2 3
2488 830 1 -8.1999999999999995e-01 -8.6546887084717987e+00 -9.2733347463371558e+00 4.2407766770603370e+00 0 2 3
1151 384 2 4.0999999999999998e-01 -5.8249639836674589e+00 -1.2137353260705220e+01 3.8985909518324124e+00 0 1 1
1150 384 1 -8.1999999999999995e-01 -6.3924200298775276e+00 -1.2824688531986487e+01 4.3519680689359834e+00 0 1 1
2490 830 2 4.0999999999999998e-01 -7.8385728025417514e+00 -9.4110797027510671e+00 4.8019969075300732e+00 0 2 3
958 320 1 -8.1999999999999995e-01 -9.6980171995329982e+00 -7.5245625138449688e+00 2.5044436809647319e+00 -1 -1 1
959 320 2 4.0999999999999998e-01 -9.4090049077088995e+00 -8.0019053351701004e+00 3.3342645158809230e+00 -1 -1 1
960 320 2 4.0999999999999998e-01 -1.0602162623413481e+01 -7.8515899927815864e+00 2.2295601368665512e+00 -1 -1 1
1951 651 1 -8.1999999999999995e-01 -1.3087130910401406e+01 -1.0999598505340341e+01 1.1017703508758494e+00 -1 2 0
657 219 2 4.0999999999999998e-01 -1.1259561024263194e+01 -1.0526210092832866e+01 5.0032449602619256e+00 0 1 2
2335 779 1 -8.1999999999999995e-01 -8.3936467205761200e+00 -9.8697488777788429e+00 1.2899566101286926e+00 0 1 0
1005 335 2 4.0999999999999998e-01 -8.9648543197539059e+00 -1.2172945550665290e+01 6.3008477917592618e+00 2 2 0
509 170 2 4.0999999999999998e-01 -1.1198368634269038e+01 -8.7652863366599725e+00 6.3877820085741632e-01 -2 0 0
425 142 2 4.0999999999999998e-01 -1.4088057094653944e+01 -5.0975999307908157e+00 3.1592995143116855e+00 0 4 -1
1851 617 2 4.0999999999999998e-01 -1.2725221556499591e+01 -1.3593920914940298e+01 6.4377586383599184e+00 0 3 1
2336 779 2 4.0999999999999998e-01 -8.8589359913897425e+00 -9.3347823918241453e+00 1.9951542879332447e+00 0 1 0
1772 591 2 4.0999999999999998e-01 -7.7324233403338019e+00 -1.2806295616634127e+01 3.2483216311297145e+00 1 1 0
82 28 1 -8.1999999999999995e-01 -5.5499083136404490e+00 -7.5668194589392339e+00 6.9273525014438011e+00 0 1 1
1774 592 1 -8.1999999999999995e-01 -6.5830590085042893e+00 -9.8465559107677549e+00 6.0515460264486425e+00 0 3 -2
331 111 1 -8.1999999999999995e-01 -5.4433591827296794e+00 -1.0174796145473206e+01 1.4886827888378047e+00 2 0 0
1776 592 2 4.0999999999999998e-01 -5.7527156440079334e+00 -1.0394249069303854e+01 5.9488369666545484e+00 0 3 -2
1773 591 2 4.0999999999999998e-01 -8.8084307217350997e+00 -1.1865140739905492e+01 2.4590007315494251e+00 1 1 0
1953 651 2 4.0999999999999998e-01 -1.3869937727029638e+01 -1.1563151281205155e+01 1.3656050712716326e+00 -1 2 0
1771 591 1 -8.1999999999999995e-01 -8.2917703572029797e+00 -1.2720601202591476e+01 2.4238372957584584e+00 1 1 0
424 142 1 -8.1999999999999995e-01 -1.4874073172454159e+01 -4.5741558929321258e+00 2.8304042225165329e+00 0 4 -1
1193 398 2 4.0999999999999998e-01 -8.0622112967743149e+00 -1.2479989664418982e+01 4.2742330442570164e-01 0 2 2
1775 592 2 4.0999999999999998e-01 -6.3468098993703030e+00 -8.9501340040737922e+00 6.4265142751815549e+00 0 3 -2
1004 335 2 4.0999999999999998e-01 -7.8542414468411677e+00 -1.1020296497035002e+01 6.6241601257432432e+00 2 2 0
2337 779 2 4.0999999999999998e-01 -8.6782366483524456e+00 -9.5493133641257444e+00 3.8645417242724989e-01 0 1 0
100 34 1 -8.1999999999999995e-01 -1.2712405397108579e+01 -9.8602275835605369e+00 5.9697772416866481e+00 -1 2 0
2409 803 2 4.0999999999999998e-01 -7.7026025967542093e+00 -1.4375779310209122e+01 6.6167399417865003e+00 2 2 0
102 34 2 4.0999999999999998e-01 -1.3668590147763027e+01 -9.8293827399858742e+00 6.2608891958221395e+00 -1 2 0
13 5 1 -8.1999999999999995e-01 -1.4627473678941552e+01 -4.5978541224831631e+00 7.4077739446417485e+00 -4 2 -1
332 111 2 4.0999999999999998e-01 -6.4174644601300912e+00 -1.0376847288257611e+01 1.5900790386520942e+00 2 0 0
1229 410 2 4.0999999999999998e-01 -1.0445702731331812e+01 -1.5373322390693644e-01 7.2412862098342732e+00 0 2 -1
1724 575 2 4.0999999999999998e-01 -1.0897187962213092e+01 -1.2888059355695223e+01 6.3771493592762329e+00 -1 -2 2
1395 465 2 4.0999999999999998e-01 -5.4677373554698470e+00 -2.3868644344062169e+00 2.4551276325721894e-01 0 0 1
1723 575 1 -8.1999999999999995e-01 -1.0737867788452366e+01 -1.3849236508313197e+01 6.1518881763211137e+00 -1 -2 2