LAMMPS data file via write_data, version 15 May 2015, timestep = 18500000

2593 atoms
6 atom types
1728 bonds
4 bond types
864 angles
3 angle types
0 dihedrals
3 dihedral types
0 impropers
1 improper types

-1.4969900746008381e+01 1.4969900746008381e+01 xlo xhi
-1.4969900746008381e+01 1.4969900746008381e+01 ylo yhi
-1.4969900746008381e+01 1.4969900746008381e+01 zlo zhi

Masses

1 15.9994
2 1.00794
3 12.0107
4 1.00794
5 12.0107
6 12.0107

Bond Coeffs # harmonic

1 1000 1
2 469 1.4
3 367 1.08
4 469 0.7

Angle Coeffs # harmonic

1 100 109.47
2 35 120
3 63 120

Dihedral Coeffs # opls

1 0 7.25 0 0
2 0 7.25 0 0
3 0 7.25 0 0

Improper Coeffs # cvff

1 2.5 -1 2

Atoms # full

904 302 1 -8.1999999999999995e-01 -1.1439426086545149e+01 -1.4768869221787769e+01 -9.7277928337321633e+00 -2 7 3
1381 461 1 -8.1999999999999995e-01 -1.0421698644741697e+01 -1.2786160633334244e+01 -1.2652798306772844e+01 4 5 0
55 19 1 -8.1999999999999995e-01 -1.3079458855757744e+01 -9.2274267313320539e+00 -1.1176303127327916e+01 -5 3 0
56 19 2 4.0999999999999998e-01 -1.3853446657955370e+01 -8.6052102276863280e+00 -1.1293710907504224e+01 -5 3 0
1096 366 1 -8.1999999999999995e-01 -1.1163851928472942e+01 -7.1421308822658540e+00 -1.0213344148951842e+01 -3 4 1
1382 461 2 4.0999999999999998e-01 -9.8128214228195532e+00 -1.1992987643832375e+01 -1.2640956834834913e+01 4 5 0
436 146 1 -8.1999999999999995e-01 -1.1329232510389167e+01 -8.4617187413526516e+00 -1.2989299510771083e+01 2 5 -1
57 19 2 4.0999999999999998e-01 -1.2919229085584451e+01 -9.3797753771611383e+00 -1.0201053733478656e+01 -5 3 0
1383 461 2 4.0999999999999998e-01 -1.1159242060607310e+01 -1.2630403083045884e+01 -1.3309886107149220e+01 4 5 0
438 146 2 4.0999999999999998e-01 -1.1877973708907813e+01 -8.7696820101428017e+00 -1.2212101445195453e+01 2 5 -1
1115 372 2 4.0999999999999998e-01 -1.1168340590237939e+01 -6.3146830449007307e+00 -8.2185391480925691e+00 3 0 3
1097 366 2 4.0999999999999998e-01 -1.1374534398482496e+01 -6.6255384311332683e+00 -1.1043247890424041e+01 -3 4 1
1098 366 2 4.0999999999999998e-01 -1.0174145285717781e+01 -7.2644692010380396e+00 -1.0139120245287319e+01 -3 4 1
691 231 1 -8.1999999999999995e-01 -1.1374594162729990e+01 -5.7980956743357162e+00 -1.2487282021703855e+01 -7 0 1
866 289 2 4.0999999999999998e-01 -7.7632335534369838e+00 -9.7635725802590354e+00 -1.2148934186045896e+01 -1 4 9
693 231 2 4.0999999999999998e-01 -1.0530044358105599e+01 -5.6262922911235353e+00 -1.2994445032645867e+01 -7 0 1
455 152 2 4.0999999999999998e-01 -9.0502866259613413e+00 -1.0421670550049919e+01 -1.4214614237700939e+01 7 4 -1
454 152 1 -8.1999999999999995e-01 -9.2660609484687662e+00 -1.0212425813602518e+01 -1.3260856849447764e+01 7 4 -1
456 152 2 4.0999999999999998e-01 -9.9853580709643417e+00 -9.5185849511549137e+00 -1.3226337380256210e+01 7 4 -1
103 35 1 -8.1999999999999995e-01 -1.3851023707478308e+01 -1.2073084764384891e+01 -1.1713556012242570e+01 4 0 1
2035 679 1 -8.1999999999999995e-01 -8.5244309717999833e+00 -7.7147102270483332e+00 -1.0034531329982228e+01 3 0 0
2309 770 2 4.0999999999999998e-01 -1.1923385241904922e+01 -1.1707638460295376e+01 -8.3009930286771265e+00 4 5 5
104 35 2 4.0999999999999998e-01 -1.3298906648304353e+01 -1.1239803484162099e+01 -1.1741913270477861e+01 4 0 1
437 146 2 4.0999999999999998e-01 -1.1296078944490832e+01 -7.4623155443511449e+00 -1.2998742895291418e+01 2 5 -1
2308 770 1 -8.1999999999999995e-01 -1.1988245658247095e+01 -1.2605829207282181e+01 -7.8662039047416208e+00 4 5 5
105 35 2 4.0999999999999998e-01 -1.4698350310842740e+01 -1.1929055763309755e+01 -1.2224719727720446e+01 4 0 1
2037 679 2 4.0999999999999998e-01 -7.9292621617234742e+00 -8.3242923454494804e+00 -1.0558152199899634e+01 3 0 0
179 60 2 4.0999999999999998e-01 -1.1039526298645612e+01 -9.4761598697069402e+00 -7.8014430790870835e+00 3 11 -3
178 60 1 -8.1999999999999995e-01 -1.1592203012687129e+01 -9.7479365935227591e+00 -8.5892761394983328e+00 3 11 -3
428 143 2 4.0999999999999998e-01 -8.3126007362755736e+00 -1.4331524694130501e+01 -1.0622385193047965e+01 -4 6 -1
2036 679 2 4.0999999999999998e-01 -8.0734186632133316e+00 -7.4631469773644357e+00 -9.1782026038295914e+00 3 0 0
905 302 2 4.0999999999999998e-01 -1.1553007741656970e+01 -1.3908403120224314e+01 -9.2311114755044184e+00 -2 7 3
1116 372 2 4.0999999999999998e-01 -1.2168402059621014e+01 -5.0256213538941257e+00 -8.1491823233014422e+00 3 0 3
2046 682 2 4.0999999999999998e-01 -1.3021831991601243e+01 -1.4178188243487783e+01 -1.2005012916512527e+01 0 -1 3
180 60 2 4.0999999999999998e-01 -1.1422388588131238e+01 -9.1194114768900487e+00 -9.3482980748912681e+00 3 11 -3
2075 692 2 4.0999999999999998e-01 -8.2207253848312369e+00 -5.3383201865766363e+00 -1.4155442259049076e+01 -3 7 1
2074 692 1 -8.1999999999999995e-01 -9.1910277819641575e+00 -5.1133623690746486e+00 -1.4066547309672680e+01 -3 7 1
906 302 2 4.0999999999999998e-01 -1.1811579695542978e+01 -1.4672490625296584e+01 -1.0650943924956522e+01 -2 7 3
339 113 2 4.0999999999999998e-01 -9.7782845184944343e+00 -1.4177935469820747e+01 -1.3950280816413697e+01 -1 11 10
1475 492 2 4.0999999999999998e-01 -1.2335534029032825e+01 -5.5870798140145901e+00 -1.4155614023458330e+01 1 2 -4
2314 772 1 -8.1999999999999995e-01 -8.6316833073679362e+00 -1.4564528902430261e+01 -8.8973444108464488e+00 -1 11 4
304 102 1 -8.1999999999999995e-01 -1.2260300308787247e+01 -1.2670240196826605e+01 -1.4950857658403356e+01 -2 1 5
429 143 2 4.0999999999999998e-01 -9.3095690514103957e+00 -1.3969707206039301e+01 -1.1864059710160166e+01 -4 6 -1
798 266 2 4.0999999999999998e-01 -1.2386520500024494e+01 -9.1723455877835978e+00 -1.4446312435619967e+01 0 6 -2
2508 836 2 4.0999999999999998e-01 -7.6762862216271159e+00 -6.3942228045145928e+00 -1.1279981215878530e+01 1 5 -2
843 281 2 4.0999999999999998e-01 -7.7171841747053946e+00 -1.3241692437299967e+01 -8.0735177215328875e+00 -2 5 2
2315 772 2 4.0999999999999998e-01 -9.5332826308476957e+00 -1.4607829879911236e+01 -9.3277381416916860e+00 -1 11 4
797 266 2 4.0999999999999998e-01 -1.2523787439156804e+01 -1.0733259298353950e+01 -1.4906007471115947e+01 0 6 -2
1114 372 1 -8.1999999999999995e-01 -1.1474610818409111e+01 -5.5483510736757697e+00 -7.6538012117468801e+00 3 0 3
427 143 1 -8.1999999999999995e-01 -8.5370485120951898e+00 -1.4535255391369434e+01 -1.1575334329701603e+01 -4 6 -1
2076 692 2 4.0999999999999998e-01 -9.6417967713378001e+00 -5.2260711212412030e+00 -1.4952041028914486e+01 -3 7 1
337 113 1 -8.1999999999999995e-01 -9.7068257186022535e+00 -1.4863525967394215e+01 -1.4674749164295337e+01 -1 11 10
768 256 2 4.0999999999999998e-01 -6.3660045221195247e+00 -7.2884143306047529e+00 -1.4643204179262149e+01 -4 5 3
717 239 2 4.0999999999999998e-01 -4.2090873236153996e+00 -5.0403480762923358e+00 -9.5041982085903065e+00 0 2 4
870 290 2 4.0999999999999998e-01 -4.9028228934054408e+00 -8.7337832827352049e+00 -1.3819733363596335e+01 2 3 8
2029 677 1 -8.1999999999999995e-01 -1.7256534611741330e+00 -7.4673292332373977e+00 -1.4149566429916643e+01 -1 5 7
2458 820 1 -8.1999999999999995e-01 -1.1455352249131323e-01 -1.3385794560916569e+01 -7.7066758085686082e+00 -3 4 1
408 136 2 4.0999999999999998e-01 -4.5505765655407906e+00 -1.4302754916454166e+01 -1.4029440329097902e+01 -2 5 0
865 289 1 -8.1999999999999995e-01 -7.0216715519178159e+00 -9.3670360457354285e+00 -1.1607787589095619e+01 -1 4 9
2023 675 1 -8.1999999999999995e-01 -3.4857774178228773e+00 -1.1464216432223367e+01 -1.4070158401642237e+01 -3 1 0
320 107 2 4.0999999999999998e-01 -1.8824090896647849e+00 -1.4123045438617829e+01 -1.1749615963670106e+01 -7 3 3
2507 836 2 4.0999999999999998e-01 -6.2874654785042630e+00 -5.5611564780904867e+00 -1.1070718748586422e+01 1 5 -2
2030 677 2 4.0999999999999998e-01 -1.3904864227251181e+00 -7.0832380439979410e+00 -1.3289257124403631e+01 -1 5 7
576 192 2 4.0999999999999998e-01 -6.3847359439809459e-01 -6.0052982106330326e+00 -1.1032090715283704e+01 -3 2 -8
2025 675 2 4.0999999999999998e-01 -3.5169712358056202e+00 -1.2431501241702081e+01 -1.4321916439110305e+01 -3 1 0
869 290 2 4.0999999999999998e-01 -4.6283534243831284e+00 -8.0922323149578439e+00 -1.2343355293277513e+01 2 3 8
1258 420 1 -8.1999999999999995e-01 -8.3643065511116887e-01 -6.0389751682885269e+00 -8.7513744988732363e+00 -3 2 0
868 290 1 -8.1999999999999995e-01 -4.2086138163905655e+00 -8.3419404993558928e+00 -1.3215971791684199e+01 2 3 8
277 93 1 -8.1999999999999995e-01 -1.7574548020766549e+00 -1.0422701733873051e+01 -9.4424670829896904e+00 2 4 3
574 192 1 -8.1999999999999995e-01 -4.7131821881524161e-01 -6.5058914353704687e+00 -1.1881479068734786e+01 -3 2 -8
2418 806 2 4.0999999999999998e-01 -5.1824951045176171e-01 -8.2634745050018417e+00 -1.1604006891426501e+01 1 4 2
769 257 1 -8.1999999999999995e-01 -6.8907179968695242e+00 -6.1340686513476488e+00 -7.6676021050917429e+00 3 8 2
841 281 1 -8.1999999999999995e-01 -7.0721080329543513e+00 -1.2501554767062597e+01 -7.8836017032645813e+00 -2 5 2
2416 806 1 -8.1999999999999995e-01 -3.7519657561761122e-01 -9.2523595918395252e+00 -1.1563544333995072e+01 1 4 2
766 256 1 -8.1999999999999995e-01 -6.2893941937490432e+00 -6.3200291248898974e+00 -1.4405809913028301e+01 -4 5 3
279 93 2 4.0999999999999998e-01 -2.5592282434063627e+00 -1.0462909580603768e+01 -8.8461972414777215e+00 2 4 3
771 257 2 4.0999999999999998e-01 -6.1193249194932466e+00 -6.0752290380593923e+00 -8.3012311033183259e+00 3 8 2
2024 675 2 4.0999999999999998e-01 -2.7191851836115823e+00 -1.1022940372452062e+01 -1.4536641903212040e+01 -3 1 0
767 256 2 4.0999999999999998e-01 -6.4609300059479313e+00 -6.2020373927858170e+00 -1.3427725809824434e+01 -4 5 3
2417 806 2 4.0999999999999998e-01 -9.4459038884851054e-01 -9.6421720999042932e+00 -1.0839781953229306e+01 1 4 2
2506 836 1 -8.1999999999999995e-01 -7.0012907906826101e+00 -5.8068717559992606e+00 -1.1726517877317551e+01 1 5 -2
549 183 2 4.0999999999999998e-01 -5.5083377609303774e-01 -9.7589073026386952e+00 -1.3683150376824765e+01 -2 2 0
842 281 2 4.0999999999999998e-01 -6.4943078672207442e+00 -1.2349067052336050e+01 -8.6854056337913796e+00 -2 5 2
2084 695 2 4.0999999999999998e-01 -4.0717030028974648e+00 -1.3393411442413061e+01 -9.8246875178253354e+00 2 1 -1
278 93 2 4.0999999999999998e-01 -9.4828866052147376e-01 -1.0715736354578810e+01 -8.9331774372339332e+00 2 4 3
2085 695 2 4.0999999999999998e-01 -3.6516848210349622e+00 -1.2136933006116195e+01 -8.8699833681226110e+00 2 1 -1
1425 475 2 4.0999999999999998e-01 -9.7009734106071832e-02 -7.9424413045215223e+00 -1.4892828204235828e+01 -6 2 -1
548 183 2 4.0999999999999998e-01 -5.4564483020848265e-01 -1.1333129417009024e+01 -1.4117213886886235e+01 -2 2 0
1988 663 2 4.0999999999999998e-01 -4.2872197302273793e+00 -1.0869569519682043e+01 -1.2541950214033605e+01 4 -2 5
2083 695 1 -8.1999999999999995e-01 -4.2248539444159778e+00 -1.2423034533393135e+01 -9.6378493333318893e+00 2 1 -1
2031 677 2 4.0999999999999998e-01 -2.5773601027008315e+00 -7.9642726511153343e+00 -1.3983319253421202e+01 -1 5 7
716 239 2 4.0999999999999998e-01 -4.1866289163587336e+00 -6.5793945615007861e+00 -1.0049583260134781e+01 0 2 4
867 289 2 4.0999999999999998e-01 -6.1864723253131970e+00 -9.8992245973677626e+00 -1.1746397352105935e+01 -1 4 9
1259 420 2 4.0999999999999998e-01 -1.3749856607101592e+00 -6.7950702577039159e+00 -8.3795226423170277e+00 -3 2 0
1987 663 1 -8.1999999999999995e-01 -4.9593992359094194e+00 -1.0962948958892405e+01 -1.1807477562267144e+01 4 -2 5
547 183 1 -8.1999999999999995e-01 -7.7546502363321324e-01 -1.0405630879698013e+01 -1.4412043020629234e+01 -2 2 0
1989 663 2 4.0999999999999998e-01 -4.6233676828493344e+00 -1.1616433314851696e+01 -1.1129217971824383e+01 4 -2 5
1881 627 2 4.0999999999999998e-01 -5.5327811282975681e-01 -1.3750739518698031e+01 -1.3330106438020419e+01 -2 4 -3
715 239 1 -8.1999999999999995e-01 -4.7740641266338226e+00 -5.8292239102455188e+00 -9.7460064098965127e+00 0 2 4
1879 627 1 -8.1999999999999995e-01 -6.9364527645237928e-02 -1.2997297438840643e+01 -1.3775244345530460e+01 -2 4 -3
272 91 2 4.0999999999999998e-01 -2.0894075557206087e+00 -1.4176456841316313e+01 -8.1156802915100936e+00 -5 7 8
509 170 2 4.0999999999999998e-01 -6.1743041278405570e+00 -9.1883992489747719e+00 -8.2481025723524599e+00 -4 -4 2
687 229 2 4.0999999999999998e-01 -6.3643984243990435e+00 -1.4926015654757508e+01 -1.2308949606096581e+01 -7 8 3
319 107 1 -8.1999999999999995e-01 -1.3174454875185830e+00 -1.4851449639957753e+01 -1.2137222109632409e+01 -7 3 3
894 298 2 4.0999999999999998e-01 -1.1982800636722107e+01 -1.2248323958494902e+01 -2.9462974240482378e+00 -1 3 5
2576 859 2 4.0999999999999998e-01 -1.1159834538027210e+01 -1.0393363382048328e+01 -2.9245629381992817e+00 2 3 1
793 265 1 -8.1999999999999995e-01 -1.0416399882333643e+01 -8.7129575946455446e+00 -6.5178413233587147e+00 -1 8 5
1414 472 1 -8.1999999999999995e-01 -1.1154295368357733e+01 -7.8628711083797294e+00 -6.3904758080194846e-01 -2 3 0
1231 411 1 -8.1999999999999995e-01 -1.0212381152960017e+01 -5.8477979436632310e+00 -2.1945972456221412e+00 -2 8 -3
893 298 2 4.0999999999999998e-01 -1.1189176073523091e+01 -1.3675477206840309e+01 -2.9489447010436525e+00 -1 3 5
794 265 2 4.0999999999999998e-01 -9.7981328241803709e+00 -9.3443916428785165e+00 -6.0498328234651080e+00 -1 8 5
1395 465 2 4.0999999999999998e-01 -8.2934470109692864e+00 -6.8785547270784804e+00 -5.0295935112871994e+00 1 4 2
2152 718 1 -8.1999999999999995e-01 -9.3987893646583345e+00 -1.0834949026524987e+01 -2.8017451956286177e+00 1 10 3
2154 718 2 4.0999999999999998e-01 -9.2067790969328378e+00 -1.0485441415170833e+01 -1.8847001799425520e+00 1 10 3
1892 631 2 4.0999999999999998e-01 -1.0276177516728144e+01 -5.7586716724721239e+00 -4.3646016353505566e+00 -2 13 2
1233 411 2 4.0999999999999998e-01 -1.0434456727522054e+01 -6.7476565132609210e+00 -1.8191880279175070e+00 -2 8 -3
1232 411 2 4.0999999999999998e-01 -1.0184299007302711e+01 -5.1756538515556834e+00 -1.4547129258970912e+00 -2 8 -3
1891 631 1 -8.1999999999999995e-01 -1.0195541182999683e+01 -6.2271193463487027e+00 -5.2444025304950408e+00 -2 13 2
795 265 2 4.0999999999999998e-01 -1.0337758001526861e+01 -7.8042466356497702e+00 -6.1078962912232253e+00 -1 8 5
2153 718 2 4.0999999999999998e-01 -8.5378765409328068e+00 -1.1040406530014614e+01 -3.2671604646447108e+00 1 10 3
1893 631 2 4.0999999999999998e-01 -1.0712618818625993e+01 -5.7253264934508739e+00 -5.9378213980219474e+00 -2 13 2
850 284 1 -8.1999999999999995e-01 -1.2871666939319084e+01 -9.8757898177323540e+00 -5.7979636817925755e+00 3 4 1
852 284 2 4.0999999999999998e-01 -1.2392523680124407e+01 -9.2953080981962799e+00 -6.4563387901877487e+00 3 4 1
2575 859 1 -8.1999999999999995e-01 -1.2123643743486138e+01 -1.0166393788294698e+01 -3.0643903569036084e+00 2 3 1
2430 810 2 4.0999999999999998e-01 -8.9050838445462297e+00 -1.3999095642102576e+01 -2.4575894146062804e+00 -1 7 -4
2502 834 2 4.0999999999999998e-01 -1.3538862364564913e+01 -1.0935031986382448e+01 -1.5138594087207817e+00 1 10 4
772 258 1 -8.1999999999999995e-01 -8.4080612245867989e+00 -1.0511962787522872e+01 -2.1804302201041281e-01 -1 7 -2
1406 469 2 4.0999999999999998e-01 -7.7365092141413987e+00 -1.0057009760175980e+01 -6.4728670356219435e+00 -3 3 -3
1405 469 1 -8.1999999999999995e-01 -8.3646907263451880e+00 -1.0822588953957617e+01 -6.3340449335207722e+00 -3 3 -3
773 258 2 4.0999999999999998e-01 -7.6325629484658037e+00 -9.8850011988599142e+00 -2.9231732465189886e-01 -1 7 -2
851 284 2 4.0999999999999998e-01 -1.3462862279440207e+01 -1.0516945555390549e+01 -6.2872513889449895e+00 3 4 1
397 133 1 -8.1999999999999995e-01 -9.7473943948690867e+00 -1.3133133632600483e+01 -5.5643324218471815e+00 1 2 8
2500 834 1 -8.1999999999999995e-01 -1.3890036009057040e+01 -1.1707542921479995e+01 -9.8480459582472513e-01 1 10 4
2589 863 2 4.0999999999999998e-01 -8.6008698089683371e+00 -5.4615827414419460e+00 -2.8130470548644162e+00 1 1 1
399 133 2 4.0999999999999998e-01 -9.3128154411811828e+00 -1.2232520751588094e+01 -5.5586185973468041e+00 1 2 8
2501 834 2 4.0999999999999998e-01 -1.4280500074716503e+01 -1.2386958451454770e+01 -1.6060351631769247e+00 1 10 4
2428 810 1 -8.1999999999999995e-01 -9.7219426680191710e+00 -1.4539543103950768e+01 -2.6592159907549817e+00 -1 7 -4
1416 472 2 4.0999999999999998e-01 -1.1424985642103641e+01 -8.2226069151543975e+00 -1.5319708703346269e+00 -2 3 0
2587 863 1 -8.1999999999999995e-01 -7.7386792316411235e+00 -5.0191990718721051e+00 -3.0598651731159769e+00 1 1 1
2577 859 2 4.0999999999999998e-01 -1.2327186629633337e+01 -1.0165357371403582e+01 -4.0434533326500457e+00 2 3 1
1393 465 1 -8.1999999999999995e-01 -7.5585585995152993e+00 -7.4732242052507383e+00 -5.3556338656589748e+00 1 4 2
892 298 1 -8.1999999999999995e-01 -1.2019585391790830e+01 -1.3202470646109326e+01 -3.2433597915669932e+00 -1 3 5
398 133 2 4.0999999999999998e-01 -9.0590660515446118e+00 -1.3834189496700082e+01 -5.7506650161672113e+00 1 2 8
1407 469 2 4.0999999999999998e-01 -8.1942900939963881e+00 -1.1523387579913900e+01 -7.0267497828587535e+00 -3 3 -3
42 14 2 4.0999999999999998e-01 -1.3720055659279232e+01 -1.3539610533115660e+01 -3.8609555567236047e+00 -5 8 -1
1186 396 1 -8.1999999999999995e-01 -1.3765145971753267e+01 -1.4545943362831565e+01 -7.1418405591839598e+00 -3 15 3
774 258 2 4.0999999999999998e-01 -8.0857803361862324e+00 -1.1453666411900439e+01 -3.1460588880569240e-01 -1 7 -2
158 53 2 4.0999999999999998e-01 -1.3893376006579409e+01 -5.2029620050945748e+00 -6.4179427628840227e+00 -4 5 1
977 326 2 4.0999999999999998e-01 -1.4301436262614448e+01 -7.1988099054464305e+00 -7.3276484643683482e+00 2 5 5
976 326 1 -8.1999999999999995e-01 -1.4878995519579599e+01 -6.4064805211709004e+00 -7.1310918235923415e+00 2 5 5
1791 597 2 4.0999999999999998e-01 -1.4767531300338923e+01 -5.3952519310273406e+00 -4.1607997411517772e+00 2 1 -2
40 14 1 -8.1999999999999995e-01 -1.4706473270209692e+01 -1.3689914881141217e+01 -3.9271671164591080e+00 -5 8 -1
2310 770 2 4.0999999999999998e-01 -1.1308305601860347e+01 -1.2672540667014996e+01 -7.1359805304422093e+00 4 5 5
2429 810 2 4.0999999999999998e-01 -1.0070494253257605e+01 -1.4944765832833383e+01 -1.8140524544047523e+00 -1 7 -4
1188 396 2 4.0999999999999998e-01 -1.3330181103829787e+01 -1.3650725767643801e+01 -7.2387224624385968e+00 -3 15 3
92 31 2 4.0999999999999998e-01 -2.5122800072287550e+00 -1.4856001283737232e+01 -3.7480849537791929e+00 -5 5 -1
2588 863 2 4.0999999999999998e-01 -6.9736913696490967e+00 -5.5800688092179911e+00 -2.7432995835774161e+00 1 1 1
328 110 1 -8.1999999999999995e-01 -7.3512593953723453e+00 -1.3111733323504842e+01 -9.6880782300816648e-02 -2 5 5
1574 525 2 4.0999999999999998e-01 -3.2482494495955354e+00 -5.7885869089304691e+00 -3.3348521694540008e+00 -4 2 -1
2519 840 2 4.0999999999999998e-01 -1.5948010046968726e+00 -8.9015128564566268e+00 -7.1022626648764060e+00 0 4 2
508 170 1 -8.1999999999999995e-01 -6.0101072099956454e+00 -9.3252617258467261e+00 -7.2712181907442073e+00 -4 -4 2
1420 474 1 -8.1999999999999995e-01 -6.1502660888403806e+00 -8.9174607919717968e+00 -3.7967640730942520e-01 4 4 1
2155 719 1 -8.1999999999999995e-01 -3.0267225274253100e+00 -1.3337427363194093e+01 -1.6177203760298422e+00 1 6 -1
1394 465 2 4.0999999999999998e-01 -7.1635468941829776e+00 -7.0882470459651259e+00 -6.1897522056683805e+00 1 4 2
102 34 2 4.0999999999999998e-01 -8.4939666259274382e-01 -5.6199290745211510e+00 -2.4370829704844095e+00 -4 -1 4
2216 739 2 4.0999999999999998e-01 -6.6826314116145156e+00 -1.4597190554094890e+01 -3.2828359169116155e+00 4 4 0
2215 739 1 -8.1999999999999995e-01 -6.7838477838612725e+00 -1.3666892653046501e+01 -2.9302793502203688e+00 4 4 0
1217 406 2 4.0999999999999998e-01 -3.0779681292545789e+00 -1.1298583899884678e+01 -6.4904630729916271e+00 1 6 -4
2518 840 1 -8.1999999999999995e-01 -1.8807016147642859e+00 -7.9717842580432094e+00 -6.8701837106741763e+00 0 4 2
1573 525 1 -8.1999999999999995e-01 -4.1362100843992753e+00 -5.6872239185000542e+00 -3.7834572772351311e+00 -4 2 -1
510 170 2 4.0999999999999998e-01 -5.4358475846783652e+00 -8.5844553076292520e+00 -6.9227546949488925e+00 -4 -4 2
329 110 2 4.0999999999999998e-01 -7.2485281433534805e+00 -1.3251487056236044e+01 -1.0817210041970728e+00 -2 5 5
101 34 2 4.0999999999999998e-01 -1.5519357657021793e+00 -7.0922134096011451e+00 -2.5107782427652801e+00 -4 -1 4
966 322 2 4.0999999999999998e-01 -2.2127560794463133e+00 -6.1670171662344853e+00 -6.1906417358762589e-01 4 0 -2
1486 496 1 -8.1999999999999995e-01 -4.7479493050220007e+00 -1.3401369546896131e+01 -6.1258121751716761e+00 1 4 0
350 117 2 4.0999999999999998e-01 -6.5125413323084125e-01 -5.3790232569497292e+00 -5.4438927572577338e+00 3 1 -1
1488 496 2 4.0999999999999998e-01 -5.4685315266719350e+00 -1.3237696722482864e+01 -6.7995833122905136e+00 1 4 0
1286 429 2 4.0999999999999998e-01 -1.3110308372473352e+00 -1.3273434643750447e+01 -1.6653714998062856e+00 -3 0 3
1532 511 2 4.0999999999999998e-01 -2.6610938785756915e+00 -1.3016465342840991e+01 -5.0882937000511319e+00 -2 3 -2
449 150 2 4.0999999999999998e-01 -5.0059554269969002e+00 -1.0188598900142416e+01 -6.9221626830322869e-01 3 2 0
450 150 2 4.0999999999999998e-01 -3.4169890338208084e+00 -1.0472225309257578e+01 -4.4451640288255234e-01 3 2 0
1421 474 2 4.0999999999999998e-01 -5.9496586699238883e+00 -8.1979489344177452e+00 -1.0445481434766570e+00 4 4 1
2156 719 2 4.0999999999999998e-01 -3.5867493076203161e+00 -1.4076619904732919e+01 -1.9918319467355445e+00 1 6 -1
728 243 2 4.0999999999999998e-01 -7.4181584100057529e+00 -9.2202766807086931e+00 -4.0511705319576414e+00 0 2 3
727 243 1 -8.1999999999999995e-01 -6.5104355755508632e+00 -9.6386736472604362e+00 -4.0824484928931426e+00 0 2 3
2106 702 2 4.0999999999999998e-01 -5.0286239989165029e+00 -6.4629204414783814e+00 -6.5932843329090183e+00 -1 1 3
2157 719 2 4.0999999999999998e-01 -3.6209800433481085e+00 -1.2611048497004889e+01 -1.2724279952137625e+00 1 6 -1
1487 496 2 4.0999999999999998e-01 -4.9284881477745746e+00 -1.2857917664902565e+01 -5.3060189941761546e+00 1 4 0
351 117 2 4.0999999999999998e-01 -1.7488727044797763e+00 -6.2118746390488706e+00 -6.3203660326799156e+00 3 1 -1
1285 429 1 -8.1999999999999995e-01 -3.3327553985143510e-01 -1.3214349790090463e+01 -1.4641287173449182e+00 -3 0 3
2520 840 2 4.0999999999999998e-01 -2.7916176816635279e+00 -7.9962047763609183e+00 -6.4583213134017914e+00 0 4 2
2267 756 2 4.0999999999999998e-01 -5.0906022851138744e+00 -6.2728713054324459e+00 -2.4174260966926635e+00 -2 -1 4
527 176 2 4.0999999999999998e-01 -9.4193949881028338e-01 -9.9251417281909049e+00 -8.9925582186230812e-02 -2 0 3
1218 406 2 4.0999999999999998e-01 -4.3535483038803608e+00 -1.0538802296819409e+01 -7.1703457611150760e+00 1 6 -4
2268 756 2 4.0999999999999998e-01 -5.4315590176686008e+00 -5.7307781243237788e+00 -9.1526204347432660e-01 -2 -1 4
729 243 2 4.0999999999999998e-01 -6.0096274922999697e+00 -9.2895872310982810e+00 -4.8744870118150381e+00 0 2 3
100 34 1 -8.1999999999999995e-01 -1.7122077020754922e+00 -6.1181152498929077e+00 -2.3512766609556941e+00 -4 -1 4
2217 739 2 4.0999999999999998e-01 -6.1526431735297162e+00 -1.3057904405488820e+01 -3.4106012667801604e+00 4 4 0
2104 702 1 -8.1999999999999995e-01 -4.5232417013621458e+00 -7.1452145239859846e+00 -6.0650243585285946e+00 -1 1 3
1216 406 1 -8.1999999999999995e-01 -3.3942056082988454e+00 -1.0792923033841774e+01 -7.2931435897910806e+00 1 6 -4
2266 756 1 -8.1999999999999995e-01 -5.6477536878148271e+00 -6.4255931438719642e+00 -1.6011826073587798e+00 -2 -1 4
1533 511 2 4.0999999999999998e-01 -1.8483398837354041e+00 -1.1995144232093082e+01 -4.1069948292804774e+00 -2 3 -2
1531 511 1 -8.1999999999999995e-01 -2.6579010686461721e+00 -1.2101725233771457e+01 -4.6842696763804987e+00 -2 3 -2
1332 444 2 4.0999999999999998e-01 -2.6603480955290060e-01 -9.8012592517590740e+00 -3.2740576696342227e+00 0 -2 6
2105 702 2 4.0999999999999998e-01 -4.3730373680998902e+00 -6.8040398317796260e+00 -5.1371054015489062e+00 -1 1 3
1330 444 1 -8.1999999999999995e-01 -7.3318820430827714e-01 -8.9493182544288388e+00 -3.0375003836098742e+00 0 -2 6
448 150 1 -8.1999999999999995e-01 -4.3115591464612582e+00 -1.0898957654084718e+01 -5.7732793133204829e-01 3 2 0
2378 793 2 4.0999999999999998e-01 -4.1859933103999882e+00 -1.1649229034606373e+01 -4.2404946040673845e+00 -3 1 -1
1331 444 2 4.0999999999999998e-01 -1.4871167970557622e+00 -9.1455748325197703e+00 -2.4105473465464549e+00 0 -2 6
2379 793 2 4.0999999999999998e-01 -5.6022606736373994e+00 -1.0970676278720177e+01 -3.7928716490200998e+00 -3 1 -1
2377 793 1 -8.1999999999999995e-01 -5.0932452204152696e+00 -1.1828795709086627e+01 -3.8601725430822391e+00 -3 1 -1
349 117 1 -8.1999999999999995e-01 -1.5968471630114909e+00 -5.3915865066368429e+00 -5.7689943844952793e+00 3 1 -1
770 257 2 4.0999999999999998e-01 -6.9797955382526808e+00 -5.2713129600854227e+00 -7.1698944581510693e+00 3 8 2
526 176 1 -8.1999999999999995e-01 -1.8230564421634750e+00 -9.4621928921354090e+00 -1.8639520617899841e-01 -2 0 3
2087 696 2 4.0999999999999998e-01 -9.7668578863852034e+00 -8.1590174310260082e+00 3.7168983228277597e+00 -3 2 2
2086 696 1 -8.1999999999999995e-01 -9.8419766320799198e+00 -7.7695967618844897e+00 4.6348873155790216e+00 -3 2 2
2088 696 2 4.0999999999999998e-01 -9.1612030141141574e+00 -7.0456731502884997e+00 4.7465876141088437e+00 -3 2 2
2251 751 1 -8.1999999999999995e-01 -8.9539048825611030e+00 -1.0538150743650588e+01 3.8004492651708084e+00 0 2 -1
1277 426 2 4.0999999999999998e-01 -8.8214640195045213e+00 -1.4044175008459227e+01 9.6800719490000731e-01 1 4 -2
756 252 2 4.0999999999999998e-01 -1.4417843610894549e+01 -7.5413181490098244e+00 2.8167597966442344e+00 1 8 2
1248 416 2 4.0999999999999998e-01 -1.2107444175644289e+01 -8.2481177385480660e+00 6.7082840111078497e+00 0 7 -9
1246 416 1 -8.1999999999999995e-01 -1.2976700442824775e+01 -7.7538620761634425e+00 6.6982856261880350e+00 0 7 -9
1247 416 2 4.0999999999999998e-01 -1.3038129849523743e+01 -7.2043841140098124e+00 5.8650416658587332e+00 0 7 -9
2252 751 2 4.0999999999999998e-01 -8.6909257483002520e+00 -1.0181129364182421e+01 4.6967599100088471e+00 0 2 -1
636 212 2 4.0999999999999998e-01 -1.0318398467245245e+01 -1.3501535424910749e+01 4.1373752711514129e+00 0 5 6
98 33 2 4.0999999999999998e-01 -7.8105030035960281e+00 -6.9505814439157287e+00 2.4177403002325981e-01 1 6 5
2240 747 2 4.0999999999999998e-01 -1.1768474558046025e+01 -1.0282726893260557e+01 5.8749971671677947e+00 -2 -3 -1
2239 747 1 -8.1999999999999995e-01 -1.2214181784131910e+01 -1.0694962860388248e+01 5.0803892962358148e+00 -2 -3 -1
2241 747 2 4.0999999999999998e-01 -1.1778170124714403e+01 -1.1570045357087054e+01 4.8703427375204278e+00 -2 -3 -1
2362 788 1 -8.1999999999999995e-01 -1.1430074520385375e+01 -1.3771726795113215e+01 7.1985124281631592e+00 0 2 5
1524 508 2 4.0999999999999998e-01 -7.6370747827757066e+00 -6.6503119122098973e+00 7.0129609943307472e+00 1 9 3
2078 693 2 4.0999999999999998e-01 -1.1261892261034221e+01 -1.1069504314953839e+01 1.0004199900520838e+00 0 5 -1
884 295 2 4.0999999999999998e-01 -8.0793685673803548e+00 -6.0423816520605822e+00 2.4992343475767953e+00 2 4 1
1934 645 2 4.0999999999999998e-01 -1.2461364901704396e+01 -1.2619654210114099e+01 1.7424936221694587e+00 -4 3 8
807 269 2 4.0999999999999998e-01 -1.3295426165893430e+01 -1.1796246754497682e+01 4.1545654564072869e+00 2 3 1
1597 533 1 -8.1999999999999995e-01 -1.3404741414827011e+01 -8.5058828028884825e+00 3.6040225323491875e+00 -4 5 1
2253 751 2 4.0999999999999998e-01 -9.5391003708399857e+00 -1.1340214961129057e+01 3.9197568852176516e+00 0 2 -1
635 212 2 4.0999999999999998e-01 -1.0728837279667903e+01 -1.3014695179938789e+01 5.6410839897853329e+00 0 5 6
1306 436 1 -8.1999999999999995e-01 -1.3643880852930915e+01 -5.7201155670515664e+00 3.0153261940896137e-01 2 -2 3
2077 693 1 -8.1999999999999995e-01 -1.0829595087591045e+01 -1.0168027831741727e+01 9.7910388687016514e-01 0 5 -1
883 295 1 -8.1999999999999995e-01 -8.1008848659502046e+00 -5.5805317786789619e+00 3.3859286716735078e+00 2 4 1
1522 508 1 -8.1999999999999995e-01 -8.4274317659614884e+00 -6.0521506121004407e+00 6.8805450598186191e+00 1 9 3
1278 426 2 4.0999999999999998e-01 -1.0367481559041288e+01 -1.3582364496615039e+01 7.1666246499422925e-01 1 4 -2
1598 533 2 4.0999999999999998e-01 -1.2449998633626151e+01 -8.7391570524772071e+00 3.7885338241005151e+00 -4 5 1
805 269 1 -8.1999999999999995e-01 -1.3624550447529574e+01 -1.2319853604881057e+01 3.3687485939857034e+00 2 3 1
1599 533 2 4.0999999999999998e-01 -1.3961659728997146e+01 -9.3360487427842695e+00 3.6297434936097908e+00 -4 5 1
806 269 2 4.0999999999999998e-01 -1.4493140584201079e+01 -1.2757953571821032e+01 3.6002970092496724e+00 2 3 1
634 212 1 -8.1999999999999995e-01 -1.0523470721767101e+01 -1.2708816928943124e+01 4.7114291303079234e+00 0 5 6
97 33 1 -8.1999999999999995e-01 -8.4443672954994362e+00 -7.0241221956511319e+00 1.0117109497734482e+00 1 6 5
1263 421 2 4.0999999999999998e-01 -1.1582933611182202e+01 -6.4066506976417461e+00 4.4705656497849553e+00 3 3 2
1933 645 1 -8.1999999999999995e-01 -1.2035204490165281e+01 -1.2842707083374949e+01 8.6577827459573342e-01 -4 3 8
1935 645 2 4.0999999999999998e-01 -1.2640420732159411e+01 -1.2563369997083782e+01 1.2033936784495580e-01 -4 3 8
1262 421 2 4.0999999999999998e-01 -1.2563926853291507e+01 -5.1012615429918089e+00 4.4855573765042855e+00 3 3 2
1010 337 2 4.0999999999999998e-01 -1.1700838668128744e+01 -5.7712285012654672e+00 7.1877354952015864e+00 0 5 4
1857 619 2 4.0999999999999998e-01 -1.4734702558517158e+01 -8.7886950712295757e+00 6.4214951858794045e+00 6 9 4
1261 421 1 -8.1999999999999995e-01 -1.2263984830597776e+01 -5.9031768511958429e+00 5.0022407296521401e+00 3 3 2
1308 436 2 4.0999999999999998e-01 -1.3003671694388114e+01 -6.4590376589624494e+00 5.1158368176885283e-01 2 -2 3
1367 456 2 4.0999999999999998e-01 -1.0144167704078960e+01 -8.5249955653207046e+00 6.2458943084239351e+00 1 0 3
1276 426 1 -8.1999999999999995e-01 -9.7520120080997135e+00 -1.4366661405855472e+01 7.9457697391913484e-01 1 4 -2
1368 456 2 4.0999999999999998e-01 -9.9486570512661743e+00 -9.6091173619924142e+00 7.4513273659551373e+00 1 0 3