2593
Atoms. Timestep: 18495000
O 12.2754 -13.0697 -13.4287
H 12.7153 -12.5917 -12.6684
H 11.5399 -13.649 -13.0774
O -5.31383 -2.23913 -7.46708
H -5.08561 -1.69328 -6.66086
H -6.24348 -2.5961 -7.37568
O 4.49928 10.4098 -11.7242
H 3.85069 10.3479 -12.4828
H 4.0341 10.7725 -10.9167
O 12.0393 -1.69111 -5.43279
H 11.2704 -1.22249 -5.86791
H 12.4653 -2.31329 -6.08961
O -4.15388 5.17558 6.05452
H -3.43619 5.34218 5.37836
H -4.98064 4.85633 5.59128
O -6.01884 5.1259 -7.86014
H -6.03132 4.27557 -8.38627
H -6.54557 5.00502 -7.01873
O -12.6724 -1.3111 6.31753
H -13.1912 -0.618535 5.8163
H -13.1682 -1.56204 7.14895
O 6.53641 10.9685 -5.13352
H 5.53759 11.0161 -5.12284
H 6.91463 11.821 -4.77266
O 6.32242 -2.74176 12.1297
H 6.16142 -2.53417 11.1648
H 6.44193 -1.88927 12.6386
O 8.75839 -12.6916 -5.2393
H 8.64983 -13.201 -6.09293
H 9.52924 -13.0656 -4.72363
O 7.52596 10.1793 -14.4432
H 6.70424 9.64315 -14.6364
H 7.2726 11.0117 -13.9502
O 13.6222 6.01041 14.337
H 14.3034 6.71174 14.127
H 12.7461 6.44724 14.541
O 14.8025 -0.48798 -5.93257
H 13.834 -0.571683 -5.69772
H -14.9096 -1.11141 -6.68409
O 13.3334 -14.6691 -2.54528
H 14.0042 -14.0398 -2.93767
H 13.7412 14.35 -2.45601
O -12.274 9.03246 -12.3647
H -11.4477 8.50577 -12.1652
H -12.092 10.0052 -12.221
O 6.5958 5.28686 9.07145
H 5.69226 5.0861 8.69286
H 6.50904 5.50403 10.0437
O -8.39019 -3.37599 9.51944
H -7.69483 -3.37957 8.80078
H -9.29471 -3.49047 9.10863
O 2.9603 14.5757 10.6353
H 3.37042 14.0526 11.3824
H 1.96658 14.5921 10.7461
O -13.0741 -10.0862 -10.6445
H -13.3445 -9.69587 -11.5246
H -12.2018 -9.68988 -10.358
O -10.5295 14.4913 3.50056
H -9.62991 14.1711 3.79764
H -10.4176 -14.7149 2.81742
O -0.431325 -12.4606 4.37496
H -0.159378 -12.5639 3.41819
H 0.281353 -11.9661 4.87255
O 10.5962 1.05385 13.7409
H 9.96092 1.77357 14.0209
H 11.2843 0.920516 14.4542
O 12.9262 -12.7622 13.8997
H 12.4782 -12.7659 14.7938
H 12.3206 -12.3397 13.2253
O -13.0641 -9.97429 9.82113
H -12.3388 -9.77331 9.1626
H -12.9868 -9.35401 10.6017
O 14.5962 -9.09018 0.963166
H 13.6798 -8.99572 1.35226
H 14.7451 -10.04 0.687901
O -11.212 -6.39116 9.61598
H -10.6606 -6.17041 10.4205
H -12.1671 -6.5081 9.8884
O 5.11944 8.80147 14.8254
H 5.30467 7.89556 -14.7216
H 4.29372 9.1774 -14.6819
O -14.7973 -6.04126 -10.3632
H 14.3481 -5.42424 -10.2785
H 14.853 -6.86567 -10.8565
O 0.751452 5.16744 9.53301
H 0.0470896 4.67685 10.0461
H 0.317557 5.76068 8.85491
O 1.41584 -2.27782 -5.13502
H 1.42765 -3.25868 -5.32943
H 2.11126 -2.0657 -4.44841
O -1.61039 14.8528 -5.28306
H -0.738781 -14.7359 -5.63709
H -1.64805 -14.9291 -4.29448
O 0.320198 -3.98009 7.66489
H 0.706418 -3.19012 8.14113
H 0.946582 -4.75565 7.74348
O -9.38243 -6.12162 -1.26327
H -9.04279 -5.22656 -1.5523
H -9.56438 -6.68519 -2.06907
O -2.01484 -6.38137 -3.74319
H -1.88218 -7.36625 -3.85468
H -1.30052 -6.01416 -3.14743
O -14.1095 -12.611 -12.1786
H -14.1428 -12.6411 -11.1796
H -14.8423 -13.1787 -12.5538
O 5.87729 5.26571 3.34618
H 5.41171 5.74122 4.09261
H 5.59447 5.66023 2.47189
O -8.61447 5.80256 6.43021
H -8.57444 5.47203 7.37317
H -8.1526 6.68729 6.36724
O 0.142319 9.12271 12.7456
H 1.0225 9.55929 12.9319
H -0.0421242 9.15032 11.7631
O -12.0429 7.35088 6.43746
H -12.3072 6.70036 7.14949
H -12.4228 8.25103 6.6507
O 14.0656 4.26236 9.67439
H 13.3223 4.6666 9.14138
H 13.7507 3.41036 10.0927
O 6.66699 -10.7076 -7.0336
H 6.33845 -9.76439 -7.08398
H 6.56317 -11.0472 -6.09877
O -12.5235 12.6358 -6.62696
H -11.9583 13.3776 -6.26602
H -13.0427 12.9657 -7.41537
O -4.67888 10.5165 -4.18828
H -3.94569 10.2116 -3.5804
H -5.45296 10.8369 -3.64226
O -1.233 -10.8649 2.10299
H -0.571082 -10.3914 2.68404
H -1.08044 -10.6104 1.14803
O -10.5125 12.0038 8.22648
H -10.3869 11.2367 7.59729
H -10.1621 11.755 9.12947
O 8.70099 -7.28752 -3.30207
H 8.17139 -7.66383 -2.54184
H 9.6699 -7.26708 -3.05543
O 8.3333 -12.292 5.53362
H 8.17529 -11.4686 4.9885
H 9.30704 -12.5193 5.5195
O 10.3992 10.0224 -11.5594
H 11.3347 10.3172 -11.3645
H 9.76983 10.7828 -11.3993
O 4.81088 7.32253 -5.87357
H 4.38131 7.40372 -6.77296
H 5.16895 8.21327 -5.59357
O 6.30157 8.88904 12.3224
H 6.11481 8.6316 13.2705
H 7.07595 9.52119 12.295
O 10.0449 -0.704099 -12.2548
H 10.2967 -1.27992 -11.477
H 9.32537 -0.0668677 -11.9786
O 11.0744 -12.5033 5.38353
H 11.4299 -11.9087 4.66235
H 11.3113 -13.4531 5.17943
O -14.2588 -7.435 -8.00903
H -14.7099 -8.28721 -8.27417
H -14.2733 -6.79671 -8.7787
O -6.77271 -14.6239 7.57925
H -6.51716 -13.7898 7.09036
H -7.28963 -14.3835 8.40087
O 0.465419 12.1978 9.60921
H 0.636717 12.7095 8.76728
H -0.0812871 12.7561 10.2332
O 0.197513 -14.5554 11.553
H -0.0796864 -13.6392 11.2637
H -0.571111 14.7419 11.4448
O -10.6814 11.3619 -11.9629
H -9.80119 10.8892 -11.9196
H -10.5413 12.2985 -12.2842
O 4.22451 -12.3387 -14.9602
H 3.91475 -11.4423 14.6505
H 4.63187 -12.8399 14.2041
O 1.43504 3.00545 14.9326
H 1.72341 2.05714 14.8
H 0.465992 3.02787 -14.7493
O -11.2182 -11.9985 -7.37478
H -12.065 -11.7901 -7.86429
H -11.2587 -11.6049 -6.45633
O 13.4402 -9.22001 -14.3316
H 13.7156 -8.43601 -13.7753
H 13.2765 -10.0085 -13.7387
O 9.24287 4.66855 -7.8578
H 8.54605 4.94375 -7.19543
H 10.0439 5.25983 -7.764
O 9.93787 -10.4622 -7.68416
H 9.68912 -9.97566 -6.84664
H 9.10822 -10.7724 -8.14839
O -9.40701 -7.20811 7.85403
H -10.0561 -6.82928 8.51374
H -8.48778 -7.19854 8.24769
O 12.1668 14.8231 5.02372
H 13.1325 -14.8453 5.00828
H 12.0637 13.9001 4.65312
O 13.8844 2.34416 -13.4367
H 13.6373 2.49014 -14.3947
H 13.1704 2.7216 -12.847
O 13.0222 4.81159 4.79788
H 13.3647 5.57953 5.33917
H 13.4544 4.82041 3.89611
O 10.1949 -14.8403 -12.4608
H 10.2696 14.3875 -13.1711
H 9.23426 -14.7217 -12.2095
O -1.35629 -5.41245 9.58991
H -0.973263 -5.15089 8.70396
H -0.653277 -5.86885 10.1353
O 14.402 12.8212 -1.47857
H 13.4295 12.6398 -1.62435
H 14.9245 11.983 -1.63459
O 5.84401 -10.3071 -4.2755
H 5.33341 -9.52527 -4.63333
H 6.78558 -10.0305 -4.0832
O 6.92043 2.23448 12.3814
H 7.51011 3.04145 12.3482
H 5.96473 2.51627 12.2962
O -1.42037 0.118961 -11.1097
H -0.482437 0.39145 -11.3243
H -1.79707 0.736329 -10.4191
O 0.437574 6.42248 -2.60283
H -0.130341 6.67928 -1.82081
H 1.06661 5.69348 -2.33285
O 2.02465 8.77667 0.343442
H 1.73566 9.47391 -0.312588
H 2.50811 8.04575 -0.138269
O -3.43468 4.99497 -1.73139
H -2.68919 4.48531 -2.16095
H -3.77756 5.68484 -2.369
O 10.9757 -4.43817 -13.3656
H 10.5646 -4.86492 -14.1711
H 11.1796 -5.14065 -12.6837
O 3.31596 -4.15451 13.3721
H 2.41263 -4.3778 13.0058
H 4.01874 -4.42642 12.7147
O -6.13657 -0.114768 9.93269
H -6.25659 0.30346 10.8331
H -6.02395 -1.10298 10.0365
O 3.49057 -3.47867 -13.9689
H 3.35694 -3.93045 -14.851
H 3.85341 -2.55867 -14.1172
O 1.79292 6.90765 11.4054
H 2.11202 7.72838 10.9314
H 1.46888 6.2403 10.7348
O 11.8863 12.1219 -2.21314
H 11.0793 12.6052 -1.87392
H 11.7012 11.1394 -2.23628
O -8.06743 1.25607 -9.67545
H -7.39513 1.99637 -9.67291
H -8.67815 1.35775 -8.89015
O 5.74839 0.0913215 11.1452
H 6.30231 0.69514 11.7184
H 5.41201 0.600177 10.3528
O -6.23919 1.78344 -3.43462
H -6.71436 2.3177 -2.73547
H -5.33296 2.17483 -3.59454
O 14.7042 -1.55817 -9.0494
H 14.5842 -2.03133 -9.92218
H -14.3403 -1.80866 -8.65315
O 3.94215 12.4424 12.6879
H 4.81433 12.6682 13.1219
H 3.19509 12.8641 13.2017
O 0.49019 7.78588 2.49304
H 1.09697 8.21189 1.82195
H 0.635076 6.79641 2.49261
O 11.8746 1.13366 -9.31856
H 11.7399 0.184976 -9.60473
H 12.7451 1.46989 -9.67794
O -2.37205 12.1276 8.13645
H -3.32178 11.8809 7.94365
H -1.76577 11.6287 7.51715
O -0.76966 13.8762 -8.33243
H -0.0942564 13.9499 -7.59865
H -1.17979 14.7729 -8.49922
O 2.96654 6.63239 -12.0878
H 3.40118 5.88413 -11.5866
H 3.17696 6.54767 -13.0617
O -1.49519 -13.093 -7.86159
H -1.5553 -12.2762 -8.43531
H -2.34971 -13.2082 -7.35508
O 5.90079 9.70605 -7.85778
H 6.6042 9.53805 -8.54845
H 6.32957 10.0484 -7.02176
O 6.61599 8.72225 -3.7361
H 6.77539 9.46004 -4.39206
H 7.47345 8.23667 -3.56576
O -2.63078 14.4709 2.9829
H -2.04436 14.9009 3.66938
H -2.67414 -14.8757 2.17031
O -2.5229 1.60356 9.57004
H -2.36293 1.84695 8.61338
H -3.41005 1.14988 9.6547
O 6.62791 9.00705 0.795484
H 6.21252 9.43796 -0.00563742
H 6.57947 9.63337 1.57356
O -7.39935 8.50561 6.30837
H -6.93439 8.71669 5.44855
H -6.73043 8.47907 7.05125
O 5.25078 -14.9395 -5.6543
H 5.27276 -13.9483 -5.52409
H 5.91216 14.7299 -6.35845
O 4.6144 -8.04872 -5.0165
H 5.23654 -7.57518 -4.39301
H 4.43856 -7.47156 -5.81399
O -12.8148 -12.3957 13.9501
H -12.3172 -13.0588 13.3909
H -13.6144 -12.8368 14.3578
O 2.2155 0.447628 14.2376
H 2.70581 -0.0785997 14.9324
H 1.38761 -0.0448491 13.9691
O 3.14555 6.03287 6.72869
H 4.00301 6.52336 6.57311
H 3.2595 5.39592 7.49114
O 8.47846 10.9725 -8.04366
H 9.2173 10.3978 -8.3955
H 8.41165 10.8597 -7.05228
O 3.45074 -7.76304 12.3033
H 3.24681 -6.92685 12.8124
H 4.15819 -7.57441 11.6222
O -0.0867639 13.4879 -12.3729
H -0.945535 13.1009 -12.7087
H 0.680995 13.0571 -12.8472
O -13.8614 6.82202 2.20486
H -13.0092 6.79797 1.68213
H -14.3392 5.94937 2.10374
O 13.5304 1.73752 10.6785
H 13.6739 1.3931 9.75067
H 13.8252 1.04746 11.3395
O -7.98251 -11.1885 1.5787
H -8.11021 -11.6136 0.682587
H -7.21613 -10.5474 1.53734
O 8.95367 -7.90606 5.03717
H 9.18003 -8.83068 4.73078
H 9.40874 -7.23877 4.44754
O 13.2463 -13.4672 -0.0412201
H 13.3717 -14.3368 0.43642
H 12.7088 -13.6172 -0.871082
O -11.1798 14.4983 -12.6701
H -11.236 -14.8005 -11.8947
H -12.0885 14.3816 -13.0711
O -10.0137 2.54903 9.35587
H -10.9647 2.47775 9.65661
H -9.84745 1.89468 8.61816
O 14.4324 6.23799 -7.2555
H -14.9463 7.05737 -7.42018
H 14.0665 6.26337 -6.32516
O 3.06221 -12.4544 1.60774
H 3.35935 -11.7573 0.955267
H 3.79117 -13.1278 1.73111
O -0.393777 -3.33146 -7.71226
H -0.948882 -2.49987 -7.69366
H 0.541634 -3.10186 -7.98118
O -14.4799 2.21139 -6.00288
H 14.5214 2.49145 -5.75166
H -14.4372 1.21392 -6.05988
O 10.9788 13.7215 -10.4092
H 11.0402 14.3891 -11.1512
H 11.8802 13.3206 -10.2461
O 12.3273 -11.3615 -11.0052
H 12.8062 -11.4357 -10.1305
H 11.8561 -10.4808 -11.0536
O -2.98523 8.52427 -8.72711
H -2.91506 8.78023 -7.76296
H -3.94789 8.40928 -8.97224
O 10.2783 -2.22265 13.1465
H 9.7575 -2.36166 12.3043
H 9.88344 -2.77832 13.8782
O 3.10126 -11.4392 4.23748
H 4.06265 -11.1734 4.30883
H 2.93942 -11.8694 3.34936
O 1.77794 14.6578 -10.584
H 1.5254 -14.4739 -10.0341
H 0.969544 14.3115 -11.06
O 4.89876 -7.01297 10.1449
H 5.72395 -7.57543 10.1972
H 5.1489 -6.0471 10.2124
O 5.38888 -5.96547 -0.518303
H 4.42104 -5.79098 -0.336995
H 5.94266 -5.55954 0.208726
O 6.50554 6.88081 -13.6758
H 6.79443 5.92863 -13.7754
H 6.43284 7.10721 -12.7045
O -7.87821 7.45335 12.6752
H -7.69974 7.81313 11.7594
H -7.87461 8.20475 13.3351
O 11.3721 7.47122 14.5251
H 11.0158 7.46531 13.5907
H 10.9038 8.17759 -14.8719
O 3.13289 10.0163 2.77184
H 2.74251 9.70375 1.90584
H 2.47795 10.6118 3.23706
O -3.32588 -7.10413 7.06749
H -4.05047 -7.79291 7.09144
H -2.78031 -7.16508 7.90336
O 3.80913 2.48014 -2.61176
H 4.26885 2.04733 -1.8363
H 4.40145 2.43783 -3.41637
O -7.41507 14.4052 -5.64575
H -6.52055 13.9591 -5.6751
H -7.30355 -14.5705 -5.36097
O -3.10782 -6.88723 13.6919
H -2.8123 -7.60578 14.3214
H -3.46617 -6.11326 14.214
O 11.3521 -12.3749 11.3116
H 10.8565 -11.5145 11.1928
H 11.8671 -12.5805 10.4794
O -2.45293 12.1753 13.3702
H -2.20831 11.7209 14.2268
H -3.20503 11.6813 12.9339
O -6.33677 10.5934 -10.3313
H -6.24197 9.74813 -9.80543
H -5.43349 10.9066 -10.6246
O -3.47066 0.513622 -13.0397
H -4.3563 0.915251 -12.8066
H -2.93823 0.373201 -12.205
O 8.67902 -10.7436 -3.41173
H 8.62069 -11.55 -4.00015
H 9.43206 -10.1612 -3.71806
O -2.61434 1.46959 -9.31274
H -2.33456 1.94347 -8.47776
H -3.36876 0.846702 -9.10563
O 12.4986 -12.9982 8.89696
H 12.5733 -13.9937 8.95483
H 13.1796 -12.6497 8.25287
O -9.70719 9.61752 6.60048
H -10.3433 9.39272 5.86234
H -8.91895 9.00348 6.55978
O -6.48845 -12.9081 14.8427
H -7.17296 -13.1257 -14.3893
H -5.66584 -12.5505 -14.643
O 4.73147 14.9149 -8.57828
H 4.7902 -14.0177 -8.65724
H 4.33737 14.6736 -7.69145
O 10.5852 -3.52899 -3.62435
H 10.6965 -2.91898 -4.40891
H 9.99719 -3.09237 -2.94344
O -9.74088 -9.49864 -13.463
H -9.03623 -8.99589 -13.9638
H -10.3387 -8.85192 -12.9894
O 13.5288 12.6523 -9.99777
H 13.6296 11.6847 -9.76654
H 14.4138 13.0211 -10.2819
O 1.47232 -10.2515 -6.54291
H 2.17381 -10.2471 -7.25559
H 0.718423 -9.65283 -6.81351
O 10.6723 8.87618 10.9492
H 10.0672 8.10629 10.7463
H 10.19 9.53655 11.5248
O -4.48855 -11.2356 -0.404536
H -4.61239 -10.2822 -0.679898
H -4.32992 -11.2797 0.58183
O -9.92964 8.82481 -3.5643
H -9.14392 8.83212 -2.94574
H -10.1577 9.76304 -3.82452
O -9.18968 -12.0587 -14.1892
H -9.11039 -12.1382 14.7449
H -9.41019 -11.1139 -13.947
O 7.08316 -12.0143 8.4506
H 7.98777 -12.0983 8.86852
H 7.11905 -12.3474 7.50838
O 13.5514 4.03579 -9.19162
H 13.7961 3.06974 -9.27477
H 14.1193 4.46416 -8.48873
O 3.84065 -0.762241 -13.6877
H 3.27845 -0.537738 -12.8918
H 4.8049 -0.771484 -13.4228
O -3.77102 6.90211 13.0013
H -2.84691 6.58542 13.2152
H -4.18293 6.29415 12.3225
O 8.26159 9.3479 8.20463
H 8.62902 8.9405 7.36853
H 8.64034 8.87495 9.00018
O 7.80801 0.765162 14.7094
H 8.55453 0.110946 14.5879
H 7.61086 1.21171 13.8366
O 7.91442 10.8606 -2.22824
H 8.5301 10.2588 -1.71954
H 7.17614 10.3191 -2.63049
O 9.23069 2.46423 9.7679
H 9.26529 3.28136 9.19247
H 8.35344 2.00205 9.63811
O -9.41901 -1.15094 -2.30683
H -9.25834 -0.332786 -1.75472
H -9.47822 -0.895496 -3.27186
O 5.20746 6.71506 0.952691
H 5.6304 7.60469 1.12501
H 4.41049 6.83398 0.36047
O -10.7158 10.2791 2.86913
H -10.8356 9.36059 2.49239
H -11.3224 10.9162 2.39357
O -10.8026 7.5852 -9.09357
H -10.7629 7.34387 -8.12392
H -11.7262 7.4215 -9.44029
O 14.5475 -0.733944 11.553
H 14.4683 -1.26495 12.3967
H -14.4191 -0.678403 11.2831
O 12.1507 10.3355 -14.5799
H 12.5947 9.98639 -13.7547
H 11.1638 10.187 -14.5157
O 7.46472 -4.92175 -5.05095
H 7.38851 -4.35331 -5.87016
H 8.42731 -5.13115 -4.87891
O 8.85981 14.9573 14.3091
H 9.0316 14.1935 14.9313
H 9.62162 -14.886 13.6669
O -2.44274 -3.85344 3.64132
H -2.13759 -3.76871 4.58986
H -2.24198 -3.00611 3.14964
O -5.7746 -11.0794 -6.71845
H -6.50141 -10.3927 -6.73108
H -5.00817 -10.7436 -6.17089
O -8.07799 0.934671 8.36934
H -8.18192 0.616109 7.42714
H -7.23269 0.564795 8.75493
O -7.82128 -2.56142 -8.70092
H -8.48755 -2.2116 -9.35952
H -6.93797 -2.68386 -9.15346
O -12.4084 -14.5858 9.12529
H -11.5936 -14.877 8.62392
H -12.6362 -13.6452 8.87348
O 5.17867 -10.4144 7.57673
H 5.73469 -9.77643 7.04388
H 5.77281 -10.9648 8.1633
O -5.78281 -11.7903 5.99107
H -5.7425 -12.3831 5.1867
H -5.30874 -10.9316 5.7964
O -3.71045 -7.40504 2.48556
H -3.00839 -7.55154 3.18246
H -3.59837 -6.49538 2.08558
O -2.83606 8.5229 -12.2198
H -1.84773 8.41255 -12.325
H -3.27146 8.50144 -13.1198
O 4.6975 -14.5694 1.62572
H 5.41497 14.9027 2.15264
H 4.64803 14.9553 0.711894
O 10.146 2.38478 4.10134
H 10.0428 2.11991 5.0601
H 9.67908 3.25496 3.94382
O -0.0410161 4.25839 2.89829
H 0.275341 3.96806 3.80143
H -0.169594 3.4555 2.31616
O 14.3639 1.53483 -9.86563
H 14.2898 1.08953 -10.758
H -14.6296 1.43946 -9.5221
O 9.79899 4.76538 -4.81923
H 10.1215 5.66497 -5.11378
H 10.3384 4.45817 -4.03523
O -2.2118 -11.9384 -12.7625
H -1.82718 -11.3318 -12.0667
H -2.00279 -12.8881 -12.5291
O -11.7327 11.2618 -3.57233
H -12.4656 11.5083 -4.20642
H -10.9275 11.8247 -3.75859
O -9.59818 7.73491 2.067
H -9.9444 7.59007 2.99392
H -8.64712 7.43026 2.01503
O -10.3148 -1.13729 8.90004
H -9.31616 -1.18719 8.88233
H -10.619 -0.353804 8.35818
O 4.36706 -12.635 -4.44
H 5.01022 -11.8698 -4.46905
H 3.72957 -12.506 -3.68041
O 3.6367 0.435596 -6.59456
H 3.02462 0.425621 -5.8038
H 3.098 0.528874 -7.43189
O 0.363301 11.936 -3.13847
H 1.00404 11.5604 -2.46883
H 0.143089 11.2362 -3.81802
O 5.79674 0.300444 4.3403
H 6.10717 -0.246374 5.11789
H 6.31611 0.0451365 3.52476
O 9.59027 -4.47448 10.2919
H 9.82142 -3.54453 10.0059
H 10.0122 -5.13031 9.66587
O -3.45884 -6.91139 -11.5918
H -3.1892 -7.24335 -12.4957
H -2.77635 -7.19142 -10.9166
O 10.4127 -10.6616 8.1357
H 10.681 -10.5021 7.18565
H 11.0405 -10.1773 8.74515
O 2.09994 -5.87497 8.56523
H 3.07908 -6.07703 8.58712
H 1.65947 -6.27256 9.37018
O -6.30685 -1.34624 0.636757
H -6.16365 -2.2975 0.909946
H -5.74115 -1.13998 -0.161659
O 13.9661 1.8092 -3.45935
H 13.0242 1.5228 -3.63521
H 13.9642 2.61818 -2.8715
O -4.66728 2.42318 13.6599
H -4.92839 1.47586 13.4743
H -5.47191 2.93931 13.9535
O -13.1241 10.4797 11.3346
H -12.9695 11.4595 11.4618
H -12.7032 9.97522 12.0886
O -13.3244 13.8858 -0.168702
H -14.1622 13.7077 -0.684877
H -13.4215 14.7416 0.339437
O 6.47118 -9.27243 5.28322
H 6.43005 -10.0577 4.66539
H 7.32736 -8.77709 5.13616
O -7.66179 1.227 1.30066
H -7.25979 0.311725 1.27442
H -7.18817 1.77953 1.98653
O 4.74631 4.59516 -11.4073
H 4.7576 4.21678 -10.4817
H 5.61369 5.05867 -11.5885
O -11.6993 12.5777 12.6822
H -11.2785 12.1924 13.5034
H -11.0231 12.6131 11.9463
O 12.1192 -1.43 7.46862
H 11.2484 -0.964084 7.62533
H 12.1068 -2.32119 7.92212
O -2.19385 14.7752 7.77887
H -1.31977 -14.6764 7.68292
H -2.04828 13.79 7.68874
O 4.57205 3.69139 11.6378
H 3.82373 3.93101 11.0192
H 4.66601 4.39973 12.3374
O 11.9356 -12.0951 -6.01436
H 11.018 -11.9262 -6.37414
H 12.1306 -11.4448 -5.28008
O -0.375032 -6.96018 -0.984944
H -0.110259 -6.01377 -1.17
H -0.391688 -7.11454 0.00294393
O -6.95518 -3.15225 -5.01914
H -7.60757 -2.44496 -5.29148
H -6.08124 -2.72687 -4.78398
O -6.39959 -4.16922 7.90262
H -5.82779 -3.60835 7.30386
H -5.87854 -4.96489 8.21157
O -0.219157 10.2709 -5.41662
H -0.982659 10.8161 -5.76285
H 0.489148 10.2051 -6.11947
O -11.2855 -13.7187 5.67622
H -10.901 -14.0979 6.51789
H -11.1355 -14.3592 4.92307
O 4.46144 5.63488 -3.5903
H 4.52737 6.55544 -3.97534
H 3.78925 5.10474 -4.10717
O 3.35614 6.81456 -1.13962
H 3.37687 7.30665 -2.00993
H 3.24612 5.8358 -1.31266
O 12.681 -8.19534 -1.52458
H 13.5501 -8.49042 -1.12748
H 12.4842 -8.74136 -2.33891
O 8.59109 12.4194 8.82307
H 8.18974 11.6152 8.38462
H 8.20521 12.5269 9.73935
O 3.81794 14.2236 8.08767
H 3.52451 14.4657 9.01251
H 3.11591 14.5013 7.43185
O 9.89159 -6.16559 2.72003
H 9.64703 -5.23682 2.44148
H 10.6955 -6.46662 2.20711
O -8.79873 14.0522 11.5477
H -8.29789 14.8976 11.7337
H -8.48069 13.6594 10.6849
O 6.01037 -12.3313 11.0482
H 5.04619 -12.4923 10.8374
H 6.55956 -12.4708 10.2242
O -6.14705 -5.38283 -0.872715
H -6.03246 -5.41964 0.120031
H -6.96177 -5.90069 -1.13364
O -1.95389 -2.97567 6.39243
H -1.25231 -3.465 6.91047
H -1.8034 -1.99056 6.4757
O -9.14642 -1.24229 -13.1899
H -9.95222 -0.83639 -13.6212
H -8.50709 -0.51849 -12.9303
O -3.16745 5.38742 -7.5631
H -2.88115 6.33483 -7.42008
H -4.07654 5.37318 -7.9795
O 13.8396 2.62134 6.27097
H 13.4587 3.27392 5.61591
H 14.5935 3.0502 6.76867
O 13.7359 -8.03145 4.31756
H 14.0291 -8.98468 4.24399
H 13.3871 -7.86019 5.23897
O -7.75764 2.60489 -1.16971
H -6.86112 3.00507 -0.979636
H -8.0434 2.0433 -0.393188
O 1.28577 -5.11856 12.0823
H 1.66534 -6.02061 11.8768
H 0.465947 -5.22234 12.6455
O -5.53222 14.3715 -11.4813
H -5.2032 -14.6768 -11.8249
H -6.14424 14.5245 -10.7054
O -9.42176 12.6964 -4.15243
H -9.28863 11.982 -4.83944
H -9.68057 13.5498 -4.60484
O -10.4184 -6.88717 -12.3191
H -11.0388 -6.22783 -11.8943
H -10.1067 -6.5317 -13.2003
O -0.981406 5.24268 -11.6283
H -0.88947 6.08529 -11.0976
H -0.747064 4.45913 -11.0528
O -13.1117 2.24585 -13.1603
H -12.9391 2.86182 -13.929
H -14.0175 2.43299 -12.7801
O 8.84667 12.3284 -11.033
H 8.10007 12.6957 -10.4783
H 9.65277 12.9121 -10.9356
O 12.1307 -9.4798 2.13326
H 12.4402 -8.97932 2.94182
H 11.2001 -9.19615 1.90163
O 8.74812 10.194 12.967
H 8.37888 9.95385 13.8648
H 9.28324 11.0355 13.0409
O -14.1708 3.09528 -0.525772
H -14.082 2.3483 -1.18469
H 14.9535 3.64579 -0.752242
O 2.54167 9.80083 -13.7065
H 2.6713 10.7552 -13.9755
H 1.56775 9.62391 -13.5644
O -5.55858 -5.09073 -11.3964
H -4.69375 -5.5587 -11.2144
H -5.83191 -5.2523 -12.3446
O -2.14888 -6.38934 4.89398
H -2.49048 -5.56744 4.43811
H -2.71176 -6.58316 5.6975
O 6.28032 8.10709 -11.4544
H 5.64058 8.79404 -11.1096
H 7.182 8.25826 -11.0492
O -12.7442 2.79768 10.4253
H -13.0367 3.086 11.3371
H -13.0726 3.45464 9.74664
O -4.51004 -8.98643 -2.23415
H -3.51873 -9.00015 -2.10322
H -4.72734 -8.50715 -3.0845
O -1.8064 -5.20192 -13.5418
H -1.78301 -4.87549 -12.5968
H -2.70596 -5.01526 -13.9367
O -0.727346 -2.34687 -12.732
H -1.20326 -3.00384 -12.1473
H -1.22223 -1.4779 -12.7285
O -6.4047 -7.01897 3.91802
H -7.3551 -6.92315 3.62206
H -6.05259 -6.1272 4.20225
O -3.11228 9.48182 12.1224
H -2.12478 9.63158 12.0729
H -3.29272 8.5507 12.4394
O 6.01831 -6.94535 7.50627
H 5.55534 -6.97377 8.3922
H 6.93958 -7.32302 7.59935
O 6.0258 -11.4881 3.73644
H 5.9228 -12.3808 4.17514
H 6.55934 -11.5889 2.89668
O 14.8118 9.49911 9.46187
H -14.2428 9.69641 9.9074
H 14.5795 10.2457 8.8384
O 11.7213 4.59526 0.44762
H 12.029 3.70017 0.770421
H 11.4796 5.16726 1.23147
O -13.256 -5.24959 2.36592
H -12.3039 -5.24055 2.06003
H -13.8142 -5.74903 1.70337
O -0.570251 2.99948 10.8262
H -0.752628 3.02724 11.8091
H -1.13879 2.29493 10.4015
O -13.7759 0.70299 -2.4927
H -13.0863 1.06095 -3.12231
H -14.6844 0.812648 -2.89595
O 5.5978 11.0585 2.49072
H 6.02016 11.1858 3.38817
H 4.7636 10.5158 2.58889
O -7.16233 -7.55526 14.8381
H -6.75089 -8.23198 -14.4792
H -7.04585 -7.84815 13.8891
O -7.19758 -5.95888 -9.18729
H -8.06806 -5.56654 -8.89003
H -6.94336 -5.57261 -10.074
O -8.26681 -9.44619 -2.34841
H -8.36443 -8.75489 -3.06438
H -7.37043 -9.35293 -1.91502
O 12.1255 3.69994 -11.8378
H 12.4571 3.9076 -10.9175
H 11.1298 3.60806 -11.8204
O -5.52733 6.50958 0.170212
H -5.79313 6.10167 -0.703282
H -4.95887 7.31507 0.00267973
O 12.8363 -0.947233 -2.87874
H 13.8014 -1.20918 -2.88397
H 12.3925 -1.29352 -3.70524
O 9.17603 4.70179 8.10434
H 8.17764 4.71851 8.15881
H 9.45931 4.79247 7.14958
O 0.168044 14.5254 0.21196
H 0.12908 -14.9283 1.09157
H -0.760869 14.3323 -0.104056
O -11.7897 10.4198 -1.03897
H -11.7862 9.41976 -1.03589
H -11.8109 10.7501 -1.9826
O -11.5454 -10.3779 -4.73705
H -11.119 -10.9999 -4.08033
H -11.0185 -9.52922 -4.78293
O -11.5843 -10.1379 14.0801
H -11.9944 -11.0443 13.9786
H -11.1008 -10.0868 14.9539
O -14.9055 -11.5995 0.228462
H 14.1565 -12.0881 0.120401
H -14.257 -12.1763 0.725053
O -0.0739874 -7.23729 1.67321
H 0.235812 -6.63925 2.4124
H -0.435996 -8.08538 2.06015
O -13.4455 -12.682 3.72933
H -13.0727 -13.1464 4.5327
H -13.0716 -11.7561 3.67606
O -7.78164 4.49946 -6.03625
H -8.48328 4.80534 -6.67981
H -7.85778 3.51101 -5.9051
O -5.62311 8.04389 -9.35298
H -5.43305 7.29559 -9.98854
H -6.27321 7.73468 -8.65886
O -6.3308 2.58647 3.12998
H -6.2542 1.85688 3.80958
H -5.41788 2.84486 2.81402
O 2.13287 0.913223 -4.34644
H 1.29827 0.628781 -3.87469
H 2.76919 1.31262 -3.68644
O 12.3572 -2.39404 11.5439
H 12.9243 -1.59492 11.3444
H 11.6424 -2.14113 12.1959
O -5.35322 -13.5906 4.07039
H -6.20506 -13.7341 3.5666
H -5.07027 -14.4491 4.49811
O 1.9709 4.21938 -1.69385
H 1.61601 3.56586 -1.02527
H 2.38778 3.72361 -2.45572
O -13.5975 3.64336 4.46287
H -13.7991 4.18213 5.28087
H -12.6129 3.65805 4.28835
O 3.79365 -6.52684 -7.06715
H 3.81023 -5.94691 -6.25264
H 3.16249 -6.13961 -7.73925
O -7.59803 -14.0291 2.26681
H -7.73441 -13.0518 2.10486
H -6.74052 -14.3208 1.84296
O 12.8607 -3.64197 8.9867
H 12.8299 -3.4011 9.95678
H 13.2742 -4.54627 8.88075
O -5.86424 -12.0271 -9.63087
H -5.67261 -11.8554 -8.66454
H -5.89234 -13.0132 -9.79496
O 10.827 7.20257 -4.94478
H 11.8249 7.20883 -4.87883
H 10.4322 7.20792 -4.02602
O 10.4047 -9.35226 -11.4035
H 9.58965 -9.39439 -10.8257
H 10.2219 -9.81328 -12.2719
O -13.8616 -12.2101 -5.84332
H -13.9054 -12.4193 -6.82023
H -13.4238 -11.3207 -5.71223
O 5.34281 -6.40204 14.7108
H 6.02099 -6.964 14.2372
H 5.33616 -5.48359 14.3153
O -5.69712 -3.82103 1.96826
H -4.88536 -4.29675 1.62948
H -5.99105 -4.23534 2.82965
O -14.6468 12.6468 13.3803
H 14.8442 12.215 14.1693
H -13.707 12.3152 13.2966
O 5.3275 5.55415 13.848
H 6.0263 5.61553 14.5607
H 4.42134 5.53441 14.2705
O -6.92048 -10.1664 -11.3781
H -7.84317 -10.3696 -11.7058
H -6.54925 -10.9679 -10.9092
O -3.19177 -10.4179 14.3229
H -2.86026 -11.0045 -14.8659
H -4.0821 -10.748 14.0093
O -2.51951 7.56243 1.68834
H -1.63987 8.02319 1.80653
H -2.74104 7.04923 2.51755
O -7.78008 2.14172 -14.2318
H -7.96619 1.4037 -14.8804
H -8.58929 2.30018 -13.666
O -0.54527 -5.57529 13.8711
H -1.32932 -6.04458 13.4648
H -0.869096 -4.85069 14.4795
O -11.6391 0.19413 -14.0794
H -12.2066 0.834179 -13.5614
H -12.2071 -0.556031 -14.4181
O -10.8359 -5.10502 1.2381
H -10.469 -5.63571 0.474064
H -10.5965 -4.1413 1.11996
O 11.5942 5.87831 11.7699
H 11.4812 4.89394 11.6348
H 12.0697 6.2704 10.9824
O 10.9954 6.20051 5.93184
H 11.4564 5.88501 6.76128
H 11.3733 5.72325 5.13843
O -13.2719 -14.3626 -7.8461
H -12.8692 -14.2827 -6.93423
H -12.5829 -14.1388 -8.53548
O 10.8863 5.42099 -13.7526
H 11.1146 6.16934 -14.3754
H 11.5627 4.69052 -13.8472
O -13.0969 -4.05706 10.2646
H -13.2762 -3.37596 9.55469
H -12.3356 -3.75049 10.836
O 9.746 0.372372 2.64589
H 8.82186 0.0163245 2.7845
H 9.9025 1.1429 3.26382
O -11.3874 -14.0894 -9.94613
H -10.6555 -14.1049 -9.26491
H -11.3257 -13.2477 -10.4826
O 8.1163 -11.4471 12.5292
H 7.29621 -11.6483 11.9934
H 7.9611 -11.7004 13.484
O -6.70573 11.6767 12.0885
H -7.44129 11.0001 12.122
H -7.09791 12.5903 11.9811
O 2.25236 14.2801 2.98773
H 2.67634 14.3294 2.08338
H 1.70589 13.4453 3.0546
O 9.57024 11.1001 2.01198
H 10.5383 11.3188 1.88931
H 9.02905 11.5873 1.32652
O 11.0856 9.31828 -8.2457
H 11.2556 8.34567 -8.08709
H 11.0095 9.79087 -7.36769
O 9.19847 8.95532 -0.425781
H 8.34334 9.09908 0.0723257
H 9.96012 8.92454 0.221498
O -4.82084 6.73107 -11.6571
H -5.4842 6.67891 -12.4036
H -4.02257 7.25372 -11.9564
O 0.329517 -13.2257 8.52119
H 1.16907 -12.8066 8.17553
H 0.0263441 -12.7384 9.34009
O -1.21098 3.28624 -13.8881
H -1.90393 2.68047 -13.497
H -1.01539 4.02734 -13.2458
O 6.95788 -4.81427 -12.946
H 6.06049 -5.07649 -13.3009
H 7.41791 -4.22203 -13.6075
O -12.9214 -13.5122 0.909158
H -11.947 -13.7367 0.926228
H -13.243 -13.3524 1.84246
O -3.33657 6.11727 8.55751
H -3.5978 5.61971 7.73033
H -2.44951 6.55673 8.416
O 9.91584 -7.19361 10.3712
H 9.87352 -6.47354 11.0638
H 9.97859 -8.08488 10.8203
O -11.9604 -0.246953 -8.85385
H -11.3278 0.493241 -8.62595
H -12.2427 -0.714002 -8.01588
O 2.68762 -2.07184 10.294
H 1.71786 -2.08363 10.0502
H 2.79973 -1.65213 11.1948
O -1.58672 -10.2931 -10.8091
H -1.33199 -9.32768 -10.7531
H -2.55877 -10.3942 -10.5971
O 10.8329 -5.47437 7.25184
H 10.3631 -5.06056 6.47204
H 11.5191 -4.83774 7.6037
O -5.7833 -2.84978 10.6167
H -5.15444 -3.60335 10.4251
H -6.68428 -3.0633 10.239
O 6.69173 1.80209 6.54643
H 6.29424 1.09709 5.95907
H 6.94679 2.5937 5.99116
O -1.5059 -9.14918 -1.94661
H -1.00579 -9.8801 -1.48221
H -1.26914 -8.26932 -1.5345
O -2.40141 0.756431 -5.07447
H -2.47755 1.57392 -5.64539
H -2.83589 0.92601 -4.18988
O -4.04595 3.58988 -4.45663
H -4.64181 4.37801 -4.30222
H -3.75951 3.57117 -5.41456
O 4.80935 3.24969 -6.06035
H 4.72149 2.31561 -6.40648
H 5.66423 3.33658 -5.54883
O 13.8931 -9.30672 -9.00987
H 13.6727 -10.2537 -8.77618
H 13.1195 -8.71726 -8.77733
O -11.3468 3.45738 0.643954
H -11.3284 3.75171 1.5995
H -12.2304 3.03477 0.442228
O -4.35996 -7.81677 11.5445
H -5.29509 -8.1481 11.6701
H -4.10461 -7.23775 12.3188
O 13.0689 13.7989 11.8505
H 13.774 13.1682 12.1747
H 13.3339 14.1653 10.9586
O -9.28938 -12.3173 12.9119
H -8.37096 -12.5379 12.5834
H -9.96125 -12.8708 12.4197
O 13.2227 14.2992 9.10092
H 13.9816 14.233 8.4531
H 12.6213 13.5077 8.9919
O 8.73068 -14.3807 -0.891387
H 9.09597 -14.7655 -1.73907
H 8.1236 -13.6159 -1.10692
O 0.900794 6.92799 14.2902
H 1.09657 6.26824 13.5647
H 0.469698 7.73939 13.8955
O -12.7757 -0.599573 -0.326132
H -13.4356 -0.0953253 -0.883238
H -11.864 -0.209368 -0.454524
O 14.0616 7.06977 6.41559
H 13.6827 7.5566 7.20268
H 14.8328 6.50633 6.7118
O -14.6379 -6.52098 0.0653039
H 14.9517 -7.28744 0.611401
H 14.7871 -5.69132 0.30805
O -9.96904 -2.57344 6.04516
H -10.9365 -2.32076 6.06007
H -9.87695 -3.55115 6.23397
O -3.98671 3.19834 1.94778
H -3.55503 2.59109 1.28075
H -4.31011 4.02439 1.48618
O 6.35352 -1.66464 -12.0062
H 6.57327 -2.34061 -11.3028
H 6.7353 -0.777514 -11.7469
O -12.7276 -1.58118 -11.4955
H -11.9861 -1.87558 -12.0984
H -12.3427 -1.21486 -10.6483
O 1.20243 -10.3695 -12.0384
H 1.46683 -11.2216 -12.4901
H 0.806754 -10.5756 -11.1434
O -9.83165 0.584828 13.9025
H -10.0972 -0.0999632 13.2239
H -10.4627 0.548273 14.6774
O 9.54125 12.9252 -13.9648
H 8.74693 12.4541 -13.5812
H 9.7681 12.5267 -14.8535
O 11.704 9.53385 -2.9588
H 12.5489 9.54993 -3.4935
H 11.3722 8.59314 -2.88799
O -0.00966633 -8.7733 -14.0579
H 0.273639 -9.37114 -13.308
H 0.385742 -7.86415 -13.9269
O -2.01733 12.059 -6.50038
H -2.08319 12.5499 -7.36911
H -2.06801 12.7114 -5.74419
O -10.5669 13.824 0.0342673
H -10.3402 13.2568 0.826003
H -11.5512 13.7796 -0.136599
O 11.277 1.63352 6.99718
H 12.0935 1.53622 6.42806
H 11.3343 2.48427 7.51963
O 1.3458 0.533882 7.68052
H 0.973898 1.25467 7.09555
H 1.66001 0.932741 8.54203
O 2.4907 -12.6308 -12.8487
H 2.99942 -12.6626 -13.709
H 3.11452 -12.4038 -12.1008
O -14.222 8.44978 -7.84193
H -14.0943 8.36006 -8.82969
H -13.3767 8.78475 -7.42563
O 0.0810204 -5.96276 -6.55669
H -0.114826 -5.11551 -7.0505
H -0.0347943 -5.81084 -5.57509
O -6.15912 12.2317 4.29029
H -5.96768 11.5764 5.02098
H -5.37568 12.8428 4.17691
O 6.36569 -6.04199 3.45967
H 5.90611 -6.80691 3.00833
H 6.88956 -5.52261 2.78451
O 9.17477 7.39508 -2.58983
H 8.43755 6.79192 -2.2853
H 9.38436 8.05557 -1.86881
O -1.24846 -0.362147 6.16871
H -1.72909 0.468332 5.88705
H -0.56073 -0.131977 6.85724
O -0.609443 7.85645 -10.2248
H -0.194395 8.04404 -9.33456
H -1.60557 7.87631 -10.139
O 3.32399 10.3979 -7.85307
H 3.04295 11.0758 -8.53239
H 4.32055 10.3149 -7.85753
O 5.30715 1.212 8.73051
H 4.43325 1.07457 8.26421
H 5.94479 1.67409 8.11413
O -2.38095 -2.42891 10.0089
H -1.96955 -3.33431 10.1139
H -3.08747 -2.30107 10.7049
O -0.964946 -12.3424 14.4007
H -0.357952 -12.8726 -14.9351
H -0.974536 -11.3887 14.7015
O 13.1866 -5.56557 3.26404
H 13.683 -4.94536 3.87151
H 13.444 -6.50987 3.46912
O -5.20557 3.32233 -0.715399
H -4.85142 2.46882 -0.333153
H -4.44813 3.86362 -1.08053
O -10.7946 -1.177 11.7338
H -10.4203 -1.14392 10.8071
H -10.8306 -2.12666 12.0451
O 7.04714 14.2961 2.30909
H 7.03424 13.5299 1.66666
H 7.75454 14.141 2.99871