2593
Atoms. Timestep: 1000000
O 11.2094 -6.29351 8.13729
H 10.635 -6.7761 8.79843
H 11.6341 -5.50332 8.57897
O -4.20475 9.01902 -8.30505
H -4.32262 8.12047 -8.72765
H -5.09837 9.45231 -8.18845
O 12.9522 -14.1978 -8.86071
H 13.5368 -13.7805 -8.16494
H 13.2423 -13.8913 -9.76724
O -13.1848 -6.21387 -9.3389
H -13.5593 -6.98775 -9.84957
H -12.2794 -6.45271 -8.98825
O -12.3988 -7.94031 9.56125
H -12.8893 -7.10473 9.3141
H -11.581 -8.02729 8.99251
O -5.09342 12.8768 -11.6422
H -5.23776 11.9964 -12.0937
H -5.97711 13.3119 -11.4699
O 11.3897 13.4453 1.33238
H 11.7901 12.7941 0.687786
H 10.8834 12.9483 2.03699
O -4.97446 -0.803709 2.41708
H -4.15063 -1.0313 2.9361
H -5.23061 -1.57997 1.84115
O 10.0744 -0.362273 -5.05037
H 9.79972 -0.419244 -6.01017
H 9.68595 -1.13354 -4.54622
O 5.27395 -10.051 -13.5207
H 5.90248 -10.8192 -13.642
H 5.78207 -9.25225 -13.1986
O 0.177569 11.1096 -13.3324
H -0.315975 10.436 -13.8824
H -0.315377 11.2668 -12.4767
O 12.8411 11.0996 0.525532
H 12.2039 10.3553 0.725525
H 12.8258 11.297 -0.454601
O -1.59743 7.46969 9.22561
H -2.47105 7.90444 9.44395
H -1.33145 6.86186 9.97373
O -1.56599 -14.8335 0.121286
H -0.80947 -14.2917 0.487442
H -1.67149 14.1844 0.662902
O 12.3614 12.0917 -1.97915
H 12.4631 12.9963 -2.39295
H 12.6279 11.3907 -2.64058
O 11.4011 -2.06064 -8.59743
H 11.5014 -1.29363 -9.23109
H 10.5084 -2.00878 -8.14998
O -0.609379 -2.3348 -9.19161
H 0.200156 -1.76267 -9.32277
H -0.83902 -2.78963 -10.052
O -0.910445 4.39522 3.47629
H -0.0287369 4.86057 3.55328
H -1.64737 5.04392 3.66603
O 3.06106 3.41332 -9.01199
H 3.69012 2.91176 -8.41819
H 2.80922 4.2775 -8.57651
O -2.61663 14.0421 4.95649
H -3.29913 13.7139 4.30354
H -2.25056 14.9185 4.64372
O -13.6989 -12.3613 14.4082
H -13.9683 -12.8525 13.58
H -12.8483 -12.7488 14.7637
O 2.85586 -4.93142 2.45282
H 2.6213 -5.78907 2.91031
H 3.67746 -5.0633 1.89833
O 13.554 -4.55038 9.24729
H 14.2771 -5.23214 9.35772
H 13.0074 -4.50588 10.0834
O 1.74359 7.93013 12.3588
H 2.47026 7.72951 13.0158
H 1.01553 8.44306 12.8135
O 6.96187 -1.72481 -13.7465
H 7.37496 -2.11716 -12.9248
H 5.96585 -1.7812 -13.6783
O 3.6001 5.77827 -2.69112
H 3.44035 5.02472 -3.32872
H 3.85988 6.59769 -3.20195
O 14.882 -9.80694 14.3122
H -14.6515 -10.7522 14.3829
H 14.8753 -9.5285 13.3518
O -6.88149 -7.1285 5.8099
H -6.64766 -7.09347 6.78148
H -6.08011 -6.88178 5.26511
O 4.63791 -1.59224 -9.63017
H 4.62574 -2.48046 -10.0893
H 4.52753 -0.865232 -10.3078
O 11.7247 2.80853 -14.886
H 11.3943 3.41481 14.2425
H 12.3362 2.12231 14.5721
O 13.8921 13.0177 -9.32032
H 13.605 13.945 -9.08013
H 13.5186 12.7745 -10.2154
O 3.21529 13.2382 -2.38316
H 3.16663 13.3009 -3.37994
H 3.09386 14.1476 -1.98561
O 3.78013 2.84162 -3.02145
H 3.45548 2.86847 -2.07605
H 3.92242 1.89131 -3.29813
O -14.009 -8.72154 6.40061
H -13.5921 -9.17231 7.18983
H -14.0324 -9.35616 5.62821
O 3.58773 6.41351 14.2066
H 4.00586 6.36831 13.2994
H 4.27493 6.20118 14.9013
O -12.3877 7.05968 -1.71777
H -11.9407 6.89245 -0.839048
H -11.9732 6.47899 -2.41839
O 13.3168 0.167126 8.13178
H 13.6156 -0.662309 7.65993
H 14.096 0.782813 8.2492
O -9.77956 1.91216 -0.854947
H -8.92348 2.38237 -0.640673
H -10.1232 2.23146 -1.73803
O 9.37517 -1.74386 4.87326
H 9.33155 -1.89511 3.88579
H 8.98574 -0.848952 5.0909
O 13.9706 6.93424 -5.21052
H 14.3165 7.53679 -5.92967
H 13.2633 7.4105 -4.68825
O -6.38907 -14.7133 -7.15481
H -5.95493 14.8511 -8.0085
H -6.08393 -13.7904 -6.91999
O 13.9975 -2.73516 7.33751
H 13.3405 -2.83859 6.59078
H 13.8905 -3.49156 7.98271
O 4.76224 5.92789 11.6077
H 5.58357 5.35921 11.6513
H 4.53448 6.11168 10.6515
O 12.9004 -9.94049 -2.91217
H 13.3967 -10.802 -3.01904
H 13.5097 -9.25128 -2.52024
O 4.85159 -10.1113 10.1948
H 4.65041 -9.40163 9.51975
H 5.43249 -10.8113 9.77953
O -12.2584 1.50351 -8.46025
H -12.3675 0.621961 -8.00106
H -11.3893 1.51656 -8.95454
O -13.063 -13.527 -10.4717
H -12.4444 -14.1033 -9.93765
H -13.9939 -13.6211 -10.1189
O 12.6801 4.49795 10.4567
H 12.3485 3.97136 11.2394
H 12.1838 5.36443 10.4036
O 11.2254 -10.0656 10.5063
H 11.9613 -9.90693 9.84811
H 10.3425 -9.9151 10.0618
O -4.58067 1.57384 11.7719
H -4.96489 1.01779 12.5088
H -4.38508 2.49255 12.1148
O 8.62807 1.27033 9.79949
H 9.58677 1.38431 9.53914
H 8.54724 1.30166 10.7957
O -10.4745 -6.55977 11.8774
H -9.73548 -6.97729 12.406
H -11.0268 -7.27698 11.4527
O -3.37522 5.17565 10.4128
H -2.59223 5.38145 10.9997
H -4.18632 5.64422 10.7627
O 12.8217 5.88961 5.95001
H 13.5684 6.35107 5.47112
H 12.3251 5.30511 5.3084
O -7.76103 3.24876 -4.50069
H -7.40747 4.18306 -4.45641
H -7.45208 2.73715 -3.69901
O -2.8224 7.66668 6.22742
H -2.70807 7.23254 5.33393
H -1.92394 7.86221 6.62039
O 4.37983 8.16142 -4.15993
H 4.60364 8.57984 -3.27975
H 5.06727 7.47109 -4.3852
O 9.49382 -8.43935 12.5211
H 9.71783 -8.81708 11.6227
H 9.05621 -7.5474 12.4079
O 2.80519 -7.67701 0.84393
H 2.87858 -8.55688 0.374543
H 3.50847 -7.05552 0.498931
O 1.47325 13.2433 0.00253783
H 1.14321 14.173 -0.160528
H 1.35257 13.0112 0.967673
O -4.41412 -6.64225 13.7671
H -5.25402 -6.10173 13.7193
H -3.76995 -6.20252 14.3929
O -11.6182 5.77467 4.11029
H -11.1883 5.22068 3.39742
H -12.2097 6.46116 3.6876
O -12.6017 -12.2091 3.55019
H -11.9477 -12.2343 2.79417
H -12.8089 -13.1426 3.84286
O -12.1919 -1.80089 3.23382
H -11.557 -2.4922 2.88904
H -12.6841 -1.38862 2.46729
O -13.1994 -1.63979 -10.8792
H -13.9159 -1.4147 -11.5394
H -13.5099 -2.38748 -10.2923
O 8.2369 -8.75639 -2.61748
H 9.01218 -9.19382 -3.07298
H 7.63646 -8.34483 -3.30302
O -3.39558 -10.2257 5.49828
H -2.64279 -10.473 4.88836
H -3.06134 -9.6009 6.20385
O -1.01354 -8.39965 13.3616
H -1.16795 -8.68006 12.4143
H -0.0457903 -8.18438 13.4919
O -11.0308 -4.85783 14.4879
H -11.6522 -4.11323 14.7316
H -11.1724 -5.11033 13.5308
O -5.25325 -12.1733 12.0329
H -4.3621 -11.7209 12.0662
H -5.97466 -11.484 11.967
O -0.32032 -3.93967 -1.17095
H 0.0925669 -3.39525 -0.440869
H 0.286359 -3.94602 -1.9658
O -10.6987 5.66869 -3.69592
H -10.6985 6.16518 -4.56389
H -10.7371 4.68555 -3.87432
O 8.38129 0.57213 -14.4113
H 7.86271 -0.278828 -14.3286
H 8.0641 1.22396 -13.7225
O -8.73549 -5.4674 8.39288
H -8.27928 -4.9103 7.69905
H -8.10733 -6.17371 8.71912
O -11.3648 13.0402 12.9921
H -10.5524 12.5573 13.3188
H -11.159 14.0144 12.9003
O -3.94986 5.3355 7.65446
H -3.2589 5.97187 7.3117
H -3.76289 5.12564 8.61409
O -8.67461 2.21045 5.99525
H -9.17417 1.57503 5.40656
H -7.77339 2.39119 5.60153
O 9.24031 12.7221 -3.26174
H 8.5977 13.0438 -2.56644
H 10.172 12.7692 -2.90174
O -0.264332 -5.66637 5.78117
H 0.69301 -5.84318 6.00948
H -0.321484 -5.27885 4.86115
O 9.85829 4.0439 -11.0598
H 10.6819 4.60732 -10.9955
H 10.0333 3.26535 -11.6623
O 3.1089 14.8225 -10.1376
H 2.98341 14.8547 -9.14611
H 2.33402 -14.5841 -10.5863
O 13.5983 -6.62934 -7.60072
H 12.8271 -6.0979 -7.9509
H 13.3579 -7.01999 -6.71221
O 11.7826 12.6997 13.372
H 11.8559 12.9153 14.3457
H 11.2386 11.8689 13.2547
O -13.6105 -10.1705 8.71161
H -14.0317 -10.6219 9.49824
H -13.2057 -9.30357 9.00209
O -0.475279 -2.28164 -4.56226
H 0.347301 -2.78495 -4.29781
H -1.28431 -2.76984 -4.23514
O -14.727 10.8838 -8.06743
H -14.0919 11.2847 -7.4073
H 14.6029 11.6116 -8.51218
O 12.9143 12.9334 -11.9225
H 11.989 12.5562 -11.9596
H 13.2698 13.0363 -12.8515
O 9.45027 -12.7751 3.00525
H 9.50305 -11.8329 3.33606
H 9.83102 -13.392 3.694
O -13.0924 0.83377 -4.05785
H -12.8476 1.76774 -4.31797
H -12.8802 0.211479 -4.81124
O -0.408269 -9.961 3.81295
H -0.0336957 -10.7934 4.22129
H 0.275682 -9.54768 3.21189
O -7.818 12.2622 -14.7163
H -8.58461 11.6658 14.8978
H -7.1789 11.7655 -14.1292
O 6.34562 14.0822 13.4687
H 7.02932 13.3863 13.2494
H 5.53716 13.6433 13.8607
O -9.05015 -3.51592 -12.1523
H -9.03444 -3.92957 -11.242
H -9.86029 -3.83001 -12.6471
O -12.5758 -0.487465 8.40286
H -12.9945 -0.840496 7.56626
H -11.7742 0.0622929 8.16802
O -4.39784 7.78568 -1.51796
H -3.9252 7.59485 -2.37824
H -5.36848 7.94379 -1.6989
O 14.4957 -11.9493 -3.95229
H 14.0197 -12.5796 -4.56559
H 14.5079 -12.3296 -3.02757
O -4.88041 8.3822 -12.1531
H -4.63646 7.77962 -11.3933
H -4.29691 8.1799 -12.9395
O -5.79291 1.42811 7.50037
H -6.14032 0.622492 7.0206
H -5.38829 2.0606 6.83997
O 5.2334 1.99289 -7.50089
H 6.11765 1.60005 -7.75318
H 4.63932 1.27328 -7.14158
O 0.394269 14.1039 -13.507
H 0.410949 13.1265 -13.7176
H -0.374766 14.3008 -12.899
O 9.82657 -0.680646 -11.1621
H 10.603 -0.153546 -10.8169
H 9.93169 -0.823289 -12.1462
O 6.54477 10.6909 5.37157
H 7.15539 11.1788 5.99526
H 6.74495 10.9611 4.42986
O -7.96297 -3.83934 10.6704
H -8.27773 -4.47364 9.96435
H -7.79101 -4.3421 11.5174
O 6.66128 -3.81724 -3.89878
H 6.50848 -3.90716 -4.88287
H 7.20127 -4.59326 -3.57305
O 10.0279 12.416 -6.44246
H 9.95053 11.4231 -6.53196
H 9.64719 12.7021 -5.56321
O 6.92819 1.62067 -11.8186
H 6.82024 2.59793 -11.6364
H 7.42362 1.19338 -11.0624
O 0.185237 3.33034 -7.69032
H 1.01911 2.85458 -7.96996
H 0.254526 3.58548 -6.72597
O -8.35153 14.3955 -0.719219
H -8.58576 14.4292 -1.69075
H -9.00016 -14.8994 -0.200466
O -11.3999 8.54921 12.2773
H -12.2048 8.16543 11.8248
H -10.7731 7.81063 12.5254
O -5.22308 3.73793 5.75063
H -4.68952 4.28605 6.39466
H -5.92232 4.3116 5.3242
O -4.9329 -11.1665 0.494615
H -5.5467 -10.4176 0.744219
H -5.15073 -11.4823 -0.428808
O 3.22915 14.1189 7.40937
H 3.41483 13.3343 8.0009
H 2.67108 14.7848 7.90434
O 6.45171 -2.56946 7.46971
H 7.09026 -2.33372 8.20222
H 6.92486 -3.11456 6.7777
O -4.43662 0.668832 4.99979
H -4.10583 1.59237 4.80604
H -4.76697 0.248962 4.15454
O -6.52215 14.3238 -4.64562
H -6.60342 13.3314 -4.55456
H -6.36367 14.5587 -5.60459
O -13.4391 -1.5002 5.91488
H -13.8084 -2.37291 6.23412
H -13.2382 -1.56097 4.93723
O 8.76139 -4.36009 6.33793
H 9.13438 -3.6225 5.77514
H 9.5084 -4.83417 6.80388
O 9.97665 5.64275 11.0296
H 9.42801 4.96219 10.5441
H 9.50995 6.52674 11.0043
O 2.66716 1.34311 9.92006
H 2.58205 1.04817 8.9684
H 2.11727 2.1657 10.0645
O -11.7507 13.5745 -12.8405
H -12.5622 13.233 -12.3664
H -11.5413 12.9776 -13.615
O -7.93413 0.0306409 -0.200457
H -7.4934 0.609907 0.485174
H -8.76018 0.482417 -0.537231
O 5.69388 11.9742 -2.52924
H 5.99562 11.6655 -3.4312
H 4.78143 12.3766 -2.60271
O -11.7281 -12.6718 10.424
H -11.2229 -12.865 9.58299
H -12.6989 -12.5604 10.2116
O 10.4219 3.00151 12.2027
H 10.3687 3.86028 11.6933
H 9.50609 2.73445 12.5024
O -3.52236 13.9525 -3.74968
H -3.97482 14.8383 -3.64686
H -3.51606 13.6916 -4.71494
O -3.27673 -4.58501 -14.2128
H -3.0513 -3.7195 -14.66
H -2.48589 -5.19575 -14.251
O 6.81829 8.26615 7.59752
H 7.12049 8.94902 6.9325
H 6.33874 8.72103 8.34785
O 5.59815 11.9262 10.3946
H 4.7047 11.8051 10.827
H 5.88639 12.8793 10.4864
O 2.43957 1.65673 13.861
H 2.01819 2.47176 13.4634
H 1.86487 0.859894 13.6748
O 4.77222 -8.97268 7.02223
H 4.09134 -8.44677 7.53184
H 4.3692 -9.3001 6.16768
O 11.3448 3.76535 -6.88974
H 12.1584 3.20544 -6.73384
H 11.6177 4.6562 -7.25273
O 5.04593 -4.96842 0.754822
H 5.49543 -4.24752 0.227435
H 4.98015 -5.7967 0.198487
O -13.361 0.259566 11.2724
H -13.1317 0.196977 10.3012
H -12.6537 0.781746 11.7489
O -1.95184 -6.41471 -9.8931
H -2.36754 -5.70306 -10.4594
H -2.37232 -7.29695 -10.1046
O -7.51797 2.74276 14.4701
H -7.70386 2.21502 13.6414
H -8.29123 3.34745 14.6607
O 1.64934 -9.87111 2.14947
H 1.4683 -10.3933 1.31614
H 2.16566 -9.04604 1.92022
O -0.923615 -5.55922 13.8097
H -1.22915 -6.43781 13.4428
H -0.590379 -5.6859 14.744
O 9.84055 -10.9887 -6.23339
H 8.8523 -11.129 -6.17366
H 10.0579 -10.5051 -7.08117
O -3.86854 4.09775 13.9987
H -4.53424 4.83787 13.9041
H -4.23624 3.39443 14.607
O -7.72209 11.0179 3.75745
H -8.57718 11.4605 3.48758
H -7.10821 11.6966 4.16039
O 12.263 -1.57606 5.01852
H 11.3693 -2.01655 4.93409
H 12.183 -0.769244 5.60377
O -12.641 -4.89336 5.98244
H -11.9446 -4.43313 6.53299
H -12.197 -5.49396 5.31758
O -6.64652 -0.22127 10.3249
H -6.36565 0.180646 11.1964
H -6.14588 0.217505 9.57876
O 0.453285 -12.5423 11.5562
H 1.15084 -11.8645 11.7884
H 0.203984 -13.0581 12.3758
O 2.94111 -14.2481 -1.21803
H 3.609 -13.7036 -1.72526
H 2.25326 -13.6431 -0.817161
O -10.6562 0.0491907 -14.1769
H -10.6216 -0.424636 -13.2971
H -9.75686 0.00988553 -14.6123
O 0.804169 1.89162 -2.00698
H 0.638373 2.0588 -1.03515
H 0.684212 2.74336 -2.5169
O -0.295594 5.65114 -9.75146
H -0.601548 4.9544 -9.10274
H 0.632647 5.93993 -9.51725
O -11.9025 2.41244 -5.84506
H -11.1926 1.7082 -5.83826
H -12.2249 2.55164 -6.7813
O -9.25086 14.5126 -7.05375
H -8.41163 -14.8319 -6.85838
H -9.75978 14.3706 -6.20479
O 12.459 4.84529 -12.5495
H 12.6667 4.18958 -13.2753
H 12.9092 4.55978 -11.7036
O -10.6171 11.4231 5.26602
H -9.73123 11.3254 5.71948
H -10.8612 10.5609 4.82228
O -9.78368 3.81405 -13.8645
H -9.73653 3.0737 -13.194
H -10.7352 4.09854 -13.9805
O 10.1633 1.54292 -8.04424
H 10.9465 1.4049 -8.65035
H 10.361 2.28933 -7.40888
O 7.78417 -6.67973 -5.91731
H 8.30201 -6.25041 -5.17744
H 8.41799 -7.0792 -6.57957
O -10.806 -4.02342 2.39507
H -11.1195 -4.89925 2.02835
H -9.90008 -3.8133 2.02752
O -2.30557 -14.9121 11.3857
H -3.24937 14.7954 11.0885
H -1.6919 14.8511 10.6012
O 2.13832 -7.79848 -6.37205
H 1.80621 -8.50013 -5.74175
H 1.91417 -8.06054 -7.31064
O 5.36295 3.75093 -10.6079
H 6.19131 3.80582 -10.0505
H 4.57435 3.58083 -10.0171
O 2.32958 -5.9259 6.95463
H 2.70841 -6.24439 6.08577
H 2.89122 -5.17835 7.30907
O 1.99595 9.60338 -9.74043
H 1.89134 10.1688 -10.5585
H 2.50584 8.77469 -9.97101
O -8.43757 11.2422 11.5919
H -8.89073 12.1071 11.3766
H -8.25641 10.7412 10.7457
O 5.60164 -4.12498 -10.4663
H 6.12498 -4.81354 -9.96443
H 6.19297 -3.68322 -11.1409
O 10.9125 -13.7794 -13.5251
H 10.3485 -14.3638 -14.1085
H 11.427 -14.3472 -12.8826
O -13.0187 11.0294 9.48924
H -12.4028 11.4543 8.82582
H -13.3615 11.726 10.1194
O 8.27305 11.4918 1.00092
H 8.7865 12.2813 0.664796
H 8.049 10.8893 0.23499
O -11.0066 -3.70385 7.81885
H -10.421 -4.21234 8.45004
H -10.6159 -2.79746 7.65856
O -9.1666 6.94338 -9.72744
H -10.077 6.60575 -9.96632
H -8.76597 7.40862 -10.5167
O -0.39063 12.7003 11.8393
H -0.996246 12.0774 11.3443
H -0.613797 13.6446 11.5973
O -8.63068 -7.80403 -0.222828
H -7.9712 -7.21403 -0.688529
H -9.10787 -8.36765 -0.896994
O -1.91433 -8.74158 -5.71902
H -2.69487 -8.32613 -6.18598
H -2.00175 -8.59978 -4.73305
O 3.08809 -9.61467 5.02367
H 2.23449 -9.84202 5.49225
H 3.03803 -9.92035 4.07292
O 9.07261 -9.79848 0.839534
H 9.25067 -10.6467 0.340787
H 9.38727 -9.89473 1.78378
O 0.648236 -6.2557 -10.9637
H 1.313 -5.60572 -10.5956
H -0.158923 -6.27698 -10.3738
O -3.04538 -2.28157 13.8706
H -3.62407 -1.66808 14.4079
H -2.98078 -1.94213 12.9323
O -1.7962 -13.3123 7.75155
H -2.66776 -13.4218 7.27375
H -1.84768 -12.5219 8.36183
O -3.13622 -2.18934 -8.21321
H -3.06985 -1.62619 -7.38959
H -2.21807 -2.4353 -8.52367
O 9.66269 -13.5555 -3.059
H 9.31993 -13.5572 -2.11964
H 9.52901 -12.6497 -3.4609
O 0.329585 -14.779 6.19555
H -0.295369 -14.012 6.34057
H 0.280897 14.7791 5.24095
O -13.321 -7.83052 -3.66768
H -13.7862 -8.36151 -4.37587
H -12.3583 -7.71816 -3.91366
O -7.81363 2.82092 2.93646
H -8.26087 1.95602 3.16408
H -7.12933 2.66496 2.22421
O 2.61386 3.12125 4.27617
H 2.38094 3.73261 3.51994
H 2.59049 3.63095 5.13614
O 3.34255 -1.45463 5.18946
H 4.02136 -2.15842 4.98021
H 3.70743 -0.556389 4.94469
O -11.0808 -11.535 -5.25786
H -11.2555 -11.3308 -4.29471
H -10.0979 -11.4879 -5.43554
O -5.97872 1.40045 1.25844
H -5.70019 0.560807 1.7246
H -5.17843 1.83152 0.841772
O 0.294011 13.3134 -5.60982
H 0.433202 13.4072 -4.62407
H -0.183786 12.4556 -5.79879
O -10.8194 4.14025 2.22423
H -9.87768 3.92868 1.96298
H -11.2867 3.2992 2.4965
O -13.47 -3.28574 -4.07034
H -12.9748 -3.5897 -4.88418
H -14.1174 -2.5669 -4.32323
O 12.2592 -5.71352 -2.86092
H 13.1755 -5.83963 -3.24099
H 12.1297 -6.3365 -2.08954
O -9.07956 -2.30648 -6.41947
H -8.49495 -2.52921 -7.19953
H -8.51538 -2.19362 -5.60163
O -13.5771 13.1162 11.4271
H -14.2278 12.4976 11.8674
H -12.7471 13.1765 11.9815
O 2.22822 -0.872445 11.2827
H 1.25379 -1.03982 11.4322
H 2.34528 -0.0246522 10.7655
O 5.83653 10.9605 2.65795
H 6.15188 10.0126 2.70173
H 6.24175 11.4102 1.86202
O 6.63365 14.5352 -2.65871
H 6.2379 13.6185 -2.60354
H 7.48107 14.5648 -2.12873
O 5.28049 14.6451 11.0633
H 5.58926 14.7582 12.0076
H 4.28732 14.7538 11.0221
O -14.0649 9.14131 -3.74769
H -13.5151 8.48257 -3.23423
H -13.8434 9.07396 -4.72045
O -4.18429 13.2482 2.85056
H -4.62664 14.0967 2.56033
H -4.80158 12.4783 2.68889
O -0.0944878 8.49568 6.60398
H 0.345025 9.24661 6.11121
H -0.079398 8.68702 7.58533
O 11.7321 7.92416 12.5844
H 11.6003 8.82213 13.0041
H 11.3099 7.22271 13.1585
O 5.02148 13.7398 3.94515
H 5.03545 14.2787 3.10298
H 5.32451 12.8072 3.74915
O 14.1966 11.481 12.4223
H 13.2913 11.6993 12.7865
H 14.1012 10.872 11.635
O -1.63144 -9.0381 10.9197
H -2.54415 -8.62989 10.9051
H -1.06392 -8.61092 10.216
O 1.34428 -0.0455256 -9.43127
H 0.4376 0.248428 -9.12893
H 1.68932 0.592705 -10.1194
O 9.09976 -2.58355 -6.95851
H 8.1749 -2.39508 -7.28865
H 9.12885 -2.46971 -5.96549
O 4.38025 -6.60738 -1.44586
H 3.78184 -7.15612 -2.02954
H 5.325 -6.69431 -1.76174
O 0.408929 12.3308 -9.40107
H -0.269773 12.5331 -10.107
H 0.172288 11.4715 -8.94773
O -1.72185 9.04882 2.93975
H -1.95575 9.52722 2.0934
H -0.727639 8.97479 3.01692
O 1.26068 -13.4266 -11.9583
H 2.17632 -13.0252 -11.9391
H 1.26531 -14.2396 -12.5403
O 11.718 4.23145 4.15942
H 10.9818 3.77806 3.65709
H 12.5804 4.111 3.66776
O -9.08359 8.56518 -3.60766
H -9.58645 7.73856 -3.86009
H -8.48803 8.36825 -2.82894
O -7.26059 -3.88281 -8.1655
H -7.45413 -4.53829 -8.89542
H -7.16467 -4.3695 -7.29728
O -13.5318 -5.86783 -6.33658
H -14.0993 -6.01924 -5.52733
H -14.0913 -5.96742 -7.15938
O 2.23324 -13.5625 8.93227
H 1.48062 -13.9002 9.4974
H 2.2373 -12.5627 8.94549
O 11.9937 -13.7133 0.823663
H 11.6545 -14.6494 0.916789
H 12.2789 -13.3715 1.71906
O 3.92017 13.1618 14.7943
H 3.65019 14.1164 14.9197
H 3.14234 12.6383 14.4467
O -8.88738 -8.87982 -4.87007
H -9.62995 -8.28887 -5.18509
H -8.79403 -9.65771 -5.49142
O -1.24296 3.2931 13.9848
H -1.3192 2.94801 13.0494
H -2.12547 3.66132 14.2771
O -8.07446 8.36806 3.14636
H -8.50799 8.03123 3.98211
H -7.74729 9.30144 3.29349
O -8.89463 -11.7757 0.225777
H -9.25322 -12.0733 1.11051
H -8.34073 -10.9526 0.350444
O -13.0468 9.8577 3.80195
H -13.3067 10.7262 3.38
H -13.1642 9.92034 4.79301
O 8.42733 4.11362 9.29465
H 8.31147 4.54011 8.39767
H 8.99289 3.29404 9.20346
O 3.23927 2.22417 -0.117783
H 3.63914 1.36338 -0.432465
H 3.78591 2.58993 0.635405
O 4.61141 1.08938 3.96249
H 3.7067 1.51483 3.98189
H 5.0665 1.23371 4.84109
O -12.0018 -4.32123 -11.2733
H -12.4115 -4.11504 -12.1618
H -12.5157 -5.05678 -10.8319
O -4.72197 6.02113 -6.73838
H -3.90036 5.94677 -7.30347
H -4.63638 6.80834 -6.12776
O 11.0212 2.38578 8.84529
H 11.3561 3.16832 9.37001
H 11.7389 1.69193 8.78683
O 10.4749 14.4137 -8.2809
H 11.3375 14.8896 -8.11002
H 10.5484 13.4673 -7.96661
O -12.3208 12.9633 -9.53574
H -11.6451 13.6757 -9.34602
H -11.9487 12.0729 -9.27399
O -9.45576 3.59999 -11.0334
H -8.48006 3.75547 -11.1875
H -9.59818 2.66138 -10.7194
O 13.5403 -12.4244 5.25386
H 14.5295 -12.4271 5.39998
H 13.2079 -11.4814 5.24113
O -4.38045 8.44901 -5.54392
H -3.85466 9.03769 -4.93001
H -4.11227 8.63004 -6.49007
O 4.02879 12.2503 0.502382
H 3.11545 12.3965 0.122493
H 4.66695 12.0361 -0.237051
O -5.19094 8.88095 7.11521
H -4.35472 8.39069 6.86974
H -5.36277 9.60312 6.44525
O -1.2155 0.31186 5.7024
H -1.29524 1.0777 5.06442
H -1.12483 0.662551 6.63443
O -2.51473 10.5286 0.593126
H -2.21614 11.4739 0.724002
H -2.33424 10.2496 -0.349991
O -2.32413 -8.52518 -2.65304
H -3.24419 -8.38733 -2.28647
H -2.04364 -9.47298 -2.50177
O -1.57735 4.91795 0.770925
H -2.50102 5.30083 0.759526
H -1.35275 4.61693 1.69766
O -6.16368 -1.11363 -2.11001
H -6.70647 -0.88884 -1.30085
H -5.25786 -0.697777 -2.02979
O -4.80123 -8.34468 -1.46125
H -5.22186 -7.69117 -2.09044
H -5.29674 -9.21229 -1.50145
O 2.45819 -12.8286 5.91258
H 3.40668 -13.1361 5.98806
H 1.90296 -13.287 6.60642
O -4.85136 -10.2371 -4.10272
H -5.37131 -9.78723 -4.82875
H -4.06222 -10.706 -4.49936
O 11.3301 12.8281 8.73633
H 12.2413 12.4345 8.85795
H 11.3847 13.8239 8.80899
O 14.7683 -14.6698 8.82053
H 14.2014 -13.8473 8.77599
H 14.5472 14.6694 9.65014
O 13.9486 4.62311 2.19986
H 13.8458 4.64436 1.20544
H 14.7231 4.03904 2.44252
O 8.37328 6.21136 -12.0269
H 9.02736 6.92442 -12.2791
H 8.86472 5.42695 -11.6487
O 7.13997 -6.62821 -1.43617
H 7.46095 -7.56211 -1.59328
H 7.14333 -6.43525 -0.455028
O -9.03631 13.7766 11.2503
H -9.89738 14.254 11.4248
H -8.5075 14.2815 10.5682
O -3.20416 6.84607 -10.1885
H -2.53072 7.38489 -10.6945
H -2.88738 5.90046 -10.1152
O -1.49863 -0.489932 -6.47272
H -0.913552 -1.10677 -5.94634
H -2.28128 -0.215371 -5.91419
O -14.7556 7.67163 -0.418735
H -14.051 7.36524 -1.05863
H -14.7461 8.67011 -0.365501
O -8.26704 -7.47044 13.3572
H -8.3198 -7.45982 14.3557
H -7.66861 -6.73175 13.0472
O 11.1666 1.26748 5.70352
H 11.0979 0.889732 4.78023
H 11.9121 1.93313 5.73664
O -9.83106 4.6982 5.8627
H -10.6477 4.72345 5.28627
H -9.71096 3.77608 6.23032
O 9.24356 -7.58091 -7.88326
H 9.43493 -8.45766 -8.32438
H 10.0489 -6.99191 -7.94904
O -10.2433 11.7901 -6.62404
H -9.50342 12.4325 -6.42467
H -10.1171 11.4103 -7.54036
O -11.1215 1.56178 12.2566
H -10.6697 0.670328 12.2235
H -10.5292 2.25128 11.8399
O -8.01303 -0.717596 6.85217
H -8.46307 -0.64259 7.74196
H -8.65328 -1.09995 6.18601
O 10.7226 -4.68156 0.749461
H 11.207 -4.24044 1.50488
H 10.1772 -5.44196 1.10199
O -7.25246 8.79101 14.4214
H -6.77503 9.09071 -14.6045
H -7.94978 9.46457 14.1765
O 14.4035 -8.0352 -1.80944
H 14.1397 -7.79114 -0.876305
H -14.48 -8.28406 -1.82777
O -10.6218 1.44618 7.95413
H -9.6915 1.51406 7.59376
H -11.2459 1.95848 7.3643
O 9.0002 -3.38971 10.6958
H 9.06551 -2.82988 11.5217
H 8.98627 -2.79623 9.89112
O -4.02866 0.851318 -12.5329
H -4.37256 0.662995 -11.613
H -3.04188 1.00832 -12.4941
O -14.4743 7.36459 5.26764
H -14.4116 7.4781 4.27614
H -14.1549 8.1976 5.71931
O -14.5639 -7.44181 -11.8688
H -14.4458 -7.1611 -12.8212
H 14.3204 -7.38579 -11.6224
O -11.3686 5.571 -10.4132
H -12.0734 5.56963 -11.1225
H -10.6625 4.90151 -10.6437
O 3.31371 -7.60669 8.91814
H 3.59307 -7.16667 9.77149
H 3.06289 -6.90722 8.24902
O 1.6373 6.0813 -13.6792
H 2.42651 6.07665 -14.2932
H 1.4148 5.14282 -13.4153
O 6.29017 2.73347 -5.16333
H 6.45305 1.78752 -4.88309
H 5.83852 2.74375 -6.0554
O -3.58517 -1.17403 6.90608
H -2.58574 -1.20574 6.90391
H -3.90263 -0.616858 6.13884
O -8.52133 13.3755 2.32463
H -8.98332 12.5645 1.96582
H -8.13378 13.9008 1.56717
O -13.8297 11.4555 -2.19786
H -14.183 10.5324 -2.34904
H -13.6814 11.5995 -1.21953
O -11.1968 10.522 -9.10844
H -11.325 9.54451 -8.94139
H -11.0506 10.6768 -10.0855
O 1.91073 -2.19109 -11.6875
H 2.17261 -1.90029 -10.7673
H 2.53373 -2.90791 -12.0004
O -0.0979715 13.0418 -2.78342
H 0.390597 12.9221 -1.9192
H -1.05095 12.7613 -2.66913
O 12.6603 -9.88899 4.56633
H 13.3641 -9.2561 4.24388
H 12.0718 -9.42411 5.2277
O 12.107 -6.80247 -11.0849
H 12.3259 -7.73213 -10.7888
H 12.1991 -6.17581 -10.3112
O 14.3309 1.89164 11.5246
H 14.7412 2.76534 11.2635
H -14.8347 1.1675 11.4562
O 6.98736 -12.282 -13.647
H 7.14089 -13.2047 -13.2935
H 7.84896 -11.9094 -13.9915
O -0.546223 -14.1478 -2.36104
H -0.417291 14.7385 -2.58691
H -1.06017 -14.0711 -1.50672
O 5.68012 4.3753 7.4631
H 6.50642 4.83261 7.79169
H 5.53096 3.53809 7.98913
O -6.45846 11.5339 -3.75125
H -7.44319 11.3943 -3.64784
H -5.99448 11.2761 -2.90383
O 14.4262 7.74463 12.8321
H 13.4559 7.71401 12.5924
H -14.902 8.09974 12.0577
O 9.03968 -7.93369 -13.2386
H 8.14056 -7.74571 -13.6337
H 9.36163 -7.1266 -12.7438
O -7.6807 -14.6943 -14.8025
H -7.8549 14.214 -14.5208
H -8.23791 -14.4775 14.2478
O 0.640265 3.33713 10.0365
H 0.997006 3.77852 10.8598
H 0.395371 4.03507 9.36359
O -1.38853 2.44041 7.51841
H -1.93502 2.29067 8.34231
H -0.856983 3.28135 7.61931
O -10.3589 -8.03135 7.92115
H -10.3757 -7.59562 7.02129
H -9.45074 -8.41474 8.08893
O 4.02121 7.404 0.987241
H 4.79624 6.79754 0.810024
H 3.79656 7.3818 1.96137
O -4.06004 -13.1608 -10.7805
H -4.0015 -13.0671 -11.7744
H -3.48722 -12.4658 -10.346
O 5.42157 2.25555 9.01679
H 4.82645 2.76672 9.63681
H 5.36347 1.27987 9.22789
O -12.8156 9.02282 -11.306
H -13.234 9.88674 -11.5862
H -13.4896 8.46939 -10.8167
O 10.8254 10.239 13.8239
H 11.2415 10.2125 14.7328
H 9.92226 9.81126 13.8581
O 14.4313 -10.8246 -10.7515
H -14.7122 -10.7218 -11.4497
H 14.7256 -10.3732 -9.90914
O -9.54351 11.0745 -3.91495
H -9.25242 10.1509 -3.66572
H -10.1314 11.032 -4.72273
O 10.5112 -14.5201 4.99713
H 11.4713 -14.2447 4.94941
H 10.083 -14.099 5.79659
O -9.19667 3.17234 11.1478
H -9.84573 3.45523 10.4417
H -8.27302 3.15793 10.765
O -1.60613 -4.35243 11.3478
H -2.51935 -4.40715 10.9442
H -1.65077 -4.61869 12.3106
O 9.88528 10.9668 7.18099
H 10.4866 11.6868 7.52731
H 9.29104 10.6456 7.91826
O 7.83085 -14.6543 -12.5486
H 8.35668 -14.1465 -11.8662
H 7.18296 14.5917 -12.0869
O -8.31094 12.513 6.98112
H -8.62885 13.4348 7.20244
H -7.39617 12.5631 6.58041
O 8.45693 -11.3115 -9.9269
H 8.8855 -12.0741 -10.4114
H 7.49528 -11.5245 -9.75443
O -3.18845 12.1742 6.57655
H -3.31152 11.4547 5.89312
H -2.84769 13.0022 6.13122
O 8.08991 12.0961 13.2592
H 7.79342 11.2173 13.6328
H 8.57966 11.9451 12.4006
O 10.9039 6.59458 7.93082
H 11.2826 6.27227 7.06333
H 9.91088 6.67992 7.84972
O -13.3533 5.37023 6.77949
H -14.0765 5.17284 7.44131
H -13.7109 5.97073 6.06434
O -11.5125 -11.9334 -12.0139
H -11.9602 -12.5104 -11.3309
H -12.2002 -11.3844 -12.4888
O -3.51707 10.4722 4.41086
H -4.11176 10.362 3.61456
H -2.72942 9.86208 4.32554
O 5.43322 -12.8225 -1.77291
H 6.21509 -12.1992 -1.77882
H 5.66651 -13.6546 -2.276
O -0.999527 -14.0376 -6.56107
H -1.3326 -14.2483 -7.48006
H -0.449896 -14.8012 -6.22251
O 7.68474 -14.2757 1.17336
H 7.97137 -13.7267 1.95843
H 6.72174 -14.5251 1.27484
O -8.01484 11.7236 -0.652771
H -8.89693 11.4227 -0.290447
H -8.1057 12.646 -1.0278
O -1.07868 -10.7716 0.177457
H -1.61501 -10.0882 0.672672
H -1.44939 -10.882 -0.744642
O -2.58633 -8.00664 -14.3997
H -3.36773 -8.62985 -14.4296
H -1.95359 -8.22956 14.7106
O -8.11396 -12.434 -12.3848
H -7.71938 -12.5565 -13.2954
H -8.66882 -13.2326 -12.1519
O 12.8321 6.98585 -1.66097
H 13.6885 7.34982 -1.29493
H 12.6382 7.41404 -2.54354
O 4.75552 3.12679 1.87847
H 4.66728 2.3374 2.4859
H 5.62539 3.58738 2.05473
O -5.28273 -13.6186 14.3145
H -6.03883 -13.912 14.8994
H -5.61046 -12.9323 13.6653
O -11.0164 -0.991525 -2.69296
H -11.187 -1.21656 -1.73371
H -11.5306 -0.170003 -2.93911
O -9.09667 -8.07477 4.558
H -8.39893 -7.87378 5.2455
H -8.89645 -7.56541 3.72113
O -6.92106 3.18458 -10.8261
H -6.3954 3.85215 -11.3533
H -6.76352 3.33232 -9.84975
O 3.27828 7.58453 -11.2291
H 2.57209 7.02301 -11.6602
H 4.18002 7.21144 -11.4472
O 0.318273 5.42455 8.25527
H -0.276098 6.12335 8.65314
H 0.777968 5.79748 7.44936
O -4.39712 -8.35877 -9.78587
H -3.72282 -8.93634 -10.2459
H -4.47121 -7.48521 -10.2668
O 0.350222 -8.81394 -12.7994
H 1.14416 -9.01081 -12.2242
H 0.601642 -8.142 -13.4959
O 5.83761 1.20609 6.48375
H 6.63276 0.62714 6.66387
H 5.55498 1.65696 7.33034
O -12.0593 5.41276 -14.2256
H -12.063 6.31884 -13.8027
H -12.9758 5.19917 -14.5639
O -6.70271 5.57078 -3.45291
H -6.96226 5.16824 -2.57514
H -7.01668 6.51941 -3.4904
O -3.91257 6.37698 0.816001
H -3.88415 7.07031 0.0960187
H -4.42113 6.73176 1.60047
O -9.9785 -2.06743 4.83242
H -9.92143 -3.06539 4.806
H -10.936 -1.78652 4.76804
O -9.91812 -12.7663 2.40191
H -9.68657 -12.0342 3.04243
H -10.0871 -13.6115 2.90879
O 0.982247 -0.156633 -3.58539
H 0.157859 -0.583887 -3.9565
H 0.732259 0.674679 -3.08909
O 7.97087 2.92493 -0.156858
H 7.13983 3.3447 -0.521638
H 7.91499 1.93177 -0.258811
O 8.78842 -5.61919 -3.44493
H 8.24222 -5.8855 -2.65081
H 9.74719 -5.53013 -3.17529
O -7.17603 -11.3723 6.78064
H -6.83324 -10.9485 5.9423
H -7.71952 -12.1788 6.54828
O 3.84375 6.77376 4.11537
H 3.75725 7.74015 4.3572
H 4.58639 6.36303 4.64421
O -11.0695 -2.71214 -9.1152
H -11.3262 -3.39437 -9.79971
H -11.5452 -1.85347 -9.30573
O 7.94872 10.2709 -13.2885
H 7.15923 10.8838 -13.3177
H 7.8642 9.58389 -14.0102
O -0.834819 -6.00039 -13.5212
H -1.41488 -6.81295 -13.5773
H -0.275099 -6.04698 -12.6939
O -14.0206 8.64778 -6.40938
H -14.5372 9.34286 -6.90927
H -13.2794 8.30444 -6.98607
O -10.0969 0.942639 -9.79175
H -9.34411 0.907367 -9.13458
H -10.018 0.17731 -10.4304
O -11.5622 -10.664 -2.6159
H -11.8433 -11.5264 -2.19497
H -11.8676 -9.90036 -2.04716
O -1.25791 11.2286 -6.27075
H -1.34784 10.7879 -7.16383
H -1.58777 10.609 -5.55861
O -4.99779 -14.7716 11.1799
H -5.48525 14.4206 11.7519
H -5.13741 -13.8498 11.5413
O -9.57328 -7.35322 -11.2759
H -10.2289 -7.33537 -12.0307
H -9.18446 -8.27081 -11.1938
O 2.74898 -4.99529 -9.80056
H 3.68215 -4.98108 -10.1596
H 2.56807 -4.14365 -9.30875
O -9.9445 -11.4689 -9.6777
H -10.4497 -11.6427 -10.523
H -9.9271 -10.4858 -9.49596
O -14.8624 -0.388127 -6.37
H 14.4429 -1.13537 -6.74783
H -13.9346 -0.433571 -6.74021
O -0.000728672 6.35918 -0.649895
H -0.678314 5.86222 -0.107865
H 0.895053 5.92871 -0.539624
O 12.4579 2.25093 -4.23194
H 11.6016 2.30399 -4.74566
H 13.2246 2.17332 -4.86913
O -5.91964 -4.10871 -13.4833
H -4.96478 -4.18727 -13.7696
H -6.11771 -3.15917 -13.2404
O 5.43649 -6.59541 11.1998
H 5.69112 -7.45754 11.6377
H 5.03331 -5.9827 11.8794
O -6.2393 0.153049 13.3607
H -5.68271 -0.157763 14.1311
H -7.12067 -0.319072 13.3744
O 11.5891 -11.7808 12.51
H 11.478 -11.0558 11.8303
H 11.2112 -11.4782 13.3849
O -12.1136 1.53155 2.81392
H -12.1315 1.88606 1.8791
H -12.9075 1.87457 3.31578
O -3.54403 1.63934 9.26615
H -4.09948 1.29405 8.50975
H -4.04694 1.53428 10.124
O 11.9822 9.91268 -13.1839
H 12.9288 10.0868 -12.9129
H 11.44 10.7426 -13.0528
O -3.25029 10.3982 -10.4053
H -3.09844 9.99443 -9.5032
H -4.22459 10.3613 -10.6273
O -1.41059 5.08942 -12.4111
H -1.32983 5.94907 -12.9155
H -1.07668 5.21817 -11.4774
O -7.47534 1.0842 -12.6822
H -7.54391 1.55368 -13.5624
H -7.35178 1.75803 -11.9538
O 12.91 -2.46428 -2.04102
H 12.9617 -1.66243 -2.63621
H 11.972 -2.81043 -2.02885
O -5.99838 5.71375 11.4981
H -6.4194 6.48851 11.0265
H -5.99229 4.9182 10.8923
O -3.65 -5.0802 9.73592
H -3.14329 -4.83801 8.9086
H -4.22503 -4.31014 10.012
O 13.996 2.30574 -6.68113
H 14.5012 3.12419 -6.95458
H 14.5752 1.49993 -6.80413
O -6.9404 -1.5002 -12.8307
H -6.88977 -0.547976 -12.5297