LAMMPS data file via write_data, version 15 May 2015, timestep = 2000000

4560 atoms
7 atom types
5040 bonds
3 bond types
7200 angles
2 angle types
10560 dihedrals
3 dihedral types
2400 impropers
1 improper types

-1.0763502675555259e-01 4.1387635026745990e+01 xlo xhi
-4.0433884491974936e-02 3.5938433884472119e+01 ylo yhi
-3.5711112484589691e-01 2.9555111124838550e+01 zlo zhi
-6.7234083837551181e-02 -1.7036217651000683e+01 -4.1707816797290791e-02 xy xz yz

Masses

1 12.0107
2 1.008
3 12.0107
4 12.0107
5 12.0107
6 12.0107
7 12.0107

Pair Coeffs # lj/cut/coul/cut

1 0 0
2 0 0
3 0 0
4 0 0
5 0 0
6 0 0
7 0 0

Bond Coeffs # harmonic

1 469 1.4
2 367 1.08
3 469 0.7

Angle Coeffs # harmonic

1 35 120
2 63 120

Dihedral Coeffs # opls

1 0 7.25 0 0
2 0 7.25 0 0
3 0 7.25 0 0

Improper Coeffs # cvff

1 2.5 -1 2

Atoms # full

219 13 3 0.0000000000000000e+00 -3.2015451675856954e-01 3.0852197811874942e+00 3.1238204301617882e+00 1 0 0
220 13 4 0.0000000000000000e+00 3.1387010592627096e-01 4.1544528948276565e+00 2.3829179445635855e+00 1 0 0
224 13 2 0.0000000000000000e+00 5.3934178849706038e-01 5.0557665986509051e+00 2.8707521551884030e+00 1 0 0
580 33 4 0.0000000000000000e+00 2.6981345144329749e+00 6.6751133197297969e+00 4.0102894334619164e+00 1 0 0
228 13 3 0.0000000000000000e+00 -5.5841766831434914e-01 1.8593644974377788e+00 2.5208708347955731e+00 1 0 0
989 53 4 0.0000000000000000e+00 -1.4176774712416249e+00 7.1039495933303298e+00 3.5103139365709950e+00 1 0 0
600 34 2 0.0000000000000000e+00 2.7377013157294705e-01 6.0272080352524453e+00 6.9310438523544260e+00 1 0 0
245 14 4 0.0000000000000000e+00 -4.7914893361096258e+00 1.4090640968711061e+00 9.0463493749644215e+00 1 0 0
227 13 4 0.0000000000000000e+00 -2.3427193812464331e-01 1.5963804690420125e+00 1.2234196899512397e+00 1 0 0
4390 233 1 0.0000000000000000e+00 2.5032535004294805e+00 7.3039395085570624e-01 5.5230151449198068e+00 1 1 0
733 13 6 0.0000000000000000e+00 -4.1900610006443340e-01 2.4145625118943776e+00 2.9343298830469755e+00 1 0 0
2513 133 2 0.0000000000000000e+00 -1.3999035036974758e+00 1.7816495083072741e+01 2.9945496141454058e+00 1 0 0
230 13 1 0.0000000000000000e+00 5.6672488137367039e-01 3.8987474496201391e+00 1.0443998030570520e+00 1 0 0
217 13 7 0.0000000000000000e+00 -1.2486567632721941e+00 2.3344564125115643e+00 5.1997282538140848e+00 1 0 0
218 13 5 0.0000000000000000e+00 -5.5147038892401401e-01 3.2674788998500230e+00 4.5034569294158908e+00 1 0 0
221 13 1 0.0000000000000000e+00 -1.5466727711790655e+00 1.0836063116156163e+00 4.6114616351761262e+00 1 0 0
222 13 2 0.0000000000000000e+00 -1.3969085901305727e+00 2.6044010498547880e+00 6.2287616086485800e+00 1 0 0
223 13 2 0.0000000000000000e+00 -4.1847827091007472e-01 4.2547166451540956e+00 5.0184146161305074e+00 1 0 0
248 14 1 0.0000000000000000e+00 -3.4923055655234321e+00 3.4338199808759020e+00 8.6726726859267824e+00 1 0 0
4380 233 4 0.0000000000000000e+00 2.6769208255113801e+00 1.1329016473527680e+00 4.1858024796111915e+00 1 1 0
244 14 1 0.0000000000000000e+00 -4.0022794243469573e+00 2.2351953034793515e+00 8.2179053412178185e+00 1 0 0
603 34 2 0.0000000000000000e+00 1.0089543083621120e+00 3.6475513180614323e+00 7.5588777414934949e+00 1 0 0
4396 234 5 0.0000000000000000e+00 -8.4453959407861401e-01 1.7850622922647877e-01 9.2501001349203307e+00 1 1 0
4394 233 2 0.0000000000000000e+00 2.0393525804016699e+00 1.3927433347148357e+00 6.2447273399835028e+00 1 1 0
579 33 3 0.0000000000000000e+00 3.4522789477842268e+00 5.8680110435443487e+00 3.1733423247115620e+00 1 0 0
252 14 2 0.0000000000000000e+00 -2.8647406475398411e+00 4.0748159027782203e+00 8.1424657275986050e+00 1 0 0
581 33 1 0.0000000000000000e+00 4.8755721549947104e+00 4.0407592488879844e+00 1.5549017345194185e+00 1 0 0
596 34 5 0.0000000000000000e+00 -4.8003789623543192e-01 6.3849324174244275e+00 8.9393728440982816e+00 1 0 0
577 33 7 0.0000000000000000e+00 4.4114126681641048e+00 5.2455897496507387e+00 1.0313597311933795e+00 1 0 0
588 33 3 0.0000000000000000e+00 3.8791320514836269e+00 4.6278751072150266e+00 3.6914508327298519e+00 1 0 0
589 33 4 0.0000000000000000e+00 4.5540256047030114e+00 3.7035193459548417e+00 2.8622244194056092e+00 1 0 0
593 33 2 0.0000000000000000e+00 4.8306487082163123e+00 2.7374209472018558e+00 3.2020031676061236e+00 1 0 0
753 33 6 0.0000000000000000e+00 3.6219906431542377e+00 5.1695822042723982e+00 3.2987083533300936e+00 1 0 0
4383 233 2 0.0000000000000000e+00 2.9605077816566707e+00 1.4939114881710629e+00 1.7056506397930353e+00 1 1 0
4379 233 3 0.0000000000000000e+00 3.2909150900714650e+00 2.5533152944123860e-01 3.2617874382789882e+00 1 1 0
578 33 5 0.0000000000000000e+00 3.6392308230286003e+00 6.1865366491785219e+00 1.8035294006345741e+00 1 0 0
226 13 1 0.0000000000000000e+00 2.9865466949052411e-01 2.6657611263937819e+00 4.8034005061449703e-01 1 0 0
4384 233 2 0.0000000000000000e+00 2.2771560041840879e+00 2.1293727716314206e+00 3.9470362891733588e+00 1 1 0
586 33 1 0.0000000000000000e+00 2.9302882699562609e+00 5.1390300810044032e+00 5.9215710753673969e+00 1 0 0
587 33 4 0.0000000000000000e+00 3.6484496045316832e+00 4.2855231040002977e+00 5.0377645263473152e+00 1 0 0
585 33 2 0.0000000000000000e+00 5.3572248194850474e+00 3.3295540013578697e+00 9.9092961721908135e-01 1 0 0
591 33 2 0.0000000000000000e+00 2.7680377097387883e+00 5.0123343850761524e+00 6.9514514838779533e+00 1 0 0
592 33 2 0.0000000000000000e+00 3.7741302557568059e+00 3.3023471864157017e+00 5.3607593651047996e+00 1 0 0
590 33 1 0.0000000000000000e+00 2.4570721686666435e+00 6.3015040499015855e+00 5.3550581130172974e+00 1 0 0
250 14 2 0.0000000000000000e+00 -5.0647711996738236e+00 4.4779128271872909e-01 8.6788429662481050e+00 1 0 0
234 13 2 0.0000000000000000e+00 1.0643369074453217e+00 4.6181163922554527e+00 3.6801736373836558e-01 1 0 0
229 13 4 0.0000000000000000e+00 -1.1923045635690634e+00 8.1332511555574893e-01 3.2620934701524420e+00 1 0 0
1010 54 2 0.0000000000000000e+00 -4.9907239382715058e+00 6.1209844049605762e+00 8.7099545657770356e+00 1 0 0
985 53 2 0.0000000000000000e+00 -1.8124372148497405e+00 6.4085766937323001e+00 5.4572603741190848e+00 1 0 0
599 34 1 0.0000000000000000e+00 5.8749139469408096e-01 4.3178527162289022e+00 8.2218170391523220e+00 1 0 0
4401 234 2 0.0000000000000000e+00 -1.2713538770041559e+00 1.1089031703724881e+00 8.8054963898689298e+00 1 1 0
225 13 2 0.0000000000000000e+00 -1.9387658492679725e+00 2.2719945747974224e-01 5.1979332193200571e+00 1 0 0
595 34 7 0.0000000000000000e+00 1.4583595287801199e-01 5.5999506521604774e+00 7.9669737717892239e+00 1 0 0
981 53 1 0.0000000000000000e+00 -1.3839611153603528e+00 7.2065955976288310e+00 4.9042893629997106e+00 1 0 0
4378 233 5 0.0000000000000000e+00 3.4368149328764752e+00 5.5527649276981839e-01 1.9195219893894739e+00 1 1 0
582 33 2 0.0000000000000000e+00 4.4347640270770539e+00 5.4862384580975885e+00 -2.6938119164454100e-02 1 0 0
583 33 2 0.0000000000000000e+00 3.2384704101102915e+00 7.0666741801743402e+00 1.3518801421710911e+00 1 0 0
1369 74 2 0.0000000000000000e+00 -7.3307416645523826e-01 1.1259415450109614e+01 1.3948377865358038e+01 1 0 0
1756 94 5 0.0000000000000000e+00 -4.6159028202098833e+00 1.5192068100236686e+01 1.2045943939340320e+01 1 0 0
235 14 7 0.0000000000000000e+00 -5.4140406405334822e+00 2.3528004359670347e+00 1.3082743005069135e+01 1 0 0
236 14 5 0.0000000000000000e+00 -4.6904527743439122e+00 3.2055865762350635e+00 1.2241867660069225e+01 1 0 0
597 34 3 0.0000000000000000e+00 -6.6514490477422772e-01 5.8789679838516644e+00 1.0216106189583787e+01 1 0 0
734 14 6 0.0000000000000000e+00 -4.6109921414910318e+00 2.3404922252919333e+00 1.0501015900999196e+01 1 0 0
239 14 1 0.0000000000000000e+00 -5.9949310073459303e+00 1.1241936864279896e+00 1.2564027614197693e+01 1 0 0
240 14 2 0.0000000000000000e+00 -5.4807801354274694e+00 2.7546998358143981e+00 1.4128245758790595e+01 1 0 0
243 14 2 0.0000000000000000e+00 -6.5810491987676611e+00 4.5383773671368610e-01 1.3181840456139124e+01 1 0 0
237 14 3 0.0000000000000000e+00 -4.4490388553053908e+00 2.9008325629773242e+00 1.0853375655621194e+01 1 0 0
4402 234 2 0.0000000000000000e+00 -2.0294828432450549e+00 1.6771286153931291e+00 1.1167285706064133e+01 1 1 0
1757 94 3 0.0000000000000000e+00 -4.6491881199890779e+00 1.5082224966380918e+01 1.0645916818956144e+01 1 0 0
242 14 2 0.0000000000000000e+00 -3.0217812840729885e+00 4.5278774237541652e+00 1.0512013681720150e+01 1 0 0
4408 234 1 0.0000000000000000e+00 -1.8031500849380597e+00 2.3159086958987157e-01 1.2742176703984217e+01 1 1 0
238 14 4 0.0000000000000000e+00 -3.6238797797708422e+00 3.7075525269706047e+00 1.0053975779185372e+01 1 0 0
246 14 3 0.0000000000000000e+00 -5.0035882395238680e+00 1.7401985629388552e+00 1.0373446935961656e+01 1 0 0
604 34 1 0.0000000000000000e+00 -7.8969030845440269e-01 4.9737629798106884e+00 1.2876672468676201e+01 1 0 0
605 34 4 0.0000000000000000e+00 -4.1367418056564631e-01 4.1026215399055195e+00 1.1821475626374376e+01 1 0 0
606 34 3 0.0000000000000000e+00 -2.4095516307802178e-01 4.5910410120113614e+00 1.0478254079596526e+01 1 0 0
607 34 4 0.0000000000000000e+00 3.7446598840788070e-01 3.7987321534077405e+00 9.5249218097015635e+00 1 0 0
611 34 2 0.0000000000000000e+00 7.2665794181241594e-01 2.8181523934891728e+00 9.8630493592894606e+00 1 0 0
610 34 2 0.0000000000000000e+00 3.2860641977622507e-02 3.0983182295315479e+00 1.2133351937126918e+01 1 0 0
241 14 2 0.0000000000000000e+00 -4.2563948493558712e+00 4.1286423254025690e+00 1.2586404931994577e+01 1 0 0
1342 73 2 0.0000000000000000e+00 4.6056219331320678e+00 1.1964073909429446e+01 -1.3803183010984546e-01 1 0 0
598 34 4 0.0000000000000000e+00 -1.2194527862923934e+00 6.6983503780036164e+00 1.1223446798184961e+01 1 0 0
754 34 6 0.0000000000000000e+00 -4.3676862351992440e-01 5.2874246738725583e+00 1.0495914810419659e+01 1 0 0
609 34 2 0.0000000000000000e+00 -6.8027592466489573e-01 4.6093099018329102e+00 1.3868842262412148e+01 1 0 0
4398 234 4 0.0000000000000000e+00 -1.6519001949712075e+00 6.8107255453362692e-01 1.1429887785830402e+01 1 1 0
4412 234 2 0.0000000000000000e+00 -2.2262814403861588e+00 9.5645918777639827e-01 1.3439774918064868e+01 1 1 0
247 14 4 0.0000000000000000e+00 -5.7045534199570458e+00 8.5190730231253786e-01 1.1200135886187510e+01 1 0 0
608 34 1 0.0000000000000000e+00 -1.2223534199412933e+00 6.2749879587828854e+00 1.2537631122934808e+01 1 0 0
612 34 2 0.0000000000000000e+00 -1.6259857546675942e+00 6.9341207399513518e+00 1.3266893831991180e+01 1 0 0
979 53 3 0.0000000000000000e+00 -1.0135632889696544e-01 9.1150918426700436e+00 3.3137671231224246e+00 1 0 0
980 53 4 0.0000000000000000e+00 6.1949109124612756e-01 1.0107759113317790e+01 2.6021445579709526e+00 1 0 0
984 53 2 0.0000000000000000e+00 1.1280541861165423e+00 1.0906517619937272e+01 3.0518513413048169e+00 1 0 0
1361 74 2 0.0000000000000000e+00 -1.0052544449573020e+00 1.3368040951128881e+01 8.4789218548383953e+00 1 0 0
990 53 1 0.0000000000000000e+00 5.4814553723883963e-01 1.0006242655433216e+01 1.1899625708946713e+00 1 0 0
2253 93 6 0.0000000000000000e+00 -3.7260092256138355e-01 1.4268738943732563e+01 2.9987935595657684e+00 1 0 0
1493 53 6 0.0000000000000000e+00 -5.4890373995918962e-01 8.6581134581336663e+00 2.9686545941123943e+00 1 0 0
986 53 1 0.0000000000000000e+00 -1.7570432823977689e-01 8.9882372919646194e+00 5.9277011256344048e-01 1 0 0
1005 54 4 0.0000000000000000e+00 -4.5720100707205491e+00 7.1022353301594601e+00 8.8604571544245765e+00 1 0 0
994 53 2 0.0000000000000000e+00 1.1127643880787028e+00 1.0707285030475504e+01 5.6957088122589838e-01 1 0 0
594 33 2 0.0000000000000000e+00 1.9342289048207921e+00 6.9762682392064850e+00 5.9447890361551083e+00 1 0 0
1741 93 1 0.0000000000000000e+00 -1.2812297914540309e+00 1.3292078391400530e+01 4.9015470285663492e+00 1 0 0
977 53 7 0.0000000000000000e+00 -7.1528168824278104e-01 8.2892175582263992e+00 5.4962676773044938e+00 1 0 0
978 53 5 0.0000000000000000e+00 -6.7952083359750226e-02 9.2328585480314018e+00 4.6860320339736328e+00 1 0 0
982 53 2 0.0000000000000000e+00 -6.3047341423556569e-01 8.3623516311240973e+00 6.4923291536378205e+00 1 0 0
983 53 2 0.0000000000000000e+00 5.3836021335493989e-01 1.0055947926303983e+01 5.1025385751020744e+00 1 0 0
1012 54 2 0.0000000000000000e+00 -2.3173407351548767e+00 9.4861031289982698e+00 7.6295395858202477e+00 1 0 0
1004 54 1 0.0000000000000000e+00 -3.7242559644610074e+00 7.7623039609453084e+00 7.9757470689557888e+00 1 0 0
1363 74 2 0.0000000000000000e+00 9.0953800879400593e-01 9.6021185298381919e+00 7.6673126226892663e+00 1 0 0
1745 93 2 0.0000000000000000e+00 -1.7073891077712873e+00 1.2561189891543011e+01 5.5612509082493133e+00 1 0 0
1008 54 1 0.0000000000000000e+00 -3.0027735927264585e+00 8.9611842206118872e+00 8.2970290986938462e+00 1 0 0
1338 73 5 0.0000000000000000e+00 3.6953203615497965e+00 1.2285817260522167e+01 1.6498136228706750e+00 1 0 0
1339 73 3 0.0000000000000000e+00 3.4214751911611279e+00 1.1876060499503053e+01 2.9671980322786626e+00 1 0 0
1340 73 4 0.0000000000000000e+00 2.7289306151043506e+00 1.2748803575727671e+01 3.7797029955692061e+00 1 0 0
1341 73 1 0.0000000000000000e+00 5.0150912265857785e+00 1.0327677895650551e+01 1.3568840370430464e+00 1 0 0
1337 73 7 0.0000000000000000e+00 4.4551683638386192e+00 1.1476086239373172e+01 8.5524700181568836e-01 1 0 0
1343 73 2 0.0000000000000000e+00 3.3512766829748486e+00 1.3251048367023095e+01 1.3073408972232201e+00 1 0 0
988 53 3 0.0000000000000000e+00 -7.9215501190539372e-01 8.0626730393634265e+00 2.7006053094384290e+00 1 0 0
1348 73 3 0.0000000000000000e+00 3.8818987756880539e+00 1.0615174208096043e+01 3.4683658001391140e+00 1 0 0
1349 73 4 0.0000000000000000e+00 4.6600754221196565e+00 9.8212384085926256e+00 2.6074905889191338e+00 1 0 0
1353 73 2 0.0000000000000000e+00 5.0335715752187173e+00 8.9094407427451987e+00 3.0812460306627600e+00 1 0 0
1513 73 6 0.0000000000000000e+00 3.6988177193308105e+00 1.1271429921713841e+01 3.2483509641763342e+00 1 0 0
1356 74 5 0.0000000000000000e+00 -6.0852337026527792e-01 1.2389276282442365e+01 8.7642634231924674e+00 1 0 0
1354 73 2 0.0000000000000000e+00 1.7689490200259912e+00 1.2895107561414752e+01 5.7638313807309327e+00 1 0 0
1346 73 1 0.0000000000000000e+00 2.8808977734226020e+00 1.1106295446635396e+01 5.5490747640721132e+00 1 0 0
1347 73 4 0.0000000000000000e+00 3.6248128378077897e+00 1.0227729501346023e+01 4.7769402713551719e+00 1 0 0
1350 73 1 0.0000000000000000e+00 2.3864670574090501e+00 1.2309176124574616e+01 5.0394479588093466e+00 1 0 0
1351 73 2 0.0000000000000000e+00 2.6774375444080851e+00 1.0798077643272554e+01 6.5840989512848429e+00 1 0 0
1352 73 2 0.0000000000000000e+00 4.0998727271911255e+00 9.3303194839954831e+00 5.1218228629995854e+00 1 0 0
1345 73 2 0.0000000000000000e+00 5.7219804025494971e+00 9.8222478292947688e+00 7.0937759825677338e-01 1 0 0
1355 74 7 0.0000000000000000e+00 -4.8896927276243396e-02 1.1516167728591274e+01 7.8633237007845125e+00 1 0 0
1359 74 1 0.0000000000000000e+00 5.2058232135428550e-01 1.0315928298581531e+01 8.3613861357938895e+00 1 0 0
1360 74 2 0.0000000000000000e+00 -1.1641842325297835e-01 1.1667489863591367e+01 6.7899198620647132e+00 1 0 0
1747 93 4 0.0000000000000000e+00 -5.8275926167116343e-01 1.3373966215979094e+01 1.3001316876728599e+00 1 0 0
1748 93 3 0.0000000000000000e+00 -6.9240439684107180e-01 1.3801848956142733e+01 2.6290959586922118e+00 1 0 0
601 34 2 0.0000000000000000e+00 -9.1157691083212899e-01 7.3427875697404676e+00 8.6925778585174083e+00 1 0 0
232 13 2 0.0000000000000000e+00 -4.4870430545036133e-01 6.8693536975498526e-01 6.9774304346598726e-01 1 0 0
1746 93 1 0.0000000000000000e+00 2.0071538471462874e-01 1.4100365803713522e+01 3.7128820626072823e-01 1 0 0
584 33 2 0.0000000000000000e+00 2.3008250056775399e+00 7.5700610505916153e+00 3.5543109599632672e+00 1 0 0
2131 114 2 0.0000000000000000e+00 1.0995025621790830e+00 1.4699008097515133e+01 9.9241474988013838e+00 1 0 0
1749 93 4 0.0000000000000000e+00 -1.2403738342581638e+00 1.2993464903537708e+01 3.5778986575856813e+00 1 0 0
1762 94 2 0.0000000000000000e+00 -3.4613011973639995e+00 1.6837025411805953e+01 1.0259142825928718e+01 1 0 0
1344 73 2 0.0000000000000000e+00 2.4839130528396258e+00 1.3667840492177202e+01 3.2137702967253516e+00 1 0 0
1009 54 2 0.0000000000000000e+00 -3.5026229782098661e+00 7.2924485294983761e+00 7.0068588672437677e+00 1 0 0
987 53 4 0.0000000000000000e+00 -7.5060192453352270e-01 7.9108764602692263e+00 1.3356496101279918e+00 1 0 0
995 54 7 0.0000000000000000e+00 -5.3260612893460122e+00 9.0348081426078934e+00 1.2620348174779707e+01 1 0 0
996 54 5 0.0000000000000000e+00 -4.3473557657419208e+00 9.5709637757580523e+00 1.1731823858678730e+01 1 0 0
997 54 3 0.0000000000000000e+00 -4.1099432065908861e+00 8.9065727294860704e+00 1.0501897706413111e+01 1 0 0
1001 54 2 0.0000000000000000e+00 -3.8148986355120598e+00 1.0444904094394683e+01 1.1838917127330468e+01 1 0 0
1371 74 2 0.0000000000000000e+00 9.0366351640037124e-01 9.1825112888531315e+00 1.0173011090542778e+01 1 0 0
1357 74 3 0.0000000000000000e+00 -5.6166915869542144e-01 1.2172453330364874e+01 1.0168355885668213e+01 1 0 0
1767 94 4 0.0000000000000000e+00 -6.0045293671946123e+00 1.3100646326102062e+01 1.0816870111442432e+01 1 0 0
998 54 4 0.0000000000000000e+00 -3.2142150138046937e+00 9.4730736189882663e+00 9.6022215064844314e+00 1 0 0
1494 54 6 0.0000000000000000e+00 -4.5488582734626917e+00 8.4153403972553740e+00 1.0313719283045245e+01 1 0 0
1362 74 2 0.0000000000000000e+00 -1.7297892363180214e+00 1.3989432684780043e+01 1.0740518033167888e+01 1 0 0
1003 54 2 0.0000000000000000e+00 -6.5868674720346725e+00 7.2927366509859608e+00 1.2941581355591307e+01 1 0 0
999 54 1 0.0000000000000000e+00 -5.8970536371914157e+00 7.8057551101599714e+00 1.2281165479129939e+01 1 0 0
1372 74 2 0.0000000000000000e+00 -1.7717992100075950e+00 1.3296092305058206e+01 1.3230196121369437e+01 1 0 0
1514 74 6 0.0000000000000000e+00 -2.3553520746083922e-01 1.1646559761902836e+01 1.0547968289997026e+01 1 0 0
602 34 2 0.0000000000000000e+00 -1.6046618409954840e+00 7.6339948233210544e+00 1.1129777191366495e+01 1 0 0
1358 74 4 0.0000000000000000e+00 -1.2210365221919588e+00 1.3076548041136620e+01 1.1111909978410404e+01 1 0 0
1364 74 1 0.0000000000000000e+00 -6.7462675766489966e-01 1.1511375720438918e+01 1.2950353385297984e+01 1 0 0
1365 74 4 0.0000000000000000e+00 -8.6411759630912854e-02 1.0645075287378356e+01 1.2015631710223651e+01 1 0 0
1366 74 3 0.0000000000000000e+00 -6.5163286274739995e-02 1.0973836982395550e+01 1.0649444380914778e+01 1 0 0
1759 94 1 0.0000000000000000e+00 -6.0360106258331667e+00 1.3267047251928220e+01 1.2206575636917419e+01 1 0 0
1368 74 1 0.0000000000000000e+00 -1.2400936662064073e+00 1.2717873171547964e+01 1.2498620172959138e+01 1 0 0
267 15 2 0.0000000000000000e+00 -8.3933873893791269e+00 1.8636408107065512e+00 1.4517559937890558e+01 1 0 0
1370 74 2 0.0000000000000000e+00 3.1325812368312711e-01 9.6355057401433815e+00 1.2310744569615276e+01 1 0 0
1378 75 2 0.0000000000000000e+00 -4.1820066825690825e+00 1.1787719237506163e+01 1.3978638465594292e+01 1 0 0
1000 54 2 0.0000000000000000e+00 -5.4620527287930871e+00 9.5147230057571601e+00 1.3588640491184849e+01 1 0 0
1766 94 3 0.0000000000000000e+00 -5.3381939818283941e+00 1.4001453195359955e+01 1.0027846409962413e+01 1 0 0
1006 54 3 0.0000000000000000e+00 -4.7738143755460927e+00 7.7783186447684685e+00 1.0159122168202769e+01 1 0 0
1763 94 2 0.0000000000000000e+00 -6.5753540608661352e+00 1.2488056565214341e+01 1.2823116295149505e+01 1 0 0
1367 74 4 0.0000000000000000e+00 4.9723769888236991e-01 1.0041664871191459e+01 9.7443467520500526e+00 1 0 0
1002 54 2 0.0000000000000000e+00 -2.9139855895155793e+00 1.0491288903831554e+01 9.8524794785135903e+00 1 0 0
1755 94 7 0.0000000000000000e+00 -5.3458239248082151e+00 1.4356961466914072e+01 1.2848701345419313e+01 1 0 0
1007 54 4 0.0000000000000000e+00 -5.6578430096792491e+00 7.1919295831388759e+00 1.1040799107597836e+01 1 0 0
1737 93 7 0.0000000000000000e+00 -7.9659122017790063e-01 1.4574440397652483e+01 5.3273862315875355e+00 1 0 0
1740 93 4 0.0000000000000000e+00 6.6912531167167311e-01 1.5668939042442833e+01 2.1448624205774696e+00 1 0 0
1744 93 2 0.0000000000000000e+00 1.1201847205012267e+00 1.6551519899290518e+01 2.5247507103484521e+00 1 0 0
1768 94 1 0.0000000000000000e+00 -3.8656346804708948e+00 1.5871445441360240e+01 8.4816607050458366e+00 1 0 0
1750 93 1 0.0000000000000000e+00 7.5757004271330397e-01 1.5312763639968695e+01 8.3098092163404091e-01 1 0 0
2112 113 2 0.0000000000000000e+00 3.8523720558832117e+00 1.5589532325781379e+01 5.5596645346709348e+00 1 0 0
2119 114 1 0.0000000000000000e+00 4.9192650513895941e-01 1.5830332361539943e+01 8.1576897369583232e+00 1 0 0
1753 93 2 0.0000000000000000e+00 -1.5491541060538379e+00 1.2008050379331841e+01 3.2072957932450721e+00 1 0 0
1743 93 2 0.0000000000000000e+00 3.2527219621955661e-01 1.6295850192195008e+01 4.6629432810655747e+00 1 0 0
2127 114 4 0.0000000000000000e+00 5.7600374740176186e-01 1.5584863480806936e+01 9.5449746958689712e+00 1 0 0
1772 94 2 0.0000000000000000e+00 -3.3400539219042047e+00 1.6515116123875107e+01 7.7961685431566963e+00 1 0 0
1739 93 3 0.0000000000000000e+00 -6.6815733882673367e-02 1.4930748237657745e+01 3.0646214289799936e+00 1 0 0
1754 93 2 0.0000000000000000e+00 1.2376378438817421e+00 1.5969086946678766e+01 2.0106430254804919e-01 1 0 0
2097 113 7 0.0000000000000000e+00 4.2734262996793699e+00 1.7173235264994283e+01 1.0189491830490334e+00 1 0 0
1758 94 4 0.0000000000000000e+00 -3.9463802855455654e+00 1.5963233993205506e+01 9.8520326650133718e+00 1 0 0
2101 113 1 0.0000000000000000e+00 4.7146346566848543e+00 1.6002875738398956e+01 1.6359987187075402e+00 1 0 0
2113 113 2 0.0000000000000000e+00 4.8907860702258859e+00 1.4925927429242856e+01 3.5535103211809460e+00 1 0 0
1738 93 5 0.0000000000000000e+00 -1.6337569872739888e-01 1.5373786785718901e+01 4.3913736460704573e+00 1 0 0
2108 113 3 0.0000000000000000e+00 3.7995288961200138e+00 1.6735944831701460e+01 3.6970553965087261e+00 1 0 0
2109 113 4 0.0000000000000000e+00 4.4912053897882105e+00 1.5800618207466032e+01 3.0007536139944659e+00 1 0 0
2273 113 6 0.0000000000000000e+00 3.6380113837636343e+00 1.7308125878347607e+01 3.3884761139571435e+00 1 0 0
2106 113 1 0.0000000000000000e+00 2.7577349419129900e+00 1.7417654358820705e+01 5.7727198097782413e+00 1 0 0
2107 113 4 0.0000000000000000e+00 3.5335006931422854e+00 1.6495162824578916e+01 5.0514131322178182e+00 1 0 0
2111 113 2 0.0000000000000000e+00 2.4975514933375029e+00 1.7170288207218970e+01 6.7619739056341501e+00 1 0 0
2115 114 7 0.0000000000000000e+00 -1.5095600720056357e-01 1.6954761934363034e+01 7.6664036406901204e+00 1 0 0
2129 114 2 0.0000000000000000e+00 -4.5530159053229990e-01 1.6771388933925589e+01 1.3763100729204341e+01 1 0 0
2120 114 2 0.0000000000000000e+00 -2.3403099262576310e-01 1.7130385918983475e+01 6.6177285735694635e+00 1 0 0
2123 114 2 0.0000000000000000e+00 8.6467047362649918e-01 1.5131962808155059e+01 7.3951330623555167e+00 1 0 0
1760 94 2 0.0000000000000000e+00 -5.3051412615786564e+00 1.4498364330179736e+01 1.3925849647591020e+01 1 0 0
2105 113 2 0.0000000000000000e+00 5.1697181864699546e+00 1.5363558393663814e+01 8.8485077142784818e-01 1 0 0
1742 93 2 0.0000000000000000e+00 -8.7811011485153090e-01 1.4985601008525347e+01 6.3347733137983218e+00 1 0 0
2138 115 2 0.0000000000000000e+00 -3.7868369183565393e+00 1.7037095364485111e+01 1.4332596422010019e+01 1 0 0
2117 114 3 0.0000000000000000e+00 -5.0463800330071695e-01 1.7643608192435870e+01 1.0002703266845547e+01 1 0 0
1761 94 2 0.0000000000000000e+00 -4.0063575760549348e+00 1.6032204225510569e+01 1.2428440515656398e+01 1 0 0
2274 114 6 0.0000000000000000e+00 -2.9093303872900567e-01 1.7043068869382548e+01 1.0306010554746363e+01 1 0 0
2254 94 6 0.0000000000000000e+00 -5.0616904730493015e+00 1.4603183241470377e+01 1.0281941965206219e+01 1 0 0
1764 94 1 0.0000000000000000e+00 -4.4399753170976162e+00 1.4766013004806924e+01 7.8663516617851457e+00 1 0 0
2124 114 1 0.0000000000000000e+00 -4.5824980788778635e-01 1.7045531567697772e+01 1.2678355733197677e+01 1 0 0
2125 114 4 0.0000000000000000e+00 9.6955666003144536e-02 1.6153396670119172e+01 1.1788547787636878e+01 1 0 0
2126 114 3 0.0000000000000000e+00 5.3110493092156652e-02 1.6449691497202458e+01 1.0409253787399610e+01 1 0 0
2102 113 2 0.0000000000000000e+00 4.4968369462496485e+00 1.7347579169648117e+01 -1.4142984438227812e-02 1 0 0
249 14 2 0.0000000000000000e+00 -3.7256161853726462e+00 1.8263439281438982e+00 7.2900879214123151e+00 1 0 0
2130 114 2 0.0000000000000000e+00 5.9586532235811429e-01 1.5285876999559587e+01 1.2164420407371335e+01 1 0 0
1765 94 4 0.0000000000000000e+00 -5.1636994105099401e+00 1.3823258713288132e+01 8.6208300409466041e+00 1 0 0
1011 54 2 0.0000000000000000e+00 -6.0737711943970609e+00 6.2509497154151976e+00 1.0723548225971287e+01 1 0 0
1064 57 2 0.0000000000000000e+00 7.2998610276710929e+00 6.2682583888810104e+00 9.8551274346163842e-01 1 0 0
2099 113 3 0.0000000000000000e+00 3.2974420131920681e+00 1.7896140465429628e+01 3.1252812143482536e+00 1 0 0
4382 233 2 0.0000000000000000e+00 4.2650271324755611e+00 -2.9700716034324025e-02 6.0142954753208688e-02 1 1 0
2116 114 5 0.0000000000000000e+00 -5.5080972880034462e-01 1.7928314559612037e+01 8.6648406363717942e+00 1 0 0
4416 235 4 0.0000000000000000e+00 -5.8281141136302770e+00 8.1798591171918089e-01 1.9134309378558527e+01 1 1 0
4420 235 2 0.0000000000000000e+00 -5.9809969671597303e+00 1.9099550993312027e+00 1.8880890730351695e+01 1 1 0
255 15 3 0.0000000000000000e+00 -8.6562798649853328e+00 3.0449239366300027e+00 1.8215449964825233e+01 1 0 0
256 15 4 0.0000000000000000e+00 -8.1511733062732183e+00 3.8492669632975116e+00 1.7180178540747562e+01 1 0 0
260 15 2 0.0000000000000000e+00 -8.0155892983023964e+00 4.9321624206292070e+00 1.7416731454776283e+01 1 0 0
286 16 2 0.0000000000000000e+00 -1.3772863616535050e+01 5.0355860766004001e-01 2.3648976212395674e+01 1 0 0
4414 235 5 0.0000000000000000e+00 -4.8412522316301931e+00 3.7034732201490705e-01 1.6926052681447043e+01 1 1 0
264 15 3 0.0000000000000000e+00 -9.3194886047638210e+00 1.8681022230205406e+00 1.7816894890497885e+01 1 0 0
262 15 1 0.0000000000000000e+00 -8.3784031176643641e+00 2.1387248046525404e+00 1.5560509092694458e+01 1 0 0
266 15 1 0.0000000000000000e+00 -7.8124885696736817e+00 3.3257366338097967e+00 1.5864385958769830e+01 1 0 0
263 15 4 0.0000000000000000e+00 -9.1285703436000301e+00 1.4037216221811653e+00 1.6578310466183492e+01 1 0 0
735 15 6 0.0000000000000000e+00 -8.9196563156778783e+00 2.4022823165182996e+00 1.8056563329595903e+01 1 0 0
265 15 4 0.0000000000000000e+00 -1.0157595273151957e+01 1.1281582535513883e+00 1.8695017343518856e+01 1 0 0
1381 75 2 0.0000000000000000e+00 -3.0549143835657482e+00 9.5603846215067882e+00 1.4689915294519254e+01 1 0 0
613 35 7 0.0000000000000000e+00 -4.4615909341594202e+00 5.5972015880127399e+00 1.6141066815010841e+01 1 0 0
618 35 2 0.0000000000000000e+00 -4.5141081233727869e+00 6.0754803061632412e+00 1.5148136997962949e+01 1 0 0
615 35 3 0.0000000000000000e+00 -5.1563969652662296e+00 5.7811128876372102e+00 1.8457618191563604e+01 1 0 0
617 35 1 0.0000000000000000e+00 -3.8751092797286528e+00 4.3543764208121187e+00 1.6424107076592392e+01 1 0 0
621 35 2 0.0000000000000000e+00 -3.3320226985521435e+00 3.8004259143778532e+00 1.5689718930609434e+01 1 0 0
624 35 3 0.0000000000000000e+00 -4.6702286117198621e+00 4.5154344968686768e+00 1.8696436189600430e+01 1 0 0
625 35 4 0.0000000000000000e+00 -4.0475555664885450e+00 3.8082313392682114e+00 1.7710479526791520e+01 1 0 0
629 35 2 0.0000000000000000e+00 -3.7178133855975402e+00 2.8190940614651718e+00 1.7998087813223602e+01 1 0 0
755 35 6 0.0000000000000000e+00 -4.9449806189767394e+00 5.1178918334548280e+00 1.8433849411230014e+01 1 0 0
270 15 2 0.0000000000000000e+00 -7.3857220462672348e+00 3.9011668400622170e+00 1.5066094437604923e+01 1 0 0
614 35 5 0.0000000000000000e+00 -5.1254866370664613e+00 6.2882362913216054e+00 1.7178706627229563e+01 1 0 0
4419 235 2 0.0000000000000000e+00 -5.0226964953772555e+00 1.3670386136492565e+00 1.6470151798981643e+01 1 1 0
1025 55 4 0.0000000000000000e+00 -9.7546755823708811e+00 6.7304350699194986e+00 1.8325455999975539e+01 1 0 0
616 35 4 0.0000000000000000e+00 -5.7881704677771184e+00 6.5584772387244907e+00 1.9428150328915191e+01 1 0 0
1807 96 2 0.0000000000000000e+00 -1.4286719310596746e+01 1.1723538291605486e+01 2.5683365361931898e+01 1 0 0
1860 99 2 0.0000000000000000e+00 -1.1637624994462810e+00 1.2950180996533904e+01 1.5657935551732479e+01 1 0 0
254 15 5 0.0000000000000000e+00 -8.8042626239437460e+00 3.5065835946638950e+00 1.9523191533490181e+01 1 0 0
280 16 1 0.0000000000000000e+00 -1.2863242886891978e+01 2.3899043432634253e+00 2.3122035281928348e+01 1 0 0
285 16 2 0.0000000000000000e+00 -1.2713573101191759e+01 2.2338380843121803e+00 2.2023780426713536e+01 1 0 0
258 15 2 0.0000000000000000e+00 -9.5410427401914699e+00 2.9904878201642768e+00 2.1499156562672436e+01 1 0 0
634 36 4 0.0000000000000000e+00 -1.0206840100673723e+01 6.3859223585789158e+00 2.5920639363023927e+01 1 0 0
1047 56 2 0.0000000000000000e+00 -1.4686939393227327e+01 6.1000233398644372e+00 2.5965078460536542e+01 1 0 0
257 15 1 0.0000000000000000e+00 -1.0148260532362782e+01 1.5021640624821992e+00 2.0040194207081868e+01 1 0 0
284 16 1 0.0000000000000000e+00 -1.2350235163557409e+01 3.6135727684241568e+00 2.3581132159453738e+01 1 0 0
279 16 2 0.0000000000000000e+00 -1.4785163686079212e+01 5.0052427176800995e-01 2.8217447838696387e+01 1 0 0
1751 93 2 0.0000000000000000e+00 -1.6744123337087931e+01 1.3722349918273204e+01 2.9335209732991199e+01 1 0 -1
288 16 2 0.0000000000000000e+00 -1.1891891037895320e+01 4.2830268393431448e+00 2.2913351336288883e+01 1 0 0
271 16 7 0.0000000000000000e+00 -1.3845416511121130e+01 2.4645986123503851e+00 2.8067483258839687e+01 1 0 0
272 16 5 0.0000000000000000e+00 -1.3131373709734321e+01 3.3547625876723970e+00 2.7229586360724831e+01 1 0 0
273 16 3 0.0000000000000000e+00 -1.3047966024298924e+01 3.0249155633023124e+00 2.5859144652827560e+01 1 0 0