LAMMPS (15 May 2015)
Reading data file ...
  triclinic box = (-0.107635 -0.0404339 -0.357111) to (41.3876 35.9384 29.5551) with tilt (-0.0672341 -17.0362 -0.0417078)
  5 by 2 by 2 MPI processor grid
  reading atoms ...
  4560 atoms
  reading velocities ...
  4560 velocities
  scanning bonds ...
  3 = max bonds/atom
  scanning angles ...
  3 = max angles/atom
  scanning dihedrals ...
  8 = max dihedrals/atom
  scanning impropers ...
  1 = max impropers/atom
  reading bonds ...
  5040 bonds
  reading angles ...
  7200 angles
  reading dihedrals ...
  10560 dihedrals
  reading impropers ...
  2400 impropers
Finding 1-2 1-3 1-4 neighbors ...
 Special bond factors lj:   0          0          0         
 Special bond factors coul: 0          0          0         
  4 = max # of 1-2 neighbors
  8 = max # of 1-3 neighbors
  20 = max # of 1-4 neighbors
  16 = max # of special neighbors
4560 atoms in group all
720 atoms in group C
480 atoms in group S
1920 atoms in group H
720 atoms in group Si
240 atoms in group Na
240 atoms in group Ba
240 atoms in group O
4560 atoms in group naphthalene
2400 atoms in group carbon
960 atoms in group CO
Setting atom values ...
  720 settings made for charge
Setting atom values ...
  720 settings made for charge
Setting atom values ...
  1920 settings made for charge
Setting atom values ...
  480 settings made for charge
Setting atom values ...
  240 settings made for charge
Setting atom values ...
  240 settings made for charge
Setting atom values ...
  240 settings made for charge
Finding 1-2 1-3 1-4 neighbors ...
 Special bond factors lj:   0          0          0.5       
 Special bond factors coul: 0          0          0.5       
  4 = max # of 1-2 neighbors
  8 = max # of 1-3 neighbors
  20 = max # of 1-4 neighbors
  16 = max # of special neighbors
Neighbor list info ...
  4 neighbor list requests
  update every 1 steps, delay 0 steps, check yes
  master list distance cutoff = 12
Setting up run ...
Memory usage per processor = 13.4064 Mbytes
Step Temp Density PotEng E_vdwl E_tail E_coul E_long Press Volume Xy Xz Yz E_mol E_bond E_angle E_dihed 14[1] 14[2] 14[3] msd[4] msd2[4] msd3[4] msd4[4] naphthal Cella Cellb Cellc CellAlpha CellBeta CellGamma 2 3 27[1] 27[2] 27[3] 28[1] 28[2] 28[3] 
       0          298    1.2509986     3498.833            0            0            0            0   -15873.524    44657.537 -0.067234084   -17.036218 -0.041707817     3498.833    1521.0094     935.4334    889.67826    28.379601    18.846571    14.337846 7.7711016e-30 8.8746852e-30 6.8181724e-30 5.7534156e-30          298     41.49527    35.978931    34.423473    90.016431    119.66323    90.107069 3.2382317e-25 4.9466509e-24    28.379557    18.849013    14.339638    28.379812    18.845474    14.337264 
   10000    303.21173    1.2509986    3447.9246            0            0            0            0   -1391.6474    44657.537 -0.067234084   -17.036218 -0.041707817    3447.9246    1453.3911    960.18221    879.82279    28.380753    18.846542    14.336406 0.00034822933 0.00034737534  0.013099819  0.013095793    303.21173     41.49527    35.978931    34.423473    90.016431    119.66323    90.107069    548.15403     208.9376    28.379002    18.848415    14.340072    28.380117    18.847346     14.33661 
   20000    293.52117    1.2509986     3430.856            0            0            0            0   -1346.0834    44657.537 -0.067234084   -17.036218 -0.041707817     3430.856    1410.6093    988.90844    885.98401    28.376954    18.847715    14.336822 0.00035562137 0.00035269157   0.01274676   0.01273437    293.52117     41.49527    35.978931    34.423473    90.016431    119.66323    90.107069    533.38052    213.37282    28.378416    18.848774    14.338385    28.377217    18.847837       14.337 
   30000    301.27003    1.2509986    3592.4143            0            0            0            0   -936.02039    44657.537 -0.067234084   -17.036218 -0.041707817    3592.4143    1457.2243    1039.8516    939.45315    28.379221    18.848478    14.336395 0.00032825736 0.0003277731  0.013056358  0.013044256    301.27003     41.49527    35.978931    34.423473    90.016431    119.66323    90.107069    546.33543    196.95442    28.379873    18.848399    14.339557     28.37955     18.84884    14.336423 
   40000    293.10072    1.2509986    3493.2693            0            0            0            0    1079.4578    44657.537 -0.067234084   -17.036218 -0.041707817    3493.2693    1426.2357    995.65777    911.29972    28.379253    18.848093     14.33716 0.00035958952 0.00035958267  0.012312301  0.012302517    293.10072     41.49527    35.978931    34.423473    90.016431    119.66323    90.107069    515.20081    215.75371    28.379497    18.849028    14.339583     28.37764     18.84766    14.336726 
   50000    295.17942    1.2509986    3384.3459            0            0            0            0   -409.32019    44657.537 -0.067234084   -17.036218 -0.041707817    3384.3459    1393.9151    935.65284    892.33154    28.379579    18.846974    14.337062 0.00037280124 0.00037253008  0.012561608  0.012560168    295.17942     41.49527    35.978931    34.423473    90.016431    119.66323    90.107069    525.63293    223.68075    28.379592    18.848507    14.339518    28.379784    18.846651     14.33703 
   60000    298.90289    1.2509986     3428.166            0            0            0            0   -367.87869    44657.537 -0.067234084   -17.036218 -0.041707817     3428.166    1452.0659    960.47702    866.01205    28.379269     18.84849    14.336682 0.00033680097 0.00033519594  0.012243288  0.012237181    298.90289     41.49527    35.978931    34.423473    90.016431    119.66323    90.107069      512.313    202.08058    28.379768    18.849752    14.340645     28.38131    18.847426    14.337498 
   70000    299.94227    1.2509986    3515.0482            0            0            0            0   -473.61603    44657.537 -0.067234084   -17.036218 -0.041707817    3515.0482    1453.2749    985.19736     917.8821    28.379163    18.847484    14.337895 0.00035806635 0.00035670033  0.011715375  0.011701977    299.94227     41.49527    35.978931    34.423473    90.016431    119.66323    90.107069     490.2228    214.83981     28.37956    18.848135    14.338866    28.381033    18.848711    14.338462 
   80000    293.39167    1.2509986     3510.704            0            0            0            0   -2030.2401    44657.537 -0.067234084   -17.036218 -0.041707817     3510.704    1465.2129    996.44854     892.9454    28.381516    18.844682    14.335984 0.00035871168 0.00035582081  0.012547331  0.012539308    293.39167     41.49527    35.978931    34.423473    90.016431    119.66323    90.107069     525.0355    215.22701    28.379684    18.849364    14.337979    28.382374    18.845885    14.336129 
   90000    305.35238    1.2509986    3533.3276            0            0            0            0   -727.44532    44657.537 -0.067234084   -17.036218 -0.041707817    3533.3276    1498.4556    964.91078    910.76879    28.381382    18.845601    14.337938 0.00033477633 0.00033413113  0.012328546  0.012328213    305.35238     41.49527    35.978931    34.423473    90.016431    119.66323    90.107069    515.88058     200.8658    28.379688     18.84856    14.338988    28.380042    18.845538    14.336739 
  100000    296.73426    1.2509986    3482.8358            0            0            0            0   -940.27097    44657.537 -0.067234084   -17.036218 -0.041707817    3482.8358    1477.6824    983.31561    871.79923    28.380824    18.847869     14.33583 0.00037912414 0.00037861616   0.01187062  0.011861541    296.73426     41.49527    35.978931    34.423473    90.016431    119.66323    90.107069    496.71894    227.47448    28.379172     18.84844    14.339817     28.38023    18.847495    14.335068 
  110000    296.67026    1.2509986    3475.2049            0            0            0            0   -899.11597    44657.537 -0.067234084   -17.036218 -0.041707817    3475.2049    1443.9928    976.93104     894.5113    28.379241    18.846225    14.336719 0.00035582338 0.00035424155  0.011893719  0.011892961    296.67026     41.49527    35.978931    34.423473    90.016431    119.66323    90.107069    497.68552    213.49403    28.378769    18.848747    14.340582     28.37985    18.845772    14.336447 
  120000     298.8654    1.2509986    3435.1193            0            0            0            0    297.51269    44657.537 -0.067234084   -17.036218 -0.041707817    3435.1193     1389.918    987.09639    903.00609    28.376503    18.844118    14.337342 0.00032360721 0.00032143708  0.012820654  0.012815535     298.8654     41.49527    35.978931    34.423473    90.016431    119.66323    90.107069    536.47255    194.16432    28.379897    18.847887    14.338752    28.378332    18.844032    14.338186 
  130000    299.03166    1.2509986    3438.5661            0            0            0            0   -1070.3387    44657.537 -0.067234084   -17.036218 -0.041707817    3438.5661    1424.8037    951.88452    907.74523    28.380876    18.849169    14.336105 0.00033198018 0.00033017127   0.01252165  0.012505881    299.03166     41.49527    35.978931    34.423473    90.016431    119.66323    90.107069    523.96089    199.18811    28.380405    18.849162    14.338605    28.381511    18.848641    14.335574 
  140000    300.44171    1.2509986    3489.6298            0            0            0            0   -494.33256    44657.537 -0.067234084   -17.036218 -0.041707817    3489.6298    1472.3105    965.30291    895.98254    28.378428    18.850127    14.336137 0.00033443871 0.00033190031  0.012989424  0.012969319    300.44171     41.49527    35.978931    34.423473    90.016431    119.66323    90.107069    543.53461    200.66323    28.378003    18.848763    14.339386    28.378622     18.84965    14.336144 
  150000    300.98311    1.2509986     3511.865            0            0            0            0    451.71106    44657.537 -0.067234084   -17.036218 -0.041707817     3511.865    1479.7885    982.02281    894.42164    28.380444    18.849449    14.336514 0.00033669162 0.00033650645  0.012694907  0.012688647    300.98311     41.49527    35.978931    34.423473    90.016431    119.66323    90.107069    531.21073    202.01497    28.379776    18.848644    14.339605    28.381505    18.846942     14.33615 
  160000    294.25756    1.2509986    3473.7067            0            0            0            0   -1267.1781    44657.537 -0.067234084   -17.036218 -0.041707817    3473.7067    1435.3735    999.69314    888.31327    28.376142    18.847934    14.335417 0.00038715958 0.00038538449  0.012883146  0.012860666    294.25756     41.49527    35.978931    34.423473    90.016431    119.66323    90.107069    539.08751    232.29575    28.380032    18.847786    14.339851    28.376152    18.847989    14.335602 
  170000      296.533    1.2509986    3492.8508            0            0            0            0   -590.78783    44657.537 -0.067234084   -17.036218 -0.041707817    3492.8508    1474.5859    968.03185    894.79868    28.379222     18.84639    14.337501 0.00034866081 0.00034726816  0.012371975  0.012368016      296.533     41.49527    35.978931    34.423473    90.016431    119.66323    90.107069    517.69786    209.19649    28.380695     18.84913     14.33935    28.380855    18.846106    14.338836 
  180000     303.7461    1.2509986    3427.8171            0            0            0            0   -10.964438    44657.537 -0.067234084   -17.036218 -0.041707817    3427.8171    1439.2592     954.7159    879.37469    28.379432    18.846219    14.336643 0.00035861508 0.00035856172  0.012978658  0.012974889     303.7461     41.49527    35.978931    34.423473    90.016431    119.66323    90.107069    543.08414    215.16905    28.379407    18.849179    14.339697    28.379653    18.846825    14.335878 
  190000    297.25344    1.2509986    3565.3229            0            0            0            0   -1048.5444    44657.537 -0.067234084   -17.036218 -0.041707817    3565.3229    1490.0814    984.47301    925.97033    28.379889    18.847097    14.337527 0.00034685174 0.0003455693  0.012611636  0.012611465    297.25344     41.49527    35.978931    34.423473    90.016431    119.66323    90.107069    527.72633    208.11104    28.378902    18.849318    14.338766    28.379835    18.845675    14.337625 
  200000    292.33731    1.2509986    3502.9127            0            0            0            0   -740.79628    44657.537 -0.067234084   -17.036218 -0.041707817    3502.9127    1401.1366    1003.2891    936.18018    28.382642     18.84718    14.338565 0.00036719277 0.00036663449   0.01250369  0.012496559    292.33731     41.49527    35.978931    34.423473    90.016431    119.66323    90.107069    523.20938    220.31566    28.379457    18.849036    14.340378    28.381636    18.847047    14.338418 
  210000    294.02854    1.2509986    3524.9639            0            0            0            0    1803.7228    44657.537 -0.067234084   -17.036218 -0.041707817    3524.9639    1448.4324    995.42621    917.03995     28.38114    18.845499    14.336937 0.00034242627 0.00034177661  0.012533598  0.012530033    294.02854     41.49527    35.978931    34.423473    90.016431    119.66323    90.107069    524.46088    205.45576    28.380271    18.849109    14.339277    28.381697    18.845548    14.337343 
  220000    293.87879    1.2509986    3521.5741            0            0            0            0   -608.48056    44657.537 -0.067234084   -17.036218 -0.041707817    3521.5741    1464.6521    963.42656    932.05807    28.381499    18.847688    14.338402 0.00035718475 0.00035626829  0.012973843   0.01297348    293.87879     41.49527    35.978931    34.423473    90.016431    119.66323    90.107069    542.88264    214.31085    28.379386    18.848449    14.340393    28.379356    18.845802    14.337048 
  230000    293.14265    1.2509986    3489.8909            0            0            0            0   -1391.2711    44657.537 -0.067234084   -17.036218 -0.041707817    3489.8909    1464.9616    967.62495    901.91586    28.378281    18.846567    14.335461 0.00036388706 0.00036345038  0.012830836  0.012812875    293.14265     41.49527    35.978931    34.423473    90.016431    119.66323    90.107069    536.89863    218.33224    28.379249    18.848435    14.339731    28.376996    18.846734    14.334358 
  240000    299.84115    1.2509986     3530.592            0            0            0            0    -1032.431    44657.537 -0.067234084   -17.036218 -0.041707817     3530.592    1461.8548    990.43626    923.43943    28.383972    18.847019    14.339037 0.00041664295 0.00041657282  0.012166403  0.012146595    299.84115     41.49527    35.978931    34.423473    90.016431    119.66323    90.107069    509.09583    249.98577    28.379441    18.848858    14.339457    28.383997    18.846614    14.338264 
  250000    296.66144    1.2509986    3485.4031            0            0            0            0   -335.19579    44657.537 -0.067234084   -17.036218 -0.041707817    3485.4031    1408.7741    1019.7593    901.07683    28.378144    18.845835    14.334908 0.00035237886 0.00035144789  0.012820693  0.012814547    296.66144     41.49527    35.978931    34.423473    90.016431    119.66323    90.107069     536.4742    211.42732    28.380167     18.84829    14.339451    28.381424    18.845676    14.335391 
  260000    295.90041    1.2509986    3500.8297            0            0            0            0   -1122.8479    44657.537 -0.067234084   -17.036218 -0.041707817    3500.8297    1440.0436    995.00205    907.94419    28.380294    18.846918    14.338379 0.0003263614 0.00032554553   0.01260244   0.01259709    295.90041     41.49527    35.978931    34.423473    90.016431    119.66323    90.107069    527.34153    195.81684     28.38009    18.848527    14.339095    28.380603    18.847279    14.338476 
  270000    298.29982    1.2509986    3460.9865            0            0            0            0   -253.55093    44657.537 -0.067234084   -17.036218 -0.041707817    3460.9865    1433.6146    964.92797    902.09591    28.381844    18.847177    14.337095 0.00037144951 0.00037107828  0.012089567  0.012073926    298.29982     41.49527    35.978931    34.423473    90.016431    119.66323    90.107069    505.88064     222.8697    28.379017    18.848943    14.339912     28.38292    18.847905    14.337002 
  280000    297.95654    1.2509986    3446.6196            0            0            0            0   -30.693173    44657.537 -0.067234084   -17.036218 -0.041707817    3446.6196    1396.6296    1001.6104    897.80809    28.380505    18.846813    14.336815 0.00036497864 0.00036405795  0.011894741  0.011879807    297.95654     41.49527    35.978931    34.423473    90.016431    119.66323    90.107069    497.72828    218.98719     28.37884    18.849398    14.340147    28.382298    18.847856     14.33551 
  290000    297.41257    1.2509986    3439.3243            0            0            0            0     -1531.03    44657.537 -0.067234084   -17.036218 -0.041707817    3439.3243    1451.0493     966.4502    875.01644    28.378264    18.848299    14.334969 0.00036325724 0.00036296853  0.012305196  0.012291075    297.41257     41.49527    35.978931    34.423473    90.016431    119.66323    90.107069    514.90351    217.95434    28.379053    18.848961    14.339819    28.378513    18.848658    14.335748 
  300000    291.54101    1.2509986    3543.6796            0            0            0            0     391.4528    44657.537 -0.067234084   -17.036218 -0.041707817    3543.6796    1504.0449    977.22279    908.78696    28.379267    18.847415    14.336167 0.0003507995 0.00035021421  0.012048051   0.01203388    291.54101     41.49527    35.978931    34.423473    90.016431    119.66323    90.107069    504.14345     210.4797    28.378903     18.84888    14.340013    28.377908    18.847786    14.334983 
  310000      298.505    1.2509986    3459.2942            0            0            0            0   -125.95496    44657.537 -0.067234084   -17.036218 -0.041707817    3459.2942    1401.0363    977.38643    925.48435    28.377566     18.84545    14.336222 0.00039533627 0.00039414129  0.012637073  0.012627918      298.505     41.49527    35.978931    34.423473    90.016431    119.66323    90.107069    528.79072    237.20176    28.380013    18.849448    14.340531    28.377833    18.845793    14.334998 
  320000     299.8145    1.2509986    3487.6754            0            0            0            0   -1229.9414    44657.537 -0.067234084   -17.036218 -0.041707817    3487.6754    1446.9855     977.2738    902.19989    28.379003    18.846208    14.336668 0.00039153599 0.00039126726  0.012753156  0.012752415     299.8145     41.49527    35.978931    34.423473    90.016431    119.66323    90.107069    533.64815     234.9216    28.379806     18.84921    14.339229    28.379455    18.844905    14.336726 
  330000    293.56241    1.2509986     3495.904            0            0            0            0   -895.39822    44657.537 -0.067234084   -17.036218 -0.041707817     3495.904    1435.7369    988.46995    917.17047    28.379543     18.84688    14.337554 0.00036772733 0.00036755329  0.011962696  0.011960078    293.56241     41.49527    35.978931    34.423473    90.016431    119.66323    90.107069     500.5718     220.6364    28.379338    18.848724    14.339844    28.379958    18.847027    14.337693 
  340000    299.93538    1.2509986    3466.5309            0            0            0            0   -12.315166    44657.537 -0.067234084   -17.036218 -0.041707817    3466.5309    1397.4592    1008.6185    903.31869    28.379846    18.847152    14.336455 0.00034748888 0.00034713656  0.012875572  0.012868761    299.93538     41.49527    35.978931    34.423473    90.016431    119.66323    90.107069    538.77058    208.49333    28.379039    18.849286    14.339539    28.379856     18.84787    14.336229 
  350000    300.43458    1.2509986    3481.8821            0            0            0            0   -1337.7011    44657.537 -0.067234084   -17.036218 -0.041707817    3481.8821    1441.0178    954.96472    930.45182    28.378271    18.845314    14.335856 0.00037056572 0.00037028615  0.011495943  0.011478399    300.43458     41.49527    35.978931    34.423473    90.016431    119.66323    90.107069    481.04082    222.33943    28.379629     18.84866    14.340025    28.376176    18.844975    14.335245 
  360000    293.97398    1.2509986    3500.4711            0            0            0            0   -2798.8341    44657.537 -0.067234084   -17.036218 -0.041707817    3500.4711     1463.508     986.2029    896.01731    28.380031    18.845143    14.337191 0.0003600693 0.00035848638  0.012060364  0.012057183    293.97398     41.49527    35.978931    34.423473    90.016431    119.66323    90.107069    504.65868    216.04158    28.379297    18.848502    14.340758    28.381342    18.846211    14.336718 
  370000    300.86442    1.2509986    3522.2896            0            0            0            0    213.40972    44657.537 -0.067234084   -17.036218 -0.041707817    3522.2896    1447.0193     994.4082    921.93525    28.381061    18.847668     14.33695 0.00033805345 0.00033751458  0.012431065  0.012427224    300.86442     41.49527    35.978931    34.423473    90.016431    119.66323    90.107069    520.17045    202.83207    28.379736    18.849242    14.340312    28.378748    18.846406    14.335907 
  380000    299.27846    1.2509986    3396.7571            0            0            0            0   -1909.2954    44657.537 -0.067234084   -17.036218 -0.041707817    3396.7571     1422.788    951.27041    874.23353    28.381416    18.845254    14.337093 0.00035984641 0.00035770156  0.012644517  0.012643478    299.27846     41.49527    35.978931    34.423473    90.016431    119.66323    90.107069     529.1022    215.90785     28.37814    18.849079    14.339272    28.380283    18.846266    14.336829 
  390000    295.73696    1.2509986    3514.0308            0            0            0            0   -546.76492    44657.537 -0.067234084   -17.036218 -0.041707817    3514.0308    1446.1022    952.67074    949.43201    28.379323    18.848099    14.335935 0.00036639681 0.00036557439  0.012996252  0.012984676    295.73696     41.49527    35.978931    34.423473    90.016431    119.66323    90.107069    543.82033    219.83808    28.379722    18.848541    14.338881    28.378909    18.848494    14.335982 
  400000     301.0288    1.2509986    3487.2847            0            0            0            0   -1869.1182    44657.537 -0.067234084   -17.036218 -0.041707817    3487.2847    1408.6475    999.45946    921.66417    28.380738    18.846488    14.337283 0.00037992553 0.00037714993  0.012225016   0.01221286     301.0288     41.49527    35.978931    34.423473    90.016431    119.66323    90.107069    511.54842    227.95532     28.37925    18.850623    14.339337     28.38327    18.845921    14.337291 
  410000    289.98265    1.2509986    3443.9601            0            0            0            0    -133.5715    44657.537 -0.067234084   -17.036218 -0.041707817    3443.9601    1415.9923    960.71167    909.79264    28.382034    18.847271    14.338397 0.00034433166 0.00034305343  0.011837945    0.0118215    289.98265     41.49527    35.978931    34.423473    90.016431    119.66323    90.107069     495.3517    206.59899    28.378746    18.849047    14.338851    28.383211    18.847334    14.338462 
  420000    299.44588    1.2509986    3495.0334            0            0            0            0    1832.8849    44657.537 -0.067234084   -17.036218 -0.041707817    3495.0334    1429.2115    1006.6253    906.15379    28.379481    18.848325     14.33704 0.00036147579 0.00035925629  0.012253293  0.012242187    299.44588     41.49527    35.978931    34.423473    90.016431    119.66323    90.107069    512.73169    216.88547    28.378679    18.849786     14.34056    28.376833    18.846308    14.336025 
  430000    297.30613    1.2509986    3479.5807            0            0            0            0   -1507.0879    44657.537 -0.067234084   -17.036218 -0.041707817    3479.5807    1406.8128    1026.2578    896.11075    28.379283    18.847634    14.336043 0.00036251857 0.00036219566  0.012214156  0.012211171    297.30613     41.49527    35.978931    34.423473    90.016431    119.66323    90.107069      511.094    217.51114     28.38004    18.849279    14.339503    28.379957    18.846864    14.336248 
  440000    298.58289    1.2509986    3463.5033            0            0            0            0    1184.3277    44657.537 -0.067234084   -17.036218 -0.041707817    3463.5033    1435.2617    978.59878    897.19608    28.377366    18.849305    14.335451 0.0003538947 0.00035340277   0.01291035  0.012892668    298.58289     41.49527    35.978931    34.423473    90.016431    119.66323    90.107069    540.22581    212.33682    28.379814    18.849447    14.339151     28.37667    18.847738    14.335625 
  450000    304.18087    1.2509986    3548.2892            0            0            0            0    281.39725    44657.537 -0.067234084   -17.036218 -0.041707817    3548.2892    1474.0527    1007.3986    908.40085    28.380345    18.847785    14.337888 0.00038886261 0.00038833387  0.012219844  0.012208518    304.18087     41.49527    35.978931    34.423473    90.016431    119.66323    90.107069    511.33202    233.31757    28.379953    18.848412    14.339742    28.381536    18.848191    14.338253 
  460000    299.65652    1.2509986    3494.9967            0            0            0            0    -1250.551    44657.537 -0.067234084   -17.036218 -0.041707817    3494.9967    1417.1403    1017.6074    902.50334    28.382012    18.848896    14.339816 0.00035190424 0.00035157211  0.012359286  0.012340752    299.65652     41.49527    35.978931    34.423473    90.016431    119.66323    90.107069     517.1669    211.14254    28.379288    18.848565    14.339881    28.381507    18.848795    14.339417 
  470000    296.43568    1.2509986    3530.5479            0            0            0            0    330.86984    44657.537 -0.067234084   -17.036218 -0.041707817    3530.5479    1453.8408    1008.4713    910.30012    28.381306    18.844084    14.337685 0.0003405333 0.00033811928  0.013217451  0.013216202    296.43568     41.49527    35.978931    34.423473    90.016431    119.66323    90.107069    553.07629    204.31998    28.380761    18.848486    14.338809    28.379201     18.84511    14.338126 
  480000    299.00834    1.2509986    3485.2632            0            0            0            0   -1412.7227    44657.537 -0.067234084   -17.036218 -0.041707817    3485.2632    1434.7819    979.96654    914.24201    28.379215    18.846659    14.336536 0.00035656617 0.0003549505  0.011916304  0.011914819    299.00834     41.49527    35.978931    34.423473    90.016431    119.66323    90.107069    498.63059     213.9397    28.380093    18.848451    14.340644    28.379448    18.846173    14.336335 
  490000     301.0205    1.2509986    3446.7459            0            0            0            0   -717.19479    44657.537 -0.067234084   -17.036218 -0.041707817    3446.7459    1437.5368    970.67337    886.76222    28.381695    18.848139     14.33738 0.00036132103 0.00036005175  0.012628251  0.012607691     301.0205     41.49527    35.978931    34.423473    90.016431    119.66323    90.107069    528.42156    216.79262    28.379074    18.849534    14.340512    28.383163    18.848489    14.337757 
  500000    299.92318    1.2509986    3493.2769            0            0            0            0   -1008.9324    44657.537 -0.067234084   -17.036218 -0.041707817    3493.2769    1468.2706    970.04993    898.23692    28.380536    18.846528    14.337789 0.00035374766 0.00035240173   0.01251632  0.012510538    299.92318     41.49527    35.978931    34.423473    90.016431    119.66323    90.107069    523.73788    212.24859    28.379201    18.848175    14.338919    28.381378    18.847295    14.337387 
  510000    296.64176    1.2509986    3542.1294            0            0            0            0    166.95281    44657.537 -0.067234084   -17.036218 -0.041707817    3542.1294    1466.0861    994.82217     917.8328    28.379807    18.848003    14.336658 0.00033406498 0.00033354347  0.012727258  0.012726098    296.64176     41.49527    35.978931    34.423473    90.016431    119.66323    90.107069    532.56446    200.43899    28.378926    18.848951    14.339292    28.380488    18.845549    14.336429 
  520000    297.68563    1.2509986    3540.6954            0            0            0            0   -1747.9454    44657.537 -0.067234084   -17.036218 -0.041707817    3540.6954    1448.9002    1013.9606    918.15998    28.379655    18.846519    14.336446 0.00034191126 0.00034168389  0.012921142  0.012919284    297.68563     41.49527    35.978931    34.423473    90.016431    119.66323    90.107069    540.67739    205.14676    28.379517    18.849469    14.339504    28.378903    18.845907    14.336345 
  530000    299.34226    1.2509986    3486.9179            0            0            0            0    14.916069    44657.537 -0.067234084   -17.036218 -0.041707817    3486.9179    1431.3687    1020.1023    884.56401    28.378965    18.846842    14.336289 0.00032671978 0.00032539454  0.012374721   0.01237302    299.34226     41.49527    35.978931    34.423473    90.016431    119.66323    90.107069    517.81277    196.03187    28.379967    18.848647    14.338627    28.380375    18.846636    14.337076 
  540000    296.90432    1.2509986    3514.2174            0            0            0            0    550.33741    44657.537 -0.067234084   -17.036218 -0.041707817    3514.2174    1439.2971    983.47374    932.86103    28.380948    18.848683    14.336099 0.00036096344 0.00035545457  0.012515143  0.012507142    296.90432     41.49527    35.978931    34.423473    90.016431    119.66323    90.107069    523.68864    216.57806     28.38133    18.849996    14.338456    28.380245    18.847057    14.334961 
  550000    295.68409    1.2509986    3529.8459            0            0            0            0   -1265.5667    44657.537 -0.067234084   -17.036218 -0.041707817    3529.8459    1512.4578    994.87267    869.43795    28.380653     18.84852    14.338368 0.00033618429 0.00033543589  0.012215724  0.012205806    295.68409     41.49527    35.978931    34.423473    90.016431    119.66323    90.107069    511.15961    201.71057    28.379647    18.848379     14.34022    28.381867    18.847648     14.33825 
  560000     308.6875    1.2509986    3633.1542            0            0            0            0   -128.68729    44657.537 -0.067234084   -17.036218 -0.041707817    3633.1542    1522.2005    993.96495    957.17857    28.379754     18.84695    14.337796 0.00034120186 0.00034013278  0.012916561  0.012915798     308.6875     41.49527    35.978931    34.423473    90.016431    119.66323    90.107069     540.4857    204.72112     28.38007    18.849686    14.340232    28.380685    18.845474    14.337237 
  570000    297.46084    1.2509986    3427.2974            0            0            0            0   -1139.3465    44657.537 -0.067234084   -17.036218 -0.041707817    3427.2974    1424.9576    998.09895    855.24155    28.378445    18.846128    14.336504 0.0003106955 0.00030962581  0.012438004  0.012432951    297.46084     41.49527    35.978931    34.423473    90.016431    119.66323    90.107069    520.46081     186.4173    28.379277    18.848029    14.339488     28.37825    18.846814    14.336359 
  580000    296.63047    1.2509986    3514.4423            0            0            0            0    1050.5756    44657.537 -0.067234084   -17.036218 -0.041707817    3514.4423    1457.8786    986.95795    915.54946    28.378923    18.847425    14.338589 0.00033962807 0.00033683057  0.012478143  0.012462745    296.63047     41.49527    35.978931    34.423473    90.016431    119.66323    90.107069     522.1404    203.77684    28.378684    18.848218    14.338453    28.379834    18.849199      14.3385 
  590000      299.363    1.2509986    3585.9687            0            0            0            0   -378.22122    44657.537 -0.067234084   -17.036218 -0.041707817    3585.9687     1460.464    1017.2641    944.95543    28.380393    18.846173    14.337151 0.00031994068 0.0003194792  0.013442213  0.013439184      299.363     41.49527    35.978931    34.423473    90.016431    119.66323    90.107069    562.48132    191.96441     28.37934    18.848369    14.339644    28.379912    18.847174    14.336905 
  600000    300.33274    1.2509986    3479.7459            0            0            0            0   -1263.7999    44657.537 -0.067234084   -17.036218 -0.041707817    3479.7459    1405.9669    992.29432    923.40332    28.380235    18.845918    14.336322 0.00035784781 0.00035496394  0.012466175  0.012463989    300.33274     41.49527    35.978931    34.423473    90.016431    119.66323    90.107069    521.63957    214.70869    28.379718    18.848614    14.341281    28.379315    18.845828    14.335918 
  610000    296.67329    1.2509986    3525.3236            0            0            0            0   -1442.1831    44657.537 -0.067234084   -17.036218 -0.041707817    3525.3236    1480.4969    974.57039    917.60552    28.381972    18.848736    14.337804 0.00036876001 0.00036578833  0.011315788  0.011296535    296.67329     41.49527    35.978931    34.423473    90.016431    119.66323    90.107069    473.50233    221.25601    28.378722    18.849921    14.340843    28.383013    18.848323    14.338208 
  620000    294.09996    1.2509986    3365.8905            0            0            0            0    681.21806    44657.537 -0.067234084   -17.036218 -0.041707817    3365.8905    1408.9226    931.72933    874.94543    28.380804    18.846405    14.339552 0.00037291395 0.0003728126  0.012558103  0.012554439    294.09996     41.49527    35.978931    34.423473    90.016431    119.66323    90.107069    525.48625    223.74837    28.379697    18.849134    14.339897    28.379621    18.844391    14.338831 
  630000    297.55415    1.2509986      3484.39            0            0            0            0   -2198.6446    44657.537 -0.067234084   -17.036218 -0.041707817      3484.39    1431.4855    977.67499    915.79243    28.380907    18.847966    14.337537 0.00032962154 0.00032911889  0.011933164  0.011922104    297.55415     41.49527    35.978931    34.423473    90.016431    119.66323    90.107069    499.33606    197.77292    28.379159    18.849268    14.340167    28.382401    18.847431    14.337991 
  640000    292.77909    1.2509986    3504.2073            0            0            0            0    37.654751    44657.537 -0.067234084   -17.036218 -0.041707817    3504.2073     1474.554    990.63316    887.54703    28.382881    18.846533     14.33742 0.00037860817 0.00037798503  0.013249294  0.013238404    292.77909     41.49527    35.978931    34.423473    90.016431    119.66323    90.107069    554.40875     227.1649    28.380299    18.848937     14.33938    28.382918    18.846537    14.337605 
  650000    291.41878    1.2509986    3490.6696            0            0            0            0   -41.876297    44657.537 -0.067234084   -17.036218 -0.041707817    3490.6696    1446.7761    990.47914    898.05705     28.38131    18.846656    14.336927 0.00036240649 0.00035630103  0.012189732  0.012189103    291.41878     41.49527    35.978931    34.423473    90.016431    119.66323    90.107069    510.07201     217.4439    28.380311    18.850624    14.341352    28.379119    18.845303    14.336919 
  660000    295.14657    1.2509986    3537.2589            0            0            0            0   -511.51097    44657.537 -0.067234084   -17.036218 -0.041707817    3537.2589    1438.9836    1031.3227    915.12526    28.381511    18.846714    14.337421 0.00035114217 0.00035029669  0.012491904  0.012481288    295.14657     41.49527    35.978931    34.423473    90.016431    119.66323    90.107069     522.7162     210.6853    28.379682    18.848141    14.339903    28.382759    18.846619    14.338052 
  670000    296.14533    1.2509986    3366.3641            0            0            0            0   -1636.9537    44657.537 -0.067234084   -17.036218 -0.041707817    3366.3641    1360.3221    968.41171    883.42518    28.377542    18.848026     14.33605 0.0003494044 0.00034809132  0.012755965  0.012740445    296.14533     41.49527    35.978931    34.423473    90.016431    119.66323    90.107069    533.76567    209.64264    28.378666    18.848487    14.340132    28.377117    18.847871    14.335679 
  680000    298.99982    1.2509986    3453.6425            0            0            0            0   -810.67417    44657.537 -0.067234084   -17.036218 -0.041707817    3453.6425    1444.7785    994.64323     864.6302    28.377616    18.846779    14.335872 0.00037601572 0.00037534286  0.011830468  0.011825038    298.99982     41.49527    35.978931    34.423473    90.016431    119.66323    90.107069    495.03882    225.60943    28.379172    18.848292    14.339712     28.37801    18.846693    14.336428 
  690000    294.62565    1.2509986    3577.3977            0            0            0            0   -1756.4494    44657.537 -0.067234084   -17.036218 -0.041707817    3577.3977    1466.3937    1001.5865    941.38395    28.377324    18.847555    14.335033 0.00035652996 0.00035388137  0.012578966  0.012569515    294.62565     41.49527    35.978931    34.423473    90.016431    119.66323    90.107069    526.35926    213.91798     28.37961    18.847394    14.339798    28.378775    18.847631    14.335334 
  700000    295.35828    1.2509986    3487.1794            0            0            0            0   -322.15718    44657.537 -0.067234084   -17.036218 -0.041707817    3487.1794    1425.8587    1014.8948    896.74195    28.383253    18.847341    14.338543 0.00035654577 0.00035595428  0.011913804  0.011909569    295.35828     41.49527    35.978931    34.423473    90.016431    119.66323    90.107069    498.52594    213.92746    28.379786    18.849511    14.339099    28.381102    18.846917    14.337964 
  710000    304.48825    1.2509986    3483.1525            0            0            0            0    90.039509    44657.537 -0.067234084   -17.036218 -0.041707817    3483.1525    1436.6183    977.19248    910.88536     28.38171    18.847593    14.339176 0.00035146039 0.00035033058  0.013020528  0.013009589    304.48825     41.49527    35.978931    34.423473    90.016431    119.66323    90.107069    544.83616    210.87623    28.379258    18.849966    14.340002    28.382117    18.847142    14.338951 
  720000    303.25787    1.2509986    3489.9503            0            0            0            0     39.95332    44657.537 -0.067234084   -17.036218 -0.041707817    3489.9503    1456.3586    993.66949    892.01565    28.379293    18.847284    14.336977 0.00036515566 0.00036421704   0.01276456  0.012762226    303.25787     41.49527    35.978931    34.423473    90.016431    119.66323    90.107069    534.12535     219.0934    28.380513    18.848859    14.339635    28.378984    18.846668    14.336791 
  730000    296.58255    1.2509986    3495.8778            0            0            0            0    543.97791    44657.537 -0.067234084   -17.036218 -0.041707817    3495.8778    1432.6061    992.87147    911.23792    28.380972    18.847112    14.337324 0.00037670762 0.00037473968  0.012527841  0.012522003    296.58255     41.49527    35.978931    34.423473    90.016431    119.66323    90.107069    524.21998    226.02457     28.37947    18.849242    14.341019    28.381886    18.846623    14.336798 
  740000    301.37766    1.2509986    3474.1619            0            0            0            0    1732.4502    44657.537 -0.067234084   -17.036218 -0.041707817    3474.1619    1449.8677    1025.7803     853.2856    28.378813    18.849044    14.336294 0.00037661868 0.00037598356  0.012749518  0.012744763    301.37766     41.49527    35.978931    34.423473    90.016431    119.66323    90.107069    533.49592    225.97121    28.380285    18.849196    14.339373     28.37861    18.847215    14.336735 
  750000     295.4099    1.2509986    3492.8504            0            0            0            0   -205.10367    44657.537 -0.067234084   -17.036218 -0.041707817    3492.8504    1464.2553    994.10353    877.64364    28.382006    18.844972    14.337519 0.00035946674 0.00035688509  0.012763301  0.012758055     295.4099     41.49527    35.978931    34.423473    90.016431    119.66323    90.107069    534.07265    215.68005    28.379687     18.85007    14.338435    28.381295    18.843867    14.336585 
  760000    299.39249    1.2509986     3467.828            0            0            0            0   -1043.8577    44657.537 -0.067234084   -17.036218 -0.041707817     3467.828    1432.0928    960.38569    919.10127    28.380589    18.845737    14.337548 0.00036633959 0.0003639738  0.012037843   0.01203779    299.39249     41.49527    35.978931    34.423473    90.016431    119.66323    90.107069    503.71628    219.80375    28.378263    18.848188    14.339523    28.379658     18.84542    14.337104 
  770000      299.884    1.2509986    3426.3773            0            0            0            0   -861.70567    44657.537 -0.067234084   -17.036218 -0.041707817    3426.3773    1408.7225    949.07136     911.9283    28.378643    18.847693    14.337192 0.00036296408 0.00036263934    0.0120368  0.012031154      299.884     41.49527    35.978931    34.423473    90.016431    119.66323    90.107069    503.67267    217.77845    28.379627    18.849511    14.339906    28.379099    18.847461    14.336172 
  780000    290.62789    1.2509986      3449.04            0            0            0            0    -858.8973    44657.537 -0.067234084   -17.036218 -0.041707817      3449.04    1445.5481    972.76432    883.05326    28.378925    18.848886    14.337611 0.00033249623 0.00033157306  0.012426992  0.012421962    290.62789     41.49527    35.978931    34.423473    90.016431    119.66323    90.107069    520.00002    199.49774    28.380134    18.849351    14.340327    28.379205    18.847631    14.337376 
  790000    294.97063    1.2509986    3473.0352            0            0            0            0   -1437.4427    44657.537 -0.067234084   -17.036218 -0.041707817    3473.0352    1384.2007    1020.8002    910.10098    28.380696    18.846138    14.337788 0.00033755734 0.00033484479  0.012439073  0.012438403    294.97063     41.49527    35.978931    34.423473    90.016431    119.66323    90.107069    520.50552    202.53441     28.38036    18.847786    14.340389    28.379946     18.84605    14.337831 
  800000    296.65719    1.2509986    3485.7513            0            0            0            0   -1869.5728    44657.537 -0.067234084   -17.036218 -0.041707817    3485.7513    1415.8994    1016.7491    899.17961    28.379906    18.846931    14.336445 0.00035518451 0.00035484773  0.012064616  0.012056172    296.65719     41.49527    35.978931    34.423473    90.016431    119.66323    90.107069    504.83659    213.11071    28.380008    18.848698    14.339455     28.38194    18.847244    14.336378 
  810000    295.79013    1.2509986     3448.022            0            0            0            0   -31.464271    44657.537 -0.067234084   -17.036218 -0.041707817     3448.022    1417.4862    987.73022    888.39003    28.378591    18.847179    14.338173 0.00036343373 0.00036196296  0.013068334  0.013063297    295.79013     41.49527    35.978931    34.423473    90.016431    119.66323    90.107069    546.83659    218.06024    28.380089    18.848319    14.338798    28.378663    18.847001    14.338442 
  820000    294.15844    1.2509986    3605.0889            0            0            0            0    91.817829    44657.537 -0.067234084   -17.036218 -0.041707817    3605.0889    1495.4954    1034.1637    918.84141    28.380406     18.84572    14.338177 0.00037341206 0.00037222199  0.012974431  0.012967103    294.15844     41.49527    35.978931    34.423473    90.016431    119.66323    90.107069    542.90727    224.04723     28.37945    18.849438    14.340637    28.379738    18.842769    14.337328 
  830000    299.71744    1.2509986    3474.7713            0            0            0            0   -2651.0395    44657.537 -0.067234084   -17.036218 -0.041707817    3474.7713    1436.8556    981.46427    897.83267    28.380163    18.844815    14.336134 0.00038167101 0.00037920556  0.011741015   0.01173958    299.71744     41.49527    35.978931    34.423473    90.016431    119.66323    90.107069    491.29571    229.00261    28.379637    18.849571    14.338173    28.380194    18.844996    14.336235 
  840000    299.53645    1.2509986    3456.2351            0            0            0            0    26.566717    44657.537 -0.067234084   -17.036218 -0.041707817    3456.2351    1427.5419    983.54289    891.98032    28.379564    18.848644    14.337271 0.00035586682 0.00035502703  0.012069309  0.012061453    299.53645     41.49527    35.978931    34.423473    90.016431    119.66323    90.107069    505.03297    213.52009    28.379181    18.848177    14.339652    28.380621     18.84801    14.338142 
  850000    298.77198    1.2509986    3481.7934            0            0            0            0    1593.0074    44657.537 -0.067234084   -17.036218 -0.041707817    3481.7934    1433.3163    964.80163    924.40469    28.379182    18.849633     14.33602 0.0003452415 0.0003417508    0.0124921  0.012482783    298.77198     41.49527    35.978931    34.423473    90.016431    119.66323    90.107069    522.72443     207.1449    28.378907    18.849838    14.338093    28.379162    18.848339    14.336435 
  860000    300.97571    1.2509986    3547.8838            0            0            0            0    937.27623    44657.537 -0.067234084   -17.036218 -0.041707817    3547.8838    1442.5391    1021.2557    923.72934    28.380239    18.847404    14.338491 0.0003687382 0.00036455421  0.012200369  0.012196818    300.97571     41.49527    35.978931    34.423473    90.016431    119.66323    90.107069     510.5171    221.24292    28.381132    18.848125    14.338682     28.37873    18.846654     14.33826 
  870000      299.569    1.2509986    3528.3994            0            0            0            0    1691.9788    44657.537 -0.067234084   -17.036218 -0.041707817    3528.3994    1443.6264    1005.2297     921.7401    28.380171     18.84927    14.337542 0.00035584841 0.00035229329  0.012459987  0.012441567      299.569     41.49527    35.978931    34.423473    90.016431    119.66323    90.107069    521.38068    213.50905    28.379059    18.847678    14.338402    28.381014    18.849594    14.337302 
  880000     299.0361    1.2509986    3514.5136            0            0            0            0   -2052.6239    44657.537 -0.067234084   -17.036218 -0.041707817    3514.5136    1445.3237    997.21438    914.10562    28.380677      18.8472    14.335514 0.00036254219 0.00036228516   0.01228467  0.012275172     299.0361     41.49527    35.978931    34.423473    90.016431    119.66323    90.107069    514.04464    217.52532    28.379853    18.848879    14.339249    28.382088    18.846323    14.335368 
  890000    294.73007    1.2509986    3438.9259            0            0            0            0   -599.49845    44657.537 -0.067234084   -17.036218 -0.041707817    3438.9259    1431.6693    987.09493    865.68323    28.383905    18.847827    14.338016 0.00037760248 0.00037377467  0.012178008  0.012165024    294.73007     41.49527    35.978931    34.423473    90.016431    119.66323    90.107069    509.58143    226.56149    28.379545    18.850946    14.339941    28.382856    18.847345    14.337733 
  900000    296.53422    1.2509986    3487.4449            0            0            0            0    1240.7664    44657.537 -0.067234084   -17.036218 -0.041707817    3487.4449    1451.6889    986.95162    895.11132    28.381051    18.844813    14.336082 0.00036914247 0.00036811129  0.012058676  0.012048456    296.53422     41.49527    35.978931    34.423473    90.016431    119.66323    90.107069    504.58804    221.48548     28.38042     18.84942    14.339291    28.382747     18.84521    14.336026 
  910000    301.35775    1.2509986    3458.3409            0            0            0            0    -630.7347    44657.537 -0.067234084   -17.036218 -0.041707817    3458.3409     1429.314    983.45179    893.24123    28.376573    18.845159    14.337426 0.00033329641 0.00033320831  0.013020384  0.013002433    301.35775     41.49527    35.978931    34.423473    90.016431    119.66323    90.107069    544.83015    199.97785    28.379288    18.848984    14.339762    28.375673    18.846382     14.33724 
  920000    298.34209    1.2509986    3515.1977            0            0            0            0   -1215.0426    44657.537 -0.067234084   -17.036218 -0.041707817    3515.1977    1487.6378     975.5033    894.89091    28.376836    18.846437    14.336865 0.00035698374 0.00035578386  0.012049685  0.012037008    298.34209     41.49527    35.978931    34.423473    90.016431    119.66323    90.107069    504.21184    214.19025    28.379085    18.848252    14.339006    28.376337    18.846223    14.337054 
  930000    297.36062    1.2509986    3492.3308            0            0            0            0   -2189.0039    44657.537 -0.067234084   -17.036218 -0.041707817    3492.3308    1430.1703    997.68836    908.03371    28.379088    18.847522    14.337092 0.00034882698 0.00034721275  0.012491023  0.012485648    297.36062     41.49527    35.978931    34.423473    90.016431    119.66323    90.107069    522.67935    209.29619    28.379222    18.849121    14.340859    28.378877    18.847242    14.336092 
  940000    294.31209    1.2509986    3512.5065            0            0            0            0    361.02142    44657.537 -0.067234084   -17.036218 -0.041707817    3512.5065    1417.5478    1026.7279    910.10071    28.382838    18.845895    14.339253 0.00034651904 0.0003460819  0.013259083  0.013253575    294.31209     41.49527    35.978931    34.423473    90.016431    119.66323    90.107069    554.81836    207.91142    28.379215    18.848484    14.339436    28.381842    18.845618    14.338433 
  950000    299.51019    1.2509986    3513.4921            0            0            0            0    189.42615    44657.537 -0.067234084   -17.036218 -0.041707817    3513.4921    1443.7488    1011.5322    901.30769     28.38297    18.846638     14.33779 0.00034081193 0.00034024717  0.012872632  0.012861558    299.51019     41.49527    35.978931    34.423473    90.016431    119.66323    90.107069    538.64756    204.48716    28.378842    18.849227    14.339549     28.38223    18.847703    14.336755 
  960000    294.12661    1.2509986     3489.687            0            0            0            0   -29.978478    44657.537 -0.067234084   -17.036218 -0.041707817     3489.687    1463.1896    979.89715    889.95683    28.377965    18.848321    14.335442 0.00037287094 0.00037019001  0.012213558  0.012202922    294.12661     41.49527    35.978931    34.423473    90.016431    119.66323    90.107069      511.069    223.72257    28.380189    18.847781    14.338764    28.378138     18.84803    14.336124 
  970000    306.97027    1.2509986    3421.4875            0            0            0            0   -921.43059    44657.537 -0.067234084   -17.036218 -0.041707817    3421.4875    1466.7926    934.58811    867.13857    28.380955    18.848468    14.336221 0.00032565046 0.00032539266  0.012031832  0.012021002    306.97027     41.49527    35.978931    34.423473    90.016431    119.66323    90.107069    503.46478    195.39028    28.379892    18.848688    14.339839    28.381798    18.847769    14.335992 
  980000    294.78022    1.2509986    3472.6293            0            0            0            0   -534.35785    44657.537 -0.067234084   -17.036218 -0.041707817    3472.6293    1426.0177      964.645    927.16427    28.381168    18.846643    14.338653 0.00036201014 0.00036124094  0.011841456  0.011832047    294.78022     41.49527    35.978931    34.423473    90.016431    119.66323    90.107069     495.4986    217.20609    28.379844    18.848212    14.339852    28.382456    18.845268    14.338806 
  990000    301.89991    1.2509986    3496.4673            0            0            0            0   -3299.0369    44657.537 -0.067234084   -17.036218 -0.041707817    3496.4673    1497.4442    974.42955    876.86412    28.379128    18.846999    14.336488 0.00035432603 0.00035334861  0.012489735  0.012484359    301.89991     41.49527    35.978931    34.423473    90.016431    119.66323    90.107069    522.62546    212.59562    28.380288    18.848364    14.339493    28.379235    18.846838     14.33548 
 1000000    298.95623    1.2509986    3504.3352            0            0            0            0   -832.66662    44657.537 -0.067234084   -17.036218 -0.041707817    3504.3352    1454.4142    988.60058    908.35729    28.378973    18.844939    14.338499 0.00036320228 0.00036246082   0.01273343  0.012729464    298.95623     41.49527    35.978931    34.423473    90.016431    119.66323    90.107069     532.8227    217.92137    28.378986    18.849051    14.340282    28.379536    18.846415    14.338997 
 1010000     295.7172    1.2509986    3476.4621            0            0            0            0   -2232.9077    44657.537 -0.067234084   -17.036218 -0.041707817    3476.4621    1413.0991    1016.1628     892.3805    28.381744    18.848026    14.338129 0.00033618876 0.00033537417  0.012871047  0.012855666     295.7172     41.49527    35.978931    34.423473    90.016431    119.66323    90.107069    538.58123    201.71326    28.380306    18.848719     14.33923     28.38189    18.848506    14.338633 
 1020000    295.01068    1.2509986    3484.2588            0            0            0            0   -1644.3383    44657.537 -0.067234084   -17.036218 -0.041707817    3484.2588    1431.0192    969.86928    922.68333    28.380337    18.846742    14.335873 0.00036867905 0.00036713739  0.011998687  0.011995265    295.01068     41.49527    35.978931    34.423473    90.016431    119.66323    90.107069    502.07785    221.20743    28.380462    18.848694    14.340426    28.379719    18.845908    14.335468 
 1030000     295.3129    1.2509986    3446.7082            0            0            0            0   -841.61761    44657.537 -0.067234084   -17.036218 -0.041707817    3446.7082    1409.3368     952.2938    927.93873    28.378733    18.848207    14.337126 0.00036148543 0.0003614064  0.012072588  0.012060206     295.3129     41.49527    35.978931    34.423473    90.016431    119.66323    90.107069    505.17018    216.89126    28.379672      18.8491    14.339879    28.379102    18.848921    14.337228 
 1040000    298.75093    1.2509986    3544.1996            0            0            0            0   -1013.6809    44657.537 -0.067234084   -17.036218 -0.041707817    3544.1996     1487.795    977.36304    918.07971    28.376321    18.847212    14.336895 0.00036195334 0.00036021309  0.012712858  0.012694045    298.75093     41.49527    35.978931    34.423473    90.016431    119.66323    90.107069    531.96188      217.172    28.379498    18.848078     14.33871     28.37555    18.845988    14.336642 
 1050000    298.73373    1.2509986    3555.3364            0            0            0            0    509.57303    44657.537 -0.067234084   -17.036218 -0.041707817    3555.3364    1464.6781    971.13976     957.6449    28.380612    18.848313    14.337237 0.00036676701 0.0003652143  0.012508515  0.012503342    298.73373     41.49527    35.978931    34.423473    90.016431    119.66323    90.107069    523.41128     220.0602    28.379387    18.847863    14.340087    28.379051    18.847321    14.336177 
 1060000     294.3971    1.2509986    3515.4102            0            0            0            0   -1958.4543    44657.537 -0.067234084   -17.036218 -0.041707817    3515.4102     1454.414     998.6027    908.47632    28.380619    18.847489    14.338899 0.00034506328 0.00034376998  0.013187369  0.013175648     294.3971     41.49527    35.978931    34.423473    90.016431    119.66323    90.107069    551.81751    207.03797    28.378618     18.84963    14.339461    28.381221    18.848453    14.338192 
 1070000    295.34606    1.2509986    3534.1279            0            0            0            0    40.181984    44657.537 -0.067234084   -17.036218 -0.041707817    3534.1279    1436.7511    1021.7936     918.3481    28.379433    18.845165    14.335386 0.00035471761 0.0003522807  0.012671462  0.012656149    295.34606     41.49527    35.978931    34.423473    90.016431    119.66323    90.107069     530.2297    212.83057    28.379993    18.849957    14.338474    28.377469    18.845453     14.33413 
 1080000    301.80909    1.2509986    3477.2839            0            0            0            0    245.74421    44657.537 -0.067234084   -17.036218 -0.041707817    3477.2839    1444.9418    964.11802    913.56368    28.379461    18.846676    14.336677 0.00034410701 0.00033869232  0.013007971  0.013000278    301.80909     41.49527    35.978931    34.423473    90.016431    119.66323    90.107069    544.31071     206.4642    28.379682    18.846795    14.338946    28.377541    18.846553    14.336093 
 1090000    296.84271    1.2509986     3532.004            0            0            0            0   -303.99526    44657.537 -0.067234084   -17.036218 -0.041707817     3532.004     1458.803    1005.6161    907.82094    28.378774    18.846663    14.337623 0.00037423106 0.00037316092  0.012449064   0.01244711    296.84271     41.49527    35.978931    34.423473    90.016431    119.66323    90.107069    520.92361    224.53864    28.378586    18.848698    14.339809    28.379383    18.846784    14.337496 
 1100000    289.19991    1.2509986     3457.265            0            0            0            0   -829.30022    44657.537 -0.067234084   -17.036218 -0.041707817     3457.265    1419.5048    990.57248    892.93058    28.379085    18.848157    14.336534 0.00035455592 0.0003531718  0.012123689  0.012116456    289.19991     41.49527    35.978931    34.423473    90.016431    119.66323    90.107069    507.30846    212.73355    28.380282    18.849511    14.338857    28.378661    18.847383    14.335759 
 1110000    302.69658    1.2509986    3483.9507            0            0            0            0   -999.68039    44657.537 -0.067234084   -17.036218 -0.041707817    3483.9507    1474.0616    987.91256    869.17124    28.378891    18.848755    14.337354 0.00037136668 0.00037051239   0.01255844   0.01254838    302.69658     41.49527    35.978931    34.423473    90.016431    119.66323    90.107069    525.50038    222.82001    28.379982    18.848857    14.340443    28.381762    18.847972      14.3374 
 1120000    298.43441    1.2509986    3590.6294            0            0            0            0   -845.43582    44657.537 -0.067234084   -17.036218 -0.041707817    3590.6294    1476.1011    1030.7517    923.65989    28.379502    18.846011    14.338162 0.00035595126 0.00035526565   0.01286149  0.012851734    298.43441     41.49527    35.978931    34.423473    90.016431    119.66323    90.107069    538.18129    213.57076    28.379066    18.848457     14.33927    28.379094    18.848387    14.338134 
 1130000    296.43232    1.2509986    3482.7365            0            0            0            0    -980.3823    44657.537 -0.067234084   -17.036218 -0.041707817    3482.7365    1457.9045    1001.1173    871.97411    28.378153    18.845731    14.336694 0.00038532309 0.00038411805  0.012956335  0.012951068    296.43232     41.49527    35.978931    34.423473    90.016431    119.66323    90.107069    542.15004    231.19385     28.37866    18.848836    14.340246    28.377726    18.845312    14.336322 
 1140000    303.26444    1.2509986    3435.1272            0            0            0            0   -744.45452    44657.537 -0.067234084   -17.036218 -0.041707817    3435.1272    1409.1103    983.92721    885.63242    28.380655    18.845259    14.336103 0.00037448841 0.00037405731  0.011901499  0.011884913    303.26444     41.49527    35.978931    34.423473    90.016431    119.66323    90.107069    498.01107    224.69305    28.379183    18.848525    14.339869    28.383638    18.844083    14.337173 
 1150000    299.97582    1.2509986    3477.7492            0            0            0            0   -1736.1568    44657.537 -0.067234084   -17.036218 -0.041707817    3477.7492     1434.699    1001.4737    884.37855     28.37752    18.847829    14.336368 0.00036009042 0.00035712202  0.013164992  0.013147376    299.97582     41.49527    35.978931    34.423473    90.016431    119.66323    90.107069    550.88115    216.05425    28.379332    18.848595    14.341294    28.377632     18.84885    14.336052 
 1160000    298.24825    1.2509986    3472.5878            0            0            0            0   -638.06241    44657.537 -0.067234084   -17.036218 -0.041707817    3472.5878    1445.8984    971.43965    896.42337    28.380243    18.846353    14.336057 0.00037053007 0.00037042387  0.012470996  0.012465898    298.24825     41.49527    35.978931    34.423473    90.016431    119.66323    90.107069    521.84134    222.31804     28.37938    18.849013    14.339364    28.381089    18.845136    14.335433 
 1170000    299.79647    1.2509986    3556.8031            0            0            0            0   -51.783674    44657.537 -0.067234084   -17.036218 -0.041707817    3556.8031    1478.9813    1010.7008    906.73767    28.378569    18.845346    14.337773 0.00035861335 0.00035440533  0.012056791  0.012054646    299.79647     41.49527    35.978931    34.423473    90.016431    119.66323    90.107069    504.50915    215.16801    28.377653    18.848516    14.339058    28.379661    18.845959    14.338638 
 1180000    298.41255    1.2509986    3460.5394            0            0            0            0   -2654.9368    44657.537 -0.067234084   -17.036218 -0.041707817    3460.5394    1447.5688     946.6559    909.75924     28.38051    18.848095    14.337339 0.00033624521 0.00033431404  0.012503222  0.012496677    298.41255     41.49527    35.978931    34.423473    90.016431    119.66323    90.107069     523.1898    201.74713    28.378262    18.848681    14.339258    28.381144    18.847658    14.337212 
 1190000    303.00333    1.2509986    3466.3374            0            0            0            0   -2160.2625    44657.537 -0.067234084   -17.036218 -0.041707817    3466.3374    1429.0788    1006.4748    880.55008    28.379265    18.844327    14.337136 0.00034144939 0.00033914497  0.012186177  0.012179848    303.00333     41.49527    35.978931    34.423473    90.016431    119.66323    90.107069    509.92324    204.86963     28.37944    18.849459    14.341084    28.378614    18.843441    14.336393 
 1200000    301.30607    1.2509986    3492.3013            0            0            0            0     52.21246    44657.537 -0.067234084   -17.036218 -0.041707817    3492.3013    1458.5705    987.57232    896.05936    28.379826    18.847297    14.337155 0.00036347391 0.00036345712  0.013017711  0.013012086    301.30607     41.49527    35.978931    34.423473    90.016431    119.66323    90.107069    544.71827    218.08435     28.37948    18.848931    14.339703    28.378303    18.847302    14.337176 
 1210000    301.65314    1.2509986    3454.9246            0            0            0            0   -616.23536    44657.537 -0.067234084   -17.036218 -0.041707817    3454.9246     1450.399    948.51786    899.80999    28.381698    18.846123     14.33644 0.00037334684 0.00037159557  0.012880743  0.012868171    301.65314     41.49527    35.978931    34.423473    90.016431    119.66323    90.107069    538.98696     224.0081    28.379512    18.850328    14.339783    28.382898    18.846519    14.335866 
 1220000    294.52661    1.2509986    3432.9499            0            0            0            0    287.72999    44657.537 -0.067234084   -17.036218 -0.041707817    3432.9499    1448.1336    951.77385    883.33992    28.379285    18.847591    14.336723 0.00037344792 0.00037300506  0.012254173  0.012244816    294.52661     41.49527    35.978931    34.423473    90.016431    119.66323    90.107069    512.76848    224.06875    28.379958    18.848696    14.339212    28.377478     18.84741    14.336861 
 1230000    298.02701    1.2509986    3455.2883            0            0            0            0    512.73779    44657.537 -0.067234084   -17.036218 -0.041707817    3455.2883    1444.9977    966.00596    891.57733    28.379748    18.845589    14.336806 0.00035456447 0.00035410253  0.012012252  0.012007488    298.02701     41.49527    35.978931    34.423473    90.016431    119.66323    90.107069    502.64544    212.73868     28.38016    18.848884    14.339354    28.381829    18.845523    14.336431 
 1240000    294.36229    1.2509986    3536.0791            0            0            0            0    609.21705    44657.537 -0.067234084   -17.036218 -0.041707817    3536.0791    1440.5966    1009.4089    925.46053    28.381223     18.84802    14.339257 0.00035371065 0.00035323454  0.012896349  0.012889758    294.36229     41.49527    35.978931    34.423473    90.016431    119.66323    90.107069    539.63997    212.22639    28.379347    18.849346    14.339072    28.381213    18.847351    14.338316 
 1250000    300.20218    1.2509986     3471.649            0            0            0            0    1137.8928    44657.537 -0.067234084   -17.036218 -0.041707817     3471.649    1444.4893    975.24821    894.31821    28.379145    18.846029    14.336197 0.00038208659 0.00038116413  0.012368342  0.012363436    300.20218     41.49527    35.978931    34.423473    90.016431    119.66323    90.107069    517.54585    229.25196    28.379094     18.84819    14.339818     28.38091     18.84482    14.335456 
 1260000    305.09936    1.2509986     3525.748            0            0            0            0    310.36765    44657.537 -0.067234084   -17.036218 -0.041707817     3525.748    1494.3905     1002.391    875.92683    28.383022    18.848464    14.338456 0.00036515688 0.00036463643  0.012534061  0.012515329    305.09936     41.49527    35.978931    34.423473    90.016431    119.66323    90.107069    524.48024    219.09413    28.379955     18.84936    14.340129    28.383342     18.84787    14.337995 
 1270000    295.93502    1.2509986    3422.8143            0            0            0            0    495.50489    44657.537 -0.067234084   -17.036218 -0.041707817    3422.8143    1394.0512    965.93191    904.83894    28.379493    18.847931    14.336738 0.00037080762 0.00036901914  0.012173008  0.012165477    295.93502     41.49527    35.978931    34.423473    90.016431    119.66323    90.107069    509.37219    222.48457    28.379249    18.849261     14.33836    28.380498    18.847999    14.336435 
 1280000    303.23502    1.2509986    3537.9468            0            0            0            0   -153.50899    44657.537 -0.067234084   -17.036218 -0.041707817    3537.9468     1470.058    1016.2718     892.3692    28.377421    18.848179    14.336069 0.00037574449 0.00037523405  0.012073077  0.012067782    303.23502     41.49527    35.978931    34.423473    90.016431    119.66323    90.107069    505.19066     225.4467    28.379496    18.849724    14.339596    28.379668    18.847744    14.336915 
 1290000    299.28066    1.2509986    3464.8055            0            0            0            0   -221.22734    44657.537 -0.067234084   -17.036218 -0.041707817    3464.8055    1431.7145    976.90338    901.98736    28.380423    18.846828    14.337089 0.00037118855 0.00037046422  0.012764316  0.012760577    299.28066     41.49527    35.978931    34.423473    90.016431    119.66323    90.107069    534.11512    222.71313    28.379878    18.848894    14.340417    28.381501    18.846416    14.337277 
 1300000    299.97884    1.2509986    3456.7835            0            0            0            0   -1855.7632    44657.537 -0.067234084   -17.036218 -0.041707817    3456.7835    1429.9967    972.67566    898.65693    28.377852    18.847314    14.335298 0.00035240033 0.00035180284  0.012755099  0.012741346    299.97884     41.49527    35.978931    34.423473    90.016431    119.66323    90.107069    533.72946     211.4402    28.379007    18.849488    14.339901    28.377747    18.847229    14.334733 
 1310000    306.65801    1.2509986    3478.7866            0            0            0            0   -1243.8137    44657.537 -0.067234084   -17.036218 -0.041707817    3478.7866    1437.6871    968.26568    914.05968    28.379524    18.845411    14.337341 0.0003468136 0.00034649186  0.012995501  0.012994735    306.65801     41.49527    35.978931    34.423473    90.016431    119.66323    90.107069    543.78894    208.08816    28.379618    18.849501    14.339355    28.379675    18.846261    14.336905 
 1320000    294.87929    1.2509986    3369.2734            0            0            0            0    393.47717    44657.537 -0.067234084   -17.036218 -0.041707817    3369.2734    1386.7269    969.15323    860.67633    28.378181    18.844679    14.337953 0.00033610746 0.00033547457  0.012686545  0.012684205    294.87929     41.49527    35.978931    34.423473    90.016431    119.66323    90.107069    530.86085    201.66447     28.37996    18.849158    14.338968    28.378646    18.845977    14.338118 
 1330000    301.37354    1.2509986    3416.7617            0            0            0            0    224.39014    44657.537 -0.067234084   -17.036218 -0.041707817    3416.7617    1403.3704    956.81364    902.07374    28.381084    18.847829    14.337059 0.00037431717 0.00037415266  0.012830284  0.012825731    301.37354     41.49527    35.978931    34.423473    90.016431    119.66323    90.107069    536.87551     224.5903    28.379433    18.849309     14.33939    28.380231    18.847526    14.336856 
 1340000    298.85439    1.2509986    3494.3469            0            0            0            0   -1271.4467    44657.537 -0.067234084   -17.036218 -0.041707817    3494.3469    1422.8378    1000.9279    914.47968    28.379452    18.847956    14.338417 0.00034336598 0.0003426025   0.01251017  0.012507091    298.85439     41.49527    35.978931    34.423473    90.016431    119.66323    90.107069    523.48053    206.01959    28.380072    18.848983    14.338933    28.378328    18.845269    14.338177 
 1350000    295.37489    1.2509986    3521.5545            0            0            0            0   -1885.7756    44657.537 -0.067234084   -17.036218 -0.041707817    3521.5545    1443.8477    985.63287    927.07121    28.381243    18.842713    14.339159 0.00033989087 0.00033893999   0.01298276   0.01296737    295.37489     41.49527    35.978931    34.423473    90.016431    119.66323    90.107069    543.25578    203.93452    28.378905    18.848937    14.338917    28.379603    18.841614    14.337933 
 1360000    301.28082    1.2509986    3404.8328            0            0            0            0   -427.72887    44657.537 -0.067234084   -17.036218 -0.041707817    3404.8328    1430.5617    968.92003    858.59051    28.380347    18.846825    14.336544 0.00034017741 0.00033881872  0.012639804  0.012633319    301.28082     41.49527    35.978931    34.423473    90.016431    119.66323    90.107069      528.905    204.10644    28.379378    18.847867    14.339754    28.380565    18.847781    14.336491 
 1370000    299.01052    1.2509986    3453.1938            0            0            0            0    297.42248    44657.537 -0.067234084   -17.036218 -0.041707817    3453.1938    1471.9444    976.26566    855.88009    28.380512    18.847889     14.33519 0.00035697346 0.00035683099  0.012183916  0.012169654    299.01052     41.49527    35.978931    34.423473    90.016431    119.66323    90.107069    509.82862    214.18407    28.379882    18.849039    14.339828    28.382319    18.847423     14.33522 
 1380000    296.43312    1.2509986    3478.6123            0            0            0            0    491.29088    44657.537 -0.067234084   -17.036218 -0.041707817    3478.6123    1431.7925    989.38861     903.4385     28.38411    18.844507    14.338607 0.00033606322 0.00033571923   0.01221296   0.01220197    296.43312     41.49527    35.978931    34.423473    90.016431    119.66323    90.107069    511.04394    201.63793    28.379738    18.849533    14.339436    28.382646     18.84498    14.338911 
 1390000    293.58774    1.2509986    3567.9981            0            0            0            0   -1556.9753    44657.537 -0.067234084   -17.036218 -0.041707817    3567.9981    1479.2287    1009.5405    916.94536     28.37841    18.846152    14.335491 0.00035315371  0.000351994  0.012723083  0.012715146    293.58774     41.49527    35.978931    34.423473    90.016431    119.66323    90.107069    532.38976    211.89223    28.379833    18.848661    14.338659    28.379374    18.847566    14.335428 
 1400000    299.71759    1.2509986    3451.3277            0            0            0            0    424.69575    44657.537 -0.067234084   -17.036218 -0.041707817    3451.3277    1384.8701    957.72212    952.60821    28.379327    18.846464     14.33643 0.0003512287 0.00034768994  0.012236069  0.012232432    299.71759     41.49527    35.978931    34.423473    90.016431    119.66323    90.107069    512.01097    210.73722    28.378124    18.847794    14.339677    28.381167    18.846774    14.336927 
 1410000    295.78465    1.2509986      3411.86            0            0            0            0   -282.19033    44657.537 -0.067234084   -17.036218 -0.041707817      3411.86    1447.1471    971.22566    848.36682    28.377294    18.846361    14.337867 0.00034396966 0.00034377266   0.01156973  0.011564477    295.78465     41.49527    35.978931    34.423473    90.016431    119.66323    90.107069     484.1284    206.38179    28.379485    18.849427     14.33978    28.377616    18.845941    14.337726 
 1420000    300.18498    1.2509986    3496.9973            0            0            0            0   -1423.6594    44657.537 -0.067234084   -17.036218 -0.041707817    3496.9973    1406.0917    983.51044    942.06628    28.384451    18.846294    14.339049 0.00037619349 0.00037406377  0.012386467  0.012369505    300.18498     41.49527    35.978931    34.423473    90.016431    119.66323    90.107069    518.30426    225.71609    28.379719    18.849406    14.341034    28.383814    18.846267    14.337826 
 1430000    294.97189    1.2509986    3532.3759            0            0            0            0   -1615.4547    44657.537 -0.067234084   -17.036218 -0.041707817    3532.3759    1462.0345    1016.8589     899.1792    28.379038    18.845648    14.337092 0.00036448865 0.0003629796  0.012744713  0.012737089    294.97189     41.49527    35.978931    34.423473    90.016431    119.66323    90.107069    533.29484    218.69319    28.378333    18.848908    14.339617    28.378273    18.847759     14.33707 
 1440000    296.85976    1.2509986    3470.4978            0            0            0            0    357.14366    44657.537 -0.067234084   -17.036218 -0.041707817    3470.4978    1461.4586    977.89411     877.6878    28.381042    18.845904    14.339343 0.00035354178 0.00035274483   0.01237206   0.01236992    296.85976     41.49527    35.978931    34.423473    90.016431    119.66323    90.107069     517.7014    212.12507    28.380298    18.849459    14.339419    28.379085    18.845824    14.338485 
 1450000    290.61078    1.2509986    3468.0887            0            0            0            0   -641.94867    44657.537 -0.067234084   -17.036218 -0.041707817    3468.0887    1452.0012    953.86346    903.55316    28.376598    18.846626    14.335411 0.00037389429 0.0003736609  0.012134924  0.012129114    290.61078     41.49527    35.978931    34.423473    90.016431    119.66323    90.107069    507.77861    224.33657    28.379914     18.84873    14.339479    28.378946    18.846354    14.335194 
 1460000    291.42317    1.2509986    3562.9537            0            0            0            0    1006.6022    44657.537 -0.067234084   -17.036218 -0.041707817    3562.9537    1509.2216    982.22083    914.52374     28.37995    18.845205    14.338316 0.00032150001 0.00032134395  0.012707008  0.012706006    291.42317     41.49527    35.978931    34.423473    90.016431    119.66323    90.107069    531.71712        192.9    28.379213      18.8492    14.339692    28.379957    18.845761    14.338213 
 1470000    293.40756    1.2509986    3550.5108            0            0            0            0   -95.590212    44657.537 -0.067234084   -17.036218 -0.041707817    3550.5108    1485.6372    1016.0462    899.21836     28.37909    18.847355    14.336695 0.00037979842 0.00037845676  0.012123131  0.012122148    293.40756     41.49527    35.978931    34.423473    90.016431    119.66323    90.107069    507.28514    227.87905    28.380254    18.848445    14.340368    28.379839    18.846184    14.336572 
 1480000    292.63946    1.2509986     3376.356            0            0            0            0   -853.21346    44657.537 -0.067234084   -17.036218 -0.041707817     3376.356    1398.1345    971.22718    859.70533    28.382057    18.849047    14.336677 0.00033902566 0.00033782329  0.012519815   0.01251246    292.63946     41.49527    35.978931    34.423473    90.016431    119.66323    90.107069    523.88413     203.4154    28.379576    18.849996    14.340124    28.380334    18.848016    14.336474 
 1490000    302.43637    1.2509986    3442.7375            0            0            0            0   -640.67204    44657.537 -0.067234084   -17.036218 -0.041707817    3442.7375    1395.8465     998.4481     892.4722    28.378405    18.845331    14.336712 0.00033811738 0.00033606016  0.012690747  0.012689274    302.43637     41.49527    35.978931    34.423473    90.016431    119.66323    90.107069    531.03665    202.87043    28.379777    18.848503    14.338316    28.378604    18.845467    14.337383 
 1500000    301.79843    1.2509986    3514.6844            0            0            0            0    480.64947    44657.537 -0.067234084   -17.036218 -0.041707817    3514.6844    1439.4531    995.02013    923.32339    28.378883     18.84646    14.337595 0.00034294496 0.00034213571  0.012690698  0.012678819    301.79843     41.49527    35.978931    34.423473    90.016431    119.66323    90.107069    531.03463    205.76697     28.37977    18.849696    14.340183    28.377083    18.847562    14.336996 
 1510000    296.68997    1.2509986    3453.6834            0            0            0            0    -892.3402    44657.537 -0.067234084   -17.036218 -0.041707817    3453.6834    1425.5077    967.07471    906.58227    28.378155    18.845964    14.335021 0.0003705286 0.00036932332  0.012327798  0.012306762    296.68997     41.49527    35.978931    34.423473    90.016431    119.66323    90.107069     515.8493    222.31716     28.37932    18.849462    14.338665    28.378722    18.844931    14.332842 
 1520000    303.69972    1.2509986    3501.7139            0            0            0            0    111.12897    44657.537 -0.067234084   -17.036218 -0.041707817    3501.7139    1472.0734    985.97135     891.3407    28.380607    18.847709    14.336847 0.00034013153 0.00033909034  0.012902197  0.012888936    303.69972     41.49527    35.978931    34.423473    90.016431    119.66323    90.107069    539.88467    204.07892    28.378753    18.849591    14.339884    28.382752    18.847584    14.336855 
[...]
 1630000    303.66615    1.2509986    3502.1293            0            0            0            0   -1197.2771    44657.537 -0.067234084   -17.036218 -0.041707817    3502.1293    1469.6467    997.04692    887.41573    28.378112     18.84602    14.337824 0.00036965079 0.00036861847  0.012727115  0.012721939    303.66615     41.49527    35.978931    34.423473    90.016431    119.66323    90.107069    532.55847    221.79047     28.37964     18.84805    14.339324    28.380325    18.846362    14.339295 
 1640000    296.20374    1.2509986    3423.5708            0            0            0            0    -2011.556    44657.537 -0.067234084   -17.036218 -0.041707817    3423.5708    1389.3724     983.5476      889.783    28.379283    18.844444    14.338109 0.00034515895 0.00034510533  0.012818585  0.012813899    296.20374     41.49527    35.978931    34.423473    90.016431    119.66323    90.107069    536.38596    207.09537    28.379489    18.849075    14.339851    28.378162    18.844286    14.338005 
 1650000    301.47115    1.2509986    3429.5585            0            0            0            0    182.55096    44657.537 -0.067234084   -17.036218 -0.041707817    3429.5585    1404.1937     955.7078    915.06666    28.379171    18.848372    14.337218 0.00033142415 0.00032899454  0.012885132  0.012875551    301.47115     41.49527    35.978931    34.423473    90.016431    119.66323    90.107069    539.17061    198.85449    28.378655    18.847992     14.33888    28.378587    18.848311    14.337085 
 1660000    299.17222    1.2509986     3455.363            0            0            0            0   -1344.5884    44657.537 -0.067234084   -17.036218 -0.041707817     3455.363    1446.5764    986.85293    871.25564    28.380386    18.847327     14.33669 0.00034702762 0.00034683327  0.012531999  0.012518366    299.17222     41.49527    35.978931    34.423473    90.016431    119.66323    90.107069    524.39395    208.21657    28.379387    18.848646    14.339462    28.383118    18.846739    14.336213 
 1670000    301.22203    1.2509986    3515.7186            0            0            0            0   -683.25702    44657.537 -0.067234084   -17.036218 -0.041707817    3515.7186    1460.7275     1019.915    881.32016    28.381889    18.846399    14.337008 0.00034820259 0.00034771984  0.012376089  0.012372185    301.22203     41.49527    35.978931    34.423473    90.016431    119.66323    90.107069       517.87    208.92155    28.379899    18.848829    14.340214    28.381638     18.84611    14.336859 
 1680000     295.8597    1.2509986    3517.6347            0            0            0            0   -2774.4701    44657.537 -0.067234084   -17.036218 -0.041707817    3517.6347    1477.3277    989.01847    901.31063    28.382572    18.846399    14.337998 0.00035693829 0.00035586664  0.012271687  0.012270894     295.8597     41.49527    35.978931    34.423473    90.016431    119.66323    90.107069    513.50134    214.16298    28.379083    18.849391    14.340478     28.38055    18.845743    14.337683 
 1690000    297.92876    1.2509986    3462.0642            0            0            0            0    376.03917    44657.537 -0.067234084   -17.036218 -0.041707817    3462.0642     1480.284    939.56031    885.36208     28.37864    18.845952    14.336039 0.00032861276 0.00032835855  0.012959797  0.012951957    297.92876     41.49527    35.978931    34.423473    90.016431    119.66323    90.107069    542.29492    197.16766     28.37934     18.84863    14.339393    28.377565    18.845741    14.335615 
 1700000    295.66316    1.2509986     3501.256            0            0            0            0    614.00045    44657.537 -0.067234084   -17.036218 -0.041707817     3501.256    1436.0662    1004.7456     905.9797    28.380172    18.844169     14.33771 0.00035107546 0.00034933028  0.012154396  0.012147433    295.66316     41.49527    35.978931    34.423473    90.016431    119.66323    90.107069    508.59338    210.64528    28.379561    18.847694    14.339721    28.381959    18.844126    14.337995 
 1710000    301.27281    1.2509986     3508.674            0            0            0            0    993.56605    44657.537 -0.067234084   -17.036218 -0.041707817     3508.674    1422.3987      995.496    924.13233    28.377205    18.846753    14.335745 0.0003572741 0.00035500529  0.012413452   0.01240979    301.27281     41.49527    35.978931    34.423473    90.016431    119.66323    90.107069    519.43342    214.36446    28.380984    18.849335    14.339996    28.378353    18.845562    14.336029 
 1720000    295.92898    1.2509986    3483.3136            0            0            0            0    1724.9552    44657.537 -0.067234084   -17.036218 -0.041707817    3483.3136    1427.5297     973.5461    922.61419    28.378101    18.848956    14.335099 0.00034016028 0.00033753762  0.012970066  0.012954446    295.92898     41.49527    35.978931    34.423473    90.016431    119.66323    90.107069    542.72461    204.09617    28.378864     18.84765    14.339104    28.379862    18.848259    14.334461 
 1730000    293.55022    1.2509986    3499.5557            0            0            0            0    183.63515    44657.537 -0.067234084   -17.036218 -0.041707817    3499.5557    1469.2654    996.16522    883.58296    28.380187    18.846525    14.335785 0.00035147744 0.00034786268  0.012529207  0.012528266    293.55022     41.49527    35.978931    34.423473    90.016431    119.66323    90.107069    524.27713    210.88647    28.380561    18.847657    14.338761    28.379731     18.84514    14.336357 
 1740000    297.38282    1.2509986    3555.0546            0            0            0            0    -1874.632    44657.537 -0.067234084   -17.036218 -0.041707817    3555.0546    1476.5641    1030.8156    892.44959    28.379106    18.845561    14.337847 0.00034907666 0.00034553008  0.012361597  0.012358688    297.38282     41.49527    35.978931    34.423473    90.016431    119.66323    90.107069     517.2636      209.446    28.378805    18.847465    14.338873    28.379657    18.845586    14.338959 
 1750000    300.42957    1.2509986    3518.6013            0            0            0            0   -1088.1841    44657.537 -0.067234084   -17.036218 -0.041707817    3518.6013     1468.608     988.1444     903.5103      28.3806    18.850052    14.337634 0.00037989832 0.00037957351  0.012753633  0.012744382    300.42957     41.49527    35.978931    34.423473    90.016431    119.66323    90.107069    533.66809    227.93899    28.379365    18.849503    14.339857    28.381176    18.848173    14.337596 
 1760000    291.05217    1.2509986    3485.2671            0            0            0            0   -423.65018    44657.537 -0.067234084   -17.036218 -0.041707817    3485.2671    1487.5686    969.20908    877.22369    28.380723    18.848161    14.336205 0.0003468425 0.00034475105   0.01268099  0.012659837    291.05217     41.49527    35.978931    34.423473    90.016431    119.66323    90.107069    530.62838     208.1055    28.379082    18.850367    14.339454    28.383307    18.848004    14.335671 
 1770000    294.88654    1.2509986    3413.5933            0            0            0            0    -1271.755    44657.537 -0.067234084   -17.036218 -0.041707817    3413.5933    1431.9156    976.58616    853.47298    28.377159    18.845559    14.335779 0.00033892456 0.00033869843  0.012313867  0.012295906    294.88654     41.49527    35.978931    34.423473    90.016431    119.66323    90.107069    515.26635    203.35474      28.3791    18.848894    14.339579    28.376444    18.845588    14.334695 
 1780000    303.24119    1.2509986    3504.7887            0            0            0            0   -944.82468    44657.537 -0.067234084   -17.036218 -0.041707817    3504.7887    1433.0849    972.22173    938.55873    28.377048    18.847194     14.33597 0.00034425997 0.00034406855  0.012787174  0.012781409    303.24119     41.49527    35.978931    34.423473    90.016431    119.66323    90.107069    535.07161    206.55598    28.379928    18.849123    14.339434    28.378052    18.846992     14.33666 
 1790000    299.73986    1.2509986    3489.8482            0            0            0            0    604.34749    44657.537 -0.067234084   -17.036218 -0.041707817    3489.8482    1467.9685    967.93821    900.52851    28.380586    18.848599    14.338199 0.00032477853 0.00032363351  0.011426336  0.011423799    299.73986     41.49527    35.978931    34.423473    90.016431    119.66323    90.107069    478.12815    194.86712     28.38032    18.848839    14.340367    28.379233    18.846921    14.337591 
 1800000    291.61208    1.2509986    3441.4711            0            0            0            0   -613.03922    44657.537 -0.067234084   -17.036218 -0.041707817    3441.4711    1461.9344    946.10647    878.27721    28.380671    18.848235    14.336684 0.00032904531 0.00032621949  0.012132602  0.012123853    291.61208     41.49527    35.978931    34.423473    90.016431    119.66323    90.107069    507.68144    197.42719    28.381203    18.848739    14.339838    28.381203    18.848071    14.337001 
 1810000    293.85202    1.2509986    3448.7825            0            0            0            0    528.97665    44657.537 -0.067234084   -17.036218 -0.041707817    3448.7825    1426.1242    977.60762    888.18882    28.377544    18.848925    14.335619 0.00036860148 0.00036799919  0.012141279  0.012134409    293.85202     41.49527    35.978931    34.423473    90.016431    119.66323    90.107069    508.04451    221.16089    28.378933    18.848983    14.340099    28.378787    18.847542    14.336021 
 1820000    297.09148    1.2509986    3480.3427            0            0            0            0   -1075.6656    44657.537 -0.067234084   -17.036218 -0.041707817    3480.3427    1443.5991    953.81554    921.81954     28.37784    18.846414    14.337264 0.00037064573 0.00036996841  0.012579312  0.012571312    297.09148     41.49527    35.978931    34.423473    90.016431    119.66323    90.107069    526.37374    222.38744    28.379449    18.848508    14.340279     28.37741    18.846956    14.337079 
 1830000    301.67014    1.2509986    3537.3673            0            0            0            0   -1624.1275    44657.537 -0.067234084   -17.036218 -0.041707817    3537.3673     1433.506     1003.844    941.21926     28.37792    18.844257    14.336834 0.00036154507 0.00036131946  0.012913599  0.012908634    301.67014     41.49527    35.978931    34.423473    90.016431    119.66323    90.107069    540.36176    216.92704    28.379582    18.849258    14.339232    28.378716     18.84354    14.337412 
 1840000    293.26508    1.2509986    3487.3311            0            0            0            0   -2681.3675    44657.537 -0.067234084   -17.036218 -0.041707817    3487.3311    1440.8997    1003.5409    890.80389    28.379685    18.846806    14.334735 0.00035226928 0.00035223473  0.012339066   0.01232604    293.26508     41.49527    35.978931    34.423473    90.016431    119.66323    90.107069     516.3208    211.36157    28.379668    18.849128    14.339543    28.379477    18.847711    14.334452 
 1850000    294.60682    1.2509986     3495.051            0            0            0            0   -3.8906089    44657.537 -0.067234084   -17.036218 -0.041707817     3495.051    1453.6731    995.22073     896.2189    28.378378    18.846301    14.336911 0.00035366083 0.00035275275  0.011717995  0.011705916    294.60682     41.49527    35.978931    34.423473    90.016431    119.66323    90.107069    490.33247     212.1965    28.380044    18.849111    14.340451    28.377074    18.846926     14.33569 
 1860000    304.02492    1.2509986    3458.6765            0            0            0            0    2801.3179    44657.537 -0.067234084   -17.036218 -0.041707817    3458.6765    1439.2103    1006.0526    866.85408    28.381304    18.849132    14.338415 0.00033954325 0.00033771483  0.012417179  0.012400778    304.02492     41.49527    35.978931    34.423473    90.016431    119.66323    90.107069     519.5894    203.72595    28.379106    18.848202    14.340622    28.380782    18.849372    14.337785 
 1870000    301.73729    1.2509986    3499.4022            0            0            0            0   -614.24228    44657.537 -0.067234084   -17.036218 -0.041707817    3499.4022     1455.365    1008.5979    885.50463     28.37902    18.844599     14.33616 0.00033341074 0.00033207314  0.012294224  0.012287257    301.73729     41.49527    35.978931    34.423473    90.016431    119.66323    90.107069    514.44442    200.04645    28.379152    18.847978    14.339319    28.378805    18.843298    14.336162 
 1880000     293.6678    1.2509986    3553.1831            0            0            0            0   -633.05491    44657.537 -0.067234084   -17.036218 -0.041707817    3553.1831     1454.288    993.62127    939.84063    28.380896    18.847843    14.337407 0.00035836448 0.00035728602  0.013002686  0.012989465     293.6678     41.49527    35.978931    34.423473    90.016431    119.66323    90.107069    544.08957    215.01869    28.379444    18.848437    14.340495    28.380264    18.849079    14.337113 
 1890000    299.20128    1.2509986    3479.1184            0            0            0            0     622.8075    44657.537 -0.067234084   -17.036218 -0.041707817    3479.1184    1420.7045    990.71667    914.00111    28.381112     18.84639     14.33805 0.00036846748 0.00036562779  0.012404646  0.012404302    299.20128     41.49527    35.978931    34.423473    90.016431    119.66323    90.107069    519.06494    221.08049    28.380388    18.847556    14.339476    28.380276    18.845539    14.337617 
 1900000    299.59525    1.2509986    3502.8998            0            0            0            0     1849.001    44657.537 -0.067234084   -17.036218 -0.041707817    3502.8998    1475.5131    976.73369    896.23133    28.377244    18.846332    14.336283  0.000339774 0.00033932561  0.013015412  0.013012213    299.59525     41.49527    35.978931    34.423473    90.016431    119.66323    90.107069     544.6221     203.8644    28.380011    18.848523    14.339597    28.380728    18.847011    14.337272 
 1910000    298.30019    1.2509986    3431.3472            0            0            0            0   -901.61561    44657.537 -0.067234084   -17.036218 -0.041707817    3431.3472    1426.3831    964.68973    882.84858     28.38183    18.848325    14.338899 0.00033175152 0.00033086046  0.012989905  0.012972144    298.30019     41.49527    35.978931    34.423473    90.016431    119.66323    90.107069    543.55475    199.05091    28.379621    18.849485    14.340453    28.381674    18.848646    14.339323 
 1920000    299.42292    1.2509986     3511.991            0            0            0            0    483.19809    44657.537 -0.067234084   -17.036218 -0.041707817     3511.991    1437.9169    983.88853    930.06456    28.381842    18.848751    14.338228 0.00035759276 0.00035632593   0.01209614  0.012081395    299.42292     41.49527    35.978931    34.423473    90.016431    119.66323    90.107069    506.15569    214.55566    28.379646     18.84893    14.340757    28.379928    18.849195     14.33632 
 1930000    301.44374    1.2509986    3434.2981            0            0            0            0    -911.9789    44657.537 -0.067234084   -17.036218 -0.041707817    3434.2981    1441.1002    941.65737    895.21019    28.381409    18.847938    14.335666 0.00034008862 0.00033993736  0.012207541  0.012194998    301.44374     41.49527    35.978931    34.423473    90.016431    119.66323    90.107069    510.81723    204.05317    28.379909    18.849173    14.339678    28.379964     18.84799    14.334776 
 1940000    294.04482    1.2509986     3425.384            0            0            0            0   -504.23326    44657.537 -0.067234084   -17.036218 -0.041707817     3425.384     1407.583     972.5019    888.10307    28.382002    18.845949    14.336965 0.00034605592 0.00034367548   0.01257229  0.012567871    294.04482     41.49527    35.978931    34.423473    90.016431    119.66323    90.107069    526.07992    207.63355    28.380056    18.847555    14.339571    28.380863    18.846933    14.336175 
 1950000    304.95659    1.2509986    3502.4046            0            0            0            0     -554.913    44657.537 -0.067234084   -17.036218 -0.041707817    3502.4046    1457.0894    1004.9642    888.64363    28.384282    18.847337    14.338912 0.00033723798 0.00033653874  0.012663875  0.012647283    304.95659     41.49527    35.978931    34.423473    90.016431    119.66323    90.107069    529.91223    202.34279    28.380316    18.849191    14.339938    28.383598    18.846513    14.338352 
 1960000    299.28851    1.2509986    3474.4011            0            0            0            0   -1409.5142    44657.537 -0.067234084   -17.036218 -0.041707817    3474.4011    1461.8208    957.75937    893.03774    28.380478    18.848079    14.337029 0.00035127068 0.00035084619  0.012514963  0.012511378    299.28851     41.49527    35.978931    34.423473    90.016431    119.66323    90.107069     523.6811    210.76241    28.380002    18.848579    14.339443    28.380426      18.8472    14.336784 
 1970000    295.33525    1.2509986    3510.9558            0            0            0            0    -243.8149    44657.537 -0.067234084   -17.036218 -0.041707817    3510.9558    1461.6173    979.04256    913.90399     28.37789    18.844463    14.336649 0.00032957381 0.00032701174  0.012091953    0.0120884    295.33525     41.49527    35.978931    34.423473    90.016431    119.66323    90.107069    505.98048    197.74429    28.379326    18.848039    14.338389    28.378929    18.844832    14.335728 
 1980000    292.24353    1.2509986    3479.9158            0            0            0            0   -1702.3348    44657.537 -0.067234084   -17.036218 -0.041707817    3479.9158    1413.4672    999.75755    904.79403     28.37914    18.845187    14.336378 0.0003954031 0.00039458977  0.012726787  0.012724737    292.24353     41.49527    35.978931    34.423473    90.016431    119.66323    90.107069    532.54475    237.24186     28.37985     18.84817    14.339764    28.380169    18.844535    14.336244 
 1990000    298.10056    1.2509986    3467.6876            0            0            0            0   -1105.5131    44657.537 -0.067234084   -17.036218 -0.041707817    3467.6876    1447.2145    996.24539     871.8677    28.377795    18.847063    14.337494 0.00033935334 0.00033826079  0.012743698  0.012740029    298.10056     41.49527    35.978931    34.423473    90.016431    119.66323    90.107069    533.25237    203.61201    28.378855    18.849583    14.340163    28.380123    18.847106    14.338218 
 2000000     294.6784    1.2509986    3541.2872            0            0            0            0   -452.59557    44657.537 -0.067234084   -17.036218 -0.041707817    3541.2872    1467.6907     1002.974    914.85463    28.380544    18.846603    14.338602 0.00030774247 0.00030698627  0.012698026   0.01269381     294.6784     41.49527    35.978931    34.423473    90.016431    119.66323    90.107069    531.34125    184.64548    28.378962     18.84856    14.339194    28.379618    18.847269    14.338243 
Loop time of 3694.54 on 20 procs for 2000000 steps with 4560 atoms

Pair  time (%) = 2694.26 (72.9254)
Bond  time (%) = 343.024 (9.28462)
Neigh time (%) = 65.8313 (1.78185)
Comm  time (%) = 439.149 (11.8864)
Outpt time (%) = 0.533485 (0.0144398)
Other time (%) = 151.745 (4.10728)

Nlocal:    228 ave 241 max 220 min
Histogram: 1 4 2 4 3 5 0 0 0 1
Nghost:    5774.9 ave 5830 max 5717 min
Histogram: 1 1 0 4 5 3 3 1 0 2
Neighs:    83667.8 ave 88832 max 80642 min
Histogram: 2 3 3 2 6 1 2 0 0 1

Total # of neighbors = 1673356
Ave neighs/atom = 366.964
Ave special neighs/atom = 10.6316
Neighbor list builds = 13712
Dangerous builds = 0
System init for write_data ...
