LAMMPS data file via write_data, version 15 May 2015, timestep = 1009000

2593 atoms
6 atom types
1728 bonds
4 bond types
864 angles
3 angle types
0 dihedrals
3 dihedral types
0 impropers
1 improper types

-1.4896288415293810e+01 1.4896288415293810e+01 xlo xhi
-1.4896288415293810e+01 1.4896288415293810e+01 ylo yhi
-1.4896288415293810e+01 1.4896288415293810e+01 zlo zhi

Masses

1 15.9994
2 1.00794
3 12.0107
4 1.00794
5 12.0107
6 12.0107

Bond Coeffs # harmonic

1 1000 1
2 469 1.4
3 367 1.08
4 469 0.7

Angle Coeffs # harmonic

1 100 109.47
2 35 120
3 63 120

Dihedral Coeffs # opls

1 0 7.25 0 0
2 0 7.25 0 0
3 0 7.25 0 0

Improper Coeffs # cvff

1 2.5 -1 2

Atoms # full

1706 569 2 4.0999999999999998e-01 -1.4778203465480162e+01 -1.4641240525113220e+01 -1.0264665313512403e+01 -2 2 1
531 177 2 4.0999999999999998e-01 -1.1394859514881393e+01 -1.0517102291959500e+01 -7.9337932778198406e+00 -2 0 1
1978 660 1 -8.1999999999999995e-01 -1.0691731430390307e+01 -5.7695027562774950e+00 -1.0565362348183324e+01 0 -1 0
2178 726 2 4.0999999999999998e-01 -1.1971350580097427e+01 -1.3165934314734731e+01 -1.3415059605618799e+01 -3 0 0
2176 726 1 -8.1999999999999995e-01 -1.1137417838032952e+01 -1.2916568521080434e+01 -1.2922699605496639e+01 -3 0 0
149 50 2 4.0999999999999998e-01 -5.5856138054062274e+00 -5.3822575136517887e+00 -1.4464115454193600e+01 -2 1 -1
2468 823 2 4.0999999999999998e-01 -1.2600289022246479e+01 -8.7592682881240620e+00 -9.8877503668705380e+00 -1 0 -1
1480 494 1 -8.1999999999999995e-01 -3.4895108678945697e-01 -5.0152277605479618e+00 -1.0025982019327524e+01 -3 -1 3
837 279 2 4.0999999999999998e-01 -9.9230768891853849e+00 -8.0014940880425502e+00 -1.4410743080094244e+01 -1 0 2
2469 823 2 4.0999999999999998e-01 -1.1330854975864735e+01 -9.1775724651881454e+00 -1.0825996943566000e+01 -1 0 -1
2467 823 1 -8.1999999999999995e-01 -1.1627092764921693e+01 -8.9893360235942694e+00 -9.8895912391227583e+00 -1 0 -1
1837 613 1 -8.1999999999999995e-01 -5.8532189917562274e+00 -6.8485170500998471e+00 -7.6065073796964890e+00 -2 -1 1
1010 337 2 4.0999999999999998e-01 -1.4152927173201739e+01 -1.3410501695606227e+01 -1.4622614425873097e+01 -1 2 1
1979 660 2 4.0999999999999998e-01 -1.0836952124473022e+01 -6.4208650725845278e+00 -9.8205915937263679e+00 0 -1 0
1839 613 2 4.0999999999999998e-01 -5.8995030418463834e+00 -7.8469960135260237e+00 -7.5757980803677043e+00 -2 -1 1
835 279 1 -8.1999999999999995e-01 -9.4646123221979934e+00 -8.7172274509466092e+00 -1.3883883059561466e+01 -1 0 2
2177 726 2 4.0999999999999998e-01 -1.0446071211748663e+01 -1.3626514017792246e+01 -1.3057097295542613e+01 -3 0 0
836 279 2 4.0999999999999998e-01 -9.2474584051912956e+00 -9.4863415030505216e+00 -1.4485009672024024e+01 -1 0 2
1919 640 2 4.0999999999999998e-01 -1.1768996695163183e+01 -5.3432733140618396e+00 -1.1611765068510033e+01 1 0 2
2527 843 1 -8.1999999999999995e-01 -1.3037804457054014e+01 -1.2241094405309450e+01 -1.0491685951535757e+01 1 0 1
2528 843 2 4.0999999999999998e-01 -1.2474529811324260e+01 -1.2710630217854179e+01 -1.1171614830030842e+01 1 0 1
2450 817 2 4.0999999999999998e-01 -1.3333351592451409e+01 -9.1038197211708933e+00 -1.3332796149361799e+01 -2 3 -1
2111 704 2 4.0999999999999998e-01 -1.1057599636916381e+01 -1.3160133798544738e+01 -7.9188187410325241e+00 -1 3 -2
799 267 1 -8.1999999999999995e-01 -2.5438873209995343e+00 -9.4540286688755089e+00 -7.8610344095387275e+00 -3 1 -1
2110 704 1 -8.1999999999999995e-01 -1.2032898296022667e+01 -1.3267424058112697e+01 -8.1120203259347328e+00 -1 3 -2
2307 769 2 4.0999999999999998e-01 -9.0020560272450965e+00 -1.1722167311278985e+01 -1.4064118984611373e+01 -3 1 -1
142 48 1 -8.1999999999999995e-01 -1.1496168564991763e+01 -1.0240409669091370e+01 -1.2694658937269072e+01 -1 1 -1
1935 645 2 4.0999999999999998e-01 -8.5022237635862403e+00 -1.4366129577338228e+01 -9.5397949618733939e+00 0 -1 2
2158 720 1 -8.1999999999999995e-01 -8.9505773812713798e+00 -1.4479590591871041e+01 -1.2696325590220688e+01 -2 -1 2
1946 649 2 4.0999999999999998e-01 -6.4899275217061536e+00 -1.2574299771614520e+01 -1.4701683701099169e+01 0 -1 -2
858 286 2 4.0999999999999998e-01 -1.4805731425481477e+01 -1.1771748016065759e+01 -1.0714875883351027e+01 -1 2 1
143 48 2 4.0999999999999998e-01 -1.1502729242431828e+01 -1.1239714197028253e+01 -1.2731980033140626e+01 -1 1 -1
144 48 2 4.0999999999999998e-01 -1.0697466178547291e+01 -9.8937233593670637e+00 -1.3186521254396915e+01 -1 1 -1
1131 377 2 4.0999999999999998e-01 -8.6397720850790130e+00 -8.4156136424512020e+00 -9.8092244944852105e+00 1 0 0
1130 377 2 4.0999999999999998e-01 -1.0100516424679395e+01 -8.9232377740676920e+00 -9.2845422068745442e+00 1 0 0
1922 641 2 4.0999999999999998e-01 -1.4553915812183485e+01 -9.3072265389764173e+00 -8.2346519497991757e+00 1 1 1
1129 377 1 -8.1999999999999995e-01 -9.1256021795163988e+00 -8.8768490539361178e+00 -9.0667445473088364e+00 1 0 0
1163 388 2 4.0999999999999998e-01 -3.4496569569185755e+00 -1.2113430544995305e+01 -1.2868676942400077e+01 -3 3 0
849 283 2 4.0999999999999998e-01 -6.6059007447207101e+00 -1.4826708401783847e+01 -9.0381739843891857e+00 -1 1 0
2067 689 2 4.0999999999999998e-01 -8.9398014939700197e+00 -7.0993965665983403e+00 -1.3183859318107066e+01 1 0 0
2529 843 2 4.0999999999999998e-01 -1.2747114272307652e+01 -1.2511548077166649e+01 -9.5738627064803197e+00 1 0 1
1707 569 2 4.0999999999999998e-01 -1.4856508370524548e+01 -1.3261726116832911e+01 -9.3942882779280605e+00 -2 2 1
1023 341 2 4.0999999999999998e-01 -5.3177219081623281e+00 -1.4023942451081750e+01 -1.2435948379747387e+01 -2 0 1
2090 697 2 4.0999999999999998e-01 -1.8472690092854904e-01 -1.3351905458819687e+01 -1.2031987230821093e+01 -1 0 1
150 50 2 4.0999999999999998e-01 -7.0117040374186770e+00 -5.7476033430190867e+00 -1.3757336221049204e+01 -2 1 -1
1656 552 2 4.0999999999999998e-01 -4.6975017016618992e-02 -1.0159273730839232e+01 -1.2664361237491342e+01 -1 2 0
1375 459 1 -8.1999999999999995e-01 -2.2402566918646603e+00 -8.6949649060424239e+00 -1.1067366347925891e+01 -2 0 0
1687 563 1 -8.1999999999999995e-01 -8.6990391411008368e+00 -5.6785904588893796e+00 -7.6733986658202848e+00 1 -1 2
148 50 1 -8.1999999999999995e-01 -6.1998041126392245e+00 -5.1661087078772638e+00 -1.3705105930166251e+01 -2 1 -1
2066 689 2 4.0999999999999998e-01 -9.5267373733723630e+00 -6.1461294303760603e+00 -1.1994937180769853e+01 1 0 0
2306 769 2 4.0999999999999998e-01 -8.2281199389393755e+00 -1.1400079316885794e+01 -1.2662680465497530e+01 -3 1 -1
2065 689 1 -8.1999999999999995e-01 -8.9523592042426881e+00 -6.1706935245722487e+00 -1.2813186371363596e+01 1 0 0
2125 709 1 -8.1999999999999995e-01 -3.3011121155473049e+00 -6.7790871316721280e+00 -1.2878684479026262e+01 -1 1 0
1933 645 1 -8.1999999999999995e-01 -7.8127784881298012e+00 -1.3658726733283730e+01 -9.6956536810053784e+00 0 -1 2
2401 801 1 -8.1999999999999995e-01 -1.5305045631360770e-01 -1.1499764156027695e+01 -1.4180922731337761e+01 -1 -2 1
1009 337 1 -8.1999999999999995e-01 -1.3210802519020049e+01 -1.3660701709357175e+01 -1.4399351304223122e+01 -1 2 1
1224 408 2 4.0999999999999998e-01 -5.4104455258743656e+00 -5.8825246885297542e+00 -1.0936324534626552e+01 -1 2 -1
2449 817 1 -8.1999999999999995e-01 -1.4125748391953696e+01 -8.9318314870406859e+00 -1.3918093385220038e+01 -2 3 -1
15 5 2 4.0999999999999998e-01 -3.5066014058822681e+00 -1.0396382575594039e+01 -1.1289959138992778e+01 -3 2 0
2304 768 2 4.0999999999999998e-01 -6.6089645229155458e+00 -1.0705960488499862e+01 -1.3218267788230882e+01 0 2 1
2402 801 2 4.0999999999999998e-01 -1.2648663325740195e-01 -1.2364972871634400e+01 -1.3680169542685148e+01 -1 -2 1
170 57 2 4.0999999999999998e-01 -2.5127659826114215e+00 -1.3396378610625590e+01 -9.6383200382276897e+00 -1 -1 0
2305 769 1 -8.1999999999999995e-01 -8.1239473296505871e+00 -1.1474909194875670e+01 -1.3654443561776263e+01 -3 1 -1
563 188 2 4.0999999999999998e-01 -1.4651042166404030e+01 -7.4626267583702202e+00 -9.2497007646046150e+00 1 -2 0
1934 645 2 4.0999999999999998e-01 -8.2528968773113967e+00 -1.2839688148134238e+01 -1.0063780108165698e+01 0 -1 2
1947 649 2 4.0999999999999998e-01 -4.8649645077598578e+00 -1.2735751936798765e+01 -1.4714958729270620e+01 0 -1 -2
2089 697 1 -8.1999999999999995e-01 -5.7705355042524964e-01 -1.3740844111349942e+01 -1.2865565074127597e+01 -1 0 1
562 188 1 -8.1999999999999995e-01 -1.4537260282724491e+01 -8.2344495370648225e+00 -9.8753114748440325e+00 1 -2 0
801 267 2 4.0999999999999998e-01 -2.9474946931500181e+00 -1.0362363963080188e+01 -7.9709143097083137e+00 -3 1 -1
169 57 1 -8.1999999999999995e-01 -2.2933431976144938e+00 -1.2490846663091792e+01 -9.2751244669702402e+00 -1 -1 0
454 152 1 -8.1999999999999995e-01 -9.1278578647843940e+00 -1.1410038661992338e+01 -1.0722547284826193e+01 -2 1 0
1022 341 2 4.0999999999999998e-01 -6.3109200220359956e+00 -1.4341676695194403e+01 -1.1179226342427121e+01 -2 0 1
2159 720 2 4.0999999999999998e-01 -8.0253780353897248e+00 -1.4455667230548508e+01 -1.2317538929950310e+01 -2 -1 2
171 57 2 4.0999999999999998e-01 -1.4663689256786459e+00 -1.2547505992490787e+01 -8.7157062163727108e+00 -1 -1 0
1222 408 1 -8.1999999999999995e-01 -5.1005048964564228e+00 -5.8382180292610997e+00 -9.9865776028393416e+00 -1 2 -1
1223 408 2 4.0999999999999998e-01 -4.2562382014954920e+00 -5.3046419824047852e+00 -9.9360221499724837e+00 -1 2 -1
1164 388 2 4.0999999999999998e-01 -2.5487417539064641e+00 -1.2679970897008200e+01 -1.4107277625144816e+01 -3 3 0
13 5 1 -8.1999999999999995e-01 -3.5719330666981470e+00 -1.1392124497217411e+01 -1.1355344874688512e+01 -3 2 0
1376 459 2 4.0999999999999998e-01 -1.3117702544280494e+00 -8.6465602531230310e+00 -1.1435626249963553e+01 -2 0 0
2127 709 2 4.0999999999999998e-01 -3.3762923099464679e+00 -6.0279187937316419e+00 -1.3534534747077874e+01 -1 1 0
1838 613 2 4.0999999999999998e-01 -5.5350267827904744e+00 -6.5571779349378883e+00 -8.5086829195953690e+00 -2 -1 1
2126 709 2 4.0999999999999998e-01 -3.9672435790819964e+00 -7.4890669060260278e+00 -1.3107251920759182e+01 -1 1 0
2302 768 1 -8.1999999999999995e-01 -5.8274982848543448e+00 -1.0114935907339571e+01 -1.3018153031205879e+01 0 2 1
1377 459 2 4.0999999999999998e-01 -2.7715594616976187e+00 -7.9155022557416750e+00 -1.1399331417410556e+01 -2 0 0
1921 641 1 -8.1999999999999995e-01 -1.4755980753466677e+01 -1.0189253684233698e+01 -7.8089250775975110e+00 1 1 1
2091 697 2 4.0999999999999998e-01 -1.3683003393888349e+00 -1.4305090020882885e+01 -1.2629767261815521e+01 -1 0 1
14 5 2 4.0999999999999998e-01 -3.1301062551499683e+00 -1.1808062903725162e+01 -1.0560467639736366e+01 -3 2 0
1162 388 1 -8.1999999999999995e-01 -3.4807371256688242e+00 -1.2533980558012724e+01 -1.3775438890719920e+01 -3 3 0
455 152 2 4.0999999999999998e-01 -9.2460076170024461e+00 -1.0620971919247580e+01 -1.0119671006998292e+01 -2 1 0
2303 768 2 4.0999999999999998e-01 -5.0541140022407607e+00 -1.0674464261249032e+01 -1.2720075473897886e+01 0 2 1
456 152 2 4.0999999999999998e-01 -9.9891979278404079e+00 -1.1602043462630499e+01 -1.1192943844208855e+01 -2 1 0
2364 788 2 4.0999999999999998e-01 -6.2496163013107200e+00 -8.7607994966526626e+00 -1.4275699487507424e+01 0 1 1
1553 518 2 4.0999999999999998e-01 -1.3844532152623781e+01 -1.4556027630363689e+01 -1.2617841769871029e+01 0 1 -1
800 267 2 4.0999999999999998e-01 -2.2347142716811650e+00 -9.1168674225544226e+00 -8.7502924079879527e+00 -3 1 -1
1689 563 2 4.0999999999999998e-01 -7.7699211135179516e+00 -6.0079454155572929e+00 -7.8416558286798077e+00 1 -1 2
1021 341 1 -8.1999999999999995e-01 -6.2319047849020546e+00 -1.4335060292468869e+01 -1.2176100617151281e+01 -2 0 1
263 88 2 4.0999999999999998e-01 -1.1785596250679877e+01 -5.4276433603443319e+00 -7.5534440918667176e+00 -1 0 -1
507 169 2 4.0999999999999998e-01 -2.8459372631949975e-02 -5.5835423452033268e+00 -1.2752411925457935e+01 -2 -1 0
1980 660 2 4.0999999999999998e-01 -1.0199461816163964e+01 -4.9710676350931742e+00 -1.0218638433785292e+01 0 -1 0
182 61 2 4.0999999999999998e-01 -6.7753608996647543e+00 -6.4705604034501523e+00 -2.1767917269160701e+00 0 1 0
2473 825 1 -8.1999999999999995e-01 -1.1310815449701789e+01 -5.7423206163812974e+00 -5.7319379070299075e+00 2 1 1
2485 829 1 -8.1999999999999995e-01 -1.4717541740406187e+01 -6.5985314595793074e+00 -1.0209164785369023e+00 -1 0 -1
1756 586 1 -8.1999999999999995e-01 -9.7681008831117602e+00 -9.2145912856782601e+00 -4.9273213761208901e-01 -1 1 2
1758 586 2 4.0999999999999998e-01 -8.8183913042278057e+00 -8.9272794914266953e+00 -3.6803613342656760e-01 -1 1 2
2129 710 2 4.0999999999999998e-01 -1.2520349812620614e+01 -1.1999122825459812e+01 -4.7511806115785244e+00 1 0 -1
1757 586 2 4.0999999999999998e-01 -9.8113173442016510e+00 -1.0212699669751080e+01 -5.3697546867296175e-01 -1 1 2
2128 710 1 -8.1999999999999995e-01 -1.2448534141651814e+01 -1.2064299354118413e+01 -3.7558715965592029e+00 1 0 -1
2130 710 2 4.0999999999999998e-01 -1.2825065600390756e+01 -1.1236656240735817e+01 -3.3396067408840775e+00 1 0 -1
1038 346 2 4.0999999999999998e-01 -4.3399160353031263e-02 -1.4831310912848199e+01 -2.6198602699753977e+00 0 1 2
1453 485 1 -8.1999999999999995e-01 -9.2964951218771041e+00 -1.4116917007078067e+01 -4.6333058231754265e+00 0 0 -1
2147 716 2 4.0999999999999998e-01 -1.3407641877961277e+01 -9.0290283292945119e+00 -3.9552036449546240e+00 3 2 0
2480 827 2 4.0999999999999998e-01 -2.5532186036577222e+00 -5.5718726569206414e+00 -4.0781034498800146e+00 1 -1 -1
1344 448 2 4.0999999999999998e-01 -1.1357289868095821e+01 -7.3923310876673716e+00 -1.7515887793029528e+00 -2 0 0
1036 346 1 -8.1999999999999995e-01 -9.0305199159314320e-01 -1.4327503701742277e+01 -2.5348849754830081e+00 0 1 2
2148 716 2 4.0999999999999998e-01 -1.4636356239719479e+01 -1.0069206718494076e+01 -3.6812734776507661e+00 3 2 0
2146 716 1 -8.1999999999999995e-01 -1.3858238526955763e+01 -9.5973072734025298e+00 -3.2666782575157516e+00 3 2 0
585 195 2 4.0999999999999998e-01 -1.0655747543665610e+01 -1.2637153732905130e+01 -9.5096395471806794e-01 -1 0 0
1688 563 2 4.0999999999999998e-01 -8.9274836023329520e+00 -5.8041889049698838e+00 -6.7079538519999726e+00 1 -1 2
1342 448 1 -8.1999999999999995e-01 -1.1785011089568396e+01 -6.4883980515845359e+00 -1.7493262353949692e+00 -2 0 0
811 271 1 -8.1999999999999995e-01 -8.6456142126184581e+00 -5.9759752369531522e+00 -5.0212567433620450e+00 -2 1 1
1343 448 2 4.0999999999999998e-01 -1.2711947406560901e+01 -6.5591729568086787e+00 -1.3807811456937689e+00 -2 0 0
1320 440 2 4.0999999999999998e-01 -1.0359219091770823e+01 -6.1365724947841205e+00 -5.3155255011094305e-01 0 -3 2
1133 378 2 4.0999999999999998e-01 -9.6107241016080138e+00 -1.3163400344753637e+01 -6.1199171750620174e+00 -1 2 1
1445 482 2 4.0999999999999998e-01 -1.2223793506828470e+01 -7.0740056347211153e+00 -5.5585574413918017e+00 -2 -1 1
396 132 2 4.0999999999999998e-01 -8.4330624580047520e+00 -1.2729164293221608e+01 -4.2904596859416699e-01 -2 2 0
2522 841 2 4.0999999999999998e-01 -1.4655218257770912e+01 -1.2585626379614254e+01 -6.0560591046030670e+00 -2 2 1
1154 385 2 4.0999999999999998e-01 -1.1689055120281715e+01 -1.3394513858567416e+01 -2.7894788356917637e+00 -1 0 0
813 271 2 4.0999999999999998e-01 -8.5514551518082591e+00 -6.7791713661041566e+00 -4.4329919005812144e+00 -2 1 1
2112 704 2 4.0999999999999998e-01 -1.2561899977645307e+01 -1.3035414172370100e+01 -7.2957028926873262e+00 -1 3 -2
1037 346 2 4.0999999999999998e-01 -1.3725538512801414e+00 -1.4318085223748696e+01 -3.4177920063429461e+00 0 1 2
394 132 1 -8.1999999999999995e-01 -7.5219430150712494e+00 -1.3130089002798028e+01 -5.2478649138394218e-01 -2 2 0
270 90 2 4.0999999999999998e-01 -1.2580718199258556e+01 -5.3698770282291619e+00 -3.2876550691274442e+00 0 0 0
900 300 2 4.0999999999999998e-01 -1.4781312194688036e+01 -1.3320164864329810e+01 -1.8317036521085122e+00 -1 0 1
1590 530 2 4.0999999999999998e-01 -1.3563342646821749e+01 -8.7519613541362524e+00 -1.6325143096728922e-01 0 -2 0
1446 482 2 4.0999999999999998e-01 -1.2385579648908308e+01 -8.6009332165578574e+00 -6.1144937159979484e+00 -2 -1 1
2419 807 1 -8.1999999999999995e-01 -6.3740970610935292e+00 -9.6475409373864363e+00 -5.2427465826138153e-01 1 -1 0
1454 485 2 4.0999999999999998e-01 -9.6766121453151133e+00 -1.3517209768311265e+01 -3.9290986194982231e+00 0 0 -1
5 2 2 4.0999999999999998e-01 -3.8053906292870820e-01 -7.0027398435206702e+00 -4.7723027786716443e-01 -1 1 -2
1588 530 1 -8.1999999999999995e-01 -1.3807991767008716e+01 -9.6394576723969365e+00 -5.5381844806548486e-01 0 -2 0
1153 385 1 -8.1999999999999995e-01 -1.1117349445904134e+01 -1.4042312091587561e+01 -2.2859358280998610e+00 -1 0 0
898 300 1 -8.1999999999999995e-01 -1.4500221127038749e+01 -1.3790119873800913e+01 -2.6684686160522837e+00 -1 0 1
1444 482 1 -8.1999999999999995e-01 -1.2808436503861685e+01 -7.8853243402443702e+00 -5.5584887972063708e+00 -2 -1 1
1589 530 2 4.0999999999999998e-01 -1.3618893577969752e+01 -9.6350243972999543e+00 -1.5357898038547724e+00 0 -2 0
1132 378 1 -8.1999999999999995e-01 -9.5601224857052749e+00 -1.2628300116732438e+01 -6.9632158770687953e+00 -1 2 1
16 6 1 -8.1999999999999995e-01 -9.2273177668927389e+00 -8.6788958301399841e+00 -5.9427029045331494e+00 -3 1 2
1508 503 2 4.0999999999999998e-01 -8.7034600278303706e+00 -9.3754531907392149e+00 -4.5751070232356756e+00 -1 1 1
1507 503 1 -8.1999999999999995e-01 -8.4507590381338122e+00 -9.6992032293064554e+00 -3.6633100987627483e+00 -1 1 1
18 6 2 4.0999999999999998e-01 -8.5276374459379127e+00 -8.4793938875702715e+00 -6.6287728224223041e+00 -3 1 2
2474 825 2 4.0999999999999998e-01 -1.0367721166557647e+01 -5.7770934894956305e+00 -5.4011668272944959e+00 2 1 1
579 193 2 4.0999999999999998e-01 -1.4489421501255700e+01 -7.8900635119117952e+00 -5.4463320611327326e+00 -2 0 0
812 271 2 4.0999999999999998e-01 -7.9445139497439117e+00 -5.3039983391626588e+00 -4.7826127153681348e+00 -2 1 1
2521 841 1 -8.1999999999999995e-01 -1.3811994534451745e+01 -1.2062345565650155e+01 -6.1793330237171382e+00 -2 2 1
899 300 2 4.0999999999999998e-01 -1.3779260873172150e+01 -1.3264339164129570e+01 -3.1199289476373764e+00 -1 0 1
2164 722 1 -8.1999999999999995e-01 -1.1096261579287514e+00 -1.1764881505323254e+01 -1.2509840301760615e+00 -2 0 0
96 32 2 4.0999999999999998e-01 -4.1705454099445713e+00 -1.4317836648034433e+01 -6.5330479609126062e+00 -2 1 0
1279 427 1 -8.1999999999999995e-01 -3.0043384745555812e-01 -1.1926619513654144e+01 -4.5449279303637038e+00 1 0 2
1512 504 2 4.0999999999999998e-01 -3.8183933198892639e-01 -1.0098454379923245e+01 -5.7740216733218812e+00 -1 0 -1
2501 834 2 4.0999999999999998e-01 -2.2585974779324509e+00 -8.8213859929978256e+00 -1.4515266832145031e+00 -2 0 2
47 16 2 4.0999999999999998e-01 -6.3997069360352388e+00 -1.0474724346646987e+01 -6.8101689618185812e+00 -2 -1 1
46 16 1 -8.1999999999999995e-01 -6.0380592094411885e+00 -9.7364276606331970e+00 -7.3795321372781366e+00 -2 -1 1
1796 599 2 4.0999999999999998e-01 -7.4943704964631355e+00 -1.2383750094544739e+01 -2.2989356913934138e+00 -1 0 0
576 192 2 4.0999999999999998e-01 -4.3522429339505209e+00 -1.3797654025207487e+01 -1.6353616810317035e+00 -3 -1 -1
242 81 2 4.0999999999999998e-01 -5.7433527261111781e+00 -1.3305479931044784e+01 -3.1346221738439084e+00 -2 0 -2
48 16 2 4.0999999999999998e-01 -5.0402250822344570e+00 -9.7236853444153866e+00 -7.3146462354252257e+00 -2 -1 1
1134 378 2 4.0999999999999998e-01 -8.6527351450902295e+00 -1.2215407796909064e+01 -7.0420424497876111e+00 -1 2 1
1883 628 2 4.0999999999999998e-01 -4.2088901788192654e+00 -6.5559874854078544e+00 -4.9022653644787919e+00 -1 0 -2
2143 715 1 -8.1999999999999995e-01 -2.6321208712319510e+00 -9.7784046083791623e+00 -3.2580985359637253e+00 -1 0 1
17 6 2 4.0999999999999998e-01 -9.9462770331152548e+00 -9.2398290441909694e+00 -6.3531866445130891e+00 -3 1 2
1510 504 1 -8.1999999999999995e-01 -7.1171511825074596e-01 -9.1559347827123325e+00 -5.7203161298034715e+00 -1 0 -1
2165 722 2 4.0999999999999998e-01 -1.6036380702838482e+00 -1.1121871503553516e+01 -1.8362496784091800e+00 -2 0 0
1882 628 1 -8.1999999999999995e-01 -5.1804679118162902e+00 -6.7926058009370625e+00 -4.9119598729744869e+00 -1 0 -2
2166 722 2 4.0999999999999998e-01 -1.0788422543658829e+00 -1.2661580362778059e+01 -1.6926049395869871e+00 -2 0 0
1281 427 2 4.0999999999999998e-01 -9.0562841663109772e-01 -1.2517851061989557e+01 -5.0780604453808298e+00 1 0 2
2502 834 2 4.0999999999999998e-01 -9.5431479191097779e-01 -8.1206487695309999e+00 -2.1404111823572496e+00 -2 0 2
183 61 2 4.0999999999999998e-01 -6.2717649301890699e+00 -7.3018123277901585e+00 -3.4891023292642398e+00 0 1 0
1155 385 2 4.0999999999999998e-01 -1.1664626714689620e+01 -1.4837973256191074e+01 -2.0262121317425557e+00 -1 0 0
1797 599 2 4.0999999999999998e-01 -7.9626829621763866e+00 -1.1328642339954794e+01 -3.4540022871453946e+00 -1 0 0
1511 504 2 4.0999999999999998e-01 -1.4491021140916445e+00 -9.0226249376227976e+00 -6.3825354486386665e+00 -1 0 -1
776 259 2 4.0999999999999998e-01 -2.3508763512338895e+00 -6.1304287561859354e+00 -1.7210677546488764e+00 -2 2 1
2145 715 2 4.0999999999999998e-01 -1.9670772208644163e+00 -9.5150802198017743e+00 -3.9569709992669324e+00 -1 0 1
1708 570 1 -8.1999999999999995e-01 -6.5377543267194547e+00 -1.2029832867172567e+01 -5.9462883272122777e+00 -1 1 -1
241 81 1 -8.1999999999999995e-01 -4.7545925744821442e+00 -1.3429458810813292e+01 -3.2184558478930789e+00 -2 0 -2
2144 715 2 4.0999999999999998e-01 -3.4369307754383396e+00 -1.0177577260102417e+01 -3.6974021324361530e+00 -1 0 1
1795 599 1 -8.1999999999999995e-01 -7.5987832226980165e+00 -1.2244400760635028e+01 -3.2836819638039483e+00 -1 0 0
1792 598 1 -8.1999999999999995e-01 -1.6962270022845249e+00 -1.4796528913668309e+01 -5.1132714619005206e+00 0 2 0
493 165 1 -8.1999999999999995e-01 -5.0553041181051910e+00 -1.0167174158476609e+01 -4.3037930014729735e+00 -4 -2 1
1710 570 2 4.0999999999999998e-01 -6.9417668976441256e+00 -1.2330422778881990e+01 -5.0823062295756163e+00 -1 1 -1
1884 628 2 4.0999999999999998e-01 -5.5429477383987944e+00 -6.6750653082160198e+00 -5.8365344409356048e+00 -1 0 -2
2420 807 2 4.0999999999999998e-01 -6.3793794366826724e+00 -9.5871687932105409e+00 -1.5224594104144735e+00 1 -1 0
574 192 1 -8.1999999999999995e-01 -4.1793470923601479e+00 -1.3804761124949714e+01 -6.5042410648283600e-01 -3 -1 -1
2500 834 1 -8.1999999999999995e-01 -1.5110519056562683e+00 -8.1721133152605958e+00 -1.3112907241327374e+00 -2 0 2
243 81 2 4.0999999999999998e-01 -4.4805657305471378e+00 -1.3289244665061849e+01 -4.1699256313443716e+00 -2 0 -2
494 165 2 4.0999999999999998e-01 -5.3201684813943029e+00 -9.2031091286501212e+00 -4.3254944759056837e+00 -4 -2 1
1509 503 2 4.0999999999999998e-01 -8.0339786559782382e+00 -8.9507009684069132e+00 -3.1474768091972489e+00 -1 1 1
1709 570 2 4.0999999999999998e-01 -5.8561306450796486e+00 -1.2697526892692595e+01 -6.2456532737194905e+00 -1 1 -1
495 165 2 4.0999999999999998e-01 -5.6480402775478318e+00 -1.0689573359314355e+01 -4.9168251464372901e+00 -4 -2 1
575 192 2 4.0999999999999998e-01 -4.5419252115121047e+00 -1.2966893747065196e+01 -2.4230539676285545e-01 -3 -1 -1
181 61 1 -8.1999999999999995e-01 -6.9054544993823965e+00 -7.3029841351239817e+00 -2.7154863540182568e+00 0 1 0
94 32 1 -8.1999999999999995e-01 -4.2888367938915426e+00 -1.3348402847525378e+01 -6.3179879964756402e+00 -2 1 0
95 32 2 4.0999999999999998e-01 -3.7687964469961077e+00 -1.2796487419132921e+01 -6.9699027973693450e+00 -2 1 0
2523 841 2 4.0999999999999998e-01 -1.4006663751518282e+01 -1.1236247461428967e+01 -6.7082104816345840e+00 -2 2 1
775 259 1 -8.1999999999999995e-01 -2.5525091091819370e+00 -5.3229346034940814e+00 -2.2754529162499839e+00 -2 2 1
2479 827 1 -8.1999999999999995e-01 -2.5871232951269416e+00 -5.4265952800146540e+00 -5.0669363300235393e+00 1 -1 -1
1521 507 2 4.0999999999999998e-01 -8.2715620128057168e+00 -1.4890471857912457e+01 -5.8743215319503506e+00 0 2 1
529 177 1 -8.1999999999999995e-01 -1.1176254987288152e+01 -1.0430738992685129e+01 -6.9617855864883058e+00 -2 0 1
2397 799 2 4.0999999999999998e-01 -1.4779852756159006e+01 -1.1206165157709284e+01 -6.6025393516408926e-01 0 2 0
1800 600 2 4.0999999999999998e-01 -2.6674562552065328e+00 -1.4807666274114602e+01 -1.4944819728417436e-01 -2 0 1
530 177 2 4.0999999999999998e-01 -1.1003817970356378e+01 -1.1337548641053276e+01 -6.5770684923144405e+00 -2 0 1
1663 555 1 -8.1999999999999995e-01 -5.3916436890119090e+00 -5.0921510425867673e+00 -1.9039855057880128e+00 -1 0 0
1664 555 2 4.0999999999999998e-01 -4.4074825960251616e+00 -5.1003214725931976e+00 -2.0812019306498168e+00 -1 0 0
2421 807 2 4.0999999999999998e-01 -6.7117949265489116e+00 -8.7897701015516549e+00 -1.3667332990629255e-01 1 -1 0
583 195 1 -8.1999999999999995e-01 -1.0123876667273196e+01 -1.2215069335851325e+01 -2.1679529257654195e-01 -1 0 0
2475 825 2 4.0999999999999998e-01 -1.1792904311463458e+01 -4.9882300814883038e+00 -5.2858626099588548e+00 2 1 1
338 113 2 4.0999999999999998e-01 -1.0125839224430814e+01 -7.9470771754248419e+00 6.1238288057616828e+00 -1 2 3
1549 517 1 -8.1999999999999995e-01 -1.3721856357323084e+01 -1.2458344139643170e+01 2.3892062418662334e+00 -1 -1 2
1551 517 2 4.0999999999999998e-01 -1.3837240385091366e+01 -1.1476956774992749e+01 2.5428645648229100e+00 -1 -1 2
1441 481 1 -8.1999999999999995e-01 -1.3399383882047147e+01 -1.3475945174576850e+01 5.0655615433957166e+00 -1 0 2
339 113 2 4.0999999999999998e-01 -1.0691931076345744e+01 -6.5034318796911830e+00 5.6117974422088039e+00 -1 2 3
1111 371 1 -8.1999999999999995e-01 -3.0118011171880656e+00 -6.1517446971895318e+00 6.3219101585960793e+00 -1 -2 -1
337 113 1 -8.1999999999999995e-01 -9.8673867039673802e+00 -7.0398060176838504e+00 5.7920052982260017e+00 -1 2 3
1890 630 2 4.0999999999999998e-01 -8.1536370120123127e+00 -5.9226572500914099e+00 3.9845364800204237e+00 -2 1 0
1443 481 2 4.0999999999999998e-01 -1.3670509555765278e+01 -1.3623069556525540e+01 6.0168190362746792e+00 -1 0 2
1743 581 2 4.0999999999999998e-01 -8.1582056899564783e+00 -1.3926128611486559e+01 6.4667040026696903e+00 -1 -2 -1
534 178 2 4.0999999999999998e-01 -9.8743711185039373e-01 -1.3811714513377776e+01 2.6988127429896807e+00 -3 -2 -1
189 63 2 4.0999999999999998e-01 -1.1790390363379705e+01 -6.6884644176179027e+00 1.9258785138894225e+00 -1 0 1
786 262 2 4.0999999999999998e-01 -8.6367041498734771e+00 -1.0052591163940855e+01 2.5725482122337553e+00 -1 1 1
1579 527 1 -8.1999999999999995e-01 -1.0636127627356871e+01 -1.1163542470093923e+01 3.5016695643690809e+00 -2 1 0
785 262 2 4.0999999999999998e-01 -7.5030265833617067e+00 -8.9015242302273609e+00 2.8103882624043806e+00 -1 1 1
1580 527 2 4.0999999999999998e-01 -1.0749620414084754e+01 -1.2037877900758916e+01 3.0297559684464801e+00 -2 1 0
187 63 1 -8.1999999999999995e-01 -1.1681723125626032e+01 -5.8270247404721278e+00 2.4220222903979121e+00 -1 0 1
188 63 2 4.0999999999999998e-01 -1.1979604948607097e+01 -5.9478943390153205e+00 3.3689660450218533e+00 -1 0 1
784 262 1 -8.1999999999999995e-01 -7.9518893304207818e+00 -9.7005189369798224e+00 3.2106072080159507e+00 -1 1 1
474 158 2 4.0999999999999998e-01 -1.1252989365502732e+01 -8.7789240164596816e+00 5.7828730163464570e-01 -2 -2 0
1364 455 2 4.0999999999999998e-01 -1.4086107313288808e+01 -9.1250227810760656e+00 2.5799905028617580e+00 -1 0 1
230 77 2 4.0999999999999998e-01 -1.3050016377450465e+01 -5.9519709242073588e+00 5.6977759689981156e+00 0 -2 -1
2113 705 1 -8.1999999999999995e-01 -1.0954388284250561e+01 -1.3636155630328281e+01 2.2858539519966143e+00 -1 -2 2
1581 527 2 4.0999999999999998e-01 -1.1461079517045034e+01 -1.0959799373140644e+01 4.0289158410209112e+00 -2 1 0
1363 455 1 -8.1999999999999995e-01 -1.3768844112468555e+01 -9.8978945183638594e+00 3.1295893039262879e+00 -1 0 1
1365 455 2 4.0999999999999998e-01 -1.3627025376409149e+01 -9.5997160430473443e+00 4.0735292012638240e+00 -1 0 1
2557 853 1 -8.1999999999999995e-01 -1.2758532073574759e+01 -9.2371779627251165e+00 5.6121356356654388e+00 1 1 1
1673 558 2 4.0999999999999998e-01 -5.4260333260835836e+00 -1.0837167101822430e+01 4.1555711134844486e-01 -2 -1 0
229 77 1 -8.1999999999999995e-01 -1.2560320911674408e+01 -6.3521425016897552e+00 4.9231105262906318e+00 0 -2 -1
472 158 1 -8.1999999999999995e-01 -1.1930456530319375e+01 -8.3442139532246102e+00 1.1716766169051418e+00 -2 -2 0
1550 517 2 4.0999999999999998e-01 -1.3124156821137909e+01 -1.2838264368501793e+01 3.0952241816453991e+00 -1 -1 2
231 77 2 4.0999999999999998e-01 -1.2576846088156175e+01 -7.3492604640185677e+00 4.9974620686172884e+00 0 -2 -1
1319 440 2 4.0999999999999998e-01 -1.0332283130388870e+01 -6.1823072848593235e+00 1.1006026288167821e+00 0 -3 2
2558 853 2 4.0999999999999998e-01 -1.1926383181371040e+01 -9.5903238208641568e+00 6.0397589807229117e+00 1 1 1
1852 618 1 -8.1999999999999995e-01 -7.9291003344065460e+00 -1.0048688716551275e+01 5.9628794602040180e+00 -1 -2 1
1853 618 2 4.0999999999999998e-01 -7.8012373597474962e+00 -9.8715320038009384e+00 4.9870146661539287e+00 -1 -2 1
1854 618 2 4.0999999999999998e-01 -8.8234994262434085e+00 -1.0470909478352322e+01 6.1106136787027019e+00 -1 -2 1
2114 705 2 4.0999999999999998e-01 -1.0249756062735479e+01 -1.4329277099568888e+01 2.4379117638472927e+00 -1 -2 2
1442 481 2 4.0999999999999998e-01 -1.3436865558908844e+01 -1.4343869093522081e+01 4.5702346676071031e+00 -1 0 2
2115 705 2 4.0999999999999998e-01 -1.1857415368668681e+01 -1.4063457374001844e+01 2.3305840059805263e+00 -1 -2 2
473 158 2 4.0999999999999998e-01 -1.2435120253358578e+01 -9.0474824879128981e+00 1.6724494195305155e+00 -2 -2 0
1926 642 2 4.0999999999999998e-01 -6.7603810655731156e+00 -1.4821716633770263e+01 1.5743112894053546e+00 -2 1 1
1514 505 2 4.0999999999999998e-01 -8.1700372306353266e+00 -7.1427544238035319e+00 7.1133498715621180e-01 -1 1 -3
1925 642 2 4.0999999999999998e-01 -7.8799784674021280e+00 -1.4690403661873049e+01 2.7558384237589948e+00 -2 1 1
153 51 2 4.0999999999999998e-01 -7.5839789204678842e+00 -1.1480470408926058e+01 6.6725795872076183e+00 -4 0 -1
1135 379 1 -8.1999999999999995e-01 -1.1201025024593170e+01 -1.3867011146678736e+01 7.1083749966047272e+00 -2 -1 -2