LAMMPS data file via write_data, version 15 May 2015, timestep = 18500000

2593 atoms
6 atom types
1728 bonds
4 bond types
864 angles
3 angle types
0 dihedrals
3 dihedral types
0 impropers
1 improper types

-1.4895167135031208e+01 1.4895167135031208e+01 xlo xhi
-1.4895167135031208e+01 1.4895167135031208e+01 ylo yhi
-1.4895167135031208e+01 1.4895167135031208e+01 zlo zhi

Masses

1 15.9994
2 1.00794
3 12.0107
4 1.00794
5 12.0107
6 12.0107

Bond Coeffs # harmonic

1 1000 1
2 469 1.4
3 367 1.08
4 469 0.7

Angle Coeffs # harmonic

1 100 109.47
2 35 120
3 63 120

Dihedral Coeffs # opls

1 0 7.25 0 0
2 0 7.25 0 0
3 0 7.25 0 0

Improper Coeffs # cvff

1 2.5 -1 2

Atoms # full

1973 658 2 4.0999999999999998e-01 -1.0649504109819400e+01 -8.5062960800376732e+00 -1.3337628777240845e+01 2 -3 -1
1972 658 1 -8.1999999999999995e-01 -1.1350029619847398e+01 -8.2675919206677229e+00 -1.2665138761649539e+01 2 -3 -1
1974 658 2 4.0999999999999998e-01 -1.1448112347928504e+01 -7.2732591327037497e+00 -1.2624634717914141e+01 2 -3 -1
1678 560 1 -8.1999999999999995e-01 -1.2924319535027800e+01 -1.0448159980469704e+01 -1.1594067336902725e+01 2 0 -2
1537 513 1 -8.1999999999999995e-01 -9.6210323091945380e+00 -1.2768057743893671e+01 -1.1639230143534959e+01 -2 -6 -4
404 135 2 4.0999999999999998e-01 -9.2079832777206256e+00 -1.1901007441974567e+01 -8.0598407267425003e+00 -3 -4 -4
109 37 1 -8.1999999999999995e-01 -1.4500888027712840e+01 -1.2592200522312394e+01 -1.3147907921813953e+01 1 -4 -2
1539 513 2 4.0999999999999998e-01 -1.0295822404721067e+01 -1.3214099436587800e+01 -1.1051298548860247e+01 -2 -6 -4
83 28 2 4.0999999999999998e-01 -1.1125749958584185e+01 -1.3456799654932736e+01 -1.2797456482657100e+01 3 2 -3
1979 660 2 4.0999999999999998e-01 -1.2553534766860071e+01 -1.3662201385367684e+01 -9.2293584513391487e+00 -4 1 -1
13 5 1 -8.1999999999999995e-01 -1.1725907050457044e+01 -5.5766291103104919e+00 -1.2764176150755192e+01 3 4 -2
994 332 1 -8.1999999999999995e-01 -9.5004218212863378e+00 -1.3773179320122917e+01 -8.8573943652482487e+00 -3 -2 -2
40 14 1 -8.1999999999999995e-01 -8.2366768052059829e+00 -6.5712758625233700e+00 -1.1907910381733824e+01 -3 2 -2
995 332 2 4.0999999999999998e-01 -8.8551081409883849e+00 -1.4203193751595073e+01 -8.2260336530109370e+00 -3 -2 -2
82 28 1 -8.1999999999999995e-01 -1.1857339491002847e+01 -1.3913015149581627e+01 -1.3304016107668593e+01 3 2 -3
996 332 2 4.0999999999999998e-01 -1.0403546059748962e+01 -1.4187348107687946e+01 -8.7443045133886503e+00 -3 -2 -2
42 14 2 4.0999999999999998e-01 -8.9618780663151405e+00 -6.9219293239965225e+00 -1.1315387162686788e+01 -3 2 -2
684 228 2 4.0999999999999998e-01 -9.6622787861789590e+00 -9.2928390622982437e+00 -1.0725216311399684e+01 -3 0 -3
1538 513 2 4.0999999999999998e-01 -9.4175400176827644e+00 -1.1856799470193490e+01 -1.1281238986146709e+01 -2 -6 -4
683 228 2 4.0999999999999998e-01 -9.5495000838641104e+00 -1.0536288708563047e+01 -9.6727764414801154e+00 -3 0 -3
682 228 1 -8.1999999999999995e-01 -9.4268327314738904e+00 -1.0259612695573669e+01 -1.0625856489363661e+01 -3 0 -3
1978 660 1 -8.1999999999999995e-01 -1.2082061241608921e+01 -1.4531793138198260e+01 -9.0827931747879767e+00 -4 1 -1
1679 560 2 4.0999999999999998e-01 -1.2320345374032936e+01 -9.7272052878774424e+00 -1.1933770201240300e+01 2 0 -2
1767 589 2 4.0999999999999998e-01 -1.3156507322255221e+01 -1.1645159087735335e+01 -8.7343151593524304e+00 1 -1 3
598 200 1 -8.1999999999999995e-01 -8.4945520374728982e+00 -5.1230789362245588e+00 -1.4438686643026291e+01 -3 -2 -2
31 11 1 -8.1999999999999995e-01 -9.9083485925681423e+00 -7.4955568712855341e+00 -9.9026272598309593e+00 -2 -3 -4
1680 560 2 4.0999999999999998e-01 -1.3418461532797959e+01 -1.0857801713227479e+01 -1.2360863143798170e+01 2 0 -2
1211 404 2 4.0999999999999998e-01 -1.3828694779560063e+01 -9.3349233964920870e+00 -1.0138985637599987e+01 -4 1 -1
1765 589 1 -8.1999999999999995e-01 -1.3481726519536270e+01 -1.2063740941807502e+01 -9.5822421467993628e+00 1 -1 3
330 110 2 4.0999999999999998e-01 -1.1884361126008011e+01 -9.1863217924678011e+00 -8.3273367635568327e+00 2 -3 -2
33 11 2 4.0999999999999998e-01 -1.0670995811012473e+01 -7.7519742621089724e+00 -9.3088446413910173e+00 -2 -3 -4
329 110 2 4.0999999999999998e-01 -1.2956660227154343e+01 -8.0051033400006020e+00 -8.6757809556893477e+00 2 -3 -2
32 11 2 4.0999999999999998e-01 -9.2818348738510927e+00 -6.8986486497324329e+00 -9.4014889625394993e+00 -2 -3 -4
403 135 1 -8.1999999999999995e-01 -9.6742291938553695e+00 -1.1016401136220697e+01 -8.0665412137226831e+00 -3 -4 -4
1766 589 2 4.0999999999999998e-01 -1.3209786799099229e+01 -1.1496553446042849e+01 -1.0359613111741464e+01 1 -1 3
328 110 1 -8.1999999999999995e-01 -1.2107679989363630e+01 -8.2208376343639280e+00 -8.1934431590830101e+00 2 -3 -2
2118 706 2 4.0999999999999998e-01 -1.2396800645917310e+01 -5.6931734798967408e+00 -1.0088947211707264e+01 -6 0 4
2116 706 1 -8.1999999999999995e-01 -1.2646535116681063e+01 -4.9792075419533326e+00 -9.4348495098959866e+00 -6 0 4
84 28 2 4.0999999999999998e-01 -1.2550633975611843e+01 -1.3241497653985460e+01 -1.3565484049760258e+01 3 2 -3
160 54 1 -8.1999999999999995e-01 -8.0355224459215329e+00 -8.8306477706914439e+00 -7.6799067927335996e+00 -3 -6 -1
111 37 2 4.0999999999999998e-01 -1.4824776137887033e+01 -1.1710291145193025e+01 -1.3490385352276251e+01 1 -4 -2
2038 680 1 -8.1999999999999995e-01 -8.2826827324130718e+00 -6.0305374054242300e+00 -7.8720685961896040e+00 -5 1 -1
600 200 2 4.0999999999999998e-01 -9.0009855467559809e+00 -5.5044226691715732e+00 -1.3665342927686511e+01 -3 -2 -2
41 14 2 4.0999999999999998e-01 -7.9855666319709364e+00 -5.6481581487818122e+00 -1.1616781816594335e+01 -3 2 -2
1126 376 1 -8.1999999999999995e-01 -1.4528776657998014e+01 -1.0246426894037766e+01 -1.4445552014048031e+01 3 -4 -2
1770 590 2 4.0999999999999998e-01 -8.0743691876899319e+00 -1.3246339426210461e+01 -1.2522197925552298e+01 -3 0 -1
1210 404 1 -8.1999999999999995e-01 -1.4500006475525121e+01 -8.7459243585805684e+00 -9.6891198552211133e+00 -4 1 -1
1532 511 2 4.0999999999999998e-01 -7.5645222196812458e+00 -1.1888356397064248e+01 -1.4579891138503479e+01 -4 -2 0
1145 382 2 4.0999999999999998e-01 -7.4959646701984823e+00 -1.2505658676568363e+01 -9.6172038550434138e+00 -1 -6 1
2031 677 2 4.0999999999999998e-01 -8.0862869103933015e+00 -7.9963674656099144e+00 -1.4222079607591979e+01 -1 -3 3
2046 682 2 4.0999999999999998e-01 -7.5795298787889989e+00 -8.3225763109355988e+00 -9.8685981735277508e+00 -2 -2 -6
128 43 2 4.0999999999999998e-01 -1.1284225770828957e+01 -6.6475177807322083e+00 -7.5355559961716532e+00 -4 -10 -1
1128 376 2 4.0999999999999998e-01 -1.4681700667751022e+01 -9.2616675371401413e+00 -1.4528145924685855e+01 3 -4 -2
15 5 2 4.0999999999999998e-01 -1.0959683100638335e+01 -5.0653880415126356e+00 -1.2374956555376260e+01 3 4 -2
14 5 2 4.0999999999999998e-01 -1.2565663223120289e+01 -5.0420098937638986e+00 -1.2669569937441217e+01 3 4 -2
209 70 2 4.0999999999999998e-01 -1.4095763472215188e+01 -7.1438382268945881e+00 -1.4021093281204378e+01 -3 -3 -3
2030 677 2 4.0999999999999998e-01 -7.4537658668604374e+00 -9.4779640910602403e+00 -1.4489108294657665e+01 -1 -3 3
161 54 2 4.0999999999999998e-01 -8.8625416440282585e+00 -9.3889784683557380e+00 -7.6146034230929418e+00 -3 -6 -1
2328 776 2 4.0999999999999998e-01 -2.7810267364538017e+00 -1.3999091013106577e+01 -1.3756757053090727e+01 2 -2 3
1031 344 2 4.0999999999999998e-01 -3.4087844578453375e+00 -6.6521287980223569e+00 -9.0474863176436600e+00 4 5 -1
1358 453 2 4.0999999999999998e-01 -5.4386910643464059e+00 -5.2987800000150820e+00 -1.3142045765461152e+01 2 -3 -5
1838 613 2 4.0999999999999998e-01 -5.2557139672709621e+00 -1.1728797022655732e+01 -1.0681245911975111e+01 -2 1 -6
979 327 1 -8.1999999999999995e-01 -1.6326181385782128e+00 -9.6787468332925108e+00 -8.9826560469685610e+00 0 -7 -2
1359 453 2 4.0999999999999998e-01 -6.2272778951690917e+00 -6.7063431792562938e+00 -1.3393863940771983e+01 2 -3 -5
2039 680 2 4.0999999999999998e-01 -7.4023908680375721e+00 -5.6482081519403646e+00 -8.1529049454107394e+00 -5 1 -1
1796 599 2 4.0999999999999998e-01 -4.0805684299249556e-01 -1.1875404593224502e+01 -1.3201022025846726e+01 -5 -5 -2
1769 590 2 4.0999999999999998e-01 -6.5064965777678854e+00 -1.3685207420939207e+01 -1.2647442224555483e+01 -3 0 -1
1030 344 1 -8.1999999999999995e-01 -2.7699597167678753e+00 -6.2757305989184378e+00 -8.3765274323571788e+00 4 5 -1
585 195 2 4.0999999999999998e-01 -5.9295334063238450e+00 -9.8063070847930689e+00 -1.3226575518184891e+01 0 -2 -4
1296 432 2 4.0999999999999998e-01 -4.4331516736687906e+00 -1.1516399315585701e+01 -1.4495932555025036e+01 5 -4 1
782 261 2 4.0999999999999998e-01 -6.6806428925000994e+00 -1.3876766275513683e+01 -1.4841840062174452e+01 -3 -3 -6
2159 720 2 4.0999999999999998e-01 -3.6051111310712791e-01 -9.6063687405144549e+00 -1.3458170563860728e+01 -2 -3 -3
1146 382 2 4.0999999999999998e-01 -6.3496867169094351e+00 -1.1638235203948733e+01 -8.8425173840083069e+00 -1 -6 1
1276 426 1 -8.1999999999999995e-01 -5.4389609423362000e+00 -1.4712824957336506e+01 -1.1017298926383280e+01 -5 -8 -2
799 267 1 -8.1999999999999995e-01 -4.9270309845655760e+00 -6.4838569083700097e+00 -1.0119454577989774e+01 0 3 -5
1768 590 1 -8.1999999999999995e-01 -7.3358399320987777e+00 -1.3463739759307082e+01 -1.3160375121320076e+01 -3 0 -1
234 78 2 4.0999999999999998e-01 -4.1113661738344529e+00 -7.3905456041703026e+00 -1.3556039431027839e+01 -4 3 -8
1144 382 1 -8.1999999999999995e-01 -6.5643835155377879e+00 -1.2147001577467798e+01 -9.6761963090845526e+00 -1 -6 1
2125 709 1 -8.1999999999999995e-01 -2.7029124251870531e+00 -5.9303287082327341e+00 -1.1886549743369386e+01 0 -1 1
233 78 2 4.0999999999999998e-01 -2.5305644854200313e+00 -7.7987503509453493e+00 -1.3586872232945840e+01 -4 3 -8
2326 776 1 -8.1999999999999995e-01 -2.1315334665708860e+00 -1.3500257520903968e+01 -1.4330588157129498e+01 2 -2 3
584 195 2 4.0999999999999998e-01 -4.3802297801352594e+00 -9.4623106951484814e+00 -1.3611075838116813e+01 0 -2 -4
651 217 2 4.0999999999999998e-01 -5.2697701056440245e+00 -9.2225084681298881e+00 -9.9631574989299132e+00 -5 -4 2
980 327 2 4.0999999999999998e-01 -1.3473373701571631e+00 -8.8953598821598217e+00 -9.5348138476987643e+00 0 -7 -2
1278 426 2 4.0999999999999998e-01 -5.5268270114934044e+00 -1.3731258208770154e+01 -1.0847697187541430e+01 -5 -8 -2
801 267 2 4.0999999999999998e-01 -5.3975064968301467e+00 -5.6889156421813887e+00 -9.7364667719411990e+00 0 3 -5
232 78 1 -8.1999999999999995e-01 -3.4631233734127989e+00 -8.1338705155434319e+00 -1.3720987362206330e+01 -4 3 -8
1032 344 2 4.0999999999999998e-01 -2.8559631037118098e+00 -5.2796543801107134e+00 -8.3566764474885424e+00 4 5 -1
1837 613 1 -8.1999999999999995e-01 -4.6319247858180361e+00 -1.1999592644550944e+01 -1.1414400242950418e+01 -2 1 -6
2029 677 1 -8.1999999999999995e-01 -7.2512526790288527e+00 -8.5455781707538492e+00 -1.4189770048203727e+01 -1 -3 3
650 217 2 4.0999999999999998e-01 -3.8064568138989312e+00 -8.5002147330777085e+00 -1.0022501403904975e+01 -5 -4 2
2044 682 1 -8.1999999999999995e-01 -6.9109624735333881e+00 -8.3597569146653630e+00 -1.0611291721675736e+01 -2 -2 -6
1904 635 2 4.0999999999999998e-01 -1.4446363100970494e+00 -1.4291045665085914e+01 -7.8591540770702668e+00 -1 3 1
2413 805 1 -8.1999999999999995e-01 -6.1698873805721277e-01 -7.5740482067331731e+00 -1.0612905744845182e+01 -2 -6 4
2126 709 2 4.0999999999999998e-01 -3.5377201208651581e+00 -6.0209514950579717e+00 -1.1343556097227342e+01 0 -1 1
2415 805 2 4.0999999999999998e-01 -1.2778365234286149e+00 -6.9379123037236301e+00 -1.1011113965258955e+01 -2 -6 4
2127 709 2 4.0999999999999998e-01 -2.5522344752689090e+00 -4.9668708183582115e+00 -1.2107917052476035e+01 0 -1 1
1905 635 2 4.0999999999999998e-01 -1.9834548487798873e+00 -1.4418662407060733e+01 -9.3953520652279252e+00 -1 3 1
1622 541 2 4.0999999999999998e-01 -3.1270869499024823e+00 -1.2853403496368365e+01 -1.1155559783294494e+01 -6 -4 -3
583 195 1 -8.1999999999999995e-01 -5.0475684248028845e+00 -1.0197119612002867e+01 -1.3489941825560466e+01 0 -2 -4
1839 613 2 4.0999999999999998e-01 -4.6395018129280459e+00 -1.1303709502298682e+01 -1.2132486393819491e+01 -2 1 -6
981 327 2 4.0999999999999998e-01 -2.5659910430825654e+00 -9.9386824275544416e+00 -9.2300564881543750e+00 0 -7 -2
800 267 2 4.0999999999999998e-01 -5.6017206501163201e+00 -7.1351396686830304e+00 -1.0466705365244280e+01 0 3 -5
649 217 1 -8.1999999999999995e-01 -4.3528107799092854e+00 -9.2016020526430431e+00 -9.5647770229915583e+00 -5 -4 2
2045 682 2 4.0999999999999998e-01 -7.3148201403204665e+00 -7.9781896786946547e+00 -1.1442714549292550e+01 -2 -2 -6
1621 541 1 -8.1999999999999995e-01 -2.2748549660283253e+00 -1.3354232427754489e+01 -1.1004465400806025e+01 -6 -4 -3
2233 745 1 -8.1999999999999995e-01 -8.9033625779684300e-01 -1.0935863927308738e+01 -1.4529436752599921e+01 2 -4 2
1357 453 1 -8.1999999999999995e-01 -5.3342153801249115e+00 -6.2567197048797549e+00 -1.3409243819862862e+01 2 -3 -5
1952 651 2 4.0999999999999998e-01 -3.1626816797578705e-01 -1.1206263605325759e+01 -9.0602152265648765e+00 -4 7 5
1623 541 2 4.0999999999999998e-01 -1.5392025545965105e+00 -1.2926304399367064e+01 -1.1529490738761222e+01 -6 -4 -3
2414 805 2 4.0999999999999998e-01 -1.6235693015913988e-01 -8.0831650206117089e+00 -1.1343705621971914e+01 -2 -6 4
2234 745 2 4.0999999999999998e-01 -1.3532070172246122e+00 -1.1799568502788372e+01 -1.4728744395651560e+01 2 -4 2
1209 403 2 4.0999999999999998e-01 -5.0172169987555186e+00 -1.0018872177663077e+01 -8.1621188563950717e+00 -4 -2 2
162 54 2 4.0999999999999998e-01 -7.2325325996682004e+00 -9.4260680018704690e+00 -7.7052157167375253e+00 -3 -6 -1
1207 403 1 -8.1999999999999995e-01 -5.6439395083403276e+00 -1.0658094766976653e+01 -7.7165048397695601e+00 -4 -2 2
2327 776 2 4.0999999999999998e-01 -1.4258686276773140e+00 -1.4128256600910149e+01 -1.4658632048280102e+01 2 -2 3
1795 599 1 -8.1999999999999995e-01 -3.3623603858140783e-02 -1.2405271324853661e+01 -1.2440101880289888e+01 -5 -5 -2
1411 471 1 -8.1999999999999995e-01 -9.5418848918582100e+00 -1.0620938939576448e+01 -2.1597836250402054e+00 -5 -2 -1
2267 756 2 4.0999999999999998e-01 -1.3557731375077621e+01 -1.1707926292544148e+01 -9.5104224623636391e-01 1 -1 -2
2538 846 2 4.0999999999999998e-01 -9.2449768022704024e+00 -1.0117527304537617e+01 -3.9240767028020453e+00 3 -3 -5
297 99 2 4.0999999999999998e-01 -1.2427295429573062e+01 -1.1430145462781288e+01 -6.1636375108913839e+00 2 -4 1
295 99 1 -8.1999999999999995e-01 -1.2706132532279902e+01 -1.1005124776838434e+01 -7.0247796422014757e+00 2 -4 1
2042 681 2 4.0999999999999998e-01 -1.4460608368404296e+01 -8.4394939542250214e+00 -5.8032217513069302e+00 4 2 3
1412 471 2 4.0999999999999998e-01 -8.9364699332997297e+00 -1.1415624310614707e+01 -2.1161217235883765e+00 -5 -2 -1
387 129 2 4.0999999999999998e-01 -1.2172889015689632e+01 -1.3253021505598531e+01 -4.4423064021992520e+00 -4 9 -2
1413 471 2 4.0999999999999998e-01 -1.0492027988090765e+01 -1.0920665125659577e+01 -2.0740469551531078e+00 -5 -2 -1
385 129 1 -8.1999999999999995e-01 -1.2385258357586483e+01 -1.2303168219114536e+01 -4.2128799665215269e+00 -4 9 -2
2011 671 1 -8.1999999999999995e-01 -1.4066857499660927e+01 -9.3626249362273590e+00 -2.6245136094996386e+00 -3 -1 0
2013 671 2 4.0999999999999998e-01 -1.4037660571226979e+01 -9.0992666463612295e+00 -3.5887482346598336e+00 -3 -1 0
386 129 2 4.0999999999999998e-01 -1.2754569186871748e+01 -1.2259048454610195e+01 -3.2846443075921030e+00 -4 9 -2
165 55 2 4.0999999999999998e-01 -1.3291595743660364e+01 -6.4744122286008654e+00 -8.6695497507137453e-01 1 -4 3
163 55 1 -8.1999999999999995e-01 -1.2599004455396461e+01 -5.7617765642136920e+00 -7.5548198081355622e-01 1 -4 3
1817 606 2 4.0999999999999998e-01 -1.1854124521126348e+01 -5.9137491988601134e+00 -2.6364831352547142e+00 -1 1 2
2536 846 1 -8.1999999999999995e-01 -9.1117094919713502e+00 -9.7815364358312351e+00 -4.8564438256502562e+00 3 -3 -5
1816 606 1 -8.1999999999999995e-01 -1.1600941500429808e+01 -5.5153695485999634e+00 -3.5180445172623109e+00 -1 1 2
2012 671 2 4.0999999999999998e-01 -1.3676616885274871e+01 -1.0276989502467167e+01 -2.5167724692024063e+00 -3 -1 0
1141 381 1 -8.1999999999999995e-01 -1.4672865121400559e+01 -7.1529143374047344e+00 -1.2069289850828984e+00 5 1 -3
2266 756 1 -8.1999999999999995e-01 -1.3341053991421136e+01 -1.2042069359399832e+01 -1.8682978310342513e+00 1 -1 -2
1728 576 2 4.0999999999999998e-01 -1.1081222091504465e+01 -7.4689812001487992e+00 -5.8300237227513243e+00 -1 -3 -5
2268 756 2 4.0999999999999998e-01 -1.3589340588553295e+01 -1.3008196869234093e+01 -1.9383684488192454e+00 1 -1 -2
2537 846 2 4.0999999999999998e-01 -9.8881642988700946e+00 -9.2084122312730621e+00 -5.1183695393071424e+00 3 -3 -5
1727 576 2 4.0999999999999998e-01 -1.2166295227240433e+01 -8.1448015249228565e+00 -4.8139533868571238e+00 -1 -3 -5
1726 576 1 -8.1999999999999995e-01 -1.1205696173691329e+01 -8.1315902898309425e+00 -5.0915023112928193e+00 -1 -3 -5
1311 437 2 4.0999999999999998e-01 -1.0743715349236002e+01 -1.4434543435677801e+01 -6.9051365109043061e-01 -6 -5 -6
2346 782 2 4.0999999999999998e-01 -1.4360103058414605e+01 -1.4435136445407034e+01 -6.0585739873100533e+00 1 -2 -3
1818 606 2 4.0999999999999998e-01 -1.1276005553351032e+01 -6.2372354570081008e+00 -4.1290148245851039e+00 -1 1 2
296 99 2 4.0999999999999998e-01 -1.3663368753680267e+01 -1.0722680649816573e+01 -6.9624691758436992e+00 2 -4 1
374 125 2 4.0999999999999998e-01 -9.4121478667729939e+00 -1.0288220510098562e+01 -4.8653848208303963e-01 -4 -2 -3
447 149 2 4.0999999999999998e-01 -8.3474833340447532e+00 -7.0674202141910065e+00 -4.6339624112640028e+00 -1 -2 -2
1876 626 1 -8.1999999999999995e-01 -1.2300390377342564e+01 -1.4884299786121273e+01 -4.7909845527399835e+00 0 1 -4
2041 681 1 -8.1999999999999995e-01 -1.4030133479046023e+01 -7.8831605855168920e+00 -5.0924875908880178e+00 4 2 3
445 149 1 -8.1999999999999995e-01 -8.1983213483692197e+00 -6.0881010184730826e+00 -4.4974227253015844e+00 -1 -2 -2
2040 680 2 4.0999999999999998e-01 -8.1312271466764372e+00 -6.8809441302123293e+00 -7.3682550540253420e+00 -5 1 -1
260 87 2 4.0999999999999998e-01 -7.6131415669165232e+00 -1.4673411739340462e+01 -6.4404714807383421e+00 1 -3 -1
1571 524 2 4.0999999999999998e-01 -7.4998796724591772e+00 -1.0323856999482405e+01 -5.0815479012515219e+00 6 4 1
474 158 2 4.0999999999999998e-01 -8.3765806528491247e+00 -1.4632771582607628e+01 -2.7588727020138375e+00 -1 -9 -4
127 43 1 -8.1999999999999995e-01 -1.0731144712614185e+01 -6.0300771251114202e+00 -6.9762467299906996e+00 -4 -10 -1
2043 681 2 4.0999999999999998e-01 -1.4475621600475746e+01 -6.9887305909338515e+00 -5.0538379846103147e+00 4 2 3
1142 381 2 4.0999999999999998e-01 -1.4536055178439849e+01 -8.0088263122808350e+00 -1.7055834122576439e+00 5 1 -3
129 43 2 4.0999999999999998e-01 -9.8568374642111944e+00 -5.8612590827800677e+00 -7.4312695794576431e+00 -4 -10 -1
658 220 1 -8.1999999999999995e-01 -1.3918279751478833e+01 -1.4860688764176057e+01 -1.6016761155971402e+00 -2 -6 -1
164 55 2 4.0999999999999998e-01 -1.1984154021753870e+01 -6.0087846150069542e+00 -6.5464439549032249e-03 1 -4 3
405 135 2 4.0999999999999998e-01 -1.0408115965783086e+01 -1.1021286006887003e+01 -7.3873175332903891e+00 -3 -4 -4
1424 475 2 4.0999999999999998e-01 -5.6679258671301280e+00 -1.4606547009841659e+01 -5.6716454880896627e+00 -8 -2 -1
2504 835 2 4.0999999999999998e-01 -3.3534951359253995e-01 -1.1931567106133267e+01 -1.5594106542796133e+00 -3 4 -1
1475 492 2 4.0999999999999998e-01 -1.4361156678413529e+00 -1.1530857348023474e+01 -6.4340337825385969e+00 -1 -2 1
797 266 2 4.0999999999999998e-01 -2.5523933820526601e+00 -1.3908310774923969e+01 -4.0166282072508483e+00 -3 0 0
1705 569 1 -8.1999999999999995e-01 -7.2881606071828040e+00 -1.3129540829906320e+01 -2.4633488242344459e+00 -3 -2 -6
1707 569 2 4.0999999999999998e-01 -6.9684511116253667e+00 -1.3194336115276110e+01 -1.5180732663649774e+00 -3 -2 -6
796 266 1 -8.1999999999999995e-01 -2.6984247996989925e+00 -1.3728974890442286e+01 -4.9894960980089369e+00 -3 0 0
543 181 2 4.0999999999999998e-01 -1.3854387631782359e+00 -1.0250186811553746e+01 -4.7859612250093928e+00 -4 -1 -4
1574 525 2 4.0999999999999998e-01 -1.1056056484099184e+00 -7.9591780377907826e+00 -1.1793104235510672e+00 -5 1 3
2017 673 1 -8.1999999999999995e-01 -6.3952763921593103e-01 -6.0491742934854997e+00 -6.3075863268318813e+00 0 0 -1
1575 525 2 4.0999999999999998e-01 -1.1699974893260219e+00 -8.5742375320160580e+00 -2.6906248430099460e+00 -5 1 3
542 181 2 4.0999999999999998e-01 -1.3269350974676009e+00 -1.0510559707156274e+01 -3.1749680543012904e+00 -4 -1 -4
883 295 1 -8.1999999999999995e-01 -3.2969586967136220e+00 -1.3472824275175833e+01 -9.3334527196611106e-01 -5 -4 -2
1570 524 1 -8.1999999999999995e-01 -6.5189123339040336e+00 -1.0508172922789688e+01 -5.0208090373424454e+00 6 4 1
149 50 2 4.0999999999999998e-01 -5.1714626928548579e+00 -5.2628646162525197e+00 -1.7997049300330126e+00 -6 -4 -6
1476 492 2 4.0999999999999998e-01 -1.4108302465789979e+00 -9.9669930207030610e+00 -6.9032935735533387e+00 -1 -2 1
2285 762 2 4.0999999999999998e-01 -1.5120398709698168e+00 -1.3388638018686443e+01 -6.1125708341195253e+00 0 -4 -4
2008 670 1 -8.1999999999999995e-01 -4.9611759251335279e+00 -8.6022099151575659e+00 -2.9493470574855962e+00 3 1 -3
798 266 2 4.0999999999999998e-01 -3.5265464881944126e+00 -1.4199251659117383e+01 -5.2944759561673802e+00 -3 0 0
95 32 2 4.0999999999999998e-01 -4.6191016662094970e+00 -6.5373455753201348e+00 -5.2921543818484977e+00 -1 -1 4
2284 762 1 -8.1999999999999995e-01 -6.7885695248578237e-01 -1.3265022513830081e+01 -6.6515364199986635e+00 0 -4 -4
96 32 2 4.0999999999999998e-01 -5.6812097287750145e+00 -6.4213680436986813e+00 -6.5270598149149048e+00 -1 -1 4
1474 492 1 -8.1999999999999995e-01 -1.8227161482953154e+00 -1.0623153115020646e+01 -6.2710259035133298e+00 -1 -2 1
541 181 1 -8.1999999999999995e-01 -1.3391210149689972e+00 -9.8105741215299425e+00 -3.8889919679145315e+00 -4 -1 -4
631 211 1 -8.1999999999999995e-01 -1.4311802807342175e+00 -5.6020836827737845e+00 -8.3957387237132153e-01 -3 1 -3
750 250 2 4.0999999999999998e-01 -2.5531551888128838e+00 -6.2408572866326022e+00 -4.0350264875275315e+00 4 -3 0
2094 698 2 4.0999999999999998e-01 -7.0028353130585934e+00 -6.3450396317649549e+00 -2.6628994881728190e+00 1 0 4
313 105 1 -8.1999999999999995e-01 -4.6257676596751018e+00 -1.2781981573491507e+01 -3.3232745171593390e+00 -5 1 -3
1070 357 2 4.0999999999999998e-01 -7.0515452113821082e+00 -1.3477620699158955e+01 -4.5052772513435073e+00 0 -5 -3
446 149 2 4.0999999999999998e-01 -7.3608295895109457e+00 -5.8097653359558272e+00 -4.9676304225389227e+00 -1 -2 -2
1208 403 2 4.0999999999999998e-01 -5.4132316022403923e+00 -1.0729221909168883e+01 -6.7461063482041244e+00 -4 -2 2
2093 698 2 4.0999999999999998e-01 -5.9532141060273673e+00 -7.5177455927002406e+00 -2.2275010570925975e+00 1 0 4
2503 835 1 -8.1999999999999995e-01 -9.9196327928182626e-01 -1.2229878476707839e+01 -2.2521062249566395e+00 -3 4 -1
2505 835 2 4.0999999999999998e-01 -1.5805488913148604e+00 -1.2941647283135506e+01 -1.8688170159345994e+00 -3 4 -1
2092 698 1 -8.1999999999999995e-01 -6.5237645513033620e+00 -6.7674973470325011e+00 -1.8934976704624518e+00 1 0 4
1572 524 2 4.0999999999999998e-01 -6.1545720119921885e+00 -1.0101338633982763e+01 -4.1831334137871998e+00 6 4 1
2010 670 2 4.0999999999999998e-01 -4.5983784586864012e+00 -9.2823710962561137e+00 -2.3123876848257865e+00 3 1 -3
1071 357 2 4.0999999999999998e-01 -6.3715256464642245e+00 -1.2406979005014755e+01 -5.5337788364039486e+00 0 -5 -3
1069 357 1 -8.1999999999999995e-01 -6.8281526595677864e+00 -1.3293752621246625e+01 -5.4624850515411545e+00 0 -5 -3
748 250 1 -8.1999999999999995e-01 -3.2025292794483455e+00 -6.9334399869359657e+00 -4.3490343923630146e+00 4 -3 0
115 39 1 -8.1999999999999995e-01 -3.9340889145575400e+00 -9.6147537602840920e+00 -3.8799868373675572e-01 -10 -2 0
2019 673 2 4.0999999999999998e-01 -5.2835551507779854e-01 -5.0554131937003497e+00 -6.3137599975344152e+00 0 0 -1
315 105 2 4.0999999999999998e-01 -3.9858651866104040e+00 -1.2694637740757178e+01 -4.0867235040187513e+00 -5 1 -3
1706 569 2 4.0999999999999998e-01 -6.5308161375649476e+00 -1.2848668114923166e+01 -3.0528387268765584e+00 -3 -2 -6
94 32 1 -8.1999999999999995e-01 -5.4937310571531555e+00 -6.1496501609403094e+00 -5.5831426574239309e+00 -1 -1 4
1860 620 2 4.0999999999999998e-01 -7.0562989735650232e+00 -6.5034873469107026e+00 -2.4260608515722026e-01 -1 -1 2
2009 670 2 4.0999999999999998e-01 -4.2275135486026034e+00 -8.2821632773795830e+00 -3.5487368665078147e+00 3 1 -3
314 105 2 4.0999999999999998e-01 -4.1245730542515187e+00 -1.3033852153148354e+01 -2.4954317418983134e+00 -5 1 -3
749 250 2 4.0999999999999998e-01 -2.7026429004457491e+00 -7.7376647517346626e+00 -4.6704291767928900e+00 4 -3 0
885 295 2 4.0999999999999998e-01 -2.7791895853856268e+00 -1.4225445782847608e+01 -5.2660888110107962e-01 -5 -4 -2
1573 525 1 -8.1999999999999995e-01 -6.2020488047489941e-01 -8.0382523476224019e+00 -2.0499951106125529e+00 -5 1 3
633 211 2 4.0999999999999998e-01 -1.3379589200471713e+00 -4.9795949775870874e+00 -1.6166041610356494e+00 -3 1 -3
884 295 2 4.0999999999999998e-01 -4.2325065146053102e+00 -1.3482816635821722e+01 -5.8034538999921637e-01 -5 -4 -2
2018 673 2 4.0999999999999998e-01 -1.4559723764498287e+00 -6.2964717599262165e+00 -6.8293338088465259e+00 0 0 -1
117 39 2 4.0999999999999998e-01 -3.2517685463273338e+00 -8.8968653104185549e+00 -2.5003645239006289e-01 -10 -2 0
632 211 2 4.0999999999999998e-01 -9.4418411057135287e-01 -5.2263057109355184e+00 -5.1167809135142406e-02 -3 1 -3
736 246 1 -8.1999999999999995e-01 -1.0803986944312326e+01 -1.2829861062807204e+01 6.0381830324394059e-01 3 -2 1
1599 533 2 4.0999999999999998e-01 -1.1658406900888632e+01 -5.6786551216481485e+00 6.8239642698401184e+00 -8 1 -3
1597 533 1 -8.1999999999999995e-01 -1.0962406507210085e+01 -6.3640002765228001e+00 6.6098523424151310e+00 -8 1 -3
738 246 2 4.0999999999999998e-01 -1.1498767694760614e+01 -1.3120150803577424e+01 1.2618229157068228e+00 3 -2 1
2124 708 2 4.0999999999999998e-01 -1.2877293906696483e+01 -7.9353131227136036e+00 6.4526599362571773e+00 -3 -1 -5
779 260 2 4.0999999999999998e-01 -1.3347318361294755e+01 -9.7028858483095171e+00 5.0860453472157161e+00 -4 0 0
2455 819 1 -8.1999999999999995e-01 -1.0972599266596864e+01 -1.1742501086004689e+01 5.3505252617593406e+00 -3 0 -3
2123 708 2 4.0999999999999998e-01 -1.4201162432201334e+01 -7.0217373157903902e+00 6.1711157545132060e+00 -3 -1 -5
2122 708 1 -8.1999999999999995e-01 -1.3745207311698994e+01 -7.8859336944645042e+00 5.9584469584173867e+00 -3 -1 -5
1907 636 2 4.0999999999999998e-01 -1.0623724522760185e+01 -6.4260094642617389e+00 4.9706641139717362e+00 1 4 -1
2457 819 2 4.0999999999999998e-01 -1.1360715451093709e+01 -1.2664028880147544e+01 5.3399970760417830e+00 -3 0 -3
1908 636 2 4.0999999999999998e-01 -9.9826491643940471e+00 -7.6433346661076644e+00 4.0910860952344485e+00 1 4 -1
852 284 2 4.0999999999999998e-01 -1.3457456519086199e+01 -1.0628239467462775e+01 1.3652325008507340e+00 4 2 0
850 284 1 -8.1999999999999995e-01 -1.2741831578950180e+01 -1.0102419904382760e+01 1.8249641707561643e+00 4 2 0
1906 636 1 -8.1999999999999995e-01 -1.0527220582928653e+01 -6.8056232656982854e+00 4.0505886720874216e+00 1 4 -1
2456 819 2 4.0999999999999998e-01 -1.1699744296534195e+01 -1.1072846599651250e+01 5.1995899711043698e+00 -3 0 -3
1672 558 1 -8.1999999999999995e-01 -8.3490561828504770e+00 -1.1798260118646658e+01 4.2688298762407051e+00 0 -2 -8
851 284 2 4.0999999999999998e-01 -1.2919970234384101e+01 -1.0086308353537706e+01 2.8088165538517131e+00 4 2 0
457 153 1 -8.1999999999999995e-01 -1.2974793180483388e+01 -7.5059770693521362e+00 2.6477831606723861e+00 -2 -6 -4
459 153 2 4.0999999999999998e-01 -1.2692913801477681e+01 -8.2141886521715914e+00 2.0005283065587172e+00 -2 -6 -4
778 260 1 -8.1999999999999995e-01 -1.3194416977466254e+01 -1.0551754097522588e+01 4.5800786017410573e+00 -4 0 0
641 214 2 4.0999999999999998e-01 -9.1610777330365387e+00 -6.7054666052604723e+00 1.0299314428509074e+00 -1 0 -6
642 214 2 4.0999999999999998e-01 -1.0118958174159918e+01 -6.7976936672318544e+00 2.3492020534459996e+00 -1 0 -6
420 140 2 4.0999999999999998e-01 -1.2587504027685684e+01 -1.2186802930866309e+01 3.1165941559480892e+00 -5 -3 -3
421 141 1 -8.1999999999999995e-01 -8.7811388305120897e+00 -8.8750706738319565e+00 4.5054431718723293e+00 -2 -5 0
640 214 1 -8.1999999999999995e-01 -1.0042400103865484e+01 -7.0246102731186548e+00 1.3783229729811382e+00 -1 0 -6
1016 339 2 4.0999999999999998e-01 -7.7604060616262318e+00 -1.1200591746854661e+01 1.3405830360651052e+00 -4 -3 5
1674 558 2 4.0999999999999998e-01 -7.6671277549452377e+00 -1.2249363785227079e+01 4.8445360186513824e+00 0 -2 -8
737 246 2 4.0999999999999998e-01 -1.0651568778042270e+01 -1.1845550096772055e+01 6.9246994969842746e-01 3 -2 1
418 140 1 -8.1999999999999995e-01 -1.2700813301025020e+01 -1.3013060597966856e+01 2.5648535080479462e+00 -5 -3 -3
422 141 2 4.0999999999999998e-01 -8.1230605915863272e+00 -8.3194589518245383e+00 3.9973220079765923e+00 -2 -5 0
1673 558 2 4.0999999999999998e-01 -9.2385229256698054e+00 -1.1821591614281921e+01 4.7251883103907488e+00 0 -2 -8
780 260 2 4.0999999999999998e-01 -1.4065610698841265e+01 -1.1026198046409164e+01 4.4540511158614535e+00 -4 0 0
985 329 1 -8.1999999999999995e-01 -1.4662462219972898e+01 -1.1736154053347928e+01 6.6852871671769520e-01 0 -1 -1
2023 675 1 -8.1999999999999995e-01 -1.1509448643870025e+01 -1.4614648376381339e+01 5.3266635406858960e+00 0 -1 -7
423 141 2 4.0999999999999998e-01 -8.6544687774429541e+00 -9.8389944622484560e+00 4.2714258494143884e+00 -2 -5 0
458 153 2 4.0999999999999998e-01 -1.2232526474667152e+01 -7.3310972731427624e+00 3.2946337300145494e+00 -2 -6 -4
375 125 2 4.0999999999999998e-01 -9.9047932731620705e+00 -9.4249842929697998e+00 8.0908471574174001e-01 -4 -2 -3
1506 502 2 4.0999999999999998e-01 -1.4275403498761296e+01 -6.3981138303616962e+00 2.0076203124697507e+00 -2 -1 1