2593
Atoms. Timestep: 18495000
O 8.34712 -0.4086 14.5229
H 7.44974 -0.829152 14.6563
H 9.0614 -1.05555 14.7897
O 8.92271 10.9337 -14.3726
H 8.06624 11.4494 -14.3938
H 9.60225 11.3925 -14.9451
O -2.77843 11.8068 -14.8875
H -1.83801 12.1257 -15.0054
H -3.0526 11.923 -13.9329
O -13.7658 -1.45249 -13.0954
H -14.0658 -0.785756 -12.4131
H -12.9349 -1.90697 -12.7744
O -12.9648 -5.46697 -11.1615
H -13.5989 -4.86677 -11.649
H -13.4019 -6.35142 -10.9982
O -9.82963 7.06454 11.1568
H -10.6317 6.51526 10.9222
H -9.12199 6.93466 10.4623
O -11.8355 12.8907 9.85207
H -12.1233 12.268 10.5797
H -11.4327 13.7119 10.2561
O 11.7644 3.03477 -14.8236
H 11.4433 3.13037 -13.8814
H 12.5335 2.39626 -14.8504
O 4.52173 -1.09705 -1.2242
H 4.24329 -2.05749 -1.22324
H 4.66797 -0.793355 -2.16566
O 13.2439 -7.06495 8.65155
H 13.0909 -6.09736 8.45074
H 13.9219 -7.43413 8.01593
O -11.0594 -4.2366 -9.37843
H -11.2671 -4.73397 -8.53616
H -11.8141 -4.34633 -10.0251
O 12.2752 6.27334 -11.3543
H 13.2625 6.32429 -11.2042
H 11.8354 7.07773 -10.9549
O -1.85093 -12.9741 9.58831
H -1.17984 -13.4798 9.04626
H -2.75993 -13.3642 9.44179
O -8.12147 -7.19983 -11.7244
H -7.59559 -6.36703 -11.8972
H -9.08604 -7.03341 -11.929
O -0.566815 12.6326 4.74406
H -0.804178 12.3021 3.83062
H 0.385831 12.4037 4.9442
O 3.34987 -7.10593 5.96762
H 3.04007 -7.15604 6.91708
H 4.16011 -6.52254 5.91173
O 13.9435 -1.16529 0.722473
H 13.8854 -0.383788 1.34362
H 13.9364 -0.840603 -0.223299
O 7.98246 -8.64426 -0.574181
H 8.02064 -7.81268 -0.0201309
H 8.83377 -9.15728 -0.464427
O -0.111435 -10.651 9.84524
H -0.755346 -11.416 9.84757
H 0.649862 -10.8542 10.4609
O 8.4269 -13.0415 12.2211
H 8.36726 -12.1434 11.7854
H 8.82537 -12.9437 13.1331
O 1.0784 8.27279 12.0389
H 1.97872 8.42072 12.4482
H 0.371575 8.62605 12.6517
O -9.75541 1.33077 -3.44481
H -10.5674 1.65675 -2.96064
H -9.71213 0.333283 -3.38903
O 9.64211 -9.32991 14.9985
H 9.69494 -8.59334 -14.4197
H 10.5224 -9.80182 14.9507
O 3.6405 -10.5571 -10.2201
H 4.08041 -9.83086 -9.69187
H 2.8268 -10.8764 -9.73445
O -5.78715 5.31213 -8.12446
H -5.85337 5.90879 -7.32473
H -6.65091 4.82374 -8.24837
O -0.614156 9.06706 14.0343
H -1.27826 9.75058 13.7315
H -1.08868 8.2133 14.2485
O 10.5206 6.57732 0.578321
H 10.7411 5.74739 1.0907
H 10.9005 7.37207 1.05166
O -11.0754 -13.7378 -12.7134
H -11.7374 -13.1031 -12.3146
H -10.1639 -13.3271 -12.6898
O -1.22016 5.38699 -6.46087
H -1.44224 4.42837 -6.28283
H -0.323107 5.59888 -6.07311
O 3.65273 7.89082 12.8727
H 4.01342 7.34026 13.6255
H 4.05837 7.58444 12.0116
O -12.388 0.0294228 8.64309
H -12.3044 0.92275 8.20158
H -12.2742 0.133963 9.63106
O -4.16604 -6.47211 -6.37455
H -3.20687 -6.73987 -6.46537
H -4.27375 -5.88541 -5.57197
O -8.07436 1.66195 6.33984
H -7.23984 2.12773 6.63409
H -8.87073 2.1359 6.71549
O 3.25027 -10.511 3.24513
H 2.7524 -10.2148 4.06021
H 2.60297 -10.8609 2.56798
O -14.312 -4.63352 4.97015
H -13.5395 -5.25387 5.10588
H -14.7751 -4.86034 4.11337
O 12.0765 9.12173 -11.6791
H 11.7379 9.51045 -10.8223
H 11.3324 9.08658 -12.3462
O -13.0525 -12.2474 -11.9073
H -13.8513 -12.584 -11.4087
H -13.3458 -11.5912 -12.6026
O -4.52526 1.789 -4.81141
H -5.41671 1.9377 -5.23938
H -4.01752 2.65024 -4.791
O -3.78029 -10.5345 1.4821
H -3.22639 -11.3638 1.40789
H -3.4325 -9.96706 2.22842
O -12.65 14.849 7.29224
H -12.3001 14.7649 8.22519
H -11.903 14.7101 6.64221
O -3.91086 4.88588 1.57062
H -3.38396 4.18055 1.09643
H -4.7634 5.05419 1.07584
O 0.412953 9.65231 3.9044
H 1.22871 10.0554 3.48969
H -0.344766 9.68854 3.25286
O -10.5427 -2.12681 -7.3334
H -11.0203 -2.57806 -8.08718
H -10.2667 -2.80985 -6.6572
O -3.00469 -0.594107 7.26573
H -3.69636 -1.1665 7.70608
H -2.43797 -0.158585 7.96509
O 6.52397 0.196768 -7.23877
H 5.58354 0.102117 -7.56527
H 6.52167 0.626826 -6.33599
O -3.0297 -3.61679 7.21619
H -3.41799 -3.81038 6.31523
H -2.04038 -3.49663 7.13393
O -14.3723 -2.67706 12.4689
H -14.9036 -3.14359 11.7617
H -13.4056 -2.91283 12.3695
O 4.41979 10.9461 12.0336
H 4.39795 9.96101 12.2041
H 4.14664 11.1269 11.0888
O 14.5974 7.17851 9.02028
H 13.6616 7.52967 8.98862
H 14.6974 6.56645 9.80472
O -4.10948 -6.89756 -2.9323
H -4.94829 -7.38913 -2.69838
H -4.33194 -6.11941 -3.51963
O 7.24986 -3.76281 14.0162
H 7.09599 -4.73615 13.8462
H 7.35467 -3.60854 14.9986
O 5.62783 4.53475 3.3455
H 5.99911 4.72661 2.43704
H 5.48577 5.39456 3.83591
O 0.204477 -14.5063 8.46806
H 0.995562 -14.065 8.89162
H 0.200257 -14.3124 7.48706
O -9.41879 -8.42653 -8.38331
H -9.10846 -9.37505 -8.44632
H -8.75064 -7.89084 -7.86702
O -11.0889 -8.17538 -1.6142
H -10.3914 -8.51852 -0.985107
H -11.7966 -8.8708 -1.73872
O 7.74434 -2.94516 -0.980297
H 8.33603 -3.49102 -1.57351
H 6.82741 -2.8979 -1.3765
O -9.05249 10.4704 8.1886
H -9.33107 10.6381 7.24297
H -9.84649 10.1822 8.72385
O -14.058 5.36619 -14.6202
H -14.5313 6.07568 -14.0981
H -13.6549 5.76971 14.6509
O 13.0806 14.4468 3.70099
H 12.752 14.2161 2.78513
H 12.5941 13.8951 4.37841
O -11.4813 -6.67276 10.9863
H -10.6935 -6.06022 10.9219
H -11.9615 -6.50867 11.8479
O 14.6484 1.20466 11.333
H 14.1013 0.462742 10.9455
H 14.9756 1.79719 10.597
O -5.44391 1.08797 -14.4318
H -6.28193 1.62678 -14.3459
H -5.64731 0.124926 -14.2553
O 10.489 6.63329 -5.49753
H 11.0014 7.18997 -6.15132
H 10.156 7.21379 -4.7545
O 0.890047 12.0611 -9.21697
H 1.60897 12.2617 -9.88247
H 0.143645 11.5732 -9.66949
O -9.16468 5.56567 -9.53306
H -9.33911 6.45976 -9.12057
H -9.59525 4.85325 -8.97896
O 3.12717 13.9508 14.6375
H 3.73211 14.6896 14.3405
H 2.6381 13.5823 13.8469
O -0.624414 2.39302 13.195
H -0.326873 1.76382 12.477
H -1.55323 2.15732 13.4809
O -0.043047 3.76244 -4.14171
H 0.864843 4.04955 -4.4471
H -0.126668 3.91364 -3.15677
O -6.16577 9.6978 -10.4323
H -5.82659 9.72444 -9.49197
H -6.05816 8.77388 -10.7994
O 14.7281 -8.37041 -14.9669
H 14.3575 -7.57109 14.6526
H -14.5754 -8.7204 14.6205
O -8.44651 -1.63234 9.47108
H -7.96479 -2.49273 9.30484
H -7.79246 -0.935703 9.76581
O 4.28763 2.1615 3.76603
H 3.32524 2.41904 3.67983
H 4.86438 2.9436 3.53015
O 13.4655 5.15148 -8.06317
H 13.6065 5.27638 -7.0811
H 12.5025 4.94656 -8.23818
O -5.56277 -7.87767 6.75462
H -6.0062 -8.59969 7.28568
H -5.14241 -8.27441 5.93862
O 3.29123 6.98551 6.77078
H 2.39149 6.55009 6.79977
H 3.17972 7.97758 6.71324
O 3.16498 14.118 0.674788
H 3.95167 13.7695 1.18436
H 3.34412 -15.0335 0.387561
O -1.84693 -10.5159 6.77839
H -2.41496 -10.5545 7.60046
H -1.15458 -9.80228 6.88486
O -3.68358 -9.00931 15.0033
H -3.45214 -8.14172 -14.649
H -3.32781 -9.01434 14.0688
O -6.26289 5.15709 -0.0452078
H -6.14168 4.93333 -1.01227
H -7.05422 4.66284 0.31462
O 12.4748 3.56681 9.78504
H 12.0154 2.83698 10.2913
H 12.8161 3.2065 8.91692
O 7.32918 1.28587 -4.73956
H 7.37582 1.70503 -3.83287
H 8.25541 1.12982 -5.08266
O 12.3144 11.5944 -1.82947
H 11.5594 11.5039 -2.47886
H 12.7777 10.7135 -1.73208
O 3.27582 -9.40126 10.2535
H 2.84156 -10.1787 10.7085
H 4.25945 -9.56537 10.1794
O -5.92654 13.5205 -14.4896
H -6.65687 14.117 -14.1568
H -5.12829 13.6064 -13.8935
O -14.3079 13.8204 -7.81253
H -14.9856 13.5771 -8.50651
H -14.7736 14.049 -6.95764
O -10.4167 8.13528 13.4781
H -9.72769 8.03957 14.1964
H -10.1078 7.65983 12.6544
O -8.32318 -14.7377 -7.34074
H -7.97293 -14.4896 -6.43757
H -7.55714 -14.8845 -7.96652
O 8.16042 -6.22661 -7.1493
H 8.48753 -6.61994 -6.29009
H 8.89934 -5.71029 -7.58216
O -3.58614 -10.3496 8.98164
H -3.31123 -9.39039 9.04658
H -3.24427 -10.849 9.77772
O -1.73191 10.8624 -10.5053
H -0.943104 10.5399 -11.0285
H -1.87431 10.2661 -9.71531
O 6.118 -11.6234 1.40408
H 6.32679 -11.0107 2.16627
H 6.48955 -12.5319 1.59533
O -2.7764 6.43223 5.93005
H -2.10191 7.15532 6.07892
H -3.6759 6.74822 6.23174
O -1.20974 -1.0751 5.27482
H -1.44522 -1.87894 4.72861
H -1.84821 -0.993441 6.04011
O -5.62221 1.19847 -11.1494
H -4.74373 1.3477 -11.6032
H -6.26519 0.786527 -11.795
O 10.4423 -1.20617 -9.73958
H 10.4166 -0.36216 -10.2753
H 9.61257 -1.27474 -9.18561
O 5.52187 -14.6506 -2.11976
H 6.24968 -14.0425 -2.43681
H 5.82584 14.9577 -1.29932
O -7.76704 -12.7764 8.26411
H -7.75785 -12.3283 9.15801
H -7.19642 -13.597 8.29674
O -7.62941 2.70626 -13.8134
H -8.49481 2.21795 -13.7012
H -7.49321 3.32518 -13.0398
O -10.7484 -11.1299 -6.05686
H -10.5532 -10.3307 -5.48831
H -11.3591 -11.749 -5.56324
O 5.29542 -0.997304 -4.06038
H 6.08198 -0.391429 -4.17956
H 5.5237 -1.91028 -4.3985
O -7.44557 7.58346 2.60775
H -6.52697 7.18911 2.63256
H -7.51556 8.3087 3.29266
O 8.70148 3.38459 1.31896
H 8.80221 3.09812 2.27172
H 7.89867 3.97432 1.23133
O -2.03456 -3.09709 10.0149
H -2.05948 -3.67801 10.8285
H -2.46155 -3.57768 9.24899
O -14.8172 2.48814 -2.85712
H -14.1319 3.04309 -3.32859
H 14.7682 3.06089 -2.21302
O -4.80718 -13.6485 -2.4198
H -5.18407 -14.1887 -1.6674
H -3.81908 -13.7932 -2.47169
O 1.98786 11.9261 -2.60121
H 1.20746 12.4488 -2.94427
H 2.37942 11.3847 -3.34523
O 7.99298 -1.29716 -11.6806
H 7.90625 -0.401142 -11.2452
H 7.13328 -1.53192 -12.1342
O -13.1428 8.94506 -9.38821
H -13.8872 9.54899 -9.67318
H -12.2732 9.43436 -9.45318
O 4.34844 -13.6542 13.5924
H 4.60068 -13.0092 14.3137
H 4.57575 -13.2627 12.7007
O -12.0375 -8.20722 -7.25969
H -12.6501 -8.23794 -8.04953
H -11.0883 -8.20293 -7.57403
O -14.0841 14.5234 -11.1353
H -14.6204 13.7258 -10.8593
H -13.7447 14.3909 -12.0665
O 3.88441 -11.3658 -2.97559
H 4.12211 -12.0491 -3.66591
H 4.70132 -11.1218 -2.45306
O 5.13227 2.85094 -1.05744
H 4.33528 2.61994 -1.61548
H 5.2602 2.15219 -0.35363
O -8.25201 11.9622 -1.87206
H -8.20265 11.5546 -0.960225
H -7.88953 11.3177 -2.54526
O -7.71452 -1.33412 5.84007
H -7.81266 -0.339368 5.81194
H -8.39743 -1.75347 5.24195
O 13.0428 -4.48582 8.09409
H 12.3309 -4.1498 7.4774
H 13.9415 -4.31567 7.6899
O -2.23355 -3.62166 -9.78836
H -1.39318 -3.09549 -9.91833
H -2.23958 -4.01878 -8.87064
O -1.22686 8.73471 5.92109
H -1.358 9.48062 6.57406
H -0.692788 9.06356 5.14225
O -10.5344 2.30722 -13.3507
H -11.0775 3.14554 -13.3976
H -10.9947 1.58272 -13.8637
O -14.9282 12.5251 1.36626
H -14.5307 12.5523 2.28346
H 14.1691 12.5985 1.43193
O 2.06656 -11.4105 11.725
H 2.06805 -11.0492 12.6574
H 2.24856 -12.3935 11.7481
O 11.2384 10.4222 -9.09284
H 10.7189 11.0921 -9.62328
H 11.5955 10.8565 -8.2659
O 8.1959 -9.31755 5.79931
H 8.08832 -8.7947 6.6449
H 9.02068 -9.87994 5.85782
O -3.42733 -0.201129 -6.98862
H -4.41294 -0.0492917 -7.06259
H -3.03879 0.445565 -6.33228
O -10.8635 -11.0862 0.494846
H -11.429 -11.1141 -0.329415
H -10.5045 -10.1615 0.621652
O 9.89169 -6.21669 -10.4037
H 10.4648 -5.41353 -10.5663
H 9.0208 -5.92949 -10.0049
O 2.88438 -5.82233 -14.1462
H 2.17765 -6.0254 -14.8239
H 3.47608 -6.62038 -14.0323
O -12.6611 -1.78984 -9.82572
H -12.3327 -0.866445 -9.62699
H -12.13 -2.17751 -10.5791
O -12.5079 -12.9334 -4.41946
H -13.3728 -12.4361 -4.35151
H -12.6767 -13.8464 -4.79078
O 2.05635 -13.072 -8.61659
H 1.60614 -12.1791 -8.61447
H 1.39656 -13.7786 -8.36081
O 5.00079 8.23443 -11.4542
H 4.58228 8.70764 -10.679
H 4.66182 8.62915 -12.3082
O -1.2427 -4.88775 1.51658
H -0.591173 -5.63332 1.37659
H -1.63485 -4.61826 0.637063
O 5.58696 5.59091 7.7428
H 4.65057 5.8637 7.52207
H 5.78149 4.70176 7.32866
O -6.11599 -3.57775 1.10817
H -5.57167 -4.35868 0.801845
H -6.6537 -3.84005 1.90943
O -8.82597 -10.903 -7.9804
H -8.7412 -11.7225 -8.54716
H -9.44591 -11.0878 -7.21785
O -6.03375 -1.34949 -13.0406
H -5.18938 -1.46638 -12.5178
H -6.15355 -2.12665 -13.6584
O 5.55768 11.8294 1.35593
H 5.05793 11.2923 0.676383
H 5.30218 11.5261 2.27394
O -4.10323 9.09701 -14.4372
H -3.29553 9.673 -14.5629
H -4.91356 9.67528 -14.3427
O -10.0158 12.6988 0.499828
H -10.9196 12.4905 0.126155
H -9.42806 11.8938 0.418931
O -11.818 -13.9401 3.17709
H -12.7108 -14.184 3.55577
H -11.3267 -13.3613 3.82795
O -7.91158 -9.2476 5.02802
H -7.6577 -9.39026 4.07139
H -7.89409 -10.1227 5.51157
O 9.09245 8.82042 -7.84677
H 10.076 8.71743 -7.69861
H 8.91866 9.00547 -8.81399
O -1.15761 -3.69854 -5.03092
H -0.521565 -4.07239 -4.3559
H -0.779023 -2.85648 -5.41505
O 10.8556 -12.1094 -2.56116
H 10.8645 -13.0412 -2.92397
H 11.7918 -11.7613 -2.51343
O -14.4365 -14.81 12.2229
H 14.8231 -14.3045 11.9974
H -14.6423 14.305 12.2701
O 6.73882 0.953361 9.15382
H 7.46434 1.02728 8.46963
H 7.14194 0.957954 10.0689
O -11.9299 12.4256 -7.22785
H -11.4385 12.8134 -6.448
H -12.718 13.0016 -7.44503
O 3.17611 -3.56451 12.3923
H 3.12606 -4.55858 12.2959
H 2.92761 -3.13269 11.5252
O -6.62757 -7.99677 -3.16467
H -6.59558 -7.91137 -4.16049
H -7.15043 -8.8123 -2.91671
O -3.67365 2.7028 -13.0191
H -2.72807 2.42706 -13.1918
H -4.27596 2.26336 -13.6855
O -13.2804 2.64858 4.39115
H -12.396 2.1821 4.39664
H -13.9889 2.02365 4.71904
O -10.3035 2.32348 2.0177
H -9.30995 2.42221 2.07243
H -10.7385 3.19032 2.26127
O -14.5203 -8.88356 2.6535
H -14.852 -8.47567 1.80291
H -14.2084 -9.81696 2.47611
O 6.52136 -2.57326 11.4694
H 6.43436 -2.89479 12.4123
H 5.77098 -1.94615 11.2606
O -2.38991 9.49999 -2.16193
H -2.31146 9.64887 -1.17621
H -1.56012 9.05518 -2.49892
O -1.61861 -12.5407 -5.30143
H -2.21105 -11.736 -5.33974
H -0.758165 -12.3 -4.85235
O 7.68292 -12.1521 4.40915
H 8.30771 -12.3831 5.15496
H 8.09049 -11.4359 3.84267
O -9.86935 14.1435 -3.37461
H -10.3954 14.6523 -2.69311
H -9.18842 13.5747 -2.91342
O 12.4826 11.2258 -6.60027
H 13.2929 10.6822 -6.38153
H 12.6669 12.1901 -6.41019
O -11.9328 -5.36107 6.45049
H -11.763 -6.34024 6.33936
H -11.2761 -4.98072 7.10172
O -12.4231 -0.491316 11.5402
H -11.9069 -0.112926 12.3085
H -13.3258 -0.783067 11.8565
O 11.922 13.7024 -8.4734
H 11.8423 14.6768 -8.26321
H 11.0551 13.3694 -8.84409
O -11.1801 0.363945 0.198323
H -11.1164 1.21496 0.719539
H -10.2652 0.0784969 -0.0869437
O -6.65864 0.212125 10.2772
H -5.85577 -0.273379 10.6231
H -6.38903 1.12399 9.96773
O -4.23184 9.98291 8.01633
H -3.86752 9.12638 8.38184
H -3.47811 10.613 7.82979
O -11.7278 -2.90248 -0.450637
H -10.8882 -3.41658 -0.626146
H -11.54 -1.92294 -0.522733
O -5.86881 -11.6472 5.80188
H -5.39305 -12.4927 6.04422
H -6.01207 -11.0977 6.62497
O 2.59995 -9.06079 -3.16687
H 3.1476 -8.46934 -2.57508
H 2.91812 -10.0049 -3.08093
O -5.18926 12.724 -3.8447
H -5.65405 12.9393 -2.98586
H -5.86714 12.6089 -4.57079
O -7.73377 9.36768 4.60833
H -8.58442 9.72337 4.99544
H -6.96263 9.6585 5.17465
O 1.57993 -4.72047 2.58896
H 0.61759 -4.86959 2.36175
H 2.00416 -5.59287 2.83167
O -8.23896 14.6069 -13.7026
H -8.14839 -14.575 -13.2993
H -8.88781 14.6421 -14.4627
O -7.35114 6.92547 -3.34368
H -7.23307 6.03711 -2.90001
H -7.76069 6.79529 -4.2466
O 13.9024 -3.76495 10.5813
H 13.8025 -3.98995 9.61205
H 13.0972 -4.08288 11.0819
O -13.4002 -3.20437 -7.29964
H -13.8056 -2.48687 -6.73322
H -13.1276 -2.81896 -8.18118
O 1.57225 3.05393 4.26731
H 1.52449 2.64682 5.17942
H 1.61496 4.04969 4.34857
O 0.948924 1.82484 6.68008
H 1.12967 0.868513 6.9097
H 0.0539196 2.09027 7.03851
O -7.68135 2.83704 -4.30367
H -8.43739 2.3594 -3.85622
H -7.46742 2.38501 -5.16962
O -13.4795 11.4059 8.05476
H -13.6947 10.6366 8.65632
H -12.8776 12.045 8.53336
O -4.20655 -14.2851 9.29304
H -5.18553 -14.3127 9.495
H -4.07219 -14.1967 8.30608
O -0.669101 -9.42099 -5.84712
H -0.421241 -10.1106 -5.16673
H -1.47036 -9.73069 -6.359
O -1.01535 -7.33077 12.4936
H -1.72201 -8.02881 12.6091
H -0.367081 -7.62567 11.7916
O -7.43025 -0.0277025 3.15721
H -8.14448 -0.473713 3.69658
H -6.59045 0.0278119 3.69723
O -2.07486 -14.2434 -2.6839
H -1.2295 -13.9412 -3.12437
H -2.01646 14.8705 -2.48639
O 12.4012 3.56265 -12.1872
H 13.2252 3.50375 -12.7506
H 12.2373 4.51634 -11.9351
O -3.00729 5.58384 11.6754
H -3.61338 4.80589 11.841
H -2.08661 5.25145 11.4709
O -10.0896 -8.96897 13.2273
H -9.43967 -8.60001 12.563
H -10.1732 -9.9571 13.0985
O -1.65696 1.12133 9.37187
H -0.902359 0.506908 9.60214
H -1.30588 2.0499 9.25164
O 9.58502 -6.92653 11.6778
H 8.88998 -7.43375 12.1873
H 9.38866 -5.94743 11.7305
O 1.95024 12.4467 12.8064
H 1.27384 12.1295 12.1417
H 2.78344 11.9005 12.7206
O 5.57312 2.44196 13.5089
H 6.31677 1.99731 13.0097
H 5.67206 2.25887 14.487
O 2.78572 12.0935 -13.3004
H 3.49235 11.3917 -13.2103
H 3.00995 12.6959 -14.0664
O 3.73936 -6.16696 12.2811
H 4.571 -6.13055 11.727
H 3.9839 -6.30802 13.2404
O 8.67777 -1.97179 9.86986
H 7.84593 -1.9203 10.4224
H 8.61738 -1.31878 9.11494
O -5.09477 -10.6213 -13.3299
H -4.42973 -10.1731 -13.9272
H -5.99328 -10.2012 -13.457
O 11.7652 -9.05758 -6.09728
H 11.5869 -8.45454 -6.87479
H 12.3211 -8.57416 -5.4211
O -0.911074 -13.4171 3.49025
H -1.44368 -13.2417 2.6623
H -0.890151 -12.5917 4.05428
O -0.290008 -3.77644 7.30977
H 0.0928587 -3.02002 7.84007
H 0.3205 -3.99177 6.54763
O -4.18946 3.09961 12.0135
H -4.29073 2.8622 11.0474
H -3.97401 2.27612 12.5383
O -8.86558 -3.38438 -10.8515
H -8.01642 -3.87754 -11.0404
H -9.37707 -3.8627 -10.1377
O 14.3636 9.39974 0.892293
H 14.5228 9.71832 1.82671
H -14.9474 9.64548 0.318723
O 1.91239 -5.81323 -0.667431
H 1.29075 -6.23153 -0.0052007
H 2.46753 -5.11819 -0.210594
O -12.8332 11.2783 14.9798
H -12.0372 11.538 14.4331
H -13.3185 10.5301 14.5275
O 0.872794 9.40101 -11.6372
H 1.63877 9.53613 -11.0087
H 1.19052 9.51264 -12.5787
O 6.41537 -4.05037 -7.77193
H 7.02502 -3.29815 -7.522
H 6.83226 -4.91961 -7.50624
O 7.97987 -4.71433 -13.4556
H 8.58449 -5.50195 -13.5741
H 7.93023 -4.47516 -12.4859
O -1.25244 6.04333 14.2281
H -2.19309 5.93863 14.5509
H -1.2373 6.01008 13.2288
O 2.84241 -3.20106 -5.00238
H 3.75495 -2.80778 -4.89029
H 2.90163 -4.02557 -5.56507
O -14.4945 -3.33942 0.708814
H -13.5656 -3.21424 0.360247
H -15.0299 -2.51298 0.534904
O -12.7397 9.06494 -13.1817
H -11.8875 9.14903 -12.6654
H -12.8633 9.87478 -13.7552
O -2.01062 -8.75955 -2.80889
H -1.44321 -8.79009 -3.63174
H -2.68432 -8.02568 -2.89564
O -11.5396 3.63154 -1.2849
H -11.7182 3.48788 -2.25827
H -12.3593 3.40499 -0.758715
O 8.99456 -4.86414 -2.46482
H 9.10694 -4.39004 -3.33807
H 9.88985 -4.9952 -2.03909
O -9.23698 -8.72577 0.371187
H -8.26641 -8.85473 0.167876
H -9.39677 -7.77778 0.646398
O -5.14403 9.85176 -7.99108
H -4.54097 10.473 -7.49068
H -5.90231 9.57566 -7.40054
O -12.2997 9.90388 6.04324
H -12.945 10.4732 6.5525
H -12.0761 9.09095 6.58093
O -4.48348 -10.0001 -10.7456
H -4.78054 -10.2187 -11.6751
H -5.13849 -9.37215 -10.3254
O 3.49027 -6.93798 -10.9997
H 3.59844 -7.48874 -10.1721
H 2.52834 -6.68823 -11.1105
O 7.53892 8.85067 14.128
H 7.60566 7.96312 14.5838
H 8.10585 9.51732 14.6119
O 14.5433 13.8727 -1.72729
H -14.8007 13.4258 -2.21716
H 13.8079 13.2138 -1.56927
O 9.23485 -12.9501 14.8595
H 9.16833 -13.916 -14.9826
H 9.18073 -12.3875 -14.408
O 0.820145 6.18908 -14.1037
H 0.499609 5.6392 -13.3325
H 0.260781 5.99199 -14.9089
O 3.51945 14.0198 -3.11885
H 4.04981 14.4372 -2.38095
H 2.99785 13.2466 -2.75832
O -0.0718234 8.84093 -4.34653
H -0.369544 9.46487 -5.06904
H 0.621938 9.28987 -3.78341
O 14.1837 12.6246 -9.89326
H 13.3069 12.8768 -9.48378
H 14.1345 11.686 -10.2346
O -14.6832 -4.67267 -2.69813
H -13.7327 -4.46878 -2.93265
H -14.7108 -5.43493 -2.05149
O -7.87058 -11.0656 10.9846
H -7.17549 -11.5018 11.5561
H -7.85456 -10.0773 11.1363
O -11.4028 -8.22677 -10.4749
H -10.75 -8.44554 -9.74962
H -10.9764 -7.60324 -11.1301
O -4.44184 9.42984 3.8369
H -5.09143 9.87903 4.45026
H -4.7776 9.48615 2.89666
O -9.83304 9.52878 -5.82909
H -10.7136 9.51486 -6.30287
H -9.95574 9.89942 -4.90847
O 5.74525 -0.994147 14.8239
H 5.26668 -1.86931 14.8948
H 5.25113 -0.300651 -14.7443
O 10.8148 -1.15192 11.3942
H 10.9334 -1.46596 12.3362
H 9.87486 -1.32582 11.1007
O -14.5626 0.512191 5.20708
H -14.6647 0.102277 6.11345
H -14.1983 -0.169146 4.57223
O 3.31716 4.46047 13.7769
H 3.5096 5.21605 14.4031
H 4.06065 3.79323 13.8213
O 13.9261 4.37146 -0.510879
H 14.7039 4.89454 -0.162365
H 13.2031 5.00011 -0.797256
O 8.2521 3.99021 9.91515
H 7.60859 4.51859 9.36136
H 9.18137 4.13506 9.57539
O -1.07169 12.384 -0.330786
H -0.143488 12.2108 -0.00156989
H -1.7042 12.3908 0.443703
O -8.16755 14.7194 -0.0640853
H -8.39773 13.7795 0.187999
H -8.87702 -14.7543 0.273124
O 6.41545 12.0224 -14.0672
H 5.56266 11.5078 -14.1556
H 6.62312 12.4749 -14.9344
O 3.76802 10.8537 9.4112
H 4.0697 9.99958 8.98759
H 2.93764 11.176 8.95676
O 4.15678 5.56439 -11.4073
H 4.64916 6.42887 -11.3063
H 3.79674 5.28014 -10.5187
O 14.8608 -3.09992 -15.0359
H 14.9493 -2.6849 14.151
H -14.507 -2.75542 -14.4391
O -3.56856 11.2055 -6.37781
H -3.79925 11.5413 -5.46459
H -2.57812 11.0877 -6.44928
O 10.8877 5.91705 10.9202
H 10.592 6.56649 10.2196
H 11.5106 5.24875 10.5135
O -15.0312 -10.4999 11.1072
H 14.0812 -10.5404 11.3016
H -14.805 -11.1642 10.3948
O -10.0969 -13.5696 0.925202
H -10.0552 -12.7166 0.40495
H -10.7814 -13.4852 1.64924
O -12.4228 12.7523 -0.526686
H -12.1928 13.7086 -0.707004
H -13.1211 12.7063 0.187583
O -7.21524 10.8488 10.0696
H -7.89665 10.512 9.41985
H -6.38934 11.1205 9.57567
O 0.357188 6.71749 -10.1335
H 0.474537 7.56756 -10.6469
H 0.677646 6.84781 -9.19524
O -1.40931 -6.21915 -6.0139
H -0.626794 -6.60967 -5.529
H -1.55122 -5.27619 -5.7128
O 3.06479 7.20263 -1.57562
H 2.29827 7.18329 -0.933716
H 3.91648 7.35189 -1.07333
O 0.879619 14.6345 -7.57312
H 0.0382914 14.753 -7.04578
H 0.801846 13.8185 -8.14592
O -3.13127 -3.79576 -14.1483
H -3.17158 -3.1305 -13.4028
H -2.41418 -3.53092 -14.793
O -6.6666 -10.4731 2.36741
H -7.19901 -11.3162 2.44337
H -5.82573 -10.6547 1.85759
O -12.7663 0.925455 -14.6171
H -13.7353 1.10814 -14.4509
H -12.5512 -0.0107245 -14.3392
O 4.20622 -12.6038 -12.1535
H 4.19545 -11.8746 -11.4693
H 4.98571 -13.2072 -11.9854
O 7.38222 -1.71732 2.05782
H 8.13345 -1.97855 1.4517
H 6.58011 -1.47835 1.51059
O 9.73786 12.7962 -10.0789
H 8.79903 12.5601 -10.3295
H 10.1537 13.3334 -10.8127
O 10.2975 -10.4457 -12.3176
H 10.4085 -10.7623 -11.3756
H 11.1968 -10.3414 -12.7424
O -13.9191 -11.2962 5.03222
H -13.8489 -10.8334 5.91588
H -14.7974 -11.7706 4.97321
O -8.26555 -12.6948 14.6607
H -8.2616 -12.4982 -14.4513
H -7.32566 -12.7076 14.3195
O 4.49943 6.4955 -14.8598
H 5.47358 6.29044 -14.9542
H 4.19383 6.24584 -13.9409
O -12.255 3.34064 -3.81866
H -12.6032 2.7542 -4.54996
H -11.9752 4.22085 -4.20196
O 9.07479 -0.362483 7.49713
H 9.63618 -0.974243 6.93987
H 8.20741 -0.188844 7.03081
O 10.0223 9.69989 11.947
H 10.6822 9.06398 12.3472
H 9.31198 9.18495 11.4672
O -4.1731 14.9996 -4.79844
H -3.55278 -14.6051 -4.18419
H -4.42337 14.1214 -4.391
O -3.98966 -5.49027 -10.6927
H -3.94254 -6.20157 -9.99145
H -3.34283 -4.76052 -10.4713
O 12.5332 10.2966 -14.2588
H 12.659 10.0149 -13.3076
H 12.2184 9.51607 -14.7988
O -10.1676 6.03241 4.41075
H -10.8936 6.34033 3.79587
H -9.28778 6.38258 4.08939
O 9.68847 -1.40362 0.238387
H 9.41457 -0.442325 0.20919
H 9.01278 -1.95763 -0.247908
O 8.72777 0.272796 3.49675
H 8.08911 -0.452144 3.23881
H 9.65322 -0.102093 3.5511
O -0.4365 4.67061 11.5404
H -0.304937 4.05854 12.3201
H 0.435283 5.0983 11.3016
O -9.49246 6.38316 1.19079
H -9.1519 5.58056 0.701065
H -8.7444 6.80154 1.70589
O -5.243 7.29495 7.03041
H -5.35566 8.22273 7.38607
H -5.59769 6.63772 7.6954
O 4.80951 -0.319144 -10.7481
H 5.35825 -1.0561 -11.1428
H 3.87362 -0.377747 -11.0955
O 12.721 0.205929 4.65283
H 12.2868 0.538122 5.49015
H 13.698 0.0686286 4.81586
O -13.737 -10.0592 7.42381
H -13.7364 -10.7559 8.14115
H -12.9686 -9.43507 7.56469
O 8.81327 -5.28068 7.60684
H 9.55082 -4.8734 7.06822
H 8.06987 -4.6195 7.70764
O 4.56544 -0.428095 11.9208
H 4.01825 0.408068 11.9578
H 5.06194 -0.539937 12.7816
O -5.28794 1.78466 6.77444
H -4.99584 0.887512 6.44314
H -5.08508 2.47767 6.08267
O -1.36294 6.93706 1.44966
H -2.19181 6.44074 1.19157
H -1.61287 7.76476 1.95205
O -13.6563 3.17432 12.1757
H -13.6464 3.46865 11.22
H -14.2748 2.39521 12.2781
O -12.8146 6.22413 -9.05191
H -12.7324 7.21905 -9.10958
H -12.4765 5.81215 -9.89805
O -13.4914 -11.4094 1.96786
H -13.4876 -11.6025 2.94901
H -12.5506 -11.3057 1.64497
O 11.6515 2.38851 -7.44011
H 12.409 2.68755 -6.85988
H 10.9063 3.05302 -7.38416
O 6.31277 -9.70095 3.6237
H 5.38182 -9.70658 3.98875
H 6.96587 -9.62722 4.37734
O 3.72631 -13.0624 2.3466
H 4.04778 -12.847 1.42453
H 3.98297 -12.3239 2.97007
O -6.87721 12.5563 13.3805
H -6.53593 13.0868 14.1564
H -7.11649 11.6348 13.6863
O -0.756398 10.2598 -6.58632
H -0.940327 9.55899 -7.27556
H 0.0826712 10.749 -6.8241
O 5.61787 7.56623 -0.056872
H 6.53176 7.90142 -0.285818
H 5.66274 7.02152 0.780525
O 10.25 4.68144 -7.47468
H 9.30669 4.41796 -7.67626
H 10.27 5.24105 -6.64619
O -8.82639 -1.07474 -12.1565
H -8.95593 -1.852 -11.5408
H -7.87663 -1.05137 -12.4685
O 7.41229 -14.1963 2.4888
H 7.64066 -13.4924 3.16135
H 7.82831 15.0283 2.76029
O -4.92256 7.28436 -5.46435
H -5.67399 7.8681 -5.77186
H -4.06674 7.80089 -5.49127
O -2.74734 -13.0013 1.16594
H -3.66059 -13.291 1.45235
H -2.39853 -13.634 0.47458
O 7.95756 8.10327 11.2444
H 7.40954 7.93297 12.0633
H 7.52599 7.66307 10.4571
O 9.08807 4.55887 12.7728
H 9.7315 4.88333 12.0795
H 9.36451 3.64988 13.0847
O 7.33145 11.9596 -11.0038
H 6.95546 12.422 -11.8067
H 6.7133 12.084 -10.2276
O 9.43747 10.3874 -11.7845
H 9.39351 10.6391 -12.7513
H 8.59683 10.6761 -11.3263
O -1.45782 -15.0243 -6.45451
H -1.42704 -14.0718 -6.15184
H -2.26035 14.9284 -7.0345
O -9.56123 1.49182 9.80246
H -9.81249 1.87224 10.6925
H -9.43371 0.50356 9.88638
O -12.5747 9.84639 3.22016
H -12.399 9.94065 4.20004
H -13.5493 9.98177 3.04181
O 1.40075 -7.65437 11.2513
H 1.98833 -8.28287 10.7417
H 1.95286 -6.90614 11.6191
O 1.68063 -2.74294 -7.52977
H 2.52865 -2.74045 -8.05969
H 1.89208 -2.88728 -6.56312
O -14.8123 6.59857 3.90309
H -14.0003 6.66804 3.32365
H -14.5381 6.35492 4.83336
O 11.5975 -8.37796 10.8416
H 12.3007 -7.8598 10.3547
H 10.8086 -7.78824 11.0145
O 5.62476 0.770268 0.530954
H 5.7034 0.722664 1.5267
H 5.11432 -0.0228072 0.198626
O 8.30045 8.18183 5.07626
H 8.84603 8.98089 4.82363
H 8.89625 7.48308 5.47215
O 4.65605 -3.8661 -1.30628
H 4.62115 -4.54878 -2.03613
H 4.69827 -4.32745 -0.420095
O 9.93921 -10.4756 9.37751
H 10.8419 -10.1494 9.658
H 9.98727 -10.8261 8.44219
O 0.146674 13.1115 7.33893
H 0.0270563 13.2498 6.35581
H 0.248704 13.998 7.79026
O -10.0041 -1.31324 4.41249
H -10.4327 -1.35781 5.31486
H -10.3541 -2.05488 3.84026
O -0.851003 3.45704 8.93145
H -0.557512 3.8424 9.80627
H -1.02237 4.19761 8.28172
O 8.43181 6.40908 -14.7994
H 7.99201 5.90803 -14.0541
H 8.72987 5.7649 14.5887
O 4.01684 -8.48994 1.16247
H 4.39379 -8.88917 0.326719
H 3.66529 -9.21826 1.75063
O 13.6163 -13.9317 -9.26395
H 13.1128 -13.142 -8.91331
H 14.1359 -14.3526 -8.52045
O -4.32296 11.9084 -10.6863
H -3.36164 11.6648 -10.5579
H -4.88455 11.082 -10.6454
O 5.08786 3.88217 -13.3765
H 4.73723 4.18731 -12.4911
H 6.00347 4.25779 -13.5198
O 8.8344 -5.64174 0.343386
H 8.4956 -5.35551 -0.552853
H 8.08233 -6.03085 0.875311
O -8.30022 4.35407 7.0527
H -8.9878 5.07958 7.02415
H -8.16042 4.06443 7.99955
O -4.44837 -0.60851 3.91308
H -3.76776 -1.05425 3.33166
H -4.22754 0.36289 4.00012
O -14.7928 3.22738 -8.51729
H 14.4657 3.74034 -8.3141
H -14.3771 3.58468 -9.35369
O 7.27497 -12.7293 -6.06626
H 7.06186 -11.9928 -6.70828
H 7.97743 -13.322 -6.4602
O 9.53206 14.2303 -15.0183
H 8.58589 13.947 14.9178
H 10.1512 13.5889 14.6212
O 7.50922 3.99957 -10.3485
H 7.97928 3.46555 -9.64573
H 6.74933 4.50028 -9.93394
O -8.35644 -2.00701 12.2369
H -8.61309 -1.98653 11.2707
H -9.18147 -2.0542 12.8
O -2.74441 -7.99762 -9.91957
H -2.22676 -7.58399 -10.6685
H -3.2825 -8.76425 -10.2699
O -6.98557 8.70957 11.6635
H -7.15235 9.44976 11.0121
H -7.68131 8.00069 11.5477
O 14.4637 -12.2342 0.862532
H -14.8002 -12.1731 1.41901
H 13.6887 -11.8678 1.37731
O -12.2896 -14.1428 10.3384
H -13.1191 -14.5939 10.6676
H -11.5001 -14.4826 10.8496
O 3.04548 1.97506 11.9974
H 2.72522 2.81665 11.5625
H 3.81155 2.18453 12.605
O -9.72596 -13.5346 -9.2277
H -9.12806 -14.0417 -8.60701
H -10.5919 -14.0241 -9.33052
O 2.52071 -12.3915 -6.0153
H 2.31783 -12.8093 -6.90085
H 3.43225 -12.6725 -5.71516
O 13.3385 9.91973 12.3725
H 12.994 9.00998 12.6041
H 12.6515 10.4096 11.8358
O -4.17135 -13.7623 6.48823
H -3.38688 -13.2143 6.77843
H -3.84849 -14.6131 6.07365
O 11.6443 -13.2248 13.5154
H 12.1089 -13.5061 14.3551
H 10.6723 -13.0839 13.7035
O -2.33723 -5.13127 11.973
H -1.66581 -5.77246 12.3445
H -3.25882 -5.48824 12.1253
O -2.08971 9.65731 2.27397
H -2.25313 10.5092 1.77651
H -2.71713 9.59913 3.05045
O -7.93338 -13.0462 2.62949
H -8.68933 -13.3685 2.05974
H -8.12219 -13.2625 3.58737
O -2.57072 -4.75615 -0.885436
H -2.5039 -5.3059 -1.71806
H -2.85091 -3.8258 -1.1219
O 11.379 4.44289 2.11221
H 10.9642 4.09731 2.95391
H 11.0075 3.94487 1.32867
O -10.3885 -4.0927 -14.1791
H -10.0385 -4.72535 -13.4883
H -9.89195 -4.22739 -15.0366
O -10.7557 13.5675 2.92501
H -11.087 14.4962 2.75809
H -10.3569 13.1998 2.08493
O 0.0640498 -1.96476 -10.0442
H 0.726795 -2.10959 -9.30954
H -0.563149 -1.22957 -9.78717
O 10.3133 14.2012 -12.3341
H 10.0575 14.3581 -13.288
H 11.2719 14.4525 -12.2004
O -1.49573 14.8405 14.458
H -1.77266 13.9189 14.186
H -0.892535 14.786 -14.8387
O 9.03241 -14.3 -9.76679
H 8.12044 -13.9195 -9.9203
H 9.29883 -14.8553 -10.5546
O 7.61968 2.77674 -2.32612
H 6.80434 2.57888 -1.78203
H 7.93389 3.70561 -2.13005
O 3.89924 0.954127 9.47868
H 3.68104 1.74373 10.0521
H 4.88708 0.79903 9.48689
O -8.31286 6.3964 -5.83758
H -9.28825 6.57964 -5.71506
H -8.17316 5.41658 -5.98039
O 1.12642 4.02304 -1.59855
H 1.50511 4.69419 -0.961278
H 1.79296 3.83535 -2.31997
O -14.9615 5.20672 10.6264
H 14.7626 4.4728 10.0558
H 14.792 5.10393 11.5616
O 4.53521 8.72822 -5.26898
H 5.01227 8.7332 -6.14782
H 5.099 9.18531 -4.5811
O 11.4635 -3.926 -10.1047
H 11.1597 -2.97981 -9.9934
H 12.455 -3.97412 -9.98376
O -4.40141 8.01026 11.0406
H -4.10077 7.088 11.2835
H -5.38475 8.09362 11.202
O -8.23838 12.3629 -7.56303
H -9.00822 12.9402 -7.29107
H -8.28734 12.1831 -8.54549
O -6.85569 -14.2857 -5.00104
H -7.19998 -14.3736 -4.06633
H -5.86731 -14.4374 -5.00784
O -3.60344 -1.92836 12.204
H -2.86663 -2.38928 12.6986
H -3.41494 -1.95726 11.2224
O 12.7046 10.0097 5.98777
H 12.5421 9.50337 6.83465
H 13.5454 10.5438 6.07488
O 8.21816 -6.58555 -4.38258
H 7.43526 -7.06365 -3.98454
H 8.50611 -5.8497 -3.76973
O -7.97171 6.69077 9.39547
H -7.70128 5.75794 9.63349
H -8.44561 6.686 8.51492
O -0.247344 -6.53056 8.98399
H -0.312337 -5.54552 8.82453
H 0.625119 -6.73988 9.42553
O -1.59579 3.62993 2.82236
H -1.02773 4.37087 3.1805
H -1.22369 2.75085 3.1202
O 5.36864 -11.1766 6.68226
H 4.97582 -12.0406 6.36738
H 6.24541 -11.0234 6.22646
O -6.7429 8.0114 -0.781891