2593
Atoms. Timestep: 1000000
O -3.72583 -11.2091 3.49506
H -3.22753 -10.3796 3.74731
H -4.52703 -11.309 4.085
O -2.07297 -9.56018 -0.724753
H -1.07792 -9.46618 -0.693418
H -2.49799 -8.69114 -0.471652
O -3.7406 8.07676 1.04051
H -4.68335 8.39269 0.933947
H -3.72518 7.26444 1.62346
O 12.5561 -2.44884 -5.64887
H 12.2596 -3.39652 -5.76684
H 13.5111 -2.43284 -5.35277
O -0.856778 -14.5458 -10.688
H -0.407348 14.5129 -10.2285
H -1.66496 -14.2721 -10.1666
O -5.5195 -10.5257 -3.4485
H -5.70049 -10.749 -4.40627
H -5.64965 -9.54468 -3.30464
O 4.20766 4.11543 13.6698
H 4.96865 4.70495 13.9406
H 3.63918 4.59191 12.9992
O 0.254243 -3.24285 12.7124
H -0.686421 -3.40691 13.0094
H 0.493949 -3.89211 11.9906
O -8.42503 9.13548 -12.4639
H -8.53478 9.38484 -13.4261
H -8.42731 9.96314 -11.9027
O 11.1895 -0.119517 -9.15381
H 10.7289 -0.843433 -8.6402
H 10.5193 0.566793 -9.43631
O 0.318353 -6.15387 -13.6044
H 1.1996 -6.37895 -14.02
H -0.252759 -5.67643 -14.2721
O 8.70588 -8.23941 11.8338
H 7.75518 -7.94037 11.752
H 9.16102 -8.14925 10.948
O 13.2051 -7.53142 -10.3434
H 12.3431 -7.81542 -10.7633
H 13.8428 -8.30163 -10.3379
O 13.181 -9.48973 10.4055
H 12.8053 -10.4155 10.4466
H 13.5206 -9.22741 11.3087
O -11.5229 11.114 11.4691
H -12.244 11.5788 11.9828
H -11.7459 10.1428 11.386
O -3.67095 -13.3655 -9.27432
H -3.63524 -12.4022 -9.00828
H -3.60456 -13.9394 -8.45812
O 7.68072 12.0963 -2.95392
H 7.58022 13.0882 -3.03158
H 7.26185 11.7846 -2.10108
O -4.65296 8.13758 -5.98996
H -5.02224 9.01768 -5.69161
H -3.82428 7.93036 -5.47007
O -5.36072 -1.87798 -6.05558
H -6.10065 -1.34529 -5.64488
H -5.62892 -2.16792 -6.97424
O 7.78938 -1.72906 14.4925
H 8.72582 -1.62389 14.8271
H 7.62316 -2.68805 14.2631
O 14.7132 -2.40857 10.9538
H 14.1849 -1.61026 10.6647
H 14.7264 -2.45566 11.9526
O -11.2422 -8.57859 7.05736
H -11.0939 -8.10015 7.92284
H -12.1854 -8.90812 7.01604
O 11.6274 5.51429 -14.7248
H 10.9927 5.27521 -13.9901
H 11.9394 6.45643 -14.6024
O 2.76535 -0.715417 5.8566
H 3.21827 -1.58594 5.66428
H 1.88845 -0.682856 5.37709
O -4.78622 8.39658 4.03209
H -4.16777 8.71663 4.74975
H -4.44664 7.53263 3.66032
O 1.71941 9.32274 10.4978
H 0.933521 8.70447 10.5061
H 1.75687 9.82572 11.3613
O 1.14573 -5.40502 -1.12087
H 1.30634 -5.63865 -2.07981
H 1.90973 -5.73318 -0.565398
O 6.10217 -9.31272 -1.26551
H 5.91818 -8.37029 -0.986379
H 5.26964 -9.85792 -1.16756
O -0.0533642 -11.1429 8.46975
H 0.315372 -11.4107 9.35982
H -0.490256 -11.9324 8.0387
O 6.6217 -2.43411 10.5975
H 7.20107 -2.34449 9.78738
H 6.11674 -1.58317 10.7419
O -7.64191 -1.43418 8.87023
H -7.04041 -0.726221 9.24028
H -8.01206 -1.13142 7.99201
O 0.171267 13.9227 -8.5424
H 0.00118386 14.0679 -7.56776
H 1.11052 13.6054 -8.67319
O 8.42103 10.4551 11.1942
H 7.78324 11.075 11.6512
H 8.96818 10.968 10.5328
O -7.63262 14.4481 -10.1836
H -7.5021 13.9529 -11.0425
H -6.77644 14.8939 -9.92248
O -9.46034 12.8683 12.6131
H -10.1647 12.2032 12.3651
H -9.58168 13.7 12.0714
O -5.53777 -1.66317 14.5498
H -5.56048 -2.5765 14.1433
H -5.44108 -0.978945 13.827
O 8.2388 3.02621 14.1562
H 8.99924 3.00861 14.8054
H 8.43572 3.68476 13.43
O 6.25372 -3.93174 -9.59445
H 5.94614 -4.18063 -8.67609
H 5.69475 -3.17819 -9.94036
O -13.1251 12.2425 9.28996
H -12.5774 11.7583 9.97223
H -12.7431 12.0809 8.38008
O 1.75941 -0.611665 -6.81945
H 2.49882 -0.0297562 -6.48094
H 1.11805 -0.0595738 -7.35217
O 6.3209 6.1344 3.98361
H 7.0011 5.40535 4.05949
H 5.42425 5.783 4.25282
O -10.4476 5.62197 -3.60296
H -10.3251 6.1168 -2.74269
H -10.1841 6.21108 -4.36679
O -5.94935 -10.7241 -13.6842
H -6.84317 -11.1669 -13.7545
H -5.23528 -11.3698 -13.9545
O 0.647019 13.9137 -4.93603
H 0.618696 14.7939 -5.40975
H 1.59817 13.661 -4.75879
O -1.93994 5.90622 -1.9118
H -2.33336 6.78682 -1.6478
H -2.44897 5.5328 -2.68728
O -7.20197 2.11805 10.3839
H -7.40527 2.166 9.40601
H -6.75 1.24975 10.5882
O 2.70001 -0.998222 -13.8035
H 2.24821 -0.772819 -12.9403
H 2.7301 -1.99156 -13.9145
O -9.3235 -11.939 -13.3968
H -9.19334 -12.5659 -14.165
H -10.2952 -11.8928 -13.1653
O 8.52161 7.41793 -14.7554
H 9.15944 7.58312 14.3172
H 8.85111 7.87918 -13.9316
O -7.44953 -4.63554 -13.6908
H -7.14265 -5.0122 -14.5648
H -8.39813 -4.33029 -13.7741
O -7.6182 -9.68535 6.44394
H -7.84205 -10.3693 7.13824
H -8.249 -9.77408 5.67312
O 0.495471 -10.2082 -7.32182
H -0.359375 -9.84881 -6.94768
H 0.99643 -10.6914 -6.60385
O 1.60693 -0.744997 -11.2929
H 0.690618 -0.344911 -11.2774
H 1.93277 -0.868076 -10.3556
O -13.167 12.2607 4.62785
H -13.4981 11.3518 4.37443
H -13.6329 12.9513 4.07472
O 8.18895 10.7426 1.73371
H 7.97098 9.88223 1.27299
H 7.82389 11.507 1.20237
O -13.5695 -3.29718 -11.4985
H -12.7451 -3.77739 -11.7981
H -14.1031 -3.89337 -10.8988
O 0.244059 -13.4605 -6.12633
H 0.52769 -12.5018 -6.14867
H -0.585576 -13.5498 -5.57528
O 3.96246 9.40441 3.87286
H 4.02359 8.93325 4.75275
H 4.13277 10.3809 4.0051
O 4.01859 8.08221 -5.17765
H 3.55479 7.59324 -4.4389
H 3.89939 9.06704 -5.0518
O -3.98874 5.76352 10.7291
H -3.40483 5.34527 11.4248
H -3.64158 5.53299 9.82008
O -4.74455 -9.15072 -0.931951
H -5.11583 -8.51479 -1.60848
H -4.20424 -9.85278 -1.39575
O 9.16041 3.87259 1.8037
H 8.83945 4.01895 2.73938
H 8.77105 4.5721 1.20451
O -13.4855 -6.84155 1.89771
H -13.8587 -7.28222 2.71406
H -14.0222 -7.11146 1.09832
O 12.2233 4.90136 -5.78085
H 12.0665 5.39915 -4.92788
H 12.513 3.96709 -5.57309
O 0.96085 -7.54483 -8.42721
H 0.925602 -7.75596 -9.404
H 0.447484 -8.23566 -7.91815
O 0.0786495 -2.43014 7.27915
H 0.421254 -1.8771 6.51974
H 0.696123 -2.34206 8.06075
O -10.4741 -3.65169 4.40113
H -9.83825 -4.39973 4.21118
H -10.5946 -3.09913 3.57645
O -7.30072 12.4321 -8.43727
H -7.43102 13.2976 -8.92077
H -7.89835 12.4046 -7.636
O -8.93736 6.74481 -6.60073
H -8.20223 6.83311 -5.92862
H -8.65277 6.11733 -7.32545
O -11.5772 5.92252 2.8414
H -11.1673 5.01851 2.96245
H -11.8096 6.05685 1.87812
O -9.22596 0.776829 -13.6453
H -9.60745 1.69661 -13.737
H -8.30914 0.834129 -13.2502
O -8.40917 8.24224 -9.33344
H -9.2481 8.50961 -8.85947
H -8.15973 8.94999 -9.99437
O 7.86402 -5.73447 -7.65347
H 7.48052 -5.46473 -8.53671
H 7.30943 -6.46716 -7.25909
O -4.85053 11.0206 2.92452
H -4.62961 10.0751 3.16351
H -5.80748 11.0776 2.64004
O -14.2076 10.1741 -14.7424
H -13.6517 9.49075 14.6091
H -13.8164 10.3553 -13.8402
O -14.4762 1.87916 1.48587
H -13.8051 2.46438 1.03089
H 14.896 1.30093 0.807062
O -12.7138 -5.05364 5.26826
H -13.5628 -4.52935 5.33242
H -11.9685 -4.44822 4.98897
O 9.96138 9.33933 3.44061
H 9.24773 9.94446 3.08784
H 10.4461 9.79529 4.18702
O -14.7146 1.20679 12.4086
H -14.3607 1.23377 13.3435
H -13.9513 1.15578 11.7646
O -5.83303 7.71238 10.7365
H -5.08353 7.06041 10.622
H -6.70079 7.21771 10.7838
O -1.53372 -13.8991 -3.90935
H -0.732367 -14.4272 -3.62843
H -2.22198 -13.9268 -3.18446
O -6.92697 -5.52503 8.65015
H -7.62606 -5.00596 8.15844
H -7.27187 -6.44205 8.8503
O -7.63566 8.3687 3.66479
H -7.86092 9.33649 3.77702
H -6.64661 8.24519 3.74521
O -0.907545 7.44422 3.91815
H -1.0598 6.58165 3.43573
H -1.28457 8.19808 3.38012
O -12.8807 1.30751 -5.45019
H -13.1615 2.15119 -5.90768
H -13.2232 1.30791 -4.51071
O 14.0178 -14.5235 -7.85306
H 14.6714 -13.7856 -7.68478
H 14.477 14.4191 -7.74871
O 7.27249 14.7592 -3.02104
H 7.38195 -14.151 -3.41021
H 7.01042 14.8355 -2.05904
O -9.24433 -2.03239 -7.45717
H -9.46038 -1.31574 -6.7941
H -8.7015 -1.6446 -8.20208
O -5.44215 -14.8396 -5.17837
H -5.71578 14.5998 -4.29713
H -6.25371 -14.6897 -5.74303
O -10.7139 -4.32057 -3.00329
H -9.85789 -3.82653 -3.15553
H -10.527 -5.30123 -2.94565
O -3.88379 8.2421 8.96667
H -3.16934 8.61729 9.5572
H -4.71245 8.08582 9.5041
O 1.60161 -1.07718 11.7081
H 2.13357 -0.527173 12.3518
H 1.27482 -1.90363 12.1664
O -13.4051 12.3263 13.1558
H -13.4253 13.2151 13.6136
H -14.3356 11.9672 13.0839
O -14.1244 8.20278 5.97434
H -14.088 7.68538 6.82928
H -14.507 7.62663 5.25211
O 8.16993 -13.2234 9.02006
H 7.58528 -12.8263 8.31264
H 8.40064 -12.5219 9.69429
O -1.26964 11.2129 -10.8603
H -1.02858 11.0791 -9.89905
H -2.26343 11.172 -10.9635
O -10.2157 7.40491 -1.55688
H -9.21787 7.42024 -1.4931
H -10.5928 8.19454 -1.07291
O 9.00679 7.73833 -11.7131
H 8.01457 7.82154 -11.8055
H 9.26581 7.88162 -10.758
O 0.654825 -11.4298 10.99
H -0.167565 -10.8864 11.1583
H 1.40646 -11.0785 11.5482
O -8.12926 3.82939 4.77988
H -8.83585 4.21109 5.37567
H -7.23341 3.94493 5.20889
O -4.25292 -12.0628 8.08682
H -4.74961 -12.8809 7.79727
H -4.51885 -11.29 7.51054
O 13.7891 11.2661 9.40079
H 13.7869 10.3112 9.69747
H 14.6805 11.6742 9.59742
O 12.4493 1.46951 -1.36544
H 12.4133 2.46665 -1.43134
H 12.1089 1.06681 -2.2151
O 5.53401 13.9102 14.8603
H 6.30078 14.5332 -14.8102
H 5.08739 13.7091 -14.0926
O -8.30728 6.83405 11.0496
H -8.22428 6.09221 11.715
H -8.39842 7.70544 11.5316
O -4.60351 12.7857 13.0195
H -4.23915 11.9213 12.6733
H -5.49517 12.9624 12.6028
O 10.2735 12.2917 10.0575
H 11.0121 12.8844 9.73639
H 10.1369 11.5463 9.4051
O 6.53581 0.281948 -13.908
H 6.18063 0.953793 -14.5579
H 6.84207 -0.531121 -14.403
O -1.69039 9.50312 2.14563
H -0.915024 9.5208 1.51441
H -2.46166 9.03617 1.71316
O 5.18376 1.28864 9.14842
H 5.25403 2.28385 9.21596
H 4.27628 1.04082 8.80931
O -11.982 6.09592 -0.00681246
H -11.2262 6.40241 -0.585454
H -12.7964 6.6409 -0.205891
O 12.8871 7.45764 11.8759
H 13.479 7.39287 12.6793
H 12.224 6.70925 11.8893
O -14.0692 -7.67982 4.4026
H -13.2891 -7.05439 4.41625
H -14.0134 -8.29937 5.18554
O -1.68917 0.709978 5.78872
H -1.65825 0.760358 6.78694
H -1.13389 1.44543 5.40051
O -11.5959 0.579815 -11.8539
H -10.8729 -0.0432696 -12.1521
H -12.237 0.730975 -12.6063
O -7.35635 2.18532 0.437105
H -6.45427 1.75502 0.469471
H -7.32693 2.97551 -0.175004
O -12.7669 1.21204 14.5486
H -12.6349 2.18257 14.7501
H -12.0107 0.883212 13.983
O 3.34948 -6.15299 -11.7613
H 3.87018 -5.4368 -12.2259
H 3.34818 -5.97862 -10.7766
O 6.1429 11.7728 -10.4247
H 5.76986 11.586 -11.3334
H 6.37423 12.743 -10.3523
O -2.67001 -1.62798 -14.4622
H -3.60081 -1.99207 -14.4936
H -2.16302 -2.07249 -13.7237
O -0.496832 5.80105 -10.7848
H 0.372221 5.31322 -10.7029
H -1.25282 5.15801 -10.6626
O 8.47558 14.0152 7.5291
H 8.52043 -14.8753 7.8829
H 8.81719 13.9979 6.58945
O 4.07926 -12.2122 1.3399
H 4.19752 -11.6149 2.13309
H 4.01475 -11.6567 0.510958
O 12.1682 -10.7978 -7.6587
H 11.6698 -10.1376 -7.09675
H 11.8806 -10.7081 -8.61221
O -0.91435 12.9501 9.19006
H 0.0628361 12.7451 9.24479
H -1.32119 12.8798 10.1008
O 6.48219 -13.6111 1.45308
H 7.05944 -13.063 0.847776
H 5.57025 -13.2038 1.50272
O 13.37 2.48432 -5.22292
H 14.1798 2.27097 -4.67646
H 13.4195 1.99886 -6.09574
O 10.8575 2.04958 13.1519
H 9.94382 1.92006 12.7668
H 10.796 2.0923 14.1491
O -11.1174 2.90194 2.7264
H -11.6104 2.34287 3.39297
H -10.4035 2.35189 2.29305
O 14.3188 7.6256 1.81302
H 14.8839 7.19592 2.51728
H 13.3802 7.28893 1.88751
O -9.68296 9.93721 14.4463
H -10.4409 9.28566 14.4157
H -9.0488 9.74631 13.6971
O -5.93575 14.5246 -0.613924
H -5.81712 -14.3138 -0.499966
H -6.24028 14.3311 -1.54653
O 13.2628 1.85655 -13.8521
H 13.854 1.24279 -13.3289
H 13.771 2.68322 -14.0936
O 12.0736 -14.5327 11.9742
H 12.1005 14.667 11.1941
H 12.2863 14.789 12.8119
O -11.2108 6.49598 9.60092
H -10.7285 7.24891 9.15323
H -10.5654 5.75882 9.80091
O 13.9461 -4.87488 -11.1006
H 13.794 -5.59654 -10.4253
H 14.1781 -5.28657 -11.9819
O 0.218304 10.6621 5.58962
H 0.470978 10.9378 4.66222
H 1.02031 10.2902 6.05694
O -12.1771 6.06607 -12.357
H -12.1451 5.33182 -11.6789
H -12.9846 6.63344 -12.196
O 8.70552 -1.02549 9.13469
H 8.92518 -1.92914 8.76712
H 8.93255 -0.997432 10.1081
O 0.710928 -5.27676 10.7436
H 0.124451 -4.91529 10.0188
H 0.217576 -5.98398 11.25
O -0.857322 10.1661 -3.54145
H -0.999323 11.1077 -3.23608
H -0.0238368 9.80286 -3.12519
O -13.6055 1.83337 -2.85814
H -13.3966 2.81067 -2.89265
H -13.2684 1.45066 -1.99801
O -11.4894 14.728 3.56891
H -12.4383 -14.7815 3.55854
H -11.4189 13.8665 3.06615
O 4.89183 -1.65411 14.036
H 4.98593 -1.49515 13.0533
H 4.1867 -1.04897 14.4055
O -2.82871 -4.39253 4.22841
H -2.71539 -3.9414 5.11361
H -2.55303 -5.35069 4.30492
O 1.29347 -4.45712 -5.92211
H 1.32841 -4.44219 -6.92136
H 0.531535 -3.89149 -5.60676
O 2.58979 -6.27346 -4.09181
H 2.07873 -7.07403 -3.77901
H 2.18612 -5.9309 -4.94012
O 1.58382 9.41058 -2.46752
H 2.11945 10.1522 -2.0638
H 2.18922 8.64801 -2.69538
O -2.13161 -9.67828 -10.3095
H -1.74189 -9.354 -11.1714
H -1.73228 -10.5648 -10.0758
O -9.07504 10.7676 5.22222
H -8.50082 10.8623 6.03539
H -10.0172 10.5798 5.49957
O -11.6224 -7.9952 11.6352
H -12.0433 -8.90223 11.6326
H -12.0262 -7.44235 12.364
O -4.5064 -10.5442 -9.2956
H -5.25026 -9.94384 -9.58923
H -3.63109 -10.1554 -9.58303
O 12.4676 13.788 9.51886
H 12.5851 14.2846 8.65886
H 13.1987 13.1128 9.61649
O 4.86713 13.358 1.49398
H 5.42471 12.9309 2.20577
H 5.17949 14.296 1.34386
O 6.87073 -8.96561 -12.2374
H 7.30814 -8.19186 -12.6956
H 6.16556 -8.62843 -11.6137
O 3.58408 14.0067 -1.77949
H 3.03897 13.453 -1.15011
H 3.71579 13.5064 -2.63521
O 4.87755 -6.76879 3.45743
H 5.70609 -6.27108 3.20103
H 4.95894 -7.72269 3.16865
O -11.1932 -9.44215 -1.27585
H -10.9384 -10.1559 -0.623472
H -10.7759 -9.63739 -2.16337
O 3.67803 -11.0142 11.4916
H 4.14275 -10.9535 12.375
H 3.64037 -10.1074 11.0719
O -5.62146 -4.02471 12.6216
H -6.08273 -4.88468 12.8398
H -5.63564 -3.88058 11.6321
O -4.62383 -1.07314 -10.396
H -4.28341 -1.76104 -9.75506
H -4.88466 -1.51665 -11.2535
O 4.46017 4.64698 -10.2919
H 4.44739 5.64662 -10.2696
H 4.7357 4.33745 -11.202
O 14.1654 3.85369 3.11012
H 13.5536 3.36074 3.7287
H 14.6791 3.19799 2.55687
O 14.7733 -2.34948 14.0479
H 14.0564 -1.65255 14.0307
H -14.4683 -2.20809 14.8479
O -1.29307 -8.80664 -5.96877
H -1.59159 -8.34306 -6.80298
H -1.49797 -8.23192 -5.17653
O 14.8774 -4.47408 1.84706
H 13.9316 -4.78031 1.73874
H -14.3716 -5.25239 2.0974
O -5.35861 -5.66423 -1.3805
H -5.97017 -5.6073 -0.591393
H -4.9719 -4.76139 -1.5683
O 3.39712 1.48242 -12.407
H 3.56689 0.791506 -13.1097
H 3.94263 2.29742 -12.6023
O 1.03578 -4.04305 -11.4208
H 1.53803 -3.24066 -11.7431
H 1.02407 -4.73932 -12.1385
O 4.40078 -10.5226 14.7216
H 4.40353 -11.0845 -14.276
H 5.04885 -9.76859 14.8287
O 1.60912 6.21506 -8.53604
H 1.50084 6.83877 -9.31012
H 1.66763 5.27478 -8.87128
O 9.24767 -6.74704 6.80068
H 9.72272 -6.30461 6.04008
H 8.31554 -6.3906 6.86404
O 8.36349 12.8266 -5.82326
H 8.90866 13.5523 -6.24277
H 8.73848 12.6061 -4.92286
O -6.73896 4.5893 -0.543367
H -6.0881 4.24484 -1.21988
H -6.24773 5.10159 0.161046
O -9.0765 2.81145 -4.16438
H -9.80507 3.49065 -4.07596
H -8.2615 3.24501 -4.54875
O -14.7799 0.120151 -0.607378
H 14.6351 -0.782911 -0.47886
H 14.4055 0.708964 -1.1018
O -8.86068 -9.6295 -10.5103
H -8.46642 -10.5477 -10.5476
H -9.68863 -9.59929 -11.0702
O 0.0911044 -11.7793 4.11887
H 0.788039 -12.1739 3.52014
H -0.787573 -12.2243 3.94602
O 9.95739 -4.81547 -0.914401
H 10.8966 -4.99783 -1.20519
H 9.44123 -4.42815 -1.67828
O 0.776845 -4.93864 3.49339
H 0.149903 -4.23454 3.16003
H 0.746092 -4.96635 4.4925
O -9.17852 -7.12049 11.832
H -8.86281 -7.0633 10.8849
H -10.0948 -7.52039 11.8543
O 3.92008 1.29017 4.39518
H 3.36995 0.684122 4.96964
H 4.8739 0.990368 4.41213
O -8.83382 13.5367 4.03505
H -9.51195 14.265 3.93651
H -9.09533 12.938 4.79208
O -3.60693 4.14327 -12.1406
H -4.4747 3.70049 -11.915
H -3.15179 3.63253 -12.8699
O -7.35434 7.13778 -1.66411
H -7.15817 6.2367 -1.27743
H -6.88504 7.83972 -1.1284
O -13.2562 3.67039 -14.0684
H -13.0329 3.87362 -13.1151
H -14.2194 3.8794 -14.237
O -6.69994 -13.5408 -12.8521
H -5.74672 -13.8101 -12.715
H -7.09146 -13.2453 -11.9807
O -13.4962 -7.73991 -11.5332
H -14.076 -8.33785 -10.9798
H -14.0638 -7.23083 -12.1802
O -12.1961 -14.9055 -0.663971
H -12.9179 -14.2269 -0.527738
H -11.9834 14.4792 0.208392
O 4.36182 -12.2505 -5.81166
H 4.32456 -12.8257 -4.99447
H 4.68665 -12.7929 -6.58641
O 13.734 -8.94646 -14.0894
H 12.7608 -9.17043 -14.1399
H 14.2138 -9.65873 -13.5771
O -2.95689 -14.3555 0.843021
H -2.86614 -13.3956 1.10807
H -2.91792 -14.4313 -0.15331
O -11.9152 -6.55318 -9.60475
H -12.2838 -7.28773 -10.1744
H -12.6531 -5.92982 -9.3461
O -5.72577 -2.17491 1.20247
H -4.94301 -2.79556 1.15743
H -6.39862 -2.53346 1.84951
O -8.2556 -12.5292 -2.99766
H -8.63799 -12.7429 -2.09873
H -7.47012 -11.9199 -2.88948
O 14.8548 0.978249 5.44969
H 14.7023 -0.000583229 5.31337
H 14.5348 1.24185 6.35967
O -11.741 14.0043 -3.56638
H -11.9007 14.3019 -2.62518
H -11.2658 14.7269 -4.06833
O 6.60647 1.26899 -4.76099
H 6.15047 2.15471 -4.67435
H 7.56342 1.41016 -5.01448
O 11.219 -4.72479 3.8812
H 11.5598 -5.22465 4.67742
H 11.4827 -3.76294 3.9536
O 3.32728 8.46029 14.2523
H 2.40765 8.31591 13.8871
H 3.65383 9.36664 13.9843
O -6.26383 0.588277 -1.82141
H -5.65746 0.934052 -1.10538
H -6.62977 -0.301103 -1.5475
O 0.642513 11.1886 12.6035
H 0.696194 11.9544 13.2442
H -0.104308 11.3461 11.9575
O 0.015146 7.93032 6.61676
H -0.511684 7.87535 5.7686
H 0.558997 8.76947 6.61752
O -7.99326 10.0812 -0.87429
H -8.96671 10.021 -1.09499
H -7.66113 11.0016 -1.08029
O -11.2017 8.59081 -11.8108
H -11.5918 7.84674 -12.3531
H -10.2116 8.61954 -11.9477
O 2.75825 -3.87019 -13.8553
H 3.7315 -3.92227 -14.079
H 2.23216 -4.38043 -14.5356
O 9.47035 2.56949 -7.70079
H 9.23415 1.83292 -7.06706
H 9.49051 2.21215 -8.63452
O 10.5192 -9.06025 -6.47219
H 9.78356 -9.32731 -7.09463
H 10.1432 -8.50462 -5.73069
O 13.0379 10.5353 6.6952
H 13.3428 10.9972 7.52806
H 12.8584 9.57209 6.89493
O 8.7661 0.242995 -12.5291
H 7.83595 0.110963 -12.8716
H 9.29939 -0.588659 -12.6837
O -4.52645 5.94654 -13.9512
H -5.06552 6.52073 -13.3351
H -3.92831 5.35157 -13.4144
O 9.04898 -8.67241 1.16034
H 8.16331 -8.88812 1.57144
H 9.78115 -8.93914 1.78701
O -6.98257 -9.63693 10.5887
H -6.73674 -9.7382 11.5527
H -6.30948 -10.1114 10.0214
O -12.9106 4.3588 -3.79023
H -13.0774 4.20782 -4.76455
H -11.9775 4.69378 -3.65986
O -7.62744 -2.86667 3.37764
H -7.81138 -2.17865 4.0796
H -8.31611 -3.58973 3.43108
O 11.57 5.13913 12.3497
H 11.5128 5.25538 13.3412
H 12.2004 4.3925 12.1374
O -5.73498 10.0163 -4.42967
H -4.90943 10.2916 -3.93713
H -6.47935 9.87159 -3.77781
O -4.75053 12.712 -12.0517
H -5.52356 12.2439 -12.4798
H -4.59011 12.3276 -11.1426
O -12.6869 0.618992 10.5578
H -12.8037 -0.233094 10.0477
H -12.1538 0.441774 11.385
O -4.17914 -6.58482 13.9024
H -5.08948 -6.17496 13.9592
H -4.13136 -7.18063 13.1007
O 12.4254 11.9421 -7.04237
H 12.2935 12.445 -7.89655
H 11.85 11.1243 -7.04492
O -12.9454 -4.99603 -4.57525
H -12.535 -5.76585 -5.06406
H -12.2581 -4.57066 -3.98642
O -6.98061 7.92507 14.7278
H -6.98671 7.87281 -14.0984
H -6.04197 8.04966 14.4063
O -12.4338 3.38757 0.529592
H -12.4262 4.32962 0.19428
H -11.8753 3.32363 1.35659
O 14.0482 0.0651 10.0194
H 14.2244 0.522766 10.8908
H 14.4568 0.594817 9.27613
O 2.10454 -7.26364 3.24187
H 3.0314 -7.0517 3.55162
H 1.53454 -6.44497 3.3113
O -8.59159 3.44271 -11.2163
H -8.90153 2.69098 -10.6343
H -9.10335 3.43196 -12.0754
O 8.27043 7.29758 7.6689
H 8.1396 7.64105 6.73893
H 7.86846 7.94016 8.32117
O 10.0326 9.8973 -13.9257
H 10.8595 9.37823 -13.7095
H 9.70553 9.63977 -14.8349
O -8.89699 -3.92999 7.41775
H -8.39222 -3.15525 7.03706
H -9.87908 -3.76321 7.33045
O 14.7743 -14.6382 0.990553
H -14.879 14.2584 0.660223
H 14.7883 -14.002 0.219211
O 1.45035 12.0013 3.00683
H 2.42596 12.1914 3.11631
H 0.918388 12.725 3.4464
O -9.93848 0.296297 -5.6763
H -10.073 0.0768773 -4.71001
H -10.2963 1.21116 -5.86327
O 6.61655 -5.07541 -12.0204
H 6.41037 -4.55665 -12.85
H 6.49729 -4.48671 -11.2209
O 11.4366 7.72985 1.19563
H 10.903 8.13248 1.93931
H 10.8838 7.70787 0.362668
O 8.80819 4.48319 12.007
H 9.78993 4.66892 12.0475
H 8.35065 5.21659 11.5043
O 10.2853 -1.43714 -2.80786
H 10.7929 -1.64132 -1.97085
H 10.8868 -0.972185 -3.45742
O -11.7401 -2.12732 6.69421
H -11.0267 -2.2132 5.9988
H -12.6275 -2.00973 6.24856
O 2.26301 9.57612 7.77445
H 3.10465 9.18014 7.40733
H 2.29969 9.56935 8.77372
O 5.1599 10.247 -8.42468
H 5.47727 10.8718 -9.13797
H 5.68482 10.4022 -7.58785
O -4.2115 8.45052 14.5192
H -3.63746 8.47907 13.7009
H -3.9839 7.63937 -14.7669
O 5.34914 -2.73079 -5.38323
H 4.4546 -2.85373 -4.95355
H 5.95573 -2.24204 -4.75624
O -6.19656 9.0025 0.962858
H -6.58191 8.75782 1.85256
H -6.8695 9.52657 0.440908
O -1.09957 -2.44945 -8.51854
H -1.63555 -3.04491 -9.11694
H -0.373142 -2.98113 -8.08315
O -2.55081 2.4593 13.32
H -2.46534 1.97417 14.1902
H -2.42756 1.81468 12.5655
O 4.66881 -13.8394 -8.19447
H 5.12867 -14.7263 -8.23631
H 5.22312 -13.1539 -8.66655
O -4.71232 -5.64494 -9.38314
H -5.35575 -5.87749 -10.1124
H -5.21194 -5.51506 -8.52673
O -14.8214 5.15429 -8.57725
H -14.0114 5.71464 -8.74986
H 14.5535 4.94249 -9.44485
O 5.89244 2.01875 13.1762
H 6.83362 2.1959 13.4639
H 5.33124 2.82656 13.3563
O 9.26294 0.741255 -5.57244
H 10.1726 0.588621 -5.18632
H 8.67963 -0.0459771 -5.37255
O -8.64093 -13.8826 6.93617
H -9.58906 -13.5797 6.83992
H -8.62143 -14.7857 7.36493
O 0.317052 -8.56622 7.748
H 0.241668 -9.50652 8.07981
H 0.000861028 -8.52079 6.80043
O 11.07 -3.98022 7.40617
H 11.8488 -3.36485 7.28454
H 11.2508 -4.84365 6.93527
O -10.087 7.4329 4.56803
H -9.21951 7.62396 4.10888
H -10.7439 7.07545 3.90415
O -5.23216 3.26932 -2.20879
H -4.55428 3.47763 -1.5038
H -5.29179 2.2787 -2.33151
O 2.66191 -7.05861 14.4838
H 3.54818 -7.23035 -14.9109
H 2.26615 -7.9247 14.1786
O 9.47394 7.73425 -9.08127
H 8.54506 7.57419 -8.74736
H 10.0684 7.97014 -8.31259
O -6.4673 7.45567 -12.3378
H -7.31624 7.97485 -12.2393
H -6.28602 6.95008 -11.4943
O -2.63167 -6.8597 0.0753652
H -3.54959 -6.72652 -0.298291
H -2.13372 -5.99282 0.0530517
O 9.89854 -6.51754 13.885
H 10.499 -5.7729 13.5936
H 9.43593 -6.90431 13.0873
O 7.18787 7.88322 -5.20309
H 6.21262 8.09999 -5.24589
H 7.71672 8.65551 -5.55498
O -10.0982 -8.77002 2.94638
H -10.6375 -7.9988 2.6082
H -10.0651 -9.48515 2.24821
O -4.33765 -7.16107 9.14547
H -3.73746 -7.32391 8.3624
H -5.28898 -7.14209 8.838
O -3.13402 -8.03265 -13.7845
H -3.38252 -8.89243 -14.2306
H -3.26613 -7.27515 -14.4238
O 12.0339 -12.4231 -12.1158
H 12.307 -13.247 -11.6193
H 11.6043 -12.6823 -12.9808
O 0.949313 6.93984 -12.8718
H 0.345293 6.44717 -12.2454
H 0.632147 7.88332 -12.9677
O -2.17217 -7.44594 -8.18529
H -2.6862 -8.04445 -8.7997
H -2.01535 -6.56516 -8.63202
O -5.00401 -14.5475 7.02412
H -5.28427 14.7428 6.22679
H -4.17422 14.8804 7.41646
O -2.33847 13.2422 11.4426
H -2.16518 14.212 11.2711
H -2.93776 13.1462 12.2373
O 3.91654 10.2277 -0.434827
H 3.56456 11.1313 -0.190627
H 3.6709 9.57058 0.277756
O -5.39532 -7.66882 -3.06513
H -5.29088 -6.89911 -2.43537
H -5.89446 -7.36897 -3.87808
O 0.816617 2.08828 -12.6904
H 1.73951 1.7058 -12.6467
H 0.168958 1.44328 -12.2849
O 5.37202 -12.6016 4.51045
H 4.59358 -13.2158 4.38111
H 5.23784 -11.774 3.96533
O 11.1797 9.38543 -7.14025
H 11.8233 8.9992 -7.80098
H 11.4245 9.08134 -6.21962
O -0.928662 0.259269 -11.6311
H -1.32171 -0.653695 -11.7404
H -1.48588 0.787518 -10.9905
O -7.75964 -13.4513 14.371
H -7.36846 -13.7215 -14.574
H -7.04871 -13.4767 13.6682
O -6.40763 14.1546 9.45549
H -5.54931 14.5573 9.13755
H -7.00761 13.9881 8.67305
O -5.82826 -2.12946 -12.7319
H -6.49189 -2.86497 -12.5956
H -5.85425 -1.82946 -13.6854
O -9.07028 -8.83524 -13.8217
H -9.37497 -9.73375 -13.5058
H -9.84044 -8.19764 -13.8061
O 6.27879 7.39923 -12.0326
H 5.66393 7.76506 -11.334
H 5.74106 7.04836 -12.7992
O 1.56847 -13.0592 2.00074
H 0.935134 -12.9853 1.23044
H 2.50784 -13.0833 1.65876
O 14.4143 8.8934 10.1338
H 14.4102 8.32076 9.31404
H 13.873 8.45351 10.8504
O -2.39447 12.2662 -7.74578
H -1.96262 11.5757 -7.16549
H -1.72853 12.6083 -8.40867
O -12.4466 -1.80187 9.22268
H -13.305 -2.31386 9.25384
H -12.0285 -1.90683 8.3204
O 7.85786 2.97625 -1.52295
H 8.06836 2.54722 -0.644568
H 7.08755 2.50218 -1.94934
O -14.7186 -9.41882 -9.76814
H 14.3998 -10.0431 -9.43462
H -14.0564 -9.24484 -9.03932
O -0.224591 8.95947 -0.500693
H -0.172038 9.93561 -0.290171
H 0.340528 8.76026 -1.30125
O -2.21207 -2.51923 -1.7284
H -2.46501 -2.58511 -2.69361
H -2.67537 -1.73531 -1.31519
O -11.1574 10.2251 2.15468
H -12.0863 10.3736 2.49384
H -10.5256 10.167 2.92764
O -11.0602 13.1051 1.2261
H -11.4235 12.2049 0.986194
H -10.1016 13.1627 0.94738
O 3.68444 -3.19917 -1.97647
H 2.912 -3.00678 -1.37128
H 3.38858 -3.12404 -2.92871
O 4.55097 -14.0495 8.70762
H 5.18693 -14.8045 8.86722
H 3.71691 -14.4005 8.28214
O 11.9348 -1.80825 -0.745071
H 12.6995 -2.44795 -0.667346
H 12.2256 -0.902299 -0.437429
O 11.5279 -11.929 10.8394
H 10.731 -11.3576 11.0355
H 11.2709 -12.8932 10.9048
O 6.20626 -7.21489 -6.19825
H 5.82238 -6.94257 -5.31597
H 6.10266 -8.20245 -6.31628
O 12.6447 5.163 1.1821
H 13.3072 4.49311 1.51711
H 12.0207 5.41356 1.92225
O 10.3455 -5.19387 -8.54127
H 9.61091 -5.73197 -8.12811
H 10.307 -4.25637 -8.19553
O 6.93321 4.54819 8.79997
H 6.51251 4.20739 9.64068
H 7.43218 5.39244 8.99545
O -7.46582 -13.2254 10.433
H -7.05127 -14.0918 10.1547
H -6.97523 -12.8602 11.2241
O 13.3741 -13.6703 -4.66111
H 13.5564 -14.3896 -3.99079
H 13.722 -13.9521 -5.55528
O 3.52868 -6.46921 -9.1979
H 2.73504 -6.95563 -8.83254
H 3.68544 -5.63855 -8.6637
O -6.32253 -10.022 13.1696
H -6.64993 -10.8093 13.6919
H -6.23738 -9.2316 13.7762
O -0.137151 9.42119 -13.3017
H -0.782814 9.52892 -14.0577
H -0.400692 10.0252 -12.5497
O -0.893949 0.235741 -7.88427
H -1.50659 0.468609 -7.12904
H -0.750282 -0.753658 -7.90397
O -7.35062 7.57187 6.82823
H -8.23418 7.70756 7.2764
H -7.34377 8.05385 5.95211
O 7.64327 -5.86391 3.43337
H 8.06622 -5.62621 2.55898
H 7.72027 -5.09017 4.06212
O 12.7443 8.28383 -9.13364
H 13.674 8.32515 -9.49961
H 12.1772 7.71358 -9.72791
O -11.2733 -13.0097 7.00246
H -11.6613 -13.6226 7.69069
H -11.6095 -12.0806 7.15611
O 9.53052 -5.59165 -11.3144
H 9.78619 -5.57695 -10.3478
H 8.58142 -5.29251 -11.4127
O -9.67733 1.04899 1.41936
H -10.2342 0.642783 0.694883
H -8.77643 1.28456 1.05491
O -7.62951 11.3497 2.4637
H -8.03859 11.4284 1.55463
H -7.9056 12.1319 3.02224
O 12.0959 -6.32973 6.02511
H 12.4924 -6.84406 5.26471
H 11.7735 -6.96615 6.72579
O 4.8693 11.4185 8.30134
H 5.44191 12.1981 8.55485
H 4.26145 11.6811 7.55202
O 8.04944 -12.4322 -6.93349
H 7.43417 -12.5223 -7.71661
H 8.46692 -11.5236 -6.94042
O -3.1238 -11.7478 10.5897
H -3.53775 -11.8706 9.68775
H -2.54778 -12.537 10.8024
O 5.99324 -3.95099 -14.6666
H 5.76381 -3.05307 14.7827
H 6.09037 -4.60946 14.4119
O 10.9034 -10.841 5.53212
H 10.4655 -10.9545 6.42391
H 10.8998 -11.7145 5.04542
O 9.74976 14.2805 5.27885
H 9.73696 13.6785 4.48051
H 9.51806 -14.613 4.9978
O 0.745648 2.36285 5.76228
H 0.486264 2.74674 4.87611
H 1.43085 2.95056 6.19243
O -11.1904 9.57167 -0.559201
H -11.1942 9.77882 0.419068
H -11.9942 9.98215 -0.989875
O -5.57257 -4.6731 -5.35451
H -5.03116 -5.24703 -5.96885
H -5.46166 -3.71302 -5.61119
O 8.24733 -12.5805 -3.99642
H 8.13325 -12.7312 -4.97836
H 8.35628 -11.6023 -3.81983
O 5.82787 -7.30393 -10.3142
H 4.83687 -7.24923 -10.1923
H 6.15013 -6.48826 -10.7946
O 5.505 8.27955 2.09643
H 6.00876 7.54619 2.55289
H 4.93209 8.75569 2.76352
O 0.0258866 5.50568 7.75622
H -0.820786 5.08212 7.43422
H 0.205869 6.33495 7.2272
O -13.511 -9.82563 -4.26413
H -14.4076 -9.99035 -4.67498
H -13.3994 -10.4115 -3.46149
O 3.78928 1.19883 -2.84827
H 3.88496 2.1731 -2.64436
H 2.83629 0.923773 -2.7214
O -10.9365 0.0692023 12.6209
H -10.1316 0.65431 12.5225
H -10.7229 -0.691165 13.2342
O 9.5283 -7.77969 -1.56773
H 9.32179 -8.03451 -0.623083
H 9.80278 -6.81872 -1.60132
O 7.68071 -2.01899 -6.98788
H 7.10064 -2.36803 -6.25193
H 7.10625 -1.68499 -7.73513
O 3.32408 -10.2355 -8.01555
H 2.38832 -9.88371 -8.03815
H 3.83099 -9.78728 -7.27931
O 11.9263 -4.942 12.5318
H 11.4643 -4.0697 12.3718
H 12.2398 -5.31794 11.6598
O -8.72465 -13.0439 4.33496
H -8.48551 -13.7406 5.01123
H -9.03532 -12.2171 4.80379
O -13.9025 12.2592 -3.61104
H -13.4131 13.1311 -3.6245
H -14.665 12.295 -4.25703
O 13.7623 2.25757 -10.5741
H 13.7699 1.73899 -9.71911
H 13.56 1.64185 -11.3356
O -3.84517 9.56804 -10.9549
H -4.51436 8.83581 -11.0813
H -4.13181 10.1545 -10.1974
O -10.3069 -12.7482 13.8518
H -10.8704 -12.9833 13.0599
H -9.41473 -13.1924 13.7697
O -8.50972 5.29416 -9.09113
H -8.8481 6.1868 -9.38883
H -7.86295 4.9406 -9.76688
O 5.43073 -14.2916 -11.8038
H 5.97127 -13.5148 -12.1267
H 4.50648 -13.9838 -11.5781
O 13.1519 6.17896 5.46241
H 14.0053 6.13176 4.94325
H 12.8608 5.25488 5.70992
O -4.48001 14.0364 -7.89936
H -3.71844 13.4129 -7.7228
H -4.77812 14.4504 -7.0393
O 5.96404 -5.88357 12.8162
H 6.6678 -5.18669 12.6784
H 5.96541 -6.5164 12.042
O 9.59246 5.00935 -12.8919
H 9.13639 4.18977 -12.5451
H 9.15127 5.8223 -12.5119
O -0.034513 -8.84878 4.74526
H -0.418677 -9.5983 4.20621
H 0.819189 -8.54008 4.32593
O -10.2 3.2319 -13.7045
H -11.031 3.47452 -14.2051
H -9.41211 3.67546 -14.1317
O -0.171343 -13.4943 0.114567
H 0.11626 -13.784 -0.798279
H -1.09191 -13.8386 0.298905
O -4.95809 6.40699 7.36166
H -5.76798 6.82897 6.9543
H -4.46406 7.08758 7.90265
O -1.1094 -6.31853 8.07735
H -0.41389 -7.03467 8.01954
H -1.94203 -6.62451 7.61579
O 12.8177 -7.87893 8.36125
H 12.9995 -8.37237 9.21178
H 13.0963 -8.44193 7.5832
O 3.47947 -5.98625 0.248119
H 4.45772 -6.17864 0.170974
H 3.33005 -5.29851 0.958497
O 3.89965 12.0026 4.51895
H 3.44256 12.8243 4.8592
H 4.87757 12.0575 4.72045
O 3.7758 5.81518 11.4622
H 2.84188 6.12416 11.2826
H 4.32015 6.58091 11.8047
O -14.3138 10.1588 3.59784
H -14.8518 10.0871 2.75794
H -14.7909 9.68869 4.34035
O -13.8344 -14.2802 6.19598
H -13.9574 -14.459 5.21985
H -12.9043 -13.9518 6.36009
O 10.9448 -8.83014 -14.3744
H 10.5858 -9.63253 -14.8511
H 10.7319 -8.0069 -14.9006
O -2.24182 14.0828 6.62555
H -2.08117 13.6273 7.50116
H -2.48284 13.4013 5.93463
O -13.6808 6.75348 8.29688
H -12.8358 7.04984 8.74201
H -13.7448 5.75624 8.3337
O -6.13919 -3.33289 9.90283
H -6.41898 -4.23369 9.57084
H -6.75754 -2.63657 9.53852
O 3.55513 -4.49039 3.12396
H 2.56307 -4.50079 3.24907
H 3.92209 -5.40497 3.29375
O -14.8125 -13.4253 10.6313
H 14.8306 -13.2692 9.6604
H 14.2841 -13.9896 11.0201
O -13.8861 -4.86371 -8.27175
H -12.9792 -4.50382 -8.05297
H -14.5759 -4.16342 -8.08787
O 10.052 2.43882 5.70409
H 10.1148 2.16958 6.66508
H 9.35178 1.88891 5.24892
O -4.29723 9.95756 6.59567
H -3.34428 10.2586 6.63003
H -4.44426 9.23836 7.2747
O -11.6118 11.8756 -14.5571
H -10.7175 11.4521 -14.7013
H -12.2156 11.6477 14.5039
O 9.00676 3.96788 -5.13519
H 9.54954 3.5962 -4.38208