LAMMPS data file Created by LigParGen - (Written by Leela S. Dodda)

      20 atoms
      18 bonds
      28 angles
      30 dihedrals
 
      10 atom types
       9 bond types
      14 angle types
      15 dihedral types
 
   -50.0    50.0 xlo xhi
   -50.0    50.0 ylo yhi
   -50.0    50.0 zlo zhi

Masses

       1     15.999  
       2     12.011  
       3     12.011  
       4     15.999  
       5     15.999  
       6      1.008  
       7      1.008  
       8      1.008  
       9      1.008  
      10      1.008  

Pair Coeffs 

       1      0.170  3.1200000 
       2      0.066  3.5000000 
       3      0.066  3.5000000 
       4      0.140  2.9000000 
       5      0.140  2.9000000 
       6      0.000  0.0000000 
       7      0.030  2.5000000 
       8      0.030  2.5000000 
       9      0.030  2.5000000 
      10      0.030  2.5000000 

Bond Coeffs 

       1   320.0000     1.4100 
       2   268.0000     1.5290 
       3   320.0000     1.4100 
       4   469.2840     1.3226 
       5   553.0000     0.9450 
       6   340.0000     1.0900 
       7   340.0000     1.0900 
       8   340.0000     1.0900 
       9   340.0000     1.0900 

Angle Coeffs 

       1     50.000    109.500
       2     50.000    109.500
       3     85.022    110.040
       4     55.000    108.500
       5     35.000    109.500
       6     35.000    109.500
       7     37.500    110.700
       8     37.500    110.700
       9     35.000    109.500
      10     33.000    107.800
      11     33.000    107.800
      12     37.500    110.700
      13     37.500    110.700
      14     35.000    109.500

Dihedral Coeffs  

       1      4.319      0.000      0.000      0.000 
       2      0.650     -0.250      0.670      0.000 
       3     -0.356     -0.174      0.492      0.000 
       4      0.000      0.000      0.300      0.000 
       5      0.000      0.000      0.468      0.000 
       6      0.000      0.000      0.468      0.000 
       7      0.000      0.000      0.468      0.000 
       8      0.000      0.000      0.300      0.000 
       9      0.000      0.000      0.300      0.000 
      10      0.000      0.000      0.468      0.000 
      11      0.000      0.000      0.300      0.000 
      12      0.000      0.000      0.760      0.000 
      13      0.000      0.000      0.352      0.000 
      14      0.000      0.000      0.760      0.000 
      15      0.000      0.000      0.352      0.000 

Atoms 

   1  1  1    -0.5837     2.1254     0.1159    -1.0631
   2  1  2     0.0072     1.2530     0.3661     0.0316
   3  1  3     0.0702    -0.1424    -0.1620    -0.2687
   4  1  4    -0.1540    -0.9916     0.1056     0.8457
   5  1  5    -0.1450    -2.2935    -0.4298     0.4761
   6  1  6     0.4189     2.9964     0.4729    -0.8182
   7  1  7     0.0804     1.2207     1.4445     0.2205
   8  1  8     0.0804     1.6594    -0.1162     0.9269
   9  1  9     0.1128    -0.1047    -1.2417    -0.4556
  10  1 10     0.1128    -0.5441     0.3231    -1.1661
  11  2  1    -0.5837    36.9991     0.0612     1.2888
  12  2  2     0.0072    35.6940     0.5284     0.9717
  13  2  3     0.0702    35.1162    -0.2588    -0.1957
  14  2  4    -0.1540    33.8103     0.2344    -0.4891
  15  2  5    -0.1450    33.3365    -0.5690    -1.6064
  16  2  6     0.4189    37.3178     0.5968     2.0355
  17  2  7     0.0804    35.7489     1.5939     0.7240
  18  2  8     0.0804    35.0555     0.4250     1.8554
  19  2  9     0.1128    35.0621    -1.3241     0.0579
  20  2 10     0.1128    35.7594    -0.1528    -1.0771

Bonds 

     1      1      2      1
     2      2      3      2
     3      3      4      3
     4      4      5      4
     5      5      6      1
     6      6      7      2
     7      7      8      2
     8      8      9      3
     9      9     10      3
     10      1      12      11
     11      2      13      12
     12      3      14      13
     13      4      15      14
     14      5      16      11
     15      6      17      12
     16      7      18      12
     17      8      19      13
     18      9      20      13

Angles 

     1      1      1      2      3
     2      2      2      3      4
     3      3      3      4      5
     4      4      2      1      6
     5      5      1      2      7
     6      6      1      2      8
     7      7      2      3      9
     8      8      2      3     10
     9      9      4      3      9
    10     10      9      3     10
    11     11      7      2      8
    12     12      3      2      7
    13     13      3      2      8
    14     14      4      3     10
    15      1      11      12     13
    16      2      12      13     14
    17      3      13      14     15
    18      4      12      11     16
    19      5      11      12     17
    20      6      11      12     18
    21      7      12      13     19
    22      8      12      13     20
    23      9      14      13     19
    24     10      19      13     20
    25     11      17      12     18
    26     12      13      12     17
    27     13      13      12     18
    28     14      14      13     20

Dihedrals

     1      1      4      3      2      1 
     2      2      5      4      3      2 
     3      3      6      1      2      3 
     4      4     10      3      2      8 
     5      5      9      3      2      1 
     6      6     10      3      2      1 
     7      7      8      2      3      4 
     8      8      9      3      2      7 
     9      9     10      3      2      7 
    10     10      7      2      3      4 
    11     11      9      3      2      8 
    12     12     10      3      4      5 
    13     13      8      2      1      6 
    14     14      9      3      4      5 
    15     15      7      2      1      6 
    16      1      14      13      12      11 
    17      2      15      14      13      12 
    18      3      16      11      12      13 
    19      4     20      13      12      18 
    20      5      19      13      12      11 
    21      6     20      13      12      11 
    22      7      18      12      13      14 
    23      8      19      13      12      17 
    24      9     20      13      12      17 
    25     10      17      12      13      14 
    26     11      19      13      12      18 
    27     12     20      13      14      15 
    28     13      18      12      11      16 
    29     14      19      13      14      15 
    30     15      17      12      11      16 
