LAMMPS data file via write_data, version 15 May 2015, timestep = 18500000

2593 atoms
6 atom types
1728 bonds
4 bond types
864 angles
3 angle types
0 dihedrals
3 dihedral types
0 impropers
1 improper types

-1.4947562395946074e+01 1.4947562395946074e+01 xlo xhi
-1.4947562395946074e+01 1.4947562395946074e+01 ylo yhi
-1.4947562395946074e+01 1.4947562395946074e+01 zlo zhi

Masses

1 15.9994
2 1.00794
3 12.0107
4 1.00794
5 12.0107
6 12.0107

Bond Coeffs # harmonic

1 1000 1
2 469 1.4
3 367 1.08
4 469 0.7

Angle Coeffs # harmonic

1 100 109.47
2 35 120
3 63 120

Dihedral Coeffs # opls

1 0 7.25 0 0
2 0 7.25 0 0
3 0 7.25 0 0

Improper Coeffs # cvff

1 2.5 -1 2

Atoms # full

1790 597 2 4.0999999999999998e-01 -1.0002091917523117e+01 -1.1331985532141402e+01 -1.1605558222447204e+01 1 -1 -2
491 164 2 4.0999999999999998e-01 -1.0642260156335345e+01 -9.5918081168079645e+00 -9.4031981826686142e+00 -1 3 -4
1789 597 1 -8.1999999999999995e-01 -9.3016320844179461e+00 -1.0728335125815107e+01 -1.1224828683455181e+01 1 -1 -2
1504 502 1 -8.1999999999999995e-01 -8.2880734291316482e+00 -1.1924857228969463e+01 -9.1543894109583377e+00 -1 -1 -1
1980 660 2 4.0999999999999998e-01 -1.1057003197556240e+01 -7.5403554602961691e+00 -1.0759085329665769e+01 -2 0 -2
1505 502 2 4.0999999999999998e-01 -8.4290058451277883e+00 -1.1539754970450726e+01 -1.0066434941431154e+01 -1 -1 -1
492 164 2 4.0999999999999998e-01 -1.0835310825501358e+01 -8.3655394088512374e+00 -8.3422534956938783e+00 -1 3 -4
490 164 1 -8.1999999999999995e-01 -1.1109283479643100e+01 -8.7237531900802292e+00 -9.2347862091405410e+00 -1 3 -4
1945 649 1 -8.1999999999999995e-01 -1.1458940571438582e+01 -7.8091686233818223e+00 -1.4072679989787062e+01 -4 1 -8
96 32 2 4.0999999999999998e-01 -6.7050787913502408e+00 -9.0420845092782756e+00 -8.9925895125046900e+00 -3 2 1
1791 597 2 4.0999999999999998e-01 -8.8900740968154643e+00 -1.0189941125838470e+01 -1.1960182127881470e+01 1 -1 -2
1974 658 2 4.0999999999999998e-01 -1.0162686532809804e+01 -1.3474660116223351e+01 -1.1299272547158651e+01 3 5 3
94 32 1 -8.1999999999999995e-01 -7.4334125112784157e+00 -8.3865701918515612e+00 -9.1921483713529533e+00 -3 2 1
1951 651 1 -8.1999999999999995e-01 -1.3648891786981240e+01 -1.0636708119297008e+01 -7.6634125988680770e+00 -5 5 0
2436 812 2 4.0999999999999998e-01 -6.4065239296603753e+00 -1.4564635667104730e+01 -8.9900457091283812e+00 -4 -1 -2
1870 624 1 -8.1999999999999995e-01 -1.4461607312775762e+01 -8.6057022810647048e+00 -1.4188132344858536e+01 -8 -3 1
2412 804 2 4.0999999999999998e-01 -1.4277185169619766e+01 -9.9365604392773044e+00 -1.1033281621185473e+01 -4 8 -2
1953 651 2 4.0999999999999998e-01 -1.4559481444281317e+01 -1.0995393624336632e+01 -7.8687512140821356e+00 -5 5 0
1973 658 2 4.0999999999999998e-01 -1.0875982237958556e+01 -1.4670003015308135e+01 -1.0445474115237051e+01 3 5 3
95 32 2 4.0999999999999998e-01 -8.2296850324241220e+00 -8.8725087819852639e+00 -9.5524350800215814e+00 -3 2 1
2426 809 2 4.0999999999999998e-01 -1.3916646637369782e+01 -1.2312527404206238e+01 -1.1076247781533796e+01 1 4 1
1947 649 2 4.0999999999999998e-01 -1.2409266296368980e+01 -7.5575755071083668e+00 -1.4255913895433828e+01 -4 1 -8
1530 510 2 4.0999999999999998e-01 -5.1338429965472656e+00 -1.1004615405384570e+01 -8.8764710704246639e+00 -7 4 -3
1506 502 2 4.0999999999999998e-01 -7.6574203482558234e+00 -1.2698691207622316e+01 -9.2131297303400572e+00 -1 -1 -1
1528 510 1 -8.1999999999999995e-01 -5.0338989130689971e+00 -1.0015909948946145e+01 -8.9881198681339960e+00 -7 4 -3
773 258 2 4.0999999999999998e-01 -6.6631809084623637e+00 -1.0088348945594506e+01 -1.2943662277918927e+01 -6 5 6
2427 809 2 4.0999999999999998e-01 -1.3287313104257327e+01 -1.1473581311969841e+01 -9.8245625494762958e+00 1 4 1
772 258 1 -8.1999999999999995e-01 -7.5887674212943974e+00 -9.8771571561230900e+00 -1.3257796634315195e+01 -6 5 6
774 258 2 4.0999999999999998e-01 -7.6800469396139457e+00 -8.8896186318922670e+00 -1.3385970177229987e+01 -6 5 6
2425 809 1 -8.1999999999999995e-01 -1.3405519474808283e+01 -1.1492943079559835e+01 -1.0817359171603066e+01 1 4 1
1064 355 2 4.0999999999999998e-01 -1.2025087076591861e+01 -1.1791529361468356e+01 -1.1691464737155812e+01 -7 7 -4
1063 355 1 -8.1999999999999995e-01 -1.1346104263190110e+01 -1.1940334220067712e+01 -1.2410375197293343e+01 -7 7 -4
1065 355 2 4.0999999999999998e-01 -1.1664980084168729e+01 -1.1523309273313128e+01 -1.3261492800876223e+01 -7 7 -4
1972 658 1 -8.1999999999999995e-01 -1.0035347698141623e+01 -1.4141838851445129e+01 -1.0565344679436626e+01 3 5 3
1946 649 2 4.0999999999999998e-01 -1.1260968485295891e+01 -7.6786615049184315e+00 -1.3101202905172993e+01 -4 1 -8
1250 417 2 4.0999999999999998e-01 -1.4093761937033907e+01 -8.1999725426635415e+00 -9.6573218284742985e+00 2 2 4
2385 795 2 4.0999999999999998e-01 -7.3747657488496579e+00 -1.4557140136332180e+01 -1.4544619543554749e+01 -4 -1 -4
2434 812 1 -8.1999999999999995e-01 -6.1068509679668317e+00 -1.3628840941172539e+01 -8.8043656015279588e+00 -4 -1 -2
2435 812 2 4.0999999999999998e-01 -5.1524678713406811e+00 -1.3522899209644057e+01 -9.0835107387855345e+00 -4 -1 -2
2358 786 2 4.0999999999999998e-01 -1.3657223543243958e+01 -1.0154985744379442e+01 -1.4509676871384887e+01 -5 -2 2
2384 795 2 4.0999999999999998e-01 -8.2617971179634573e+00 -1.3843058201822688e+01 -1.3374205292800697e+01 -4 -1 -4
1078 360 1 -8.1999999999999995e-01 -1.1075855576375563e+01 -1.3946313756165164e+01 -7.9764495534300419e+00 -4 -2 2
1080 360 2 4.0999999999999998e-01 -1.0366391732440603e+01 -1.4217306505212784e+01 -8.6270006590181243e+00 -4 -2 2
1872 624 2 4.0999999999999998e-01 -1.4857495243571309e+01 -8.2103268111664498e+00 -1.3359311644978568e+01 -8 -3 1
1079 360 2 4.0999999999999998e-01 -1.0943224335907718e+01 -1.2989425855496570e+01 -7.7180559928071029e+00 -4 -2 2
2175 725 2 4.0999999999999998e-01 -1.1038111861464387e+01 -1.3889298536709665e+01 -1.3433016782359504e+01 -8 -1 -3
2356 786 1 -8.1999999999999995e-01 -1.3480222315771023e+01 -1.1081554255054455e+01 -1.4841541504573152e+01 -5 -2 2
507 169 2 4.0999999999999998e-01 -8.7873857587572104e+00 -1.1385288934615241e+01 -7.4963743272360537e+00 -7 -1 1
1871 624 2 4.0999999999999998e-01 -1.4490242334791128e+01 -7.9311111014410249e+00 -1.4925763378600390e+01 -8 -3 1
770 257 2 4.0999999999999998e-01 -1.4843621986803138e+01 -1.4159884424049300e+01 -1.2108080411515788e+01 -5 -4 -6
2383 795 1 -8.1999999999999995e-01 -7.9129121597467442e+00 -1.4715370915633144e+01 -1.3716758312094449e+01 -4 -1 -4
2173 725 1 -8.1999999999999995e-01 -1.1114399649340271e+01 -1.4881868373469002e+01 -1.3527769244720474e+01 -8 -1 -3
2357 786 2 4.0999999999999998e-01 -1.4271455661158138e+01 -1.1661685493002469e+01 -1.4648175790747899e+01 -5 -2 2
1692 564 2 4.0999999999999998e-01 -7.9455902471198838e+00 -9.9030701312197635e+00 -1.4945869859932214e+01 -1 1 -2
1978 660 1 -8.1999999999999995e-01 -1.0994024329685919e+01 -7.0222231738812297e+00 -1.1612059734983548e+01 -2 0 -2
1835 612 2 4.0999999999999998e-01 -7.0383363384903488e+00 -1.5194332653696971e+00 -8.6783880078521527e+00 -7 -2 -2
1432 478 1 -8.1999999999999995e-01 -7.8052760832583958e+00 -6.1558859562872641e+00 -7.5229530558815885e+00 1 3 1
2216 739 2 4.0999999999999998e-01 -1.4181282736101521e+01 -2.8910361766132393e+00 -1.2407149704786857e+01 -1 4 2
1251 417 2 4.0999999999999998e-01 -1.2708855512682272e+01 -7.3868370376282924e+00 -9.3615989709276111e+00 2 2 4
1873 625 1 -8.1999999999999995e-01 -1.0487344694107804e+01 -8.2614809970519865e-01 -9.5426299382968480e+00 -9 1 -1
1249 417 1 -8.1999999999999995e-01 -1.3707177448653328e+01 -7.3367701070766804e+00 -9.3326269862424454e+00 2 2 4
159 53 2 4.0999999999999998e-01 -1.4130979046617183e+01 -3.6461739559502959e+00 -1.4801718452466449e+01 -6 2 2
48 16 2 4.0999999999999998e-01 -6.0449721949238882e+00 -7.1860236824315376e+00 -9.6598773318663067e+00 -8 6 -1
327 109 2 4.0999999999999998e-01 -5.7078442822790585e+00 -1.2183906902555854e+00 -1.1451097354286226e+01 -3 2 1
836 279 2 4.0999999999999998e-01 -6.9724155504200809e+00 -4.5113686720378965e-01 -1.0302260272018056e+01 0 5 0
427 143 1 -8.1999999999999995e-01 -1.4764807650185345e+01 -6.4717011734046892e+00 -1.2532995352248577e+01 1 4 -1
2532 844 2 4.0999999999999998e-01 -1.0787008405897680e+01 -3.5453117196317319e+00 -8.1240120267546558e+00 -2 6 4
1100 367 2 4.0999999999999998e-01 -9.0468276038379454e+00 -6.8690169978609692e+00 -1.2284720988558336e+01 2 1 -1
1099 367 1 -8.1999999999999995e-01 -8.0889628284828721e+00 -6.6511640189554253e+00 -1.2471878375229846e+01 2 1 -1
1538 513 2 4.0999999999999998e-01 -1.2762311802692841e+01 -3.9595987446497780e+00 -8.2988720834450298e+00 -3 3 3
1341 447 2 4.0999999999999998e-01 -1.4074441082236200e+01 -1.4395302709247364e+00 -1.0711895406041698e+01 -3 -6 1
2103 701 2 4.0999999999999998e-01 -6.6634125356990292e+00 -4.8513148596751989e+00 -7.8705178457418334e+00 1 7 4
46 16 1 -8.1999999999999995e-01 -5.2585874963038126e+00 -6.9466043786356231e+00 -1.0229324648725994e+01 -8 6 -1
1073 358 2 4.0999999999999998e-01 -5.6085701027104253e+00 -5.2675072770366143e+00 -1.0826585928309569e+01 -5 2 0
429 143 2 4.0999999999999998e-01 -1.4316016109756651e+01 -5.5931564422818312e+00 -1.2696513138183239e+01 1 4 -1
1340 447 2 4.0999999999999998e-01 -1.3542580970529958e+01 -3.7095905950046060e-01 -9.5974953279036193e+00 -3 -6 1
1398 466 2 4.0999999999999998e-01 -1.2004620528663235e+01 -9.8442713817369665e-01 -1.3644888553317532e+01 -6 -1 1
1396 466 1 -8.1999999999999995e-01 -1.1772420743174935e+01 -1.9419339292473907e+00 -1.3815934634872674e+01 -6 -1 1
1979 660 2 4.0999999999999998e-01 -1.0907276275549123e+01 -6.0478494773236307e+00 -1.1404542438413287e+01 -2 0 -2
1101 367 2 4.0999999999999998e-01 -7.8331089377413283e+00 -5.8208311503115944e+00 -1.1976823963974727e+01 2 1 -1
2217 739 2 4.0999999999999998e-01 -1.2797855630203490e+01 -3.1773489525862999e+00 -1.3226150080743235e+01 -1 4 2
174 58 2 4.0999999999999998e-01 -8.9022537328686440e+00 -4.7793948277543183e+00 -1.4612672596185586e+01 -3 2 -6
1217 406 2 4.0999999999999998e-01 -7.4400956131563936e+00 -6.8632204944183233e+00 -1.4166253363675205e+01 -5 8 1
838 280 1 -8.1999999999999995e-01 -1.4573828043716672e+01 -5.2169947921635540e-02 -7.7257610318091769e+00 0 5 2
1834 612 1 -8.1999999999999995e-01 -7.2749603955979110e+00 -1.6715870747052239e+00 -7.7187781663482564e+00 -7 -2 -2
1339 447 1 -8.1999999999999995e-01 -1.3312576968968781e+01 -8.4934985414496289e-01 -1.0444981708824768e+01 -3 -6 1
835 279 1 -8.1999999999999995e-01 -7.0007857421977961e+00 -1.4500179803128148e+00 -1.0340002079038587e+01 0 5 0
1074 358 2 4.0999999999999998e-01 -6.1062968085415505e+00 -3.7907840677807716e+00 -1.0338565586904338e+01 -5 2 0
2531 844 2 4.0999999999999998e-01 -1.1242735537949830e+01 -2.3502978105223740e+00 -9.1393256255639095e+00 -2 6 4
2102 701 2 4.0999999999999998e-01 -6.2382453131729569e+00 -3.2758895202054035e+00 -7.8082682044894920e+00 1 7 4
2101 701 1 -8.1999999999999995e-01 -5.9598204652021050e+00 -4.1851139110342181e+00 -8.1177570686439573e+00 1 7 4
1433 478 2 4.0999999999999998e-01 -7.7676965532826658e+00 -7.0055218781053608e+00 -8.0489752317062369e+00 1 3 1
2530 844 1 -8.1999999999999995e-01 -1.1487176930800306e+01 -3.2481899779685683e+00 -8.7732234404922735e+00 -2 6 4
1170 390 2 4.0999999999999998e-01 -1.1512514206133449e+01 -3.9115459769965142e+00 -1.0458238216644645e+01 0 0 5
1168 390 1 -8.1999999999999995e-01 -1.1438793832217319e+01 -4.2465444571898043e+00 -1.1397564612898389e+01 0 0 5
837 279 2 4.0999999999999998e-01 -7.8159241711917966e+00 -1.7416397393337260e+00 -1.0840500683277188e+01 0 5 0
1169 390 2 4.0999999999999998e-01 -1.2342859293297625e+01 -4.2421433456822726e+00 -1.1824927487109642e+01 0 0 5
1397 466 2 4.0999999999999998e-01 -1.1549053145911270e+01 -2.0630966755852196e+00 -1.4783105389845391e+01 -6 -1 1
1539 513 2 4.0999999999999998e-01 -1.3319263830997807e+01 -5.4128725214328544e+00 -7.8044968051131347e+00 -3 3 3
668 223 2 4.0999999999999998e-01 -8.2823010914243760e+00 -3.2275490789386119e+00 -1.3010601123236317e+01 0 3 0
831 277 2 4.0999999999999998e-01 -1.0050541018655721e+01 -2.8183122835149099e+00 -1.1613560275953880e+01 -5 10 1
2215 739 1 -8.1999999999999995e-01 -1.3625633762797369e+01 -3.5942535936553757e+00 -1.2850694789745456e+01 -1 4 2
830 277 2 4.0999999999999998e-01 -9.7917863648422667e+00 -1.3679130963011552e+00 -1.2317829664494763e+01 -5 10 1
669 223 2 4.0999999999999998e-01 -6.8671833595310030e+00 -4.0166125687386049e+00 -1.2807062954257894e+01 0 3 0
667 223 1 -8.1999999999999995e-01 -7.5427403043462142e+00 -3.7115845861875982e+00 -1.3478310684492394e+01 0 3 0
829 277 1 -8.1999999999999995e-01 -9.3714227565042876e+00 -2.2392106691595437e+00 -1.2064595139416651e+01 -5 10 1
1537 513 1 -8.1999999999999995e-01 -1.3544002700897549e+01 -4.4437288475812320e+00 -7.9057180087404930e+00 -3 3 3
1072 358 1 -8.1999999999999995e-01 -6.1365654423557956e+00 -4.4578744381250317e+00 -1.1082922351892519e+01 -5 2 0
1874 625 2 4.0999999999999998e-01 -9.7854790850161617e+00 -3.3293467156431511e-01 -9.0287058835112788e+00 -9 1 -1
1875 625 2 4.0999999999999998e-01 -1.0898898718888486e+01 -2.1334867331077056e-01 -1.0217235675283248e+01 -9 1 -1
452 151 2 4.0999999999999998e-01 -7.7856245389872090e+00 -2.4281034941537705e-01 -1.3636192277864815e+01 -5 0 5
1586 529 2 4.0999999999999998e-01 -5.3079128957130948e+00 -3.7353226380038560e+00 -1.3943883883971470e+01 -3 1 -2
428 143 2 4.0999999999999998e-01 -1.4781151319848782e+01 -6.6599729569054826e+00 -1.1551018077957410e+01 1 4 -1
1821 607 2 4.0999999999999998e-01 -1.3161429925597169e+01 -1.6468178646278631e-01 -1.1912661952659393e+01 -3 2 1
974 325 2 4.0999999999999998e-01 -8.4477177717098044e+00 -7.6175478517927173e+00 -2.1645516289585807e+00 -2 4 1
701 234 2 4.0999999999999998e-01 -1.0289248925930263e+01 -9.6411865743821128e+00 -3.2045799106823853e+00 -9 3 4
1911 637 2 4.0999999999999998e-01 -1.0352973128118952e+01 -1.1762512271252987e+01 -5.8274461189715332e+00 -12 3 3
997 333 1 -8.1999999999999995e-01 -1.1457248314491473e+01 -1.2239082766506479e+01 -1.0319893070409147e+00 -9 7 2
1213 405 1 -8.1999999999999995e-01 -6.9670411440544848e+00 -1.2283128643376010e+01 -5.0390601187178419e+00 -7 4 6
960 320 2 4.0999999999999998e-01 -1.4267617493201460e+01 -1.1797438903616857e+01 -3.0360332882476548e-01 -4 3 0
998 333 2 4.0999999999999998e-01 -1.1293791652988538e+01 -1.1556571507744470e+01 -1.7443467179161800e+00 -9 7 2
999 333 2 4.0999999999999998e-01 -1.2417652221203671e+01 -1.2517046635476044e+01 -1.0507819153980211e+00 -9 7 2
1909 637 1 -8.1999999999999995e-01 -1.1280016882317920e+01 -1.2037072779619916e+01 -5.5721047686635305e+00 -12 3 3
68 23 2 4.0999999999999998e-01 -9.0140927565046205e+00 -1.3028048720818047e+01 -2.5129495699879705e+00 -8 1 -3
1910 637 2 4.0999999999999998e-01 -1.1238858133742436e+01 -1.2674394118265976e+01 -4.8026112773558527e+00 -12 3 3
702 234 2 4.0999999999999998e-01 -1.1850943929871255e+01 -1.0025552889333222e+01 -3.4873844889695267e+00 -9 3 4
2231 744 2 4.0999999999999998e-01 -1.2152169556636583e+01 -9.1439528919210957e+00 -1.5689824008339617e+00 -6 3 2
67 23 1 -8.1999999999999995e-01 -8.3464842313628651e+00 -1.2284609119284680e+01 -2.4730854462003204e+00 -8 1 -3
700 234 1 -8.1999999999999995e-01 -1.1099160942831700e+01 -1.0093803743059345e+01 -2.8315209782102233e+00 -9 3 4
505 169 1 -8.1999999999999995e-01 -8.9993089356149181e+00 -1.1371666047576994e+01 -6.5191866470065154e+00 -7 -1 1
2396 799 2 4.0999999999999998e-01 -8.3563932831955903e+00 -1.0218447751872393e+01 -4.8740914738096830e+00 -6 2 2
506 169 2 4.0999999999999998e-01 -8.2430976730166261e+00 -1.1780601322231384e+01 -6.0083938968855168e+00 -7 -1 1
1883 628 2 4.0999999999999998e-01 -1.2432037945332095e+01 -1.0836596229913830e+01 -4.9460562951469669e+00 -3 -5 -6
59 20 2 4.0999999999999998e-01 -5.7990673459485311e+00 -1.2830146603787599e+01 -9.3045682350444814e-01 0 3 2
1214 405 2 4.0999999999999998e-01 -6.1951382059009852e+00 -1.1702863312559721e+01 -5.2987729880948926e+00 -7 4 6
60 20 2 4.0999999999999998e-01 -7.3906045170641796e+00 -1.2958126205788073e+01 -1.2728569509814776e+00 0 3 2
2230 744 1 -8.1999999999999995e-01 -1.2811114522719492e+01 -8.5627501291671670e+00 -1.0915018842413016e+00 -6 3 2
58 20 1 -8.1999999999999995e-01 -6.6762660141491139e+00 -1.3189967180040624e+01 -6.1258197142675286e-01 0 3 2
2397 799 2 4.0999999999999998e-01 -7.7424548242166109e+00 -9.1100702790207251e+00 -3.8439525915873620e+00 -6 2 2
2395 799 1 -8.1999999999999995e-01 -8.5542288333803604e+00 -9.3840578447234915e+00 -4.3596526337260588e+00 -6 2 2
1884 628 2 4.0999999999999998e-01 -1.3704777834430514e+01 -9.8146278556941446e+00 -4.9942332354296415e+00 -3 -5 -6
2483 828 2 4.0999999999999998e-01 -1.0010256167197191e+01 -8.9369389249290059e+00 -5.9744822857933926e+00 -4 2 -3
2265 755 2 4.0999999999999998e-01 -7.4971186069531157e+00 -9.3440628995731920e+00 -1.5088395975941413e+00 -8 7 2
2076 692 2 4.0999999999999998e-01 -1.4496767345230197e+01 -7.9726183860661664e+00 -1.0344690899781437e+00 -1 2 4
2263 755 1 -8.1999999999999995e-01 -6.9645515690255984e+00 -8.8939552035323253e+00 -2.2256158380666875e+00 -8 7 2
2264 755 2 4.0999999999999998e-01 -6.1164429670071634e+00 -9.4010979568645041e+00 -2.3789481888812816e+00 -8 7 2
1215 405 2 4.0999999999999998e-01 -6.8706319176566168e+00 -1.3179473223757245e+01 -5.4718007060596587e+00 -7 4 6
1869 623 2 4.0999999999999998e-01 -1.1239483204765051e+01 -1.3190081595767873e+01 -2.3417284656875914e+00 -2 6 -1
1882 628 1 -8.1999999999999995e-01 -1.3098877319713901e+01 -1.0336383386869731e+01 -4.3936930639969667e+00 -3 -5 -6
958 320 1 -8.1999999999999995e-01 -1.4287164055033326e+01 -1.2770910510505963e+01 -5.3155889155063640e-01 -4 3 0
1867 623 1 -8.1999999999999995e-01 -1.0811484320703013e+01 -1.3721493167505932e+01 -3.0727629735228064e+00 -2 6 -1
959 320 2 4.0999999999999998e-01 -1.4554053073333311e+01 -1.2883827061941874e+01 -1.4886445092910083e+00 -4 3 0
504 168 2 4.0999999999999998e-01 -1.4333051339552814e+01 -1.1297959541274210e+01 -3.4948748480491414e+00 -9 3 1
1996 666 1 -8.1999999999999995e-01 -1.4433116440475043e+01 -8.5099741234897515e+00 -5.9925823393959767e+00 -4 5 -1
1868 623 2 4.0999999999999998e-01 -1.0779840893574615e+01 -1.4685642701221257e+01 -2.8093106451773142e+00 -2 6 -1
69 23 2 4.0999999999999998e-01 -7.8352076283144276e+00 -1.2249355327881563e+01 -3.3317740765222421e+00 -8 1 -3
2482 828 1 -8.1999999999999995e-01 -1.0488291178943147e+01 -8.2590374606633041e+00 -6.5329846441203525e+00 -4 2 -3
1998 666 2 4.0999999999999998e-01 -1.4126295103579970e+01 -9.0659299044097708e+00 -6.7650890399081263e+00 -4 5 -1
1952 651 2 4.0999999999999998e-01 -1.3144305476114287e+01 -1.1302850772346186e+01 -7.1141955428072547e+00 -5 5 0
2232 744 2 4.0999999999999998e-01 -1.2341342102595220e+01 -8.0426815849537938e+00 -3.7817492851588952e-01 -6 3 2
2168 723 2 4.0999999999999998e-01 -7.5282539844516556e+00 -6.9090376266147473e+00 -4.4316097786226258e+00 -3 1 2
1752 584 2 4.0999999999999998e-01 -7.0442010269412636e+00 -2.9123257764648081e+00 -2.9967968522876713e+00 -9 -1 1
2169 723 2 4.0999999999999998e-01 -9.0653359341967032e+00 -6.4275216450460135e+00 -4.7001774358272765e+00 -3 1 2
1725 575 2 4.0999999999999998e-01 -8.7457803763551780e+00 -2.7197897760785068e+00 -7.3720677531918115e+00 -9 1 3
2484 828 2 4.0999999999999998e-01 -1.0449614320873753e+01 -7.3677984249486261e+00 -6.0811109429046155e+00 -4 2 -3
411 137 2 4.0999999999999998e-01 -1.3465485355166754e+01 -7.2681556861624639e+00 -4.8897887436772205e+00 -2 3 -2
1988 663 2 4.0999999999999998e-01 -6.5040435166050852e+00 -5.1581091555701803e+00 -4.3073165750705087e+00 0 2 2
1724 575 2 4.0999999999999998e-01 -8.5126142453472156e+00 -4.3337479548666860e+00 -7.2861624353875438e+00 -9 1 3
1877 626 2 4.0999999999999998e-01 -1.4398341390381470e+01 -3.1648423877940992e+00 -6.8149127406625958e+00 -6 -3 -3
536 179 2 4.0999999999999998e-01 -1.0169080299920644e+01 -7.0157292368494595e-01 -3.8445645876734655e+00 -4 2 1
1836 612 2 4.0999999999999998e-01 -6.9537048963811694e+00 -8.9991119742277803e-01 -7.1698665092980640e+00 -7 -2 -2
535 179 1 -8.1999999999999995e-01 -9.8282909477595268e+00 -9.7033007848228614e-01 -2.9436622786118445e+00 -4 2 1
1987 663 1 -8.1999999999999995e-01 -5.9379867912078854e+00 -4.4591038702642809e+00 -3.8703221260797456e+00 0 2 2
1553 518 2 4.0999999999999998e-01 -1.2630389435361748e+01 -3.8696156285874750e+00 -5.2624319264363528e+00 -2 1 2
2085 695 2 4.0999999999999998e-01 -5.1909987747384694e+00 -5.0258813808978804e+00 -2.1975636112066663e+00 -1 -1 -3
1552 518 1 -8.1999999999999995e-01 -1.1961362391843128e+01 -3.4066146605421341e+00 -4.6810321781113515e+00 -2 1 2
537 179 2 4.0999999999999998e-01 -1.0564211091541209e+01 -8.9009201133930738e-01 -2.2713705939203308e+00 -4 2 1
1723 575 1 -8.1999999999999995e-01 -9.2005605067443135e+00 -3.6085731792206239e+00 -7.3152183130323625e+00 -9 1 3
1670 557 2 4.0999999999999998e-01 -1.0621743497891163e+01 -6.2667167406132673e+00 -3.4723351044349897e+00 -6 0 -5
1669 557 1 -8.1999999999999995e-01 -1.0876029276308355e+01 -6.1976662315381237e+00 -4.4369923104595603e+00 -6 0 -5
1766 589 2 4.0999999999999998e-01 -1.0941352528929013e+01 -1.1622780519894995e+00 -6.8298386129830355e+00 -7 -1 0
1434 478 2 4.0999999999999998e-01 -8.0983885883311224e+00 -6.3554351811506535e+00 -6.5879354424805463e+00 1 3 1
236 79 2 4.0999999999999998e-01 -1.3604241422059513e+01 -1.6410575099769247e+00 -2.6228526614798255e+00 -3 2 4
973 325 1 -8.1999999999999995e-01 -9.3054486465862798e+00 -7.1043716518327304e+00 -2.1338811256489301e+00 -2 4 1
2167 723 1 -8.1999999999999995e-01 -8.1116672668692864e+00 -6.3056255585604610e+00 -4.9752232124231863e+00 -3 1 2
2326 776 1 -8.1999999999999995e-01 -5.1997549854446863e+00 -1.1580722571598656e+00 -4.3467032003734651e+00 -2 -1 -1
1750 584 1 -8.1999999999999995e-01 -7.5922324191638149e+00 -2.4273960100441982e+00 -2.3152563604148231e+00 -9 -1 1
1671 557 2 4.0999999999999998e-01 -1.1871644038201360e+01 -6.1485303088712531e+00 -4.5165514522328625e+00 -6 0 -5
2018 673 2 4.0999999999999998e-01 -6.1987516367545901e+00 -4.2756455714654251e-02 -5.3429462981326434e+00 4 1 -1
235 79 1 -8.1999999999999995e-01 -1.2843829318287881e+01 -2.2009644426053114e+00 -2.2938079498024901e+00 -3 2 4
1599 533 2 4.0999999999999998e-01 -6.5261665519740362e+00 -1.9673434555470823e+00 -9.0553572219291745e-01 -4 1 3
954 318 2 4.0999999999999998e-01 -1.2245851959157779e+01 -2.1239055969920333e+00 -6.1658904299401662e-01 2 0 -6
237 79 2 4.0999999999999998e-01 -1.2524379860014392e+01 -2.7958753446795814e+00 -3.0313890168472106e+00 -3 2 4
975 325 2 4.0999999999999998e-01 -9.1734447869339775e+00 -6.2658243336281263e+00 -1.6052923050408001e+00 -2 4 1
1554 518 2 4.0999999999999998e-01 -1.1206344115307697e+01 -4.0306152358391660e+00 -4.4796284921034459e+00 -2 1 2
1751 584 2 4.0999999999999998e-01 -8.3484317313241796e+00 -1.9563488818901398e+00 -2.7694258764257302e+00 -9 -1 1
1765 589 1 -8.1999999999999995e-01 -1.1038546018471003e+01 -9.6327776554023536e-01 -5.8546744884782260e+00 -7 -1 0
1989 663 2 4.0999999999999998e-01 -5.1028354081223366e+00 -4.3250894480196411e+00 -4.4037591510195249e+00 0 2 2
1767 589 2 4.0999999999999998e-01 -1.1426244911023490e+01 -1.7588770110467475e+00 -5.3891595232151239e+00 -7 -1 0
2298 766 2 4.0999999999999998e-01 -8.5435963668013137e+00 -4.0756862269801051e+00 -1.2343550885692576e+00 -2 4 3
409 137 1 -8.1999999999999995e-01 -1.3370997865616863e+01 -6.3266533309721549e+00 -4.5663104861650474e+00 -2 3 -2
410 137 2 4.0999999999999998e-01 -1.4096647059091426e+01 -6.1259263347674970e+00 -3.9081807930390351e+00 -2 3 -2
2296 766 1 -8.1999999999999995e-01 -8.8044887487525774e+00 -4.8769747455312675e+00 -6.9596430320841485e-01 -2 4 3
839 280 2 4.0999999999999998e-01 -1.4696893513683495e+01 -9.5851225451590238e-01 -7.3215441674979882e+00 0 5 2
1597 533 1 -8.1999999999999995e-01 -5.8726517853572435e+00 -1.8827168162022208e+00 -1.5337247034763024e-01 -4 1 3
620 207 2 4.0999999999999998e-01 -5.2083847538440491e+00 -6.9910986170316995e+00 -3.3909907227526404e-02 2 7 -5
1070 357 2 4.0999999999999998e-01 -1.1856968078072990e+01 -1.0865106430629583e+01 2.3238643840870150e+00 1 -4 -3
252 84 2 4.0999999999999998e-01 -1.1935680080338322e+01 -1.0009503230633765e+01 4.5477536384718835e+00 -4 3 2
1627 543 1 -8.1999999999999995e-01 -8.1434050082422047e+00 -7.5468915836364383e+00 1.0662367283116847e+00 -7 6 2
250 84 1 -8.1999999999999995e-01 -1.2106640848485611e+01 -1.0038791075167904e+01 5.5325923957950440e+00 -4 3 2
2563 855 1 -8.1999999999999995e-01 -1.4586860074657972e+01 -8.3874479286520529e+00 3.0204490430696556e+00 -8 2 -3
775 259 1 -8.1999999999999995e-01 -1.4375561612932033e+01 -1.4018808957493780e+01 6.9434640633444058e+00 6 4 -5
1958 653 2 4.0999999999999998e-01 -7.4181225938589002e+00 -1.3868676943785726e+01 2.5549719215962181e+00 -6 3 1
2311 771 1 -8.1999999999999995e-01 -8.9725086413109576e+00 -1.4499381800935058e+01 3.0012394245637051e+00 -1 7 -3
2181 727 2 4.0999999999999998e-01 -1.2057605218664785e+01 -1.3479675421102934e+01 2.4005482480151432e+00 -3 0 -2
886 296 1 -8.1999999999999995e-01 -1.2248713638558547e+01 -1.2538130950707561e+01 6.3886408713156886e+00 -2 3 -2
251 84 2 4.0999999999999998e-01 -1.1918789677730341e+01 -1.0958890286206890e+01 5.8762814261806842e+00 -4 3 2
1069 357 1 -8.1999999999999995e-01 -1.2494998082130081e+01 -1.0345482569555132e+01 2.8921086109470640e+00 1 -4 -3
1071 357 2 4.0999999999999998e-01 -1.3311271108359204e+01 -1.0123229573125538e+01 2.3589156762748633e+00 1 -4 -3
1334 445 2 4.0999999999999998e-01 -1.0311826169177152e+01 -1.1163319428085924e+01 2.3747386520072844e-01 -10 1 5
1333 445 1 -8.1999999999999995e-01 -9.8342299960196264e+00 -1.0902239134475105e+01 1.0763610564597865e+00 -10 1 5
888 296 2 4.0999999999999998e-01 -1.1476196274871622e+01 -1.3046362333792834e+01 6.0079697284448113e+00 -2 3 -2
1335 445 2 4.0999999999999998e-01 -8.8804696752394214e+00 -1.1197971391967579e+01 1.0227285884238349e+00 -10 1 5
1957 653 1 -8.1999999999999995e-01 -6.5697547133421708e+00 -1.3527883577821001e+01 2.1498489728509202e+00 -6 3 1
2565 855 2 4.0999999999999998e-01 -1.4718646090792875e+01 -9.2850923939035681e+00 3.4409958367278666e+00 -8 2 -3
820 274 1 -8.1999999999999995e-01 -7.9799071299983062e+00 -1.4937247083291087e+01 5.4816338541038778e+00 -5 2 1
2348 783 2 4.0999999999999998e-01 -1.1717539547485298e+01 -8.2315984901868493e+00 6.0632556145567609e+00 -5 4 -1
192 64 2 4.0999999999999998e-01 -5.7525057365883505e+00 -1.1743903458891662e+01 2.6508792938190506e+00 1 -2 -1
442 148 1 -8.1999999999999995e-01 -6.7706409638489635e+00 -8.2264308096637073e+00 4.0835347249971168e+00 -4 0 0
443 148 2 4.0999999999999998e-01 -6.5043212582589049e+00 -9.1418022091453395e+00 3.7816046447685689e+00 -4 0 0
190 64 1 -8.1999999999999995e-01 -5.3997796875110460e+00 -1.0808742936466960e+01 2.6833120212768673e+00 1 -2 -1
724 242 1 -8.1999999999999995e-01 -1.4599148209346790e+01 -1.0230706824594410e+01 3.9323423365285670e-01 -6 -1 1
444 148 2 4.0999999999999998e-01 -5.9998571254428068e+00 -7.5999174619440177e+00 3.9679230363953746e+00 -4 0 0
1959 653 2 4.0999999999999998e-01 -6.6697741861505602e+00 -1.3482415414435199e+01 1.1559065592284750e+00 -6 3 1
2522 841 2 4.0999999999999998e-01 -6.3622263271176269e+00 -1.0203592042502510e+01 8.2953592348961180e-01 -5 3 -3
2180 727 2 4.0999999999999998e-01 -1.1106162812521500e+01 -1.2565722873869824e+01 1.4382306146828494e+00 -3 0 -2
968 323 2 4.0999999999999998e-01 -1.4291667470838899e+01 -1.1304653262766200e+01 6.2826140036293321e+00 -5 1 2
879 293 2 4.0999999999999998e-01 -5.4531897479712796e+00 -9.0060192236854189e+00 6.8418211427395281e+00 -3 1 -8
2313 771 2 4.0999999999999998e-01 -9.0302835617699042e+00 -1.4872111183157891e+01 3.9273752700451201e+00 -1 7 -3
306 102 2 4.0999999999999998e-01 -1.3050625461849581e+01 -7.6964130629829279e+00 2.0926216396191553e+00 -2 5 0
2312 771 2 4.0999999999999998e-01 -9.8082986056848611e+00 -1.3991037615265714e+01 2.7937928378679917e+00 -1 7 -3
2179 727 1 -8.1999999999999995e-01 -1.1207175606923229e+01 -1.3459677971318355e+01 1.8748465133927628e+00 -3 0 -2
206 69 2 4.0999999999999998e-01 -5.5356690393404904e+00 -1.4786901969869952e+01 2.8012465512901823e+00 -2 9 1
2521 841 1 -8.1999999999999995e-01 -7.0440285653937966e+00 -1.0584354583527585e+01 2.0490935211271832e-01 -5 3 -3
621 207 2 4.0999999999999998e-01 -6.2823103755851228e+00 -7.4751597464584796e+00 1.0970081961687992e+00 2 7 -5
304 102 1 -8.1999999999999995e-01 -1.2345906203854824e+01 -7.4807109695358918e+00 1.4167250959549609e+00 -2 5 0
1161 387 2 4.0999999999999998e-01 -1.3728255908882552e+01 -7.4982414397004939e+00 4.3368905457341764e+00 0 5 2
1628 543 2 4.0999999999999998e-01 -8.4600007511930500e+00 -8.4761698552925697e+00 8.7596916064130070e-01 -7 6 2
887 296 2 4.0999999999999998e-01 -1.2938462133718271e+01 -1.3180685372667398e+01 6.7223526892351675e+00 -2 3 -2
777 259 2 4.0999999999999998e-01 -1.3735300889875377e+01 -1.4721400451906439e+01 6.6329416301971644e+00 6 4 -5
619 207 1 -8.1999999999999995e-01 -5.3287424643890287e+00 -7.5287137527899901e+00 8.0064191944816265e-01 2 7 -5
1490 497 2 4.0999999999999998e-01 -9.0316744678414231e+00 -8.5930345170310005e+00 6.7634185736893198e+00 -4 7 -6
2523 841 2 4.0999999999999998e-01 -6.8913640090760442e+00 -1.1567457407910521e+01 1.0393841068114185e-01 -5 3 -3
725 242 2 4.0999999999999998e-01 -1.4009445402636725e+01 -9.5070823140940632e+00 3.4610580073506370e-02 -6 -1 1
1023 341 2 4.0999999999999998e-01 -1.3275903800924851e+01 -6.0089999936621403e+00 8.8441169940487541e-01 -3 1 -2
2349 783 2 4.0999999999999998e-01 -1.0825885219789589e+01 -6.9589823362761187e+00 5.5612517834557611e+00 -5 4 -1
2144 715 2 4.0999999999999998e-01 -8.1224925908483883e+00 -7.1052103222815219e+00 5.0291342749110992e+00 -2 -3 5
1242 414 2 4.0999999999999998e-01 -8.7216170619562625e+00 -9.2048995242435261e-01 6.8578743954176726e+00 -1 0 -2
2347 783 1 -8.1999999999999995e-01 -1.1473294187449238e+01 -7.2804859783779703e+00 6.2522581408193236e+00 -5 4 -1