LAMMPS data file via write_data, version 15 May 2015, timestep = 1009000

2593 atoms
6 atom types
1728 bonds
4 bond types
864 angles
3 angle types
0 dihedrals
3 dihedral types
0 impropers
1 improper types

-1.4951162839125509e+01 1.4951162839125509e+01 xlo xhi
-1.4951162839125509e+01 1.4951162839125509e+01 ylo yhi
-1.4951162839125509e+01 1.4951162839125509e+01 zlo zhi

Masses

1 15.9994
2 1.00794
3 12.0107
4 1.00794
5 12.0107
6 12.0107

Bond Coeffs # harmonic

1 1000 1
2 469 1.4
3 367 1.08
4 469 0.7

Angle Coeffs # harmonic

1 100 109.47
2 35 120
3 63 120

Dihedral Coeffs # opls

1 0 7.25 0 0
2 0 7.25 0 0
3 0 7.25 0 0

Improper Coeffs # cvff

1 2.5 -1 2

Atoms # full

1241 414 2 4.0999999999999998e-01 -8.6953790826087758e+00 -1.0811106238238013e+01 -9.7716478133753970e+00 0 1 0
14 5 2 4.0999999999999998e-01 -1.3106667671090868e+01 -8.4357462596770212e+00 -1.3123338446896692e+01 -2 0 0
1627 543 1 -8.1999999999999995e-01 -1.4914934573990500e+01 -4.4402432067682955e+00 -1.1703196798656323e+01 1 0 -1
1549 517 1 -8.1999999999999995e-01 -9.3948655612153189e+00 -9.2234374219430215e+00 -1.3071044047850716e+01 -1 0 2
1551 517 2 4.0999999999999998e-01 -9.3731905716777302e+00 -9.3087266233134045e+00 -1.2074916949485033e+01 -1 0 2
1169 390 2 4.0999999999999998e-01 -7.9558303873104146e+00 -1.0513846244184347e+01 -1.3342135771361582e+01 -1 -1 1
1550 517 2 4.0999999999999998e-01 -1.0331835818084768e+01 -9.0421149946593076e+00 -1.3369744876762850e+01 -1 0 2
1168 390 1 -8.1999999999999995e-01 -7.3213207488413952e+00 -1.1220112351688918e+01 -1.3028131227537832e+01 -1 -1 1
1242 414 2 4.0999999999999998e-01 -9.7167385710714811e+00 -9.5522031706089265e+00 -9.9682421636136187e+00 0 1 0
314 105 2 4.0999999999999998e-01 -1.1510060020663403e+01 -1.3923030224306832e+01 -1.0207283547380836e+01 -1 -1 0
514 172 1 -8.1999999999999995e-01 -1.4333929021236848e+01 -1.2821802642540586e+01 -1.2008318837034889e+01 -1 0 0
515 172 2 4.0999999999999998e-01 -1.4524684017633144e+01 -1.3802959639524360e+01 -1.1977387057572050e+01 -1 0 0
516 172 2 4.0999999999999998e-01 -1.3357175263192115e+01 -1.2667296667033007e+01 -1.1859680841780081e+01 -1 0 0
1240 414 1 -8.1999999999999995e-01 -8.8076333472724357e+00 -9.9076783632543339e+00 -1.0185447599163236e+01 0 1 0
406 136 1 -8.1999999999999995e-01 -8.5915955060854969e+00 -1.2609257260668649e+01 -8.9900825041714754e+00 -1 2 1
776 259 2 4.0999999999999998e-01 -8.2977852390498548e+00 -8.7582763953776119e+00 -1.4365411655297470e+01 0 1 1
407 136 2 4.0999999999999998e-01 -7.6495023805475553e+00 -1.2939908877509501e+01 -8.9340171306675842e+00 -1 2 1
1170 390 2 4.0999999999999998e-01 -6.6509297023932632e+00 -1.0813747093425201e+01 -1.2407279907749057e+01 -1 -1 1
508 170 1 -8.1999999999999995e-01 -1.4051773768538684e+01 -9.5385914074148701e+00 -8.7974392087044357e+00 -2 0 1
2224 742 1 -8.1999999999999995e-01 -9.5708408022567788e+00 -1.2857757094104453e+01 -1.3642644305319839e+01 -2 0 0
2225 742 2 4.0999999999999998e-01 -8.7471395946308661e+00 -1.2368094718087455e+01 -1.3356706691429002e+01 -2 0 0
444 148 2 4.0999999999999998e-01 -1.0048609059247958e+01 -1.3199997173026837e+01 -1.1872969325100769e+01 0 0 1
1211 404 2 4.0999999999999998e-01 -1.0173900366134532e+01 -1.1951540283954579e+01 -8.0307603498816036e+00 -1 1 0
2226 742 2 4.0999999999999998e-01 -9.3736691065925264e+00 -1.3836431382271400e+01 -1.3700377924932884e+01 -2 0 0
928 310 1 -8.1999999999999995e-01 -6.2959894898239686e+00 -1.5739877635519619e+00 -1.3813658437853402e+01 1 -1 2
269 90 2 4.0999999999999998e-01 -1.1860581032855972e+01 -8.7710229119291974e+00 -8.8644919389044237e+00 0 1 -1
2051 684 2 4.0999999999999998e-01 -1.3313723548353313e+01 -1.2269720550676375e+01 -7.7984271909354588e+00 -1 -1 1
408 136 2 4.0999999999999998e-01 -9.0652478121768940e+00 -1.3077233979840667e+01 -9.7361820642245931e+00 -1 2 1
443 148 2 4.0999999999999998e-01 -9.3479326433882175e+00 -1.4510009772174506e+01 -1.1195045012282167e+01 0 0 1
13 5 1 -8.1999999999999995e-01 -1.2353325837286283e+01 -8.6042306918580813e+00 -1.3759028898010028e+01 -2 0 0
15 5 2 4.0999999999999998e-01 -1.2682719404340549e+01 -9.1509940960998311e+00 -1.4528809978926267e+01 -2 0 0
268 90 1 -8.1999999999999995e-01 -1.0915238765850313e+01 -8.5209057450254342e+00 -9.0737348541202998e+00 0 1 -1
510 170 2 4.0999999999999998e-01 -1.4249012310386105e+01 -9.8411748040095777e+00 -9.7299376516464360e+00 -2 0 1
966 322 2 4.0999999999999998e-01 -7.7841788170938315e+00 -8.0635752105129725e+00 -1.0247992082447338e+01 -3 -1 1
2182 728 1 -8.1999999999999995e-01 -5.7238624282718913e+00 -1.3195217089448192e+01 -9.2854781610479158e+00 -1 1 -1
442 148 1 -8.1999999999999995e-01 -1.0035388581482607e+01 -1.3794765927764368e+01 -1.1069172989722952e+01 0 0 1
140 47 2 4.0999999999999998e-01 -1.1169724731704822e+01 -1.2367891371736372e+01 -1.4362714165996389e+01 -1 0 3
2052 684 2 4.0999999999999998e-01 -1.4673920384876363e+01 -1.2997924537562239e+01 -8.3334462275673733e+00 -1 -1 1
1212 404 2 4.0999999999999998e-01 -1.1563547236970535e+01 -1.2628167126027847e+01 -8.5577513224807138e+00 -1 1 0
270 90 2 4.0999999999999998e-01 -1.0877745658841761e+01 -7.5602682456042531e+00 -9.3490221667644704e+00 0 1 -1
313 105 1 -8.1999999999999995e-01 -1.2227654014628314e+01 -1.3955412328068601e+01 -9.5115655307123745e+00 -1 -1 0
2184 728 2 4.0999999999999998e-01 -5.4985902790816841e+00 -1.4134837260404961e+01 -9.5431206031950744e+00 -1 1 -1
1038 346 2 4.0999999999999998e-01 -9.0529731412295416e+00 -2.1218740105923253e+00 -1.3890056622499969e+01 0 0 2
2024 675 2 4.0999999999999998e-01 -9.7787448107057191e+00 -8.7427148346252004e+00 -7.7206592730471852e+00 0 0 0
964 322 1 -8.1999999999999995e-01 -7.2139253491885222e+00 -7.3625533409352864e+00 -1.0676235579805045e+01 -3 -1 1
2132 711 2 4.0999999999999998e-01 -1.2360467813378337e+01 -1.4456434968498577e-01 -1.3889878979936551e+01 0 0 2
1210 404 1 -8.1999999999999995e-01 -1.1149504624533634e+01 -1.2064878597325126e+01 -7.8427072371489919e+00 -1 1 0
2183 728 2 4.0999999999999998e-01 -5.3125075640404891e+00 -1.2985051640818988e+01 -8.3985560183855501e+00 -1 1 -1
759 253 2 4.0999999999999998e-01 -6.9767587058461489e+00 -5.7793799225418638e+00 -1.3854996647474575e+01 -1 1 1
139 47 1 -8.1999999999999995e-01 -1.2066488888361754e+01 -1.2329529483330591e+01 -1.4803572003942280e+01 -1 0 3
2050 684 1 -8.1999999999999995e-01 -1.4311359647303853e+01 -1.2286310356464764e+01 -7.7316420756081037e+00 -1 -1 1
929 310 2 4.0999999999999998e-01 -5.4598733482804782e+00 -1.0730550921786843e+00 -1.3590075595041792e+01 1 -1 2
1102 368 1 -8.1999999999999995e-01 -1.1188726485299831e+01 -6.1966720466193390e+00 -1.4464081126482361e+01 0 0 0
1103 368 2 4.0999999999999998e-01 -1.1792639691503970e+01 -6.8873428069366085e+00 -1.4066241933769888e+01 0 0 0
1037 346 2 4.0999999999999998e-01 -8.1080345405547884e+00 -3.4379458665159142e+00 -1.3685831763484568e+01 0 0 2
1151 384 2 4.0999999999999998e-01 -1.3761680538734755e+01 -1.1722542576570767e+00 -1.1480473490293125e+01 -1 0 1
181 61 1 -8.1999999999999995e-01 -6.2231511287095582e+00 -3.2632120930777155e+00 -1.0595724620940871e+01 0 0 -2
755 252 2 4.0999999999999998e-01 -6.3469141515898357e+00 -1.1430736551871673e+01 -1.4319109389244471e+01 -3 1 1
909 303 2 4.0999999999999998e-01 -1.4735630893647803e+01 -1.4060981452970296e+00 -1.3040304914646823e+01 0 -2 1
31 11 1 -8.1999999999999995e-01 -6.7930090732222403e+00 -3.3702958096955058e+00 -7.5221928458992595e+00 0 1 0
2457 819 2 4.0999999999999998e-01 -5.0506051711372404e+00 -5.9371661754785361e+00 -7.7652245452242399e+00 -1 1 0
182 61 2 4.0999999999999998e-01 -6.4278422201033276e+00 -3.7114431144831634e+00 -1.1465899183625943e+01 0 0 -2
757 253 1 -8.1999999999999995e-01 -6.7548455164818790e+00 -4.8416233288364499e+00 -1.3587825592519613e+01 -1 1 1
915 305 2 4.0999999999999998e-01 -1.2072322788605982e+01 -3.9825784987164887e+00 -1.3690649438824590e+01 -1 -1 0
32 11 2 4.0999999999999998e-01 -7.5769926780453059e+00 -2.8018384686173672e+00 -7.7716708015753238e+00 0 1 0
125 42 2 4.0999999999999998e-01 -1.3418434408212862e+01 -5.8104714305098017e+00 -9.5561722252993277e+00 -1 -2 1
965 322 2 4.0999999999999998e-01 -7.7171091415937729e+00 -6.9373572097000995e+00 -1.1428583603654255e+01 -3 -1 1
33 11 2 4.0999999999999998e-01 -6.4006818016235414e+00 -3.7775405428551956e+00 -8.3469620950516727e+00 0 1 0
1050 350 2 4.0999999999999998e-01 -1.4427377430448111e+01 -1.7751616466092948e+00 -8.9364114927761946e+00 -1 0 -1
1539 513 2 4.0999999999999998e-01 -5.8513424495827131e+00 -4.7671278469417508e+00 -9.8110480080653950e+00 -1 -1 -1
1685 562 2 4.0999999999999998e-01 -9.6784914715891581e+00 -3.4645530882719022e-01 -1.4489912893059101e+01 -1 1 0
275 92 2 4.0999999999999998e-01 -9.6255250408832005e+00 -1.5869798801515209e+00 -8.6307881982502348e+00 -1 -1 -1
126 42 2 4.0999999999999998e-01 -1.3597284398567822e+01 -4.8721068317818350e+00 -1.0880614156013106e+01 -1 -2 1
1369 457 1 -8.1999999999999995e-01 -1.4614975708326511e+01 -8.3566528535926388e+00 -1.2186611814209796e+01 0 -1 1
2031 677 2 4.0999999999999998e-01 -9.6737114145949619e+00 -6.0105824853785865e+00 -1.0074967970565375e+01 0 -1 -1
2029 677 1 -8.1999999999999995e-01 -1.0457265988452448e+01 -6.0021924608670361e+00 -9.4536909819537200e+00 0 -1 -1
930 310 2 4.0999999999999998e-01 -6.9202329358839005e+00 -1.5459126214813601e+00 -1.3032924764979885e+01 1 -1 2
315 105 2 4.0999999999999998e-01 -1.2669867015752253e+01 -1.4852133625426680e+01 -9.5303223622475990e+00 -1 -1 0
274 92 1 -8.1999999999999995e-01 -8.8767440716117303e+00 -1.6623292402147403e+00 -7.9722574989245700e+00 -1 -1 -1
2263 755 1 -8.1999999999999995e-01 -7.1035702753386110e+00 -8.3732116238925336e-01 -1.0650428420062319e+01 -2 0 0
1150 384 1 -8.1999999999999995e-01 -1.3716658947247495e+01 -1.9056000489477718e+00 -1.0802100320203927e+01 -1 0 1
1036 346 1 -8.1999999999999995e-01 -8.9363066975412409e+00 -2.9713773913533537e+00 -1.3375521642021901e+01 0 0 2
2131 711 1 -8.1999999999999995e-01 -1.3127059841225096e+01 -7.7505196127906828e-01 -1.3768078827996447e+01 0 0 2
2265 755 2 4.0999999999999998e-01 -7.0542012256985096e+00 -5.0504795000191294e-01 -9.7085311417536815e+00 -2 0 0
1086 362 2 4.0999999999999998e-01 -8.7080669027627202e+00 -5.2546753587853807e+00 -1.2720190614650235e+01 0 0 0
2192 731 2 4.0999999999999998e-01 -1.2739821122371314e+01 -5.0989335615383240e+00 -7.5993205726063069e+00 0 -1 3
914 305 2 4.0999999999999998e-01 -1.0719441368547139e+01 -3.1821625431592562e+00 -1.3248260472171681e+01 -1 -1 0
1084 362 1 -8.1999999999999995e-01 -9.2068890156967598e+00 -5.9996540784236778e+00 -1.2277249912955892e+01 0 0 0
1113 371 2 4.0999999999999998e-01 -1.0942935224140456e+01 -3.5625431838261683e+00 -1.0670546644642773e+01 -1 -3 -1
1085 362 2 4.0999999999999998e-01 -9.9672978682921602e+00 -6.2848430794415400e+00 -1.2860738433750791e+01 0 0 0
124 42 1 -8.1999999999999995e-01 -1.2933970873098856e+01 -5.3038552801950924e+00 -1.0269368157331982e+01 -1 -2 1
1152 384 2 4.0999999999999998e-01 -1.4393360312884496e+01 -2.6074520692500052e+00 -1.1024568509534742e+01 -1 0 1
2030 677 2 4.0999999999999998e-01 -1.1262312084622534e+01 -5.6584220616615628e+00 -9.9371534857935053e+00 0 -1 -1
545 182 2 4.0999999999999998e-01 -1.3605260213984941e+01 -7.6370340936217245e+00 -8.6496221562250071e+00 -1 -1 0
509 170 2 4.0999999999999998e-01 -1.4527900996824528e+01 -1.0130607771937040e+01 -8.1471833272820113e+00 -2 0 1
2133 711 2 4.0999999999999998e-01 -1.2777842757964299e+01 -1.6854768504714315e+00 -1.3546296992831373e+01 0 0 2
1537 513 1 -8.1999999999999995e-01 -5.5273740461395562e+00 -5.5358919957584867e+00 -9.2596321962470682e+00 -1 -1 -1
1538 513 2 4.0999999999999998e-01 -5.9402148275822579e+00 -6.3831682664799043e+00 -9.5938457196716396e+00 -1 -1 -1
913 305 1 -8.1999999999999995e-01 -1.1711112545708190e+01 -3.1120630152460294e+00 -1.3356369374834163e+01 -1 -1 0
544 182 1 -8.1999999999999995e-01 -1.3666092752500898e+01 -6.8253642380769346e+00 -8.0686707414311361e+00 -1 -1 0
1112 371 2 4.0999999999999998e-01 -1.2122011670027382e+01 -2.4889690038907606e+00 -1.0318582719688385e+01 -1 -3 -1
183 61 2 4.0999999999999998e-01 -6.5632568298354581e+00 -2.3230574515274327e+00 -1.0616952774430803e+01 0 0 -2
758 253 2 4.0999999999999998e-01 -5.9541229015340882e+00 -4.5299200256329986e+00 -1.4099389490105873e+01 -1 1 1
2193 731 2 4.0999999999999998e-01 -1.1816501093501365e+01 -3.9304842907071968e+00 -8.2692968822702255e+00 0 -1 3
1111 371 1 -8.1999999999999995e-01 -1.1250681909289693e+01 -2.8737899324234135e+00 -1.0014098661338007e+01 -1 -3 -1
2019 673 2 4.0999999999999998e-01 -1.4367268664036272e+01 -1.1372248490424450e+01 -1.4733159667427890e+01 -1 1 -2
1371 457 2 4.0999999999999998e-01 -1.4668854970897844e+01 -9.3427584527950955e+00 -1.2029430494752484e+01 0 -1 1
2264 755 2 4.0999999999999998e-01 -7.1141284897651600e+00 -5.9066483134481373e-02 -1.1278299008518690e+01 -2 0 0
2199 733 2 4.0999999999999998e-01 -5.2112405107185467e+00 -8.6045205815302630e+00 -1.0087506937691515e+01 -1 2 3
2062 688 1 -8.1999999999999995e-01 -7.8080943902880184e+00 -8.5480293285125111e+00 -2.4471333847731973e+00 1 1 -1
2063 688 2 4.0999999999999998e-01 -7.3163881404786109e+00 -8.3644335376675372e+00 -3.2983271171097481e+00 1 1 -1
2064 688 2 4.0999999999999998e-01 -7.3593187623040173e+00 -9.2956446128602295e+00 -1.9575569398063806e+00 1 1 -1
1018 340 1 -8.1999999999999995e-01 -1.4234850452775438e+01 -7.5675746105210377e+00 -1.4636242233460504e+00 -1 1 1
1321 441 1 -8.1999999999999995e-01 -6.2185705335807473e+00 -1.2056429976255933e+01 -3.1606147729731653e+00 -3 0 0
1677 559 2 4.0999999999999998e-01 -8.5072569436690042e+00 -1.0071395666013995e+01 -4.9687638006798309e+00 -2 2 0
1214 405 2 4.0999999999999998e-01 -1.1960396994252854e+01 -2.8834592704808912e+00 -4.3283349744352506e+00 -1 0 2
1322 441 2 4.0999999999999998e-01 -5.3356607630111288e+00 -1.1946791814606515e+01 -3.6171921633673225e+00 -3 0 0
1675 559 1 -8.1999999999999995e-01 -8.2997606884629747e+00 -1.0753770557715061e+01 -4.2678194028103533e+00 -2 2 0
1676 559 2 4.0999999999999998e-01 -8.8121680882329798e+00 -1.0542930972431961e+01 -3.4353540336122030e+00 -2 2 0
1222 408 1 -8.1999999999999995e-01 -1.0978431634152953e+01 -1.0737745631464410e+01 -3.1906437621707848e+00 0 1 0
1224 408 2 4.0999999999999998e-01 -1.1119726209182316e+01 -1.0554716381130003e+01 -4.1635514760916994e+00 0 1 0
2023 675 1 -8.1999999999999995e-01 -9.4422384630747658e+00 -8.4959090711807974e+00 -6.8118888567804774e+00 0 0 0
1323 441 2 4.0999999999999998e-01 -6.9216045748592983e+00 -1.1561400674981664e+01 -3.6712049553264023e+00 -3 0 0
885 295 2 4.0999999999999998e-01 -6.9078770946612860e+00 -1.3080377995063721e+01 -1.8180754621918691e+00 0 -1 0
2489 830 2 4.0999999999999998e-01 -9.0998203082538467e+00 -5.5921942267908289e+00 -3.4259325877967477e+00 -2 0 2
351 117 2 4.0999999999999998e-01 -1.1852228653881719e+01 -1.3870307195293808e+01 -5.2248085511211855e+00 -2 -2 0
2291 764 2 4.0999999999999998e-01 -1.0566355377068955e+01 -1.2001333701194817e+01 -2.1056136580915492e+00 0 0 1
2140 714 1 -8.1999999999999995e-01 -1.3306474461366914e+01 -8.4889243450583169e+00 -4.9373079928163666e+00 1 -1 0
1223 408 2 4.0999999999999998e-01 -1.1001665687184795e+01 -9.8766729759962537e+00 -2.6826798622932948e+00 0 1 0
2144 715 2 4.0999999999999998e-01 -1.4775444772422127e+01 -2.4009319314815389e+00 -2.2152367983606176e+00 -2 -1 1
2290 764 1 -8.1999999999999995e-01 -1.0295171451917538e+01 -1.2766480896643937e+01 -1.5216425086112348e+00 0 0 1
350 117 2 4.0999999999999998e-01 -1.1094707266214463e+01 -1.3007237679284083e+01 -6.3858141238328994e+00 -2 -2 0
2141 714 2 4.0999999999999998e-01 -1.2607068636603614e+01 -8.9993162087552108e+00 -5.4376527002335706e+00 1 -1 0
2292 764 2 4.0999999999999998e-01 -1.0199246164564411e+01 -1.2448273533579208e+01 -5.7847994701095473e-01 0 0 1
893 298 2 4.0999999999999998e-01 -1.3431856897797019e+01 -1.3405079690044277e+01 -4.0184998293437104e+00 -1 -2 -2
349 117 1 -8.1999999999999995e-01 -1.0962265326969879e+01 -1.3583136040836953e+01 -5.5790840421019556e+00 -2 -2 0
1850 617 2 4.0999999999999998e-01 -1.0528091984275099e+01 -5.2814765264511969e+00 -1.3402810477381006e+00 -1 1 0
1922 641 2 4.0999999999999998e-01 -9.5582822285812554e+00 -1.4224931465505565e+01 -4.2879557664162693e+00 -1 0 2
892 298 1 -8.1999999999999995e-01 -1.3441337799655440e+01 -1.2409005579217872e+01 -3.9304105447375051e+00 -1 -2 -2
894 298 2 4.0999999999999998e-01 -1.2539727413140152e+01 -1.2091801397811411e+01 -3.6363128562446203e+00 -1 -2 -2
538 180 1 -8.1999999999999995e-01 -1.1402828956684338e+01 -1.0072425114730390e+01 -6.0266566915646891e+00 -2 1 -1
1172 391 2 4.0999999999999998e-01 -1.1857831251883326e+01 -9.5235426381421533e+00 -3.6890496986810106e-01 0 -1 0
2025 675 2 4.0999999999999998e-01 -9.6501854200112334e+00 -7.5349976034901838e+00 -6.6290762784169335e+00 0 0 0
539 180 2 4.0999999999999998e-01 -1.1473660083253952e+01 -1.0846550761281428e+01 -6.6557240251874585e+00 -2 1 -1
540 180 2 4.0999999999999998e-01 -1.0759808284073831e+01 -9.4011254296439422e+00 -6.3952953029182229e+00 -2 1 -1
2039 680 2 4.0999999999999998e-01 -1.0437545648168323e+01 -3.1624700759349977e-02 -9.7950373973600513e-01 0 -1 -1
2142 714 2 4.0999999999999998e-01 -1.3662007297265051e+01 -9.0533785629358228e+00 -4.1923240524085514e+00 1 -1 0
989 330 2 4.0999999999999998e-01 -9.3022357688298136e+00 -7.6277740894140011e+00 -2.0457982746606511e+00 -3 1 0
1173 391 2 4.0999999999999998e-01 -1.2868376414920885e+01 -8.6145950917900667e+00 -1.2740428787538836e+00 0 -1 0
1171 391 1 -8.1999999999999995e-01 -1.1910332256197787e+01 -8.8399125058309096e+00 -1.0968519036811308e+00 0 -1 0
931 311 1 -8.1999999999999995e-01 -5.9159722762742728e+00 -1.0322012560741967e+01 -1.1207711111263023e+00 -2 -1 0
1923 641 2 4.0999999999999998e-01 -9.5257201185060634e+00 -1.3871277299174826e+01 -2.6940516554783738e+00 -1 0 2
883 295 1 -8.1999999999999995e-01 -6.7452716541406339e+00 -1.3813741633274445e+01 -1.1579614911012026e+00 0 -1 0
1213 405 1 -8.1999999999999995e-01 -1.1166147135614359e+01 -3.3948247634691988e+00 -4.0001798792329346e+00 -1 0 2
933 311 2 4.0999999999999998e-01 -5.9378652902287108e+00 -1.0980288304118634e+01 -1.8732384040094470e+00 -2 -1 0
1020 340 2 4.0999999999999998e-01 -1.3849794661812343e+01 -7.0022301752108351e+00 -7.3415122166640323e-01 -1 1 1
352 118 1 -8.1999999999999995e-01 -6.1527395751162359e+00 -6.2896931747816627e+00 -1.5381408472155904e+00 -2 0 0
354 118 2 4.0999999999999998e-01 -6.8449848858549363e+00 -6.9270541380076605e+00 -1.1996432628119695e+00 -2 0 0
1602 534 2 4.0999999999999998e-01 -5.0578619333596571e+00 -1.3619000053606134e+01 -6.5813681257493304e+00 -1 1 1
2555 852 2 4.0999999999999998e-01 -1.4520107025926139e+01 -1.1332695383357017e+00 -4.4337377139180791e+00 -1 0 1
2409 803 2 4.0999999999999998e-01 -1.0154074496894758e+01 -5.9829946308219331e+00 -7.3623755726936393e+00 0 1 1
44 15 2 4.0999999999999998e-01 -7.6589970154467153e+00 -6.7939908608637190e-01 -3.5152817480035967e+00 -3 0 0
875 292 2 4.0999999999999998e-01 -7.8183492124623184e+00 -1.3724118322548476e+01 -6.5721878546798038e+00 -2 1 -1
1527 509 2 4.0999999999999998e-01 -1.3042562495538361e+01 -2.6920861085683612e+00 -6.3494669550109180e+00 -1 1 0
296 99 2 4.0999999999999998e-01 -1.2807095940062840e+01 -6.6435413279311870e+00 -4.2034321487813227e+00 -2 1 -3
983 328 2 4.0999999999999998e-01 -5.0500702417360834e+00 -3.1759085295437455e+00 -4.4352459377299081e+00 -1 -1 0
2120 707 2 4.0999999999999998e-01 -5.4784155949714712e+00 -8.2641065440231571e+00 -5.2883095083578517e+00 -2 2 -1
1019 340 2 4.0999999999999998e-01 -1.4692311468318438e+01 -8.3617508872167736e+00 -1.0635908313469020e+00 -1 1 1
1089 363 2 4.0999999999999998e-01 -6.3532287594532360e+00 -2.7810907718327424e+00 -8.2085119683375218e-01 -2 0 -1
2135 712 2 4.0999999999999998e-01 -7.0182217220417513e+00 -6.7836908214030931e+00 -4.2629899787951420e+00 -1 1 0
1526 509 2 4.0999999999999998e-01 -1.3462957358422260e+01 -1.1863430341380337e+00 -6.8213437270374442e+00 -1 1 0
276 92 2 4.0999999999999998e-01 -9.1669699111727070e+00 -1.2848049415238414e+00 -7.0929068206478734e+00 -1 -1 -1
2119 707 1 -8.1999999999999995e-01 -5.0657986964889741e+00 -8.6238747061897598e+00 -6.1251651690127193e+00 -2 2 -1
295 99 1 -8.1999999999999995e-01 -1.2443868695925872e+01 -5.9226588341194297e+00 -3.6131715390235595e+00 -2 1 -3
1849 617 1 -8.1999999999999995e-01 -1.0627509719048437e+01 -4.2974598228737992e+00 -1.1924956707044334e+00 -1 1 0
2134 712 1 -8.1999999999999995e-01 -6.1249543365100472e+00 -7.2014063231747993e+00 -4.0968565959177639e+00 -1 1 0
487 163 1 -8.1999999999999995e-01 -6.8115454600387757e+00 -3.5037699619174241e+00 -4.7972438990919652e+00 -3 -3 0
42 14 2 4.0999999999999998e-01 -9.7247369173854317e+00 -1.0049367635317470e+00 -2.9759111681171948e+00 -1 2 2
2241 747 2 4.0999999999999998e-01 -1.0047701507120813e+01 -1.2435360493097534e+00 -5.0339670545266095e+00 -1 -1 -2
2456 819 2 4.0999999999999998e-01 -5.1037856669172132e+00 -6.8476384497212806e+00 -6.4106494407895287e+00 -1 1 0
43 15 1 -8.1999999999999995e-01 -8.2779945145181735e+00 -1.4645859644365480e+00 -3.4969267004961271e+00 -3 0 0
297 99 2 4.0999999999999998e-01 -1.2470010017022505e+01 -6.2268303322217307e+00 -2.6609060306634174e+00 -2 1 -3
1132 378 1 -8.1999999999999995e-01 -1.4903300112477552e+01 -5.0603643127340643e+00 -5.6768951396232534e+00 -1 1 0
990 330 2 4.0999999999999998e-01 -1.0826980388831378e+01 -7.6675643930902933e+00 -1.4625038207855052e+00 -3 1 0
1133 378 2 4.0999999999999998e-01 -1.4540373267369270e+01 -5.2636834957928524e+00 -4.7675224765353903e+00 -1 1 0
488 163 2 4.0999999999999998e-01 -6.5158966575946273e+00 -3.4684589712034182e+00 -5.7518947259708177e+00 -3 -3 0
2240 747 2 4.0999999999999998e-01 -1.1479356419409330e+01 -8.9488702127679609e-01 -5.7378632653155481e+00 -1 -1 -2
988 330 1 -8.1999999999999995e-01 -1.0107935990599119e+01 -7.0767507505411311e+00 -1.8284651256171269e+00 -3 1 0
45 15 2 4.0999999999999998e-01 -7.8458030627599369e+00 -2.2405496606065451e+00 -3.9563874124592697e+00 -3 0 0
2239 747 1 -8.1999999999999995e-01 -1.0524022467482951e+01 -6.1353840042626118e-01 -5.6473466674291775e+00 -1 -1 -2
40 14 1 -8.1999999999999995e-01 -1.0610218771122412e+01 -9.4076866127059233e-01 -2.5156748364689108e+00 -1 2 2
1525 509 1 -8.1999999999999995e-01 -1.3082177279208292e+01 -1.7314596630009085e+00 -6.0744383481431008e+00 -1 1 0
1851 617 2 4.0999999999999998e-01 -1.0351213843670129e+01 -3.8067087052222686e+00 -2.0188353108342731e+00 -1 1 0
2488 830 1 -8.1999999999999995e-01 -8.3572038632479284e+00 -5.6112741066072260e+00 -4.0953876211156395e+00 -2 0 2
41 14 2 4.0999999999999998e-01 -1.1032158409030334e+01 -1.8465725903347163e+00 -2.4769522424100554e+00 -1 2 2
489 163 2 4.0999999999999998e-01 -7.5105881854379115e+00 -4.2108828525984645e+00 -4.6907362183176726e+00 -3 -3 0
1215 405 2 4.0999999999999998e-01 -1.1380777305888239e+01 -4.3714356028428067e+00 -3.9868247460001331e+00 -1 0 2
2136 712 2 4.0999999999999998e-01 -5.8043305600718629e+00 -6.9504565133273370e+00 -3.1834904289477635e+00 -1 1 0
2490 830 2 4.0999999999999998e-01 -8.7322753928621601e+00 -5.7943943167171668e+00 -5.0041238596382787e+00 -2 0 2
2143 715 1 -8.1999999999999995e-01 -1.4641975040331403e+01 -2.9380570676328972e+00 -1.3823529177227663e+00 -2 -1 1
2408 803 2 4.0999999999999998e-01 -1.0596450337449300e+01 -5.0445582743869739e+00 -6.1013035571625913e+00 0 1 1
1921 641 1 -8.1999999999999995e-01 -9.2453703362818640e+00 -1.4532927240171551e+01 -3.3894915322627028e+00 -1 0 2
2407 803 1 -8.1999999999999995e-01 -9.9637589816856007e+00 -5.7559709822133165e+00 -6.4072559377679301e+00 0 1 1
2228 743 2 4.0999999999999998e-01 -1.4411479996074116e+01 -1.1089183446839046e+01 -4.0716040515414331e+00 -2 -2 0
1087 363 1 -8.1999999999999995e-01 -6.7011135738711047e+00 -3.6283459806904546e+00 -4.1941874495897125e-01 -2 0 -1
353 118 2 4.0999999999999998e-01 -6.3257960341693149e+00 -5.3792424040103963e+00 -1.1624493727357894e+00 -2 0 0
932 311 2 4.0999999999999998e-01 -6.0535003338657614e+00 -1.0801694910638114e+01 -2.5416628398916252e-01 -2 -1 0
1299 433 2 4.0999999999999998e-01 -1.0397155247022635e+01 -1.4505513244370640e+01 -1.3018143396803641e+00 -1 -1 0
884 295 2 4.0999999999999998e-01 -5.8097381661722984e+00 -1.4152121183721938e+01 -1.2593992185863563e+00 0 -1 0
546 182 2 4.0999999999999998e-01 -1.3494955090470075e+01 -7.0826133273117584e+00 -7.1175934646229155e+00 -1 -1 0
874 292 1 -8.1999999999999995e-01 -6.9652673775629328e+00 -1.4227986187976978e+01 -6.7077672251855276e+00 -2 1 -1
1088 363 2 4.0999999999999998e-01 -7.6859521970373583e+00 -3.5452170485721908e+00 -2.6711751887897428e-01 -2 0 -1
2191 731 1 -8.1999999999999995e-01 -1.2320111029024007e+01 -4.2036860338206683e+00 -7.4496926451363192e+00 0 -1 3
1090 364 1 -8.1999999999999995e-01 -1.2058208020503010e+01 -9.5029922317877258e+00 3.6440535105725189e+00 -1 0 -3
1092 364 2 4.0999999999999998e-01 -1.2300621031894362e+01 -8.5641669035732413e+00 3.3993981913725690e+00 -1 0 -3
1091 364 2 4.0999999999999998e-01 -1.2178118823273973e+01 -9.6324825829956033e+00 4.6283638911310803e+00 -1 0 -3
997 333 1 -8.1999999999999995e-01 -6.5087845452804647e+00 -1.3448611107851310e+01 1.6017840704150004e+00 -2 0 1
2426 809 2 4.0999999999999998e-01 -1.4628659779177223e+01 -4.7591461407553144e+00 6.3448329376968715e+00 0 1 2
2008 670 1 -8.1999999999999995e-01 -1.2400531063479002e+01 -1.0454617175933301e+01 8.5993286659491197e-01 -1 3 1
2009 670 2 4.0999999999999998e-01 -1.2600640074559490e+01 -1.1419103017070739e+01 6.8748978079689671e-01 -1 3 1
662 221 2 4.0999999999999998e-01 -7.9863178890157194e+00 -1.2365587940985076e+01 3.5981785827335067e+00 -1 0 0
695 232 2 4.0999999999999998e-01 -1.0777651810110392e+01 -1.3721958242331104e+01 3.5583671560910872e+00 0 1 1
999 333 2 4.0999999999999998e-01 -6.4841941162371199e+00 -1.2473650419260240e+01 1.8228275625493353e+00 -2 0 1
2010 670 2 4.0999999999999998e-01 -1.2096629481545559e+01 -1.0341205370696748e+01 1.8058688392082836e+00 -1 3 1
696 232 2 4.0999999999999998e-01 -1.2294499693369509e+01 -1.4324029854705909e+01 3.5005395349492083e+00 0 1 1
560 187 2 4.0999999999999998e-01 -7.2345378741701030e+00 -1.3406806185507550e+01 6.5551723907402675e+00 0 -1 1
661 221 1 -8.1999999999999995e-01 -8.9604549106327003e+00 -1.2591381010719800e+01 3.6075475623760127e+00 -1 0 0
663 221 2 4.0999999999999998e-01 -9.4409489384357883e+00 -1.1968961919965531e+01 4.2253931975498098e+00 -1 0 0
1375 459 1 -8.1999999999999995e-01 -8.6617710051785295e+00 -9.4841553509313901e+00 3.8387489240769419e+00 -4 -1 -1
1377 459 2 4.0999999999999998e-01 -8.4289048892945946e+00 -9.0220101050038153e+00 4.6944406956365619e+00 -4 -1 -1
1376 459 2 4.0999999999999998e-01 -9.6442120575452535e+00 -9.4010238523289225e+00 3.6716802605157142e+00 -4 -1 -1
464 155 2 4.0999999999999998e-01 -9.1528465472431098e+00 -1.2485208632804820e+01 1.7404497530802807e+00 -1 1 0
559 187 1 -8.1999999999999995e-01 -6.5309186214239716e+00 -1.2933769946667510e+01 6.0249177937153569e+00 0 -1 1
1930 644 1 -8.1999999999999995e-01 -1.3925655607117999e+01 -1.4018474079559619e+01 5.6685559093834819e+00 0 0 -1
1288 430 1 -8.1999999999999995e-01 -5.7995160307126543e+00 -1.7483368543096507e+00 7.3774394046786682e+00 0 0 0
1361 454 2 4.0999999999999998e-01 -7.4106777900173402e+00 -1.0231918649640015e+01 3.0998436409999535e+00 -3 0 0
2004 668 2 4.0999999999999998e-01 -1.1399777853210848e+01 -1.0129020195507501e+01 7.1883267693611330e+00 -1 0 1
2130 710 2 4.0999999999999998e-01 -6.9988501174541726e+00 -6.9973500894259111e-01 2.3869291416247869e+00 0 -1 -1
2344 782 1 -8.1999999999999995e-01 -5.0137997214744701e+00 -2.9061618610296414e+00 4.1653928510923919e+00 -2 -2 1
249 83 2 4.0999999999999998e-01 -7.6328398445805989e+00 -5.8332693600638326e+00 6.1962104195296455e+00 -1 1 -1
1932 644 2 4.0999999999999998e-01 -1.3080756569496954e+01 -1.3972989684136193e+01 5.1355549274949119e+00 0 0 -1
2380 794 1 -8.1999999999999995e-01 -1.2455094656954710e+01 -1.3221413459255867e+01 6.2625132560376784e-01 0 0 1
1360 454 1 -8.1999999999999995e-01 -6.6372636894014505e+00 -1.0753657219511362e+01 2.7397983627684148e+00 -3 0 0
561 187 2 4.0999999999999998e-01 -6.1018984841503769e+00 -1.2231052393915039e+01 6.5924942523597458e+00 0 -1 1
998 333 2 4.0999999999999998e-01 -6.7598646223529144e+00 -1.3566325992048741e+01 6.4099519842673480e-01 -2 0 1
230 77 2 4.0999999999999998e-01 -5.7924908107765773e+00 -1.3848880107811164e+01 3.0167516406789119e+00 -1 0 -2
2003 668 2 4.0999999999999998e-01 -1.2856026008519393e+01 -9.4168900803825188e+00 6.9911623461473305e+00 -1 0 1
2002 668 1 -8.1999999999999995e-01 -1.1929968977257193e+01 -9.4975665468699368e+00 6.6224850239522155e+00 -1 0 1
802 268 1 -8.1999999999999995e-01 -7.3582362844241969e+00 -8.9901111570875347e+00 6.3396436156877769e+00 -1 0 -4
804 268 2 4.0999999999999998e-01 -6.3908390899743761e+00 -8.7814777986815002e+00 6.4832682273363496e+00 -1 0 -4
2304 768 2 4.0999999999999998e-01 -8.9090751483423247e+00 -8.2281969085726470e+00 6.4944567852961903e+00 0 1 1
465 155 2 4.0999999999999998e-01 -1.0183789151056056e+01 -1.1246552370722759e+01 1.4767266830331529e+00 -1 1 0
2303 768 2 4.0999999999999998e-01 -1.0489852568020256e+01 -8.5714538752081424e+00 6.2708964827609854e+00 0 1 1
432 144 2 4.0999999999999998e-01 -1.0930682161753797e+01 -4.2511459270290661e+00 5.5870035240189253e-01 -1 1 0
431 144 2 4.0999999999999998e-01 -1.2018292365580708e+01 -3.3750200178732914e+00 1.4049682091037958e+00 -1 1 0
694 232 1 -8.1999999999999995e-01 -1.1426879855516656e+01 -1.4343046953061110e+01 3.9974172196516804e+00 0 1 1
231 77 2 4.0999999999999998e-01 -5.7782228045664965e+00 -1.3789804439979269e+01 4.6486119648739965e+00 -1 0 -2
1362 454 2 4.0999999999999998e-01 -5.7950315431454200e+00 -1.0228675697551900e+01 2.8624873396208557e+00 -3 0 0
357 119 2 4.0999999999999998e-01 -9.1391432684544789e+00 -8.5923275297407287e-01 3.8156798731878894e+00 -1 0 -2
247 83 1 -8.1999999999999995e-01 -6.9195273881001125e+00 -5.3367884048414478e+00 6.6908872860353767e+00 -1 1 -1