2593
Atoms. Timestep: 1000000
O 8.6728 -9.8437 12.6052
H 7.74546 -9.48682 12.7178
H 9.31917 -9.24884 13.083
O -0.825182 9.29803 2.15519
H -0.5911 9.39723 3.12233
H -1.30013 10.1201 1.84119
O -10.6032 10.991 -14.8293
H -10.7407 10.0129 14.8562
H -9.6855 11.1444 -14.4629
O -3.25158 -9.35356 -12.7385
H -3.29858 -8.86307 -11.8684
H -4.06251 -9.92973 -12.8406
O 14.0417 -8.68422 -12.502
H 13.1763 -8.4232 -12.9298
H 14.5509 -9.2842 -13.119
O -7.45359 8.48108 -3.40907
H -8.20099 8.4443 -2.74572
H -7.05414 7.57013 -3.51198
O 9.66736 2.3957 -10.7708
H 9.66908 1.67221 -11.4611
H 10.5409 2.39401 -10.284
O 11.6778 7.15238 -5.67394
H 12.3399 6.83022 -4.99728
H 11.7092 6.56022 -6.47915
O -1.46848 11.842 1.47778
H -2.10854 12.3754 2.03084
H -0.570944 12.2828 1.48877
O 14.0397 0.725362 2.40091
H 13.3308 0.253507 1.87664
H 14.9069 0.67962 1.90521
O -8.78156 -3.85349 -8.12682
H -9.14311 -4.73629 -7.82694
H -9.53261 -3.27867 -8.45163
O 7.86487 9.29626 8.04898
H 8.58377 9.38677 8.73817
H 7.72058 8.32841 7.84297
O 6.57278 -11.8977 -1.03792
H 5.69133 -12.3672 -1.08872
H 7.14986 -12.3451 -0.354696
O -12.511 -2.11278 -0.0827827
H -12.3638 -2.95959 0.428334
H -12.5435 -2.31552 -1.06147
O -12.2889 -2.5595 -2.71042
H -11.4215 -2.98808 -2.45734
H -12.1394 -1.92925 -3.47228
O 14.2255 8.21209 -6.97764
H -14.6921 8.47532 -6.70029
H 13.649 8.11453 -6.16635
O -9.60517 1.60986 12.8188
H -9.94388 1.86446 13.7246
H -9.20393 2.41144 12.3755
O -8.25819 12.369 -12.7682
H -8.1121 11.9654 -11.865
H -8.8548 13.1671 -12.6841
O -12.3731 -14.9069 6.71463
H -11.3966 -14.9035 6.49919
H -12.7988 -14.0808 6.34521
O 8.46472 1.90672 4.18881
H 9.15142 2.22802 4.84089
H 7.94427 2.68674 3.8414
O -5.84976 -0.617415 -3.26903
H -5.49955 -1.38464 -2.7317
H -5.79088 0.222142 -2.72896
O -5.48009 7.61137 13.9236
H -4.56359 7.56734 13.526
H -6.11261 8.01036 13.2598
O 8.57235 -14.6804 -11.1397
H 8.97343 -14.1801 -10.3724
H 8.01318 -14.0582 -11.6875
O 5.50111 13.7811 -9.12345
H 5.70784 14.4407 -8.40087
H 4.54677 13.8826 -9.40436
O 4.96011 8.55393 12.4599
H 4.44459 8.56196 11.603
H 5.20058 9.491 12.713
O -14.8064 13.3386 0.812504
H -14.7484 13.6457 1.76241
H -14.8842 12.342 0.788579
O 1.6064 -14.5176 -12.4072
H 2.57526 -14.273 -12.446
H 1.35526 14.8245 -13.2363
O -0.199491 0.769772 -10.7576
H 0.254503 1.54749 -11.1924
H 0.46576 0.255391 -10.2165
O -4.31403 12.5034 13.9061
H -5.22016 12.7791 13.5853
H -3.66614 13.2504 13.7572
O -1.77592 12.5133 -4.82215
H -0.862732 12.8735 -4.63154
H -2.29533 13.1846 -5.35092
O 12.6674 6.1352 -8.06412
H 13.0673 5.3049 -8.45231
H 13.3968 6.72922 -7.72474
O -0.388632 -1.49315 -12.1598
H 0.107373 -1.067 -12.9164
H -0.712652 -0.784817 -11.5327
O -7.58358 5.93166 14.1275
H -7.89484 6.13244 13.1987
H -6.83994 6.55406 14.3717
O -1.87343 0.928692 -13.9083
H -2.32294 0.612854 -13.0728
H -1.16649 0.273458 -14.1746
O -13.1169 -2.26994 3.18647
H -13.5368 -2.02231 4.05959
H -13.8142 -2.64539 2.57586
O -14.7279 13.7579 3.46254
H -14.0074 14.3687 3.79082
H -14.3564 12.8369 3.34536
O 3.02765 11.1708 5.02524
H 3.34853 11.9225 5.60142
H 3.75322 10.9038 4.39101
O 7.03851 3.64384 -0.508102
H 6.1794 4.15522 -0.528293
H 6.84268 2.66596 -0.434556
O 13.0353 -9.98135 -1.0411
H 13.1159 -10.6565 -1.77437
H 12.0971 -9.97559 -0.695016
O 11.2307 -6.44061 2.12683
H 11.0306 -7.38761 2.37814
H 10.6981 -5.82265 2.70521
O 3.00854 12.6445 0.473955
H 3.7568 12.2969 1.03898
H 2.31977 13.0723 1.05932
O 11.5396 -4.50872 -11.9072
H 11.3756 -3.56303 -11.6265
H 11.9348 -4.52006 -12.8257
O 4.17579 -7.53164 14.4355
H 4.14194 -6.92358 13.6423
H 4.8213 -7.16787 -14.7346
O -9.93689 1.17241 -2.80167
H -9.99899 0.641435 -1.95657
H -9.28275 1.91878 -2.67907
O -2.37921 8.18123 13.2208
H -2.5024 8.95396 12.5982
H -1.46466 7.7961 13.0973
O -3.33803 8.12868 1.02578
H -2.75239 8.45432 1.76806
H -4.15178 8.70672 0.965185
O -12.1821 -12.9039 -14.5241
H -12.9934 -13.4546 -14.7208
H -12.3835 -11.9399 -14.6976
O 12.2392 9.41264 -14.511
H 11.7872 9.34424 -13.6216
H 12.8473 8.62889 -14.637
O -12.5442 12.0932 6.65585
H -11.6512 11.7905 6.3227
H -12.603 13.0895 6.59352
O 8.66388 -13.9669 -6.00807
H 7.73124 -14.3199 -6.08261
H 9.24641 -14.4191 -6.68348
O 7.01423 11.9528 -4.60861
H 6.51981 12.4829 -5.29751
H 7.32604 12.5622 -3.87965
O -1.42752 0.32516 8.61373
H -2.05978 0.97568 9.03451
H -1.46308 -0.542516 9.10958
O 8.90711 2.25222 -4.96629
H 9.44532 2.84176 -5.56858
H 8.55717 2.78996 -4.19923
O -14.1924 -6.47543 2.70815
H -14.7791 -6.05789 2.01429
H -14.5124 -7.40302 2.90093
O -0.994937 3.88805 -6.71001
H -1.85722 3.40141 -6.56985
H -0.374838 3.69308 -5.95011
O -2.63737 8.10151 -9.68981
H -3.35471 8.12754 -10.386
H -2.66337 7.22061 -9.21723
O -12.9072 12.272 -14.5209
H -11.9844 11.9442 -14.7237
H -13.0772 13.1203 14.8192
O 11.0027 9.15025 -12.2246
H 11.1233 8.86675 -11.2732
H 10.6313 10.0783 -12.2513
O -7.81519 3.05516 -2.59695
H -7.87336 3.43479 -1.67364
H -6.90939 2.65507 -2.73637
O -8.18534 6.93711 -10.6938
H -8.5976 7.03237 -11.5999
H -8.19911 5.9752 -10.4208
O -7.25447 -5.70178 -12.0463
H -8.00974 -5.2764 -12.5449
H -7.11467 -5.22189 -11.1801
O 0.601708 5.59909 6.7341
H 0.849882 4.8542 7.35341
H 0.0966691 5.22973 5.95403
O -5.38884 -12.4082 -3.42948
H -5.80849 -12.2281 -4.31913
H -5.94796 -13.0654 -2.92409
O 14.2787 7.56653 6.77183
H 13.8833 7.97172 5.94753
H 13.7119 7.79892 7.56227
O 12.4726 -8.50509 -7.71015
H 13.2314 -7.9509 -7.36783
H 11.6313 -8.24865 -7.23429
O -6.13335 -13.6566 12.0963
H -6.94037 -13.2548 11.6636
H -5.93031 -13.1658 12.9436
O -7.81681 11.7104 8.68458
H -7.18628 11.6841 9.46029
H -8.5994 12.2904 8.91065
O -9.59751 3.05463 -12.1445
H -8.80478 3.66219 -12.1938
H -10.0227 3.13398 -11.2429
O -8.95717 7.64256 10.4268
H -8.37714 6.84717 10.2509
H -9.0242 8.19627 9.59677
O -11.6983 -10.2387 14.8963
H -10.789 -10.4254 -14.5733
H -11.6108 -9.87602 13.9685
O 13.9363 14.3599 -5.49326
H 14.7398 13.9339 -5.90914
H 14.2188 14.9038 -4.7031
O 0.854532 11.6997 -11.3272
H 0.896171 10.7048 -11.2348
H -0.0471269 11.9653 -11.6684
O 4.45167 -0.391423 11.2881
H 4.98177 -0.322028 10.443
H 3.71176 0.281119 11.2736
O -9.08087 11.8949 3.12735
H -9.21756 10.9258 3.33241
H -9.77936 12.2004 2.48023
O -7.71462 1.72956 3.33931
H -8.5775 1.64961 2.84027
H -7.84457 2.31745 4.13774
O 13.7725 -8.65618 7.04471
H 13.2614 -8.51016 6.19768
H 13.1496 -8.97533 7.75901
O -6.6081 14.6493 5.74066
H -6.95219 14.3108 4.86487
H -7.28023 14.4631 6.45729
O -9.65635 8.01168 -1.81938
H -10.1619 7.16053 -1.67816
H -9.80888 8.62275 -1.04263
O 4.13894 3.41794 -11.4921
H 4.68972 4.19909 -11.1981
H 4.50567 3.05512 -12.3488
O -2.03075 7.81399 8.2002
H -1.58282 8.51907 8.74994
H -1.63769 7.80847 7.28071
O -1.57216 2.36814 11.8884
H -2.11803 2.68945 12.6622
H -2.17807 2.00064 11.1828
O 2.29211 -11.7234 -5.45085
H 1.60574 -12.4504 -5.47216
H 2.66552 -11.6446 -4.52654
O -9.55298 -5.86922 8.22239
H -10.5381 -5.8674 8.05059
H -9.09282 -6.40989 7.51817
O 5.74225 3.32512 -4.71838
H 5.50157 3.43217 -5.68306
H 6.04201 2.38575 -4.5519
O -14.4552 -2.24825 9.425
H -14.1031 -3.15261 9.18379
H 14.5564 -2.06249 8.89899
O -9.4781 6.92662 6.68847
H -8.86509 7.60759 7.08908
H -10.2413 7.38945 6.23756
O 11.7666 0.196652 -8.30579
H 11.505 -0.764163 -8.21422
H 12.2459 0.491791 -7.47929
O -0.951599 12.7262 -13.7054
H -1.0356 13.6927 -13.4628
H -1.86146 12.3409 -13.8593
O 4.28783 -12.1332 -7.73695
H 3.73185 -12.188 -8.56633
H 3.69381 -12.1792 -6.93382
O -12.8657 -8.45616 -6.00667
H -12.0388 -9.01161 -5.91955
H -12.9102 -7.80358 -5.25025
O 9.34903 -4.88686 3.26692
H 8.92534 -4.69019 4.15111
H 8.93428 -4.31029 2.56297
O -10.9205 -0.512362 -10.7219
H -11.1493 0.156269 -10.0144
H -10.5912 -1.35304 -10.2921
O -4.9154 -3.73526 14.2021
H -5.06572 -2.78835 14.4862
H -5.04076 -4.34259 -14.855
O 13.5869 9.78896 -3.21238
H 12.7785 10.375 -3.15669
H 13.3033 8.83008 -3.22332
O 8.31085 -2.26154 14.2184
H 9.24298 -1.97945 14.4455
H 7.66076 -1.61075 14.6106
O 9.84921 7.94596 -1.54405
H 9.78156 8.91257 -1.29691
H 9.58883 7.82791 -2.50231
O 9.89785 -8.92749 3.09274
H 9.73023 -8.75086 4.06263
H 9.03357 -9.14547 2.63942
O -3.42062 6.41578 10.0737
H -2.67658 6.83213 9.55116
H -3.05129 5.99522 10.9024
O -13.1127 -6.88155 -3.92275
H -13.691 -6.06802 -3.8618
H -12.2411 -6.70599 -3.46499
O -1.86856 -8.44147 0.524243
H -2.76991 -8.04907 0.341007
H -1.34759 -7.82065 1.11005
O 14.0554 4.13547 -9.60593
H 13.3172 3.77876 -9.03333
H 14.7703 3.44235 -9.69821
O 9.17634 5.71689 5.6758
H 9.34131 4.7353 5.57953
H 8.43749 5.86787 6.33252
O 0.389088 10.7845 -2.99334
H 1.09558 11.2579 -3.51935
H -0.211683 10.2842 -3.61688
O 11.8675 -11.0995 -7.93788
H 12.1158 -10.1366 -7.83183
H 12.4324 -11.6582 -7.33066
O -11.5318 10.8665 -9.03457
H -12.297 10.8992 -8.39161
H -10.8416 10.2254 -8.69899
O -12.7278 7.32175 7.0076
H -12.7709 6.45456 7.50371
H -13.6275 7.75813 7.02038
O 0.77858 -8.87228 -4.05363
H 0.246733 -9.15438 -3.25517
H 1.69361 -8.59273 -3.76282
O 0.846117 -14.7372 4.60553
H 0.591304 14.7779 5.51574
H 0.0234785 -14.632 4.0468
O 7.23953 -11.8174 -3.88235
H 7.29785 -11.7635 -2.88551
H 8.14329 -11.655 -4.27836
O 11.8411 -12.7194 1.3597
H 10.9631 -12.6413 0.887377
H 12.5707 -12.8473 0.687952
O 3.7012 14.3147 10.7879
H 4.69516 14.41 10.7337
H 3.26879 -14.6645 10.5247
O 2.2709 -4.23596 8.84639
H 2.17015 -3.47677 8.20337
H 2.58184 -3.88547 9.72983
O 9.37471 10.6017 -1.32699
H 8.45773 10.9936 -1.40142
H 9.78552 10.5396 -2.23659
O -8.65444 -7.44899 13.969
H -7.91156 -6.77989 13.99
H -9.41523 -7.08562 13.4313
O -2.92971 6.60291 -3.97893
H -2.74224 6.69392 -3.00088
H -2.53193 5.74982 -4.31659
O -3.1151 10.4528 6.6212
H -2.47891 9.83292 6.16181
H -3.73321 10.8561 5.94649
O -11.9332 -14.8902 -7.7997
H -11.2438 14.4231 -8.29532
H -12.6239 14.3316 -7.42725
O -7.8122 -9.86128 -0.929193
H -8.43331 -10.4603 -1.43454
H -7.55723 -10.2973 -0.0661362
O -11.7293 0.256188 3.68547
H -12.5016 0.890616 3.65259
H -12.032 -0.652594 3.39832
O 4.73888 -2.38828 0.038789
H 5.55486 -1.91263 -0.289742
H 4.46108 -3.07584 -0.632088
O 0.144352 -11.3351 10.4592
H 0.831421 -11.8557 10.9661
H 0.407271 -11.2859 9.49567
O 5.85319 -2.82733 5.95663
H 5.37802 -2.16304 5.37963
H 6.7998 -2.53462 6.09172
O -1.53349 -7.52765 -13.7847
H -1.8609 -6.8897 -14.4817
H -2.16124 -8.3035 -13.7218
O 2.06745 8.26012 13.8046
H 2.94795 7.84439 14.0324
H 1.69439 8.71483 14.6134
O -0.7394 6.58652 3.3495
H -0.0151636 5.94284 3.10223
H -0.875888 7.2376 2.60286
O 1.19976 9.62119 6.61584
H 1.73802 10.3029 6.12036
H 1.73071 9.27532 7.38944
O 0.434994 9.15487 -0.605398
H 0.215574 9.4825 0.313572
H 0.343015 9.90683 -1.25815
O -10.4844 -10.8791 6.15848
H -11.0676 -10.1084 5.90191
H -10.8346 -11.2976 6.99647
O 0.0408564 -11.5284 7.6822
H 0.715091 -10.8854 7.31904
H -0.725283 -11.6039 7.04398
O -6.99985 -14.0957 -10.2793
H -6.8604 -13.6325 -11.1545
H -6.69751 -13.5002 -9.53508
O -2.39653 -0.743146 -7.21715
H -2.15252 -1.11845 -8.11136
H -1.58452 -0.716184 -6.63414
O 13.0118 8.12842 3.81539
H 13.945 8.0441 3.46602
H 12.3633 8.0323 3.06031
O 12.5571 0.521955 -0.0631384
H 13.0894 0.478842 -0.90861
H 11.8874 1.26171 -0.128253
O 12.3255 -11.4877 13.2075
H 11.6448 -12.2194 13.2429
H 12.9584 -11.5838 13.9757
O 6.70774 -10.5719 -11.3797
H 5.87352 -10.0495 -11.2032
H 7.37332 -9.98945 -11.8463
O -7.87309 13.6012 -8.75989
H -7.53645 14.3816 -9.2868
H -7.53544 12.753 -9.16791
O -14.571 12.6329 -9.79263
H -14.0651 12.7259 -10.6502
H 14.832 11.7348 -9.76015
O -1.50711 -2.82862 11.5294
H -0.854067 -3.0914 12.2397
H -1.07236 -2.90515 10.6321
O -7.94516 4.74283 7.58594
H -8.54859 5.45943 7.23615
H -7.11347 5.15801 7.95462
O -14.6799 5.13874 1.84139
H 14.4339 4.47307 2.00652
H -13.8291 4.81132 2.25242
O 7.2246 12.1357 1.46633
H 7.79194 11.6006 2.09232
H 6.4194 12.4744 1.9531
O 14.3121 -6.97622 12.7234
H 14.3155 -6.03508 13.0614
H 14.7804 -7.5678 13.3797
O 12.903 14.0734 -9.54137
H 12.2182 13.7386 -10.1886
H 13.697 13.4657 -9.55214
O -11.2264 -3.91035 1.73294
H -11.4311 -4.38782 2.58741
H -10.6556 -3.11219 1.9256
O -0.919444 -6.33435 1.86419
H -0.99934 -5.98932 2.79937
H -1.21228 -5.62636 1.22155
O 9.83652 -10.6246 7.79315
H 9.78182 -11.3461 8.48339
H 10.6541 -10.0715 7.9532
O -0.195557 6.61289 13.1796
H 0.171686 5.78022 12.7651
H 0.427727 7.37509 13.0048
O -13.2213 13.2414 -12.2196
H -13.0111 12.7592 -13.0701
H -12.7905 14.1438 -12.2329
O 8.21483 3.93304 12.8857
H 8.8547 4.66502 13.1197
H 7.29663 4.31448 12.7789
O 1.39173 -6.86061 -1.22857
H 1.31266 -6.65323 -0.253511
H 0.478565 -6.92034 -1.63175
O 4.57116 5.20318 0.220318
H 3.75585 5.66838 -0.124439
H 4.84627 5.61327 1.08988
O -3.95032 -1.80944 10.9899
H -4.37077 -2.30631 10.2308
H -3.09677 -2.26016 11.2513
O 5.78834 -4.16369 -14.23
H 4.87825 -3.86752 -13.9401
H 6.12157 -3.55797 14.8891
O 4.61335 8.48851 -6.5327
H 4.91756 8.59494 -5.58607
H 5.30085 8.87269 -7.14893
O -10.5764 14.2823 -0.713199
H -9.98674 14.7867 -1.34406
H -11.5223 14.5867 -0.825659
O 4.49129 -4.81215 4.46783
H 3.89783 -4.31612 3.834
H 5.00176 -4.15888 5.02698
O 1.72172 13.7811 -7.69408
H 2.09961 13.8204 -8.61909
H 1.21847 12.9251 -7.57573
O -2.95393 2.5327 1.13326
H -2.75213 2.45788 2.10982
H -3.33466 3.43695 0.939913
O -9.06482 7.21894 -13.466
H -9.90128 7.47659 -13.9496
H -8.96245 6.22435 -13.4837
O 4.86626 11.7963 9.71367
H 5.46709 11.8422 10.5117
H 3.99616 12.2413 9.92551
O 0.690456 13.181 1.97472
H 1.49507 13.0245 2.54753
H 0.272134 14.0557 2.2194
O 6.84993 4.35385 4.1661
H 6.07311 4.12503 3.57943
H 7.25207 5.21836 3.86458
O -7.53211 -4.36047 -5.65316
H -6.66761 -4.79301 -5.90918
H -7.94888 -3.94447 -6.4614
O -12.2938 0.800223 7.51833
H -12.2545 0.968874 8.50322
H -11.7202 0.0130648 7.29178
O -1.85387 0.388164 -2.88707
H -2.29544 0.52627 -2.00053
H -2.55235 0.25508 -3.59021
O -11.1147 -7.46906 2.57849
H -11.8992 -7.40312 1.96192
H -10.651 -8.34344 2.43556
O 14.0725 6.8072 -4.26682
H -14.8319 6.69372 -3.93676
H 13.4318 6.50112 -3.56271
O 6.19944 5.89166 10.5368
H 7.14348 6.21129 10.4554
H 5.94082 5.85865 11.5022
O 5.81338 -9.36755 -1.53809
H 6.80385 -9.3514 -1.67485
H 5.56395 -10.1745 -1.00267
O -14.4553 -6.96772 -7.69933
H -13.8576 -7.52682 -7.12474
H -14.6847 -7.47223 -8.53171
O -2.60688 5.37243 5.29994
H -2.06168 5.54095 4.47875
H -3.56671 5.25593 5.04468
O -12.4506 -13.1182 -9.70311
H -12.4038 -13.4882 -10.631
H -12.3284 -13.8588 -9.04237
O -8.39381 3.89339 10.4704
H -8.83753 3.92961 9.57493
H -7.72105 3.15358 10.4793
O 4.15009 -5.8047 12.2314
H 4.17967 -4.82804 12.0187
H 4.52139 -6.32476 11.4622
O 9.28848 12.3079 8.169
H 10.0603 12.3473 7.53437
H 8.86364 11.4039 8.12142
O 11.6934 -3.07608 5.06749
H 12.0394 -2.56086 5.85156
H 11.6249 -4.04412 5.30872
O -6.56593 -12.8704 -12.7072
H -5.75839 -13.4452 -12.8392
H -7.11395 -12.8684 -13.5437
O 2.28819 -14.7661 -0.740709
H 2.24463 14.1134 -0.471372
H 1.40873 -14.3278 -0.555034
O -3.33661 -13.3807 9.41206
H -3.67993 -14.1524 8.87679
H -2.46323 -13.6282 9.83149
O -14.4927 -10.9279 -6.04514
H -14.3425 -10.928 -7.03378
H -14.0305 -10.1402 -5.63786
O -2.72041 10.7589 12.1604
H -3.53121 11.3022 12.3782
H -2.22013 11.1924 11.4109
O 13.5292 -5.76649 -10.1623
H 13.0538 -6.59294 -9.86078
H 13.0923 -5.41377 -10.9898
O -5.8365 -3.33339 -1.10158
H -6.3927 -3.32002 -1.93251
H -6.17072 -4.04901 -0.488249
O -4.49819 14.6132 7.79637
H -5.19898 14.7028 7.08866
H -4.58483 13.7213 8.24021
O 9.77412 1.19754 -13.2924
H 8.95437 1.39283 -13.8308
H 10.5296 1.76665 -13.6171
O 0.304826 -1.63438 -5.90653
H -0.217961 -1.91349 -5.10105
H 0.843956 -2.40836 -6.23862
O -9.78633 14.7995 6.21322
H -9.6318 -14.4736 5.40517
H -9.36116 -14.612 7.00961
O 5.3723 10.0512 3.47169
H 5.55085 9.5804 4.33568
H 5.75448 9.51845 2.71663
O 6.10198 -8.26666 -4.12492
H 6.03951 -8.69654 -3.2242
H 5.60522 -8.82003 -4.79351
O 9.30019 -12.7982 0.431081
H 9.25501 -13.0055 1.40831
H 9.13485 -13.6327 -0.0946419
O 2.50727 4.81006 14.5093
H 1.52048 4.96517 14.5559
H 2.69517 3.83145 14.5931
O -7.58029 4.50153 -13.3714
H -6.71182 4.37418 -12.8923
H -7.40245 4.7385 -14.3265
O -3.72591 0.139957 -4.75181
H -4.55702 -0.101951 -4.25108
H -3.53028 -0.565139 -5.43339
O 14.1209 -2.87864 1.50246
H 13.821 -3.12287 0.580262
H 13.4558 -2.25637 1.91532
O -7.38126 0.841876 -13.622
H -7.89999 0.989426 -12.7799
H -7.04248 1.71885 -13.9628
O -13.7814 1.90345 -3.22492
H -14.4147 1.2449 -2.81846
H -13.8272 2.76531 -2.71986
O -10.2483 6.97579 -6.41229
H -10.3227 7.47697 -5.55015
H -9.30981 7.03501 -6.75233
O 4.97472 9.69579 -14.7275
H 4.51763 9.98374 -13.8859
H 4.66307 8.77958 14.8623
O 12.6042 -3.04389 -5.63641
H 12.018 -3.31382 -4.87254
H 12.9015 -3.85947 -6.13283
O 6.82306 -7.62754 -7.77774
H 7.52188 -7.20588 -7.19994
H 6.78149 -8.60857 -7.58839
O -10.2955 -13.8541 13.4626
H -9.53663 -13.2083 13.5465
H -11.0473 -13.5638 14.0546
O 1.89672 -12.4492 12.1422
H 1.31595 -13.0935 12.6397
H 2.74503 -12.3035 12.6512
O 1.44404 -6.51647 12.9764
H 2.07454 -6.10506 12.3182
H 1.47533 -7.51227 12.8904
O -2.53929 2.81666 14.2538
H -2.70779 3.58696 14.8688
H -2.37386 1.99033 14.7921
O -7.57527 10.4942 14.8516
H -7.32894 11.4431 -14.7928
H -7.082 9.88569 -14.3684
O -11.1213 4.49192 11.0239
H -10.1363 4.40682 11.1741
H -11.5763 4.67935 11.8944
O -11.2485 2.90758 -9.95538
H -11.0447 2.36943 -9.13754
H -11.0963 3.87702 -9.76294
O 1.19377 3.62957 0.0802448
H 0.909431 2.8378 -0.460356
H 1.65748 4.28844 -0.512084
O -12.3411 6.34629 -12.3808
H -12.6059 6.89011 -13.1771
H -11.8801 6.9329 -11.7149
O 14.5136 2.51643 -12.7596
H -14.7035 3.13303 -12.2802
H 14.4417 1.65622 -12.2548
O 1.03577 -10.103 0.277263
H 0.396494 -10.0305 1.04282
H 1.87387 -9.60251 0.494363
O 10.4588 3.19701 5.82719
H 10.9252 4.07313 5.94926
H 10.8657 2.51526 6.43518
O 4.50127 -4.90431 -1.09285
H 4.6671 -5.26207 -2.01182
H 3.52284 -4.94595 -0.890497
O 12.1054 2.9581 -8.23929
H 12.0486 1.96127 -8.29496
H 11.4924 3.28729 -7.52101
O -0.353145 11.4126 -7.20136
H -1.12375 11.0869 -7.74918
H -0.677551 11.6749 -6.29256
O -8.97072 3.37352 5.44968
H -9.84761 3.77067 5.72047
H -8.26342 3.6533 6.09887
O -13.6986 6.11308 -8.98977
H -13.5766 6.82628 -9.68001
H -14.2774 5.38648 -9.35999
O 7.18593 -11.3778 6.9296
H 8.07149 -11.2978 7.38719
H 7.07227 -10.6189 6.28846
O -0.0187838 6.96118 -3.6727
H -0.556731 7.65228 -4.15538
H 0.906555 7.30728 -3.51791
O -14.5859 1.15422 4.65808
H 14.5867 0.886089 3.96481
H -14.773 2.08981 4.95754
O -9.23955 -13.261 4.43068
H -8.4885 -13.5171 3.82215
H -9.10406 -12.3235 4.75103
O 8.52313 3.79311 -2.72398
H 7.89857 4.45924 -3.13163
H 8.10451 3.40176 -1.90447
O 10.3286 14.4019 10.3141
H 9.49351 14.6106 10.8231
H 10.1636 13.6243 9.70739
O 11.1857 7.1078 1.64438
H 10.5582 6.48416 1.17816
H 10.9284 8.05264 1.44165
O -5.08116 -9.46188 -4.55465
H -6.08056 -9.46226 -4.58936
H -4.72233 -10.0532 -5.27683
O -5.80006 -2.99081 9.48202
H -6.57121 -3.11038 8.85671
H -6.07852 -3.24745 10.4075
O -9.36091 -7.39928 -0.702449
H -8.82965 -8.24627 -0.683477
H -8.83967 -6.66892 -0.261006
O 3.15963 1.51671 14.8976
H 2.22046 1.7163 -14.6644
H 3.23553 0.550875 14.6499
O 0.889093 -13.2256 14.7091
H -0.0509399 -12.9211 14.8627
H 1.50338 -12.7361 -14.5136
O 14.0641 6.22171 -11.8586
H 14.2871 5.34232 -11.4379
H 14.6201 6.94096 -11.442
O 6.86199 11.6221 -1.10476
H 6.11428 12.0996 -1.56626
H 6.95106 11.9668 -0.170274
O -12.7089 -14.239 3.64265
H -11.7956 -13.9725 3.95071
H -12.8969 -13.8189 2.75483
O 3.91193 5.60456 8.91591
H 4.78542 5.75236 9.37977
H 3.99689 5.86537 7.95427
O 9.84768 -9.8836 -3.03891
H 9.41748 -10.4304 -3.75718
H 9.6258 -8.91834 -3.17682
O -2.89885 5.53094 12.6456
H -2.40716 6.38757 12.8019
H -2.3252 4.76139 12.9261
O -0.750525 8.04074 -6.5381
H -1.50639 8.4644 -6.03892
H -0.0439243 8.72538 -6.71693
O -14.7459 1.62195 8.42401
H -14.8249 0.986275 9.19191
H -13.9276 1.40263 7.8926
O -11.4989 4.65536 -14.7751
H -11.6117 5.09168 -13.8825
H -10.9974 3.79711 -14.6657
O 0.110743 -3.74707 -10.621
H 0.149311 -2.89018 -11.1351
H -0.465351 -4.40283 -11.109
O -13.8083 -5.53053 5.31876
H -14.3661 -4.73603 5.55876
H -13.7963 -5.6415 4.32501
O 14.1398 4.16651 12.6995
H -14.7997 3.91579 13.0506
H 13.4757 3.46363 12.9544
O -13.9535 8.51698 -10.5375
H -14.2753 9.2127 -9.89526
H -12.9541 8.52912 -10.5689
O -7.8115 7.35358 3.40726
H -7.38767 7.59801 2.53513
H -7.11191 7.32417 4.12119
O -3.31631 -0.00672664 -0.378733
H -3.14756 -0.971529 -0.177063
H -2.97817 0.555621 0.375864
O 11.9786 5.39566 4.6439
H 11.4704 4.91228 3.93109
H 11.9949 6.37379 4.43655
O -2.16322 -10.5854 3.40863
H -2.21958 -10.908 4.35349
H -1.26789 -10.8191 3.02948
O 2.92517 11.0002 -4.29227
H 3.7454 11.4512 -3.94051
H 2.95409 10.9881 -5.29178
O 10.9632 12.7225 5.76336
H 10.4732 13.0731 4.96527
H 11.2974 11.7999 5.57056
O -3.82326 -3.23367 7.35839
H -3.73331 -2.24205 7.26567
H -4.31962 -3.44607 8.20012
O -2.39903 9.33279 -12.6314
H -3.08601 8.88962 -12.0555
H -2.70163 10.2584 -12.8589
O 6.03935 9.30289 -4.1887
H 6.51914 10.1689 -4.32926
H 6.68194 8.61767 -3.84584
O -5.18657 -12.5834 14.5611
H -4.45876 -11.9581 14.2795
H -4.80902 -13.2823 -14.673
O -9.33845 -4.31851 -13.0426
H -10.1456 -3.85583 -12.6761
H -9.44067 -4.43451 -14.0306
O 10.1497 10.8077 -3.97065
H 10.6883 10.2693 -4.61869
H 9.93369 11.6967 -4.37446
O -14.0479 0.652776 -9.59463
H -13.2102 1.09983 -9.281
H -14.7177 0.641396 -8.85215
O -11.6207 -11.6479 8.47345
H -11.155 -11.1483 9.20386
H -12.5562 -11.858 8.75729
O 8.78135 8.90775 4.8148
H 9.28659 8.68006 5.6472
H 7.80324 8.94776 5.019
O 1.21363 3.21731 -4.68827
H 1.7819 3.98207 -4.38461
H 1.77396 2.57053 -5.20566
O -8.21404 -9.5303 -13.8
H -9.00758 -9.95516 -13.3644
H -8.52269 -8.8365 -14.4507
O 10.5002 8.40876 13.4556
H 10.7197 7.43364 13.4244
H 11.0096 8.84142 14.1994
O -9.21433 1.34147 8.32501
H -9.53821 1.0928 7.41218
H -9.99276 1.60604 8.89427
O 0.422896 3.11049 5.06749
H 0.743099 3.71972 4.34201
H 0.101557 2.25323 4.6652
O 6.639 -2.03347 -4.06174
H 7.13747 -2.14236 -4.92177
H 6.24501 -2.9119 -3.79132
O -1.82055 -10.3162 -9.8972
H -1.3075 -10.7254 -9.1427
H -1.48184 -9.39081 -10.0673
O 4.53744 -0.992944 -6.99376
H 4.45459 -1.98942 -6.98065
H 5.37693 -0.734541 -7.47175
O 12.2317 -10.0517 2.48929
H 12.1716 -10.9225 2.0013
H 11.3252 -9.63223 2.53544
O -5.30625 4.3666 12.9452
H -5.90528 5.06671 13.3338
H -4.41098 4.76604 12.7479
O -8.00174 -8.1752 6.13642
H -8.00168 -9.06877 6.58534
H -7.06345 -7.83599 6.06902
O 5.34776 -2.08878 -11.9096
H 5.16107 -3.03822 -11.6572
H 5.30526 -1.51244 -11.0935
O -13.2559 -12.1496 -2.98548
H -12.8083 -12.2211 -3.87689
H -12.7827 -11.4668 -2.42878
O 14.0218 -14.8441 -12.8524
H 14.7012 14.5568 -12.2658
H 13.3222 14.3313 -13.1107
O -14.2613 -10.5911 9.72775
H 14.6366 -10.9212 9.70334
H -14.2487 -9.64014 10.0367
O 12.9514 13.5488 11.311
H 13.1003 12.7203 11.8508
H 12.0085 13.8597 11.4309
O 1.71915 -11.5096 -12.6759
H 1.99914 -10.5773 -12.4467
H 0.72348 -11.5823 -12.618
O 11.5088 11.0466 -9.87653
H 11.0986 11.7664 -10.4365
H 11.0455 11.0083 -8.99115
O 1.46465 3.36727 -11.0135
H 2.44854 3.18853 -11.0112
H 1.16437 3.56751 -11.946
O -6.27701 11.7205 -0.0160985
H -7.2011 11.9192 -0.34254
H -5.61064 12.1884 -0.596633
O 11.1997 -5.82326 5.70277
H 11.2901 -6.70095 5.23215
H 11.7283 -5.84405 6.55134
O 7.9197 -9.55563 1.02024
H 8.66081 -9.88975 0.437892
H 7.38782 -10.331 1.3606
O -7.99166 8.87417 7.91596
H -8.0445 9.84189 8.16241
H -7.03643 8.57862 7.92882
O 2.14932 5.99209 -1.25028
H 1.5275 6.76677 -1.3652
H 2.54044 5.7443 -2.13663
O -5.20715 -5.53972 -6.62657
H -4.64523 -4.88748 -7.13531
H -5.09598 -6.4527 -7.01911
O -5.92506 5.0602 2.39742
H -5.09135 5.29048 1.89552
H -6.72339 5.2884 1.84011
O 2.18015 -8.17617 10.6376
H 1.77662 -7.62371 9.90825
H 1.45452 -8.64663 11.1397
O 0.482514 -0.17227 -14.8683
H 1.14545 -0.919566 -14.9137
H 0.402899 0.257739 14.0739
O 9.5109 -4.39341 -4.15825
H 10.2767 -4.92554 -3.79708
H 8.7266 -4.47861 -3.54375
O -5.32129 -7.07256 9.10222
H -5.29457 -7.93968 8.60484
H -5.2989 -6.31397 8.45105
O -2.57065 2.40439 3.82727
H -2.91356 1.52238 4.15047
H -2.32069 2.97243 4.61138
O 8.27494 -5.11949 -10.6254
H 8.75162 -5.99379 -10.7169
H 8.3231 -4.62141 -11.4912
O -11.0042 7.90947 -10.711
H -10.6501 8.5915 -11.3509
H -10.241 7.41578 -10.294
O 4.45629 -9.14187 5.85405
H 4.04406 -8.56211 5.15124
H 5.4526 -9.07877 5.79599
O -10.9886 10.3529 -11.9321
H -11.2628 10.6781 -12.8372
H -11.4687 10.8782 -11.2296
O -4.85028 8.71869 -11.194
H -5.32564 9.02427 -10.369
H -5.49285 8.69618 -11.9599
O -8.07745 0.512494 -11.0484
H -9.04143 0.246669 -11.0572
H -7.95341 1.29639 -10.44
O -6.52264 -14.3934 -1.69649
H -6.14367 -13.6974 -1.08665
H -5.85629 14.7124 -1.81739
O -10.4275 -10.0647 10.4364
H -9.81223 -9.29009 10.2899
H -11.213 -9.76822 10.9797
O -2.26917 6.22797 -7.81619
H -1.8674 5.37839 -7.47444
H -1.8515 7.00635 -7.3475
O 11.7634 13.4506 -4.03939
H 12.5865 13.5903 -4.58987
H 11.97 12.8307 -3.2824
O -11.9954 8.68237 1.10415
H -11.2647 9.19346 1.55677
H -12.1075 9.01857 0.169055
O 12.4827 -0.880242 6.51688
H 12.779 -0.815745 5.56398
H 12.3472 0.038909 6.88675
O -6.19103 -12.8655 8.85931
H -6.23358 -12.1668 9.5734
H -5.25837 -13.2206 8.79552
O 4.22571 12.5058 -1.998
H 3.98042 12.6795 -1.04423
H 3.70317 13.1165 -2.59303
O 13.2569 -2.94388 11.6346
H 13.1649 -2.03387 12.0389
H 14.1896 -3.06503 11.2951
O -0.0641449 -3.98962 13.6398
H 0.417755 -3.36546 14.2548
H 0.569016 -4.69194 13.3145
O -12.9991 -6.07629 -14.0868
H -12.1576 -5.60524 -14.3514
H -13.1237 -6.00553 -13.0971
O 8.96642 12.4115 -8.13475
H 8.69109 11.6445 -7.55516
H 8.17071 12.7544 -8.63395
O -14.3039 -10.3024 5.58293
H -14.0057 -11.1596 6.00271
H 14.7513 -9.94158 6.08438
O -5.49516 12.9944 -11.9764
H -5.37483 12.8166 -10.9997
H -6.43875 12.7919 -12.2383
O 6.42834 -14.6171 9.9369
H 6.28038 -13.6282 9.93295
H 6.98874 -14.8735 9.14935
O -6.31557 -4.23704 11.9844
H -6.295 -5.18454 11.6654
H -5.58392 -4.09382 12.6509
O -5.90315 -8.57025 -2.06772
H -6.62127 -9.05306 -1.56652
H -5.72069 -9.04505 -2.92869
O 6.18495 1.1735 -0.35831
H 6.56535 0.298916 -0.658961
H 5.25152 1.03486 -0.0274193
O 3.26522 -11.7822 -2.87638
H 3.25199 -10.7896 -2.75542
H 3.61319 -12.2147 -2.04462
O -3.4719 -3.06112 0.582667
H -3.51795 -3.20865 1.57065
H -4.37975 -3.19011 0.183717
O 8.74021 -7.66006 -3.84942
H 8.71925 -6.91492 -3.18285
H 7.80815 -7.86858 -4.14567
O 6.94721 12.0818 12.1328
H 7.21536 13.044 12.0861
H 6.04744 12.007 12.5627
O 10.618 -6.77124 -0.805626
H 10.9455 -6.37948 0.0541763
H 10.9681 -7.70295 -0.902132
O 6.44246 -0.877656 -14.0819
H 6.17332 0.0742893 -13.9357
H 6.28126 -1.40175 -13.2456
O 11.9045 -5.48434 -3.46371
H 12.4835 -5.17261 -2.71032
H 12.1396 -6.42802 -3.69641
O -6.73516 -9.2716 13.0868
H -6.04931 -8.91441 13.7209
H -7.59275 -8.77153 13.2071
O -3.44638 0.0913867 13.0101
H -3.19364 -0.875149 13.0539
H -3.29696 0.433227 12.0823
O -7.87325 -8.59108 -11.0229
H -8.76579 -8.25242 -11.3206
H -7.51939 -9.23726 -11.699
O -14.0544 7.79931 2.87907
H -14.01 6.80773 2.75741
H -13.3209 8.2325 2.35533
O 9.27158 11.3083 -12.9061
H 8.81755 10.4302 -13.0569
H 8.58893 12.0008 -12.6727
O 2.01207 6.64826 -6.14357
H 1.13877 6.75561 -6.61878
H 2.19695 7.46527 -5.59739
O 3.30578 14.0582 4.44794
H 2.46214 14.5866 4.54299
H 3.75306 13.9813 5.33901
O 14.8092 4.07532 9.69006
H 14.617 3.21283 9.22191
H 14.2417 4.14285 10.5106
O -1.46619 -2.12968 -3.79271
H -1.32917 -1.18617 -3.49104
H -2.08324 -2.596 -3.15885
O -1.33367 -7.17729 12.0516
H -1.74026 -6.37733 12.4929
H -0.590104 -7.52954 12.62
O -10.5662 -6.40863 -2.91691
H -10.1967 -7.04038 -2.23548
H -9.90759 -6.29866 -3.66127
O 11.7754 -1.63601 2.43918
H 11.5762 -2.19245 3.24581
H 11.2504 -0.78602 2.48263
O -6.57729 1.77862 7.91569
H -7.5752 1.83839 7.89117
H -6.19166 2.69253 8.04235
O -7.35289 -13.6182 1.9203
H -7.22606 -14.5324 2.30527
H -6.46013 -13.1966 1.76151
O 13.2122 11.4731 -5.86436
H 13.2654 12.4509 -5.66162
H 14.1336 11.0846 -5.87675
O 0.660643 4.33902 11.5235
H -0.140526 3.76052 11.3703
H 1.48885 3.83064 11.2876
O -12.6763 8.39763 -7.09889
H -13.0048 7.61416 -7.62639
H -11.759 8.20409 -6.75077
O 12.2276 -7.01789 10.663
H 11.4348 -6.65768 11.1547
H 12.9623 -7.21321 11.3127
O -5.31421 1.92016 14.2188
H -5.15905 2.89094 14.0357
H -4.5801 1.38151 13.8053
O 6.80915 5.7724 -4.62983
H 6.45287 4.84051 -4.69808
H 6.21645 6.31294 -4.03274
O -14.6233 -10.9442 0.394651
H 14.4321 -10.7576 -0.194572
H -14.7109 -10.4215 1.24267
O 3.52722 6.30676 3.28112
H 2.98678 6.72473 4.01135
H 4.17172 6.97902 2.91688
O -3.21135 0.0895959 5.05311
H -4.20068 -0.041538 4.98969
H -2.74433 -0.718508 4.69415
O 12.3951 -5.56435 8.28252
H 12.1202 -6.35105 8.83527
H 12.0427 -4.72572 8.6978
O 1.85274 12.0499 -14.2957
H 1.15285 12.5449 -13.7808
H 1.42812 11.293 -14.7926
O -1.34322 -6.88746 -1.91714
H -1.77295 -7.29344 -2.72369
H -1.52794 -7.45914 -1.11772
O -8.69869 -2.82814 12.1761
H -7.93689 -3.43746 11.9562
H -8.37114 -2.07981 12.7529
O 3.30809 -13.0391 9.94809
H 2.87557 -12.6069 10.7394
H 4.08031 -12.4811 9.64424
O 6.90885 -6.75774 6.17338
H 7.72862 -6.18771 6.11822
H 6.46993 -6.7981 5.27576
O -3.22851 -10.8197 8.29389
H -2.87517 -10.0966 8.88737
H -3.31833 -11.6667 8.81781
O 14.4242 0.432226 -6.73939
H 14.4345 1.35086 -6.34443
H 14.3021 -0.242275 -6.01128
O 0.480963 -9.29645 12.8818
H 1.08126 -9.44618 13.6675
H 0.00268391 -10.1464 12.661
O 1.87185 -6.9123 8.22685
H 1.66141 -6.06648 8.71706
H 2.77698 -6.83852 7.80819
O 5.66771 -0.669244 -9.54811
H 6.58813 -0.473138 -9.20992
H 5.04495 0.058478 -9.26075
O 0.55741 13.9658 -4.43425
H 0.0340292 14.794 -4.23403
H 1.53293 14.1512 -4.31602
O 1.625 -3.23808 -7.76746
H 2.44653 -2.98811 -8.2799
H 0.835953 -3.23768 -8.38179
O 5.05222 9.00267 9.65862
H 5.86071 8.6515 9.18635
H 5.01594 9.99738 9.56263
O 10.808 3.18096 0.709112
H 10.2403 4.00212 0.767274
H 10.9963 2.97322 -0.250777
O 10.9759 2.54237 -1.94994
H 11.4058 2.15441 -2.76519
H 10.1826 3.08838 -2.2193
O 9.09713 5.58644 0.207037
H 8.43509 4.85294 0.0531917
H 9.06113 6.23314 -0.55485
O -9.72313 11.9945 5.71021
H -9.41676 11.9055 4.76247
H -9.66252 12.9522 5.99154
O -13.9424 4.36203 -2.11558
H -14.4382 4.24127 -1.25559
H -13.6451 5.31324 -2.19821
O -14.6221 -8.89946 -9.64342
H 14.8046 -9.76205 -9.35392
H 14.89 -8.66122 -10.557
O -10.226 -4.03042 -1.72276
H -10.4157 -4.97579 -1.9879
H -9.75585 -4.01969 -0.840248
O -11.9864 -8.67036 5.19997
H -12.886 -9.09981 5.27956
H -11.9798 -8.05403 4.41251
O -5.59772 9.13612 -0.145661