2593
Atoms. Timestep: 18495000
O -0.243161 14.271 8.11349
H -0.485424 -14.8376 7.61559
H 0.697542 14.0129 7.89353
O 7.58591 10.3109 -14.9069
H 6.71164 10.2655 14.5512
H 8.33391 10.311 14.3708
O 9.86843 -11.2905 -1.63588
H 10.4029 -10.4722 -1.8471
H 9.3934 -11.6002 -2.45952
O -4.02117 -1.08301 8.58055
H -4.91011 -1.24366 9.00937
H -4.14407 -0.532768 7.75469
O 0.598182 3.66925 -5.17584
H 0.63931 4.66399 -5.08251
H 1.52062 3.28954 -5.10626
O 4.773 12.303 14.3434
H 4.27944 12.8693 13.6833
H 4.14239 11.6458 14.756
O -12.0757 11.1858 11.9073
H -11.2929 10.6214 11.6454
H -11.812 11.795 12.6552
O -7.65029 1.0211 -11.0557
H -8.31096 1.66274 -10.6662
H -7.50168 1.24006 -12.02
O 11.7683 -11.7079 -12.8794
H 12.5005 -11.0568 -12.6795
H 11.155 -11.319 -13.5667
O 8.41122 2.37585 -5.38374
H 7.80134 1.65775 -5.04864
H 8.29044 3.20043 -4.83111
O -8.16771 -11.5838 -12.1266
H -8.52248 -11.491 -13.0568
H -7.31354 -11.0707 -12.0429
O 11.6287 -0.315139 -3.73923
H 11.765 -0.0517838 -2.78426
H 11.6159 0.504179 -4.31235
O -10.9129 -5.11926 5.30961
H -11.4919 -4.9215 4.51874
H -11.4875 -5.27106 6.11378
O 14.3397 3.81529 7.91954
H 14.3804 2.82073 8.01495
H 13.6474 4.18169 8.5412
O 5.69357 11.7848 10.792
H 6.05549 12.2057 11.6237
H 6.44828 11.5661 10.1736
O -5.21807 -8.04191 -8.24497
H -5.48029 -7.07869 -8.18705
H -6.01125 -8.58761 -8.51511
O -13.0104 -1.51321 13.6405
H -13.2143 -0.653639 13.1721
H -12.0271 -1.69033 13.599
O 9.88155 -8.64796 -7.96711
H 8.96644 -9.02492 -7.82437
H 10.3938 -9.24209 -8.58724
O 11.8206 -0.792859 -0.612197
H 11.3972 -1.66242 -0.866101
H 11.6677 -0.619153 0.360604
O -6.84874 -13.7027 -1.7627
H -6.25888 -14.5078 -1.70182
H -7.47009 -13.8027 -2.53976
O -5.81723 -12.7428 11.7185
H -5.67266 -12.9371 10.7483
H -5.34473 -13.4301 12.2701
O -14.3359 7.45886 -3.56314
H 14.7339 7.1043 -3.90169
H -13.5886 7.08907 -4.11517
O -10.9756 -12.7698 -0.908747
H -11.7782 -12.8034 -0.313261
H -10.3724 -13.5392 -0.698853
O 8.83413 -6.41455 -1.48963
H 8.63222 -5.73625 -0.783202
H 8.02562 -6.98111 -1.64851
O 10.1991 -5.10136 9.83555
H 10.6909 -4.24188 9.97481
H 9.41256 -4.94244 9.23893
O 2.06681 -7.63652 -3.68806
H 2.39184 -8.48627 -4.103
H 1.93634 -7.77367 -2.70619
O -1.31791 -14.7109 -12.8301
H -1.50956 14.8987 -13.7538
H -1.01637 14.4677 -12.258
O 6.62112 -1.00698 13.7022
H 5.87545 -0.885815 14.3574
H 7.07895 -1.87885 13.8758
O 9.71542 -2.18039 -4.11714
H 10.5665 -1.65551 -4.11939
H 9.47181 -2.4163 -3.17645
O 9.83659 -5.26253 3.19441
H 9.11377 -5.55405 3.82087
H 10.6496 -5.82671 3.33795
O 9.50956 -13.6478 -4.51135
H 9.82207 -14.1481 -5.3188
H 10.1222 -13.8374 -3.74408
O -7.52017 -9.42293 -9.10056
H -7.09768 -9.50844 -10.0028
H -7.5416 -10.3185 -8.65634
O 8.02111 1.59681 11.0037
H 7.31301 0.928863 10.7749
H 8.42812 1.36193 11.8864
O 1.63822 -10.4645 2.09544
H 1.96469 -10.3316 3.03121
H 1.27879 -11.3924 1.99646
O -10.5899 0.0404225 0.254154
H -11.3506 -0.39983 -0.222806
H -10.2079 -0.592306 0.92765
O 2.35483 -14.4461 -12.8535
H 1.97982 14.6157 -12.5607
H 1.86765 -13.7054 -12.3909
O -14.6405 13.5299 3.31145
H 14.6328 13.5864 2.56952
H -14.1679 12.6497 3.26817
O 5.28044 9.25786 13.9241
H 4.54124 9.6219 13.3576
H 4.97205 9.19303 14.8731
O -4.73148 -9.72839 -0.326539
H -5.33151 -8.94915 -0.14581
H -4.96848 -10.1338 -1.20935
O -2.71884 11.2524 6.27179
H -2.96374 10.3316 6.57521
H -2.88094 11.9021 7.01438
O 4.4879 -2.98649 -4.65928
H 4.08889 -2.33579 -4.0133
H 4.27312 -3.91887 -4.36868
O -5.18846 4.63025 13.9576
H -5.27358 4.68839 14.9522
H -4.53421 3.91217 13.7205
O -5.15822 -0.626481 -0.476019
H -5.87014 -1.32868 -0.477197
H -5.33129 0.0248566 -1.21474
O -1.6194 -4.45179 -4.51264
H -1.572 -5.40891 -4.22702
H -1.28054 -4.36638 -5.44955
O -1.72229 -14.2068 2.37635
H -0.928095 -13.6671 2.09724
H -1.43489 -14.9122 3.02416
O -5.96637 6.76589 -4.64883
H -6.02045 7.58154 -4.07289
H -6.82458 6.25647 -4.58665
O -11.165 1.6272 -7.87465
H -10.4096 1.20472 -8.37538
H -10.7991 2.23337 -7.16852
O -0.269547 7.73004 -12.776
H 0.550673 7.75632 -13.3473
H -1.05184 8.06636 -13.3002
O 2.47105 6.47248 -7.44457
H 2.90003 7.34873 -7.22534
H 3.12602 5.73284 -7.2901
O 9.66703 -1.13111 6.59763
H 9.64699 -1.63709 5.73537
H 8.85167 -1.35197 7.13271
O 11.1123 -7.05967 -14.1434
H 11.526 -6.20947 -14.4689
H 10.3057 -7.2705 -14.6954
O -5.32802 -13.6575 9.23636
H -5.94716 -14.4354 9.34368
H -4.40039 -13.9907 9.06778
O 11.8053 -2.9276 10.2603
H 12.7932 -2.78189 10.2088
H 11.4269 -2.38479 11.01
O -12.0087 13.506 10.1851
H -11.9296 12.547 10.4572
H -12.6498 13.9733 10.7938
O 2.40256 -3.39819 -13.2623
H 1.86657 -3.60813 -12.4446
H 2.08168 -3.96024 -14.0246
O -1.96118 -0.0200796 -5.18253
H -2.09313 0.186892 -6.15189
H -1.01949 0.192145 -4.92157
O 7.29624 4.07486 -9.91555
H 7.63325 3.15086 -9.73512
H 6.30394 4.05002 -10.0365
O -9.94343 -5.24603 13.1279
H -10.9366 -5.28494 13.018
H -9.70409 -5.46233 14.0744
O 14.858 1.18501 5.24311
H -14.8972 1.51239 4.31678
H 14.4065 1.907 5.76735
O -3.60137 -11.3708 -12.3577
H -2.68094 -10.9909 -12.4492
H -4.06615 -11.3352 -13.2423
O -11.2779 13.6145 3.62122
H -11.9048 13.5748 2.84318
H -10.8269 14.5067 3.64072
O -0.695203 0.585225 11.0598
H -1.42826 -0.0893865 10.9735
H 0.190317 0.123388 11.0101
O 13.7168 8.44439 -0.234971
H 14.4703 9.10033 -0.191687
H 14.0449 7.54117 0.0415723
O -7.19062 -10.2597 2.21011
H -6.45174 -10.4169 2.86528
H -7.28418 -11.0581 1.61535
O -5.6706 -1.17904 -14.0329
H -6.16959 -0.459105 -14.5152
H -6.25797 -1.57702 -13.3283
O -1.64148 10.8272 -14.0581
H -2.14182 9.97152 -14.1902
H -2.15495 11.5804 -14.4692
O 7.63676 -5.44515 0.84786
H 7.94682 -4.6618 1.3865
H 7.43315 -6.21012 1.45882
O -6.12232 3.64933 2.64797
H -6.32294 3.76448 1.67513
H -5.14026 3.50691 2.77117
O -4.62321 -13.5407 2.43147
H -4.60231 -12.5964 2.10308
H -3.69162 -13.9025 2.46533
O -10.9219 9.29931 -11.3442
H -11.6096 8.66183 -11.6916
H -11.0819 10.2066 -11.733
O -4.06439 -6.43609 3.0538
H -3.55872 -6.34903 3.91208
H -3.63865 -5.85989 2.35621
O 2.8092 -9.95877 -4.87468
H 3.69693 -10.4163 -4.82414
H 2.20797 -10.4652 -5.49272
O 11.7155 2.23908 3.53809
H 11.8929 2.59152 4.45692
H 11.9106 2.95178 2.86435
O 4.92442 -12.5154 6.73554
H 3.94715 -12.6881 6.85824
H 5.07072 -11.5435 6.55188
O 14.1037 -9.32708 3.20411
H 14.9374 -9.4612 2.66867
H 13.3696 -9.00954 2.60393
O 8.31893 5.85849 -0.371764
H 7.52692 5.47951 0.106786
H 8.94135 5.11785 -0.624636
O -8.79322 11.0206 13.9465
H -8.67617 10.0753 14.2509
H -8.16521 11.2076 13.1911
O -1.58828 11.7738 -7.98389
H -0.627562 11.508 -8.06312
H -1.7893 12.4978 -8.64368
O -14.3055 -1.09958 -3.20522
H -14.0999 -0.134741 -3.3687
H -14.3099 -1.59158 -4.07576
O 5.65084 -10.208 -4.42211
H 6.62591 -10.3981 -4.5361
H 5.51166 -9.66549 -3.59373
O 10.0082 8.73199 -6.39119
H 10.0719 9.17694 -7.28442
H 10.7393 9.06898 -5.79803
O 10.4903 3.73356 13.7182
H 9.73064 4.34735 13.5034
H 11.2035 3.83034 13.024
O 2.96596 -3.33491 -0.842542
H 2.33078 -3.82766 -1.43723
H 3.85692 -3.78865 -0.857772
O -9.97772 -12.1779 5.25662
H -9.21569 -12.7929 5.05413
H -10.2851 -11.739 4.41241
O -3.42518 -12.3625 5.69796
H -3.30575 -13.3553 5.70298
H -2.60689 -11.9303 5.31918
O 5.07953 -2.12283 -7.28202
H 5.50723 -2.84594 -7.82431
H 4.84935 -2.47761 -6.3759
O -14.944 11.9568 -2.6234
H -14.0481 12.3798 -2.48841
H 14.3045 12.4764 -2.12341
O -4.92072 -7.15979 -14.5542
H -4.06489 -7.58798 -14.8442
H -5.02105 -6.27449 14.9331
O -3.80321 4.60059 5.76259
H -3.89727 5.57236 5.54643
H -3.23057 4.49384 6.57536
O -7.20307 4.01118 11.9767
H -6.4991 4.1797 12.6665
H -7.43173 3.0378 11.9647
O -2.97254 9.95865 -6.76056
H -2.60054 10.7525 -7.2415
H -3.12593 9.2159 -7.41226
O 8.1804 -13.2605 4.85987
H 7.38691 -12.7849 4.48027
H 7.88127 -13.8836 5.58251
O 9.42815 -2.83216 -1.26896
H 9.80196 -3.43788 -0.566618
H 8.59851 -2.39356 -0.923661
O -6.02462 -9.99475 -11.7619
H -5.2421 -10.6163 -11.7974
H -5.69849 -9.05076 -11.7126
O 1.60155 -11.7516 -6.38571
H 1.56434 -12.3223 -7.20601
H 1.30821 -12.287 -5.5937
O -8.4923 -4.59923 6.12183
H -9.40801 -4.72174 5.73925
H -8.37309 -3.64696 6.40271
O 5.42043 -12.9093 -4.48187
H 6.13287 -13.3672 -3.9502
H 5.58248 -11.9226 -4.47607
O -0.738118 14.5762 4.77862
H -0.414325 13.6372 4.66313
H -1.60793 14.5705 5.27188
O 8.80756 -7.05126 7.30833
H 8.60497 -6.69469 6.39634
H 9.78522 -6.95421 7.49455
O -0.368031 -11.1627 14.0458
H 0.180788 -11.4727 14.8221
H 0.209524 -11.1039 13.2317
O -6.66214 6.9851 0.222393
H -5.69306 6.79346 0.377562
H -6.75489 7.83419 -0.297575
O -11.2587 -8.16367 1.01081
H -10.4872 -8.78898 0.893817
H -11.0201 -7.26672 0.638707
O -2.22957 -7.46895 -11.5639
H -1.64423 -6.84796 -11.0427
H -1.74115 -7.78266 -12.3781
O -11.1136 7.27796 0.993085
H -11.6416 7.10875 0.160891
H -10.353 6.63071 1.04264
O -9.45845 12.9683 -1.91273
H -9.76073 12.072 -2.23704
H -8.47815 12.939 -1.71764
O 2.71673 14.3976 7.8183
H 3.29841 14.3944 8.63166
H 2.96767 13.6321 7.226
O 0.944745 11.6231 -5.99676
H 1.55009 11.844 -6.76138
H 0.33747 12.3971 -5.81797
O -12.6553 -5.9221 13.1506
H -12.9805 -6.56567 12.4578
H -12.9418 -6.23439 14.0563
O -7.9398 -2.05398 -12.777
H -8.1684 -2.22677 -11.819
H -8.76949 -1.80956 -13.2788
O 13.0736 14.0658 1.25101
H 13.4355 14.4438 0.398922
H 12.9961 13.0723 1.16847
O -14.7882 -7.56753 5.1365
H -14.2505 -8.3004 5.55322
H 14.3882 -7.96305 4.62809
O -4.87121 -11.4493 -14.6418
H -5.37547 -12.3015 -14.7813
H -5.50588 -10.6773 -14.6746
O 7.09279 10.6499 0.984087
H 6.57122 10.569 1.83339
H 7.2654 9.73846 0.610792
O 3.47064 10.3821 9.41658
H 3.91461 9.82891 8.71175
H 4.14691 10.981 9.84536
O 13.4112 -3.87208 0.908607
H 13.812 -3.35694 0.151017
H 13.4369 -3.31671 1.73976
O 9.46797 2.98025 9.06582
H 8.95274 2.42111 9.71528
H 10.4178 2.66872 9.03794
O -1.11768 0.830896 6.73783
H -0.81121 -0.103303 6.92019
H -1.38079 0.913714 5.77667
O 6.94219 -8.50307 -0.521347
H 7.18293 -9.47143 -0.456296
H 6.16363 -8.39396 -1.13928
O 12.3915 10.6976 0.898906
H 12.8803 10.178 0.198245
H 12.7261 10.4339 1.80358
O -3.72346 6.67049 0.404825
H -3.30437 6.69394 -0.502767
H -3.29481 5.95117 0.951396
O -4.27642 5.39295 -9.36093
H -4.65256 4.69083 -9.96546
H -4.6285 6.28898 -9.63125
O -0.976596 -8.37552 3.88781
H -1.33691 -7.51008 4.23579
H -1.58116 -8.72442 3.17178
O 10.1034 0.804684 -7.00784
H 9.50946 1.17799 -6.29524
H 9.86938 -0.154173 -7.16827
O 0.96527 11.0883 -9.16619
H 1.93145 10.9395 -8.95577
H 0.551392 10.2264 -9.45898
O 13.9568 14.1707 -1.30826
H 13.1247 14.6059 -1.65211
H 14.7399 14.7694 -1.47635
O 9.25486 -3.65723 -13.3709
H 9.52512 -3.52854 -12.4168
H 10.0128 -4.06501 -13.88
O 4.91396 0.458387 5.03428
H 5.43979 0.494593 5.88405
H 3.9368 0.464194 5.24648
O 5.75139 -13.7288 12.8643
H 6.21978 -13.344 12.069
H 5.92237 -13.152 13.6631
O 2.32518 -7.23307 9.48187
H 2.32058 -8.06567 8.9281
H 3.08539 -6.64852 9.19853
O 12.5848 -13.9064 5.2115
H 13.5479 -14.1395 5.34586
H 12.4568 -12.9247 5.35209
O -12.946 9.0048 10.0527
H -12.9174 9.86018 10.5698
H -13.7549 8.48094 10.3195
O -0.904632 -6.45611 0.523015
H -1.42998 -5.7353 0.975067
H -1.47329 -6.89777 -0.170865
O 11.5438 -4.52967 14.5669
H 11.5984 -4.66904 13.5782
H 12.2748 -3.91235 14.8574
O -12.0269 -5.21241 7.66213
H -11.4366 -5.84608 8.16203
H -12.7637 -4.89988 8.26163
O 10.6945 -11.3991 11.265
H 11.1986 -10.6693 10.8031
H 11.0505 -11.5146 12.1923
O -5.91758 -0.678027 -9.83656
H -6.27108 -0.762411 -8.90499
H -6.47622 -0.0244471 -10.3471
O -12.0433 -6.63566 -4.80068
H -12.7864 -6.16084 -4.32926
H -11.8427 -6.16867 -5.66184
O -2.90031 -6.07493 -9.04343
H -3.56416 -5.46254 -8.61426
H -3.36927 -6.89113 -9.38076
O 11.9879 6.03949 -7.86637
H 11.7973 5.37728 -8.59098
H 11.3301 5.91874 -7.123
O 10.3186 12.0293 11.0687
H 10.3739 12.155 12.0592
H 10.337 12.9217 10.618
O 4.6269 -7.80904 -10.4578
H 5.52728 -7.42175 -10.6559
H 4.12533 -7.94075 -11.3128
O 8.13527 -3.93822 8.3486
H 7.86623 -2.98774 8.1933
H 7.58574 -4.53923 7.76833
O 14.6516 -7.93909 -14.2394
H -14.3493 -8.1638 -14.4947
H 14.5329 -6.94623 -14.2453
O -2.05036 -11.24 -6.29732
H -1.4262 -11.2217 -5.5163
H -2.42531 -10.3249 -6.44574
O 6.47319 -11.5936 2.70835
H 6.07847 -12.5072 2.61174
H 6.96374 -11.3522 1.87109
O -10.4336 1.47349 5.54492
H -9.44665 1.31248 5.54249
H -10.6153 2.42574 5.79008
O 7.00225 9.84066 -7.14694
H 7.91618 9.46478 -6.99414
H 7.08013 10.7691 -7.5101
O -6.42082 -7.94161 3.62306
H -6.48612 -8.709 2.98529
H -5.57068 -7.44191 3.45734
O 6.74639 -9.1886 14.2732
H 6.85582 -8.45038 14.9388
H 6.78785 -8.81192 13.3478
O -9.04988 2.28976 -1.21651
H -9.6669 2.64545 -1.91842
H -9.1806 1.30242 -1.12711
O -10.4713 -2.46937 13.2409
H -10.509 -1.96336 12.3793
H -10.0114 -3.34494 13.0934
O 4.21655 6.4976 6.90207
H 4.29131 7.4503 7.1965
H 3.28289 6.17382 7.05488
O -5.4922 10.4 -6.00089
H -5.921 9.64967 -6.50388
H -4.51371 10.4224 -6.20575
O -9.3761 12.0188 -12.629
H -10.2884 12.1192 -12.2322
H -9.0492 12.9101 -12.9429
O -7.97699 4.02515 -8.83278
H -7.16621 3.87291 -8.26765
H -8.74015 4.30744 -8.25157
O -12.514 -0.0576 -5.98415
H -12.0808 0.541438 -6.6575
H -12.8372 0.488468 -5.21134
O 5.41946 -8.14314 -2.67446
H 4.6283 -8.12357 -2.06325
H 5.66482 -7.20861 -2.93207
O -13.8787 10.5288 -0.805523
H -13.262 11.2363 -0.460532
H -14.4637 10.9153 -1.51848
O 12.2797 -0.259596 2.02546
H 12.1409 0.505794 2.65381
H 12.8991 -0.9248 2.44218
O -14.5117 10.0959 -11.3416
H -14.3699 9.13356 -11.5733
H 14.7474 10.49 -11.9573
O 3.289 -12.4871 -9.26099
H 3.48431 -12.7669 -8.32107
H 3.04126 -13.2899 -9.80315
O -13.024 7.70348 -12.3508
H -12.7282 7.90497 -13.2845
H -13.5502 6.85319 -12.344
O -7.2736 10.2828 -11.9181
H -7.22441 10.2962 -10.9194
H -7.90782 10.9901 -12.2301
O -12.2353 -10.6653 -9.66473
H -12.6642 -11.1009 -8.87347
H -11.5078 -10.0532 -9.35461
O -6.35473 1.02051 8.28022
H -6.30344 1.98565 8.53674
H -5.52804 0.764381 7.77934
O 11.4604 -3.70082 7.12479
H 11.3835 -2.86309 7.66534
H 10.8591 -3.63984 6.32813
O -4.82292 11.9022 -8.66836
H -5.7448 11.536 -8.79469
H -4.22891 11.5696 -9.40077
O -14.7071 -12.1643 -4.06476
H 14.3524 -12.481 -4.4143
H -14.6152 -11.1828 -4.23232
O -8.80015 -11.6342 -4.12109
H -9.12196 -12.4616 -3.66095
H -8.65068 -11.8287 -5.09051
O 2.3233 -12.9261 7.73321
H 1.70697 -12.9298 6.94579
H 2.80586 -13.8005 7.78293
O -9.01287 7.17765 3.91045
H -9.59951 6.41254 3.64515
H -9.11517 7.9209 3.24937
O 12.339 -13.921 -9.5754
H 12.8152 -14.1732 -10.4178
H 11.4265 -13.5783 -9.79822
O -1.60226 -7.0051 -3.50537
H -0.634382 -7.20087 -3.3479
H -2.14947 -7.4263 -2.78214
O -0.696564 -4.1121 -7.11406
H -0.720262 -3.21998 -7.56513
H -0.738135 -4.83531 -7.80338
O 8.66781 0.838435 13.5742
H 7.82274 0.310917 13.6607
H 8.82668 1.35383 14.4163
O -1.7149 4.69804 -10.1971
H -2.56351 5.00076 -9.76339
H -1.52017 3.75529 -9.92653
O 12.6999 3.84772 1.26896
H 12.0911 4.64072 1.28842
H 12.6332 3.39804 0.378324
O 4.16823 -13.5413 -6.78171
H 4.99893 -13.6657 -7.32427
H 4.41615 -13.3334 -5.83554
O -10.256 -3.14922 -3.40296
H -10.6517 -3.13141 -4.32111
H -10.9884 -3.2175 -2.72561
O 11.6719 -6.02216 12.1021
H 11.2775 -5.73223 11.2302
H 11.1663 -6.81135 12.4507
O -1.20488 12.4195 10.1811
H -1.11344 13.0828 9.43849
H -0.323352 12.3094 10.6401
O 7.88804 4.76473 14.0165
H 7.22854 4.44016 13.3386
H 7.56204 5.62204 14.4148
O 12.9106 7.40289 7.51719
H 12.3006 7.89539 6.89654
H 12.443 6.59287 7.87099
O -4.13425 14.0421 -5.0409
H -4.97755 13.5847 -4.7589
H -3.34852 13.5641 -4.64845
O 11.8895 10.8492 8.73867
H 12.0035 10.3618 7.87303
H 11.4738 11.7421 8.56614
O -3.3664 -2.92403 6.41008
H -3.64568 -2.46085 7.25113
H -3.96587 -3.70741 6.24618
O 9.28349 6.01271 -5.56524
H 9.21991 5.54507 -6.44681
H 9.47423 6.98274 -5.7155
O 6.16766 7.74614 -8.93705
H 6.41044 8.41322 -8.23279
H 6.56754 6.8588 -8.70764
O 10.5634 2.03247 -14.1258
H 9.71617 2.40409 -13.7463
H 10.7687 2.48803 14.9493
O 13.3728 12.9994 12.4115
H 13.5798 12.6102 11.514
H 12.552 12.5647 12.7821
O 12.188 1.32365 9.73965
H 12.0558 0.49566 10.2845
H 13.09 1.29872 9.30887
O 10.267 -6.21865 -9.46816
H 9.90293 -7.13056 -9.27895
H 11.2656 -6.24239 -9.42266
O 6.31608 -3.30264 5.74464
H 6.63748 -2.42362 5.3926
H 5.69625 -3.72102 5.0808
O 1.61533 -5.32952 5.03925
H 1.79564 -5.33016 4.05568
H 1.66884 -6.26496 5.38852
O 9.76699 -10.276 -14.4704
H 9.1773 -11.0737 -14.5963
H 9.2902 -9.59312 -13.917
O -1.08603 12.1624 -11.6548
H -0.0863592 12.1442 -11.67
H -1.44031 11.6855 -12.4592
O -10.336 -7.24794 9.20288
H -9.94452 -7.80325 9.93653
H -10.2963 -7.7562 8.34265
O 7.17104 -1.37889 8.04623
H 6.92502 -1.41453 9.01479
H 6.88772 -0.500032 7.66251
O -5.2488 3.08626 -10.6479
H -4.70259 2.24999 -10.6008
H -6.22055 2.85106 -10.6308
O 9.57211 -0.460219 -12.2498
H 10.404 -1.00407 -12.1401
H 9.75366 0.306139 -12.8659
O 0.0176009 8.76615 -10.1313
H 0.246628 7.99176 -9.54153
H -0.145311 8.43941 -11.0622
O 1.36418 -0.297404 14.6385
H 1.44027 0.331185 -14.5289
H 0.434436 -0.663061 14.5962
O 3.71042 13.7735 -6.73649
H 3.6194 14.7538 -6.91174
H 3.82666 13.6197 -5.75529
O -0.33918 -4.24052 8.84861
H 0.48007 -4.7889 9.01598
H -0.141611 -3.54995 8.15292
O 8.41355 5.08965 7.87678
H 7.73398 5.54886 7.30475
H 8.10223 4.16247 8.08494
O -5.53185 -10.0755 11.3394
H -6.50338 -9.8388 11.3445
H -5.42835 -11.0615 11.47
O -5.26716 -6.92198 0.155466
H -5.16616 -5.99264 -0.19954
H -6.23748 -7.1252 0.286213
O -6.89874 -7.62287 9.34669
H -7.61697 -8.05232 9.89407
H -6.35624 -8.33067 8.89435
O -3.53718 10.6662 -10.413
H -2.93976 11.422 -10.6809
H -2.98207 9.90617 -10.0751
O 4.48163 13.7937 3.4035
H 3.71137 14.3954 3.61451
H 4.1372 12.91 3.08667
O 13.7965 8.63854 13.2185
H 12.9295 8.85158 12.7681
H 14.2786 7.93431 12.6974
O 5.91469 -14.1401 2.41193
H 5.3609 -14.868 2.81605
H 6.56341 -14.5364 1.76231
O 5.35107 7.91042 10.5893
H 6.07765 8.34538 10.0575
H 5.43596 8.17636 11.5495
O 2.36189 2.51548 3.94263
H 1.63293 2.54245 3.25868
H 2.2749 1.68306 4.48981
O -9.23461 1.07638 8.96781
H -8.29024 0.748575 8.94295
H -9.27738 1.99895 8.5845
O -4.70578 9.62961 0.609879
H -4.78627 8.79124 1.14892
H -4.08493 10.2638 1.07062
O -14.474 11.7889 -5.32361
H 14.8996 11.3666 -6.0303
H -14.8007 11.5074 -4.42141
O 10.4328 -3.68435 -10.9032
H 10.4634 -4.60447 -10.5128
H 10.5666 -3.00974 -10.1773
O 4.68904 -2.71955 -11.7364
H 4.36678 -2.21818 -10.9335
H 3.95825 -2.76321 -12.4176
O -7.8554 2.47353 -13.5571
H -8.11586 1.89056 -14.3267
H -6.93079 2.82512 -13.7033
O 7.48341 -14.5302 -3.0662
H 8.19431 -14.2229 -3.6987
H 7.88776 14.8101 -2.37681
O 0.556879 -13.1089 5.29926
H 0.042961 -13.9594 5.18726
H 0.0497225 -12.3554 4.88094
O -9.29295 -6.13606 -14.3845
H -10.0605 -5.69549 -13.9191
H -8.43595 -5.8571 -13.9514
O -1.15518 -1.77773 -8.66983
H -1.65534 -0.923123 -8.80908
H -0.656257 -2.01168 -9.50424
O -12.5882 11.3031 2.5981
H -11.6428 11.0634 2.81867
H -13.1351 10.4692 2.52464
O -0.330407 -3.23729 5.52347
H -1.15956 -3.14732 6.07511
H 0.144111 -4.08216 5.77032
O -9.42684 14.4266 9.96544
H -9.23424 14.5961 10.9319
H -10.3568 14.0722 9.86807
O 8.4941 8.12892 10.7421
H 8.17353 8.31637 9.81367
H 8.72694 7.16 10.8251
O -2.37594 6.14873 -1.82605
H -2.40492 5.81763 -2.76916
H -1.42796 6.16761 -1.50843
O 3.36694 -11.2912 4.12032
H 3.67002 -12.244 4.11046
H 3.97143 -10.7552 4.70962
O 9.88302 -8.28956 12.9987
H 9.50528 -9.02847 13.5566
H 9.15107 -7.86901 12.4627
O 1.45677 -6.78219 -0.923413
H 0.784801 -6.68612 -0.189154
H 1.22319 -6.16201 -1.67223
O 8.28051 -10.4586 -10.7237
H 8.16148 -10.0988 -11.649
H 9.219 -10.7849 -10.6111
O -13.2095 -9.54778 -2.82895
H -12.3443 -9.7714 -2.38022
H -13.0281 -9.01744 -3.65706
O 12.0791 -8.00831 -11.5695
H 13.0573 -7.82663 -11.4687
H 11.854 -8.09186 -12.5402
O 7.37081 -7.17757 -7.73507
H 7.23284 -7.00695 -8.71065
H 7.72875 -6.35164 -7.29961
O -4.43924 -2.07261 12.7445
H -4.45957 -3.07236 12.7437
H -4.70317 -1.73464 13.6479
O 13.3267 -13.5329 11.0338
H 13.205 -13.5393 12.0263
H 13.4658 -12.5933 10.7212
O -11.5648 0.870935 3.07489
H -11.0472 0.986694 3.92262
H -11.1038 0.202164 2.49165
O -12.097 -1.7847 8.65547
H -11.976 -2.45436 7.92281
H -12.5161 -0.956282 8.28394
O 11.9099 9.63565 6.0034
H 12.874 9.89638 5.95446
H 11.5821 9.39801 5.08909
O 14.9254 -12.6606 0.260137
H -14.8996 -11.8681 -0.338561
H 13.9937 -12.6702 0.623163
O -13.0921 4.1009 10.6596
H -12.7948 3.29013 10.1554
H -13.4455 4.78146 10.0178
O -12.1747 11.5727 -12.0734
H -12.4498 12.1304 -12.8565
H -12.973 11.0939 -11.7083
O 13.5465 -5.05082 -6.32771
H 13.3321 -4.12895 -6.65033
H 12.6973 -5.55516 -6.17144
O -1.70902 6.50248 14.828
H -0.794155 6.16021 14.6141
H -2.28521 5.74474 -14.8071
O -12.6668 7.10839 -7.53406
H -12.0254 6.90192 -8.27288
H -12.2439 7.75107 -6.89534
O -13.5331 1.64083 -3.68281
H -13.2827 1.97221 -2.77319
H -13.7445 2.41878 -4.27444
O 8.92594 10.0698 12.6235
H 8.61081 9.34518 12.0108
H 8.53358 10.9435 12.3361
O 11.9661 2.39077 -8.03774
H 11.4354 2.80763 -8.7756
H 11.4447 1.6378 -7.6364
O 4.79664 -4.27524 3.67862
H 4.0622 -3.78804 3.20623
H 4.59037 -5.25353 3.69588
O 1.16554 -1.65608 3.87603
H 1.68349 -1.94746 3.07183
H 0.78074 -2.45788 4.33313
O -9.78645 4.83375 13.2621
H -9.96666 5.79422 13.4741
H -9.19131 4.77531 12.4606
O 0.899793 -13.3975 -4.12816
H 1.84304 -13.4233 -3.79723
H 0.54603 -14.33 -4.19989
O 13.0113 -11.1754 5.10303
H 13.8622 -11.3204 5.60776
H 13.2162 -10.7616 4.21608
O -1.16002 -10.4454 -9.07726
H -0.2218 -10.1072 -9.00479
H -1.43192 -10.8624 -8.21001
O 14.457 13.841 -11.0493
H -14.9243 14.2229 -11.7844
H 14.8936 13.0152 -10.6924
O -12.5704 -10.9808 13.9591
H -12.2061 -11.7838 14.4308
H -13.5152 -10.8251 14.2475
O -12.0332 -13.8181 6.07722
H -11.7082 -14.6055 6.60096
H -11.3153 -13.123 6.0404
O -2.44656 11.3788 1.25364
H -2.6371 12.0908 0.577893
H -1.53358 11.0034 1.09393
O -0.906793 -10.8586 5.00276
H -0.731021 -9.95496 4.61239
H -0.968703 -10.7854 5.99811
O -3.96246 12.3158 3.78352
H -3.19629 12.1197 3.17162
H -3.92685 11.6996 4.57028
O -1.04479 3.66247 -12.6974
H -1.37599 4.03112 -11.8288
H -0.291241 4.22735 -13.0335
O -7.89425 3.71366 4.68149
H -8.66221 4.33767 4.5374
H -7.35078 3.65506 3.84417
O 3.29524 11.578 2.22138
H 2.79142 11.44 1.36872
H 3.48908 10.6915 2.64125
O -9.08401 14.7013 13.2565
H -9.94453 14.192 13.2513
H -8.82422 14.9072 14.1999
O 11.8972 9.16049 -4.51281
H 11.7729 9.96713 -3.93505
H 12.6141 9.34016 -5.18634
O 12.7394 0.349944 -9.97937
H 12.768 1.17604 -9.41664
H 13.2437 0.507411 -10.8284
O 1.89594 5.95404 11.4493
H 1.04622 5.4315 11.3799
H 1.75678 6.8686 11.0697
O 6.50875 12.9877 -7.34501
H 5.56562 13.165 -7.06399
H 6.51946 12.6648 -8.29132
O 1.69123 6.37034 14.5043
H 1.19946 7.17594 14.174
H 2.12717 5.90659 13.733
O -14.105 -4.56983 9.53851
H -13.8987 -4.18949 10.44
H -14.6315 -3.90492 9.00876
O -8.43589 -1.72601 9.56816
H -8.56923 -2.70405 9.72802
H -7.57532 -1.43434 9.98561
O -6.16793 -13.681 4.86811
H -5.89491 -13.0173 5.56441
H -5.706 -13.4696 4.00681
O -2.63613 -9.69093 14.2866
H -3.37048 -10.3154 14.5523
H -1.79415 -10.2099 14.1395
O -2.19537 14.0307 -2.70802
H -1.79661 13.1192 -2.8087
H -1.47272 14.6894 -2.49869
O -11.5961 -5.09049 -13.3703
H -12.3592 -4.4982 -13.6285
H -11.9463 -5.98873 -13.1049
O 3.5601 -3.5652 12.5128
H 3.92495 -3.31597 11.6157
H 3.64211 -2.78605 13.1342
O -11.5853 -3.2139 -11.3985
H -11.6206 -2.37576 -11.9427
H -11.6498 -4.00727 -12.0037
O -14.4755 -1.29649 -8.00865
H 14.5466 -1.68962 -7.98584
H -14.1957 -1.04906 -7.08107
O 11.2249 8.96816 3.60832
H 12.1137 8.86838 3.16119
H 10.6073 8.25071 3.28616
O 3.88215 11.1929 -8.26494
H 3.80133 12.0603 -7.774
H 4.74964 11.1707 -8.76181
O 2.08908 9.96664 5.99156
H 1.24455 9.43918 5.89961
H 2.85183 9.34576 6.17217
O 10.0071 -2.82682 4.39392
H 9.06667 -2.4879 4.42069
H 10.0805 -3.55252 3.7099
O -5.80172 13.738 2.29263
H -5.42591 14.6587 2.39741
H -5.27497 13.0974 2.85129
O 8.38682 -4.34548 13.3319
H 8.53718 -3.74824 12.5441
H 8.46058 -3.81131 14.174
O -6.15289 1.10723 -2.81399
H -7.12623 1.2251 -2.61747
H -6.01855 0.268396 -3.34145
O -6.19532 -2.68309 3.72542
H -5.23348 -2.51679 3.50837
H -6.37182 -2.4263 4.67558
O -5.27477 3.71849 -2.47358
H -5.24538 2.72222 -2.55418
H -4.38157 4.09877 -2.71333
O -0.591369 -10.1835 -0.205376
H -0.653385 -10.1606 0.79239
H 0.370235 -10.1829 -0.479652
O 10.8955 13.2535 7.86169
H 10.7358 13.5822 6.93087
H 11.5423 13.8607 8.32313
O 0.734139 13.6634 -8.25531
H 0.836042 12.868 -8.85271
H 0.294407 14.4057 -8.76077
O -8.42075 -11.914 8.06236
H -7.46311 -11.985 7.78346
H -8.99583 -11.7964 7.25281
O -7.87893 4.98153 -3.90648
H -7.08872 4.74756 -3.34014
H -8.49979 5.568 -3.38641
O 13.6353 10.9871 -13.2079
H 14.1916 10.5405 -13.9085
H 12.7183 10.5884 -13.2062
O -8.63539 -14.5387 5.08327
H -8.8554 -14.839 6.01136
H -7.64302 -14.4692 4.98189
O 6.08241 -4.17225 -8.88768
H 5.48994 -4.91956 -8.58699
H 6.25481 -4.25777 -9.86894
O -6.62756 8.47178 14.216
H -6.17986 7.81296 13.6115
H -6.22996 9.37822 14.0739
O 9.02418 13.1153 -14.2495
H 8.03722 13.0502 -14.1027
H 9.48179 13.2714 -13.3742
O -11.8053 11.2694 -4.59726
H -12.7084 11.3321 -5.02195
H -11.1418 11.7749 -5.14876
O 4.44359 -1.99844 -14.6766
H 3.66223 -2.44687 -14.2426
H 4.12252 -1.22612 14.7167
O 6.35759 5.65167 -4.70775
H 7.34469 5.75155 -4.58295
H 5.96422 6.53228 -4.97174
O 8.12811 -13.6023 -12.8448
H 7.69156 -13.2375 -12.0225
H 7.62041 -14.4022 -13.1647
O 2.19038 5.28417 -10.3404
H 1.93337 4.33468 -10.1605
H 1.65705 5.89112 -9.75123
O 8.47267 -2.42964 11.2588
H 7.82331 -1.75717 10.9038
H 9.39103 -2.03409 11.2671
O -1.51727 -5.17552 -13.4998
H -1.70653 -6.14225 -13.6715
H -1.05654 -4.77981 -14.2942
O -5.29322 -10.5514 4.12572
H -4.68893 -11.2254 4.55066
H -5.01361 -9.63199 4.40199
O -1.24221 -11.6197 -3.71515
H -1.5983 -11.4683 -2.79309
H -0.571202 -12.3608 -3.69582
O -6.09655 -4.84998 9.71673
H -6.17123 -4.3806 8.83695
H -6.47475 -5.7721 9.6357
O -4.22525 1.7633 -5.62499
H -4.54975 0.930985 -5.17571
H -3.57422 2.23211 -5.02811
O 10.6282 13.0618 13.5181
H 10.2445 13.8261 13
H 10.1611 12.9884 14.3992
O 3.86356 14.2795 12.6806
H 4.6964 14.7688 12.9391
H 3.0728 14.7194 13.106
O 9.02088 10.6411 4.12866
H 9.00793 11.5395 3.68976
H 9.90817 10.207 3.97322
O 14.5673 -2.09947 9.98737
H -14.919 -1.51984 10.6633
H -14.9701 -1.94094 9.08646
O -0.623237 4.51175 11.2385
H -0.238843 3.69852 10.8017
H -1.04016 4.25605 12.1107
O -9.88566 -1.36075 2.51882
H -9.20754 -1.96273 2.0973
H -10.1795 -1.74955 3.39197
O 6.67124 -12.6 -7.49517
H 7.02386 -12.9229 -6.61696
H 6.86806 -11.6247 -7.59504
O -13.0045 -0.693015 -0.678379
H -13.6322 -0.155734 -0.115173
H -13.4602 -0.95362 -1.52945
O 1.98005 -13.9243 14.3581
H 2.43648 -13.0374 14.2874
H 1.97626 -14.222 -14.6286
O -14.047 -13.9555 -1.95142
H -14.2628 -13.3191 -2.69189
H -14.1016 -13.4777 -1.07472
O 4.50016 12.1312 -12.241
H 4.04009 11.7268 -13.0313
H 5.16555 11.4813 -11.874
O 14.0406 -4.94586 5.2316
H 13.781 -4.58328 6.12662
H 14.5747 -5.78242 5.35304
O -14.6032 -14.6401 5.12758
H -14.4496 14.6929 4.34896
H -13.753 -14.5387 5.64416
O -7.39493 9.26358 5.13852
H -6.63388 8.74119 5.523
H -8.01547 8.64392 4.65805
O -10.4304 -10.1572 -2.20369
H -9.74938 -10.7695 -2.60524
H -10.0843 -9.21916 -2.21716
O 6.87168 6.55492 6.11827
H 5.87825 6.53318 6.23018
H 7.09936 6.48283 5.14725
O 3.66274 -11.6643 13.2367
H 3.81746 -10.6805 13.3269
H 4.48992 -12.1578 13.5053
O 2.93252 6.05119 0.094848
H 3.53317 6.85029 0.0708685
H 3.46004 5.23096 -0.126194
O 2.80614 -0.39397 -1.01886
H 2.63573 -1.37474 -0.924205
H 3.78209 -0.212151 -0.898955
O 3.74295 14.7676 -0.00189001
H 3.38013 14.6302 0.919736
H 4.2914 13.9742 -0.265868
O -2.90555 -8.96372 -7.38244
H -3.74086 -8.4416 -7.55434
H -2.39064 -9.05874 -8.23434
O 13.8502 12.3764 -8.07415
H 14.8402 12.2643 -7.98929
H 13.6305 13.3487 -8.15371
O -12.0122 -12.6047 -3.82344
H -11.5898 -12.3292 -2.95998
H -12.9869 -12.3824 -3.80349
O 9.57538 -1.84275 -6.88428
H 9.39874 -2.69887 -7.36984
H 9.46463 -1.98819 -5.90118
O 0.247336 13.6762 -0.633585
H 0.30943 14.6406 -0.890332
H 0.196986 13.1141 -1.45907
O 14.6325 1.09598 2.27347
H 13.7163 1.04311 1.8764
H -14.6886 1.53466 1.62326
O 7.97131 11.4568 9.20769
H 8.28005 11.1814 8.29733
H 8.74623 11.8154 9.72814
O 8.52838 5.66168 -11.9381
H 8.44406 4.9265 -11.2655
H 9.22151 5.41575 -12.6155
O 2.18027 -2.96796 1.90041
H 2.43039 -2.99187 0.932535
H 1.76631 -3.8406 2.15934
O 11.6793 -6.34546 7.68819
H 11.2402 -6.23267 8.57948
H 11.8667 -5.44633 7.29277
O -12.1896 -3.97792 2.92894
H -12.5679 -3.09878 3.21866
H -12.9308 -4.5745 2.62117
O -2.20693 13.7934 -9.94067
H -2.78477 14.4325 -10.4482
H -1.73671 13.1875 -10.5823
O 3.3269 2.18224 10.6455
H 3.20729 2.85621 11.3744
H 3.08275 2.59395 9.76752
O -7.57253 -11.0911 13.4794
H -6.86996 -11.6038 12.9859
H -7.15757 -10.2935 13.9169
O 8.93842 10.7661 6.8351
H 8.80185 10.8976 5.85328
H 9.90929 10.8657 7.05284
O 6.70187 -8.62906 11.5302
H 7.16883 -9.43453 11.1654
H 7.0279 -7.81141 11.0558
O 3.27801 -14.2543 -3.32296
H 4.06748 -13.809 -3.74529
H 3.32335 14.7018 -3.48787
O 13.6077 6.68427 -14.9157
H 13.3522 7.47629 14.4712
H 13.9475 6.9945 -14.0279
O 3.91073 -0.959246 -9.75066
H 4.33287 -1.5549 -9.06735
H 4.54387 -0.22227 -9.98711
O 11.1467 11.5871 -3.26726
H 10.281 11.891 -2.8695
H 11.4441 12.2442 -3.95984
O -13.3457 12.565 -8.61356
H -12.8741 11.6838 -8.58092
H -12.7373 13.2815 -8.27236
O -8.98196 -4.44344 9.98745
H -8.17526 -4.74221 10.4972
H -9.54883 -5.2368 9.76575
O 0.0828822 10.5572 1.01044
H 0.550383 9.90379 1.60574
H 0.510157 10.5493 0.106398
O 6.7664 -3.09746 2.57569
H 6.80753 -2.23075 3.0727
H 6.01878 -3.65414 2.93775
O 14.0361 -10.4412 -12.8399
H 14.8295 -11.0456 -12.768
H 14.3158 -9.57101 -13.2454
O 3.0369 1.88246 -12.9536
H 2.63454 2.72703 -12.6005
H 2.76571 1.11549 -12.3722
O -12.7691 -13.2246 1.59657
H -12.7585 -12.5745 2.35633
H -13.7074 -13.3422 1.27154
O -5.69805 -5.26433 -11.0564
H -5.26901 -6.08044 -11.4434
H -5.00209 -4.56294 -10.9028
O -3.39448 14.581 5.56365
H -3.80555 13.9265 4.92916
H -3.48888 14.242 6.49967
O -12.2947 14.7839 -7.54527
H -12.1255 14.7054 -6.56287
H -12.9709 -14.4396 -7.71068
O -10.6948 1.87464 -13.2694
H -11.4441 2.36593 -12.8254
H -9.90055 1.85876 -12.6621
O 5.13233 1.56967 -9.94574
H 6.09611 1.38142 -10.1344
H 4.91347 2.5034 -10.2289
O 3.81301 -7.00817 3.12758
H 3.25016 -7.58006 3.72428
H 4.48617 -7.5787 2.6572
O 4.81643 -6.4586 12.6351
H 3.86934 -6.77837 12.6611
H 5.38096 -7.12773 12.1519
O 4.04648 8.24706 -10.9552
H 4.7735 8.15036 -10.2755
H 3.31868 7.58953 -10.7607