LAMMPS data file via write_data, version 15 May 2015, timestep = 2100000

2611 atoms
6 atom types
1749 bonds
4 bond types
894 angles
3 angle types
44 dihedrals
3 dihedral types
10 impropers
1 improper types

-1.5068238510777578e+01 1.5068238510777578e+01 xlo xhi
-1.5068238510777578e+01 1.5068238510777578e+01 ylo yhi
-1.5068238510777578e+01 1.5068238510777578e+01 zlo zhi

Masses

1 15.9994
2 1.00794
3 12.0107
4 1.00794
5 12.0107
6 12.0107

Bond Coeffs # harmonic

1 1000 1
2 469 1.4
3 367 1.08
4 469 0.7

Angle Coeffs # harmonic

1 100 109.47
2 35 120
3 63 120

Dihedral Coeffs # opls

1 0 7.25 0 0
2 0 7.25 0 0
3 0 7.25 0 0

Improper Coeffs # cvff

1 2.5 -1 2

Atoms # full

1455 485 2 4.0999999999999998e-01 -1.0935098344681379e+01 -9.9091488316954077e+00 -1.3057131066241553e+01 -1 0 -1
1077 359 2 4.0999999999999998e-01 -1.2292431213153469e+01 -1.1785166241222470e+01 -1.0887303559277598e+01 -2 -1 1
506 169 2 4.0999999999999998e-01 -7.6058246106258913e+00 -9.2018728004319534e+00 -1.0457950231270488e+01 0 -1 0
1075 359 1 -8.1999999999999995e-01 -1.2747963605609840e+01 -1.1690710924447185e+01 -1.0002059672611917e+01 -2 -1 1
505 169 1 -8.1999999999999995e-01 -7.8000759686895966e+00 -8.5527550106310208e+00 -1.1193477777406729e+01 0 -1 0
1076 359 2 4.0999999999999998e-01 -1.2636573810051750e+01 -1.2535179419533591e+01 -9.4780810691622364e+00 -2 -1 1
507 169 2 4.0999999999999998e-01 -7.8771250766867933e+00 -9.0448765710948447e+00 -1.2060638645527261e+01 0 -1 0
1453 485 1 -8.1999999999999995e-01 -1.0436306164532139e+01 -1.0755004884509493e+01 -1.3246398576214020e+01 -1 0 -1
1454 485 2 4.0999999999999998e-01 -1.0838401592176712e+01 -1.1504044885151076e+01 -1.2719761486115932e+01 -1 0 -1
1951 651 1 -8.1999999999999995e-01 -1.1495074185680570e+01 -8.3264158706886118e+00 -1.3559796809686658e+01 0 1 1
2556 852 2 4.0999999999999998e-01 -8.6619185424642229e+00 -1.0487093268952794e+01 -1.3671300652706559e+01 -1 0 0
1953 651 2 4.0999999999999998e-01 -1.2420672131387256e+01 -8.2598768545224281e+00 -1.3187064592823106e+01 0 1 1
2554 852 1 -8.1999999999999995e-01 -7.7350473257107968e+00 -1.0147003786726073e+01 -1.3512124573798307e+01 -1 0 0
2171 724 2 4.0999999999999998e-01 -1.3051819374186314e+01 -1.2458063522000577e+01 -1.2879338792236339e+01 -1 -1 -1
1622 541 2 4.0999999999999998e-01 -8.2301073233125646e+00 -1.4543312733913117e+01 -1.2700266478049949e+01 -2 1 1
2162 721 2 4.0999999999999998e-01 -9.3140720702778239e+00 -1.2402758971865309e+01 -9.6530310469637790e+00 -1 1 1
150 50 2 4.0999999999999998e-01 -1.3650497402174782e+01 -7.8758399940667010e+00 -9.5633370498358179e+00 0 0 0
2067 689 2 4.0999999999999998e-01 -8.4543110672374269e+00 -8.5860757768461031e+00 -1.4318655206742958e+01 -1 0 1
1623 541 2 4.0999999999999998e-01 -9.1559028626775820e+00 -1.3327697257158178e+01 -1.3276498684270685e+01 -2 1 1
2163 721 2 4.0999999999999998e-01 -9.4614399875607695e+00 -1.3662381952701313e+01 -1.0681862711778692e+01 -1 1 1
2010 670 2 4.0999999999999998e-01 -1.4768171855714114e+01 -8.0703549421689260e+00 -1.2521727638220828e+01 -1 0 1
2170 724 1 -8.1999999999999995e-01 -1.2325953110320455e+01 -1.2821591455082512e+01 -1.2295340579718159e+01 -1 -1 -1
1621 541 1 -8.1999999999999995e-01 -9.1296046686455998e+00 -1.4108883614545128e+01 -1.2652684158646755e+01 -2 1 1
2161 721 1 -8.1999999999999995e-01 -9.3443308292296692e+00 -1.3399820268542447e+01 -9.7240343986167144e+00 -1 1 1
492 164 2 4.0999999999999998e-01 -1.0925864955580003e+01 -1.4059481757373998e+01 -9.1552041315592234e+00 -2 0 0
2172 724 2 4.0999999999999998e-01 -1.2413081370749412e+01 -1.3816019922403040e+01 -1.2235265713242967e+01 -1 -1 -1
1385 462 2 4.0999999999999998e-01 -1.4376750642149297e+01 -1.1829161368984780e+01 -1.1276714919361577e+01 -1 -1 -1
195 65 2 4.0999999999999998e-01 -1.4971556580448555e+01 -1.4602502801488415e+01 -9.3021880662434882e+00 -1 1 1
2065 689 1 -8.1999999999999995e-01 -8.0472459609746796e+00 -7.7873192876769108e+00 -1.4761796683348049e+01 -1 0 1
1952 651 2 4.0999999999999998e-01 -1.1509963957477574e+01 -8.0945748014542378e+00 -1.4532481915472861e+01 0 1 1
194 65 2 4.0999999999999998e-01 -1.3440692314630969e+01 -1.4773193425053694e+01 -9.8445727429353678e+00 -1 1 1
2106 702 2 4.0999999999999998e-01 -1.1611208945502494e+01 -1.4058488194389911e+01 -1.4517280624834109e+01 -2 2 -2
1685 562 2 4.0999999999999998e-01 -1.3841533690245008e+01 -1.0408827075495292e+01 -9.2772646679417505e+00 -1 -1 1
1214 405 2 4.0999999999999998e-01 -1.4697703846120080e+01 -1.4115548318331438e+01 -1.4362629903447719e+01 -1 0 1
490 164 1 -8.1999999999999995e-01 -1.1920388571563388e+01 -1.4154981777651589e+01 -9.1117204951852386e+00 -2 0 0
168 56 2 4.0999999999999998e-01 -1.1234032651251468e+01 -1.0933200473578079e+01 -9.1052227211243242e+00 -1 1 1
976 326 1 -8.1999999999999995e-01 -7.1476100351155347e+00 -1.0889536290351543e+01 -9.7569911631734030e+00 -1 -2 2
2555 852 2 4.0999999999999998e-01 -7.1154550003609875e+00 -1.0919839655178905e+01 -1.3374580495478975e+01 -1 0 0
1482 494 2 4.0999999999999998e-01 -1.5300066468947087e+00 -1.1105542454768766e+01 -1.4692508739519745e+01 -2 0 0
1281 427 2 4.0999999999999998e-01 -1.7995285408557837e+00 -9.4655071619163245e+00 -1.1590072531264132e+01 -1 0 1
1985 662 2 4.0999999999999998e-01 -2.3808797742439598e+00 -1.0095473265533222e+01 -9.9038669432287421e+00 -2 1 0
978 326 2 4.0999999999999998e-01 -7.0694728756178851e+00 -1.1669864094345703e+01 -9.1364499169703226e+00 -1 -2 2
2066 689 2 4.0999999999999998e-01 -7.0503672114915101e+00 -7.8593267638064033e+00 -1.4728093145138589e+01 -1 0 1
977 326 2 4.0999999999999998e-01 -6.8318979720254251e+00 -1.1155166894441166e+01 -1.0667954694650906e+01 -1 -2 2
1986 662 2 4.0999999999999998e-01 -2.1708300952903965e+00 -8.4865156726896505e+00 -9.7194857323116075e+00 -2 1 0
606 202 2 4.0999999999999998e-01 -2.2172835144900827e+00 -1.2581381670054453e+01 -1.1567521607360119e+01 -1 -1 0
1136 379 2 4.0999999999999998e-01 -5.9769920455782923e+00 -7.9762735523409587e+00 -1.1308204688490152e+01 -1 1 1
2101 701 1 -8.1999999999999995e-01 -6.3207736182897385e+00 -1.2890357904331342e+01 -1.1858568143815290e+01 -1 1 -1
2281 761 1 -8.1999999999999995e-01 -5.4652018106065494e+00 -8.0535319366318259e+00 -1.4488565359285452e+01 -3 0 2
604 202 1 -8.1999999999999995e-01 -2.5610202540790716e+00 -1.3030328760418909e+01 -1.2392372988463901e+01 -1 -1 0
2588 863 2 4.0999999999999998e-01 -5.0207374704105536e+00 -1.0875404686523058e+01 -1.4275107391795657e+01 1 -1 0
2587 863 1 -8.1999999999999995e-01 -4.3065050192502383e+00 -1.0387013712763494e+01 -1.3773674880774301e+01 1 -1 0
2282 761 2 4.0999999999999998e-01 -5.1832293812190517e+00 -8.9815285304395260e+00 -1.4244839727296128e+01 -3 0 2
2102 701 2 4.0999999999999998e-01 -6.4020625617473499e+00 -1.3096350528322157e+01 -1.2833784713377121e+01 -1 1 -1
2103 701 2 4.0999999999999998e-01 -6.2091316182406331e+00 -1.3741884353925508e+01 -1.1346194192810655e+01 -1 1 -1
1135 379 1 -8.1999999999999995e-01 -5.0158516889998737e+00 -7.7031719673621915e+00 -1.1266817343666492e+01 -1 1 1
2589 863 2 4.0999999999999998e-01 -3.8045066415835365e+00 -1.1031191675039427e+01 -1.3196508792877671e+01 1 -1 0
605 202 2 4.0999999999999998e-01 -2.8395695620111070e+00 -1.3965090746590089e+01 -1.2171650077849883e+01 -1 -1 0
1984 662 1 -8.1999999999999995e-01 -2.8091560848126846e+00 -9.2462044054950567e+00 -9.5949817481542858e+00 -2 1 0
1481 494 2 4.0999999999999998e-01 -1.4948823105753899e+00 -1.2497579219289339e+01 -1.3839360670390070e+01 -2 0 0
1480 494 1 -8.1999999999999995e-01 -1.3400831817944070e+00 -1.2086345744464635e+01 -1.4737699411763566e+01 -2 0 0
1137 379 2 4.0999999999999998e-01 -4.4878233360723137e+00 -8.4118380172372689e+00 -1.0798771914612605e+01 -1 1 1
1279 427 1 -8.1999999999999995e-01 -1.7538980037113827e+00 -1.0283260010593477e+01 -1.2163907331141035e+01 -1 0 1
2402 801 2 4.0999999999999998e-01 -1.3572957819272062e+00 -1.3546277779721214e+01 -9.8178320058053572e+00 -2 2 2
921 307 2 4.0999999999999998e-01 -5.3234425900123838e-01 -7.7034456409232011e+00 -1.1777042014130787e+01 -1 0 1
919 307 1 -8.1999999999999995e-01 -1.1351361452892004e+00 -7.8154742128283665e+00 -1.0986991487682317e+01 -1 0 1
1280 427 2 4.0999999999999998e-01 -7.9741646121064313e-01 -1.0540018548828652e+01 -1.2302854771882350e+01 -1 0 1
1651 551 1 -8.1999999999999995e-01 -5.3468806669933127e+00 -1.5030878185184386e+01 -1.0533275126840174e+01 -1 0 0
1619 540 2 4.0999999999999998e-01 -3.0906069515895584e+00 -9.3725403648590575e+00 -1.4605261022154650e+01 -2 1 -1
2401 801 1 -8.1999999999999995e-01 -1.7322270648641602e+00 -1.2626844332790471e+01 -9.6988492996285878e+00 -2 2 2
2403 801 2 4.0999999999999998e-01 -1.0188536589359352e+00 -1.2018400823082986e+01 -9.3510231093499776e+00 -2 2 2
2009 670 2 4.0999999999999998e-01 -1.3652062827731706e+01 -7.1367311747505910e+00 -1.1780438767458566e+01 -1 0 1
2205 735 2 4.0999999999999998e-01 -1.1347799561672579e+01 -3.6758578634952350e+00 -1.4912313793292849e+01 -1 -1 3
2008 670 1 -8.1999999999999995e-01 -1.3985712330227072e+01 -7.4641673049720580e+00 -1.2664492976777783e+01 -1 0 1
138 46 2 4.0999999999999998e-01 -1.4258825494960384e+01 -1.5012526402650543e+00 -9.2673758338021841e+00 -2 -2 1
1846 616 1 -8.1999999999999995e-01 -8.3920555870489473e+00 -5.1146086292516983e+00 -1.4271390969910335e+01 -1 -1 2
137 46 2 4.0999999999999998e-01 -1.4769632278524522e+01 -1.5424432157215815e+00 -1.0817937495853968e+01 -2 -2 1
148 50 1 -8.1999999999999995e-01 -1.3263592663287200e+01 -7.0263557813683111e+00 -9.9221816920399561e+00 0 0 0
2573 858 2 4.0999999999999998e-01 -8.8181060530301458e+00 -5.4836122380572139e+00 -1.1632946643600585e+01 -3 1 2
2572 858 1 -8.1999999999999995e-01 -7.9650191261646244e+00 -5.4693365114753956e+00 -1.1111288540704956e+01 -3 1 2
581 194 2 4.0999999999999998e-01 -1.0672141760641466e+01 -6.6865111290667816e+00 -1.2855041027686168e+01 -1 0 1
1553 518 2 4.0999999999999998e-01 -9.8783239542597734e+00 -1.3509556418933979e+00 -1.0467772411735845e+01 -2 1 0
1721 574 2 4.0999999999999998e-01 -1.0800039652332250e+01 -1.7961865411177929e+00 -1.3722228638746248e+01 -2 0 1
580 194 1 -8.1999999999999995e-01 -1.0332372917692188e+01 -5.7720152356718977e+00 -1.2635171501923841e+01 -1 0 1
2542 848 1 -8.1999999999999995e-01 -1.2362051561130491e+01 -4.5997195184792723e+00 -1.1373857804257083e+01 -1 0 0
2543 848 2 4.0999999999999998e-01 -1.3135118212234225e+01 -4.0285749257537589e+00 -1.1649992006210933e+01 -1 0 0
1179 393 2 4.0999999999999998e-01 -1.4554326288292964e+01 -4.5013871736209765e-01 -1.4344298416380632e+01 -2 -1 0
2544 848 2 4.0999999999999998e-01 -1.2701105076793471e+01 -5.4167888891664386e+00 -1.0907458155107514e+01 -1 0 0
582 194 2 4.0999999999999998e-01 -1.1090801662994526e+01 -5.2015308412763854e+00 -1.2319859420748152e+01 -1 0 1
149 50 2 4.0999999999999998e-01 -1.3317638801643142e+01 -6.3138048865684535e+00 -9.2225828698928645e+00 0 0 0
1552 518 1 -8.1999999999999995e-01 -9.5723466640461261e+00 -2.2406099960929495e+00 -1.0806861349519611e+01 -2 1 0
1722 574 2 4.0999999999999998e-01 -1.0259676948285509e+01 -2.6815068790227556e+00 -1.2460849279352180e+01 -2 0 1
1720 574 1 -8.1999999999999995e-01 -1.0424677029890255e+01 -2.6813665150264363e+00 -1.3447187537926723e+01 -2 0 1
1554 518 2 4.0999999999999998e-01 -8.7116562064738545e+00 -2.4887620820840972e+00 -1.0362203311041682e+01 -2 1 0
1847 616 2 4.0999999999999998e-01 -9.1826847168918562e+00 -4.8616211899786599e+00 -1.3713725092938562e+01 -1 -1 2
136 46 1 -8.1999999999999995e-01 -1.4089901901286330e+01 -1.1599109719253544e+00 -1.0192058913802974e+01 -2 -2 1
1258 420 1 -8.1999999999999995e-01 -1.1033234927402335e+01 -2.4895388155247389e-02 -1.3544935587511901e+01 -2 0 0
734 245 2 4.0999999999999998e-01 -9.1034112587755001e+00 -2.3046933893122876e+00 -1.4469769986568949e+01 -2 0 0
1178 393 2 4.0999999999999998e-01 -1.3063920830871389e+01 -9.1284839271494889e-02 -1.3781468590764430e+01 -2 -1 0
1848 616 2 4.0999999999999998e-01 -8.4174859464547129e+00 -6.0964169457761859e+00 -1.4459789558537839e+01 -1 -1 2
1739 580 2 4.0999999999999998e-01 -1.1456986548042597e+01 -3.2769312576199301e+00 -9.1127137215982543e+00 1 -1 0
733 245 1 -8.1999999999999995e-01 -8.3838884213569074e+00 -1.8756678780662366e+00 -1.5015949629587150e+01 -2 0 0
1597 533 1 -8.1999999999999995e-01 -2.1568235142618040e+00 -4.5670581828241712e+00 -9.4616064127829702e+00 0 0 0
864 288 2 4.0999999999999998e-01 -1.6134165294351810e-01 -2.5309388318265711e+00 -1.4297865272922984e+01 -1 0 3
1382 461 2 4.0999999999999998e-01 -6.8167269758510152e-01 -4.1463432298019818e+00 -1.0434112365238111e+01 -3 1 0
2283 761 2 4.0999999999999998e-01 -5.0786845491722090e+00 -7.4047139586803308e+00 -1.3833028999561064e+01 -3 0 2
1599 533 2 4.0999999999999998e-01 -2.8603860824935072e+00 -5.0404705357301296e+00 -9.9916713010663933e+00 0 0 0
2574 858 2 4.0999999999999998e-01 -7.4975059804320532e+00 -6.3475260397416484e+00 -1.1212791641862268e+01 -3 1 2
2023 675 1 -8.1999999999999995e-01 -3.4401430396786825e+00 -2.0009451795388689e+00 -9.5879055372848541e+00 0 1 -1
1362 454 2 4.0999999999999998e-01 -3.6531724584077789e+00 -1.7331403102785501e+00 -1.1571669061330605e+01 -2 0 2
1487 496 2 4.0999999999999998e-01 -6.7838076704716190e+00 -1.5090356071112971e+00 -1.0140018574172188e+01 0 0 2
689 230 2 4.0999999999999998e-01 -2.9379306099852798e-01 -8.0551099922507774e-01 -1.2192024920277710e+01 -1 -1 0
947 316 2 4.0999999999999998e-01 -5.7175608698018134e+00 -3.4163305771670238e+00 -1.4128220147601462e+01 -2 0 -1
2025 675 2 4.0999999999999998e-01 -2.6898963569084877e+00 -1.3642532463806614e+00 -9.4094634151904124e+00 0 1 -1
2527 843 1 -8.1999999999999995e-01 -4.3259911439880661e+00 -5.0854284921765256e+00 -1.0703477517776971e+01 -2 -1 0
1486 496 1 -8.1999999999999995e-01 -6.4624377233031556e+00 -7.0408661370744596e-01 -1.0638884043733459e+01 0 0 2
1488 496 2 4.0999999999999998e-01 -5.8033339340558925e+00 -9.8539891453707718e-01 -1.1336403854348113e+01 0 0 2
2425 809 1 -8.1999999999999995e-01 -5.5716072194853403e+00 -5.1464395353653689e+00 -1.3724413073215588e+01 -1 -1 1
957 319 2 4.0999999999999998e-01 -5.7896119716585019e+00 -8.2478265762616765e-01 -1.4859661395409482e+01 -2 0 1
920 307 2 4.0999999999999998e-01 -1.0181710356240199e+00 -7.0404369409775729e+00 -1.0365924126589299e+01 -1 0 1
863 288 2 4.0999999999999998e-01 -1.1612195213900733e-01 -3.3419654958885214e+00 -1.2881160346375179e+01 -1 0 3
1361 454 2 4.0999999999999998e-01 -3.5398401096110881e+00 -1.3486829528567839e+00 -1.3154770522500700e+01 -2 0 2
946 316 1 -8.1999999999999995e-01 -5.7210926944231790e+00 -2.4190920604982136e+00 -1.4202994140374212e+01 -2 0 -1
948 316 2 4.0999999999999998e-01 -5.2124965712037241e+00 -2.0255981524247488e+00 -1.3437108491320510e+01 -2 0 -1
2427 809 2 4.0999999999999998e-01 -5.4678096233560005e+00 -5.1962353154601892e+00 -1.4717808634471792e+01 -1 -1 1
1360 454 1 -8.1999999999999995e-01 -4.1722483538078112e+00 -1.5149209112492290e+00 -1.2398124597456556e+01 -2 0 2
1450 484 1 -8.1999999999999995e-01 -7.1376100769071051e+00 -3.1552030827234674e+00 -9.8706979536696551e+00 -1 -1 1
735 245 2 4.0999999999999998e-01 -7.5005151018287233e+00 -2.2814708873843816e+00 -1.4781292850205421e+01 -2 0 0
2426 809 2 4.0999999999999998e-01 -6.5384537242679670e+00 -5.2366979107220502e+00 -1.3485353393916956e+01 -1 -1 1
2529 843 2 4.0999999999999998e-01 -4.6475247121840528e+00 -4.4887465414403867e+00 -1.1438783646520097e+01 -2 -1 0
2528 843 2 4.0999999999999998e-01 -4.5980102405878576e+00 -6.0282563960662863e+00 -1.0896271276059938e+01 -2 -1 0
1451 484 2 4.0999999999999998e-01 -7.1036897484423065e+00 -4.0870574468506717e+00 -1.0232063600999471e+01 -1 -1 1
688 230 1 -8.1999999999999995e-01 -1.2895750096324665e+00 -8.4900650783277243e-01 -1.2110693931386935e+01 -1 -1 0
2024 675 2 4.0999999999999998e-01 -3.0710082556563645e+00 -2.9191884623159297e+00 -9.7316312261037403e+00 0 1 -1
1383 461 2 4.0999999999999998e-01 -9.6853968352247577e-02 -5.0238506638782638e+00 -1.1681040463445481e+01 -3 1 0
167 56 2 4.0999999999999998e-01 -9.9519273219997348e+00 -1.0087587212690323e+01 -8.5502398024109336e+00 -1 1 1
2506 836 1 -8.1999999999999995e-01 -9.6440990231191357e+00 -8.4253134407434089e+00 -7.7501821171957221e+00 -1 2 0
72 24 2 4.0999999999999998e-01 -1.3898767668901286e+01 -1.0339366756033753e+01 -5.6102133247004371e+00 -2 1 0
2507 836 2 4.0999999999999998e-01 -1.0259502020085208e+01 -7.7417199489920119e+00 -7.3576679595460224e+00 -1 2 0
2508 836 2 4.0999999999999998e-01 -8.6968651723192352e+00 -8.1254233636299347e+00 -7.6365939404997718e+00 -1 2 0
70 24 1 -8.1999999999999995e-01 -1.3022142034266356e+01 -1.0318218965404776e+01 -6.0910131566760271e+00 -2 1 0
166 56 1 -8.1999999999999995e-01 -1.0401205221317397e+01 -1.0981022067031152e+01 -8.5536795746551650e+00 -1 1 1
71 24 2 4.0999999999999998e-01 -1.2338491181922082e+01 -9.8661977308792466e+00 -5.5179629039410614e+00 -2 1 0
30 10 2 4.0999999999999998e-01 -8.4326024264422017e+00 -1.3772467823222863e+01 -5.0812049050053165e+00 -1 -2 1
28 10 1 -8.1999999999999995e-01 -8.7459324610141653e+00 -1.3995427242710338e+01 -4.1580572238902640e+00 -1 -2 1
1093 365 1 -8.1999999999999995e-01 -1.2961153737347441e+01 -1.3102595504599828e+01 -6.6854714517508746e+00 -1 1 -2
491 164 2 4.0999999999999998e-01 -1.2217086464117411e+01 -1.4121139268763464e+01 -8.1573026892033376e+00 -2 0 0
1095 365 2 4.0999999999999998e-01 -1.3840761543621319e+01 -1.3396614975885800e+01 -7.0595448035557311e+00 -1 1 -2
1094 365 2 4.0999999999999998e-01 -1.3036652737827051e+01 -1.2161120135857209e+01 -6.3568192668983414e+00 -1 1 -2
2249 750 2 4.0999999999999998e-01 -1.0314928935742696e+01 -8.4406433463012291e+00 -5.5391097511595682e+00 -2 -1 0
2248 750 1 -8.1999999999999995e-01 -1.0890249371421632e+01 -8.9953084264704835e+00 -4.9379098359770293e+00 -2 -1 0
466 156 1 -8.1999999999999995e-01 -8.4465503948793987e+00 -1.3047920855217779e+01 -6.6959221615405387e+00 -1 -1 0
468 156 2 4.0999999999999998e-01 -9.2436323309358119e+00 -1.2617576525213753e+01 -7.1196583483552471e+00 -1 -1 0
2250 750 2 4.0999999999999998e-01 -1.1624235250359773e+01 -8.4288010131339242e+00 -4.5631801104212322e+00 -2 -1 0
29 10 2 4.0999999999999998e-01 -9.6300950748052188e+00 -1.3558804480321831e+01 -3.9916080643783722e+00 -1 -2 1
2148 716 2 4.0999999999999998e-01 -8.0284115229983684e+00 -1.1534868097453463e+01 -5.2953014924685622e+00 -2 1 0
2147 716 2 4.0999999999999998e-01 -9.1980369015255050e+00 -1.0420066181218111e+01 -5.0585419058718948e+00 -2 1 0
2146 716 1 -8.1999999999999995e-01 -8.2828577609999634e+00 -1.0714486826297062e+01 -4.7831296619037342e+00 -2 1 0
467 156 2 4.0999999999999998e-01 -7.7620416552702878e+00 -1.3245639372195207e+01 -7.3976652733875881e+00 -1 -1 0
1003 335 1 -8.1999999999999995e-01 -1.1165541119012033e+01 -1.2923699956098764e+01 -4.5073808927995689e+00 -1 -1 0
1686 562 2 4.0999999999999998e-01 -1.3685790864898840e+01 -9.7516279343469137e+00 -7.7904239614378419e+00 -1 -1 1
1684 562 1 -8.1999999999999995e-01 -1.4152446472661985e+01 -9.6762257911881004e+00 -8.6716930962037182e+00 -1 -1 1
1004 335 2 4.0999999999999998e-01 -1.1177332680314791e+01 -1.2041743421202048e+01 -4.0361040203781187e+00 -1 -1 0
1005 335 2 4.0999999999999998e-01 -1.1999863883224606e+01 -1.3023012223685260e+01 -5.0497192069747250e+00 -1 -1 0
2223 741 2 4.0999999999999998e-01 -1.4874478184337070e+01 -9.1964173741320501e+00 -3.7213182621619438e+00 -3 1 1
2221 741 1 -8.1999999999999995e-01 -1.5064785292911802e+01 -1.0034451308132141e+01 -4.2327579976572185e+00 -3 1 1
2168 723 2 4.0999999999999998e-01 -9.3800590327052902e-01 -9.3074393757147611e+00 -3.5745664346823958e+00 0 -1 0
2300 767 2 4.0999999999999998e-01 -6.4495164477768796e+00 -9.9179751689758540e+00 -4.4318620515799267e+00 -2 0 2
238 80 1 -8.1999999999999995e-01 -6.4291790286115518e+00 -1.3239922551738527e+01 -8.5893330285315699e+00 -1 0 -2
2169 723 2 4.0999999999999998e-01 -2.5181655714292148e+00 -8.9393520162087050e+00 -3.3889079734169414e+00 0 -1 0
2519 840 2 4.0999999999999998e-01 -4.1232745790368526e+00 -1.1183711537453028e+01 -8.2691974529684735e+00 0 1 0
1709 570 2 4.0999999999999998e-01 -3.5877265372018474e+00 -1.3850443619333628e+01 -6.6370061610751243e+00 -1 1 1
437 146 2 4.0999999999999998e-01 -4.8510034941696496e+00 -8.2701556631839743e+00 -4.4260201959034333e+00 -1 0 0
666 222 2 4.0999999999999998e-01 -5.2374003806202865e+00 -1.1223565064376796e+01 -6.2653595369926460e+00 -1 -3 -1
665 222 2 4.0999999999999998e-01 -4.4250585504150486e+00 -1.0961875279772723e+01 -4.8730660689778702e+00 -1 -3 -1
664 222 1 -8.1999999999999995e-01 -4.9190160728638883e+00 -1.1642086543048148e+01 -5.4147365403057606e+00 -1 -3 -1
2299 767 1 -8.1999999999999995e-01 -6.1554734130664333e+00 -9.1394753855108526e+00 -3.8772765842873955e+00 -2 0 2
1710 570 2 4.0999999999999998e-01 -2.8078114458745755e+00 -1.4353772947925673e+01 -5.2934088164106452e+00 -1 1 1
1873 625 1 -8.1999999999999995e-01 -3.1488120825885861e+00 -9.4074129889808553e+00 -6.8914905065718557e+00 0 -1 0
1875 625 2 4.0999999999999998e-01 -3.1845347565030941e+00 -9.1797457037752608e+00 -7.8646193710948014e+00 0 -1 0
1708 570 1 -8.1999999999999995e-01 -2.7743335231124941e+00 -1.4319113780591090e+01 -6.2922912919241494e+00 -1 1 1
438 146 2 4.0999999999999998e-01 -3.5111291159237688e+00 -8.4748021855174471e+00 -5.3369089214554499e+00 -1 0 0
2301 767 2 4.0999999999999998e-01 -6.9529805129816200e+00 -8.5943774761071801e+00 -3.6185509795259119e+00 -2 0 2
436 146 1 -8.1999999999999995e-01 -4.0031181635098765e+00 -7.8420275720034898e+00 -4.7388860737496774e+00 -1 0 0
1132 378 1 -8.1999999999999995e-01 -3.9488592975150638e-01 -9.2413096567333994e+00 -6.7814269809059393e+00 -1 -1 -1
2518 840 1 -8.1999999999999995e-01 -4.0281013479374650e+00 -1.2175341246056330e+01 -8.3569520418939760e+00 0 1 0
1874 625 2 4.0999999999999998e-01 -2.2011164814715016e+00 -9.5830555474674561e+00 -6.6248244207701141e+00 0 -1 0
1778 593 2 4.0999999999999998e-01 -1.2805974242555784e+00 -1.1336705155860225e+01 -5.2375663722419468e+00 -1 -1 0
2167 723 1 -8.1999999999999995e-01 -1.8696523337245825e+00 -9.6697854300670638e+00 -3.6033512190177923e+00 0 -1 0
240 80 2 4.0999999999999998e-01 -5.6117740805404761e+00 -1.2665377068864355e+01 -8.6321690516687273e+00 -1 0 -2
6 2 2 4.0999999999999998e-01 -6.2460021534808519e+00 -9.1329176600581263e+00 -7.0542812936181409e+00 -2 1 -1
2351 784 2 4.0999999999999998e-01 -3.2243844748918615e+00 -1.4289124522167748e+01 -3.3606371940855837e+00 -1 1 1
1779 593 2 4.0999999999999998e-01 -1.6222975738191270e+00 -1.2820783742986535e+01 -5.8271539299227388e+00 -1 -1 0
2520 840 2 4.0999999999999998e-01 -3.2317404525100244e+00 -1.2384848604005583e+01 -8.9244062030880755e+00 0 1 0
4 2 1 -8.1999999999999995e-01 -6.1283525204479883e+00 -1.0063286077961187e+01 -7.4016448888297859e+00 -2 1 -1
1811 604 2 4.0999999999999998e-01 -2.2804882172560301e+00 -1.2319663646518553e+01 -3.2705768660805958e+00 -1 0 -1
5 2 2 4.0999999999999998e-01 -6.6154704390623689e+00 -1.0159052953676166e+01 -8.2697653555142878e+00 -2 1 -1
87 29 2 4.0999999999999998e-01 -5.8088112031071741e+00 -1.3051521677183992e+01 -3.6608580810785210e+00 -4 -1 0
1134 378 2 4.0999999999999998e-01 -6.6847617769845513e-01 -8.3302600288887252e+00 -6.4728412165162919e+00 -1 -1 -1
1777 593 1 -8.1999999999999995e-01 -1.0996089917174956e+00 -1.2315432868217620e+01 -5.1404915850001149e+00 -1 -1 0
86 29 2 4.0999999999999998e-01 -7.1618738507473045e+00 -1.3725355588970165e+01 -3.0427712829723994e+00 -4 -1 0
239 80 2 4.0999999999999998e-01 -6.2350318723346181e+00 -1.4127477599346546e+01 -9.0072339941818953e+00 -1 0 -2
440 147 2 4.0999999999999998e-01 -1.4884565393442772e+01 -6.2535020281750384e+00 -7.3782812530897992e+00 -2 -1 -1
2475 825 2 4.0999999999999998e-01 -1.0624373811982391e+01 -4.7554304608048170e-01 -4.2310277315445575e+00 0 1 -1
310 104 1 -8.1999999999999995e-01 -1.3554432884665516e+01 -8.7060015392328793e-01 -5.7410016838387694e+00 -1 -1 -2
312 104 2 4.0999999999999998e-01 -1.3038850896962519e+01 -1.3983525752453421e+00 -5.0659159464312413e+00 -1 -1 -2
1774 592 1 -8.1999999999999995e-01 -1.0926081136379722e+01 -6.3239596932185513e+00 -6.6184779182352393e+00 -1 0 1
441 147 2 4.0999999999999998e-01 -1.3445948471712320e+01 -5.6834478424001933e+00 -6.8564752241794213e+00 -2 -1 -1
439 147 1 -8.1999999999999995e-01 -1.4075708288657706e+01 -5.7231166520677270e+00 -7.6323084831611174e+00 -2 -1 -1
1412 471 2 4.0999999999999998e-01 -1.2033726623720282e+01 -3.5919107067755114e+00 -6.5322383485542943e+00 -2 -1 1
1775 592 2 4.0999999999999998e-01 -1.1480396676558662e+01 -5.5479006993692277e+00 -6.3175543967315004e+00 -1 0 1
1776 592 2 4.0999999999999998e-01 -1.0223211314670653e+01 -6.0049084772298116e+00 -7.2542991492125042e+00 -1 0 1
2191 731 1 -8.1999999999999995e-01 -9.0755724513864102e+00 -4.9765204324567858e+00 -7.7958947759119512e+00 -1 0 0
2073 691 2 4.0999999999999998e-01 -8.4133463080257176e+00 -1.5233751976332925e+00 -7.8003562532300226e+00 -1 -1 1
113 38 2 4.0999999999999998e-01 -1.4750828717685517e+01 -3.7184486112415520e+00 -7.3869459956977561e+00 -1 -2 0
2110 704 1 -8.1999999999999995e-01 -1.2415505526086326e+01 -1.9693786860360500e+00 -3.4545642468968136e+00 -1 0 -1
2071 691 1 -8.1999999999999995e-01 -9.3804932146029110e+00 -1.2705692947763332e+00 -7.7719955005368755e+00 -1 -1 1
2072 691 2 4.0999999999999998e-01 -9.9424775171799258e+00 -2.0961537673941688e+00 -7.8236889620037697e+00 -1 -1 1
1413 471 2 4.0999999999999998e-01 -1.2583316460242058e+01 -3.2796765230512293e+00 -5.0264752006164866e+00 -2 -1 1
306 102 2 4.0999999999999998e-01 -1.3332830754425981e+01 -5.2707477488475458e+00 -4.5155797043556145e+00 -2 -1 0
1411 471 1 -8.1999999999999995e-01 -1.2526802847990632e+01 -3.9694283768053484e+00 -5.7483733196113924e+00 -2 -1 1
304 102 1 -8.1999999999999995e-01 -1.3708315111426353e+01 -6.1246759502866315e+00 -4.1551543811413278e+00 -2 -1 0
305 102 2 4.0999999999999998e-01 -1.3019182008815502e+01 -6.5801451085305942e+00 -3.5914774593954579e+00 -2 -1 0
2111 704 2 4.0999999999999998e-01 -1.3263395393684302e+01 -1.6257588136010295e+00 -3.0507123207391196e+00 -1 0 -1
2193 731 2 4.0999999999999998e-01 -8.5926733612316681e+00 -4.9143386886763398e+00 -6.9223788305426162e+00 -1 0 0
1740 580 2 4.0999999999999998e-01 -1.0378108816869277e+01 -4.0149678384867737e+00 -8.1338436777013747e+00 1 -1 0
1738 580 1 -8.1999999999999995e-01 -1.1150823342097572e+01 -3.3809795430487863e+00 -8.1663912032683470e+00 1 -1 0
2192 731 2 4.0999999999999998e-01 -8.5709639168248355e+00 -5.5798468578878424e+00 -8.4135156800914324e+00 -1 0 0
78 26 2 4.0999999999999998e-01 -4.8736268474069124e+00 -5.2972636224677654e+00 -8.8004039444196298e+00 -4 0 0
262 88 1 -8.1999999999999995e-01 -1.7248840673632113e+00 -4.9612948971164528e-02 -8.5176344445466512e+00 -1 -1 1
2465 822 2 4.0999999999999998e-01 -3.8630768244253311e-01 -5.5987381110364431e+00 -6.0588193342367997e+00 -2 0 1
1175 392 2 4.0999999999999998e-01 -2.2338822524179278e+00 -3.6595159163493669e+00 -6.3979331651971272e+00 -3 -1 0
1452 484 2 4.0999999999999998e-01 -6.8065776693864191e+00 -3.1513766746734024e+00 -8.9270395341645852e+00 -1 -1 1
1174 392 1 -8.1999999999999995e-01 -2.8477029441589057e+00 -4.4394794782477423e+00 -6.5202822234443136e+00 -3 -1 0
2447 816 2 4.0999999999999998e-01 -4.3811111904036064e+00 -4.5036663054286876e+00 -3.4333143102514452e+00 0 0 0
76 26 1 -8.1999999999999995e-01 -4.9979867207290827e+00 -5.7637310418764365e+00 -7.9246008547171103e+00 -4 0 0
1676 559 2 4.0999999999999998e-01 -1.4784763364243574e+00 -1.3923922621508567e+00 -7.5227557566911090e+00 -2 0 0
1598 533 2 4.0999999999999998e-01 -2.4025604595262227e+00 -4.5829686782819401e+00 -8.4923548890876379e+00 0 0 0
1052 351 2 4.0999999999999998e-01 -7.2146444212953265e+00 -6.6283607125130395e+00 -6.2769577295601184e+00 -1 1 0
1051 351 1 -8.1999999999999995e-01 -7.1730810426308649e+00 -7.1711171892090029e+00 -7.1158714377004229e+00 -1 1 0
1677 559 2 4.0999999999999998e-01 -5.1883377810349707e-01 -2.3121260121396716e+00 -6.5740524879008699e+00 -2 0 0
77 26 2 4.0999999999999998e-01 -4.3607945584469689e+00 -5.3863833432808761e+00 -7.2525271614402556e+00 -4 0 0
1431 477 2 4.0999999999999998e-01 -5.8537527367760926e+00 -5.2343926110501311e+00 -5.6989237100588177e+00 -1 0 -1
1535 512 2 4.0999999999999998e-01 -3.9735274991476750e+00 -1.4879805883644792e+00 -7.9334654020041775e+00 -1 0 0
1536 512 2 4.0999999999999998e-01 -3.2258714177088965e+00 -2.0884558872233150e+00 -6.6116100114857002e+00 -1 0 0
1852 618 1 -8.1999999999999995e-01 -6.6363272334213264e+00 -2.7668311664412872e+00 -7.2194566089386267e+00 0 0 0
1534 512 1 -8.1999999999999995e-01 -4.0419987261405019e+00 -1.6156317004979748e+00 -6.9439679801281144e+00 -1 0 0
1430 477 2 4.0999999999999998e-01 -6.8743748726516625e+00 -4.6491979846468841e+00 -4.5663428736471250e+00 -1 0 -1
857 286 2 4.0999999999999998e-01 -2.8373583562570737e-01 -7.1509438197277824e+00 -3.9846713047961710e+00 -2 1 0
1854 618 2 4.0999999999999998e-01 -5.7403494660413141e+00 -2.3809692121452013e+00 -6.9994051333007619e+00 0 0 0
1853 618 2 4.0999999999999998e-01 -6.9976226343650669e+00 -3.2474894761203075e+00 -6.4203812192789886e+00 0 0 0
2446 816 1 -8.1999999999999995e-01 -4.2303372763259635e+00 -4.9417346323329259e+00 -4.3195714170688149e+00 0 0 0
2448 816 2 4.0999999999999998e-01 -3.8843139089195802e+00 -5.8693164572644587e+00 -4.1783338076107306e+00 0 0 0
1053 351 2 4.0999999999999998e-01 -6.3639791626699562e+00 -6.9096897160360307e+00 -7.6422725413487189e+00 -1 1 0
1429 477 1 -8.1999999999999995e-01 -6.7943505609450021e+00 -4.9471914970455959e+00 -5.5175969003173098e+00 -1 0 -1
1176 392 2 4.0999999999999998e-01 -3.2590928244417228e+00 -4.6809777118652303e+00 -5.6413480755723899e+00 -3 -1 0
1675 559 1 -8.1999999999999995e-01 -1.4651589337309670e+00 -2.1103156801988607e+00 -6.8266976419393366e+00 -2 0 0
2464 822 1 -8.1999999999999995e-01 -8.9007825452881839e-01 -6.2734731255106411e+00 -5.5193417162501106e+00 -2 0 1
2466 822 2 4.0999999999999998e-01 -1.8722696819214093e+00 -6.1408714208354933e+00 -5.6527772339990108e+00 -2 0 1