LAMMPS data file via write_data, version 15 May 2015, timestep = 12095000

2611 atoms
6 atom types
1749 bonds
4 bond types
894 angles
3 angle types
44 dihedrals
3 dihedral types
10 impropers
1 improper types

-1.5157595192739640e+01 1.5157595192739640e+01 xlo xhi
-1.5157595192739640e+01 1.5157595192739640e+01 ylo yhi
-1.5157595192739640e+01 1.5157595192739640e+01 zlo zhi

Masses

1 15.9994
2 1.00794
3 12.0107
4 1.00794
5 12.0107
6 12.0107

Bond Coeffs # harmonic

1 1000 1
2 469 1.4
3 367 1.08
4 469 0.7

Angle Coeffs # harmonic

1 100 109.47
2 35 120
3 63 120

Dihedral Coeffs # opls

1 0 7.25 0 0
2 0 7.25 0 0
3 0 7.25 0 0

Improper Coeffs # cvff

1 2.5 -1 2

Atoms # full

1975 659 1 -8.1999999999999995e-01 -1.0229424605419315e+01 -1.2335613706537933e+01 -1.1539712152994541e+01 -4 -1 2
138 46 2 4.0999999999999998e-01 -1.2375351552461588e+01 -1.5040351656709730e+01 -9.8941881861045147e+00 -2 -4 4
1565 522 2 4.0999999999999998e-01 -1.2294645243232264e+01 -8.5485275095780970e+00 -1.3831115930207076e+01 -2 1 0
1977 659 2 4.0999999999999998e-01 -1.0623244973637807e+01 -1.2898382987636365e+01 -1.0812893299086390e+01 -4 -1 2
1976 659 2 4.0999999999999998e-01 -1.0964803158859063e+01 -1.1916157140554692e+01 -1.2072012755716223e+01 -4 -1 2
2362 788 1 -8.1999999999999995e-01 -1.2035662229159470e+01 -1.0318012351700833e+01 -9.0001242105751338e+00 3 0 -1
137 46 2 4.0999999999999998e-01 -1.1891987357712637e+01 -1.3934543402556702e+01 -8.7940251960642328e+00 -2 -4 4
2364 788 2 4.0999999999999998e-01 -1.2645196611739234e+01 -9.9035496179241491e+00 -9.6759628657966701e+00 3 0 -1
2559 853 2 4.0999999999999998e-01 -1.1264168883393221e+01 -8.3665132722748581e+00 -9.7778357291851350e+00 5 -1 5
2363 788 2 4.0999999999999998e-01 -1.2290790840423508e+01 -1.1275307958895443e+01 -8.8638747988765267e+00 3 0 -1
1786 596 1 -8.1999999999999995e-01 -1.1829470094847219e+01 -1.2210631433841627e+01 -1.4435223487124860e+01 -2 0 4
1517 506 2 4.0999999999999998e-01 -1.3427865743753763e+01 -8.5757503764261642e+00 -1.1676838583927138e+01 -1 -2 2
1516 506 1 -8.1999999999999995e-01 -1.3532955267417405e+01 -9.0170156828857895e+00 -1.0785597597119082e+01 -1 -2 2
1518 506 2 4.0999999999999998e-01 -1.4362896683939887e+01 -8.6787199367238053e+00 -1.0341950608916619e+01 -1 -2 2
136 46 1 -8.1999999999999995e-01 -1.1692371613590330e+01 -1.4340147163434079e+01 -9.6860501409568531e+00 -2 -4 4
267 89 2 4.0999999999999998e-01 -1.4101575642727125e+01 -1.2946107981546035e+01 -1.2843274571986868e+01 -2 -1 2
1773 591 2 4.0999999999999998e-01 -9.1719484663638777e+00 -1.4121829772205377e+01 -1.4050052543723131e+01 -3 -1 0
1628 543 2 4.0999999999999998e-01 -1.0355485240650879e+01 -1.0051461984952709e+01 -8.4562280032175074e+00 1 -2 4
1627 543 1 -8.1999999999999995e-01 -9.6830251888894452e+00 -9.8152120458039835e+00 -7.7547632438590854e+00 1 -2 4
265 89 1 -8.1999999999999995e-01 -1.4086030000967284e+01 -1.3943900695887523e+01 -1.2778179045983658e+01 -2 -1 2
266 89 2 4.0999999999999998e-01 -1.3325596654348303e+01 -1.4301497020512480e+01 -1.3320337099045247e+01 -2 -1 2
1023 341 2 4.0999999999999998e-01 -1.0054696138127550e+01 -7.7253494589521274e+00 -1.1567256769738558e+01 1 -2 3
1564 522 1 -8.1999999999999995e-01 -1.2939133290449691e+01 -8.0307689410552996e+00 -1.3268416555621503e+01 -2 1 0
340 114 1 -8.1999999999999995e-01 -1.0387571521298144e+01 -1.5008632351918074e+01 -1.4858555779816855e+01 1 1 2
1021 341 1 -8.1999999999999995e-01 -9.7752211511757388e+00 -7.9692159025273837e+00 -1.2495961389161117e+01 1 -2 3
1787 596 2 4.0999999999999998e-01 -1.1099926558437339e+01 -1.2878767114176281e+01 -1.4288832469080681e+01 -2 0 4
1987 663 1 -8.1999999999999995e-01 -1.5111546997395623e+01 -1.0886526560370342e+01 -1.5081580976321444e+01 3 -3 1
1988 663 2 4.0999999999999998e-01 -1.5126606129561397e+01 -1.0105194333842626e+01 -1.4457591704828939e+01 3 -3 1
659 220 2 4.0999999999999998e-01 -9.7861518205021802e+00 -1.4835433573548478e+01 -9.8091540078110366e+00 -1 2 1
1629 543 2 4.0999999999999998e-01 -9.3446048673599797e+00 -8.8881353532357714e+00 -7.9162248324493278e+00 1 -2 4
2457 819 2 4.0999999999999998e-01 -1.4869936981815325e+01 -8.3887793926384155e+00 -1.3451633702158759e+01 1 1 0
1830 610 2 4.0999999999999998e-01 -9.1857063592060371e+00 -1.4658065736501664e+01 -7.7222589729593611e+00 2 1 -1
746 249 2 4.0999999999999998e-01 -9.4179560923870156e+00 -4.5893527353039740e+00 -1.0060664753146888e+01 -1 0 0
2557 853 1 -8.1999999999999995e-01 -1.0806795161908802e+01 -7.4913246912941673e+00 -9.9357078294305197e+00 5 -1 5
2558 853 2 4.0999999999999998e-01 -1.1075429726590603e+01 -6.8417520742452851e+00 -9.2243989712484407e+00 5 -1 5
1566 522 2 4.0999999999999998e-01 -1.2845352916618342e+01 -7.0550300199735396e+00 -1.3466427317526374e+01 -2 1 0
1582 528 1 -8.1999999999999995e-01 -1.4506888353904316e+01 -1.7930847880857250e+00 -1.1374735388799774e+01 1 -3 3
764 255 2 4.0999999999999998e-01 -1.0253234248493836e+01 -4.7429116475178024e+00 -1.3234555535805443e+01 1 -2 3
75 25 2 4.0999999999999998e-01 -1.4205292929429461e+01 -5.3314730329766729e+00 -1.3429446528556166e+01 -3 0 5
74 25 2 4.0999999999999998e-01 -1.2682705126978655e+01 -4.7428593500364009e+00 -1.3383928283856466e+01 -3 0 5
1796 599 2 4.0999999999999998e-01 -1.2604758812808857e+01 -5.8677509757842419e+00 -1.1192973333912613e+01 1 0 6
251 84 2 4.0999999999999998e-01 -9.1618399707309202e+00 -2.3039895688564069e+00 -1.2973109229098119e+01 0 -3 -2
252 84 2 4.0999999999999998e-01 -1.0671850808968014e+01 -2.5877547283237181e+00 -1.3526422930174956e+01 0 -3 -2
250 84 1 -8.1999999999999995e-01 -9.9888338318967271e+00 -2.8515351814421486e+00 -1.2845264323438812e+01 0 -3 -2
1797 599 2 4.0999999999999998e-01 -1.1541803944520133e+01 -4.6716596036581617e+00 -1.0866930439389773e+01 1 0 6
1795 599 1 -8.1999999999999995e-01 -1.2390268594543402e+01 -4.9026118489397099e+00 -1.1343205794628631e+01 1 0 6
73 25 1 -8.1999999999999995e-01 -1.3321476648678521e+01 -5.3161745471330590e+00 -1.3897104704087488e+01 -3 0 5
2168 723 2 4.0999999999999998e-01 -1.4433642891044276e+01 -3.9305006294651772e+00 -7.8318270961267373e+00 -1 -1 4
745 249 1 -8.1999999999999995e-01 -1.0114279417530639e+01 -3.8869245216363044e+00 -1.0208305845395511e+01 -1 0 0
747 249 2 4.0999999999999998e-01 -9.9576687062833642e+00 -3.4425263270239661e+00 -1.1090378810290773e+01 -1 0 0
1584 528 2 4.0999999999999998e-01 -1.3945594451434086e+01 -2.6025854922152281e+00 -1.1202319876751154e+01 1 -3 3
2263 755 1 -8.1999999999999995e-01 -1.2835712075602393e+01 -4.3279635769870399e+00 -8.2978823858762993e+00 2 1 0
2265 755 2 4.0999999999999998e-01 -1.2297491184446661e+01 -5.1448316289207146e+00 -8.0902427123528184e+00 2 1 0
2264 755 2 4.0999999999999998e-01 -1.2505257945342391e+01 -3.9183107839300444e+00 -9.1482082231440316e+00 2 1 0
763 255 1 -8.1999999999999995e-01 -1.0261479814822486e+01 -5.5197771204215744e+00 -1.3864223218844645e+01 1 -2 3
2579 860 2 4.0999999999999998e-01 -9.4099489319402920e+00 -2.7999216835735883e+00 -9.2227515399102273e+00 0 -1 6
1583 528 2 4.0999999999999998e-01 -1.3958346085348168e+01 -9.6980763227876032e-01 -1.1228497628044170e+01 1 -3 3
765 255 2 4.0999999999999998e-01 -1.0580093915807392e+01 -6.3360654175402527e+00 -1.3382323008927598e+01 1 -2 3
504 168 2 4.0999999999999998e-01 -9.7150218756213285e+00 -2.6794831551660181e-02 -1.0602992538745855e+01 2 5 -1
2072 691 2 4.0999999999999998e-01 -1.0959257517516271e+01 -1.9693957581725208e-01 -7.6677351010857313e+00 -2 3 4
2580 860 2 4.0999999999999998e-01 -9.4272032899568892e+00 -1.3574209418819443e+00 -8.4574376251130090e+00 0 -1 6
1974 658 2 4.0999999999999998e-01 -1.3720541957893097e+01 -1.4414121658626811e+01 -5.0490819904753614e-01 -2 -2 -4
1011 337 2 4.0999999999999998e-01 -1.3391694428483316e+01 -1.2545084115838975e+01 -7.0263227009109119e+00 2 -2 -1
905 302 2 4.0999999999999998e-01 -1.0424621480908744e+01 -1.4456560042963000e+01 -1.6650302265737853e+00 2 2 -1
2336 779 2 4.0999999999999998e-01 -9.7840738173956900e+00 -9.3382854332578589e+00 -5.5895393930501882e+00 2 -1 2
1119 373 2 4.0999999999999998e-01 -1.4152212678229448e+01 -9.0376027833596897e+00 -1.3059249338585968e+00 -3 2 0
1739 580 2 4.0999999999999998e-01 -1.2852805991146649e+01 -7.7383202734565204e+00 -6.1318539854504550e-01 2 2 -2
2010 670 2 4.0999999999999998e-01 -1.4941911600928751e+01 -1.3201878902099777e+01 -1.8384830833443484e+00 1 2 -1
1493 498 2 4.0999999999999998e-01 -1.2221263437839593e+01 -1.1052487106594047e+01 -5.2029227622316334e+00 1 1 1
1972 658 1 -8.1999999999999995e-01 -1.4248935113061346e+01 -1.4750760168678710e+01 -1.2843596284608019e+00 -2 -2 -4
1529 510 2 4.0999999999999998e-01 -9.8612952922666999e+00 -1.2155516770666082e+01 -1.9947617283654679e+00 -2 -1 5
194 65 2 4.0999999999999998e-01 -1.2830773323304507e+01 -8.8999825911161992e+00 -5.6977561123255445e+00 0 -2 1
193 65 1 -8.1999999999999995e-01 -1.3132504977478598e+01 -9.7831224046528966e+00 -6.0570491035843101e+00 0 -2 1
2335 779 1 -8.1999999999999995e-01 -9.2947429978347511e+00 -9.2803482119046006e+00 -4.7193279346570502e+00 2 -1 2
2337 779 2 4.0999999999999998e-01 -9.2843380982526984e+00 -8.3309429025311221e+00 -4.4053364390457865e+00 2 -1 2
195 65 2 4.0999999999999998e-01 -1.2694226328326316e+01 -9.9510510147446176e+00 -6.9401012857379634e+00 0 -2 1
1009 337 1 -8.1999999999999995e-01 -1.2474359642509130e+01 -1.2825807136700151e+01 -7.3087423651472783e+00 2 -2 -1
1010 337 2 4.0999999999999998e-01 -1.1858650636540929e+01 -1.2793347526242822e+01 -6.5213935590938306e+00 2 -2 -1
2091 697 2 4.0999999999999998e-01 -1.1669739918208414e+01 -1.3289265965710563e+01 -4.6110367858522476e+00 1 0 4
1530 510 2 4.0999999999999998e-01 -1.1315782205308516e+01 -1.2366635240282955e+01 -1.2829273128201528e+00 -2 -1 5
1528 510 1 -8.1999999999999995e-01 -1.0531825875951366e+01 -1.2833140202808341e+01 -1.6926283701176832e+00 -2 -1 5
1494 498 2 4.0999999999999998e-01 -1.0790123041280424e+01 -1.1639014116162709e+01 -5.7269787128491316e+00 1 1 1
1492 498 1 -8.1999999999999995e-01 -1.1510994401655898e+01 -1.1737568578019022e+01 -5.0409023023519932e+00 1 1 1
2089 697 1 -8.1999999999999995e-01 -1.1643050929680401e+01 -1.4278187355951719e+01 -4.4647780774407675e+00 1 0 4
1325 442 2 4.0999999999999998e-01 -9.2496766061129172e+00 -7.6197994914373028e+00 -2.7448886841539046e+00 -3 -3 1
1117 373 1 -8.1999999999999995e-01 -1.3623993901802315e+01 -9.1595896874798370e+00 -4.6558364448733336e-01 -3 2 0
2090 697 2 4.0999999999999998e-01 -1.1234825212438940e+01 -1.4472310352516780e+01 -3.5727369260904904e+00 1 0 4
2000 667 2 4.0999999999999998e-01 -1.4803981140460460e+01 -1.4917548670860024e+01 -5.6743328670306799e+00 -2 -4 -1
2027 676 2 4.0999999999999998e-01 -1.4422826349733832e+01 -4.8674897494357108e+00 -4.7395538415621825e+00 -1 1 1
2452 818 1 -8.1999999999999995e-01 -1.2080207925485640e+01 -7.4465203261914059e+00 -4.9356946785958016e+00 0 -2 -1
2520 840 2 4.0999999999999998e-01 -1.0051173473033558e+01 -6.4608784251332896e+00 -7.5462190749371212e+00 3 3 1
1738 580 1 -8.1999999999999995e-01 -1.2277296094288666e+01 -6.9345341767365749e+00 -7.6413465117746426e-01 2 2 -2
1503 501 2 4.0999999999999998e-01 -1.2221194820252588e+01 -1.0092893636933233e+00 -1.6479741623600503e+00 2 -2 -3
723 241 2 4.0999999999999998e-01 -9.4584772633506340e+00 -1.6728505202484634e+00 -3.5703216251333973e+00 -3 3 0
2028 676 2 4.0999999999999998e-01 -1.5089102955502320e+01 -5.9735486302840624e+00 -5.7393141513483403e+00 -1 1 1
2284 762 1 -8.1999999999999995e-01 -9.1553098774972401e+00 -2.7998986890194999e-01 -4.6231014867360543e-01 1 1 2
1663 555 1 -8.1999999999999995e-01 -1.4990093239484269e+01 -2.3987925671613652e-01 -7.1852695178829302e+00 -5 5 2
2286 762 2 4.0999999999999998e-01 -9.9185273563774317e+00 -8.7922037694847432e-01 -7.0415980755542584e-01 1 1 2
1351 451 1 -8.1999999999999995e-01 -1.1421556469733170e+01 -1.0221768421405990e+00 -6.2577306138786088e+00 -2 -1 -2
1572 524 2 4.0999999999999998e-01 -1.4192081906676759e+01 -1.4165126281597669e+00 -6.3477335831352555e+00 -3 2 -2
909 303 2 4.0999999999999998e-01 -1.5023683812123446e+01 -4.0340322294953541e+00 -1.9325948417913317e+00 3 4 0
2519 840 2 4.0999999999999998e-01 -1.1215528085655995e+01 -6.5622674368853104e+00 -6.4056883896157224e+00 3 3 1
1570 524 1 -8.1999999999999995e-01 -1.3837805081081747e+01 -2.1909180681318627e+00 -5.8234688676875077e+00 -3 2 -2
1326 442 2 4.0999999999999998e-01 -1.0695247844140194e+01 -7.0168757867007727e+00 -2.2827001825557449e+00 -3 -3 1
2026 676 1 -8.1999999999999995e-01 -1.4249065779390618e+01 -5.6948182173401634e+00 -5.2737862029686600e+00 -1 1 1
2469 823 2 4.0999999999999998e-01 -1.3398519063025367e+01 -5.7678751920334808e+00 -1.4583382571706700e+00 -2 -2 6
1324 442 1 -8.1999999999999995e-01 -1.0117727414031117e+01 -7.2422466112654149e+00 -3.0673959869416567e+00 -3 -3 1
81 27 2 4.0999999999999998e-01 -1.2410547442946289e+01 -3.8052390191859846e+00 -5.3495929228877674e+00 -2 -1 0
1501 501 1 -8.1999999999999995e-01 -1.1603955791683971e+01 -1.6636291144102966e+00 -1.2110247165626298e+00 2 -2 -3
1353 451 2 4.0999999999999998e-01 -1.0903490581131434e+01 -1.0611539720718230e+00 -5.4032378369284473e+00 -2 -1 -2
2468 823 2 4.0999999999999998e-01 -1.4702775384516890e+01 -6.4178976242252368e+00 -2.1953577493436338e+00 -2 -2 6
908 303 2 4.0999999999999998e-01 -1.5095939622655221e+01 -2.5478770438625720e+00 -1.2595916441671644e+00 3 4 0
945 315 2 4.0999999999999998e-01 -1.0048546947868589e+01 -3.9411862979790104e+00 -2.0410194771785886e+00 4 -7 1
721 241 1 -8.1999999999999995e-01 -9.5960148549708180e+00 -8.9646694990573650e-01 -4.1854487114055186e+00 -3 3 0
2467 823 1 -8.1999999999999995e-01 -1.4364909700526196e+01 -5.6323114959357099e+00 -1.6769268795677625e+00 -2 -2 6
80 27 2 4.0999999999999998e-01 -1.1064662521900512e+01 -4.5397214601118865e+00 -5.9116790328084488e+00 -2 -1 0
79 27 1 -8.1999999999999995e-01 -1.1699027980834860e+01 -4.4763448658524840e+00 -5.1412030359730476e+00 -2 -1 0
944 315 2 4.0999999999999998e-01 -1.0332012944845626e+01 -3.6709572172015967e+00 -3.6264010321110867e+00 4 -7 1
2453 818 2 4.0999999999999998e-01 -1.2818572627342220e+01 -6.7722936303627872e+00 -4.9531674617194010e+00 0 -2 -1
943 315 1 -8.1999999999999995e-01 -1.0178675155227324e+01 -3.2366765775161817e+00 -2.7387314950407937e+00 4 -7 1
1571 524 2 4.0999999999999998e-01 -1.4540611716358690e+01 -2.5136635397573670e+00 -5.1894597611583571e+00 -3 2 -2
2518 840 1 -8.1999999999999995e-01 -1.0987732731142199e+01 -6.2016219040365979e+00 -7.3101846981773377e+00 3 3 1
1352 451 2 4.0999999999999998e-01 -1.2245086570298126e+01 -1.5833174247352115e+00 -6.1741314922913748e+00 -2 -1 -2
2454 818 2 4.0999999999999998e-01 -1.1478219982031568e+01 -7.2615326688882229e+00 -4.1588681603246727e+00 0 -2 -1
1502 501 2 4.0999999999999998e-01 -1.1067162166328654e+01 -2.1343150731894553e+00 -1.9112937342766969e+00 2 -2 -3
1118 373 2 4.0999999999999998e-01 -1.4240566062703362e+01 -9.1398563786581164e+00 3.2151149172064386e-01 -3 2 0
2414 805 2 4.0999999999999998e-01 -1.1093087337019069e+01 -1.1429601192506862e+01 3.8574984418545757e+00 -3 -4 -1
1890 630 2 4.0999999999999998e-01 -1.2602862971012589e+01 -1.4022034614397525e+01 4.4471476188079446e+00 0 1 0
111 37 2 4.0999999999999998e-01 -9.8798321200126367e+00 -9.8653375460153754e+00 6.1250886253661267e+00 -1 0 -2
109 37 1 -8.1999999999999995e-01 -1.0228337300041407e+01 -9.2625602979061910e+00 6.8429138759436423e+00 -1 0 -2
110 37 2 4.0999999999999998e-01 -1.1223133037900453e+01 -9.3492464523379226e+00 6.8971016115587691e+00 -1 0 -2
1888 630 1 -8.1999999999999995e-01 -1.1862295172699548e+01 -1.4683814721782907e+01 4.5640910478505123e+00 0 1 0
1906 636 1 -8.1999999999999995e-01 -1.3116126485425958e+01 -8.8288202081535054e+00 7.1473044261752552e+00 -3 1 -1
1889 630 2 4.0999999999999998e-01 -1.1203138192123207e+01 -1.4332385851784160e+01 5.2289814160455830e+00 0 1 0
1357 453 1 -8.1999999999999995e-01 -9.9051626255834027e+00 -1.1420396921609667e+01 5.1417830731727978e+00 1 0 -1
1907 636 2 4.0999999999999998e-01 -1.3378078151076735e+01 -9.7918637905957979e+00 7.2105322033759247e+00 -3 1 -1
1908 636 2 4.0999999999999998e-01 -1.2748713346808744e+01 -8.6424562132443992e+00 6.2360715199017509e+00 -3 1 -1
2413 805 1 -8.1999999999999995e-01 -1.1874478141346415e+01 -1.1290090413924954e+01 3.2491938027256868e+00 -3 -4 -1
2555 852 2 4.0999999999999998e-01 -1.4546930613915197e+01 -1.3563305850915059e+01 5.3577839450115814e+00 3 3 -1
294 98 2 4.0999999999999998e-01 -1.1845629105814883e+01 -1.1025240806861259e+01 1.4081932318246917e+00 0 1 -1
1046 349 2 4.0999999999999998e-01 -1.4580084660561891e+01 -1.3124033886886053e+01 3.0969365190667499e+00 -1 0 1
1092 364 2 4.0999999999999998e-01 -1.3881190721795413e+01 -1.2168313226443388e+01 7.3826726530685978e+00 -3 -1 4
2415 805 2 4.0999999999999998e-01 -1.2424411122707770e+01 -1.0524531564418108e+01 3.5832039695991700e+00 -3 -4 -1
1950 650 2 4.0999999999999998e-01 -1.2427208735597217e+01 -1.4396198287922006e+01 1.5041524807643665e+00 -1 -1 1
1024 342 1 -8.1999999999999995e-01 -1.3221404156727809e+01 -8.8059212471803239e+00 3.5398074522376692e+00 1 -2 3
1045 349 1 -8.1999999999999995e-01 -1.4700182340418745e+01 -1.3851059717536335e+01 3.7730129571736786e+00 -1 0 1
1025 342 2 4.0999999999999998e-01 -1.3888441750913010e+01 -8.7697380634761544e+00 2.7956159579285060e+00 1 -2 3
1026 342 2 4.0999999999999998e-01 -1.3081019462030200e+01 -7.8862380500358045e+00 3.9066102796592457e+00 1 -2 3
292 98 1 -8.1999999999999995e-01 -1.2025914498618032e+01 -1.1166398962526184e+01 4.3472470750170089e-01 0 1 -1
2554 852 1 -8.1999999999999995e-01 -1.4705355721684942e+01 -1.3254219941753513e+01 6.2955668494768968e+00 3 3 -1
1359 453 2 4.0999999999999998e-01 -9.3530247969098266e+00 -1.1701661890094780e+01 4.3568606536118484e+00 1 0 -1
1314 438 2 4.0999999999999998e-01 -9.8106465214075946e+00 -1.0957719633400306e+01 2.3793066750545933e-01 1 -1 -1
1358 453 2 4.0999999999999998e-01 -9.7046668051621836e+00 -1.2014900430347458e+01 5.9205233235796921e+00 1 0 -1
1509 503 2 4.0999999999999998e-01 -9.7409649875297966e+00 -7.9135600228632690e+00 1.7068521896347928e+00 1 -1 -1
1949 650 2 4.0999999999999998e-01 -1.2684541857928467e+01 -1.2965305736361314e+01 7.6042028911194492e-01 -1 -1 1
1948 650 1 -8.1999999999999995e-01 -1.3011899171809622e+01 -1.3905156759138126e+01 8.5833155642439074e-01 -1 -1 1
840 280 2 4.0999999999999998e-01 -1.5134770550036444e+01 -1.4826961371469279e+01 7.2240241344831357e+00 2 -3 1
1047 349 2 4.0999999999999998e-01 -1.4908898453720475e+01 -1.4709994200457096e+01 3.3053179606222809e+00 -1 0 1
1403 468 2 4.0999999999999998e-01 -1.4659811500679345e+01 -7.9855626678538796e+00 6.5343030844267300e+00 -2 0 1
345 115 2 4.0999999999999998e-01 -9.3324437922287125e+00 -1.4175050206794470e+01 6.9456461359455854e+00 1 2 1
343 115 1 -8.1999999999999995e-01 -9.0992810815177325e+00 -1.3208357691250376e+01 7.0515239947566304e+00 1 2 1
293 98 2 4.0999999999999998e-01 -1.2665955935649848e+01 -1.0470063378833100e+01 1.0986602544461732e-01 0 1 -1
9 3 2 4.0999999999999998e-01 -9.9367616410676760e+00 -7.4187484842455476e+00 6.4718146299887476e+00 -2 2 1
2022 674 2 4.0999999999999998e-01 -1.3545664905999525e+01 -5.9328959303163860e+00 5.5537151270528309e+00 -1 -3 -2
215 72 2 4.0999999999999998e-01 -1.0293013600615726e+01 -3.5986609805443166e+00 6.9309843967602536e+00 -1 -3 2
2021 674 2 4.0999999999999998e-01 -1.2056703136963849e+01 -5.9342734492768532e+00 4.8830420113498594e+00 -1 -3 -2
8 3 2 4.0999999999999998e-01 -1.0053233685318578e+01 -5.9247076632393068e+00 5.8229019284436898e+00 -2 2 1
7 3 1 -8.1999999999999995e-01 -9.6916038649763294e+00 -6.4563198199166720e+00 6.5888534611187541e+00 -2 2 1
2234 745 2 4.0999999999999998e-01 -1.0566301279241104e+01 -6.2518605825815783e+00 3.2649829867482492e+00 -1 -1 4
2210 737 2 4.0999999999999998e-01 -1.4037898092957120e+01 -1.9672352950057768e+00 1.4153210592029435e+00 -1 -3 0
2235 745 2 4.0999999999999998e-01 -1.0555081182355803e+01 -4.6807165721722477e+00 3.7101707310137773e+00 -1 -1 4
2233 745 1 -8.1999999999999995e-01 -1.0560667432843371e+01 -5.6236936763468872e+00 4.0430857777844498e+00 -1 -1 4
1077 359 2 4.0999999999999998e-01 -1.3586935695752334e+01 -1.4259987400725844e+00 3.7129877565847575e+00 0 -3 -1
329 110 2 4.0999999999999998e-01 -1.1769478446076270e+01 -2.7784814457654399e+00 2.5076141346801055e+00 1 1 2
330 110 2 4.0999999999999998e-01 -1.0184950313704583e+01 -2.6941087131324117e+00 2.8935717909518335e+00 1 1 2
2211 737 2 4.0999999999999998e-01 -1.2476092772806204e+01 -1.5831829570036522e+00 1.1323378864247449e+00 -1 -3 0
328 110 1 -8.1999999999999995e-01 -1.1025447717680230e+01 -3.2243441877754790e+00 3.0053028576302463e+00 1 1 2
1076 359 2 4.0999999999999998e-01 -1.2634846708934194e+01 -2.7843802158481168e-01 4.3789024389607381e+00 0 -3 -1
1075 359 1 -8.1999999999999995e-01 -1.3492781056905454e+01 -7.8348215689915435e-01 4.4734985686623627e+00 0 -3 -1
2307 769 2 4.0999999999999998e-01 -1.4331948538789351e+01 -4.0547169044064937e+00 6.7869820432816628e+00 1 0 0
2305 769 1 -8.1999999999999995e-01 -1.4643933760821229e+01 -4.8871807777149279e+00 6.3290099073457551e+00 1 0 0
1507 503 1 -8.1999999999999995e-01 -1.0286223152037103e+01 -7.2499378550555384e+00 1.1946329975847672e+00 1 -1 -1
214 72 1 -8.1999999999999995e-01 -1.1227199796727211e+01 -3.8766027561994925e+00 7.1548456716875624e+00 -1 -3 2
2020 674 1 -8.1999999999999995e-01 -1.2899024988910739e+01 -6.4599676847346164e+00 5.0022429622118150e+00 -1 -3 -2
2209 737 1 -8.1999999999999995e-01 -1.3146563121176676e+01 -1.8073934867797217e+00 1.8396345517398434e+00 -1 -3 0
2252 751 2 4.0999999999999998e-01 -1.4536933077895702e+01 -3.8979256007455128e+00 3.5897686719877928e+00 0 2 -1
1452 484 2 4.0999999999999998e-01 -1.3530152930473150e+01 -1.7076747166460216e+00 6.2166798026275618e+00 -2 -3 7
1508 503 2 4.0999999999999998e-01 -9.6787670241474260e+00 -6.6537803969361562e+00 6.6959710075876622e-01 1 -1 -1
832 278 1 -8.1999999999999995e-01 -1.0026025081905967e+01 -2.3175855674004708e-01 6.5522938723589963e+00 5 -4 2
1451 484 2 4.0999999999999998e-01 -1.2481882373937705e+01 -2.7213118514006940e+00 6.9518534377474221e+00 -2 -3 7
1450 484 1 -8.1999999999999995e-01 -1.3386109861818447e+01 -2.2982581961371622e+00 7.0107403910498167e+00 -2 -3 7
216 72 2 4.0999999999999998e-01 -1.1217581031982824e+01 -4.8009523917044366e+00 7.5363618321015888e+00 -1 -3 2
741 247 2 4.0999999999999998e-01 -9.5505269372579704e+00 -1.9562926141678858e+00 7.0065171154515493e+00 -4 -3 3
1740 580 2 4.0999999999999998e-01 -1.1728705514868782e+01 -6.7590884659993780e+00 5.3383890817668700e-02 2 2 -2
1014 338 2 4.0999999999999998e-01 -1.4631408841195277e+01 -1.4673379503644114e+01 1.1656907699857788e+01 1 -2 -7
341 114 2 4.0999999999999998e-01 -1.1245528205496335e+01 -1.4986770534930479e+01 1.4943310390494814e+01 1 1 1
1110 370 2 4.0999999999999998e-01 -1.1596764343980432e+01 -1.4922619476649972e+01 9.4078804388234882e+00 0 -4 3
515 172 2 4.0999999999999998e-01 -1.4684868933002228e+01 -1.1933784984057102e+01 1.1288994319695279e+01 1 -1 -5
572 191 2 4.0999999999999998e-01 -1.1169299446657595e+01 -1.4880119726806653e+01 1.1670660388459547e+01 -3 3 2
571 191 1 -8.1999999999999995e-01 -1.1183441573900360e+01 -1.4924534801119345e+01 1.2669608161233425e+01 -3 3 2
1108 370 1 -8.1999999999999995e-01 -1.1158449730309142e+01 -1.4286778540519402e+01 1.0043219704374243e+01 0 -4 3
1090 364 1 -8.1999999999999995e-01 -1.3331808577871319e+01 -1.1515997562791782e+01 7.9049110616846026e+00 -3 -1 4
1989 663 2 4.0999999999999998e-01 -1.4744166720365712e+01 -1.0599515939347867e+01 1.4348891335143266e+01 3 -3 0
516 172 2 4.0999999999999998e-01 -1.4674790370284233e+01 -1.0390786232282865e+01 1.0754330960909853e+01 1 -1 -5
344 115 2 4.0999999999999998e-01 -9.5694537690721528e+00 -1.2837872533493115e+01 7.8526155989524806e+00 1 2 1
2171 724 2 4.0999999999999998e-01 -1.2851970809021164e+01 -1.0496086443915935e+01 1.2474548394149233e+01 3 -1 -1
2170 724 1 -8.1999999999999995e-01 -1.3374232304291766e+01 -9.9518699370167205e+00 1.3131161486319476e+01 3 -1 -1
135 45 2 4.0999999999999998e-01 -1.4117088634275694e+01 -1.2482147079524548e+01 1.4030934216535696e+01 -6 -5 2
1298 433 2 4.0999999999999998e-01 -1.0348846721569274e+01 -1.0988845494334816e+01 9.0068756667441416e+00 2 0 0
1299 433 2 4.0999999999999998e-01 -1.1679450154458669e+01 -1.1825921481100519e+01 8.5645977826177226e+00 2 0 0
1109 370 2 4.0999999999999998e-01 -1.0930039913331528e+01 -1.3439957484020402e+01 9.5628110696898663e+00 0 -4 3
115 39 1 -8.1999999999999995e-01 -1.1621203587387210e+01 -1.1738042063709775e+01 1.2143048294167356e+01 -1 1 -1
1091 364 2 4.0999999999999998e-01 -1.3762416580384009e+01 -1.1353057199325811e+01 8.7926591064572168e+00 -3 -1 4
116 39 2 4.0999999999999998e-01 -1.1506751283114481e+01 -1.2247275414555363e+01 1.1290023421883417e+01 -1 1 -1
514 172 1 -8.1999999999999995e-01 -1.4418608257995055e+01 -1.1332394271074600e+01 1.0535665779088470e+01 1 -1 -5
853 285 1 -8.1999999999999995e-01 -1.4696985546301734e+01 -8.5729391705555145e+00 1.0945520717341411e+01 2 -2 4
117 39 2 4.0999999999999998e-01 -1.2142276138141732e+01 -1.2290492488411644e+01 1.2793702882408331e+01 -1 1 -1
134 45 2 4.0999999999999998e-01 -1.3910054356036380e+01 -1.4084260418854285e+01 1.3791808512858745e+01 -6 -5 2
133 45 1 -8.1999999999999995e-01 -1.3457663109820889e+01 -1.3192431787423036e+01 1.3784513901513501e+01 -6 -5 2
1925 642 2 4.0999999999999998e-01 -9.9717186408867242e+00 -1.1118041630754341e+01 1.2872340194668856e+01 0 0 -1
1050 350 2 4.0999999999999998e-01 -9.3763734838044428e+00 -7.8039899509175390e+00 1.2454364956776404e+01 -1 0 -1
855 285 2 4.0999999999999998e-01 -1.4191374952782676e+01 -7.7551315365073981e+00 1.0670533499334605e+01 2 -2 4
1297 433 1 -8.1999999999999995e-01 -1.0738319185539963e+01 -1.1902960216997142e+01 8.8938498367401042e+00 2 0 0
941 314 2 4.0999999999999998e-01 -9.2212462252068015e+00 -8.8890072850165982e+00 8.5461220553352870e+00 -1 -2 0
2172 724 2 4.0999999999999998e-01 -1.3780056596997602e+01 -9.1659208180851302e+00 1.2664621038143119e+01 3 -1 -1
918 306 2 4.0999999999999998e-01 -1.2060191837574893e+01 -9.4688719030090560e+00 1.4153860204291901e+01 2 -2 -2
916 306 1 -8.1999999999999995e-01 -1.1229784425282009e+01 -9.5848093710394782e+00 1.4698884434323942e+01 2 -2 -2
2097 699 2 4.0999999999999998e-01 -9.1410345081034876e+00 -1.4291216411490126e+01 1.3461159716611542e+01 1 4 4
1145 382 2 4.0999999999999998e-01 -9.4042025061445660e+00 -1.4940489401926405e+01 1.1192134559030118e+01 0 3 -3
917 306 2 4.0999999999999998e-01 -1.1168599500576008e+01 -1.0531281352502932e+01 1.5015927908567047e+01 2 -2 -2
1788 596 2 4.0999999999999998e-01 -1.2343936178553289e+01 -1.2453665754671526e+01 1.5057575015845726e+01 -2 0 3
424 142 1 -8.1999999999999995e-01 -9.1077006607082680e+00 -4.9072620805031413e+00 1.4038657712627634e+01 2 -1 1
1709 570 2 4.0999999999999998e-01 -1.0880062448568495e+01 -2.3001420846741532e+00 1.0199518754697882e+01 1 -1 -2
1096 366 1 -8.1999999999999995e-01 -1.1403311381234131e+01 -1.0234521958555369e+00 1.4992484795143559e+01 0 -2 0
2117 706 2 4.0999999999999998e-01 -1.2495578611046060e+01 -7.1804806943272084e+00 8.5146214710183461e+00 -2 5 2
1060 354 1 -8.1999999999999995e-01 -1.3901038456921782e+01 -1.3897880565817271e+00 9.5319431713645297e+00 -5 0 4
1710 570 2 4.0999999999999998e-01 -9.4490044351426175e+00 -2.2127416382150518e+00 1.0981340692626864e+01 1 -1 -2
1171 391 1 -8.1999999999999995e-01 -1.0821612213869923e+01 -5.7443689270069758e+00 1.1110882628361933e+01 -3 3 -1
1708 570 1 -8.1999999999999995e-01 -9.8865594500236078e+00 -2.3326746117587351e+00 1.0090144280971481e+01 1 -1 -2
1172 391 2 4.0999999999999998e-01 -9.8461645240219404e+00 -5.6106442831112737e+00 1.0935700159402211e+01 -3 3 -1
1654 552 1 -8.1999999999999995e-01 -1.3309279118044861e+01 -3.1193845216918454e+00 1.4169382931080287e+01 -3 1 2
426 142 2 4.0999999999999998e-01 -9.6467403978170516e+00 -4.9782340507642573e+00 1.4877983933827638e+01 2 -1 1
1115 372 2 4.0999999999999998e-01 -1.2270835562971847e+01 -6.4968916582702239e+00 1.3919289803524537e+01 0 0 -1
1062 354 2 4.0999999999999998e-01 -1.3466374442029410e+01 -2.0808755424249519e+00 1.0109467852116348e+01 -5 0 4
1097 366 2 4.0999999999999998e-01 -1.1048700659709997e+01 -6.9348347750050188e-01 1.4117589777248005e+01 0 -2 0
1479 493 2 4.0999999999999998e-01 -1.2560929815933351e+01 -4.2246104851772035e+00 1.1832408668835265e+01 3 2 0
2118 706 2 4.0999999999999998e-01 -1.3061833505176285e+01 -5.6597345937115264e+00 8.6976463339985326e+00 -2 5 2
315 105 2 4.0999999999999998e-01 -1.4189784126651073e+01 -5.8823101374183899e+00 1.2902678814262485e+01 -5 0 -1
1116 372 2 4.0999999999999998e-01 -1.1928018439736883e+01 -6.3374337349704426e+00 1.2330623354247235e+01 0 0 -1
1478 493 2 4.0999999999999998e-01 -1.3818041912755550e+01 -4.0157265787042569e+00 1.0811209325555362e+01 3 2 0
1656 552 2 4.0999999999999998e-01 -1.3524479384336498e+01 -3.0365194558262605e+00 1.3196299387922695e+01 -3 1 2
1477 493 1 -8.1999999999999995e-01 -1.3094090999973206e+01 -3.5507254657182781e+00 1.1320854682450411e+01 3 2 0
1114 372 1 -8.1999999999999995e-01 -1.2629333587323913e+01 -6.6038534928793986e+00 1.2991869892122255e+01 0 0 -1
740 247 2 4.0999999999999998e-01 -9.3389044000481505e+00 -2.2505400058733382e+00 8.5988254855695150e+00 -4 -3 3
2116 706 1 -8.1999999999999995e-01 -1.2251013021043295e+01 -6.2419355377015027e+00 8.7583221267117022e+00 -2 5 2
1173 391 2 4.0999999999999998e-01 -1.1288143100225483e+01 -5.9583471001774271e+00 1.0252610155814173e+01 -3 3 -1
1061 354 2 4.0999999999999998e-01 -1.3854053848619595e+01 -1.6773463733824361e+00 8.5752968752432519e+00 -5 0 4
1098 366 2 4.0999999999999998e-01 -1.1981138569858038e+01 -1.8247230174310332e+00 1.4837081437360547e+01 0 -2 0
1655 552 2 4.0999999999999998e-01 -1.4136362647954087e+01 -3.3677001561221171e+00 1.4673705784657114e+01 -3 1 2
313 105 1 -8.1999999999999995e-01 -1.5084360980122812e+01 -5.4466542872177559e+00 1.3002706759040271e+01 -5 0 -1