2611
Atoms. Timestep: 12090000
O -6.29006 -13.1156 -0.386991
H -6.20437 -13.8477 -1.06282
H -5.48712 -12.5215 -0.435549
O 8.22191 -14.4998 3.87929
H 7.27575 -14.2377 4.06948
H 8.37462 -14.5031 2.891
O -11.4219 -7.72444 4.97153
H -11.8275 -7.79156 4.05992
H -11.4437 -8.62151 5.41293
O -7.73948 6.90736 -0.41221
H -8.44912 6.22687 -0.229514
H -8.10923 7.62402 -1.00357
O 2.8934 -15.088 -11.5938
H 2.49708 -14.6165 -12.3816
H 3.3253 14.2557 -11.8964
O -7.3921 13.9822 9.27086
H -6.81141 14.5575 9.84691
H -8.05385 13.4978 9.84312
O -4.42417 -9.73216 -10.6583
H -5.2532 -10.1001 -11.0795
H -3.90746 -9.212 -11.3384
O 1.99599 -9.8338 -3.78307
H 1.5661 -9.38454 -2.99987
H 1.43773 -10.613 -4.06813
O -1.76333 11.2742 -10.7826
H -1.55481 12.1842 -11.1409
H -2.4163 11.354 -10.0295
O 8.16303 8.98864 -15.0344
H 7.70412 8.11322 15.007
H 8.95806 8.85013 -14.4438
O -0.468506 2.44799 -10.927
H -0.00839433 1.74688 -10.3822
H -0.344947 2.24906 -11.8992
O 3.55245 5.82719 5.3967
H 4.11465 6.0856 4.61108
H 2.63876 5.56948 5.08237
O -9.49745 8.55904 -6.56886
H -10.2146 7.86824 -6.47653
H -9.74147 9.36666 -6.03199
O 7.40153 -6.7969 9.43856
H 8.17221 -7.10335 8.87983
H 7.5054 -5.82389 9.64473
O -6.84908 3.19301 -2.54328
H -6.47221 2.44881 -3.0948
H -6.1567 3.51182 -1.89597
O -3.45215 -10.0637 -14.9955
H -3.30135 -9.68796 -14.0811
H -3.91025 -9.38111 14.6283
O 7.45564 14.3537 -11.3758
H 8.40304 14.158 -11.6291
H 7.00545 14.8437 -12.1223
O 13.0823 2.581 -8.20698
H 12.8319 2.77192 -9.15613
H 13.3393 1.61874 -8.11713
O 5.39612 8.88655 -1.99506
H 4.85674 9.40539 -2.65833
H 6.31699 9.27248 -1.93949
O -2.44364 -11.6164 -11.2118
H -3.27996 -11.0689 -11.1832
H -1.93149 -11.3995 -12.0429
O 11.6708 12.2488 -4.13473
H 12.6265 12.5306 -4.04891
H 11.5738 11.6331 -4.91679
O -6.83777 14.0239 -4.79888
H -7.15338 14.8024 -5.34143
H -7.53704 13.7808 -4.12661
O -3.80161 8.40399 8.79421
H -3.82523 8.76366 9.72702
H -3.00644 8.77451 8.31415
O 7.79811 -14.7964 0.782422
H 8.56732 14.7623 0.707011
H 7.09783 15.0026 1.37754
O -13.1847 -3.68487 -13.3459
H -13.9731 -4.2774 -13.5114
H -13.3866 -2.76205 -13.6741
O 6.37834 -0.130033 -4.9345
H 6.82945 0.63295 -5.39753
H 5.41668 0.0959967 -4.77908
O -9.54911 -3.19991 -3.77552
H -9.30065 -3.44218 -4.7134
H -10.3998 -2.67416 -3.78128
O -8.55455 4.22076 3.75745
H -8.62166 3.34263 3.28373
H -7.81477 4.76054 3.3557
O 3.94673 -0.906999 12.8648
H 4.31649 0.00422611 13.0464
H 4.44771 -1.58365 13.4044
O 11.4104 4.10471 -14.7579
H 11.9744 3.28276 -14.8371
H 10.7475 4.12745 14.687
O 1.71094 3.70699 -13.8347
H 2.4819 3.97921 -13.2588
H 0.907364 4.25197 -13.5953
O 7.8984 1.97934 -5.7127
H 8.20114 2.70446 -5.09417
H 8.48806 1.96228 -6.5202
O -0.99209 7.11241 11.7005
H -1.56183 7.93207 11.7605
H -0.736346 6.95333 10.7469
O -3.81432 -8.57169 6.19355
H -3.37171 -9.05929 6.94613
H -3.38481 -8.83262 5.32898
O -3.53533 -7.79993 -7.29341
H -2.58392 -7.63188 -7.55151
H -4.10638 -7.0447 -7.61523
O 6.10388 -11.3362 -13.7424
H 5.38561 -11.2753 -14.4355
H 6.18799 -12.2831 -13.4319
O -11.576 -10.3647 5.90622
H -12.5637 -10.3432 6.06077
H -11.1324 -10.8601 6.65309
O -5.58173 -10.4942 11.6762
H -5.1725 -9.80545 11.0778
H -5.99133 -10.0449 12.4702
O -12.2101 -10.7949 12.8359
H -12.8687 -10.4177 12.1848
H -12.6894 -11.3677 13.501
O 13.7399 6.90525 8.85508
H 13.749 7.30398 9.77213
H 14.1797 6.0074 8.87764
O 10.8219 -13.1761 -9.24917
H 9.9047 -13.1117 -8.85593
H 11.503 -13.0968 -8.52125
O -14.7253 4.60926 9.65363
H -13.9492 4.96459 10.1747
H 14.8417 4.13351 10.2712
O 11.6478 -4.67069 14.9574
H 11.2702 -5.37834 14.3602
H 11.3889 -4.86077 -14.2888
O -3.8921 -1.04428 10.8805
H -4.75034 -1.22693 10.4008
H -3.39636 -1.90227 11.0151
O -13.5813 -13.1224 14.872
H -13.891 -13.6347 14.0709
H -14.3552 -12.6333 -14.9189
O -11.2911 15.0179 -10.5424
H -11.7933 -14.4411 -10.0857
H -11.74 14.1432 -10.3596
O -0.848661 -8.56534 8.52577
H -0.0419295 -8.8089 9.0642
H -1.33587 -9.39733 8.26032
O 12.5029 13.6929 -10.7424
H 12.2554 13.0971 -9.97828
H 13.3781 14.1364 -10.5493
O -9.80058 2.95709 -5.36568
H -9.44556 3.51629 -4.61648
H -9.24521 2.13047 -5.45678
O -7.72019 4.65755 10.252
H -6.83265 4.89847 10.6448
H -7.79244 3.66299 10.1767
O -11.9246 2.36124 8.42799
H -11.737 3.24891 8.00739
H -11.5434 2.3432 9.35236
O -7.13596 -6.13158 4.43224
H -8.04075 -5.875 4.09229
H -6.83094 -5.46017 5.10768
O -11.8163 6.54507 -13.058
H -11.3421 7.15561 -12.4237
H -11.8867 6.98433 -13.9536
O 5.97335 -3.8592 9.80243
H 6.38072 -4.32066 10.5906
H 5.28646 -3.20444 10.1179
O 11.8586 12.7142 2.78799
H 10.8742 12.7841 2.95002
H 12.0433 11.9351 2.18891
O -11.0125 12.6805 -2.96814
H -10.9893 12.5609 -3.96071
H -11.2517 13.6271 -2.75198
O 13.431 0.266509 2.64518
H 12.9959 -0.46304 3.17293
H 13.6117 1.04781 3.24263
O 5.69176 -8.04926 -9.36499
H 5.55403 -9.00216 -9.63531
H 4.98992 -7.78578 -8.70314
O 11.5345 0.640721 -0.175022
H 11.8876 -0.294889 -0.175267
H 10.6666 0.669593 -0.67104
O 2.72924 10.7198 -7.54723
H 3.47728 10.1363 -7.23097
H 3.1042 11.5633 -7.93181
O -4.44138 6.27685 13.3552
H -4.15301 6.3357 14.3109
H -5.29313 6.78617 13.2321
O 5.15333 -10.0784 0.441968
H 5.56472 -10.6266 -0.286275
H 5.41631 -9.12047 0.327177
O 14.9132 14.81 -9.90017
H -14.9232 14.1573 -9.23185
H 15.0855 -14.4515 -9.58085
O 7.29133 5.97481 6.39661
H 8.22662 5.87943 6.05576
H 6.78686 5.12814 6.22722
O -14.0265 -10.5874 -7.11032
H -13.3386 -10.2829 -6.45143
H -13.9355 -11.5726 -7.25584
O 1.67633 10.8725 -13.3099
H 1.95545 10.0641 -13.8281
H 1.24516 10.5872 -12.4539
O 0.0535769 -9.74829 13.5394
H -0.515494 -10.5704 13.521
H -0.514747 -8.95426 13.7551
O -13.9347 12.2917 13.8052
H -14.9094 12.119 13.6634
H -13.8195 13.0014 14.5002
O -5.44317 6.30663 -6.91218
H -4.81093 6.12239 -6.1596
H -6.35376 6.49469 -6.54407
O -6.23888 2.3078 11.3793
H -7.16735 1.93646 11.3691
H -5.83729 2.22648 10.4671
O -3.02646 3.22896 -13.0129
H -3.4153 2.52729 -13.61
H -2.04595 3.31218 -13.191
O -12.7429 -2.93112 6.87622
H -11.8512 -2.52117 7.06814
H -12.7904 -3.83746 7.29614
O -5.02499 -11.3097 3.47906
H -4.35796 -11.7849 2.90527
H -5.09609 -10.3558 3.18726
O 7.31157 -9.371 -6.14417
H 7.75134 -10.2603 -6.01824
H 6.31824 -9.48425 -6.12192
O 12.0888 -14.3219 -0.0136117
H 12.6106 -14.2592 -0.864433
H 11.4791 -13.533 0.0624015
O 9.02562 -10.7677 3.06214
H 8.22559 -11.0322 2.52359
H 9.70862 -10.3514 2.46197
O 12.2363 10.8746 1.01313
H 13.1846 10.5577 1.03465
H 11.6289 10.0977 0.847712
O 12.9052 -10.4646 4.50068
H 12.9668 -9.57586 4.04639
H 12.595 -11.1532 3.8452
O 3.23676 14.7784 14.5968
H 2.62823 14.3394 13.9357
H 3.66793 -14.6175 14.1747
O 7.89537 -1.34532 9.78648
H 7.5989 -1.45751 10.7349
H 7.12845 -1.01889 9.23392
O -5.80626 14.7543 -14.3778
H -5.44133 13.886 -14.7137
H -6.77339 14.8262 -14.6218
O 10.0886 5.91669 -10.6486
H 9.11731 6.14897 -10.5967
H 10.2444 5.30666 -11.4256
O -5.4102 12.8994 2.49602
H -4.73969 12.209 2.76762
H -5.53484 13.5544 3.24137
O -11.2935 -3.34518 -11.3791
H -10.5196 -3.0866 -11.9572
H -12.1025 -3.4883 -11.9494
O -1.2697 8.98158 -14.5885
H -2.0345 8.98475 -13.9442
H -1.31574 8.15978 15.0369
O 11.0652 -13.2829 -11.9565
H 10.8401 -14.202 -12.2799
H 11.1127 -13.2832 -10.9576
O 3.02422 1.41712 -11.2299
H 3.30505 1.32655 -10.2744
H 2.53911 2.28273 -11.3541
O 2.77599 7.20791 -4.2592
H 3.5612 6.87522 -3.7369
H 2.12208 6.46254 -4.3891
O -13.2708 13.9149 -13.6638
H -14.0869 14.4496 -13.8832
H -12.5304 14.5315 -13.3962
O 4.67893 8.82308 14.6789
H 4.49336 7.84269 14.6122
H 4.93048 9.05146 -14.5739
O 11.9454 -7.45934 10.925
H 12.4774 -6.61274 10.9393
H 12.1696 -7.98013 10.1013
O 4.63521 -12.3239 -6.99557
H 5.12448 -13.0653 -6.5363
H 4.17007 -12.6826 -7.8049
O 7.27206 -8.69553 11.2621
H 7.13487 -7.97949 10.5776
H 7.07457 -9.58756 10.8555
O -6.82173 -4.12271 8.8374
H -7.5314 -4.64354 9.3119
H -6.73815 -4.45312 7.89725
O -10.2871 4.3498 -13.3613
H -9.64954 4.18693 -12.6083
H -10.6527 5.27816 -13.2936
O -2.5747 0.138866 -10.3885
H -2.03061 0.960394 -10.2179
H -2.24748 -0.60468 -9.8053
O 1.18035 -12.2067 8.83309
H 1.31902 -12.5966 9.74344
H 0.928697 -12.9334 8.19393
O -10.9123 -11.2602 0.179324
H -11.4307 -10.4055 0.150258
H -11.535 -12.0218 0.358571
O 8.84232 1.03643 -14.274
H 9.41924 1.06706 -15.0903
H 9.33942 0.588033 -13.5312
O -8.79587 1.96658 10.2627
H -9.61435 2.48329 10.514
H -9.0523 1.02838 10.0302
O -1.50615 -14.8844 0.940108
H -1.38698 14.7979 0.0888464
H -1.47038 14.6782 1.71534
O 8.68475 2.90422 -9.1712
H 9.23573 3.32878 -9.88968
H 8.88148 1.92439 -9.13539
O 4.80256 2.90047 8.8292
H 5.54033 2.54694 8.25409
H 4.36581 3.67535 8.37217
O 1.84561 8.00501 9.81545
H 0.986049 7.54559 9.59155
H 1.66511 8.96596 10.0253
O -14.774 -4.86143 12.5962
H -14.7453 -5.71215 13.121
H -14.8264 -4.08437 13.2234
O -3.97303 11.2525 -8.53459
H -4.18351 10.3096 -8.2763
H -3.7429 11.7788 -7.71605
O -14.0857 7.36727 0.355426
H -15.0793 7.45795 0.287398
H -13.744 7.97395 1.07321
O -1.17539 -1.31486 -8.5831
H -1.51052 -1.77832 -7.76277
H -0.538302 -0.590388 -8.31986
O 3.96994 13.1181 -8.31219
H 4.96607 13.055 -8.37364
H 3.71665 13.986 -7.88492
O -13.241 -5.58493 4.87217
H -12.9376 -4.70928 5.24799
H -12.63 -6.31186 5.18574
O 7.39621 7.2306 12.1776
H 7.04638 6.96822 11.2783
H 7.0807 6.57385 12.8626
O 3.94044 3.91333 11.2031
H 3.08496 3.39575 11.1853
H 4.4289 3.7797 10.3408
O 12.7747 1.33012 8.6405
H 13.2707 1.37961 7.7736
H 12.4993 2.24998 8.91997
O -8.46633 14.6121 -14.7301
H -8.9427 14.4525 14.5986
H -9.07679 14.3954 -13.9682
O -9.97329 -11.6742 7.88245
H -10.3385 -11.4761 8.79207
H -9.7114 -12.6379 7.83105
O -8.08931 -3.4576 2.0856
H -7.91308 -2.74411 2.76378
H -8.88276 -3.99695 2.3677
O -3.92537 5.26636 -4.87177
H -3.94483 4.26679 -4.89467
H -4.55136 5.59582 -4.16492
O 11.9162 -11.4843 -5.6556
H 11.3508 -12.0762 -5.0811
H 11.3432 -10.7793 -6.07344
O 13.1289 -1.0593 12.9307
H 13.7728 -1.64507 13.423
H 13.6337 -0.355242 12.4311
O -3.85759 -11.8635 10.0263
H -4.63396 -11.8769 9.39609
H -4.18636 -11.7025 10.9568
O -1.56636 -8.24039 1.12441
H -1.29279 -7.78054 1.96924
H -2.53112 -8.05256 0.940029
O -5.39555 11.6615 -10.9779
H -4.98768 11.485 -10.0821
H -5.17201 12.592 -11.2684
O 1.675 -9.08174 9.23395
H 1.56353 -10.0465 8.99561
H 2.61561 -8.79861 9.04649
O -6.57773 3.06091 -6.8542
H -6.09489 3.17282 -5.98564
H -6.53004 3.91367 -7.37435
O -10.5606 -10.7504 -13.2724
H -10.266 -10.6952 -14.2265
H -10.0643 -11.4866 -12.8123
O 4.0836 -1.84968 10.1908
H 3.13451 -2.03046 9.93281
H 4.10315 -1.24553 10.9875
O -11.9758 10.6005 14.6762
H -11.0213 10.8679 14.544
H -12.5738 11.3556 14.4072
O -7.17231 9.6675 -11.1216
H -6.44287 10.3244 -10.9309
H -7.82355 9.66288 -10.3627
O 10.8431 7.55495 -1.4528
H 10.5485 6.94019 -2.18444
H 10.922 8.48538 -1.81074
O 3.71694 12.1188 9.39213
H 3.68378 12.1017 8.39281
H 4.09762 11.2571 9.7278
O 6.74237 -14.2451 -1.87959
H 5.77741 -14.4783 -1.75908
H 7.19173 -14.2138 -0.986764
O 10.4506 -6.40766 -8.90134
H 9.92263 -7.10854 -8.42171
H 11.4019 -6.43867 -8.59449
O -2.25494 13.9015 -1.27787
H -3.09683 13.5397 -0.877417
H -2.48314 14.5611 -1.99405
O 4.16279 13.8246 4.43913
H 4.52438 14.6862 4.79542
H 3.19316 13.9349 4.22077
O 3.94162 4.65046 -0.874217
H 4.50978 4.14589 -0.22411
H 3.74169 5.55893 -0.507115
O 3.58841 -6.22135 -12.331
H 3.39923 -6.8122 -11.5467
H 4.22654 -5.50091 -12.0594
O -7.78704 -8.01716 -7.83157
H -7.95628 -7.89443 -6.85364
H -7.63048 -7.12587 -8.25717
O 4.61647 2.15936 -14.5321
H 4.29449 2.98222 -14.0638
H 4.63812 1.3956 -13.8869
O 10.0495 14.2011 0.161981
H 10.7526 14.9121 0.153163
H 10.0494 13.7215 -0.715569
O 0.258518 -7.34046 6.06144
H 0.0401411 -7.66917 6.9803
H 0.800885 -8.0297 5.581
O 11.1259 4.54998 1.92093
H 11.4792 4.1886 1.058
H 11.1132 3.82228 2.60674
O -8.16203 -5.35904 11.2228
H -8.34888 -5.70402 12.1426
H -8.32297 -6.08593 10.5551
O -3.59298 11.3396 -0.789269
H -3.31247 11.3025 -1.74842
H -3.56033 10.4205 -0.39661
O 13.2877 14.7395 2.09859
H 12.6116 14.1256 2.50614
H 12.9419 15.0838 1.22573
O 9.67042 -12.6301 5.55433
H 9.18433 -13.3899 5.12245
H 10.1343 -12.0893 4.85264
O 3.86287 6.62061 10.7223
H 3.59212 5.77475 11.1819
H 3.04634 7.14607 10.4831
O 9.58753 -1.92724 -7.3099
H 9.44211 -2.51819 -6.51638
H 9.9956 -1.0641 -7.01239
O 5.3073 -11.9418 -4.14613
H 4.87283 -11.4681 -4.9122
H 5.37641 -11.3202 -3.36582
O -8.59508 10.57 -8.89213
H -8.74538 10.0217 -8.06945
H -8.14851 11.4294 -8.64296
O 6.14334 -4.0149 3.56808
H 6.01822 -3.72074 2.62053
H 6.7619 -4.80022 3.59439
O 12.5701 -5.35779 -1.46169
H 12.4289 -4.52387 -0.928143
H 13.5488 -5.55519 -1.51884
O 6.84102 8.62551 5.48048
H 7.1051 7.76138 5.90894
H 6.47531 9.24425 6.1758
O 0.542754 4.21943 8.76696
H 0.336976 3.51895 9.45035
H 0.99072 3.79564 7.9797
O 3.79702 -13.9872 -0.600369
H 3.49127 -13.3786 -1.33259
H 3.36536 -14.8827 -0.709213
O 7.86838 -6.17596 -2.32804
H 7.70411 -7.14366 -2.51937
H 8.27195 -5.74088 -3.13295
O 14.2455 3.26284 11.8443
H 14.221 2.30064 11.573
H 14.9833 3.40437 12.5043
O 14.6326 10.7059 9.60183
H -14.5697 10.6505 9.47954
H 14.3407 10.0226 10.2711
O -0.262317 6.67594 8.79471
H -0.00654924 5.70992 8.83257
H -0.998179 6.80007 8.12902
O 12.0811 4.85969 11.5022
H 12.0916 4.5898 10.5393
H 12.8958 4.50077 11.9578
O 7.74902 9.02258 -9.80522
H 7.75366 9.69009 -10.5498
H 8.35899 8.26385 -10.0339
O -3.10972 -8.28462 -12.8931
H -3.71969 -7.49821 -12.7954
H -2.16853 -7.96487 -13.0025
O 5.68721 -11.1414 -10.2507
H 5.49995 -11.5819 -11.1288
H 4.83138 -11.0259 -9.74652
O 10.4972 -11.9682 -14.5719
H 10.6782 -12.5511 -13.7797
H 11.3024 -11.4071 -14.7638
O -11.267 6.5548 -9.84554
H -10.6535 7.28044 -10.1571
H -11.8397 6.25245 -10.6076
O 8.42831 10.8499 0.947854
H 9.05305 10.0692 0.965691
H 8.95584 11.6993 0.961026
O -4.60176 12.6458 -5.59092
H -3.77707 13.1949 -5.45512
H -5.39853 13.1549 -5.26535
O -12.2883 -0.367858 2.82178
H -12.2288 0.584808 3.11998
H -11.7009 -0.504814 2.02417
O -10.2887 -0.349202 -10.6128
H -10.1746 0.380745 -9.93888
H -10.7157 -1.14152 -10.177
O 12.2396 -15.0799 -3.70925
H 13.024 -14.9655 -3.0995
H 12.5407 14.6904 -4.56388
O 10.6336 -5.47656 -12.9758
H 10.1242 -6.06581 -13.603
H 10.0063 -5.08552 -12.3023
O -0.592428 11.6099 -14.8291
H -0.613098 10.6197 -14.6903
H 0.123524 12.0116 -14.2581
O -14.6561 -10.6073 10.7582
H 14.7823 -11.1929 11.0537
H -14.8775 -9.65257 10.9569
O -7.27735 -11.028 6.86452
H -7.48512 -11.4756 5.99473
H -8.07548 -11.0794 7.46484
O -2.88652 -12.4922 -7.71154
H -3.71684 -11.9436 -7.80963
H -2.74155 -13.029 -8.54274
O -12.7661 5.90852 11.0464
H -11.8114 5.64206 11.1794
H -12.9034 6.8382 11.3883
O 2.45299 -1.59371 -10.9977
H 2.60771 -0.675442 -10.6332
H 2.10482 -1.52684 -11.9328
O -14.9276 -7.06207 1.56088
H 14.3627 -7.39389 1.28777
H -15.0145 -6.14876 1.95882
O 0.489675 -4.98713 8.08409
H 0.0906735 -5.56224 7.36988
H 1.31142 -5.42725 8.44612
O -14.7606 12.8879 2.40904
H 14.9117 13.7138 2.19306
H 14.9668 12.0902 2.02609
O 10.3329 12.2707 -14.7022
H 11.1114 11.8895 14.9924
H 9.48167 11.9582 15.0695
O -1.52613 -3.27368 8.59478
H -1.74729 -3.47258 9.54954
H -0.802917 -3.89077 8.28462
O -2.07377 14.844 14.2908
H -1.25111 14.624 14.8151
H -2.65449 -14.7343 14.8243
O -6.8678 -9.67528 13.9433
H -6.4853 -9.99971 14.8084
H -7.5949 -9.01389 14.1275
O -10.8946 14.9605 0.639276
H -10.3625 -14.8965 -0.137752
H -10.969 13.9647 0.58636
O 8.38319 4.79317 10.0592
H 7.83438 5.61419 9.9018
H 8.13249 4.38819 10.9385
O 7.5299 3.34133 -1.06174
H 7.47907 4.32342 -1.24328
H 6.9001 3.10618 -0.321404
O 7.36416 -4.90726 11.875
H 8.21314 -5.43489 11.8455
H 7.57592 -3.944 12.0404
O -6.1573 11.9173 7.75123
H -6.55758 12.7844 8.04778
H -5.36161 12.0979 7.17306
O -11.3192 4.82285 3.62541
H -10.322 4.76217 3.5807
H -11.6297 5.60818 3.0898
O 2.16046 -8.0925 -9.4696
H 2.3214 -7.11226 -9.35445
H 1.39011 -8.233 -10.0916
O -10.8326 14.1221 14.0138
H -10.9159 14.7801 13.2654
H -11.205 13.24 13.725
O 2.22694 11.6743 1.64512
H 1.58854 11.9554 0.928569
H 3.15153 11.9673 1.40152
O -0.344109 -6.73885 -13.0985
H -1.13393 -6.16653 -12.8779
H 0.219984 -6.27851 -13.7841
O 12.9193 12.3389 10.8521
H 12.8697 13.2967 10.5689
H 13.3362 11.7968 10.1225
O 7.6925 13.9201 -4.87469
H 8.05326 13.5449 -4.02082
H 8.44769 14.1 -5.50506
O -12.072 8.36027 11.8836
H -12.0609 9.26623 12.3068
H -11.582 7.71335 12.4679
O 3.89601 -13.809 -9.12794
H 3.44704 -14.011 -9.99839
H 4.73158 -14.3529 -9.04982
O 4.98704 -7.51337 8.36644
H 4.94041 -8.48085 8.61514
H 5.93376 -7.19782 8.43118
O -11.897 11.1376 8.10101
H -12.2018 12.0791 8.24487
H -11.14 11.1285 7.44764
O 10.1551 -9.58555 -7.13717
H 10.2285 -9.47759 -8.12863
H 9.20012 -9.74859 -6.88937
O -5.01355 -4.98308 11.8352
H -5.54953 -5.18672 11.0159
H -5.48365 -5.34601 12.6398
O -10.1185 5.55559 11.7781
H -9.45972 5.45961 11.0318
H -9.7133 5.21442 12.6263
O 14.4966 -5.48677 -14.3976
H 13.7448 -5.01717 -14.8605
H 14.1441 -5.97283 -13.598
O 12.1807 1.24914 -14.693
H 11.476 1.09602 14.8075
H 12.0522 0.60521 -13.9388
O 8.28193 5.31953 0.698571
H 8.03487 5.8969 -0.0796613
H 9.25542 5.09557 0.651678
O -11.3969 10.3184 -1.96951
H -12.375 10.1891 -1.80593
H -11.2532 11.169 -2.47542
O -8.74063 4.79036 6.7331
H -9.61351 4.46315 7.0951
H -8.58874 4.3995 5.82525
O -5.31138 12.2939 14.697
H -4.94003 11.3785 14.5416
H -6.13299 12.4192 14.1409
O 10.1206 -7.69914 -4.89484
H 10.2383 -8.06267 -5.81898
H 9.41898 -6.98666 -4.90377
O 5.42742 -2.82057 14.1073
H 6.30055 -2.75556 13.6242
H 5.445 -3.60842 14.723
O 9.58443 13.7738 -2.82837
H 10.3938 13.5475 -3.37036
H 9.68362 14.6939 -2.44938
O -6.92039 -4.55868 -3.6074
H -7.74011 -4.03209 -3.38198
H -6.3696 -4.6873 -2.7827
O -13.5927 3.15971 -11.4914
H -14.4301 3.70179 -11.421
H -13.3374 3.06415 -12.4536
O -0.917837 13.3756 4.96759
H -1.43448 13.8349 4.24502
H -1.48626 13.2993 5.7868
O 7.37615 4.0899 12.5454
H 6.48042 4.06488 12.1015
H 7.33959 3.57066 13.3993
O 14.5834 1.54607 -2.64856
H 14.3453 1.06528 -1.80464
H 14.1422 2.44346 -2.65676
O 10.593 14.3078 -12.515
H 10.551 13.8159 -13.3846
H 11.359 13.962 -11.973
O -6.45947 9.89986 -1.31834
H -6.91687 9.72737 -2.19074
H -6.79761 10.7564 -0.928318
O 14.974 0.683285 5.00503
H 15.0512 -0.0663262 4.34763
H 15.0284 1.5572 4.52195
O -7.45198 14.6682 -8.57417
H -7.91204 14.1939 -9.3248
H -6.52028 14.9042 -8.8503
O 6.07996 -9.97981 13.3972
H 6.80899 -10.173 12.7405
H 6.17561 -10.5835 14.1886
O -2.84349 -12.5648 1.91195
H -2.09867 -11.9045 1.81585
H -2.50908 -13.4797 1.68578
O -6.36316 13.5858 5.05083
H -7.15722 14.1931 5.07498
H -6.66929 12.6416 4.92879
O 4.79697 -4.97503 -0.0663164
H 3.88098 -4.79628 0.292915
H 5.41459 -4.24064 0.215202
O 13.0731 -8.08601 3.57244
H 13.7085 -7.55705 4.13505
H 13.0308 -7.68981 2.65522
O 10.3235 -0.165498 11.0272
H 11.0816 -0.721952 10.6871
H 9.69172 0.0311697 10.2774
O 7.7635 -2.33739 12.5857
H 7.47095 -1.39358 12.7395
H 8.75695 -2.3984 12.6824
O -5.12006 0.113849 13.084
H -4.786 -0.529241 12.3949
H -5.89246 0.629035 12.7125
O -0.0991218 4.92993 -8.96976
H 0.211658 4.20979 -9.59012
H 0.693248 5.4047 -8.58663
O -14.5573 -7.20951 13.6878
H 14.8345 -7.72887 13.3914
H -14.7133 -6.85248 14.6088
O -2.46203 6.18134 7.14034
H -3.18329 6.78998 7.47106
H -2.1584 6.48435 6.23699
O 10.9297 -1.94791 1.08625
H 10.8892 -1.07271 1.56836
H 11.8705 -2.28674 1.08892
O -7.23576 -5.67396 -13.8184
H -7.78426 -6.50545 -13.7301
H -7.6978 -4.91887 -13.3532
O 12.525 10.0269 14.6028
H 11.949 9.36021 15.0759
H 13.4565 9.67052 14.5302
O 4.35104 5.93695 14.5084
H 3.60242 5.35992 14.8349
H 4.25855 6.07662 13.5225
O 3.42 -14.198 -4.15272
H 4.21219 -13.6418 -3.90131
H 3.02298 -13.8482 -5.00128
O -4.64329 -10.5061 -8.1592
H -4.2787 -9.70749 -7.68035
H -4.63144 -10.3379 -9.1449
O 13.2474 -8.48858 13.5467
H 12.7961 -9.00522 14.2743
H 12.6754 -8.49869 12.7265
O 8.79235 -5.19698 6.80408
H 9.42442 -4.51092 7.16442
H 8.88776 -6.04476 7.32581
O 4.2763 10.2965 12.4987
H 4.56983 9.84635 13.3421
H 3.48386 9.81608 12.1229
O -8.38931 -1.55697 -2.01738
H -8.83495 -2.14169 -2.69528
H -7.40378 -1.7263 -2.02751
O 13.0455 -1.42785 -3.15629
H 13.8106 -1.78858 -2.623
H 12.6632 -2.15592 -3.72539
O -11.983 2.39514 -3.57303
H -11.2329 2.55704 -4.21424
H -12.74 1.94994 -4.05125
O 2.846 -6.4815 13.869
H 3.83679 -6.471 13.7338
H 2.39174 -6.64177 12.9926
O 9.65912 4.03526 4.88742
H 9.84192 4.79734 5.5086
H 8.88067 4.2618 4.30198
O -0.469753 -0.152084 14.0836
H -1.18877 -0.843298 14.0109
H 0.238655 -0.335063 13.4019
O -10.3527 -1.06572 7.38099
H -10.8515 -0.835408 8.21662
H -10.3966 -0.296223 6.74383
O 8.8561 -8.08327 0.457016
H 9.1462 -7.13003 0.54194
H 7.94109 -8.18917 0.846341
O -9.0388 -5.14587 -10.6636
H -9.33128 -5.72552 -9.90299
H -9.76562 -4.49604 -10.8861
O 4.66631 8.63647 -6.52446
H 5.07251 8.04409 -7.22025
H 4.54767 8.12098 -5.67579
O 4.49713 4.35913 -12.6286
H 4.00929 5.17596 -12.3207
H 4.80186 3.83356 -11.8343
O -3.94784 1.10975 -14.4355
H -3.55839 0.200131 -14.2907
H -4.4145 1.1357 14.8738
O 1.56917 -0.0865049 -7.7221
H 1.03394 0.678699 -7.36427
H 1.42663 -0.891275 -7.14584
O 12.5913 7.95867 -4.91469
H 13.0872 7.11366 -5.11487
H 12.7446 8.61755 -5.65119
O -9.00076 -7.85175 -13.8671
H -9.93389 -7.97527 -13.5294
H -8.35389 -8.231 -13.2054
O 6.02205 11.0634 -7.11514
H 5.59407 11.6249 -6.40694
H 5.77005 10.1053 -6.97845
O -10.2407 8.25273 -11.6394
H -10.5533 9.16919 -11.8892
H -9.30142 8.12281 -11.957
O -10.1844 -8.44448 2.1174
H -11.1665 -8.59546 2.23003
H -9.69424 -8.84886 2.88961
O 8.97231 3.07981 -3.35862
H 9.95806 3.24806 -3.36471
H 8.62901 3.14396 -2.42157
O -14.4558 5.97264 -14.3578
H -13.7397 5.95512 -13.66
H -14.183 5.39865 15.0634
O 13.7831 5.49176 2.36286
H 14.0399 6.37283 2.76012
H 13.2452 5.64407 1.53372
O -1.81698 7.30366 4.69059
H -1.99935 8.13971 5.20809
H -1.94404 7.4813 3.71471
O -11.2676 7.33607 -0.669888
H -12.2093 7.0254 -0.540803
H -11.2695 8.22272 -1.13236
O 10.8722 0.310826 -3.66331
H 11.7041 -0.207737 -3.4656
H 11.0824 1.28851 -3.66906
O 7.1798 6.04457 15.0206
H 7.646 5.17172 -15.0284
H 6.19157 5.89401 14.9927
O 2.16251 4.12721 -10.8502
H 1.82011 5.02658 -11.1221
H 2.64105 4.20325 -9.97542
O 1.70461 9.39237 -2.98596
H 1.83071 8.60584 -3.59053
H 2.59705 9.77301 -2.74367
O -4.2778 -5.26742 -14.9292
H -3.66066 -5.19377 -14.1457
H -4.68721 -4.3744 15.0772
O -10.1715 13.626 -12.578
H -10.8576 12.9058 -12.6811
H -10.4064 14.2004 -11.7938
O 3.23595 1.95038 -5.85765
H 2.8455 2.84646 -5.6464
H 2.5248 1.35768 -6.23582
O 9.07864 -4.95433 -10.9356
H 9.39196 -5.35989 -10.0768
H 8.13629 -5.23765 -11.1137
O 9.26461 1.71528 6.37403
H 9.32428 2.47394 5.72526
H 9.15767 2.0765 7.30038
O -2.82069 -1.18399 -13.0205
H -2.56054 -0.673799 -12.2007
H -3.77118 -1.48389 -12.9388
O 12.2157 -12.1113 2.43812
H 12.8939 -12.6473 1.93545
H 11.7368 -11.5023 1.80576
O 14.8716 9.9536 1.92755
H -14.3661 9.89211 2.21564
H 14.3123 9.35149 2.49735
O 0.75294 -12.0714 -7.42915
H 0.557414 -13.0437 -7.55757
H 1.55243 -11.8175 -7.97355
O -3.69106 7.80461 -10.3444
H -4.05751 7.58837 -9.43942
H -4.30724 7.44902 -11.0472
O -10.647 1.34816 5.73758
H -10.9669 1.91348 6.49789
H -11.1511 1.58871 4.90813
O -8.23024 -13.7028 1.96013
H -8.88403 -14.0543 1.29002
H -7.88631 -12.8144 1.656
O 15.0151 -14.7235 9.20249
H 14.1831 -14.8845 9.73337
H 14.8927 -15.0775 8.2753
O 9.08647 13.1337 3.28702
H 8.49234 12.3433 3.43642
H 8.72759 13.9202 3.78968
O 8.29932 -0.861215 -2.74795
H 9.06965 -0.290279 -3.03196
H 7.62838 -0.907919 -3.48802
O 9.54546 -2.00992 4.39556
H 8.7868 -1.723 4.9805
H 10.2176 -2.50923 4.94235
O -11.3448 10.512 -9.27281
H -10.3643 10.6733 -9.38504
H -11.5246 10.1836 -8.34551
O -14.8199 -7.73265 10.7977
H -15.0563 -6.87876 11.2614
H -14.7369 -7.56643 9.81508
O 1.18316 3.90923 12.8072
H 1.64651 3.29962 12.1639
H 0.340278 3.47705 13.1278
O 7.1857 5.93212 -11.1745
H 6.70134 6.08016 -12.0367
H 6.66845 5.29108 -10.6074
O 6.59075 2.85885 6.57834
H 7.36979 2.25816 6.3986
H 6.13247 3.07722 5.71675
O 14.8269 1.37325 14.3777
H 13.8297 1.35871 14.4514
H -14.9658 0.955483 -15.0001
O 14.3668 8.38793 11.4921
H 14.8924 8.21237 12.3245
H 13.4283 8.06548 11.6163
O -3.60553 8.91976 -4.34664
H -2.80862 8.37272 -4.0903
H -3.49549 9.85153 -4.00062
O -1.24493 10.324 3.82081
H -0.503656 10.7155 4.36603
H -0.898336 9.54586 3.29699
O 8.74865 -2.60163 -0.363761
H 8.54009 -1.88874 -1.03334
H 9.43745 -2.26474 0.278196
O -5.4068 5.52547 -9.56612
H -5.52663 5.70022 -8.5888
H -4.48236 5.18226 -9.73246
O 1.56652 -13.033 -13.1407
H 1.90096 -12.6138 -13.9848
H 0.784787 -13.6213 -13.3477
O -9.2738 -14.3971 7.55944
H -8.84289 -14.3344 6.65921
H -8.70131 -14.9496 8.16525
O -8.91159 8.65902 -2.39572
H -8.48575 8.87978 -3.2732
H -9.67058 9.28766 -2.22603
O 5.33306 12.6064 13.5665
H 4.91561 11.7863 13.1749
H 4.63576 13.3144 13.6784
O -5.12929 4.49142 -0.6089
H -4.99736 5.48206 -0.573424
H -5.74911 4.21123 0.124151
O 12.6364 12.7173 5.33291
H 13.5832 12.5426 5.06246
H 12.0604 12.7667 4.51695
O 3.0798 -10.8991 6.4375
H 3.23416 -10.7674 7.4167
H 3.22328 -11.8609 6.2039
O -11.4617 -14.6072 -2.41638
H -12.2219 -14.8313 -1.80661
H -11.3668 -13.6137 -2.47972
O -14.8649 -2.40009 -1.48867
H -13.917 -2.32117 -1.18018
H -15.0553 -3.34872 -1.74141
O 9.6446 -14.048 8.10495
H 10.0273 -14.9472 7.89294
H 9.66824 -13.4742 7.28624
O 7.60094 -14.7359 9.74292
H 6.96114 14.8198 9.31378
H 8.36003 -14.5541 9.1178
O -13.341 -12.0185 -12.2492
H -13.5921 -12.5562 -11.4443
H -12.6231 -12.4943 -12.7573
O -7.01156 -7.83016 -1.74794
H -6.49885 -8.56761 -1.30824
H -7.12383 -8.03587 -2.72012
O 6.99133 -11.387 -1.99846
H 7.74073 -11.2371 -1.35348
H 6.88666 -12.3673 -2.16587
O -14.9299 -0.878493 -13.5537
H 14.6584 -0.957164 -12.7613
H -14.0563 -0.484418 -13.2682
O -7.10268 -8.24094 -4.77293
H -6.27167 -7.68464 -4.7749
H -6.91926 -9.11572 -5.22144
O 9.54999 -2.88496 -4.54656
H 9.23095 -2.21543 -3.87575
H 10.5422 -2.98474 -4.47196
O 10.3191 11.2791 11.0464
H 11.2926 11.5017 10.9925
H 9.81406 12.0725 11.3862
O 3.63834 -13.6478 6.28407
H 2.66841 -13.5998 6.52274
H 4.11983 -14.2092 6.95717
O -10.2816 -10.8343 10.5692
H -10.8599 -11.1751 11.3104
H -10.2729 -9.83443 10.5859
O -10.995 -4.65587 -1.18602
H -11.2428 -5.54216 -0.794731
H -10.028 -4.47217 -1.00929
O 8.50912 -11.6669 -4.91113
H 7.77749 -11.7942 -4.2414
H 9.33224 -12.1419 -4.59994
O 1.55888 -0.522231 11.7522
H 1.68423 -0.691916 10.7747
H 2.37874 -0.808597 12.2481
O -6.62925 -1.70993 6.3978
H -7.03765 -0.917106 5.94538
H -6.89857 -1.71954 7.36082
O 12.8021 12.3368 -1.22329
H 12.1981 12.1809 -2.00487
H 12.3881 11.9494 -0.399559
O -6.06702 -8.49145 7.77154
H -6.62392 -9.31749 7.68456
H -5.47351 -8.40381 6.97148
O -5.86469 5.91339 -12.4556
H -6.34176 5.17475 -12.9319
H -5.91093 5.75821 -11.4688
O -6.07575 6.1607 7.54294
H -5.40183 6.35472 8.25584
H -6.89358 5.76122 7.9572
O -4.14305 -7.84212 13.3501
H -4.6863 -7.06584 13.6699
H -4.64588 -8.32915 12.6359
O -13.8959 9.159 -9.80078
H -13.2873 9.93617 -9.96106
H -14.7663 9.31536 -10.2677
O 0.0513095 11.5435 -0.343831
H -0.908574 11.8237 -0.332712
H 0.107164 10.5451 -0.335001
O -1.95518 6.86206 -4.00173
H -2.10833 6.83685 -3.01383
H -2.63065 6.28322 -4.45861
O 12.5195 3.63387 -10.7148
H 11.7257 3.89243 -11.2653
H 13.3482 4.01399 -11.1257
O 10.0313 -4.83616 3.48802
H 10.739 -4.55747 4.13723
H 9.50198 -4.0353 3.20779
O -4.80544 -15.0733 -9.04075
H -4.68314 14.7198 -9.94898
H -4.99533 -14.0955 -9.13019
O 1.16957 -2.34687 -6.3407
H 0.249921 -2.48775 -5.97403
H 1.39411 -3.08935 -6.97185
O -3.70938 5.92705 -14.1621
H -4.58443 5.96069 -13.6792
H -3.1784 5.14502 -13.8357
O -9.54227 0.957421 -13.4132
H -8.79506 1.61724 -13.4929
H -9.75776 0.812958 -12.4474
O 6.33724 -7.45706 -13.7526
H 7.12414 -8.07329 -13.786
H 6.10744 -7.15942 -14.6792
O -11.4322 2.74576 -1.00337
H -11.5718 2.68695 -1.99186
H -12.2864 2.52505 -0.532449
O -13.5521 1.28301 -7.71266
H -13.3855 1.64778 -6.79656
H -12.9572 1.74666 -8.36928
O 3.79538 -1.47075 -14.0448
H 4.30725 -2.12334 -14.6035
H 2.82633 -1.51154 -14.2883
O -13.1827 -13.304 -6.56905
H -13.9021 -13.5374 -5.9148
H -12.2891 -13.4038 -6.13152
O -14.4813 -13.8533 12.3831
H 14.8414 -14.3243 12.2408
H -14.5735 -12.8943 12.115
O 5.4813 2.78362 -7.02531
H 4.6468 2.57858 -6.51384
H 6.26464 2.77149 -6.4038
O -5.63504 -14.5768 10.5267
H -5.06541 15.0545 11.1264
H -5.16942 -14.4458 9.65144
O -11.1835 -8.64997 -11.5387
H -10.98 -9.55493 -11.9125
H -11.2877 -8.71496 -10.5463
O 12.8539 -9.21104 7.08812
H 13.2847 -9.82212 7.7522
H 12.8089 -9.66461 6.19801
O 13.5635 12.3082 13.3106
H 13.0519 11.5325 13.6804
H 13.2742 12.4795 12.3687
O -13.8062 4.74181 13.3203
H -13.7396 5.18658 12.4271
H -12.8973 4.44521 13.6135
O 9.06226 12.8693 -9.27195
H 8.11046 12.703 -9.52981
H 9.64708 12.7758 -10.0777
O 9.92698 14.2762 -6.96212
H 9.76837 13.4843 -7.55187
H 9.49633 15.0837 -7.36532
O 5.87721 12.5771 -2.36878
H 5.99514 13.5684 -2.42698
H 5.14871 12.2909 -2.99124
O 0.0528561 -13.6241 12.0391
H 0.556949 -14.446 12.3044
H 0.654721 -12.8282 12.1049
O 14.5789 14.4716 6.71817
H 13.7139 14.5068 6.21764
H -14.9659 13.8936 6.22272
O -11.7658 -7.98575 14.9323
H -11.1625 -8.76402 -15.0869
H -12.0625 -8.00112 13.9774
O 0.795313 -13.7865 6.54175
H 0.0581073 -13.6269 5.88518
H 1.04182 -14.7557 6.537
O 3.91201 0.951319 -8.76191
H 3.2893 0.313154 -8.30913
H 4.05225 1.75102 -8.17808
O 11.6481 -9.355 -14.5471
H 11.5135 -9.54363 -13.5743
H 10.7763 -9.44704 -15.0283
O -12.5985 -1.22172 11.4154
H -13.0712 -1.86499 10.8131
H -12.4485 -1.6487 12.3072
O 1.67824 -9.43542 4.74167
H 2.0691 -9.47659 3.82212
H 2.07148 -10.163 5.30388
O 2.33248 -4.60491 -14.2695
H 2.53872 -5.0066 -13.3773
H 2.62571 -5.23049 -14.9925
O -3.93259 -12.3874 6.09563
H -3.97093 -12.1186 5.13317
H -4.66069 -11.9236 6.60046
O -8.43433 -13.3297 -3.49945
H -7.79714 -13.6186 -4.214
H -8.21358 -12.3974 -3.21306
O -13.8474 -2.1348 4.47212
H -13.2793 -1.53659 3.90691
H -13.3082 -2.47693 5.2417
O 4.1367 -9.04279 11.3679
H 4.55817 -9.62705 12.0615
H 4.31945 -8.08369 11.5842
O 4.6787 -9.85842 -6.05806
H 4.60104 -10.7663 -6.47019
H 4.01363 -9.24258 -6.48052
O 0.750081 5.34667 4.58484
H -0.0782246 5.57986 5.09433
H 0.826383 5.93967 3.78324
O 1.3072 4.28928 -6.60389
H 2.00708 4.75761 -7.14322
H 0.929538 4.92129 -5.92715
O -13.1445 -11.9057 8.70251
H -13.2349 -11.4412 9.58351
H -14.0152 -11.8633 8.21251
O -14.2143 11.8262 -12.1269
H -14.0034 12.6725 -12.6161
H -14.8893 11.301 -12.6452
O -11.9024 -2.4979 13.6379
H -11.4956 -1.82388 14.2545
H -11.8804 -3.40001 14.0689