LAMMPS (15 May 2015)
Reading data file ...
  orthogonal box = (-14.9458 -14.9458 -14.9458) to (14.9458 14.9458 14.9458)
  2 by 2 by 5 MPI processor grid
  reading atoms ...
  2611 atoms
  reading velocities ...
  2611 velocities
  scanning bonds ...
  3 = max bonds/atom
  scanning angles ...
  3 = max angles/atom
  scanning dihedrals ...
  8 = max dihedrals/atom
  scanning impropers ...
  1 = max impropers/atom
  reading bonds ...
  1749 bonds
  reading angles ...
  894 angles
  reading dihedrals ...
  44 dihedrals
  reading impropers ...
  10 impropers
Finding 1-2 1-3 1-4 neighbors ...
 Special bond factors lj:   0          0          0         
 Special bond factors coul: 0          0          0         
  4 = max # of 1-2 neighbors
  8 = max # of 1-3 neighbors
  20 = max # of 1-4 neighbors
  16 = max # of special neighbors
2611 atoms in group all
2592 atoms in group water
19 atoms in group naph
864 atoms in group O
1728 atoms in group H
8 atoms in group C
8 atoms in group He
2 atoms in group S
1 atoms in group Na
Setting atom values ...
  864 settings made for charge
Setting atom values ...
  1728 settings made for charge
Setting atom values ...
  2 settings made for charge
Setting atom values ...
  8 settings made for charge
Setting atom values ...
  8 settings made for charge
Setting atom values ...
  1 settings made for charge
Finding 1-2 1-3 1-4 neighbors ...
 Special bond factors lj:   0          0          0.5       
 Special bond factors coul: 0          0          0.5       
  4 = max # of 1-2 neighbors
  8 = max # of 1-3 neighbors
  20 = max # of 1-4 neighbors
  16 = max # of special neighbors
Finding SHAKE clusters ...
  0 = # of size 2 clusters
  0 = # of size 3 clusters
  0 = # of size 4 clusters
  864 = # of frozen angles
PPPM initialization ...
  G vector (1/distance) = 0.249226
  grid = 20 20 20
  stencil order = 5
  estimated absolute RMS force accuracy = 0.00369136
  estimated relative force accuracy = 1.11164e-05
  using double precision FFTs
  3d grid and FFT values/proc = 3179 400
Neighbor list info ...
  6 neighbor list requests
  update every 1 steps, delay 0 steps, check yes
  master list distance cutoff = 14
Setting up run ...
Memory usage per processor = 14.9131 Mbytes
Step Temp PotEng Density E_vdwl E_tail E_coul E_long ljcoul born water naph Press Volume 14[1] 14[2] 14[3] msd[4] msd2[4] msd3[4] msd4[4] Lx Ly Lz E_mol E_bond E_angle E_dihed Cella Cellb Cellc 
       0    296.31967   -8547.9628   0.97644921    1492.0931    -21.58751    30618.163   -40666.372    32079.883    51.960752   -8583.1791    56.803842    222.59962    26708.402   -2.2046001   -1.7783688   -2.1075357 2.8907779e-30 2.6249037e-30 2.911968e-30 3.4330058e-30     29.89161     29.89161     29.89161    8.1538225    2.6095331    1.1212219    4.2831951     29.89161     29.89161     29.89161 
   10000    294.23652   -8512.3868   0.95795441    1474.0596   -21.178624     30663.29   -40665.125    32138.887    19.641711   -8523.7205    32.512346    330.92221    27224.049   -2.9247573   -1.4711163   -2.4217898    13.948621    13.213596    14.020906    13.266394    30.082753    30.082753    30.082753    15.387977    5.9005429    3.9981638     4.734668    30.082753    30.082753    30.082753 
   20000     292.3512    -8619.056   0.96185368    1437.4419   -21.264829     30593.08   -40667.272      32032.2     19.58655   -8631.9358    34.144713   -633.16419    27113.685   -3.7967204   -1.4813705     -2.99091    29.181453    25.784186    29.297053    25.870733    30.042047    30.042047    30.042047    17.693976     5.746467    4.3921831    6.5702395    30.042047    30.042047    30.042047 
   30000    298.20778   -8523.0115   0.95087999    1545.5282   -21.022221    30586.894   -40667.914    32137.287    16.157025   -8531.2592    29.269987    888.41422    27426.592   -4.2818939   -1.4076742    -3.405933    46.313459    40.137266    46.559777    40.303679    30.157172    30.157172    30.157172    12.480611    4.6399615     3.337781    3.7902718    30.157172    30.157172    30.157172 
   40000    285.78121   -8452.9602   0.95008127    1457.2542   -21.004563    30735.576    -40662.44    32198.319    15.515452   -8462.0963    30.140603   -37.616776    27449.649   -4.8656594    -1.438738   -3.5661458    61.444459    52.019498    61.734355    52.158998    30.165621    30.165621    30.165621    16.649818    7.4588537    4.9631815    3.6412595    30.165621    30.165621    30.165621 
   50000    293.41534   -8535.1942   0.95610269    1514.6671   -21.137685    30600.863   -40666.292    32117.694     18.97338   -8544.8167    30.760193    146.60297    27276.775   -5.9326295   -1.0762436   -3.9746702    80.001965     62.11656    80.485296    62.316168    30.102161    30.102161    30.102161    15.568497    9.4918786      2.53363    3.2433527    30.102161    30.102161    30.102161 
   60000    295.79184   -8503.3766   0.93649576     1454.329   -20.704212    30692.441    -40667.07    32147.091     20.38374   -8516.3808    33.708422   -127.70494    27847.855   -7.1672479  -0.81968696    -4.752479    106.87384    74.203058    107.50831    74.392523    30.310789    30.310789    30.310789    16.922788    4.3896879    4.8384473    6.4530066    30.310789    30.310789    30.310789 
   70000    310.00243   -8510.8645   0.96438121    1436.2173   -21.320709    30705.121    -40666.24    32130.586    32.073048   -8524.1174    34.573659   -177.62763    27042.623   -8.1612036   -1.0334315   -5.4504824    132.17466    84.673479    133.04597    84.887346    30.015778    30.015778    30.015778     14.03752    4.6978909     3.691613    4.9274348    30.015778    30.015778    30.015778 
   80000    293.61224     -8498.06   0.94906464    1486.3035   -20.982087     30665.23   -40665.912    32156.211     16.30457   -8509.7461    32.668234    294.18928    27479.053   -8.7032332   -2.0548502   -5.7470017    153.41239    97.710309    154.40901    97.949928    30.176388    30.176388    30.176388    16.318228    6.4212884    3.7571622     5.046051    30.176388    30.176388    30.176388 
   90000    288.20918   -8546.8402   0.95008832    1422.6626   -21.004719    30685.162   -40669.189      32107.7    21.129126   -8557.6291    31.793597   -395.09727    27449.446   -8.7491364   -3.1222924   -5.7092384    165.43005    107.70666    166.49654    107.98183    30.165546    30.165546    30.165546    14.524377    5.7352055    3.5401781    4.2117016    30.165546    30.165546    30.165546 
  100000    310.05839   -8539.9179   0.95515352     1531.276   -21.116701    30581.956   -40670.357    32112.236    22.113032   -8553.7876    34.986391    595.55828    27303.881   -8.5282876   -4.2350207   -5.6694012    176.93504    118.16416    178.11873    118.52792    30.112129    30.112129    30.112129    17.206935    5.6564058    4.7142916     5.764131    30.112129    30.112129    30.112129 
  110000    298.47851   -8585.9897   0.94491772    1536.1073   -20.890406    30531.701   -40666.855    32074.809    13.889322   -8591.5767    26.477396    342.61819    27599.649   -8.1132267   -5.8153144   -5.7548909    194.03832    129.49326    195.31119    129.78826    30.220468    30.220468    30.220468    13.056772    7.1031871    3.5975676    2.0235073    30.220468    30.220468    30.220468 
  120000    294.57411   -8449.1398   0.94903314    1454.2475   -20.981391    30746.293   -40662.941    32204.491    17.031318   -8455.4868    27.328347     122.6524    27479.965    -7.799085   -7.2656801   -5.6680099    213.97943    139.55989     215.4282     139.9353    30.176722    30.176722    30.176722    13.260395    3.1092254    6.5272369    3.0785366    30.176722    30.176722    30.176722 
  130000    307.03601    -8470.495   0.94346793    1432.5108   -20.858354    30752.588   -40671.165    32184.785     21.17225   -8483.7152    34.078536   -146.36446    27642.061   -7.8942434   -7.9177297   -5.8366556    234.77259    150.35727    236.39797    150.80089     30.23594     30.23594     30.23594    15.570952    5.6865465    5.1016595    4.0997274     30.23594     30.23594     30.23594 
  140000    300.29528   -8664.3922   0.96446348    1524.4925   -21.322527    30460.882   -40667.591    31983.993    22.703611   -8679.0977    36.028019    92.159614    27040.316   -8.0638718   -7.8565585   -5.9944781    247.21842    160.49436    248.94826    161.06324    30.014925    30.014925    30.014925    17.824343    5.8302211    4.2506099    6.5003988    30.014925    30.014925    30.014925 
  150000    303.25626   -8591.4424   0.94241491    1454.6823   -20.835074    30607.381   -40666.922    32064.231    18.667633   -8601.4699     30.86252   -296.07206    27672.947   -7.9615717    -7.569914   -5.7947383    255.44198    174.69605    257.14302    175.08503    30.247197    30.247197    30.247197    13.416004    4.1898739     3.948732    4.3891766    30.247197    30.247197    30.247197 
  160000    301.88631    -8597.742   0.93928736    1474.0216   -20.765929    30573.148   -40664.275    32052.563    15.372493   -8610.1677    33.191624   -354.71157     27765.09   -8.3266352     -7.38971   -5.4548214    267.57221    187.19871    269.42134    187.86323    30.280731    30.280731    30.280731    19.363481    7.4344051    7.0059384    4.2478729    30.280731    30.280731    30.280731 
  170000    305.08904   -8618.9382   0.95546535    1531.9562   -21.123595    30495.426   -40664.738    32024.175    24.330248   -8633.1371    35.322501   -66.773177     27294.97   -9.1279309   -7.2079772   -5.0283735    280.83046    194.55461     282.8443    195.21889    30.108853    30.108853    30.108853     18.41796    10.095377    5.2359315    2.6526497    30.108853    30.108853    30.108853 
  180000    306.59517   -8560.5548   0.95837488    1472.9246   -21.187919    30618.703   -40666.834     32087.21    25.605431   -8572.1423    32.775492   -8.8758912    27212.105   -9.8407876   -7.0967679   -4.4880903    300.13227    207.59308     302.2621    208.39751    30.078353    30.078353    30.078353    14.651778    6.8699993    3.5177783    3.8142826    30.078353    30.078353    30.078353 
  190000    292.46451   -8554.5249   0.94684061    1384.3879   -20.932918    30714.508   -40669.126    32100.961    18.868503   -8565.9679    32.375961   -736.86783    27543.599   -10.509206   -6.8012512   -4.0773002    319.97252    221.33356     322.2208    222.08202    30.199997    30.199997    30.199997    15.705135    7.5532772    4.6202948    3.0246202    30.199997    30.199997    30.199997 
  200000    290.22457   -8461.6912   0.94003546    1483.5175   -20.782468    30704.882    -40666.52    32189.143    20.039405   -8474.4015    33.492769   -106.87695    27742.994   -11.163932   -6.4910622   -4.1517055    344.54411    237.38896    346.95307    238.20822    30.272697    30.272697    30.272697    16.428834    4.2878905    6.9523441    4.6531671    30.272697    30.272697    30.272697 
  210000    295.26184   -8565.0849   0.94674121     1522.706    -20.93072    30562.496   -40666.334    32085.597    20.535895   -8577.1751    33.020845    197.56708    27546.491   -11.645345   -5.8659267   -4.3713918    363.72744    252.77512    366.33275    253.64397    30.201053    30.201053    30.201053    16.046549    6.0947424    3.5570833    5.4026322    30.201053    30.201053    30.201053 
  220000    298.62054   -8572.0891   0.94006932    1515.9626   -20.783217    30562.097   -40664.343    32078.751    20.091711   -8582.8187    31.512811    38.071637    27741.995   -12.014943   -5.1928745   -4.4797676     377.9986    264.17905    380.60802    265.11511    30.272333    30.272333    30.272333    14.193656    7.7252716    4.4482886    1.6700955    30.272333    30.272333    30.272333 
  230000    304.67189   -8555.7741   0.96730124    1456.6858   -21.385265    30637.452   -40666.704    32095.177    20.346402   -8569.3548    34.966013    189.86283    26960.989   -12.143729   -4.8632665   -4.6061289    390.17389    275.36135    392.92754    276.24015    29.985544    29.985544    29.985544    16.792476    3.6333716    6.1518924    5.9284069    29.985544    29.985544    29.985544 
  240000    293.88982   -8509.6497   0.97113552    1477.1936   -21.470034    30655.191   -40664.584    32132.474     21.38017   -8526.7031    38.523479    302.05011     26854.54   -12.447025   -5.2739643   -5.2502149    415.00552    287.66254     417.9923     288.7546    29.946029    29.946029    29.946029    22.550337    8.8486872    8.3832186    4.4786575    29.946029    29.946029    29.946029 
  250000    306.44118   -8562.1712   0.94048313    1497.4739   -20.792366    30584.739   -40664.238     32083.64    19.364817   -8576.8528     35.47389    20.480232    27729.788   -12.446933   -5.5091178   -6.0242293    439.46521    304.48678    442.58262       305.66    30.267893    30.267893    30.267893    19.854362     7.850575    5.5355477    5.3869196    30.267893    30.267893    30.267893 
  260000    300.71866   -8502.7179   0.95397542    1390.8834   -21.090655    30759.013   -40668.493    32145.968    25.018522   -8516.0904    34.463226   -726.10734    27337.599   -11.241685   -5.2171326   -6.3634348    430.40415    318.16352    433.54628    319.68574    30.124519    30.124519    30.124519    15.878841    4.8223852    4.2693234     5.652349    30.124519    30.124519    30.124519 
  270000    300.22347   -8505.9364    0.9430587    1528.3107   -20.849307    30611.211   -40663.324    32143.677    16.694139   -8517.2528    32.165675    325.76133    27654.056   -9.6908324   -5.6278715   -6.8810434    424.25922     330.2142    427.33006    331.86855    30.240313    30.240313    30.240313    17.865685    11.194999    2.0919356     3.872373    30.240313    30.240313    30.240313 
  280000    302.44076   -8496.2109   0.93637392    1440.3345   -20.701518    30707.533   -40661.956    32153.122    15.446965   -8508.0487    32.539334   -340.82575    27851.478   -8.3475374   -6.2632201   -7.0316326    429.89494    347.32439     432.9743      349.179    30.312104    30.312104    30.312104    17.877351    7.5812178    3.6658462     5.962346    30.312104    30.312104    30.312104 
  290000    295.61941   -8524.0164   0.94358216    1468.1164    -20.86088    30660.514   -40666.818    32132.856    16.635686   -8532.9774    29.821854   -25.867757    27638.714   -7.8666829   -6.4545644   -6.5729733    432.19441    357.92604    435.22986    359.94484     30.23472     30.23472     30.23472    14.171111    4.8591572    5.6673959    2.9755479     30.23472     30.23472     30.23472 
  300000    305.19091    -8537.524    0.9464908    1403.9351   -20.925184      30706.2   -40666.543    32105.805     25.25468   -8552.7597    36.160932   -905.43331    27553.778   -7.6389131   -6.1287952   -5.8166227    435.01578    372.48515    438.05012    374.45559    30.203717    30.203717    30.203717    18.884087    9.2665954    2.3737275    6.1564797    30.203717    30.203717    30.203717 
  310000    297.86464   -8610.9003   0.94247709    1434.9678   -20.836448    30608.398   -40668.614    32048.188    16.014496   -8619.2367    29.172816   -552.86037    27671.121   -7.3371728   -5.9747153   -5.6790348    439.40042     382.6773    442.58831     385.1156    30.246532    30.246532    30.246532     14.34754    5.8539675    2.9613272    4.9263451    30.246532    30.246532    30.246532 
  320000    293.74484   -8577.4064   0.96833857    1509.8961   -21.408198    30563.186   -40664.965    32071.244    23.246155   -8587.5857    31.587586    338.63893    26932.107   -6.5981595   -5.9361979   -5.5865021       436.52    387.74852    439.63965    390.14221    29.974833    29.974833    29.974833    14.476553    4.9537129    4.1880575    4.4614016    29.974833    29.974833    29.974833 
  330000    299.41117   -8539.8106   0.96492996    1489.2579    -21.33284    30621.789   -40666.693     32112.53    19.850174    -8549.982    31.504205    302.34083    27027.244   -5.9639823   -5.7832092    -5.602341    442.59823    400.06452      445.727    402.48225    30.010087    30.010087    30.010087    15.835083     7.773543    3.4956227    3.6988329    30.010087    30.010087    30.010087 
  340000    297.15698   -8480.0604   0.96372753    1505.1533   -21.306257     30663.35   -40665.989    32166.042    23.767736   -8493.5518    34.797564    388.47233    27060.966   -5.8121524   -5.3553586   -5.5822053    444.57297    406.54968    447.69734    409.11576    30.022563    30.022563    30.022563    17.424897     8.769686    5.8200616    2.3319724    30.022563    30.022563    30.022563 
  350000    302.06756   -8554.0004   0.93470282    1508.7681   -20.664573    30588.244   -40666.369    32098.775    18.901478    -8564.453    31.117135   -163.90078    27901.272   -6.4990411   -4.8825401   -5.6594091    465.61657    424.74982    468.94298    427.47638    30.330158    30.330158    30.330158      15.3571    9.2819163    3.1820894    2.5967903    30.330158    30.330158    30.330158 
  360000    301.09013   -8429.7153   0.93306314    1429.0724   -20.628323    30795.606    -40669.71     32229.53    15.776683   -8438.7858    29.698815   -404.43259    27950.303   -7.6038894   -4.3504666   -5.4339571    480.05498    432.86802    483.51396    435.61093    30.347914    30.347914    30.347914    15.316202    7.8390306    3.6054268    3.1993522    30.347914    30.347914    30.347914 
  370000    303.16615   -8581.8328   0.95807305    1534.6034   -21.181247    30535.115   -40669.266    32073.331    17.568266   -8593.6966    33.045065    389.92837    27220.678   -8.4377145   -3.9021329   -5.0744136    488.69606    436.48566    492.16363    439.17066    30.081511    30.081511    30.081511    17.715349    7.8895582    2.2292448    6.7909661    30.081511    30.081511    30.081511 
  380000    295.31426   -8539.9977   0.94296016     1552.251   -20.847128    30563.293   -40669.404    32120.416    15.975722   -8546.9986    27.848074    442.83241    27656.946   -9.3446489   -4.0579429    -4.807472    520.69868    456.87073    524.38064    459.51406    30.241366    30.241366    30.241366    13.861774    5.9472776    3.1847361    3.9896817    30.241366    30.241366    30.241366 
  390000    295.34867   -8602.1817    0.9579279    1474.7617   -21.178038    30573.552   -40665.336    32046.865    22.626468   -8613.8343    32.830584   -119.40302    27224.802   -10.168228   -4.7681955   -5.0725035    545.22732    463.68583    549.05277    466.36378     30.08303     30.08303     30.08303    14.841154    7.3288156    3.0019534    3.7690515     30.08303     30.08303     30.08303 
  400000    290.28545   -8587.5768   0.94860066    1475.2575   -20.971829    30590.609   -40664.338    32067.595    19.243541    -8594.629    28.023978   -37.312171    27492.494   -10.887827   -5.4319476   -5.4384455    575.79492    475.70244    579.92216     478.3524    30.181307    30.181307    30.181307    10.894306    5.7503032    2.3361575    2.3368286    30.181307    30.181307    30.181307 
  410000    298.48102   -8553.0198   0.94129068    1449.8097   -20.810219    30649.033   -40665.406    32101.981    17.672085    -8561.852    29.642417   -254.87639    27705.998   -11.125161   -5.5630534   -5.1001112    594.43481    491.39189    598.67764    494.09248    30.259234    30.259234    30.259234    13.543963    5.2534398    2.9350241    4.6980533    30.259234    30.259234    30.259234 
  420000    297.84334   -8510.4649   0.94564629    1490.0201   -20.906514    30646.957   -40666.946    32138.198    19.685976   -8523.9729    34.414472   -41.496048    27578.385   -11.125333   -4.9743372   -4.0935375    593.02209    499.01886    597.32378    502.04023    30.212705    30.212705    30.212705    19.504239     10.47924    2.6040877    5.0961977    30.212705    30.212705    30.212705 
  430000    294.29985   -8551.0432   0.95464686     1458.882     -21.1055    30641.421    -40668.59    32101.989    19.419754   -8563.9556    34.017886    53.020482    27318.372   -10.429255   -3.6750029   -3.3014725     582.7561    509.95503    586.93115    513.01369    30.117455    30.117455    30.117455    17.243928    6.7195344    7.0182067     2.891021    30.117455    30.117455    30.117455 
  440000    303.71937   -8597.7058   0.95781847    1478.0695   -21.175618    30571.955   -40662.732    32056.324     14.87571    -8606.432    29.901773    106.78747    27227.913   -9.2738694   -2.4409614   -2.8550189    566.33678    515.25425    570.36622    518.56868    30.084176    30.084176    30.084176    15.001418    5.7782152    4.5465614    4.1434135    30.084176    30.084176    30.084176 
  450000    307.13893   -8552.1671   0.94194035    1483.0211   -20.824582    30613.792   -40666.447    32098.728    18.909799   -8563.8661    32.523575   -223.75081    27686.889   -7.8726052   -1.7711645   -2.7753271    568.75168    536.10573    572.84711    539.62379    30.252276    30.252276    30.252276    17.466496    10.518416    3.3012668     3.171024    30.252276    30.252276    30.252276 
  460000    300.17206   -8540.1058   0.95354638    1463.4375    -21.08117    30644.867   -40665.048    32107.828     21.55764   -8551.1396    32.114992   -291.41429      27349.9   -6.8921115   -1.6280713   -3.2311954    566.59743    543.46309    570.63135    547.16559    30.129037    30.129037    30.129037    16.638551    8.7538016      4.16552    3.3357085    30.129037    30.129037    30.129037 
  470000    301.02258   -8505.6108   0.94941995    1456.3355   -20.989942     30685.77   -40663.778    32143.816    19.279749   -8516.4959    31.874977   -130.89885     27468.77   -5.9089847    -1.470604   -3.9726608    574.29106    557.19075    578.38762    560.98414    30.172623    30.172623    30.172623    16.061254    7.3888691    3.9108359    4.2560411    30.172623    30.172623    30.172623 
  480000    298.81706   -8462.1239   0.94709828    1487.6346   -20.938614    30701.066   -40666.934    32190.306    19.332896   -8472.6994    31.514118    321.08907    27536.105   -5.5297482   -1.0645808   -4.8903751    589.73453    570.33142    593.91504    574.25161    30.197258    30.197258    30.197258     16.11007    5.6795769    4.9461706    4.7306309    30.197258    30.197258    30.197258 
  490000    305.56859   -8567.5584   0.96071399    1502.9125   -21.239633    30581.671   -40663.586    32084.158    21.665524   -8574.1238    27.804986     141.5623     27145.85   -5.3373177  -0.58091947   -5.0254022    598.73703    579.06093    602.99015    583.05905    30.053922    30.053922    30.053922    11.443687    4.8368113    3.2595762    2.6541459    30.053922    30.053922    30.053922 
  500000     281.1745   -8544.1582   0.94995665    1526.2187   -21.001808     30579.76   -40662.331    32106.826    20.154933   -8551.6566    28.500245    437.98931    27453.251   -4.8298673   0.11875628   -4.3587637    617.09051    601.62215    621.46064    605.79879     30.16694     30.16694     30.16694    12.194085    6.1555084    2.2189729       3.0923     30.16694     30.16694     30.16694 
  510000    295.44908   -8491.3446   0.94572691    1402.6217   -20.908296    30753.307   -40661.275    32161.233    15.604395   -8499.0659    28.629636   -466.66997    27576.035   -4.6524023   0.10806051   -3.4510953    628.06776    616.85883    632.54921    621.22613    30.211847    30.211847    30.211847    14.001448    6.5451191    3.2763369    3.6606551    30.211847    30.211847    30.211847 
  520000    300.16399   -8564.6246   0.94841362    1536.8209   -20.967694    30550.681   -40667.144    32092.471    15.998484   -8574.1989    30.542003    610.43916    27497.916   -4.5990312  -0.18229532   -2.5482274    635.28774    626.95446    639.79477    631.31312    30.183291    30.183291    30.183291    15.017188    6.7548621     3.324941    4.0302104    30.183291    30.183291    30.183291 
  530000     298.9866   -8494.1745   0.93741476    1415.2921   -20.724529    30737.979   -40666.024    32156.147    17.848576   -8505.6778    32.227823   -851.50862    27820.554   -4.4125251  -0.27876157   -2.4553052    653.10834    645.97967    657.80886     650.5843    30.300881    30.300881    30.300881    18.578537     11.77146    3.4266872    2.8024529    30.300881    30.300881    30.300881 
  540000    293.00673   -8528.2697   0.94638893    1446.0572   -20.922932    30674.116   -40665.141    32120.006    21.089743   -8539.1997    31.852917   -502.17137    27556.744   -4.0058561   0.29304407   -2.9508019    661.57221    653.47179    666.30068    658.05522      30.2048      30.2048      30.2048    16.697681     8.790005     4.032001    3.2003179      30.2048      30.2048      30.2048 
  550000    293.43681   -8500.8143   0.96029212    1541.9022   -21.230306    30610.056   -40664.556    32152.497    20.692112   -8507.6066    28.022569     697.4738    27157.775   -3.5380588    1.3793054   -3.3773758    670.13146    657.04362    674.91692    661.66806    30.058322    30.058322    30.058322    11.783404    5.9240459    1.8171927    3.4839901    30.058322    30.058322    30.058322 
  560000    294.46003   -8557.4304    0.9356524    1491.3041   -20.685567    30607.065   -40667.481    32102.739    16.315529   -8564.3357    27.590887    21.049903    27872.955   -3.3790945    2.3318961   -3.7588683    695.23527    674.47126    700.23357    679.17673    30.319894    30.319894    30.319894    11.681165    5.0839792    3.9424213    2.1658963    30.319894    30.319894    30.319894 
  570000     291.0396   -8516.1672   0.95182358    1471.8439   -21.043082    30663.961   -40666.287     32142.89    13.957844   -8523.6275    28.503351   -2.3453495    27399.403   -3.9641891    2.4948622   -4.2027468    697.94425    672.43988    702.97008    677.09942    30.147204    30.147204    30.147204    14.315104    6.7637946    3.0135007    3.5818308    30.147204    30.147204    30.147204 
  580000    300.69238   -8604.6135   0.96225179    1455.3018   -21.273631     30595.37   -40666.233    32050.211     21.73428   -8611.7872     28.44733   -104.68589    27102.467   -4.8563235    2.0906093   -4.5862822    712.24349    684.34165    717.41445     689.0831    30.037903    30.037903    30.037903    10.948177    5.6167639     1.667257    2.9660568    30.037903    30.037903    30.037903 
  590000    304.33545   -8482.0852   0.93580849    1484.7734   -20.689018    30685.278   -40666.822     32174.91    15.830328   -8489.9903    28.594056    69.211621    27868.306   -5.7921465    1.6170322   -4.7152673    730.92524    699.96171    736.25455    704.85291    30.318208    30.318208    30.318208    14.685799    6.0461514    3.2802734    4.3920016    30.318208    30.318208    30.318208 
  600000    304.19559   -8499.5082   0.93456383    1457.3025   -20.661501    30691.296    -40663.22    32151.607    17.653411   -8509.2812    30.434482   -261.46651    27905.422   -6.5402032   0.97183308    -4.594699     748.1972     715.7037    753.55893    720.57574    30.331661    30.331661    30.331661    15.112922    6.7948605     3.560155    3.8667678    30.331661    30.331661    30.331661 
  610000    292.71072   -8596.3132    0.9382035      1550.64   -20.741967    30510.652   -40669.824    32067.334    14.699987   -8603.6384    28.067108    376.16856    27797.165   -7.1089658   0.22170278   -5.0622688    758.74008    721.93946     764.1694    726.84327    30.292388    30.292388    30.292388    12.218429    5.8693556    3.5426212    2.3971419    30.292388    30.292388    30.292388 
  620000    305.07095   -8454.4924   0.95324318    1376.3067   -21.074467    30821.355   -40665.906    32200.906    17.830562   -8463.1021    29.684171   -467.87876    27358.599   -6.9088336  -0.58774404   -5.7271831    767.70392    731.20585    773.24881    736.31345    30.132231    30.132231    30.132231    13.751238    4.8543611    5.3297089    3.0740681    30.132231    30.132231    30.132231 
  630000    304.43169   -8510.6022   0.95413457    1514.3199   -21.094174    30629.703   -40667.478    32140.241    24.876718   -8521.4634    31.955386    541.48944    27333.039   -5.8367992   -1.2848002   -5.9922931    772.12358    743.45484    777.70514    748.58379    30.122844    30.122844    30.122844    12.852486    4.0323997     2.701852    5.0676652    30.122844    30.122844    30.122844 
  640000    290.11891   -8617.6864   0.95942766    1446.1583   -21.211194    30591.355    -40670.68    32042.149    16.575261   -8626.6157    30.140494   -220.70335    27182.245   -5.1302966  -0.70614758   -5.9177593    770.84684    746.53499    776.36876    751.70729    30.067347    30.067347    30.067347    15.480811    7.3479254    3.8448184    3.3501766    30.067347    30.067347    30.067347 
  650000    302.88732   -8507.1968   0.93581441     1510.655   -20.689149    30635.917   -40666.536    32146.496    20.765255    -8516.285    29.777428    68.040558     27868.13   -4.6640346   0.33126832   -5.9711744     794.2387    768.79686    799.92276    774.08238    30.318144    30.318144    30.318144    12.766729    5.6118284    1.8243234    4.5272622    30.318144    30.318144    30.318144 
  660000    296.04089   -8561.9789   0.95267138     1472.454   -21.061826    30622.487   -40666.301    32094.058    21.945175   -8566.7572    25.840066    -62.40567     27375.02   -4.6766066    1.3464291   -6.1780451    809.09647    776.57373    814.97856    782.03976    30.138258    30.138258    30.138258    9.3810624    3.0119187    4.0571507    1.8909297    30.138258    30.138258    30.138258 
  670000    301.30573   -8478.9313   0.93556015    1426.1689   -20.683528    30747.744   -40667.898    32169.221    25.374686    -8491.549    33.301207    -425.3004    27875.704   -4.8655139    2.3336515   -6.5484288    843.22336    799.47194    849.30379    805.03238     30.32089     30.32089     30.32089    15.054289    5.6040999    4.0339813    4.6273238     30.32089     30.32089     30.32089 
  680000    300.33901   -8439.4019   0.93454917    1442.1088   -20.661176    30769.198   -40663.897    32213.955    18.013772   -8447.9228    29.182062   -211.44501     27905.86   -4.6701074    3.0701287   -6.7957045    865.13587    813.65058    871.28295    819.19233     30.33182     30.33182     30.33182    13.187917    6.7468164    2.5955802    3.2694759     30.33182     30.33182     30.33182 
  690000    293.52902   -8546.2629   0.93175042    1439.0359   -20.599301    30662.339   -40662.794    32103.149    18.825668   -8555.8986    30.235017   -778.98783    27989.682   -4.5646949    3.4667593   -6.7760894    889.63102    834.89887    895.97493    840.52307    30.362159    30.362159    30.362159     15.15563    9.5159283     3.209822    2.0551714    30.362159    30.362159    30.362159 
  700000    286.82322   -8553.2837   0.96632964    1456.2115   -21.363785    30637.906    -40665.86    32095.945    19.537008   -8565.2294    33.309395   -48.624463    26988.097    -5.180336    3.1362124   -5.7278665    869.20373    823.11081    875.40303    828.67066    29.995591    29.995591    29.995591    18.458441    9.7102237    3.6023486    4.2120319    29.995591    29.995591    29.995591 
  710000    298.55227   -8607.7395   0.95710315    1428.0597   -21.159804    30619.668   -40668.345    32047.585    21.303124   -8615.6328     29.05309   -508.83362    27248.262   -6.5180843    1.9560699   -4.6385892    881.64979    842.45066    887.97075     848.1346    30.091669    30.091669    30.091669    12.877148    7.6357399    1.9414899    2.8360694    30.091669    30.091669    30.091669 
  720000    316.72048   -8550.6033   0.95711977    1556.4208   -21.160171    30542.688   -40664.119      32095.7    24.568603   -8563.1442     33.70104     926.3719    27247.789   -7.7092359    1.0478571   -4.4266014    896.74537     853.1398    903.26567    859.09321    30.091494    30.091494    30.091494    14.406761     6.228591    5.2302122    2.5910601    30.091494    30.091494    30.091494 
  730000    293.12177   -8535.1336   0.95407955    1564.1272   -21.092957    30553.572   -40664.215    32120.861    17.930781   -8542.0786    28.037921    1101.0298    27334.616   -7.6901637      1.01385   -4.5520387    909.48102    865.57927    916.02986     871.6025    30.123423    30.123423    30.123423     11.38294    6.1187013    1.6746947    3.0980844    30.123423    30.123423    30.123423 
  740000      299.624   -8497.8462   0.95614112    1551.2391   -21.138535    30601.314   -40664.257    32156.407    17.284447   -8504.3659    27.658261    858.58434    27275.678   -6.3236231   0.52344367   -4.4413647     906.2108    878.41432    912.77991    884.60988    30.101758    30.101758    30.101758    13.857388    7.5522071    3.1296319    2.4906088    30.101758    30.101758    30.101758 
  750000    287.03272   -8628.3304   0.95347534    1504.5312     -21.0796     30518.61   -40665.757    32027.764    16.456924   -8635.6906    28.439759   -104.42708    27351.937   -5.0241834  -0.74227507   -4.3400851    903.01357    888.99378    909.53818    895.27888    30.129785    30.129785    30.129785     14.28531    6.9052241    5.3119786    1.8998829    30.129785    30.129785    30.129785 
  760000    296.18698   -8656.7471   0.94376849    1525.6976   -20.864999    30471.024   -40664.695    31993.439    24.147541   -8664.9001    29.018034   -216.53582    27633.258   -4.5149798   -2.3240492   -4.0946784    908.55935    899.01496    915.06435    905.35331     30.23273     30.23273     30.23273    11.226026     4.802982    3.5221353    2.3349925     30.23273     30.23273     30.23273 
  770000    310.30016    -8543.723   0.95016787     1512.938   -21.006477    30592.709   -40662.548    32101.774    24.879874   -8554.2731    31.556652    337.91712    27447.148   -4.9060264   -3.3393499    -3.853985    917.17185    904.30735    923.74734    910.72739    30.164704    30.164704    30.164704    13.178232    6.3709978    2.2690298    3.6048085    30.164704    30.164704    30.164704 
  780000    300.38389   -8591.7046   0.95620097     1479.344   -21.139858    30583.543   -40668.014    32063.357     20.66988   -8600.9002    30.335521   -83.067033    27273.971   -5.3515961   -3.1572362   -3.9924438    925.82465    910.49238    932.56943    917.01846     30.10113     30.10113     30.10113    13.423023    4.4681638    3.2743526    4.7247795     30.10113     30.10113     30.10113 
  790000    299.47033   -8530.6173   0.95511995    1424.8103   -21.115959    30696.729    -40664.75    32120.381    22.273637   -8540.8534    31.352017   -338.52505     27304.84     -5.64379   -2.8991817    -4.587569    940.84077    921.67889    947.56055    928.07296    30.112482    30.112482    30.112482    12.594046    5.3693256    3.9856911    2.6906797    30.112482    30.112482    30.112482 
  800000    306.14322   -8462.4527    0.9467275    1407.5451   -20.930417     30779.95   -40663.676    32188.434    19.991626   -8470.9761    29.453805   -266.33263     27546.89   -6.4873281   -3.4686187   -5.1609802    962.75611      932.275    969.70017    938.72728    30.201199    30.201199    30.201199    13.727762     6.657893    4.7257299    1.9869057    30.201199    30.201199    30.201199 
  810000    296.28898   -8494.0969   0.94972644    1478.3372   -20.996718    30678.358   -40667.896    32155.069     22.62224   -8507.8454    34.745225    177.25544    27459.905   -7.5324484   -4.6101583   -5.1817965    985.52494    939.41228    992.70122    945.87831    30.169377    30.169377    30.169377    17.104368    8.1832017    4.2387369    3.8371963    30.169377    30.169377    30.169377 
  820000    290.92951   -8593.5779   0.94880137    1604.3125   -20.976267     30455.94   -40670.493    32060.915    20.313468   -8604.1141    31.512441    693.71932    27486.678   -8.1971646   -5.7553516    -5.728107    1022.8733    957.70849    1030.2841    964.28168    30.179179    30.179179    30.179179    16.662875    9.3741442     3.654424    3.2453327    30.179179    30.179179    30.179179 
  830000    300.99506   -8513.6628   0.95171971    1391.0565   -21.040786    30746.357   -40666.406      32140.5     17.95354   -8523.7486    31.126496   -507.01765    27402.393   -7.7897505   -6.5954217   -6.4747358    1043.6367    969.88402     1051.182    976.30602      30.1483      30.1483      30.1483     15.33033    8.9928451    3.2931834     2.623134      30.1483      30.1483      30.1483 
  840000     302.2828   -8476.5073   0.94445986    1522.8847   -20.880284    30652.165   -40663.916     32177.06    18.870104   -8484.1117    28.484663    526.22479    27613.029   -7.7390301   -6.9343039   -7.3487054    1067.5687    982.45271    1075.3256    988.99992    30.225351    30.225351    30.225351    12.359083    5.9640112    2.2352315    3.6798859    30.225351    30.225351    30.225351 
  850000    292.74213   -8544.3767   0.95146418    1504.5965   -21.035137    30604.491   -40667.537    32110.609    19.513409   -8553.1836    29.842085    197.24602    27409.753   -7.7033251   -6.8963786   -7.7949059    1076.5456    987.21242    1084.3163    993.69998    30.150999    30.150999    30.150999    14.072903    5.7003546    4.6594805    2.9737857    30.150999    30.150999    30.150999 
  860000    294.25796   -8549.2368   0.95867953    1470.6113   -21.194655    30633.261   -40667.525    32093.638    31.429762    -8564.759    36.716929   -133.47647    27203.458   -7.7700628   -6.9339357   -7.3416912      1083.25    997.99124    1091.0901    1004.5504    30.075166    30.075166    30.075166      14.4154     5.443667    4.9214764    3.4628335    30.075166    30.075166    30.075166 
  870000    294.08152   -8481.0626   0.95354243    1404.6344   -21.081083    30765.463   -40664.724    32170.258    20.920851   -8491.2035    31.222027   -313.91883    27350.013   -8.1746211   -7.1760337   -6.9605823    1095.6993    1007.0172     1103.654    1013.5314    30.129078    30.129078    30.129078    13.564076    4.9356247    3.4033041    4.1455022    30.129078    30.129078    30.129078 
  880000    302.64042   -8611.0346   0.96549797    1492.8242   -21.345398    30543.902   -40663.981    32033.197    24.874132   -8623.7979    34.108723   -24.135777    27011.344   -8.8232235   -7.6215413   -7.0403946    1111.3725    1008.6124    1119.4384    1015.0136    30.004201    30.004201    30.004201    16.220498    4.7718102    2.6760196    7.8618344    30.004201    30.004201    30.004201 
  890000    307.88309   -8600.9014   0.95329561    1516.5793   -21.075626    30538.147   -40669.136    32053.747    22.055014   -8609.2439    29.418096    137.09403    27357.094   -9.7744623   -7.9982103   -7.6241917    1153.0898    1026.2385    1161.4489    1032.7326    30.131678    30.131678    30.131678    13.507796    5.8936881    3.3494137    3.6225373    30.131678    30.131678    30.131678 
  900000    303.49816   -8599.0061     0.959423    1466.6666   -21.211091    30584.985    -40664.46    32053.812    19.050741   -8607.4029    29.607895   -194.74077    27182.377   -10.035799   -8.2817483   -8.5143346    1176.9551    1031.5061    1185.4658    1038.0259    30.067396    30.067396    30.067396     13.80244     5.974013    3.9752805    3.4450654    30.067396    30.067396    30.067396 
  910000    297.46576   -8544.6976    0.9484863    1399.3088   -20.969301     30701.87   -40662.714     32102.79    19.357764   -8555.9797    32.251406    -827.8676    27495.809   -9.6757201   -8.5795988   -9.3355461    1203.1212    1047.6725    1211.8495    1054.1045     30.18252     30.18252     30.18252    16.837601    6.0115141    7.3123968    3.0994974     30.18252     30.18252     30.18252 
  920000    299.40135   -8596.3075   0.96743523     1392.408   -21.388227    30664.435   -40666.216    32052.352    25.878998   -8606.0695    31.150226   -759.50144    26957.255   -9.4207043   -8.4290525   -10.498564    1219.7044    1052.0946    1228.5838    1058.4451     29.98416     29.98416     29.98416    13.065582    5.0266074    4.9399319    2.5092273     29.98416     29.98416     29.98416 
  930000    301.40861   -8542.9826   0.96723299    1401.8543   -21.383756    30712.993   -40668.295    32115.256    20.974872   -8548.1612    26.562338    -383.9211    26962.891   -9.7783432   -8.6611902   -11.409381     1257.781    1065.1634    1266.8343    1071.4305     29.98625     29.98625     29.98625    10.466018    6.0127846    1.7273111    2.3599188     29.98625     29.98625     29.98625 
  940000    284.72343   -8473.9431   0.93838732    1455.2463   -20.746031        30719   -40662.693    32173.551    21.440932   -8484.1859    30.988865   -323.46936     27791.72   -10.719154   -8.9376401   -11.701558    1309.9128    1093.0093    1319.3781    1099.4457    30.290409    30.290409    30.290409    14.504207    6.7808427    2.8994612    4.1129041    30.290409    30.290409    30.290409 
  950000    300.17695   -8503.5657   0.95281812    1431.8784    -21.06507    30715.637   -40664.972    32150.184    18.397051    -8512.887    30.386304   -2.4716887    27370.804   -11.583995   -9.3402392   -10.901971     1323.022    1099.1006     1332.654    1105.3712    30.136711    30.136711    30.136711     13.89042    6.3440293    2.3069749    4.9348899    30.136711    30.136711    30.136711 
  960000    298.31273    -8516.959   0.96643316    1511.5986   -21.366073    30622.173   -40662.087    32134.498    20.639741   -8524.3022    28.709273    600.95336    26985.206   -12.568727   -9.7191902   -10.022812    1341.4458    1107.6763    1351.2055    1113.9928     29.99452     29.99452     29.99452    11.355677    5.7463247    3.5061094     1.817937     29.99452     29.99452     29.99452 
  970000    299.05548   -8497.2708   0.96416853    1519.2277   -21.316006    30627.235   -40659.694    32146.335      21.4439   -8508.4692    32.514433    726.31209    27048.589   -13.481862    -9.887463   -10.018601     1379.824    1123.6338    1389.8292    1129.9282    30.017985    30.017985    30.017985    15.960698    6.4704567    3.8179701    4.7789693    30.017985    30.017985    30.017985 
  980000    291.89985   -8433.8673   0.93401693     1471.824    -20.64941    30752.429   -40668.878    32229.085    15.817689   -8439.4731    26.255227    69.413982    27921.761   -13.358796   -10.213276     -10.7319    1424.6467     1153.616    1435.0047     1160.044     30.33758     30.33758     30.33758    10.757317    5.7454014    2.4740519    2.1719981     30.33758     30.33758     30.33758 
  990000    309.09335   -8507.4409   0.95621571    1409.9642   -21.140184    30735.834   -40667.781    32151.629     15.30867   -8515.1266    28.825925   -288.61959    27273.551   -12.893322    -10.27381   -11.330823    1422.3417    1149.2822    1432.5636    1155.2576    30.100975    30.100975    30.100975    14.542453     6.823064    4.7576427    2.7327091    30.100975    30.100975    30.100975 
 1000000    308.84594   -8492.5917   0.95121603    1489.2778    -21.02965    30662.768   -40659.151    32150.934    22.142114   -8502.6932     31.13115    259.46756    27416.903   -12.916389   -10.642472   -11.593747    1451.7317    1167.1057    1462.3149    1173.3708    30.153621    30.153621    30.153621    14.512849    6.7329337    5.2217612    2.1019532    30.153621    30.153621    30.153621 
 1010000    294.96544   -8551.3755   0.95593732    1435.9002    -21.13403     30665.86   -40666.996     32100.91    21.984457   -8562.0807    31.839322   -331.70892    27281.493   -13.148132   -11.284893   -11.757075     1484.188    1179.6056    1494.8782    1185.3836    30.103897    30.103897    30.103897    13.860735    7.6845224     2.819737    2.7859939    30.103897    30.103897    30.103897 
 1020000    297.01144   -8487.9383    0.9530331    1419.7298   -21.069822    30743.726   -40664.158    32162.224     22.30162   -8496.1497    29.281268   -370.73863     27364.63   -14.066494   -12.676363   -13.152361    1574.5563    1191.8413    1585.9646    1197.6136    30.134445    30.134445    30.134445    12.764457    5.7576863    2.7489974    3.7921865    30.134445    30.134445    30.134445 
 1030000    292.99227   -8555.1286   0.95557264    1455.1642   -21.125967    30637.811   -40661.861    32095.261    18.839585   -8564.4787    30.476081   -65.654764    27291.905   -14.709132   -13.674943   -14.365511    1645.2019    1195.5705    1657.1517    1201.3913    30.107726    30.107726    30.107726    13.757769    6.7105052     3.300088    3.2225134    30.107726    30.107726    30.107726 
 1040000    297.34305   -8501.4344   0.93934343    1492.9455   -20.767169    30660.744   -40668.453    32154.158    20.298813   -8510.5657    29.898423    88.567527    27763.433    -14.48916   -14.251871   -14.342267    1680.3949    1222.6084    1692.6233    1228.1841    30.280129    30.280129    30.280129    13.329338    5.7239989    3.9501899    3.0190091    30.280129    30.280129    30.280129 
 1050000    298.26687   -8512.5347   0.95400772     1414.588    -21.09137    30717.056   -40663.151    32129.412    23.323655   -8526.9116    35.468278    -630.7456    27336.674   -14.396132   -14.564029   -13.394326    1661.3917    1220.6566    1673.4858    1226.2423    30.124179    30.124179    30.124179    18.972227    5.9025136    6.5948026    5.3364046    30.124179    30.124179    30.124179 
 1060000    294.61733   -8497.9253   0.93767287    1536.6242   -20.730236    30613.675   -40667.179    32158.172    12.857448   -8509.7591    32.564067    538.57075    27812.896   -15.117622   -14.901363   -11.969877    1687.5352    1250.3799    1699.8501    1256.4749    30.298101    30.298101    30.298101    18.954378    7.5453429     6.576003     4.231694    30.298101    30.298101    30.298101 
 1070000     298.7358   -8548.2426   0.94591113    1512.8345   -20.912369    30593.221   -40668.541    32107.515    19.452771   -8559.1825    31.852213    260.79174    27570.664   -15.861333   -14.438775   -10.840598    1683.0362    1258.6724    1695.2946    1264.6878    30.209885    30.209885    30.209885    14.242915    3.1246306    5.2691224    4.8693699    30.209885    30.209885    30.209885 
 1080000    302.83386   -8518.3099   0.95567453    1534.0664    -21.12822    30597.818   -40667.105    32128.544    24.468327   -8532.8061    35.624342    579.24012    27288.995   -16.417837   -13.614614   -10.230976    1677.3384     1266.903    1689.5288    1273.2307    30.106656    30.106656    30.106656    16.910652    10.330621    3.7544942    2.5041771    30.106656    30.106656    30.106656 
 1090000    300.19375   -8512.1796   0.93685568    1404.4241   -20.712169    30734.076     -40665.5    32142.358    16.853717   -8522.1104    30.642954   -438.60814    27837.156    -16.42795   -13.195959   -9.5934316    1688.5479    1298.3592    1700.7983    1305.1345    30.306907    30.306907    30.306907    14.820973    7.8625846     4.812553    1.7886849    30.306907    30.306907    30.306907 
 1100000    309.30638   -8599.2524   0.94887286     1440.158   -20.977847    30616.393   -40666.097    32059.048    18.480383   -8604.5069    26.232334   -296.80358    27484.607   -15.644165   -13.120846   -8.6176248    1656.4326    1303.2467    1668.4425    1310.0837    30.178421    30.178421    30.178421    10.293373    3.8777218    3.0930131    2.9675128    30.178421    30.178421    30.178421 
 1110000    277.60605   -8522.8077   0.95966039    1429.7983    -21.21634    30693.937    -40664.47    32119.312    25.640186   -8536.4797    34.888301    -553.4129    27175.653   -15.450256   -12.709381     -8.28229    1641.3735    1306.6218     1653.283    1313.3747    30.064916    30.064916    30.064916     17.92658    9.0839041    4.4333987     3.484332    30.064916    30.064916    30.064916 
 1120000    298.10009   -8567.0997   0.95402434    1506.8306   -21.091737    30578.845   -40667.271    32087.095    19.672155   -8577.0125     31.00456    263.29898    27336.197   -16.348963   -12.522242   -8.8660523    1681.1379    1318.2499    1693.3526     1324.895    30.124004    30.124004    30.124004    14.496518    4.5157193    4.5045673    4.9291264    30.124004    30.124004    30.124004 
 1130000    284.95751   -8508.6933   0.93766057    1436.9987   -20.729964    30701.957   -40662.453    32135.924    23.760873    -8521.437     33.47371   -308.97779     27813.26   -17.846304    -13.00576   -9.3348263     1775.142    1350.6642    1788.0751    1357.0676    30.298233    30.298233    30.298233    14.804386    4.9197642    4.0887436     5.056769    30.298233    30.298233    30.298233 
 1140000    301.34089    -8577.916   0.97421238    1487.6764   -21.538058    30589.039   -40668.591    32073.661    24.592162   -8588.9847     32.60671    275.08354    26769.725   -19.327934   -13.447025    -10.14161    1821.2014    1325.6347     1834.432    1331.6787    29.914469    29.914469    29.914469    13.959584    4.7276417    4.1057681    4.1026645    29.914469    29.914469    29.914469 
 1150000    289.10651   -8459.5356   0.94847371    1478.4775   -20.969023    30711.584   -40665.844     32194.14    16.890733   -8469.4435    30.876921    116.45686    27496.174   -20.942226   -13.957259    -11.12658    1946.8522    1364.1836    1961.0911    1370.0336    30.182654    30.182654    30.182654    16.246658    6.2462928     4.519741    4.9599065    30.182654    30.182654    30.182654 
 1160000    292.84463   -8603.5333   0.97540761    1427.2299   -21.564482    30621.919   -40670.821    32051.231    19.482968   -8615.9534    33.984587   -334.50662    26736.923   -21.196798   -14.373713   -11.302201    1956.6889     1351.392    1970.9187     1356.928    29.902246    29.902246    29.902246    18.138795    7.3840787    4.2479887    5.3692494    29.902246    29.902246    29.902246 
 1170000     294.6844   -8561.4904   0.94850455    1469.0978   -20.969704    30624.146   -40666.428    32097.776    16.437273   -8568.1425     27.62182     4.703352     27495.28   -21.279474   -14.516082   -10.700346    1979.7041    1377.5425    1994.0346     1383.173    30.182327    30.182327    30.182327    11.693395    4.2995093    3.6517969    2.9386747    30.182327    30.182327    30.182327 
 1180000    302.38806   -8496.0159   0.94136637    1464.2258   -20.811892    30688.379   -40662.916    32157.935    15.481701   -8505.0128    29.808784    46.465418    27703.771   -20.732824   -14.380384   -9.6505016     1945.485    1384.3972     1959.606    1390.0012    30.258423    30.258423    30.258423    14.295864    5.6311454    3.9906272    4.1874582    30.258423    30.258423    30.258423 
 1190000    301.45985   -8492.3962   0.92951489    1366.6051   -20.549878    30794.516   -40665.974    32167.023    14.647823   -8498.2596    26.413336   -849.38915    28056.998   -20.470114   -14.216422   -8.9450755    1938.8955    1401.4765    1952.9639      1407.52    30.386481    30.386481    30.386481    12.457118    6.5558958    1.3687685     3.916878    30.386481    30.386481    30.386481 
 1200000    297.14743   -8525.4673   0.94014567    1458.8458   -20.784905    30666.185   -40664.759    32126.897    18.918723   -8534.6508     29.96847   -383.74525    27739.742   -19.855602   -14.020392   -8.3191049    1908.8091    1407.4267     1922.751    1414.1438    30.271514    30.271514    30.271514    14.261362    6.4673388    3.2922676    3.9781106    30.271514    30.271514    30.271514 
 1210000    283.43201   -8566.6677   0.95096413    1520.7021   -21.024081     30563.85   -40665.171    32081.241    24.335264   -8576.2901    30.646411   -31.943123    27424.166   -19.214761   -13.729212   -8.1588096    1874.0404    1403.4638    1887.6983    1409.8768    30.156283    30.156283    30.156283    13.951913    7.1095822    2.5621781    3.4708138    30.156283    30.156283    30.156283 
 1220000    305.25122   -8593.0504   0.95435837    1491.6775   -21.099122     30568.37   -40667.464    32064.523      16.6229    -8602.755    30.803755    73.998446     27326.63   -19.040445   -13.866195   -8.3789765    1881.2749    1409.3433    1894.9471    1416.0386    30.120489    30.120489    30.120489    14.366614    5.8796591    4.0023419    3.7580526    30.120489    30.120489    30.120489 
 1230000    289.62011   -8608.7628   0.96289375    1507.0542   -21.287823    30531.987   -40666.812    32038.989    21.340211   -8623.6483    36.173301    137.01008    27084.398   -18.916447   -13.891959   -8.3218307    1881.1015    1414.8621    1894.8158    1421.7708    30.031226    30.031226    30.031226    19.008473     8.798247    5.2741936    4.3708225    30.031226    30.031226    30.031226 
 1240000    294.95845   -8521.0867   0.95596911    1502.1772   -21.134732    30628.746   -40665.358    32133.045    19.013418   -8529.3056    29.353664    448.08702    27280.586     -19.0539   -13.502149   -8.0110501    1890.0238    1432.7535    1903.8373    1439.8511    30.103563    30.103563    30.103563    13.347241    6.3268932    4.7962588    1.9928568    30.103563    30.103563    30.103563 
 1250000    299.66266   -8530.2963   0.94912598    1466.2362   -20.983443    30653.236   -40664.565    32116.212    24.243744   -8542.5161    33.203184   -50.977318    27477.278   -19.152546   -12.862208   -7.7945926     1894.056    1449.8618    1907.8457    1457.1294    30.175738    30.175738    30.175738    14.796568    8.5508166    4.2072956    1.6521131    30.175738    30.175738    30.175738 
 1260000    300.72287   -8498.6207   0.94370308    1422.5379   -20.863553    30727.321   -40665.073    32150.663     20.05956   -8510.5574    32.800285   -393.10585    27635.173   -18.911693   -12.367507    -8.341814    1894.5503    1462.8325    1908.3355     1469.985    30.233428    30.233428    30.233428    16.593393    6.4782323    5.9584481    3.5233542    30.233428    30.233428    30.233428 
 1270000    299.45236   -8535.8681   0.95051518    1498.5875   -21.014156    30617.968   -40668.569    32118.767    18.802488   -8549.4648     34.61087    319.07868    27437.119   -19.350385   -12.115758   -8.5389851      1914.44     1470.016     1928.395    1477.3248     30.16103     30.16103     30.16103    16.145276    6.5291703    4.9402393    4.1743434     30.16103     30.16103     30.16103 
 1280000    296.53435   -8483.8683   0.92834083    1471.8079   -20.523921    30694.834   -40665.879    32169.074     18.09159   -8495.2605    31.916042   -184.50373    28092.482   -20.489303   -11.652015   -8.5127382    1981.3121    1506.8892     1995.652    1513.9235    30.399285    30.399285    30.399285    15.368802    7.0164036    3.5130638     3.885932    30.399285    30.399285    30.399285 
 1290000    284.79818    -8523.968   0.94527512    1467.3375   -20.898308    30659.239    -40666.47    32125.353    22.122343   -8536.5127    33.442943    2.7192107    27589.214   -21.637976    -11.16321   -8.1238306    2009.9229    1506.4566    2024.5676     1513.683    30.216659    30.216659    30.216659    15.925353    6.2358361    6.7975378    2.5705018    30.216659    30.216659    30.216659 
 1300000    296.65655   -8505.9941   0.95706499    1475.8233    -21.15896    30669.594   -40663.368    32142.983    23.592801   -8513.2698    28.434646   -40.797602    27249.349   -21.508288   -11.034554   -6.9873468    2001.2521    1517.3982    2015.8429    1524.8853    30.092069    30.092069    30.092069    11.956544    6.5402483    3.1978657    1.8751015    30.092069    30.092069    30.092069 
 1310000    304.05456    -8562.195   0.95556965    1473.5173   -21.125901    30617.531   -40665.937    32089.915    22.258668   -8572.3409    31.271792    56.227872     27291.99   -21.049271   -10.693965   -5.8568983    1974.4434    1525.1589      1988.74    1532.7679    30.107757    30.107757    30.107757    12.694029    6.1745645    2.8877197    3.0407795    30.107757    30.107757    30.107757 
 1320000    308.11821   -8527.6313   0.94558013    1463.2334   -20.905051    30653.088   -40660.942    32113.674    23.551679    -8540.599    33.872782   -226.14854    27580.315   -20.471059   -9.7973346   -5.4645739    1952.5375    1541.9089    1966.6781    1549.9398     30.21341     30.21341     30.21341    16.989883    5.8717674    6.1526147     4.551079     30.21341     30.21341     30.21341 
 1330000     294.0884   -8555.1419    0.9533878    1490.0033   -21.077664    30608.001   -40664.743      32097.9    21.182616   -8562.5061    28.441903    101.46524    27354.449   -19.404256   -8.9669481   -5.2968508    1903.7086     1544.098    1917.5374    1552.3864    30.130707    30.130707    30.130707    11.596066    3.6741292    4.9628365    2.6283701    30.130707    30.130707    30.130707 
 1340000    297.57043   -8544.5895   0.94832629    1470.3326   -20.965763    30637.446   -40668.333     32110.63    18.114368   -8555.4291    31.805302   -196.52697    27500.448   -19.041744   -8.4882946   -4.9407832    1904.4561    1566.4646    1918.2688    1575.1734    30.184218    30.184218    30.184218    15.964514    7.0611012    3.4540878    4.6525771    30.184218    30.184218    30.184218 
 1350000    282.21731   -8531.7948   0.93971477    1466.7459   -20.775378    30653.507   -40664.938    32126.552    14.476685   -8538.5619    27.542461   -253.74582    27752.461   -19.678202   -7.8021323   -3.8109933     1932.982    1586.9557    1947.0041    1595.8285     30.27614     30.27614     30.27614    12.890318    5.0341355    4.0874649     3.375504     30.27614     30.27614     30.27614 
 1360000    293.84646   -8518.1641   0.94486139    1462.6843   -20.889161    30667.105   -40664.565    32134.773    15.905299   -8527.7908    30.515896   -188.25456    27601.295   -20.161168   -7.2423215   -2.8960627    1940.0509     1586.148    1954.1451    1595.0803    30.221069    30.221069    30.221069    16.610992    8.8346084    3.2953022    3.8757141    30.221069    30.221069    30.221069 
 1370000    299.51885   -8517.3853   0.95708925     1590.745   -21.159497    30543.896    -40665.45    32139.066    16.734152   -8523.9776    27.751831    1100.9819    27248.658   -21.004982   -6.7461389   -2.6445932    1954.9157    1574.7767    1969.1695    1583.2325    30.091814    30.091814    30.091814    13.423625    6.2458696    4.0084686    2.7184367    30.091814    30.091814    30.091814 
 1380000    297.28496   -8481.3272   0.95172284    1408.4082   -21.040855    30763.252   -40667.338      32169.7    23.000214   -8491.4408     31.15443   -473.10406    27402.303   -22.218346   -6.1916769   -3.0579253    2014.7822    1593.1195    2029.4875     1601.388    30.148267    30.148267    30.148267    14.351031    7.6286033    3.8461658    2.5088423    30.148267    30.148267    30.148267 
 1390000    303.55395   -8629.5551   0.96433687    1498.3914   -21.319728    30525.723   -40664.666    32027.403     18.03041   -8634.4519      26.2165    192.68308    27043.867   -23.519592   -5.9720013   -3.9544579    2072.0697    1596.1007    2087.2049     1604.458    30.016238    30.016238    30.016238    10.997136    4.3142514     1.938698    3.9214355    30.016238    30.016238    30.016238 
 1400000    295.51388   -8545.9128   0.95169879    1463.6631   -21.040323     30642.52   -40666.594    32107.039    20.184383    -8556.436    31.563538   -82.350653    27402.996   -24.561158   -6.0841057   -4.5975683    2155.7017    1629.4591    2171.3274    1637.0653    30.148521    30.148521    30.148521    14.498002     6.055121     3.949418    3.8348199    30.148521    30.148521    30.148521 
 1410000    291.71313   -8524.7837   0.94377076    1464.2112   -20.865049    30659.567   -40665.648    32127.934    16.709388   -8536.6378    32.719171   -247.30774    27633.191   -25.549462   -6.0761367   -4.3204847     2217.809    1648.0606    2233.9156    1655.9834    30.232706    30.232706    30.232706    17.086246    4.9484769    5.7336626    5.7999712    30.232706    30.232706    30.232706 
 1420000    305.58051   -8516.8842   0.94719599    1481.9361   -20.940775    30643.449   -40658.437    32130.429    15.896923    -8525.988    30.044591     224.7049    27533.265   -26.077676   -6.1905953   -3.7182286    2252.8359    1659.2786    2269.3015    1667.1032    30.196219    30.196219    30.196219    16.167862    10.002196    1.8670073    3.7433103    30.196219    30.196219    30.196219 
 1430000     293.6135   -8573.3608   0.95471041    1441.8301   -21.106905     30643.84   -40668.263    32083.521    23.256215   -8578.5419    26.288003   -485.49955    27316.553   -26.318692   -6.3496773   -2.8477549    2267.1866     1661.899      2283.73    1669.5316    30.116787    30.116787    30.116787    9.2321573    4.7852626    2.5666888    1.5615675    30.116787    30.116787    30.116787 
 1440000    295.76675    -8549.744   0.95166626    1491.4077   -21.039604    30610.466   -40664.049    32100.213    22.700301   -8557.6986    28.994217    47.527095    27403.932   -26.295558   -6.5730939   -1.8553146    2276.9168    1671.4668     2293.493    1679.0983    30.148865    30.148865    30.148865    12.431148    4.8299414    3.1248592    3.7759038    30.148865    30.148865    30.148865 
 1450000     295.7397   -8499.7143   0.93364384    1507.8606   -20.641161    30638.352   -40660.887    32145.572    21.282483   -8510.3963    31.323165   -73.535609    27932.919   -26.452266   -6.8373528   -1.2997636    2322.8552    1706.0621    2339.6971    1713.3405    30.341621    30.341621    30.341621    14.959625     9.950175    3.0375247    1.6916411    30.341621    30.341621    30.341621 
 1460000    304.03202   -8477.3718   0.94728884    1421.9026   -20.942827    30750.568   -40666.416    32172.339    21.074472    -8490.109    33.680014   -465.58699    27530.566   -26.884518   -7.3753963   -1.1903144    2342.2139    1699.1487    2359.2163    1706.6692    30.195233    30.195233    30.195233    16.574381    5.9955371    7.2702041    2.7521198    30.195233    30.195233    30.195233 
 1470000    290.53694   -8610.7617   0.96299494    1563.8665   -21.290061    30483.403    -40668.79    32051.879    16.680498   -8615.6962    26.224579    846.35525    27081.552   -27.039295   -8.3819431  -0.77827249     2352.363    1687.1534     2369.491    1694.4033    30.030174    30.030174    30.030174    10.758797     5.676427    3.3059434    1.5302567    30.030174    30.030174    30.030174 
 1480000    300.78083   -8582.9214   0.95183649    1486.6542   -21.043368    30584.124   -40668.354    32073.967    17.854859   -8593.0423    31.164274    158.83557    27399.031   -27.446437   -9.0038676  -0.12712495    2406.0276     1711.473    2423.5755    1718.7196    30.147067    30.147067    30.147067    14.654005    7.9434272    3.9822697    2.2653375    30.147067    30.147067    30.147067 
 1490000    294.82417   -8515.8157   0.96414722    1506.7413   -21.315535    30630.416    -40664.69    32131.997    26.476319   -8526.1603    31.660165    368.54167    27049.186    -27.96244   -8.8732161    0.9327981    2439.1323    1714.8777    2456.9184    1721.5697    30.018206    30.018206    30.018206    11.716196    5.5661792    4.1272123    1.5762152    30.018206    30.018206    30.018206 
 1500000    289.15974   -8532.1553   0.96029034    1502.1593   -21.230267    30618.108   -40666.815    32119.048     22.44879    -8542.818    31.892955     187.1518    27157.826   -28.815452   -8.3100237    3.1508843    2510.5667     1730.096    2528.9459    1736.7784    30.058341    30.058341    30.058341     14.39284    5.5878934    4.5792909    3.4822222    30.058341    30.058341    30.058341 
 1510000    300.99943   -8561.3488   0.94065495    1466.7911   -20.796164    30622.328   -40664.739    32095.093    14.823024     -8568.79    28.237371   -375.38401    27724.723   -29.951122   -8.5724359    4.8425552    2640.2961    1774.3382    2659.6139    1780.9165     30.26605     30.26605     30.26605    14.270164    7.7388858    2.7251081     3.391495     30.26605     30.26605     30.26605 
 1520000    301.82429   -8597.0704   0.95981478    1491.1193   -21.219753    30565.502   -40667.551    32050.042    27.798052   -8609.6216    33.770938    102.25394    27171.282   -30.340956    -9.046208    5.1911404    2679.0691    1779.1265    2698.6517    1785.3148    30.063304    30.063304    30.063304    13.859343    6.3144256    3.3943492    3.8682004    30.063304    30.063304    30.063304 
 1530000     291.9513   -8562.3288   0.95997131    1551.5062   -21.223214    30539.821   -40664.867    32090.762     21.78897   -8569.6123    28.506707    633.32717    27166.851   -30.802923   -9.1775136    5.1712167    2710.3886    1781.8826    2730.1049    1787.8102     30.06167     30.06167     30.06167     11.21037    5.0370483    3.4966538    2.2942143     30.06167     30.06167     30.06167 
 1540000    295.78752   -8582.8352   0.95971277    1636.5604   -21.217498     30431.03   -40667.519    32070.155    18.652335    -8594.717    33.099226    1330.0924     27174.17   -31.452886   -9.0627614    4.8669161    2755.5325      1794.22    2775.5984    1799.9587    30.064369    30.064369    30.064369    17.093768    7.3570604    3.7570456    4.7519657    30.064369    30.064369    30.064369 
 1550000    300.91537   -8492.8607   0.94885087     1360.847   -20.977361     30794.15   -40663.918    32149.595    26.379651   -8506.8173     34.93393   -1012.1509    27485.244   -32.395812   -8.7888373    4.6923773    2826.3232    1815.8265    2846.8682     1821.618    30.178654    30.178654    30.178654    16.060396    6.1345875    4.5260903    4.2454898    30.178654    30.178654    30.178654 
 1560000    307.77725   -8491.3772   0.94227065    1490.2494   -20.831884    30670.579   -40664.677    32163.074    18.585605   -8498.3872    27.841926    185.04137    27677.184   -32.839336   -8.3936165    5.2294896    2874.2331    1834.5082    2895.2097    1840.0433    30.248741    30.248741    30.248741    12.472071    5.6900561    1.7086815    4.0043308    30.248741    30.248741    30.248741 
 1570000    306.72516   -8546.6359   0.94644183    1454.7979   -20.924102    30652.826   -40664.379    32102.936    25.611126   -8554.1178    28.406045   -328.34857    27555.204   -33.327917   -7.8638969    5.4822838    2903.2249     1837.116    2924.4217    1841.9791    30.204238    30.204238    30.204238    10.120103     5.227387    1.2262991    3.2980825    30.204238    30.204238    30.204238 
 1580000    302.82853   -8549.4465   0.95351244    1486.8464    -21.08042    30612.618   -40664.719     32097.91    22.634921   -8561.0051    32.638954   -90.640956    27350.873   -34.598636    -6.891204    5.7897488    2973.2856    1833.2507    2994.9885    1837.9965    30.129394    30.129394    30.129394    15.807942    6.9528359    3.2507128    4.8617156    30.129394    30.129394    30.129394 
 1590000    292.73336   -8635.5833   0.97174927    1497.5566   -21.483603    30518.704   -40666.282     32017.79    19.953901   -8644.2626    30.162942    46.380893    26837.579   -35.723718   -6.1760558    6.4646859    3039.9864    1821.4955    3062.0699    1825.4335    29.939723    29.939723    29.939723    14.437745    5.1834236    2.5410622    5.4298419    29.939723    29.939723    29.939723 
 1600000    296.37839    -8574.222   0.94905013    1541.9604   -20.981766    30541.226   -40669.067    32089.803     14.36485   -8578.7752    25.534898    430.43407    27479.473   -36.980226   -6.6156223     6.669971    3171.0673    1858.0781    3194.2128    1861.9391    30.176542    30.176542    30.176542    11.658408    6.0575927    2.1738667    2.7596469    30.176542    30.176542    30.176542 
 1610000    315.02076      -8582.4   0.93859946    1471.3714   -20.750721    30597.897   -40666.649    32072.957    17.062832   -8591.2628    29.613512   -270.04347    27785.439   -37.542958   -7.3586066    6.0818163    3234.5898    1884.9899    3258.2447    1888.6802    30.288127    30.288127    30.288127    14.980506     4.561109    4.3329433    4.7629844    30.288127    30.288127    30.288127 
 1620000     290.5446   -8512.3524   0.95835507    1478.8454   -21.187482    30661.626   -40663.543    32141.191    20.467425   -8518.6105    27.445602    289.87209    27212.667   -37.413942    -8.002873    5.1691116    3202.9406     1867.963    3226.3311     1870.916     30.07856     30.07856     30.07856    10.719516    4.8934807    3.0090984    2.4327284     30.07856     30.07856     30.07856 
 1630000    296.18288   -8489.5625   0.93630139    1458.0319   -20.699915    30705.111   -40663.011    32167.393    16.449529   -8493.9869    25.124343   -107.48987    27853.636   -38.542429    -8.444961    4.5979165    3328.8809    1915.7559    3353.2087    1919.4606    30.312887    30.312887    30.312887    10.305142     3.902511    2.2829995    3.6207191    30.312887    30.312887    30.312887 
 1640000    303.33041     -8553.55   0.95515046    1405.8243   -21.116633    30696.178   -40667.959    32101.734    21.384696   -8560.7125    28.279099   -586.79206    27303.968   -39.303559   -8.5018073    4.3378645    3377.3658    1910.0505    3402.0085    1912.9471    30.112161    30.112161    30.112161    12.407134    5.6238305    2.6309295    3.5590363    30.112161    30.112161    30.112161 
 1650000    298.01605   -8585.8612   0.96096768    1465.6051   -21.245242    30603.295   -40666.567    32068.718    21.427616   -8593.8453    29.229289    63.234437    27138.684   -39.778925   -8.4327761    4.6274899    3419.2225    1912.8649    3444.1898    1915.3413    30.051277    30.051277    30.051277    11.806003    6.3148799    2.9352007    2.0877224    30.051277    30.051277    30.051277 
 1660000    298.76527   -8520.4887    0.9465511    1455.0382   -20.926517    30676.103   -40665.229    32135.226    16.841855   -8529.3923    29.830101   -97.896055    27552.023   -39.984164   -9.0693749    4.7315871    3467.9634    1936.9232    3493.3136    1939.5538    30.203075    30.203075    30.203075    13.599335    6.8642129    2.4076415    3.6205888    30.203075    30.203075    30.203075 
 1670000    288.72642   -8572.4543   0.95260891    1502.5949   -21.060444    30575.292   -40665.848    32076.944    22.003404   -8582.6478    31.253982   -133.70604    27376.815   -39.705417   -10.026952    4.4711379    3464.1899    1941.3907    3489.4777    1943.8795    30.138917    30.138917    30.138917    15.507243    6.4315475    5.2049303     3.422169    30.138917    30.138917    30.138917 
 1680000    287.98001   -8536.0939   0.95130028    1508.1453   -21.031513    30612.928   -40668.026    32120.884    21.220945   -8542.5984    27.535947    316.32308    27414.475   -39.806137   -10.947078    4.1202328    3484.8286    1942.8011    3510.2249    1945.5103     30.15273     30.15273     30.15273    10.858453     6.271896    2.0954198    2.2421014     30.15273     30.15273     30.15273 
 1690000    295.33741    -8554.867   0.93380702    1439.1717   -20.644769    30658.529   -40663.928    32100.248    18.097595   -8561.4451    27.222861    -545.4315    27928.038   -40.335709   -11.823723    3.7963043    3575.1034    1979.3366    3601.2511    1981.5333    30.339853    30.339853    30.339853    11.360844    4.8086352    2.7054822    3.3743418    30.339853    30.339853    30.339853 
 1700000    305.68627   -8477.6595   0.95147077    1430.6675   -21.035282    30742.539    -40664.87     32172.58    21.661377   -8487.0836    30.459377   -255.19995    27409.563    -40.47178   -11.977125    4.6549704    3596.9572    1975.8978    3623.2432     1978.152    30.150929    30.150929    30.150929     14.00424    7.1466879    3.2294281    3.2193334    30.150929    30.150929    30.150929 
 1710000    297.48058    -8657.132   0.96310017    1530.2469   -21.292387    30463.434   -40663.891    31993.422    21.552025   -8665.2449    29.405265    161.98736    27078.593   -40.328513   -11.544636    6.2795018    3591.2091    1965.7477    3617.4234    1967.8286     30.02908     30.02908     30.02908    13.077651     5.559286    2.4966082     4.177888     30.02908     30.02908     30.02908 
 1720000    296.40782   -8473.5415   0.95272491    1470.9822   -21.063009    30699.522   -40662.179    32177.194    14.374051   -8484.3977    31.919217    164.50226    27373.482   -40.527689   -11.147834    6.4834372    3628.2506    1991.8976    3654.7335    1993.7806    30.137694    30.137694    30.137694    18.133242    10.214548    4.0890751    3.2249304    30.137694    30.137694    30.137694 
 1730000    298.32842    -8538.323   0.95283117    1513.2353   -21.065358    30599.021   -40667.963    32110.569    22.752492   -8553.3838    36.126211     413.7583    27370.429    -40.96433   -10.645979    5.8546422    3644.2966    1994.2401    3670.8601    1995.5339    30.136573    30.136573    30.136573    17.383128    7.4087936    5.2116252    4.1616289    30.136573    30.136573    30.136573 
 1740000     292.5235   -8533.4583   0.96226587    1422.5171   -21.273942    30694.949   -40665.053    32115.065      23.6748   -8544.3411    32.156811   -221.40644    27102.071   -41.812524   -10.438684    5.5551395    3698.0124    1990.5553      3724.99    1991.8616    30.037757    30.037757    30.037757    14.129122    7.7690365    1.8633781    4.0317039    30.037757    30.037757    30.037757 
 1750000    297.36656   -8559.3135   0.96197991    1459.1787    -21.26762    30629.316   -40665.058    32083.311    26.451449   -8573.6677    35.621832   -456.35862    27110.127   -43.031631   -10.872292    5.3648785    3813.8229    2002.6428    3841.7154    2003.6703    30.040733    30.040733    30.040733    17.249251     9.508398    3.9054213    3.3387946    30.040733    30.040733    30.040733 
 1760000    299.58012   -8567.8435   0.93954411    1540.9638   -20.771606    30542.831   -40666.243    32085.229    19.337117   -8579.1974    32.125446    364.84758    27757.502   -44.430963   -11.474836    5.1062452    3979.7182    2045.0179    4008.7651    2045.4536    30.277973    30.277973    30.277973    14.604244    8.7573088    1.8144476    3.6636495    30.277973    30.277973    30.277973 
 1770000    306.17724   -8515.9455   0.95011247    1522.2228   -21.005253     30614.42   -40668.806    32136.729     20.91974   -8527.7083    32.768018    509.70513    27448.748   -44.781506   -11.747579    4.3586555    4005.5474    2046.0156    4034.8557     2046.701    30.165291    30.165291    30.165291    16.217712    6.6708883    3.5590366    5.0820434    30.165291    30.165291    30.165291 
 1780000    302.96895    -8523.819   0.95578101    1499.2262   -21.130574    30631.575   -40667.052    32124.765    27.166537    -8534.534    31.845527    234.84471    27285.955   -44.476058    -11.85792     3.505483    3984.4691    2057.9355    4013.5816     2058.469    30.105538    30.105538    30.105538     12.43212    4.7484937    3.8104075    3.2760491    30.105538    30.105538    30.105538 
 1790000     295.1503    -8534.198   0.95620847    1450.0592   -21.140024    30663.875   -40666.771    32117.577    17.497032   -8545.6524    32.594476    -301.5952    27273.757    -43.93052   -11.994915    2.7076987    3944.8127    2071.1853    3973.6472    2072.6215    30.101051    30.101051    30.101051    18.638299    10.303557    4.3356706    3.5780018    30.101051    30.101051    30.101051 
 1800000     303.2076   -8486.1127   0.94015206    1424.9551   -20.785046    30736.558    -40664.37    32166.598    15.700051   -8498.5618    33.234203   -101.06155    27739.553     -43.3694   -12.139777    1.9112405    3935.2052    2112.1526    3963.9419    2113.3211    30.271445    30.271445    30.271445    16.743954    5.8453841    8.8092882    1.8098109    30.271445    30.271445    30.271445 
 1810000    301.41376   -8565.7708   0.94558972    1549.2753   -20.905263    30539.082   -40667.666    32090.921    18.341879   -8573.6409    28.775372     418.5719    27580.035   -43.222377   -12.570846    1.8871906    3924.6258    2105.0717    3953.2344    2106.6064    30.213308    30.213308    30.213308    13.537507    6.6806182    3.3926953    2.7366106    30.213308    30.213308    30.213308 
 1820000    292.41027    -8573.943   0.95658209    1517.6887   -21.148284    30557.979   -40663.328    32076.191    20.624921   -8582.9566    30.161866    103.60552    27263.105   -43.169814   -12.495243    2.7294502    3909.9229    2089.4201    3938.4307    2091.1381    30.097131    30.097131    30.097131     13.71739    7.6140705    2.9592513    2.8059389    30.097131    30.097131    30.097131 
 1830000    294.94923   -8528.9349   0.95523406     1420.441   -21.118482    30703.015   -40663.318    32122.748    21.826804   -8535.5668    27.750434    -407.8177    27301.579   -43.351022   -12.090016    3.3924442    3936.3368    2103.6749    3965.1285    2104.8399    30.111282    30.111282    30.111282    10.927138      3.79045    2.4100475    3.9155865    30.111282    30.111282    30.111282 
 1840000    311.60981    -8452.537   0.93140139    1386.0453   -20.591585    30812.925   -40664.359    32201.712    17.849209   -8459.3749    27.429509   -707.56089    28000.171   -43.938687    -12.71077    3.8007995    4052.8133    2151.2283    4082.4022    2152.7069    30.365951    30.365951    30.365951    12.852443    4.6064881    2.6121542    5.0165962    30.365951    30.365951    30.365951 
 1850000    296.52767   -8486.7495   0.97271927    1492.9616   -21.505048    30668.373   -40664.819    32162.534    20.305372   -8498.3608    33.116411    530.63976    26810.816   -43.518625   -13.162917    4.1304302    3979.4573    2099.4866     4008.484    2100.7295    29.929768    29.929768    29.929768    16.735398    6.0180369    6.2021056    3.7547508    29.929768    29.929768    29.929768 
 1860000    297.70774    -8561.461   0.94668438    1473.2296   -20.929464    30612.825   -40663.518    32089.948    17.035839   -8571.9543    31.422744   -148.83811    27548.144   -44.119095   -13.742222    4.6756243    4109.8985    2157.5522    4139.8937    2158.4316    30.201658    30.201658    30.201658    16.003148    6.8509723    4.5117873    3.8093945    30.201658    30.201658    30.201658 
 1870000    291.73938   -8543.7338   0.95230108    1459.5807   -21.053639    30648.324    -40663.81    32111.372    17.586503   -8550.0679    27.387737   -12.384014    27385.664   -44.502992   -13.703874    4.5056141    4143.1855    2161.0422    4173.4829    2162.4706    30.142164    30.142164    30.142164    12.171923    6.8729556    2.1441325     2.568291    30.142164    30.142164    30.142164 
 1880000    284.60691   -8594.3552   0.95993092    1508.2998   -21.222321    30549.766   -40666.048    32054.217    25.071145   -8605.0775    31.944642    32.805357    27167.994   -44.696251   -13.092861     3.768342    4140.3086    2165.1489    4170.5717    2165.5895    30.062092    30.062092    30.062092    13.627319    7.3594804    2.8983408    2.7889283    30.062092    30.062092    30.062092 
 1890000    307.07067   -8591.0278   0.94230215    1454.0062   -20.832581    30606.563   -40664.145    32057.136    24.265968   -8601.0973    30.902104   -495.45465    27676.258   -45.689707   -12.254169     3.010502    4233.8787     2199.022    4264.7819    2199.3357    30.248404    30.248404    30.248404    12.548674      8.04837    2.9369753    1.3016826    30.248404    30.248404    30.248404 
 1900000    298.24639   -8470.8716   0.95610039    1437.1507   -21.137635    30743.124   -40664.565     32178.83    22.582361    -8481.466    31.732112    195.13528    27276.841   -46.415657   -11.231694    2.5182278    4265.8019    2192.6825    4296.9841    2192.8034    30.102185    30.102185    30.102185    13.419077    5.0956117    4.1431257    3.5332336    30.102185    30.102185    30.102185 
 1910000    307.24642    -8524.994   0.95811949    1458.2072   -21.182273     30668.01   -40665.103    32126.055    21.344561   -8534.7603    30.948621    22.218646    27219.358   -47.551816   -10.380553    1.8186583    4348.4875    2196.7072    4380.3023    2196.4748    30.081025    30.081025    30.081025    13.891526    8.4528484    3.0925655    1.9463519    30.081025    30.081025    30.081025 
 1920000    299.75636   -8559.6904   0.95173733    1448.9132   -21.041175    30643.916    -40666.36    32096.498     17.37177   -8568.5954    29.946176   -189.36253    27401.886   -48.237116   -10.136456   0.38658905     4415.646    2214.1884    4447.8389    2213.2191    30.148114    30.148114    30.148114     13.84041    5.4738541    2.6403038    5.0651892    30.148114    30.148114    30.148114 
 1930000     289.5093   -8464.6655   0.94472806     1441.288   -20.886213    30742.457   -40666.285    32178.509    26.122537   -8481.0404    37.261162   -242.23262     27605.19   -48.560289   -9.9152914  -0.35925887    4458.3367    2233.5518     4490.935    2233.2313     30.22249     30.22249     30.22249    17.874375    8.7570479    6.0226164    2.4726626     30.22249     30.22249     30.22249 
 1940000    283.51886   -8536.7752   0.98287957    1512.2706   -21.729673    30601.523   -40666.944    32113.135    22.388811   -8547.5865    32.540934    652.72154    26533.666   -47.510113   -9.8589251  -0.14949957    4319.8388    2191.0836    4351.3776    2191.5776     29.82628     29.82628     29.82628     16.37511    7.7258183    2.9633056    4.6838482     29.82628     29.82628     29.82628 
 1950000    301.28052     -8568.59   0.94128607    1462.9695   -20.810117    30618.248   -40663.664    32081.746    20.281889   -8577.1372    29.357339   -324.60766    27706.134   -47.761208   -10.228391   0.40731379    4417.0842    2255.9819    4449.3316    2257.0191    30.259284    30.259284    30.259284    13.856494    5.3398725    4.4599876     3.480813    30.259284    30.259284    30.259284 
 1960000    304.12261   -8474.1453    0.9734745     1522.179   -21.521744    30657.892   -40668.573    32175.388    26.204654   -8486.0898    33.466225    753.25755    26790.017   -46.544036   -9.9995703   0.68763034    4266.2611    2218.6102    4297.4816    2219.1736    29.922026    29.922026    29.922026    14.356474     4.137305    6.2348644    3.6252619    29.922026    29.922026    29.922026 
 1970000    299.85042   -8621.8312   0.95233619    1483.2711   -21.054415    30548.955    -40670.01    32032.381    20.899849   -8633.0822    32.305383   -96.036431    27384.655   -46.533866   -9.8724906    0.2645881     4311.349    2266.7527    4342.8064    2268.1144    30.141794    30.141794    30.141794    15.952921    8.9421875    2.4639188    3.9341368    30.141794    30.141794    30.141794 
 1980000    302.18377   -8538.4062   0.96039169    1482.4063   -21.232508    30635.138   -40669.133    32118.565    20.211512   -8547.1323    29.958623    119.06315     27154.96   -45.831557   -9.7615732  -0.33276075    4234.9872    2256.5176    4265.9825    2258.3193    30.057283    30.057283    30.057283    13.183453    7.3995157    3.2600516    2.1090241    30.057283    30.057283    30.057283 
 1990000    299.25159   -8495.7922   0.93891797    1388.8752   -20.757763    30768.279     -40668.1    32162.904    15.008153   -8505.4125    30.378013   -548.43067    27776.013   -45.505043   -9.8417285   -0.5066459    4259.0328    2309.5726    4290.1221     2311.641    30.284702    30.284702    30.284702     15.15426    6.8122732    6.2817471    1.6791893    30.284702    30.284702    30.284702 
 2000000    305.86052   -8576.6841   0.94758458    1526.2835   -20.949366    30547.723    -40667.27     32071.43    23.525978   -8590.3943    34.659551    129.46682    27521.974   -44.831773   -10.744285    0.1072547    4221.5495    2312.2075    4252.3453    2314.1538    30.192091    30.192091    30.192091     16.57935    6.1909867    5.0553749    4.6778564    30.192091    30.192091    30.192091 
 2010000    299.57838   -8591.7208   0.95969928    1530.6607   -21.217199     30530.42   -40665.712    32058.359    23.938886   -8602.1203    31.616688    397.93442    27174.552   -44.692798   -11.771509   0.94701692    4234.2186    2312.6611    4265.1413     2314.925     30.06451     30.06451     30.06451    12.910332    7.4279519    2.4972176     2.802019     30.06451     30.06451     30.06451 
 2020000    302.40111   -8445.1008    0.9561806    1566.0724   -21.139408    30642.445   -40666.406     32210.24    19.417415   -8453.5131    29.551705    1251.1118    27274.552   -44.803952   -12.438442    2.1813205    4276.7075    2322.3583    4307.9171    2324.8481    30.101343    30.101343    30.101343    12.787272    5.0092006    5.8339016    1.7820085    30.101343    30.101343    30.101343 
 2030000    309.41151   -8524.8586   0.94527299    1492.3803    -20.89826    30626.396   -40661.785    32123.781    15.893927   -8537.3769    33.416564     402.3237    27589.277   -44.475189    -12.79446    3.0990402    4296.9294     2353.093    4328.3381    2355.8634    30.216682    30.216682    30.216682    18.150041     8.145931    3.5615224    5.4734741    30.216682    30.216682    30.216682 
 2040000    303.21679   -8592.8149   0.96332594    1432.1805   -21.297378    30624.054   -40665.114    32056.361    21.171306   -8604.0931    32.575549   -276.81929    27072.247   -43.198369   -13.185572    2.7307656    4171.1259     2328.644    4201.5545    2331.3805    30.026734    30.026734    30.026734    16.064864    8.3604756     2.026602    4.9006138    30.026734    30.026734    30.026734 
 2050000    295.34502   -8601.3748   0.94560293     1495.991   -20.905555    30554.368   -40666.357    32053.516    17.749085   -8611.2072    30.737903    74.673547     27579.65   -42.995899   -13.814024    2.2670095    4214.3433    2378.9583    4245.1339    2381.8623    30.213167    30.213167    30.213167    14.622565    5.9732259    5.6569356    2.7544602    30.213167    30.213167    30.213167 
 2060000     296.5758   -8593.2112   0.94713811    1524.3073   -20.939495    30529.477   -40666.668    32059.538     15.18574   -8605.4543    33.182629    95.747767    27534.947   -43.735284   -13.759127    1.7455167    4277.7255    2387.1851    4309.0028    2390.7215    30.196834    30.196834    30.196834     19.67167     8.912887    4.4758839     5.504992    30.196834    30.196834    30.196834 
 2070000    300.53178   -8487.1827   0.95080544    1460.7698   -21.020573    30704.754   -40665.418    32165.935    20.609494   -8494.9466    28.784403    21.089743    27428.743   -44.330128    -13.57094    1.2479576    4332.7024    2400.3722    4364.3503    2403.6134     30.15796     30.15796     30.15796    12.711596    5.1526339    3.5046266    3.6153919     30.15796     30.15796     30.15796 
 2080000    306.44287   -8555.2047   0.95857509    1446.6432   -21.192346    30646.328   -40665.642    32089.061    25.102291   -8569.1942    35.181889   -363.81777    27206.421    -44.42375   -13.572614     0.654641    4328.8453    2393.8122    4360.4616    2396.5317    30.076258    30.076258    30.076258    17.465738    8.1769171    4.0762051    4.9085014    30.076258    30.076258    30.076258 
 2090000     300.2283   -8584.1809   0.94009718    1515.3961   -20.783833    30548.427   -40661.161    32065.852    18.755005   -8592.1936    28.796599   -20.385023    27741.172   -44.884815   -13.655264  -0.10936538    4409.9741    2437.7115     4442.284    2440.2766    30.272034    30.272034    30.272034    13.157133    7.6091167    3.1621422     2.081064    30.272034    30.272034    30.272034 
 2100000    316.66845   -8523.2037   0.95284029     1433.685    -21.06556    30690.095   -40665.446    32125.682     19.16377   -8537.5504    35.412204   -150.39629    27370.167   -45.390524   -13.602044   -1.1677168    4438.0978     2426.985    4470.4927    2429.3171    30.136477    30.136477    30.136477    18.461729    10.076273    4.8949443    2.8839658    30.136477    30.136477    30.136477 
Loop time of 5183.01 on 20 procs for 2100000 steps with 2611 atoms

Pair  time (%) = 3019.16 (58.2511)
Bond  time (%) = 3.89445 (0.0751388)
Kspce time (%) = 1306.2 (25.2015)
Neigh time (%) = 123.562 (2.38398)
Comm  time (%) = 235.572 (4.54509)
Outpt time (%) = 1.18892 (0.0229389)
Other time (%) = 493.438 (9.5203)

Nlocal:    130.55 ave 142 max 113 min
Histogram: 2 0 2 3 0 0 4 3 1 5
Nghost:    5873.3 ave 5940 max 5797 min
Histogram: 2 1 1 2 2 4 3 2 1 2
Neighs:    71515.8 ave 84848 max 59970 min
Histogram: 2 2 4 3 1 1 1 2 2 2

Total # of neighbors = 1430315
Ave neighs/atom = 547.804
Ave special neighs/atom = 2.06281
Neighbor list builds = 51890
Dangerous builds = 0
System init for write_data ...
PPPM initialization ...
  G vector (1/distance) = 0.259891
  grid = 24 24 24
  stencil order = 5
  estimated absolute RMS force accuracy = 0.00166811
  estimated relative force accuracy = 5.02348e-06
  using double precision FFTs
  3d grid and FFT values/proc = 4332 1152
