LAMMPS data file via write_data, version 15 May 2015, timestep = 1009000

2593 atoms
6 atom types
1728 bonds
4 bond types
864 angles
3 angle types
0 dihedrals
3 dihedral types
0 impropers
1 improper types

-1.5078186387255908e+01 1.5078186387255908e+01 xlo xhi
-1.5078186387255908e+01 1.5078186387255908e+01 ylo yhi
-1.5078186387255908e+01 1.5078186387255908e+01 zlo zhi

Masses

1 15.9994
2 1.00794
3 12.0107
4 1.00794
5 12.0107
6 12.0107

Bond Coeffs # harmonic

1 1000 1
2 469 1.4
3 367 1.08
4 469 0.7

Angle Coeffs # harmonic

1 100 109.47
2 35 120
3 63 120

Dihedral Coeffs # opls

1 0 7.25 0 0
2 0 7.25 0 0
3 0 7.25 0 0

Improper Coeffs # cvff

1 2.5 -1 2

Atoms # full

1747 583 1 -8.1999999999999995e-01 -6.7575694749561688e+00 -1.1672664260273422e+01 -9.5928333260464296e+00 -1 0 -1
522 174 2 4.0999999999999998e-01 -1.4390454182507776e+01 -1.1119089836508998e+01 -1.1062407472391158e+01 2 3 0
1749 583 2 4.0999999999999998e-01 -7.3429596685580494e+00 -1.0943988066471269e+01 -9.9482727780980333e+00 -1 0 -1
1748 583 2 4.0999999999999998e-01 -5.8047105241016350e+00 -1.1369433023595848e+01 -9.6027582407469847e+00 -1 0 -1
300 100 2 4.0999999999999998e-01 -1.0488023673901454e+01 -1.2155679393463595e+01 -1.1468342711570516e+01 -2 3 2
524 175 2 4.0999999999999998e-01 -1.1941285452700015e+01 -1.2821565138805862e+01 -1.4497830366973012e+01 -3 1 2
2485 829 1 -8.1999999999999995e-01 -8.9426374035575584e+00 -1.1702365161681350e-01 -1.3309179934762913e+01 -1 1 1
299 100 2 4.0999999999999998e-01 -1.1535797840771725e+01 -1.1120937680692396e+01 -1.2174085583277675e+01 -2 3 2
298 100 1 -8.1999999999999995e-01 -1.0598631467754835e+01 -1.1469550562090522e+01 -1.2187356619740850e+01 -2 3 2
1086 362 2 4.0999999999999998e-01 -9.1732462615875789e+00 -1.0440717176582037e+01 -1.1678635149566389e+01 1 1 0
1084 362 1 -8.1999999999999995e-01 -8.7739088804326197e+00 -9.8393421216697394e+00 -1.0986634020982944e+01 1 1 0
1085 362 2 4.0999999999999998e-01 -8.6900287980642865e+00 -8.9143506179676493e+00 -1.1357231825022893e+01 1 1 0
1337 446 2 4.0999999999999998e-01 -1.1042510759805738e+01 -1.1990487665987459e+01 -8.9339061054595827e+00 -1 0 -1
719 240 2 4.0999999999999998e-01 -9.9642123842787882e+00 -8.0026898108800459e+00 -1.4994539845605040e+01 3 -1 2
549 183 2 4.0999999999999998e-01 -8.8411127609016091e+00 -1.4109381070960202e+01 -1.4106593476916675e+01 0 -1 2
1721 574 2 4.0999999999999998e-01 -9.1762551957312581e+00 -1.4033424299127722e+01 -8.2395755306620604e+00 1 2 2
1336 446 1 -8.1999999999999995e-01 -1.1985575390955978e+01 -1.1810718091739272e+01 -9.2137272137387409e+00 -1 0 -1
1338 446 2 4.0999999999999998e-01 -1.2269291806887255e+01 -1.0914440391881385e+01 -8.8728765881483334e+00 -1 0 -1
609 203 2 4.0999999999999998e-01 -6.8292863033554774e+00 -1.0893710136179159e+01 -1.3589503166581967e+01 -1 0 1
1345 449 1 -8.1999999999999995e-01 -1.3552534131482052e+01 -1.1983003081556294e+01 -1.2819108326687132e+01 0 1 0
718 240 1 -8.1999999999999995e-01 -1.0733524535642086e+01 -7.5148463253921962e+00 -1.4582040853314775e+01 3 -1 2
470 157 2 4.0999999999999998e-01 -5.8973516941133362e+00 -3.2399457943742718e+00 -1.4039828250893228e+01 -1 2 2
2453 818 2 4.0999999999999998e-01 -1.4155769575432812e+01 -8.9567569073868860e+00 -1.0275408057925361e+01 -3 0 0
2503 835 1 -8.1999999999999995e-01 -8.7055750406649999e+00 -7.5095527917812204e+00 -1.2346964289026204e+01 -1 1 1
471 157 2 4.0999999999999998e-01 -6.3558806888184574e+00 -4.4524373329384659e+00 -1.5032909085859524e+01 -1 2 2
607 203 1 -8.1999999999999995e-01 -6.8918603111818797e+00 -1.0120999624187156e+01 -1.4221160371429805e+01 -1 0 1
219 73 2 4.0999999999999998e-01 -1.0295353101242462e+01 -1.0835640864192968e+01 -1.3954857644049220e+01 -3 1 -1
964 322 1 -8.1999999999999995e-01 -9.1264142381690743e+00 -5.1399536599926350e+00 -1.4273679065629484e+01 -1 -1 1
1719 573 2 4.0999999999999998e-01 -1.3656732696163427e+01 -8.1098908876188833e+00 -1.3339806961379578e+01 -1 1 2
2392 798 1 -8.1999999999999995e-01 -1.0499421781892117e+01 -1.4769890992426721e+01 -1.1322993155848117e+01 0 4 0
1725 575 2 4.0999999999999998e-01 -1.2469403422825758e+01 -1.4340766426984029e+01 -1.3633559405447020e+01 0 -2 2
1206 402 2 4.0999999999999998e-01 -1.2923706742322679e+01 -6.3899914775021802e+00 -9.2104011907656371e+00 0 0 1
134 45 2 4.0999999999999998e-01 -8.6288708755929715e+00 -8.8705111641107433e+00 -9.4862024560515295e+00 -1 3 2
133 45 1 -8.1999999999999995e-01 -8.4927003255034883e+00 -8.5986258054412250e+00 -8.5335620234441372e+00 -1 3 2
2394 798 2 4.0999999999999998e-01 -9.8910759103480146e+00 -1.4978599438634914e+01 -1.2088724140571639e+01 0 4 0
1498 500 1 -8.1999999999999995e-01 -6.3625730867734855e+00 -1.2568368323596861e+01 -1.2323635266236703e+01 3 1 2
2454 818 2 4.0999999999999998e-01 -1.3156907494578553e+01 -7.9627388524841294e+00 -1.1100512144309793e+01 -3 0 0
2452 818 1 -8.1999999999999995e-01 -1.3536846777752181e+01 -8.1749244144404631e+00 -1.0200172607904452e+01 -3 0 0
1500 500 2 4.0999999999999998e-01 -6.2046649874350308e+00 -1.3545849286501713e+01 -1.2463577557789352e+01 3 1 2
1347 449 2 4.0999999999999998e-01 -1.3282282306246294e+01 -1.2773274805201311e+01 -1.2269178863204178e+01 0 1 0
1499 500 2 4.0999999999999998e-01 -6.3052955044234373e+00 -1.2357843827219103e+01 -1.1347732316376494e+01 3 1 2
1723 575 1 -8.1999999999999995e-01 -1.2800710966281493e+01 -1.4659504360272015e+01 -1.2745511370470293e+01 0 -2 2
1724 575 2 4.0999999999999998e-01 -1.2043230096459965e+01 -1.4674102004188684e+01 -1.2092826523365421e+01 0 -2 2
1092 364 2 4.0999999999999998e-01 -8.1997122067557235e+00 -1.2116794865956397e+01 -8.8252098037055866e+00 -1 3 -2
1090 364 1 -8.1999999999999995e-01 -8.8775570485852864e+00 -1.2288000493980277e+01 -8.1102252778536403e+00 -1 3 -2
2447 816 2 4.0999999999999998e-01 -1.0130357897171237e+01 -5.8230939405403621e+00 -9.1827777460046747e+00 1 1 0
217 73 1 -8.1999999999999995e-01 -1.0397868031304231e+01 -1.0602654734362282e+01 -1.4921912978100746e+01 -3 1 -1
2505 835 2 4.0999999999999998e-01 -7.8697062579244550e+00 -7.2180947738726386e+00 -1.2812113137546818e+01 -1 1 1
1717 573 1 -8.1999999999999995e-01 -1.2790070823563028e+01 -7.9810489088931735e+00 -1.2857847622063311e+01 -1 1 2
2486 829 2 4.0999999999999998e-01 -8.9899567733812411e+00 -2.5173672755217780e-01 -1.2319431929165033e+01 -1 1 1
1044 348 2 4.0999999999999998e-01 -5.2596999793613861e+00 -1.4536177752467811e+01 -1.4255481162771552e+01 -1 1 0
966 322 2 4.0999999999999998e-01 -9.6143684399056220e+00 -4.2735332642354571e+00 -1.4167828936007258e+01 -1 -1 1
2393 798 2 4.0999999999999998e-01 -1.0043078748263486e+01 -1.4998105865715470e+01 -1.0462960100788539e+01 0 4 0
125 42 2 4.0999999999999998e-01 -1.4499789630584866e+01 -1.3963447911596242e+01 -8.1487349819885164e+00 -2 0 1
880 294 1 -8.1999999999999995e-01 -1.4629546737910479e+01 -3.3533772152555130e+00 -1.0200541703712682e+01 0 0 -1
1914 638 2 4.0999999999999998e-01 -1.3505516900961251e+01 -1.9369145671653509e+00 -1.4895050450516010e+01 -1 2 1
720 240 2 4.0999999999999998e-01 -1.0466713845705868e+01 -6.5695533386714793e+00 -1.4394368018220954e+01 3 -1 2
126 42 2 4.0999999999999998e-01 -1.3268924520932451e+01 -1.2964421059399804e+01 -7.7569307410610673e+00 -2 0 1
608 203 2 4.0999999999999998e-01 -6.4590163440903208e+00 -9.3186593932362083e+00 -1.3810205246124921e+01 -1 0 1
1282 428 1 -8.1999999999999995e-01 -7.8756353183767889e+00 -1.4185664909484075e+00 -1.0603677357290504e+01 0 2 0
510 170 2 4.0999999999999998e-01 -1.0291973839107150e+01 -3.0022176020562821e+00 -1.0543206301914797e+01 -2 1 0
2448 816 2 4.0999999999999998e-01 -9.1208735720929575e+00 -5.6994863798528854e+00 -7.9051797365231886e+00 1 1 0
135 45 2 4.0999999999999998e-01 -8.7589398202075834e+00 -7.6415852433177909e+00 -8.4187675683226679e+00 -1 3 2
1065 355 2 4.0999999999999998e-01 -1.0385652482093349e+01 -1.9897023038629094e+00 -8.0669652546316701e+00 -1 0 -1
1063 355 1 -8.1999999999999995e-01 -1.0040186756338905e+01 -2.6722751417162556e+00 -8.7109649618910687e+00 -1 0 -1
1912 638 1 -8.1999999999999995e-01 -1.3753063197143931e+01 -1.2410497678275334e+00 -1.4220898485746430e+01 -1 2 1
1650 550 2 4.0999999999999998e-01 -1.0416699799526011e+01 -2.7812703326484431e+00 -1.3058952836147519e+01 0 2 2
882 294 2 4.0999999999999998e-01 -1.4372346218508911e+01 -2.9667843411047805e+00 -9.3148884387297990e+00 0 0 -1
1204 402 1 -8.1999999999999995e-01 -1.2116056085689506e+01 -5.9478053103527380e+00 -8.8203247048007238e+00 0 0 1
1346 449 2 4.0999999999999998e-01 -1.4491257564471873e+01 -1.2106236433296100e+01 -1.3140977424014846e+01 0 1 0
910 304 1 -8.1999999999999995e-01 -1.2348690448956781e+01 -5.3063056503161903e+00 -1.1946766635169514e+01 -1 1 1
911 304 2 4.0999999999999998e-01 -1.3098418314789360e+01 -5.1412865462681783e+00 -1.2587597886997168e+01 -1 1 1
1205 402 2 4.0999999999999998e-01 -1.2402722558499070e+01 -5.2390169262980972e+00 -8.1757866885936359e+00 0 0 1
1284 428 2 4.0999999999999998e-01 -7.9718919587818178e+00 -9.9580801099406280e-01 -9.7025681522256590e+00 0 2 0
2592 864 2 4.0999999999999998e-01 -5.5210056281274849e+00 -4.1053960758146673e+00 -7.6988278658555620e+00 2 0 2
627 209 2 4.0999999999999998e-01 -8.0911905168605642e+00 -5.0853075967838599e+00 -9.7806234605655806e+00 -1 2 0
1283 428 2 4.0999999999999998e-01 -8.0934446252471410e+00 -2.3924670499930407e+00 -1.0539922660498966e+01 0 2 0
1064 355 2 4.0999999999999998e-01 -9.1767032756412590e+00 -3.0445828507678279e+00 -8.3707134318255285e+00 -1 0 -1
2504 835 2 4.0999999999999998e-01 -9.3112574512718194e+00 -6.7230990459566673e+00 -1.2226021451106167e+01 -1 1 1
227 76 2 4.0999999999999998e-01 -6.6876582266079030e+00 -5.4311803920633093e+00 -1.1472523056074252e+01 -1 2 0
1466 489 2 4.0999999999999998e-01 -7.2728837724096191e+00 -1.9902470199398259e-01 -1.4501525224386295e+01 2 1 1
67 23 1 -8.1999999999999995e-01 -5.6281356234287365e+00 -1.9370704615308973e+00 -1.2156806967372653e+01 -1 2 3
625 209 1 -8.1999999999999995e-01 -7.7459541356222585e+00 -4.3667927646983173e+00 -1.0384391734329942e+01 -1 2 0
1726 576 1 -8.1999999999999995e-01 -1.4443524267212041e+01 -2.4718165855755903e+00 -7.7222970397516173e+00 1 2 1
1718 573 2 4.0999999999999998e-01 -1.2064238189733752e+01 -7.7970807858761395e+00 -1.3520652714502980e+01 -1 1 2
1648 550 1 -8.1999999999999995e-01 -1.0168538046431987e+01 -2.6802241773345230e+00 -1.4022380715859086e+01 0 2 2
1649 550 2 4.0999999999999998e-01 -9.8133592427019121e+00 -1.7588541488503378e+00 -1.4180219713947826e+01 0 2 2
2590 864 1 -8.1999999999999995e-01 -5.6450981569110930e+00 -4.7382329828493379e+00 -8.4630963747123005e+00 2 0 2
228 76 2 4.0999999999999998e-01 -6.1674336151750424e+00 -5.5822863898873294e+00 -1.3013018892627535e+01 -1 2 0
1885 629 1 -8.1999999999999995e-01 -1.4334611323715647e+01 -4.5321594041636306e+00 -1.3666590034024178e+01 -1 2 1
1722 574 2 4.0999999999999998e-01 -1.0643405234065812e+01 -1.4750381456835875e+01 -8.2456847875155876e+00 1 2 2
2591 864 2 4.0999999999999998e-01 -6.4013631360952967e+00 -4.4237544604991257e+00 -9.0368161601450971e+00 2 0 2
68 23 2 4.0999999999999998e-01 -6.4557463115061555e+00 -1.7389737784653843e+00 -1.1631634507896724e+01 -1 2 3
508 170 1 -8.1999999999999995e-01 -1.0311731616897386e+01 -3.5337145560120362e+00 -1.1390028879062823e+01 -2 1 0
881 294 2 4.0999999999999998e-01 -1.3809820812876188e+01 -3.4826661669167418e+00 -1.0758503765858570e+01 0 0 -1
2446 816 1 -8.1999999999999995e-01 -9.1882326568019401e+00 -5.9476720298316774e+00 -8.8715412055720275e+00 1 1 0
226 76 1 -8.1999999999999995e-01 -6.3878754015077597e+00 -6.0785180990350920e+00 -1.2173288352095469e+01 -1 2 0
509 170 2 4.0999999999999998e-01 -1.1051295430059161e+01 -4.2052758153689211e+00 -1.1344876899820164e+01 -2 1 0
626 209 2 4.0999999999999998e-01 -8.3443048746348616e+00 -4.2851761735323439e+00 -1.1181450690868697e+01 -1 2 0
912 304 2 4.0999999999999998e-01 -1.2151275787634120e+01 -6.2859248488569719e+00 -1.1909867641589145e+01 -1 1 1
520 174 1 -8.1999999999999995e-01 -1.4715111422542343e+01 -1.0432388245482258e+01 -1.0412002605611828e+01 2 3 0
469 157 1 -8.1999999999999995e-01 -5.8294742173509562e+00 -4.2222344720411300e+00 -1.4214440555914543e+01 -1 2 2
1754 585 2 4.0999999999999998e-01 -1.3505922230101046e+01 -9.7062636036591563e+00 -7.8307104256221258e+00 1 0 2
1755 585 2 4.0999999999999998e-01 -1.2632398623760775e+01 -9.0004756094494294e+00 -9.0162119710162578e+00 1 0 2
1913 638 2 4.0999999999999998e-01 -1.4694434369840076e+01 -1.3901307897115487e+00 -1.3918271627922714e+01 -1 2 1
547 183 1 -8.1999999999999995e-01 -8.6807982206378682e+00 -1.4992273946552269e+01 -1.3665246371860905e+01 0 -1 2
2473 825 1 -8.1999999999999995e-01 -7.8014821363168272e+00 -5.3900725588815313e-01 -7.9516644490800825e+00 2 -1 1
1887 629 2 4.0999999999999998e-01 -1.3970572498112334e+01 -4.3719189192607768e+00 -1.4584079311141224e+01 -1 2 1
1753 585 1 -8.1999999999999995e-01 -1.2581373830267021e+01 -9.5157669978966766e+00 -8.1607243135051597e+00 1 0 2
1042 348 1 -8.1999999999999995e-01 -5.1581659837569696e+00 -1.3974936158150550e+01 -1.5076874236545613e+01 -1 1 0
527 176 2 4.0999999999999998e-01 -5.0992226123784441e+00 -6.6323077202498713e+00 -1.1135180781217628e+01 -1 2 0
1720 574 1 -8.1999999999999995e-01 -9.6717522948204415e+00 -1.4877370241810091e+01 -8.4450645557081110e+00 1 2 2
1886 629 2 4.0999999999999998e-01 -1.4989541388129810e+01 -3.8120706666737387e+00 -1.3437403052261988e+01 -1 2 1
124 42 1 -8.1999999999999995e-01 -1.3572107063360445e+01 -1.3917108272306915e+01 -7.7782683100602448e+00 -2 0 1
965 322 2 4.0999999999999998e-01 -8.5264914955196538e+00 -5.0892383637475227e+00 -1.5072120380500932e+01 -1 -1 1
528 176 2 4.0999999999999998e-01 -5.1315107478091928e+00 -6.1069485416089666e+00 -9.5893640741368031e+00 -1 2 0
1631 544 2 4.0999999999999998e-01 -1.3032797008763980e+01 -2.8741278957889982e-01 -1.2406015836946921e+01 1 3 1
2475 825 2 4.0999999999999998e-01 -8.7085240008769453e+00 -7.6131695411154787e-01 -7.5941153858683412e+00 2 -1 1
1785 595 2 4.0999999999999998e-01 -1.1775374984830140e+01 -1.3014226367035466e+01 -2.4168674252186140e+00 -1 2 2
1783 595 1 -8.1999999999999995e-01 -1.0975539058832208e+01 -1.3054815517559971e+01 -1.8180328353474966e+00 -1 2 2
1784 595 2 4.0999999999999998e-01 -1.0869789283257955e+01 -1.3984693298258223e+01 -1.4657088823706115e+00 -1 2 2
804 268 2 4.0999999999999998e-01 -1.2427933480245809e+01 -1.4135293022857372e+01 -4.0063472918405356e+00 -2 2 -2
2282 761 2 4.0999999999999998e-01 -8.5786751049247645e+00 -8.3219465267770847e+00 -1.6106758651058080e+00 0 1 0
2471 824 2 4.0999999999999998e-01 -7.1701861940920466e+00 -1.2052945124134666e+01 -3.1727841581291774e+00 0 4 1
214 72 1 -8.1999999999999995e-01 -8.6290992141156053e+00 -9.7904839121034648e+00 -7.1570240120807860e-01 -1 1 -2
1362 454 2 4.0999999999999998e-01 -1.3383822353955697e+01 -8.7414818810025476e+00 -3.4662503908104370e-01 -2 0 0
366 122 2 4.0999999999999998e-01 -5.8091567339636434e+00 -1.4123027197014681e+01 -3.2697289837458818e+00 1 2 1
1364 455 2 4.0999999999999998e-01 -1.3876461356621590e+01 -1.2088660657829220e+01 -4.3037861302631804e+00 -1 0 1
216 72 2 4.0999999999999998e-01 -8.2963683895167168e+00 -1.0253205508275109e+01 -1.5373877328504904e+00 -1 1 -2
1363 455 1 -8.1999999999999995e-01 -1.3390840365941205e+01 -1.2696011327015068e+01 -3.6750689597476782e+00 -1 0 1
1767 589 2 4.0999999999999998e-01 -1.2096152058415591e+01 -2.5974020683032606e+00 -4.3112914149645327e+00 -1 0 -1
2533 845 1 -8.1999999999999995e-01 -5.1372966765501111e+00 -1.6294030460293794e+00 -1.9187471166345187e+00 0 2 1
1323 441 2 4.0999999999999998e-01 -1.1226552250558615e+01 -9.7034295149516261e+00 -2.5258707512965941e+00 0 3 0
1321 441 1 -8.1999999999999995e-01 -1.1857862945443792e+01 -8.9460150526825828e+00 -2.6924781888734106e+00 0 3 0
870 290 2 4.0999999999999998e-01 -9.0661362364963747e+00 -9.4998487651243160e+00 -5.1646837061601669e+00 -1 -1 1
2472 824 2 4.0999999999999998e-01 -7.6505906775258783e+00 -1.0512734355585120e+01 -3.4248881886221056e+00 0 4 1
2470 824 1 -8.1999999999999995e-01 -7.1903055359097960e+00 -1.1130462671329042e+01 -2.7872855146331244e+00 0 4 1
759 253 2 4.0999999999999998e-01 -1.4969308095096787e+01 -1.4184669615402838e+01 -4.1055366023751390e+00 0 2 2
868 290 1 -8.1999999999999995e-01 -8.3341573924644230e+00 -9.2607956773238378e+00 -4.5266802300702693e+00 -1 -1 1
2171 724 2 4.0999999999999998e-01 -7.3459114436701185e+00 -1.4358286122783607e+01 -1.2040618799974432e+00 -1 0 1
2283 761 2 4.0999999999999998e-01 -8.7758529432906105e+00 -7.9657913013024668e+00 -3.1920892993602692e+00 0 1 0
869 290 2 4.0999999999999998e-01 -7.5099387032221907e+00 -9.0210776806660817e+00 -5.0396974693797958e+00 -1 -1 1
266 89 2 4.0999999999999998e-01 -9.7724354153717350e+00 -1.2666717905237093e+01 -7.4381073792324237e-01 -3 1 1
2170 724 1 -8.1999999999999995e-01 -7.2499912633407000e+00 -1.4446232943872385e+01 -2.1257181955962956e-01 -1 0 1
1438 480 1 -8.1999999999999995e-01 -1.0104784931243861e+01 -9.7109272066524142e+00 -6.6402492837081653e+00 -1 1 4
2534 845 2 4.0999999999999998e-01 -5.5232689038655085e+00 -1.2700508099227861e+00 -1.0691123317812536e+00 0 2 1
114 38 2 4.0999999999999998e-01 -1.4401861256840677e+01 -1.1343128484109409e+01 -7.3413516708790105e-01 -1 2 1
1728 576 2 4.0999999999999998e-01 -1.3848259043961617e+01 -3.1979952302549748e+00 -7.3783322901759520e+00 1 2 1
2199 733 2 4.0999999999999998e-01 -5.8266173104407617e+00 -9.5668039525019246e+00 -6.8530776415514758e+00 0 3 2
365 122 2 4.0999999999999998e-01 -7.2139244071829705e+00 -1.4910919392472138e+01 -3.5388902164468767e+00 1 2 1
2474 825 2 4.0999999999999998e-01 -7.2206458253657093e+00 -2.1120550424959106e-01 -7.2065718010264641e+00 2 -1 1
1610 537 2 4.0999999999999998e-01 -6.5192119396801118e+00 -1.3557845107440389e+00 -3.2911110841843421e+00 0 1 -2
1365 455 2 4.0999999999999998e-01 -1.3884663628866926e+01 -1.2740693932022637e+01 -2.8066624133851121e+00 -1 0 1
592 198 1 -8.1999999999999995e-01 -6.2273622175286789e+00 -2.6932452412482686e+00 -6.7833331879430538e+00 -3 2 1
2197 733 1 -8.1999999999999995e-01 -6.6014147089454980e+00 -9.0684240550527786e+00 -6.4641119177370268e+00 0 3 2
1892 631 2 4.0999999999999998e-01 -1.2563676167431044e+01 -1.0572235756498483e+01 -2.7378613098475135e-01 0 4 -1
566 189 2 4.0999999999999998e-01 -1.1415627679290782e+01 -2.0210219227652715e-01 -6.4689004332141984e+00 -1 1 1
1440 480 2 4.0999999999999998e-01 -1.1080413594453457e+01 -9.7832676680349842e+00 -6.8473806975998990e+00 -1 1 4
1091 364 2 4.0999999999999998e-01 -8.7010784629511768e+00 -1.1684912570390232e+01 -7.3323254649381298e+00 -1 3 -2
802 268 1 -8.1999999999999995e-01 -1.1678524826912451e+01 -1.4756696555061904e+01 -4.2348908755040160e+00 -2 2 -2
1322 441 2 4.0999999999999998e-01 -1.2140145218159011e+01 -8.5491228697760562e+00 -1.8191047448039619e+00 0 3 0
2381 794 2 4.0999999999999998e-01 -1.2585179385077502e+01 -8.3558380457461787e+00 -4.1345229626155771e+00 1 0 1
2380 794 1 -8.1999999999999995e-01 -1.2893951759912966e+01 -8.0806198292622646e+00 -5.0449637575010904e+00 1 0 1
2382 794 2 4.0999999999999998e-01 -1.2683341703537016e+01 -8.8049541314161743e+00 -5.7014476592396885e+00 1 0 1
803 268 2 4.0999999999999998e-01 -1.0818051485199568e+01 -1.4382530623473258e+01 -3.8890971136949286e+00 -2 2 -2
2281 761 1 -8.1999999999999995e-01 -8.6541183009968741e+00 -7.5804619382923564e+00 -2.2773817952149926e+00 0 1 0
1439 480 2 4.0999999999999998e-01 -9.6182444319891207e+00 -9.3664098952779771e+00 -7.4431029646288662e+00 -1 1 4
1716 572 2 4.0999999999999998e-01 -1.3920688230145890e+01 -5.0609963116531116e+00 -6.3181394781998375e+00 0 1 0
727 243 1 -8.1999999999999995e-01 -1.4968427729277638e+01 -6.3395528774443282e+00 -5.5377188423845478e+00 0 -1 0
1705 569 1 -8.1999999999999995e-01 -1.4687789720940865e+01 -1.7050210956413796e+00 -9.7369697434592695e-01 -1 3 0
1896 632 2 4.0999999999999998e-01 -8.3655742273716527e+00 -1.8526652543232203e+00 -5.2781622852805459e+00 0 1 2
2067 689 2 4.0999999999999998e-01 -6.1828745013324085e+00 -6.3455435928130122e+00 -4.5680821021551701e+00 1 3 1
594 198 2 4.0999999999999998e-01 -6.1219825251661124e+00 -1.7823481581246732e+00 -6.3843977637113483e+00 -3 2 1
593 198 2 4.0999999999999998e-01 -7.1983514404853706e+00 -2.9287558771369433e+00 -6.8245947360484571e+00 -3 2 1
2066 689 2 4.0999999999999998e-01 -6.7552101882657443e+00 -6.7657413810401543e+00 -3.0975516580633755e+00 1 3 1
368 123 2 4.0999999999999998e-01 -1.0693548134813488e+01 -5.1468621226639701e+00 -1.2728454946990020e-01 0 0 0
1766 589 2 4.0999999999999998e-01 -1.1345293681262620e+01 -1.3040506121653230e+00 -3.6555110928435379e+00 -1 0 -1
1706 569 2 4.0999999999999998e-01 -1.3808477534359650e+01 -1.7915676430012919e+00 -5.0539402606584360e-01 -1 3 0
1128 376 2 4.0999999999999998e-01 -9.3771551254262882e+00 -5.4295473161947001e+00 -5.3424180358867392e+00 1 2 1
1895 632 2 4.0999999999999998e-01 -9.9053596279612677e+00 -2.3718987620507601e+00 -5.4395672757664961e+00 0 1 2
2065 689 1 -8.1999999999999995e-01 -6.1951650013957433e+00 -6.1051390021408896e+00 -3.5974933906736961e+00 1 3 1
728 243 2 4.0999999999999998e-01 -1.4300112367234226e+01 -7.0185112902856801e+00 -5.2338144002239559e+00 0 -1 0
450 150 2 4.0999999999999998e-01 -1.4938227850463388e+01 -3.5666689294965828e+00 -3.4271033620961937e+00 -2 2 -1
240 80 2 4.0999999999999998e-01 -1.0368402329726166e+01 -1.1918501080377322e+00 -1.8808639963440843e+00 -1 1 1
1360 454 1 -8.1999999999999995e-01 -1.3133151233284860e+01 -7.7873994832286462e+00 -5.1057208603749693e-01 -2 0 0
797 266 2 4.0999999999999998e-01 -6.0629735156862505e+00 -4.3195974601997786e+00 -9.1416758220776018e-01 -3 2 -1
364 122 1 -8.1999999999999995e-01 -6.7984011992220310e+00 -1.4100871182698068e+01 -3.1251871368222410e+00 1 2 1
798 266 2 4.0999999999999998e-01 -5.3687716672826067e+00 -5.0755708541517670e+00 -2.1842786816320814e+00 -3 2 -1
239 80 2 4.0999999999999998e-01 -1.1658975217343910e+01 -8.4171640041517470e-01 -9.4362222898473647e-01 -1 1 1
1727 576 2 4.0999999999999998e-01 -1.4026870333908828e+01 -1.5823567292338545e+00 -7.5345511626853598e+00 1 2 1
1126 376 1 -8.1999999999999995e-01 -9.3902965660768754e+00 -5.0476001059222515e+00 -6.2665021686203879e+00 1 2 1
1765 589 1 -8.1999999999999995e-01 -1.1264355306939995e+01 -2.0425003976695919e+00 -4.3249352923532154e+00 -1 0 -1
1127 376 2 4.0999999999999998e-01 -9.3486220204617272e+00 -4.0497845069699618e+00 -6.2153639349239018e+00 1 2 1
448 150 1 -8.1999999999999995e-01 -1.3982947045584449e+01 -3.2709935177207790e+00 -3.4286910257258167e+00 -2 2 -1
1894 632 1 -8.1999999999999995e-01 -9.0037530906412648e+00 -2.3436230084928678e+00 -5.8711851456573392e+00 0 1 2
449 150 2 4.0999999999999998e-01 -1.3774148868527510e+01 -2.8136653252782580e+00 -2.5642593554385229e+00 -2 2 -1
497 166 2 4.0999999999999998e-01 -6.3359853583662051e+00 -5.8316759309820583e+00 -6.7022187925834871e+00 -1 1 0
1602 534 2 4.0999999999999998e-01 -1.4249762030186904e+01 -1.3825967439728743e+01 -9.8565505718262969e-01 0 1 0
796 266 1 -8.1999999999999995e-01 -5.2876812329744123e+00 -4.3103128985900767e+00 -1.5456923532032008e+00 -3 2 -1
1715 572 2 4.0999999999999998e-01 -1.2405778015939738e+01 -4.5019435928274270e+00 -6.0750321309806754e+00 0 1 0
1609 537 1 -8.1999999999999995e-01 -7.4124050239490913e+00 -1.4172875305918922e+00 -3.7365449912364479e+00 0 1 -2
97 33 1 -8.1999999999999995e-01 -9.1043020899268967e+00 -2.6556580149066669e+00 -1.7638872002938530e+00 0 2 3
215 72 2 4.0999999999999998e-01 -9.1494849634498117e+00 -1.0436338307639119e+01 -1.5708031594825655e-01 -1 1 -2
2529 843 2 4.0999999999999998e-01 -1.2847410009037510e+01 -5.0074960271109852e+00 -3.9086026867722303e+00 2 2 0
498 166 2 4.0999999999999998e-01 -5.9384382823423909e+00 -7.4046979459706170e+00 -6.5174158221942537e+00 -1 1 0
1611 537 2 4.0999999999999998e-01 -8.0884595704073945e+00 -1.7563857893930503e+00 -3.0823657329367418e+00 0 1 -2
99 33 2 4.0999999999999998e-01 -9.5993439565689815e+00 -3.4869700818684795e+00 -2.0165563116404961e+00 0 2 3
238 80 1 -8.1999999999999995e-01 -1.1134007603511336e+01 -5.6249656446231100e-01 -1.7476329072859293e+00 -1 1 1
2527 843 1 -8.1999999999999995e-01 -1.1974344032833981e+01 -5.4422933837820757e+00 -4.1292719467001611e+00 2 2 0
496 166 1 -8.1999999999999995e-01 -5.8526566688334984e+00 -6.4892305816543523e+00 -6.1242887766234286e+00 -1 1 0
98 33 2 4.0999999999999998e-01 -8.5435789222758487e+00 -2.8343527481637025e+00 -9.5540369014249471e-01 0 2 3
2528 843 2 4.0999999999999998e-01 -1.2142410314514475e+01 -6.3426666371491418e+00 -4.5306067036380533e+00 2 2 0
511 171 1 -8.1999999999999995e-01 -1.0215835966186747e+01 -5.0866655379415313e+00 -2.1389443987321695e+00 -1 0 -1
512 171 2 4.0999999999999998e-01 -9.6396548118109031e+00 -5.8970136883660373e+00 -2.0324596177601038e+00 -1 0 -1
513 171 2 4.0999999999999998e-01 -1.0870575075073848e+01 -5.2381946899244927e+00 -2.8794465842868568e+00 -1 0 -1
1714 572 1 -8.1999999999999995e-01 -1.3139832556503396e+01 -4.6059179597941515e+00 -6.7461067316475010e+00 0 1 0
1600 534 1 -8.1999999999999995e-01 -1.4753270048746618e+01 -1.3071144844207179e+01 -1.4060243862863580e+00 0 1 0
112 38 1 -8.1999999999999995e-01 -1.4343033915509640e+01 -1.0350861180715544e+01 -6.2489782187732068e-01 -1 2 1
2535 845 2 4.0999999999999998e-01 -5.2325811451550166e+00 -2.6247398813208260e+00 -1.9333531929859014e+00 0 2 1
1893 631 2 4.0999999999999998e-01 -1.1222961449559971e+01 -1.1504289371362155e+01 -2.9260577984266689e-01 0 4 -1
565 189 1 -8.1999999999999995e-01 -1.0854588635792965e+01 -3.0217232454326393e-01 -7.2906114661242842e+00 -1 1 1
2198 733 2 4.0999999999999998e-01 -7.3323743819261784e+00 -9.0056732865935345e+00 -7.1436324563219031e+00 0 3 2
417 139 2 4.0999999999999998e-01 -5.2319667168545045e+00 -5.5130208763268129e-02 -5.5339550891439231e+00 -2 2 1
1891 631 1 -8.1999999999999995e-01 -1.1571966982157935e+01 -1.0578793604882939e+01 -1.4549843903819948e-01 0 4 -1
113 38 2 4.0999999999999998e-01 -1.5070975748181265e+01 -1.0039019008797887e+01 -1.4289079157792983e-02 -1 2 1
163 55 1 -8.1999999999999995e-01 -9.9571965680453225e+00 -1.3842368004244735e+01 6.8955855800249211e+00 0 -2 0
164 55 2 4.0999999999999998e-01 -1.0342233496237025e+01 -1.3205750131512048e+01 6.2274148582261013e+00 0 -2 0
2577 859 2 4.0999999999999998e-01 -1.1658393403402204e+01 -1.4868524262547609e+01 2.0993073122996542e-01 0 4 2
10 4 1 -8.1999999999999995e-01 -9.0947991235629999e+00 -8.2783520585921906e+00 5.2416642478411966e+00 0 1 0
384 128 2 4.0999999999999998e-01 -1.0583611594974608e+01 -1.0980220639144044e+01 4.7891333547067028e+00 -1 1 1
382 128 1 -8.1999999999999995e-01 -1.0989072299416705e+01 -1.1790385061694236e+01 5.2124808203344415e+00 -1 1 1
383 128 2 4.0999999999999998e-01 -1.1444410436113717e+01 -1.2339936175923405e+01 4.5120176889548631e+00 -1 1 1
409 137 1 -8.1999999999999995e-01 -1.0474676471760176e+01 -8.1479533011012695e+00 1.7113710074656687e+00 0 4 0
2326 776 1 -8.1999999999999995e-01 -1.1538966395899363e+01 -8.7071075165178602e+00 4.1483194212302337e+00 0 -1 -2
2373 791 2 4.0999999999999998e-01 -1.1680139793174476e+01 -1.1335955451899274e+01 6.5808768157790745e+00 0 1 0
1020 340 2 4.0999999999999998e-01 -1.2246884929493296e+01 -2.0270478424376854e+00 1.1007959959636722e+00 0 4 1
11 4 2 4.0999999999999998e-01 -1.0072826289605830e+01 -8.2494019200747246e+00 5.0352359904555648e+00 0 1 0
2576 859 2 4.0999999999999998e-01 -1.1497494878130382e+01 -1.4295389875940222e+01 1.7305302074717694e+00 0 4 2
1842 614 2 4.0999999999999998e-01 -1.4753062994720935e+01 -1.0504239140614818e+01 3.9246880401414330e+00 0 0 0
1841 614 2 4.0999999999999998e-01 -1.3710777215576780e+01 -1.1262489871429407e+01 2.9220463876877751e+00 0 0 0
1840 614 1 -8.1999999999999995e-01 -1.3855096505077833e+01 -1.0450723427189875e+01 3.4879041770630934e+00 0 0 0
1824 608 2 4.0999999999999998e-01 -5.4174098543336964e+00 -9.7897975644359452e+00 3.8061630092021410e+00 -1 2 1
2313 771 2 4.0999999999999998e-01 -8.2714930475294253e+00 -1.0524339689726656e+01 2.9500613185503433e+00 1 1 0
2530 844 1 -8.1999999999999995e-01 -1.4734939780806684e+01 -3.9578800672561947e+00 5.2350813623353005e+00 0 3 2
2312 771 2 4.0999999999999998e-01 -8.7672519813225662e+00 -9.7000392104197264e+00 4.2696619699390155e+00 1 1 0
2311 771 1 -8.1999999999999995e-01 -8.6172146678173256e+00 -1.0610570019289245e+01 3.8844213855434937e+00 1 1 0
12 4 2 4.0999999999999998e-01 -8.6441027573815816e+00 -7.4851181612244035e+00 4.8322248420593219e+00 0 1 0
1595 532 2 4.0999999999999998e-01 -8.1747565419234398e+00 -8.9229956581571734e+00 6.7744928299016358e+00 0 4 0
2457 819 2 4.0999999999999998e-01 -7.1314472104031061e+00 -1.3928772683088569e+01 4.3800038455847243e+00 1 1 1
2455 819 1 -8.1999999999999995e-01 -6.6819423537221958e+00 -1.4546571857845688e+01 3.7348237060758294e+00 1 1 1
489 163 2 4.0999999999999998e-01 -1.3726817874379272e+01 -1.3534535969946718e+01 1.5609549450980360e+00 -3 -2 2
584 195 2 4.0999999999999998e-01 -8.2626337726100552e+00 -1.1847874506242057e+01 4.9916384057581382e+00 0 1 0
585 195 2 4.0999999999999998e-01 -8.4379810082623177e+00 -1.2723716548468474e+01 6.3586600439174248e+00 0 1 0
583 195 1 -8.1999999999999995e-01 -7.8103250958515753e+00 -1.2482164255140406e+01 5.6186003215740215e+00 0 1 0
2575 859 1 -8.1999999999999995e-01 -1.2067258909317328e+01 -1.4281720564283935e+01 9.0884293724185916e-01 0 4 2
1513 505 1 -8.1999999999999995e-01 -7.7460651297263015e+00 -8.7274521925309791e+00 1.5586122280739900e+00 -1 2 -2
2406 802 2 4.0999999999999998e-01 -5.9550368773902473e+00 -1.3258665709648412e+01 1.9868041896462820e+00 2 0 2
1515 505 2 4.0999999999999998e-01 -6.8915601594628413e+00 -9.0317287369303294e+00 1.9795931099018738e+00 -1 2 -2
1514 505 2 4.0999999999999998e-01 -7.8596941913573701e+00 -9.1769740094428176e+00 6.7260634149936038e-01 -1 2 -2
2371 791 1 -8.1999999999999995e-01 -1.2254813200265620e+01 -1.0984503935717349e+01 7.3199439189650981e+00 0 1 0