LAMMPS data file via write_data, version 15 May 2015, timestep = 18500000

2593 atoms
6 atom types
1728 bonds
4 bond types
864 angles
3 angle types
0 dihedrals
3 dihedral types
0 impropers
1 improper types

-1.5027552163041104e+01 1.5027552163041104e+01 xlo xhi
-1.5027552163041104e+01 1.5027552163041104e+01 ylo yhi
-1.5027552163041104e+01 1.5027552163041104e+01 zlo zhi

Masses

1 15.9994
2 1.00794
3 12.0107
4 1.00794
5 12.0107
6 12.0107

Bond Coeffs # harmonic

1 1000 1
2 469 1.4
3 367 1.08
4 469 0.7

Angle Coeffs # harmonic

1 100 109.47
2 35 120
3 63 120

Dihedral Coeffs # opls

1 0 7.25 0 0
2 0 7.25 0 0
3 0 7.25 0 0

Improper Coeffs # cvff

1 2.5 -1 2

Atoms # full

550 184 1 -8.1999999999999995e-01 -8.6464358287271779e+00 -1.0829982825686637e+01 -8.5370798418034237e+00 -4 2 0
551 184 2 4.0999999999999998e-01 -9.3470889488540827e+00 -1.1329331598687268e+01 -9.0466767714214953e+00 -4 2 0
2396 799 2 4.0999999999999998e-01 -1.0836928314463623e+01 -1.1922505979158535e+01 -1.0675426621971198e+01 -8 3 1
2395 799 1 -8.1999999999999995e-01 -1.0957204251788795e+01 -1.0932744676611938e+01 -1.0598880852530328e+01 -8 3 1
2397 799 2 4.0999999999999998e-01 -1.0759353928783398e+01 -1.0503793608020541e+01 -1.1480248672510248e+01 -8 3 1
637 213 1 -8.1999999999999995e-01 -1.3646017426550374e+01 -1.0980438779039787e+01 -1.0446533419196028e+01 -5 4 3
147 49 2 4.0999999999999998e-01 -1.4559918652018025e+01 -8.6764090608992568e+00 -1.2785591844374322e+01 1 -1 -1
639 213 2 4.0999999999999998e-01 -1.2653012918248924e+01 -1.1011103298419080e+01 -1.0332714452936321e+01 -5 4 3
678 226 2 4.0999999999999998e-01 -1.0035540100187969e+01 -1.4218458296242096e+01 -1.1369427771847658e+01 -3 3 3
677 226 2 4.0999999999999998e-01 -1.0099547554117979e+01 -1.3919666030515156e+01 -9.7653307105734299e+00 -3 3 3
676 226 1 -8.1999999999999995e-01 -1.0204153530230368e+01 -1.3518603260997297e+01 -1.0675363240667869e+01 -3 3 3
2128 710 1 -8.1999999999999995e-01 -8.0356598883200405e+00 -6.0404808569764619e+00 -1.2578490750337153e+01 -2 0 0
1474 492 1 -8.1999999999999995e-01 -1.0022476050836911e+01 -9.8527737351911746e+00 -1.2948745987718109e+01 0 3 4
1476 492 2 4.0999999999999998e-01 -9.0404160801846469e+00 -9.9688864678254632e+00 -1.3097167759156786e+01 0 3 4
146 49 2 4.0999999999999998e-01 -1.3382123886986577e+01 -9.7425302467797685e+00 -1.2407853345387192e+01 1 -1 -1
638 213 2 4.0999999999999998e-01 -1.4047336317340179e+01 -1.0419538615661143e+01 -9.7224566315241105e+00 -5 4 3
835 279 1 -8.1999999999999995e-01 -9.9642184531681046e+00 -1.4566238407524693e+01 -7.8421022793474089e+00 -5 -4 -1
364 122 1 -8.1999999999999995e-01 -1.4172473448392278e+01 -5.5783809161523870e+00 -8.7017286050233214e+00 -1 5 -1
1475 492 2 4.0999999999999998e-01 -1.0520490559309419e+01 -1.0155946510911470e+01 -1.3761162615492163e+01 0 3 4
2014 672 1 -8.1999999999999995e-01 -1.2314669065683962e+01 -7.3524605167193036e+00 -1.4937185084402500e+01 1 0 1
1182 394 2 4.0999999999999998e-01 -9.1051549841734598e+00 -8.7508432683528721e+00 -8.5890890427326987e+00 -5 1 2
365 122 2 4.0999999999999998e-01 -1.3379113882757030e+01 -6.0775882299846593e+00 -8.3534102800292445e+00 -1 5 -1
366 122 2 4.0999999999999998e-01 -1.4035148942606448e+01 -5.3678028626210743e+00 -9.6695880113929604e+00 -1 5 -1
907 303 1 -8.1999999999999995e-01 -1.4525127950085269e+01 -9.2876703692513427e+00 -8.4690545189097453e+00 -4 -2 3
1181 394 2 4.0999999999999998e-01 -9.8451627825161268e+00 -7.7686593923807754e+00 -9.6634280637219128e+00 -5 1 2
1180 394 1 -8.1999999999999995e-01 -9.4734852720889009e+00 -7.8330683514057933e+00 -8.7373285636919817e+00 -5 1 2
2015 672 2 4.0999999999999998e-01 -1.2635644218430116e+01 -8.0841852098265932e+00 -1.4335930420342285e+01 1 0 1
1019 340 2 4.0999999999999998e-01 -1.0276419451541660e+01 -8.1516028519940988e+00 -1.1882411071138863e+01 0 7 6
406 136 1 -8.1999999999999995e-01 -1.4790310370819038e+01 -1.2696600333072169e+01 -1.2318018737908753e+01 -5 5 3
137 46 2 4.0999999999999998e-01 -1.4227580202704143e+01 -1.3152418766064132e+01 -1.3791985883176180e+01 -1 2 -2
136 46 1 -8.1999999999999995e-01 -1.4150151078489699e+01 -1.3434781522632543e+01 -1.4748139173109236e+01 -1 2 -2
1020 340 2 4.0999999999999998e-01 -9.6045352742207228e+00 -6.7585664361041324e+00 -1.1358462264618476e+01 0 7 6
407 136 2 4.0999999999999998e-01 -1.4342038777659726e+01 -1.2114764864501986e+01 -1.1639436915907687e+01 -5 5 3
44 15 2 4.0999999999999998e-01 -1.2822197905632125e+01 -5.7092229708325632e+00 -1.3969049905419087e+01 -2 4 4
2130 710 2 4.0999999999999998e-01 -8.6832786399780577e+00 -5.3226683432261286e+00 -1.2322975247311582e+01 -2 0 0
1018 340 1 -8.1999999999999995e-01 -1.0348485754489847e+01 -7.4110376526473818e+00 -1.1214337203886286e+01 0 7 6
255 85 2 4.0999999999999998e-01 -8.1286165957150409e+00 -1.3729357244055121e+01 -1.1929057752358590e+01 -1 0 6
552 184 2 4.0999999999999998e-01 -9.0465756163245565e+00 -1.0453946182606444e+01 -7.7013539984126105e+00 -4 2 0
2173 725 1 -8.1999999999999995e-01 -1.3627279103003842e+01 -6.5881105667253266e+00 -1.1305188349752791e+01 -4 2 3
2174 725 2 4.0999999999999998e-01 -1.2659958929979021e+01 -6.3637211903560242e+00 -1.1187315314394333e+01 -4 2 3
46 16 1 -8.1999999999999995e-01 -1.2214921645019786e+01 -7.4472393509845380e+00 -7.7774592321550342e+00 -4 3 2
2175 725 2 4.0999999999999998e-01 -1.3710747280426624e+01 -7.4647368015838298e+00 -1.1779015880279243e+01 -4 2 3
48 16 2 4.0999999999999998e-01 -1.1622483490136680e+01 -7.9346179974428894e+00 -8.4188889247368532e+00 -4 3 2
145 49 1 -8.1999999999999995e-01 -1.3571201500347996e+01 -8.8131783269245076e+00 -1.2724882839988584e+01 1 -1 -1
908 303 2 4.0999999999999998e-01 -1.4177641754979197e+01 -8.4724166695466785e+00 -8.0058398321230850e+00 -4 -2 3
223 75 1 -8.1999999999999995e-01 -7.5626173111884185e+00 -5.7678166120729024e+00 -8.3980855383689850e+00 4 -1 1
1610 537 2 4.0999999999999998e-01 -9.2086726971111208e+00 -6.8500382736465593e+00 -1.4967168589534067e+01 -1 0 -2
321 107 2 4.0999999999999998e-01 -8.0302808009191011e+00 -1.3655075805431222e+01 -8.0441074047513670e+00 -5 5 6
225 75 2 4.0999999999999998e-01 -8.3000988306445223e+00 -6.2058758085321539e+00 -7.8841028785953906e+00 4 -1 1
138 46 2 4.0999999999999998e-01 -1.4859442526678395e+01 -1.4108570828453896e+01 -1.4955181693726212e+01 -1 2 -2
2569 857 1 -8.1999999999999995e-01 -4.3778420580330231e+00 -1.3518368687910884e+01 -1.4728131938523047e+01 -1 -2 4
1057 353 1 -8.1999999999999995e-01 -4.0369167676422197e+00 -5.0582346169916761e+00 -9.7879878423042257e+00 0 -2 1
2462 821 2 4.0999999999999998e-01 -3.0468225196750076e-01 -1.2787501454172075e+01 -1.1606305713200181e+01 1 -2 -1
640 214 1 -8.1999999999999995e-01 -6.4644513878105414e+00 -7.0377590849087621e+00 -1.0434787468875701e+01 2 -1 -6
2182 728 1 -8.1999999999999995e-01 -6.5172722403083050e-01 -8.9184480646731963e+00 -1.4891116929923207e+01 -1 4 -2
253 85 1 -8.1999999999999995e-01 -7.2295309117126756e+00 -1.3680432715659848e+01 -1.2364034037641208e+01 -1 0 6
2129 710 2 4.0999999999999998e-01 -7.4508830828260635e+00 -5.7130375988468689e+00 -1.3320629608721573e+01 -2 0 0
1157 386 2 4.0999999999999998e-01 -4.9329066860995230e+00 -1.0980601851952660e+01 -9.7346310465684454e+00 -3 3 4
1303 435 1 -8.1999999999999995e-01 -1.6264882570342110e-01 -1.0204405692638643e+01 -8.3196539087675809e+00 -2 -1 0
224 75 2 4.0999999999999998e-01 -7.3349659783337708e+00 -6.3261920182732467e+00 -9.1957978436235805e+00 4 -1 1
871 291 1 -8.1999999999999995e-01 -1.9296186971445639e+00 -5.5947930553770444e+00 -1.1996245937192983e+01 -8 2 2
1059 353 2 4.0999999999999998e-01 -3.7297618548196532e+00 -5.9513222130927996e+00 -9.4593490551322592e+00 0 -2 1
1067 356 2 4.0999999999999998e-01 -3.7150237746034485e+00 -1.4402953758069852e+01 -8.8093614033423151e+00 2 4 3
710 237 2 4.0999999999999998e-01 -2.7109111504715333e+00 -8.4752715564677636e+00 -9.6677491415402876e+00 -3 -1 2
1778 593 2 4.0999999999999998e-01 -7.2026504111539147e+00 -1.2008376875610752e+01 -1.4771308832752709e+01 0 0 -1
2513 838 2 4.0999999999999998e-01 -3.8478760846735476e+00 -6.3281007503716271e+00 -1.2325229611788821e+01 -1 3 1
1066 356 1 -8.1999999999999995e-01 -2.8901901582643177e+00 -1.4595507085552699e+01 -8.2778299176059029e+00 2 4 3
872 291 2 4.0999999999999998e-01 -1.4061919448670466e+00 -6.2557196965588844e+00 -1.1458516089602636e+01 -8 2 2
2183 728 2 4.0999999999999998e-01 -2.7967557067188231e-01 -9.0828692782147940e+00 -1.3977609288635122e+01 -1 4 -2
783 261 2 4.0999999999999998e-01 -3.7217314090349927e+00 -7.8859233094740819e+00 -1.4118731449139588e+01 -1 6 -4
2145 715 2 4.0999999999999998e-01 -5.6032907587971366e+00 -1.1284462504299929e+01 -1.2110264195785522e+01 -4 1 0
971 324 2 4.0999999999999998e-01 -7.0798000423405432e+00 -8.7678609859411161e+00 -1.4288814900504480e+01 4 2 2
970 324 1 -8.1999999999999995e-01 -7.0649307305684719e+00 -8.6927135806374096e+00 -1.3291776888555789e+01 4 2 2
249 83 2 4.0999999999999998e-01 -5.0200864490672714e+00 -1.3387597954625523e+01 -1.0755233547509766e+01 -4 4 -2
711 237 2 4.0999999999999998e-01 -3.4536269861506028e+00 -7.7745598781027550e+00 -8.3934346228914691e+00 -3 -1 2
750 250 2 4.0999999999999998e-01 -5.6050905952127472e+00 -9.3184489844611065e+00 -8.5655700909814811e+00 -4 1 8
212 71 2 4.0999999999999998e-01 -1.1304502670165189e+00 -7.5376880517617986e+00 -9.8610066565827452e+00 1 1 -1
319 107 1 -8.1999999999999995e-01 -7.0820502619454588e+00 -1.3819577568299337e+01 -7.7725354745718445e+00 -5 5 6
972 324 2 4.0999999999999998e-01 -7.4331079829498590e+00 -7.8039024768868543e+00 -1.3018988711723138e+01 4 2 2
1158 386 2 4.0999999999999998e-01 -3.9630857730042237e+00 -1.0523599955326222e+01 -1.0966336249728297e+01 -3 3 4
2245 749 1 -8.1999999999999995e-01 -1.2317939436276681e-01 -9.7861485201833531e+00 -1.2180927810662018e+01 -2 1 5
2512 838 1 -8.1999999999999995e-01 -4.4159347507775042e+00 -7.0797414128259408e+00 -1.2660339531726908e+01 -1 3 1
348 116 2 4.0999999999999998e-01 -2.0916475418084506e+00 -9.8333941094864912e+00 -1.1749687267104100e+01 -4 -2 2
749 250 2 4.0999999999999998e-01 -6.9380422744118970e+00 -1.0261169545949265e+01 -8.5336492736518306e+00 -4 1 8
347 116 2 4.0999999999999998e-01 -3.3114687736652240e+00 -8.7756890582845291e+00 -1.1994222060829582e+01 -4 -2 2
2195 732 2 4.0999999999999998e-01 -2.9995085179332008e+00 -1.4671900085028064e+01 -1.4446199111447529e+01 -6 7 2
247 83 1 -8.1999999999999995e-01 -5.1083083819465287e+00 -1.3982680501174798e+01 -9.9564553360461368e+00 -4 4 -2
248 83 2 4.0999999999999998e-01 -5.8380747378496185e+00 -1.3640283672461806e+01 -9.3647134590584180e+00 -4 4 -2
1361 454 2 4.0999999999999998e-01 -6.6719221641254673e+00 -1.4756093584191808e+01 -1.3389579053713554e+01 -5 -1 3
254 85 2 4.0999999999999998e-01 -6.9836418988879672e+00 -1.2722882132889477e+01 -1.2514328722468830e+01 -1 0 6
2143 715 1 -8.1999999999999995e-01 -6.1256163575307827e+00 -1.1250448600474289e+01 -1.2962304212536518e+01 -4 1 0
748 250 1 -8.1999999999999995e-01 -5.9381772740439214e+00 -1.0261167342585885e+01 -8.5485834606206303e+00 -4 1 8
433 145 1 -8.1999999999999995e-01 -6.3617884832374578e+00 -5.4680465662028634e+00 -1.4852399608875642e+01 -2 -2 3
346 116 1 -8.1999999999999995e-01 -2.9213113411262785e+00 -9.4384933560100492e+00 -1.1355144049139330e+01 -4 -2 2
684 228 2 4.0999999999999998e-01 -2.7078657725109938e+00 -1.1644915896886710e+01 -1.2488320984952926e+01 0 0 1
683 228 2 4.0999999999999998e-01 -3.4260829606894756e+00 -1.2320615172664414e+01 -1.3789895342872187e+01 0 0 1
1156 386 1 -8.1999999999999995e-01 -4.5562574768076836e+00 -1.1250680912100094e+01 -1.0620715563907085e+01 -3 3 4
2463 821 2 4.0999999999999998e-01 -1.1316031332592615e+00 -1.4004547494657025e+01 -1.2314474148889230e+01 1 -2 -1
2514 838 2 4.0999999999999998e-01 -5.1146478060235090e+00 -6.7195493702412818e+00 -1.3278412943999026e+01 -1 3 1
682 228 1 -8.1999999999999995e-01 -2.6200083181217675e+00 -1.1823905985354465e+01 -1.3468217195369359e+01 0 0 1
2144 715 2 4.0999999999999998e-01 -6.4476636818041069e+00 -1.0316771409906945e+01 -1.3118782754807269e+01 -4 1 0
709 237 1 -8.1999999999999995e-01 -2.6392709700249153e+00 -7.7590919212163216e+00 -8.9735536152426381e+00 -3 -1 2
1608 536 2 4.0999999999999998e-01 -1.1535660156003811e+00 -1.2193440816667287e+01 -1.4494069041573550e+01 -1 1 4
211 71 1 -8.1999999999999995e-01 -3.2534228244999674e-01 -7.2455044604848409e+00 -1.0377129576535207e+01 1 1 -1
2461 821 1 -8.1999999999999995e-01 -8.7558896213390369e-01 -1.3591567451688475e+01 -1.1440484830000232e+01 1 -2 -1
641 214 2 4.0999999999999998e-01 -6.9586128509727256e+00 -6.5177369313950830e+00 -1.1131446941596600e+01 2 -1 -6
1304 435 2 4.0999999999999998e-01 -9.1070411833634601e-01 -1.0448528038472897e+01 -7.7025877650324777e+00 -2 -1 0
642 214 2 4.0999999999999998e-01 -5.5508160770418655e+00 -7.2634148552218036e+00 -1.0772874786154901e+01 2 -1 -6
174 58 2 4.0999999999999998e-01 -2.0078206893909289e+00 -1.3329919850494857e+01 -7.7544360980577220e+00 -5 1 1
2570 857 2 4.0999999999999998e-01 -5.1285499465559408e+00 -1.4114508159093932e+01 -1.4443512176428118e+01 -1 -2 4
781 261 1 -8.1999999999999995e-01 -3.2620512171345659e+00 -8.0532617860259208e+00 -1.4990881058619179e+01 -1 6 -4
782 261 2 4.0999999999999998e-01 -2.3040320187870975e+00 -8.2859051015874954e+00 -1.4823461310411423e+01 -1 6 -4
1305 435 2 4.0999999999999998e-01 -9.6029742709264454e-02 -1.0885726941993317e+01 -9.0485684062621470e+00 -2 -1 0
2262 754 2 4.0999999999999998e-01 -1.0566800667728415e-03 -8.0337802235828537e+00 -8.2387755334471358e+00 0 1 -3
455 152 2 4.0999999999999998e-01 -1.0961934112842737e+01 -1.1449583480975479e+01 -6.6691406522002321e+00 -3 3 -2
456 152 2 4.0999999999999998e-01 -1.2085731645371384e+01 -1.2633905192675240e+01 -6.7001602741226947e+00 -3 3 -2
51 17 2 4.0999999999999998e-01 -8.4981140432914941e+00 -9.8314945923023345e+00 -3.4438287136708272e+00 1 0 1
1126 376 1 -8.1999999999999995e-01 -1.4212723942164178e+01 -1.4286832546797704e+01 -6.7015761001063368e+00 1 0 -4
49 17 1 -8.1999999999999995e-01 -8.5085391881539003e+00 -9.0021026315898247e+00 -4.0023565185256640e+00 1 0 1
1131 377 2 4.0999999999999998e-01 -1.0165024900188090e+01 -1.2960217958645639e+01 -4.0746753503351290e+00 3 -6 -1
706 236 1 -8.1999999999999995e-01 -9.8234067397184877e+00 -9.9196857242734549e+00 -6.2637703179481186e+00 0 1 4
1128 376 2 4.0999999999999998e-01 -1.3804137123736409e+01 -1.4616072361891149e+01 -5.8503351805862049e+00 1 0 -4
1129 377 1 -8.1999999999999995e-01 -9.3155559978375297e+00 -1.3302574530659859e+01 -3.6732430551273492e+00 3 -6 -1
333 111 2 4.0999999999999998e-01 -9.1155024992656895e+00 -1.1629385057400652e+01 -1.0155942272633656e+00 1 2 1
1130 377 2 4.0999999999999998e-01 -9.0559298271460023e+00 -1.2724707732005252e+01 -2.8995394822474125e+00 3 -6 -1
707 236 2 4.0999999999999998e-01 -9.4705410487037422e+00 -9.5902264275028557e+00 -5.3880445851537022e+00 0 1 4
1328 443 2 4.0999999999999998e-01 -1.2094083666555209e+01 -8.0503718748760669e+00 -4.3946578530235847e+00 -5 5 1
331 111 1 -8.1999999999999995e-01 -9.4257497350919195e+00 -1.1377738896167038e+01 -1.9323132940862831e+00 1 2 1
50 17 2 4.0999999999999998e-01 -8.6850097332007827e+00 -8.2094760481931282e+00 -3.4187862138611109e+00 1 0 1
332 111 2 4.0999999999999998e-01 -1.0308096669225904e+01 -1.0911431536611992e+01 -1.8692703763036462e+00 1 2 1
730 244 1 -8.1999999999999995e-01 -1.3705698358769727e+01 -1.1494359815867137e+01 -3.8422424868541079e+00 -4 0 7
1329 443 2 4.0999999999999998e-01 -1.3220039740644863e+01 -9.0385906759290435e+00 -5.0443868662694662e+00 -5 5 1
1327 443 1 -8.1999999999999995e-01 -1.2382537267429086e+01 -8.5236180020042518e+00 -5.2269954255866136e+00 -5 5 1
731 244 2 4.0999999999999998e-01 -1.3631959881247642e+01 -1.1884882064578619e+01 -4.7598524116597929e+00 -4 0 7
47 16 2 4.0999999999999998e-01 -1.2232839903010834e+01 -7.9343047640988029e+00 -6.9043044563620732e+00 -4 3 2
708 236 2 4.0999999999999998e-01 -1.0571180826586286e+01 -9.3283125988987159e+00 -6.5655396871392675e+00 0 1 4
661 221 1 -8.1999999999999995e-01 -1.1761260455937711e+01 -7.6117844659978342e+00 -2.5949841583304138e+00 -1 3 6
662 221 2 4.0999999999999998e-01 -1.0770425253142172e+01 -7.4842204684967033e+00 -2.5510933353634755e+00 -1 3 6
663 221 2 4.0999999999999998e-01 -1.2208498949557031e+01 -6.7214485310239880e+00 -2.6800308588490278e+00 -1 3 6
301 101 1 -8.1999999999999995e-01 -1.1883489241907693e+01 -1.0114046839678721e+01 -2.1904899878932902e+00 -2 8 -4
303 101 2 4.0999999999999998e-01 -1.2481336791056773e+01 -1.0532919830660479e+01 -2.8739200815101498e+00 -2 8 -4
302 101 2 4.0999999999999998e-01 -1.1824894431719905e+01 -9.1298230123511335e+00 -2.3572927210568668e+00 -2 8 -4
556 186 1 -8.1999999999999995e-01 -1.4976394278775722e+01 -7.9508917688304068e+00 -1.6461142088032421e+00 -1 4 2
10 4 1 -8.1999999999999995e-01 -1.3335655308156362e+01 -5.0584276407007902e+00 -2.5093351007958606e+00 -1 1 -1
2204 735 2 4.0999999999999998e-01 -8.3217698146214545e+00 -6.2251404802997357e+00 -2.6230169682412452e+00 -2 3 -4
149 50 2 4.0999999999999998e-01 -1.2659742308847836e+01 -1.0161936998525835e+01 -5.5229924695333921e-01 -4 1 -3
454 152 1 -8.1999999999999995e-01 -1.1117007140435764e+01 -1.2423915284950271e+01 -6.8321831129760717e+00 -3 3 -2
2203 735 1 -8.1999999999999995e-01 -8.8544098098054480e+00 -7.0247904885388301e+00 -2.3458749498505682e+00 -2 3 -4
1546 516 1 -8.1999999999999995e-01 -1.3807588696085324e+01 -1.1436681726709468e+01 -6.7943427139494652e+00 2 0 1
1496 499 2 4.0999999999999998e-01 -1.2851094415603329e+01 -1.2775774617782762e+01 -2.3623275866784255e+00 -6 4 0
1495 499 1 -8.1999999999999995e-01 -1.2916639917069610e+01 -1.3378732125341097e+01 -1.5672809629565929e+00 -6 4 0
1497 499 2 4.0999999999999998e-01 -1.3855449763463955e+01 -1.3711223199067254e+01 -1.4776197455820075e+00 -6 4 0
1548 516 2 4.0999999999999998e-01 -1.4197059038485671e+01 -1.2357395420385105e+01 -6.7708446028051696e+00 2 0 1
732 244 2 4.0999999999999998e-01 -1.4526187577499650e+01 -1.1849073246492972e+01 -3.3939916550779348e+00 -4 0 7
558 186 2 4.0999999999999998e-01 -1.4071433394161353e+01 -7.5432616224423192e+00 -1.5243093864974053e+00 -1 4 2
605 202 2 4.0999999999999998e-01 -1.1138994093187906e+01 -6.1044965966670084e+00 -7.4389804839258531e+00 0 4 4
2205 735 2 4.0999999999999998e-01 -8.5625540962047868e+00 -7.3207895823460456e+00 -1.4363927394116853e+00 -2 3 -4
1547 516 2 4.0999999999999998e-01 -1.4285554587403494e+01 -1.0890045318853961e+01 -7.4818674425939404e+00 2 0 1
2433 811 2 4.0999999999999998e-01 -1.1981625428980200e+01 -1.4347691531633902e+01 -3.3869049347235247e-01 -2 4 -3
954 318 2 4.0999999999999998e-01 -7.7724538549303714e+00 -1.3582372821565254e+01 -4.4207079828354114e+00 -6 2 -3
2532 844 2 4.0999999999999998e-01 -1.2882223914014984e+01 -5.2836940524284550e+00 -4.8781108493554193e-01 0 4 6
604 202 1 -8.1999999999999995e-01 -1.0730193998452108e+01 -5.2512555407820614e+00 -7.1152287245614714e+00 0 4 4
11 4 2 4.0999999999999998e-01 -1.4086741355813974e+01 -5.0487694917373513e+00 -3.1694332056703924e+00 -1 1 -1
2162 721 2 4.0999999999999998e-01 -7.9467589279022919e+00 -5.1940137087782627e+00 -4.2237885711518537e+00 -3 1 1
836 279 2 4.0999999999999998e-01 -1.0426630253988392e+01 -1.3747141947588139e+01 -7.5026773685459132e+00 -5 -4 -1
2276 759 2 4.0999999999999998e-01 -1.0080062671396410e+01 -5.0138207447747174e+00 -5.7478640527028855e+00 -6 2 -2
2161 721 1 -8.1999999999999995e-01 -7.2876400316157142e+00 -5.0835596360901114e+00 -3.4799370010636217e+00 -3 1 1
2417 806 2 4.0999999999999998e-01 -6.5222922716341074e+00 -1.1534211361453607e+01 -4.4741780885725468e-01 4 6 1
2490 830 2 4.0999999999999998e-01 -5.3672026440698541e+00 -1.0073587245660722e+01 -5.3859289427020531e+00 -6 -3 2
579 193 2 4.0999999999999998e-01 -5.7814704101604217e+00 -7.1076615619396994e+00 -7.2997848823395168e+00 -3 -2 1
40 14 1 -8.1999999999999995e-01 -5.1485459568469469e+00 -5.7877984446599395e+00 -2.5000325741521401e-01 -2 9 1
1932 644 2 4.0999999999999998e-01 -5.5972200250570001e+00 -1.1339988264564134e+01 -7.3804547383242785e+00 -6 -4 1
2068 690 1 -8.1999999999999995e-01 -1.3650626526389882e+00 -1.2108508635881064e+01 -1.8305503191243329e+00 -6 2 3
42 14 2 4.0999999999999998e-01 -4.6903716622988707e+00 -5.7932111661750181e+00 -1.1388227426817803e+00 -2 9 1
1931 644 2 4.0999999999999998e-01 -6.0821478567045055e+00 -1.2600492550553664e+01 -6.4625902540728344e+00 -6 -4 1
1120 374 1 -8.1999999999999995e-01 -4.6114439115623647e+00 -6.1494558728390079e+00 -2.8775372818483902e+00 2 1 -3
158 53 2 4.0999999999999998e-01 -1.6890808609227754e+00 -7.8055024837149727e+00 -3.3974102600927125e+00 -7 0 -4
934 312 1 -8.1999999999999995e-01 -3.7033848536576901e+00 -1.4171618737238024e+01 -3.3798302526275315e-01 -8 2 2
344 115 2 4.0999999999999998e-01 -1.3057001350329500e+00 -1.1446110551069152e+01 -3.5657402932109701e+00 -4 0 2
2261 754 2 4.0999999999999998e-01 -9.3649827086714410e-01 -7.6921924491228761e+00 -6.9446472077817170e+00 0 1 -3
2091 697 2 4.0999999999999998e-01 -6.7455751042820875e+00 -8.4776239005726879e+00 -4.3290662309172312e-01 -4 -1 1
1046 349 2 4.0999999999999998e-01 -4.2389419351581221e+00 -9.1945020144266500e+00 -3.6935692468259589e+00 0 2 -4
343 115 1 -8.1999999999999995e-01 -1.1218073652259939e+00 -1.0886944182202608e+01 -4.3741148539425438e+00 -4 0 2
2336 779 2 4.0999999999999998e-01 -6.0159583900074711e+00 -1.2832515243456220e+01 -3.1463478969461889e+00 -4 2 3
953 318 2 4.0999999999999998e-01 -6.6469862944750044e+00 -1.4683266495674761e+01 -4.8541331301879698e+00 -6 2 -3
720 240 2 4.0999999999999998e-01 -2.5026452588103023e+00 -1.0983135064049865e+01 -1.1290256809929282e+00 -2 2 2
578 193 2 4.0999999999999998e-01 -4.8424656653938278e+00 -8.1629647678133850e+00 -6.4805740725721037e+00 -3 -2 1
2198 733 2 4.0999999999999998e-01 -5.4482605193111517e+00 -9.2561340091704523e+00 -2.1222320736737235e+00 -3 0 3
894 298 2 4.0999999999999998e-01 -8.2479205213687656e-01 -5.8575264751984886e+00 -3.7671738108872237e+00 -3 5 -6
2559 853 2 4.0999999999999998e-01 -3.8646468149419064e+00 -1.4408854249530567e+01 -5.1930599924395118e+00 1 6 7
2197 733 1 -8.1999999999999995e-01 -6.2146151435479009e+00 -9.7990998890058911e+00 -1.7789512898559536e+00 -3 0 3
2199 733 2 4.0999999999999998e-01 -6.0803098908679161e+00 -1.0758718369514195e+01 -2.0260291066138496e+00 -3 0 3
2070 690 2 4.0999999999999998e-01 -7.2417893489643248e-01 -1.2173059587265092e+01 -1.0656619480506748e+00 -6 2 3
952 318 1 -8.1999999999999995e-01 -6.7959896850565560e+00 -1.3797837526035019e+01 -4.4139437506701196e+00 -6 2 -3
2335 779 1 -8.1999999999999995e-01 -5.6761341370412950e+00 -1.2327004275522437e+01 -2.3532960789609803e+00 -4 2 3
790 264 1 -8.1999999999999995e-01 -3.5600878130323945e+00 -1.2542027284602939e+01 -4.8865911427259690e+00 -1 0 1
173 58 2 4.0999999999999998e-01 -1.5642315211654676e+00 -1.3164031080338827e+01 -6.1916787012330357e+00 -5 1 1
718 240 1 -8.1999999999999995e-01 -2.9269092367957903e+00 -1.0088276792902004e+01 -9.9052738829251830e-01 -2 2 2
1930 644 1 -8.1999999999999995e-01 -5.4897761480380449e+00 -1.1795583627443728e+01 -6.4968022544146624e+00 -6 -4 1
2069 690 2 4.0999999999999998e-01 -1.7108683092444714e+00 -1.3019924055837116e+01 -2.0534704885141775e+00 -6 2 3
1045 349 1 -8.1999999999999995e-01 -3.6694296116618101e+00 -8.6760402486910220e+00 -3.0557557349128963e+00 0 2 -4
1122 374 2 4.0999999999999998e-01 -4.1565503700238295e+00 -7.0306135252583370e+00 -2.7487505206794296e+00 2 1 -3
2489 830 2 4.0999999999999998e-01 -6.6449139805340618e+00 -9.1451797937268502e+00 -4.9711825585671860e+00 -6 -3 2
157 53 1 -8.1999999999999995e-01 -7.6318233630531829e-01 -7.4356272195307485e+00 -3.3208780844021408e+00 -7 0 -4
172 58 1 -8.1999999999999995e-01 -1.3486136820763566e+00 -1.2905971708669190e+01 -7.1334150455201035e+00 -5 1 1
2337 779 2 4.0999999999999998e-01 -4.7838424787298521e+00 -1.2689510598381789e+01 -2.0843020483119794e+00 -4 2 3
159 53 2 4.0999999999999998e-01 -1.6216847706559889e-01 -8.1232875947012353e+00 -2.9136207792537547e+00 -7 0 -4
1121 374 2 4.0999999999999998e-01 -5.3901306553796111e+00 -6.2633703168322405e+00 -3.4944841657508423e+00 2 1 -3
1047 349 2 4.0999999999999998e-01 -3.4508167608259832e+00 -9.2468880913348883e+00 -2.2643682421110256e+00 0 2 -4
791 264 2 4.0999999999999998e-01 -4.3709935914882738e+00 -1.2306537689451304e+01 -5.4222491929564747e+00 -1 0 1
345 115 2 4.0999999999999998e-01 -9.8199382574958349e-01 -9.9363395674736132e+00 -4.0970658624810916e+00 -4 0 2
792 264 2 4.0999999999999998e-01 -2.9515890337612323e+00 -1.1750030550054428e+01 -4.8373630656784350e+00 -1 0 1
2488 830 1 -8.1999999999999995e-01 -5.6466781285451031e+00 -9.2034946665612853e+00 -4.9799913146857335e+00 -6 -3 2
2558 853 2 4.0999999999999998e-01 -3.5521066149861351e+00 -1.4751528885508767e+01 -6.7587527800285585e+00 1 6 7
41 14 2 4.0999999999999998e-01 -6.0170938075475409e+00 -6.2784234052672065e+00 -3.1975100463241191e-01 -2 9 1
577 193 1 -8.1999999999999995e-01 -5.0458894899361955e+00 -7.7800957541645932e+00 -7.3816751250589165e+00 -3 -2 1
2089 697 1 -8.1999999999999995e-01 -7.4632156509196284e+00 -7.8165072122967860e+00 -2.1411508846457572e-01 -4 -1 1
2260 754 1 -8.1999999999999995e-01 -4.0733455809311536e-02 -7.5485996796073085e+00 -7.3652889633530068e+00 0 1 -3
320 107 2 4.0999999999999998e-01 -7.0154825698461956e+00 -1.4706072043954036e+01 -7.3146606419666282e+00 -5 5 6
719 240 2 4.0999999999999998e-01 -2.9246044851094872e+00 -9.8656069272232365e+00 -1.5660307003262375e-02 -2 2 2
2448 816 2 4.0999999999999998e-01 -7.9485758790519530e+00 -9.7652556550522469e+00 4.7530636304492226e+00 -6 -4 -3
567 189 2 4.0999999999999998e-01 -8.5737261862454623e+00 -1.1349043446681415e+01 1.5834375398784850e+00 2 6 2
565 189 1 -8.1999999999999995e-01 -9.2225216788954096e+00 -1.1297042397086463e+01 2.3425905557081634e+00 2 6 2
1274 425 2 4.0999999999999998e-01 -9.6284225797492216e+00 -1.0775183655527833e+01 3.8557187638642745e+00 -5 3 1
1273 425 1 -8.1999999999999995e-01 -9.6198784065977847e+00 -1.0479196178774197e+01 4.8108478126952043e+00 -5 3 1
1275 425 2 4.0999999999999998e-01 -9.9953304878302891e+00 -1.1204445337590412e+01 5.3879113987768399e+00 -5 3 1
2326 776 1 -8.1999999999999995e-01 -1.0248931983354549e+01 -1.2277643076612838e+01 6.8472076566722393e+00 -1 -5 -7
1638 546 2 4.0999999999999998e-01 -1.0174323396883423e+01 -9.6132705025374445e+00 1.5436494499354509e+00 -5 0 0
566 189 2 4.0999999999999998e-01 -9.6882604441986047e+00 -1.2176129874829382e+01 2.4438110140023355e+00 2 6 2
116 39 2 4.0999999999999998e-01 -1.3560930068685909e+01 -1.2076157716131901e+01 4.4007405749256066e+00 -8 -1 4
115 39 1 -8.1999999999999995e-01 -1.3957342210018250e+01 -1.2101163661525050e+01 3.4830341470207564e+00 -8 -1 4
1254 418 2 4.0999999999999998e-01 -1.4446562687600082e+01 -8.0422564520160869e+00 3.5859160413100639e+00 1 8 3
117 39 2 4.0999999999999998e-01 -1.3696138668252996e+01 -1.2953636694188978e+01 3.0302478483176287e+00 -8 -1 4
1459 487 1 -8.1999999999999995e-01 -9.0554703890312886e+00 -1.4799820973965574e+01 4.3982613883058939e+00 -7 0 -2
1761 587 2 4.0999999999999998e-01 -1.2271826401529070e+01 -1.4451816498875706e+01 5.7252015915746277e+00 -3 0 -3
1759 587 1 -8.1999999999999995e-01 -1.1313450417533209e+01 -1.4731673620011696e+01 5.7813127549579839e+00 -3 0 -3
2073 691 2 4.0999999999999998e-01 -1.0754511000355471e+01 -8.7408567742885754e+00 4.7032239769779167e+00 -3 0 4
2071 691 1 -8.1999999999999995e-01 -1.1075211269673147e+01 -7.8018138209312138e+00 4.5795195660426913e+00 -3 0 4
335 112 2 4.0999999999999998e-01 -1.2191236607383537e+01 -6.7959406934279922e+00 5.7135798263044464e+00 -3 5 0
2072 691 2 4.0999999999999998e-01 -1.0532575058989721e+01 -7.3552778568344692e+00 3.8681091958626190e+00 -3 0 4
334 112 1 -8.1999999999999995e-01 -1.2981298072679396e+01 -6.3718444843476014e+00 6.1561837782492610e+00 -3 5 0
799 267 1 -8.1999999999999995e-01 -1.2634640120087996e+01 -6.9559176222438222e+00 2.1816625275693369e+00 -4 4 -1
800 267 2 4.0999999999999998e-01 -1.2870581250775587e+01 -6.4031840642489399e+00 2.9808936379357611e+00 -4 4 -1
1687 563 1 -8.1999999999999995e-01 -1.4110511703671630e+01 -1.4070956126292709e+01 5.5188176992896807e+00 -2 4 2
801 267 2 4.0999999999999998e-01 -1.2624093018841794e+01 -7.9228319134675864e+00 2.4364535589526000e+00 -4 4 -1
336 112 2 4.0999999999999998e-01 -1.3647580230715176e+01 -7.0777897460154335e+00 6.3963136076813001e+00 -3 5 0
2149 717 1 -8.1999999999999995e-01 -7.9293161422488874e+00 -6.9751051405808369e+00 5.1295845400781310e+00 -6 4 -1
2151 717 2 4.0999999999999998e-01 -8.3240606531467574e+00 -7.1208471000279623e+00 4.2224522335659387e+00 -6 4 -1
2043 681 2 4.0999999999999998e-01 -1.3490709185826493e+01 -9.6321677186185237e+00 2.1831194292078315e+00 -3 0 -2
1531 511 1 -8.1999999999999995e-01 -1.4152152713824620e+01 -1.4275792897705854e+01 1.5002248205527167e+00 0 2 -1
2251 751 1 -8.1999999999999995e-01 -9.3853500721739991e+00 -6.6182859814722281e+00 2.3463816042630192e+00 -5 1 5
2253 751 2 4.0999999999999998e-01 -9.8762815887257958e+00 -7.1393120211910368e+00 1.6481903182891848e+00 -5 1 5
1460 487 2 4.0999999999999998e-01 -9.9016104879022251e+00 -1.4717250087941787e+01 4.9247421311723159e+00 -7 0 -2
2150 717 2 4.0999999999999998e-01 -8.6409609335937496e+00 -6.6559393876030235e+00 5.7554024047631458e+00 -6 4 -1
2252 751 2 4.0999999999999998e-01 -8.9860207209084599e+00 -5.8002438822193358e+00 1.9325021144316743e+00 -5 1 5
2041 681 1 -8.1999999999999995e-01 -1.3363851920047717e+01 -9.4330196892920473e+00 3.1548191094547491e+00 -3 0 -2
2042 681 2 4.0999999999999998e-01 -1.3466312435976425e+01 -1.0275390768407590e+01 3.6838425770548113e+00 -3 0 -2
1636 546 1 -8.1999999999999995e-01 -1.0164474606760594e+01 -8.8967391339560677e+00 8.4619782767645901e-01 -5 0 0
2531 844 2 4.0999999999999998e-01 -1.2757979446258439e+01 -5.7433480192636175e+00 1.0741692977865043e+00 0 4 6
2328 776 2 4.0999999999999998e-01 -1.0400605359857348e+01 -1.3260063962174421e+01 6.9558235338693812e+00 -1 -5 -7