2593
Atoms. Timestep: 18495000
O 4.38971 -10.1335 6.25397
H 3.99171 -9.69688 7.06079
H 4.04421 -11.0687 6.17655
O 3.25994 14.2861 4.29259
H 3.59853 14.6152 3.41108
H 2.35628 13.8756 4.17037
O -5.02323 7.99077 -6.33907
H -4.69354 7.06171 -6.50689
H -5.90897 7.95168 -5.87653
O 13.2783 -6.17218 -4.42246
H 13.0232 -5.21014 -4.51947
H 12.7603 -6.58018 -3.67061
O 6.54348 8.51808 14.3139
H 5.62806 8.77123 14.001
H 6.98965 9.31594 14.7193
O 9.92158 5.04756 3.13312
H 10.63 4.45101 3.51041
H 9.02 4.67908 3.35979
O 5.64773 10.8986 -7.64891
H 5.75629 10.6597 -6.68395
H 5.03932 11.6881 -7.73042
O 1.26057 9.02178 -9.82376
H 0.300314 9.09204 -10.0939
H 1.6997 9.91521 -9.91849
O -7.28781 4.84944 2.57496
H -6.50036 5.34237 2.20487
H -7.35383 3.9517 2.1394
O 6.26079 0.830194 1.02897
H 6.18335 0.845306 0.0320796
H 5.78859 1.6241 1.41204
O 1.37011 6.6959 -4.48883
H 1.49219 5.82577 -4.01135
H 2.20548 7.23982 -4.40929
O -7.75878 6.07181 -0.41538
H -7.16269 5.70894 0.300863
H -8.3473 6.78291 -0.0306839
O -5.89323 0.983891 9.51711
H -6.15089 0.0203522 9.44492
H -6.66502 1.55687 9.24136
O -5.34643 -8.75744 -0.39523
H -6.33312 -8.60612 -0.335679
H -5.06374 -8.73945 -1.35428
O -12.9563 -3.00698 13.0593
H -13.0389 -3.70441 12.3475
H -13.8436 -2.87493 13.5012
O -13.1133 -7.09383 -7.51199
H -13.305 -7.95888 -7.04838
H -12.1268 -6.99896 -7.64591
O -10.4891 -8.65709 -1.46046
H -11.1553 -8.21954 -2.06442
H -10.1039 -9.46012 -1.9152
O 5.3268 13.288 14.0573
H 6.13116 13.7464 13.6793
H 5.0078 13.7857 14.8639
O 1.32976 -14.4962 7.33982
H 0.347831 -14.6517 7.23188
H 1.78308 14.7084 7.55116
O 3.40946 -8.93664 -14.364
H 3.80554 -8.32718 -13.6772
H 2.77318 -9.56862 -13.9215
O -3.86096 8.55448 -10.3007
H -3.5245 7.61331 -10.2691
H -4.84393 8.55106 -10.4844
O 4.10852 9.68851 6.41284
H 4.18616 10.5945 5.99663
H 3.68777 9.77167 7.3162
O 9.9652 2.06765 2.73794
H 9.73417 1.09528 2.70442
H 10.137 2.33695 3.68555
O -10.1742 -8.9352 13.1732
H -10.2619 -9.92314 13.0456
H -11.0753 -8.5081 13.0985
O 7.14466 2.08676 8.34449
H 6.73211 2.59651 9.09945
H 7.61862 2.72105 7.73372
O -1.77774 13.2137 1.75598
H -1.53507 14.1644 1.56261
H -2.47186 13.1866 2.47534
O -14.9574 7.04769 -2.21455
H -14.9474 8.04271 -2.1153
H -14.5611 6.79682 -3.09771
O 6.76374 11.0748 -14.6306
H 6.54546 11.0024 -13.6574
H 6.30558 11.8756 -15.0163
O 13.1089 -14.5334 10.4887
H 12.1541 -14.2452 10.4166
H 13.7066 -13.7756 10.2271
O -4.1005 -4.81687 13.4861
H -3.26217 -5.17981 13.8929
H -4.20404 -5.17689 12.5589
O -14.3882 -0.924193 4.00299
H -13.5193 -0.531303 4.30385
H -14.9473 -0.211555 3.57914
O 6.44602 4.94441 10.0529
H 6.54855 5.68917 9.39349
H 6.80092 5.23484 10.9416
O -9.06168 3.11627 1.18256
H -9.02077 2.4132 1.8925
H -9.07422 2.68074 0.282465
O -13.3659 1.10221 12.7296
H -13.766 0.636981 13.5193
H -13.3279 0.471069 11.9549
O -10.701 2.71089 -2.69396
H -10.5855 3.16662 -3.57656
H -10.6061 3.38107 -1.95785
O 2.26531 12.7595 0.620184
H 2.11832 12.6623 1.60453
H 1.46331 13.1882 0.204172
O 9.56345 12.7873 6.11577
H 9.97615 13.3241 5.37991
H 9.84062 11.8306 6.02626
O 3.96371 9.43651 13.6352
H 4.03694 10.2338 13.0361
H 3.83878 8.61354 13.081
O -14.2165 -13.5156 4.00348
H -14.2052 -13.5911 5.00057
H -13.4318 -14.0051 3.62323
O 12.1243 -1.4405 3.23165
H 12.6855 -2.24941 3.40698
H 12.7073 -0.693056 2.91306
O -14.3224 14.2752 -14.9064
H -14.0928 13.3167 14.9947
H -14.724 14.6726 14.339
O 4.77414 7.61439 4.5883
H 4.12939 7.52699 3.82892
H 4.59285 8.46414 5.08336
O 2.80072 -3.73658 -9.2806
H 2.60099 -3.19769 -8.46223
H 3.45135 -3.24062 -9.85568
O 5.54743 9.63767 10.0896
H 5.83677 10.258 10.8186
H 4.55121 9.66277 10.0064
O 3.58841 -4.91316 9.59176
H 3.91527 -5.62238 10.2164
H 3.75438 -4.01267 9.99373
O 14.9963 -12.4575 14.9146
H -15.0009 -11.9079 -14.3238
H 14.0349 -12.5372 14.6514
O -5.17956 -0.718318 6.49062
H -4.22082 -0.497638 6.31135
H -5.34494 -0.709099 7.47681
O 11.8221 -9.7833 11.4865
H 12.2531 -9.07967 10.9215
H 11.2085 -9.35076 12.147
O 13.5507 -7.04568 -12.167
H 14.0755 -7.80993 -12.542
H 12.9342 -7.38209 -11.4552
O -13.8921 -11.0896 0.30127
H -14.5035 -10.3783 -0.0455129
H -13.6363 -11.7027 -0.446166
O 12.9115 -13.1419 4.90038
H 13.0958 -12.7889 3.98307
H 12.2924 -12.5193 5.37895
O -8.37751 -2.54704 10.6009
H -7.39494 -2.4979 10.7802
H -8.81084 -1.69074 10.8819
O -2.74413 -8.04351 -4.39611
H -3.51362 -8.51457 -3.96484
H -2.49328 -7.24486 -3.84908
O -6.03064 -10.1054 3.39475
H -6.48997 -9.51406 4.05757
H -6.59102 -10.9165 3.22721
O -9.27851 -1.21061 -2.30591
H -10.2671 -1.06631 -2.34906
H -8.98055 -1.72049 -3.11291
O 4.18189 3.43605 -7.28706
H 4.79667 3.83888 -7.96514
H 4.61052 3.47394 -6.38437
O 3.76864 12.6322 -3.40293
H 4.36295 13.4005 -3.16494
H 3.73869 11.9854 -2.64086
O -4.50198 -13.3373 -7.94679
H -5.0347 -13.0387 -7.15494
H -4.43782 -12.5889 -8.60686
O -8.08769 -12.9445 -1.69533
H -7.32798 -12.4542 -1.26815
H -7.98746 -13.9253 -1.52816
O 2.15851 -8.98523 -2.74306
H 2.66941 -8.92434 -1.88557
H 2.2812 -8.14101 -3.26483
O 0.949513 12.1305 -7.4908
H 0.242626 11.4242 -7.45261
H 0.518268 13.0318 -7.53126
O -0.211563 -2.34268 -6.84677
H -1.16842 -2.12158 -6.65822
H -0.0333375 -3.29385 -6.5947
O 1.06391 -8.54573 13.9814
H 1.94963 -8.52512 14.4452
H 1.11362 -9.16167 13.1951
O -4.36634 12.7367 -1.39512
H -3.93721 11.8764 -1.67038
H -5.18853 12.8895 -1.94345
O -12.3021 5.91256 12.4109
H -11.611 6.32078 13.0074
H -13.1269 5.7171 12.9416
O 10.0762 14.9373 1.53719
H 9.15265 14.5548 1.50956
H 10.7361 14.2344 1.27169
O -7.1158 5.01268 10.0724
H -6.60967 5.79168 10.4425
H -7.91263 4.82902 10.648
O -9.6298 12.3071 12.5996
H -8.93311 13.0161 12.4899
H -9.28231 11.4402 12.2422
O -12.6108 10.9686 8.08987
H -12.2832 10.6957 7.18532
H -12.9561 10.1656 8.57555
O -1.89737 -7.05502 1.23679
H -2.58665 -7.76154 1.07635
H -1.5491 -7.1351 2.17076
O -1.17222 -8.92067 -9.05079
H -0.788523 -8.85315 -9.97178
H -1.45792 -9.86311 -8.87701
O -10.9378 6.51018 6.2977
H -10.4112 6.53029 7.1476
H -10.3188 6.36701 5.52542
O -9.17197 -5.8147 13.1755
H -8.86267 -5.35092 12.3453
H -8.86262 -6.76555 13.1611
O 3.60976 -2.46269 -2.25797
H 4.08457 -2.48665 -3.13773
H 3.56973 -1.52011 -1.92637
O -8.51825 -4.00853 -7.63306
H -9.22739 -3.31072 -7.734
H -8.88178 -4.89642 -7.91502
O 8.48014 13.3621 -6.07093
H 8.18735 12.6853 -6.74638
H 7.89695 13.2987 -5.26107
O -2.14913 -11.7624 9.13167
H -2.33977 -12.7216 9.34031
H -1.87129 -11.2884 9.96722
O -13.8173 3.76219 0.820212
H -13.5277 4.15797 1.69169
H -13.2845 4.16675 0.0769211
O 14.3157 10.1667 12.9088
H 14.7387 10.7939 13.5628
H 13.3264 10.3122 12.8995
O -13.0629 4.84167 6.37075
H -12.992 3.86031 6.5494
H -12.1468 5.22791 6.26319
O 8.58515 5.96174 -3.49874
H 9.08661 5.14037 -3.77061
H 8.25684 5.8564 -2.56006
O -4.67657 12.5861 -12.1246
H -4.69355 13.5219 -11.7724
H -4.20831 11.9922 -11.4704
O -4.70915 -10.8319 -9.3936
H -5.6793 -10.9152 -9.1658
H -4.44724 -9.86681 -9.38863
O 11.7054 -13.136 0.0658378
H 11.7047 -12.4597 0.802462
H 11.4165 -14.0226 0.427082
O -7.20449 -9.66088 -12.3654
H -6.53081 -8.97614 -12.0874
H -7.91791 -9.72895 -11.668
O -8.39981 4.41133 -2.40975
H -7.97655 4.59967 -3.29598
H -8.17949 5.14908 -1.77163
O 8.96154 -12.0981 12.5715
H 8.06081 -12.4993 12.738
H 9.66417 -12.6678 12.9978
O -2.28241 -6.04187 -2.21753
H -1.90274 -6.5522 -1.44589
H -3.26441 -5.91196 -2.08041
O 4.41063 1.33123 11.7448
H 4.3963 0.682323 10.984
H 4.34239 2.26335 11.3891
O -6.56615 13.237 -3.23776
H -6.25896 12.695 -4.02004
H -6.58111 14.205 -3.48816
O -5.19723 10.4832 14.9921
H -5.22792 11.464 -14.8864
H -6.12804 10.1182 14.9718
O 12.8847 0.275225 -1.72829
H 12.71 0.872765 -0.945723
H 13.0859 0.83187 -2.53433
O 10.212 -14.1043 -11.8999
H 9.77276 -14.7255 -11.2509
H 9.5866 -13.3558 -12.1203
O 5.54762 -6.9831 -7.91104
H 4.87945 -7.58949 -7.47994
H 6.47148 -7.27773 -7.66674
O 12.4855 1.31371 -12.1815
H 12.6069 0.520102 -12.7777
H 13.0655 2.06283 -12.5015
O 12.0926 -11.7926 -4.26962
H 11.1082 -11.7651 -4.44393
H 12.5255 -12.4334 -4.90355
O 7.27265 7.86763 5.66587
H 6.3839 7.76903 5.21818
H 7.35349 8.78857 6.04709
O 5.36043 4.80104 -1.48145
H 5.34894 4.50934 -2.4379
H 6.19812 5.31623 -1.30015
O -0.269219 10.8066 14.4807
H -1.12593 10.3102 14.6208
H -0.34988 11.3889 13.6717
O 8.06254 4.34338 6.65221
H 8.678 4.95322 6.1529
H 7.18971 4.80569 6.80857
O -14.2019 -5.49138 -3.40355
H -14.1218 -5.47995 -2.40683
H 14.9024 -5.51867 -3.65993
O 3.59756 11.1435 -1.14734
H 2.85771 11.7894 -0.959044
H 3.21032 10.249 -1.37064
O -5.38828 -13.5644 12.052
H -6.21363 -13.4794 12.6102
H -4.73728 -14.17 12.5097
O -5.42342 -3.41692 2.65216
H -4.47605 -3.68944 2.82023
H -5.90241 -3.32086 3.52471
O 0.303406 14.3714 -0.539007
H 0.889873 -14.9056 -0.701273
H -0.654648 14.6378 -0.644765
O -5.43511 13.1399 -14.731
H -4.79057 13.7132 14.8338
H -5.22602 13.1852 -13.7541
O -7.58258 -11.4248 -8.71568
H -8.00471 -12.1967 -8.24036
H -8.23154 -11.0435 -9.37408
O 14.3698 6.41659 -13.8612
H 14.8714 6.77759 -14.6473
H 13.425 6.22592 -14.1276
O -12.5268 8.76247 9.82438
H -13.3519 8.19915 9.86783
H -11.7297 8.17562 9.68243
O 4.10263 3.9043 10.7583
H 3.3861 4.20944 10.131
H 4.99051 4.23111 10.4344
O -13.2419 -9.44322 -3.3221
H -12.6159 -8.69525 -3.54272
H -13.9422 -9.11565 -2.68784
O -12.3301 -7.46981 6.78035
H -11.7054 -7.8918 6.12333
H -13.1243 -8.06276 6.9134
O -10.3944 13.1024 1.37921
H -11.0134 12.3271 1.25343
H -9.50678 12.7715 1.69969
O 12.0672 13.8298 -12.4386
H 11.6449 12.9794 -12.1247
H 11.4956 14.605 -12.1693
O -1.74111 -11.0933 -5.705
H -2.46389 -11.7693 -5.56119
H -2.151 -10.1928 -5.84984
O -6.53649 -6.0305 -14.9775
H -5.6912 -5.56759 14.8262
H -6.84074 -6.62434 14.3482
O -0.0676735 -14.1917 3.01019
H 0.658256 -13.773 2.46452
H -0.0158272 -13.8532 3.94973
O 6.24383 -10.2883 -8.81308
H 6.90221 -10.1486 -8.07347
H 6.30237 -9.52761 -9.45954
O -6.37875 6.13691 -10.0761
H -6.32947 7.01178 -10.558
H -6.61407 5.41237 -10.724
O 5.52106 7.41937 -12.6006
H 4.86967 7.33408 -13.3546
H 6.44406 7.22769 -12.9343
O -8.89974 -14.2378 -12.7196
H -8.2289 -14.4708 -12.0155
H -8.80087 -14.8628 -13.494
O -14.5038 -7.56678 -9.86852
H -14.0484 -7.45018 -8.98595
H -14.0062 -7.05705 -10.5703
O 7.01768 -14.1661 -7.78297
H 7.05525 14.9985 -7.36123
H 6.07409 -13.835 -7.778
O -14.7087 7.74726 13.8614
H -14.9728 8.60231 13.4152
H -13.8517 7.88181 14.3589
O 4.17653 7.90391 -9.18424
H 3.24452 8.25637 -9.26879
H 4.77215 8.37758 -9.83299
O 3.68654 -4.10527 -12.9788
H 3.58522 -4.40145 -13.9286
H 2.78753 -3.88374 -12.601
O 14.6484 -2.9126 10.6003
H 14.3651 -2.76948 9.65199
H -14.7717 -3.67098 10.643
O -3.73901 1.22685 -9.3282
H -3.63968 1.08762 -8.34293
H -2.99319 1.80445 -9.66007
O 11.1226 9.26338 1.64963
H 11.3063 9.40733 2.62203
H 10.6051 8.41611 1.53004
O 5.48638 -6.51996 13.3241
H 4.75174 -5.98704 13.744
H 5.94058 -5.96817 12.6246
O 13.0194 -6.61507 -9.06379
H 13.8839 -6.64868 -9.56519
H 13.1685 -6.91539 -8.12168
O 12.9082 -3.57729 -6.15402
H 12.0661 -4.11573 -6.18373
H 13.6657 -4.12315 -6.51227
O 1.23398 9.75829 -2.29519
H 1.28516 8.77409 -2.12567
H 1.31478 9.9321 -3.27666
O 3.25485 7.16732 9.63175
H 3.00985 7.75927 8.86391
H 2.81094 6.278 9.52189
O -15.025 11.9047 6.85976
H -14.1731 11.767 7.3651
H 14.5512 12.6836 7.24569
O 14.7126 -9.43726 -13.0373
H -14.3913 -9.30349 -13.2555
H 14.6306 -9.87914 -12.144
O -3.47642 5.66005 -5.28054
H -3.67034 4.74067 -4.93827
H -2.48956 5.77058 -5.39838
O 8.88053 9.68593 -3.79643
H 8.21477 10.4304 -3.74678
H 8.90317 9.2002 -2.92261
O -5.64788 -2.01679 -1.33523
H -5.4776 -1.2228 -0.751621
H -5.64277 -2.8472 -0.778103
O -2.09858 -0.681975 -15.0092
H -1.90368 -0.0141139 -14.2909
H -2.20167 -1.58932 -14.6017
O -7.62731 1.80194 -9.44343
H -7.30829 1.92705 -10.3829
H -7.3663 0.891966 -9.12119
O 14.6805 2.11787 -7.28602
H 14.0879 2.81091 -6.87555
H -14.9432 1.59081 -6.5631
O 8.66942 -2.33596 -1.94837
H 9.22601 -2.08882 -2.74155
H 9.22907 -2.28951 -1.12094
O 3.23033 -13.1675 -5.8941
H 2.24758 -13.1919 -6.07745
H 3.39573 -12.7018 -5.02471
O -8.42369 -4.04241 -14.6163
H -9.08761 -4.24693 14.735
H -7.62588 -4.63626 -14.7204
O 8.9973 9.22832 -7.93877
H 8.81152 8.57408 -7.20565
H 9.57276 9.96721 -7.5882
O 6.20815 -10.9807 -0.0997351
H 6.39925 -10.1739 -0.658777
H 6.16923 -10.7168 0.864038
O 5.15515 -10.7693 13.0036
H 4.79618 -11.5754 13.4741
H 5.88547 -10.3612 13.5514
O -11.5689 -14.6983 -10.6083
H -10.8425 -14.6015 -11.2888
H -11.5978 14.4267 -10.284
O 11.7678 6.14811 -6.13911
H 12.5665 6.46293 -6.65189
H 10.9436 6.28547 -6.68853
O -2.38895 6.20502 -9.78213
H -1.82357 5.96974 -10.5727
H -1.80314 6.35026 -8.9848
O -10.1023 -12.335 -5.21971
H -10.5541 -12.8631 -4.50074
H -9.73686 -12.958 -5.91131
O 7.67145 -1.63656 -13.892
H 7.99813 -1.87881 -12.9785
H 7.38375 -0.678869 -13.9
O 12.6081 1.51241 10.528
H 12.5221 2.36365 11.0457
H 12.7142 0.746159 11.1618
O 3.43908 -8.00006 -11.7136
H 3.43992 -7.12942 -11.2216
H 2.49811 -8.25838 -11.9323
O 3.18853 -9.45296 -9.02365
H 3.65812 -9.19708 -8.17865
H 3.38135 -8.77305 -9.73115
O 12.3138 -8.23996 5.1812
H 11.3184 -8.20773 5.09112
H 12.7083 -8.66978 4.36899
O 12.1657 -10.5755 -9.94239
H 11.856 -9.84842 -10.5551
H 12.3371 -11.4067 -10.4714
O -4.95113 -2.69015 -8.4221
H -4.16938 -3.0978 -8.894
H -4.9206 -2.93559 -7.45316
O 1.96552 -10.3913 1.00403
H 2.58313 -9.9259 0.370036
H 1.05908 -9.97186 0.954676
O -3.70661 -10.7104 5.18488
H -4.4701 -10.379 4.63052
H -2.95341 -10.054 5.14109
O 7.66355 7.5324 -5.41965
H 7.95081 8.37364 -4.96159
H 7.84062 6.75035 -4.82211
O 9.70201 -7.19994 -7.74361
H 10.4529 -7.85968 -7.71421
H 8.88861 -7.60178 -7.32301
O -2.53876 -14.4782 9.72398
H -3.50609 -14.7232 9.78949
H -2.02813 14.8301 9.32609
O 8.30704 -12.8764 5.66678
H 8.99267 -12.839 6.39378
H 8.76334 -12.8596 4.77711
O 7.86545 -3.77202 14.5607
H 7.83811 -2.95854 -14.9289
H 7.05333 -3.79262 13.9776
O -3.76362 -4.61283 10.472
H -3.36811 -4.62858 9.55369
H -3.29408 -3.92486 11.0254
O 1.4514 -2.32173 10.203
H 0.823332 -3.09981 10.2143
H 1.43773 -1.86934 11.0947
O 11.2547 -3.21992 -9.72201
H 11.6504 -2.32482 -9.51652
H 11.9232 -3.77389 -10.2183
O -7.95257 10.6915 6.77927
H -8.62888 10.4529 7.4762
H -8.32814 11.3967 6.17792
O -11.5258 12.9491 -9.46722
H -11.8704 12.0229 -9.62028
H -12.0452 13.3803 -8.72943
O -2.5963 10.7732 -2.67783
H -1.78406 11.1607 -2.24182
H -2.32804 10.2857 -3.50872
O 9.53784 7.52533 -12.0216
H 10.3394 8.06559 -12.2778
H 9.13433 7.90242 -11.1879
O 1.65062 -1.67695 13.105
H 2.47617 -1.13418 13.2595
H 1.2452 -1.9249 13.9848
O 7.27622 -13.2599 14.8929
H 6.49549 -13.4298 -14.5763
H 7.42732 -12.2746 14.8131
O -6.67229 1.25267 -4.86737
H -6.7902 1.69508 -3.97834
H -6.31847 1.91687 -5.5259
O -9.82716 -8.27224 9.13162
H -9.63642 -7.36548 8.75557
H -10.4223 -8.77472 8.50448
O 10.7405 -4.76116 -7.56858
H 11.1446 -4.4727 -8.43665
H 10.5856 -5.74895 -7.58497
O -8.31276 4.41681 6.83062
H -8.70794 4.28352 5.92174
H -8.62631 5.28915 7.20576
O -4.33795 13.7505 11.1355
H -4.35487 12.8779 10.6473
H -3.81437 13.6491 11.9814
O 9.35097 -9.11016 4.64879
H 9.04674 -8.37287 4.04559
H 8.58336 -9.72148 4.84133
O 13.9226 3.10167 -13.6632
H 14.8025 3.04552 -13.1915
H 14.0269 2.77643 -14.6031
O -8.68346 -3.37819 7.94343
H -8.54572 -3.4081 8.93346
H -9.26224 -2.59655 7.7109
O -9.93962 -8.61566 -8.49006
H -9.84003 -9.25247 -9.25463
H -10.3166 -9.09948 -7.70023
O 9.85255 5.27441 12.4338
H 10.2184 5.27192 11.5031
H 8.86235 5.41049 12.4024
O 14.7608 -8.15845 -1.90092
H 14.0495 -8.44273 -1.25798
H 15.0074 -7.2054 -1.72515
O -5.61149 11.4008 -5.0098
H -4.68073 11.6574 -5.2703
H -5.99083 10.7807 -5.6965
O 6.74308 -5.53973 11.0655
H 7.4012 -4.81017 11.2516
H 6.75918 -5.76251 10.0908
O -12.132 -10.122 2.12559
H -11.4847 -10.8829 2.07956
H -12.8479 -10.2515 1.43947
O 4.90908 -13.2647 -0.761514
H 5.10758 -13.5256 -1.70628
H 5.41967 -12.4366 -0.530055
O 2.87828 -6.41801 -9.67141
H 2.39093 -6.91837 -8.95576
H 2.86735 -5.44043 -9.46112
O 5.60297 -2.81414 3.91444
H 6.45592 -3.04454 4.38284
H 5.706 -1.93607 3.44712
O -6.33501 -5.27245 -6.6426
H -5.67832 -4.56548 -6.38001
H -7.12441 -4.84648 -7.08464
O 12.7319 12.066 5.44458
H 13.578 11.9025 5.95181
H 12.4089 12.9949 5.62567
O -8.12109 14.0146 -14.9341
H -8.89422 13.5341 14.7225
H -7.33127 13.4026 -14.8936
O 9.95303 11.5765 -14.3851
H 10.257 11.8381 14.7694
H 8.95729 11.4845 -14.378
O -1.0459 2.57064 -11.0445
H -0.537162 3.00126 -10.299
H -0.815344 1.59853 -11.0874
O -13.5071 -12.3991 7.06695
H -13.4773 -11.7762 6.28517
H -13.1878 -13.3037 6.78474
O -9.57826 -5.48319 3.80313
H -9.89253 -4.94606 3.02035
H -9.09349 -6.2949 3.47735
O 12.1679 -14.8042 -8.74853
H 12.6424 -14.079 -9.24758
H 11.3664 14.9726 -9.26944
O -13.6907 11.5989 14.0916
H -13.0616 11.4822 13.3231
H -13.3376 11.1093 14.8888
O -7.87325 -1.17384 -5.81659
H -7.32024 -0.510374 -5.3126
H -7.58702 -1.18701 -6.77467
O 9.65059 1.24822 -2.30251
H 10.1071 0.565379 -2.87293
H 9.76684 1.00882 -1.33857
O -14.6253 -12.8761 9.84413
H -14.2088 -12.5984 8.97843
H -13.9347 -13.3111 10.4219
O -5.15261 -12.1643 9.40475
H -4.5295 -11.5208 9.84937
H -5.47843 -12.8304 10.0757
O -6.83468 -1.05026 1.98777
H -7.70019 -1.26365 1.53459
H -6.24747 -1.85969 1.9829
O -6.31034 1.74031 -11.9209
H -5.67398 2.01578 -12.6414
H -6.93968 1.05009 -12.278
O 14.6573 9.96164 -7.85888
H 14.0157 9.98774 -8.62545
H 14.3466 10.5866 -7.14272
O -5.34172 5.64961 -1.94791
H -5.60442 5.54354 -0.988874
H -5.13005 6.60959 -2.13131
O 9.17775 -7.46503 9.4189
H 8.64629 -7.94009 10.1202
H 9.40823 -6.5466 9.74041
O 11.6295 12.404 9.58527
H 12.5107 12.8764 9.56404
H 11.7038 11.5376 9.09144
O 12.43 -0.247697 14.9589
H 12.2957 -1.1983 -14.8318
H 11.5628 0.129966 14.6343
O -12.8092 -8.83047 -12.8778
H -12.7759 -7.8955 -12.5247
H -11.8799 -9.19284 -12.9498
O -7.26229 -1.08521 -8.5086
H -8.08172 -1.60683 -8.7462
H -6.45095 -1.5763 -8.82573
O -4.52857 5.55653 -13.4363
H -3.79372 4.87861 -13.4156
H -5.20387 5.33771 -12.732
O 8.88431 8.24451 -1.14786
H 8.02439 8.09327 -0.660345
H 9.61772 7.73731 -0.695243
O 4.44439 -2.23666 -11.1765
H 5.42805 -2.13509 -11.3252
H 4.09042 -2.95937 -11.7701
O -9.29113 5.39988 -14.9724
H -8.61314 4.68376 -14.8065
H -10.205 5.0465 -14.7723
O 11.8316 14.4212 14.8552
H 12.4685 13.9768 14.2253
H 11.9072 13.9992 -14.3119
O 5.62123 3.57081 12.9566
H 5.64222 2.59133 12.7562
H 4.93515 4.01441 12.38
O -11.8754 -7.14553 -3.44456
H -11.1796 -6.70447 -4.01149
H -12.6917 -6.56892 -3.40981
O 6.58288 -7.20728 2.11191
H 6.6317 -6.80523 3.02623
H 6.4084 -8.18897 2.18835
O -5.33859 -9.63086 13.8048
H -4.99942 -9.88485 12.899
H -4.56908 -9.37021 14.3879
O 5.1354 14.9352 -13.1997
H 5.84022 -14.8715 -12.5412
H 4.74833 14.0513 -12.9375
O 14.546 13.1456 -7.67636
H 14.2205 14.0836 -7.55744
H 14.2904 12.6003 -6.87799
O -10.7091 -12.3906 -9.29146
H -11.0758 -12.5519 -8.3752
H -11.011 -13.1206 -9.9046
O -13.0592 -0.950235 10.5532
H -12.1232 -1.30018 10.5912
H -13.6987 -1.68296 10.7859
O -1.91618 -11.6248 -13.2284
H -1.61105 -11.3671 -14.1451
H -2.90901 -11.7444 -13.2288
O 13.6949 14.2106 12.7512
H 13.2738 -15.0237 12.4
H 14.121 13.71 11.9976
O -4.48571 5.26818 -8.33939
H -3.64657 5.63045 -8.74514
H -5.27535 5.59694 -8.85746
O 7.76034 -11.7515 9.17997
H 7.28651 -11.879 8.30862
H 8.48428 -11.0706 9.06925
O 6.06871 -4.45087 -8.69385
H 5.83954 -5.26781 -8.16461
H 5.98882 -4.65283 -9.66999
O -11.9577 7.84216 -1.60542
H -12.394 8.73465 -1.72004
H -11.0201 7.88275 -1.95054
O 14.6262 -2.97761 0.692692
H 14.129 -2.7073 1.51711
H -14.4606 -2.92351 0.864013
O 4.45936 10.8081 -10.3304
H 3.47366 10.9067 -10.1937
H 4.89991 10.6161 -9.45344
O -11.15 -10.0786 -6.56349
H -10.8585 -10.9445 -6.15705
H -12.1248 -10.1243 -6.78188
O -3.71747 -6.81727 -6.71463
H -4.69856 -6.68234 -6.57582
H -3.3304 -7.28849 -5.92208
O 7.05656 -8.22254 11.5143
H 6.21403 -8.72152 11.3114
H 6.92973 -7.25376 11.3013
O -1.32213 9.72766 -10.4347
H -2.22387 9.30025 -10.3699
H -1.21383 10.1421 -11.3383
O -3.2098 -10.7338 -1.57558
H -3.21418 -11.0805 -0.637615
H -2.27129 -10.522 -1.84826
O 12.6412 -2.89639 -14.1343
H 11.8023 -3.36467 -14.4116
H 12.9608 -3.27215 -13.2644
O 11.3064 2.21903 8.34899
H 11.8351 1.65216 8.9807
H 10.75 2.86732 8.8688
O 5.18961 -7.44341 6.61683
H 4.33088 -6.93255 6.657
H 4.99593 -8.40692 6.43206
O 14.8154 -11.7115 -6.48599
H -14.9853 -11.8878 -7.43261
H 14.2525 -12.4682 -6.15341
O -4.70864 -14.3463 4.47087
H -4.08277 -13.833 3.88367
H -4.68823 -13.9638 5.39461
O 14.363 -4.23495 -12.3695
H -14.9346 -3.98456 -12.9525
H 14.212 -5.22211 -12.4219
O -1.18017 -1.97185 -9.53202
H -1.97931 -1.37142 -9.50258
H -0.73403 -1.97707 -8.63706
O -2.85853 3.06545 6.69309
H -3.09408 3.71918 5.97395
H -3.42509 3.23784 7.49888
O 5.95686 -10.4164 2.68277
H 6.31441 -10.7436 3.55748
H 4.98716 -10.193 2.78166
O -7.0588 -7.68474 -7.85221
H -8.03903 -7.67663 -8.04991
H -6.81858 -6.87038 -7.32389
O 5.18957 5.09627 -9.26576
H 4.74743 5.993 -9.28567
H 5.30659 4.7615 -10.2008
O 0.472559 -12.2289 5.75261
H 1.00782 -12.9125 6.24876
H -0.363128 -12.0254 6.26273
O 3.04215 -7.38935 10.8926
H 2.82684 -6.95878 11.7692
H 2.26706 -7.28308 10.2698
O -13.5615 6.84559 -4.74476
H -12.7002 7.21119 -4.39189
H -13.7912 7.30376 -5.60344
O -4.46277 -3.42053 -5.77633
H -4.66246 -2.78179 -5.03327
H -3.58688 -3.87069 -5.60256
O 4.59133 -12.5124 -8.25032
H 5.15967 -11.6948 -8.15831
H 4.09237 -12.6692 -7.39798
O -12.2427 6.02571 -12.9087
H -13.0663 5.48727 -13.0867
H -11.4523 5.41602 -12.8493
O 8.51281 3.33688 -9.57795
H 8.43268 3.75184 -10.4843
H 7.78844 2.65818 -9.45688
O 7.22332 10.191 7.70774
H 6.66908 9.7969 8.44087
H 6.98344 11.1547 7.58981
O -4.52069 -7.56472 9.62042
H -4.70307 -7.45475 8.64336
H -5.0327 -6.87661 10.1346
O -3.5928 -8.88708 -13.3986
H -2.75903 -8.56637 -13.8481
H -3.38626 -9.69977 -12.8538
O 14.2908 11.5891 -3.03877
H 13.4666 11.0236 -3.07034
H 14.216 12.2457 -2.28824
O -11.1949 4.61148 -9.5916
H -10.4531 4.08776 -9.17267
H -12.0713 4.18345 -9.37065
O -5.40212 -12.207 -5.44266
H -5.6633 -11.2446 -5.51659
H -4.91191 -12.3543 -4.58358
O 0.327331 14.939 -7.16042
H -0.570588 -14.7827 -6.89192
H 0.608214 -14.703 -8.01918
O 1.19182 -13.1084 10.1324
H 1.31385 -13.492 9.21702
H 1.78142 -13.5934 10.7784
O -12.9395 -5.80123 4.0021
H -11.9404 -5.84188 3.99607
H -13.2664 -5.77647 4.94685
O 13.213 -1.01662 6.28557
H 13.7088 -0.721475 5.46879
H 13.5388 -0.50062 7.07782
O 13.4415 -12.2099 12.5678
H 14.3879 -12.0539 12.8506
H 13.0797 -11.3803 12.1425
O -9.8939 8.72897 -6.30009
H -10.506 7.94383 -6.39471
H -9.17716 8.5148 -5.63644
O 6.78888 1.1665 -9.14423
H 6.34574 0.287288 -8.96923
H 6.71805 1.38771 -10.1169
O 13.343 8.63389 4.41766
H 13.311 9.41157 3.78981
H 12.7516 7.9041 4.07475
O 3.28348 -9.60609 3.32421
H 2.9223 -9.44035 4.24187
H 2.5665 -10.0017 2.75024
O 1.96897 -13.4396 -1.08883
H 1.81579 -12.9986 -1.97318
H 2.87168 -13.1856 -0.741591
O -7.21263 8.59594 -14.4291
H -8.01557 8.17387 -14.0082
H -6.7476 7.925 -15.0067
O -6.03265 2.83111 12.1276
H -6.05339 2.02052 11.5423
H -6.18539 3.64791 11.5713
O 4.12685 0.216103 -13.1067
H 3.61584 0.295275 -12.2507
H 4.4447 -0.725337 -13.2192
O 6.61377 2.62391 -4.86547
H 6.81302 1.99793 -5.61944
H 7.41983 2.70719 -4.27951
O -12.0701 -13.1387 -7.06076
H -12.905 -12.6763 -7.35928
H -12.2372 -14.1228 -7.00111
O 1.831 3.70253 -4.40957
H 1.69392 2.72237 -4.55282
H 2.75476 3.95544 -4.69715
O -1.35006 -9.87653 7.53305
H -2.02235 -10.4769 7.96613
H -1.80789 -9.29174 6.86341
O -6.43337 9.75779 -2.81637
H -5.94546 10.4448 -3.35489
H -6.24038 9.89693 -1.84507
O -0.345041 2.9142 8.7971
H -1.26135 2.79013 8.41632
H 0.33516 2.79879 8.0732
O -0.500938 -11.9591 -0.851163
H 0.264105 -12.5837 -0.694282
H -0.222156 -11.2454 -1.49371
O 15.0101 7.8007 9.42724
H 14.7978 7.52471 8.48982
H 14.6896 8.73551 9.58019
O 11.6022 -11.7733 2.23749
H 12.5792 -11.677 2.42795
H 11.1749 -10.8694 2.22223
O 3.68713 -0.199417 9.43069
H 2.94038 -0.605457 9.95748
H 3.3205 0.215253 8.59785
O 7.90125 5.60898 -8.31539
H 8.237 4.72802 -8.64885
H 6.9064 5.57239 -8.22085
O 10.4442 -9.50607 1.34559
H 10.403 -8.50699 1.35822
H 9.74174 -9.8608 0.728515
O 11.9266 6.27857 14.7422
H 12.352 6.34547 13.8396
H 10.9574 6.05539 14.6381
O -1.53114 -4.79995 -10.5156
H -1.39003 -4.54895 -9.55795
H -2.23365 -4.21063 -10.9146
O -0.598379 -8.01701 3.34122
H -0.121451 -8.84181 3.0375
H 0.0565901 -7.38884 3.76126
O 9.94366 0.645643 13.9024
H 9.73141 -0.0389198 13.2051
H 9.12042 0.847117 14.4332
O 8.63296 4.63149 -12.0423
H 9.27282 5.39905 -12.0044
H 7.97613 4.78134 -12.7814
O -11.84 -14.9432 -14.1195
H -11.7797 -13.9458 -14.1568
H -12.7564 14.8382 -14.3964
O -0.82226 10.1125 -7.06682
H -1.48896 9.8461 -6.37071
H -1.14773 9.82463 -7.96751
O -3.36679 11.4814 -9.75676
H -2.57094 10.8859 -9.86645
H -4.15136 10.9376 -9.45874
O 0.0622075 -5.05098 -6.23579
H 0.386323 -5.11758 -5.29211
H 0.263772 -5.90332 -6.71838
O 3.65538 -11.8198 -10.9626
H 4.4617 -12.4013 -10.8542
H 3.50741 -11.2955 -10.124
O 13.3435 -13.8108 -5.87639
H 12.5826 -14.0871 -6.46351
H 13.6808 -14.6056 -5.37179
O 6.13231 -1.64021 -8.42336
H 5.97051 -1.52989 -7.44272
H 6.02136 -2.60209 -8.67335
O 7.81576 13.2973 -11.6253
H 7.59345 12.3256 -11.545
H 8.04084 13.5102 -12.5761
O 14.8055 -10.1465 -9.93677
H 14.9996 -9.16909 -9.85352
H 13.8724 -10.3287 -9.62683
O -2.13184 -7.77988 10.7961
H -1.94794 -7.0492 11.4535
H -3.06617 -7.69042 10.451
O 6.68125 -8.70221 -1.60585
H 6.4666 -7.73047 -1.50753
H 7.67148 -8.83172 -1.55414
O 2.10372 5.26891 3.62664
H 2.45488 5.86709 2.90631
H 1.14716 5.04637 3.43825
O 1.91626 11.6877 -9.96196
H 1.35648 12.0393 -10.7123
H 1.76328 12.242 -9.14382
O -4.71082 14.9793 -10.3895
H -3.96145 -14.4401 -10.51
H -4.5531 14.439 -9.56294
O -7.54344 -8.93135 10.2464
H -8.39421 -8.48796 9.96429
H -6.84496 -8.23579 10.4147
O -12.4796 -12.4594 13.5325
H -11.7021 -12.7348 14.098
H -13.3141 -12.4744 14.0833
O -4.60837 7.78207 9.1919
H -4.79503 7.32469 8.32243
H -4.73121 7.1333 9.94291
O -4.23264 -13.3201 -0.119176
H -4.37494 -13.6667 0.807978
H -3.36936 -13.6744 -0.478645
O 12.9918 -0.440941 12.2402
H 12.8513 -0.460268 13.2301
H 12.488 -1.19408 11.8172
O 4.46147 -14.2684 2.01133
H 4.55312 -13.7633 1.15317
H 5.2894 -14.148 2.55908
O -12.8956 -2.53045 1.80409
H -12.3685 -1.68744 1.69684
H -13.4372 -2.48044 2.64325
O -14.9533 8.02174 -11.5504
H 14.7995 7.36045 -12.2299
H 14.6367 7.86941 -10.6868
O 11.4739 6.79686 8.10381
H 11.3526 6.73047 7.11342
H 12.1054 6.08481 8.41072
O -6.75457 -14.2328 -4.19731
H -6.28572 -13.706 -4.90631
H -6.82603 -13.6824 -3.36548
O -8.03146 10.4272 2.92813
H -7.63674 9.88832 3.67229
H -8.97333 10.1327 2.76649
O -7.43332 14.5905 -10.3369
H -7.82379 14.5164 -9.4193
H -6.46686 14.8381 -10.2689
O 0.69974 -10.5598 9.1187
H -0.081594 -10.5357 8.49504
H 0.742721 -11.4538 9.56468
O 12.7372 -13.0967 -11.2618
H 13.5882 -13.5748 -11.4793
H 11.9596 -13.6379 -11.5818
O -13.641 -9.54272 8.29927
H -14.3022 -9.92099 7.65136
H -12.7501 -9.9737 8.15617
O -9.01357 -6.84442 -13.2897
H -9.54759 -6.35784 -13.9811
H -8.04353 -6.80567 -13.5296
O 14.0727 14.5945 -2.9609
H 13.9393 -14.5467 -2.61674
H -15.0219 14.428 -3.10138
O -9.97151 9.6786 14.0853
H -10.5981 9.96093 13.3589
H -9.61581 10.4883 14.552
O -12.6734 10.7518 -13.5968
H -12.0166 11.5036 -13.5379
H -12.1996 9.8831 -13.4527
O -6.08737 9.94997 -0.157528
H -6.51365 9.24095 0.404245
H -5.62423 10.6101 0.433801
O 8.85409 -12.0828 -7.93513
H 8.0516 -12.6681 -7.81907
H 9.34201 -12.3473 -8.767
O 4.50372 4.29026 -11.9457
H 4.45095 5.28463 -12.0377
H 5.04494 3.91423 -12.6979
O -11.2817 6.03851 -6.73073
H -12.1897 5.68099 -6.94917
H -10.739 6.10406 -7.56809
O -6.38952 8.64517 -11.0937
H -7.20425 8.74808 -10.523
H -6.54522 9.08314 -11.9791
O 0.342533 13.2783 3.9766
H -0.411248 13.0806 4.60329
H 0.0469909 13.9557 3.30295
O -13.5983 0.933011 -5.69266
H -12.631 1.0878 -5.89362
H -13.686 0.191283 -5.02771
O 13.6086 2.33724 6.15914
H 13.838 3.30452 6.05083
H 12.6592 2.18698 5.88353
O 3.51339 6.86846 -0.780384
H 3.81124 5.9408 -1.00568
H 2.55769 6.98641 -1.05009
O -3.63005 14.7419 13.8559
H -3.88835 -14.7348 14.618
H -2.83196 -14.9458 13.3907
O 6.32723 -12.8203 11.3173
H 5.76751 -12.0741 11.6779
H 7.08241 -12.4418 10.7821
O -9.12021 -2.06692 0.384377
H -9.07302 -1.71771 -0.551486
H -9.21082 -3.06261 0.364437
O -10.1632 -5.43359 -10.8773
H -9.6021 -6.06326 -11.4146
H -9.91142 -4.49135 -11.0982
O -12.3852 -2.46969 -5.66774
H -12.7219 -3.40523 -5.77454
H -13.0857 -1.91217 -5.22215
O 10.4198 6.63017 -8.72494
H 9.49383 6.31689 -8.51394
H 10.8673 5.96715 -9.32502
O -3.08138 11.4409 9.70343
H -3.9017 11.141 9.21649
H -3.01718 10.9584 10.577
O 2.4832 4.49122 8.7051
H 2.74888 4.21997 7.77998
H 1.51569 4.74396 8.71343
O 7.74572 -3.78235 5.23741
H 7.87729 -2.818 5.46707
H 8.43898 -4.33324 5.70208
O 1.52225 -5.71179 12.9066
H 0.85768 -5.14377 12.4211
H 1.05958 -6.50974 13.2929
O 10.9272 1.71995 -6.4794
H 11.6691 2.38479 -6.39276
H 10.7908 1.49651 -7.44454
O 7.8972 13.4598 1.19024
H 6.92391 13.5586 0.983008
H 8.1373 12.4892 1.20808
O -4.72707 -9.00456 -2.92
H -5.50017 -9.51468 -3.29696
H -4.16726 -9.61424 -2.35882
O 7.08339 11.9383 10.2709
H 7.48825 12.3839 9.47239
H 7.78655 11.416 10.7534
O -12.0769 5.04027 -1.22631
H -12.4515 5.87156 -1.63701
H -11.511 5.2835 -0.438534
O -13.6205 7.54492 5.74969
H -13.3574 6.69021 6.19721
H -14.6178 7.61316 5.72144
O -6.06423 -4.8365 -11.814
H -6.73915 -4.64714 -11.1008
H -6.14114 -5.79147 -12.1006
O -9.94262 10.4534 8.79777
H -9.66003 10.4004 9.75555
H -10.8784 10.8022 8.74515
O 13.1576 4.9076 9.0065
H 13.9102 4.97544 9.66144
H 12.6892 4.03226 9.12652
O -1.59881 13.4251 -9.15949
H -1.57476 13.7296 -8.20725
H -2.51308 13.0835 -9.3772
O -10.7572 -0.172714 14.1127
H -11.5157 0.402616 13.8065
H -11.1145 -1.04423 14.4486
O 1.44711 9.74267 -5.16557
H 1.44118 10.4831 -5.83771
H 1.69233 8.88469 -5.61695
O 2.66736 4.25911 13.4291
H 2.91908 3.56853 14.1072
H 1.96426 3.8892 12.8218
O 9.46895 -4.70676 7.33682
H 10.2954 -5.24423 7.16931
H 9.64846 -3.74544 7.12787
O 12.9099 -9.10605 -0.0570885
H 12.2742 -9.85941 0.110954
H 12.5603 -8.27293 0.371448
O -10.6271 7.44821 -9.7236
H -10.9237 6.4932 -9.72471
H -11.3209 8.0132 -10.1702
O 10.8294 -1.56194 9.07587
H 10.055 -0.985986 8.81388
H 11.2974 -1.88543 8.2535
O -11.6905 0.154287 -1.67977
H -12.6363 0.455908 -1.55902
H -11.135 0.920437 -2.00293
O 9.71786 13.391 13.2328
H 8.93659 13.9992 13.3735
H 10.4809 13.6908 13.8054