2593
Atoms. Timestep: 1000000
O -10.0764 14.7579 4.22879
H -10.6092 14.8893 3.39277
H -9.65856 -14.4919 4.49767
O 7.18518 10.2778 2.36582
H 7.27386 9.282 2.39036
H 7.28325 10.644 3.29115
O 6.50508 10.0918 10.1313
H 5.66144 9.88592 9.63544
H 6.49539 11.0483 10.4229
O -10.1343 -8.93382 2.95478
H -10.3825 -9.54604 2.20406
H -10.0091 -8.00677 2.60136
O 12.0942 11.4793 -2.6114
H 12.4055 11.0553 -1.76089
H 11.5526 10.8205 -3.13352
O 7.62762 6.68061 6.20174
H 8.49141 6.4511 6.65031
H 6.89495 6.70483 6.88191
O 1.96521 -14.7054 -11.0186
H 2.46835 -14.3643 -10.2245
H 1.93377 -13.9963 -11.723
O 3.90778 11.0866 -13.5725
H 2.97074 11.4358 -13.5698
H 4.27204 11.1023 -12.6414
O -1.51441 -8.413 4.03833
H -1.13327 -7.95615 3.23457
H -0.934137 -9.1884 4.28746
O 13.9231 5.02682 -2.26195
H 14.7643 4.67216 -2.67025
H 13.2835 4.27352 -2.10905
O 3.39306 7.99909 0.236697
H 3.61512 8.95502 0.428818
H 2.40482 7.86513 0.310586
O 1.99105 10.5498 -10.339
H 1.79292 11.5238 -10.2291
H 1.14624 10.06 -10.5545
O 0.0763155 -3.78095 11.3705
H 0.650529 -3.06316 11.7643
H -0.74999 -3.8877 11.9235
O -8.97307 11.3026 -5.28258
H -9.16901 10.3728 -5.59444
H -8.01874 11.5264 -5.48057
O 0.744728 -5.94467 6.80455
H 0.341274 -6.84556 6.96466
H 0.805897 -5.77695 5.8206
O -1.63957 -2.74576 -5.73149
H -1.70051 -3.2669 -6.58279
H -2.5568 -2.61177 -5.35632
O -10.5011 2.01919 -1.8774
H -10.2308 1.55162 -2.71902
H -11.4897 1.9348 -1.75196
O -4.3774 3.69517 0.375645
H -4.66577 3.32764 -0.50854
H -4.39331 4.6945 0.342419
O 8.32441 3.64149 -1.94653
H 8.07995 3.50758 -2.90691
H 7.67729 4.27552 -1.52314
O 14.4328 -0.12212 -4.03737
H -14.8858 0.33783 -3.65
H 14.2789 -0.984953 -3.55586
O 11.9038 10.6914 9.24439
H 11.609 10.5248 10.1853
H 12.7421 11.2366 9.24935
O 0.473616 -0.432729 3.55146
H 0.822225 -0.191255 2.64583
H 1.14618 -0.999543 4.02727
O -8.71601 0.242799 -11.1199
H -8.45042 0.405177 -10.1696
H -9.71273 0.192567 -11.1835
O -14.5381 -1.51701 13.5215
H -13.883 -1.30248 14.2459
H 14.6491 -1.43951 13.8799
O 6.94977 -0.470767 -12.6753
H 7.64313 -1.17973 -12.5463
H 7.03579 0.215038 -11.9526
O 0.669375 14.0537 8.53048
H 0.181957 13.3221 9.00724
H 1.46099 14.3353 9.07276
O -14.1611 -14.5025 -14.9306
H -15.0138 -14.5606 -14.4113
H -13.8073 14.6943 15.0231
O 6.77323 -13.8574 8.94215
H 6.81825 -14.7491 9.3925
H 6.51862 -13.9809 7.98301
O -13.6597 5.65501 -5.36285
H -13.3342 5.2873 -4.49172
H -13.0352 6.37012 -5.67695
O 14.4351 -10.8364 -14.0955
H 14.9787 -10.4264 -14.8279
H 13.9326 -11.6232 -14.4539
O 0.574439 12.8564 11.955
H -0.316984 12.8825 12.4074
H 0.450789 12.6364 10.9873
O -13.6069 -0.122854 2.07795
H -14.3354 -0.333692 2.72978
H -13.3036 0.820727 2.21082
O -9.91044 -3.61507 -4.79089
H -10.7424 -3.33373 -4.31258
H -9.79585 -4.60488 -4.70625
O -11.8005 -14.3955 10.4178
H -11.9055 14.7869 10.0796
H -12.684 -13.9282 10.3854
O -8.53833 -4.03672 8.74873
H -7.74576 -4.52574 8.38441
H -8.62477 -4.22416 9.7272
O 8.59413 -13.8173 -12.8593
H 9.11244 -14.1648 -13.6407
H 9.16604 -13.8484 -12.0395
O 2.32257 4.18476 11.3361
H 2.71076 5.00214 10.9104
H 1.74867 4.45259 12.11
O 14.2779 -9.73239 -2.59136
H 13.396 -9.64995 -3.05549
H 14.8276 -10.4353 -3.04265
O 4.14753 0.0868228 -14.087
H 3.38494 -0.328789 -13.5913
H 5.00692 -0.143512 -13.6305
O -7.37455 1.23911 11.0524
H -7.18104 0.306252 10.7485
H -8.22327 1.55785 10.6304
O 9.98991 -7.47422 11.9309
H 10.8065 -8.00813 12.1503
H 10.2619 -6.58884 11.5539
O -13.0406 -13.6264 -9.63726
H -13.199 -13.4449 -10.6078
H -12.2736 -13.0714 -9.31521
O -6.3661 1.0804 6.08678
H -7.03202 0.396312 5.78912
H -6.72487 1.57149 6.88059
O 5.96399 0.331937 9.90847
H 5.87913 -0.141945 10.785
H 6.76423 0.931255 9.92968
O -9.58773 -5.96583 -7.81257
H -9.82496 -6.30994 -8.72105
H -9.33675 -4.99998 -7.87705
O 12.5533 4.73164 -8.00241
H 13.1109 4.44759 -7.22244
H 13.1068 4.70578 -8.83489
O -11.4761 8.55465 2.81298
H -10.5821 8.39001 2.39624
H -11.9118 9.3375 2.36878
O -1.28594 10.3057 6.71639
H -1.82404 10.0914 7.53159
H -1.19847 9.48626 6.14987
O 2.40976 10.6111 12.3365
H 1.92829 11.4022 12.7137
H 3.15584 10.924 11.7488
O -1.89458 -12.8236 -10.7907
H -2.12588 -12.9977 -11.7478
H -1.2119 -12.0946 -10.74
O 2.10193 8.16574 -13.5409
H 2.71178 8.40819 -14.2954
H 2.64578 7.92236 -12.7378
O 5.40776 -8.20723 13.6187
H 6.33396 -8.00361 13.936
H 4.74505 -7.73258 14.1979
O -4.24026 12.4142 0.648993
H -4.63806 11.5922 0.241511
H -4.97148 13.0459 0.906556
O 12.3618 -14.5371 0.802693
H 12.429 -14.084 -0.0862273
H 12.8094 -13.9749 1.49809
O -9.32642 -12.9077 4.62984
H -9.31127 -12.497 3.71817
H -10.0208 -12.4539 5.18833
O -3.22528 -11.1372 13.4098
H -2.40875 -10.9634 13.9604
H -3.03296 -10.9242 12.4519
O 11.6779 -5.69837 11.0499
H 11.4399 -4.75664 10.8121
H 12.1611 -6.12346 10.2845
O -14.4482 11.6666 -2.54236
H -14.7811 11.5025 -1.61379
H 14.8981 11.8893 -3.13854
O 4.90953 -9.82518 -9.65784
H 5.59334 -10.3281 -10.1866
H 4.91566 -8.86399 -9.9337
O 11.9377 -14.1186 -1.8612
H 11.4163 -14.9481 -2.06147
H 12.4139 -13.8168 -2.68708
O -7.27744 8.62177 -1.04157
H -6.52705 8.05713 -1.38526
H -8.11427 8.40633 -1.54487
O -10.0543 0.636574 -4.08463
H -9.48538 -0.165176 -3.90143
H -10.7998 0.382511 -4.70079
O -11.6594 13.1639 6.48099
H -12.5455 13.5846 6.67577
H -11.1516 13.7385 5.83907
O -4.57527 -7.05273 -5.72699
H -4.08087 -7.90258 -5.54438
H -4.61262 -6.50293 -4.89252
O 11.7863 3.21469 11.7777
H 11.0326 2.87435 12.34
H 11.9045 4.19489 11.9366
O 3.51428 8.10189 -7.88379
H 4.45774 8.40249 -8.02357
H 2.94091 8.89251 -7.66887
O -3.19011 -13.0923 -13.4135
H -4.09217 -12.6827 -13.2775
H -3.2948 -14.0591 -13.6467
O -6.85432 -0.909409 9.52765
H -6.19315 -1.10652 8.80375
H -7.67474 -0.500939 9.12754
O 11.2405 13.8804 -12.2202
H 11.8498 13.3173 -11.6619
H 11.1315 14.778 -11.7931
O 13.1117 11.8741 -7.64016
H 12.2462 11.397 -7.79301
H 13.4031 12.3159 -8.48861
O -7.76438 -7.09138 4.56543
H -7.50234 -7.3013 5.50739
H -8.61076 -7.57371 4.33954
O -6.29992 -9.94242 -4.00948
H -5.34661 -9.64137 -4.03367
H -6.34686 -10.9182 -4.22339
O -11.7838 -9.65726 11.0519
H -11.0882 -9.39024 11.7188
H -11.8266 -10.6548 10.9961
O -10.6955 12.7632 -7.00952
H -10.4085 13.7203 -6.97089
H -10.1247 12.2189 -6.39469
O 11.1834 13.8263 -5.60493
H 11.0044 13.5808 -6.55765
H 10.8134 13.1186 -5.00312
O -6.67848 -7.74583 -11.0765
H -7.04128 -6.83546 -11.2755
H -7.43186 -8.36195 -10.8466
O -2.44023 0.90741 12.6921
H -2.68267 0.143483 12.094
H -3.1746 1.05879 13.3538
O 6.12124 8.43277 -8.92967
H 6.95132 8.23037 -9.44931
H 5.41786 8.78301 -9.54823
O 6.66878 -6.03802 -8.11673
H 5.67812 -6.06986 -8.24938
H 7.12214 -5.97193 -9.00562
O -11.8323 0.346369 -8.99142
H -11.2338 0.923383 -9.54718
H -12.2154 0.88727 -8.24262
O -7.52173 -8.48243 -0.755299
H -7.95851 -9.27303 -1.18448
H -6.72128 -8.7842 -0.237389
O -12.5972 2.39408 2.76111
H -12.2194 2.7653 3.60933
H -11.9558 2.5565 2.01134
O -5.53079 9.82458 5.40767
H -4.98441 10.5241 4.94699
H -4.92443 9.19036 5.88737
O -2.1343 -6.98292 8.53113
H -3.02753 -7.36219 8.28963
H -2.13782 -5.99542 8.3735
O 11.6136 -5.26375 -9.14825
H 12.4921 -5.69649 -8.9458
H 11.7688 -4.41454 -9.653
O -14.2403 3.37505 0.725226
H 14.9037 3.50038 0.915606
H -13.8208 2.84974 1.46557
O -12.3112 12.5692 -1.12998
H -11.737 13.1146 -1.74057
H -13.0314 12.1221 -1.66063
O -8.07377 -3.27963 2.01031
H -8.03963 -4.01556 2.68653
H -8.21348 -2.40559 2.47567
O -5.1041 14.8819 -2.22698
H -5.48945 14.0483 -2.62285
H -5.15365 14.8309 -1.2295
O 6.64916 -4.79866 -13.0528
H 7.01061 -5.29339 -12.2625
H 5.65694 -4.70995 -12.9652
O 13.18 -14.9617 5.68831
H 13.1325 -14.0563 5.26653
H 12.258 14.85 5.92551
O -13.0555 -14.562 4.54066
H -12.4939 -14.4256 5.35673
H -13.577 -13.7298 4.35202
O 11.9882 2.43402 -4.76363
H 12.9869 2.3912 -4.79107
H 11.6433 1.75695 -4.11352
O 10.5095 -11.7109 -2.25409
H 9.68933 -11.9765 -2.76085
H 11.0892 -12.5136 -2.11394
O -14.2981 -7.30334 6.44586
H -14.5266 -7.8147 7.27428
H -13.4626 -7.67729 6.04318
O -8.58665 4.36383 -7.70299
H -7.78869 4.90119 -7.42999
H -8.35639 3.39092 -7.68194
O 4.70628 -9.8798 -6.98696
H 4.67465 -9.61582 -7.95098
H 4.81301 -10.8716 -6.91629
O 9.92862 -2.50024 -5.97134
H 9.93451 -1.83012 -6.71358
H 10.2495 -2.06737 -5.12892
O 4.09829 14.6232 7.23314
H 4.92696 14.8856 6.7387
H 3.40203 14.3231 6.58108
O -9.65206 -9.68938 -12.9667
H -9.51275 -10.1858 -13.8236
H -9.65978 -8.70608 -13.1486
O 13.7284 -0.550788 -6.87418
H 14.0211 -0.238477 -5.97041
H 13.8912 -1.53405 -6.95596
O -9.37229 12.7968 1.40219
H -9.36159 12.3652 0.500173
H -9.45718 12.093 2.10748
O 8.46406 -0.314132 -2.61047
H 8.4991 -0.0804436 -3.58216
H 7.67485 -0.903445 -2.43762
O -8.15066 -14.4068 -9.56154
H -8.88549 -13.7523 -9.38351
H -8.24439 -14.7691 -10.4889
O -6.15494 -0.565891 -11.6441
H -6.25508 -1.29451 -12.3217
H -6.99497 -0.0243973 -11.6103
O 9.67073 -2.53766 -1.09641
H 9.48256 -1.56637 -1.242
H 9.45858 -3.04695 -1.93046
O -1.6067 -4.34123 -11.9851
H -1.24717 -5.08207 -11.4177
H -1.68443 -3.50882 -11.4364
O 2.01099 4.51651 -10.6862
H 2.20393 4.44869 -11.6651
H 1.50814 3.70499 -10.3886
O 13.0942 12.3154 -10.3645
H 13.8939 12.5604 -10.9127
H 13.0498 11.3213 -10.2656
O 8.20084 7.27206 13.656
H 8.53515 6.45336 14.1229
H 8.88494 7.99815 13.7255
O -1.76173 12.9009 13.3188
H -2.25405 13.664 12.9002
H -2.20653 12.0406 13.0697
O -14.7652 -6.69526 14.2491
H 14.3892 -6.42648 14.2515
H -14.2003 -5.91336 14.5128
O 10.1004 -9.13862 14.7945
H 10.8283 -8.92084 14.1442
H 9.47742 -9.80588 14.3863
O -12.1286 11.5792 -13.2174
H -12.6363 11.9509 -12.4402
H -11.2125 11.311 -12.9195
O 11.5914 -3.21789 -10.8633
H 12.0858 -3.58358 -11.6519
H 11.6185 -2.21853 -10.887
O 2.02328 4.77549 -2.93268
H 2.52743 4.18456 -2.30288
H 1.53874 5.47953 -2.41348
O -12.19 7.35295 -7.05291
H -12.8953 7.98966 -7.36456
H -11.9298 6.749 -7.80627
O 3.73 4.98164 4.78329
H 4.54914 4.45702 5.01527
H 3.75547 5.22837 3.81453
O -13.4425 -8.15729 9.33236
H -12.6488 -8.48923 9.84221
H -13.7385 -7.28008 9.71043
O -2.89449 -1.86102 9.01448
H -3.12709 -1.8124 9.98584
H -3.71619 -1.70369 8.46669
O 6.78554 12.1989 0.500201
H 6.99189 11.4181 1.08999
H 6.40121 11.872 -0.363199
O -2.24963 -14.2274 -6.20588
H -2.09628 14.907 -6.10687
H -2.87496 -13.9139 -5.49123
O -12.8293 -7.77564 -3.69034
H -13.7145 -7.34731 -3.87208
H -12.9131 -8.39623 -2.91069
O 4.10756 -8.95902 -2.68204
H 3.92428 -8.82112 -3.65539
H 4.9091 -9.5471 -2.57384
O 9.79991 -6.62723 3.20866
H 9.75013 -5.63203 3.1244
H 10.6997 -6.94269 2.90712
O -5.97305 -2.82849 5.18561
H -5.46002 -3.12596 4.38042
H -6.87996 -2.51377 4.90545
O 4.96074 2.50651 -1.4009
H 5.2263 2.46838 -2.36425
H 4.92059 1.57899 -1.02926
O -9.04248 -11.7298 2.21478
H -9.7766 -11.3999 1.62128
H -8.20242 -11.224 2.01843
O 12.6925 12.4853 -14.3613
H 12.0121 12.6681 -13.6516
H 12.3734 12.8577 14.8848
O 12.9172 9.53185 -0.420214
H 12.2621 9.29307 0.296694
H 13.5212 10.2578 -0.0914502
O 9.39565 2.18057 0.154076
H 9.07604 2.47288 -0.74727
H 9.07413 2.82579 0.847137
O 4.51757 -10.9405 2.48278
H 3.95902 -10.1918 2.83974
H 5.29345 -10.5652 1.9757
O -5.8598 10.9268 -8.0317
H -6.29079 11.459 -8.76043
H -5.8139 9.96552 -8.30346
O -7.99718 1.83541 3.06313
H -7.46461 1.11096 2.62546
H -7.6029 2.72491 2.83214
O 8.18564 -4.62103 -6.00625
H 8.69364 -3.80007 -6.26696
H 8.02782 -5.18646 -6.81582
O 4.56338 14.8103 -14.0056
H 3.88259 -14.9504 -13.366
H 4.10024 14.3458 -14.7604
O -11.2159 -10.4867 -1.74035
H -11.5168 -11.2606 -2.29759
H -10.2355 -10.3414 -1.87345
O -14.4 6.67126 -15.0362
H -14.5306 6.04441 14.3133
H -14.1672 7.57975 14.7344
O -4.71754 0.0841344 -7.3331
H -4.13101 0.368062 -6.57456
H -5.63283 -0.122629 -6.98739
O -12.7208 -1.10837 7.59716
H -12.9654 -1.53906 8.46589
H -11.7619 -1.30033 7.38831
O -10.8834 9.54883 10.2632
H -11.4797 9.3844 9.47751
H -9.93231 9.5902 9.95693
O -5.29058 6.96082 -2.65639
H -5.93009 6.35836 -3.13399
H -4.3526 6.686 -2.86778
O 10.1555 4.55987 -4.55807
H 9.75778 4.72305 -5.46098
H 10.5881 3.65844 -4.5424
O 2.03758 3.34226 -6.36765
H 1.59225 3.63171 -5.52035
H 2.35195 4.14725 -6.87081
O 12.963 8.90974 3.27769
H 13.8866 8.56886 3.10212
H 13.0059 9.66932 3.92671
O -3.47366 -9.59213 -3.46714
H -2.99338 -9.30537 -2.63822
H -2.94426 -9.3192 -4.27042
O 1.39415 13.4442 -4.62739
H 1.09601 13.4512 -5.58189
H 1.05465 14.2639 -4.16611
O 9.6878 0.731531 -9.78965
H 9.6281 1.39005 -9.03944
H 8.82609 0.72529 -10.297
O -13.5833 8.69037 13.5783
H -13.5617 8.55246 12.5881
H -14.4624 9.08869 13.8402
O 13.9907 -3.17661 -6.04334
H 13.2846 -3.62335 -6.5928
H 14.0965 -3.66383 -5.17648
O 1.04653 -2.97209 -5.49043
H 1.2815 -2.18433 -6.05985
H 0.06204 -2.97473 -5.31495
O -9.29076 8.66062 0.888139
H -8.51924 8.23248 0.417518
H -8.99588 9.52666 1.29192
O 4.78965 -0.990321 7.3787
H 4.94039 -0.0932402 7.79409
H 4.4268 -1.61929 8.06628
O 10.0567 9.97934 -11.1859
H 10.0529 9.13002 -11.7138
H 9.66435 10.7159 -11.7368
O -1.13665 4.37592 7.43434
H -0.445646 3.98749 8.04398
H -1.92151 3.75831 7.3837
O -4.56653 10.0754 -13.0153
H -4.05644 9.22189 -12.9091
H -3.92991 10.8226 -13.2061
O -7.23999 -8.06597 13.5508
H -6.6979 -8.78815 13.9804
H -7.30105 -7.2824 14.1691
O 10.047 -4.04123 2.81671
H 10.9817 -3.6865 2.797
H 9.45565 -3.39582 3.30026
O 7.6191 -3.45353 11.7013
H 8.20023 -4.23804 11.4849
H 8.19225 -2.6557 11.8884
O 6.94268 4.08022 12.6768
H 7.59108 3.36077 12.9258
H 6.02685 3.8256 12.9873
O 8.33721 14.3158 -0.653896
H 7.79742 13.6216 -0.177671
H 9.13834 13.8867 -1.07118
O 6.58325 0.345913 3.84966
H 5.96739 -0.441175 3.88458
H 6.72718 0.697813 4.77457
O -13.7755 -14.6378 -3.56989
H -13.9156 -15.0143 -2.6541
H -13.9776 14.7782 -4.25319
O 6.8372 7.14143 -5.22143
H 6.10399 7.36118 -4.5779
H 6.4449 6.7416 -6.04984
O -12.4673 6.3729 -2.74169
H -13.0448 6.86042 -3.39651
H -12.6518 6.71043 -1.81862
O -1.55537 -4.08973 -8.31566
H -1.64054 -4.92312 -7.76955
H -0.618249 -4.00789 -8.65496
O -5.16103 1.74196 -13.5198
H -6.1232 1.9207 -13.3141
H -4.58485 2.19937 -12.8424
O 7.16098 3.04157 2.8263
H 6.68573 2.16632 2.91619
H 6.70086 3.72984 3.38719
O 6.39512 14.973 -2.70971
H 7.22888 14.9028 -2.16205
H 5.6585 14.4662 -2.26187
O -8.75998 -2.72028 -12.16
H -9.04125 -2.0443 -12.8412
H -9.50759 -2.87319 -11.5137
O -10.3321 -6.57288 -4.30848
H -9.76558 -7.25267 -4.77423
H -11.2131 -6.98091 -4.06896
O 10.2771 -10.3358 0.293735
H 10.2811 -10.8572 -0.559596
H 9.5506 -9.64931 0.26145
O -3.82585 14.4073 -14.0066
H -4.76171 14.0594 -13.9506
H -3.19569 13.7319 -13.6234
O -13.048 -9.16548 -13.3248
H -13.8856 -8.99731 -13.8445
H -13.2664 -9.22496 -12.3507
O -14.6436 -9.39528 14.0425
H -14.2018 -9.82118 13.2529
H -14.4904 -8.40739 14.0175
O -4.3341 -5.29271 -13.1079
H -4.83899 -4.61846 -13.6469
H -4.07683 -4.89162 -12.2287
O 4.29201 6.70028 -4.21926
H 4.78904 6.10096 -4.84679
H 4.43004 6.38707 -3.27965
O -9.82856 -9.86991 13.0544
H -10.396 -9.23276 13.576
H -8.8633 -9.65459 13.2025
O 13.3406 -9.99875 0.201666
H 13.7231 -9.89718 -0.716696
H 12.3422 -9.97538 0.151325
O 14.374 -9.87333 9.57654
H -15.0506 -9.15311 9.5433
H 14.3215 -10.2427 10.5043
O -12.2191 11.0257 1.58231
H -12.6672 11.3825 0.762628
H -12.4142 11.6268 2.35729
O 4.03428 12.2095 3.25186
H 4.01528 11.7191 2.38058
H 4.73654 12.9207 3.21879
O -10.4004 11.5364 12.4115
H -10.7616 10.8389 11.7925
H -10.9663 12.3588 12.3535
O -12.3612 -3.10484 -3.1163
H -11.8786 -2.58931 -2.40822
H -12.4926 -4.04794 -2.81083
O 11.2663 6.82813 -13.8808
H 11.8575 6.23039 -14.4224
H 11.8278 7.39384 -13.2769
O 9.68518 -12.235 9.68239
H 8.81984 -12.7329 9.62502
H 9.50399 -11.2755 9.89844
O 4.62773 6.16569 1.81351
H 3.9577 6.84805 1.52115
H 5.4095 6.62538 2.23486
O -9.59579 10.9103 3.3209
H -10.4423 10.4428 3.57572
H -9.17636 11.3085 4.1367
O -11.8971 2.76262 -10.9916
H -12.6575 3.01495 -10.3932
H -11.0628 3.21771 -10.6804
O 12.0062 -1.87016 0.636995
H 11.1958 -2.18287 0.141383
H 11.9416 -0.884538 0.793203
O 5.58552 -0.323454 -4.63084
H 5.49063 -0.898422 -3.81817
H 5.67052 -0.90317 -5.44123
O -0.077997 -7.54934 1.7367
H 0.815991 -7.44455 1.30101
H -0.735098 -6.93387 1.30146
O 12.9486 5.16718 14.6172
H 13.9083 5.37326 14.8083
H 12.7581 5.3339 13.6497
O 10.1367 -11.7254 2.72057
H 9.80136 -10.9661 3.2783
H 10.3676 -11.3912 1.80679
O -7.82392 14.8646 2.40357
H -8.23467 -14.8517 3.22225
H -8.49055 14.2706 1.95313
O -1.77435 -4.20565 8.697
H -1.14799 -4.31919 9.46823
H -2.12253 -3.26828 8.68559
O 3.22379 -2.14147 13.8321
H 2.28373 -2.08432 13.4959
H 3.21769 -2.20192 14.8303
O -4.89964 -4.24636 -10.3053
H -4.47315 -4.71989 -9.53464
H -5.28775 -3.38008 -9.99072
O 14.868 10.8069 -15.0533
H 15.0465 10.5277 -14.1097
H 14.3069 11.6346 -15.0555
O 4.73582 -13.3427 -10.5523
H 4.247 -13.4987 -11.4106
H 5.40417 -12.6095 -10.6778
O 5.42718 -1.95813 -6.72149
H 6.04088 -2.18906 -7.47652
H 5.0087 -2.79335 -6.36471
O 10.2547 11.6233 0.0664982
H 10.6838 11.9813 -0.762807
H 9.63798 10.8738 -0.174189
O -9.68044 -6.93728 -13.1961
H -9.13368 -6.60847 -13.9661
H -10.604 -6.55868 -13.2573
O -6.34965 -5.28861 10.9281
H -6.34848 -6.27126 11.1136
H -5.72584 -5.09145 10.1718
O 0.0233064 6.45465 9.87256
H -0.35528 6.2498 10.7752
H 0.523991 5.65856 9.53261
O -5.26279 8.68537 1.35349
H -5.01747 9.13078 0.492416
H -5.90392 9.26423 1.85736
O -0.974683 11.0584 -8.41205
H -0.74162 10.1351 -8.71723
H -1.63392 11.0051 -7.66199
O -11.732 9.04343 -14.4166
H -11.9937 8.83592 14.7584
H -11.9894 9.98486 -14.1988
O -7.25954 -5.04041 -11.7241
H -7.77913 -4.25176 -12.0529
H -6.37696 -4.7332 -11.3682
O -6.41394 3.10464 13.2357
H -6.88698 2.75782 12.4257
H -6.31087 2.36694 13.9029
O -12.5528 8.53983 -11.781
H -11.8901 8.29812 -11.0722
H -12.0983 8.55313 -12.6717
O 9.26736 -10.8824 12.9676
H 9.10858 -10.5179 12.05
H 8.39269 -11.1324 13.3829
O -12.7017 12.9148 -9.12075
H -13.1835 13.7852 -9.22215
H -11.9209 13.0355 -8.50768
O -12.7681 -6.73766 -0.724641
H -12.7093 -6.60506 0.264792
H -11.8467 -6.76926 -1.11205
O 3.57271 -2.27251 9.73685
H 2.78078 -2.68512 9.28671
H 4.04707 -2.96632 10.2787
O 14.8424 2.62712 5.5141
H -14.5231 2.11232 5.92558
H -14.9142 3.44711 5.06996
O -3.45309 -7.90477 -12.8933
H -4.22197 -8.49196 -13.1463
H -3.76973 -6.96028 -12.8056
O -2.61255 11.9994 -13.1593
H -2.58969 12.2265 -12.1857
H -1.76511 11.5329 -13.4127
O 6.45174 -10.9478 13.7113
H 5.91712 -10.1394 13.9576
H 6.2409 -11.6925 14.3445
O -2.93594 5.76987 -3.72365
H -1.96997 5.51206 -3.74488
H -3.17283 6.24498 -4.5711
O -1.9501 -11.1774 -7.09869
H -1.26064 -10.9862 -7.79735
H -1.68099 -11.9874 -6.57763
O 12.3414 -7.45699 2.77715
H 12.5662 -7.43894 3.75139
H 12.5788 -8.35085 2.39679
O -6.8028 -11.9494 4.52269
H -6.6516 -11.5176 3.63349
H -7.77163 -12.1761 4.62272
O -13.8199 2.11049 10.0167
H -14.5808 1.55844 10.3576
H -12.9689 1.8052 10.444
O -6.23127 0.00808303 2.32373
H -6.09879 -0.681729 1.61196
H -5.51871 -0.0888894 3.01862
O 12.284 -8.82003 12.8104
H 12.714 -8.00523 13.1992
H 12.9572 -9.55735 12.7537
O 11.4158 10.0121 6.5186
H 10.7883 9.24913 6.36322
H 11.6226 10.0802 7.49463
O 6.83556 13.8226 13.0787
H 7.00268 14.6275 13.6482
H 6.19617 13.2113 13.5451
O -2.49523 -6.42723 1.21323
H -3.17832 -6.85225 1.80717
H -2.79414 -5.50491 0.968264
O 11.4881 0.69445 1.29493
H 10.6235 0.994033 0.891409
H 11.9238 1.46526 1.75973
O 3.81625 -6.67859 -7.89371
H 3.98072 -7.17689 -7.04244
H 3.31357 -7.26334 -8.53043
O 4.6654 2.68218 7.13515
H 3.75917 2.26374 7.07446
H 4.78967 3.07762 8.04521
O 8.68779 9.71898 -14.1462
H 7.78354 9.64913 -14.5675
H 8.67624 10.4359 -13.4491
O 11.5902 6.03907 0.81803
H 11.5529 7.0265 0.971668
H 10.96 5.79224 0.0818281
O -6.35217 6.65714 -7.57909
H -6.42294 7.2378 -6.76801
H -5.85009 5.82339 -7.34934
O -1.53749 -0.486202 5.43045
H -2.40973 -0.112279 5.11518
H -0.827313 -0.291434 4.75389
O -7.75681 2.20907 -0.497701
H -7.41995 1.3218 -0.182564
H -8.70466 2.11653 -0.802747
O 10.5371 -14.6089 11.3504
H 11.0949 14.9029 11.9177
H 10.3865 -15.0335 10.4576
O 9.37107 -9.19736 -12.3841
H 9.90581 -9.41445 -13.2007
H 9.60064 -8.27594 -12.0705
O -12.0316 -5.22606 11.8719
H -12.5431 -5.18685 11.0135
H -11.068 -5.02523 11.6952
O 4.06647 -4.29063 -6.47212
H 3.14474 -3.9147 -6.56763
H 4.15869 -5.09892 -7.05365
O -1.15383 -0.00175668 -6.38785
H -1.35776 -0.822191 -5.85369
H -1.74245 0.747873 -6.08519
O 13.9558 -6.42269 -8.58225
H 14.5684 -5.65809 -8.78256
H 14.1997 -6.82257 -7.69872
O 10.9331 8.93795 1.3721
H 11.3115 9.10988 2.28164
H 10.1452 8.32694 1.44892
O 11.7215 9.59516 -5.21173
H 10.7523 9.34903 -5.213
H 12.231 8.94629 -5.77695
O -11.1809 -4.63739 8.44006
H -10.2113 -4.47231 8.6204
H -11.2739 -5.27379 7.67432
O 3.01849 -1.59335 -8.43449
H 2.57495 -0.697846 -8.3975
H 3.86611 -1.56763 -7.90449
O 3.38203 8.64533 14.0678
H 4.23324 8.29399 13.6779
H 3.02874 9.38035 13.4891
O 0.691634 3.43035 9.25532
H 1.43241 3.55197 8.59465
H 1.07808 3.26633 10.1629
O 13.9242 12.1365 -5.02875
H 13.7354 11.9076 -5.98371
H 13.4331 11.5031 -4.43074
O -4.82968 14.1251 -6.66258
H -4.52058 14.324 -7.5926
H -4.03895 13.9241 -6.08435
O -2.18396 -4.45165 12.9512
H -2.04803 -5.03456 13.7523
H -2.61596 -4.98254 12.2222
O -14.7238 14.159 -5.73314
H 14.8643 13.3843 -5.38746
H -14.8204 14.2118 -6.72707
O 11.246 -0.05909 -14.0101
H 11.2972 0.909215 -14.2546
H 11.2189 -0.150535 -13.0147
O 13.3722 7.28595 6.07486
H 13.8867 6.68661 5.46156
H 12.4093 7.2915 5.80518
O -8.6489 8.37267 -7.3841
H -9.08339 9.11432 -7.89518
H -8.10998 7.80812 -8.0093
O -9.59333 10.6148 -8.73081
H -9.48791 11.169 -9.55648
H -9.9599 11.1819 -7.99323
O -3.33444 -6.93659 11.3299
H -3.10419 -7.07971 10.3673
H -4.31828 -7.06048 11.4592
O 1.22492 -3.42546 8.08173
H 0.774206 -2.58872 7.7707
H 1.07528 -4.15322 7.41241
O 4.09387 9.66317 -4.18678
H 4.49766 10.223 -4.91038
H 4.26796 8.69689 -4.37655
O -3.98736 -2.17875 -4.8079
H -4.30928 -1.27269 -4.53322
H -4.76914 -2.74566 -5.06762
O -3.17819 7.02643 -6.36465
H -2.18756 7.10916 -6.25589
H -3.62661 7.81586 -5.94544
O 7.17898 9.31534 -2.84255
H 7.46738 8.60037 -3.47947
H 7.89002 9.45431 -2.15325
O -0.227058 14.6048 -14.6435
H -0.335964 -14.528 -14.5079
H -1.08426 14.2184 -14.984
O 13.1036 2.1189 7.85165
H 13.537 2.23459 6.95793
H 12.5736 1.27087 7.8578
O -8.40304 -4.29398 -1.83065
H -9.12878 -4.79354 -1.35762
H -8.71473 -4.04126 -2.74662
O -5.6557 -9.57771 -12.7619
H -6.21696 -8.94524 -12.2281
H -5.79028 -10.5093 -12.4241
O -10.0741 -14.5293 -7.01799
H -10.2809 -13.9667 -7.8185
H -10.0447 -13.9509 -6.20274
O 0.0905779 -11.1023 8.46642
H -0.026918 -10.1738 8.81893
H -0.770226 -11.4189 8.06798
O 13.3023 -7.03123 -12.6782
H 12.513 -6.79494 -13.245
H 13.2929 -8.01259 -12.4862
O -4.6888 6.32624 -13.238
H -5.38185 6.48024 -12.5338
H -5.05969 5.72346 -13.9445
O -4.02443 -7.79682 3.04799
H -3.163 -8.2939 3.15223
H -4.03211 -7.01012 3.6653
O 10.0725 13.9288 8.57809
H 10.3723 14.3607 7.72743
H 9.78064 12.9908 8.39088
O -0.17637 2.40039 12.925
H -0.878507 1.70799 12.7588
H 0.685295 2.10746 12.5106
O -13.7155 1.02443 -2.80111
H -13.478 0.640071 -1.909
H -13.9358 1.99441 -2.69816
O 4.34729 4.59432 -8.89256
H 4.86648 3.74737 -9.00712
H 3.60888 4.62634 -9.56617
O 0.720017 2.50615 -9.64131
H 0.0784005 2.03868 -10.2494
H 0.853774 1.95991 -8.81442
O -10.7547 -11.4225 6.39454
H -9.93997 -11.1334 6.89725
H -11.4059 -10.6648 6.35128
O -9.58665 10.8595 -12.663
H -8.64268 11.1894 -12.6728
H -9.62241 9.93985 -13.0542
O -5.57275 -9.82106 14.5674
H -5.4664 -9.78937 -14.5564
H -4.70284 -10.0793 14.1471
O 7.33353 13.9248 10.4428
H 7.04947 13.8636 11.3997
H 8.3051 14.1573 10.3978
O 8.69905 6.85686 -12.77
H 8.2292 7.62056 -13.2128
H 9.6328 6.79092 -13.1218
O 7.78769 10.9283 5.00682
H 6.81626 10.7327 4.87239
H 8.26362 10.0887 5.26874
O 0.697909 2.12948 4.69005
H 0.451226 1.20945 4.38557
H 1.43351 2.07118 5.36497
O 1.86756 -11.5736 -2.25893
H 2.24822 -11.1483 -1.43781
H 2.58617 -11.6711 -2.94749
O 12.0888 6.16341 12.1128
H 11.8471 7.00538 12.5952
H 12.7372 6.37298 11.3809
O 1.33031 0.922199 -7.5304
H 0.522414 0.498972 -7.12028
H 1.56769 1.7497 -7.02157
O 2.00968 10.6116 -7.21057
H 1.54813 10.4212 -8.07701
H 2.35556 11.5499 -7.21637
O -11.2843 9.80719 -1.06389
H -11.1063 10.7845 -0.948877
H -10.8146 9.29582 -0.344287
O -8.46799 -8.56947 -7.95195
H -8.6975 -7.61642 -7.75435
H -8.65169 -8.76365 -8.91557
O -3.9897 9.12802 -4.7706
H -3.74712 9.13497 -3.80048
H -4.9425 8.84248 -4.87389
O -14.0073 -10.9224 5.84882
H -14.0192 -11.3831 4.96131
H -14.8796 -11.073 6.3142
O 9.23883 -6.74021 -9.5321
H 9.23926 -7.35565 -8.7439
H 10.0484 -6.15412 -9.4978
O -13.4402 -0.933808 -14.0702
H -13.7333 -0.492169 -13.2222
H -13.5457 -1.92448 -13.9837
O 12.761 -12.8837 -14.9252
H 12.5068 -13.0934 14.2483
H 13.0981 -13.7126 -14.4787
O -3.67297 2.89645 2.92163
H -3.83029 3.0899 1.9532
H -4.10725 3.60497 3.47789
O 12.7982 -5.78269 13.614
H 12.2813 -5.98058 12.7811
H 13.4826 -5.0793 13.4223
O 0.525167 -13.1295 3.37506
H 1.32027 -13.3404 2.80643
H 0.83152 -12.7644 4.25418
O -10.8794 -6.76424 6.64633
H -10.3975 -7.09212 7.45894
H -11.1438 -7.54372 6.07841
O 5.88189 -2.07631 -2.66152
H 5.9039 -2.9371 -3.17002
H 5.8748 -2.26892 -1.68027
O 0.566034 6.99104 -2.27006
H 0.728853 7.45037 -1.39684
H 1.0158 7.50054 -3.00364
O 1.68678 -8.83045 -14.2156
H 2.39221 -8.16297 -14.454
H 0.799179 -8.50994 -14.5464
O 8.52909 -5.17031 -14.8713
H 8.78009 -4.31563 14.7918
H 7.6955 -5.03123 -14.3367
O -12.0818 -5.58032 -13.4191
H -12.8897 -5.88968 -12.9176
H -12.3625 -5.19417 -14.2978
O -6.12253 -7.81907 11.219
H -5.99218 -8.66311 10.6988
H -6.59864 -8.02466 12.0741
O 2.18237 -7.32641 12.119
H 2.27751 -6.40452 11.7434
H 2.92293 -7.90421 11.7759
O -1.40305 -7.91092 -9.42121
H -1.03863 -7.61099 -10.3028
H -2.39323 -7.772 -9.40517
O -7.14047 -14.6467 -6.01508
H -7.85829 -14.5309 -6.70163
H -6.35207 15.0171 -6.43042
O 0.766111 8.21785 0.589756
H 0.326202 7.51301 1.14626
H 0.312609 9.09565 0.744095
O -11.5223 5.54828 15.0491
H -10.6676 6.06617 -15.0321
H -12.2569 6.0881 -14.6576
O -9.14757 0.716236 8.07041
H -9.12467 0.852957 7.08006
H -9.04685 1.5981 8.53105
O -8.15584 -0.522955 -0.496923
H -7.55664 -1.29335 -0.279039
H -8.76574 -0.346179 0.275598
O 9.79429 1.78352 -7.2045
H 10.7018 1.64119 -6.80922
H 9.09726 1.46405 -6.56255
O 14.198 -2.51365 -1.89085
H 13.7632 -2.18091 -1.05403
H -14.9731 -2.77045 -1.6953
O 13.2264 8.20682 -12.1362
H 12.8895 8.53547 -11.2538
H 13.7411 7.36002 -12.002
O 13.343 -14.2069 -4.46707
H 14.1994 -14.4706 -4.911
H 12.5834 -14.7038 -4.88659
O -1.76022 -1.89867 -10.1265
H -2.03602 -2.60489 -9.47444
H -1.81966 -1.00076 -9.69035
O -0.608007 -10.7931 12.3869
H 0.201992 -11.0972 11.8855
H -0.536177 -9.81331 12.5735
O 5.062 -12.4753 -1.33224
H 5.5258 -11.7355 -1.81959
H 5.61395 -12.7542 -0.54637
O -0.972741 -7.91808 12.4377
H -0.330217 -7.70862 11.7006
H -1.83564 -7.44009 12.2736
O -2.18943 3.30115 -6.06484
H -2.02914 3.5702 -7.01454
H -1.65113 3.88542 -5.45749
O -9.18415 -4.27319 14.7209
H -9.45578 -3.63089 -14.68
H -8.27551 -4.63688 14.9262
O -2.83349 9.50345 -2.08525
H -2.53114 8.60104 -1.77824
H -2.07789 10.1535 -2.00441
O 13.9558 -11.2571 7.42769
H 13.1604 -11.7903 7.71585
H 14.1265 -10.5283 8.09073
O -7.60586 -14.9014 -14.6619
H -7.49181 -14.0189 14.9995
H -8.46112 14.7938 -14.9621
O -5.67106 6.03236 0.16266
H -5.44472 6.84706 0.696563
H -5.56534 6.23223 -0.811452
O 11.1582 0.642696 -3.0734
H 10.3315 0.59633 -2.5127
H 11.3757 -0.268789 -3.42256
O 1.15442 -14.5269 -1.59171
H 0.533444 -14.7197 -2.35146
H 1.54571 -13.6135 -1.70462
O -4.2367 -5.87776 -8.19611
H -4.24724 -6.61668 -8.86984
H -4.36229 -6.25972 -7.28049
O 8.57791 8.14074 9.89297
H 7.78192 8.73923 9.80223
H 8.27287 7.20473 10.0686
O -3.02315 5.69921 11.0317
H -3.39297 4.7795 10.8998
H -3.64008 6.36897 10.6183
O 13.1599 -1.67789 10.6104
H 13.5517 -1.89739 9.71686
H 13.407 -0.742107 10.8619
O 1.87724 1.29793 7.11268
H 1.03027 1.12338 7.61485
H 2.21717 0.44132 6.72449
O -10.3419 13.0019 -3.20229
H -9.62365 13.6321 -3.49715
H -10.2639 12.1454 -3.71252
O -7.32522 3.47855 -2.98671
H -7.23472 3.02703 -2.09904
H -7.32278 4.47025 -2.85802
O 2.91928 0.691087 -11.073
H 2.70341 -0.183605 -11.507
H 2.10905 1.03756 -10.6003
O -6.99227 10.3614 2.61541
H -7.8733 10.6822 2.96311
H -6.43243 11.1466 2.35082
O 13.1275 -6.50674 8.88304
H 12.8047 -7.43612 8.70399
H 12.7864 -5.89252 8.1714
O 11.9408 14.988 -8.88493
H 11.234 14.2967 -8.73455
H 12.557 15.0114 -8.0977
O -13.4454 -2.56064 -5.51432
H -14.3973 -2.72653 -5.77201
H -13.2984 -2.85955 -4.57142
O 8.41468 5.09358 -6.89881
H 7.45533 5.26823 -7.12053
H 8.94667 5.03487 -7.74353
O -11.8061 3.1058 5.60085
H -11.5004 3.73399 6.31632
H -12.4441 2.44166 5.99071
O -4.37679 2.96988 11.0234
H -3.61185 2.44301 11.3939
H -5.05802 3.11771 11.7404
O 4.6507 9.66067 -10.7149
H 3.66433 9.6007 -10.5616
H 4.99236 10.5275 -10.3517
O -3.70027 -4.20297 0.215993
H -3.2099 -3.45157 -0.225539
H -4.12203 -4.78156 -0.482134
O 1.46864 8.72915 10.2566
H 0.824281 7.96512 10.2892
H 1.41775 9.24486 11.1119
O 11.8546 -0.400877 -11.2661
H 11.192 0.139373 -10.7473
H 12.7733 -0.235694 -10.9073
O -5.15287 -12.5879 11.9784
H -5.23525 -13.4911 11.557
H -4.24254 -12.4895 12.3804
O 3.4719 13.6917 -7.25417
H 3.83039 13.8527 -6.33461
H 3.25066 14.5672 -7.68368
O -12.5033 -6.80052 -9.46766
H -13.0804 -6.58515 -8.67991
H -12.4082 -7.79259 -9.54987
O -9.33888 -13.6238 9.16361
H -10.1752 -13.8984 9.63803
H -9.40609 -13.8739 8.19772
O 8.8013 12.2541 -12.6362
H 8.00954 12.8481 -12.4938
H 9.63634 12.8042 -12.629
O -3.45893 -11.7808 -1.49916
H -3.65551 -11.0358 -2.13664
H -3.52138 -12.6557 -1.97945
O 0.466531 9.59708 -5.13868
H 1.17395 9.7759 -5.8225
H 0.620846 10.1782 -4.33963
O -11.3013 -0.185878 -11.7297
H -11.4722 -0.953179 -11.1116
H -12.1177 0.389537 -11.7804
O 6.90427 14.3917 -12.5574
H 7.51993 -14.9404 -12.4943
H 6.06065 14.6657 -13.0192
O 12.8161 -8.97555 -9.35731
H 12.9289 -9.4252 -10.2434
H 13.444 -8.19967 -9.29494
O 11.3559 -12.3435 12.6361
H 10.5504 -11.786 12.8374
H 11.0676 -13.2134 12.2359
O 5.62334 -12.9172 11.2725
H 5.93844 -13.3749 10.4411
H 6.40686 -12.7198 11.8617
O 1.49946 9.56949 5.73399
H 1.54517 9.85797 6.6904
H 0.716501 8.96058 5.60657
O 2.9264 -6.23658 0.70603
H 3.84608 -5.84563 0.669074
H 2.58462 -6.37304 -0.223798
O -11.0534 -11.6487 -11.5156
H -10.316 -11.1403 -11.9603
H -11.8553 -11.6639 -12.1129
O -9.2762 6.58334 -5.5168
H -8.89446 7.19583 -6.20901
H -10.2748 6.61143 -5.56114
O -6.66521 -10.7325 -7.90612
H -5.77004 -10.3719 -8.16816
H -7.31434 -9.97752 -7.81277