LAMMPS data file via write_data, version 15 May 2015, timestep = 1190000

4560 atoms
7 atom types
5040 bonds
3 bond types
7200 angles
2 angle types
10560 dihedrals
3 dihedral types
2400 impropers
1 improper types

-1.0763502675555259e-01 4.1387635026745990e+01 xlo xhi
-4.0433884491974936e-02 3.5938433884472119e+01 ylo yhi
-3.5711112484589691e-01 2.9555111124838550e+01 zlo zhi
-6.7234083837551181e-02 -1.7036217651000683e+01 -4.1707816797290791e-02 xy xz yz

Masses

1 12.0107
2 1.008
3 12.0107
4 12.0107
5 12.0107
6 12.0107
7 12.0107

Pair Coeffs # lj/cut/coul/long

1 0 3.55
2 0 2.42
3 0 3.55
4 0 3.55
5 0 3.55
6 0 0
7 0 3.55

Bond Coeffs # harmonic

1 469 1.4
2 367 1.08
3 469 0.7

Angle Coeffs # harmonic

1 35 120
2 63 120

Dihedral Coeffs # opls

1 0 7.25 0 0
2 0 7.25 0 0
3 0 7.25 0 0

Improper Coeffs # cvff

1 2.5 -1 2

Atoms # full

219 13 3 0.0000000000000000e+00 -2.2450871374496728e-01 3.0917951493318792e+00 3.1249708256139281e+00 1 0 0
220 13 4 -9.9199999999999997e-02 2.9243698352384917e-01 4.1067017131766042e+00 2.3564894512872128e+00 1 0 0
224 13 2 9.9199999999999997e-02 4.4446433566645416e-01 5.0954487006972879e+00 2.7478922223527835e+00 1 0 0
580 33 4 -9.9199999999999997e-02 2.6869744687626480e+00 6.7603789684214410e+00 3.9998004853178806e+00 1 0 0
228 13 3 0.0000000000000000e+00 -6.1362548681253215e-01 1.8337440596780161e+00 2.5864626989663528e+00 1 0 0
989 53 4 -9.9199999999999997e-02 -1.3712871607593815e+00 7.0521191179189220e+00 3.5102705412409692e+00 1 0 0
600 34 2 9.9199999999999997e-02 3.3179331395812550e-01 5.8208684183771018e+00 6.9255046258702651e+00 1 0 0
245 14 4 -9.9199999999999997e-02 -4.9165183314479393e+00 1.4356600773276493e+00 9.0590319695131551e+00 1 0 0
227 13 4 -9.9199999999999997e-02 -1.8326427250455324e-01 1.5468011075278709e+00 1.2532819898955248e+00 1 0 0
4390 233 1 -9.9199999999999997e-02 2.4432793654498197e+00 7.9152096872354327e-01 5.5000827703832380e+00 1 1 0
733 13 6 0.0000000000000000e+00 -4.3799562636567302e-01 2.4430476097748732e+00 2.9469417975091048e+00 1 0 0
987 53 4 -9.9199999999999997e-02 -8.1526247703587784e-01 7.9657513262647752e+00 1.3173527474480675e+00 1 0 0
230 13 1 -9.9199999999999997e-02 7.6334443898464011e-01 3.7469842294372535e+00 1.0994015171654139e+00 1 0 0
217 13 7 -9.9199999999999997e-02 -1.3356411921358056e+00 2.3867310961201795e+00 5.1923214827503479e+00 1 0 0
218 13 5 -9.9199999999999997e-02 -5.7722726924645151e-01 3.3997165457451328e+00 4.4946321632507811e+00 1 0 0
221 13 1 -9.9199999999999997e-02 -1.5807863466029737e+00 1.1137801456160361e+00 4.6752332385454798e+00 1 0 0
222 13 2 9.9199999999999997e-02 -1.7004835497255715e+00 2.5388905045629726e+00 6.1872492537842696e+00 1 0 0
223 13 2 9.9199999999999997e-02 -3.2194958372866322e-01 4.3681641576703525e+00 4.8924969009102792e+00 1 0 0
248 14 1 -9.9199999999999997e-02 -3.8272646568873601e+00 3.5213253018458057e+00 8.6109535173370926e+00 1 0 0
4380 233 4 -9.9199999999999997e-02 2.5593309151653432e+00 1.1299632915458944e+00 4.1554449399094757e+00 1 1 0
244 14 1 -9.9199999999999997e-02 -4.3359427435474593e+00 2.2901357716017023e+00 8.1168790776487132e+00 1 0 0
603 34 2 9.9199999999999997e-02 1.0762251229021595e+00 3.6364855483357861e+00 7.6191059366453482e+00 1 0 0
4396 234 5 -9.9199999999999997e-02 -7.4836190610708808e-01 1.9721865221786108e-01 9.2600328998782100e+00 1 1 0
4394 233 2 9.9199999999999997e-02 2.0656627578353381e+00 1.5052726927697233e+00 6.2386655970828713e+00 1 1 0
579 33 3 0.0000000000000000e+00 3.3269368997129596e+00 5.8291286157469804e+00 3.1885698236390803e+00 1 0 0
252 14 2 9.9199999999999997e-02 -3.4681214609360946e+00 4.1903564670259632e+00 7.8815384276201002e+00 1 0 0
581 33 1 -9.9199999999999997e-02 4.5353133616226460e+00 3.9373229200465580e+00 1.4619537732096215e+00 1 0 0
596 34 5 -9.9199999999999997e-02 -5.3805752265683005e-01 6.3413656640371636e+00 8.8948964580276524e+00 1 0 0
577 33 7 -9.9199999999999997e-02 3.9062009277423151e+00 5.1487042696353695e+00 1.0000325426154058e+00 1 0 0
588 33 3 0.0000000000000000e+00 3.8615184014459274e+00 4.6402240742060377e+00 3.7539723701122139e+00 1 0 0
589 33 4 -9.9199999999999997e-02 4.5070456104807910e+00 3.7309307979823321e+00 2.8665307823672053e+00 1 0 0
593 33 2 9.9199999999999997e-02 4.9927500116682975e+00 2.8326258795337265e+00 3.2829938695078256e+00 1 0 0
753 33 6 0.0000000000000000e+00 3.6373153208121121e+00 5.1758838756447103e+00 3.3051522516289764e+00 1 0 0
4383 233 2 9.9199999999999997e-02 3.0245814203138517e+00 1.3768169176381224e+00 1.4188264371842592e+00 1 1 0
4379 233 3 0.0000000000000000e+00 3.2080531558873715e+00 2.0607036697833209e-01 3.3252600005164004e+00 1 1 0
578 33 5 -9.9199999999999997e-02 3.4883481012170856e+00 6.1379219386838209e+00 1.8095545845388590e+00 1 0 0
226 13 1 -9.9199999999999997e-02 5.2142849114533374e-01 2.4951294668905888e+00 5.0220538956115934e-01 1 0 0
4384 233 2 9.9199999999999997e-02 2.1587330286168940e+00 2.0801830219908850e+00 3.8324159878992674e+00 1 1 0
586 33 1 -9.9199999999999997e-02 3.2250445203715610e+00 5.3926046298852794e+00 5.9712170847729782e+00 1 0 0
587 33 4 -9.9199999999999997e-02 3.7759972931950969e+00 4.4204547019729281e+00 5.1771967603250593e+00 1 0 0
585 33 2 9.9199999999999997e-02 5.0138424178966483e+00 3.2289608365546409e+00 8.2851681396952426e-01 1 0 0
591 33 2 9.9199999999999997e-02 3.1534328398411553e+00 5.4123060822353111e+00 7.0928679713301124e+00 1 0 0
592 33 2 9.9199999999999997e-02 4.1129172926924520e+00 3.4974309852609560e+00 5.7279496571355093e+00 1 0 0
590 33 1 -9.9199999999999997e-02 2.5961915695566860e+00 6.5137949225641920e+00 5.3642792841956632e+00 1 0 0
993 53 2 9.9199999999999997e-02 -1.7876112665449899e+00 6.1950917991426495e+00 3.0078536662755706e+00 1 0 0
234 13 2 9.9199999999999997e-02 1.2853831091701298e+00 4.4458744370069114e+00 4.4587349590113157e-01 1 0 0
229 13 4 -9.9199999999999997e-02 -1.2128962330266999e+00 8.4484653928362274e-01 3.3404699648351710e+00 1 0 0
1353 73 2 9.9199999999999997e-02 5.1199880881677728e+00 8.8988487515611130e+00 3.0827402000434505e+00 1 0 0
985 53 2 9.9199999999999997e-02 -1.6198036715009649e+00 6.3996604354187330e+00 5.5389294536557179e+00 1 0 0
599 34 1 -9.9199999999999997e-02 5.4553450107853596e-01 4.2044869568211576e+00 8.2941376992141009e+00 1 0 0
4401 234 2 9.9199999999999997e-02 -1.0984026004348566e+00 1.1709975065175344e+00 8.9239641795238551e+00 1 1 0
225 13 2 9.9199999999999997e-02 -2.0294791490242599e+00 3.5099259775203229e-01 5.2861138269162122e+00 1 0 0
595 34 7 -9.9199999999999997e-02 7.7283610832831862e-02 5.5093633109631979e+00 7.9232473922063864e+00 1 0 0
981 53 1 -9.9199999999999997e-02 -1.2618086452911523e+00 7.1886662720426084e+00 4.8609424966761665e+00 1 0 0
4378 233 5 -9.9199999999999997e-02 3.4432005829290451e+00 5.0147533131536970e-01 1.9214978205322395e+00 1 1 0
582 33 2 9.9199999999999997e-02 3.8411264479661371e+00 5.3641339754955952e+00 -7.3225516153625436e-02 1 0 0
583 33 2 9.9199999999999997e-02 3.0908165602774575e+00 7.0924413331020117e+00 1.3696448055589281e+00 1 0 0
1010 54 2 9.9199999999999997e-02 -5.0816013255078341e+00 6.3559600600973418e+00 8.5391392133247130e+00 1 0 0
232 13 2 9.9199999999999997e-02 -4.2463768419538117e-01 5.9765270473219256e-01 8.2328786493754569e-01 1 0 0
1493 53 6 0.0000000000000000e+00 -5.4432719891413051e-01 8.6678478589345787e+00 2.9674875623505921e+00 1 0 0
584 33 2 9.9199999999999997e-02 2.3015773536638964e+00 7.7683854224578850e+00 3.6320766154224216e+00 1 0 0
1005 54 4 -9.9199999999999997e-02 -4.5159122626205086e+00 7.1920477602884567e+00 8.8861242654446428e+00 1 0 0
594 33 2 9.9199999999999997e-02 2.0968082601638174e+00 7.1691546436670190e+00 5.9956711824380289e+00 1 0 0
977 53 7 -9.9199999999999997e-02 -8.4844071921309450e-01 8.3799105021350933e+00 5.5122828645680189e+00 1 0 0
982 53 2 9.9199999999999997e-02 -7.8553339321523286e-01 8.4078880060232919e+00 6.5781690108940563e+00 1 0 0
1004 54 1 -9.9199999999999997e-02 -3.6086134640679877e+00 7.8397071666912863e+00 8.0137626154339809e+00 1 0 0
988 53 3 0.0000000000000000e+00 -8.0623117751888984e-01 8.0737362489530291e+00 2.6772517044974693e+00 1 0 0
1009 54 2 9.9199999999999997e-02 -3.3903315584876079e+00 7.3378829306720919e+00 6.9974427026209147e+00 1 0 0
601 34 2 9.9199999999999997e-02 -8.0863771948221252e-01 7.3271573007685369e+00 8.5540278096772422e+00 1 0 0
1064 57 2 9.9199999999999997e-02 7.2278440531967911e+00 6.3966571407559139e+00 1.0293990972058031e+00 1 0 0
986 53 1 -9.9199999999999997e-02 -1.9952455749187756e-01 8.8588041029564053e+00 4.3038328100721990e-01 1 0 0
303 17 2 9.9199999999999997e-02 7.8957222500876760e+00 1.4393877503519057e+00 1.2661614958715162e-01 1 0 0
322 18 2 9.9199999999999997e-02 2.7739367322073658e+00 1.4479141442604326e-01 9.1211528585623167e+00 1 0 0
4382 233 2 9.9199999999999997e-02 4.3118421053458160e+00 1.0181526904519646e-01 -1.0506191875514381e-02 1 1 0
607 34 4 -9.9199999999999997e-02 4.1004716608721292e-01 3.7344980453328231e+00 9.6101958866324111e+00 1 0 0
235 14 7 -9.9199999999999997e-02 -5.2554069768397120e+00 2.2520156980146959e+00 1.3193364078676806e+01 1 0 0
236 14 5 -9.9199999999999997e-02 -4.5506323805958750e+00 3.1522412611335242e+00 1.2349901807981624e+01 1 0 0
597 34 3 0.0000000000000000e+00 -6.5805378678423576e-01 5.9066450865952769e+00 1.0213513202085023e+01 1 0 0
734 14 6 0.0000000000000000e+00 -4.6133747580394360e+00 2.3095022890637877e+00 1.0504893041264067e+01 1 0 0
239 14 1 -9.9199999999999997e-02 -5.8662373883356365e+00 1.1211989975085557e+00 1.2611864324868888e+01 1 0 0
240 14 2 9.9199999999999997e-02 -5.4032031665345972e+00 2.5111450280473093e+00 1.4226781140916611e+01 1 0 0
243 14 2 9.9199999999999997e-02 -6.4598982865269861e+00 4.6733241677340359e-01 1.3274586298791949e+01 1 0 0
4416 235 4 -9.9199999999999997e-02 -5.8506720710509574e+00 8.9184169997054297e-01 1.9042357025844236e+01 1 1 0
4420 235 2 9.9199999999999997e-02 -6.1669139627511420e+00 1.8592342927140717e+00 1.8744108331429324e+01 1 1 0
237 14 3 0.0000000000000000e+00 -4.4153421464360481e+00 2.8830853884267404e+00 1.0943429371987976e+01 1 0 0
4402 234 2 9.9199999999999997e-02 -1.9531874213894946e+00 1.7251944077776549e+00 1.1081654559279952e+01 1 1 0
1029 55 2 9.9199999999999997e-02 -1.0204374796293216e+01 5.8519473804548259e+00 1.7959066968941329e+01 1 0 0
242 14 2 9.9199999999999997e-02 -3.2815045259552802e+00 4.6340323257954532e+00 1.0404491540391332e+01 1 0 0
255 15 3 0.0000000000000000e+00 -8.7236038983596984e+00 3.0944258196123178e+00 1.8214858989137014e+01 1 0 0
256 15 4 -9.9199999999999997e-02 -8.0453017975039796e+00 3.8906415300362802e+00 1.7196431617510559e+01 1 0 0
260 15 2 9.9199999999999997e-02 -7.5790333962211331e+00 4.8056873449470103e+00 1.7474309948673568e+01 1 0 0
1024 55 3 0.0000000000000000e+00 -9.1689083234081235e+00 7.6847058310858563e+00 1.7512802797740324e+01 1 0 0
4414 235 5 -9.9199999999999997e-02 -4.8874293480321169e+00 3.6122525012102252e-01 1.6830624741378273e+01 1 1 0
264 15 3 0.0000000000000000e+00 -9.3033304162635577e+00 1.8737502304974412e+00 1.7837052755831166e+01 1 0 0
262 15 1 -9.9199999999999997e-02 -8.5017464469412261e+00 2.1375639460688429e+00 1.5581836359070707e+01 1 0 0
266 15 1 -9.9199999999999997e-02 -7.9608392638102332e+00 3.3979962754829707e+00 1.5873043341103859e+01 1 0 0
4408 234 1 -9.9199999999999997e-02 -1.8015320098527043e+00 3.7019018452988428e-01 1.2720430289707153e+01 1 1 0
238 14 4 -9.9199999999999997e-02 -3.7031384443048077e+00 3.7238984879718116e+00 9.9992069878317906e+00 1 0 0
263 15 4 -9.9199999999999997e-02 -9.1743558078236109e+00 1.4006493282448824e+00 1.6519320976967297e+01 1 0 0
735 15 6 0.0000000000000000e+00 -8.9392434798544436e+00 2.4176322599033546e+00 1.8050032254138138e+01 1 0 0
246 14 3 0.0000000000000000e+00 -4.9888369731830995e+00 1.7334965453368407e+00 1.0456897930245619e+01 1 0 0
265 15 4 -9.9199999999999997e-02 -1.0039548857514477e+01 1.1053925360107570e+00 1.8722586804045012e+01 1 0 0
604 34 1 -9.9199999999999997e-02 -1.0648114460146241e+00 4.9268509342582725e+00 1.2815067804632022e+01 1 0 0
605 34 4 -9.9199999999999997e-02 -4.0065459461505437e-01 4.0975902779881865e+00 1.1866028412624701e+01 1 0 0
606 34 3 0.0000000000000000e+00 -2.4691816050620119e-01 4.5922699010599679e+00 1.0526274966017860e+01 1 0 0
1022 55 1 -9.9199999999999997e-02 -8.5354230755131404e+00 8.4085869954217234e+00 1.5258838718472804e+01 1 0 0
1007 54 4 -9.9199999999999997e-02 -5.7071063255328260e+00 7.1580252027173037e+00 1.1047197594216456e+01 1 0 0
611 34 2 9.9199999999999997e-02 8.4499052593331925e-01 2.8014708039481397e+00 9.8542862824486104e+00 1 0 0
610 34 2 9.9199999999999997e-02 -7.5772410771372201e-02 3.1513027158895737e+00 1.2063098724921421e+01 1 0 0
241 14 2 9.9199999999999997e-02 -4.0032732688489006e+00 4.0415431943938920e+00 1.2655399224810621e+01 1 0 0
620 35 2 9.9199999999999997e-02 -6.4598501195032183e+00 7.5557813776993363e+00 1.9212425294817844e+01 1 0 0
598 34 4 -9.9199999999999997e-02 -1.1609427578603562e+00 6.7925421579357659e+00 1.1215205744558039e+01 1 0 0
754 34 6 0.0000000000000000e+00 -4.3133013918634777e-01 5.2898934864302429e+00 1.0483806694661638e+01 1 0 0
609 34 2 9.9199999999999997e-02 -1.1574325811926922e+00 4.6404783739642790e+00 1.3808561740282462e+01 1 0 0
613 35 7 -9.9199999999999997e-02 -4.5330908718498293e+00 5.5784436782781084e+00 1.6100491538589264e+01 1 0 0
618 35 2 9.9199999999999997e-02 -4.4708438551673542e+00 6.0927889933285728e+00 1.5110096621187406e+01 1 0 0
615 35 3 0.0000000000000000e+00 -5.2753358545649336e+00 5.7329306545863012e+00 1.8420805438711376e+01 1 0 0
617 35 1 -9.9199999999999997e-02 -4.0264837220287601e+00 4.3260483814744548e+00 1.6363725693005907e+01 1 0 0
621 35 2 9.9199999999999997e-02 -3.3266272646570245e+00 3.7820597148330282e+00 1.5687802599357770e+01 1 0 0
624 35 3 0.0000000000000000e+00 -4.6867502227178752e+00 4.5193461208060910e+00 1.8676579348501512e+01 1 0 0
625 35 4 -9.9199999999999997e-02 -4.0286367241069510e+00 3.7981603299910827e+00 1.7634801187456777e+01 1 0 0
629 35 2 9.9199999999999997e-02 -3.4792992534025551e+00 2.8725465685210505e+00 1.7845389226240592e+01 1 0 0
755 35 6 0.0000000000000000e+00 -4.9460813640223114e+00 5.1082380255032200e+00 1.8449735581090078e+01 1 0 0
270 15 2 9.9199999999999997e-02 -7.2990640012953802e+00 3.9270891629581612e+00 1.5177930715783761e+01 1 0 0
4398 234 4 -9.9199999999999997e-02 -1.6234763271808745e+00 7.5346854371544159e-01 1.1390698846880705e+01 1 1 0
4412 234 2 9.9199999999999997e-02 -2.2219656373589247e+00 1.0459334414728489e+00 1.3476143904550433e+01 1 1 0
614 35 5 -9.9199999999999997e-02 -5.1951552734601130e+00 6.2967470114901563e+00 1.7104578208987878e+01 1 0 0
247 14 4 -9.9199999999999997e-02 -5.7458606474137675e+00 8.7409105853982549e-01 1.1234811482468201e+01 1 0 0
4419 235 2 9.9199999999999997e-02 -5.3542516841322421e+00 1.2569314205037010e+00 1.6468649788129895e+01 1 1 0
1025 55 4 -9.9199999999999997e-02 -9.8011175675786681e+00 6.7514423547147437e+00 1.8324089048614425e+01 1 0 0
608 34 1 -9.9199999999999997e-02 -1.3271089450259232e+00 6.2969120100874090e+00 1.2518453601827668e+01 1 0 0
616 35 4 -9.9199999999999997e-02 -5.9430367967513540e+00 6.5459348648372808e+00 1.9389221667745254e+01 1 0 0
612 34 2 9.9199999999999997e-02 -1.6331588014035425e+00 6.9352905037727899e+00 1.3345567798360145e+01 1 0 0
1011 54 2 9.9199999999999997e-02 -6.1796270011694352e+00 6.1935993938285545e+00 1.0869040888017743e+01 1 0 0
269 15 2 9.9199999999999997e-02 -1.0463537634097030e+01 1.6915647203671183e-01 1.8382752448638531e+01 1 0 0
254 15 5 -9.9199999999999997e-02 -8.9480852720653772e+00 3.5794988976667996e+00 1.9504579722163697e+01 1 0 0
1006 54 3 0.0000000000000000e+00 -4.7601497998657845e+00 7.7477733876432939e+00 1.0155339424784399e+01 1 0 0
1023 55 4 -9.9199999999999997e-02 -9.1641926951241732e+00 7.4270655447519642e+00 1.6108102369191965e+01 1 0 0
619 35 2 9.9199999999999997e-02 -5.6141317863302396e+00 7.2805934277963988e+00 1.6885735630539550e+01 1 0 0
1015 55 3 0.0000000000000000e+00 -8.4892282563183308e+00 8.7633110469340725e+00 1.8095020934832785e+01 1 0 0
1494 54 6 0.0000000000000000e+00 -4.5704045005704979e+00 8.4160865425222049e+00 1.0304281021027364e+01 1 0 0
1003 54 2 9.9199999999999997e-02 -6.7846824499783507e+00 7.2531044371634730e+00 1.2977541004346380e+01 1 0 0
1495 55 6 0.0000000000000000e+00 -8.8195970004438244e+00 8.2891800633714254e+00 1.7630456685637519e+01 1 0 0
999 54 1 -9.9199999999999997e-02 -6.0823601465219310e+00 7.7665932046521489e+00 1.2286530559224817e+01 1 0 0
602 34 2 9.9199999999999997e-02 -1.4116779223322711e+00 7.8358826429554265e+00 1.0942099224266562e+01 1 0 0
267 15 2 9.9199999999999997e-02 -8.3742418502384464e+00 1.7310239278280741e+00 1.4535358217701715e+01 1 0 0
4415 235 3 0.0000000000000000e+00 -5.1309662077074902e+00 -7.0217286285669742e-03 1.8191843385654575e+01 1 1 0
251 14 2 9.9199999999999997e-02 -6.1722949180733693e+00 -5.0330663273368118e-02 1.0853728401006085e+01 1 0 0
340 19 2 9.9199999999999997e-02 -1.3234392230478775e+00 5.8756313788624470e-01 1.6253294217869740e+01 1 0 0
280 16 1 -9.9199999999999997e-02 -1.2840719393892925e+01 2.4167836687652366e+00 2.3131311675784911e+01 1 0 0
1042 56 3 0.0000000000000000e+00 -1.3723856731398218e+01 7.8629548214161886e+00 2.5215449271837198e+01 1 0 0
258 15 2 9.9199999999999997e-02 -9.5603022598910421e+00 3.0038843641738810e+00 2.1478366817224476e+01 1 0 0
634 36 4 -9.9199999999999997e-02 -1.0203439661999683e+01 6.4068937028634183e+00 2.6168064629250843e+01 1 0 0
4433 236 3 0.0000000000000000e+00 -9.5898461320000994e+00 4.7336161115082424e-02 2.5637557150232503e+01 1 1 0
257 15 1 -9.9199999999999997e-02 -1.0224296713745968e+01 1.5347339803418405e+00 2.0066921597080828e+01 1 0 0
284 16 1 -9.9199999999999997e-02 -1.2302362049582694e+01 3.6189601643562681e+00 2.3593381770946365e+01 1 0 0
279 16 2 9.9199999999999997e-02 -1.4895847489799456e+01 6.2645527752350616e-01 2.8246841481098397e+01 1 0 0
1119 60 2 9.9199999999999997e-02 -6.7419909176217701e+00 5.9044447809753180e+00 2.5796517165157820e+01 1 0 0
288 16 2 9.9199999999999997e-02 -1.1985025349337958e+01 4.3595443633641189e+00 2.2870938552941507e+01 1 0 0
271 16 7 -9.9199999999999997e-02 -1.3912887933422176e+01 2.5751742180001020e+00 2.7997682697483530e+01 1 0 0
272 16 5 -9.9199999999999997e-02 -1.3186749482458390e+01 3.4223176090081560e+00 2.7162666416317922e+01 1 0 0
273 16 3 0.0000000000000000e+00 -1.2999579855387834e+01 3.0579092841818767e+00 2.5837970175510161e+01 1 0 0
274 16 4 -9.9199999999999997e-02 -1.2316392197250522e+01 3.9498247828551221e+00 2.4961996395647578e+01 1 0 0
275 16 1 -9.9199999999999997e-02 -1.4329791473169728e+01 1.3015603041603410e+00 2.7595855349008886e+01 1 0 0
1013 55 7 -9.9199999999999997e-02 -9.0709021300522217e+00 8.0464152880130353e+00 2.0262324627829337e+01 1 0 0
277 16 2 9.9199999999999997e-02 -1.2914101739224188e+01 4.4560230338859412e+00 2.7455019756109305e+01 1 0 0
278 16 2 9.9199999999999997e-02 -1.1886760453651258e+01 4.9219917280866818e+00 2.5290507969291745e+01 1 0 0
261 15 2 9.9199999999999997e-02 -1.0711344845237798e+01 9.5195089693428925e-01 2.0839977908262465e+01 1 0 0
282 16 3 0.0000000000000000e+00 -1.3470303837515877e+01 1.8110409104824501e+00 2.5312397170845674e+01 1 0 0
1043 56 4 -9.9199999999999997e-02 -1.4411225506617683e+01 7.1158356797685443e+00 2.6237669750016252e+01 1 0 0
736 16 6 0.0000000000000000e+00 -1.3222600619676804e+01 2.3827633459869286e+00 2.5729412540064416e+01 1 0 0
632 36 5 -9.9199999999999997e-02 -9.2101744983606331e+00 6.1018945259812840e+00 2.3895079639985031e+01 1 0 0
636 36 2 9.9199999999999997e-02 -8.4542471125612089e+00 5.5279036148769745e+00 2.1885946438438495e+01 1 0 0
4438 236 2 9.9199999999999997e-02 -1.0720140502535248e+01 1.6877537608800035e+00 2.6190252952016451e+01 1 1 0
253 15 7 -9.9199999999999997e-02 -9.6162682643884292e+00 2.7421797934551648e+00 2.0440986633530116e+01 1 0 0
623 35 4 -9.9199999999999997e-02 -4.8142266922099326e+00 3.9772497308588686e+00 2.0028719922144944e+01 1 0 0
627 35 2 9.9199999999999997e-02 -5.5091887771192187e+00 4.4381403496912508e+00 2.2032500586916562e+01 1 0 0
644 36 1 -9.9199999999999997e-02 -1.0303214769385088e+01 5.9508693163628568e+00 2.7561506950606478e+01 1 0 0
631 36 7 -9.9199999999999997e-02 -8.6014751316937144e+00 5.3000282316933607e+00 2.2926720787329341e+01 1 0 0
635 36 1 -9.9199999999999997e-02 -8.0914316925287260e+00 4.0807656605931033e+00 2.3362306222955525e+01 1 0 0
628 35 2 9.9199999999999997e-02 -4.3579639588396688e+00 3.0717382885385045e+00 2.0354685186238239e+01 1 0 0
639 36 2 9.9199999999999997e-02 -7.7097785049920056e+00 3.3942002759337053e+00 2.2678148836049509e+01 1 0 0
283 16 4 -9.9199999999999997e-02 -1.4097930103303922e+01 9.5125967584766147e-01 2.6267168913523477e+01 1 0 0
4430 235 2 9.9199999999999997e-02 -6.5607642595404023e+00 1.1473145275459640e+00 2.1105852684663216e+01 1 1 0
4444 236 1 -9.9199999999999997e-02 -1.0138102594894669e+01 4.9548063784744056e-01 2.7920817314260347e+01 1 1 0
638 36 2 9.9199999999999997e-02 -1.0646203036342644e+01 7.3191687383385844e+00 2.5901819090155360e+01 1 0 0
633 36 3 0.0000000000000000e+00 -9.3570791808262008e+00 5.6607987509779347e+00 2.5238800378588724e+01 1 0 0
4437 236 2 9.9199999999999997e-02 -1.0091711940120900e+01 1.3631414635467163e+00 2.3938645382769050e+01 1 1 0
640 36 1 -9.9199999999999997e-02 -9.8218220670638416e+00 4.6878058867200600e+00 2.7910600212522208e+01 1 0 0
641 36 4 -9.9199999999999997e-02 -8.9940971783444912e+00 4.0000047423220897e+00 2.7035504209237022e+01 1 0 0
642 36 3 0.0000000000000000e+00 -8.8018938522044543e+00 4.4692483449073821e+00 2.5670307385558434e+01 1 0 0
643 36 4 -9.9199999999999997e-02 -8.0666378311253091e+00 3.6863871515503970e+00 2.4739307388237673e+01 1 0 0
622 35 1 -9.9199999999999997e-02 -5.4205772289318759e+00 4.8003401118573290e+00 2.1020182897722080e+01 1 0 0
646 36 2 9.9199999999999997e-02 -8.5004168446221371e+00 3.1150961831895194e+00 2.7408827787650729e+01 1 0 0
647 36 2 9.9199999999999997e-02 -7.6655228820937387e+00 2.7300165128243918e+00 2.5027963416611477e+01 1 0 0
756 36 6 0.0000000000000000e+00 -9.2979840347997751e+00 4.9580686975510098e+00 2.5385637276044914e+01 1 0 0
281 16 4 -9.9199999999999997e-02 -1.3356184168755567e+01 1.4302214500897852e+00 2.3974073453445602e+01 1 0 0
4434 236 4 -9.9199999999999997e-02 -1.0217460949276177e+01 8.1184561938380928e-01 2.6566234391253754e+01 1 1 0
1047 56 2 9.9199999999999997e-02 -1.4665574301456848e+01 6.0886439457751163e+00 2.5905909836855979e+01 1 0 0
1045 56 2 9.9199999999999997e-02 -1.2652586194386981e+01 7.6534555728865374e+00 2.1993709700688186e+01 1 0 0
648 36 2 9.9199999999999997e-02 -1.0936100348379576e+01 6.4699947842962926e+00 2.8291838261916457e+01 1 0 0
4432 236 5 -9.9199999999999997e-02 -9.5556992359656796e+00 4.8552443866625294e-01 2.4289197842895945e+01 1 1 0
1039 56 2 9.9199999999999997e-02 -1.5083774903016227e+01 6.9815253215964157e+00 2.8173804779836786e+01 1 0 0
626 35 1 -9.9199999999999997e-02 -5.9326790164435081e+00 6.0961859306616981e+00 2.0711082601446353e+01 1 0 0
4448 236 2 9.9199999999999997e-02 -1.0580369896624681e+01 1.2113654020360998e+00 2.8617304878006347e+01 1 1 0
4426 235 1 -9.9199999999999997e-02 -6.0910549641572409e+00 5.2408201190215098e-01 2.0362047651051192e+01 1 1 0
276 16 2 9.9199999999999997e-02 -1.4202224211641449e+01 3.0044284147930806e+00 2.8937425430183811e+01 1 0 0
630 35 2 9.9199999999999997e-02 -6.4975497121176407e+00 6.5713316573204690e+00 2.1474081155557716e+01 1 0 0
1021 55 2 9.9199999999999997e-02 -1.0125801379977467e+01 6.2322738001536635e+00 2.0390667402373445e+01 1 0 0
637 36 2 9.9199999999999997e-02 -9.6210288811927072e+00 7.0390758497425301e+00 2.3589999674402872e+01 1 0 0
645 36 2 9.9199999999999997e-02 -1.0084143566684574e+01 4.4285703993512548e+00 2.8968629911905261e+01 1 0 0
259 15 2 9.9199999999999997e-02 -8.4670779372888845e+00 4.4653176754082411e+00 1.9842480530636234e+01 1 0 0
1017 55 1 -9.9199999999999997e-02 -9.7216092971586558e+00 6.9095027032486014e+00 1.9697907347481092e+01 1 0 0
1035 56 1 -9.9199999999999997e-02 -1.4582871487250696e+01 7.6437765166006777e+00 2.7477864947645831e+01 1 0 0
1018 55 2 9.9199999999999997e-02 -9.1056384139544750e+00 8.1665017415734447e+00 2.1384227283063492e+01 1 0 0
1496 56 6 0.0000000000000000e+00 -1.3375661096300171e+01 8.4410512022821163e+00 2.5442268796128889e+01 1 0 0
1040 56 1 -9.9199999999999997e-02 -1.2813708452039092e+01 8.0282900274221021e+00 2.2990746352142210e+01 1 0 0
1041 56 4 -9.9199999999999997e-02 -1.3471823374302117e+01 7.3045664679095710e+00 2.3949726086734355e+01 1 0 0
1407 76 2 9.9199999999999997e-02 -8.3456160672986162e+00 8.7050984618781015e+00 2.4345678440592224e+01 1 0 0
285 16 2 9.9199999999999997e-02 -1.2728717144808678e+01 2.1588536814844841e+00 2.2069778133657817e+01 1 0 0
231 13 2 9.9199999999999997e-02 -1.6136847647934392e+01 2.3541397280509595e+00 2.9377767565933819e+01 1 0 -1
1063 57 2 9.9199999999999997e-02 -8.8583168993003270e+00 7.9262296323856596e+00 2.9269231292651295e+01 1 0 -1
287 16 2 9.9199999999999997e-02 -1.4404917562260492e+01 -2.5561091249883344e-02 2.5934523059392252e+01 1 0 0
1031 56 7 -9.9199999999999997e-02 -1.4032039700651783e+01 8.8831017200098881e+00 2.7823540439794996e+01 1 0 0
979 53 3 0.0000000000000000e+00 -1.3841928486580346e-01 9.1144622799419324e+00 3.3351942490316620e+00 1 0 0
980 53 4 -9.9199999999999997e-02 5.7075634772822381e-01 1.0018812812526173e+01 2.5108781018569664e+00 1 0 0
984 53 2 9.9199999999999997e-02 1.1025643308617497e+00 1.0843786360840364e+01 2.8841013932311648e+00 1 0 0
1361 74 2 9.9199999999999997e-02 -1.3147134902280624e+00 1.3202191737744320e+01 8.5169817933939473e+00 1 0 0
990 53 1 -9.9199999999999997e-02 4.8560447635423887e-01 9.9457192309679670e+00 1.0699410887039456e+00 1 0 0
2253 93 6 0.0000000000000000e+00 -3.7214041250321062e-01 1.4262093926579420e+01 3.0009401000907565e+00 1 0 0
994 53 2 9.9199999999999997e-02 8.8886368367399249e-01 1.0750986987504282e+01 4.1612028044097593e-01 1 0 0
1741 93 1 -9.9199999999999997e-02 -1.5835547897812625e+00 1.3578086441306247e+01 4.8616371467158821e+00 1 0 0
978 53 5 -9.9199999999999997e-02 -1.7387310327540551e-01 9.3022784964190794e+00 4.7181040139394828e+00 1 0 0
983 53 2 9.9199999999999997e-02 3.5039203222693738e-01 1.0122286454934217e+01 5.1362164651682773e+00 1 0 0
1012 54 2 9.9199999999999997e-02 -2.2609710967435346e+00 9.5036082708574909e+00 7.6351287029121186e+00 1 0 0
1363 74 2 9.9199999999999997e-02 1.2162363815172359e+00 9.6266221708820101e+00 7.8409968840453921e+00 1 0 0
1745 93 2 9.9199999999999997e-02 -2.1185622660208936e+00 1.3077912785375998e+01 5.6761797826094593e+00 1 0 0
2105 113 2 9.9199999999999997e-02 5.3115408201644039e+00 1.5395991313305107e+01 1.0756173528561503e+00 1 0 0
1338 73 5 -9.9199999999999997e-02 3.6693408579952491e+00 1.2290270172507228e+01 1.6766850149459769e+00 1 0 0
1339 73 3 0.0000000000000000e+00 3.4408942206625435e+00 1.1912036408125726e+01 2.9986471765150671e+00 1 0 0
1340 73 4 -9.9199999999999997e-02 2.8221637590735029e+00 1.2795889458227323e+01 3.9132391901864843e+00 1 0 0
1341 73 1 -9.9199999999999997e-02 4.8345847962331785e+00 1.0128768935012003e+01 1.3256585783924542e+00 1 0 0
1337 73 7 -9.9199999999999997e-02 4.3440003807062979e+00 1.1351748323585861e+01 8.1456667941492089e-01 1 0 0
1343 73 2 9.9199999999999997e-02 3.2974379550699267e+00 1.3205836000015687e+01 1.2240979792515565e+00 1 0 0
1348 73 3 0.0000000000000000e+00 3.9322582719525307e+00 1.0649500711863201e+01 3.4257184114939800e+00 1 0 0
1349 73 4 -9.9199999999999997e-02 4.6443008046365772e+00 9.8097292818981554e+00 2.5960526403819024e+00 1 0 0
1513 73 6 0.0000000000000000e+00 3.6969645259705701e+00 1.1269772974298142e+01 3.2560534229035802e+00 1 0 0
1356 74 5 -9.9199999999999997e-02 -6.6423678129298658e-01 1.2336453132436462e+01 8.8379063473104384e+00 1 0 0
1354 73 2 9.9199999999999997e-02 2.1082372075320128e+00 1.3103162968090322e+01 5.9929430506310464e+00 1 0 0
1346 73 1 -9.9199999999999997e-02 3.0204964586160843e+00 1.1125623343113629e+01 5.6696782882888606e+00 1 0 0
1347 73 4 -9.9199999999999997e-02 3.6531370040035411e+00 1.0248970208068457e+01 4.7854328105484747e+00 1 0 0
1350 73 1 -9.9199999999999997e-02 2.6346510260313973e+00 1.2458455976936765e+01 5.2422443718626015e+00 1 0 0
1351 73 2 9.9199999999999997e-02 2.7806514569544603e+00 1.0827811235224511e+01 6.6412839989360819e+00 1 0 0
1352 73 2 9.9199999999999997e-02 3.9733375241609332e+00 9.3264730851710986e+00 5.2024199775185425e+00 1 0 0
1345 73 2 9.9199999999999997e-02 5.3863965488126979e+00 9.5004838623223780e+00 5.9650796507396087e-01 1 0 0
1355 74 7 -9.9199999999999997e-02 6.6818087898772305e-03 1.1499711597578287e+01 7.9682416684205570e+00 1 0 0
1359 74 1 -9.9199999999999997e-02 6.4319085028367518e-01 1.0329244043952521e+01 8.4031617976233814e+00 1 0 0
1360 74 2 9.9199999999999997e-02 -2.7981041273896778e-02 1.1841083255154162e+01 6.9201701025001929e+00 1 0 0
1747 93 4 -9.9199999999999997e-02 -6.1188466585820322e-01 1.3209529678626019e+01 1.3046718824169805e+00 1 0 0
1748 93 3 0.0000000000000000e+00 -6.7985319902667962e-01 1.3704899172182097e+01 2.6543271445025116e+00 1 0 0
1742 93 2 9.9199999999999997e-02 -9.5396147558662214e-01 1.5139371784534488e+01 6.2444814014781036e+00 1 0 0
1746 93 1 -9.9199999999999997e-02 -9.2458440684011545e-02 1.4099690067971220e+01 3.6293185291188079e-01 1 0 0
1753 93 2 9.9199999999999997e-02 -1.9962049427563298e+00 1.2127430436314734e+01 3.3165810090793642e+00 1 0 0
1749 93 4 -9.9199999999999997e-02 -1.4764156823027126e+00 1.3034845604582115e+01 3.5635294956052830e+00 1 0 0
2123 114 2 9.9199999999999997e-02 1.0815641924082451e+00 1.5145526566575317e+01 7.5563346417485571e+00 1 0 0
1344 73 2 9.9199999999999997e-02 2.5953349063575972e+00 1.3785062925972852e+01 3.5539843281124930e+00 1 0 0
1737 93 7 -9.9199999999999997e-02 -9.4756049075754278e-01 1.4731300312255740e+01 5.2447980507598491e+00 1 0 0
1740 93 4 -9.9199999999999997e-02 6.9079372271979245e-01 1.5618822424097736e+01 2.0362159249869953e+00 1 0 0