LAMMPS (15 May 2015)
Reading data file ...
  triclinic box = (-0.107635 -0.0404339 -0.357111) to (41.3876 35.9384 29.5551) with tilt (-0.0672341 -17.0362 -0.0417078)
  5 by 4 by 3 MPI processor grid
  reading atoms ...
  4560 atoms
  reading velocities ...
  4560 velocities
  scanning bonds ...
  3 = max bonds/atom
  scanning angles ...
  3 = max angles/atom
  scanning dihedrals ...
  8 = max dihedrals/atom
  scanning impropers ...
  1 = max impropers/atom
  reading bonds ...
  5040 bonds
  reading angles ...
  7200 angles
  reading dihedrals ...
  10560 dihedrals
  reading impropers ...
  2400 impropers
Finding 1-2 1-3 1-4 neighbors ...
 Special bond factors lj:   0          0          0         
 Special bond factors coul: 0          0          0         
  4 = max # of 1-2 neighbors
  8 = max # of 1-3 neighbors
  20 = max # of 1-4 neighbors
  16 = max # of special neighbors
4560 atoms in group all
720 atoms in group C
480 atoms in group S
1920 atoms in group H
720 atoms in group Si
240 atoms in group Na
240 atoms in group Ba
240 atoms in group O
4560 atoms in group naphthalene
1200 atoms in group fixed
960 atoms in group CO
Setting atom values ...
  720 settings made for charge
Setting atom values ...
  720 settings made for charge
Setting atom values ...
  1920 settings made for charge
Setting atom values ...
  480 settings made for charge
Setting atom values ...
  240 settings made for charge
Setting atom values ...
  240 settings made for charge
Setting atom values ...
  240 settings made for charge
Finding 1-2 1-3 1-4 neighbors ...
 Special bond factors lj:   0          0          0.5       
 Special bond factors coul: 0          0          0.5       
  4 = max # of 1-2 neighbors
  8 = max # of 1-3 neighbors
  20 = max # of 1-4 neighbors
  16 = max # of special neighbors
PPPM initialization ...
  G vector (1/distance) = 0.253736
  grid = 18 16 20
  stencil order = 5
  estimated absolute RMS force accuracy = 0.00125404
  estimated relative force accuracy = 3.77651e-06
  using double precision FFTs
  3d grid and FFT values/proc = 1170 112
Neighbor list info ...
  6 neighbor list requests
  update every 1 steps, delay 0 steps, check yes
  master list distance cutoff = 12
Setting up run ...
Memory usage per processor = 14.0537 Mbytes
Step Temp Density PotEng E_vdwl E_tail E_coul E_long Press Volume Xy Xz Yz E_mol E_bond E_angle E_dihed 14[1] 14[2] 14[3] msd[4] msd2[4] msd3[4] msd4[4] naphthal Cella Cellb Cellc CellAlpha CellBeta CellGamma 2 27[1] 27[2] 27[3] 
       0          298    1.2509986    3321.8467            0            0     1587.497   -1764.4833   -15967.293    44657.537 -0.067234084   -17.036218 -0.041707817     3498.833    1521.0094     935.4334    889.67826    28.379601    18.846571    14.337846 2.3535127e-29 2.3910021e-29 2.2534249e-29 2.2900766e-29          298     41.49527    35.978931    34.423473    90.016431    119.66323    90.107069 7.2177013e-23    28.379761    18.846182    14.337739 
   10000     299.8436    1.2509986    3450.8855            0            0    1587.7437   -1764.8454   -10770.615    44657.537 -0.067234084   -17.036218 -0.041707817    3627.9871    1497.2679    1016.9247    945.53862    28.380723    18.844514    14.337395 0.00031213664 0.00031190295 0.00032131149 0.00032108944     299.8436     41.49527    35.978931    34.423473    90.016431    119.66323    90.107069    936.40992     28.37929     18.84623    14.337839 
   20000    300.74366    1.2509986    3322.4337            0            0    1590.0564    -1764.866   -9812.2914    44657.537 -0.067234084   -17.036218 -0.041707817    3497.2433    1460.5189    967.37071    911.79374    28.377731    18.845529    14.336351 0.0003269336 0.00032646248 0.00032642433  0.000325666    300.74366     41.49527    35.978931    34.423473    90.016431    119.66323    90.107069    980.80079    28.379421    18.846663    14.337386 
   30000    299.20303    1.2509986    3333.1859            0            0    1592.1717   -1764.4662   -9644.6456    44657.537 -0.067234084   -17.036218 -0.041707817    3505.4803    1482.6306    996.99887    877.39465    28.377629    18.844705    14.336645 0.00033310069 0.00033235168 0.00033610368 0.00033549236    299.20303     41.49527    35.978931    34.423473    90.016431    119.66323    90.107069    999.30207    28.379226    18.845936    14.337105 
   40000    291.82869    1.2509986    3346.8476            0            0    1591.9851   -1764.7069   -7862.2659    44657.537 -0.067234084   -17.036218 -0.041707817    3519.5694    1493.3813    960.24617    906.74492    28.379979    18.845836    14.337223 0.0003226769 0.00032256733 0.00032655771 0.00032623407    291.82869     41.49527    35.978931    34.423473    90.016431    119.66323    90.107069    968.03069     28.37961    18.845893    14.337685 
   50000    300.09157    1.2509986      3384.66            0            0    1590.9477   -1764.5616   -9154.3779    44657.537 -0.067234084   -17.036218 -0.041707817    3558.2739    1468.9288    999.72956    931.31245    28.378051    18.846003    14.336965 0.00033248192 0.00033230275  0.000334504 0.0003342458    300.09157     41.49527    35.978931    34.423473    90.016431    119.66323    90.107069    997.44576    28.380063    18.846374    14.337964 
   60000     295.2344    1.2509986    3365.8009            0            0    1596.3214    -1764.349    -7412.923    44657.537 -0.067234084   -17.036218 -0.041707817    3533.8285     1498.554    995.18956    886.67918    28.379234    18.844778    14.336061 0.00032413302 0.0003235049 0.00032587281 0.00032516542     295.2344     41.49527    35.978931    34.423473    90.016431    119.66323    90.107069    972.39905    28.379471    18.846253    14.337005 
   70000    297.84165    1.2509986    3402.1129            0            0    1592.9956     -1764.56   -8959.5303    44657.537 -0.067234084   -17.036218 -0.041707817    3573.6773    1493.9836    987.43208    932.95426    28.380306    18.845239    14.338163 0.00034958882 0.00034892163 0.00035094742 0.00035030394    297.84165     41.49527    35.978931    34.423473    90.016431    119.66323    90.107069    1048.7665    28.379737    18.845552    14.338259 
   80000    301.68311    1.2509986    3326.2344            0            0    1592.7847    -1764.953   -9149.4628    44657.537 -0.067234084   -17.036218 -0.041707817    3498.4027    1472.9329    965.41446    901.03824    28.375901    18.848172    14.336406 0.00034179215 0.00034106715 0.00034373523 0.00034274996    301.68311     41.49527    35.978931    34.423473    90.016431    119.66323    90.107069    1025.3764     28.38009    18.846967    14.337703 
   90000    297.68212    1.2509986    3437.4392            0            0    1593.9637      -1764.3    -7974.118    44657.537 -0.067234084   -17.036218 -0.041707817    3607.7755    1527.8017    966.29406    954.86222    28.380658    18.844029    14.336478 0.00033234494 0.00033213192 0.00033484804 0.00033441868    297.68212     41.49527    35.978931    34.423473    90.016431    119.66323    90.107069    997.03482    28.380095    18.845869     14.33768 
  100000    296.30938    1.2509986     3429.206            0            0    1590.3204   -1764.8102    -9354.976    44657.537 -0.067234084   -17.036218 -0.041707817    3603.6958    1515.2272    984.30466    944.29238    28.378757    18.846565    14.336622 0.00032713507 0.00032707339 0.00032920323 0.00032902921    296.30938     41.49527    35.978931    34.423473    90.016431    119.66323    90.107069    981.40522    28.380002    18.846224    14.337698 
  110000    298.93674    1.2509986    3336.1315            0            0    1595.5975   -1764.3804   -8201.9703    44657.537 -0.067234084   -17.036218 -0.041707817    3504.9144    1484.7811    985.17324    881.49965    28.376287    18.845179    14.337212 0.00034320723 0.00034307251 0.00034660637 0.00034631989    298.93674     41.49527    35.978931    34.423473    90.016431    119.66323    90.107069    1029.6217    28.379647    18.845978    14.338022 
  120000    299.12226    1.2509986    3446.3047            0            0    1593.0562   -1764.4135   -9420.3795    44657.537 -0.067234084   -17.036218 -0.041707817     3617.662    1559.2567    970.56732    929.03727     28.37935    18.843775    14.337509 0.00033448013 0.00033443339 0.0003344288 0.00033404975    299.12226     41.49527    35.978931    34.423473    90.016431    119.66323    90.107069    1003.4404    28.379877    18.846233    14.337564 
  130000    302.18776    1.2509986    3344.3387            0            0    1592.5906   -1764.6473   -8516.1779    44657.537 -0.067234084   -17.036218 -0.041707817    3516.3954    1489.2167     983.0659      893.631    28.380263    18.845201    14.336736 0.0003545707 0.00035445777 0.00036738882 0.00036703251    302.18776     41.49527    35.978931    34.423473    90.016431    119.66323    90.107069    1063.7121    28.379654    18.845964    14.337971 
  140000      293.077    1.2509986     3309.578            0            0    1591.2344   -1764.2853   -9926.0335    44657.537 -0.067234084   -17.036218 -0.041707817    3482.6289    1472.7415    980.70096    875.99929    28.376739    18.846751    14.336035 0.00032734695 0.00032682218 0.00032804331 0.00032745626      293.077     41.49527    35.978931    34.423473    90.016431    119.66323    90.107069    982.04084    28.379652    18.846678    14.337222 
  150000    294.18182    1.2509986    3322.7243            0            0    1592.7506   -1764.7802   -7631.6361    44657.537 -0.067234084   -17.036218 -0.041707817    3494.7539    1477.6037     962.9869    895.60621    28.381888    18.844478    14.337147 0.00034637035 0.00034629251 0.00035330974 0.00035320983    294.18182     41.49527    35.978931    34.423473    90.016431    119.66323    90.107069    1039.1111    28.379623    18.846385    14.337872 
  160000    299.45088    1.2509986    3405.2245            0            0    1593.1785   -1764.5874   -9510.4393    44657.537 -0.067234084   -17.036218 -0.041707817    3576.6335    1513.1406    1000.4945    904.50532    28.380029    18.844804    14.338022 0.00035709396 0.00035650356 0.00036093267 0.00036006794    299.45088     41.49527    35.978931    34.423473    90.016431    119.66323    90.107069    1071.2819    28.379135    18.845932    14.338109 
  170000    302.34961    1.2509986    3347.4225            0            0     1591.517   -1764.4418   -7826.2315    44657.537 -0.067234084   -17.036218 -0.041707817    3520.3473    1453.8575     964.5922    939.44736    28.380346    18.845268    14.336567 0.00034377965 0.00034318804 0.00034899303 0.00034857113    302.34961     41.49527    35.978931    34.423473    90.016431    119.66323    90.107069    1031.3389    28.380449     18.84606    14.337418 
  180000    292.74444    1.2509986    3343.9541            0            0    1589.0902   -1765.0409   -9552.3531    44657.537 -0.067234084   -17.036218 -0.041707817    3519.9048    1469.8361    1003.9849    887.92281    28.378333    18.845837    14.336051 0.00034334773 0.00034306279 0.00034775455 0.00034751533    292.74444     41.49527    35.978931    34.423473    90.016431    119.66323    90.107069    1030.0432    28.380139    18.846482    14.337967 
  190000    291.83575    1.2509986    3362.7854            0            0     1589.794   -1764.9999   -10090.716    44657.537 -0.067234084   -17.036218 -0.041707817    3537.9913    1490.8288    960.57681    927.94932    28.378896    18.844534    14.337669 0.00034248503 0.00034165231 0.00034819172 0.00034743155    291.83575     41.49527    35.978931    34.423473    90.016431    119.66323    90.107069    1027.4551    28.379254    18.845428    14.337655 
  200000    298.30589    1.2509986    3309.7259            0            0     1592.861   -1764.8045   -7039.5993    44657.537 -0.067234084   -17.036218 -0.041707817    3481.6694    1474.2351    978.62496    874.72601     28.38075    18.846845    14.338148 0.00035455577 0.00035375715 0.00035724115 0.00035601155    298.30589     41.49527    35.978931    34.423473    90.016431    119.66323    90.107069    1063.6673    28.379358    18.846946    14.337968 
  210000    298.47625    1.2509986     3451.146            0            0    1595.6912      -1763.8   -7184.5172    44657.537 -0.067234084   -17.036218 -0.041707817    3619.2547    1538.6177     1007.692    915.64212    28.380198      18.8466    14.338037 0.00034480159 0.0003441339 0.00035502494 0.0003541743    298.47625     41.49527    35.978931    34.423473    90.016431    119.66323    90.107069    1034.4048    28.379968    18.846935    14.337498 
  220000    300.26815    1.2509986    3402.2519            0            0    1591.6207      -1764.6   -9301.5589    44657.537 -0.067234084   -17.036218 -0.041707817    3575.2311    1542.6031    985.73797    893.87792    28.378647    18.846482    14.335903 0.00036001727 0.00035900385 0.00036394045 0.00036355402    300.26815     41.49527    35.978931    34.423473    90.016431    119.66323    90.107069    1080.0518    28.379364    18.845555    14.337058 
  230000      298.834    1.2509986    3303.4378            0            0     1589.444   -1764.6772   -8899.6883    44657.537 -0.067234084   -17.036218 -0.041707817     3478.671    1493.5686    974.69741    865.68632    28.378828    18.847206    14.337057 0.00033117881 0.00033054735 0.00033832158 0.00033763479      298.834     41.49527    35.978931    34.423473    90.016431    119.66323    90.107069    993.53643    28.379565    18.846791     14.33821 
  240000    298.55068    1.2509986    3349.3046            0            0    1594.1447    -1764.563   -9033.8128    44657.537 -0.067234084   -17.036218 -0.041707817    3519.7229    1474.2539    1028.9599    867.84796    28.379197    18.845996    14.337269 0.00034813744 0.00034796964 0.00035459847 0.00035457539    298.55068     41.49527    35.978931    34.423473    90.016431    119.66323    90.107069    1044.4123    28.379791    18.846587    14.337791 
  250000    303.64054    1.2509986    3353.0446            0            0    1589.2261   -1765.0018   -8706.9124    44657.537 -0.067234084   -17.036218 -0.041707817    3528.8203    1494.0715     990.2797    889.50751    28.381293    18.844297     14.33835 0.00035163865 0.00035115451 0.00035371866 0.00035307885    303.64054     41.49527    35.978931    34.423473    90.016431    119.66323    90.107069     1054.916    28.379953    18.845862    14.338326 
  260000    294.65383    1.2509986    3353.1758            0            0    1593.2276   -1764.3659   -9194.8075    44657.537 -0.067234084   -17.036218 -0.041707817    3524.3141    1475.3123    992.18773     900.8339    28.380692    18.845297    14.337614 0.00033720212 0.00033698365 0.00033641875 0.00033603719    294.65383     41.49527    35.978931    34.423473    90.016431    119.66323    90.107069    1011.6064    28.380137    18.845965    14.337912 
  270000    300.70715    1.2509986    3355.0955            0            0    1591.0487   -1764.7213   -9495.4204    44657.537 -0.067234084   -17.036218 -0.041707817     3528.768    1495.2057    994.78474     887.6015    28.379725    18.845169     14.33789 0.00035623615 0.00035618887   0.00035963 0.00035957485    300.70715     41.49527    35.978931    34.423473    90.016431    119.66323    90.107069    1068.7084    28.379973    18.846163    14.337697 
  280000    300.14037    1.2509986    3304.9026            0            0    1590.3484   -1764.6434   -8823.2742    44657.537 -0.067234084   -17.036218 -0.041707817    3479.1976    1486.4811    961.10655     876.2712    28.380119    18.844215    14.337117 0.00035600679 0.00035599831 0.00035982877 0.00035974553    300.14037     41.49527    35.978931    34.423473    90.016431    119.66323    90.107069    1068.0204    28.379681    18.846144    14.337765 
  290000    302.45134    1.2509986    3315.1488            0            0     1593.721   -1764.6739   -8250.0986    44657.537 -0.067234084   -17.036218 -0.041707817    3486.1016    1490.6946    973.22418    873.51852    28.380489    18.845945    14.337253 0.00035590199 0.00035559707 0.00036322795 0.00036278071    302.45134     41.49527    35.978931    34.423473    90.016431    119.66323    90.107069     1067.706    28.379887    18.846634     14.33803 
  300000    297.81648    1.2509986    3340.0004            0            0     1590.675   -1764.8235   -9218.1511    44657.537 -0.067234084   -17.036218 -0.041707817    3514.1488    1514.4976    974.86878    872.95783    28.379113    18.845633    14.336709 0.00034417155 0.00034398096 0.00034608094 0.00034556298    297.81648     41.49527    35.978931    34.423473    90.016431    119.66323    90.107069    1032.5147    28.379784    18.846378     14.33735 
  310000    297.19718    1.2509986    3371.5813            0            0    1592.5118   -1764.4558   -8887.3008    44657.537 -0.067234084   -17.036218 -0.041707817    3543.5253     1534.923    947.72735    902.75354    28.378924    18.845471    14.336849 0.0003538391 0.00035377582 0.00035490477 0.00035484605    297.19718     41.49527    35.978931    34.423473    90.016431    119.66323    90.107069    1061.5173    28.379934    18.846036     14.33763 
  320000    299.68645    1.2509986    3336.1395            0            0    1590.7268   -1764.9451   -8819.6502    44657.537 -0.067234084   -17.036218 -0.041707817    3510.3579    1491.8174    960.83326    900.16731    28.377899    18.847005    14.336431 0.00034831595 0.00034784021 0.00034469716 0.00034403583    299.68645     41.49527    35.978931    34.423473    90.016431    119.66323    90.107069    1044.9478     28.37953    18.846119    14.337092 
  330000    300.42444    1.2509986    3353.2448            0            0    1594.0245   -1764.5322   -10217.815    44657.537 -0.067234084   -17.036218 -0.041707817    3523.7524    1519.3079     968.6036    885.92433    28.378179    18.846929    14.337468 0.00034670937 0.00034649179 0.00034698394 0.00034687488    300.42444     41.49527    35.978931    34.423473    90.016431    119.66323    90.107069    1040.1281    28.379867    18.846635    14.337777 
  340000    291.02711    1.2509986    3332.0354            0            0    1591.2194    -1764.542   -8321.3639    44657.537 -0.067234084   -17.036218 -0.041707817    3505.3579    1439.9458    1003.8074    908.31179    28.382105    18.843462    14.338133 0.0003597146 0.00035889416 0.00036532918 0.00036480669    291.02711     41.49527    35.978931    34.423473    90.016431    119.66323    90.107069    1079.1438    28.380551     18.84574    14.337719 
  350000    301.07003    1.2509986    3290.4076            0            0    1590.7458   -1764.8501   -8498.1178    44657.537 -0.067234084   -17.036218 -0.041707817    3464.5119    1472.2293    964.56511    880.92671    28.378083     18.84536     14.33693 0.0003457458 0.00034562279 0.0003524593 0.00035243272    301.07003     41.49527    35.978931    34.423473    90.016431    119.66323    90.107069    1037.2374    28.379443     18.84623    14.337879 
  360000    292.69794    1.2509986    3361.9615            0            0    1588.3417   -1764.9622   -9867.4737    44657.537 -0.067234084   -17.036218 -0.041707817     3538.582    1482.8178    983.58215     914.2381    28.379071    18.845523    14.336404 0.00035573315 0.00035521702 0.00036780295 0.00036699081    292.69794     41.49527    35.978931    34.423473    90.016431    119.66323    90.107069    1067.1995    28.379275    18.846575    14.337384 
  370000    297.06212    1.2509986    3362.1134            0            0    1590.6918   -1764.6222   -8172.9082    44657.537 -0.067234084   -17.036218 -0.041707817    3536.0438    1482.4563    991.82476    905.44554     28.38243    18.845872    14.338591 0.00035957351 0.00035934574 0.00035817885 0.00035814195    297.06212     41.49527    35.978931    34.423473    90.016431    119.66323    90.107069    1078.7205    28.379535    18.845762    14.337732 
  380000    298.63619    1.2509986    3378.4202            0            0    1590.7895   -1764.9191   -9028.4409    44657.537 -0.067234084   -17.036218 -0.041707817    3552.5498    1504.8187    997.65499    895.69855     28.37798    18.845892    14.337137 0.00037105723  0.000370751 0.00036870686 0.00036844529    298.63619     41.49527    35.978931    34.423473    90.016431    119.66323    90.107069    1113.1717    28.379441     18.84604    14.338167 
  390000    299.55585    1.2509986    3309.3633            0            0    1592.7051   -1764.2861   -8796.6875    44657.537 -0.067234084   -17.036218 -0.041707817    3480.9443    1479.2211    971.93486    877.92495    28.378774    18.845837    14.336689 0.00035431454 0.00035303105 0.00036400224 0.00036255226    299.55585     41.49527    35.978931    34.423473    90.016431    119.66323    90.107069    1062.9436    28.379363    18.846897    14.336955 
  400000    298.83722    1.2509986    3331.9288            0            0    1591.3859   -1764.4375   -8294.3429    44657.537 -0.067234084   -17.036218 -0.041707817    3504.9804    1507.0304    956.57093    891.22201    28.378332    18.846118    14.338262 0.00036625549 0.00036589575 0.00036395474 0.00036319057    298.83722     41.49527    35.978931    34.423473    90.016431    119.66323    90.107069    1098.7665    28.379574    18.846527    14.338193 
  410000    300.93327    1.2509986    3310.3038            0            0    1592.2061   -1764.7353   -8460.7208    44657.537 -0.067234084   -17.036218 -0.041707817     3482.833    1459.2488    945.89759    924.87692    28.380852    18.846486    14.338428 0.00034856322 0.00034842237 0.00034772955 0.0003475717    300.93327     41.49527    35.978931    34.423473    90.016431    119.66323    90.107069    1045.6897    28.379535     18.84608    14.338021 
  420000    293.17052    1.2509986     3379.149            0            0    1591.4281   -1764.5093   -9860.3568    44657.537 -0.067234084   -17.036218 -0.041707817    3552.2302    1509.3853    987.21392    901.41886    28.378744    18.844771    14.337869 0.0003602305 0.00036006264 0.00036180888 0.00036171445    293.17052     41.49527    35.978931    34.423473    90.016431    119.66323    90.107069    1080.6915     28.37954    18.846032     14.33805 
  430000    302.22887    1.2509986    3263.9652            0            0    1591.1342   -1764.9327   -8043.4627    44657.537 -0.067234084   -17.036218 -0.041707817    3437.7637    1441.2803    949.15987     891.6621    28.380541    18.845836    14.337264 0.00035386374 0.00035378567 0.00035908904 0.00035903202    302.22887     41.49527    35.978931    34.423473    90.016431    119.66323    90.107069    1061.5912    28.379595    18.846128    14.337521 
  440000    297.41206    1.2509986    3420.0173            0            0    1592.5762   -1764.2899   -10010.889    44657.537 -0.067234084   -17.036218 -0.041707817    3591.7311     1549.175    961.02592    924.77948    28.381251    18.845857    14.338217 0.00036670441 0.00036626825 0.0003664527 0.00036591408    297.41206     41.49527    35.978931    34.423473    90.016431    119.66323    90.107069    1100.1132    28.380152    18.846686    14.337909 
  450000    295.79948    1.2509986    3381.7306            0            0    1592.2661    -1764.614   -10099.382    44657.537 -0.067234084   -17.036218 -0.041707817    3554.0786    1503.3232    980.53601    913.25644    28.381422    18.844928    14.337756 0.00034865606 0.00034812583 0.00034793359 0.00034736805    295.79948     41.49527    35.978931    34.423473    90.016431    119.66323    90.107069    1045.9682    28.379446    18.845815    14.337194 
  460000    295.77625    1.2509986     3278.016            0            0    1590.4779   -1764.7084   -8415.0271    44657.537 -0.067234084   -17.036218 -0.041707817    3452.2465    1453.5986    943.11225    899.14318    28.380419    18.844387    14.338281 0.00035470648 0.00035411211 0.00036008523 0.00035939541    295.77625     41.49527    35.978931    34.423473    90.016431    119.66323    90.107069    1064.1195     28.37961    18.845742    14.338354 
  470000    297.87495    1.2509986    3366.6093            0            0    1590.2619   -1764.8557   -9674.6718    44657.537 -0.067234084   -17.036218 -0.041707817    3541.2031    1532.9094    960.17467      894.497    28.380429    18.845801    14.336802 0.0003562829 0.00035608484 0.00035274157 0.00035230364    297.87495     41.49527    35.978931    34.423473    90.016431    119.66323    90.107069    1068.8487    28.379695    18.846096    14.337307 
  480000    298.53386    1.2509986    3381.0617            0            0    1590.2934   -1764.7812   -10182.808    44657.537 -0.067234084   -17.036218 -0.041707817    3555.5495    1513.2083    982.75112     902.2548    28.379696    18.844964     14.33584 0.0003519408 0.00035120117 0.00035776747 0.00035613697    298.53386     41.49527    35.978931    34.423473    90.016431    119.66323    90.107069    1055.8224    28.380244    18.846572    14.337144 
  490000    293.89194    1.2509986    3358.9217            0            0    1592.1283   -1764.6876   -8515.7954    44657.537 -0.067234084   -17.036218 -0.041707817     3531.481    1518.1484      985.807    876.67083     28.38166    18.845285     14.33766 0.00035566471 0.00035551454 0.00035149255 0.00035143942    293.89194     41.49527    35.978931    34.423473    90.016431    119.66323    90.107069    1066.9941     28.37969    18.845828    14.337598 
  500000    302.10106    1.2509986    3328.5957            0            0    1592.5442     -1764.83   -9727.7494    44657.537 -0.067234084   -17.036218 -0.041707817    3500.8815    1509.4498    971.73416    873.54393    28.377476    18.846095    14.336385 0.00036638928 0.00036582809 0.00037292776 0.00037217211    302.10106     41.49527    35.978931    34.423473    90.016431    119.66323    90.107069    1099.1678    28.379378    18.845555    14.337592 
  510000    297.88554    1.2509986    3392.0352            0            0    1591.1161   -1764.7226    -8857.471    44657.537 -0.067234084   -17.036218 -0.041707817    3565.6417    1514.3881    964.61005     926.5592    28.380608    18.845997    14.339012 0.00035978029 0.00035905696 0.00035917687 0.00035855499    297.88554     41.49527    35.978931    34.423473    90.016431    119.66323    90.107069    1079.3409    28.379057    18.846439    14.338142 
  520000     297.7158    1.2509986    3379.5052            0            0    1593.0342   -1764.4001   -7131.8275    44657.537 -0.067234084   -17.036218 -0.041707817    3550.8711    1481.9039    979.00643    928.22739    28.378959    18.844754    14.335657 0.00036333552 0.00036304672 0.00036781212 0.0003672647     297.7158     41.49527    35.978931    34.423473    90.016431    119.66323    90.107069    1090.0066    28.379781    18.846505     14.33731 
  530000    293.31428    1.2509986    3306.3386            0            0    1592.1644   -1764.8122   -10205.616    44657.537 -0.067234084   -17.036218 -0.041707817    3478.9865    1483.2604    944.82006    893.67067    28.376043    18.846619    14.337024 0.00035330895 0.00035307186 0.00034797758 0.0003478757    293.31428     41.49527    35.978931    34.423473    90.016431    119.66323    90.107069    1059.9268    28.379497    18.846282    14.338136 
  540000    292.57691    1.2509986    3347.4579            0            0    1589.7313   -1764.7246   -9680.8041    44657.537 -0.067234084   -17.036218 -0.041707817    3522.4512    1481.2899    974.55541    913.45409    28.377955    18.843269    14.336785 0.00036867155 0.00036828827 0.00037160782 0.00037110157    292.57691     41.49527    35.978931    34.423473    90.016431    119.66323    90.107069    1106.0147    28.379481    18.845726     14.33805 
  550000    294.77816    1.2509986    3303.7582            0            0    1592.6364   -1764.6918   -6505.2017    44657.537 -0.067234084   -17.036218 -0.041707817    3475.8136    1475.7535     963.4639    885.15745     28.37961     18.84494    14.337494 0.00035647184 0.00035609489 0.00035875346 0.00035828832    294.77816     41.49527    35.978931    34.423473    90.016431    119.66323    90.107069    1069.4155    28.379378    18.846656    14.337664 
  560000    305.31391    1.2509986    3315.7768            0            0     1592.148    -1764.609   -7408.6687    44657.537 -0.067234084   -17.036218 -0.041707817    3488.2378    1488.2496    935.09627    909.07085    28.381026    18.846675    14.337526 0.00035334788 0.00035311371 0.00035123719 0.00035089165    305.31391     41.49527    35.978931    34.423473    90.016431    119.66323    90.107069    1060.0437    28.379729    18.846623    14.337936 
  570000    298.35119    1.2509986    3347.2604            0            0    1589.1751   -1764.7913   -9947.2862    44657.537 -0.067234084   -17.036218 -0.041707817    3522.8766    1508.9336    984.72514    873.81569    28.381649    18.845132    14.337315 0.00036134622 0.0003607195 0.00036063528 0.00036045963    298.35119     41.49527    35.978931    34.423473    90.016431    119.66323    90.107069    1084.0387    28.380351    18.846425    14.337271 
  580000    297.72899    1.2509986    3265.7733            0            0    1590.5198   -1764.8761   -7244.7585    44657.537 -0.067234084   -17.036218 -0.041707817    3440.1296    1448.7839    938.03248    901.97565    28.379484    18.845493    14.337684 0.00035588604 0.00035527731 0.00036067517 0.00035992944    297.72899     41.49527    35.978931    34.423473    90.016431    119.66323    90.107069    1067.6581    28.380534    18.846174    14.337841 
  590000    295.82753    1.2509986    3272.2169            0            0    1592.1116   -1764.5611    -9609.466    44657.537 -0.067234084   -17.036218 -0.041707817    3444.6664    1450.7279    953.01838    884.66697    28.380824    18.844716    14.337193 0.0003579214 0.00035759749 0.00035241073 0.00035205409    295.82753     41.49527    35.978931    34.423473    90.016431    119.66323    90.107069    1073.7642    28.379863    18.846521    14.337294 
  600000    293.86288    1.2509986    3322.3526            0            0    1590.9457   -1764.6934   -9317.5988    44657.537 -0.067234084   -17.036218 -0.041707817    3496.1003    1495.1142    950.92482    895.15947    28.378948    18.846402    14.337099 0.00035764621 0.00035734445 0.00036079866 0.00036029093    293.86288     41.49527    35.978931    34.423473    90.016431    119.66323    90.107069    1072.9386    28.380078    18.846155    14.338187 
  610000    293.23671    1.2509986    3290.4046            0            0    1588.1367   -1765.0354   -9324.9617    44657.537 -0.067234084   -17.036218 -0.041707817    3467.3033    1450.2705    936.56928    920.10351    28.380608    18.845295    14.337381 0.00034415298 0.00034408251 0.00034248556 0.00034219209    293.23671     41.49527    35.978931    34.423473    90.016431    119.66323    90.107069    1032.4589    28.379517    18.846285    14.337757 
  620000    296.78718    1.2509986    3395.5929            0            0    1589.7942   -1764.7865   -9276.3121    44657.537 -0.067234084   -17.036218 -0.041707817    3570.5851    1467.7256    982.94514     952.9989    28.378978    18.845748    14.336615 0.00035492553 0.00035456813 0.00035644217 0.00035607436    296.78718     41.49527    35.978931    34.423473    90.016431    119.66323    90.107069    1064.7766    28.379697    18.846472     14.33722 
  630000     300.6841    1.2509986    3315.7731            0            0    1591.5436   -1764.6375   -7841.3161    44657.537 -0.067234084   -17.036218 -0.041707817     3488.867    1483.7823    958.96458    894.03122    28.378794    18.845559    14.336387 0.00035379578 0.00035358811 0.00035579907 0.00035554869     300.6841     41.49527    35.978931    34.423473    90.016431    119.66323    90.107069    1061.3873    28.379926    18.846293    14.337329 
  640000     293.9605    1.2509986    3349.1336            0            0    1590.2378   -1764.8612   -8105.1888    44657.537 -0.067234084   -17.036218 -0.041707817    3523.7569    1498.7412    961.07817    905.20053    28.378439    18.845073    14.337556 0.00036700462 0.00036651178 0.00036122307 0.00036090961     293.9605     41.49527    35.978931    34.423473    90.016431    119.66323    90.107069    1101.0139    28.379783    18.845514    14.337954 
  650000    294.82506    1.2509986    3337.6056            0            0    1590.3363   -1765.0623    -9387.456    44657.537 -0.067234084   -17.036218 -0.041707817    3512.3316    1498.6125    971.28916    884.58621    28.380435    18.845016    14.337713 0.00036062057 0.00036047483 0.00035595169 0.00035561686    294.82506     41.49527    35.978931    34.423473    90.016431    119.66323    90.107069    1081.8617    28.380042    18.846428     14.33766 
  660000    295.74424    1.2509986    3288.2378            0            0     1595.781   -1764.5354   -9268.1933    44657.537 -0.067234084   -17.036218 -0.041707817    3456.9923    1467.2964    961.90805    875.37225    28.376616    18.844939      14.3364 0.00035222164 0.00035203848 0.00035423798 0.00035405163    295.74424     41.49527    35.978931    34.423473    90.016431    119.66323    90.107069    1056.6649     28.37966     18.84577    14.337684 
  670000    291.44305    1.2509986    3359.8247            0            0    1591.3725   -1764.6653   -8280.0485    44657.537 -0.067234084   -17.036218 -0.041707817    3533.1175    1492.2418    982.70539    900.19108    28.381005    18.845471    14.337619 0.00035079902 0.00035061334 0.00034697298 0.00034680891    291.44305     41.49527    35.978931    34.423473    90.016431    119.66323    90.107069    1052.3971    28.380069    18.846477    14.337798 
  680000    301.61876    1.2509986    3409.2104            0            0    1592.0371   -1764.7576    -9116.023    44657.537 -0.067234084   -17.036218 -0.041707817     3581.931    1511.8625    1007.9433    907.53779    28.380105    18.846041    14.336688 0.00035847465 0.00035814894 0.00035858803 0.00035746734    301.61876     41.49527    35.978931    34.423473    90.016431    119.66323    90.107069    1075.4239    28.379931    18.846354    14.337222 
  690000    294.45054    1.2509986     3262.891            0            0    1592.4541    -1764.783    -8828.461    44657.537 -0.067234084   -17.036218 -0.041707817    3435.2199    1427.2917    970.76809    885.26006     28.37913    18.847123    14.337984 0.00035325934 0.00035307301 0.0003548624 0.00035467862    294.45054     41.49527    35.978931    34.423473    90.016431    119.66323    90.107069     1059.778    28.379614    18.846076    14.338131 
  700000    299.04678    1.2509986    3268.5262            0            0    1591.0585   -1764.7083   -9739.6012    44657.537 -0.067234084   -17.036218 -0.041707817     3442.176    1449.4946    953.33837    884.36689    28.379039    18.846611    14.337799 0.00035463694 0.00035453067 0.00034871009 0.00034830198    299.04678     41.49527    35.978931    34.423473    90.016431    119.66323    90.107069    1063.9108     28.37964    18.846451    14.337878 
  710000    295.22919    1.2509986    3286.0692            0            0    1591.7897   -1764.5534   -8880.5406    44657.537 -0.067234084   -17.036218 -0.041707817     3458.833    1467.7052    956.76355    885.92448    28.379668    18.846452    14.337455 0.00037226383 0.00037221317 0.00036303735 0.00036290862    295.22919     41.49527    35.978931    34.423473    90.016431    119.66323    90.107069    1116.7915    28.379547    18.846111    14.337733 
  720000    298.17726    1.2509986    3284.2935            0            0    1591.8525   -1764.7599   -6810.7703    44657.537 -0.067234084   -17.036218 -0.041707817    3457.2008    1455.5975    952.94246    893.77477    28.379268     18.84737    14.337129 0.00034468436 0.00034444603 0.00033437176 0.00033408751    298.17726     41.49527    35.978931    34.423473    90.016431    119.66323    90.107069    1034.0531    28.379844    18.845786    14.337466 
  730000    299.42324    1.2509986    3372.6123            0            0    1591.9609   -1764.7841   -10403.705    44657.537 -0.067234084   -17.036218 -0.041707817    3545.4355    1508.1868    976.55929    908.27413    28.379198     18.84521    14.338039 0.00035265615 0.0003526471 0.00034745224 0.0003473776    299.42324     41.49527    35.978931    34.423473    90.016431    119.66323    90.107069    1057.9685    28.379784    18.846142    14.337656 
  740000     297.1213    1.2509986    3353.3408            0            0    1591.5154   -1764.7429   -8654.8539    44657.537 -0.067234084   -17.036218 -0.041707817    3526.5683    1489.5354    971.74652    903.90771    28.378862    18.846486    14.337597 0.00035354628 0.00035328449 0.00035034466 0.00035001347     297.1213     41.49527    35.978931    34.423473    90.016431    119.66323    90.107069    1060.6388    28.379317    18.845948    14.337841 
  750000    305.15251    1.2509986    3310.4699            0            0    1589.2357   -1765.0446   -7650.7773    44657.537 -0.067234084   -17.036218 -0.041707817    3486.2788    1464.1781     982.2586    885.52214    28.378499     18.84647    14.335837 0.00036579485 0.00036515498 0.00036527314 0.00036441119    305.15251     41.49527    35.978931    34.423473    90.016431    119.66323    90.107069    1097.3845    28.379215    18.846045     14.33717 
  760000    301.38867    1.2509986    3269.9676            0            0    1592.4929   -1764.8001   -9397.8643    44657.537 -0.067234084   -17.036218 -0.041707817    3442.2748    1468.4297    961.86753    864.20302    28.378292     18.84563    14.336226 0.00036531394 0.00036478805 0.00036204845 0.00036153627    301.38867     41.49527    35.978931    34.423473    90.016431    119.66323    90.107069    1095.9418    28.379592    18.846182    14.337034 
  770000     298.1527    1.2509986    3305.6684            0            0    1591.0446   -1764.6027   -8154.3507    44657.537 -0.067234084   -17.036218 -0.041707817    3479.2265    1458.4641    968.85972    895.05633    28.380303    18.845904    14.337864 0.00034270361 0.0003425693 0.00034685435 0.00034664064     298.1527     41.49527    35.978931    34.423473    90.016431    119.66323    90.107069    1028.1108    28.380031    18.846317    14.337947 
  780000    297.90999    1.2509986    3340.0387            0            0    1590.5235   -1764.8177   -8395.5571    44657.537 -0.067234084   -17.036218 -0.041707817    3514.3329    1481.6138    969.40957    902.82676    28.380922    18.845225    14.338077 0.0003557174 0.00035520149 0.00035850314 0.00035790332    297.90999     41.49527    35.978931    34.423473    90.016431    119.66323    90.107069    1067.1522    28.380411    18.846475    14.337826 
  790000    297.43274    1.2509986      3318.03            0            0    1594.7605   -1764.8003   -8376.6466    44657.537 -0.067234084   -17.036218 -0.041707817    3488.0698    1464.7115    959.75315    904.49568    28.379034    18.847398    14.337485 0.00036007061 0.00035980054 0.00035668917 0.00035633702    297.43274     41.49527    35.978931    34.423473    90.016431    119.66323    90.107069    1080.2118    28.379599    18.846341    14.338207 
  800000    291.40868    1.2509986    3364.5649            0            0    1592.7018   -1764.7659   -7987.8887    44657.537 -0.067234084   -17.036218 -0.041707817     3536.629    1467.9403    983.22696    927.54628    28.378745    18.845822    14.337243 0.00035884519 0.00035875561 0.00035496593 0.00035466496    291.40868     41.49527    35.978931    34.423473    90.016431    119.66323    90.107069    1076.5356    28.379907    18.846238    14.337484 
Loop time of 2462.99 on 60 procs for 800000 steps with 4560 atoms

Pair  time (%) = 438.096 (17.7872)
Bond  time (%) = 47.4444 (1.92629)
Kspce time (%) = 1304.84 (52.9778)
Neigh time (%) = 12.9847 (0.527194)
Comm  time (%) = 472.372 (19.1788)
Outpt time (%) = 0.510965 (0.0207457)
Other time (%) = 186.743 (7.58197)

Nlocal:    76 ave 85 max 69 min
Histogram: 3 8 7 12 4 10 9 1 5 1
Nghost:    3991.13 ave 4082 max 3888 min
Histogram: 7 7 5 1 0 5 10 14 8 3
Neighs:    28106.1 ave 31650 max 25275 min
Histogram: 2 4 17 5 9 7 6 8 1 1

Total # of neighbors = 1686365
Ave neighs/atom = 369.817
Ave special neighs/atom = 10.6316
Neighbor list builds = 5825
Dangerous builds = 0
System init for write_data ...
PPPM initialization ...
  G vector (1/distance) = 0.253736
  grid = 18 16 20
  stencil order = 5
  estimated absolute RMS force accuracy = 0.00125404
  estimated relative force accuracy = 3.77651e-06
  using double precision FFTs
  3d grid and FFT values/proc = 1170 112
