 initial data file for t-butyl peroxyl dimer
 
     30  atoms
     28  bonds
     50  angles
     60 dihedrals

    4 atom types
    4 bond types
    5 angle types
    3 dihedral types
 -50.0 50.0 xlo xhi
 -50.0 50.0 ylo yhi
 -50.0 50.0 zlo zhi
  
 Masses

       1     12.011  
       2     15.999  
       3     15.999  
       4      1.008  

Pair Coeffs 

       1      0.066  3.5000000 
       2      0.140  2.9000000 
       3      0.140  2.9000000 
       4      0.030  2.5000000 

Bond Coeffs 

       1   268.0000     1.5290 
       2   320.0000     1.4100 
       3   469.2840     1.3226 
       4   340.0000     1.0900 

Angle Coeffs 

       1     58.350    112.700
       2     50.000    109.500
       3     85.022    110.040
       4     37.500    110.700
       5     33.000    107.800

Dihedral Coeffs  

       1      0.650     -0.250      0.670      0.000 
       2      0.000      0.000      0.300      0.000 
       3      0.000      0.000      0.468      0.000 

Atoms 

   1  1  1    -0.2571     0.4356    -1.5439     0.0190
   2  1  1     0.1888    -0.2768    -0.2017     0.2142
   3  1  1    -0.2546    -1.3413     0.0259    -0.8645
   4  1  1    -0.2406    -0.9429    -0.1797     1.5950
   5  1  2   -0.15100    0.67254    0.88013    0.21964
   6  1  3   -0.14500    1.31388    0.91194   -1.08806
   7  1  4     0.0944    -0.2650    -2.3849     0.0973
   8  1  4     0.0944     1.2233    -1.6777     0.7688
   9  1  4     0.0944     0.9217    -1.5999    -0.9612
  10  1  4     0.0953    -2.1193    -0.7440    -0.8275
  11  1  4     0.0953    -0.9037     0.0116    -1.8690
  12  1  4     0.0953    -1.8147     1.0053    -0.7404
  13  1  4     0.0968    -1.6905    -0.9728     1.6983
  14  1  4     0.0968    -1.4333     0.7838     1.7742
  15  1  4     0.0968    -0.1970    -0.3022     2.3891
  16  2  1    -0.2571    36.3021    -0.8664    -0.3571
  17  2  1     0.1888    34.9816    -0.0905    -0.3933
  18  2  1    -0.2546    35.2065     1.3738    -0.7856
  19  2  1    -0.2406    34.0378    -0.7469    -1.4077
  20  2  2   -0.15100   34.31019   -0.17293    0.87718
  21  2  3   -0.14500   35.16433    0.46415    1.87065
  22  2  4     0.0944    36.7842    -0.8836    -1.3428
  23  2  4     0.0944    36.1360    -1.9001    -0.0342
  24  2  4     0.0944    37.0068    -0.4237     0.3553
  25  2  4     0.0953    35.6404     1.4573    -1.7878
  26  2  4     0.0953    35.8823     1.8773    -0.0853
  27  2  4     0.0953    34.2628     1.9286    -0.7676
  28  2  4     0.0968    34.4581    -0.7382    -2.4186
  29  2  4     0.0968    33.0716    -0.2302    -1.4300
  30  2  4     0.0968    33.8289    -1.7864    -1.1292

Bonds 

     1      1      2      1
     2      1      3      2
     3      1      4      2
     4      2      5      2
     5      3      6      5
     6      4      7      1
     7      4      8      1
     8      4      9      1
     9      4     10      3
    10      4     11      3
    11      4     12      3
    12      4     13      4
    13      4     14      4
    14      4     15      4
    15      1     17     16
    16      1     18     17
    17      1     19     17
    18      2     20     17
    19      3     21     20
    20      4     22     16
    21      4     23     16
    22      4     24     16
    23      4     25     18
    24      4     26     18
    25      4     27     18
    26      4     28     19
    27      4     29     19
    28      4     30     19

Angles 

     1      1      1      2      3
     2      1      1      2      4
     3      2      1      2      5
     4      3      2      5      6
     5      4      2      1      7
     6      4      2      1      8
     7      4      2      1      9
     8      4      2      3     10
     9      4      2      3     11
    10      4      2      3     12
    11      4      2      4     13
    12      4      2      4     14
    13      4      2      4     15
    14      5     10      3     12
    15      5     13      4     14
    16      5     10      3     11
    17      5     11      3     12
    18      5     14      4     15
    19      1      3      2      4
    20      2      3      2      5
    21      2      4      2      5
    22      5      8      1      9
    23      5      7      1      9
    24      5     13      4     15
    25      5      7      1      8
    26      1     16     17     18
    27      1     16     17     19
    28      2     16     17     20
    29      3     17     20     21
    30      4     17     16     22
    31      4     17     16     23
    32      4     17     16     24
    33      4     17     18     25
    34      4     17     18     26
    35      4     17     18     27
    36      4     17     19     28
    37      4     17     19     29
    38      4     17     19     30
    39      5     25     18     27
    40      5     28     19     29
    41      5     25     18     26
    42      5     26     18     27
    43      5     29     19     30
    44      1     18     17     19
    45      2     18     17     20
    46      2     19     17     20
    47      5     23     16     24
    48      5     22     16     24
    49      5     28     19     30
    50      5     22     16     23

Dihedrals

     1      1      6      5      2      1 
     2      2      7      1      2      3 
     3      2     10      3      2      1 
     4      2     13      4      2      1 
     5      2     11      3      2      1 
     6      3      9      1      2      5 
     7      2      8      1      2      3 
     8      3      7      1      2      5 
     9      2      9      1      2      3 
    10      2      8      1      2      4 
    11      1      6      5      2      4 
    12      2     15      4      2      3 
    13      3     13      4      2      5 
    14      3     15      4      2      5 
    15      3     14      4      2      5 
    16      3     11      3      2      5 
    17      2     14      4      2      3 
    18      2     13      4      2      3 
    19      2     12      3      2      1 
    20      3      8      1      2      5 
    21      2     12      3      2      4 
    22      3     12      3      2      5 
    23      1      6      5      2      3 
    24      2      7      1      2      4 
    25      2      9      1      2      4 
    26      2     15      4      2      1 
    27      3     10      3      2      5 
    28      2     11      3      2      4 
    29      2     10      3      2      4 
    30      2     14      4      2      1 
     31      1     21     20     17     16 
     32      2     22     16     17     18 
     33      2     25     18     17     16 
     34      2     28     19     17     16 
     35      2     26     18     17     16 
     36      3     24     16     17     20 
     37      2     23     16     17     18 
     38      3     22     16     17     20 
     39      2     24     16     17     18 
    40      2     23     16     17     19 
    41      1     21     20     17     19 
    42      2     20     19     17     18 
    43      3     28     19     17     20 
    44      3     30     19     17     20 
    45      3     29     19     17     20 
    46      3     26     18     17     20 
    47      2     29     19     17     18 
    48      2     28     19     17     18 
    49      2     27     18     17     16 
    50      3     23     16     17     20 
    51      2     27     18     17     19 
    52      3     27     18     17     20 
    53      1     21     20     17     18 
    54      2     22     16     17     19 
    55      2     24     16     17     19 
    56      2     30     19     17     16 
    57      3     25     18     17     20 
    58      2     26     18     17     19 
    59      2     25     18     17     19 
    60      2     29     19     17     16 
