LAMMPS data file via write_data, version 15 May 2015, timestep = 23005000

2611 atoms
6 atom types
1749 bonds
4 bond types
894 angles
3 angle types
44 dihedrals
3 dihedral types
10 impropers
1 improper types

-1.4869844520453260e+01 1.4869844520453260e+01 xlo xhi
-1.4869844520453260e+01 1.4869844520453260e+01 ylo yhi
-1.4869844520453260e+01 1.4869844520453260e+01 zlo zhi

Masses

1 15.9994
2 1.00794
3 12.0107
4 1.00794
5 12.0107
6 12.0107

Bond Coeffs # harmonic

1 1000 1
2 469 1.4
3 367 1.08
4 469 0.7

Angle Coeffs # harmonic

1 100 109.47
2 35 120
3 63 120

Dihedral Coeffs # opls

1 0 7.25 0 0
2 0 7.25 0 0
3 0 7.25 0 0

Improper Coeffs # cvff

1 2.5 -1 2

Atoms # full

146 49 2 4.0999999999999998e-01 -9.3303214398048837e+00 -9.9520874737691223e+00 -1.1988542924405545e+01 3 0 -3
2173 725 1 -8.1999999999999995e-01 -1.0345300377989119e+01 -1.4202393511730666e+01 -1.0539925791013840e+01 1 4 0
1550 517 2 4.0999999999999998e-01 -1.3491955873906948e+01 -7.8770697969916252e+00 -1.3051610989107123e+01 -1 -2 2
1333 445 1 -8.1999999999999995e-01 -7.7971372805798218e+00 -9.7989275813925296e+00 -9.2012245593332711e+00 -5 -1 0
787 263 1 -8.1999999999999995e-01 -1.1863489591460546e+01 -1.1611360837853740e+01 -7.4402544865198772e+00 -2 2 1
1334 445 2 4.0999999999999998e-01 -8.4978343628745741e+00 -9.7503550342583587e+00 -9.9129962364772943e+00 -5 -1 0
425 142 2 4.0999999999999998e-01 -5.1372146794131552e+00 -9.0872952328558387e+00 -1.2851797569512092e+01 1 4 3
788 263 2 4.0999999999999998e-01 -1.1874975099954876e+01 -1.1589930241498775e+01 -8.4399361243100515e+00 -2 2 1
863 288 2 4.0999999999999998e-01 -1.1088558929715390e+01 -1.1238345878573275e+01 -1.1913647011825992e+01 5 4 3
1125 375 2 4.0999999999999998e-01 -1.1807500541659612e+01 -1.0800601274512342e+01 -1.4389859284369555e+01 0 0 0
145 49 1 -8.1999999999999995e-01 -8.9263919830386769e+00 -9.0806618978478006e+00 -1.1710310212969928e+01 3 0 -3
862 288 1 -8.1999999999999995e-01 -1.0731922463321030e+01 -1.1155285902408817e+01 -1.2844166280006256e+01 5 4 3
338 113 2 4.0999999999999998e-01 -5.1751811624667532e+00 -1.2521156995144857e+01 -1.4860445236344935e+01 3 0 1
1124 375 2 4.0999999999999998e-01 -1.3420755618617543e+01 -1.0559249211225287e+01 -1.4314605691029836e+01 0 0 0
864 288 2 4.0999999999999998e-01 -1.0169896019649929e+01 -1.1954188877126073e+01 -1.3058257226628154e+01 5 4 3
2197 733 1 -8.1999999999999995e-01 -1.2149051280268729e+01 -1.2110369034292781e+01 -1.0363427239488825e+01 3 -5 5
270 90 2 4.0999999999999998e-01 -4.9904556979130739e+00 -7.5871161995592864e+00 -1.4107693357386108e+01 0 -2 3
1418 473 2 4.0999999999999998e-01 -1.2450109202921764e+01 -1.3822182023916280e+01 -1.4438407519946967e+01 5 -1 2
301 101 1 -8.1999999999999995e-01 -6.8217351821109897e+00 -1.3961270990020511e+01 -1.1581761000625805e+01 -8 0 1
2199 733 2 4.0999999999999998e-01 -1.1573742368976159e+01 -1.2928194140656011e+01 -1.0375115877632282e+01 3 -5 5
302 101 2 4.0999999999999998e-01 -6.7633258751578911e+00 -1.4826016340042685e+01 -1.2080517826872534e+01 -8 0 1
1335 445 2 4.0999999999999998e-01 -7.1433108997920423e+00 -1.0521409045464893e+01 -9.4259158430664325e+00 -5 -1 0
2494 832 1 -8.1999999999999995e-01 -9.2439287039857962e+00 -1.3423570025263924e+01 -1.3431808680581339e+01 0 1 1
2496 832 2 4.0999999999999998e-01 -8.6137038115443954e+00 -1.3590211202978461e+01 -1.2673519930878925e+01 0 1 1
509 170 2 4.0999999999999998e-01 -8.5092072717277816e+00 -7.5140277684705676e+00 -1.4633686833298842e+01 -5 -4 0
204 68 2 4.0999999999999998e-01 -6.2114298842804363e+00 -1.2266704473453283e+01 -1.0995172412699450e+01 -3 -3 -3
303 101 2 4.0999999999999998e-01 -6.9714337338159904e+00 -1.4146149776416459e+01 -1.0610491326738760e+01 -8 0 1
2495 832 2 4.0999999999999998e-01 -8.7880489175485188e+00 -1.3634236467130554e+01 -1.4296532811930057e+01 0 1 1
147 49 2 4.0999999999999998e-01 -8.4600988398539165e+00 -8.6650073629686766e+00 -1.2491179466410651e+01 3 0 -3
269 90 2 4.0999999999999998e-01 -6.5465440177748029e+00 -7.9722392426399145e+00 -1.3796607154242118e+01 0 -2 3
508 170 1 -8.1999999999999995e-01 -7.9618901809942182e+00 -8.2001601102953909e+00 -1.4154498841635949e+01 -5 -4 0
2198 733 2 4.0999999999999998e-01 -1.3067271992978341e+01 -1.2344192493403416e+01 -1.0683039402661947e+01 3 -5 5
1502 501 2 4.0999999999999998e-01 -1.3369629219053538e+01 -8.8808727845211326e+00 -1.1209656303984552e+01 -1 3 -3
1501 501 1 -8.1999999999999995e-01 -1.3485548161010914e+01 -9.6972017743785823e+00 -1.0643860921184835e+01 -1 3 -3
2174 725 2 4.0999999999999998e-01 -9.5455626447069264e+00 -1.3867769897709797e+01 -1.0041527142167709e+01 1 4 0
1503 501 2 4.0999999999999998e-01 -1.2616356067683585e+01 -1.0188113041740770e+01 -1.0584990142345784e+01 -1 3 -3
1440 480 2 4.0999999999999998e-01 -8.2353709169607612e+00 -1.4643398661441273e+01 -7.8114653398530685e+00 -2 -2 -2
1549 517 1 -8.1999999999999995e-01 -1.3512863857592576e+01 -7.5327129895293581e+00 -1.2113029145202612e+01 -1 -2 2
429 143 2 4.0999999999999998e-01 -9.3803057464835611e+00 -7.7389881583822326e+00 -1.0172125218411438e+01 -2 2 -3
202 68 1 -8.1999999999999995e-01 -6.0864910242724033e+00 -1.1318348153827710e+01 -1.0703684115519318e+01 -3 -3 -3
203 68 2 4.0999999999999998e-01 -5.4575920783097143e+00 -1.0857336519688914e+01 -1.1329710564197658e+01 -3 -3 -3
824 275 2 4.0999999999999998e-01 -1.2557221201615512e+01 -8.0712541075320132e+00 -8.3896617372619708e+00 3 9 1
1785 595 2 4.0999999999999998e-01 -1.4297889512910777e+01 -1.0735664481673219e+01 -1.1815509269076642e+01 5 4 0
133 45 1 -8.1999999999999995e-01 -1.4480702693850668e+01 -1.4506942927905168e+01 -9.4007479776293863e+00 3 1 -1
268 90 1 -8.1999999999999995e-01 -5.7511319737147417e+00 -7.4611489398393731e+00 -1.3470937102920493e+01 0 -2 3
134 45 2 4.0999999999999998e-01 -1.3887047723486340e+01 -1.4613693519901988e+01 -8.6031687362317211e+00 3 1 -1
135 45 2 4.0999999999999998e-01 -1.4005594063821961e+01 -1.4836918399102231e+01 -1.0216433371757859e+01 3 1 -1
823 275 1 -8.1999999999999995e-01 -1.2041893231965698e+01 -8.5971720438751333e+00 -7.7130509999190853e+00 3 9 1
1783 595 1 -8.1999999999999995e-01 -1.4582238744745824e+01 -1.1211517283497182e+01 -1.2647773844885549e+01 5 4 0
510 170 2 4.0999999999999998e-01 -8.3122110101360498e+00 -9.1126992336415551e+00 -1.4365455151644630e+01 -5 -4 0
339 113 2 4.0999999999999998e-01 -5.0625763536846620e+00 -1.1095556908164379e+01 -1.4072098240031517e+01 3 0 1
142 48 1 -8.1999999999999995e-01 -1.3491739866568624e+01 -6.8621015288180089e+00 -9.2235720506466627e+00 -4 0 6
533 178 2 4.0999999999999998e-01 -7.4351996904687994e+00 -2.0705472087348564e+00 -1.4844858251388406e+01 -2 0 -2
2189 730 2 4.0999999999999998e-01 -7.2286765603247813e+00 -5.2059590054226028e+00 -8.0007094292543890e+00 2 1 -2
532 178 1 -8.1999999999999995e-01 -6.8221862533547206e+00 -2.0446777531867859e+00 -1.4055238119853545e+01 -2 0 -2
1629 543 2 4.0999999999999998e-01 -1.4497579096502246e+01 -4.9313235030107698e+00 -1.3025075141285519e+01 0 1 -3
2231 744 2 4.0999999999999998e-01 -1.4636788390987606e+01 -4.2882524470052985e-01 -1.3369901952672599e+01 -1 2 -4
2136 712 2 4.0999999999999998e-01 -6.3099341780696019e+00 -5.8553908384124931e+00 -1.3378835075745126e+01 4 0 1
1287 429 2 4.0999999999999998e-01 -6.1807215492843994e+00 -3.3668597898868544e+00 -1.0344892978780713e+01 -3 8 1
912 304 2 4.0999999999999998e-01 -5.2558611863857099e+00 -6.8745571592525785e+00 -1.1781203864068956e+01 0 1 -7
2521 841 1 -8.1999999999999995e-01 -1.0620172034083559e+01 -5.5455252832462953e-01 -9.2714535520133072e+00 -1 -1 -5
1059 353 2 4.0999999999999998e-01 -1.4800879066888232e+01 -3.6170280876960650e+00 -9.0043497376129817e+00 0 2 0
1976 659 2 4.0999999999999998e-01 -6.9737196275039448e+00 -1.2581133931330637e+00 -1.0806368304518665e+01 5 1 5
144 48 2 4.0999999999999998e-01 -1.4070126453779952e+01 -6.0952532027749324e+00 -8.9454225526751365e+00 -4 0 6
2134 712 1 -8.1999999999999995e-01 -6.3621390518136991e+00 -4.8632197290639212e+00 -1.3265584473069909e+01 4 0 1
278 93 2 4.0999999999999998e-01 -9.6369889708078951e+00 -1.8593317793692599e-01 -1.4585116928621447e+01 0 5 5
2523 841 2 4.0999999999999998e-01 -1.1554159301257743e+01 -2.8143907912506982e-01 -9.0411679872202004e+00 -1 -1 -5
1975 659 1 -8.1999999999999995e-01 -6.8844158456309410e+00 -5.1536133153560471e-01 -1.1469918538377952e+01 5 1 5
534 178 2 4.0999999999999998e-01 -6.3017804986181787e+00 -2.8973291105817722e+00 -1.4009215990671835e+01 -2 0 -2
602 201 2 4.0999999999999998e-01 -1.2310923118467858e+01 -5.5521681213168961e-01 -1.4463519091278080e+01 -1 3 1
745 249 1 -8.1999999999999995e-01 -7.3317520314749727e+00 -1.9891309102102941e+00 -9.0442723785136820e+00 0 5 -3
143 48 2 4.0999999999999998e-01 -1.3793087236977701e+01 -7.2007190783866157e+00 -1.0114909502995273e+01 -4 0 6
1662 554 2 4.0999999999999998e-01 -9.8892584502368184e+00 -4.2382508630565638e+00 -1.0761778734722881e+01 0 0 -1
1660 554 1 -8.1999999999999995e-01 -9.2300896908194527e+00 -3.8505246760470637e+00 -1.0117480940910886e+01 0 0 -1
1285 429 1 -8.1999999999999995e-01 -5.4633311559693958e+00 -3.6269724852339369e+00 -1.0991149235990939e+01 -3 8 1
1661 554 2 4.0999999999999998e-01 -8.7182614700235135e+00 -4.5893698550180364e+00 -9.6791951589755350e+00 0 0 -1
1977 659 2 4.0999999999999998e-01 -5.9332443439673703e+00 -2.0828856711925603e-01 -1.1500475258431047e+01 5 1 5
2346 782 2 4.0999999999999998e-01 -1.1800052434553809e+01 -2.4111513257364656e+00 -1.2091857813320869e+01 2 0 -1
547 183 1 -8.1999999999999995e-01 -7.3206179958848798e+00 -5.7542817010985186e+00 -9.4669198713572467e+00 -1 0 1
2345 782 2 4.0999999999999998e-01 -1.0485429757969012e+01 -1.6726816999763443e+00 -1.2718703503542002e+01 2 0 -1
782 261 2 4.0999999999999998e-01 -8.6907748972039691e+00 -2.8493172747728277e+00 -1.1635353770190997e+01 -3 -1 -2
428 143 2 4.0999999999999998e-01 -1.0568841735923719e+01 -6.6231258398576465e+00 -1.0078643991926036e+01 -2 2 -3
1551 517 2 4.0999999999999998e-01 -1.2957475144081684e+01 -6.7035599742843104e+00 -1.2049757454262910e+01 -1 -2 2
427 143 1 -8.1999999999999995e-01 -9.8262020661219491e+00 -7.0688091780550852e+00 -9.5788367528530145e+00 -2 2 -3
549 183 2 4.0999999999999998e-01 -6.3940585471202382e+00 -6.0536231572604731e+00 -9.6945968813122469e+00 -1 0 1
111 37 2 4.0999999999999998e-01 -1.0612234619723882e+01 -6.1038031955351464e+00 -7.8958382617168672e+00 0 1 -4
910 304 1 -8.1999999999999995e-01 -5.0029032713774360e+00 -6.2795623132513327e+00 -1.1018348717833913e+01 0 1 -7
746 249 2 4.0999999999999998e-01 -7.0825408644732049e+00 -1.9371841382933948e+00 -8.0772408711064561e+00 0 5 -3
783 261 2 4.0999999999999998e-01 -8.1658494693262647e+00 -2.2191967691453058e+00 -1.3047411379749992e+01 -3 -1 -2
548 183 2 4.0999999999999998e-01 -7.9276305412940955e+00 -6.5480721679241789e+00 -9.4296773117184038e+00 -1 0 1
2137 713 1 -8.1999999999999995e-01 -1.2340282103868949e+01 -3.2213345699444069e+00 -1.0001262011081320e+01 -5 0 1
2138 713 2 4.0999999999999998e-01 -1.2298604663778711e+01 -3.4896509814077543e+00 -9.0388567483392031e+00 -5 0 1
2139 713 2 4.0999999999999998e-01 -1.3229016960926080e+01 -2.8050006962437593e+00 -1.0193019797327743e+01 -5 0 1
2258 753 2 4.0999999999999998e-01 -1.1347444891814614e+01 -5.2517262664525557e+00 -1.2335278527401858e+01 4 0 4
2180 727 2 4.0999999999999998e-01 -1.0086620992931083e+01 -3.3926462603560186e+00 -1.3482790929131532e+01 3 -1 -3
2344 782 1 -8.1999999999999995e-01 -1.1482431654243927e+01 -1.6428967915655530e+00 -1.2647606648250186e+01 2 0 -1
809 270 2 4.0999999999999998e-01 -1.3607162437190283e+01 -7.6081773996233082e-01 -8.4968507490951382e+00 1 5 1
1627 543 1 -8.1999999999999995e-01 -1.3842915738694668e+01 -4.7496632113793424e+00 -1.3758812157676594e+01 0 1 -3
2179 727 1 -8.1999999999999995e-01 -1.0594180905881380e+01 -4.2211457392072056e+00 -1.3719278441907884e+01 3 -1 -3
2181 727 2 4.0999999999999998e-01 -1.1557250494475003e+01 -3.9927705880884670e+00 -1.3861744405806064e+01 3 -1 -3
2259 753 2 4.0999999999999998e-01 -1.2307373259516591e+01 -4.8669886076520381e+00 -1.1071545979405524e+01 4 0 4
781 261 1 -8.1999999999999995e-01 -8.9687971003455615e+00 -2.3801984375562952e+00 -1.2473557635287145e+01 -3 -1 -2
2257 753 1 -8.1999999999999995e-01 -1.1869303353389935e+01 -5.6183141849988480e+00 -1.1565063167295609e+01 4 0 4
1628 543 2 4.0999999999999998e-01 -1.3640640635079905e+01 -5.6007318781898991e+00 -1.4243292766210926e+01 0 1 -3
2522 841 2 4.0999999999999998e-01 -1.0613427708579575e+01 -1.5138365298145189e+00 -9.5537358578250249e+00 -1 -1 -5
1286 429 2 4.0999999999999998e-01 -5.2277740823665262e+00 -4.5896365965154793e+00 -1.0857936899482382e+01 -3 8 1
2135 712 2 4.0999999999999998e-01 -6.3881512130157461e+00 -4.6398791230938947e+00 -1.2291214390328875e+01 4 0 1
747 249 2 4.0999999999999998e-01 -8.0277003553259121e+00 -2.6958082067014573e+00 -9.1716212298810547e+00 0 5 -3
855 285 2 4.0999999999999998e-01 -9.3894387667380954e+00 -5.5461701274795985e+00 -1.4564276886140435e+01 1 8 -1
1327 443 1 -8.1999999999999995e-01 -1.2397350253235174e+01 -1.4262514563805512e+01 -4.3266076179326980e+00 -2 2 4
1405 469 1 -8.1999999999999995e-01 -1.1758465684865627e+01 -7.6661345915573369e+00 -2.6496571253822001e+00 1 1 -2
2284 762 1 -8.1999999999999995e-01 -9.3566239972707574e+00 -1.2659998896393432e+01 -4.6512643364865198e+00 -6 -3 -1
598 200 1 -8.1999999999999995e-01 -1.3610426331029087e+01 -1.0242256367393070e+01 -4.7931762473365271e+00 1 0 -9
2233 745 1 -8.1999999999999995e-01 -1.3614480735737361e+01 -1.1822067705809756e+01 -2.4249244437766393e+00 1 7 0
1582 528 1 -8.1999999999999995e-01 -1.0805679454237101e+01 -1.4602171418605982e+01 -1.6749520297246328e+00 0 -1 0
232 78 1 -8.1999999999999995e-01 -6.2224700871751484e+00 -9.3347150281695725e+00 -8.6676441509791680e-01 -1 0 -1
937 313 1 -8.1999999999999995e-01 -9.6536231364337333e+00 -9.8589544408947791e+00 -3.9114904567450104e-01 -8 -3 -6
233 78 2 4.0999999999999998e-01 -6.1131429873216838e+00 -8.6220788829127102e+00 -1.5596947234118534e+00 -1 0 -1
2235 745 2 4.0999999999999998e-01 -1.4052234841219040e+01 -1.2481364369950604e+01 -1.8136520345850418e+00 1 7 0
2285 762 2 4.0999999999999998e-01 -9.0796214392158703e+00 -1.3528672242662324e+01 -4.2406172474995127e+00 -6 -3 -1
1583 528 2 4.0999999999999998e-01 -1.0328989240694764e+01 -1.3729963896485200e+01 -1.5655212213867600e+00 0 -1 0
2286 762 2 4.0999999999999998e-01 -1.0248777235032886e+01 -1.2389723853857710e+01 -4.2893685463457594e+00 -6 -3 -1
1328 443 2 4.0999999999999998e-01 -1.2148201818678910e+01 -1.4691602278506956e+01 -3.4584121157833305e+00 -2 2 4
872 291 2 4.0999999999999998e-01 -8.8082597271093945e+00 -1.3027093029304915e+01 -6.4918910216014236e+00 -2 -2 4
1267 423 1 -8.1999999999999995e-01 -9.3986958059927055e+00 -9.3449364020402594e+00 -6.7020070794601470e+00 -6 -5 2
1407 469 2 4.0999999999999998e-01 -1.1127852635438028e+01 -8.3729692192826448e+00 -2.9700733161033988e+00 1 1 -2
115 39 1 -8.1999999999999995e-01 -1.0370036479915633e+01 -1.1822820449946441e+01 -2.0861325336228198e+00 1 -3 4
116 39 2 4.0999999999999998e-01 -9.4848678018937846e+00 -1.1898402652826640e+01 -2.5451736032712020e+00 1 -3 4
1506 502 2 4.0999999999999998e-01 -7.0112802168393777e+00 -1.3533719414360604e+01 -1.3965059282082830e+00 1 1 4
117 39 2 4.0999999999999998e-01 -1.0365282676950017e+01 -1.1025898809918484e+01 -1.4821060948980058e+00 1 -3 4
825 275 2 4.0999999999999998e-01 -1.2282229712808967e+01 -8.2842791277026429e+00 -6.7941976521748177e+00 3 9 1
1268 423 2 4.0999999999999998e-01 -1.0198341720903862e+01 -9.0667594377005276e+00 -7.2341147375281869e+00 -6 -5 2
128 43 2 4.0999999999999998e-01 -5.0872820071733056e+00 -1.1096286087756184e+01 -5.2067028112272649e+00 -2 -1 0
1504 502 1 -8.1999999999999995e-01 -7.8613884210799512e+00 -1.3293414456911865e+01 -1.8650400168411885e+00 1 1 4
1580 527 2 4.0999999999999998e-01 -7.1204444219189691e+00 -1.0300820844287282e+01 -1.8878707759677109e+00 -3 -3 1
1505 502 2 4.0999999999999998e-01 -7.7997801413973580e+00 -1.2355866086727922e+01 -2.2073294465053408e+00 1 1 4
127 43 1 -8.1999999999999995e-01 -5.0237742208353637e+00 -1.1594856032192418e+01 -4.3422090610771598e+00 -2 -1 0
1579 527 1 -8.1999999999999995e-01 -7.6160177439674666e+00 -1.0644145660185560e+01 -2.6856740295819943e+00 -3 -3 1
2234 745 2 4.0999999999999998e-01 -1.2701401036104677e+01 -1.1603607005349803e+01 -2.0806638994655096e+00 1 7 0
238 80 1 -8.1999999999999995e-01 -1.1737853711109853e+01 -1.4371916871432431e+01 -7.2004728010208137e+00 -7 3 4
600 200 2 4.0999999999999998e-01 -1.4600644436206892e+01 -1.0211005866080544e+01 -4.6573578150015802e+00 1 0 -9
939 313 2 4.0999999999999998e-01 -9.1395358845228856e+00 -9.0132371654714589e+00 -2.4821113001559070e-01 -8 -3 -6
947 316 2 4.0999999999999998e-01 -9.5800627015830351e+00 -9.2738776416037965e+00 -4.9488908672517020e+00 0 3 -4
834 278 2 4.0999999999999998e-01 -6.4290708465252493e+00 -9.2267853402939473e+00 -6.3836436174474951e+00 0 -1 -3
1329 443 2 4.0999999999999998e-01 -1.2737187087236787e+01 -1.3337677006284821e+01 -4.1558995080844205e+00 -2 2 4
1047 349 2 4.0999999999999998e-01 -8.6828373256061120e+00 -7.5460080818496893e+00 -1.8442257630703551e+00 0 5 1
599 200 2 4.0999999999999998e-01 -1.3209812302210565e+01 -1.0915324433606116e+01 -4.1715311771580943e+00 1 0 -9
239 80 2 4.0999999999999998e-01 -1.1911703473842238e+01 -1.4491894743596172e+01 -6.2230598173627971e+00 -7 3 4
2306 769 2 4.0999999999999998e-01 -5.3906743188716106e+00 -1.3215407595727580e+01 -5.1415588910588372e+00 -7 -3 -2
1030 344 1 -8.1999999999999995e-01 -5.3185696531212461e+00 -1.3873176719340423e+01 -9.4558806116149796e-01 -4 -4 -3
1581 527 2 4.0999999999999998e-01 -6.9671577915719167e+00 -1.0848234128344341e+01 -3.4186703166439312e+00 -3 -3 1
832 278 1 -8.1999999999999995e-01 -5.8247180216927816e+00 -1.0018315929279723e+01 -6.4741524927252403e+00 0 -1 -3
946 316 1 -8.1999999999999995e-01 -9.6806812930167752e+00 -9.1347055838480316e+00 -3.9637707030983247e+00 0 3 -4
948 316 2 4.0999999999999998e-01 -9.0789475056212368e+00 -9.7661703812068286e+00 -3.4747684556297020e+00 0 3 -4
240 80 2 4.0999999999999998e-01 -1.1714212999160353e+01 -1.3396056642741856e+01 -7.4174808817496185e+00 -7 3 4
72 24 2 4.0999999999999998e-01 -6.8164665188907954e+00 -8.3115771052765446e+00 -4.3173782560678546e+00 2 0 2
871 291 1 -8.1999999999999995e-01 -8.0089834505371869e+00 -1.3151507949271432e+01 -7.0797966068153215e+00 -2 -2 4
2307 769 2 4.0999999999999998e-01 -6.5479861796211800e+00 -1.3945740075741126e+01 -6.0324848830622120e+00 -7 -3 -2
2203 735 1 -8.1999999999999995e-01 -1.2746621329749043e+01 -7.6435776001306639e+00 -5.2633355822620356e+00 -1 3 4
2204 735 2 4.0999999999999998e-01 -1.3230983820103813e+01 -8.5074841697159282e+00 -5.4012234190076835e+00 -1 3 4
2205 735 2 4.0999999999999998e-01 -1.2321490046834263e+01 -7.6405936315480263e+00 -4.3582338872081632e+00 -1 3 4
71 24 2 4.0999999999999998e-01 -8.1498212359503999e+00 -8.1479690971200931e+00 -5.2457657784228093e+00 2 0 2
70 24 1 -8.1999999999999995e-01 -7.1597380265162744e+00 -8.0128750291206856e+00 -5.2078255840056649e+00 2 0 2
2305 769 1 -8.1999999999999995e-01 -5.6699288675272594e+00 -1.4073975940697679e+01 -5.5714800254228862e+00 -7 -3 -2
104 35 2 4.0999999999999998e-01 -8.1806861373716426e+00 -1.2543194712565263e+01 -1.3115244883139354e-01 -4 3 3
701 234 2 4.0999999999999998e-01 -1.4369536766787455e+01 -7.7013970779290553e+00 -3.5929219974314108e-01 1 8 -8
833 278 2 4.0999999999999998e-01 -5.3516075934656246e+00 -9.9775362162944283e+00 -7.3541856104837287e+00 0 -1 -3
1031 344 2 4.0999999999999998e-01 -5.2272027677502528e+00 -1.4841944789182969e+01 -7.1516352453708620e-01 -4 -4 -3
234 78 2 4.0999999999999998e-01 -6.7177507185480856e+00 -8.9629857451580754e+00 -8.1608804062058837e-02 -1 0 -1
789 263 2 4.0999999999999998e-01 -1.1870931340663933e+01 -1.0675995890384034e+01 -7.0867129664452477e+00 -2 2 1
1269 423 2 4.0999999999999998e-01 -8.6482754432084192e+00 -9.5727222400136505e+00 -7.3224403814072128e+00 -6 -5 2
873 291 2 4.0999999999999998e-01 -7.5126984878721794e+00 -1.2286640674010783e+01 -7.1550325593054156e+00 -2 -2 4
272 91 2 4.0999999999999998e-01 -1.4557886438935519e+01 -9.7863747071612899e+00 -2.0185914398411704e+00 1 2 3
1971 657 2 4.0999999999999998e-01 -1.4161947251534473e+01 -1.1343604569978277e+01 -7.3547072077955198e+00 -3 -1 0
1045 349 1 -8.1999999999999995e-01 -8.8564411252411706e+00 -7.2081027734208938e+00 -9.1921962635147381e-01 0 5 1
1406 469 2 4.0999999999999998e-01 -1.1521248319801302e+01 -7.4074189179733070e+00 -1.7133085242430024e+00 1 1 -2
5 2 2 4.0999999999999998e-01 -5.0155193997558722e+00 -6.8980272535972720e+00 -1.9828718300663120e+00 -2 3 1
114 38 2 4.0999999999999998e-01 -1.0090325552159534e+01 -2.4405693019195418e+00 -4.2615907709465883e+00 1 -3 8
109 37 1 -8.1999999999999995e-01 -1.0817847599066166e+01 -5.9488197030173779e+00 -6.9295784684199297e+00 0 1 -4
1483 495 1 -8.1999999999999995e-01 -1.1498185056287520e+01 -6.1731517598579089e-01 -5.2609587298901452e+00 -1 2 -4
2556 852 2 4.0999999999999998e-01 -7.9440838497000490e+00 -4.7301675636621177e-01 -5.9692866913861167e+00 -3 1 2
1074 358 2 4.0999999999999998e-01 -1.2353874048357984e+01 -4.5090168896067038e+00 -6.8794590749059905e+00 -4 7 1
4 2 1 -8.1999999999999995e-01 -5.7750201476709844e+00 -7.2587122306817013e+00 -2.5241847944488178e+00 -2 3 1
113 38 2 4.0999999999999998e-01 -1.0137015297162279e+01 -3.1654849694711462e+00 -2.7991193562673011e+00 1 -3 8
1072 358 1 -8.1999999999999995e-01 -1.2678171808447063e+01 -3.6878469666865481e+00 -7.3489966420152273e+00 -4 7 1
1046 349 2 4.0999999999999998e-01 -8.2552369609178307e+00 -6.4318525503272834e+00 -7.2963135080560271e-01 0 5 1
2213 738 2 4.0999999999999998e-01 -6.9222760627429434e+00 -4.9622864480495714e+00 -1.8112155213257992e+00 -5 2 -3
902 301 2 4.0999999999999998e-01 -8.2080791259612056e+00 -1.6716528747313930e+00 -2.3777938111543246e+00 -7 -4 5
2301 767 2 4.0999999999999998e-01 -1.3353169812569780e+01 -7.1574070408953823e+00 -2.0887612183507258e+00 -3 -5 4
1509 503 2 4.0999999999999998e-01 -1.4213292928065771e+01 -6.0200145362610389e+00 -6.0169093790845665e+00 4 -4 3
2299 767 1 -8.1999999999999995e-01 -1.4281519138761384e+01 -6.7898650152010092e+00 -2.1438551514500066e+00 -3 -5 4
583 195 1 -8.1999999999999995e-01 -1.4762872442939900e+01 -6.7525526061066543e-01 -1.2572134472862366e+00 2 -2 -1
903 301 2 4.0999999999999998e-01 -6.7247027520532896e+00 -2.2818451894893954e+00 -2.6840047118849224e+00 -7 -4 5
1226 409 2 4.0999999999999998e-01 -7.8000101502466856e+00 -4.6916456115573322e+00 -4.4702053528556149e+00 2 -2 -2
1225 409 1 -8.1999999999999995e-01 -7.1495353262553332e+00 -4.8639112422612456e+00 -3.7305015979709086e+00 2 -2 -2
1909 637 1 -8.1999999999999995e-01 -1.3387620788670025e+01 -4.0862690795382139e+00 -2.7665295462193900e+00 4 -6 0
256 86 1 -8.1999999999999995e-01 -1.1073312404897120e+01 -4.1209125725988862e+00 -1.3006711112225400e+00 -2 -1 -4
585 195 2 4.0999999999999998e-01 -1.4403911055205690e+01 -8.8064629455396393e-01 -3.4676497327122213e-01 2 -2 -1
258 86 2 4.0999999999999998e-01 -1.1179009373456779e+01 -5.0212836551225166e+00 -8.7863476327463275e-01 -2 -1 -4
1910 637 2 4.0999999999999998e-01 -1.4114365507558789e+01 -3.6291825283846624e+00 -2.2538224386789114e+00 4 -6 0
2555 852 2 4.0999999999999998e-01 -7.9782580349838677e+00 -2.0304620624868281e+00 -5.4796933996707029e+00 -3 1 2
257 86 2 4.0999999999999998e-01 -1.1890203292322287e+01 -3.9056453158213351e+00 -1.8357448358477679e+00 -2 -1 -4
341 114 2 4.0999999999999998e-01 -5.4725906596205682e+00 -7.3152301923369389e+00 -5.5297091223458406e+00 0 0 1
1073 358 2 4.0999999999999998e-01 -1.3209678272216905e+01 -3.1282791891163644e+00 -6.7131192421727590e+00 -4 7 1
753 251 2 4.0999999999999998e-01 -1.0212580952696563e+01 -7.0941589714787234e-01 -2.6393370599677350e+00 -6 8 2
1484 495 2 4.0999999999999998e-01 -1.2029930316240451e+01 -1.4054162408611734e+00 -5.5709559829078774e+00 -1 2 -4
2554 852 1 -8.1999999999999995e-01 -7.4164154935345694e+00 -1.3198639500731080e+00 -5.9031763447670969e+00 -3 1 2
387 129 2 4.0999999999999998e-01 -5.2467981418991894e+00 -1.2092097166828779e+00 -6.1498900817990538e+00 0 -2 2
2212 738 1 -8.1999999999999995e-01 -7.1429112255331209e+00 -4.8510637131160728e+00 -8.4224477918469276e-01 -5 2 -3
6 2 2 4.0999999999999998e-01 -6.1769907340587391e+00 -6.5214525078467300e+00 -3.0671603119043152e+00 -2 3 1
2188 730 1 -8.1999999999999995e-01 -6.9200116081017669e+00 -4.9208797765129173e+00 -7.0932897786757776e+00 2 1 -2
1485 495 2 4.0999999999999998e-01 -1.1769487008719613e+01 -3.7805052561714803e-01 -4.3287020916927368e+00 -1 2 -4
901 301 1 -8.1999999999999995e-01 -7.2258831259596308e+00 -1.4876792713626372e+00 -2.3403866952814312e+00 -7 -4 5
2190 730 2 4.0999999999999998e-01 -6.1972630414559244e+00 -5.5361242062088074e+00 -6.7785463593343387e+00 2 1 -2
1227 409 2 4.0999999999999998e-01 -6.4004078002304343e+00 -4.2037603883646408e+00 -3.7849411319988491e+00 2 -2 -2
110 37 2 4.0999999999999998e-01 -1.1315169743760110e+01 -6.7356911039911402e+00 -6.5642583101683609e+00 0 1 -4
1911 637 2 4.0999999999999998e-01 -1.3622489393153225e+01 -5.0504010057587010e+00 -2.8899838098734225e+00 4 -6 0
292 98 1 -8.1999999999999995e-01 -8.9721443693384977e+00 -4.1264007735405670e+00 -5.4657652758817878e+00 1 1 2
293 98 2 4.0999999999999998e-01 -9.7522145478338338e+00 -4.6366237126681966e+00 -5.8278670509978028e+00 1 1 2
294 98 2 4.0999999999999998e-01 -8.1811114038740946e+00 -4.2586827352656407e+00 -6.0630281857452850e+00 1 1 2
154 52 1 -8.1999999999999995e-01 -1.3531225144325889e+01 -2.6367286217397989e+00 -5.0269250286367395e+00 -6 -2 1
156 52 2 4.0999999999999998e-01 -1.4274352563031963e+01 -1.9984983893777510e+00 -4.8259812838658256e+00 -6 -2 1
155 52 2 4.0999999999999998e-01 -1.3393382913687766e+01 -3.2446377356699365e+00 -4.2450037909350673e+00 -6 -2 1
112 38 1 -8.1999999999999995e-01 -9.9963992101496508e+00 -2.2980242843006096e+00 -3.2762921483905014e+00 1 -3 8
2214 738 2 4.0999999999999998e-01 -7.7334885162085412e+00 -4.0527645753670338e+00 -7.2438083902619610e-01 -5 2 -3
772 258 1 -8.1999999999999995e-01 -5.2197331658133681e+00 -3.0228334901239684e+00 -3.5600501759321119e+00 -8 -3 -4
1409 470 2 4.0999999999999998e-01 -1.0105468112534584e+01 -3.3591872243577381e+00 -1.3385091008619732e-01 -5 3 -1
684 228 2 4.0999999999999998e-01 -1.3634059689807689e+01 -3.1912854175659255e-01 -2.7027884570783751e+00 -3 6 1
814 272 1 -8.1999999999999995e-01 -1.1617930026507274e+01 -6.5664438865817356e+00 -6.7625605617266160e-02 1 1 3
1199 400 2 4.0999999999999998e-01 -6.8252905756931685e+00 -2.6245213189689309e-02 -1.2047725962533864e+00 2 -4 5
60 20 2 4.0999999999999998e-01 -8.9959196257627561e+00 -1.4771518765309997e+01 3.9684008781465003e+00 -4 1 -5
1515 505 2 4.0999999999999998e-01 -1.0572588695431257e+01 -1.1925121163277357e+01 3.9484776930156542e+00 1 -2 -1
1135 379 1 -8.1999999999999995e-01 -1.2422829913077146e+01 -8.3148652008896384e+00 5.8730148074651360e+00 2 -1 -5
1137 379 2 4.0999999999999998e-01 -1.2406981589642371e+01 -9.1218530368616655e+00 6.4633318619222351e+00 2 -1 -5
1136 379 2 4.0999999999999998e-01 -1.2590886666215857e+01 -7.4996986764963793e+00 6.4272847068393730e+00 2 -1 -5
1758 586 2 4.0999999999999998e-01 -1.2030240213715771e+01 -1.3231125851394708e+01 5.9432720652799240e+00 -3 2 -1
103 35 1 -8.1999999999999995e-01 -8.2573995840522212e+00 -1.2029930707468999e+01 7.2361637316583582e-01 -4 3 3
1872 624 2 4.0999999999999998e-01 -1.2046045055438388e+01 -1.0244518803744164e+01 3.3356739913258409e+00 8 -2 4
1871 624 2 4.0999999999999998e-01 -1.2963321271397891e+01 -9.2355891583164933e+00 4.2341007217257562e+00 8 -2 4
1870 624 1 -8.1999999999999995e-01 -1.2957517516198735e+01 -1.0091820412009643e+01 3.7175845833835233e+00 8 -2 4
460 154 1 -8.1999999999999995e-01 -1.2346263011863261e+01 -1.0900141314775986e+01 1.7270453863418034e-01 -6 -4 3
565 189 1 -8.1999999999999995e-01 -9.7359029295494395e+00 -8.2195170227102299e+00 2.2382908708949358e+00 -2 1 -2
566 189 2 4.0999999999999998e-01 -9.7027991332305703e+00 -9.1775009363093059e+00 2.5231170846748263e+00 -2 1 -2
443 148 2 4.0999999999999998e-01 -1.3868645308457289e+01 -1.1439653847279502e+01 3.7677377794145315e+00 -2 -2 -5
105 35 2 4.0999999999999998e-01 -7.5898410394563003e+00 -1.2377388798191372e+01 1.3820943007269477e+00 -4 3 3
418 140 1 -8.1999999999999995e-01 -7.5937479551046705e+00 -1.0810389472767509e+01 5.0096352239100632e+00 2 0 0
2577 859 2 4.0999999999999998e-01 -9.4701398756056303e+00 -1.2346520555900497e+01 7.3989829624592502e+00 5 0 -6
1514 505 2 4.0999999999999998e-01 -1.0182628895157762e+01 -1.1963061412761963e+01 2.3632340403853753e+00 1 -2 -1
420 140 2 4.0999999999999998e-01 -7.7689424240555400e+00 -9.8666410868261210e+00 5.2899928949035768e+00 2 0 0
1779 593 2 4.0999999999999998e-01 -5.7486611070981155e+00 -1.3539945098279999e+01 2.3474202055936360e+00 5 1 1
1757 586 2 4.0999999999999998e-01 -1.2430301287228481e+01 -1.2924082866712483e+01 4.3901522234657300e+00 -3 2 -1
419 140 2 4.0999999999999998e-01 -7.2546008389029479e+00 -1.0821158862510863e+01 4.0689875805397726e+00 2 0 0
1513 505 1 -8.1999999999999995e-01 -1.0396700441189056e+01 -1.1367357811529462e+01 3.1373562212303909e+00 1 -2 -1
199 67 1 -8.1999999999999995e-01 -8.0548043898397594e+00 -1.3911759385633710e+01 5.2114447128120140e+00 1 -4 -1
1663 555 1 -8.1999999999999995e-01 -7.1327491023196981e+00 -8.1840126929655383e+00 1.7654560359989766e+00 1 -4 -4
1778 593 2 4.0999999999999998e-01 -7.1301198441217908e+00 -1.4126233505684576e+01 2.9911150978631404e+00 5 1 1
201 67 2 4.0999999999999998e-01 -7.8933627924751484e+00 -1.2959779925445456e+01 4.9513941409465616e+00 1 -4 -1
200 67 2 4.0999999999999998e-01 -8.3781830832474391e+00 -1.3948742997790355e+01 6.1569673614781415e+00 1 -4 -1
1777 593 1 -8.1999999999999995e-01 -6.6710266230812483e+00 -1.3304479966495347e+01 2.6536107476590907e+00 5 1 1
442 148 1 -8.1999999999999995e-01 -1.4374258274958489e+01 -1.2285374600512585e+01 3.5972484330253458e+00 -2 -2 -5