2611
Atoms. Timestep: 23000000
O 4.63203 8.83471 -8.71541
H 3.82726 8.50618 -9.20988
H 4.3525 9.19376 -7.82489
O -7.9702 -4.29664 -4.07561
H -7.6349 -4.08329 -3.15794
H -7.19494 -4.4879 -4.67766
O 4.46449 11.9434 -10.7837
H 4.2566 12.7339 -10.2075
H 5.3268 11.5326 -10.4874
O 6.62343 -10.7075 -7.41055
H 6.7193 -10.274 -6.51447
H 7.4476 -11.2356 -7.61522
O -13.057 -13.89 -1.29523
H -12.615 -13.7689 -0.406389
H -12.5357 -14.547 -1.8399
O -13.3961 7.76624 -1.89084
H -12.6566 8.38811 -2.14887
H -13.0913 6.8206 -2.00464
O -5.65253 4.62139 6.18356
H -5.42095 3.77971 6.67142
H -4.99656 5.33704 6.42361
O 2.31115 13.0894 6.86545
H 1.52436 12.7482 7.37988
H 3.03043 12.3947 6.85686
O 6.04455 -14.4735 -14.7422
H 6.26654 14.7204 14.3072
H 5.08253 -14.5858 -14.4932
O -12.8326 3.41168 -14.5877
H -12.4224 2.8406 14.5086
H -13.8247 3.2856 -14.59
O -0.868648 -0.575978 -10.1387
H -0.321546 -0.0590869 -9.4802
H -0.76653 -0.171279 -11.0474
O -0.707938 -5.4865 -14.1385
H -0.517402 -5.48951 -13.1568
H -0.460303 -6.37329 -14.5289
O -13.8991 -0.522276 4.11994
H -14.29 0.378879 3.93228
H -14.627 -1.15081 4.39408
O 14.5379 -2.75949 -11.4655
H 14.8516 -3.42413 -10.7873
H 13.921 -3.20864 -12.1118
O 14.0993 12.2196 6.36885
H 14.076 13.1835 6.10335
H 13.8172 11.6536 5.59417
O 6.61692 -1.56592 5.69474
H 6.45038 -0.779254 5.10019
H 7.04216 -2.29991 5.16511
O 3.60414 3.99482 6.26179
H 4.38488 4.56928 6.50775
H 3.53726 3.23071 6.90346
O -2.68669 -11.4637 -6.02977
H -2.5215 -10.4782 -6.06757
H -1.81246 -11.9464 -5.9769
O 8.76513 -14.5657 -13.3607
H 9.1931 14.7148 -12.6262
H 7.93968 14.7704 -13.6716
O -8.14725 -14.7274 1.91553
H -8.06633 14.103 1.71758
H -7.26578 -14.3775 2.23271
O 13.8321 -2.28651 4.79309
H 13.7085 -2.54469 5.75129
H 12.9468 -2.29714 4.32816
O 7.89008 6.86982 13.8193
H 8.26452 5.94263 13.8324
H 6.90066 6.82779 13.6801
O 12.965 7.37894 -5.01324
H 12.4426 6.90685 -4.3031
H 13.416 8.17957 -4.61866
O -5.68462 -5.06535 -5.84442
H -5.66379 -6.05762 -5.96709
H -5.92532 -4.62739 -6.71064
O 10.3204 -14.759 0.295143
H 9.39147 14.678 0.293516
H 10.949 14.3734 -0.0915403
O -7.87911 5.59419 4.91975
H -8.31069 5.67027 5.81864
H -6.96766 5.19516 5.0203
O -0.702071 8.23405 -3.69801
H -0.54025 8.61886 -4.60675
H 0.172598 8.10067 -3.23193
O 0.935684 -1.84251 -13.0068
H 0.448323 -2.05507 -13.8538
H 0.344532 -2.03754 -12.2242
O 5.66367 -8.13641 -3.97607
H 6.65358 -8.17002 -4.11402
H 5.20113 -8.21822 -4.85893
O 8.61133 13.3285 -10.9743
H 9.57443 13.3184 -11.2434
H 8.05839 12.9174 -11.6991
O -2.04782 10.8846 12.0923
H -1.04844 10.8499 12.1026
H -2.34762 11.7178 11.6275
O -13.0499 -9.96536 9.81171
H -13.0673 -8.96859 9.7329
H -12.5337 -10.2263 10.6275
O 4.89367 4.91552 -13.5057
H 5.17975 5.06412 -14.4524
H 5.16696 5.6993 -12.948
O 8.65655 -6.09395 -9.08775
H 8.21971 -5.24158 -8.80015
H 9.26124 -5.91335 -9.86351
O -9.1283 -12.1672 2.0597
H -8.65977 -13.0498 2.09845
H -8.45717 -11.4395 1.91774
O 9.28739 2.49181 9.66165
H 8.5487 2.74927 9.03865
H 9.99863 3.19458 9.6438
O -9.19579 -4.20867 -8.02106
H -9.89943 -4.1227 -7.31566
H -9.20611 -5.13785 -8.39065
O -8.73353 -2.40239 -1.83494
H -9.57563 -2.86884 -1.56408
H -8.84477 -2.01951 -2.75206
O -11.2603 -10.5126 -1.56
H -10.2771 -10.5465 -1.38074
H -11.5083 -9.60051 -1.88654
O 8.03674 -5.41931 -3.18
H 8.45504 -4.64973 -3.66255
H 7.98622 -6.20867 -3.79191
O 1.76402 1.95719 4.40314
H 2.72823 2.03567 4.65653
H 1.52943 2.68236 3.7557
O 1.06567 -7.72025 -10.4217
H 0.762087 -8.60549 -10.0692
H 1.08359 -7.74787 -11.4212
O -7.04152 -11.667 -4.24411
H -8.03862 -11.7202 -4.29921
H -6.63908 -12.1196 -5.03986
O -12.3774 0.0126677 7.37666
H -12.1341 -0.0366894 6.40791
H -13.2306 0.523757 7.48049
O 13.2668 -13.0912 -10.8293
H 12.9254 -13.9643 -10.4813
H 13.9073 -13.2586 -11.5789
O 7.71517 3.42044 -11.8822
H 7.66432 3.08693 -12.8236
H 7.05433 2.9262 -11.3173
O -2.70946 -12.4438 -11.3538
H -2.2839 -13.3387 -11.4886
H -3.7041 -12.5377 -11.398
O -12.9512 -8.05629 -8.32321
H -12.7389 -7.45007 -9.0897
H -13.6237 -7.61726 -7.72735
O -9.26328 -8.77404 -11.6075
H -9.31331 -9.64144 -12.1026
H -8.896 -8.06635 -12.2111
O -14.0401 10.3365 -13.552
H -13.9714 9.45735 -13.0805
H -14.167 10.1804 -14.5316
O -14.4024 12.7964 -1.13571
H -14.0436 11.9023 -1.40381
H -14.7117 13.289 -1.9492
O -11.7213 -2.27832 -5.00255
H -10.77 -2.12655 -4.73402
H -12.071 -3.09498 -4.54338
O 7.6443 11.7353 7.70806
H 7.85244 11.7728 6.73064
H 7.92816 12.5903 8.14233
O 6.74041 9.84878 -1.03088
H 7.63514 10.2314 -0.800418
H 6.85852 9.08007 -1.65954
O 3.1507 -5.04345 -13.2246
H 3.25032 -5.83763 -12.6251
H 2.70217 -5.3213 -14.0741
O 11.6604 -9.68613 -4.83143
H 11.7516 -9.49038 -5.80787
H 12.1999 -10.4963 -4.60203
O 2.53718 12.5903 -12.7142
H 1.71544 12.275 -12.2394
H 3.34784 12.2308 -12.2519
O 10.2217 2.76736 -10.9841
H 10.1964 2.63796 -9.99278
H 9.32326 3.06799 -11.3041
O -8.44244 -12.9065 7.57381
H -7.45296 -13.051 7.56281
H -8.63847 -11.9625 7.83943
O 8.1804 -0.334918 -3.71746
H 9.06379 -0.376557 -3.2506
H 7.46631 -0.685669 -3.11154
O -2.63054 -9.1635 6.53861
H -3.50666 -9.47489 6.90674
H -2.20596 -9.90383 6.01735
O 10.3845 -10.6092 11.9343
H 10.8281 -9.71427 11.8864
H 9.59344 -10.6223 11.3225
O -8.13182 -14.4325 -10.4255
H -8.45652 -13.6432 -9.90427
H -8.23311 14.5467 -9.87417
O 8.54628 -0.0702064 7.00381
H 9.01331 -0.457296 7.79887
H 7.71854 -0.598196 6.81371
O 13.3065 1.76957 14.017
H 13.2195 2.45714 13.296
H 12.5008 1.80296 14.6084
O -12.3793 9.83071 -5.99693
H -11.6551 10.1946 -6.5827
H -13.0103 9.28413 -6.54754
O -5.96757 -11.1088 5.43863
H -5.47213 -10.9218 6.28693
H -6.15678 -10.2479 4.96632
O -5.70947 -9.4552 -12.1121
H -6.14677 -8.63354 -12.4778
H -5.74116 -10.1828 -12.7975
O 3.45225 -4.99198 8.03612
H 3.03421 -5.88639 7.87695
H 2.77647 -4.37531 8.43999
O 10.8858 9.11628 -6.36427
H 10.8478 9.67023 -7.19599
H 11.6797 8.50953 -6.40389
O -9.29126 -13.2169 13.3047
H -9.32047 -14.0177 12.7063
H -10.2228 -12.9558 13.5578
O 9.31926 -0.263121 0.778471
H 8.62569 0.264623 0.288046
H 9.19837 -0.138423 1.76331
O -3.56275 0.199715 -12.6386
H -3.91161 0.575337 -11.78
H -3.92376 -0.723645 -12.7696
O -13.9027 -4.05607 3.24028
H -13.7038 -4.75578 3.92651
H -14.6002 -3.43219 3.59284
O -9.15637 2.39572 9.06249
H -9.03049 1.42096 8.87793
H -8.26582 2.82321 9.21821
O 3.18623 0.173174 8.31164
H 3.86652 0.822934 7.97241
H 2.51552 0.656267 8.87453
O -6.53484 -7.87125 5.32821
H -6.7312 -8.15781 6.26597
H -5.62821 -7.45087 5.29106
O -8.10288 -7.94277 -1.84677
H -8.73953 -8.54525 -2.32818
H -8.47745 -7.01595 -1.8189
O -4.23837 6.79175 7.45458
H -3.39492 6.58118 6.96029
H -4.60382 7.66538 7.13318
O -9.32098 -12.0985 -8.96036
H -9.90496 -12.525 -9.65115
H -9.79133 -11.3079 -8.56826
O 1.83437 3.00241 1.72588
H 1.65896 3.97415 1.88402
H 0.993193 2.55759 1.41826
O 13.2649 3.30741 -6.19608
H 13.8769 3.94039 -5.72195
H 13.3894 3.40032 -7.18397
O -6.49162 3.66772 -5.89515
H -5.80407 2.99521 -5.62115
H -7.36848 3.20866 -6.03817
O -4.01403 -2.86578 3.77403
H -4.31281 -2.34053 2.97721
H -4.69671 -3.56461 3.98769
O -8.33189 2.68911 4.04274
H -8.2523 3.66727 4.23494
H -9.25815 2.38101 4.25998
O -11.0957 -4.5242 -1.32586
H -11.1295 -4.78723 -2.29009
H -12.0127 -4.27155 -1.01696
O 3.76491 6.6325 8.96838
H 4.06923 7.02056 9.83836
H 3.05629 5.94768 9.13856
O 0.706985 -1.37814 7.53871
H 1.4289 -0.700275 7.67804
H 0.263726 -1.21657 6.65695
O 5.20248 -11.7325 -10.5395
H 5.8146 -11.9576 -11.2976
H 5.61868 -11.0191 -9.97564
O -3.06681 -6.49804 13.0351
H -3.67169 -6.73062 12.2735
H -2.14343 -6.3322 12.6888
O 12.0822 -10.6696 0.469559
H 12.4683 -10.7705 -0.447405
H 12.2167 -11.5171 0.983045
O 5.83526 2.8852 5.11244
H 5.03367 3.28437 5.55763
H 6.60893 2.89718 5.74597
O -8.33268 0.596631 14.7172
H -8.76216 -0.286038 14.5261
H -8.2827 1.13245 13.8743
O 4.23145 14.292 -3.78546
H 4.81759 13.4869 -3.87631
H 3.49152 14.0948 -3.14229
O -14.425 3.60694 -9.21924
H -13.9609 3.17819 -9.99441
H 14.4031 3.67189 -9.41139
O 0.584306 9.85458 13.2737
H 0.731399 9.19188 14.008
H 0.978977 10.7353 13.5355
O 14.0086 -5.03568 9.42196
H 14.0289 -5.0175 8.4223
H 13.3855 -5.75487 9.72968
O -9.12802 -1.85638 -4.76041
H -8.81642 -2.80534 -4.71091
H -8.56405 -1.35412 -5.41596
O 3.25264 -3.74637 -9.45821
H 3.90991 -3.65121 -10.2059
H 3.39461 -3.01225 -8.79413
O -0.294143 10.5567 -13.1522
H 0.132014 9.83178 -12.6109
H -0.491767 11.3402 -12.5631
O -4.85893 -11.8818 -13.5915
H -5.22276 -12.5452 -14.2454
H -4.8779 -12.2751 -12.6722
O 1.17249 4.84873 -5.2726
H 0.27239 4.83122 -4.83719
H 1.8498 4.45037 -4.65402
O 5.94668 12.0644 -4.39815
H 5.24318 11.6263 -3.8385
H 6.32384 11.398 -5.04135
O -13.0111 -4.68616 6.37278
H -12.2854 -4.18485 5.90147
H -13.454 -4.08474 7.03776
O 13.9758 0.953545 -4.81671
H 13.8459 1.91601 -5.05517
H 13.6348 0.377165 -5.55937
O 11.5818 2.5281 -13.555
H 10.8137 3.16799 -13.5293
H 12.4083 2.98611 -13.2277
O -0.118445 6.97881 -12.3015
H 0.635069 6.52231 -12.7746
H 0.175427 7.88791 -12.0061
O 9.35827 -1.36489 12.1971
H 10.0315 -1.7781 11.5838
H 8.50835 -1.20007 11.6965
O -2.74275 12.99 7.25784
H -3.07209 12.1205 6.88962
H -2.78746 12.9674 8.25662
O -6.97257 14.6693 5.64924
H -6.63384 13.7285 5.66158
H -6.67339 -14.687 4.8083
O 14.3319 -0.722904 -9.69115
H 14.1567 -1.36014 -10.4417
H 13.6336 -0.00700843 -9.69182
O -7.26842 -9.26242 8.31832
H -8.14472 -9.53205 7.91897
H -7.35644 -9.21374 9.31329
O -2.74735 -10.7399 14.5683
H -3.18027 -11.1646 -14.4439
H -3.018 -9.77862 14.5152
O -3.96088 -6.62913 -4.25848
H -4.33209 -5.7497 -4.5566
H -4.68086 -7.16089 -3.81247
O -0.447371 -5.97595 12.1471
H -0.571679 -5.03471 12.4612
H -0.14754 -5.97206 11.1931
O -13.9433 -8.52627 13.3355
H -13.2774 -9.15237 12.9297
H -14.6498 -8.30873 12.6619
O 9.67507 -7.88942 -7.04994
H 10.6423 -7.8365 -7.29855
H 9.16819 -7.17235 -7.52843
O 4.92757 12.3838 -7.17448
H 5.23269 13.0924 -6.5382
H 5.72114 11.9822 -7.63171
O 11.7265 6.49988 -0.0842656
H 11.993 7.4602 -0.166882
H 12.0434 6.14031 0.793416
O 12.4786 -6.98192 -12.1035
H 13.3005 -7.45948 -12.4141
H 11.6675 -7.4643 -12.4346
O -6.10559 14.3711 -12.4353
H -6.7637 13.6948 -12.1043
H -5.59249 13.9886 -13.2037
O -9.60171 5.61991 -8.06151
H -9.67248 5.03404 -8.86886
H -9.13136 6.46807 -8.30535
O 2.09953 -4.82003 4.89303
H 3.05639 -4.64537 5.12538
H 1.9124 -5.79973 4.96551
O 7.55221 2.48418 7.11674
H 8.28004 3.1423 6.9238
H 7.94207 1.56556 7.18162
O 10.2062 -12.7437 -4.11949
H 9.88607 -13.2356 -3.30978
H 11.203 -12.6681 -4.09114
O 10.4907 -5.10775 -11.0074
H 10.9138 -5.72636 -11.6696
H 9.65787 -4.71785 -11.4003
O -12.7026 5.43382 -2.87079
H -12.3063 5.99097 -3.60059
H -12.6262 4.46614 -3.11127
O -11.0425 11.6579 -11.8813
H -11.3518 10.7417 -12.1364
H -10.05 11.6527 -11.7591
O -4.84384 -1.54346 -8.31659
H -5.63814 -2.07663 -8.60795
H -4.01458 -2.09018 -8.43278
O 3.7354 8.85927 2.74591
H 4.07595 8.01382 3.15739
H 4.50758 9.41177 2.43195
O 1.89943 12.2997 14.2422
H 1.99691 13.2378 13.9099
H 1.91371 12.2971 -14.5652
O 1.59596 13.693 1.22996
H 1.37736 13.463 2.17831
H 1.04729 13.1269 0.614678
O -2.51074 -14.1663 12.0892
H -3.3753 -14.6575 12.1956
H -2.69637 -13.2093 11.8662
O 4.46902 -8.05808 -6.41194
H 4.76715 -7.4338 -7.13408
H 3.66267 -8.56312 -6.71983
O -12.2992 -13.875 -12.1973
H -11.3302 -14.1222 -12.2096
H -12.6392 -13.9061 -11.2574
O 14.4018 1.59061 3.57979
H 13.4281 1.54227 3.35709
H 14.6029 2.47267 4.00594
O 1.78621 13.7648 -2.47085
H 1.15793 12.9916 -2.55735
H 1.28283 14.6193 -2.59933
O 6.02368 -14.7393 4.00466
H 7.01159 -14.8438 3.88985
H 5.80993 -13.7814 4.19666
O -12.1882 1.49287 13.1847
H -12.744 0.768936 12.7759
H -11.7092 1.99306 12.4633
O -8.80809 -8.31319 4.10367
H -7.92322 -8.22282 4.56072
H -9.32237 -7.46112 4.20154
O 7.56688 -9.41521 -11.9855
H 6.8317 -8.79955 -12.2693
H 7.72794 -9.31182 -11.0039
O -4.36618 -7.41923 -14.4623
H -3.76043 -6.92818 14.7189
H -4.01106 -7.34766 -13.5302
O -9.40734 -6.59741 -9.83266
H -10.0945 -5.91456 -10.0807
H -9.56396 -7.43394 -10.3578
O -7.70814 -11.9434 11.1859
H -8.3216 -11.9817 11.9747
H -7.42585 -10.997 11.0288
O -0.233371 -10.281 7.89193
H -0.771334 -9.51172 7.54716
H 0.740653 -10.0688 7.81246
O 11.8391 1.20035 -2.87569
H 12.6936 1.14574 -3.39232
H 11.6506 2.15453 -2.6431
O -5.7948 7.9207 -7.44804
H -5.79701 7.60888 -6.49786
H -5.22675 7.30873 -7.99837
O -12.7603 -14.4458 2.30835
H -12.0371 -14.7663 2.92014
H -12.4218 -13.6766 1.76634
O 11.4558 5.73357 8.06478
H 11.7771 6.32243 8.80645
H 11.481 6.23965 7.20262
O -6.94434 -2.29892 5.44238
H -7.04555 -3.11535 4.87381
H -6.79647 -1.50151 4.85728
O 12.9271 -3.17489 -5.24053
H 12.9763 -2.3331 -5.77816
H 12.4689 -2.98893 -4.37129
O -1.03394 -5.72766 -10.6694
H -0.398582 -6.38332 -10.2614
H -1.90721 -5.76301 -10.1834
O -3.92282 12.1373 -2.43252
H -3.04327 11.6927 -2.26292
H -4.42102 12.2304 -1.57042
O -13.5708 -10.3098 1.17332
H -13.1424 -11.2006 1.02195
H -13.5001 -10.0659 2.1406
O 2.80589 -7.29069 11.3108
H 2.52524 -6.58729 10.6577
H 3.75297 -7.12907 11.5883
O 1.66916 -7.55367 4.71917
H 2.62577 -7.47124 4.43958
H 1.30814 -8.43567 4.41617
O 6.3227 -8.45075 14.5447
H 5.59663 -9.01667 -14.872
H 7.19937 -8.70407 -14.8536
O 13.0627 8.85394 -0.366879
H 12.9537 9.74611 -0.80533
H 13.99 8.77318 -0.00130367
O 7.69906 9.53062 -12.4173
H 8.24903 9.06721 -13.1121
H 7.94282 9.18206 -11.5122
O 3.05772 1.37062 -6.91089
H 3.14794 1.59872 -5.94141
H 3.73592 1.88248 -7.43826
O 4.8362 3.37131 -7.60998
H 5.35701 3.37402 -6.75627
H 4.81481 4.29595 -7.99031
O 7.96063 -6.62181 -13.5222
H 7.9411 -5.96899 -12.7649
H 7.1306 -7.17927 -13.5032
O -1.03019 14.7123 3.29543
H -0.421501 14.1372 3.84207
H -0.487925 -14.5465 2.65888
O 5.29547 -8.69406 2.72095
H 5.38276 -9.66778 2.5104
H 5.70624 -8.15577 1.98503
O -3.15022 6.51818 -5.16218
H -2.42475 6.5763 -4.47633
H -4.03497 6.42844 -4.70475
O -12.8709 -14.7397 13.3025
H -12.4761 14.6392 12.4897
H -12.9107 14.3994 14.0455
O 5.22322 -4.84793 4.34341
H 4.9585 -4.19148 3.63697
H 6.10173 -5.2606 4.10259
O 11.7304 12.578 2.2347
H 11.9555 13.1311 1.43251
H 11.2694 11.7399 1.94302
O -1.00461 13.378 -5.69541
H -0.883073 14.0506 -6.42537
H -1.97899 13.1861 -5.57783
O -6.74144 -7.25759 -12.9603
H -7.50684 -6.64215 -13.1486
H -6.09202 -7.22404 -13.72
O 6.96021 -3.00785 -8.66477
H 7.25721 -2.72354 -9.57638
H 7.68426 -2.81401 -8.00276
O -13.6719 -7.27395 9.6175
H -14.1028 -7.12744 8.72704
H -12.9538 -6.592 9.75654
O 11.913 -3.73516 -8.60688
H 12.8142 -4.07608 -8.33914
H 11.6431 -4.15245 -9.47468
O 13.4622 -9.47191 4.6086
H 12.4732 -9.4681 4.46084
H 13.8638 -10.2683 4.15634
O -3.7947 -9.17284 0.339399
H -3.3137 -8.43111 0.806882
H -4.7809 -9.01534 0.391162
O -14.8048 14.0855 -5.61505
H -14.1552 14.184 -6.36898
H 14.1118 14.4452 -5.8933
O -12.7964 9.88057 3.11531
H -13.1667 10.8042 3.21453
H -11.8866 9.92867 2.70299
O -5.30504 -3.27359 12.9559
H -6.16694 -3.35947 13.4557
H -4.60997 -3.84755 13.389
O 13.7264 -12.8055 6.34946
H 13.339 -12.3859 7.17041
H 13.177 -12.5503 5.55376
O 6.07551 -0.9574 -1.67363
H 5.17033 -0.987178 -2.09769
H 6.09652 -1.57694 -0.888897
O 4.6988 -7.23494 -0.286983
H 4.79934 -7.7635 -1.12994
H 3.73857 -6.98457 -0.163062
O 3.63544 -9.31551 -2.34245
H 4.31017 -8.82875 -2.89732
H 2.76336 -9.34816 -2.83079
O -6.10459 -4.60152 -8.55212
H -7.10028 -4.5109 -8.53061
H -5.81526 -4.88392 -9.46678
O 13.0953 -0.805877 -6.92928
H 13.7366 -0.992171 -7.67369
H 12.1874 -0.626725 -7.3084
O -5.41528 -12.7187 -11.0237
H -6.13363 -13.3731 -11.2598
H -5.58625 -12.3516 -10.1093
O 6.00325 -3.08913 -0.195351
H 6.86205 -3.42778 0.189175
H 5.7582 -3.63561 -0.996216
O 9.78346 -9.93121 7.36494
H 10.7678 -9.8967 7.1921
H 9.39056 -9.02044 7.23768
O 9.04402 4.2276 12.7167
H 9.78766 4.68111 12.2253
H 9.13589 3.23656 12.6194
O -9.46525 -9.43441 0.423174
H -9.86032 -9.72835 1.29357
H -9.85512 -8.55148 0.161415
O -10.0832 -14.4124 9.35675
H -9.62958 -13.8182 8.69255
H -9.9769 14.4406 9.07738
O -11.632 5.02711 5.30914
H -11.4936 5.43425 6.21199
H -11.5169 5.72873 4.60589
O -11.2159 3.28602 -0.489894
H -10.427 3.82064 -0.186959
H -11.3869 3.46392 -1.45902
O 13.3858 -14.4693 11.3079
H 13.0063 -14.7615 10.43
H 14.1619 -13.859 11.1489
O -11.0714 11.3555 11.5537
H -11.2468 11.796 10.6732
H -10.0957 11.1521 11.6362
O -14.4054 -0.184611 -2.7167
H -14.6218 0.179476 -3.62263
H 14.8046 -0.961761 -2.51845
O -3.68274 -10.9652 2.71584
H -3.59532 -10.4526 1.86161
H -4.63292 -10.9361 3.02629
O 0.095238 -13.9483 -3.01202
H 0.398014 -13.5425 -3.87443
H -0.0234399 -13.2282 -2.32834
O 5.15194 -14.8667 7.61387
H 5.22289 14.638 6.66336
H 4.62122 -14.0201 7.65541
O -1.73395 -1.94139 8.5051
H -0.938499 -1.80773 7.91394
H -1.68023 -2.84138 8.93777
O -13.1079 -10.653 -8.16821
H -13.1515 -9.65579 -8.22917
H -13.7492 -11.0553 -8.82156
O -11.2248 1.4173 -12.3808
H -10.8139 0.915898 -11.6193
H -11.3379 0.803178 -13.1619
O -5.34416 2.83939 -0.576999
H -5.78801 2.01268 -0.231124
H -5.71544 3.63926 -0.105351
O -3.3463 8.64493 12.011
H -2.86615 9.51351 12.1339
H -3.47984 8.47304 11.035
O -12.9246 12.9969 -14.3554
H -12.5153 12.6955 -13.4942
H -13.6131 12.3332 -14.6476
O -12.6942 8.76434 7.42975
H -12.1282 8.78169 6.6055
H -13.5501 8.28464 7.23631
O -4.41713 1.34226 14.9004
H -4.1359 0.861141 14.0701
H -4.32796 0.730545 -14.1208
O -9.01223 14.1035 11.8863
H -9.3111 13.2633 12.3388
H -9.61999 14.3023 11.1174
O 4.1475 10.7372 13.3079
H 3.48921 11.3267 13.7761
H 3.94182 9.78007 13.512
O -7.70665 -3.42634 14.3912
H -7.6149 -3.33168 -14.4248
H -8.32309 -2.71934 14.0445
O 13.6794 10.9372 -5.73471
H 14.3046 11.1888 -6.47363
H 14.1916 10.4857 -5.00404
O 11.4075 6.92678 -2.97169
H 10.936 7.80488 -3.05375
H 11.297 6.5747 -2.04223
O -5.92169 3.8991 14.8242
H -6.33699 3.94082 13.9154
H -5.75888 2.94423 -14.7346
O 11.9212 6.29424 -7.1334
H 12.3658 6.57373 -6.2823
H 10.9325 6.24399 -6.99217
O -2.85473 3.02 12.2004
H -3.16551 3.69815 12.8664
H -2.44129 2.24633 12.6805
O -6.93667 9.57138 1.51466
H -6.23854 10.0587 2.03929
H -6.99926 8.62754 1.83921
O -3.81771 9.00082 0.490789
H -4.70802 9.4395 0.36844
H -3.88888 8.03121 0.256552
O 13.0571 8.56589 -10.2979
H 13.613 9.2933 -9.89555
H 12.1111 8.65861 -9.9869
O 4.31325 11.3448 6.8111
H 4.9439 11.5003 7.57147
H 3.94862 10.4152 6.86524
O -10.7256 12.2634 14.2588
H -10.9572 11.8895 13.3606
H -11.5634 12.4124 14.784
O 4.53761 -3.57001 -4.54324
H 5.10343 -3.93176 -3.80225
H 4.65769 -2.57889 -4.60093
O 13.9451 4.6467 -12.8626
H 14.4334 4.73764 -13.7306
H 14.4731 4.06643 -12.2424
O 12.1643 -12.1426 4.25395
H 12.1331 -12.7098 3.43089
H 11.2933 -11.6633 4.36166
O 9.82542 -8.44486 -1.18791
H 9.53867 -7.91252 -0.391377
H 9.44962 -9.36938 -1.12382
O 9.14264 -11.5891 14.128
H 9.5743 -11.0527 13.4028
H 9.76561 -11.6584 -14.9001
O -10.4836 2.32027 5.96709
H -10.0418 2.64377 6.8039
H -11.0545 3.04882 5.5885
O 14.3174 -8.33038 -4.72906
H 14.3798 -9.25423 -4.35133
H 13.3595 -8.04401 -4.75289
O 5.66904 -1.60127 8.34783
H 5.7664 -1.48097 7.35985
H 4.75594 -1.30777 8.63098
O -12.1075 -1.10752 -0.987957
H -11.9879 -1.61301 -0.133414
H -13.0508 -1.207 -1.30483
O 5.14606 10.1022 -12.7477
H 6.09873 9.79915 -12.7731
H 5.08561 10.9709 -12.256
O 3.59425 -2.36689 13.9556
H 3.13139 -3.17182 13.5842
H 3.32718 -2.23996 -14.8964
O -10.7838 2.97486 11.117
H -10.8273 3.97286 11.1635
H -10.5072 2.69577 10.1974
O 4.84171 -0.698163 -4.66867
H 4.28466 0.131145 -4.62371
H 5.70475 -0.546534 -4.18675
O -1.70869 9.61436 4.2298
H -1.54665 8.75623 3.74253
H -1.72202 10.3713 3.57641
O 14.8116 -8.59547 -0.326771
H 13.892 -8.48056 0.0489987
H -14.4963 -9.27146 0.215138
O 8.95315 13.8715 3.02626
H 9.10825 14.8403 3.21976
H 9.27335 13.6607 2.10263
O -2.54637 -1.06858 14.7187
H -2.43669 -1.83611 -14.457
H -3.34136 -1.2293 14.1337
O -4.98331 14.4102 12.4722
H -4.86368 14.1239 13.4228
H -5.35205 13.6489 11.9387
O -3.11774 -7.91634 9.45341
H -2.20747 -8.27284 9.66407
H -3.43007 -8.29392 8.58165
O 6.7784 5.19675 9.8434
H 6.63219 6.0084 10.409
H 6.01035 4.56689 9.95936
O 1.0225 9.18744 -11.1824
H 1.04222 10.067 -10.7069
H 1.67532 8.56241 -10.7543
O 5.34895 3.12171 10.8191
H 6.0829 3.26628 11.4827
H 4.47163 3.07632 11.2969
O 9.66531 -9.46249 1.47835
H 10.4562 -9.79073 0.961793
H 8.84871 -9.96366 1.19186
O 2.0641 -1.50876 2.35366
H 1.61305 -1.09516 3.14459
H 1.46865 -1.43426 1.55368
O -5.38564 -5.16292 4.34342
H -6.37009 -5.19524 4.5163
H -4.90878 -5.7148 5.02761
O 3.58476 3.64205 -10.4886
H 4.48112 3.20952 -10.391
H 3.29663 4.01467 -9.60643
O -7.64669 -9.07845 11.0655
H -8.47973 -8.66114 11.4288
H -6.94157 -9.08695 11.7746
O -8.2312 -0.181011 7.86729
H -7.24741 -0.315934 7.74886
H -8.65153 0.00442258 6.97903
O 0.55702 7.22559 6.89064
H 1.32273 7.82542 6.65834
H 0.308913 7.35825 7.85029
O -8.57917 1.32841 -5.68004
H -8.56714 1.47228 -4.69048
H -9.39024 1.76415 -6.07039
O -8.9047 5.27027 -0.54005
H -8.50629 4.9326 -1.39288
H -9.65253 5.90075 -0.748177
O -10.3814 0.748305 0.107975
H -10.7334 1.57955 -0.322378
H -10.9185 -0.0381269 -0.197209
O -5.47949 -8.91598 13.0672
H -5.38647 -8.24771 12.329
H -4.84731 -8.68562 13.807
O -7.27086 8.7433 14.0058
H -7.11899 8.34538 -14.8967
H -7.09425 9.72701 14.0403
O -5.87445 14.0401 9.78347
H -6.08133 14.4431 8.89193
H -6.2297 14.6317 10.5072
O -1.18044 -9.44813 10.4786
H -1.59955 -10.3561 10.4714
H -0.326514 -9.47926 10.9981
O -1.67067 7.46304 2.08929
H -2.14868 8.29312 1.80199
H -2.26539 6.9261 2.68768
O 8.6501 -12.4709 -8.44492
H 7.95349 -13.1439 -8.69372
H 9.31305 -12.3867 -9.18889
O -5.0945 -2.91598 -3.69788
H -4.12153 -2.98219 -3.47646
H -5.32442 -3.59424 -4.39586
O 6.28004 -9.37956 9.17314
H 5.79679 -9.73497 9.97329
H 6.10873 -8.3979 9.08912
O 9.70725 8.42069 7.94131
H 10.1717 8.77802 7.13095
H 8.78869 8.81188 7.9987
O -8.18419 -0.714196 -12.3877
H -7.8886 -0.107459 -13.1256
H -7.406 -0.921708 -11.7949
O 6.09896 -6.74776 7.96972
H 5.98723 -7.0019 7.00899
H 5.50608 -5.97035 8.17998
O -10.7735 -9.53036 -9.30893
H -10.4032 -9.12764 -10.146
H -11.7385 -9.28389 -9.21909
O -13.9509 3.04588 10.3078
H -14.0731 2.53643 9.45598
H -13.0032 2.95892 10.6151
O 10.4597 2.72598 -5.50422
H 11.4136 2.96505 -5.68616
H 10.0638 3.39235 -4.87237
O 6.37708 -14.0916 -1.4807
H 6.31327 -13.0942 -1.5147
H 5.47623 -14.4766 -1.27984
O -2.47591 11.9696 2.56742
H -2.809 12.4108 1.73408
H -2.11014 12.663 3.18832
O 12.7769 0.613813 7.97461
H 13.0243 -0.345434 8.11128
H 12.013 0.67267 7.33193
O 8.5241 9.34792 12.1485
H 8.07296 9.54429 13.0192
H 9.2231 8.64612 12.2862
O -14.0753 1.12698 -8.14577
H -14.7492 0.563255 -8.62342
H -14.1766 2.08035 -8.43025
O 11.8036 -6.5666 8.30223
H 11.8271 -7.31836 7.64316
H 11.2067 -6.81158 9.06623
O -13.4852 -4.13259 -0.241096
H -14.1355 -4.75775 0.190561
H -13.1823 -3.45303 0.427148
O 2.73087 4.00744 -2.9762
H 2.41203 4.61375 -2.24764
H 3.69033 4.20451 -3.17784
O 2.2902 -13.8727 11.2216
H 1.40873 -13.8331 10.751
H 2.82557 -14.6374 10.8628
O -10.4061 -9.33437 -6.4943
H -10.5818 -9.38615 -7.47743
H -11.2486 -9.08258 -6.01797
O 13.6122 10.2571 4.59066
H 13.8217 11.0141 3.97172
H 14.2882 9.53027 4.46912
O 9.53594 4.69344 -0.234031
H 10.3436 5.26978 -0.109314
H 9.09599 4.91969 -1.10313
O -5.1994 -12.6897 -6.58119
H -4.55612 -11.9732 -6.31118
H -5.62709 -12.4432 -7.45089
O -13.2545 12.6183 -9.94691
H -12.5355 12.1868 -10.4918
H -13.1835 13.6125 -10.0287
O -14.5559 10.3484 13.442
H -13.8292 10.265 12.76
H 14.7682 11.214 13.3099
O 6.87551 9.12394 8.01068
H 6.80049 10.1034 7.8231
H 6.78937 8.96538 8.99431
O 2.83423 -13.3497 -8.97849
H 3.40156 -13.0208 -9.73353
H 2.98967 -12.7794 -8.17184
O -3.17737 -6.79792 -1.59942
H -3.18524 -6.68782 -2.59335
H -3.70797 -7.60793 -1.34958
O -11.6267 8.76974 12.4606
H -11.3059 9.71495 12.5214
H -11.8418 8.55128 11.5087
O -8.9972 -5.76727 -13.2123
H -9.74592 -6.24709 -13.6697
H -9.27091 -4.82378 -13.0252
O 2.89778 -10.1694 0.703111
H 3.24529 -9.59081 -0.0348089
H 1.90237 -10.0863 0.751244
O 7.57012 12.5212 12.014
H 8.38345 12.2659 11.4911
H 7.77619 13.3171 12.5834
O -9.35567 -10.9365 -13.5108
H -9.35867 -11.8551 -13.1156
H -8.6138 -10.8628 -14.1774
O -1.78064 -7.51194 1.81272
H -2.10639 -6.5695 1.73681
H -1.63777 -7.73865 2.77619
O 2.30121 -11.3919 13.0463
H 2.9928 -11.3445 13.7671
H 2.09321 -12.3495 12.8465
O -9.80088 -11.5338 -5.02633
H -10.5849 -11.9277 -4.54652
H -10.1173 -10.8232 -5.65476
O -11.5221 7.12449 3.52427
H -12.4619 6.86476 3.30224
H -11.0748 7.48811 2.70706
O -3.56415 3.90289 -2.53597
H -4.09234 3.52327 -3.29556
H -3.64847 3.30428 -1.73934
O -11.9258 -0.253299 -14.3982
H -12.7229 -0.633391 -13.929
H -12.2226 0.228835 14.5848
O 8.65083 -11.0604 -0.993718
H 8.98193 -11.8426 -1.52153
H 7.65129 -11.0407 -1.01837
O 7.61108 8.96141 3.50923
H 7.51104 8.66982 4.46057
H 7.30897 9.91033 3.41792
O -2.73877 4.85113 -7.30364
H -2.45549 3.96939 -6.92636
H -2.96927 5.47476 -6.55662
O 5.03926 6.55201 4.02146
H 5.75934 7.1377 4.39366
H 5.45005 5.73489 3.61695
O -2.06883 3.46654 -10.7408
H -1.76928 3.83124 -9.85918
H -2.12602 4.21014 -11.4071
O -12.0761 12.3973 8.16259
H -12.1747 11.4029 8.12187
H -12.9813 12.8209 8.19667
O -5.86447 -0.0863848 -3.00817
H -5.81598 -0.321433 -2.03736
H -5.54082 -0.858799 -3.55471
O 10.4999 11.072 -8.52342
H 10.1366 10.4948 -9.25477
H 11.491 11.157 -8.62704
O -3.09013 -11.4387 11.9248
H -4.02153 -11.0857 11.8354
H -2.78842 -11.3465 12.8738
O -5.39673 -5.36768 -11.2096
H -4.54394 -5.63694 -10.7621
H -5.77357 -6.14938 -11.7066
O 10.5588 -1.10306 -8.55469
H 10.8923 -2.04324 -8.48492
H 9.67119 -1.02967 -8.09982
O 14.4199 9.08031 -3.53879
H 13.8756 9.62368 -2.89957
H -14.5479 8.77728 -3.08783
O -8.40507 -6.82783 8.39179
H -7.92861 -7.69334 8.23698
H -7.73722 -6.11076 8.59142
O -13.356 -2.71451 8.37655
H -12.6848 -1.97803 8.29178
H -13.2883 -3.12409 9.28634
O -0.381773 -14.6961 10.1156
H -1.17252 -14.5212 10.7023
H -0.526056 -14.2656 9.22456
O 0.0973498 -7.75367 14.0699
H -0.277703 -7.1238 13.3897
H 0.27613 -8.63932 13.6412
O 1.36605 -5.54541 -8.71496
H 1.4575 -6.25337 -9.41533
H 2.05207 -4.83414 -8.86842
O -8.28932 12.7654 -11.9308
H -7.65692 12.0178 -12.1342
H -8.63908 13.1481 -12.7859
O -11.5807 -12.3492 0.576373
H -10.8369 -12.2067 1.2295
H -11.4117 -11.8046 -0.245189
O -2.4021 3.29939 -14.5137
H -2.31571 4.1172 -13.9447
H -3.25625 2.82846 -14.293
O -11.8228 -0.53717 9.92139
H -11.8541 -0.41146 8.92978
H -10.892 -0.374606 10.2488
O -10.6027 -5.70672 -3.91294
H -11.0263 -5.8221 -4.81143
H -9.61797 -5.57185 -4.02355
O -0.0643211 -9.57898 1.22075
H -0.760653 -10.1957 0.853514
H -0.412791 -8.64163 1.2151
O 1.13511 -11.8082 -5.23018
H 2.06946 -11.7739 -4.87536
H 0.73944 -10.8899 -5.21652
O -1.77881 -6.69532 -6.35678
H -0.942182 -6.18559 -6.15604
H -2.46513 -6.49856 -5.65656
O -6.37136 0.706325 11.2404
H -7.05565 1.33258 11.614
H -5.77516 1.20224 10.609
O -13.851 3.5241 2.46949
H -13.627 3.55232 1.49527
H -14.6474 2.93616 2.61152
O 10.2172 8.20753 3.44826
H 10.4391 7.24339 3.59421
H 9.249 8.29502 3.21386
O 14.7007 -14.7588 4.27214
H 14.5408 -13.9301 4.80849
H -14.543 -14.5373 3.47632
O 14.6466 8.38958 10.6825
H 13.7857 7.94245 10.4396
H 14.6438 9.32809 10.3372
O -8.62778 8.49536 7.23717
H -9.31901 8.35704 6.52785
H -9.02008 8.27981 8.13144
O 7.66016 8.41841 -3.8024
H 7.44174 7.63109 -3.22578
H 8.6482 8.57274 -3.7955
O -11.0392 -2.79894 5.46295
H -11.195 -1.84556 5.20439
H -10.6344 -2.8346 6.37669
O 9.18101 4.72301 -4.26771
H 8.63476 5.54253 -4.44111
H 8.68891 4.12139 -3.63845
O -0.0391084 3.79632 -7.73524
H -0.432486 4.62183 -8.14004
H 0.355461 4.01786 -6.84344
O 14.2821 -7.04711 11.6766
H 14.4626 -7.14073 10.6974
H 14.6386 -6.17012 11.9989
O -7.06121 12.3152 -3.01772
H -6.36521 12.4019 -2.30488
H -6.75821 11.6502 -3.70035
O -0.449648 -13.255 7.89509
H -0.477696 -12.2656 8.03795
H -1.25074 -13.5385 7.36787
O 8.96067 6.69485 -6.30567
H 7.99936 6.68316 -6.581
H 9.17075 7.56791 -5.86555
O -0.624824 -14.6052 14.1135
H -1.02105 -14.6082 13.1953
H -1.23018 14.7103 14.7393
O 0.233775 9.94194 1.86671
H -0.0705284 10.8672 1.6401
H 0.81922 9.97264 2.67688
O -5.8306 -1.18732 -11.1335
H -5.25301 -1.9128 -11.5078
H -5.29222 -0.621432 -10.509
O 6.85084 4.39139 3.0718
H 6.46684 3.90885 3.85905
H 7.75062 4.01258 2.85508
O 12.3782 0.0466575 -12.5418
H 12.1122 0.974614 -12.803
H 12.4487 -0.0120717 -11.546
O -14.6079 -12.3025 10.898
H -14.4504 -11.4147 10.4656
H -13.9939 -12.9823 10.4967
O -1.23612 4.7389 3.73559
H -0.378075 4.6246 4.23636
H -1.03789 4.94217 2.7767
O 8.09429 -9.12974 -9.29312
H 7.45386 -9.55258 -8.65193
H 8.07079 -8.13625 -9.1813
O -10.4238 8.34802 1.32413
H -9.48669 8.60125 1.56463
H -10.4556 8.05811 0.367566
O 12.7678 -11.4658 8.74448
H 13.0171 -11.6876 9.6872
H 11.975 -12.0112 8.47218
O -3.04729 13.4983 0.585239
H -3.91267 13.4062 0.0925831
H -2.74766 14.4519 0.55729
O 11.9756 6.00923 -11.1854
H 12.7607 5.45965 -11.4711
H 12.2559 6.96387 -11.0847
O 8.36232 6.02143 7.58242
H 8.95401 6.80949 7.75252
H 8.13122 5.58433 8.45169
O 3.41319 -13.6566 0.646976
H 3.66546 -13.6629 1.61465
H 3.01217 -14.5392 0.401309
O -1.93966 6.24842 5.97434
H -1.81332 5.70386 5.14515
H -1.17044 6.87873 6.0796
O -11.4775 -7.79891 -2.2492
H -12.4014 -7.47898 -2.03919
H -11.0034 -7.11102 -2.79889
O 4.08597 14.0007 -9.18867
H 4.15663 13.4545 -8.35396
H 3.53572 14.816 -9.00798
O 12.3614 -0.968516 11.3012
H 12.2421 -1.08684 12.2871
H 13.2755 -0.607238 11.117
O -5.21975 11.3003 3.01585
H -4.2285 11.176 3.06092
H -5.55725 11.6125 3.90395
O 14.7579 -4.49157 -9.18012
H 14.4313 -5.43224 -9.27247
H -14.852 -4.30015 -8.21864
O 0.679026 -9.98807 3.86263
H -0.146891 -10.4832 4.13236
H 0.682163 -9.86039 2.87079
O 10.6701 7.678 12.6436
H 11.2676 8.44529 12.8766
H 10.7108 6.99136 13.3695
O -5.4885 -1.98992 7.78235
H -6.05969 -2.42127 7.08397
H -5.87413 -2.17125 8.68705
O 1.72494 8.02183 -2.62734
H 2.16728 8.80242 -3.06903
H 1.75397 8.14001 -1.63474
O -14.085 -3.96833 -6.61967
H -14.0833 -4.05971 -5.62382
H -13.815 -3.03842 -6.86953
O 10.229 -12.3591 -13.0116
H 9.49764 -13.0193 -13.1831
H 10.3926 -12.2911 -12.0274
O 13.3485 11.2109 -9.44434
H 14.1438 11.4205 -8.87545
H 13.438 11.6741 -10.3261
O -8.17187 -4.60351 4.53153
H -8.95817 -4.89997 5.07366
H -8.48756 -4.04604 3.76364
O 6.28217 -11.3937 -3.88518
H 6.99715 -10.7028 -3.99247
H 6.52667 -12.2103 -4.40802
O 10.8647 -9.29833 3.86502
H 10.4864 -8.4555 4.24792
H 10.3621 -9.54262 3.03568
O -3.85616 1.19085 -10.072
H -3.15781 1.89267 -10.2129
H -3.63563 0.660744 -9.25323