2611
Atoms. Timestep: 8000000
O -0.607537 -4.13329 -9.90031
H -0.955843 -3.83614 -9.01128
H 0.209486 -4.6944 -9.76758
O 10.2452 7.73374 -5.42933
H 11.2059 7.55596 -5.21631
H 10.1865 8.35747 -6.20876
O -12.0978 -0.45333 7.82922
H -13.0464 -0.13701 7.8372
H -11.9059 -0.909659 6.96035
O -11.5954 -3.2584 12.0629
H -12.583 -3.14923 12.1754
H -11.3347 -2.99566 11.1339
O -5.80643 -3.64196 -6.85093
H -6.49835 -4.15453 -6.34249
H -6.23787 -2.86643 -7.31179
O -2.47526 -8.639 -7.61217
H -1.58114 -8.41 -7.99701
H -2.58633 -8.17974 -6.73084
O -1.53015 3.96307 10.1369
H -1.83527 3.40589 9.36459
H -0.55281 4.15367 10.0448
O -1.38378 -3.34881 9.76777
H -2.32025 -3.42624 9.42571
H -1.00817 -4.26287 9.92078
O -4.94962 6.18885 -1.10774
H -5.7451 5.88573 -0.583028
H -5.1246 6.05835 -2.08362
O 6.1827 9.47055 8.88371
H 6.76703 9.62839 9.67971
H 5.62601 10.2834 8.71246
O 13.0101 -12.003 -13.026
H 12.0852 -12.1862 -13.3592
H 13.6315 -12.7113 -13.361
O 14.8353 -12.5121 12.6618
H 13.8527 -12.6139 12.8172
H -14.6911 -11.9598 13.3944
O -5.71885 -14.21 14.5925
H -5.57798 -14.2736 -14.3437
H -5.75012 14.7948 14.2005
O -5.2366 5.64301 -4.25979
H -5.78504 4.80682 -4.25865
H -4.36206 5.46741 -4.71182
O -11.7985 7.88267 14.9093
H -12.2077 8.47073 -14.3173
H -12.409 7.8284 14.1191
O -6.79501 11.0509 12.2943
H -6.47674 10.2821 12.8489
H -6.91278 10.7525 11.3472
O 4.48753 4.38349 2.58493
H 4.78504 3.42906 2.56176
H 3.83336 4.51071 3.33049
O 14.5358 -7.21499 6.88472
H 14.498 -8.1814 7.13892
H 14.8107 -6.67213 7.67829
O 2.50899 -8.31873 -10.3143
H 2.47515 -8.40278 -9.31838
H 3.2747 -8.85572 -10.6683
O 1.66107 -5.68878 -10.0722
H 2.63622 -5.64924 -9.85423
H 1.39046 -6.64034 -10.2181
O 6.67385 6.98844 -4.56155
H 7.20757 6.69443 -5.35445
H 6.46685 6.19664 -3.98692
O 7.58523 -10.5278 -10.9145
H 7.93044 -10.5157 -9.97606
H 8.33626 -10.3428 -11.5483
O -0.941235 -14.7369 10.0935
H -1.12711 14.612 9.29701
H -0.684884 14.6104 10.869
O 7.18931 14.8051 10.2625
H 7.74737 -14.5861 9.62649
H 6.2914 -14.6896 10.3586
O 8.17697 1.08667 -0.983839
H 8.68615 1.25864 -1.82714
H 7.3256 0.608761 -1.2001
O 3.94836 1.51358 0.527617
H 4.51552 1.66681 -0.281606
H 3.11104 1.03566 0.262156
O 10.1516 -12.8324 -6.55706
H 9.98287 -12.5609 -5.60953
H 11.1324 -12.7875 -6.74706
O -5.27558 8.37724 -3.38015
H -4.41753 8.81965 -3.64095
H -5.32261 7.46942 -3.79685
O -8.837 -2.94139 -8.3849
H -9.18585 -2.77284 -9.30679
H -9.44567 -3.57631 -7.9091
O -2.93147 -0.406535 13.7047
H -2.26258 -0.90695 13.155
H -2.758 0.575332 13.6283
O 0.740792 9.0288 14.5992
H 1.03361 9.79122 -14.748
H 1.05475 9.18041 13.662
O 12.9364 -12.7752 5.08927
H 13.823 -12.3191 5.16615
H 13.0645 -13.6904 4.7072
O -6.44801 -9.39596 -10.9492
H -5.86859 -9.9358 -11.5598
H -6.58151 -9.89216 -10.0914
O -11.1312 2.63367 -8.19677
H -11.3799 1.88557 -7.58156
H -11.371 2.38682 -9.13567
O 4.37092 -11.9662 -4.52598
H 3.76603 -12.7225 -4.77501
H 5.09195 -11.8759 -5.21298
O -9.48691 -11.7538 0.488952
H -9.89303 -11.156 1.18011
H -9.97403 -11.641 -0.377068
O -0.028384 -13.7877 -13.5714
H -0.905563 -13.9406 -14.0266
H 0.0460078 -14.3932 -12.7791
O 1.95216 3.6893 8.20721
H 1.35036 4.4459 7.95152
H 1.78316 3.43626 9.15979
O 7.83103 10.1787 10.9892
H 7.53139 10.5955 11.8474
H 8.61836 10.681 10.6318
O -1.2172 13.3777 -2.34415
H -1.01264 12.7445 -1.59768
H -2.20361 13.5367 -2.38548
O -13.9212 -6.56387 9.20067
H -13.2792 -5.92812 8.77211
H -13.4147 -7.31912 9.61672
O -0.640216 11.4445 -0.40949
H 0.251994 11.1144 -0.101332
H -1.32185 11.2768 0.30271
O 5.83529 6.07856 -13.9028
H 5.7751 6.22663 -14.89
H 4.9215 6.13645 -13.5008
O -3.17977 -8.08988 -13.6465
H -2.64871 -7.2426 -13.6375
H -4.0221 -7.94977 -14.167
O 4.39628 3.04411 -6.84466
H 4.41873 2.71955 -7.79026
H 4.60394 4.02207 -6.82291
O -4.93045 8.16082 2.28393
H -5.25523 9.00866 2.70307
H -3.99796 7.97253 2.59216
O -9.86723 13.9401 0.21968
H -9.24815 14.6447 -0.12695
H -10.7999 14.1382 -0.0816579
O -2.25449 -6.92521 -5.61098
H -2.57896 -7.32024 -4.75153
H -2.64933 -6.01409 -5.72908
O -13.1729 -4.14627 7.55281
H -13.9274 -3.51629 7.73661
H -12.6249 -3.79721 6.79264
O 7.02188 -13.9307 3.30845
H 7.12364 -13.2099 3.99405
H 7.07005 -13.5298 2.39362
O 3.58633 6.07557 -8.39725
H 4.12341 6.40592 -7.6211
H 2.75391 6.62293 -8.48364
O -12.5924 -13.1602 -5.26792
H -12.991 -12.3613 -4.81741
H -13.3136 -13.6772 -5.72902
O -3.99329 13.1391 -1.34032
H -4.84738 13.5445 -1.66622
H -3.67792 13.6329 -0.529944
O -12.8284 -11.9464 -8.29082
H -12.5775 -12.7618 -8.81245
H -13.38 -12.2129 -7.5005
O 2.1821 13.9417 4.15932
H 2.99105 13.4726 4.51366
H 2.39101 14.9102 4.02385
O -10.9139 -5.26295 -8.05014
H -10.4789 -6.04055 -8.50409
H -11.7515 -5.01792 -8.53833
O -9.10137 -9.46068 -14.2057
H -8.70291 -10.3778 -14.2128
H -9.53582 -9.29289 -13.3208
O 14.4971 -2.66306 7.10127
H 14.2416 -1.97361 6.4235
H 13.9377 -3.48171 6.97116
O 1.63826 8.18306 -8.58017
H 1.54339 8.83142 -9.33557
H 0.852014 7.56524 -8.57047
O 6.52486 13.3338 -13.3918
H 6.86116 13.0088 -14.2756
H 6.02809 14.1923 -13.5194
O 10.3644 -13.7392 11.115
H 11.2379 -14.0024 11.5246
H 9.80504 -14.5552 10.9696
O 2.56998 5.73433 -4.51867
H 2.31415 6.64005 -4.18073
H 2.53297 5.07551 -3.76729
O 14.6336 6.24919 -11.6495
H -14.9429 6.19826 -12.5857
H 13.6907 6.58219 -11.6618
O -6.92007 -3.2675 -11.2904
H -6.49357 -3.18399 -10.3898
H -7.85461 -2.91388 -11.2507
O -11.667 -14.582 1.99241
H -11.2205 14.55 1.57652
H -10.9783 -14 2.42478
O 9.28529 6.35451 -3.06082
H 9.3642 6.83922 -3.93192
H 9.08353 7.00908 -2.33224
O -14.605 14.769 -9.75178
H -13.6807 -14.774 -9.73755
H -14.6045 13.9128 -10.2684
O 8.26294 -3.59356 -8.29008
H 9.16406 -3.20225 -8.47675
H 8.31329 -4.17338 -7.4769
O 11.6702 -11.8004 9.09966
H 12.291 -11.0585 9.35302
H 11.2606 -12.1888 9.9251
O 5.71288 12.0379 7.84891
H 6.64503 12.1045 7.49303
H 5.10443 12.6099 7.29877
O 10.2075 -14.0672 5.33299
H 10.3861 -14.5871 6.16838
H 11.0751 -13.7765 4.92948
O 9.98866 12.9941 -4.15136
H 9.34054 12.2474 -4.0015
H 9.68293 13.5508 -4.92369
O 12.2462 -7.60557 -8.05054
H 11.3216 -7.22615 -8.01731
H 12.6996 -7.30583 -8.88998
O -10.2706 -8.54656 8.08547
H -10.5004 -8.81449 9.02109
H -9.30423 -8.29348 8.03908
O -11.0086 13.0918 -5.63312
H -11.1153 12.1172 -5.83021
H -11.8893 13.4735 -5.35265
O -0.871023 13.741 13.0189
H -0.988356 14.6031 13.5118
H -1.7668 13.3835 12.7548
O 10.0886 -0.360512 11.47
H 9.50735 -0.939858 10.8986
H 11.0487 -0.588254 11.3077
O -12.3881 14.6503 14.4982
H -12.7253 14.8326 -14.5024
H -11.58 -14.7121 14.3215
O 4.49876 -11.8612 -1.68095
H 4.008 -11.0479 -1.36828
H 4.85461 -11.7022 -2.60187
O 11.6559 -13.1093 -1.55629
H 11.8269 -14.0442 -1.24533
H 12.5277 -12.6494 -1.72479
O 7.04018 -4.51339 -10.3044
H 6.9083 -3.71077 -10.8861
H 7.48803 -4.23844 -9.4536
O 13.924 -8.99459 -4.56833
H 13.0438 -9.27074 -4.95437
H 14.0292 -8.00381 -4.6536
O 13.5953 1.83085 7.02935
H 13.001 2.22379 6.32764
H 13.0372 1.36683 7.71721
O -14.2727 5.48745 -14.133
H -14.8843 6.10242 -14.6308
H -13.358 5.52984 -14.5349
O 2.71469 7.96783 3.26247
H 3.70473 8.10586 3.2349
H 2.26299 8.83491 3.47256
O 14.6322 -8.60255 13.3323
H 13.7701 -8.21844 13.002
H 14.5073 -8.95219 14.2608
O -0.39339 1.93756 13.4073
H -0.464748 1.96562 12.4103
H -0.0244161 1.05225 13.6903
O 6.80001 -1.2324 -8.23682
H 6.41107 -1.17962 -7.31708
H 7.22914 -2.12629 -8.36645
O -5.96381 2.43715 -8.84074
H -6.8846 2.82551 -8.80453
H -5.31752 3.13911 -9.13997
O 1.37972 -11.2141 -7.42954
H 1.726 -10.28 -7.34284
H 0.379822 -11.2004 -7.42867
O 4.39868 -0.0504644 13.798
H 4.04743 -0.927004 14.1271
H 4.08748 0.681879 14.4036
O 2.95777 8.47108 -13.4803
H 2.93292 7.53773 -13.1222
H 3.89414 8.81951 -13.4379
O -14.23 12.154 -10.6753
H 14.7657 11.9389 -10.9779
H -13.5728 11.8104 -11.3463
O 12.4468 11.4625 -5.06873
H 11.7141 10.9838 -4.58491
H 12.4169 12.4355 -4.84018
O -8.53294 7.32924 1.95273
H -9.0157 7.10321 1.10665
H -7.66038 6.84145 1.97912
O 11.0499 -8.25195 8.16928
H 11.8318 -8.52459 8.72992
H 10.7623 -7.3289 8.42473
O -5.64708 13.1716 -7.15621
H -6.07381 12.5828 -6.46971
H -5.32737 14.0133 -6.72114
O -12.0951 0.374335 -9.79446
H -12.8357 -0.109461 -10.2607
H -11.9852 0.00555365 -8.87147
O -7.08995 6.57174 13.1193
H -6.63316 6.66848 14.0036
H -6.70475 7.22899 12.4715
O 3.02477 -3.88164 -7.32228
H 3.61854 -4.32014 -6.64764
H 2.93738 -2.90896 -7.1072
O 12.5329 0.308024 3.48144
H 13.0506 0.949449 2.91531
H 11.6049 0.655679 3.6154
O 8.68461 12.4912 -12.3025
H 8.93621 12.5989 -11.3407
H 7.77954 12.8876 -12.4567
O 3.04019 -6.0899 -3.29025
H 2.2733 -5.5279 -2.98038
H 3.38097 -5.7374 -4.16181
O 8.53393 14.178 12.8779
H 7.97354 14.6533 12.1996
H 8.0303 13.3908 13.2338
O -13.4416 7.77496 7.7477
H -12.8842 8.13902 7.0015
H -13.8646 6.91593 7.45934
O -6.69271 12.5109 5.91167
H -6.90103 11.6175 5.51367
H -5.92329 12.9223 5.42302
O 12.5358 5.0587 3.49712
H 13.3996 4.95979 3.00305
H 12.6482 5.72428 4.23494
O -13.0314 -7.99757 12.1392
H -13.9117 -8.21599 12.5603
H -12.9305 -8.51581 11.2899
O 1.83842 11.4077 -2.79256
H 1.23404 10.6581 -2.52287
H 1.40035 11.9467 -3.512
O 0.285876 11.4089 -7.97141
H -0.173181 11.0308 -8.77532
H 0.452499 10.6789 -7.30859
O 0.322676 -4.42041 -6.76534
H 1.226 -4.46666 -7.19178
H 0.41741 -4.50723 -5.77363
O -5.98087 -12.1428 11.0095
H -5.58685 -11.229 11.1076
H -5.41705 -12.8038 11.5046
O 13.6203 -6.65402 -10.215
H 13.4762 -5.92165 -10.8805
H 14.5676 -6.97017 -10.2672
O -13.863 3.45008 3.81371
H -13.407 2.76502 3.24562
H -14.6797 3.78355 3.34273
O 9.71017 -2.61243 4.56026
H 9.30942 -2.88421 3.68532
H 9.65164 -1.61908 4.65946
O 1.70858 -0.552711 6.31953
H 1.48022 -1.16839 7.0737
H 2.26793 -1.04012 5.64904
O -7.79091 -10.7203 12.6292
H -7.3534 -11.443 12.0941
H -7.48735 -9.82797 12.2951
O 6.29454 -1.03633 -5.08272
H 7.14384 -0.998783 -4.55615
H 5.5569 -0.613764 -4.55612
O -7.27129 -2.02704 3.35439
H -7.37082 -1.61748 4.26122
H -6.4649 -1.64514 2.90286
O 4.83959 -5.09858 -5.57285
H 5.17876 -6.0089 -5.81008
H 5.46716 -4.66758 -4.92448
O -13.621 -7.7883 -7.308
H -14.1874 -7.20756 -6.72324
H -13.7952 -7.56613 -8.26732
O 1.43828 10.2535 3.82094
H 0.854022 10.9381 3.3851
H 2.07993 10.7077 4.43898
O 2.69095 12.7319 -0.51814
H 2.43747 13.6991 -0.5064
H 2.31347 12.2983 -1.33637
O -8.54798 11.3811 9.90605
H -8.7327 12.0114 10.6601
H -9.32917 10.7687 9.7845
O -3.4388 -4.62221 1.05373
H -3.9279 -4.08873 1.74379
H -3.7937 -5.55703 1.04187
O -2.71615 -3.59978 -3.63104
H -3.34372 -4.13463 -4.19679
H -2.84104 -2.62646 -3.82352
O 12.7555 -0.314789 -3.78601
H 12.4657 -0.869144 -3.0058
H 11.9563 -0.066208 -4.33336
O -8.16678 1.05805 9.96763
H -9.13238 0.846154 9.81695
H -7.84959 0.596496 10.7961
O -2.99291 3.8778 -14.7512
H -3.12443 3.15742 14.4921
H -2.0234 3.93924 -14.514
O -14.489 -10.9997 4.63986
H -14.643 -10.8311 3.66631
H -13.5129 -11.1437 4.80282
O 12.4907 14.2079 -0.870222
H 13.0801 13.5884 -0.35181
H 11.777 13.6808 -1.33153
O -3.15485 12.6323 -11.2454
H -4.08178 12.8201 -11.5703
H -3.14057 12.657 -10.2459
O -14.9445 -7.22964 -0.282431
H 14.313 -7.58404 -0.938055
H 14.5555 -7.16176 0.62061
O 0.414426 -3.43709 5.0097
H 0.0375192 -3.32856 4.08984
H -0.315072 -3.70396 5.63947
O -12.4955 -4.93543 -5.8171
H -11.7259 -4.84134 -6.44858
H -12.2383 -5.54409 -5.06651
O 6.56835 7.95462 -8.1965
H 5.89361 8.64218 -8.46479
H 6.22392 7.43762 -7.41287
O -0.791616 13.5891 -6.87513
H -0.390034 12.7737 -7.29203
H -0.213485 14.3817 -7.06898
O 12.6093 6.82177 5.70053
H 11.8817 6.69512 6.37471
H 13.4891 6.89714 6.16984
O 10.7449 11.1124 13.1021
H 11.0055 11.6805 12.3215
H 10.7907 11.6561 13.9401
O 8.02726 10.9301 1.19629
H 7.34383 11.3602 0.606451
H 7.615 10.1536 1.67277
O 5.54441 2.24291 7.83039
H 6.28559 1.88921 8.40095
H 5.34237 3.18629 8.09347
O -12.9217 -2.32838 -13.4703
H -12.742 -3.1164 -14.0591
H -12.1871 -1.6583 -13.5768
O 8.83649 -0.525851 -13.0842
H 8.15945 -0.351432 -13.7992
H 8.88813 0.26474 -12.4741
O 7.70828 -7.02307 -2.72677
H 7.49887 -7.46689 -3.59807
H 6.86848 -6.64994 -2.33244
O -9.85881 5.34425 12.4811
H -9.88602 4.35521 12.3361
H -8.91225 5.63464 12.6214
O -12.0339 -6.78474 14.4355
H -12.3669 -7.22886 13.6037
H -11.0519 -6.94814 14.5304
O -9.93615 -5.4244 11.7658
H -10.5431 -4.63646 11.8694
H -9.5544 -5.43189 10.8416
O -5.45496 -14.4941 -12.6096
H -6.35112 -14.083 -12.4426
H -5.20674 14.8464 -11.8366
O -11.7615 -13.9589 -2.88901
H -12.0182 -13.9059 -3.85404
H -11.2555 -14.8056 -2.72473
O 5.80623 -8.11413 11.3532
H 6.38876 -7.75642 10.6233
H 5.97008 -9.09482 11.46
O 8.56547 5.38934 -6.67922
H 8.74396 5.34276 -7.66205
H 9.28991 5.91514 -6.23345
O 1.40158 -14.5197 -7.53097
H 1.28709 -14.0517 -6.6547
H 1.17017 -13.8939 -8.27582
O 3.47545 2.8252 -4.13015
H 4.07657 3.20972 -4.83072
H 3.72693 3.19489 -3.23568
O 13.4337 -3.57485 -0.263407
H 14.2711 -3.89915 0.176645
H 12.9461 -4.35034 -0.664419
O 13.1805 13.1812 5.43042
H 13.4123 12.2787 5.06752
H 12.4111 13.0983 6.06369
O 14.3899 7.75336 -14.7838
H 14.4063 8.40537 14.3824
H 14.3995 8.25055 -13.9162
O -12.4866 -9.65629 -2.60209
H -12.5351 -8.67707 -2.40517
H -11.5782 -9.99969 -2.36353
O 1.70054 -8.14765 -1.82028
H 0.728095 -8.14201 -1.58724
H 1.95717 -7.25938 -2.2012
O -10.8552 -10.2537 -8.15476
H -11.6175 -10.9008 -8.14524
H -10.2826 -10.4249 -8.9565
O -13.9197 -5.67737 4.8567
H -13.0784 -5.24159 5.17645
H -14.1806 -6.40449 5.49172
O -10.0398 11.6335 -1.69744
H -9.34466 11.9372 -1.04586
H -10.4553 10.7849 -1.37017
O 8.05867 14.5978 -2.47596
H 7.59212 13.7145 -2.52203
H 8.87825 14.5127 -1.90936
O -6.5648 -5.42224 12.8921
H -7.51271 -5.74029 12.9095
H -6.05385 -5.85649 13.634
O -14.4177 -3.06351 -2.23585
H -14.2394 -2.09622 -2.05547
H -14.0353 -3.61662 -1.49571
O 5.79352 11.3206 -5.73098
H 5.52102 12.1486 -6.22093
H 6.28989 10.714 -6.35198
O -11.9161 -7.73788 -12.5348
H -11.6595 -6.8629 -12.1243
H -11.9511 -7.6418 -13.5296
O 4.36477 -6.2259 6.90392
H 3.60862 -6.49411 7.50081
H 4.49893 -5.23653 6.96004
O 5.33367 1.20101 11.5389
H 5.77233 0.672524 10.8121
H 5.15844 0.606738 12.3239
O -3.02319 2.4185 12.6439
H -3.38431 2.68502 11.7503
H -2.22162 2.97624 12.8593
O -9.46031 4.12167 -3.84137
H -9.20486 5.01245 -4.2172
H -9.79306 4.23776 -2.90553
O 11.0427 9.84364 0.151284
H 11.0144 10.5882 -0.515647
H 10.8456 10.2049 1.06269
O 14.2436 3.91396 -10.1348
H 13.8291 3.1521 -10.6326
H 14.4186 4.66904 -10.7667
O 7.56486 -0.544444 7.29203
H 7.7259 -0.146221 6.38899
H 7.50589 -1.53947 7.21182
O -3.64318 6.36338 -7.85338
H -4.49602 6.60398 -7.38993
H -3.73075 6.55183 -8.83154
O 6.27342 4.5999 11.4369
H 6.88265 5.31497 11.0941
H 5.32318 4.86471 11.2728
O 7.70306 -0.234919 9.8416
H 7.92565 0.718295 10.0461
H 7.67821 -0.366149 8.85056
O -7.19987 -12.5794 8.52351
H -7.84649 -13.2092 8.09315
H -6.92532 -12.9409 9.41453
O 11.3803 -4.32877 -9.58451
H 11.215 -4.79147 -10.4555
H 11.7875 -3.43161 -9.75571
O -0.565294 -7.10953 2.12291
H -0.322677 -6.13945 2.13153
H -1.14202 -7.30182 1.32892
O -12.5905 8.73526 -2.87549
H -13.4448 8.32707 -2.55353
H -12.3342 8.32509 -3.75074
O -14.6654 -0.298655 8.24144
H 14.6986 -1.12681 8.22182
H 14.72 0.476074 7.91053
O 12.1514 7.46872 -11.8674
H 11.9732 7.65884 -12.8329
H 11.4863 7.95777 -11.3031
O 9.17608 7.29302 9.21566
H 8.56023 7.34119 10.002
H 8.73903 7.71892 8.42346
O -8.2286 -10.7369 3.31231
H -9.22076 -10.6852 3.19865
H -7.99328 -10.5652 4.26893
O -8.41512 -13.4991 -7.74562
H -8.92263 -12.9102 -7.11658
H -8.78422 -13.3964 -8.66933
O 6.71456 5.22893 -2.70307
H 7.65485 5.4941 -2.91643
H 6.68741 4.79145 -1.80425
O -0.603209 10.884 -10.5359
H -1.10794 11.4298 -11.2047
H -0.566431 9.93259 -10.8417
O -3.993 -7.21469 -9.90651
H -4.78785 -7.73627 -10.2166
H -4.12944 -6.93221 -8.95699
O -11.7835 -12.0868 4.99877
H -11.4259 -11.5455 5.7597
H -11.621 -13.0576 5.17503
O 6.36255 -14.0682 -6.57905
H 6.91442 -13.8494 -5.77433
H 6.29738 -13.2624 -7.16762
O -3.70158 10.7318 -5.01914
H -3.32381 10.561 -4.10913
H -3.0689 10.3873 -5.7127
O -7.98016 -5.47718 -5.93864
H -8.91655 -5.79023 -6.0973
H -7.37878 -6.2682 -5.82636
O 1.10406 -7.41219 4.44521
H 2.0891 -7.30237 4.31244
H 0.61379 -6.80124 3.82363
O -6.91097 12.983 -14.0213
H -7.80222 13.3398 -13.7415
H -6.81606 13.064 14.9108
O -2.60194 13.7349 1.03268
H -2.58213 12.749 1.1984
H -2.81836 14.2118 1.88457
O -11.3165 -13.8381 9.71302
H -11.6881 -14.7517 9.54798
H -10.3896 -13.7832 9.3418
O -0.0675204 0.896914 -5.33319
H -0.458219 1.54514 -4.67962
H 0.633236 1.35581 -5.8794
O -10.2953 -0.292368 -14.3266
H -9.39785 -0.201012 -14.758
H -10.2441 0.0262744 -13.3801
O 11.9527 3.25077 10.8834
H 11.0114 3.58759 10.8595
H 12.1063 2.75073 11.7356
O 10.5421 -0.690311 -1.91459
H 10.9658 -0.603938 -1.0129
H 10.3373 0.219645 -2.27517
O 11.8331 -2.97497 10.6797
H 12.5064 -3.38894 10.067
H 10.9177 -3.08557 10.2925
O 10.123 5.68907 12.9408
H 9.87016 5.28455 13.8197
H 10.784 6.42441 13.0902
O -4.75901 -10.2149 -3.05815
H -5.52118 -10.4168 -2.44305
H -4.85094 -10.7587 -3.89235
O 8.00517 -10.974 14.1044
H 8.25142 -11.4275 13.2479
H 8.1706 -9.99134 14.0208
O 10.2778 -12.4646 -13.4211
H 9.44802 -12.9173 -13.7474
H 10.3583 -12.5886 -12.4321
O -2.99011 10.6073 -2.44753
H -3.55993 11.3614 -2.12095
H -2.04762 10.7458 -2.14333
O 13.0506 -8.3227 -1.84277
H 13.3093 -8.66873 -2.74459
H 12.1269 -8.63362 -1.61891
O 1.00079 -4.97756 -1.44328
H 0.0223636 -4.92119 -1.24454
H 1.52106 -4.81765 -0.60439
O 11.4247 10.8611 -13.1546
H 12.264 10.9578 -12.6197
H 10.6581 10.6721 -12.5409
O 8.84857 -6.90719 4.67755
H 8.3121 -6.70004 5.49564
H 9.45666 -7.67878 4.86426
O -7.06882 3.21287 8.67755
H -7.37576 2.40169 9.17532
H -7.85927 3.67908 8.28028
O 0.0390718 -14.7171 1.59968
H 0.0437224 -13.8941 2.16778
H -0.90105 14.8858 1.48622
O 2.13565 -1.91777 -4.20439
H 2.16086 -1.70039 -5.18014
H 1.45955 -2.63606 -4.04028
O -13.2849 4.79931 12.7053
H -13.6797 4.10794 12.1002
H -12.4343 4.45094 13.0992
O 9.0329 4.03305 -12.228
H 8.65978 4.78135 -11.6796
H 8.81154 4.18347 -13.1916
O 1.6805 -12.8335 -5.31319
H 2.13476 -12.5661 -4.46341
H 1.54245 -12.0255 -5.88592
O 3.96356 -7.25316 4.5655
H 3.99288 -6.96126 5.5215
H 4.70619 -6.81394 4.05996
O 14.6334 0.323516 -13.933
H 14.4713 1.23322 -13.5507
H 14.2943 0.291754 -14.8732
O -6.90461 -7.90265 -2.44883
H -7.53211 -7.30291 -1.9523
H -6.978 -8.83288 -2.08928
O -13.8658 12.0758 5.50281
H -13.6955 11.8802 4.53704
H -13.8053 13.0617 5.6589
O -12.3908 -11.6951 -12.0245
H -13.2124 -11.6763 -11.4547
H -12.1307 -12.644 -12.2031
O 7.62992 5.07269 3.4444
H 7.55339 4.38041 2.72685
H 7.60751 4.62837 4.33998
O -4.72777 9.87317 9.45718
H -3.93776 9.38654 9.08427
H -4.69113 10.8324 9.17689
O 8.08995 -9.27335 -6.28755
H 8.95167 -9.45664 -5.81444
H 7.46092 -8.80692 -5.66566
O 0.861368 -13.067 -9.64844
H 1.48992 -12.355 -9.96143
H -0.0742096 -12.7141 -9.65948
O -4.99926 2.02313 10.5483
H -5.6074 2.50427 9.9169
H -5.49649 1.80329 11.3876
O -1.51449 -11.9722 10.0254
H -1.30684 -12.9454 10.124
H -1.3159 -11.6822 9.08923
O -13.9449 -0.438139 -1.67353
H -14.3095 0.390885 -2.09754
H -12.9513 -0.361245 -1.59151
O 13.5096 14.0769 9.17952
H 13.7126 -14.8925 8.96259
H 14.3416 13.5299 9.08695
O 2.5986 -13.2449 5.21308
H 1.64683 -12.9433 5.15657
H 3.20001 -12.5114 4.89641
O 12.2604 -2.07918 -10.7546
H 12.4168 -2.30812 -11.7154
H 12.907 -1.37095 -10.4713
O -1.98789 -4.36351 6.6487
H -2.67146 -4.4658 7.37138
H -2.20135 -4.98776 5.89722
O -2.25325 -6.21204 4.02239
H -3.01105 -5.71534 3.59929
H -1.77064 -6.74125 3.32452
O 14.6379 -11.9896 -0.902005
H 14.9366 -11.1131 -1.27961
H -14.5926 -12.6858 -1.0867
O -4.07597 -0.542627 10.1534
H -4.3997 0.395616 10.0314
H -4.7604 -1.18006 9.79953
O 1.6158 -12.0989 2.43922
H 2.52649 -12.5105 2.47449
H 1.43062 -11.7785 1.51023
O 11.8808 8.38672 12.4546
H 12.4013 8.31376 11.604
H 11.0612 8.93783 12.2977
O 1.29572 1.9938 -12.472
H 1.70793 2.58505 -11.7788
H 0.859414 1.212 -12.0266
O -11.3557 5.39994 9.51641
H -12.0044 4.64408 9.42801
H -11.0988 5.50815 10.4768
O 13.0071 -4.96453 6.58459
H 12.1965 -5.10339 6.01572
H 13.5903 -5.7755 6.53745
O 0.21553 5.52738 0.210704
H -0.391549 5.14415 0.906823
H 0.374916 4.84638 -0.504015
O -3.64303 -9.31876 7.50483
H -3.99863 -8.76267 6.75363
H -2.67333 -9.11536 7.64007
O 1.3504 9.31236 12.0152
H 1.38618 8.62732 11.2876
H 1.71016 10.1806 11.6735
O 4.16907 -8.36007 1.72624
H 4.17482 -8.39411 2.72564
H 5.10992 -8.34147 1.38794
O 9.04193 -11.5556 11.4386
H 8.9094 -11.1993 10.5137
H 9.57643 -12.3998 11.3972
O 4.11939 13.6638 10.048
H 3.63206 14.5298 9.93608
H 4.85516 13.6058 9.37332
O -14.1817 -5.37728 -13.5337
H -13.8431 -5.82486 -14.3613
H -13.5464 -5.54566 -12.78
O -5.53314 8.94499 5.9586
H -6.15566 8.78253 6.72415
H -4.66356 8.48274 6.13222
O 8.33746 -14.5623 7.58655
H 7.78685 -14.8277 6.7951
H 8.07154 -13.6458 7.88539
O -2.25289 9.75953 7.02042
H -2.41032 9.19856 6.20769
H -2.31868 9.18757 7.83805
O -12.9785 3.44303 -11.0902
H -13.625 3.5309 -10.3323
H -12.0785 3.76824 -10.8001
O 14.1142 13.0101 1.14913
H 14.8712 13.5135 1.56564
H 13.7196 12.3845 1.8221
O 1.20112 -7.58015 -13.4324
H 0.393508 -6.99055 -13.4439
H 0.955642 -8.47437 -13.0581
O 1.26363 11.3945 -13.9618
H 0.560274 11.8734 -13.4365
H 1.95573 11.031 -13.3382
O -10.7512 -14.0426 -12.3278
H -10.3499 -14.8917 -12.6713
H -10.0289 -13.3652 -12.1884
O 3.93633 4.80323 -1.86377
H 4.68702 5.02876 -2.48473
H 4.0739 5.27113 -0.990764
O 12.1109 -10.1246 2.65477
H 11.9932 -9.13607 2.74913
H 11.4874 -10.469 1.9529
O 2.2838 10.4857 -10.6358
H 1.37079 10.7939 -10.903
H 2.95004 11.204 -10.8364
O 5.31562 6.90949 9.79318
H 4.98449 6.83914 10.7341
H 5.41057 7.87339 9.54444
O -9.63335 2.64107 12.2907
H -8.78382 2.34379 11.8549
H -10.4113 2.21159 11.832
O 5.64405 -11.3319 -13.6445
H 6.56862 -11.0428 -13.8927
H 4.99226 -10.6166 -13.8965
O -2.72419 -12.6055 5.34299
H -3.32746 -12.4601 6.12713
H -2.59191 -11.7404 4.85919
O -7.30247 -6.25324 5.94435
H -7.28489 -7.1114 6.45742
H -6.55966 -5.66192 6.2583
O 9.01007 5.44731 -0.362397
H 8.26209 4.84703 -0.079211
H 8.67976 6.38976 -0.414087
O 1.83665 10.5504 1.0383
H 2.37084 11.3596 0.793699
H 1.67101 10.5459 2.02447
O 10.2295 6.13354 -8.99032
H 10.0336 6.9995 -8.53017
H 11.1722 5.86016 -8.79896
O 13.7969 -9.23427 -13.8195
H 13.1214 -8.61867 -13.4136
H 13.5415 -10.182 -13.6283
O 3.20668 -6.12448 0.559214
H 3.63496 -6.92772 0.973178
H 2.59376 -5.69464 1.2222
O -13.7196 -2.57722 2.27188
H -12.9817 -2.8185 2.90215
H -14.5827 -2.95215 2.61009
O 12.8879 -12.3647 -7.04317
H 13.122 -11.3925 -7.05049
H 13.0548 -12.7546 -7.94879
O -0.676266 5.07505 -2.96137
H -0.838416 5.96832 -2.54212
H 0.168006 4.68346 -2.59551
O -10.4326 3.71318 -1.22245
H -11.4294 3.79067 -1.24007
H -10.1727 2.85621 -0.777425
O -3.37613 8.50974 -0.63604
H -4.17614 7.91223 -0.58171
H -3.49668 9.16084 -1.38539
O -12.5878 -7.24855 -1.31334
H -13.5465 -7.21152 -1.03162
H -12.0636 -7.77428 -0.643399
O 10.1511 1.24582 2.15254
H 10.2175 0.886023 1.22188
H 10.6146 2.13059 2.20169
O 7.30653 -0.840193 14.2282
H 6.36441 -0.515825 14.3129
H 7.31655 -1.70967 13.7343
O 14.1953 -13.3295 8.13307
H 13.5786 -12.9354 7.45164
H 14.5012 -12.6128 8.75977
O 12.1324 -5.69941 -1.36229
H 11.2103 -5.89389 -1.02778
H 12.6142 -6.55938 -1.53075
O 6.16907 -9.56223 -2.2489
H 6.34466 -8.62443 -1.94942
H 6.79581 -10.1847 -1.78015
O 0.545893 14.7019 -11.3398
H 0.332189 -14.5726 -10.6103
H 1.48475 14.3753 -11.2307
O 2.09707 -14.5513 -0.0184798
H 2.82842 -14.0456 0.439107
H 1.31351 -14.6343 0.597257
O 4.38719 -2.42698 -9.71581
H 5.12159 -2.066 -9.14106
H 3.59605 -2.6485 -9.14571
O -0.904665 0.40195 5.63806
H -0.0170232 -0.0472713 5.73947
H -1.45169 0.248808 6.46104
O 13.2934 -0.70062 11.0367
H 14.1281 -0.681429 11.5871
H 12.8237 -1.57269 11.1739
O -1.11801 -9.48053 0.373812
H -0.984135 -8.72985 -0.273134
H -1.87247 -10.0583 0.0624543
O -5.20096 -14.5174 5.13595
H -4.66992 14.8504 5.77497
H -4.60728 -13.8275 4.72172
O 13.0425 11.9157 -11.3631
H 12.7766 12.6274 -12.0133
H 12.3698 11.8709 -10.6245
O -10.1094 7.39603 -10.0759
H -9.94317 6.78091 -9.3052
H -9.33385 7.35805 -10.706
O -4.63773 0.445489 -12.828
H -4.05455 1.09201 -12.3362
H -5.48467 0.901668 -13.1011
O 13.5413 -10.0357 10.0998
H 14.5232 -10.2244 10.1158
H 13.2816 -9.54979 10.9342
O 5.4307 -14.0233 -13.7242
H 4.44156 -14.1684 -13.7013
H 5.62212 -13.0465 -13.8205
O -3.57296 -7.00171 12.5016
H -3.36574 -6.0398 12.6798
H -4.1408 -7.36299 13.2412
O -3.03694 -12.9566 -12.5394
H -3.02964 -12.4216 -13.3843
H -3.63273 -13.7515 -12.6535
O -10.6871 -5.25274 -1.24292
H -9.92559 -5.86259 -1.02347
H -11.4545 -5.79023 -1.59255
O -6.26785 11.5302 -4.95378
H -6.83496 10.7465 -5.20724
H -5.30232 11.2854 -5.04234
O 12.3013 1.69209 -10.9683
H 11.3107 1.56861 -10.9105
H 12.577 1.7307 -11.9288
O -6.16222 -2.76221 12.2409
H -5.49797 -2.36947 12.8769
H -6.22336 -3.74912 12.3901
O -11.5833 -3.57421 5.50375
H -11.0791 -3.03291 4.83089
H -10.9542 -4.19578 5.97051
O -1.3365 -2.99961 2.77126
H -1.52197 -2.05482 3.04139
H -2.18244 -3.42745 2.45293
O 11.8846 2.81473 5.35167
H 10.9444 2.8077 5.69207
H 11.9122 3.26245 4.45792
O -2.76147 11.2286 14.1817
H -1.82383 10.9403 14.3759
H -2.80703 11.6165 13.2611
O 0.0128682 -4.32214 -3.91139
H -0.915595 -3.95233 -3.87689
H 0.351386 -4.46037 -2.98064
O -10.6386 -3.90117 1.16637
H -10.4945 -3.91832 0.176962
H -10.9575 -4.7982 1.47233
O -5.93417 10.9158 -11.2138
H -5.21263 11.1214 -11.875
H -6.73694 10.5639 -11.6952
O -9.61191 11.4953 -12.2846
H -9.13341 10.659 -12.5521
H -9.178 11.8818 -11.4708
O -3.8781 -3.86951 8.65376
H -4.02581 -4.49997 9.41579
H -4.48967 -3.08393 8.74775
O 11.8212 4.87161 -6.25785
H 12.1057 5.37848 -7.07153
H 12.3428 4.02067 -6.19589
O -10.4997 -13.9838 12.7552
H -10.6604 -14.0342 11.7695
H -10.5926 -13.036 13.0601
O 1.18789 3.1626 10.7185
H 1.8932 3.25579 11.4212
H 0.94031 2.1987 10.6205
O -7.29096 -8.2781 8.16131
H -7.45485 -9.07872 7.585
H -6.63648 -8.51305 8.87995
O 13.4971 5.51703 10.751
H 12.8143 4.78677 10.7294
H 13.7287 5.72878 11.7005
O -10.1119 -11.1923 -2.1498
H -9.81762 -10.6343 -2.92569
H -10.2517 -12.1354 -2.45152
O -8.59383 3.15559 -7.03936
H -8.6888 3.23111 -6.04676
H -9.50067 3.11337 -7.45871
O 3.99491 -13.2559 1.63477
H 4.30519 -14.001 2.2252
H 4.78133 -12.7099 1.346
O 12.4276 0.262309 -7.15276
H 13.1894 -0.349478 -6.93991
H 11.7806 -0.20748 -7.75337
O -14.5596 7.4187 -9.34073
H -14.8276 6.79844 -10.0779
H -13.8324 8.02485 -9.66296
O -4.63013 0.378362 -7.578
H -5.02389 1.17232 -8.04122
H -5.18878 -0.429091 -7.76754
O 10.8454 -11.2182 0.424321
H 11.0229 -11.5212 -0.512011
H 10.925 -11.9965 1.04719
O 3.56901 -10.5938 14.1783
H 2.76748 -10.8877 14.699
H 3.27612 -10.2209 13.2979
O 4.19405 7.52588 14.101
H 3.37696 7.65335 14.6632
H 3.95887 6.99521 13.2867
O 9.55168 8.75686 -7.98182
H 9.69969 9.69823 -7.67866
H 8.60574 8.65014 -8.28808
O -9.04488 -9.69688 -4.48194
H -8.26695 -9.10889 -4.70347
H -9.87609 -9.31693 -4.88779
O -9.23078 -14.1061 7.40045
H -10.0102 -14.5042 6.91671
H -8.74648 -14.8242 7.90014
O 11.6798 -7.98436 -12.5675
H 11.9977 -8.36856 -11.7007
H 11.504 -7.00649 -12.4541
O 7.60416 -3.16162 12.8436
H 7.78652 -4.08206 13.1893
H 7.30523 -3.21657 11.8909
O -10.712 9.78122 8.96107
H -11.4582 9.91525 9.61315
H -10.7112 10.529 8.29711
O -5.7249 4.08167 14.2829
H -4.85624 4.18575 14.7673
H -6.46684 4.44286 14.8478
O -8.84434 -12.3223 -10.1866
H -9.29417 -11.5637 -10.6579
H -7.97488 -12.0089 -9.80473
O 9.64591 14.2351 -0.0829727
H 10.1005 -14.9536 0.4194
H 9.73171 13.3798 0.428062
O 12.6358 7.33746 -4.44551
H 12.5503 6.49268 -4.97374
H 13.543 7.73192 -4.59225
O -12.7805 1.52814 14.7357
H -12.3355 0.736163 14.3176
H -13.6877 1.26574 -14.8597
O -9.33253 -7.11865 13.8829
H -9.46103 -7.04256 12.8941
H -9.38117 -8.08045 14.1523
O -6.88506 2.80997 -3.72244
H -6.6472 2.18943 -4.46966
H -7.85424 3.04872 -3.78316
O -11.4024 4.904 2.50204
H -11.7348 3.97298 2.65275
H -12.1007 5.43333 2.02023
O 4.38012 10.214 -3.0387
H 3.58315 10.8177 -3.0214
H 4.90042 10.3727 -3.87779
O 0.823443 -0.355681 14.0322
H 1.07472 -1.31697 13.9192
H 1.61023 0.156157 14.3772
O -9.05515 7.95224 14.8457
H -10.0304 7.92815 14.6259
H -8.53339 7.55577 14.0903
O 1.304 2.69759 -6.65604
H 2.28835 2.76658 -6.49394
H 0.866507 3.56675 -6.42548
O -9.55319 3.87029 7.74422
H -10.1404 4.20539 8.48104
H -10.0998 3.73478 6.91788
O 0.381878 12.6534 2.81867
H 0.935916 13.0772 3.53521
H 0.140091 13.3409 2.13388
O 0.0585866 -5.79013 9.81157
H -0.187284 -6.69907 10.1483
H 1.02449 -5.61431 10.0016
O -1.39828 -11.2118 -7.51075
H -1.85977 -10.3562 -7.27621
H -1.55084 -11.4188 -8.47713
O -12.1034 7.22807 11.9873
H -12.4237 6.3613 12.3696
H -11.3034 7.54239 12.4983
O -8.01247 10.2663 5.07169
H -8.98549 10.042 5.12583
H -7.49001 9.43742 4.87172
O -8.69952 -0.4713 -7.00129
H -7.7446 -0.179992 -7.05831
H -8.82405 -1.3108 -7.53017
O 0.204056 5.72545 7.65137
H -0.609779 5.14753 7.71204
H 0.173601 6.25617 6.80438
O -2.8058 -14.5428 3.27728
H -3.68005 -14.1685 2.96811
H -2.4988 -14.0458 4.08891
O -9.48288 7.15836 8.60339
H -9.94586 7.99346 8.90046
H -10.0451 6.36478 8.83606
O 8.09493 -7.22171 -8.55761
H 8.10879 -7.28192 -9.55569
H 8.14375 -8.14118 -8.16751
O -5.08502 -13.8502 1.78985
H -5.77847 -14.5498 1.9619
H -4.87515 -13.8221 0.812527
O 12.514 14.2957 -12.6868
H 12.1486 14.5618 -11.7948
H 11.7588 14.0732 -13.3034
O -3.55071 6.79084 -10.8099
H -3.37083 7.61453 -11.3476
H -4.2911 6.27027 -11.2351
O 13.0125 5.78482 -8.45244
H 13.5837 6.60321 -8.51505
H 13.4686 5.02388 -8.91387
O -10.3376 4.15246 -10.7669
H -10.218 4.88524 -11.4368
H -9.58929 3.49497 -10.855
O -6.39219 13.5439 -2.59027
H -6.92153 14.2589 -3.04689
H -6.19173 12.811 -3.2404
O -6.61076 4.81045 4.17062
H -7.07257 5.2949 4.91361
H -7.2917 4.36617 3.58845
O 8.89584 7.98223 -14.1264
H 8.75688 7.22485 -13.4884
H 9.86549 8.22569 -14.1486
O 3.80373 11.1553 5.01057
H 4.42713 11.2334 5.78855
H 4.31863 11.2568 4.15935
O 11.0887 11.5579 -1.91182
H 12.0845 11.4766 -1.86954
H 10.8303 12.0644 -2.73439
O 3.45115 13.7958 -10.6322
H 4.05499 13.1431 -11.0899
H 3.40205 13.5775 -9.65752
O 9.84833 -6.0489 11.4704
H 9.06377 -6.44016 11.9514
H 10.5381 -5.76264 12.1354
O 12.5398 7.82428 -1.04775
H 11.7702 7.99292 -0.431918
H 12.1965 7.65324 -1.97125
O 1.19124 -2.55154 8.55951
H 0.289143 -2.97431 8.64594
H 1.55703 -2.35757 9.46977
O -11.8619 10.4656 -6.46444
H -12.1589 9.60224 -6.0565
H -11.3169 10.2781 -7.28166
O -12.2655 10.9499 -12.1842
H -12.4641 11.0132 -13.1622
H -11.2754 10.9249 -12.046