LAMMPS data file via write_data, version 15 May 2015, timestep = 1000000

4560 atoms
7 atom types
5040 bonds
3 bond types
7200 angles
2 angle types
10560 dihedrals
3 dihedral types
2400 impropers
1 improper types

-1.0763502675555259e-01 4.1387635026745990e+01 xlo xhi
-4.0433884491974936e-02 3.5938433884472119e+01 ylo yhi
-3.5711112484589691e-01 2.9555111124838550e+01 zlo zhi
-6.7234083837551181e-02 -1.7036217651000683e+01 -4.1707816797290791e-02 xy xz yz

Masses

1 12.0107
2 1.008
3 12.0107
4 12.0107
5 12.0107
6 12.0107
7 12.0107

Pair Coeffs # lj/cut/coul/long

1 0.07 3.55
2 0.03 2.42
3 0.07 3.55
4 0.07 3.55
5 0.07 3.55
6 0 0
7 0.07 3.55

Bond Coeffs # harmonic

1 469 1.4
2 367 1.08
3 469 0.7

Angle Coeffs # harmonic

1 35 120
2 63 120

Dihedral Coeffs # opls

1 0 7.25 0 0
2 0 7.25 0 0
3 0 7.25 0 0

Improper Coeffs # cvff

1 2.5 -1 2

Atoms # full

219 13 3 0.0000000000000000e+00 -4.0872482331737237e-01 3.1900094308520557e+00 3.2151469651634907e+00 1 0 0
220 13 4 -1.1500000000000000e-01 2.4029699530417226e-01 4.1730921212610612e+00 2.4420230990417284e+00 1 0 0
224 13 2 1.1500000000000000e-01 5.0304486545516358e-01 5.1422555905076361e+00 2.8844729885210896e+00 1 0 0
580 33 4 -1.1500000000000000e-01 2.7416880320267958e+00 6.8584047501983534e+00 3.9784457664316868e+00 1 0 0
228 13 3 0.0000000000000000e+00 -7.0659694494935732e-01 1.9014992227244780e+00 2.6242350051213577e+00 1 0 0
989 53 4 -1.1500000000000000e-01 -1.4256465455757505e+00 7.1356001717767690e+00 3.5185551760773315e+00 1 0 0
600 34 2 1.1500000000000000e-01 -5.0098076840817463e-02 5.8203854017539323e+00 6.9241010223960844e+00 1 0 0
245 14 4 -1.1500000000000000e-01 -4.8731538695250354e+00 1.4674121078267850e+00 9.0918924306649860e+00 1 0 0
227 13 4 -1.1500000000000000e-01 -3.4940933854920875e-01 1.6318044603750124e+00 1.2745059577669786e+00 1 0 0
4390 233 1 -1.1500000000000000e-01 2.4063449719064969e+00 7.6123659338496386e-01 5.4115067861377719e+00 1 1 0
733 13 6 0.0000000000000000e+00 -5.0553073503348145e-01 2.4778924370351589e+00 2.9986419025949185e+00 1 0 0
249 14 2 1.1500000000000000e-01 -3.8162194456573006e+00 1.9749417614173985e+00 7.2243173706156343e+00 1 0 0
230 13 1 -1.1500000000000000e-01 5.8648339704837749e-01 3.8507937644946724e+00 1.1014752434830037e+00 1 0 0
217 13 7 -1.1500000000000000e-01 -1.4112894419689810e+00 2.4020954127780745e+00 5.3075659884005422e+00 1 0 0
218 13 5 -1.1500000000000000e-01 -7.1339793297600629e-01 3.3842377835488526e+00 4.5556757131753045e+00 1 0 0
221 13 1 -1.1500000000000000e-01 -1.7549597404311279e+00 1.1677658577425416e+00 4.6772899794023362e+00 1 0 0
222 13 2 1.1500000000000000e-01 -1.4390044724673681e+00 2.5408483807670357e+00 6.4209811833743329e+00 1 0 0
223 13 2 1.1500000000000000e-01 -4.3477375506731031e-01 4.3678279150197339e+00 4.9387107676502540e+00 1 0 0
248 14 1 -1.1500000000000000e-01 -3.6038499235518420e+00 3.4338512883774772e+00 8.6931705373962380e+00 1 0 0
4380 233 4 -1.1500000000000000e-01 2.5821101555275812e+00 1.0940820171753751e+00 4.0725248563295207e+00 1 1 0
244 14 1 -1.1500000000000000e-01 -4.0847092563235909e+00 2.2508054217063846e+00 8.2288921028248811e+00 1 0 0
603 34 2 1.1500000000000000e-01 7.7932434923541472e-01 3.5444644860796473e+00 7.4038676889257076e+00 1 0 0
4396 234 5 -1.1500000000000000e-01 -8.1740223001146806e-01 2.5016467212285698e-01 9.0942370538120141e+00 1 1 0
4394 233 2 1.1500000000000000e-01 1.9782273755627466e+00 1.4353609609981788e+00 6.1132716146288546e+00 1 1 0
579 33 3 0.0000000000000000e+00 3.4401467295457500e+00 5.9492131612630859e+00 3.2007602331117062e+00 1 0 0
252 14 2 1.1500000000000000e-01 -2.9691929056423088e+00 4.1469133387832118e+00 8.1932556674766577e+00 1 0 0
581 33 1 -1.1500000000000000e-01 4.6051178373740047e+00 3.9556084099999529e+00 1.5666826388462993e+00 1 0 0
596 34 5 -1.1500000000000000e-01 -6.0156195579142491e-01 6.2592106949201876e+00 8.9572736397322075e+00 1 0 0
577 33 7 -1.1500000000000000e-01 4.1718197545910591e+00 5.1404725617543887e+00 1.0179490808865748e+00 1 0 0
588 33 3 0.0000000000000000e+00 3.8928217959703213e+00 4.7426165215165312e+00 3.7778204835832350e+00 1 0 0
589 33 4 -1.1500000000000000e-01 4.4971872156128256e+00 3.7594001882970516e+00 2.9409904190886755e+00 1 0 0
593 33 2 1.1500000000000000e-01 4.8227706344142796e+00 2.8806031880388021e+00 3.4572842006811224e+00 1 0 0
753 33 6 0.0000000000000000e+00 3.5427216208348531e+00 5.3020816544069858e+00 3.4891108938708704e+00 1 0 0
4383 233 2 1.1500000000000000e-01 2.8309582126537567e+00 1.3984352199446086e+00 1.4510439338304764e+00 1 1 0
4379 233 3 0.0000000000000000e+00 3.2165465877140642e+00 2.1275083422572424e-01 3.2449802331672761e+00 1 1 0
578 33 5 -1.1500000000000000e-01 3.5829742376952822e+00 6.1478539483506811e+00 1.8126752210461552e+00 1 0 0
226 13 1 -1.1500000000000000e-01 2.6018281232706864e-01 2.6339024114707628e+00 4.6523866424587912e-01 1 0 0
4384 233 2 1.1500000000000000e-01 2.3094572213151245e+00 2.0570671262604843e+00 3.7180968928297444e+00 1 1 0
586 33 1 -1.1500000000000000e-01 2.9371009290328689e+00 5.3784007694234681e+00 5.9388510713715723e+00 1 0 0
587 33 4 -1.1500000000000000e-01 3.6993533204171571e+00 4.4781148863879654e+00 5.1314752103306418e+00 1 0 0
585 33 2 1.1500000000000000e-01 5.0888954434685072e+00 3.2963445233103754e+00 8.4267184191372912e-01 1 0 0
591 33 2 1.1500000000000000e-01 2.6409393113572648e+00 4.9893448666067775e+00 6.9174154821273808e+00 1 0 0
592 33 2 1.1500000000000000e-01 4.0797455273823715e+00 3.5020020580958180e+00 5.5397172171058795e+00 1 0 0
590 33 1 -1.1500000000000000e-01 2.3975034232735082e+00 6.5866189461223881e+00 5.3119402203553978e+00 1 0 0
987 53 4 -1.1500000000000000e-01 -7.2997837290428724e-01 7.9366503995379576e+00 1.3352140460386464e+00 1 0 0
234 13 2 1.1500000000000000e-01 1.0770916339739358e+00 4.5953362196795258e+00 5.6737578797908028e-01 1 0 0
229 13 4 -1.1500000000000000e-01 -1.2997241911340671e+00 9.0790825828604416e-01 3.3735686586370921e+00 1 0 0
1009 54 2 1.1500000000000000e-01 -3.2925389313110096e+00 7.2404073081705258e+00 7.0834405019642093e+00 1 0 0
985 53 2 1.1500000000000000e-01 -1.9482956311334378e+00 6.5918294214926805e+00 5.5915646110789305e+00 1 0 0
599 34 1 -1.1500000000000000e-01 4.1230053664847599e-01 4.1529527091743326e+00 8.2406531831635323e+00 1 0 0
4401 234 2 1.1500000000000000e-01 -1.2375980339903117e+00 1.2008830947858737e+00 8.7984303034703455e+00 1 1 0
225 13 2 1.1500000000000000e-01 -2.2153170891462386e+00 3.8504012530219206e-01 5.2787791735291050e+00 1 0 0
595 34 7 -1.1500000000000000e-01 -1.4956277246619010e-01 5.3805384604879363e+00 7.8948581592431513e+00 1 0 0
981 53 1 -1.1500000000000000e-01 -1.5528315246394044e+00 7.3056505206237414e+00 4.9259409606119151e+00 1 0 0
4378 233 5 -1.1500000000000000e-01 3.3650408574291006e+00 5.2065948403341655e-01 1.8628689205767381e+00 1 1 0
582 33 2 1.1500000000000000e-01 4.3706071786757912e+00 5.4164334880578835e+00 9.8097586629271039e-03 1 0 0
583 33 2 1.1500000000000000e-01 3.1908898513583299e+00 7.1249652541441773e+00 1.4227218664574199e+00 1 0 0
584 33 2 1.1500000000000000e-01 2.3130800183202491e+00 7.7131291283138070e+00 3.4615097375069350e+00 1 0 0
1353 73 2 1.1500000000000000e-01 4.8095555499133980e+00 8.8068445694872448e+00 2.7714057547863451e+00 1 0 0
1493 53 6 0.0000000000000000e+00 -6.1032075264268104e-01 8.7419394802485986e+00 3.0748750308948893e+00 1 0 0
1010 54 2 1.1500000000000000e-01 -5.0548274837004499e+00 6.2326685528671035e+00 8.6606372267019758e+00 1 0 0
1005 54 4 -1.1500000000000000e-01 -4.5619225303557807e+00 7.1607226252947651e+00 8.8586963197757633e+00 1 0 0
594 33 2 1.1500000000000000e-01 1.8709942131016257e+00 7.3283653748359869e+00 5.8974326321038015e+00 1 0 0
977 53 7 -1.1500000000000000e-01 -8.8804463961749702e-01 8.4234483608986714e+00 5.4892010758106657e+00 1 0 0
982 53 2 1.1500000000000000e-01 -7.9512577683766938e-01 8.4235021225031907e+00 6.5168450973795826e+00 1 0 0
1004 54 1 -1.1500000000000000e-01 -3.6012638626185720e+00 7.7296742752336849e+00 7.9963320323532088e+00 1 0 0
988 53 3 0.0000000000000000e+00 -7.4868959364513210e-01 8.1186970311747420e+00 2.7137130627623676e+00 1 0 0
601 34 2 1.1500000000000000e-01 -9.9685149751107538e-01 7.1873156325531218e+00 8.6030151639885464e+00 1 0 0
986 53 1 -1.1500000000000000e-01 -3.7687125698556589e-02 8.8599073139883551e+00 4.9845386948689685e-01 1 0 0
232 13 2 1.1500000000000000e-01 -5.8295292632387996e-01 6.9774271501876750e-01 9.1120101673777554e-01 1 0 0
1064 57 2 1.1500000000000000e-01 7.0987254618351132e+00 6.5194811600202653e+00 7.5112721526526927e-01 1 0 0
993 53 2 1.1500000000000000e-01 -1.9808858495878905e+00 6.3588898496625221e+00 3.0080093877835581e+00 1 0 0
250 14 2 1.1500000000000000e-01 -5.2909643891893490e+00 4.9606078251131763e-01 8.7633397508841728e+00 1 0 0
1008 54 1 -1.1500000000000000e-01 -3.0095905158869796e+00 8.9252593503356046e+00 8.3384257768515422e+00 1 0 0
4382 233 2 1.1500000000000000e-01 4.2433377059899131e+00 4.6029589525160328e-02 3.6427357618123990e-04 1 1 0
233 13 2 1.1500000000000000e-01 -1.5987443919398512e+00 -2.3780044902142510e-02 2.9259196318229068e+00 1 0 0
607 34 4 -1.1500000000000000e-01 3.7687473472359301e-01 3.6688109730453951e+00 9.6076585682228508e+00 1 0 0
235 14 7 -1.1500000000000000e-01 -5.2388460883559382e+00 2.4622277327227593e+00 1.3195694254967751e+01 1 0 0
236 14 5 -1.1500000000000000e-01 -4.4589987012808345e+00 3.2774495430867900e+00 1.2335186469054365e+01 1 0 0
597 34 3 0.0000000000000000e+00 -6.0333997860225086e-01 5.8511757793190791e+00 1.0313263942914068e+01 1 0 0
734 14 6 0.0000000000000000e+00 -4.6989319014449586e+00 2.3724439192363707e+00 1.0549679379265614e+01 1 0 0
239 14 1 -1.1500000000000000e-01 -5.8530004843788328e+00 1.2741709315139234e+00 1.2666242887572142e+01 1 0 0
240 14 2 1.1500000000000000e-01 -5.4489055899142107e+00 2.8896947575981020e+00 1.4177604662943708e+01 1 0 0
243 14 2 1.1500000000000000e-01 -6.5002473920582906e+00 6.5350185961737450e-01 1.3271429641432556e+01 1 0 0
4416 235 4 -1.1500000000000000e-01 -5.8044999903046879e+00 8.3723609819337796e-01 1.9111345307805372e+01 1 1 0
4420 235 2 1.1500000000000000e-01 -6.2385900405677246e+00 1.7363554209806435e+00 1.8791908952337927e+01 1 1 0
237 14 3 0.0000000000000000e+00 -4.3881247965168768e+00 2.8874495113194949e+00 1.0996036954383941e+01 1 0 0
4402 234 2 1.1500000000000000e-01 -2.0112105866846717e+00 1.6989783183843201e+00 1.0987404147679248e+01 1 1 0
1007 54 4 -1.1500000000000000e-01 -5.5945256978433404e+00 7.0712127462909686e+00 1.1089769743906615e+01 1 0 0
242 14 2 1.1500000000000000e-01 -3.1802398157786431e+00 4.5762197105340485e+00 1.0485606826212448e+01 1 0 0
255 15 3 0.0000000000000000e+00 -8.8788702129797574e+00 3.1188238148265786e+00 1.8121250697000605e+01 1 0 0
256 15 4 -1.1500000000000000e-01 -8.0005556089408980e+00 3.7407219545215784e+00 1.7144465938075530e+01 1 0 0
260 15 2 1.1500000000000000e-01 -7.5651193751485932e+00 4.6765931488532111e+00 1.7351555129108345e+01 1 0 0
1015 55 3 0.0000000000000000e+00 -8.5487471248235192e+00 8.8045183738992492e+00 1.8074914756070026e+01 1 0 0
4414 235 5 -1.1500000000000000e-01 -4.8307039194505732e+00 3.6487716424463368e-01 1.6843536245795868e+01 1 1 0
264 15 3 0.0000000000000000e+00 -9.4779242108604507e+00 1.8684946422287296e+00 1.7844954406514120e+01 1 0 0
262 15 1 -1.1500000000000000e-01 -8.4488357365386797e+00 1.9457255474228909e+00 1.5547883966468488e+01 1 0 0
266 15 1 -1.1500000000000000e-01 -7.8910115378826680e+00 3.1911799197504749e+00 1.5863788667302050e+01 1 0 0
4408 234 1 -1.1500000000000000e-01 -1.8625276873571304e+00 3.5156988064045697e-01 1.2649160074939527e+01 1 1 0
238 14 4 -1.1500000000000000e-01 -3.6810693700933115e+00 3.7595396645173742e+00 1.0103609647220061e+01 1 0 0
263 15 4 -1.1500000000000000e-01 -9.3402867177945179e+00 1.3063149535074852e+00 1.6528488232859125e+01 1 0 0
735 15 6 0.0000000000000000e+00 -9.0984142529372125e+00 2.4681555503404882e+00 1.7965815503226171e+01 1 0 0
246 14 3 0.0000000000000000e+00 -5.0239198508884630e+00 1.7507240062697651e+00 1.0452854847990357e+01 1 0 0
265 15 4 -1.1500000000000000e-01 -1.0180916507253995e+01 1.1720046242635715e+00 1.8830897916936571e+01 1 0 0
604 34 1 -1.1500000000000000e-01 -8.7038933733898194e-01 4.9022392092877132e+00 1.2882646666270464e+01 1 0 0
605 34 4 -1.1500000000000000e-01 -2.7700907208433012e-01 4.1130972232914278e+00 1.1917014381892546e+01 1 0 0
606 34 3 0.0000000000000000e+00 -1.7690615116807340e-01 4.5283020451440645e+00 1.0605549387551122e+01 1 0 0
1006 54 3 0.0000000000000000e+00 -4.7452139361356078e+00 7.6970386995914968e+00 1.0164035089463205e+01 1 0 0
620 35 2 1.1500000000000000e-01 -6.3731144432183315e+00 7.4170438201794102e+00 1.9224563471528857e+01 1 0 0
1011 54 2 1.1500000000000000e-01 -6.1374590052229410e+00 6.1288526091386375e+00 1.0850051868269928e+01 1 0 0
610 34 2 1.1500000000000000e-01 1.3860538861996918e-01 3.1704080963641679e+00 1.2194586605981069e+01 1 0 0
241 14 2 1.1500000000000000e-01 -3.9583335083034679e+00 4.1792731429140950e+00 1.2658802796796570e+01 1 0 0
611 34 2 1.1500000000000000e-01 8.6981604301009341e-01 2.7272397382467028e+00 9.8271621959617264e+00 1 0 0
598 34 4 -1.1500000000000000e-01 -1.1752469878961209e+00 6.6856134636283446e+00 1.1316266248687789e+01 1 0 0
754 34 6 0.0000000000000000e+00 -3.7601563371760705e-01 5.2452293236110981e+00 1.0450034405924811e+01 1 0 0
609 34 2 1.1500000000000000e-01 -1.1891706725226650e+00 4.4641921494309598e+00 1.3894494132814998e+01 1 0 0
613 35 7 -1.1500000000000000e-01 -4.5978220545154205e+00 5.6667390270137545e+00 1.6034449075884329e+01 1 0 0
618 35 2 1.1500000000000000e-01 -4.3702737787177304e+00 6.2675049092667106e+00 1.5154594712130221e+01 1 0 0
615 35 3 0.0000000000000000e+00 -5.3533083450687853e+00 5.7373362996691863e+00 1.8373775286644797e+01 1 0 0
617 35 1 -1.1500000000000000e-01 -3.9868656593917411e+00 4.4631246372328244e+00 1.6329274041611392e+01 1 0 0
621 35 2 1.1500000000000000e-01 -3.3992203291395864e+00 4.0480164590447707e+00 1.5560348764857867e+01 1 0 0
624 35 3 0.0000000000000000e+00 -4.7185200290830345e+00 4.5299969382584138e+00 1.8655329423848706e+01 1 0 0
625 35 4 -1.1500000000000000e-01 -4.0067043460984477e+00 3.9096294943276404e+00 1.7603150208298867e+01 1 0 0
629 35 2 1.1500000000000000e-01 -3.5906543785912604e+00 2.9278858095111047e+00 1.7952943327424091e+01 1 0 0
755 35 6 0.0000000000000000e+00 -4.9191574000740532e+00 5.1462827876351431e+00 1.8395455081087750e+01 1 0 0
270 15 2 1.1500000000000000e-01 -7.3107523129289103e+00 3.6814061168192844e+00 1.5103094653190576e+01 1 0 0
4398 234 4 -1.1500000000000000e-01 -1.6671172832214580e+00 7.6652881452078658e-01 1.1332119032940513e+01 1 1 0
4412 234 2 1.1500000000000000e-01 -2.2624567692788222e+00 1.1582572488564209e+00 1.3265011467103461e+01 1 1 0
614 35 5 -1.1500000000000000e-01 -5.2499010562410158e+00 6.3177229627885483e+00 1.7047550695167548e+01 1 0 0
247 14 4 -1.1500000000000000e-01 -5.7871962933346657e+00 9.0851538491904649e-01 1.1292996925006278e+01 1 0 0
4419 235 2 1.1500000000000000e-01 -5.1355696978117509e+00 1.3071296317065180e+00 1.6525204882401916e+01 1 1 0
1025 55 4 -1.1500000000000000e-01 -9.8287605973254983e+00 6.7363615590409456e+00 1.8382145475475635e+01 1 0 0
608 34 1 -1.1500000000000000e-01 -1.3530248281093229e+00 6.1602806928255536e+00 1.2589849526462457e+01 1 0 0
269 15 2 1.1500000000000000e-01 -1.0593949688138695e+01 1.6697999967677721e-01 1.8660455463761025e+01 1 0 0
612 34 2 1.1500000000000000e-01 -2.0400933356385380e+00 6.5871123249502430e+00 1.3258766265561675e+01 1 0 0
995 54 7 -1.1500000000000000e-01 -5.3112556721454887e+00 8.8121888144350233e+00 1.2619510782955398e+01 1 0 0
1024 55 3 0.0000000000000000e+00 -9.1767921047573253e+00 7.6857613381488656e+00 1.7480161520276315e+01 1 0 0
1022 55 1 -1.1500000000000000e-01 -8.6358977328746800e+00 8.4161395851277305e+00 1.5226560467194350e+01 1 0 0
1029 55 2 1.1500000000000000e-01 -1.0432353526965590e+01 5.9242702092297597e+00 1.8022741042660744e+01 1 0 0
1023 55 4 -1.1500000000000000e-01 -9.1797019804784483e+00 7.5039755898746066e+00 1.6078973343331278e+01 1 0 0
619 35 2 1.1500000000000000e-01 -5.8141914669847177e+00 7.2218371521018856e+00 1.6844701417617841e+01 1 0 0
602 34 2 1.1500000000000000e-01 -1.5073808021796351e+00 7.6845567476049998e+00 1.1023931516805780e+01 1 0 0
1494 54 6 0.0000000000000000e+00 -4.5669156004816900e+00 8.3844292118575794e+00 1.0192318962349281e+01 1 0 0
1003 54 2 1.1500000000000000e-01 -6.4757186850969433e+00 7.1525860227811338e+00 1.3111162869913320e+01 1 0 0
1495 55 6 0.0000000000000000e+00 -8.7636269985892596e+00 8.2164796893723810e+00 1.7737826325699960e+01 1 0 0
999 54 1 -1.1500000000000000e-01 -5.8738024709567069e+00 7.5888094593641755e+00 1.2367236600938755e+01 1 0 0
616 35 4 -1.1500000000000000e-01 -5.9857379252246092e+00 6.4489938779919234e+00 1.9421495886007225e+01 1 0 0
254 15 5 -1.1500000000000000e-01 -8.8620031902587808e+00 3.6600411627075329e+00 1.9384967350879691e+01 1 0 0
267 15 2 1.1500000000000000e-01 -8.1414649571808511e+00 1.5392210945900697e+00 1.4598953258362098e+01 1 0 0
997 54 3 0.0000000000000000e+00 -4.1491529519463155e+00 8.9137873639659340e+00 1.0453653550043068e+01 1 0 0
1100 59 2 1.1500000000000000e-01 -1.2322546972898270e+00 6.4211660185624835e+00 1.6040174828925007e+01 1 0 0
251 14 2 1.1500000000000000e-01 -6.2617630995663509e+00 6.4813429656063196e-02 1.0848382394103222e+01 1 0 0
259 15 2 1.1500000000000000e-01 -8.3707131871300238e+00 4.6018212917140637e+00 1.9563833735094882e+01 1 0 0
280 16 1 -1.1500000000000000e-01 -1.2748042624988267e+01 2.2652720128760611e+00 2.3090773113754437e+01 1 0 0
1013 55 7 -1.1500000000000000e-01 -9.2689603644667713e+00 8.2236665709908809e+00 2.0212059748963888e+01 1 0 0
258 15 2 1.1500000000000000e-01 -9.7156100036323512e+00 3.4362431364915458e+00 2.1321349181781635e+01 1 0 0
634 36 4 -1.1500000000000000e-01 -1.0185241734750594e+01 6.4230149282197520e+00 2.6243371598062343e+01 1 0 0
1017 55 1 -1.1500000000000000e-01 -9.8756212194490693e+00 7.0511856525615126e+00 1.9736856965370151e+01 1 0 0
257 15 1 -1.1500000000000000e-01 -1.0256814075009423e+01 1.7617339248679003e+00 2.0098965338583021e+01 1 0 0
284 16 1 -1.1500000000000000e-01 -1.2335231380073385e+01 3.4822373483398978e+00 2.3523078380276782e+01 1 0 0
279 16 2 1.1500000000000000e-01 -1.4704978591688683e+01 7.9464447159774587e-01 2.8451789365583611e+01 1 0 0
638 36 2 1.1500000000000000e-01 -1.0445979664980166e+01 7.4612029435176312e+00 2.6013653606034506e+01 1 0 0
288 16 2 1.1500000000000000e-01 -1.1887231286142232e+01 4.1513089496999180e+00 2.2778918861477699e+01 1 0 0
271 16 7 -1.1500000000000000e-01 -1.3689794334815771e+01 2.6024501161244395e+00 2.7978185288397260e+01 1 0 0
272 16 5 -1.1500000000000000e-01 -1.3095797869907997e+01 3.4344923663911531e+00 2.7026417764581421e+01 1 0 0
273 16 3 0.0000000000000000e+00 -1.2977758995476515e+01 3.0227372176908798e+00 2.5723561517187477e+01 1 0 0
274 16 4 -1.1500000000000000e-01 -1.2381036088065061e+01 3.9438163722343837e+00 2.4845965205976626e+01 1 0 0
275 16 1 -1.1500000000000000e-01 -1.4168242926240982e+01 1.3310024664518638e+00 2.7690231637644128e+01 1 0 0
1042 56 3 0.0000000000000000e+00 -1.3555467700963812e+01 7.7161539152744520e+00 2.5226627698666132e+01 1 0 0
277 16 2 1.1500000000000000e-01 -1.2707683495566435e+01 4.3795014650464212e+00 2.7385795642782224e+01 1 0 0
278 16 2 1.1500000000000000e-01 -1.2052197182341002e+01 4.9291852019817393e+00 2.5103703933582018e+01 1 0 0
261 15 2 1.1500000000000000e-01 -1.0752174694403662e+01 1.2564264307742217e+00 2.0880341745310805e+01 1 0 0
282 16 3 0.0000000000000000e+00 -1.3467980925271277e+01 1.7884609262500679e+00 2.5363117397857692e+01 1 0 0
1043 56 4 -1.1500000000000000e-01 -1.4375108570205072e+01 6.9959963682732198e+00 2.6079570633655973e+01 1 0 0
736 16 6 0.0000000000000000e+00 -1.3370437710300839e+01 2.3875303574877202e+00 2.5690863689689255e+01 1 0 0
632 36 5 -1.1500000000000000e-01 -9.2799071665848718e+00 6.0631129102314691e+00 2.4007552956489665e+01 1 0 0
636 36 2 1.1500000000000000e-01 -8.2943365182251227e+00 5.5719084485642929e+00 2.2097305384572575e+01 1 0 0
4438 236 2 1.1500000000000000e-01 -1.0764512067835506e+01 1.5877455046161184e+00 2.6165860204476026e+01 1 1 0
253 15 7 -1.1500000000000000e-01 -9.6749457644503671e+00 2.9962310300337909e+00 2.0359026049345257e+01 1 0 0
623 35 4 -1.1500000000000000e-01 -4.7623465958178359e+00 3.9861230326098251e+00 1.9946301991333048e+01 1 0 0
627 35 2 1.1500000000000000e-01 -5.2419000725245466e+00 4.1959539748610357e+00 2.1948978749561572e+01 1 0 0
644 36 1 -1.1500000000000000e-01 -1.0179021374444085e+01 6.0027912322444452e+00 2.7601005678282949e+01 1 0 0
631 36 7 -1.1500000000000000e-01 -8.4668445190334971e+00 5.2720550266663686e+00 2.3110981338365121e+01 1 0 0
635 36 1 -1.1500000000000000e-01 -8.0039539018427774e+00 4.0586586936576756e+00 2.3559375796848236e+01 1 0 0
628 35 2 1.1500000000000000e-01 -4.3433907533289977e+00 3.0356264542132396e+00 2.0131254665989051e+01 1 0 0
639 36 2 1.1500000000000000e-01 -7.3638062912322919e+00 3.3531319173320169e+00 2.2988276858854324e+01 1 0 0
283 16 4 -1.1500000000000000e-01 -1.4156981222354663e+01 9.2119918004179469e-01 2.6309849396634092e+01 1 0 0
4430 235 2 1.1500000000000000e-01 -6.3089896608636673e+00 1.0594514783992308e+00 2.1186572346779332e+01 1 1 0
4444 236 1 -1.1500000000000000e-01 -1.0564066730014041e+01 1.7260671370274083e-01 2.7742343339926581e+01 1 1 0
4436 236 2 1.1500000000000000e-01 -8.5119264753406725e+00 4.8573419112582727e-02 2.2241455024938890e+01 1 1 0
633 36 3 0.0000000000000000e+00 -9.4930741999470989e+00 5.6006276505609742e+00 2.5347528800322358e+01 1 0 0
4437 236 2 1.1500000000000000e-01 -1.0134852991400598e+01 1.2505913159491775e+00 2.3864349395909503e+01 1 1 0
640 36 1 -1.1500000000000000e-01 -9.6289592293062416e+00 4.7675384418960309e+00 2.7939166594200039e+01 1 0 0
641 36 4 -1.1500000000000000e-01 -8.9439740125920739e+00 3.9923892189318759e+00 2.7016024728049668e+01 1 0 0
642 36 3 0.0000000000000000e+00 -8.8926084872034892e+00 4.3988707790276393e+00 2.5704848289157880e+01 1 0 0
643 36 4 -1.1500000000000000e-01 -8.2136351107207375e+00 3.5344027438431427e+00 2.4833335268002497e+01 1 0 0
622 35 1 -1.1500000000000000e-01 -5.3472050021646318e+00 4.6503630256344026e+00 2.1023066659129107e+01 1 0 0
646 36 2 1.1500000000000000e-01 -8.6512528815259522e+00 2.9839669454462596e+00 2.7261546104234380e+01 1 0 0
647 36 2 1.1500000000000000e-01 -7.7229505092394399e+00 2.6378647939929709e+00 2.5222900454150015e+01 1 0 0
756 36 6 0.0000000000000000e+00 -9.1175985578615837e+00 4.9961979513155930e+00 2.5360715289820828e+01 1 0 0
281 16 4 -1.1500000000000000e-01 -1.3321422312657511e+01 1.3738857502909532e+00 2.4015258145527874e+01 1 0 0
4434 236 4 -1.1500000000000000e-01 -1.0372827667842413e+01 6.7126128250328332e-01 2.6457014566576110e+01 1 1 0
231 13 2 1.1500000000000000e-01 -1.6430865279139010e+01 2.4159475893444373e+00 2.9368465311157372e+01 1 0 -1
4433 236 3 0.0000000000000000e+00 -9.5521718221475105e+00 -1.8799696772713377e-02 2.5543046885557793e+01 1 1 0
648 36 2 1.1500000000000000e-01 -1.0772852325599814e+01 6.3696195158001307e+00 2.8411526560814625e+01 1 0 0
4432 236 5 -1.1500000000000000e-01 -9.5071164233082293e+00 4.4828541342451311e-01 2.4224740643053337e+01 1 1 0
1039 56 2 1.1500000000000000e-01 -1.5341295251657758e+01 6.8911093963659589e+00 2.8037750712821655e+01 1 0 0
626 35 1 -1.1500000000000000e-01 -5.8937376490484956e+00 5.9455009817876974e+00 2.0789714922282023e+01 1 0 0
4448 236 2 1.1500000000000000e-01 -1.1227004621680397e+01 7.0721370843518072e-01 2.8482228442865313e+01 1 1 0
4426 235 1 -1.1500000000000000e-01 -5.9077103716396673e+00 4.2629658672214776e-01 2.0450289436176156e+01 1 1 0
276 16 2 1.1500000000000000e-01 -1.3719778354261866e+01 2.9155329510418380e+00 2.9028502750636012e+01 1 0 0
630 35 2 1.1500000000000000e-01 -6.3300127966760602e+00 6.5320376130273807e+00 2.1678480503310816e+01 1 0 0
1021 55 2 1.1500000000000000e-01 -1.0428830715501002e+01 6.2774307889496930e+00 2.0389178289415391e+01 1 0 0
637 36 2 1.1500000000000000e-01 -9.9110895054648260e+00 6.8991197087764489e+00 2.3687582197146025e+01 1 0 0
645 36 2 1.1500000000000000e-01 -9.7225548797758599e+00 4.4484170520128794e+00 2.8971656452160484e+01 1 0 0
1047 56 2 1.1500000000000000e-01 -1.4908193977189660e+01 6.1878875517886014e+00 2.5717266011850313e+01 1 0 0
286 16 2 1.1500000000000000e-01 -1.3560249474549410e+01 3.8180962341723979e-01 2.3717983187345709e+01 1 0 0
1035 56 1 -1.1500000000000000e-01 -1.4736301617293911e+01 7.4299967061042542e+00 2.7381262518496378e+01 1 0 0
1018 55 2 1.1500000000000000e-01 -9.3817927284853830e+00 8.4355822421714670e+00 2.1255607847293486e+01 1 0 0
1496 56 6 0.0000000000000000e+00 -1.3316499160345307e+01 8.3106343266468166e+00 2.5468316711364039e+01 1 0 0
1040 56 1 -1.1500000000000000e-01 -1.2675905370431494e+01 8.0004749879490120e+00 2.2966492899008461e+01 1 0 0
1041 56 4 -1.1500000000000000e-01 -1.3343301399988809e+01 7.2057911260960923e+00 2.3923672237439508e+01 1 0 0
287 16 2 1.1500000000000000e-01 -1.4459409442033182e+01 -4.5715185644982337e-02 2.6108286720616896e+01 1 0 0
1407 76 2 1.1500000000000000e-01 -8.0162932832089062e+00 8.7716249149011052e+00 2.4606845458625330e+01 1 0 0
285 16 2 1.1500000000000000e-01 -1.2417561039387891e+01 1.9481411356123397e+00 2.2087944714738267e+01 1 0 0
1045 56 2 1.1500000000000000e-01 -1.2466771987966892e+01 7.6309380839921586e+00 2.1982745865286734e+01 1 0 0
1031 56 7 -1.1500000000000000e-01 -1.4039750671570577e+01 8.5570767142378994e+00 2.7826995524464088e+01 1 0 0
1046 56 2 1.1500000000000000e-01 -1.3669937727810758e+01 6.1935672274693694e+00 2.3648722540278754e+01 1 0 0
991 53 2 1.1500000000000000e-01 -1.7033097845133668e+01 8.6243305612347001e+00 2.9371798466255942e+01 1 0 -1
1754 93 2 1.1500000000000000e-01 1.3109357701784248e+00 1.5962518217407029e+01 8.6472887874876225e-02 1 0 0
980 53 4 -1.1500000000000000e-01 5.2882106918401450e-01 1.0178282355401095e+01 2.4235273463847729e+00 1 0 0
984 53 2 1.1500000000000000e-01 9.2210740231463983e-01 1.1092130009852283e+01 2.8812802487027058e+00 1 0 0
1361 74 2 1.1500000000000000e-01 -1.3501536174809772e+00 1.3178180625744851e+01 8.5534050787339932e+00 1 0 0
990 53 1 -1.1500000000000000e-01 5.8277097759413665e-01 9.9430933627078879e+00 1.0762115969529706e+00 1 0 0
2253 93 6 0.0000000000000000e+00 -4.5727703378852680e-01 1.4346915306682016e+01 2.9237601627942205e+00 1 0 0
994 53 2 1.1500000000000000e-01 1.0848158452969712e+00 1.0543021019759834e+01 4.1785405398905628e-01 1 0 0
1741 93 1 -1.1500000000000000e-01 -1.3224450350740689e+00 1.3259185842056606e+01 4.8679368073258251e+00 1 0 0
978 53 5 -1.1500000000000000e-01 -1.6514025137346344e-01 9.3556871279561982e+00 4.6826347466497618e+00 1 0 0
983 53 2 1.1500000000000000e-01 3.2237525018822177e-01 1.0178969324134078e+01 5.2221089701347703e+00 1 0 0
1012 54 2 1.1500000000000000e-01 -2.4650103649912638e+00 9.4759542224698947e+00 7.6115088735481802e+00 1 0 0
1363 74 2 1.1500000000000000e-01 1.2287204977663917e+00 9.8705921970347053e+00 7.6720385694437603e+00 1 0 0
1745 93 2 1.1500000000000000e-01 -1.8394346071435155e+00 1.2611362346928155e+01 5.5464373123164172e+00 1 0 0
2105 113 2 1.1500000000000000e-01 5.2190796154734329e+00 1.5331126698905742e+01 9.4741121312083232e-01 1 0 0
1338 73 5 -1.1500000000000000e-01 3.6174373913160194e+00 1.2284340792646868e+01 1.6227127350549118e+00 1 0 0
1339 73 3 0.0000000000000000e+00 3.4642696975862002e+00 1.1886678019637600e+01 2.9529319384252606e+00 1 0 0
1340 73 4 -1.1500000000000000e-01 2.9085899152738346e+00 1.2797556139563442e+01 3.8951617210441798e+00 1 0 0
1341 73 1 -1.1500000000000000e-01 4.6767365644892385e+00 1.0106764272464160e+01 1.1213332669181193e+00 1 0 0
1337 73 7 -1.1500000000000000e-01 4.2381435998155625e+00 1.1367117784011253e+01 7.2296936231605069e-01 1 0 0
1343 73 2 1.1500000000000000e-01 3.1873092911377268e+00 1.3200287061890611e+01 1.1655028577947815e+00 1 0 0
1348 73 3 0.0000000000000000e+00 3.9100231058236901e+00 1.0666114455678533e+01 3.3776245288317122e+00 1 0 0
1349 73 4 -1.1500000000000000e-01 4.5463540339660584e+00 9.7796336354118747e+00 2.4897367947182603e+00 1 0 0
1513 73 6 0.0000000000000000e+00 3.6877372652046412e+00 1.1326786247428467e+01 3.3798233096771280e+00 1 0 0
1356 74 5 -1.1500000000000000e-01 -7.1607393572026901e-01 1.2369238702128913e+01 8.8173934558821490e+00 1 0 0
1354 73 2 1.1500000000000000e-01 2.0134326120638439e+00 1.3049367831218966e+01 5.9470325398068633e+00 1 0 0
1346 73 1 -1.1500000000000000e-01 3.0099662980705308e+00 1.1095189699336544e+01 5.6575126093558090e+00 1 0 0
1347 73 4 -1.1500000000000000e-01 3.6386850531001045e+00 1.0215708622188140e+01 4.7475393808396289e+00 1 0 0
1350 73 1 -1.1500000000000000e-01 2.6410250823201995e+00 1.2394009171894506e+01 5.2432052812792938e+00 1 0 0
1351 73 2 1.1500000000000000e-01 2.7548949475332236e+00 1.0810271413552458e+01 6.6666975651488647e+00 1 0 0
1352 73 2 1.1500000000000000e-01 3.8900669871274651e+00 9.2539896989667501e+00 4.9831065814558917e+00 1 0 0
1345 73 2 1.1500000000000000e-01 5.1979219145731514e+00 9.4023124468268762e+00 4.5568801622904798e-01 1 0 0
1355 74 7 -1.1500000000000000e-01 2.0309815674509402e-02 1.1577185051093602e+01 7.9377841287609865e+00 1 0 0
1359 74 1 -1.1500000000000000e-01 6.4887665018055074e-01 1.0397740560094078e+01 8.3725283321799751e+00 1 0 0
1360 74 2 1.1500000000000000e-01 4.8989947984874327e-02 1.1921272666671577e+01 6.8807728838710558e+00 1 0 0
1747 93 4 -1.1500000000000000e-01 -6.3454926727136240e-01 1.3361227668920876e+01 1.2662559814220127e+00 1 0 0
1748 93 3 0.0000000000000000e+00 -6.9464685211126342e-01 1.3774163714160576e+01 2.5532141066156777e+00 1 0 0
1742 93 2 1.1500000000000000e-01 -7.7806932423534381e-01 1.4659245358530686e+01 6.4159441621719191e+00 1 0 0
1746 93 1 -1.1500000000000000e-01 1.2566966077873981e-01 1.4177053903726069e+01 3.3774203218330390e-01 1 0 0
1764 94 1 -1.1500000000000000e-01 -4.3522515859623123e+00 1.4501797747930663e+01 7.9405429439643349e+00 1 0 0