LAMMPS (15 May 2015)
Reading data file ...
  triclinic box = (-0.107635 -0.0404339 -0.357111) to (41.3876 35.9384 29.5551) with tilt (-0.0672341 -17.0362 -0.0417078)
  5 by 4 by 3 MPI processor grid
  reading atoms ...
  4560 atoms
  reading velocities ...
  4560 velocities
  scanning bonds ...
  3 = max bonds/atom
  scanning angles ...
  3 = max angles/atom
  scanning dihedrals ...
  8 = max dihedrals/atom
  scanning impropers ...
  1 = max impropers/atom
  reading bonds ...
  5040 bonds
  reading angles ...
  7200 angles
  reading dihedrals ...
  10560 dihedrals
  reading impropers ...
  2400 impropers
Finding 1-2 1-3 1-4 neighbors ...
 Special bond factors lj:   0          0          0         
 Special bond factors coul: 0          0          0         
  4 = max # of 1-2 neighbors
  8 = max # of 1-3 neighbors
  20 = max # of 1-4 neighbors
  16 = max # of special neighbors
4560 atoms in group all
720 atoms in group C
480 atoms in group S
1920 atoms in group H
720 atoms in group Si
240 atoms in group Na
240 atoms in group Ba
240 atoms in group O
4560 atoms in group naphthalene
1200 atoms in group fixed
960 atoms in group CO
Setting atom values ...
  720 settings made for charge
Setting atom values ...
  720 settings made for charge
Setting atom values ...
  1920 settings made for charge
Setting atom values ...
  480 settings made for charge
Setting atom values ...
  240 settings made for charge
Setting atom values ...
  240 settings made for charge
Setting atom values ...
  240 settings made for charge
Finding 1-2 1-3 1-4 neighbors ...
 Special bond factors lj:   0          0          0.5       
 Special bond factors coul: 0          0          0.5       
  4 = max # of 1-2 neighbors
  8 = max # of 1-3 neighbors
  20 = max # of 1-4 neighbors
  16 = max # of special neighbors
PPPM initialization ...
  G vector (1/distance) = 0.246499
  grid = 16 16 20
  stencil order = 5
  estimated absolute RMS force accuracy = 0.00242397
  estimated relative force accuracy = 7.2997e-06
  using double precision FFTs
  3d grid and FFT values/proc = 1053 112
Neighbor list info ...
  4 neighbor list requests
  update every 1 steps, delay 0 steps, check yes
  master list distance cutoff = 12
Setting up run ...
Memory usage per processor = 13.288 Mbytes
Step Temp Density PotEng E_vdwl E_tail E_coul E_long Press Volume Xy Xz Yz E_mol E_bond E_angle E_dihed 14[1] 14[2] 14[3] msd[4] msd2[4] msd3[4] msd4[4] naphthal Cella Cellb Cellc CellAlpha CellBeta CellGamma 27[2] 27[3] 28[1] 28[2] 28[3] 
       0          298    1.2509986    2087.5869   -1173.1339   -211.49952    2070.8667    -2308.979    790.88859    44657.537 -0.067234084   -17.036218 -0.041707817     3498.833    1521.0094     935.4334    889.67826    28.379601    18.846571    14.337846 2.3535127e-29 2.3910021e-29 2.7538641e-29 3.294809e-29          298     41.49527    35.978931    34.423473    90.016431    119.66323    90.107069    18.846182    14.337739    28.379557    18.849013    14.339638 
    1000    302.39786    1.2509986    2056.8378   -1214.7157   -211.49952    2075.4347   -2309.7694   -554.40351    44657.537 -0.067234084   -17.036218 -0.041707817    3505.8882    1565.1345    929.29414    859.41599    28.378297    18.846867    14.337339   0.01707494  0.017072938   0.01784001  0.017790811    302.39786     41.49527    35.978931    34.423473    90.016431    119.66323    90.107069     18.84582    14.337043    28.379941    18.842221     14.33793 
    2000    295.39913    1.2509986    2025.1696   -1214.7917   -211.49952    2070.3225   -2309.4993    -1383.697    44657.537 -0.067234084   -17.036218 -0.041707817     3479.138    1569.4623    905.49319     849.8851    28.379764    18.847673    14.337135  0.016938659  0.016930734  0.018878257  0.018864641    295.39913     41.49527    35.978931    34.423473    90.016431    119.66323    90.107069    18.848843    14.337285    28.376519    18.851037    14.339097 
    3000    300.64634    1.2509986    2092.0305   -1253.8963   -211.49952     2072.742   -2309.3634   -2199.4743    44657.537 -0.067234084   -17.036218 -0.041707817    3582.5482    1587.2855    968.15666    876.61933    28.380543     18.84591    14.337508  0.017002539  0.017001466  0.018265187   0.01824903    300.64634     41.49527    35.978931    34.423473    90.016431    119.66323    90.107069     18.84516    14.337574    28.378769    18.845536    14.337781 
    4000    291.22063    1.2509986    2048.0096   -1233.8622   -211.49952    2077.0537   -2309.1956   -847.29886    44657.537 -0.067234084   -17.036218 -0.041707817    3514.0136    1541.4871    945.02289    869.64169    28.381972    18.845932     14.33842  0.016903746  0.016898649  0.019158253  0.019128365    291.22063     41.49527    35.978931    34.423473    90.016431    119.66323    90.107069    18.845989    14.338414    28.382265    18.845083    14.336971 
    5000    302.61609    1.2509986     1997.163   -1215.3725   -211.49952    2070.6596   -2309.6208   -1083.6336    44657.537 -0.067234084   -17.036218 -0.041707817    3451.4968    1518.7904    914.18252    865.64811    28.378637     18.84527    14.337227  0.017137235  0.017132318  0.017751276  0.017746769    302.61609     41.49527    35.978931    34.423473    90.016431    119.66323    90.107069    18.846368    14.337084    28.377615    18.848236    14.339275 
    6000    298.53245    1.2509986      2011.69   -1244.8755   -211.49952    2073.5376   -2309.0942   -2194.0338    44657.537 -0.067234084   -17.036218 -0.041707817    3492.1222    1553.5223    929.74538    856.93233    28.379758    18.846904    14.337598  0.016940992  0.016940171  0.019540045  0.019493548    298.53245     41.49527    35.978931    34.423473    90.016431    119.66323    90.107069    18.845915    14.338394     28.37425    18.846948    14.343389 
    7000    298.46488    1.2509986    2029.8669   -1257.0253   -211.49952    2069.5119   -2310.0314   -1802.1495    44657.537 -0.067234084   -17.036218 -0.041707817    3527.4116    1568.4942    957.09357    857.80167    28.378354    18.845335    14.337673  0.017453352  0.017448642  0.017210791  0.017182545    298.46488     41.49527    35.978931    34.423473    90.016431    119.66323    90.107069    18.845959    14.338495    28.374622     18.84867    14.341582 
    8000    294.24519    1.2509986    2003.3399   -1226.9676   -211.49952    2074.1618   -2309.9915   -1270.8319    44657.537 -0.067234084   -17.036218 -0.041707817    3466.1372    1512.8528    944.50839    855.91557    28.382095    18.845574    14.338612   0.01655251   0.01654976  0.018696921  0.018691817    294.24519     41.49527    35.978931    34.423473    90.016431    119.66323    90.107069    18.846076     14.33855    28.380481    18.847588    14.341128 
    9000    300.65299    1.2509986    2044.7804   -1200.0008   -211.49952    2071.0386   -2309.8516    1255.5813    44657.537 -0.067234084   -17.036218 -0.041707817    3483.5942    1513.3901    945.45987    870.10552    28.381037    18.846086    14.337796  0.017073734   0.01707276  0.018977668  0.018955119    300.65299     41.49527    35.978931    34.423473    90.016431    119.66323    90.107069    18.846063     14.33776    28.379662    18.844802    14.337446 
   10000    301.44578    1.2509986    2048.3047    -1236.847   -211.49952    2071.3854    -2309.394   -2574.5582    44657.537 -0.067234084   -17.036218 -0.041707817    3523.1602    1578.3747    914.19003    874.39709    28.380667    18.845843    14.338033  0.016779445  0.016778728  0.017543829  0.017514175    301.44578     41.49527    35.978931    34.423473    90.016431    119.66323    90.107069    18.846278    14.338163    28.384359    18.847072    14.341317 
   11000    295.57293    1.2509986    2035.6693   -1221.9335   -211.49952    2074.9317   -2309.8388    328.51678    44657.537 -0.067234084   -17.036218 -0.041707817    3492.5099    1558.2328    925.67001     859.4058    28.379586    18.846222    14.337409  0.016828048  0.016827326  0.017168061  0.017128255    295.57293     41.49527    35.978931    34.423473    90.016431    119.66323    90.107069    18.846216    14.336891    28.383055    18.849246    14.334393 
   12000    294.77832    1.2509986    2046.7737   -1251.3075   -211.49952    2074.4713   -2309.5847   -1622.9761    44657.537 -0.067234084   -17.036218 -0.041707817    3533.1946    1549.9468    978.93459    850.87106    28.379572    18.845416    14.337255  0.017523765  0.017522023   0.01949603  0.019468528    294.77832     41.49527    35.978931    34.423473    90.016431    119.66323    90.107069    18.846716    14.336797    28.377022    18.848125    14.335133 
   13000    297.07373    1.2509986    2036.6742   -1252.8725   -211.49952     2073.401   -2309.3422   -1766.6754    44657.537 -0.067234084   -17.036218 -0.041707817    3525.4879    1548.3068     937.2165    892.31259    28.379818    18.847794     14.33719   0.01745376  0.017449602  0.020960305   0.02091149    297.07373     41.49527    35.978931    34.423473    90.016431    119.66323    90.107069    18.848053    14.338086     28.38093    18.852175    14.345715 
   14000    299.07826    1.2509986    2060.9603   -1210.9408   -211.49952    2074.0262   -2309.3017   -23.413096    44657.537 -0.067234084   -17.036218 -0.041707817    3507.1767    1541.5393    922.51683     889.8415    28.380915    18.846107     14.33791  0.016576197   0.01657447  0.018262824  0.018213286    299.07826     41.49527    35.978931    34.423473    90.016431    119.66323    90.107069    18.846546    14.337863    28.379025    18.845041    14.333852 
   15000    291.02867    1.2509986    1998.6392   -1221.8766   -211.49952    2077.3169   -2309.2864    442.25278    44657.537 -0.067234084   -17.036218 -0.041707817    3452.4853    1559.7811    913.87916    832.48159    28.380161    18.846225    14.337552  0.017339124  0.017338235  0.020782512  0.020728978    291.02867     41.49527    35.978931    34.423473    90.016431    119.66323    90.107069    18.846004    14.336886    28.383546     18.84438    14.335619 
   16000    295.30733    1.2509986    1996.7165   -1220.4734   -211.49952    2072.9516   -2309.5694   -289.78092    44657.537 -0.067234084   -17.036218 -0.041707817    3453.8077    1512.6532    909.51667    882.45837     28.37835    18.846231    14.337303   0.01695728  0.016951365  0.017614172  0.017583083    295.30733     41.49527    35.978931    34.423473    90.016431    119.66323    90.107069    18.846289     14.33712    28.375025    18.850701    14.342413 
   17000    298.04787    1.2509986    1922.1909      -1243.7   -211.49952    2069.5342   -2309.6404   -378.44771    44657.537 -0.067234084   -17.036218 -0.041707817    3405.9971    1534.3383     918.0528    814.90286    28.380996     18.84528    14.338173  0.017628214  0.017626372  0.017148067   0.01711291    298.04787     41.49527    35.978931    34.423473    90.016431    119.66323    90.107069    18.845304    14.338037    28.378292    18.843311    14.338615 
   18000    299.95491    1.2509986    2000.9109   -1206.8958   -211.49952    2075.5112   -2309.5774    723.55858    44657.537 -0.067234084   -17.036218 -0.041707817    3441.8729    1494.5503    955.40656    842.43167    28.381215    18.845796    14.338437  0.017091535  0.017090217  0.018308045  0.018307055    299.95491     41.49527    35.978931    34.423473    90.016431    119.66323    90.107069    18.845155    14.338222    28.379583    18.848088    14.340004 
   19000    296.72877    1.2509986    1993.8294   -1198.5586   -211.49952    2070.7164   -2309.3905   -216.65921    44657.537 -0.067234084   -17.036218 -0.041707817     3431.062    1472.2634    935.05881    865.67043    28.379031    18.844978    14.337284  0.016922799   0.01692187  0.018964774  0.018945755    296.72877     41.49527    35.978931    34.423473    90.016431    119.66323    90.107069    18.846632    14.337409    28.375343    18.849796    14.338828 
   20000     292.8306    1.2509986    1984.8833   -1245.5368   -211.49952    2071.7007   -2309.5757   -1026.9344    44657.537 -0.067234084   -17.036218 -0.041707817     3468.295    1547.4143    935.88655    837.98259    28.377659    18.845226    14.336935  0.017181224  0.017178266  0.018240167  0.018215237     292.8306     41.49527    35.978931    34.423473    90.016431    119.66323    90.107069    18.845942    14.337097    28.376153    18.845589    14.340913 
   21000    296.44221    1.2509986    2084.0854   -1201.8569   -211.49952    2071.6142   -2310.0722    1006.0016    44657.537 -0.067234084   -17.036218 -0.041707817    3524.4003    1563.0258    932.34757    873.53221    28.379483    18.844564    14.337083  0.017984861  0.017970656  0.019445234   0.01927724    296.44221     41.49527    35.978931    34.423473    90.016431    119.66323    90.107069    18.843169    14.335861    28.389655     18.84397    14.333267 
   22000     303.1401    1.2509986    2043.7427   -1232.7195   -211.49952    2075.4731    -2309.411     112.0399    44657.537 -0.067234084   -17.036218 -0.041707817    3510.4002    1567.2977    944.00985    851.09133    28.378236    18.845726    14.336928  0.017842959  0.017835631  0.017928217  0.017615309     303.1401     41.49527    35.978931    34.423473    90.016431    119.66323    90.107069    18.845755    14.335099    28.389723    18.844004    14.326056 
   23000     300.6624    1.2509986    2038.8192   -1211.9669   -211.49952    2073.9479   -2309.6077    708.91104    44657.537 -0.067234084   -17.036218 -0.041707817    3486.4459    1543.6498    934.90772    857.66671     28.37844    18.845677    14.337671  0.016506757   0.01649951  0.017245067  0.017173687     300.6624     41.49527    35.978931    34.423473    90.016431    119.66323    90.107069    18.846819    14.338392    28.372815    18.843976    14.340387 
   24000     299.7566    1.2509986    2044.0899    -1199.841   -211.49952    2066.8739   -2309.5148    294.58692    44657.537 -0.067234084   -17.036218 -0.041707817    3486.5718    1562.7554    915.69259    867.26854    28.380102    18.846223    14.337468  0.017729185  0.017727141  0.019967904  0.019821287     299.7566     41.49527    35.978931    34.423473    90.016431    119.66323    90.107069    18.845982     14.33907    28.371229    18.846535    14.348072 
   25000    299.97728    1.2509986    2059.6706    -1212.755   -211.49952    2073.9674   -2309.5757   -601.71918    44657.537 -0.067234084   -17.036218 -0.041707817    3508.0338    1579.5864    905.87807    871.76222    28.382613     18.84559    14.338681  0.017394194  0.017393239  0.018439568  0.018407645    299.97728     41.49527    35.978931    34.423473    90.016431    119.66323    90.107069    18.845869    14.338093    28.383436    18.844995    14.338784 
   26000    302.81199    1.2509986    2069.3149   -1239.5511   -211.49952    2074.2644   -2309.3968   -1447.0589    44657.537 -0.067234084   -17.036218 -0.041707817    3543.9985    1556.3564    930.72316     900.2327    28.380498    18.845954    14.338164  0.017173972  0.017164355  0.018835515  0.018810004    302.81199     41.49527    35.978931    34.423473    90.016431    119.66323    90.107069    18.847365    14.339027    28.379924    18.853498    14.341932 
   27000    296.84991    1.2509986    2054.1794   -1239.2507   -211.49952    2070.2536   -2309.4785   -2437.2646    44657.537 -0.067234084   -17.036218 -0.041707817     3532.655    1591.7677    927.14078    864.24848    28.379417    18.846143    14.337851  0.016744896  0.016741077  0.018796728  0.018745946    296.84991     41.49527    35.978931    34.423473    90.016431    119.66323    90.107069    18.845716    14.339591    28.383646    18.847068    14.345141 
   28000    304.18533    1.2509986    2118.2287   -1201.4376   -211.49952    2073.1443   -2309.8532    134.50757    44657.537 -0.067234084   -17.036218 -0.041707817    3556.3752    1574.3091    958.48224    870.46289     28.37878    18.845991    14.337072  0.016886621  0.016872603  0.019036242  0.018954809    304.18533     41.49527    35.978931    34.423473    90.016431    119.66323    90.107069    18.847593    14.336167    28.376532    18.850783    14.331323 
   29000    297.30122    1.2509986    1976.5284   -1252.1883   -211.49952    2068.9708   -2309.7805   -3000.9333    44657.537 -0.067234084   -17.036218 -0.041707817    3469.5264    1518.7063    945.74432    859.53503     28.38156     18.84703    14.337664  0.017227286  0.017223114  0.018512009  0.018425734    297.30122     41.49527    35.978931    34.423473    90.016431    119.66323    90.107069    18.847202    14.336877    28.381975    18.844856    14.331692 
   30000    299.95335    1.2509986    2067.6115   -1205.9393   -211.49952    2072.3856   -2309.5563    292.60743    44657.537 -0.067234084   -17.036218 -0.041707817    3510.7215    1559.0415    914.79528    879.67288    28.379335    18.845805    14.337317  0.017437597  0.017433168  0.019946312  0.019905874    299.95335     41.49527    35.978931    34.423473    90.016431    119.66323    90.107069    18.847428    14.337336     28.38533    18.849733    14.337071 
   31000    300.10338    1.2509986    2030.6725   -1243.8103   -211.49952    2074.5756   -2309.5079   -840.04767    44657.537 -0.067234084   -17.036218 -0.041707817    3509.4151    1534.7339    942.87229    878.45982    28.379395    18.845776    14.337368  0.016413575  0.016412138   0.01893807   0.01887382    300.10338     41.49527    35.978931    34.423473    90.016431    119.66323    90.107069    18.845437    14.336852    28.375027    18.844269     14.33503 
   32000     302.6246    1.2509986    2023.9202   -1250.2566   -211.49952    2068.8724   -2309.9698   -1203.8262    44657.537 -0.067234084   -17.036218 -0.041707817    3515.2742    1545.7132    928.85246     890.1471    28.377743    18.845211    14.337149  0.016760527  0.016752826  0.017967719  0.017930517     302.6246     41.49527    35.978931    34.423473    90.016431    119.66323    90.107069    18.846796    14.337838    28.373714    18.850696    14.339156 
   33000    298.45912    1.2509986    2029.1908   -1227.2667   -211.49952     2073.335    -2309.422   -799.01989    44657.537 -0.067234084   -17.036218 -0.041707817    3492.5446    1532.8388    925.20691    882.31458    28.379115      18.8457    14.338564   0.01684992  0.016846151  0.018752854  0.018621968    298.45912     41.49527    35.978931    34.423473    90.016431    119.66323    90.107069    18.845199    14.339378    28.383935    18.846273    14.349846 
   34000    291.56944    1.2509986    1973.5748   -1264.0421   -211.49952    2071.4492   -2309.7738   -1855.7439    44657.537 -0.067234084   -17.036218 -0.041707817    3475.9415    1553.7446    917.96265    854.99178    28.380363    18.846001    14.337572  0.017584781  0.017576783  0.019192378  0.019108832    291.56944     41.49527    35.978931    34.423473    90.016431    119.66323    90.107069    18.845315    14.338791    28.386488    18.846135    14.344855 
   35000    297.22029    1.2509986    1948.6465   -1250.2475   -211.49952    2073.4526   -2309.6376   -1374.9094    44657.537 -0.067234084   -17.036218 -0.041707817    3435.0791    1548.3593    910.78498    830.67958    28.379643    18.846733    14.337294  0.017299133  0.017298653  0.018471603  0.018443829    297.22029     41.49527    35.978931    34.423473    90.016431    119.66323    90.107069    18.845775    14.338295    28.374293    18.849215    14.339477 
   36000    295.99103    1.2509986    1916.2085   -1247.1591   -211.49952    2072.5048   -2309.9724   -1425.4544    44657.537 -0.067234084   -17.036218 -0.041707817    3400.8352    1532.7293    897.23143    826.18572    28.380736     18.84657    14.337669  0.016684616  0.016683101   0.01720959   0.01719579    295.99103     41.49527    35.978931    34.423473    90.016431    119.66323    90.107069    18.846741    14.338677     28.37854    18.846869    14.342497 
   37000    297.15847    1.2509986    2040.5301   -1239.0918   -211.49952    2077.1533   -2309.1961   -740.36845    44657.537 -0.067234084   -17.036218 -0.041707817    3511.6647    1547.5089    942.86212    866.70185    28.379025    18.846294    14.337473    0.0169135  0.016912944  0.017572527  0.017503993    297.15847     41.49527    35.978931    34.423473    90.016431    119.66323    90.107069    18.845464    14.337905     28.38528    18.848534      14.3456 
   38000    301.00212    1.2509986    2001.8419   -1216.0129   -211.49952    2072.9567   -2309.5149    167.23875    44657.537 -0.067234084   -17.036218 -0.041707817     3454.413    1521.7301    911.44973    867.28828    28.379602    18.845809    14.337437  0.017059748  0.017056859  0.018423312  0.018316289    301.00212     41.49527    35.978931    34.423473    90.016431    119.66323    90.107069    18.846004    14.336945    28.371735     18.84605    14.333549 
   39000    292.33216    1.2509986    2006.1931   -1241.4994   -211.49952     2073.648   -2309.6966   -722.78589    44657.537 -0.067234084   -17.036218 -0.041707817     3483.741    1564.5264    926.31261    846.89844    28.378969    18.846955    14.337439  0.016496227  0.016494429  0.019571926  0.019515258    292.33216     41.49527    35.978931    34.423473    90.016431    119.66323    90.107069    18.846605    14.338269    28.374817     18.84469    14.343578 
   40000    296.07908    1.2509986    2052.4334   -1236.9032   -211.49952    2073.4898   -2309.1884   -1039.5924    44657.537 -0.067234084   -17.036218 -0.041707817    3525.0352    1569.4002    953.39579    854.43545    28.378827    18.845883    14.337634  0.016973499  0.016969573  0.020171988  0.020159159    296.07908     41.49527    35.978931    34.423473    90.016431    119.66323    90.107069    18.844817    14.338922     28.38042    18.845691    14.340662 
   41000    301.94419    1.2509986    2055.5465    -1234.232   -211.49952    2071.9257   -2309.7292   -766.22668    44657.537 -0.067234084   -17.036218 -0.041707817    3527.5821    1547.1319    932.08376    891.71492    28.380836    18.846728    14.339012  0.017375881  0.017364568  0.017033273  0.017004132    301.94419     41.49527    35.978931    34.423473    90.016431    119.66323    90.107069    18.848326    14.340048    28.380998    18.846492    14.344189 
   42000    294.53743    1.2509986    2043.1888   -1216.9353   -211.49952    2071.0223   -2309.4585    -129.4073    44657.537 -0.067234084   -17.036218 -0.041707817    3498.5604    1567.8732    911.75677    863.35971    28.382329    18.845304    14.337702  0.016445172   0.01644108   0.01765554  0.017565746    294.53743     41.49527    35.978931    34.423473    90.016431    119.66323    90.107069    18.844523    14.336801    28.387139    18.843892    14.337171 
   43000    294.01183    1.2509986    1925.2607   -1223.4703   -211.49952    2074.9881   -2309.2314    811.85577    44657.537 -0.067234084   -17.036218 -0.041707817    3382.9742    1486.8344    921.77751    828.71763    28.381671    18.846412    14.338216  0.017282327  0.017281803  0.020023002  0.020003634    294.01183     41.49527    35.978931    34.423473    90.016431    119.66323    90.107069    18.846283    14.338127    28.376349    18.847742     14.34237 
   44000    301.93652    1.2509986    2070.3748   -1213.0059   -211.49952    2074.6304   -2309.2617   -219.98535    44657.537 -0.067234084   -17.036218 -0.041707817     3518.012    1567.7156    948.18667    852.29784    28.379559    18.846355    14.338077  0.017504548  0.017503404  0.018443521  0.018396239    301.93652     41.49527    35.978931    34.423473    90.016431    119.66323    90.107069    18.845915    14.337144    28.382881    18.847319    14.333862 
   45000    298.08838    1.2509986    1949.8947   -1251.3246   -211.49952    2072.2373   -2309.6869   -493.92816    44657.537 -0.067234084   -17.036218 -0.041707817    3438.6689    1566.2428    899.16993      828.712     28.37878    18.846478    14.337206  0.016872103  0.016870167  0.018561731  0.018402644    298.08838     41.49527    35.978931    34.423473    90.016431    119.66323    90.107069    18.846444    14.336374    28.380881     18.84626    14.327401 
   46000     294.5353    1.2509986    1975.8243   -1234.5101   -211.49952     2074.276   -2309.6747    519.79718    44657.537 -0.067234084   -17.036218 -0.041707817    3445.7332    1541.4121    902.27018    848.41681    28.379356    18.844269    14.337659  0.016944313  0.016938176  0.017649272  0.017554382     294.5353     41.49527    35.978931    34.423473    90.016431    119.66323    90.107069    18.844438    14.338205      28.3833    18.840042     14.33901 
   47000     299.9154    1.2509986    1994.0967   -1227.7174   -211.49952     2071.201   -2309.9361    455.98301    44657.537 -0.067234084   -17.036218 -0.041707817    3460.5491    1521.3494    933.50556    858.41775     28.38045    18.845987    14.337862  0.016257985  0.016249638  0.017019504  0.016986493     299.9154     41.49527    35.978931    34.423473    90.016431    119.66323    90.107069     18.84815    14.338446      28.3817    18.849348    14.344958 
   48000    294.61926    1.2509986    1996.9255   -1205.1509   -211.49952    2073.5959   -2309.1626    1422.0477    44657.537 -0.067234084   -17.036218 -0.041707817    3437.6431    1521.3164    922.25771    848.50372    28.378883    18.846221    14.337706   0.01708887  0.017087399  0.017761055  0.017746162    294.61926     41.49527    35.978931    34.423473    90.016431    119.66323    90.107069    18.845752    14.338643    28.376215    18.848955    14.341567 
   49000    295.68895    1.2509986    2031.4591   -1240.6198   -211.49952     2074.568   -2309.3134    40.437424    44657.537 -0.067234084   -17.036218 -0.041707817    3506.8242    1568.5904    922.46103    866.30831    28.380397    18.845805    14.337522  0.017171336  0.017167955  0.017925109  0.017896317    295.68895     41.49527    35.978931    34.423473    90.016431    119.66323    90.107069    18.846147    14.336832    28.376592    18.844796    14.338148 
   50000    292.79193    1.2509986    1947.7899   -1252.7186   -211.49952    2075.0923   -2309.4144   -1366.2514    44657.537 -0.067234084   -17.036218 -0.041707817    3434.8305    1499.5946    936.13858    849.47454    28.380616    18.847109    14.338595   0.01748988  0.017484868  0.019631845  0.019612202    292.79193     41.49527    35.978931    34.423473    90.016431    119.66323    90.107069    18.847037    14.338324    28.382114    18.847608    14.336303 
   51000     301.2042    1.2509986    2003.9385   -1232.0399   -211.49952    2068.1354   -2309.4535   -957.61571    44657.537 -0.067234084   -17.036218 -0.041707817    3477.2964     1504.545    943.44472    873.80786    28.379049    18.846395    14.336807  0.017089142  0.017088506  0.018258032  0.018200856     301.2042     41.49527    35.978931    34.423473    90.016431    119.66323    90.107069    18.845688    14.337293    28.380197    18.843866    14.334136 
   52000    301.46498    1.2509986    2029.5664   -1234.5854   -211.49952    2071.4277   -2309.2451   -576.87701    44657.537 -0.067234084   -17.036218 -0.041707817    3501.9692    1518.0795    943.92359    890.06217    28.380295    18.845307    14.337921  0.017236726  0.017233721  0.017434744  0.017415907    301.46498     41.49527    35.978931    34.423473    90.016431    119.66323    90.107069    18.847477    14.338246    28.378626    18.847536    14.343612 
   53000    296.82488    1.2509986    1945.7014   -1226.7783   -211.49952    2075.9913   -2309.4961    931.87064    44657.537 -0.067234084   -17.036218 -0.041707817    3405.9845    1480.3825    930.61956     845.1279    28.380466    18.846419    14.337757  0.017040832  0.017036524  0.020089275  0.020043999    296.82488     41.49527    35.978931    34.423473    90.016431    119.66323    90.107069    18.847581    14.338673      28.3823    18.855119    14.340321 
   54000    296.77203    1.2509986    2007.4608   -1228.2505   -211.49952    2073.7623   -2309.1967    -428.2372    44657.537 -0.067234084   -17.036218 -0.041707817    3471.1457    1559.1579    948.58165    819.98131    28.381002    18.846296    14.337678   0.01646277  0.016460626  0.017601684   0.01758867    296.77203     41.49527    35.978931    34.423473    90.016431    119.66323    90.107069    18.847442    14.337244    28.379973    18.852022    14.337693 
   55000    298.91107    1.2509986    2007.7936   -1244.0019   -211.49952    2071.4657   -2309.7312   -1461.4576    44657.537 -0.067234084   -17.036218 -0.041707817     3490.061    1584.0129    908.48383    850.80958    28.381644    18.845315    14.337381  0.017246335  0.017242819  0.018941663    0.0189039    298.91107     41.49527    35.978931    34.423473    90.016431    119.66323    90.107069    18.844546    14.337113    28.384222    18.845478     14.34151 
   56000    297.55537    1.2509986    2068.0387   -1208.3667   -211.49952    2069.3743   -2309.3605    218.54816    44657.537 -0.067234084   -17.036218 -0.041707817    3516.3917    1557.6975     940.6007    868.07264    28.380448    18.846794    14.337666  0.017743324  0.017735589  0.019244921  0.019242191    297.55537     41.49527    35.978931    34.423473    90.016431    119.66323    90.107069    18.848852    14.336969     28.37904    18.850077    14.338485 
   57000    292.79666    1.2509986    2020.0051   -1225.3572   -211.49952    2071.1631    -2309.935   -441.90925    44657.537 -0.067234084   -17.036218 -0.041707817    3484.1342    1506.9879    923.23197    896.40656    28.379753    18.846711    14.337118  0.017357019  0.017354941  0.020535915  0.020530972    292.79666     41.49527    35.978931    34.423473    90.016431    119.66323    90.107069    18.847012    14.337068    28.378206    18.847915    14.338255 
   58000    301.49833    1.2509986    2050.4517   -1241.8031   -211.49952    2073.3486    -2309.488   -2933.0475    44657.537 -0.067234084   -17.036218 -0.041707817    3528.3943    1588.6239    937.02698    859.44258    28.382258    18.845405    14.338289  0.016144001  0.016141101  0.017287019  0.017283488    301.49833     41.49527    35.978931    34.423473    90.016431    119.66323    90.107069    18.846122    14.338556    28.378219    18.849507    14.340862 
   59000    303.95719    1.2509986    2053.3269   -1222.4496   -211.49952    2073.4976   -2309.5552    220.26689    44657.537 -0.067234084   -17.036218 -0.041707817    3511.8341    1534.0673    919.28831    900.36385    28.377996    18.845119    14.337345  0.016885099  0.016878101  0.018936048  0.018876851    303.95719     41.49527    35.978931    34.423473    90.016431    119.66323    90.107069    18.845487    14.338556    28.377311    18.848344    14.346967 
   60000    299.39578    1.2509986    2049.2626   -1208.4501   -211.49952    2073.7104   -2309.2162    936.65151    44657.537 -0.067234084   -17.036218 -0.041707817    3493.2184    1597.1882    910.99519    839.20306     28.37858    18.846177    14.337339   0.01724087   0.01724021  0.019731894   0.01968463    299.39578     41.49527    35.978931    34.423473    90.016431    119.66323    90.107069    18.846771    14.338192    28.385761      18.8497    14.342518 
   61000    296.54287    1.2509986    2000.8979    -1232.567   -211.49952    2074.2785   -2309.6591    -724.5664    44657.537 -0.067234084   -17.036218 -0.041707817    3468.8455    1560.2435    911.15064    851.99471    28.379854    18.846878    14.337285  0.016272904  0.016271515   0.01634406  0.016318958    296.54287     41.49527    35.978931    34.423473    90.016431    119.66323    90.107069    18.847322    14.337995     28.37517    18.846784    14.340582 
   62000    300.88952    1.2509986    2023.5095   -1215.5534   -211.49952    2073.0003   -2309.4396    1026.1904    44657.537 -0.067234084   -17.036218 -0.041707817    3475.5022    1566.8446    909.94274    851.41532    28.380849    18.846002    14.338472  0.017230948  0.017228123  0.018095049  0.018044071    300.88952     41.49527    35.978931    34.423473    90.016431    119.66323    90.107069    18.846953    14.339216    28.380683    18.850973    14.346411 
   63000     305.9897    1.2509986    2024.9816   -1242.3167   -211.49952    2076.1397   -2309.5932   -1019.1844    44657.537 -0.067234084   -17.036218 -0.041707817    3500.7519    1536.0774    946.33724    872.43256    28.380512    18.846446    14.338049  0.017101596    0.0171005  0.019528353  0.019493424     305.9897     41.49527    35.978931    34.423473    90.016431    119.66323    90.107069    18.846134    14.338622    28.376092    18.844891    14.342074 
   64000    298.14544    1.2509986     2007.951   -1224.1948   -211.49952    2075.1263   -2309.3048    1008.2769    44657.537 -0.067234084   -17.036218 -0.041707817    3466.3244    1542.0286    928.61383    848.34891    28.380365    18.845001    14.337823  0.017032158  0.017026975   0.01919307  0.019163763    298.14544     41.49527    35.978931    34.423473    90.016431    119.66323    90.107069    18.845486     14.33651    28.375628    18.846538    14.342422 
   65000    301.44802    1.2509986    2037.5453   -1235.3644   -211.49952    2074.5091   -2309.1934   -1160.9385    44657.537 -0.067234084   -17.036218 -0.041707817    3507.5941    1564.5975    955.16008    843.10902    28.379674    18.846606    14.337777  0.016526603  0.016524302  0.016730925  0.016727152    301.44802     41.49527    35.978931    34.423473    90.016431    119.66323    90.107069    18.847542    14.338373    28.377895    18.849199    14.338649 
   66000    288.46276    1.2509986    2070.7102   -1238.0154   -211.49952    2072.6466   -2309.5215   -2493.2884    44657.537 -0.067234084   -17.036218 -0.041707817    3545.6005    1583.3831    940.88024    867.67801     28.38054    18.846206    14.337886  0.016823989  0.016823226  0.018853259  0.018828886    288.46276     41.49527    35.978931    34.423473    90.016431    119.66323    90.107069    18.846464    14.338493     28.37484     18.84885    14.341086 
   67000    299.90185    1.2509986    1986.0947   -1239.0491   -211.49952    2071.3956   -2309.5045   -1537.6368    44657.537 -0.067234084   -17.036218 -0.041707817    3463.2527    1560.8238     928.3898    833.01914    28.381777     18.84573    14.337779  0.017289959   0.01728644  0.019263842  0.019096843    299.90185     41.49527    35.978931    34.423473    90.016431    119.66323    90.107069    18.844633    14.337339    28.386374    18.843803    14.329975 
   68000    297.60297    1.2509986    2005.1587   -1208.2015   -211.49952    2075.5654   -2309.5244    1102.3283    44657.537 -0.067234084   -17.036218 -0.041707817    3447.3193    1496.3026    958.45413    847.42314    28.381417    18.845413    14.338231  0.016459911  0.016457462  0.017681286  0.017629888    297.60297     41.49527    35.978931    34.423473    90.016431    119.66323    90.107069    18.846417    14.339286    28.381201     18.84757    14.346465 
   69000    294.68611    1.2509986    2051.2929   -1218.0415   -211.49952    2077.0467   -2309.2139    160.41213    44657.537 -0.067234084   -17.036218 -0.041707817    3501.5016    1542.3348    942.38523    863.21927    28.379252    18.845825    14.337188  0.017310049  0.017305103  0.019060737  0.018954443    294.68611     41.49527    35.978931    34.423473    90.016431    119.66323    90.107069    18.847655    14.336454     28.38275    18.849161    14.329836 
   70000    290.39711    1.2509986    2017.9626   -1215.9422   -211.49952    2073.7906   -2309.6414    1061.5696    44657.537 -0.067234084   -17.036218 -0.041707817    3469.7556    1528.5898    935.60084    855.77723    28.379825    18.846664    14.337654  0.017579971  0.017575228  0.016677435   0.01663242    290.39711     41.49527    35.978931    34.423473    90.016431    119.66323    90.107069    18.846059    14.338021    28.385896    18.846889    14.339079 
   71000    297.66525    1.2509986    1925.8479   -1229.3366   -211.49952    2068.6368   -2309.5576   -960.31281    44657.537 -0.067234084   -17.036218 -0.041707817    3396.1053     1489.587    910.19715    849.11296    28.378426    18.845984    14.336958  0.016765529  0.016763814  0.018505178   0.01850472    297.66525     41.49527    35.978931    34.423473    90.016431    119.66323    90.107069    18.847238    14.338219    28.378942    18.849246    14.339476 
   72000    292.98421    1.2509986     2075.802   -1236.5027   -211.49952    2075.5804   -2309.4719   -1155.5116    44657.537 -0.067234084   -17.036218 -0.041707817    3546.1961    1563.8178    945.44383     884.5233    28.381634    18.846341    14.337497  0.016629018  0.016627694  0.017497743  0.017484894    292.98421     41.49527    35.978931    34.423473    90.016431    119.66323    90.107069    18.845854    14.337138    28.383117    18.849391    14.339806 
   73000    295.42672    1.2509986    1893.6604   -1251.9575   -211.49952    2071.2301   -2309.8448   -199.93178    44657.537 -0.067234084   -17.036218 -0.041707817    3384.2327    1512.4443    864.65751    858.34362    28.379502    18.846308    14.337857  0.017121656  0.017115738  0.019975699  0.019828625    295.42672     41.49527    35.978931    34.423473    90.016431    119.66323    90.107069    18.844121     14.33796    28.386848     18.83935     14.34037 
   74000    299.37629    1.2509986    2005.3662   -1219.6111   -211.49952    2072.0678   -2309.6035   -494.09076    44657.537 -0.067234084   -17.036218 -0.041707817    3462.5129      1522.35    905.76327    883.04488    28.379167    18.845471    14.337303  0.017997958  0.017973923  0.021362011  0.021202033    299.37629     41.49527    35.978931    34.423473    90.016431    119.66323    90.107069    18.845923    14.336419    28.369741     18.84762    14.331783 
   75000    295.91526    1.2509986    2004.3936   -1252.0033   -211.49952     2072.911   -2309.8901   -192.84349    44657.537 -0.067234084   -17.036218 -0.041707817     3493.376    1544.0639    942.76665    854.13531    28.378014    18.845678    14.337338  0.017998468  0.017997204  0.019043543  0.019007668    295.91526     41.49527    35.978931    34.423473    90.016431    119.66323    90.107069    18.845343    14.338484    28.380399    18.845631    14.344509 
   76000    300.62364    1.2509986    1947.6489   -1243.5685   -211.49952    2075.6501   -2309.4486   -686.10262    44657.537 -0.067234084   -17.036218 -0.041707817    3425.0159    1517.7032    882.13378    874.44096    28.380121    18.846745    14.337288  0.017782832  0.017779408  0.018013517  0.017969895    300.62364     41.49527    35.978931    34.423473    90.016431    119.66323    90.107069    18.846587    14.337724    28.385851    18.847015    14.339519 
   77000    300.66453    1.2509986    2010.4798   -1233.2547   -211.49952    2072.3777   -2309.6148   -1247.2794    44657.537 -0.067234084   -17.036218 -0.041707817    3480.9716    1526.6981    946.22044    857.55767    28.381705    18.846741    14.338555  0.017088287  0.017086186  0.018653821  0.018636781    300.66453     41.49527    35.978931    34.423473    90.016431    119.66323    90.107069    18.847241    14.337935      28.3765    18.848687    14.342394 
   78000     300.3992    1.2509986    2038.0938    -1241.855   -211.49952    2071.7562   -2309.8044   -1684.6597    44657.537 -0.067234084   -17.036218 -0.041707817     3517.997    1590.9247    895.98049    876.34635    28.379238    18.846539    14.336943  0.016494566  0.016474964  0.018842627  0.018787749     300.3992     41.49527    35.978931    34.423473    90.016431    119.66323    90.107069    18.847714    14.335414     28.37774    18.853098    14.333732 
   79000    300.59975    1.2509986     1964.775    -1228.251   -211.49952     2073.151   -2309.5784   -1161.7944    44657.537 -0.067234084   -17.036218 -0.041707817    3429.4534    1530.7087    904.10605    844.60763    28.379373    18.845786    14.337449  0.016749199  0.016748484  0.018405894  0.018372978    300.59975     41.49527    35.978931    34.423473    90.016431    119.66323    90.107069     18.84596    14.338489    28.383647    18.848324    14.343601 
   80000    298.00622    1.2509986    2042.1343   -1234.4459   -211.49952    2075.5234   -2309.1499   -579.01559    44657.537 -0.067234084   -17.036218 -0.041707817    3510.2066    1575.5935    905.69814    876.73652    28.381692    18.847289    14.337736  0.017209739  0.017204445   0.01738677  0.017309521    298.00622     41.49527    35.978931    34.423473    90.016431    119.66323    90.107069    18.846861    14.336763    28.375233    18.851848     14.33253 
   81000    300.56921    1.2509986    2088.6977   -1230.5403   -211.49952    2070.1218   -2309.5096   -1845.5046    44657.537 -0.067234084   -17.036218 -0.041707817    3558.6259    1591.3236    954.41142    863.12711    28.377862    18.846851    14.337105  0.017386951   0.01738384  0.017795841   0.01778782    300.56921     41.49527    35.978931    34.423473    90.016431    119.66323    90.107069    18.847807    14.338247    28.381932     18.84782    14.340615 
   82000       297.92    1.2509986    2011.5622   -1217.6244   -211.49952    2070.9944   -2309.7778   -216.70399    44657.537 -0.067234084   -17.036218 -0.041707817      3467.97    1532.2808    922.82994    861.59533    28.380073     18.84669    14.337534   0.01776199  0.017760791  0.018128707  0.018067811       297.92     41.49527    35.978931    34.423473    90.016431    119.66323    90.107069    18.845731    14.337953    28.374722    18.843253    14.337554 
   83000    295.34032    1.2509986    1962.0524   -1209.3353   -211.49952    2072.8575   -2309.4063    2258.5101    44657.537 -0.067234084   -17.036218 -0.041707817    3407.9365    1469.7544    933.67832    861.20605    28.379714    18.845564    14.337898  0.017449981   0.01744552  0.018820705  0.018685268    295.34032     41.49527    35.978931    34.423473    90.016431    119.66323    90.107069    18.845019    14.338843    28.370323    18.846409    14.346226 
   84000    297.64328    1.2509986    1993.9065   -1263.7952   -211.49952    2075.0863   -2309.4582   -1361.5527    44657.537 -0.067234084   -17.036218 -0.041707817    3492.0736    1564.5391    915.97021    861.94808    28.382037    18.846234    14.338575   0.01708212  0.017073308  0.018583918  0.018474946    297.64328     41.49527    35.978931    34.423473    90.016431    119.66323    90.107069    18.847509    14.337395    28.388393     18.84816    14.334146 
   85000    303.07614    1.2509986    2070.1041   -1211.0249   -211.49952    2070.9433   -2309.7145    975.28618    44657.537 -0.067234084   -17.036218 -0.041707817    3519.9002    1545.4062    926.39342    894.05512    28.380326    18.845266    14.337552  0.016978753  0.016972177  0.017963495  0.017922597    303.07614     41.49527    35.978931    34.423473    90.016431    119.66323    90.107069    18.846253    14.336097     28.38429    18.845977    14.336593 
   86000    294.77085    1.2509986    1995.6363   -1211.4605   -211.49952    2074.5449   -2309.3884    782.42121    44657.537 -0.067234084   -17.036218 -0.041707817    3441.9404    1535.3149     922.4542    835.39318    28.378914    18.845094    14.337058  0.016396576   0.01638503  0.017451126  0.017398019    294.77085     41.49527    35.978931    34.423473    90.016431    119.66323    90.107069    18.844466    14.337854     28.37307    18.845761     14.34031 
   87000    295.54767    1.2509986    2151.2799   -1191.6072   -211.49952    2071.6217   -2309.6164   -833.00128    44657.537 -0.067234084   -17.036218 -0.041707817    3580.8817    1593.0974    963.90519    875.17669    28.379621    18.845683    14.337008  0.016478525   0.01647324  0.019330287  0.019310086    295.54767     41.49527    35.978931    34.423473    90.016431    119.66323    90.107069    18.845412     14.33729    28.375743    18.848695    14.341996 
   88000    297.82985    1.2509986    1986.3855   -1231.9328   -211.49952    2072.0172   -2309.9377    739.19614    44657.537 -0.067234084   -17.036218 -0.041707817    3456.2389    1534.2379    908.66389     860.6523    28.378531    18.847298    14.337098  0.017251451   0.01724796  0.018412038  0.018380451    297.82985     41.49527    35.978931    34.423473    90.016431    119.66323    90.107069    18.846935    14.337029    28.374321    18.847158    14.338784 
   89000    297.94981    1.2509986    2086.9406   -1234.4554   -211.49952    2069.2238   -2309.8649   -743.11721    44657.537 -0.067234084   -17.036218 -0.041707817    3562.0371     1614.025    914.78182     881.9301    28.384086    18.845332    14.338923  0.016553906  0.016547494  0.017541205  0.017471087    297.94981     41.49527    35.978931    34.423473    90.016431    119.66323    90.107069    18.846115    14.339393    28.378115    18.847023    14.347643 
   90000    300.95452    1.2509986    1968.1914   -1215.6892   -211.49952    2072.6174   -2309.9011    555.82331    44657.537 -0.067234084   -17.036218 -0.041707817    3421.1643    1489.6013    912.21708    867.49529    28.377764    18.846941    14.336331  0.017551803  0.017547078  0.019059603  0.018952794    300.95452     41.49527    35.978931    34.423473    90.016431    119.66323    90.107069     18.84552    14.335979    28.380314    18.845258     14.33004 
   91000     299.4993    1.2509986     2067.989   -1225.4839   -211.49952    2069.6088   -2309.5699   -1409.5203    44657.537 -0.067234084   -17.036218 -0.041707817     3533.434    1580.0763    957.81692     846.7642    28.379485    18.846156    14.337453  0.016472854  0.016471984  0.019426117  0.019405911     299.4993     41.49527    35.978931    34.423473    90.016431    119.66323    90.107069    18.845341    14.337335    28.378433    18.845479    14.342178 
   92000    298.12348    1.2509986    2074.8524   -1236.8878   -211.49952    2074.1508     -2309.64   -1392.6848    44657.537 -0.067234084   -17.036218 -0.041707817    3547.2294    1607.0405    949.17624    843.23959    28.378989    18.845847     14.33698  0.016665816  0.016663353  0.017787417  0.017730791    298.12348     41.49527    35.978931    34.423473    90.016431    119.66323    90.107069    18.845924    14.337547    28.377789    18.846444    14.346487 
   93000    297.55604    1.2509986    1976.8903   -1231.7217   -211.49952    2076.1922   -2309.3966   -500.90768    44657.537 -0.067234084   -17.036218 -0.041707817    3441.8164    1518.5432    950.76228     831.9862    28.378024    18.845112    14.337851  0.016313163  0.016309736  0.017419707   0.01730922    297.55604     41.49527    35.978931    34.423473    90.016431    119.66323    90.107069    18.844347    14.337797    28.388806    18.844104    14.338722 
   94000     301.4409    1.2509986    2012.5413    -1221.413   -211.49952    2072.5412   -2309.9921    410.45798    44657.537 -0.067234084   -17.036218 -0.041707817    3471.4052    1533.8764    920.21096    864.93936    28.380099    18.846846    14.338513   0.01794404  0.017940013   0.01990706  0.019620728     301.4409     41.49527    35.978931    34.423473    90.016431    119.66323    90.107069    18.847047    14.339358    28.383768    18.847584    14.355964 
   95000    294.06085    1.2509986    1948.6476   -1223.6294   -211.49952    2072.1505   -2309.2722    166.49477    44657.537 -0.067234084   -17.036218 -0.041707817    3409.3987    1518.1879    901.62825    840.92895    28.381518      18.8456    14.338419  0.016699273   0.01669066  0.017451651  0.017293729    294.06085     41.49527    35.978931    34.423473    90.016431    119.66323    90.107069    18.845461    14.338604     28.39065    18.843509    14.337503 
   96000    303.39669    1.2509986    2058.2045   -1218.9584   -211.49952    2073.7199   -2309.2111   -805.44948    44657.537 -0.067234084   -17.036218 -0.041707817    3512.6541    1555.4445        927.9    878.45108    28.379521    18.845298    14.337505  0.017034345   0.01702482  0.018018582  0.017990635    303.39669     41.49527    35.978931    34.423473    90.016431    119.66323    90.107069    18.844604    14.337738    28.374299     18.84874    14.340115 
   97000    299.45267    1.2509986    2050.7072   -1246.5197   -211.49952    2075.6243    -2309.357   -1272.3809    44657.537 -0.067234084   -17.036218 -0.041707817    3530.9597     1567.803    922.48893    884.08445    28.380488    18.846427    14.338093  0.017365703  0.017362945  0.019601995  0.019575223    299.45267     41.49527    35.978931    34.423473    90.016431    119.66323    90.107069    18.845799    14.338026     28.37548    18.846399    14.341459 
   98000    296.63634    1.2509986    1991.3742     -1231.41   -211.49952    2074.5663   -2309.4876    206.83003    44657.537 -0.067234084   -17.036218 -0.041707817    3457.7055    1528.1173    911.50345    868.09038    28.378894    18.844875    14.336509  0.016702325  0.016701463  0.017037181  0.017027544    296.63634     41.49527    35.978931    34.423473    90.016431    119.66323    90.107069    18.846761    14.337725    28.376707    18.850168    14.339213 
   99000    297.85982    1.2509986    2035.6838   -1239.9935   -211.49952    2072.8672   -2309.3153   -1570.3627    44657.537 -0.067234084   -17.036218 -0.041707817    3512.1253    1573.5916    952.04178    839.52379    28.380578    18.845637    14.337808  0.015905259  0.015903262  0.016428496  0.016414866    297.85982     41.49527    35.978931    34.423473    90.016431    119.66323    90.107069    18.846164    14.337471      28.3819    18.847953     14.33699 
  100000    302.19371    1.2509986    1933.9083   -1224.1451   -211.49952    2073.0638    -2309.529     -71.7934    44657.537 -0.067234084   -17.036218 -0.041707817    3394.5185    1503.1863    903.76638     840.7885    28.381513    18.845152    14.337964  0.016937075  0.016933556  0.017281645  0.017219999    302.19371     41.49527    35.978931    34.423473    90.016431    119.66323    90.107069    18.844741    14.338261    28.384545    18.845016    14.335079 
  101000    293.24355    1.2509986    1954.3493   -1260.8507   -211.49952    2069.6389   -2309.8369   -4140.4926    44657.537 -0.067234084   -17.036218 -0.041707817    3455.3979    1556.3418    929.82937    826.23176     28.37803    18.846707    14.336799  0.016521145  0.016520463  0.017204601  0.017149623    293.24355     41.49527    35.978931    34.423473    90.016431    119.66323    90.107069    18.846451    14.336959    28.381749    18.844651    14.334057 
  102000    295.51561    1.2509986    1991.9763   -1243.6976   -211.49952    2067.3556   -2309.6931   -1465.9869    44657.537 -0.067234084   -17.036218 -0.041707817    3478.0114    1561.3218    895.66729    871.40218    28.377808    18.846351    14.336991  0.017372062  0.017363626  0.018602564   0.01857738    295.51561     41.49527    35.978931    34.423473    90.016431    119.66323    90.107069    18.846988    14.337091    28.379173    18.853672    14.341462 
  103000    301.00668    1.2509986     1985.865    -1230.775   -211.49952     2071.874   -2309.5227   -145.65632    44657.537 -0.067234084   -17.036218 -0.041707817    3454.2888    1545.0797    904.36177     857.5294    28.379404     18.84577    14.337589  0.016910915  0.016909255  0.018644215  0.018576496    301.00668     41.49527    35.978931    34.423473    90.016431    119.66323    90.107069    18.845078    14.338314     28.37966    18.840828    14.340488 
  104000    298.17774    1.2509986    2061.6439   -1218.0806   -211.49952    2078.9231   -2309.4691    92.951888    44657.537 -0.067234084   -17.036218 -0.041707817    3510.2705     1561.175    930.41661    866.59975     28.38005    18.845663    14.337384  0.016788206  0.016787505  0.017572173  0.017561329    298.17774     41.49527    35.978931    34.423473    90.016431    119.66323    90.107069    18.846115    14.336911    28.380674    18.847594    14.336885 
  105000    298.94613    1.2509986    1956.0565   -1220.1872   -211.49952    2074.1245   -2309.7465    627.65271    44657.537 -0.067234084   -17.036218 -0.041707817    3411.8657    1515.7537    914.09179    836.51967    28.380553    18.845881    14.338332    0.0170833   0.01708136  0.019821001  0.019766645    298.94613     41.49527    35.978931    34.423473    90.016431    119.66323    90.107069    18.846963    14.337059    28.380825    18.848576    14.332389 
  106000    292.06113    1.2509986     2059.022   -1252.2117   -211.49952    2074.3521   -2309.4473   -873.48614    44657.537 -0.067234084   -17.036218 -0.041707817    3546.3288    1596.1944    929.08439    870.77452    28.378074    18.845646      14.3374  0.016552054  0.016537718   0.01807988  0.017973985    292.06113     41.49527    35.978931    34.423473    90.016431    119.66323    90.107069    18.845767    14.338362    28.371357    18.845865       14.345 
  107000    296.64775    1.2509986    1981.2801   -1234.2284   -211.49952    2073.8632   -2309.4331   -1939.7772    44657.537 -0.067234084   -17.036218 -0.041707817    3451.0783    1527.8399    915.49037    857.62264    28.378986     18.84755    14.336938  0.017546648  0.017541982  0.018859351  0.018813201    296.64775     41.49527    35.978931    34.423473    90.016431    119.66323    90.107069    18.847823    14.336738    28.380302    18.848076    14.332951 
  108000    300.60425    1.2509986    1995.0351   -1215.4888   -211.49952    2072.6411   -2309.7563    1657.1376    44657.537 -0.067234084   -17.036218 -0.041707817    3447.6392     1506.153    898.06588     887.7759     28.37993    18.845975    14.337201  0.016466055  0.016463113   0.01972874  0.019723024    300.60425     41.49527    35.978931    34.423473    90.016431    119.66323    90.107069    18.846084    14.336458     28.37746    18.847868    14.339539 
  109000    298.72328    1.2509986    1953.8089   -1236.6733   -211.49952     2071.931   -2310.2905    226.12185    44657.537 -0.067234084   -17.036218 -0.041707817    3428.8416     1519.518    922.40243    844.03685    28.378404    18.845569    14.336578   0.01642558  0.016424066  0.020771487  0.020696658    298.72328     41.49527    35.978931    34.423473    90.016431    119.66323    90.107069    18.845881    14.336564    28.383253    18.843856    14.333759 
  110000    294.92448    1.2509986    1984.0201   -1222.2977   -211.49952    2073.7078   -2309.3875   -924.92679    44657.537 -0.067234084   -17.036218 -0.041707817    3441.9975    1537.3487    871.89566    881.75786    28.379967    18.846165    14.337659  0.017970323  0.017970218  0.017752719  0.017709527    294.92448     41.49527    35.978931    34.423473    90.016431    119.66323    90.107069    18.846224    14.338059     28.37304    18.848319    14.339144 
  111000    292.72766    1.2509986    1962.7944   -1254.3725   -211.49952     2071.601   -2309.7548   -2970.3913    44657.537 -0.067234084   -17.036218 -0.041707817    3455.3207    1531.9544    925.72621     850.9571    28.380025    18.845945    14.337737  0.017305099  0.017302685  0.020028522  0.019951686    292.72766     41.49527    35.978931    34.423473    90.016431    119.66323    90.107069     18.84515    14.336606    28.381055    18.844228    14.332448 
  112000     303.1475    1.2509986    1936.4645   -1226.1731   -211.49952    2074.7339   -2309.3483   -21.242269    44657.537 -0.067234084   -17.036218 -0.041707817     3397.252    1507.2823    911.06368    834.80853    28.381832    18.845195    14.338888  0.017096019  0.017082784  0.019411065  0.019314586     303.1475     41.49527    35.978931    34.423473    90.016431    119.66323    90.107069    18.845056     14.33951    28.383683    18.847514    14.348425 
  113000    296.84686    1.2509986    2061.2757   -1230.2569   -211.49952    2069.0612    -2309.304   -365.64643    44657.537 -0.067234084   -17.036218 -0.041707817    3531.7754    1603.6904    917.39089    862.02833     28.37934    18.846645     14.33747  0.017602966  0.017602025  0.019100619   0.01908728    296.84686     41.49527    35.978931    34.423473    90.016431    119.66323    90.107069    18.846494    14.337829    28.378764    18.846646    14.342304 
  114000    296.11825    1.2509986    2057.1005   -1222.4028   -211.49952    2073.7937   -2309.7345    -377.4962    44657.537 -0.067234084   -17.036218 -0.041707817    3515.4442    1567.6077    898.90109    892.55918    28.379592    18.846248    14.338108   0.01709873  0.017096815  0.017552148  0.017535088    296.11825     41.49527    35.978931    34.423473    90.016431    119.66323    90.107069    18.845298    14.338673    28.376903    18.846317    14.341296 
  115000    303.80683    1.2509986    2008.9082   -1242.0348   -211.49952    2072.4503    -2309.507   -2282.0856    44657.537 -0.067234084   -17.036218 -0.041707817    3487.9997    1573.6364    908.04789    855.49535    28.379538    18.845678    14.336981  0.016862436  0.016859686  0.019424418  0.019399529    303.80683     41.49527    35.978931    34.423473    90.016431    119.66323    90.107069    18.846611    14.337303    28.382418    18.844974    14.339018 
  116000    295.09537    1.2509986     1970.003   -1248.3798   -211.49952    2069.8584   -2310.1233   -1917.4605    44657.537 -0.067234084   -17.036218 -0.041707817    3458.6477    1570.1771    896.50353    846.47579     28.38012    18.846525    14.336605  0.016857812  0.016852523  0.018716958  0.018675521    295.09537     41.49527    35.978931    34.423473    90.016431    119.66323    90.107069    18.846578    14.335508    28.381919    18.846539    14.334185 
  117000    296.57432    1.2509986    2053.5702   -1235.0956   -211.49952    2068.2764   -2309.6034   -2028.4162    44657.537 -0.067234084   -17.036218 -0.041707817    3529.9928    1551.3073    944.06668    878.21231    28.378847     18.84708    14.337499  0.017211202   0.01720603  0.019235367  0.019184001    296.57432     41.49527    35.978931    34.423473    90.016431    119.66323    90.107069    18.847822    14.338393     28.38624    18.847994    14.337261 
  118000    297.83043    1.2509986    2078.2656   -1237.5681   -211.49952     2077.405   -2309.4533   -1475.7612    44657.537 -0.067234084   -17.036218 -0.041707817     3547.882     1567.786    934.56772    883.19914    28.379798     18.84507    14.336863   0.01660808  0.016603822  0.017738704   0.01771108    297.83043     41.49527    35.978931    34.423473    90.016431    119.66323    90.107069    18.844557    14.337794    28.378954    18.844039    14.341226 
  119000    301.48401    1.2509986    1987.6102   -1232.2154   -211.49952    2077.5034   -2309.6875   -60.648519    44657.537 -0.067234084   -17.036218 -0.041707817    3452.0098    1542.1361    900.23704     856.5006    28.382325    18.845952    14.338922  0.017742712  0.017741334  0.018285895   0.01827519    301.48401     41.49527    35.978931    34.423473    90.016431    119.66323    90.107069    18.845929    14.338885     28.37766    18.848492    14.342253 
  120000    293.44612    1.2509986    1986.0014   -1232.6216   -211.49952    2069.5299   -2309.8625   -914.95446    44657.537 -0.067234084   -17.036218 -0.041707817    3458.9555    1539.8496     926.3986    841.45009    28.379847     18.84686    14.336697  0.016231895  0.016226249  0.017159635  0.017158954    293.44612     41.49527    35.978931    34.423473    90.016431    119.66323    90.107069    18.847932    14.337242    28.379031    18.848935    14.339006 
  121000    296.43578    1.2509986    2120.7726   -1212.1228   -211.49952    2071.8486   -2309.9687    975.91196    44657.537 -0.067234084   -17.036218 -0.041707817    3571.0154    1535.8199    980.51483    904.33052    28.379669    18.844765    14.337256    0.0174475  0.017445852   0.01781916  0.017790955    296.43578     41.49527    35.978931    34.423473    90.016431    119.66323    90.107069    18.846506    14.336512    28.380264    18.851228    14.334863 
  122000    300.07329    1.2509986    1928.8147   -1247.1395   -211.49952    2071.0481   -2309.4902   -1890.7136    44657.537 -0.067234084   -17.036218 -0.041707817    3414.3963    1496.2773    921.39226    850.16083    28.378475    18.846342    14.337361  0.017629149  0.017623728  0.018566953  0.018498307    300.07329     41.49527    35.978931    34.423473    90.016431    119.66323    90.107069    18.846284    14.339853    28.375228    18.849149    14.346701 
  123000     301.2739    1.2509986    1992.9035   -1254.3521   -211.49952    2074.6329   -2309.6407    -2260.403    44657.537 -0.067234084   -17.036218 -0.041707817    3482.2633    1526.9643    931.35595    866.79255    28.380564    18.845699    14.337868  0.017098947  0.017093716  0.018671225  0.018630945     301.2739     41.49527    35.978931    34.423473    90.016431    119.66323    90.107069    18.844949    14.338368    28.382064    18.843395    14.341199 
  124000     299.0181    1.2509986    2046.9096   -1250.0385   -211.49952    2076.7238   -2309.2241   -2806.7678    44657.537 -0.067234084   -17.036218 -0.041707817    3529.4484    1572.5258    958.79498    847.80073    28.378882    18.845115    14.338098  0.017458649  0.017454579  0.018646835  0.018614049     299.0181     41.49527    35.978931    34.423473    90.016431    119.66323    90.107069    18.844543    14.338772    28.375087    18.846504     14.34219 
  125000    299.27944    1.2509986    1958.0603   -1227.6979   -211.49952    2072.6517   -2309.4213   -1181.5567    44657.537 -0.067234084   -17.036218 -0.041707817    3422.5278    1484.1497    930.28266    855.75177    28.380373    18.845551    14.338133  0.016593954  0.016588101  0.018155206  0.018021107    299.27944     41.49527    35.978931    34.423473    90.016431    119.66323    90.107069    18.846824    14.338015     28.36947    18.843569    14.341292 
  126000    297.61057    1.2509986    2106.6164   -1204.8313   -211.49952    2070.2579   -2309.8002   -28.303788    44657.537 -0.067234084   -17.036218 -0.041707817      3550.99    1594.2803    929.61274    876.39953    28.380329     18.84457     14.33848  0.017611967  0.017602917  0.019560934  0.019485741    297.61057     41.49527    35.978931    34.423473    90.016431    119.66323    90.107069     18.84453    14.338268    28.378363    18.842888    14.333617 
  127000     298.8169    1.2509986    2079.8155   -1225.0638   -211.49952    2072.7395   -2309.8958   -220.05723    44657.537 -0.067234084   -17.036218 -0.041707817    3542.0355    1573.1808    962.08077    854.25659    28.380732    18.847026    14.338161  0.016328118  0.016322279  0.016954434  0.016945184     298.8169     41.49527    35.978931    34.423473    90.016431    119.66323    90.107069    18.848517    14.338335    28.376778    18.849669    14.340686 
  128000    299.89495    1.2509986    2066.2515   -1226.2797   -211.49952    2071.6657   -2309.6273   -845.30246    44657.537 -0.067234084   -17.036218 -0.041707817    3530.4928    1560.8351     937.0077    882.47772    28.378996    18.846526     14.33748  0.017366834  0.017365879  0.019690642   0.01959946    299.89495     41.49527    35.978931    34.423473    90.016431    119.66323    90.107069    18.845561    14.337321    28.383681    18.842394    14.334128 
  129000    299.11809    1.2509986    1996.0063   -1219.6543   -211.49952    2072.5934   -2309.3563   -348.29496    44657.537 -0.067234084   -17.036218 -0.041707817    3452.4236    1541.9932     884.8012    874.41506    28.382145    18.846811    14.337922  0.017259172  0.017254675  0.018068472  0.018032319    299.11809     41.49527    35.978931    34.423473    90.016431    119.66323    90.107069    18.846153    14.337177    28.379971     18.84751    14.333831 
  130000    297.31035    1.2509986    2035.5961   -1244.2459   -211.49952    2069.4124   -2309.8048   -1901.9918    44657.537 -0.067234084   -17.036218 -0.041707817    3520.2344    1600.7356    920.29792    848.49843    28.378695    18.845777     14.33795  0.016398836  0.016390061  0.016928607  0.016855989    297.31035     41.49527    35.978931    34.423473    90.016431    119.66323    90.107069    18.844743     14.33633    28.379314    18.844396    14.332479 
  131000    299.33733    1.2509986     1942.408   -1224.8189   -211.49952    2070.0991   -2309.6097   -455.45929    44657.537 -0.067234084   -17.036218 -0.041707817    3406.7375    1539.0374    884.23058    836.43696    28.381335    18.847122    14.337686  0.016905799  0.016904564    0.0187769   0.01877203    299.33733     41.49527    35.978931    34.423473    90.016431    119.66323    90.107069    18.846893    14.337889    28.379684     18.84989    14.337617 
  132000    296.32457    1.2509986    1894.0569   -1220.9461   -211.49952    2076.6001   -2308.8011    1802.9084    44657.537 -0.067234084   -17.036218 -0.041707817    3347.2039    1442.4395    924.15092    837.69553    28.380521    18.846632    14.338286  0.017406087  0.017398595  0.019602819  0.019597205    296.32457     41.49527    35.978931    34.423473    90.016431    119.66323    90.107069    18.847904    14.338374    28.379794    18.846882    14.338629 
  133000    295.94078    1.2509986    2057.9223   -1210.8405   -211.49952    2072.0705   -2309.9749   -690.70585    44657.537 -0.067234084   -17.036218 -0.041707817    3506.6673    1564.9776    937.55006    855.57564    28.380415    18.847054    14.337769  0.018162529  0.018161208   0.01960644   0.01949918    295.94078     41.49527    35.978931    34.423473    90.016431    119.66323    90.107069    18.846905    14.337126    28.376186     18.84345    14.331579 
  134000    300.23048    1.2509986    2002.9413   -1230.1498   -211.49952    2067.7693   -2310.0275   -1680.9735    44657.537 -0.067234084   -17.036218 -0.041707817    3475.3493    1594.5318    908.21216    829.02059    28.381325    18.845558    14.338772  0.016833928  0.016820583  0.020281799  0.020229238    300.23048     41.49527    35.978931    34.423473    90.016431    119.66323    90.107069    18.844963    14.338953    28.386143    18.846188    14.338543 
  135000     295.5831    1.2509986    2105.8861   -1230.2014   -211.49952     2068.897   -2309.9524   -2099.2475    44657.537 -0.067234084   -17.036218 -0.041707817     3577.143    1589.1372    971.78975    865.65248    28.379181    18.846535    14.337158  0.016517524  0.016516297  0.017430709  0.017418166     295.5831     41.49527    35.978931    34.423473    90.016431    119.66323    90.107069    18.847246    14.337681    28.381011    18.846863    14.342048 
  136000    301.81722    1.2509986    2063.8089   -1219.0226   -211.49952    2071.9214   -2309.6563   -890.68875    44657.537 -0.067234084   -17.036218 -0.041707817    3520.5664    1537.6485    967.76499    869.23548    28.379822    18.846221    14.337316  0.017853422  0.017851407  0.019609145  0.019584516    301.81722     41.49527    35.978931    34.423473    90.016431    119.66323    90.107069    18.845668    14.337671    28.378677    18.847298    14.335065 
  137000    296.69267    1.2509986    2054.3671   -1229.4875   -211.49952    2069.3145   -2309.7834   -1315.8518    44657.537 -0.067234084   -17.036218 -0.041707817    3524.3235    1613.9277    938.44306    829.20034    28.380312    18.846685    14.337749  0.016775609  0.016772953  0.017233438   0.01719863    296.69267     41.49527    35.978931    34.423473    90.016431    119.66323    90.107069    18.847432    14.338661    28.379357    18.853184    14.343806 
  138000    296.17255    1.2509986    2081.7097   -1220.5452   -211.49952    2074.3662   -2309.5246    331.86458    44657.537 -0.067234084   -17.036218 -0.041707817    3537.4133     1533.118    947.63269    902.95619     28.37934    18.845664    14.337519  0.016319974  0.016314527  0.016822006  0.016761319    296.17255     41.49527    35.978931    34.423473    90.016431    119.66323    90.107069    18.846383     14.33853    28.385482    18.846122    14.335488 
  139000    291.82224    1.2509986     2049.372   -1220.0458   -211.49952     2073.816     -2309.34   -782.00011    44657.537 -0.067234084   -17.036218 -0.041707817    3504.9418    1561.6282    940.44589    855.33056    28.381899    18.846317    14.337624  0.017716133  0.017712309  0.018260285  0.018246075    291.82224     41.49527    35.978931    34.423473    90.016431    119.66323    90.107069    18.847583    14.337857    28.380493     18.84564    14.338239 
  140000    303.97483    1.2509986    1994.0097   -1198.3777   -211.49952    2070.7748   -2309.7105    398.51534    44657.537 -0.067234084   -17.036218 -0.041707817    3431.3231    1516.4644    901.02316     864.4344    28.383011    18.846899    14.338949   0.01665697  0.016652023  0.018140151  0.018097745    303.97483     41.49527    35.978931    34.423473    90.016431    119.66323    90.107069     18.84625    14.339265    28.382165    18.847097    14.345289 
  141000    298.82365    1.2509986    2078.6927   -1219.2727   -211.49952    2067.8861   -2309.6381   -1219.4258    44657.537 -0.067234084   -17.036218 -0.041707817    3539.7174    1598.3812     918.9726    872.64841    28.379227    18.845305    14.337301   0.01695046  0.016949646   0.02011297  0.020084746    298.82365     41.49527    35.978931    34.423473    90.016431    119.66323    90.107069    18.845378    14.337655    28.381731    18.846819    14.335316 
  142000    295.63322    1.2509986    2085.4697   -1213.1134   -211.49952    2072.3938   -2309.5913    536.73476    44657.537 -0.067234084   -17.036218 -0.041707817    3535.7807    1564.0564    959.41616    858.48808    28.382149    18.845108    14.337693  0.016798119  0.016789695  0.016816145  0.016776904    295.63322     41.49527    35.978931    34.423473    90.016431    119.66323    90.107069     18.84473    14.336795    28.382521    18.844887    14.335974 
  143000    300.52406    1.2509986    2049.2196   -1221.3868   -211.49952     2070.763   -2310.1302   -505.89443    44657.537 -0.067234084   -17.036218 -0.041707817    3509.9736    1589.5207    911.23827     858.9188    28.381059     18.84592    14.337669  0.017386832  0.017382297  0.018166508   0.01807705    300.52406     41.49527    35.978931    34.423473    90.016431    119.66323    90.107069    18.844458    14.337467     28.38282    18.841862    14.334379 
  144000    301.92326    1.2509986    2045.9886   -1251.0593   -211.49952    2066.3075   -2309.8554   -2204.2298    44657.537 -0.067234084   -17.036218 -0.041707817    3540.5958    1581.1844    937.09061    867.78186    28.379615     18.84618    14.338203  0.017566673  0.017564258  0.020357891  0.020345252    301.92326     41.49527    35.978931    34.423473    90.016431    119.66323    90.107069    18.846532    14.339022    28.377357    18.848311    14.342341 
  145000     296.0898    1.2509986    2011.9844   -1249.1868   -211.49952    2070.1492   -2309.5192   -2186.5477    44657.537 -0.067234084   -17.036218 -0.041707817    3500.5413     1567.665     929.3217    856.81509    28.379506    18.846222    14.337344  0.017346418  0.017345786  0.018459204  0.018394528     296.0898     41.49527    35.978931    34.423473    90.016431    119.66323    90.107069    18.846719    14.338013     28.37261    18.849605    14.343647 
  146000    304.95139    1.2509986    2076.1868   -1230.1837   -211.49952    2074.6603   -2309.5998   -291.79214    44657.537 -0.067234084   -17.036218 -0.041707817    3541.3099    1602.3236    925.84563    860.29412    28.380841    18.846013    14.338269   0.01730234  0.017294549  0.017096367  0.017067962    304.95139     41.49527    35.978931    34.423473    90.016431    119.66323    90.107069     18.84793    14.337383    28.382026    18.850598    14.335189 
  147000     297.9401    1.2509986    1998.7199   -1238.7247   -211.49952    2073.3377   -2309.6018   -338.67681    44657.537 -0.067234084   -17.036218 -0.041707817    3473.7087    1518.6606    957.40843    855.68611    28.380013    18.846146    14.336816  0.017525479  0.017524181  0.019886406  0.019875256     297.9401     41.49527    35.978931    34.423473    90.016431    119.66323    90.107069    18.847114    14.337358     28.38283    18.848428    14.339946 
  148000     302.3873    1.2509986    1947.5389   -1215.1655   -211.49952    2073.1368   -2309.5471    2065.0583    44657.537 -0.067234084   -17.036218 -0.041707817    3399.1147    1503.0544    902.67878    843.69559    28.378664    18.845843    14.337512  0.017683436  0.017682422  0.019888894  0.019785412     302.3873     41.49527    35.978931    34.423473    90.016431    119.66323    90.107069    18.846396    14.337841    28.388006     18.84879    14.345298 
  149000    294.50501    1.2509986    1982.5513   -1236.1624   -211.49952    2074.4063   -2309.5428   -2347.0788    44657.537 -0.067234084   -17.036218 -0.041707817    3453.8501    1550.6611    910.86235    845.45353    28.377005    18.846264    14.337221  0.016638563  0.016628664  0.018977555  0.018816775    294.50501     41.49527    35.978931    34.423473    90.016431    119.66323    90.107069    18.846689    14.336864    28.369761    18.842258    14.335258 
  150000    293.47538    1.2509986    1980.0207   -1236.9476   -211.49952    2079.1015   -2309.4215    414.34665    44657.537 -0.067234084   -17.036218 -0.041707817    3447.2883    1506.6266    927.18657    863.22981    28.381558    18.846026    14.338309  0.016848392   0.01684121  0.019238282  0.019210513    293.47538     41.49527    35.978931    34.423473    90.016431    119.66323    90.107069    18.844953    14.338361    28.379188    18.843769    14.339265 
  151000    300.50599    1.2509986    2042.0016   -1233.7505   -211.49952    2072.2747   -2309.5315    -2597.066    44657.537 -0.067234084   -17.036218 -0.041707817    3513.0088    1594.2774    932.38658    838.10359    28.380333    18.846105    14.338011  0.016993324  0.016992752  0.018656896  0.018624045    300.50599     41.49527    35.978931    34.423473    90.016431    119.66323    90.107069    18.846214    14.337718    28.384652    18.847364    14.337597 
  152000    299.98671    1.2509986    2053.0862   -1198.5825   -211.49952    2076.4362    -2309.148     1944.061    44657.537 -0.067234084   -17.036218 -0.041707817    3484.3804    1517.6206    949.52781    868.79958    28.380525     18.84572    14.338167  0.017959412  0.017958851  0.018921913  0.018917171    299.98671     41.49527    35.978931    34.423473    90.016431    119.66323    90.107069    18.845932    14.338371    28.377797    18.848091    14.338746 
  153000    299.84325    1.2509986     1983.798   -1209.6208   -211.49952    2070.1545   -2309.4411    786.36729    44657.537 -0.067234084   -17.036218 -0.041707817    3432.7054    1525.6143    909.15092    851.02557    28.379746    18.845719    14.337642  0.017607071   0.01760131  0.019281149  0.019202162    299.84325     41.49527    35.978931    34.423473    90.016431    119.66323    90.107069    18.845479     14.33663    28.378657    18.845711    14.331436 
  154000    298.63187    1.2509986    1885.4238   -1231.4876   -211.49952    2074.9467   -2309.2419   -534.93367    44657.537 -0.067234084   -17.036218 -0.041707817    3351.2064    1463.3097    875.77475    863.70731    28.378948    18.846438    14.337289  0.017901615  0.017896978  0.018750826  0.018740841    298.63187     41.49527    35.978931    34.423473    90.016431    119.66323    90.107069    18.847128    14.336663    28.382496    18.848215    14.338797 
  155000    294.98331    1.2509986    2009.3974   -1236.9115   -211.49952    2075.4928   -2309.5498   -500.80683    44657.537 -0.067234084   -17.036218 -0.041707817    3480.3659    1541.6175     948.4534    844.31257    28.379449    18.846238    14.337333  0.017202485  0.017196336  0.018192837   0.01816907    294.98331     41.49527    35.978931    34.423473    90.016431    119.66323    90.107069    18.847804     14.33711    28.378235    18.853662    14.338998 
  156000    295.80966    1.2509986    1967.0006   -1256.2178   -211.49952    2071.4953   -2309.5749   -810.12199    44657.537 -0.067234084   -17.036218 -0.041707817    3461.2979    1553.1214    919.31671    841.42879    28.379727    18.846354    14.337455  0.017044696  0.017042184  0.018631254  0.018499926    295.80966     41.49527    35.978931    34.423473    90.016431    119.66323    90.107069    18.847424    14.336788    28.389724    18.849911    14.334427 
  157000    299.59618    1.2509986    2002.0368   -1223.4965   -211.49952    2076.5467   -2309.3321   -312.99989    44657.537 -0.067234084   -17.036218 -0.041707817    3458.3186    1518.8017     938.6775    848.67112    28.380593    18.846363    14.337958  0.016633648  0.016632545  0.017308614  0.017279319    299.59618     41.49527    35.978931    34.423473    90.016431    119.66323    90.107069    18.846765    14.338337    28.384853    18.849928    14.339001 
  158000    300.03332    1.2509986    2002.2831   -1230.8657   -211.49952    2067.6959   -2309.9781   -609.47578    44657.537 -0.067234084   -17.036218 -0.041707817    3475.4309    1513.2084    953.07127     859.5699    28.380383    18.847101    14.337548  0.016157825  0.016153565  0.017068195   0.01705162    300.03332     41.49527    35.978931    34.423473    90.016431    119.66323    90.107069    18.848017    14.337903    28.382931    18.850377    14.337813 
  159000    298.58516    1.2509986    2111.9087    -1233.642   -211.49952    2072.7162   -2309.4239   -506.22182    44657.537 -0.067234084   -17.036218 -0.041707817    3582.2583    1610.3608    976.31606    845.49154    28.378443    18.846431     14.33776  0.016901134  0.016893736  0.018296821  0.018261601    298.58516     41.49527    35.978931    34.423473    90.016431    119.66323    90.107069    18.847876    14.337106    28.383817    18.848469    14.335542 
  160000    297.51622    1.2509986    2010.9209   -1216.4958   -211.49952    2069.7999   -2310.0553    208.15765    44657.537 -0.067234084   -17.036218 -0.041707817    3467.6721    1548.4033    925.33194    848.85179    28.380247    18.844904    14.337685  0.017297243  0.017295079  0.018873394  0.018821743    297.51622     41.49527    35.978931    34.423473    90.016431    119.66323    90.107069    18.845461    14.337724    28.372618    18.847962    14.341188 
  161000    296.01419    1.2509986    2032.7567   -1243.2636   -211.49952    2066.2869   -2309.8936    -1982.551    44657.537 -0.067234084   -17.036218 -0.041707817     3519.627    1564.9981    926.68735    873.31537    28.380966     18.84562    14.337795  0.016750418  0.016748205  0.019509159  0.019446309    296.01419     41.49527    35.978931    34.423473    90.016431    119.66323    90.107069    18.846596    14.337479     28.37272    18.845008    14.339364 
  162000    298.82238    1.2509986    2028.9506   -1226.2802   -211.49952    2073.2432   -2309.6783   -869.52982    44657.537 -0.067234084   -17.036218 -0.041707817    3491.6659    1575.9329    905.67028    859.36426    28.378967     18.84665    14.337126  0.015992793   0.01598613    0.0166389  0.016527079    298.82238     41.49527    35.978931    34.423473    90.016431    119.66323    90.107069    18.847749    14.336078    28.384182    18.850433    14.330235 
  163000    288.76752    1.2509986    2006.6091   -1243.7016   -211.49952     2070.697   -2309.3689   -1691.8226    44657.537 -0.067234084   -17.036218 -0.041707817    3488.9826    1535.9394     919.6328    874.07533    28.379205    18.847364    14.337186  0.017350873  0.017348401   0.01991916  0.019888788    288.76752     41.49527    35.978931    34.423473    90.016431    119.66323    90.107069    18.845798     14.33631    28.384591     18.84845    14.337469 
  164000     295.5091    1.2509986    2013.2859   -1218.7786   -211.49952    2070.8892   -2309.8007   -216.49925    44657.537 -0.067234084   -17.036218 -0.041707817     3470.976    1503.8056    935.35652     879.4931    28.381291    18.846792    14.338292  0.016874465  0.016873058  0.017274219  0.017258239     295.5091     41.49527    35.978931    34.423473    90.016431    119.66323    90.107069    18.847191    14.337363    28.379732    18.846195    14.342468 
  165000    298.08877    1.2509986    1989.0568   -1236.6879   -211.49952    2071.8294   -2309.9258   -489.28008    44657.537 -0.067234084   -17.036218 -0.041707817    3463.8411    1550.0377     906.8698    859.20363    28.379332    18.845874     14.33796  0.016844838  0.016842101  0.017052759  0.016951635    298.08877     41.49527    35.978931    34.423473    90.016431    119.66323    90.107069    18.845416    14.338453    28.375085    18.841756    14.344974 
[...]
  961000     297.2244    1.2509986    2011.6118   -1216.4999   -211.49952    2067.5194   -2309.5012   -1030.2964    44657.537 -0.067234084   -17.036218 -0.041707817    3470.0935    1577.4538    926.33757    822.03641     28.37741    18.845554    14.337201  0.017525858  0.017520177   0.01909936  0.019066555     297.2244     41.49527    35.978931    34.423473    90.016431    119.66323    90.107069    18.847184    14.337456    28.384058    18.851723    14.337358 
  962000    299.86718    1.2509986    2087.8539   -1231.9184   -211.49952    2074.3548   -2309.1762   -924.97596    44657.537 -0.067234084   -17.036218 -0.041707817    3554.5938    1619.9262     946.0084    839.56127    28.378278    18.844882    14.337311  0.017107647  0.017106053  0.019773043  0.019717065    299.86718     41.49527    35.978931    34.423473    90.016431    119.66323    90.107069    18.845332    14.337056    28.385221    18.845279    14.336483 
  963000    297.43234    1.2509986    1990.7307   -1236.2651   -211.49952    2072.1248   -2309.5755   -369.25328    44657.537 -0.067234084   -17.036218 -0.041707817    3464.4465    1528.1113    943.92214     842.4918    28.380613    18.847183    14.337892  0.017442112  0.017439628  0.020527969  0.020504137    297.43234     41.49527    35.978931    34.423473    90.016431    119.66323    90.107069    18.846509    14.337631    28.383867     18.84699    14.338559 
  964000     301.2608    1.2509986    1943.9245   -1250.5788   -211.49952    2071.4915   -2309.3118   -1362.0018    44657.537 -0.067234084   -17.036218 -0.041707817    3432.3236    1534.8951    913.93758    832.90235    28.377917    18.845875    14.337595  0.018037048  0.018024735  0.018984764  0.018943574     301.2608     41.49527    35.978931    34.423473    90.016431    119.66323    90.107069    18.844123    14.337522    28.377131    18.843257    14.341112 
  965000     290.9912    1.2509986    2080.8609   -1232.4578   -211.49952    2076.1724   -2309.4447   -134.97598    44657.537 -0.067234084   -17.036218 -0.041707817    3546.5911    1583.7697    953.03611    857.07032    28.382454      18.8456    14.338559   0.01718062  0.017169652  0.016850159  0.016783371     290.9912     41.49527    35.978931    34.423473    90.016431    119.66323    90.107069    18.845162     14.33895    28.384687    18.843318    14.342473 
  966000    293.86794    1.2509986    2006.3124   -1223.6003   -211.49952    2072.2088   -2309.4162    304.11447    44657.537 -0.067234084   -17.036218 -0.041707817    3467.1201    1550.0939    917.39872    854.07555    28.381114    18.845975    14.338052  0.016592048  0.016590625  0.019871401  0.019845916    293.86794     41.49527    35.978931    34.423473    90.016431    119.66323    90.107069    18.847325    14.337585    28.381904    18.852457    14.342486 
  967000    300.90776    1.2509986    1911.3193   -1213.1788   -211.49952    2068.7701   -2309.6631     924.5069    44657.537 -0.067234084   -17.036218 -0.041707817    3365.3911    1481.9996    884.46793    851.88829    28.379703    18.846756     14.33771  0.016818221  0.016812307  0.018509157  0.018471077    300.90776     41.49527    35.978931    34.423473    90.016431    119.66323    90.107069    18.847223    14.336665    28.378189    18.843409    14.337446 
  968000    297.06992    1.2509986    1987.9734   -1218.2942   -211.49952    2073.7293   -2309.5064   -171.31287    44657.537 -0.067234084   -17.036218 -0.041707817    3442.0448    1516.4339    917.55509    861.67883     28.38184    18.847317    14.337716   0.01685004  0.016843301  0.018081578  0.018029216    297.06992     41.49527    35.978931    34.423473    90.016431    119.66323    90.107069    18.848417    14.337575    28.386623    18.850357    14.340421 
  969000    300.40348    1.2509986    1906.4063   -1241.8265   -211.49952    2068.4334   -2310.1913   -1011.4795    44657.537 -0.067234084   -17.036218 -0.041707817    3389.9906    1542.4305    920.51584    787.20365    28.378608    18.845785    14.337721  0.017273745  0.017268688  0.019223013  0.019216099    300.40348     41.49527    35.978931    34.423473    90.016431    119.66323    90.107069    18.847683    14.337929    28.380042     18.84989    14.342069 
  970000    295.25987    1.2509986    1984.5688   -1258.8536   -211.49952    2073.0455   -2309.8638    -2928.745    44657.537 -0.067234084   -17.036218 -0.041707817    3480.2407    1543.8752      901.589    882.37291    28.377586    18.846391    14.337066  0.017464602  0.017463018  0.018881712  0.018844292    295.25987     41.49527    35.978931    34.423473    90.016431    119.66323    90.107069    18.846706    14.337037    28.383388    18.848253     14.33493 
  971000    301.71536    1.2509986    2014.0827   -1234.0923   -211.49952    2068.1477   -2309.5611    -1651.365    44657.537 -0.067234084   -17.036218 -0.041707817    3489.5883    1587.1616    896.84226    859.19898    28.380531    18.846216    14.337934  0.016262474  0.016259977  0.017851355  0.017845675    301.71536     41.49527    35.978931    34.423473    90.016431    119.66323    90.107069    18.846209    14.338642    28.377434    18.847933    14.339733 
  972000    301.74946    1.2509986    1929.0687   -1212.3679   -211.49952    2071.8423   -2309.5549    -98.64911    44657.537 -0.067234084   -17.036218 -0.041707817    3379.1493    1481.9036     878.3411    863.47397    28.377085    18.845822    14.336726  0.015975232  0.015970859  0.016751163  0.016728079    301.74946     41.49527    35.978931    34.423473    90.016431    119.66323    90.107069    18.845301    14.337561    28.379256    18.844224    14.339887 
  973000    293.00529    1.2509986    2023.1951   -1238.0807   -211.49952    2075.2151   -2309.7363   -1121.6965    44657.537 -0.067234084   -17.036218 -0.041707817     3495.797    1544.5913    931.26363    866.62279    28.381014    18.846159    14.338168   0.01680468  0.016803239  0.017784005  0.017769808    293.00529     41.49527    35.978931    34.423473    90.016431    119.66323    90.107069    18.846075    14.337918    28.377851    18.848889    14.336281 
  974000    298.31236    1.2509986    1939.8094   -1247.0809   -211.49952    2074.3201   -2309.7238   -1150.7947    44657.537 -0.067234084   -17.036218 -0.041707817    3422.2939    1552.8906    901.37386    826.89588    28.380282    18.844945    14.338111  0.017059595  0.017056598  0.018254641  0.018223407    298.31236     41.49527    35.978931    34.423473    90.016431    119.66323    90.107069    18.844494    14.338073    28.379576    18.844384    14.342769 
  975000    296.60303    1.2509986    1978.9313   -1217.3491   -211.49952    2070.7324   -2309.2854    201.64798    44657.537 -0.067234084   -17.036218 -0.041707817    3434.8335    1498.9115    933.31636    855.16623    28.379776    18.845769    14.337713  0.017093072  0.017090403  0.019940534  0.019925791    296.60303     41.49527    35.978931    34.423473    90.016431    119.66323    90.107069    18.846741    14.337479    28.376028    18.847499    14.339618 
  976000    302.28566    1.2509986    2015.6523   -1239.0326   -211.49952    2075.6392   -2309.6229    647.27732    44657.537 -0.067234084   -17.036218 -0.041707817    3488.6686    1512.9491     918.2549    901.86717    28.376767    18.846119    14.336859  0.017212618  0.017187265  0.018563335  0.018371654    302.28566     41.49527    35.978931    34.423473    90.016431    119.66323    90.107069    18.845989    14.334779     28.37572     18.84547    14.326816 
  977000    295.36111    1.2509986    1940.3181   -1253.9794   -211.49952     2078.857    -2309.372   -847.95308    44657.537 -0.067234084   -17.036218 -0.041707817    3424.8125    1524.4573    899.18162    854.72543    28.380074    18.845956     14.33753  0.017824801  0.017821824  0.018719951   0.01865293    295.36111     41.49527    35.978931    34.423473    90.016431    119.66323    90.107069    18.845897     14.33681    28.382409    18.845869    14.332638 
  978000    296.95003    1.2509986    2069.9801    -1213.427   -211.49952    2073.4411   -2309.1294   -789.43813    44657.537 -0.067234084   -17.036218 -0.041707817    3519.0955    1562.4785    935.82821    868.77141    28.379758    18.846246    14.337362  0.017023309  0.017022778  0.018632927   0.01857802    296.95003     41.49527    35.978931    34.423473    90.016431    119.66323    90.107069    18.846069    14.337028    28.384168    18.847039    14.334184 
  979000    303.50522    1.2509986    2017.2334   -1211.0595   -211.49952    2075.6045    -2309.521    606.97436    44657.537 -0.067234084   -17.036218 -0.041707817    3462.2093    1530.2094    920.44077    863.09884    28.380111    18.844617    14.337871   0.01750375  0.017499631  0.018557768  0.018473064    303.50522     41.49527    35.978931    34.423473    90.016431    119.66323    90.107069     18.84521    14.338254    28.372306    18.851101    14.344908 
  980000    295.59606    1.2509986    2035.9235   -1213.2186   -211.49952    2068.7633   -2309.8137   -369.31695    44657.537 -0.067234084   -17.036218 -0.041707817    3490.1925    1522.0774    939.16166    875.72616    28.379445    18.846106    14.337153  0.017270375  0.017268026  0.017014314  0.016949552    295.59606     41.49527    35.978931    34.423473    90.016431    119.66323    90.107069    18.845722    14.336419    28.381726    18.849831    14.331932 
  981000    303.02235    1.2509986    1997.4179   -1250.4151   -211.49952    2073.2336   -2309.7227   -2498.5991    44657.537 -0.067234084   -17.036218 -0.041707817    3484.3221    1559.7098     943.9934    836.39092    28.382607    18.845696    14.338448  0.017553407  0.017552524  0.021525982  0.021451855    303.02235     41.49527    35.978931    34.423473    90.016431    119.66323    90.107069    18.846493    14.338593    28.371395    18.846589    14.340917 
  982000    298.85848    1.2509986    2015.7204    -1247.687   -211.49952    2070.4349   -2309.8055    -1507.646    44657.537 -0.067234084   -17.036218 -0.041707817    3502.7781    1603.9261    907.54382    843.75551    28.378823    18.846231    14.336992  0.017468809  0.017466553  0.018138695  0.018112099    298.85848     41.49527    35.978931    34.423473    90.016431    119.66323    90.107069    18.846359    14.336806    28.376937    18.848503    14.335225 
  983000    293.69849    1.2509986    2023.9915   -1237.5961   -211.49952    2070.0059   -2309.8567   -693.41438    44657.537 -0.067234084   -17.036218 -0.041707817    3501.4384    1580.8329    915.01852    856.27286    28.379747    18.846912    14.337505  0.016430232  0.016427281  0.018113733  0.018050611    293.69849     41.49527    35.978931    34.423473    90.016431    119.66323    90.107069    18.847184    14.338872    28.383228    18.844067    14.344656 
  984000    295.39023    1.2509986    2033.6131   -1209.3287   -211.49952    2076.4732   -2309.1858     619.0549    44657.537 -0.067234084   -17.036218 -0.041707817    3475.6545    1529.3678    944.99615    850.70578    28.381276    18.846551    14.337416   0.01789402   0.01788157  0.019169463  0.019101112    295.39023     41.49527    35.978931    34.423473    90.016431    119.66323    90.107069    18.846096    14.338334    28.384377    18.848907    14.346354 
  985000    290.33167    1.2509986    2034.0338   -1215.2585   -211.49952    2074.2696   -2309.8438    336.89844    44657.537 -0.067234084   -17.036218 -0.041707817    3484.8665    1507.1956    960.16732    865.61543    28.379947    18.845906    14.337821  0.016382182  0.016378687  0.018353445   0.01823129    290.33167     41.49527    35.978931    34.423473    90.016431    119.66323    90.107069    18.847474    14.336767    28.386529    18.846565    14.331419 
  986000    296.01368    1.2509986    1987.9073   -1234.1311   -211.49952    2074.7321   -2309.3978   -548.53228    44657.537 -0.067234084   -17.036218 -0.041707817     3456.704    1517.2786    927.47615    860.59708    28.379401    18.846984    14.337699  0.016946566  0.016942647  0.019385794  0.019356699    296.01368     41.49527    35.978931    34.423473    90.016431    119.66323    90.107069    18.846111    14.337239    28.380553    18.847601    14.334528 
  987000    298.75232    1.2509986    2049.2958   -1231.4597   -211.49952    2073.7181   -2309.9747    506.49045    44657.537 -0.067234084   -17.036218 -0.041707817    3517.0121    1568.7826    911.20922    879.21014    28.379461    18.846267    14.337193  0.016436118  0.016435731  0.017218465  0.017206642    298.75232     41.49527    35.978931    34.423473    90.016431    119.66323    90.107069    18.846383    14.337161    28.380645    18.846333    14.337779 
  988000    301.66217    1.2509986     1967.685    -1233.836   -211.49952    2070.5595   -2310.0902   -34.387346    44657.537 -0.067234084   -17.036218 -0.041707817    3441.0516    1539.8733    909.56344    845.18574    28.378776    18.846475    14.336856  0.015987492  0.015985646  0.017560978  0.017541351    301.66217     41.49527    35.978931    34.423473    90.016431    119.66323    90.107069    18.846315    14.336597    28.380744    18.845547    14.337148 
  989000    292.11283    1.2509986    2005.0904    -1245.156   -211.49952    2072.2947   -2309.6733   -2108.9285    44657.537 -0.067234084   -17.036218 -0.041707817     3487.625     1534.595    960.69723    841.14661    28.378654    18.845609     14.33685  0.017076659  0.017075743  0.018562213  0.018555801    292.11283     41.49527    35.978931    34.423473    90.016431    119.66323    90.107069    18.845301    14.337444    28.379254    18.846508    14.339847 
  990000    293.70598    1.2509986    2092.2548   -1214.5174   -211.49952    2077.8851   -2309.3587   -225.64442    44657.537 -0.067234084   -17.036218 -0.041707817    3538.2457    1537.9464    947.09645    895.47958    28.380716    18.845507    14.337935  0.016169628  0.016169288  0.018259507  0.018244936    293.70598     41.49527    35.978931    34.423473    90.016431    119.66323    90.107069    18.846536    14.337281     28.37908    18.849172    14.335854 
  991000    295.54396    1.2509986    2059.1097   -1219.4122   -211.49952    2071.0684   -2309.3448   -882.89026    44657.537 -0.067234084   -17.036218 -0.041707817    3516.7983    1602.2848    901.28688    863.02147    28.378947    18.845219    14.337893  0.017407393  0.017406767  0.018115419  0.018090573    295.54396     41.49527    35.978931    34.423473    90.016431    119.66323    90.107069     18.84548    14.338006    28.377747     18.84517    14.337029 
  992000    295.90182    1.2509986    2009.7179   -1235.6215   -211.49952    2073.0681   -2309.9181   -779.35064    44657.537 -0.067234084   -17.036218 -0.041707817    3482.1894    1506.7353    965.56337    860.35879    28.379643    18.845735    14.337267  0.016940657  0.016940139  0.018755942  0.018710274    295.90182     41.49527    35.978931    34.423473    90.016431    119.66323    90.107069    18.845887    14.337135    28.386314    18.848959     14.33959 
  993000    296.98879    1.2509986    2082.3554    -1213.553   -211.49952    2072.9089   -2309.5253    327.00946    44657.537 -0.067234084   -17.036218 -0.041707817    3532.5249    1546.8567    944.12418    888.10206    28.379999    18.845028    14.337578  0.016839492  0.016838445  0.018249308  0.018224375    296.98879     41.49527    35.978931    34.423473    90.016431    119.66323    90.107069    18.845427    14.337976    28.380236    18.851639     14.34383 
  994000    296.21131    1.2509986    1969.5096   -1227.2904   -211.49952     2072.728   -2309.3751   -597.69227    44657.537 -0.067234084   -17.036218 -0.041707817    3433.4471    1555.6997    889.18216    842.06877    28.380083      18.8458    14.337998  0.017640026  0.017636931  0.019858593  0.019750557    296.21131     41.49527    35.978931    34.423473    90.016431    119.66323    90.107069    18.845378    14.338245    28.387072    18.842367    14.336921 
  995000    295.24076    1.2509986    1994.4818   -1222.5628   -211.49952    2076.6918   -2309.5034   -659.19428    44657.537 -0.067234084   -17.036218 -0.041707817    3449.8562    1558.0885    897.43658    846.81523    28.381011     18.84592       14.338  0.016724583  0.016723569  0.018281818  0.018237342    295.24076     41.49527    35.978931    34.423473    90.016431    119.66323    90.107069    18.846348     14.33843    28.374455    18.844906    14.340895 
  996000    298.36603    1.2509986    1982.4047   -1241.3384   -211.49952    2073.4413   -2309.8337   -1349.6553    44657.537 -0.067234084   -17.036218 -0.041707817    3460.1355    1522.9219    914.19794    871.77841    28.379017    18.847102    14.337175  0.017757549  0.017753547  0.019114387  0.019109051    298.36603     41.49527    35.978931    34.423473    90.016431    119.66323    90.107069    18.848156    14.337717     28.37747    18.849927    14.340022 
  997000    309.37141    1.2509986    1955.0574   -1227.5981   -211.49952    2075.2372   -2309.4351    358.05049    44657.537 -0.067234084   -17.036218 -0.041707817    3416.8533    1499.4375    931.21664    841.97576    28.380062    18.846622    14.337982  0.017021346  0.017014499  0.018191874  0.018059162    309.37141     41.49527    35.978931    34.423473    90.016431    119.66323    90.107069    18.846696    14.339402    28.388954    18.846903    14.345959 
  998000    296.49157    1.2509986    1967.6802   -1236.4775   -211.49952    2066.7743     -2310.16   -750.03651    44657.537 -0.067234084   -17.036218 -0.041707817    3447.5434    1565.6341    909.95571     825.9522    28.380172     18.84592    14.337941  0.016543507  0.016542877  0.016062299  0.016057215    296.49157     41.49527    35.978931    34.423473    90.016431    119.66323    90.107069    18.846054    14.337056    28.378312    18.850887    14.339796 
  999000     304.6604    1.2509986    1958.4429   -1235.4766   -211.49952    2067.7592   -2309.9738   -46.415266    44657.537 -0.067234084   -17.036218 -0.041707817    3436.1341     1500.132    968.65575    819.91971    28.381108    18.846099    14.337516  0.017584425  0.017583641  0.018374741  0.018353025     304.6604     41.49527    35.978931    34.423473    90.016431    119.66323    90.107069    18.846773    14.337753    28.379177    18.853162     14.33755 
 1000000    302.03411    1.2509986    2118.1096      -1213.7   -211.49952    2071.9618   -2309.9908   -172.73934    44657.537 -0.067234084   -17.036218 -0.041707817    3569.8385    1573.0144    956.64625    884.58271    28.380286    18.844515    14.337399  0.016930946  0.016930481  0.018361455  0.018336462    302.03411     41.49527    35.978931    34.423473    90.016431    119.66323    90.107069    18.845667    14.337856    28.383203    18.846869    14.342303 
Loop time of 3032.2 on 60 procs for 1000000 steps with 4560 atoms

Pair  time (%) = 544.748 (17.9654)
Bond  time (%) = 59.4171 (1.95954)
Kspce time (%) = 1582.42 (52.1874)
Neigh time (%) = 12.5705 (0.414567)
Comm  time (%) = 579.78 (19.1208)
Outpt time (%) = 3.09701 (0.102137)
Other time (%) = 250.16 (8.25012)

Nlocal:    76 ave 86 max 69 min
Histogram: 2 11 12 3 13 7 2 7 2 1
Nghost:    3991.43 ave 4058 max 3899 min
Histogram: 4 8 7 1 0 3 6 11 11 9
Neighs:    28100.5 ave 31939 max 24678 min
Histogram: 1 4 8 10 14 7 6 7 1 2

Total # of neighbors = 1686027
Ave neighs/atom = 369.743
Ave special neighs/atom = 10.6316
Neighbor list builds = 5646
Dangerous builds = 0
System init for write_data ...
PPPM initialization ...
  G vector (1/distance) = 0.246499
  grid = 16 16 20
  stencil order = 5
  estimated absolute RMS force accuracy = 0.00242397
  estimated relative force accuracy = 7.2997e-06
  using double precision FFTs
  3d grid and FFT values/proc = 1053 112
