LAMMPS data file via write_data, version 15 May 2015, timestep = 23005000

2611 atoms
6 atom types
1749 bonds
4 bond types
894 angles
3 angle types
44 dihedrals
3 dihedral types
10 impropers
1 improper types

-1.4972456056018787e+01 1.4972456056018787e+01 xlo xhi
-1.4972456056018787e+01 1.4972456056018787e+01 ylo yhi
-1.4972456056018787e+01 1.4972456056018787e+01 zlo zhi

Masses

1 15.9994
2 1.00794
3 12.0107
4 1.00794
5 12.0107
6 12.0107

Bond Coeffs # harmonic

1 1000 1
2 469 1.4
3 367 1.08
4 469 0.7

Angle Coeffs # harmonic

1 100 109.47
2 35 120
3 63 120

Dihedral Coeffs # opls

1 0 7.25 0 0
2 0 7.25 0 0
3 0 7.25 0 0

Improper Coeffs # cvff

1 2.5 -1 2

Atoms # full

865 289 1 -8.1999999999999995e-01 -1.3024787402883193e+01 -9.9457195073279543e+00 -8.1130285589857518e+00 4 -3 -8
866 289 2 4.0999999999999998e-01 -1.3446480503503135e+01 -1.0842894771179555e+01 -8.2446730378037856e+00 4 -3 -8
414 138 2 4.0999999999999998e-01 -1.2463663294859376e+01 -8.2829593487847077e+00 -8.6668640491515614e+00 1 5 -2
546 182 2 4.0999999999999998e-01 -1.2090311688174690e+01 -8.5028549299902352e+00 -1.3100114685849304e+01 5 -1 -1
412 138 1 -8.1999999999999995e-01 -1.2604891624608712e+01 -7.3003418384357452e+00 -8.5460494244004508e+00 1 5 -2
544 182 1 -8.1999999999999995e-01 -1.1196060784356831e+01 -8.4068527666851942e+00 -1.2662875967382540e+01 5 -1 -1
1668 556 2 4.0999999999999998e-01 -9.8480064719238491e+00 -8.7043156634642749e+00 -1.0538351677001856e+01 3 -1 -9
1666 556 1 -8.1999999999999995e-01 -9.8022851945358944e+00 -8.1191067671221866e+00 -9.7287104596873775e+00 3 -1 -9
413 138 2 4.0999999999999998e-01 -1.1899656393780276e+01 -6.7981980515960583e+00 -9.0466227732991342e+00 1 5 -2
545 182 2 4.0999999999999998e-01 -1.0721538273167582e+01 -7.6138831036913590e+00 -1.3045114495008418e+01 5 -1 -1
2561 854 2 4.0999999999999998e-01 -1.0623514152078215e+01 -1.1706606867772575e+01 -1.0709501275712741e+01 -3 2 4
1805 602 2 4.0999999999999998e-01 -1.2209217228030290e+01 -1.0101393398090540e+01 -9.9146947264848926e+00 6 2 -6
420 140 2 4.0999999999999998e-01 -1.2053078890184057e+01 -5.7058339738409778e+00 -1.1092668979850153e+01 3 3 -4
2562 854 2 4.0999999999999998e-01 -1.0577142238844967e+01 -1.3321732715528244e+01 -1.0946260084339897e+01 -3 2 4
1804 602 1 -8.1999999999999995e-01 -1.1769955355873629e+01 -1.0412221666847147e+01 -1.0757614406152099e+01 6 2 -6
2560 854 1 -8.1999999999999995e-01 -1.0023589748778447e+01 -1.2494801696878660e+01 -1.0847045569952122e+01 -3 2 4
2335 779 1 -8.1999999999999995e-01 -9.5489584576170028e+00 -1.2529954654679264e+01 -1.3722391007796741e+01 0 -1 0
1445 482 2 4.0999999999999998e-01 -1.2691370245396635e+01 -1.4050235120305047e+01 -1.1387964679587387e+01 1 3 -3
1667 556 2 4.0999999999999998e-01 -9.8760185147609540e+00 -7.1609386818653711e+00 -1.0005398206585257e+01 3 -1 -9
175 59 1 -8.1999999999999995e-01 -1.3508178804178050e+01 -1.2536659513859018e+01 -1.1718814362457843e+01 3 2 -4
177 59 2 4.0999999999999998e-01 -1.2960884904223940e+01 -1.1925090550105770e+01 -1.1147384947543422e+01 3 2 -4
139 47 1 -8.1999999999999995e-01 -7.8250208898547999e+00 -1.4792571854415995e+01 -1.4524342928261831e+01 7 -9 -3
2336 779 2 4.0999999999999998e-01 -1.0055980028505971e+01 -1.2702649306408766e+01 -1.2877888512367903e+01 0 -1 0
1806 602 2 4.0999999999999998e-01 -1.1746835159373628e+01 -9.6614776108861005e+00 -1.1417862554328888e+01 6 2 -6
2381 794 2 4.0999999999999998e-01 -1.3869586732886050e+01 -8.3816981092032918e+00 -1.4217980584133263e+01 4 1 -10
1857 619 2 4.0999999999999998e-01 -1.4475893290425576e+01 -1.3161230648107171e+01 -8.5663439685410392e+00 3 -2 -1
418 140 1 -8.1999999999999995e-01 -1.1151158162391004e+01 -5.8824400947882793e+00 -1.0698425319662618e+01 3 3 -4
1826 609 2 4.0999999999999998e-01 -8.4443210344552675e+00 -5.6796619804779080e+00 -1.2352210111922290e+01 5 -1 -1
463 155 1 -8.1999999999999995e-01 -9.9564029117733135e+00 -6.0567592780073944e+00 -1.3578908165256404e+01 1 4 3
2382 794 2 4.0999999999999998e-01 -1.3694873047879231e+01 -9.9215300968991915e+00 -1.4732984657673663e+01 4 1 -10
2380 794 1 -8.1999999999999995e-01 -1.3619331303009327e+01 -9.3105994618132577e+00 -1.3944862839998491e+01 4 1 -10
419 140 2 4.0999999999999998e-01 -1.0453368432199362e+01 -5.4116674637838891e+00 -1.1238371064292911e+01 3 3 -4
918 306 2 4.0999999999999998e-01 -1.4475277810635069e+01 -7.6823367091595491e+00 -8.8093130735916567e+00 -2 -2 -1
2082 694 2 4.0999999999999998e-01 -1.2528483040074958e+01 -1.4689922524225420e+01 -9.3079196209883204e+00 3 -2 3
465 155 2 4.0999999999999998e-01 -9.6188438370316476e+00 -6.7823962160475464e+00 -1.4178561136787264e+01 1 4 3
2205 735 2 4.0999999999999998e-01 -8.3824405364458201e+00 -1.2790528621545050e+01 -1.0902735444914445e+01 -1 -1 0
2337 779 2 4.0999999999999998e-01 -9.0108758108015756e+00 -1.3338866791697390e+01 -1.3959471182507816e+01 0 -1 0
1855 619 1 -8.1999999999999995e-01 -1.4726067722831223e+01 -1.2229662007819634e+01 -8.3023905424851723e+00 3 -2 -1
2402 801 2 4.0999999999999998e-01 -9.1056309968732361e+00 -8.1618842072159907e+00 -8.1896018986384096e+00 1 -1 -8
1444 482 1 -8.1999999999999995e-01 -1.2180273741601113e+01 -1.4900354854925524e+01 -1.1260859955694883e+01 1 3 -3
1058 353 2 4.0999999999999998e-01 -1.3751898024575922e+01 -5.4151700988946434e+00 -1.2657886281739447e+01 6 -3 1
1104 368 2 4.0999999999999998e-01 -1.4791297234113475e+01 -9.2040615364478882e+00 -1.2423548762499712e+01 2 -4 -12
2080 694 1 -8.1999999999999995e-01 -1.2949149819350403e+01 -1.4815089620045214e+01 -8.4093365986915405e+00 3 -2 3
1056 352 2 4.0999999999999998e-01 -9.1177788963031468e+00 -9.4065499907928789e+00 -1.2422929504530000e+01 0 3 -7
2425 809 1 -8.1999999999999995e-01 -1.4532833114207559e+01 -6.8328534005471742e+00 -1.4397096149287879e+01 7 2 -6
176 59 2 4.0999999999999998e-01 -1.4433114424678601e+01 -1.2167792941408814e+01 -1.1811065874737476e+01 3 2 -4
2076 692 2 4.0999999999999998e-01 -7.9000594915017919e+00 -8.1737891448162046e+00 -1.4949007953277139e+01 4 2 -4
464 155 2 4.0999999999999998e-01 -9.9194640829474103e+00 -5.1815471306444643e+00 -1.4061316710942860e+01 1 4 3
2204 735 2 4.0999999999999998e-01 -7.5486933401352552e+00 -1.3997353067745921e+01 -1.0184907501737374e+01 -1 -1 0
1054 352 1 -8.1999999999999995e-01 -8.6158065880772359e+00 -9.9111731478090288e+00 -1.1720463805701961e+01 0 3 -7
1055 352 2 4.0999999999999998e-01 -9.0339044599943428e+00 -1.0810679734108902e+01 -1.1593338443079565e+01 0 3 -7
2203 735 1 -8.1999999999999995e-01 -7.5149344392838655e+00 -1.3287840491843463e+01 -1.0888847148741178e+01 -1 -1 0
1825 609 1 -8.1999999999999995e-01 -8.0101446968814258e+00 -5.7082318192916190e+00 -1.1451791622465738e+01 5 -1 -1
1611 537 2 4.0999999999999998e-01 -9.8403485140927991e+00 -1.1185614902887947e+01 -1.4514480410284502e+01 0 0 -1
2427 809 2 4.0999999999999998e-01 -1.3892502699139785e+01 -6.1732623243537823e+00 -1.4790790704965449e+01 7 2 -6
1557 519 2 4.0999999999999998e-01 -8.4393459882859041e+00 -1.4966862637873509e+01 -1.2175299511737611e+01 -4 -7 -1
1917 639 2 4.0999999999999998e-01 -7.8731646299107032e+00 -9.9836513475912874e+00 -7.5030822976127132e+00 -1 1 2
2386 796 1 -8.1999999999999995e-01 -5.0822926945301852e+00 -1.4801870224070848e+01 -9.1840093084282604e+00 4 3 5
1310 437 2 4.0999999999999998e-01 -1.3350189882125925e+00 -6.5160966125838868e+00 -1.1203754433733993e+01 -1 -2 -5
1183 395 1 -8.1999999999999995e-01 -4.7141250431336239e+00 -5.2859504804114472e+00 -1.2992261952292818e+01 4 -3 -3
509 170 2 4.0999999999999998e-01 -1.8465783763143317e+00 -1.2347866353144077e+01 -1.2917497867159838e+01 2 0 -3
2387 796 2 4.0999999999999998e-01 -5.1447958025220331e+00 -1.3840619800555968e+01 -8.9153649992706647e+00 4 3 5
1515 505 2 4.0999999999999998e-01 -7.3299452845900461e+00 -8.8078183836337267e+00 -1.0502814133180767e+01 2 0 -2
2094 698 2 4.0999999999999998e-01 -1.9294995639557335e+00 -1.1561596995552826e+01 -9.3508572175846751e+00 1 -3 -3
1184 395 2 4.0999999999999998e-01 -3.9585853831481757e+00 -5.2479194798525040e+00 -1.3646320261779861e+01 4 -3 -3
1677 559 2 4.0999999999999998e-01 -1.6283989988421190e+00 -5.8208381594659304e+00 -1.4528727257891022e+01 -3 3 -9
5 2 2 4.0999999999999998e-01 -4.0829247443514483e-01 -9.9072619594876556e+00 -9.4453119416143068e+00 2 6 -3
2093 698 2 4.0999999999999998e-01 -3.2358414060451004e+00 -1.0694698778709880e+01 -8.8939162384754002e+00 1 -3 -3
2046 682 2 4.0999999999999998e-01 -5.7598806425460243e+00 -1.2915196697939901e+01 -1.1792393432134926e+01 -3 7 -7
1185 395 2 4.0999999999999998e-01 -5.0643495463686445e+00 -6.2212853599458064e+00 -1.2941564231355226e+01 4 -3 -3
1629 543 2 4.0999999999999998e-01 -5.4214076816043324e+00 -8.1840055582388658e+00 -1.1645258301313511e+01 8 -4 -5
1994 665 2 4.0999999999999998e-01 -5.4575676256264689e+00 -1.1151954963657140e+01 -9.8950023271922127e+00 -5 4 -1
1887 629 2 4.0999999999999998e-01 -5.5196463110560501e-01 -9.7985319819062706e+00 -1.2790955256217083e+01 -1 -8 -8
218 73 2 4.0999999999999998e-01 -4.9091300188399760e+00 -5.1871759362346506e+00 -8.2730648103684885e+00 -1 -3 -2
2438 813 2 4.0999999999999998e-01 -6.1961819472033852e+00 -7.2207554280288173e+00 -8.9363681178420116e+00 8 -3 1
493 165 1 -8.1999999999999995e-01 -6.0013202788773317e+00 -8.3216949903325794e+00 -1.4850911600110162e+01 5 2 0
508 170 1 -8.1999999999999995e-01 -1.7143449743603458e+00 -1.1389110444746740e+01 -1.3169252211115012e+01 2 0 -3
1995 665 2 4.0999999999999998e-01 -5.8102034751029343e+00 -1.0864915115141986e+01 -8.3265340694092131e+00 -5 4 -1
442 148 1 -8.1999999999999995e-01 -4.3923751360474252e+00 -1.2133911622819724e+01 -1.4728785825544799e+01 4 6 -9
1203 401 2 4.0999999999999998e-01 -3.1115704499646544e+00 -1.4377968200547539e+01 -1.2422921088343685e+01 5 -1 -8
1993 665 1 -8.1999999999999995e-01 -5.0846276790380873e+00 -1.1114558552578194e+01 -8.9678582721611129e+00 -5 4 -1
2092 698 1 -8.1999999999999995e-01 -2.2409436070453328e+00 -1.0769570037579356e+01 -8.8257146637986370e+00 1 -3 -3
1276 426 1 -8.1999999999999995e-01 -6.6997287239417957e-01 -4.9981461592550964e+00 -1.0559148161982993e+01 -1 -2 -1
1202 401 2 4.0999999999999998e-01 -1.5739367703426534e+00 -1.4352071040124535e+01 -1.2972328545119689e+01 5 -1 -8
443 148 2 4.0999999999999998e-01 -4.7114286779776808e+00 -1.2196409517271990e+01 -1.3783070410340006e+01 4 6 -9
1675 559 1 -8.1999999999999995e-01 -2.5458090753691334e+00 -6.1028159918586695e+00 -1.4247789465717171e+01 -3 3 -9
1514 505 2 4.0999999999999998e-01 -7.2477189294026125e+00 -7.1771286945352148e+00 -1.0472374830485126e+01 2 0 -2
1676 559 2 4.0999999999999998e-01 -2.4864028414580801e+00 -6.6398001274785106e+00 -1.3406244613793602e+01 -3 3 -9
2437 813 1 -8.1999999999999995e-01 -5.9060361485390978e+00 -6.7369876013630456e+00 -8.1106182157647648e+00 8 -3 1
2125 709 1 -8.1999999999999995e-01 -1.0637177129435109e+00 -1.2842873513399510e+01 -1.0106049876836387e+01 7 0 -6
1513 505 1 -8.1999999999999995e-01 -6.7235316205626940e+00 -8.0230958317755938e+00 -1.0374160416500693e+01 2 0 -2
1311 437 2 4.0999999999999998e-01 -7.8620032911446458e-01 -7.8995422064314500e+00 -1.1875850382513539e+01 -1 -2 -5
2127 709 2 4.0999999999999998e-01 -1.4246511523023848e+00 -1.3542505919551992e+01 -9.4893486945317136e+00 7 0 -6
494 165 2 4.0999999999999998e-01 -5.5983911491212641e+00 -8.3079059493474610e+00 -1.3935741242895974e+01 5 2 0
1201 401 1 -8.1999999999999995e-01 -2.2697044502665040e+00 -1.3840131364635257e+01 -1.2468439795721716e+01 5 -1 -8
2126 709 2 4.0999999999999998e-01 -1.3734493374586680e+00 -1.3028639943292296e+01 -1.1038592612896089e+01 7 0 -6
2044 682 1 -8.1999999999999995e-01 -5.1092965045007386e+00 -1.2184461954880010e+01 -1.1999385712466012e+01 -3 7 -7
1627 543 1 -8.1999999999999995e-01 -4.7436738161525600e+00 -8.0009722956867169e+00 -1.2357476271245734e+01 8 -4 -5
1628 543 2 4.0999999999999998e-01 -3.8854995919940549e+00 -7.7103646190985682e+00 -1.1934199800835124e+01 8 -4 -5
1309 437 1 -8.1999999999999995e-01 -1.5590802672357356e+00 -7.2669597387229343e+00 -1.1825107717194326e+01 -1 -2 -5
2045 682 2 4.0999999999999998e-01 -4.1834633967947692e+00 -1.2489208292373130e+01 -1.1775686109889978e+01 -3 7 -7
510 170 2 4.0999999999999998e-01 -2.4687726755015085e+00 -1.1090943735681204e+01 -1.3754072056753516e+01 2 0 -3
1777 593 1 -8.1999999999999995e-01 -1.2430535992355614e+01 -8.2207538354232454e+00 -1.6653504920745323e+00 2 -1 -6
2323 775 1 -8.1999999999999995e-01 -9.0279821422289785e+00 -6.2532597055000654e+00 -5.5473246183687692e+00 -5 -2 -6
680 227 2 4.0999999999999998e-01 -9.3303571309805768e+00 -7.0310701696636428e+00 -2.4099299338304068e+00 -1 -1 -3
2325 775 2 4.0999999999999998e-01 -9.8367827966590600e+00 -5.6706209134925381e+00 -5.4669982859338102e+00 -5 -2 -6
679 227 1 -8.1999999999999995e-01 -8.5708747256687587e+00 -6.4655695460229694e+00 -2.7316041691016011e+00 -1 -1 -3
1716 572 2 4.0999999999999998e-01 -9.4612030722824052e+00 -9.1874594394500129e+00 -1.4595037401392670e+00 6 -1 -6
1779 593 2 4.0999999999999998e-01 -1.3013082065468282e+01 -8.5967386892207323e+00 -2.3860128633704960e+00 2 -1 -6
1714 572 1 -8.1999999999999995e-01 -9.8825964160500064e+00 -8.9251031213092329e+00 -2.3276486663570690e+00 6 -1 -6
1715 572 2 4.0999999999999998e-01 -9.5098240231001157e+00 -9.4905520831903463e+00 -3.0634387250547732e+00 6 -1 -6
1561 521 1 -8.1999999999999995e-01 -1.2858786957189158e+01 -1.1420695146247299e+01 -3.0372719209743853e+00 1 -3 1
1562 521 2 4.0999999999999998e-01 -1.3075603767140308e+01 -1.2066032231852398e+01 -3.7698081366262599e+00 1 -3 1
2291 764 2 4.0999999999999998e-01 -1.0624308260371954e+01 -1.3565815101444755e+01 -1.9479382491913544e+00 3 -5 -1
1038 346 2 4.0999999999999998e-01 -9.0373534525166974e+00 -1.1244873726988409e+01 -4.4849813609622533e+00 1 -4 -1
160 54 1 -8.1999999999999995e-01 -1.1130052396426175e+01 -1.3645390186375243e+01 -6.6310557319017285e+00 8 0 -4
1130 377 2 4.0999999999999998e-01 -1.4009919240584646e+01 -1.4529363581934563e+01 -4.7891114479940633e+00 4 3 -7
1036 346 1 -8.1999999999999995e-01 -9.9601665692614372e+00 -1.1378474047050180e+01 -4.1235319228789589e+00 1 -4 -1
1037 346 2 4.0999999999999998e-01 -1.0014018430540176e+01 -1.2266632891726237e+01 -3.6670753042349542e+00 1 -4 -1
730 244 1 -8.1999999999999995e-01 -1.1098503867269816e+01 -1.0095300319645975e+01 -6.2518224391072437e+00 -6 -2 2
648 216 2 4.0999999999999998e-01 -1.2754774534167925e+01 -7.3030541328428793e+00 -4.9724169256235928e+00 0 -4 -8
2290 764 1 -8.1999999999999995e-01 -1.0286401898066771e+01 -1.3810251904924431e+01 -2.8568654903776682e+00 3 -5 -1
646 216 1 -8.1999999999999995e-01 -1.3036299605043169e+01 -8.2503604569938993e+00 -5.1254958133671984e+00 0 -4 -8
732 244 2 4.0999999999999998e-01 -1.0719419617344769e+01 -1.0675120911756997e+01 -5.5305859912395814e+00 -6 -2 2
731 244 2 4.0999999999999998e-01 -1.0368689830793949e+01 -9.5408322680481312e+00 -6.6518417529344802e+00 -6 -2 2
1778 593 2 4.0999999999999998e-01 -1.1472921677506880e+01 -8.4214235190462805e+00 -1.8721965908885156e+00 2 -1 -6
1856 619 2 4.0999999999999998e-01 -1.4939854968468859e+01 -1.2205971104739049e+01 -7.3257572696667097e+00 3 -2 -1
681 227 2 4.0999999999999998e-01 -7.7151118909102072e+00 -6.9755242094401702e+00 -2.6438830178111008e+00 -1 -1 -3
1084 362 1 -8.1999999999999995e-01 -1.2566499441136495e+01 -5.5942041281130273e+00 -3.1020666135935571e-01 0 1 6
2292 764 2 4.0999999999999998e-01 -9.4958191810035171e+00 -1.4416010881768033e+01 -2.7667887342103263e+00 3 -5 -1
1085 362 2 4.0999999999999998e-01 -1.2451623340327773e+01 -6.3995493564354415e+00 -8.9184343774855712e-01 0 1 6
1563 521 2 4.0999999999999998e-01 -1.1988147426200005e+01 -1.0970748118763890e+01 -3.2363027405896894e+00 1 -3 1
792 264 2 4.0999999999999998e-01 -1.2860527097080322e+01 -1.3541225276725084e+01 -8.4829780440441382e-01 1 3 -5
1549 517 1 -8.1999999999999995e-01 -1.0005172303473762e+01 -1.1726117798325619e+01 -2.9297541225759538e-01 3 3 -9
2403 801 2 4.0999999999999998e-01 -8.6307298290333545e+00 -7.5840980516720800e+00 -6.7378895876812326e+00 1 -1 -8
647 216 2 4.0999999999999998e-01 -1.2372195627911680e+01 -8.7034977828500679e+00 -5.7202321075313964e+00 0 -4 -8
719 240 2 4.0999999999999998e-01 -1.4911108677198728e+01 -1.4848736040202583e+01 -1.4713751411361944e+00 2 4 -2
1967 656 2 4.0999999999999998e-01 -1.4295898758442547e+01 -1.1352859006898475e+01 -2.2652806901577396e+00 6 -4 -2
1421 474 2 4.0999999999999998e-01 -1.4943338593750093e+01 -8.0125628615666074e+00 -5.3885879741611653e+00 -2 1 -1
1050 350 2 4.0999999999999998e-01 -1.2910997815118206e+01 -1.4459355129148060e+01 -2.7076122345066249e+00 -1 -4 1
2324 775 2 4.0999999999999998e-01 -8.8609595628354558e+00 -6.7137258843570500e+00 -4.6754570050877362e+00 -5 -2 -6
2118 706 2 4.0999999999999998e-01 -8.1259028074836657e+00 -1.3339110940057134e+01 -6.3248101559917078e+00 6 -1 -1
1129 377 1 -8.1999999999999995e-01 -1.3921451825087509e+01 -1.3607114477874950e+01 -4.4126690115315927e+00 4 3 -7
2116 706 1 -8.1999999999999995e-01 -8.5615788425824988e+00 -1.3013045600636431e+01 -7.1638254066958753e+00 6 -1 -1
162 54 2 4.0999999999999998e-01 -1.1607874634935296e+01 -1.3362006248345125e+01 -5.7995160510474815e+00 8 0 -4
1131 377 2 4.0999999999999998e-01 -1.4571692653400405e+01 -1.2997952520621331e+01 -4.8667476123052378e+00 4 3 -7
285 95 2 4.0999999999999998e-01 -8.4602620765251579e+00 -1.2520420732867620e+01 -3.7503863422693229e-01 3 -1 -3
161 54 2 4.0999999999999998e-01 -1.1775639589667499e+01 -1.4091755047241772e+01 -7.2507769511227353e+00 8 0 -4
630 210 2 4.0999999999999998e-01 -7.5385777690789402e+00 -1.1018061477792664e+01 -1.0335519696628364e+00 -5 2 0
628 210 1 -8.1999999999999995e-01 -7.6067507719371621e+00 -1.0022513943651056e+01 -1.0992508402371008e+00 -5 2 0
2117 706 2 4.0999999999999998e-01 -9.5528613823116917e+00 -1.3121536236999127e+01 -7.0885424822312473e+00 6 -1 -1
2401 801 1 -8.1999999999999995e-01 -8.8703182032975043e+00 -8.4092008856054203e+00 -7.2496331989707432e+00 1 -1 -8
1831 611 1 -8.1999999999999995e-01 -7.5776342904204492e+00 -1.3973234332754480e+01 -4.6768000255039421e+00 6 1 -1
1833 611 2 4.0999999999999998e-01 -8.0052361516348682e+00 -1.4478346715612973e+01 -3.9270687970393023e+00 6 1 -1
790 264 1 -8.1999999999999995e-01 -1.2788220470692801e+01 -1.2975511322630872e+01 -2.6824574336098195e-02 1 3 -5
1982 661 2 4.0999999999999998e-01 -1.2305146976622483e+01 -5.6459881345716507e+00 -7.4824690388255997e+00 7 2 -4
867 289 2 4.0999999999999998e-01 -1.2419271119321714e+01 -9.9754826797428571e+00 -7.3177028453204001e+00 4 -3 -8
1551 517 2 4.0999999999999998e-01 -1.0993960953005313e+01 -1.1819483066250500e+01 -1.7610489841999133e-01 3 3 -9
1916 639 2 4.0999999999999998e-01 -7.7865837735779193e+00 -1.1604292528811097e+01 -7.3218020260588199e+00 -1 1 2
1847 616 2 4.0999999999999998e-01 -2.3444175248994981e+00 -8.9268561172152427e+00 -6.3792937503894009e-01 0 1 5
1382 461 2 4.0999999999999998e-01 -7.0738234970991476e+00 -1.0469616006739979e+01 -5.6054284816239441e+00 1 2 0
1381 461 1 -8.1999999999999995e-01 -7.0170836353782517e+00 -1.0382908228142529e+01 -4.6107721859779076e+00 1 2 0
1915 639 1 -8.1999999999999995e-01 -7.2616733714113133e+00 -1.0753095592290755e+01 -7.3183858028328546e+00 -1 1 2
1127 376 2 4.0999999999999998e-01 -1.1942753187711546e+00 -1.4887895672334437e+01 -5.0074753118925841e-01 0 -4 -5
629 210 2 4.0999999999999998e-01 -6.7069930266771198e+00 -9.6156420006627492e+00 -9.4123181022383662e-01 -5 2 0
284 95 2 4.0999999999999998e-01 -7.2037550773698706e+00 -1.3267420582071516e+01 -1.1030619780043427e+00 3 -1 -3
180 60 2 4.0999999999999998e-01 -2.0755784123892447e+00 -9.7401725943034023e+00 -7.1815473318449845e+00 -3 3 -4
283 95 1 -8.1999999999999995e-01 -7.4685424439460295e+00 -1.2648624423252928e+01 -3.6342845378671740e-01 3 -1 -3
2062 688 1 -8.1999999999999995e-01 -4.9665630080708851e+00 -9.5631080703090898e+00 -9.9214313841059720e-02 4 4 -2
1317 439 2 4.0999999999999998e-01 -1.9332593886002947e-01 -1.3208628714363222e+01 -5.0773254777915025e+00 0 4 -9
994 332 1 -8.1999999999999995e-01 -3.9926998147833341e+00 -1.4691766996628449e+01 -6.5260628363084017e-01 -1 4 1
224 75 2 4.0999999999999998e-01 -4.7089057362089708e+00 -6.8607311164893918e+00 -5.3489698633312059e+00 2 4 -2
1286 429 2 4.0999999999999998e-01 -1.3413701746757081e+00 -6.6054534277076424e+00 -4.0998194239690129e+00 1 -7 -3
1285 429 1 -8.1999999999999995e-01 -1.9090450501151963e+00 -5.7894464497674800e+00 -3.9904730195666342e+00 1 -7 -3
1990 664 1 -8.1999999999999995e-01 -5.0700505738051813e+00 -8.4186732177523815e+00 -5.8217043081203297e+00 4 -2 -3
1315 439 1 -8.1999999999999995e-01 -9.8463344973669464e-01 -1.3547584220999816e+01 -4.5683850042505085e+00 0 4 -9
246 82 2 4.0999999999999998e-01 -1.4394682944536399e+00 -9.0979267747444030e+00 -4.8346457241479168e+00 2 -2 0
2541 847 2 4.0999999999999998e-01 -4.2813070735584979e+00 -1.2435307266837295e+01 -3.5939663898711487e+00 5 -2 -3
1287 429 2 4.0999999999999998e-01 -2.8130778196427517e+00 -5.9571562255643880e+00 -4.3837629726568146e+00 1 -7 -3
1889 630 2 4.0999999999999998e-01 -1.9533548862773209e-01 -5.6927642665900748e+00 -6.9303519957173112e+00 5 1 3
245 82 2 4.0999999999999998e-01 -3.2332823916072684e-01 -8.9852414483102940e+00 -3.6478980818161464e+00 2 -2 0
995 332 2 4.0999999999999998e-01 -3.9968252920465019e+00 -1.3708031440441644e+01 -8.3240099466945772e-01 -1 4 1
1383 461 2 4.0999999999999998e-01 -6.4076935735729919e+00 -1.1088437550792372e+01 -4.2489007733249853e+00 1 2 0
1992 664 2 4.0999999999999998e-01 -5.7802508595900282e+00 -8.6520006843265200e+00 -5.1574358137237031e+00 4 -2 -3
223 75 1 -8.1999999999999995e-01 -4.5289763193685761e+00 -6.0569991594509069e+00 -4.7817669369828870e+00 2 4 -2
1980 660 2 4.0999999999999998e-01 -2.4952871265865824e+00 -6.5648449481234330e+00 -1.1895057530774391e+00 6 -9 -4
1953 651 2 4.0999999999999998e-01 -4.4710196314349755e+00 -7.0984679312783312e+00 -2.5619048369887203e+00 5 -1 -4
2208 736 2 4.0999999999999998e-01 -4.4505303236516696e+00 -1.1230067203555604e+01 -4.8186325975997413e-01 -1 -2 -3
1162 388 1 -8.1999999999999995e-01 -2.7444674589423137e+00 -1.4767804791962471e+01 -6.1625804498055370e+00 -3 -2 -4
179 60 2 4.0999999999999998e-01 -1.4113350837720802e+00 -8.2737544119101507e+00 -6.9072571494833142e+00 -3 3 -4
1832 611 2 4.0999999999999998e-01 -6.6334696208042789e+00 -1.3751130738408206e+01 -4.4332803003046362e+00 6 1 -1
1062 354 2 4.0999999999999998e-01 -1.2942293895781951e+00 -1.1617437996907018e+01 -1.8807040830439270e+00 2 0 -7
1951 651 1 -8.1999999999999995e-01 -5.1274902385182628e+00 -6.6449082861212485e+00 -1.9590708817419973e+00 5 -1 -4
1979 660 2 4.0999999999999998e-01 -2.1001036002767073e+00 -5.2381174664087222e+00 -2.0557971353531439e+00 6 -9 -4
2207 736 2 4.0999999999999998e-01 -3.3166271662637179e+00 -1.1830931759352604e+01 -1.4918444538514954e+00 -1 -2 -3
2206 736 1 -8.1999999999999995e-01 -4.0492342743045313e+00 -1.2067287009118260e+01 -8.5348576421521649e-01 -1 -2 -3
1888 630 1 -8.1999999999999995e-01 -1.3421911940907627e-01 -6.6476359970301182e+00 -7.2211501289797626e+00 5 1 3
1848 616 2 4.0999999999999998e-01 -2.3022156758205270e+00 -8.6336207416872419e+00 -2.2438772550253088e+00 0 1 5
1952 651 2 4.0999999999999998e-01 -5.3642111378165787e+00 -5.7499186186687332e+00 -2.3372712186936102e+00 5 -1 -4
1918 640 1 -8.1999999999999995e-01 -8.2903564642195704e-01 -1.0926690192090049e+01 -2.4222621403121281e-01 1 0 -8
1060 354 1 -8.1999999999999995e-01 -1.8084664477721315e+00 -1.1791139048574850e+01 -2.7206249078188591e+00 2 0 -7
1876 626 1 -8.1999999999999995e-01 -4.4975331326321424e+00 -1.2274047459541697e+01 -6.4236329823597504e+00 1 -3 0
1878 626 2 4.0999999999999998e-01 -4.1506176440533586e+00 -1.3201297992125145e+01 -6.5648239190909408e+00 1 -3 0
1991 664 2 4.0999999999999998e-01 -4.3097345481440943e+00 -9.0627220364305643e+00 -5.7368547676503479e+00 4 -2 -3
2439 813 2 4.0999999999999998e-01 -5.5512453611656518e+00 -7.3948286013242033e+00 -7.4462030539372384e+00 8 -3 1
2540 847 2 4.0999999999999998e-01 -5.2688127880156710e+00 -1.2171789490462565e+01 -4.8676333150206208e+00 5 -2 -3
2405 802 2 4.0999999999999998e-01 -5.3538697243039497e+00 -6.4311764050770179e+00 -2.6182773180272179e-01 1 -1 -6
178 60 1 -8.1999999999999995e-01 -1.8874088178183701e+00 -9.0460887118612572e+00 -6.4866239108434112e+00 -3 3 -4
1846 616 1 -8.1999999999999995e-01 -2.6589453938598027e+00 -8.3165884405778243e+00 -1.3650637267581871e+00 0 1 5
1061 354 2 4.0999999999999998e-01 -1.8931150192951858e+00 -1.0941583165838811e+01 -3.2413630543249248e+00 2 0 -7
1163 388 2 4.0999999999999998e-01 -2.2344160940385613e+00 -1.4285400153967394e+01 -5.4503921461259672e+00 -3 -2 -4
225 75 2 4.0999999999999998e-01 -5.2918280670696625e+00 -5.4152864753569023e+00 -4.8613963515383212e+00 2 4 -2
2539 847 1 -8.1999999999999995e-01 -5.2300006013528861e+00 -1.2291077287976021e+01 -3.8754927707652911e+00 5 -2 -3
1877 626 2 4.0999999999999998e-01 -4.3922203395798203e+00 -1.1746763714393987e+01 -7.2668173360032009e+00 1 -3 0
244 82 1 -8.1999999999999995e-01 -1.2906661523677698e+00 -9.1426989926221545e+00 -3.8467529436387427e+00 2 -2 0
1316 439 2 4.0999999999999998e-01 -1.0908480290348770e+00 -1.3018695088789206e+01 -3.7263199555673800e+00 0 4 -9
2064 688 2 4.0999999999999998e-01 -4.4301897620446660e+00 -8.7667884058164844e+00 -3.7895977284152416e-01 4 4 -2
1978 660 1 -8.1999999999999995e-01 -2.2263618177444595e+00 -5.6032777875135498e+00 -1.1334113125988168e+00 6 -9 -4
58 20 1 -8.1999999999999995e-01 -1.3014911010374506e+01 -1.2583592660016635e+01 4.8755494049143895e+00 9 1 -8
2383 795 1 -8.1999999999999995e-01 -1.3875296633241017e+01 -8.2618760684905990e+00 1.2199820622370101e+00 3 7 0
1314 438 2 4.0999999999999998e-01 -1.2404285922114678e+01 -8.6141924926162918e+00 2.7003845352506222e+00 2 -2 -2
1312 438 1 -8.1999999999999995e-01 -1.1596874124019536e+01 -9.1210527027780284e+00 3.0024734365914103e+00 2 -2 -2
1313 438 2 4.0999999999999998e-01 -1.0984400373988267e+01 -9.2662095180033024e+00 2.2253735711817786e+00 2 -2 -2
2411 804 2 4.0999999999999998e-01 -9.5029195014696022e+00 -9.5746090769440286e+00 5.2095706605254275e+00 8 -5 -4
1296 432 2 4.0999999999999998e-01 -1.0211826968852314e+01 -1.1640271073621227e+01 5.7485269448089742e+00 7 -2 -7
2410 804 1 -8.1999999999999995e-01 -1.0479369937408205e+01 -9.5513016216743516e+00 5.4242334483582209e+00 8 -5 -4
2412 804 2 4.0999999999999998e-01 -1.0995258971303210e+01 -9.3050405831102410e+00 4.6036892205176745e+00 8 -5 -4
2195 732 2 4.0999999999999998e-01 -1.3909383039588398e+01 -9.7343481321682894e+00 3.9521807345133642e+00 2 -4 -2
2194 732 1 -8.1999999999999995e-01 -1.4320122878242955e+01 -1.0592033945462951e+01 3.6427512492448368e+00 2 -4 -2
2478 826 2 4.0999999999999998e-01 -1.0822417787727453e+01 -1.4636772089901283e+01 4.9909675036115804e+00 -3 -1 -4
60 20 2 4.0999999999999998e-01 -1.2211867281917799e+01 -1.2577390937113300e+01 5.4715033593547577e+00 9 1 -8
17 6 2 4.0999999999999998e-01 -1.2375221718480120e+01 -9.3934281413433496e+00 6.3842107970590529e+00 0 1 -6
951 317 2 4.0999999999999998e-01 -1.2567592987844048e+01 -7.4518965066560998e+00 5.6309385915519616e+00 1 1 -6
1550 517 2 4.0999999999999998e-01 -9.7161319034596350e+00 -1.0822190197551759e+01 2.2380466559658529e-02 3 3 -9
949 317 1 -8.1999999999999995e-01 -1.2856368730363084e+01 -6.5866320939816259e+00 5.2210546386741417e+00 1 1 -6
1239 413 2 4.0999999999999998e-01 -8.0461244494162543e+00 -1.3432416548776247e+01 3.0857212018298181e+00 2 -1 -6
2191 731 1 -8.1999999999999995e-01 -7.8079108427495489e+00 -9.0464445134353149e+00 4.3066830819547075e+00 5 1 -5
2192 731 2 4.0999999999999998e-01 -7.7118812559786640e+00 -8.2790711996108186e+00 4.9407140886484751e+00 5 1 -5
950 317 2 4.0999999999999998e-01 -1.2177101599357549e+01 -5.8802689135047803e+00 5.4203684864208288e+00 1 1 -6
15 5 2 4.0999999999999998e-01 -1.2029942479291959e+01 -1.3196129449248593e+01 1.8003914753506098e+00 -2 2 -3
2384 795 2 4.0999999999999998e-01 -1.4495347998657047e+01 -8.9824570663089354e+00 1.5304302953396149e+00 3 7 0
16 6 1 -8.1999999999999995e-01 -1.3308802562320285e+01 -9.1428182157575932e+00 6.6405314271661648e+00 0 1 -6
1238 413 2 4.0999999999999998e-01 -9.6619730662334931e+00 -1.3559916071144094e+01 2.8866892432447724e+00 2 -1 -6
425 142 2 4.0999999999999998e-01 -1.4370294793620898e+01 -6.9382216191896422e+00 2.2992055452106275e+00 6 -2 -5
424 142 1 -8.1999999999999995e-01 -1.4490380496330303e+01 -6.2135921707948381e+00 2.9778589092842385e+00 6 -2 -5
1294 432 1 -8.1999999999999995e-01 -1.0677737103819071e+01 -1.2408311045965178e+01 6.1879824444036746e+00 7 -2 -7
59 20 2 4.0999999999999998e-01 -1.3399348756767878e+01 -1.3506241534970110e+01 4.8438402846956148e+00 9 1 -8
426 142 2 4.0999999999999998e-01 -1.3820791334995240e+01 -6.3297168267254449e+00 3.7115102102195525e+00 6 -2 -5
791 264 2 4.0999999999999998e-01 -1.3695299371841571e+01 -1.2857053952616614e+01 3.7722307794906662e-01 1 3 -5
326 109 2 4.0999999999999998e-01 -9.7696806607367783e+00 -5.8370304331100016e+00 6.8022670249492929e+00 1 4 -9
80 27 2 4.0999999999999998e-01 -8.5612043047651269e+00 -1.4777515117045622e+01 6.8311458682740405e+00 3 -1 -3
13 5 1 -8.1999999999999995e-01 -1.1694169488745411e+01 -1.3578562621195514e+01 2.6612516018059740e+00 -2 2 -3
1593 531 2 4.0999999999999998e-01 -1.4362225799703147e+01 -6.4491161692916705e+00 6.6620580930106303e+00 1 5 -6
14 5 2 4.0999999999999998e-01 -1.2213216851313891e+01 -1.3190957030424672e+01 3.4231115180746112e+00 -2 2 -3
1292 431 2 4.0999999999999998e-01 -8.5585444996344631e+00 -9.0746965117540128e+00 1.8191509191631656e+00 4 -3 -8
1291 431 1 -8.1999999999999995e-01 -9.4126335884591050e+00 -8.9678425771316483e+00 1.3100410573763401e+00 4 -3 -8
1293 431 2 4.0999999999999998e-01 -9.7273240885088086e+00 -8.0213289036966771e+00 1.3818780730668490e+00 4 -3 -8
2517 839 2 4.0999999999999998e-01 -8.9232729104576585e+00 -5.2011375418379355e+00 4.7473962078002945e+00 10 1 -7