2611
Atoms. Timestep: 23000000
O -7.89854 -3.49436 -8.73208
H -8.51596 -4.24398 -8.97035
H -7.744 -2.92125 -9.53681
O 2.56579 -9.93978 -8.26517
H 2.48521 -8.95312 -8.4063
H 3.41523 -10.1383 -7.77632
O 1.33283 7.57958 -4.44026
H 0.624154 6.90931 -4.66033
H 1.63029 7.45169 -3.49417
O 5.74946 -5.28872 -12.9324
H 6.67668 -5.44102 -13.2744
H 5.72293 -5.46982 -11.9493
O -12.1521 13.8109 2.34549
H -12.6468 13.7001 3.20742
H -12.6591 14.4317 1.74763
O -12.5842 -9.70194 7.41989
H -12.5318 -10.4883 6.8044
H -12.9065 -10.0022 8.31758
O 6.25523 3.64322 13.079
H 5.78852 2.76771 12.9541
H 6.90711 3.56878 13.8336
O -9.44005 2.02206 8.12708
H -10.1255 1.66042 7.49522
H -9.19827 2.95447 7.8586
O -2.29539 -7.2488 11.9233
H -1.94028 -7.53449 12.8133
H -2.49301 -6.26874 11.9423
O -3.78314 10.2607 -1.02388
H -4.7334 10.1275 -0.742443
H -3.5349 11.2231 -0.914552
O 7.47103 -4.11952 1.93689
H 7.16151 -3.94277 2.87117
H 8.46001 -4.26729 1.93575
O -7.03251 1.5718 -7.95532
H -6.97807 2.32538 -8.61036
H -7.6906 0.893341 -8.28173
O 0.0333582 1.43898 -7.01109
H -0.64097 0.823348 -7.41876
H 0.43908 1.00375 -6.20741
O 4.54786 8.94182 -0.0649277
H 4.12118 9.78484 0.262456
H 4.04945 8.15385 0.296482
O 4.66731 9.66873 -5.64358
H 4.05582 10.4594 -5.61458
H 4.2816 8.97105 -6.24724
O 3.3051 4.61703 -11.5445
H 3.42032 4.52471 -12.5335
H 2.72092 3.8791 -11.2067
O -6.17825 -3.12685 13.8005
H -5.91238 -2.29693 14.2909
H -5.91196 -3.92927 14.3345
O -5.12278 6.61275 -10.7413
H -4.40118 6.7752 -10.0683
H -4.72712 6.60776 -11.6596
O -13.3508 0.65484 14.1773
H -12.9172 1.44648 13.7469
H -14.2827 0.554781 13.8289
O -13.7871 14.1751 4.65688
H -14.5245 13.5594 4.37948
H -13.6464 14.1032 5.64429
O -11.8268 -1.29364 -5.34838
H -12.7823 -1.30915 -5.64315
H -11.2787 -1.85926 -5.96447
O 12.6362 4.18313 -10.02
H 11.9205 4.78599 -10.3725
H 12.4729 3.24971 -10.3393
O 12.346 5.27967 -4.6216
H 11.7568 4.83613 -5.29691
H 13.2989 5.21681 -4.91816
O -8.11233 11.5556 14.1387
H -7.83092 11.4802 13.1821
H -8.60724 10.729 14.4067
O 5.87656 11.4712 -2.29782
H 6.287 11.1958 -3.16707
H 6.35114 12.278 -1.94597
O 10.7236 -3.05018 -0.273555
H 11.5706 -2.51967 -0.307072
H 10.2636 -2.99997 -1.16
O -9.94519 12.8395 9.48038
H -10.6362 12.6413 10.1755
H -9.79121 12.0247 8.92161
O -9.67287 0.886466 -11.4021
H -8.84182 0.523248 -11.8232
H -10.2772 1.24588 -12.1131
O -10.9228 8.02308 4.65276
H -11.026 8.95851 4.99078
H -11.6525 7.45103 5.02723
O -9.1929 10.7439 -2.659
H -8.75836 9.94319 -2.24672
H -9.22716 10.6303 -3.6519
O -14.7019 -11.0596 14.24
H -14.6881 -11.6462 13.4303
H 14.5954 -10.3388 14.1178
O 0.784243 8.06316 3.61815
H 0.810535 8.4795 2.70937
H -0.156965 8.0592 3.95585
O 10.0187 -5.01786 1.56888
H 10.3063 -4.30634 0.927821
H 10.8242 -5.41929 2.00461
O 13.7812 7.23074 2.01851
H 14.1991 6.67387 1.30078
H 13.0111 7.74234 1.63749
O -9.52726 -8.14901 6.62832
H -8.74837 -8.06216 6.00726
H -9.66317 -7.28622 7.11519
O 14.5666 0.463766 12.3085
H 14.2876 -0.495317 12.2613
H -14.9616 0.721954 11.4544
O -4.17391 12.424 12.5485
H -4.49381 13.3302 12.8252
H -4.66749 11.7243 13.0649
O 5.45222 -8.63236 13.8086
H 5.13262 -9.55017 14.044
H 6.10465 -8.31942 14.4988
O 8.05256 7.25942 1.64893
H 8.69669 6.56459 1.96867
H 8.33294 8.15633 1.99078
O -11.7695 -12.6786 9.83212
H -10.9481 -13.0486 10.2661
H -11.8697 -13.0721 8.91832
O -12.0389 -1.04749 -1.17286
H -11.1527 -0.912449 -0.72971
H -12.0268 -1.90439 -1.68812
O -12.3724 11.7113 -5.21143
H -12.1098 11.602 -6.17008
H -12.1635 12.6424 -4.91265
O 13.5139 -9.7726 10.9191
H 13.1185 -10.4589 10.3087
H 13.6662 -8.92411 10.4124
O 6.88645 -10.8664 -9.70709
H 6.75542 -11.7228 -9.20789
H 6.50799 -10.1091 -9.17487
O -4.70933 -8.68066 10.7684
H -4.0384 -7.95789 10.9338
H -4.85123 -9.2026 11.6094
O 13.4665 -12.4566 -10.9615
H 12.7954 -12.8276 -11.6034
H 13.9753 -11.7169 -11.4018
O -8.4874 13.9476 -14.1383
H -8.53911 13.1567 -14.748
H -7.91668 14.6542 -14.5567
O 12.4203 13.2735 12.7743
H 12.9493 12.7916 13.4727
H 12.7701 13.0358 11.8682
O -14.027 -1.7858 10.1372
H -13.568 -2.52065 10.6365
H -14.8505 -2.14489 9.69812
O 7.58818 8.66179 -7.05019
H 7.38564 9.641 -7.04272
H 8.45862 8.49793 -6.58607
O 11.1766 -3.03672 -9.9738
H 10.7838 -3.65364 -10.6558
H 11.57 -3.57263 -9.22686
O 5.23559 0.575977 12.9101
H 4.96099 0.610997 11.9492
H 6.21892 0.404364 12.9697
O -13.4716 9.05682 -6.99622
H -12.5891 9.43919 -6.72251
H -14.2087 9.62887 -6.63652
O -10.0131 -12.7574 -4.08207
H -10.3328 -13.5945 -3.63833
H -9.6798 -12.1189 -3.38843
O -9.56397 3.36209 -4.91027
H -9.41059 3.52552 -5.88479
H -8.90374 2.68896 -4.57724
O -3.27495 11.8179 -11.1698
H -3.3611 11.9536 -12.1567
H -3.53923 10.8818 -10.9377
O -2.99942 -14.4186 6.74385
H -2.8537 14.6479 7.12449
H -3.40411 -14.4979 5.83289
O -7.37588 -5.81941 10.9557
H -7.1495 -6.74697 10.6585
H -6.62294 -5.451 11.5009
O -12.7539 -12.2076 -11.4953
H -13.3377 -12.3973 -12.2847
H -12.0694 -11.5223 -11.744
O -2.57543 -8.70281 -3.53396
H -2.61815 -9.15309 -4.42578
H -3.47362 -8.74408 -3.09638
O 5.78013 -6.1415 -10.3544
H 6.48512 -5.7311 -9.776
H 5.98273 -7.11137 -10.4894
O 11.9438 7.97169 13.3102
H 11.5657 7.89692 12.3875
H 12.1701 8.92678 13.5013
O -8.84275 4.77226 7.10752
H -9.52154 5.30509 7.61276
H -9.20837 4.53414 6.20777
O 12.6826 12.5506 7.02676
H 13.156 12.4116 6.15698
H 13.0849 13.3319 7.504
O -9.79048 6.48474 -10.6026
H -10.4369 7.05104 -11.1139
H -9.93511 5.52262 -10.8336
O -1.00751 6.04978 -2.20989
H -0.238907 6.57324 -1.84225
H -0.727889 5.59714 -3.05656
O 5.54075 -9.42269 -2.16999
H 5.68584 -8.5825 -2.69245
H 5.10055 -10.1057 -2.75273
O 13.3943 -0.517925 -3.80745
H 13.7247 -0.330666 -2.88243
H 13.6391 0.242294 -4.40913
O 0.563294 -9.64851 -5.768
H 0.858045 -9.37838 -6.68455
H -0.397828 -9.92323 -5.79442
O -0.781626 -1.16754 14.0518
H -0.387347 -0.28938 14.3226
H -1.08848 -1.66032 14.866
O 14.1075 12.3364 4.43885
H 13.231 12.7913 4.28153
H 14.0482 11.3851 4.13646
O -5.49412 1.0707 -3.62968
H -6.30437 1.08379 -4.21555
H -4.6852 1.29122 -4.1746
O -2.18931 -4.95657 -7.97596
H -3.13321 -4.70591 -7.76115
H -2.17358 -5.86013 -8.40405
O -4.16839 -5.42791 8.99343
H -3.54565 -4.65154 8.89667
H -4.76626 -5.27948 9.78111
O -6.1329 -8.05162 -3.70963
H -5.71334 -8.95042 -3.58288
H -6.75731 -8.08234 -4.49008
O 6.18689 -7.18152 -3.80504
H 5.78131 -7.24611 -4.71677
H 6.47614 -6.23955 -3.63488
O 10.1275 8.68322 -3.67373
H 9.5263 7.9406 -3.37875
H 10.6223 9.04523 -2.88376
O 12.8514 -4.19407 6.31148
H 13.2038 -5.12912 6.27364
H 12.777 -3.82814 5.38386
O 9.49246 -12.2808 9.49667
H 9.21315 -13.1077 9.0087
H 8.68558 -11.7281 9.70485
O 6.7183 10.1474 1.83095
H 6.55357 11.0849 1.52444
H 6.70285 9.53162 1.04323
O 1.83659 4.41692 -7.12111
H 1.58443 5.15592 -7.74578
H 2.07376 3.60109 -7.64846
O -0.679166 -6.79332 -3.10501
H 0.144105 -7.35385 -3.01578
H -1.45031 -7.37317 -3.36777
O -3.42891 8.12867 -5.39446
H -3.3192 7.92221 -4.42222
H -3.2322 7.30965 -5.93339
O 12.765 -0.671403 -11.2559
H 13.3177 -0.184236 -10.5798
H 12.6281 -1.61563 -10.9565
O 12.8941 -4.60982 11.1005
H 11.9457 -4.90992 10.9982
H 13.2805 -5.00421 11.9342
O -14.4128 -1.76563 -5.80611
H -14.4561 -0.772829 -5.91753
H 14.6832 -2.10343 -5.4821
O 3.36971 7.44099 2.12285
H 4.27647 7.03043 2.21853
H 2.68479 6.71839 2.02984
O -8.53428 -12.8679 8.84931
H -7.59744 -13.1799 8.6914
H -8.75225 -12.1305 8.21001
O 5.93817 3.28714 0.76643
H 6.57746 2.93608 1.45053
H 5.57578 4.16828 1.07006
O -9.22131 14.0303 -8.96521
H -9.43005 13.8205 -9.92037
H -8.2461 13.886 -8.79769
O -9.70966 10.9664 -10.6698
H -9.19045 10.6226 -9.88742
H -10.4926 10.3679 -10.8392
O 12.9136 3.86743 9.06811
H 13.7005 3.29365 8.84107
H 12.1882 3.29961 9.45715
O -2.50487 5.99317 -6.8149
H -2.79096 5.24487 -6.21648
H -2.10937 5.61723 -7.65286
O -1.26689 10.7798 -7.49628
H -0.71552 10.4575 -6.72684
H -2.23376 10.7684 -7.24139
O -10.1392 -12.1986 1.06779
H -9.81337 -12.4719 1.9728
H -10.9835 -12.6904 0.854966
O -5.09576 9.23701 -13.2563
H -5.83022 9.87101 -13.0143
H -5.39177 8.29923 -13.075
O -9.1193 -1.3605 -4.63071
H -10.0615 -1.12504 -4.869
H -9.11637 -1.93838 -3.81464
O -5.98376 2.28951 0.51172
H -6.18724 2.38071 1.48651
H -5.93389 1.32027 0.270896
O -13.9441 6.9226 -11.6033
H -14.3233 7.25937 -12.4652
H -13.8325 7.68613 -10.9673
O -13.4337 -13.3806 11.9551
H -13.0113 -14.1175 12.4828
H -12.7412 -12.9411 11.3831
O 12.4032 -10.1008 -13.659
H 12.2951 -9.27286 -14.2093
H 12.0105 -10.8796 -14.1479
O 4.98932 -1.33015 -7.69579
H 5.16216 -0.948701 -6.78775
H 4.02976 -1.1893 -7.93936
O -0.270138 -1.69619 -9.26134
H -0.522163 -2.53341 -9.74659
H -0.355397 -0.914437 -9.87901
O -8.32843 -0.313263 7.05638
H -8.79185 -0.933513 7.6892
H -8.27406 0.598568 7.46324
O -8.17802 -2.88318 1.11658
H -8.32652 -2.1637 0.438179
H -7.55643 -2.54978 1.82538
O -0.217074 -2.835 8.15983
H 0.484043 -2.22785 8.53363
H -0.988641 -2.29051 7.83099
O -7.05395 -13.9513 14.8553
H -6.197 -14.3893 14.5838
H -7.46566 -13.5038 14.0614
O 9.27966 8.37415 -10.4143
H 9.10549 7.55587 -9.86655
H 8.43497 8.6572 -10.8685
O -10.6323 -5.74934 7.46441
H -10.7028 -5.04785 6.75527
H -10.4395 -5.31544 8.34445
O -11.6805 -5.93098 0.616648
H -11.8241 -5.30109 1.3799
H -11.8223 -5.44649 -0.246535
O 10.0442 11.1454 4.06636
H 9.7083 11.368 3.15118
H 10.0028 10.156 4.20507
O 11.2178 -0.448896 9.83218
H 10.8877 -1.30527 10.2292
H 11.6574 -0.636329 8.95377
O 10.1442 8.42533 4.25824
H 10.5277 7.59003 3.8644
H 9.38934 8.18925 4.87011
O -2.22819 9.48407 1.05386
H -2.80457 9.63914 0.251571
H -2.37944 8.55779 1.39891
O -14.4453 -5.03607 10.0532
H -14.6738 -5.93573 9.68122
H -14.8352 -4.94545 10.9695
O -7.15561 14.9771 3.22441
H -7.22325 14.0326 2.90296
H -6.25367 -14.6364 2.9956
O 4.11431 -4.14092 -7.27045
H 4.27817 -3.15837 -7.18281
H 3.7264 -4.33507 -8.17142
O 4.99905 -14.3328 -10.7921
H 4.2697 -14.933 -11.1203
H 4.60458 -13.4681 -10.4813
O 7.56959 11.3236 7.52767
H 8.39892 10.8586 7.83739
H 7.80289 11.9766 6.80718
O -11.1095 -8.61076 12.2948
H -10.8572 -8.85128 11.3576
H -10.4343 -8.98747 12.9289
O -0.89506 2.6832 -13.0323
H -1.08029 3.50746 -13.5673
H -0.555845 1.96262 -13.637
O -14.1139 2.79095 -6.45787
H -13.2949 2.21892 -6.41312
H -14.1813 3.20604 -7.3651
O 11.1956 4.463 -7.00102
H 10.2209 4.3221 -6.82787
H 11.6239 3.58812 -7.22712
O 14.2174 -5.76658 -6.61699
H 14.3396 -6.69527 -6.96701
H 14.0821 -5.79873 -5.62673
O -0.614392 13.281 5.79403
H 0.260349 13.6429 5.47183
H -1.35674 13.6668 5.24629
O 10.9627 5.17039 -12.8241
H 10.0545 4.8457 -12.56
H 11.3373 4.57257 -13.5327
O -9.24475 6.80591 -7.84929
H -8.41251 7.27634 -7.55604
H -9.30196 6.8209 -8.8475
O -12.0312 -3.36057 11.9396
H -11.6274 -4.27535 11.9429
H -11.4694 -2.75021 11.3813
O 10.6646 -6.06418 10.3766
H 11.1755 -6.69984 9.79795
H 10.0218 -5.54432 9.81396
O 7.66344 10.434 -3.95727
H 7.17212 10.4119 -4.82792
H 8.41932 9.77987 -3.98443
O -3.66543 7.79112 12.5013
H -3.50537 8.35265 11.6895
H -3.20284 8.20166 13.2871
O -12.2021 7.79023 14.1511
H -12.4769 8.75162 14.1394
H -13.0167 7.21052 14.1346
O -6.31523 11.4541 -2.23382
H -6.52757 10.6685 -2.81495
H -7.1158 11.686 -1.68135
O 2.18173 14.9287 14.8041
H 2.29659 -14.6818 -14.2534
H 1.56401 -14.4616 14.2836
O 8.2375 5.7216 -14.2241
H 8.51982 4.76557 -14.3031
H 7.33362 5.76819 -13.799
O -11.4692 8.75472 -11.5345
H -11.8161 8.08828 -12.1944
H -12.1675 8.93171 -10.841
O 10.52 1.65336 -3.8636
H 9.79749 2.01905 -3.27689
H 11.3975 1.71243 -3.38785
O -12.0876 -7.47108 -9.53061
H -12.2018 -7.70306 -10.4966
H -12.2748 -8.27751 -8.96977
O 3.43774 9.87585 -11.0541
H 3.85399 9.08964 -10.5974
H 4.14979 10.5326 -11.3023
O -12.1322 -7.64973 -14.0237
H -11.9062 -6.82984 -14.5497
H -12.6596 -7.39162 -13.2143
O 1.13866 -0.721245 -5.21896
H 1.33239 -0.796788 -4.24086
H 0.41759 -1.36819 -5.46685
O -11.6882 -4.78834 3.28227
H -11.3438 -4.95279 4.20651
H -11.474 -3.85071 3.00864
O 0.581538 10.2303 -12.1197
H 0.498467 11.0501 -12.6862
H 1.54715 10.0527 -11.93
O 6.00554 4.61074 6.83876
H 6.3404 5.51729 7.09562
H 5.12374 4.44385 7.27978
O -12.392 13.4698 -13.9197
H -12.2779 13.6335 -14.8996
H -11.5145 13.5946 -13.4566
O 4.57041 -11.2957 4.57494
H 5.19971 -10.5986 4.91843
H 3.7198 -11.2645 5.09973
O 6.39992 14.6736 4.07535
H 7.11483 13.9757 4.11765
H 6.34161 -14.8349 4.95542
O -7.01933 -10.4546 -8.88348
H -6.72629 -11.4062 -8.97579
H -8.01816 -10.4102 -8.90067
O -12.8819 -2.1397 -9.71785
H -12.3445 -2.57636 -10.4393
H -13.8012 -2.53283 -9.70268
O 12.1173 -2.16896 -5.43803
H 12.6417 -1.55377 -4.84939
H 11.1808 -1.82938 -5.52482
O 9.38941 -7.82508 1.21683
H 9.49651 -6.90517 1.59395
H 10.1703 -8.03751 0.629458
O 2.86868 5.84445 14.3508
H 2.0086 6.13958 13.9348
H 2.68495 5.12732 -14.9567
O 11.6209 0.447498 12.1693
H 11.2587 0.27209 11.2539
H 12.6081 0.288299 12.1732
O 9.97472 -7.64347 12.6777
H 10.3771 -7.5117 11.7718
H 9.02495 -7.33076 12.6692
O -7.69241 -5.76243 -14.7855
H -8.23779 -5.44404 14.4189
H -7.10447 -6.51625 14.901
O -12.3022 10.6814 -14.8212
H -13.2538 10.3743 -14.8263
H -12.255 11.6147 -14.4654
O 1.62915 -8.02343 -14.6749
H 2.07966 -7.46801 14.6059
H 1.86365 -7.67284 -13.7682
O 11.2693 7.05383 7.59451
H 10.4381 6.75706 8.0646
H 12.0684 6.66474 8.05276
O -11.3036 6.72247 -13.2926
H -11.6912 7.07194 -14.1456
H -11.0718 5.75605 -13.4032
O -7.95684 6.67167 2.72662
H -8.62781 5.9304 2.71096
H -8.1174 7.24974 3.52661
O -1.98227 -2.53169 -13.5184
H -1.73769 -3.30149 -14.1079
H -2.97711 -2.48233 -13.4302
O -7.55161 6.83812 -12.0361
H -6.71287 6.8449 -11.4917
H -8.34391 6.8003 -11.4272
O -7.13337 3.22521 -10.5715
H -6.57503 3.82221 -11.1475
H -7.51289 2.48563 -11.1273
O -10.4678 -8.81297 9.22175
H -9.71869 -8.44909 8.66823
H -11.2651 -8.97275 8.63981
O -5.57691 -7.69173 14.9827
H -5.57782 -8.1547 -14.1106
H -4.82466 -7.03366 14.9512
O 5.98983 12.8931 1.36008
H 5.4399 13.1991 0.582991
H 5.50176 13.0875 2.21092
O 6.89587 14.402 -2.71225
H 7.71798 14.9696 -2.66803
H 6.12316 14.9038 -2.32357
O -13.1641 0.718954 10.0801
H -13.2388 -0.276927 10.1307
H -12.2203 0.992235 10.2661
O 2.14161 -3.05368 6.3152
H 1.28245 -2.84031 6.78023
H 2.07207 -3.95243 5.88238
O -5.05645 -9.3153 -12.9834
H -5.30073 -10.271 -13.1472
H -5.54513 -8.97972 -12.1781
O 8.70017 12.2849 1.52922
H 7.81741 12.7421 1.42152
H 8.80365 11.5885 0.819094
O 0.562377 -7.40412 8.14868
H 0.497557 -6.43941 7.89362
H 0.0648541 -7.95925 7.48217
O -3.73936 -11.6806 -8.52123
H -4.59439 -12.1526 -8.7359
H -3.02027 -11.9954 -9.14071
O -1.64641 10.887 6.48969
H -1.25722 11.7615 6.20048
H -2.59404 10.8241 6.1767
O 6.98336 -10.7194 12.0807
H 6.39019 -11.2462 12.6894
H 6.82578 -9.74257 12.2249
O 1.39383 -0.828279 9.45105
H 1.732 -0.658159 10.3766
H 2.04011 -0.454108 8.78604
O -3.50383 -1.28204 11.4968
H -2.52168 -1.31348 11.6821
H -3.96464 -0.776965 12.2265
O -0.40359 7.8234 -14.0445
H -0.120238 8.29807 -13.2112
H -1.38769 7.94136 -14.177
O -13.3745 -10.353 10.3662
H -12.7715 -11.1085 10.1101
H -14.1637 -10.7109 10.8651
O 0.424878 9.0555 0.96562
H -0.516893 9.30728 0.742903
H 1.03133 9.82574 0.768421
O -0.0358193 -6.05018 -6.87841
H -0.838409 -5.61131 -7.28235
H 0.198059 -5.59243 -6.02069
O -10.0499 -8.60429 -12.3636
H -10.78 -8.27035 -12.9597
H -9.3771 -9.10442 -12.9087
O -8.63756 -0.722626 -0.788189
H -7.78445 -0.380399 -1.18191
H -9.06576 -0.00193017 -0.24306
O 6.29344 8.68434 -12.2764
H 6.35243 8.4706 -11.3013
H 5.65314 8.05544 -12.7173
O -6.76107 4.61836 -7.97397
H -7.69041 4.24937 -7.96452
H -6.44438 4.69977 -8.91896
O -3.05795 3.73706 -5.3332
H -2.9739 2.81575 -4.95366
H -4.02541 3.97223 -5.42624
O -13.8975 -1.79443 3.44333
H -14.6515 -2.26321 2.98325
H -13.326 -2.46575 3.91517
O 4.30888 3.85069 8.71456
H 4.31988 4.50323 9.47218
H 3.38561 3.48255 8.60513
O -7.46054 0.915063 -5.29765
H -7.08583 0.883447 -6.22421
H -8.08363 0.144522 -5.16364
O -3.24666 3.58901 4.19685
H -3.72805 4.40915 3.88772
H -3.10866 3.63651 5.18611
O 14.9803 -12.6835 -13.4926
H 14.7387 -13.6538 -13.5005
H 14.5235 -12.2201 -14.2519
O -13.5952 1.25933 -12.4161
H -13.4434 2.14552 -11.9785
H -14.0648 1.39454 -13.2886
O 8.13711 -8.30415 3.76585
H 8.83658 -8.97789 4.00404
H 8.30154 -7.96637 2.83914
O 3.96196 -6.63811 -6.18992
H 3.48554 -7.21585 -6.85261
H 4.04711 -5.71149 -6.55605
O 4.88626 -11.7841 13.6531
H 4.39597 -12.3312 12.9747
H 4.63614 -12.0898 14.5717
O -13.477 7.64985 2.84177
H -14.325 7.69879 2.31425
H -13.5468 6.91639 3.51786
O 4.48391 7.63633 7.5063
H 4.25768 8.39385 6.894
H 3.75945 6.94819 7.46696
O -14.9623 4.93725 -5.18373
H -14.634 5.51556 -5.93051
H -14.8424 3.97542 -5.42953
O -7.52804 14.4907 -4.12362
H -7.97249 13.6016 -4.01488
H -7.59035 -14.9782 -3.26626
O 1.1844 3.69068 7.5795
H 0.970524 2.97052 6.91953
H 0.371018 3.89643 8.12357
O 7.7877 -9.04897 7.55479
H 7.44479 -9.64946 8.27711
H 8.70623 -9.34008 7.28742
O -0.193234 13.8971 11.9546
H -0.778747 14.4853 12.5124
H -0.496644 13.9315 11.0024
O 9.37587 -1.75417 -5.79514
H 8.76817 -2.54791 -5.81976
H 8.85236 -0.941383 -5.53973
O -2.26667 -14.493 -2.74541
H -3.21142 -14.8184 -2.70695
H -2.18257 -13.7972 -3.45868
O 1.81265 -3.76596 -14.4801
H 1.57666 -3.53944 14.5547
H 2.20703 -4.68424 -14.446
O 3.05506 1.3258 14.7742
H 3.8671 1.34076 14.1909
H 3.12494 0.568445 -14.5563
O 7.75737 6.28052 12.944
H 6.76765 6.15627 12.8737
H 8.01943 6.33017 13.9078
O 13.4859 -2.75165 8.53779
H 13.3267 -3.19086 7.65366
H 13.0553 -3.29195 9.26068
O 2.7957 -8.04787 9.51611
H 2.75136 -8.95952 9.92458
H 1.91982 -7.83328 9.08402
O -8.05161 -9.36209 0.567596
H -7.11271 -9.18806 0.864409
H -8.61916 -9.57269 1.3635
O 0.4273 1.30742 14.3368
H 0.324437 1.84614 13.5006
H 1.37646 1.3532 14.6481
O -7.33987 8.71537 13.041
H -8.23996 8.68388 12.6065
H -7.31803 8.07559 13.8092
O -3.88894 -9.02307 3.50807
H -2.93247 -9.08286 3.22255
H -3.97267 -9.32414 4.45795
O 10.0652 -10.8152 4.37438
H 9.57186 -11.6791 4.27246
H 10.4238 -10.744 5.3051
O 14.7336 2.40062 5.71118
H 13.9191 2.56593 5.15512
H 14.4609 2.21938 6.65603
O -13.0595 -7.51231 -6.5584
H -12.7004 -8.32146 -7.0234
H -12.3558 -6.80234 -6.53358
O -12.6871 12.3143 10.6042
H -13.3383 12.6057 11.3048
H -13.1853 11.9626 9.81169
O -14.2276 6.20714 -2.86714
H -13.3979 6.68254 -3.15945
H -14.6728 5.79457 -3.6618
O 11.1064 -10.8151 1.61851
H 10.2788 -10.7364 1.06269
H 10.8657 -10.7445 2.5865
O 0.475439 -12.9508 14.152
H 0.211618 -12.1825 14.7351
H 0.714202 -12.6119 13.242
O 5.65512 4.26403 -5.42944
H 5.53579 5.25607 -5.4689
H 4.76066 3.81885 -5.47027
O -5.6268 -9.95356 13.2217
H -6.37842 -10.5778 13.009
H -5.98358 -9.15569 13.7076
O -9.90223 1.15689 0.371558
H -10.3029 1.19368 1.28699
H -10.1262 1.99589 -0.124275
O 14.8305 14.9875 -10.4854
H 14.6064 -14.0514 -10.7396
H 14.0284 14.5529 -10.0759
O 5.86568 0.669065 3.92061
H 6.03777 -0.156241 3.38286
H 5.0598 0.529921 4.49605
O 1.33533 -7.03316 12.7124
H 0.615022 -7.60784 12.324
H 2.21811 -7.29712 12.3238
O -11.6871 -5.42415 -2.30159
H -12.3314 -4.98581 -2.92816
H -11.2054 -6.15895 -2.77906
O -12.9196 10.1345 3.35205
H -13.6022 10.6019 2.79049
H -13.0113 9.14572 3.23409
O -7.21228 -2.10796 -10.8439
H -7.39516 -1.58378 -11.6756
H -6.24514 -2.02521 -10.6037
O -12.7236 8.85801 -3.37497
H -12.6765 9.79093 -3.01808
H -12.2958 8.82467 -4.27815
O 14.1965 -14.444 11.023
H 14.9775 -14.0587 11.5145
H 13.3651 -13.9515 11.28
O -13.8347 -3.55411 7.11547
H -14.0994 -3.95667 7.99171
H -14.3921 -3.94906 6.38525
O -7.14907 12.2203 2.46501
H -6.40768 11.5515 2.52032
H -7.87299 11.8671 1.87245
O 1.89307 -3.88759 10.4206
H 2.67958 -3.66768 10.9977
H 1.94133 -3.35634 9.57482
O -14.2535 3.48452 -2.04047
H -13.4717 3.09737 -2.52918
H -14.0768 4.44789 -1.83893
O -3.22881 -12.9114 -14.8924
H -3.53879 -11.9611 -14.8627
H -3.54617 -13.3911 -14.0744
O -3.7431 -2.52143 8.9113
H -3.59575 -2.2155 9.85185
H -4.7171 -2.46653 8.69168
O -12.4175 5.25713 11.9594
H -11.7865 4.9427 11.2503
H -12.8135 6.13438 11.6881
O 13.2908 -2.00181 12.3403
H 13.588 -2.64601 11.6356
H 12.3087 -2.10795 12.496
O 13.0277 -14.7485 -1.74527
H 13.676 14.6966 -2.28735
H 12.9423 -13.8321 -2.1362
O 8.47686 -2.79769 13.6092
H 7.77673 -3.16164 12.9949
H 9.20917 -3.47024 13.7155
O 12.9082 -12.7365 7.05823
H 12.2012 -13.1142 6.46043
H 13.4074 -12.0192 6.57217
O 8.90091 1.62553 -6.02948
H 8.07877 1.55495 -5.46464
H 9.71075 1.60613 -5.44321
O -10.7083 -10.8695 -6.3996
H -10.7858 -10.1853 -5.67447
H -10.9062 -11.7755 -6.02558
O 6.90804 12.5553 12.9526
H 6.66843 11.6543 13.3143
H 6.07661 13.0972 12.8301
O -14.956 10.841 0.0885313
H -14.5462 11.6539 -0.325208
H 14.9536 10.1171 -0.597692
O 4.20148 -12.3436 -13.2025
H 3.39772 -12.7289 -12.7492
H 4.81494 -13.0834 -13.4787
O 5.24752 -3.43221 5.06419
H 4.87623 -4.11185 4.43161
H 6.22787 -3.32407 4.89945
O -4.12798 -4.19106 -11.6458
H -4.07788 -5.18977 -11.643
H -4.21809 -3.8592 -10.7068
O 4.45592 5.4241 11.1733
H 3.63537 5.21257 11.7042
H 5.24672 4.97461 11.5886
O 6.41777 -3.27883 -4.69733
H 6.6205 -3.94231 -5.41748
H 5.55043 -3.51622 -4.25997
O 10.0347 14.4183 -6.57714
H 9.89974 13.8101 -5.79498
H 9.43366 -14.767 -6.48928
O -0.285336 4.94474 -4.58133
H -1.0583 5.32062 -5.09237
H 0.121451 4.19165 -5.09835
O 8.31069 -5.01617 -14.2146
H 8.73395 -4.12717 -14.3891
H 8.93606 -5.74402 -14.4958
O -8.08524 10.1695 -8.24657
H -7.36046 10.8578 -8.27645
H -7.68599 9.2732 -8.05363
O 7.60275 2.34843 2.70294
H 6.95562 1.67121 3.05299
H 7.44728 3.22476 3.15881
O 11.6828 9.26267 -11.4395
H 10.8167 8.84948 -11.1585
H 12.0105 8.81611 -12.2721
O 1.70054 6.03467 -9.666
H 2.50564 5.87761 -10.2379
H 0.906471 5.58834 -10.0785
O -6.91828 -12.4399 12.3384
H -7.66844 -11.9423 11.903
H -6.53972 -13.1036 11.6933
O -7.29706 12.5243 7.51359
H -7.12107 12.6667 8.48759
H -7.80105 13.3068 7.14808
O 4.88046 10.0136 10.0757
H 5.87072 10.087 10.1936
H 4.67679 9.72304 9.14079
O -14.9827 4.02786 -8.82024
H -14.7461 4.83588 -8.28076
H 14.0725 4.13102 -9.18703
O -4.80864 -2.02209 -13.5701
H -4.92068 -2.8591 -13.0345
H -5.41007 -1.31076 -13.2065
O -13.9589 14.9379 0.457317
H -14.9156 -14.7807 0.586012
H -13.9138 14.0716 -0.0399833
O -5.58334 7.92863 8.23265
H -4.62791 7.93466 8.52769
H -5.77438 7.08027 7.73898
O 14.3234 -3.0018 -9.90672
H 14.3312 -3.97172 -10.1499
H 13.7035 -2.85642 -9.13572
O -11.0445 -2.35442 2.53017
H -10.6745 -1.82831 3.29587
H -10.3935 -2.341 1.7712
O 2.79778 11.3189 0.573945
H 3.62533 11.8587 0.727711
H 2.11866 11.878 0.0984261
O 14.5558 -8.35217 3.79129
H 13.9967 -8.67028 3.02568
H -14.4936 -8.17138 3.47217
O -3.15208 -10.045 14.7928
H -3.24024 -9.47151 -14.3725
H -3.92758 -9.88009 14.1834
O 0.62511 9.76055 -5.7957
H 0.350848 8.94252 -6.3012
H 0.930227 9.49973 -4.87984
O -0.144946 -8.40403 10.5659
H -1.07386 -8.12341 10.8074
H 0.119017 -7.97484 9.70218
O 0.0338241 0.77803 -10.664
H 1.01146 0.972769 -10.5851
H -0.375465 1.39404 -11.337
O 3.44741 12.6277 8.43446
H 3.15896 12.5691 9.39012
H 4.04631 11.8564 8.2192
O 13.5646 0.639059 -13.6513
H 13.7938 0.292824 -12.7416
H 13.6579 1.6346 -13.6623
O -11.3557 6.10874 -3.28679
H -10.5024 6.32785 -2.81387
H -11.2282 6.21849 -4.2725
O 14.3492 1.4657 -10.2687
H -14.8632 0.826438 -10.2186
H 14.4832 2.20004 -9.60328
O 0.077606 -14.9784 -6.49277
H -0.854246 -14.6254 -6.40928
H 0.718952 -14.3244 -6.09167
O -11.3447 1.87544 6.29355
H -12.0027 2.47094 6.75432
H -11.8327 1.13965 5.82414
O -1.05513 -2.73767 -6.5394
H -0.60117 -3.19774 -5.77639
H -1.70555 -3.36504 -6.96752
O -11.2763 -14.9535 13.4505
H -10.7763 14.6329 12.6789
H -10.6894 -14.3015 13.9304
O 8.5647 -0.728214 7.02807
H 8.08034 0.123471 6.82817
H 9.22633 -0.913776 6.30161
O 0.268127 -10.7307 12.1338
H -0.122157 -9.95376 11.6398
H 0.144777 -10.5965 13.117
O -14.3315 -7.38209 -4.16283
H -14.9352 -8.09072 -4.52783
H -13.6163 -7.17693 -4.83099
O -10.7993 1.88336 2.65897
H -11.336 1.15763 3.08925
H -9.97301 2.05042 3.19686
O -9.05492 -2.92416 8.02896
H -9.91959 -2.87986 7.52865
H -9.19455 -3.40644 8.89373
O 12.1104 -6.30205 2.96088
H 11.5462 -6.68703 3.69124
H 12.7178 -7.00998 2.60061
O -11.1281 6.25728 8.28048
H -11.6557 6.35376 7.43651
H -10.9883 7.15831 8.69103
O -12.5645 -9.99429 -8.23987
H -13.4816 -10.3874 -8.30527
H -11.9714 -10.6154 -7.72749
O -1.18807 -8.8434 2.7499
H -0.543358 -9.36125 3.31213
H -0.991719 -9.00526 1.78285
O 9.24713 -10.3746 13.5367
H 8.44014 -10.7196 13.0574
H 9.39116 -9.41419 13.2983
O 0.732483 -11.66 -9.3632
H 1.36545 -11.0705 -8.86149
H 0.341329 -12.3364 -8.73918
O -1.6104 11.6275 2.44878
H -1.94131 10.7046 2.25184
H -0.758032 11.5721 2.96871
O 10.3632 -2.67689 11.1873
H 9.60583 -3.2383 10.8538
H 10.1 -2.23864 12.0467
O 10.449 3.31899 12.7336
H 10.9981 2.48343 12.7164
H 9.74783 3.27181 12.0223
O -2.83202 8.75372 14.8045
H -2.60801 9.64915 14.4199
H -3.50003 8.86471 -14.4394
O -4.25179 6.40161 -13.6495
H -4.03184 7.13307 -14.2949
H -4.79735 5.70241 -14.1115
O 5.61558 6.08767 2.14377
H 6.4907 6.55712 2.02662
H 5.61995 5.58533 3.00839
O 11.6678 8.57601 0.804515
H 11.5927 9.19175 0.0201944
H 10.9238 8.76165 1.44637
O -2.10593 -8.39032 -12.7251
H -1.64773 -8.92887 -12.018
H -3.06608 -8.26234 -12.4768
O -6.01356 -2.96039 6.15332
H -5.43078 -2.27481 5.71712
H -6.22559 -2.67218 7.08708
O 3.77211 -8.39328 6.79382
H 3.89639 -8.28896 7.78053
H 4.66511 -8.39585 6.34384
O 9.442 -14.9831 -10.0401
H 9.40314 -14.2968 -9.31398
H 10.0197 14.2345 -9.74784
O -2.97423 7.89254 -2.6551
H -2.46529 7.16701 -2.19194
H -2.94936 8.72381 -2.09986
O -14.8565 11.1184 -4.17982
H -13.9498 11.4441 -4.44755
H 14.6333 10.7938 -4.98888
O -14.8488 -10.8746 -9.10215
H -14.6708 -10.8564 -10.086
H 14.5483 -11.6573 -8.88327
O 8.63302 4.34763 -6.35032
H 7.93756 4.76007 -5.76197
H 8.55976 3.35139 -6.30504
O 3.02161 9.1081 5.52363
H 2.63879 8.18729 5.44959
H 3.28726 9.4326 4.61585
O 11.6164 -7.63416 6.31724
H 10.9251 -7.12419 5.80537
H 12.5179 -7.23611 6.14751
O 6.05098 -9.08241 5.45114
H 6.50759 -8.77 4.61818
H 6.72971 -9.216 6.17323
O 14.6047 1.79099 8.51808
H 14.1632 0.983617 8.1267
H -14.6349 1.50425 9.12635
O 11.1358 1.724 -10.8356
H 10.5521 1.75146 -11.647
H 11.7464 0.934057 -10.8908
O -8.31948 12.4833 -0.585026
H -8.56869 12.0572 -1.45469
H -9.09637 12.4382 0.0429379
O 13.7811 9.97162 -9.72694
H 13.3535 9.55413 -10.5287
H 13.0715 10.3101 -9.10903
O -3.79613 -3.71234 -3.1205
H -3.52243 -3.285 -3.98212
H -4.177 -4.61852 -3.30411
O 8.81777 -13.6403 -2.9103
H 9.31312 -14.3287 -2.38049
H 9.45131 -12.9226 -3.19923
O -13.1997 -7.07735 7.16048
H -12.3634 -6.57038 7.36926
H -12.9814 -8.04598 7.04199
O 6.90488 12.5398 9.85648
H 7.39059 12.0677 10.5921
H 7.27267 12.2483 8.97348
O -8.21417 1.67097 4.99205
H -8.40072 0.766213 5.37485
H -8.89332 2.32242 5.33013
O 9.68059 -9.15643 10.1296
H 10.2542 -9.58148 9.42947
H 9.69553 -9.7165 10.9579
O 9.98989 3.04347 -1.45772
H 10.5264 3.07969 -0.614669
H 10.0692 3.9153 -1.94098
O 4.5548 -2.96229 -13.7434
H 5.10054 -3.75185 -13.4628
H 3.64484 -3.26846 -14.0229
O 7.23138 -3.70131 -9.22676
H 6.63612 -3.24244 -9.88633
H 7.88685 -3.0437 -8.85551
O -14.5896 6.44687 14.459
H 14.838 6.83592 -14.7833
H -14.666 5.44997 14.4758
O 3.66138 1.30119 -5.23709
H 4.291 0.53091 -5.33797
H 3.48655 1.4638 -4.26605
O -3.48271 1.49799 6.39502
H -4.34456 1.16863 6.7806
H -3.39524 2.47957 6.56461
O 11.0929 -5.29104 -2.55173
H 11.745 -4.54738 -2.40448
H 10.1824 -4.90936 -2.71064
O 6.01446 -2.27727 -11.1978
H 5.87584 -2.68625 -12.0997
H 5.17842 -1.80891 -10.9122
O 12.3058 14.6583 1.08944
H 11.3074 14.7093 1.11081
H 12.6551 -14.7175 0.373056
O 1.38231 11.8444 -2.26361
H 1.5914 10.868 -2.3165
H 0.391949 11.976 -2.30606
O 14.7004 8.35378 -13.4003
H 13.7402 8.07602 -13.3731
H 14.7576 9.3426 -13.5377
O -4.97721 13.6648 -2.18311
H -5.50217 12.8227 -2.30624
H -5.36385 14.1909 -1.42567
O 2.32774 12.4088 -13.8089
H 2.49559 13.2446 -14.3316
H 3.10326 11.7868 -13.9167
O -11.3873 -5.25079 14.5852
H -12.2201 -4.70853 14.4745
H -10.6749 -4.8948 13.9804
O 0.349117 -11.1437 4.53143
H -0.383384 -11.4798 5.12336
H 1.15362 -10.9297 5.08543
O -11.8859 14.2301 -4.34792
H -11.3641 14.5761 -5.12759
H -11.6565 14.7602 -3.53166
O 0.405631 -1.21554 -12.7743
H -0.536137 -1.54847 -12.8207
H 0.464668 -0.474763 -12.1052
O 1.56855 -8.68261 -3.54149
H 1.12204 -8.99715 -4.37912
H 2.31439 -9.30605 -3.30706
O -3.10027 -6.60132 6.41326
H -3.32964 -6.37597 7.36011
H -2.13704 -6.39214 6.24481
O 13.206 4.60458 3.28316
H 13.5862 5.41664 2.84045
H 12.6893 4.87828 4.09431
O -11.7773 -1.76896 14.3824
H -12.0186 -2.40694 13.6512
H -12.4092 -0.994075 14.3706
O -11.1297 -3.57476 -11.6132
H -10.2647 -3.76497 -12.0774
H -11.7775 -3.17914 -12.2642
O 11.1455 0.375444 5.66863
H 11.8539 0.891803 5.18749
H 10.6841 -0.235983 5.02584
O 2.63119 0.970051 -10.7448
H 3.47745 1.11318 -10.2317
H 2.8158 0.387515 -11.5363
O 13.091 -12.5237 -3.5608
H 12.1695 -12.2771 -3.26076
H 13.0321 -13.136 -4.34919
O -11.8554 -10.2315 -2.18993
H -12.328 -10.9323 -2.72429
H -11.0123 -10.6132 -1.81132
O 10.9501 -12.0476 -14.7637
H 10.3908 -11.5781 14.5329
H 10.4103 -12.7686 -14.3293
O 12.637 8.47062 5.74496
H 12.2057 8.0109 6.52118
H 11.931 8.86574 5.15727
O 7.84452 8.27451 5.95894
H 7.73433 7.66191 6.74157
H 7.3292 9.1163 6.11943
O -13.8303 12.7471 -1.51066
H -12.9131 12.3494 -1.53264
H -13.9665 13.3159 -2.32175
O 6.45054 3.0804 -13.3709
H 6.48949 2.62769 -12.4802
H 7.33541 2.99267 -13.8284
O -6.43502 -11.4841 -13.5917
H -6.82916 -11.7873 -12.7241
H -6.67858 -12.1323 -14.3131
O 13.5203 -5.5962 -11.6978
H 13.5765 -6.29825 -10.988
H 12.7518 -5.79712 -12.3053
O -1.21325 -10.7579 -2.37504
H -1.53241 -9.9089 -2.79604
H -0.378567 -10.5785 -1.85441
O -10.3252 -2.49419 -7.43859
H -11.0761 -3.03989 -7.81029
H -9.46484 -2.99156 -7.54992
O -14.7189 14.3535 -13.1277
H -14.9724 14.3722 -12.1606
H -13.827 13.9131 -13.23
O 5.24812 -6.81232 8.98377
H 4.38728 -7.15854 9.35662
H 5.06303 -6.0302 8.38883
O -10.1862 12.0866 1.28601
H -10.5964 11.1756 1.24552
H -10.8752 12.7498 1.57827
O 8.40114 2.96467 11.0487
H 7.71147 3.05206 11.7675
H 7.96498 2.6536 10.2043
O 0.895107 2.01207 5.56583
H 0.359701 2.39495 4.81306
H 0.434309 1.1997 5.92313
O -7.04232 -0.0722523 13.7694
H -6.07108 0.0081446 13.9933
H -7.44132 0.840659 13.6838
O -14.6575 -5.41283 -0.628026
H 14.8072 -6.23612 -0.866568
H 14.8849 -4.61451 -1.04199
O -14.4544 -4.32484 2.07789
H -14.4725 -4.49527 1.09273
H -13.5525 -4.55978 2.44025
O -11.738 5.37779 0.393565
H -11.6998 6.23447 -0.120793
H -11.4054 4.62941 -0.180225
O 11.9261 -8.07088 14.5352
H 11.2034 -8.00445 13.8472