2611
Atoms. Timestep: 8000000
O 5.61134 -0.453728 -3.00755
H 4.90652 -1.1498 -2.87086
H 5.32361 0.174513 -3.73039
O -14.8753 2.70118 12.3609
H -14.6549 3.31182 13.1215
H 14.7232 3.21171 11.6551
O -11.9042 -11.3746 1.08441
H -12.1198 -10.4461 1.38647
H -11.0373 -11.6642 1.49001
O 6.43726 6.3827 14.159
H 5.69466 5.72032 14.0602
H 7.30843 5.89777 14.2356
O -3.23592 1.81003 3.52264
H -2.49308 1.58103 4.15171
H -3.98402 1.15662 3.63834
O 11.7932 7.44476 -13.1778
H 11.0842 7.27634 -13.8627
H 12.0759 6.57646 -12.7703
O 1.01282 -0.600336 -9.40159
H 0.245397 -0.00285179 -9.63408
H 0.943018 -0.874645 -8.4425
O -3.71918 -6.08162 -12.7762
H -3.67855 -5.08805 -12.6706
H -3.06239 -6.36991 -13.4729
O 10.7632 -0.848778 -14.4488
H 11.7269 -1.11539 -14.454
H 10.688 0.133104 -14.6227
O 9.85873 7.31222 5.80445
H 9.44594 6.85838 5.01476
H 9.49401 8.23992 5.88401
O -14.0951 -14.2432 5.85505
H -13.1417 -14.3909 6.11813
H -14.1284 -13.7514 4.98501
O 12.1289 9.88264 1.41165
H 12.5218 10.7175 1.0261
H 11.7303 10.0842 2.30632
O 6.00863 12.2034 -8.1463
H 5.36169 11.5963 -8.60762
H 6.4788 12.7673 -8.82526
O 8.08151 -4.78192 4.94465
H 8.11171 -5.35948 5.76042
H 7.13 -4.63998 4.67179
O -10.1656 -11.0811 -11.0363
H -10.4545 -10.3802 -10.3843
H -9.17021 -11.1729 -11.0077
O -7.78351 -5.2621 13.9056
H -8.26372 -4.81296 13.1522
H -7.66485 -6.23222 13.694
O 12.5654 5.13666 -0.0636671
H 13.1992 5.29518 -0.820714
H 12.0673 5.98039 0.13625
O -14.6558 3.49313 -14.3308
H -13.7484 3.40595 -14.7419
H -14.5971 4.06285 -13.5111
O -11.1983 -8.37118 7.85657
H -10.9503 -7.49138 8.26201
H -10.9871 -8.35921 6.87923
O 9.69267 -5.41742 14.2553
H 10.5601 -5.16374 14.6832
H 9.85945 -6.09778 13.5417
O -11.3253 -0.217892 -2.65842
H -10.5433 0.333404 -2.94913
H -12.1545 0.340598 -2.68314
O -6.40661 -1.73716 -12.3368
H -5.96907 -2.50019 -12.8125
H -6.53701 -1.97517 -11.3743
O -11.3775 12.6555 -14.4779
H -11.5385 13.5682 -14.1024
H -10.4813 12.6306 -14.9208
O -12.0352 11.28 -0.196145
H -11.2092 10.7164 -0.201417
H -11.7791 12.2464 -0.178333
O -0.326925 11.1485 -0.440401
H -0.714706 10.5615 0.270233
H 0.669971 11.0707 -0.42974
O -6.8525 -3.01163 2.87003
H -6.69555 -3.26276 3.82516
H -7.27449 -3.77973 2.38845
O -0.0142341 7.53465 4.7529
H 0.674287 7.36438 4.04797
H -0.741716 6.85243 4.67995
O 5.59305 -3.96493 -6.60438
H 5.8929 -4.7582 -6.07448
H 6.36891 -3.35239 -6.75541
O -3.44807 10.0902 5.98141
H -3.36502 9.4327 6.73027
H -4.02972 9.70664 5.26409
O -14.5696 0.113564 5.9369
H 14.7615 0.459183 5.38457
H -13.7363 0.618438 5.71178
O 5.35731 10.9923 -5.46921
H 5.22377 11.8187 -4.92236
H 5.56105 11.2473 -6.41442
O -10.418 3.30815 4.2033
H -9.98247 3.65787 5.03277
H -10.0703 3.80627 3.40894
O 1.73815 10.1468 -7.09419
H 1.89279 10.6947 -6.27202
H 1.43525 10.7416 -7.83886
O -2.92262 -2.70128 -7.70101
H -2.62155 -1.754 -7.81051
H -2.25463 -3.20178 -7.15031
O -7.09844 -5.405 1.41195
H -7.48708 -4.91398 0.632318
H -7.54634 -6.29446 1.50256
O -13.7657 -4.54864 -9.44878
H -14.0941 -5.08649 -10.2252
H -12.7872 -4.71053 -9.32116
O -3.04138 -12.6032 -8.57595
H -3.98435 -12.3169 -8.74568
H -3.04019 -13.4298 -8.01326
O -14.2599 5.18982 -7.76287
H -13.5467 5.76754 -7.36583
H -14.9854 5.76653 -8.13833
O -2.79906 9.0966 14.122
H -1.9575 9.6119 14.2839
H -2.66183 8.14229 14.3873
O -9.04529 -7.56806 -10.256
H -8.9662 -6.79961 -10.891
H -8.15107 -7.7595 -9.85138
O -1.1289 -11.9612 -0.0674534
H -1.92727 -11.3982 0.145875
H -0.592275 -12.1072 0.763636
O -2.08466 12.5726 6.2098
H -2.69471 12.0036 5.65834
H -1.26836 12.0482 6.45211
O 4.27852 6.90484 1.20158
H 3.40738 7.39485 1.17005
H 4.65823 6.84032 0.278737
O -7.10979 14.8582 9.32621
H -6.37501 14.4997 9.90202
H -7.91167 14.2655 9.40161
O -8.66165 -14.353 -5.83623
H -9.22731 -13.5361 -5.94929
H -9.03601 -14.9185 -5.10142
O 13.0442 -2.21413 9.02076
H 12.3203 -1.72952 8.52971
H 12.8713 -2.1635 10.0044
O -3.33833 14.3135 7.92902
H -3.86254 13.736 8.55484
H -2.88163 13.7395 7.24933
O 1.26393 -5.06803 14.5352
H 1.24425 -4.2858 -14.9319
H 2.20938 -5.2621 14.2736
O 13.9178 -13.795 -13.3387
H 14.2682 -14.5827 -12.8321
H 14.626 -13.4547 -13.9573
O -5.58657 -12.1415 -8.20038
H -5.76658 -12.7946 -7.46483
H -5.33844 -11.2563 -7.80685
O -13.857 -9.56479 6.51886
H -13.4148 -10.3505 6.95125
H -14.3395 -9.03029 7.2128
O -13.8876 -12.5616 3.54013
H -14.7355 -12.3865 3.03969
H -13.3602 -13.2665 3.06588
O -10.6432 3.30324 -2.122
H -10.4886 4.27395 -2.30584
H -9.9444 2.76037 -2.58775
O -13.1766 10.2887 -8.6802
H -12.5206 10.7938 -9.24098
H -14.1033 10.4624 -9.01346
O 11.4161 5.94129 3.72215
H 11.7314 6.63343 4.37142
H 11.4469 6.31524 2.79523
O 8.92387 9.52732 14.092
H 8.71915 9.26085 13.1502
H 9.44458 10.381 14.0912
O 5.41749 12.4987 6.75141
H 6.11496 13.2142 6.71305
H 5.66552 11.7577 6.1274
O 0.391155 -0.467299 5.24922
H 1.15052 0.0765698 4.89209
H 0.592236 -1.43952 5.12949
O -14.0655 -10.9776 -3.48352
H -14.701 -11.451 -2.87359
H -13.2124 -10.7909 -2.99623
O 14.7012 -4.45665 -6.95913
H 13.708 -4.34103 -6.97058
H -15.0049 -4.12953 -7.82273
O 1.5593 -9.8658 14.4184
H 0.99907 -9.11314 14.0726
H 2.01488 -10.321 13.6535
O 7.59512 2.85398 8.96715
H 8.45535 3.16488 9.37127
H 7.78906 2.24454 8.19842
O 5.83172 -9.23124 5.24983
H 6.10737 -8.67429 4.46637
H 4.88419 -9.52794 5.13095
O -7.89838 -0.191786 -8.75784
H -6.9835 -0.388096 -9.11057
H -7.91805 0.733384 -8.37883
O -9.83747 12.9942 -8.40527
H -9.45173 13.9159 -8.44601
H -9.1793 12.3406 -8.77894
O -7.55167 12.4319 -2.91005
H -7.51416 13.1341 -2.19914
H -8.3602 11.86 -2.77133
O 14.7701 -12.6985 7.75521
H -15.0201 -13.3835 7.09103
H -14.5652 -12.4834 8.37538
O 6.48755 -1.06243 6.12627
H 7.15559 -0.461346 6.56491
H 5.56617 -0.706084 6.28135
O -12.7834 2.9804 -9.39294
H -13.4945 3.66034 -9.21395
H -12.7462 2.78725 -10.3734
O 10.5364 12.5178 -0.45646
H 10.4561 12.6637 0.52955
H 9.90983 13.1318 -0.936431
O 2.00735 14.9126 13.139
H 1.27381 -14.682 13.6045
H 1.83307 14.907 12.1543
O 11.1168 6.12981 8.04861
H 10.7164 6.68878 7.32251
H 10.9426 6.55958 8.93457
O 9.09461 -10.3725 -8.22636
H 8.83634 -9.54826 -8.73031
H 10.0915 -10.4431 -8.19146
O -1.30859 10.8837 -4.73276
H -1.96034 11.5555 -4.38077
H -0.920263 10.3652 -3.97098
O 3.7122 -2.39634 -2.55364
H 4.08118 -2.72712 -1.68507
H 2.8103 -2.79975 -2.70788
O 9.91593 -3.41633 1.17505
H 10.7509 -3.71974 0.715974
H 9.57112 -4.15089 1.75943
O -1.87591 -3.1986 -11.2414
H -1.1976 -2.57266 -11.6262
H -1.42543 -3.83326 -10.6135
O 7.25815 -12.832 7.8918
H 7.78454 -12.2671 7.25633
H 7.73147 -12.8733 8.7717
O 10.992 4.70031 11.9876
H 10.519 4.0978 11.3447
H 10.5159 4.68905 12.8669
O -11.9683 6.01171 9.20706
H -11.2293 6.6853 9.21686
H -11.9289 5.48597 8.35734
O 4.56668 14.4159 -7.25875
H 5.07302 13.6645 -7.68181
H 4.71708 14.4043 -6.27021
O -11.7402 13.5999 9.63654
H -12.5625 13.7262 9.08173
H -11.3191 14.489 9.8156
O -14.993 -7.40081 -1.44181
H -14.3786 -6.63447 -1.25418
H 15.0122 -7.52595 -2.43033
O 9.00155 13.6806 -2.24656
H 9.59621 13.0382 -2.73003
H 9.1577 14.6053 -2.59369
O 13.9787 5.10381 -10.7099
H 13.7011 4.39377 -10.0628
H 13.3167 5.15036 -11.4579
O -1.11146 7.11144 -4.05095
H -1.03919 6.67549 -3.1539
H -0.365383 7.76766 -4.16371
O -3.97545 -9.0826 -14.973
H -4.95188 -9.01617 -14.7677
H -3.61771 -9.94542 -14.6159
O 7.5592 -12.671 -14.3873
H 6.82891 -11.988 -14.4032
H 7.2738 -13.4763 -14.9069
O 0.506564 -7.49203 11.1503
H -0.0804573 -8.16846 10.7055
H 1.4511 -7.8204 11.1524
O 7.6483 6.68702 -12.6318
H 7.46519 7.56682 -13.0704
H 7.28156 6.69563 -11.7015
O 13.1231 -6.0577 12.1693
H 12.6551 -5.34133 11.6519
H 14.081 -5.80233 12.3005
O -2.83984 -6.16952 -6.43513
H -2.7121 -5.19227 -6.26593
H -2.17691 -6.47922 -7.11674
O 4.7725 4.6466 13.0063
H 4.14292 5.38428 12.7625
H 5.44271 4.52481 12.2742
O -8.75844 12.7465 14.4368
H -8.47563 11.9349 13.9256
H -8.22469 12.8122 -14.8099
O 7.94029 10.0617 6.25269
H 7.14225 9.68484 6.72285
H 7.81516 9.97784 5.26412
O -3.20029 11.5827 -7.24448
H -3.50138 11.9652 -6.37096
H -2.36982 11.0437 -7.1038
O -5.4034 11.3577 -9.30878
H -4.60446 11.4788 -8.71971
H -5.99427 12.1613 -9.23844
O -12.7485 0.0140531 -8.03481
H -11.8588 0.251175 -7.64465
H -13.1234 0.806514 -8.5159
O 1.12898 14.3858 -4.17514
H 1.36888 14.9911 -3.41613
H 0.538541 13.6509 -3.84162
O -12.2241 -2.33653 -0.730138
H -12.179 -1.5889 -1.3927
H -11.6378 -3.0873 -1.03434
O -4.30488 -14.3171 2.74749
H -3.50528 -14.002 3.25869
H -4.63206 14.912 3.13772
O 4.14163 10.755 -9.46658
H 3.17512 10.9694 -9.32576
H 4.22643 9.83609 -9.85191
O -13.6512 1.03112 -3.33284
H -13.7856 0.519249 -4.18131
H -13.6522 2.01125 -3.53116
O -6.03306 5.48391 -14.6306
H -7.02803 5.39321 -14.6727
H -5.61153 4.8225 14.8387
O -7.99659 -8.93317 2.2363
H -8.32391 -9.18595 1.32584
H -8.50955 -9.44158 2.92795
O 6.02183 9.19517 7.93362
H 5.80561 8.4197 8.5268
H 5.27661 9.33387 7.28141
O 9.19864 4.64104 -12.1336
H 8.67835 5.49078 -12.2185
H 8.58412 3.89942 -11.8646
O 13.0737 5.8857 -5.17706
H 13.4564 4.97416 -5.3273
H 12.5019 5.87603 -4.35676
O 11.1041 13.9668 -12.5138
H 11.797 13.2462 -12.5375
H 11.039 14.3963 -13.4145
O -5.7333 0.896019 4.65693
H -6.71181 0.894386 4.86307
H -5.21478 0.754761 5.50023
O 5.04349 7.8325 11.0206
H 4.31081 7.36173 11.5121
H 4.96344 8.8184 11.1675
O -6.22468 -12.7295 7.71811
H -6.33866 -13.1249 6.8067
H -6.45061 -13.4156 8.40967
O 14.1845 8.38931 -4.98586
H 13.3763 8.95905 -5.13475
H 13.9611 7.43524 -5.18543
O -11.7435 -3.45075 9.01031
H -12.6133 -3.10206 9.35914
H -11.8605 -3.75181 8.06392
O -15.0114 -9.69633 10.3103
H 14.6103 -9.41716 11.1488
H 14.9126 -9.01808 9.59446
O 3.21389 -14.8331 -10.8372
H 2.48509 -14.8285 -10.1525
H 3.18035 -13.9847 -11.3655
O -0.861959 10.6934 11.6111
H -1.30041 10.345 10.7827
H -1.07514 11.6646 11.7179
O 4.336 8.4833 -13.4266
H 3.61227 8.35304 -14.1043
H 5.19001 8.71649 -13.8917
O 12.096 -5.63558 -9.06998
H 11.7468 -5.28351 -9.93836
H 11.8224 -5.02353 -8.328
O 4.87488 2.9044 7.86414
H 4.84912 3.5001 7.06136
H 5.72333 3.06232 8.36929
O 10.5902 11.5891 13.759
H 10.3267 12.5418 13.6075
H 11.2735 11.5441 14.4877
O -7.12787 2.35737 -2.0385
H -7.41949 2.02529 -1.14147
H -7.39041 1.69537 -2.74049
O -2.0293 13.214 14.7845
H -2.9954 13.4389 14.9112
H -1.47653 13.7446 -14.6626
O 5.91089 -12.4256 4.32366
H 6.39085 -11.5673 4.14198
H 6.57691 -13.1437 4.5254
O 3.00529 7.5091 -7.27504
H 2.39328 8.21906 -7.62343
H 3.45805 7.83684 -6.44584
O 11.0792 -14.1057 3.66109
H 10.6264 -13.4487 4.26382
H 11.2633 -14.9491 4.16583
O -7.41871 10.5042 5.26767
H -8.27143 10.809 5.69184
H -6.65044 11.0048 5.66659
O 7.13134 2.9847 -2.09585
H 7.78824 3.48393 -1.53084
H 6.61188 2.35138 -1.52222
O -11.5947 -8.32663 -13.6463
H -11.7933 -7.7 -12.8927
H -12.2522 -8.17841 -14.3851
O -10.6401 14.6273 -4.23474
H -11.2749 -15.0379 -3.58916
H -11.1523 14.2475 -5.00502
O -6.2298 3.90913 -5.92449
H -6.36796 4.85015 -6.2333
H -5.33707 3.58373 -6.23613
O 7.28963 0.423948 -6.6759
H 7.77169 1.10846 -7.22275
H 7.26635 -0.443542 -7.17279
O 9.26624 14.6614 8.77968
H 10.1734 14.3457 9.05779
H 8.83522 -14.9417 9.53953
O -9.57145 -10.0738 -13.7305
H -10.2621 -9.36322 -13.5961
H -9.62674 -10.7377 -12.9847
O 0.078283 9.81032 -12.5843
H -0.551028 9.84722 -11.808
H -0.348393 10.2402 -13.38
O 0.391371 -7.23135 4.09798
H 0.374244 -8.18307 4.40441
H 0.414995 -6.62552 4.89321
O 7.94948 -8.93155 13.3522
H 7.99262 -9.79866 12.856
H 8.87546 -8.63426 13.5849
O 12.0685 -1.61465 -5.51633
H 11.9096 -0.681617 -5.19357
H 12.3113 -2.19851 -4.74163
O -7.94041 4.19509 -10.1063
H -7.57713 3.43593 -9.56622
H -7.23998 4.5157 -10.7439
O 8.35543 0.806492 7.42324
H 9.23428 0.746199 6.94999
H 8.26677 0.0409185 8.06043
O -13.5605 9.80438 5.31704
H -13.556 10.4657 4.56699
H -14.446 9.83221 5.78071
O 6.59392 -9.99624 -11.0913
H 7.43002 -10.3975 -11.4653
H 6.00042 -10.7235 -10.7467
O 1.32642 -2.98026 -13.7825
H 0.783332 -2.22494 -13.4157
H 2.28342 -2.86204 -13.5176
O -13.845 11.6918 3.16607
H -13.1341 12.1524 2.63451
H -14.3966 11.1194 2.55944
O -0.116184 5.04814 0.503624
H 0.575299 5.09789 1.22428
H -1.01141 4.87072 0.912357
O 8.58066 -11.3318 -12.4365
H 8.06887 -11.7873 -13.1649
H 9.52106 -11.6717 -12.4271
O -13.6054 -6.70533 10.3976
H -13.5961 -6.28681 9.48947
H -13.3593 -7.67161 10.3219
O -0.596881 1.23141 9.81025
H -0.833644 0.322038 10.1522
H 0.187482 1.16192 9.19388
O -1.91214 11.4244 3.36629
H -2.34624 12.1904 2.89219
H -0.963125 11.658 3.57786
O -11.8003 -0.472054 7.68525
H -11.3346 -1.2587 7.27987
H -12.7869 -0.634647 7.68963
O -14.7906 10.6218 0.779578
H 14.481 11.1193 0.491117
H -14.0149 10.8986 0.212475
O 5.32248 11.319 -11.855
H 5.19383 10.4567 -12.3447
H 5.14671 11.1784 -10.8806
O -0.309913 -10.4283 2.59203
H -0.0219942 -10.267 3.53598
H 0.496704 -10.5516 2.01398
O 12.2857 -10.47 -7.22538
H 12.5349 -11.4308 -7.10412
H 12.7986 -10.0871 -7.9937
O -6.03517 8.76901 -4.98101
H -5.51547 8.93751 -5.81856
H -6.97175 8.50945 -5.21643
O -14.1569 -12.4989 -14.4684
H -13.5868 -12.1095 -13.7449
H -14.2639 -11.8307 14.8852
O 9.08742 0.455341 2.68316
H 8.77187 1.18076 3.29486
H 9.16886 -0.40004 3.19469
O 12.4747 8.84515 9.52456
H 13.1756 8.37425 8.98889
H 12.0513 8.19967 10.1602
O -11.3818 -6.08348 4.57992
H -10.8347 -6.89923 4.76748
H -10.9456 -5.54873 3.85622
O -10.807 6.38451 3.14936
H -11.4799 6.88307 3.69587
H -11.1505 6.27477 2.21666
O 2.6959 -2.46403 -10.5005
H 2.85458 -2.38747 -11.4848
H 2.0705 -1.74126 -10.2065
O 12.0061 11.2184 -9.58694
H 11.6472 10.9535 -10.4819
H 12.5501 10.4683 -9.21069
O 6.12178 7.01174 -1.05895
H 6.96815 7.54211 -1.10721
H 6.03436 6.44805 -1.88029
O -3.09325 4.23007 -12.0023
H -2.59568 3.8534 -12.7837
H -3.69456 3.52828 -11.6204
O -7.81082 -4.58949 -3.14626
H -7.70072 -4.6553 -4.13798
H -7.59885 -3.65873 -2.8484
O 8.53546 -5.80737 -10.8967
H 8.92795 -6.65315 -10.5353
H 8.68844 -5.06406 -10.2455
O -11.0592 -4.52078 -13.0799
H -10.2277 -4.65353 -12.5405
H -11.745 -5.19532 -12.8067
O -14.7408 0.139083 -6.03722
H -14.179 0.0956629 -6.86332
H 14.5595 0.730534 -6.2017
O -8.82496 -9.28668 -0.376536
H -9.34347 -8.50398 -0.720763
H -8.49217 -9.83078 -1.14672
O 10.6998 1.85984 -14.7362
H 11.175 2.73542 -14.6495
H 9.76147 1.95552 -14.404
O -8.5116 10.2682 8.63982
H -9.01919 11.0829 8.35972
H -9.14868 9.58467 8.99611
O -6.39677 -6.25466 7.33262
H -5.61137 -6.2285 6.7142
H -7.00334 -5.48491 7.13378
O -8.45807 -3.98319 6.60425
H -8.54491 -3.66416 7.54799
H -7.57652 -3.69106 6.23344
O 13.2614 12.2379 -0.151302
H 12.305 12.3509 -0.420259
H 13.6369 13.1227 0.124632
O 14.5 7.6837 -11.3775
H 14.9453 8.05045 -12.1943
H 14.8661 6.77477 -11.178
O 11.2507 2.82109 0.0415266
H 11.6763 2.04247 -0.419611
H 11.9091 3.57106 0.105518
O -11.9334 -10.7946 -1.76804
H -12.1054 -10.9805 -0.800665
H -11.2044 -11.3942 -2.09812
O 0.867436 2.8936 -10.5013
H 1.81591 3.10898 -10.2689
H 0.37044 3.74018 -10.6917
O 4.46896 -4.60332 10.875
H 4.22028 -5.09595 10.0411
H 5.44441 -4.38412 10.8543
O -6.73614 -14.3479 5.48383
H -6.11399 14.9596 5.4525
H -6.66289 -13.8294 4.63189
O 10.7213 -9.47633 -12.7323
H 10.0073 -10.1601 -12.582
H 10.3211 -8.66425 -13.1569
O -14.8775 -9.39257 0.576687
H 14.9583 -8.95258 -0.284656
H -13.9138 -9.2111 0.772251
O -1.19824 14.659 -10.8138
H -0.646226 14.367 -11.5947
H -0.608928 -14.9951 -10.1333
O 8.41222 -10.5072 2.78621
H 9.07759 -11.1393 3.18338
H 8.26537 -10.7388 1.82454
O -2.95518 -5.12822 3.6779
H -2.44173 -5.80934 3.15596
H -3.23965 -4.38722 3.06966
O 11.2184 13.6863 5.27872
H 10.268 13.3879 5.19179
H 11.3735 14.0408 6.2008
O 8.5147 -0.645089 9.66074
H 7.6308 -0.18513 9.74519
H 9.04297 -0.508419 10.4987
O 1.59154 -5.91823 -12.1658
H 1.52467 -6.74194 -12.7289
H 1.46718 -5.11004 -12.7415
O -9.58018 7.85716 9.69452
H -10.1619 8.45638 10.2445
H -8.86892 7.45948 10.2741
O 1.24207 2.19351 -14.4329
H 1.15962 3.00298 -13.8516
H 1.82503 2.40459 14.8722
O 13.7129 5.6411 -2.44142
H 14.6667 5.59565 -2.73843
H 13.4139 6.59521 -2.42538
O 9.96363 -13.8792 -3.05503
H 10.3085 -13.2936 -2.32148
H 9.9807 -13.3761 -3.91907
O -0.567689 -14.9123 -0.0929543
H -0.00966901 -14.8243 0.732188
H -1.01287 -14.0385 -0.288916
O -9.66348 6.98706 -12.2237
H -10.1585 7.84648 -12.0958
H -9.64445 6.48179 -11.361
O -13.1726 7.2843 -1.40147
H -12.6234 8.03045 -1.77783
H -12.6249 6.76559 -0.745016
O 9.8833 -2.50304 7.85961
H 9.78863 -1.70572 7.26354
H 9.24443 -2.42479 8.62492
O 8.62387 13.8488 13.5392
H 8.20812 13.1921 12.9101
H 7.90992 14.2793 14.0914
O 8.68872 8.6266 11.3739
H 8.57599 9.27181 10.6183
H 8.00366 7.90204 11.2986
O 5.13551 4.29745 5.58673
H 4.70564 5.20005 5.60912
H 4.95924 3.86618 4.70191
O 13.4485 12.0745 -6.6282
H 12.9857 12.552 -7.37505
H 14.2752 12.5761 -6.37344
O -7.73689 6.78049 11.3295
H -7.87569 6.15304 12.0956
H -6.85917 6.58394 10.8925
O -6.58434 -4.45422 -13.6744
H -5.65545 -4.81773 -13.6036
H -6.96043 -4.67361 -14.5746
O -13.8417 -2.02568 10.8221
H -13.6252 -1.29865 11.4736
H -14.0274 -1.62485 9.92493
O -2.9272 9.40698 -1.52102
H -3.02353 8.44864 -1.78987
H -2.17563 9.82287 -2.03304
O 10.7816 -14.7519 -10.0461
H 9.95322 -14.1949 -10.1054
H 11.0869 -14.9942 -10.967
O -9.47802 -3.20314 -5.36387
H -10.008 -3.82731 -5.93792
H -9.986 -3.00982 -4.5245
O 0.843242 4.75739 -13.327
H 0.855742 5.66958 -13.7366
H 0.16324 4.73029 -12.5943
O 3.41061 3.56813 -9.44143
H 3.8638 4.45572 -9.52371
H 3.19729 3.39059 -8.48072
O 14.2448 -8.72855 12.9583
H 14.0816 -8.74564 13.9447
H 13.6799 -8.01777 12.5393
O 11.4401 2.60631 5.05974
H 10.6922 2.62871 4.39633
H 11.1373 3.02154 5.91756
O 9.88761 -11.9536 14.6568
H 9.01154 -12.3056 14.9863
H 10.6032 -12.1641 -14.7669
O 10.2076 -2.71682 -2.67803
H 10.6317 -2.0486 -2.06676
H 9.34419 -2.3505 -3.02475
O -10.3319 1.46335 -0.349881
H -11.1666 0.913272 -0.32323
H -10.4061 2.14667 -1.0762
O -4.10886 3.40227 7.51373
H -4.86557 3.04801 8.06315
H -4.44202 4.13556 6.92105
O 9.7919 -1.20091 -11.8457
H 10.3373 -1.12127 -12.68
H 8.97693 -0.626773 -11.9241
O -13.4048 9.33124 -12.5605
H -13.963 10.0717 -12.1862
H -12.449 9.62215 -12.601
O 5.85534 -11.0901 -1.12463
H 6.65688 -11.2035 -0.537549
H 6.12515 -11.1977 -2.0815
O 3.05835 2.12442 9.6136
H 3.71038 2.58521 9.01152
H 2.3418 1.6959 9.06323
O -5.12411 -11.9232 -11.597
H -4.65451 -12.7958 -11.7308
H -6.08678 -12.0917 -11.3853
O -13.4668 13.8098 -10.102
H -13.3102 14.4828 -10.8249
H -14.4497 13.7064 -9.95021
O -1.71072 -6.14625 -9.35041
H -0.921482 -5.56747 -9.55558
H -1.54842 -7.06814 -9.70219
O 1.74012 11.5235 11.953
H 0.75104 11.4786 11.8127
H 1.93135 11.8925 12.8625
O -9.31559 8.43973 -8.29025
H -9.80631 8.40887 -7.41949
H -9.56115 7.64113 -8.83971
O 13.1646 11.8024 9.23016
H 13.6695 11.3329 9.95444
H 12.3031 12.1528 9.5977
O -13.9147 3.48569 -1.24567
H -12.9995 3.17144 -0.993705
H -13.9132 3.78601 -2.19949
O 3.01217 5.2763 -5.65576
H 2.69953 6.03508 -6.22715
H 3.34744 5.63208 -4.78342
O 11.4115 0.215338 -9.87405
H 11.8686 -0.540797 -9.40574
H 10.7076 -0.147529 -10.4846
O 14.8769 13.8299 3.31267
H 14.4052 14.0157 4.17464
H -14.9143 12.8757 3.2951
O 2.87437 6.19694 11.7537
H 2.40597 5.31876 11.6568
H 2.21443 6.89897 12.0213
O 5.65661 2.70951 2.8719
H 5.4897 1.72446 2.91418
H 6.33429 2.90259 2.16236
O 12.3007 -13.2546 1.44273
H 11.7595 -13.6614 2.17866
H 12.7811 -12.4486 1.78858
O -12.0505 -11.323 7.71511
H -12.2261 -11.7116 8.61962
H -11.3193 -10.644 7.78028
O -5.02099 -7.15212 -2.11151
H -4.63934 -7.69094 -2.86249
H -6.01686 -7.1205 -2.19647
O -1.81931 -4.6054 6.03105
H -2.17793 -4.81728 5.12195
H -1.24488 -5.36048 6.34706
O -6.54306 -8.42845 -9.74159
H -6.09793 -7.79581 -9.10788
H -6.27728 -8.20334 -10.679
O 9.3894 -2.54272 13.7206
H 9.97593 -2.24889 14.4753
H 9.2009 -3.52103 13.8063
O -7.88293 2.37139 -8.01553
H -7.55333 2.84297 -7.19763
H -8.85227 2.57651 -8.15067
O -2.59942 -14.3554 11.7188
H -2.72795 -13.777 12.5244
H -3.27954 15.0013 11.7229
O 10.276 13.1702 -8.10557
H 10.5482 12.3509 -8.61004
H 10.4677 13.9811 -8.65845
O 1.78492 9.36183 14.0961
H 2.29335 10.0083 14.665
H 2.29421 9.18722 13.2535
O -5.58334 6.05064 -8.76041
H -5.8322 5.76573 -9.68608
H -6.35314 6.53234 -8.34165
O 1.7283 -4.95324 2.73213
H 1.44326 -4.43588 1.92524
H 1.10471 -5.72228 2.8724
O -10.5997 2.33538 -7.83546
H -11.5408 2.36892 -8.17175
H -10.4855 1.53767 -7.24334
O -8.07832 -7.3758 -3.15517
H -8.01046 -6.40069 -2.94414
H -8.63401 -7.50107 -3.97705
O -14.8172 5.07845 0.881362
H 14.3004 5.17075 1.09692
H -14.708 4.4921 0.0787135
O -2.73923 -13.3462 6.46165
H -3.20828 -12.6312 6.98006
H -2.81149 -14.215 6.95156
O 1.4245 -5.03345 -6.69391
H 2.10476 -4.68521 -7.33885
H 1.42445 -6.03317 -6.71697
O 14.0116 14.7302 0.795111
H 14.324 14.4248 1.69464
H 13.4036 -14.573 0.902727
O -9.924 -1.88036 2.36269
H -10.6584 -1.20815 2.4567
H -9.13371 -1.58814 2.90124
O 7.78152 10.8104 9.61931
H 7.73173 10.163 8.8588
H 8.46727 11.5097 9.41743
O -4.02521 -3.42561 -1.02454
H -4.03039 -2.62476 -0.425705
H -4.17463 -4.25046 -0.479311
O -4.40415 -5.70735 -9.77531
H -4.38781 -5.90462 -10.7555
H -3.49197 -5.85033 -9.3913
O 10.6177 3.08707 9.87346
H 10.2674 2.92322 8.95126
H 10.9155 2.2213 10.2756
O -12.7134 1.90234 4.5506
H -13.3164 2.64663 4.26368
H -11.7603 2.18831 4.45093
O 4.72451 0.713994 -5.28081
H 4.16323 1.36096 -5.79693
H 5.68086 0.80774 -5.55754
O 9.13057 -11.1972 11.9825
H 9.81174 -10.8055 11.364
H 9.58789 -11.5647 12.7923
O 14.2474 -11.7223 -1.69777
H 14.3501 -11.4832 -0.732235
H 13.2845 -11.6507 -1.95819
O -8.86258 14.1016 5.59714
H -8.72871 13.8138 4.64885
H -8.2427 14.8577 5.80668
O 0.333398 -5.01336 9.69384
H 1.11644 -4.41499 9.86341
H 0.401385 -5.82411 10.2752
O 1.26772 7.86403 8.89443
H 1.16606 8.00181 9.87964
H 1.83056 7.05453 8.72741
O 3.7976 -5.93605 -3.18767
H 3.05706 -5.31921 -2.92107
H 4.67627 -5.53013 -2.93639
O 7.76167 -1.86756 -2.24739
H 6.96626 -1.32847 -2.5243
H 7.66509 -2.13603 -1.28897
O -10.6057 9.96523 -12.3422
H -9.64507 10.0334 -12.6116
H -10.8825 10.8071 -11.8789
O 11.9967 -6.26334 6.77554
H 12.5204 -5.46011 7.05927
H 12.2313 -6.498 5.8322
O -4.6415 -2.73069 -5.55369
H -4.21967 -2.63755 -6.45555
H -4.09547 -3.35314 -4.993
O -1.01485 0.830729 -6.58614
H -0.388256 0.138719 -6.2277
H -0.496818 1.51697 -7.09671
O 10.7065 -14.8234 -14.8758
H 10.848 -13.8983 -14.5235
H 9.90011 -14.8352 14.6226
O 3.52054 -4.4261 -8.36473
H 4.17155 -4.29294 -7.61746
H 3.53171 -3.62508 -8.96324
O 11.704 -4.00685 -6.98793
H 11.7092 -3.07407 -6.62756
H 11.3331 -4.62862 -6.29815
O 12.7826 1.71171 13.2571
H 13.7589 1.88283 13.3892
H 12.3815 1.39006 14.1148
O -11.1606 0.0952495 10.461
H -11.4398 -0.0707879 9.51527
H -11.9451 0.422797 10.9875
O -9.60083 5.72584 -3.10283
H -8.68638 5.54991 -2.7384
H -9.54897 6.43637 -3.80456
O -6.79876 12.0007 0.838536
H -5.86235 11.7129 0.637877
H -7.28141 11.2613 1.30782
O -1.0365 0.850751 -10.2054
H -0.633035 1.75524 -10.3436
H -1.86456 0.936247 -9.65138
O -12.0628 -0.253345 2.93838
H -12.2616 0.554351 3.49342
H -12.9167 -0.724939 2.71825
O -0.476452 -13.6371 -5.40671
H -1.4461 -13.881 -5.39086
H 0.053999 -14.3493 -4.94704
O -5.29503 -8.34906 3.30486
H -5.93859 -8.50627 2.55581
H -5.58146 -8.87429 4.10615
O 14.4558 7.99387 -0.192992
H 14.638 8.87714 0.23896
H -14.8112 7.67784 -0.665521
O -9.35546 12.8391 7.99394
H -10.3318 13.0074 8.12965
H -9.03336 13.3631 7.20547
O 4.33389 14.9616 4.1875
H 3.80974 14.5919 4.95468
H 4.00183 -14.2107 3.96826
O -13.1181 -14.98 2.00447
H -12.301 14.5998 2.27323
H -13.9209 14.7101 2.44697
O -4.55538 -6.42797 5.41454
H -3.76505 -6.06035 4.92442
H -5.04691 -7.06687 4.82278
O 0.983165 -14.3923 -9.0454
H 1.21052 -13.4982 -8.65942
H 1.06516 14.9975 -8.33595
O 4.64767 -0.995123 -9.43807
H 3.92271 -1.55758 -9.83563
H 4.37985 -0.032317 -9.4735
O 13.2301 6.27995 -7.88081
H 12.8303 6.33396 -8.79579
H 12.512 6.07888 -7.21459
O 10.6116 10.39 -2.402
H 10.7446 11.1397 -1.75367
H 10.9973 10.6441 -3.28894
O -3.50974 -4.51082 -3.67725
H -3.58137 -5.49888 -3.81355
H -3.68202 -4.29353 -2.71648
O -0.595662 -3.74975 12.6075
H -0.0283459 -4.21403 13.2876
H -0.0457054 -3.54652 11.7974
O -2.48005 8.92142 2.98398
H -2.19951 9.8732 3.10803
H -2.00089 8.34385 3.64488
O 2.81896 -1.62438 -5.03515
H 3.33913 -0.884768 -5.46221
H 3.21846 -1.84178 -4.14458
O 10.4 -11.7622 5.12681
H 11.1608 -11.5651 5.74516
H 9.54672 -11.4362 5.53371
O 5.97877 -8.45996 10.6742
H 6.41873 -8.48434 9.77653
H 6.49656 -7.85889 11.283
O -8.31929 -13.0291 2.09359
H -8.99089 -13.7651 2.17847
H -7.69971 -13.2291 1.3346
O 10.9379 -9.74842 -0.854927
H 11.2585 -9.4608 0.0475224
H 10.1216 -9.22566 -1.10084
O -4.65821 13.9664 12.8074
H -4.40714 13.5108 13.6615
H -5.34212 14.6716 12.9943
O -0.474939 5.03035 -2.26073
H -0.0488501 5.30837 -1.39984
H -0.257836 4.07193 -2.44583
O -2.20817 3.08132 13.3449
H -1.85705 3.51666 12.5159
H -2.0866 2.09099 13.2784
O -11.5515 -5.26563 14.3068
H -11.2343 -4.98699 -14.8764
H -11.5378 -4.47713 13.692
O 1.33396 9.16928 6.5955
H 1.3861 8.72978 7.49222
H 0.751918 8.62536 5.99107
O 14.3266 -4.18676 14.1751
H 15.0172 -4.39281 13.4819
H 13.6616 -4.9326 14.2152
O 4.59499 -13.4134 7.94291
H 5.56731 -13.1798 7.94593
H 4.23779 -13.3655 8.87569
O 6.44885 0.557111 -0.54475
H 7.05829 -0.0166839 0.00234171
H 6.22768 0.087928 -1.39969
O -11.6977 5.07924 6.73344
H -12.3302 5.70516 6.27721
H -11.6911 4.2027 6.25219
O 11.498 -4.14831 11.108
H 10.842 -3.49841 11.4918
H 11.2967 -4.29214 10.1391
O -4.16046 -6.68818 12.1832
H -3.68533 -5.92062 12.6134
H -4.47531 -6.41763 11.2734
O -10.3013 11.0145 4.68694
H -10.833 11.1315 5.52572
H -10.5436 10.1447 4.25723
O -14.7468 1.9565 -11.394
H -14.9367 2.4048 -12.2674
H -13.9535 1.35583 -11.4932
O -12.2403 -14.6643 14.3826
H -12.8293 14.6631 14.1143
H -12.7533 -14.0367 14.9681
O -9.0875 0.897664 -3.86007
H -8.89087 1.79925 -4.24537
H -8.46645 0.22246 -4.25803
O -7.67394 6.20268 -6.75796
H -8.45458 5.64619 -7.04237
H -7.91753 6.726 -5.94139
O 10.6691 -3.43629 -10.4357
H 11.6451 -3.22016 -10.463
H 10.1445 -2.651 -10.7645
O -3.19294 12.9197 -4.29998
H -2.75511 13.2893 -3.4804
H -3.99669 12.3862 -4.03671
O -4.64553 10.3555 9.05921
H -3.9087 9.85742 9.51632
H -5.27006 9.70469 8.62754
O 11.6898 10.4554 -5.47563
H 10.8958 11.0553 -5.57394
H 12.467 10.8479 -5.96751
O 9.84506 -11.9143 -5.15856
H 10.1282 -11.3067 -5.90056
H 8.88127 -12.1546 -5.27397
O -6.18535 -12.2542 3.70931
H -7.07331 -12.2364 3.24974
H -5.50341 -12.6606 3.10126
O -1.28453 10.0451 8.77643
H -0.507399 9.41705 8.81713
H -1.08115 10.786 8.1364
O -7.29613 -1.29939 -5.18181
H -6.4908 -1.63173 -5.6727
H -8.08477 -1.87026 -5.41015
O -0.558871 -9.02798 -7.63178
H -0.648824 -8.78745 -8.59823
H 0.241234 -8.56793 -7.24687
O 8.97655 -4.94646 -1.75275
H 9.33687 -5.71512 -2.28123
H 9.50983 -4.12474 -1.95363
O 5.66124 -12.9605 -10.8242
H 5.37235 -12.4017 -11.6015
H 4.88926 -13.5088 -10.5027
O 9.67673 -2.04672 3.59127
H 8.94357 -2.59405 3.99484
H 10.081 -2.54489 2.82422
O -6.94636 14.032 -0.763033
H -6.21592 14.7121 -0.700906
H -6.74249 13.2672 -0.151938
O 10.9338 0.330587 6.76639
H 11.5087 0.53905 7.55755
H 11.376 0.667151 5.93505
O -0.860663 -3.70572 -6.11967
H -0.0757476 -4.2849 -6.33973
H -0.939592 -3.61437 -5.127
O 8.69057 7.71429 0.960729
H 7.73105 7.82419 1.21997
H 9.01173 8.54746 0.510557
O 11.712 7.09587 -9.99478
H 11.1992 7.94005 -9.83876
H 12.485 7.28268 -10.601
O -5.89379 -2.78683 8.66195
H -6.176 -3.06846 9.57902
H -6.53697 -2.10718 8.30929
O 12.7574 14.6788 -5.19118
H 12.9926 -14.7447 -4.48345
H 13.5431 14.085 -5.36431
O -3.0879 1.36043 -8.16875
H -2.49919 1.00582 -7.44236
H -3.22947 2.34114 -8.03409
O 6.46849 -3.04907 7.89509
H 6.57044 -2.41227 7.13085
H 5.60466 -3.54438 7.80326
O 4.85982 -13.8374 -3.73261
H 4.13004 -13.7901 -3.05059
H 5.07233 -12.9159 -4.05778
O 2.37444 -2.9549 10.5957
H 2.68709 -2.19857 10.0211
H 3.16271 -3.48802 10.903
O -1.23771 -10.3642 7.14127
H -0.6178 -10.932 7.68287
H -2.18365 -10.6208 7.33957
O 13.0986 -2.496 -10.9495
H 13.5923 -1.80368 -11.4757
H 13.1932 -2.30273 -9.97295
O -4.8782 5.80031 0.0481771
H -5.04953 6.70901 0.428826
H -4.05648 5.8269 -0.521067
O -7.51426 1.26775 0.617343
H -8.42545 0.898467 0.434749
H -7.01397 0.640667 1.21437
O 5.17352 -10.8386 -4.06373
H 5.94512 -10.7238 -4.68939
H 5.09908 -10.0336 -3.47519
O 1.31428 14.8473 10.3242
H 0.423947 -14.8908 10.035
H 1.66916 14.2245 9.6269
O 6.73425 6.61573 -5.58824
H 7.30198 7.40384 -5.35047
H 7.32113 5.84244 -5.82817
O 7.93119 9.76188 3.49762
H 8.92328 9.64696 3.44741
H 7.48791 9.09907 2.89417
O -11.8944 -9.64001 10.4986
H -11.6744 -9.15964 9.64956
H -12.8022 -10.0524 10.4226
O 11.6179 0.861579 11.1476
H 10.8943 0.323569 11.58
H 12.1787 1.29417 11.8535
O -13.5931 -13.0709 -5.16706
H -13.9299 -13.8351 -4.61705
H -13.8682 -12.2082 -4.74279
O 13.8537 -5.97461 -12.591
H 14.2681 -5.06508 -12.56
H 12.8582 -5.8863 -12.624
O 13.1742 11.44 4.99057
H 12.632 12.2415 5.24257
H 13.5739 11.0359 5.81331
O 13.1167 2.50588 -9.85505
H 12.5107 1.76146 -10.1354
H 14.0252 2.3618 -10.2473
O 2.827 1.15679 4.74608
H 2.47251 2.04337 4.44895
H 3.56619 0.871871 4.13584
O 10.7666 9.50163 -11.9033
H 9.76886 9.43593 -11.8888
H 11.1527 8.63921 -12.2307
O -7.46011 -0.216008 8.19535
H -6.63841 0.332265 8.35084
H -8.05441 0.252201 7.54146
O 1.39749 -11.3748 -4.17419
H 0.909088 -11.0928 -3.34842
H 0.86556 -12.0724 -4.65416
O -6.63809 -14.1576 13.0758
H -6.50202 -13.2735 12.6289
H -7.59243 -14.4388 12.9749
O 11.8791 -6.07164 -5.07766
H 12.0335 -5.23673 -4.54939
H 12.7577 -6.44457 -5.37599
O 12.892 -4.12126 0.884875
H 13.4076 -4.12491 1.7417
H 12.5916 -3.1896 0.680605
O -12.8361 9.55267 12.8076
H -12.2321 8.89284 13.2546
H -13.2252 10.1668 13.4943
O 5.50544 -0.558739 12.7995
H 5.6007 -0.972387 11.8941
H 5.29425 -1.26973 13.4702
O -5.85333 -10.2583 5.52407
H -5.15071 -10.5281 6.18249
H -6.0336 -11.0178 4.89901
O 2.98446 -10.3628 -6.42144
H 3.83384 -10.5087 -5.91424
H 2.20386 -10.5529 -5.82604
O 6.97282 11.6732 -1.77905
H 7.75852 12.2003 -2.10281
H 6.76262 10.9501 -2.43698
O 2.95684 -11.2025 12.2849
H 2.5959 -10.6 11.5731
H 3.95255 -11.1172 12.3204
O -4.46165 0.517307 11.9308
H -3.68181 0.787206 12.4956
H -4.13191 0.0757192 11.0964
O 3.10971 -11.4681 -1.39215
H 4.0625 -11.1955 -1.25859
H 2.80393 -11.1778 -2.2989
O -3.46088 -13.8869 -11.0142
H -2.68098 -14.5099 -10.9545
H -3.38676 -13.1906 -10.3003
O -3.73914 -0.622802 9.63771
H -3.92098 -0.444979 8.67061
H -3.51867 -1.5901 9.76304
O -3.18775 -11.8255 10.5882
H -4.08373 -11.4785 10.3112
H -3.19332 -12.825 10.5573