LAMMPS data file via write_data, version 15 May 2015, timestep = 1190000

4560 atoms
7 atom types
5040 bonds
3 bond types
7200 angles
2 angle types
10560 dihedrals
3 dihedral types
2400 impropers
1 improper types

-1.0763502675555259e-01 4.1387635026745990e+01 xlo xhi
-4.0433884491974936e-02 3.5938433884472119e+01 ylo yhi
-3.5711112484589691e-01 2.9555111124838550e+01 zlo zhi
-6.7234083837551181e-02 -1.7036217651000683e+01 -4.1707816797290791e-02 xy xz yz

Masses

1 12.0107
2 1.008
3 12.0107
4 12.0107
5 12.0107
6 12.0107
7 12.0107

Pair Coeffs # lj/cut/coul/long

1 0 3.55
2 0 2.42
3 0 3.55
4 0 3.55
5 0 3.55
6 0 0
7 0 3.55

Bond Coeffs # harmonic

1 469 1.4
2 367 1.08
3 469 0.7

Angle Coeffs # harmonic

1 35 120
2 63 120

Dihedral Coeffs # opls

1 0 7.25 0 0
2 0 7.25 0 0
3 0 7.25 0 0

Improper Coeffs # cvff

1 2.5 -1 2

Atoms # full

219 13 3 0.0000000000000000e+00 -2.6679275162637706e-01 3.1141616107920962e+00 3.1510910579326774e+00 1 0 0
220 13 4 -2.4700000000000000e-02 3.3421602478191215e-01 4.1014367316813098e+00 2.3643418305671657e+00 1 0 0
224 13 2 2.4700000000000000e-02 4.2985867528016897e-01 5.0849125298644884e+00 2.7861087433363059e+00 1 0 0
580 33 4 -2.4700000000000000e-02 2.6866636701827589e+00 6.7695503596121700e+00 3.9657290419100031e+00 1 0 0
228 13 3 0.0000000000000000e+00 -5.6141663055952540e-01 1.8561845469899405e+00 2.5908786934164771e+00 1 0 0
989 53 4 -2.4700000000000000e-02 -1.3415974724634443e+00 7.0563133058537151e+00 3.5131510515540767e+00 1 0 0
600 34 2 2.4700000000000000e-02 2.5123705231304250e-01 5.8652348806916903e+00 6.9199817212460957e+00 1 0 0
245 14 4 -2.4700000000000000e-02 -4.9150212548930927e+00 1.4248484696150361e+00 9.0831579045911610e+00 1 0 0
227 13 4 -2.4700000000000000e-02 -1.8841315029975714e-01 1.5315649763608343e+00 1.2574671397697992e+00 1 0 0
4390 233 1 -2.4700000000000000e-02 2.4798760550608270e+00 7.8762862768675823e-01 5.5629109529949066e+00 1 1 0
733 13 6 0.0000000000000000e+00 -4.2791151111166426e-01 2.4417814274814171e+00 2.9305568236894093e+00 1 0 0
993 53 2 2.4700000000000000e-02 -1.9144797412688117e+00 6.2790826827544830e+00 3.0402044064074176e+00 1 0 0
230 13 1 -2.4700000000000000e-02 7.5464884544176014e-01 3.7692181157557338e+00 1.0776211499704276e+00 1 0 0
217 13 7 -2.4700000000000000e-02 -1.2491713174519306e+00 2.3758589160811687e+00 5.2382144678627478e+00 1 0 0
218 13 5 -2.4700000000000000e-02 -5.8097528119598962e-01 3.3895481576202990e+00 4.4961103232183781e+00 1 0 0
221 13 1 -2.4700000000000000e-02 -1.4243506114605622e+00 1.1355540337796330e+00 4.6663917662373011e+00 1 0 0
222 13 2 2.4700000000000000e-02 -1.6824355459604852e+00 2.5461014221761085e+00 6.2288586287326115e+00 1 0 0
223 13 2 2.4700000000000000e-02 -3.5185690638428024e-01 4.3728803755540024e+00 4.8242908618408711e+00 1 0 0
248 14 1 -2.4700000000000000e-02 -3.4396212830322286e+00 3.2702639372823827e+00 8.7037345396648327e+00 1 0 0
4380 233 4 -2.4700000000000000e-02 2.5752725270651142e+00 1.1181238605372639e+00 4.1598315068524307e+00 1 1 0
244 14 1 -2.4700000000000000e-02 -4.2306587001144473e+00 2.2264674074987334e+00 8.2057462021441960e+00 1 0 0
603 34 2 2.4700000000000000e-02 8.9577404806301608e-01 3.5829492808396157e+00 7.4830262750924010e+00 1 0 0
4396 234 5 -2.4700000000000000e-02 -7.5182004945269476e-01 1.9584810742780753e-01 9.2461421002569537e+00 1 1 0
4394 233 2 2.4700000000000000e-02 2.0292121583195670e+00 1.5317814356177710e+00 6.1688322720276654e+00 1 1 0
579 33 3 0.0000000000000000e+00 3.2795272399205011e+00 5.7894086997886394e+00 3.1811525667536675e+00 1 0 0
252 14 2 2.4700000000000000e-02 -2.8763113579686856e+00 3.9404554657701274e+00 8.0367678251627428e+00 1 0 0
581 33 1 -2.4700000000000000e-02 4.7714583328164162e+00 4.0898730436938795e+00 1.4820606849065476e+00 1 0 0
596 34 5 -2.4700000000000000e-02 -5.4000893042820408e-01 6.3318512073493345e+00 8.9012836192635785e+00 1 0 0
577 33 7 -2.4700000000000000e-02 4.2744542964138086e+00 5.2832674410941927e+00 1.0084651033416927e+00 1 0 0
588 33 3 0.0000000000000000e+00 3.8083287397489922e+00 4.6097880967489848e+00 3.7328613924108502e+00 1 0 0
589 33 4 -2.4700000000000000e-02 4.5107253245631442e+00 3.7132638569033647e+00 2.8437363926829513e+00 1 0 0
593 33 2 2.4700000000000000e-02 5.0163199425918030e+00 2.8816867139028166e+00 3.2390864314708288e+00 1 0 0
753 33 6 0.0000000000000000e+00 3.6448421624655487e+00 5.1844458218564293e+00 3.2986093135192753e+00 1 0 0
4383 233 2 2.4700000000000000e-02 3.0389670718425492e+00 1.4189987339069794e+00 1.4306540806618215e+00 1 1 0
4379 233 3 0.0000000000000000e+00 3.2881536297135843e+00 2.5515398526934241e-01 3.2812407805763697e+00 1 1 0
578 33 5 -2.4700000000000000e-02 3.4926557202045085e+00 6.1416332439108956e+00 1.7986749689923469e+00 1 0 0
226 13 1 -2.4700000000000000e-02 4.4495786733668530e-01 2.5439677286891880e+00 5.2360045236354003e-01 1 0 0
4384 233 2 2.4700000000000000e-02 2.2393608590573346e+00 2.0470915619378323e+00 3.8287396488507861e+00 1 1 0
586 33 1 -2.4700000000000000e-02 3.1543133066190285e+00 5.4010009963056360e+00 5.8833602630649153e+00 1 0 0
587 33 4 -2.4700000000000000e-02 3.7962774866427664e+00 4.4089801095536565e+00 5.1534445656020056e+00 1 0 0
585 33 2 2.4700000000000000e-02 5.3604541441497320e+00 3.4844158229423261e+00 8.4183655625332077e-01 1 0 0
591 33 2 2.4700000000000000e-02 3.1854893292866224e+00 5.2804088749226565e+00 6.9403647183137220e+00 1 0 0
592 33 2 2.4700000000000000e-02 4.3202716428921857e+00 3.5738281080665018e+00 5.5949149292867881e+00 1 0 0
590 33 1 -2.4700000000000000e-02 2.5348944078008984e+00 6.5253195792323018e+00 5.3599636146662348e+00 1 0 0
249 14 2 2.4700000000000000e-02 -4.3349881638578731e+00 2.0871278291056181e+00 7.1434424550946041e+00 1 0 0
234 13 2 2.4700000000000000e-02 1.3284663527725411e+00 4.5198337143097795e+00 4.7731067722894582e-01 1 0 0
229 13 4 -2.4700000000000000e-02 -1.2044521826188066e+00 8.7131200027324351e-01 3.3175872154847328e+00 1 0 0
1009 54 2 2.4700000000000000e-02 -3.3968588458255971e+00 7.4097756788145466e+00 7.0266935174826246e+00 1 0 0
985 53 2 2.4700000000000000e-02 -1.7992822881389954e+00 6.4202806407169106e+00 5.5807678519322472e+00 1 0 0
599 34 1 -2.4700000000000000e-02 5.5173467759433059e-01 4.2599157785448671e+00 8.2983043410671868e+00 1 0 0
4401 234 2 2.4700000000000000e-02 -1.0775398433729988e+00 1.1532109812398055e+00 8.9830460447814016e+00 1 1 0
225 13 2 2.4700000000000000e-02 -1.8689588486650577e+00 4.6222306274177516e-01 5.3964436504044331e+00 1 0 0
595 34 7 -2.4700000000000000e-02 9.3504773796596830e-02 5.5403263613087894e+00 7.9420286756613514e+00 1 0 0
981 53 1 -2.4700000000000000e-02 -1.4212542625027424e+00 7.2114400882345571e+00 4.9220870583774747e+00 1 0 0
4378 233 5 -2.4700000000000000e-02 3.4354664104779733e+00 5.2083718217301367e-01 1.8922835278080496e+00 1 1 0
582 33 2 2.4700000000000000e-02 4.5953522869184606e+00 5.4943438613143263e+00 3.5727646544149505e-02 1 0 0
583 33 2 2.4700000000000000e-02 3.1964033727052281e+00 7.1549248966422763e+00 1.5131749414907658e+00 1 0 0
584 33 2 2.4700000000000000e-02 2.3128253413308335e+00 7.6446490254727788e+00 3.4588980475627262e+00 1 0 0
232 13 2 2.4700000000000000e-02 -3.5386365430986533e-01 5.6476642028678481e-01 7.8000237683627960e-01 1 0 0
1493 53 6 0.0000000000000000e+00 -5.5094572525632945e-01 8.6600939648878850e+00 2.9696617487415606e+00 1 0 0
1064 57 2 2.4700000000000000e-02 7.1127062297603842e+00 6.4181703683449607e+00 9.4307218591017561e-01 1 0 0
1005 54 4 -2.4700000000000000e-02 -4.4924207944823662e+00 7.2142249316830949e+00 8.8745397113501383e+00 1 0 0
594 33 2 2.4700000000000000e-02 2.0808517061772336e+00 7.3087931130150148e+00 5.9731100411323981e+00 1 0 0
977 53 7 -2.4700000000000000e-02 -7.5195623855749627e-01 8.3051301976526748e+00 5.5229904454402998e+00 1 0 0
982 53 2 2.4700000000000000e-02 -7.5251303855587981e-01 8.3753429403522972e+00 6.6059123370304773e+00 1 0 0
1004 54 1 -2.4700000000000000e-02 -3.6427882434917516e+00 7.8369190421177288e+00 7.9463904739089202e+00 1 0 0
988 53 3 0.0000000000000000e+00 -7.2658962212958178e-01 8.0390365334772582e+00 2.6896857274182522e+00 1 0 0
987 53 4 -2.4700000000000000e-02 -7.9034218435075587e-01 7.9750802028091776e+00 1.3282137673335008e+00 1 0 0
601 34 2 2.4700000000000000e-02 -8.9946487026097177e-01 7.3110194827543724e+00 8.6935853442740765e+00 1 0 0
1010 54 2 2.4700000000000000e-02 -5.0090002243791778e+00 6.3007160705319736e+00 8.5051122172320497e+00 1 0 0
322 18 2 2.4700000000000000e-02 2.7844441462010723e+00 2.3715707905848615e-01 9.0516396851213603e+00 1 0 0
1353 73 2 2.4700000000000000e-02 4.9284332129937809e+00 8.8014139707222210e+00 2.8767198446984574e+00 1 0 0
235 14 7 -2.4700000000000000e-02 -5.2736312741916986e+00 2.2493243712287438e+00 1.3133660850723748e+01 1 0 0
236 14 5 -2.4700000000000000e-02 -4.5545963542853301e+00 3.1409631938329827e+00 1.2333678559806138e+01 1 0 0
597 34 3 0.0000000000000000e+00 -5.9008048024007564e-01 5.8944801396847577e+00 1.0251842328879764e+01 1 0 0
734 14 6 0.0000000000000000e+00 -4.6186948242489576e+00 2.3432276219853301e+00 1.0469123645837371e+01 1 0 0
239 14 1 -2.4700000000000000e-02 -5.8096572520142074e+00 1.0446678175670587e+00 1.2630121919101338e+01 1 0 0
240 14 2 2.4700000000000000e-02 -5.3463359389827421e+00 2.3916411241394226e+00 1.4157590863707480e+01 1 0 0
243 14 2 2.4700000000000000e-02 -6.2905726057128213e+00 3.0510052066320209e-01 1.3249477750871316e+01 1 0 0
4416 235 4 -2.4700000000000000e-02 -5.8583139114653111e+00 8.8192721622841352e-01 1.9035507908027405e+01 1 1 0
4420 235 2 2.4700000000000000e-02 -6.2004774071754003e+00 1.8173102337154876e+00 1.8589162796464208e+01 1 1 0
237 14 3 0.0000000000000000e+00 -4.4420925465323817e+00 2.9016145408147707e+00 1.0944608234621899e+01 1 0 0
4402 234 2 2.4700000000000000e-02 -1.8927959744824747e+00 1.7086707213129870e+00 1.0997498125749754e+01 1 1 0
1022 55 1 -2.4700000000000000e-02 -8.4994992957048030e+00 8.3867029424630974e+00 1.5298612444340487e+01 1 0 0
242 14 2 2.4700000000000000e-02 -3.3663458578136334e+00 4.7170817293296610e+00 1.0329708086162267e+01 1 0 0
255 15 3 0.0000000000000000e+00 -8.7769726359843432e+00 3.0760421214015925e+00 1.8166925656371795e+01 1 0 0
256 15 4 -2.4700000000000000e-02 -8.0706260867291491e+00 3.8782956240049518e+00 1.7189042071604796e+01 1 0 0
260 15 2 2.4700000000000000e-02 -7.6353784851991477e+00 4.8991372772886574e+00 1.7395996329431764e+01 1 0 0
269 15 2 2.4700000000000000e-02 -1.0397015848585800e+01 1.6733084945696872e-01 1.8389535900378693e+01 1 0 0
4414 235 5 -2.4700000000000000e-02 -4.8939122320029602e+00 3.4347820840060017e-01 1.6863449103249998e+01 1 1 0
264 15 3 0.0000000000000000e+00 -9.3462158093273917e+00 1.8932234426564702e+00 1.7812120566139757e+01 1 0 0
262 15 1 -2.4700000000000000e-02 -8.3576705322161260e+00 2.0644457419563449e+00 1.5570194146899977e+01 1 0 0
266 15 1 -2.4700000000000000e-02 -7.8102590794419822e+00 3.3131315542579163e+00 1.5915289557769324e+01 1 0 0
4408 234 1 -2.4700000000000000e-02 -1.7984498977193928e+00 3.4361231480959314e-01 1.2745044754571285e+01 1 1 0
238 14 4 -2.4700000000000000e-02 -3.7095414843343493e+00 3.7317626586111703e+00 1.0022005063272264e+01 1 0 0
263 15 4 -2.4700000000000000e-02 -9.1491416767598892e+00 1.3829690280830755e+00 1.6528367840369931e+01 1 0 0
735 15 6 0.0000000000000000e+00 -8.9376877935567691e+00 2.4120120556799169e+00 1.8067766428811460e+01 1 0 0
246 14 3 0.0000000000000000e+00 -5.0200695379271032e+00 1.7656866194200382e+00 1.0448765406904723e+01 1 0 0
265 15 4 -2.4700000000000000e-02 -1.0038226052531995e+01 1.1099625363460957e+00 1.8732486019036351e+01 1 0 0
604 34 1 -2.4700000000000000e-02 -9.2093363235359238e-01 4.9402767604546920e+00 1.2831206061030935e+01 1 0 0
605 34 4 -2.4700000000000000e-02 -3.8874474018534588e-01 4.1155145868072838e+00 1.1867729404774392e+01 1 0 0
606 34 3 0.0000000000000000e+00 -1.5320264836226372e-01 4.5954935797247574e+00 1.0602523040533496e+01 1 0 0
607 34 4 -2.4700000000000000e-02 4.1161887587066293e-01 3.7502562592955693e+00 9.6206082237191399e+00 1 0 0
1007 54 4 -2.4700000000000000e-02 -5.7262423452926958e+00 7.1455281037010696e+00 1.1037536341672249e+01 1 0 0
611 34 2 2.4700000000000000e-02 5.7634494104261780e-01 2.6861991639108114e+00 9.8001591220600837e+00 1 0 0
610 34 2 2.4700000000000000e-02 -2.1972564894041913e-01 3.1264548088715038e+00 1.2205700164367808e+01 1 0 0
241 14 2 2.4700000000000000e-02 -4.1861286458357849e+00 3.9803417514526678e+00 1.2903465049674779e+01 1 0 0
620 35 2 2.4700000000000000e-02 -6.3826265234669739e+00 7.4816357620951290e+00 1.9094347273041215e+01 1 0 0
598 34 4 -2.4700000000000000e-02 -1.1619346281755982e+00 6.7857481796423809e+00 1.1223743741609809e+01 1 0 0
754 34 6 0.0000000000000000e+00 -4.4825350026743838e-01 5.2524632329150798e+00 1.0502555780892429e+01 1 0 0
609 34 2 2.4700000000000000e-02 -1.0805723417727577e+00 4.5404706252292764e+00 1.3826263878642679e+01 1 0 0
613 35 7 -2.4700000000000000e-02 -4.5048663967423384e+00 5.6273933068852999e+00 1.6078946947394797e+01 1 0 0
618 35 2 2.4700000000000000e-02 -4.5351456159672781e+00 6.0525215060871123e+00 1.5076372868563151e+01 1 0 0
615 35 3 0.0000000000000000e+00 -5.2170583958977925e+00 5.7980965340728901e+00 1.8437565614955616e+01 1 0 0
617 35 1 -2.4700000000000000e-02 -4.0306701407549044e+00 4.3359234526954884e+00 1.6369069260829360e+01 1 0 0
621 35 2 2.4700000000000000e-02 -3.5906572021434036e+00 3.7971426027186652e+00 1.5509448392390318e+01 1 0 0
624 35 3 0.0000000000000000e+00 -4.6685457785779354e+00 4.5175528488354315e+00 1.8716737660127123e+01 1 0 0
625 35 4 -2.4700000000000000e-02 -4.0343759100832850e+00 3.8078414913301533e+00 1.7656915208740173e+01 1 0 0
629 35 2 2.4700000000000000e-02 -3.5988865420786622e+00 2.9031189506560469e+00 1.7888821026115483e+01 1 0 0
755 35 6 0.0000000000000000e+00 -4.9442044059338954e+00 5.1094035405621598e+00 1.8434175710896003e+01 1 0 0
270 15 2 2.4700000000000000e-02 -7.3234036039542376e+00 3.8665803555326943e+00 1.5095375171465125e+01 1 0 0
4398 234 4 -2.4700000000000000e-02 -1.5944763866132297e+00 7.5945024134485128e-01 1.1401504031627256e+01 1 1 0
4412 234 2 2.4700000000000000e-02 -2.2567049121557359e+00 9.2034249261273726e-01 1.3503102317918502e+01 1 1 0
614 35 5 -2.4700000000000000e-02 -5.1875410539242148e+00 6.3355790178930942e+00 1.7114578307161498e+01 1 0 0
247 14 4 -2.4700000000000000e-02 -5.7394176001940336e+00 8.8183935217844089e-01 1.1231675354306478e+01 1 0 0
4419 235 2 2.4700000000000000e-02 -5.2958048039029046e+00 1.3412498589646005e+00 1.6544933242157018e+01 1 1 0
1025 55 4 -2.4700000000000000e-02 -9.8139505304280839e+00 6.7320376814783511e+00 1.8351093566774260e+01 1 0 0
608 34 1 -2.4700000000000000e-02 -1.1151862287434930e+00 6.3357900480160545e+00 1.2539984266748238e+01 1 0 0
616 35 4 -2.4700000000000000e-02 -5.9680384821861265e+00 6.5487120517976525e+00 1.9392317190703316e+01 1 0 0
612 34 2 2.4700000000000000e-02 -1.3516204977355573e+00 7.0103144694482236e+00 1.3292423551310135e+01 1 0 0
1029 55 2 2.4700000000000000e-02 -1.0423779089007787e+01 5.8902195723321844e+00 1.7931259585466712e+01 1 0 0
1011 54 2 2.4700000000000000e-02 -6.2893468223250864e+00 6.2816159289852918e+00 1.0734299740353098e+01 1 0 0
254 15 5 -2.4700000000000000e-02 -8.9557175651379630e+00 3.5851390870050763e+00 1.9522607639290282e+01 1 0 0
1006 54 3 0.0000000000000000e+00 -4.8148671404310530e+00 7.7621944241871850e+00 1.0135124557010680e+01 1 0 0
1023 55 4 -2.4700000000000000e-02 -9.1666272577843007e+00 7.4291217957001026e+00 1.6101128137647311e+01 1 0 0
619 35 2 2.4700000000000000e-02 -5.6703245632777088e+00 7.3613078746205911e+00 1.6885058138059630e+01 1 0 0
1015 55 3 0.0000000000000000e+00 -8.5367470387450020e+00 8.8097046820377063e+00 1.8052492072018669e+01 1 0 0
1494 54 6 0.0000000000000000e+00 -4.5496063696991094e+00 8.4234030298601166e+00 1.0309756493030864e+01 1 0 0
1003 54 2 2.4700000000000000e-02 -6.8436376176317415e+00 7.2617066774864520e+00 1.2953038724808160e+01 1 0 0
1495 55 6 0.0000000000000000e+00 -8.8325918168326272e+00 8.2815611230397081e+00 1.7642610388074928e+01 1 0 0
999 54 1 -2.4700000000000000e-02 -6.0515158074844013e+00 7.6419525973346998e+00 1.2255265980813917e+01 1 0 0
602 34 2 2.4700000000000000e-02 -1.5968967058588568e+00 7.7126893322055938e+00 1.1025899807449280e+01 1 0 0
1024 55 3 0.0000000000000000e+00 -9.1585735471936509e+00 7.6648168620047299e+00 1.7519719027252844e+01 1 0 0
267 15 2 2.4700000000000000e-02 -8.0900861721010813e+00 1.7435590354211408e+00 1.4558189894019453e+01 1 0 0
4415 235 3 0.0000000000000000e+00 -5.1052080912792821e+00 2.0193594840998703e-02 1.8201370739047039e+01 1 1 0
1027 55 2 2.4700000000000000e-02 -8.4413967436955328e+00 8.2522137457650189e+00 1.4265350815325331e+01 1 0 0
995 54 7 -2.4700000000000000e-02 -5.4233648348159456e+00 8.8756748148670308e+00 1.2649583219028202e+01 1 0 0
251 14 2 2.4700000000000000e-02 -6.3184086155284778e+00 5.5532879249280770e-02 1.0829269396496894e+01 1 0 0
268 15 2 2.4700000000000000e-02 -9.5315736020531574e+00 3.9934494975273083e-01 1.6303079424073847e+01 1 0 0
1100 59 2 2.4700000000000000e-02 -1.0628697633374227e+00 6.5635414486758821e+00 1.5864407379840920e+01 1 0 0
280 16 1 -2.4700000000000000e-02 -1.2774656713153448e+01 2.4664764557297914e+00 2.3146254541240552e+01 1 0 0
4436 236 2 2.4700000000000000e-02 -9.0160655296571299e+00 -3.4866119848155859e-02 2.2218509774555340e+01 1 1 0
258 15 2 2.4700000000000000e-02 -9.8527623869166270e+00 3.2325995605821607e+00 2.1441442379642631e+01 1 0 0
634 36 4 -2.4700000000000000e-02 -1.0179314344136110e+01 6.3861317643075663e+00 2.6150580581290463e+01 1 0 0
4433 236 3 0.0000000000000000e+00 -9.5782718110603184e+00 2.6426648033718157e-02 2.5587813670182417e+01 1 1 0
257 15 1 -2.4700000000000000e-02 -1.0315775125281331e+01 1.6737045486034450e+00 2.0043978178096843e+01 1 0 0
284 16 1 -2.4700000000000000e-02 -1.2283965836136666e+01 3.6439134418753159e+00 2.3585980634265432e+01 1 0 0
279 16 2 2.4700000000000000e-02 -1.4835127405600616e+01 6.9956322238091384e-01 2.8359778829196092e+01 1 0 0
638 36 2 2.4700000000000000e-02 -1.0552810230761622e+01 7.3557071690837876e+00 2.5880470208219439e+01 1 0 0
288 16 2 2.4700000000000000e-02 -1.1753607404265130e+01 4.3347167663785200e+00 2.2902603572693572e+01 1 0 0
271 16 7 -2.4700000000000000e-02 -1.3897750496522459e+01 2.6170447665856824e+00 2.8068162728580024e+01 1 0 0
272 16 5 -2.4700000000000000e-02 -1.3210400518723825e+01 3.4157818604745360e+00 2.7160823822180433e+01 1 0 0
273 16 3 0.0000000000000000e+00 -1.2993464146284513e+01 3.0488058425564759e+00 2.5828736918603866e+01 1 0 0
274 16 4 -2.4700000000000000e-02 -1.2328390095150683e+01 3.9261602544991665e+00 2.4931517179668059e+01 1 0 0
275 16 1 -2.4700000000000000e-02 -1.4340810422356153e+01 1.3707472720913805e+00 2.7610499710949224e+01 1 0 0
1047 56 2 2.4700000000000000e-02 -1.4927861578715723e+01 6.1265762416877791e+00 2.6050045867518474e+01 1 0 0
277 16 2 2.4700000000000000e-02 -1.2939236213964644e+01 4.4314501075899360e+00 2.7485658791162077e+01 1 0 0
278 16 2 2.4700000000000000e-02 -1.1900137580822800e+01 4.8340794029349876e+00 2.5327903903117381e+01 1 0 0
261 15 2 2.4700000000000000e-02 -1.1026614850130141e+01 1.0948472065149959e+00 2.0612362157195690e+01 1 0 0
282 16 3 0.0000000000000000e+00 -1.3503847173951467e+01 1.8244730808842589e+00 2.5348600706696637e+01 1 0 0
1043 56 4 -2.4700000000000000e-02 -1.4396468347412172e+01 7.1152402020113596e+00 2.6239617861859806e+01 1 0 0
736 16 6 0.0000000000000000e+00 -1.3235451841474269e+01 2.3618077652938716e+00 2.5725816961447880e+01 1 0 0
632 36 5 -2.4700000000000000e-02 -9.2309730870111224e+00 6.0968569096437708e+00 2.3871019040584606e+01 1 0 0
636 36 2 2.4700000000000000e-02 -8.0015910383188498e+00 5.8688334468771108e+00 2.2127847658809362e+01 1 0 0
4438 236 2 2.4700000000000000e-02 -1.0665487210632580e+01 1.7667098583375809e+00 2.6252866274210596e+01 1 1 0
253 15 7 -2.4700000000000000e-02 -9.6884943320484318e+00 2.8876970541242653e+00 2.0416910199199709e+01 1 0 0
623 35 4 -2.4700000000000000e-02 -4.8230103967786002e+00 3.9884664219577379e+00 2.0003591563379025e+01 1 0 0
627 35 2 2.4700000000000000e-02 -5.5498699247359520e+00 4.2847454980981263e+00 2.1997866178263024e+01 1 0 0
644 36 1 -2.4700000000000000e-02 -1.0403017957808576e+01 5.9371477414936829e+00 2.7497502359361590e+01 1 0 0
631 36 7 -2.4700000000000000e-02 -8.3448662425884805e+00 5.4498392619888936e+00 2.3053632267519543e+01 1 0 0
635 36 1 -2.4700000000000000e-02 -7.8158376489926358e+00 4.2051077232068641e+00 2.3476650801406457e+01 1 0 0
628 35 2 2.4700000000000000e-02 -4.4518499569112207e+00 2.9892339394618186e+00 2.0126748502946473e+01 1 0 0
639 36 2 2.4700000000000000e-02 -7.0713028960301765e+00 3.6573123153985558e+00 2.2887938050854935e+01 1 0 0
283 16 4 -2.4700000000000000e-02 -1.4089602176321511e+01 9.5884312531672578e-01 2.6268941376059050e+01 1 0 0
4430 235 2 2.4700000000000000e-02 -6.6206675832099533e+00 1.1014729036197755e+00 2.0950844602356192e+01 1 1 0
4444 236 1 -2.4700000000000000e-02 -1.0133557780874156e+01 4.2160367635033447e-01 2.7895038365954171e+01 1 1 0
1042 56 3 0.0000000000000000e+00 -1.3636507369058769e+01 7.8152017211662370e+00 2.5286614851320220e+01 1 0 0
633 36 3 0.0000000000000000e+00 -9.5108100646856464e+00 5.5839892739430725e+00 2.5195898780992941e+01 1 0 0
4437 236 2 2.4700000000000000e-02 -1.0142200320264209e+01 1.2912343552303798e+00 2.4031301162762411e+01 1 1 0
640 36 1 -2.4700000000000000e-02 -9.7867566450124066e+00 4.7489763547483523e+00 2.7923941350960671e+01 1 0 0
641 36 4 -2.4700000000000000e-02 -8.9689245600415717e+00 4.0104823247923189e+00 2.7037507122118090e+01 1 0 0
642 36 3 0.0000000000000000e+00 -8.8937487894518679e+00 4.4257732498991746e+00 2.5680618133391363e+01 1 0 0
643 36 4 -2.4700000000000000e-02 -8.0788205835594340e+00 3.7139213867650218e+00 2.4764561240268833e+01 1 0 0
622 35 1 -2.4700000000000000e-02 -5.4279961018939780e+00 4.7033004730035026e+00 2.1002324167997966e+01 1 0 0
646 36 2 2.4700000000000000e-02 -8.4024521984405673e+00 3.1763825975744973e+00 2.7386656814528443e+01 1 0 0
647 36 2 2.4700000000000000e-02 -7.6543280591499929e+00 2.7797497419917594e+00 2.5093258478147039e+01 1 0 0
756 36 6 0.0000000000000000e+00 -9.3044172745839866e+00 4.9448647590578823e+00 2.5367534393152045e+01 1 0 0
281 16 4 -2.4700000000000000e-02 -1.3376608991359424e+01 1.4692609346656198e+00 2.3987373705681946e+01 1 0 0
4434 236 4 -2.4700000000000000e-02 -1.0208410272681588e+01 8.2753427263732426e-01 2.6573592406717914e+01 1 1 0
259 15 2 2.4700000000000000e-02 -8.4077354909773341e+00 4.4304439176539683e+00 1.9827962493222078e+01 1 0 0
287 16 2 2.4700000000000000e-02 -1.4420327335343920e+01 2.2444993089327542e-02 2.5787130292568737e+01 1 0 0
648 36 2 2.4700000000000000e-02 -1.0954945973994619e+01 6.6062229678218536e+00 2.8168608095634053e+01 1 0 0
4432 236 5 -2.4700000000000000e-02 -9.5619872014172067e+00 4.8060500372422549e-01 2.4270444142838031e+01 1 1 0
1039 56 2 2.4700000000000000e-02 -1.4945368883061048e+01 7.0205023329501204e+00 2.8338432290005063e+01 1 0 0
626 35 1 -2.4700000000000000e-02 -6.0586232849391681e+00 5.9492855571504348e+00 2.0632979113894557e+01 1 0 0
4448 236 2 2.4700000000000000e-02 -1.0607855426192087e+01 1.0731522789526828e+00 2.8585240496114192e+01 1 1 0
4426 235 1 -2.4700000000000000e-02 -6.2081362080126237e+00 4.1164791370265685e-01 2.0288422922832922e+01 1 1 0
276 16 2 2.4700000000000000e-02 -1.4082295548872253e+01 2.9100378849936988e+00 2.9099257388739364e+01 1 0 0
630 35 2 2.4700000000000000e-02 -6.7167543910236569e+00 6.4871191016178553e+00 2.1280881490530827e+01 1 0 0
1021 55 2 2.4700000000000000e-02 -1.0436588730354520e+01 6.4218427634160093e+00 2.0436822929888454e+01 1 0 0
637 36 2 2.4700000000000000e-02 -9.6702566754250476e+00 7.0531141278999083e+00 2.3621923799896962e+01 1 0 0
645 36 2 2.4700000000000000e-02 -9.8718311478084129e+00 4.5566209060925384e+00 2.8996273038062402e+01 1 0 0
1045 56 2 2.4700000000000000e-02 -1.2741737739954964e+01 7.5580298824178778e+00 2.1986681838561580e+01 1 0 0
1017 55 1 -2.4700000000000000e-02 -9.7932168745544121e+00 6.9479159518706144e+00 1.9749419817040923e+01 1 0 0
1035 56 1 -2.4700000000000000e-02 -1.4525446793885074e+01 7.6647546630486989e+00 2.7517129207169187e+01 1 0 0
1018 55 2 2.4700000000000000e-02 -9.1613548162892258e+00 8.1505010082118847e+00 2.1382167020118509e+01 1 0 0
1496 56 6 0.0000000000000000e+00 -1.3404846833877285e+01 8.4364563581393419e+00 2.5438989826900432e+01 1 0 0
1040 56 1 -2.4700000000000000e-02 -1.2827826082415848e+01 7.9757453396098610e+00 2.2951140145520849e+01 1 0 0
1041 56 4 -2.4700000000000000e-02 -1.3457977269820084e+01 7.2957537333833073e+00 2.3980568843625129e+01 1 0 0
1407 76 2 2.4700000000000000e-02 -8.1903075400205054e+00 8.6621394356887915e+00 2.4382794771423690e+01 1 0 0
1013 55 7 -2.4700000000000000e-02 -9.2092876852991754e+00 8.0878990765149936e+00 2.0272791906145144e+01 1 0 0
231 13 2 2.4700000000000000e-02 -1.6244216299210155e+01 2.3856693979640475e+00 2.9383837606909484e+01 1 0 -1
1031 56 7 -2.4700000000000000e-02 -1.3875777261326036e+01 8.8954345348775146e+00 2.7837909284383578e+01 1 0 0
286 16 2 2.4700000000000000e-02 -1.3666212945851944e+01 4.8027604940805213e-01 2.3717123941780812e+01 1 0 0
1063 57 2 2.4700000000000000e-02 -8.9951920666308425e+00 7.9185640880508803e+00 2.9304728190538594e+01 1 0 -1
285 16 2 2.4700000000000000e-02 -1.2624329457078035e+01 2.1933004333469248e+00 2.2107168599028324e+01 1 0 0
979 53 3 0.0000000000000000e+00 -1.2048400252178371e-01 9.1172281002074538e+00 3.2864706089398363e+00 1 0 0
980 53 4 -2.4700000000000000e-02 5.8443477091697393e-01 9.9887513567836166e+00 2.5279392355484616e+00 1 0 0
984 53 2 2.4700000000000000e-02 1.1545635358655528e+00 1.0818409477190507e+01 2.9161734409682905e+00 1 0 0
1361 74 2 2.4700000000000000e-02 -1.0436022180837314e+00 1.3271184835843066e+01 8.4317284848881879e+00 1 0 0
990 53 1 -2.4700000000000000e-02 4.3360300267553031e-01 1.0085725168280689e+01 1.1511949828456474e+00 1 0 0
2253 93 6 0.0000000000000000e+00 -3.8894597961674737e-01 1.4270126909018423e+01 3.0002035878025008e+00 1 0 0
994 53 2 2.4700000000000000e-02 8.8453637727631795e-01 1.0871783630348986e+01 5.8159413135794968e-01 1 0 0
1741 93 1 -2.4700000000000000e-02 -1.6078969651761652e+00 1.3440762173927181e+01 4.9173496735683466e+00 1 0 0
978 53 5 -2.4700000000000000e-02 -1.7267015021233600e-01 9.2727043674310643e+00 4.7165995374862923e+00 1 0 0
983 53 2 2.4700000000000000e-02 1.6965032984964123e-01 1.0186655295686039e+01 5.1288953314758245e+00 1 0 0
1012 54 2 2.4700000000000000e-02 -2.2641456760370695e+00 9.4829861484274538e+00 7.7195060857650262e+00 1 0 0
1363 74 2 2.4700000000000000e-02 1.2838205062718364e+00 9.7002352606050763e+00 7.7677229927751341e+00 1 0 0
1745 93 2 2.4700000000000000e-02 -2.2379691295623587e+00 1.2846989880144976e+01 5.5690985350705935e+00 1 0 0
1764 94 1 -2.4700000000000000e-02 -4.5485112219390302e+00 1.4744955989079202e+01 7.8736243518535804e+00 1 0 0
1338 73 5 -2.4700000000000000e-02 3.6669491398864187e+00 1.2256923617015268e+01 1.6715318674391675e+00 1 0 0
1339 73 3 0.0000000000000000e+00 3.4407415290530361e+00 1.1911149921952774e+01 3.0027863250129019e+00 1 0 0
1340 73 4 -2.4700000000000000e-02 2.8175827277113217e+00 1.2778868096510790e+01 3.9270094373941600e+00 1 0 0
1341 73 1 -2.4700000000000000e-02 4.8568485757385451e+00 1.0231138530686524e+01 1.2542332785172361e+00 1 0 0
1337 73 7 -2.4700000000000000e-02 4.2885823252123592e+00 1.1429325382898117e+01 7.8410513806400628e-01 1 0 0
1343 73 2 2.4700000000000000e-02 3.3088404862951344e+00 1.3162153429955469e+01 1.1938100723228098e+00 1 0 0
1348 73 3 0.0000000000000000e+00 3.9088984123521313e+00 1.0662821963857791e+01 3.4577614704091086e+00 1 0 0
1349 73 4 -2.4700000000000000e-02 4.6398601087115381e+00 9.8019539299273113e+00 2.5888084124580364e+00 1 0 0
1513 73 6 0.0000000000000000e+00 3.7090275440418723e+00 1.1274640475484780e+01 3.2614595013118870e+00 1 0 0
1356 74 5 -2.4700000000000000e-02 -6.6577789401058141e-01 1.2343477754147466e+01 8.8454769712468568e+00 1 0 0
1354 73 2 2.4700000000000000e-02 2.2737921576953162e+00 1.3116140768103255e+01 6.0163658270063722e+00 1 0 0
1346 73 1 -2.4700000000000000e-02 2.9553775549842887e+00 1.1129123759719418e+01 5.6474520260979757e+00 1 0 0
1347 73 4 -2.4700000000000000e-02 3.6520012467670675e+00 1.0247764964816074e+01 4.7906696626023137e+00 1 0 0
1350 73 1 -2.4700000000000000e-02 2.6397338025797144e+00 1.2406910502713730e+01 5.2546438135416231e+00 1 0 0
1351 73 2 2.4700000000000000e-02 2.6738447551803266e+00 1.0797477516261177e+01 6.6593728881037864e+00 1 0 0
1352 73 2 2.4700000000000000e-02 4.0714016282255283e+00 9.2856846446169943e+00 5.0710688821935257e+00 1 0 0
1345 73 2 2.4700000000000000e-02 5.2659105927846372e+00 9.4968563240999355e+00 5.8620878512873853e-01 1 0 0
1355 74 7 -2.4700000000000000e-02 8.0465802037653411e-02 1.1477931439618644e+01 7.9651498095254780e+00 1 0 0
1359 74 1 -2.4700000000000000e-02 6.8049796926702832e-01 1.0344878422765129e+01 8.4114606838929067e+00 1 0 0
1360 74 2 2.4700000000000000e-02 2.0530212755405852e-01 1.1688048747174092e+01 6.9290299961839841e+00 1 0 0
1747 93 4 -2.4700000000000000e-02 -6.0506225035181060e-01 1.3215953482949464e+01 1.2819107397868723e+00 1 0 0
1748 93 3 0.0000000000000000e+00 -7.6204480468793878e-01 1.3794583735708562e+01 2.5869182306164578e+00 1 0 0
1765 94 4 -2.4700000000000000e-02 -5.2230337676300254e+00 1.3757797753275158e+01 8.6349451277782592e+00 1 0 0
1746 93 1 -2.4700000000000000e-02 2.6518318571366062e-01 1.3829406131889119e+01 4.4098106527552627e-01 1 0 0
2102 113 2 2.4700000000000000e-02 4.5818075115437535e+00 1.7624930471161662e+01 4.0487641717957989e-02 1 0 0
1749 93 4 -2.4700000000000000e-02 -1.4723122800903172e+00 1.3042730154842298e+01 3.5849210379083187e+00 1 0 0
2123 114 2 2.4700000000000000e-02 1.0936639286524104e+00 1.5116228360984538e+01 7.5046233414609347e+00 1 0 0
1344 73 2 2.4700000000000000e-02 2.3819921651317943e+00 1.3681914348888531e+01 3.6428194749903948e+00 1 0 0