LAMMPS (15 May 2015)
Reading data file ...
  triclinic box = (-0.107635 -0.0404339 -0.357111) to (41.3876 35.9384 29.5551) with tilt (-0.0672341 -17.0362 -0.0417078)
  5 by 4 by 3 MPI processor grid
  reading atoms ...
  4560 atoms
  reading velocities ...
  4560 velocities
  scanning bonds ...
  3 = max bonds/atom
  scanning angles ...
  3 = max angles/atom
  scanning dihedrals ...
  8 = max dihedrals/atom
  scanning impropers ...
  1 = max impropers/atom
  reading bonds ...
  5040 bonds
  reading angles ...
  7200 angles
  reading dihedrals ...
  10560 dihedrals
  reading impropers ...
  2400 impropers
Finding 1-2 1-3 1-4 neighbors ...
 Special bond factors lj:   0          0          0         
 Special bond factors coul: 0          0          0         
  4 = max # of 1-2 neighbors
  8 = max # of 1-3 neighbors
  20 = max # of 1-4 neighbors
  16 = max # of special neighbors
4560 atoms in group all
720 atoms in group C
480 atoms in group S
1920 atoms in group H
720 atoms in group Si
240 atoms in group Na
240 atoms in group Ba
240 atoms in group O
4560 atoms in group naphthalene
1200 atoms in group fixed
960 atoms in group CO
Setting atom values ...
  720 settings made for charge
Setting atom values ...
  720 settings made for charge
Setting atom values ...
  1920 settings made for charge
Setting atom values ...
  480 settings made for charge
Setting atom values ...
  240 settings made for charge
Setting atom values ...
  240 settings made for charge
Setting atom values ...
  240 settings made for charge
Finding 1-2 1-3 1-4 neighbors ...
 Special bond factors lj:   0          0          0.5       
 Special bond factors coul: 0          0          0.5       
  4 = max # of 1-2 neighbors
  8 = max # of 1-3 neighbors
  20 = max # of 1-4 neighbors
  16 = max # of special neighbors
PPPM initialization ...
  G vector (1/distance) = 0.253736
  grid = 15 15 16
  stencil order = 5
  estimated absolute RMS force accuracy = 0.000170568
  estimated relative force accuracy = 5.13659e-07
  using double precision FFTs
  3d grid and FFT values/proc = 960 90
Neighbor list info ...
  6 neighbor list requests
  update every 1 steps, delay 0 steps, check yes
  master list distance cutoff = 12
Setting up run ...
Memory usage per processor = 14.0432 Mbytes
Step Temp Density PotEng E_vdwl E_tail E_coul E_long Press Volume Xy Xz Yz E_mol E_bond E_angle E_dihed 14[1] 14[2] 14[3] msd[4] msd2[4] msd3[4] msd4[4] naphthal Cella Cellb Cellc CellAlpha CellBeta CellGamma 2 27[1] 27[2] 27[3] 
       0          298    1.2509986    3487.8576            0            0    98.420025   -109.39548   -15879.314    44657.537 -0.067234084   -17.036218 -0.041707817     3498.833    1521.0094     935.4334    889.67826    28.379601    18.846571    14.337846 2.3535127e-29 2.3910021e-29 2.2534249e-29 2.2900766e-29          298     41.49527    35.978931    34.423473    90.016431    119.66323    90.107069 7.2177013e-23    28.379761    18.846182    14.337739 
   10000    301.29528    1.2509986    3637.1141            0            0    99.138297   -109.35719   -9337.1927    44657.537 -0.067234084   -17.036218 -0.041707817     3647.333    1519.1514    986.42259    975.86177    28.380218    18.844058     14.33779 0.00030350106 0.00030324308  0.000312613  0.000312369    301.29528     41.49527    35.978931    34.423473    90.016431    119.66323    90.107069    910.50317    28.379697    18.845806    14.338074 
   20000    292.69928    1.2509986    3549.9998            0            0    99.131511   -109.37693    -6954.157    44657.537 -0.067234084   -17.036218 -0.041707817    3560.2452    1522.2567    982.49226       900.76    28.379023    18.845621    14.337689 0.00031227985 0.00031202878 0.00031867451 0.00031819915    292.69928     41.49527    35.978931    34.423473    90.016431    119.66323    90.107069    936.83956    28.379938    18.845778    14.337977 
   30000    298.87436    1.2509986    3517.5075            0            0    99.027544   -109.39146   -7891.3656    44657.537 -0.067234084   -17.036218 -0.041707817    3527.8715    1455.1783    987.90613    925.68689    28.378344    18.844264     14.33802 0.00033770467 0.00033753748 0.00034993225 0.00034962677    298.87436     41.49527    35.978931    34.423473    90.016431    119.66323    90.107069     1013.114    28.379788    18.845799    14.337879 
   40000    299.08153    1.2509986    3465.3465            0            0    99.083493   -109.40009   -7507.8327    44657.537 -0.067234084   -17.036218 -0.041707817    3475.6631    1454.7167     960.0973    907.41449    28.378816    18.845658    14.336445 0.00032277716 0.00032223374 0.00032882562 0.00032852539    299.08153     41.49527    35.978931    34.423473    90.016431    119.66323    90.107069    968.33148    28.380324    18.845727    14.337599 
   50000    297.93248    1.2509986    3613.6658            0            0     99.01208   -109.38119   -9319.2596    44657.537 -0.067234084   -17.036218 -0.041707817    3624.0349    1535.9894    990.40748    941.98184    28.380374    18.845342    14.338249 0.00034312569 0.00034294756 0.00035060448 0.00035029127    297.93248     41.49527    35.978931    34.423473    90.016431    119.66323    90.107069    1029.3771    28.379978    18.846537    14.337809 
   60000    292.91012    1.2509986    3588.2522            0            0     98.98089   -109.37762   -9119.8153    44657.537 -0.067234084   -17.036218 -0.041707817     3598.649     1540.851    997.71288    901.62393    28.379123    18.847011    14.337379 0.00033837656 0.00033798871 0.00033802577 0.00033767154    292.91012     41.49527    35.978931    34.423473    90.016431    119.66323    90.107069    1015.1297    28.380017    18.846612    14.337368 
   70000    304.80976    1.2509986    3541.6451            0            0     99.00956   -109.36728   -7990.7711    44657.537 -0.067234084   -17.036218 -0.041707817    3552.0028    1518.5507    979.90965    904.69676    28.380087    18.845522    14.337449 0.00035678667 0.00035616052 0.00037040525 0.00036964051    304.80976     41.49527    35.978931    34.423473    90.016431    119.66323    90.107069      1070.36    28.380053    18.846815    14.337364 
   80000    299.38469    1.2509986    3590.2163            0            0    98.974928   -109.41267   -8521.2835    44657.537 -0.067234084   -17.036218 -0.041707817     3600.654    1559.4747    988.59015    898.38642    28.378875     18.84461    14.337314 0.00032565351 0.00032542153 0.00033485321 0.00033473469    299.38469     41.49527    35.978931    34.423473    90.016431    119.66323    90.107069    976.96052    28.379794    18.845879    14.338112 
   90000    302.56625    1.2509986    3574.0707            0            0    99.103796   -109.37878   -7923.7902    44657.537 -0.067234084   -17.036218 -0.041707817    3584.3457    1514.1939    1007.8933    909.78347    28.378956    18.845068    14.337358 0.00033002627 0.00032993021 0.00033494632 0.00033470798    302.56625     41.49527    35.978931    34.423473    90.016431    119.66323    90.107069    990.07882    28.379662    18.846134    14.337449 
  100000    294.96632    1.2509986    3508.1224            0            0    99.087684   -109.36975   -6848.7498    44657.537 -0.067234084   -17.036218 -0.041707817    3518.4045    1524.6925     955.4478    886.40635    28.379566     18.84588    14.337999 0.00034741191 0.00034715832 0.00035948527 0.00035890328    294.96632     41.49527    35.978931    34.423473    90.016431    119.66323    90.107069    1042.2357    28.379536    18.846481    14.338076 
  110000    297.30404    1.2509986    3627.8642            0            0    99.031233   -109.38929   -8586.0864    44657.537 -0.067234084   -17.036218 -0.041707817    3638.2223    1538.2613    1009.4889    928.02945    28.381109     18.84564    14.338234 0.00033483308 0.00033476946 0.00033997815 0.00033983808    297.30404     41.49527    35.978931    34.423473    90.016431    119.66323    90.107069    1004.4992    28.379855    18.845949    14.337718 
  120000    298.30183    1.2509986    3507.0252            0            0    99.105108   -109.37812    -9418.236    44657.537 -0.067234084   -17.036218 -0.041707817    3517.2982    1473.3012    982.11465    902.42457    28.376902    18.845269    14.336503 0.00034120888 0.00034107978 0.00034901943 0.00034886769    298.30183     41.49527    35.978931    34.423473    90.016431    119.66323    90.107069    1023.6266    28.379522    18.846022    14.337523 
  130000    297.90741    1.2509986    3480.7215            0            0    98.934925   -109.39951   -7495.9352    44657.537 -0.067234084   -17.036218 -0.041707817     3491.186    1449.5187    985.75673    902.99459    28.379463    18.846071     14.33676 0.00032622663 0.00032598757 0.00032848024 0.0003283765    297.90741     41.49527    35.978931    34.423473    90.016431    119.66323    90.107069    978.67989    28.380058    18.846353    14.338088 
  140000    300.14607    1.2509986    3508.5629            0            0    98.996929   -109.39837   -9012.6845    44657.537 -0.067234084   -17.036218 -0.041707817    3518.9644    1462.1869    968.43603    928.15962    28.380103    18.846034    14.337063 0.00035093155 0.00035078341 0.00035187172 0.00035184953    300.14607     41.49527    35.978931    34.423473    90.016431    119.66323    90.107069    1052.7946    28.379608    18.845839    14.337655 
  150000    302.97537    1.2509986    3532.0422            0            0    99.049984   -109.37109   -8190.3434    44657.537 -0.067234084   -17.036218 -0.041707817    3542.3633    1473.6652    1007.8995    906.16262     28.38226     18.84637    14.338017 0.0003452402 0.00034512125 0.00035250465 0.0003523005    302.97537     41.49527    35.978931    34.423473    90.016431    119.66323    90.107069    1035.7206    28.379728     18.84649     14.33789 
  160000    298.96143    1.2509986    3589.4296            0            0    99.142255   -109.36822   -9230.1536    44657.537 -0.067234084   -17.036218 -0.041707817    3599.6556     1521.876    967.68617    946.87741    28.380265    18.845189    14.337837 0.00033882609 0.00033850078 0.00034790371 0.00034767324    298.96143     41.49527    35.978931    34.423473    90.016431    119.66323    90.107069    1016.4783    28.380133    18.845839    14.338002 
  170000    295.81842    1.2509986    3600.0003            0            0    98.874153   -109.40431   -8961.3531    44657.537 -0.067234084   -17.036218 -0.041707817    3610.5304     1521.705    1008.4477    921.07819    28.379588    18.845673    14.337722 0.00035753733 0.00035699331 0.00037063715 0.00036946476    295.81842     41.49527    35.978931    34.423473    90.016431    119.66323    90.107069     1072.612    28.379031    18.846219    14.337639 
  180000    297.06793    1.2509986     3446.142            0            0    98.936148   -109.40374   -7260.8677    44657.537 -0.067234084   -17.036218 -0.041707817    3456.6096    1452.4584    959.28488    887.51438    28.377307     18.84672    14.336881 0.0003579937 0.00035768655 0.00036499931 0.00036469084    297.06793     41.49527    35.978931    34.423473    90.016431    119.66323    90.107069    1073.9811    28.379967    18.846587    14.337421 
  190000    295.17767    1.2509986    3543.4191            0            0    98.737129    -109.3891   -7612.1251    44657.537 -0.067234084   -17.036218 -0.041707817    3554.0711    1473.3541    964.24035    950.46344    28.380776    18.847041    14.337645 0.0003572119 0.00035681062 0.00036856258 0.00036826127    295.17767     41.49527    35.978931    34.423473    90.016431    119.66323    90.107069    1071.6357    28.379179     18.84643    14.337783 
  200000    302.33665    1.2509986     3488.384            0            0    99.128978   -109.39204    -9091.174    44657.537 -0.067234084   -17.036218 -0.041707817    3498.6471    1449.1698    970.36729    919.67098    28.378784    18.845865    14.336551 0.00034335735 0.00034304262 0.00035162878 0.00035116532    302.33665     41.49527    35.978931    34.423473    90.016431    119.66323    90.107069     1030.072    28.379414    18.846601    14.337603 
  210000    302.53992    1.2509986     3478.145            0            0    98.923709   -109.38418   -7048.1566    44657.537 -0.067234084   -17.036218 -0.041707817    3488.6054    1442.9561    988.96121    901.49624    28.379051    18.846806    14.337473 0.00034358999 0.00034288418 0.00035030455 0.00034943742    302.53992     41.49527    35.978931    34.423473    90.016431    119.66323    90.107069      1030.77    28.379154     18.84614    14.338319 
  220000    291.65604    1.2509986    3479.7597            0            0    98.983907   -109.39325   -6802.5513    44657.537 -0.067234084   -17.036218 -0.041707817    3490.1691    1450.1167    968.40864    915.44994    28.378032    18.844087     14.33645 0.00034846444 0.00034819799 0.00035775914 0.00035720098    291.65604     41.49527    35.978931    34.423473    90.016431    119.66323    90.107069    1045.3933    28.379586    18.845793    14.337448 
  230000    293.54356    1.2509986    3491.1648            0            0    99.154945   -109.34787   -7406.5503    44657.537 -0.067234084   -17.036218 -0.041707817    3501.3578    1507.1586    949.19714    895.16505    28.378967    18.846446    14.336922 0.00034165908 0.00034139981 0.00035285625 0.00035256923    293.54356     41.49527    35.978931    34.423473    90.016431    119.66323    90.107069    1024.9772    28.379472    18.846146    14.337321 
  240000    290.43847    1.2509986    3586.1176            0            0    98.995116   -109.37418   -7782.8959    44657.537 -0.067234084   -17.036218 -0.041707817    3596.4967    1517.1817    983.44897    938.74536    28.379495    18.844841    14.337802 0.00035500712 0.00035482389 0.00035940116 0.00035920116    290.43847     41.49527    35.978931    34.423473    90.016431    119.66323    90.107069    1065.0213    28.379993    18.845947    14.338012 
  250000    297.49455    1.2509986    3437.7443            0            0    99.032355   -109.38644   -9397.5728    44657.537 -0.067234084   -17.036218 -0.041707817    3448.0984    1459.3225    949.50769    883.50947    28.378092    18.845223    14.336899 0.00033244424 0.00033226925 0.00033948823 0.00033903307    297.49455     41.49527    35.978931    34.423473    90.016431    119.66323    90.107069    997.33273    28.379375    18.846097    14.337603 
  260000     298.8959    1.2509986    3537.7445            0            0    99.127456   -109.37308   -7876.7307    44657.537 -0.067234084   -17.036218 -0.041707817    3547.9901    1500.5088    994.18424    900.22015    28.377506    18.845294    14.336422 0.00036612019 0.00036523918 0.00037217723 0.00037135046     298.8959     41.49527    35.978931    34.423473    90.016431    119.66323    90.107069    1098.3606     28.37919    18.846495    14.337063 
  270000    298.74979    1.2509986    3490.2352            0            0    99.006527   -109.39408   -8531.6312    44657.537 -0.067234084   -17.036218 -0.041707817    3500.6227    1524.4355     938.6242    884.96625     28.37844    18.844891    14.337366 0.00033476185 0.00033469827 0.00033840193 0.00033823186    298.74979     41.49527    35.978931    34.423473    90.016431    119.66323    90.107069    1004.2856    28.379603    18.846155    14.337933 
  280000    293.76628    1.2509986    3509.4064            0            0    98.926375   -109.38678   -8796.2051    44657.537 -0.067234084   -17.036218 -0.041707817    3519.8668    1499.9809    976.95503    885.38811    28.380858    18.846469    14.338288 0.00034391866 0.00034357779 0.00034712794 0.0003468418    293.76628     41.49527    35.978931    34.423473    90.016431    119.66323    90.107069     1031.756    28.379178    18.846209    14.337729 
  290000    299.20058    1.2509986    3527.5727            0            0    98.905001      -109.38   -8126.8165    44657.537 -0.067234084   -17.036218 -0.041707817    3538.0477    1505.0574    980.40185    895.90608    28.380388    18.844966    14.337305 0.00035757333 0.00035750076 0.00036171364 0.00036160729    299.20058     41.49527    35.978931    34.423473    90.016431    119.66323    90.107069      1072.72    28.380022    18.846201    14.337675 
  300000    297.99144    1.2509986    3433.0752            0            0    99.098481   -109.37761   -7139.1072    44657.537 -0.067234084   -17.036218 -0.041707817    3443.3543    1452.6141    939.88923     897.4474    28.380453    18.845601    14.337845 0.00036077072 0.00036059341 0.00036740981 0.00036722782    297.99144     41.49527    35.978931    34.423473    90.016431    119.66323    90.107069    1082.3122    28.379407    18.846146    14.337514 
  310000    299.44159    1.2509986    3503.0131            0            0    99.024302   -109.39739   -6963.4342    44657.537 -0.067234084   -17.036218 -0.041707817    3513.3862    1474.1941    975.87167    904.26596    28.379331    18.846216    14.337584 0.00037009857 0.00036951201 0.00037984202 0.0003792233    299.44159     41.49527    35.978931    34.423473    90.016431    119.66323    90.107069    1110.2957    28.379341    18.845616     14.33744 
  320000    298.06339    1.2509986    3496.3242            0            0    98.995349   -109.39162   -7763.4722    44657.537 -0.067234084   -17.036218 -0.041707817    3506.7205    1493.3018     981.4252    878.80234    28.378126    18.846241    14.336908 0.00035696383 0.00035685394 0.00035954043 0.00035943032    298.06339     41.49527    35.978931    34.423473    90.016431    119.66323    90.107069    1070.8915    28.379668     18.84596    14.337511 
  330000     297.6658    1.2509986    3455.9657            0            0    99.134348   -109.36944   -8253.3363    44657.537 -0.067234084   -17.036218 -0.041707817    3466.2007    1477.7998    928.78629    907.60367    28.378883      18.8451    14.337397 0.00036112718 0.00036089512 0.00037020405 0.0003697889     297.6658     41.49527    35.978931    34.423473    90.016431    119.66323    90.107069    1083.3815    28.379782      18.8464    14.338168 
  340000    298.64017    1.2509986    3442.2786            0            0    99.188102    -109.3618   -7020.3124    44657.537 -0.067234084   -17.036218 -0.041707817    3452.4522    1474.9711    958.01957    867.38502    28.379458    18.844731    14.336778 0.00034857944 0.00034820294 0.00035432646 0.00035371709    298.64017     41.49527    35.978931    34.423473    90.016431    119.66323    90.107069    1045.7383    28.379881    18.846356    14.337163 
  350000       294.76    1.2509986    3577.0545            0            0    98.991743   -109.38456   -8403.2489    44657.537 -0.067234084   -17.036218 -0.041707817    3587.4473    1503.6994    1000.9773    921.52942    28.378138    18.846578    14.337589 0.00036893796 0.00036883159 0.00037227659 0.00037188691       294.76     41.49527    35.978931    34.423473    90.016431    119.66323    90.107069    1106.8139    28.379908    18.846161    14.338029 
  360000    299.79613    1.2509986    3415.3415            0            0    98.862692   -109.39117   -7574.9037    44657.537 -0.067234084   -17.036218 -0.041707817      3425.87    1442.0903    989.25827    851.40388    28.379021    18.844939    14.337439 0.00036814809 0.00036791857 0.00037464841 0.00037407581    299.79613     41.49527    35.978931    34.423473    90.016431    119.66323    90.107069    1104.4443    28.379619    18.845823    14.338023 
  370000    298.68617    1.2509986    3475.6479            0            0    98.958588   -109.38531   -9024.0559    44657.537 -0.067234084   -17.036218 -0.041707817    3486.0746    1467.8489    977.91809    891.60546    28.379473    18.845584    14.337934 0.00034966582 0.00034929708 0.00035102576  0.000350646    298.68617     41.49527    35.978931    34.423473    90.016431    119.66323    90.107069    1048.9975    28.379692    18.846362    14.338315 
  380000    295.53879    1.2509986    3490.5436            0            0    98.887153   -109.37661   -8955.7811    44657.537 -0.067234084   -17.036218 -0.041707817    3501.0331    1499.7181    1005.5086    846.58494    28.378459    18.845953    14.336445 0.0003549677 0.00035475665 0.00035718045 0.00035700202    295.53879     41.49527    35.978931    34.423473    90.016431    119.66323    90.107069    1064.9031    28.380189    18.846094    14.337598 
  390000    298.19105    1.2509986    3518.7531            0            0    98.779335   -109.40435   -7415.1216    44657.537 -0.067234084   -17.036218 -0.041707817    3529.3781    1509.7487    966.23143    896.61712    28.381259    18.845749    14.337934 0.00034396474 0.00034383435 0.00034384184 0.00034371803    298.19105     41.49527    35.978931    34.423473    90.016431    119.66323    90.107069    1031.8942    28.379628    18.845948    14.337498 
  400000    293.35821    1.2509986    3478.6117            0            0    99.012568   -109.39662   -9208.7808    44657.537 -0.067234084   -17.036218 -0.041707817    3488.9957    1483.4339    974.34781    878.68056    28.381282    18.845546    14.338344 0.00035726164 0.00035710212 0.00036090073 0.00036071888    293.35821     41.49527    35.978931    34.423473    90.016431    119.66323    90.107069    1071.7849    28.379957    18.846252     14.33808 
  410000    296.85347    1.2509986    3540.7595            0            0    98.975783    -109.3718   -7311.1538    44657.537 -0.067234084   -17.036218 -0.041707817    3551.1556    1516.6308    969.31104       908.61    28.380788    18.845801    14.338371 0.00035414257 0.00035378488 0.00034961831 0.00034941625    296.85347     41.49527    35.978931    34.423473    90.016431    119.66323    90.107069    1062.4277    28.379226    18.846375    14.337924 
  420000    300.98594    1.2509986      3549.64            0            0    98.964734   -109.39533   -7484.1154    44657.537 -0.067234084   -17.036218 -0.041707817    3560.0706    1518.9416    994.39265    898.54155    28.380566    18.845634    14.337976 0.00035545575 0.00035536773 0.00036338843 0.00036312324    300.98594     41.49527    35.978931    34.423473    90.016431    119.66323    90.107069    1066.3672    28.379735    18.846391    14.337948 
  430000    297.82256    1.2509986    3478.5719            0            0    98.927864   -109.38307   -6811.5058    44657.537 -0.067234084   -17.036218 -0.041707817    3489.0271    1466.7599    1006.0589    864.00927    28.379918    18.844986    14.337567 0.00036003763 0.00035960087 0.00036633874 0.00036558623    297.82256     41.49527    35.978931    34.423473    90.016431    119.66323    90.107069    1080.1129    28.380336    18.846032    14.338027 
  440000    296.91458    1.2509986    3555.9709            0            0    98.830251   -109.39618   -8307.6722    44657.537 -0.067234084   -17.036218 -0.041707817    3566.5369    1521.3925    955.77157    925.84698    28.380412    18.846529    14.338295 0.00035535425 0.00035521567 0.00035421333 0.00035412044    296.91458     41.49527    35.978931    34.423473    90.016431    119.66323    90.107069    1066.0628    28.379556    18.845872    14.337728 
  450000    296.66894    1.2509986    3518.6632            0            0    98.936924   -109.37548    -8107.306    44657.537 -0.067234084   -17.036218 -0.041707817    3529.1017    1522.8099    970.35575    883.59457    28.379459    18.845627    14.338415 0.00034470088  0.000344355 0.00035024581 0.00034987899    296.66894     41.49527    35.978931    34.423473    90.016431    119.66323    90.107069    1034.1026    28.379719    18.845674    14.338033 
  460000    300.42513    1.2509986    3391.7473            0            0    98.975979   -109.39059   -8129.1752    44657.537 -0.067234084   -17.036218 -0.041707817    3402.1619    1442.9255    935.73631    872.59194    28.378834    18.844835    14.338491 0.00036350393 0.00036326149 0.00036995133 0.00036979114    300.42513     41.49527    35.978931    34.423473    90.016431    119.66323    90.107069    1090.5118    28.379726     18.84585    14.338101 
  470000    299.60667    1.2509986    3437.9424            0            0    98.894663   -109.38369    -9178.188    44657.537 -0.067234084   -17.036218 -0.041707817    3448.4315    1483.6495    955.32153    860.76459    28.375322    18.846525    14.336407 0.00035116031  0.000351018 0.00034659222 0.00034630075    299.60667     41.49527    35.978931    34.423473    90.016431    119.66323    90.107069    1053.4809    28.379451    18.846318    14.337572 
  480000    302.24733    1.2509986     3477.657            0            0    99.049257    -109.3829   -7555.9023    44657.537 -0.067234084   -17.036218 -0.041707817    3487.9907    1484.8572    966.53566    882.99994    28.377569    18.845696    14.338101 0.00037178296 0.00037175693 0.00037485829 0.00037483684    302.24733     41.49527    35.978931    34.423473    90.016431    119.66323    90.107069    1115.3489    28.379736    18.846033    14.337797 
  490000    297.08803    1.2509986    3418.3567            0            0    98.968104   -109.37911   -7677.1102    44657.537 -0.067234084   -17.036218 -0.041707817    3428.7677    1459.8704    942.96786     876.4849    28.378231     18.84567    14.337883 0.00036453999 0.00036432661 0.00035927261 0.00035898174    297.08803     41.49527    35.978931    34.423473    90.016431    119.66323    90.107069      1093.62    28.379625    18.846306    14.338163 
  500000    295.88779    1.2509986    3465.7112            0            0    99.067505   -109.36984   -7024.5638    44657.537 -0.067234084   -17.036218 -0.041707817    3476.0136    1476.8577    965.58503    880.99228    28.379348    18.845813    14.336682 0.00035214321 0.00035196817 0.00035776941 0.00035768177    295.88779     41.49527    35.978931    34.423473    90.016431    119.66323    90.107069    1056.4296    28.380024    18.845861    14.337791 
  510000    297.14813    1.2509986    3566.2579            0            0    99.117479   -109.38746   -8983.8193    44657.537 -0.067234084   -17.036218 -0.041707817    3576.5279    1545.6714    1001.0475    882.41191    28.380334    18.845828    14.338015 0.00036840986 0.00036808695 0.00035858256 0.00035825844    297.14813     41.49527    35.978931    34.423473    90.016431    119.66323    90.107069    1105.2296    28.379603    18.845783    14.338111 
  520000    296.86171    1.2509986    3437.6896            0            0    99.252959   -109.36698   -7271.0018    44657.537 -0.067234084   -17.036218 -0.041707817    3447.8036    1478.3212    939.32041    879.27686     28.38045    18.845959    14.337262 0.00035782168 0.00035771982 0.00036402124 0.0003638617    296.86171     41.49527    35.978931    34.423473    90.016431    119.66323    90.107069     1073.465    28.379663    18.846472     14.33765 
  530000    297.66675    1.2509986    3570.6203            0            0    98.983231   -109.34909   -8798.9915    44657.537 -0.067234084   -17.036218 -0.041707817    3580.9861    1491.7433    1015.1243    916.66679    28.380721    18.847787    14.338223 0.00034660478 0.00034637852 0.00034835231 0.00034793396    297.66675     41.49527    35.978931    34.423473    90.016431    119.66323    90.107069    1039.8143    28.380058    18.846534    14.337857 
  540000    290.69459    1.2509986    3493.6179            0            0    99.095939   -109.39146   -7354.1572    44657.537 -0.067234084   -17.036218 -0.041707817    3503.9134    1496.8801    937.29146    908.82554    28.378461     18.84542    14.337286 0.00036477255 0.00036432093 0.0003727651 0.00037227589    290.69459     41.49527    35.978931    34.423473    90.016431    119.66323    90.107069    1094.3176    28.379246    18.845768    14.337618 
  550000    293.55091    1.2509986    3447.5668            0            0    98.989302   -109.35447   -8628.4177    44657.537 -0.067234084   -17.036218 -0.041707817    3457.9319    1459.6093    976.55853    871.90782     28.37943    18.845967    14.336971 0.0003560802 0.00035467637 0.00035674117 0.00035566503    293.55091     41.49527    35.978931    34.423473    90.016431    119.66323    90.107069    1068.2406    28.379085    18.846159    14.336766 
  560000    291.99077    1.2509986    3604.1292            0            0    98.738534   -109.39487   -8871.6182    44657.537 -0.067234084   -17.036218 -0.041707817    3614.7855     1513.914    1012.1706    928.70401    28.379892    18.845157    14.337941 0.00037003148 0.00036955802 0.00036434549 0.00036372949    291.99077     41.49527    35.978931    34.423473    90.016431    119.66323    90.107069    1110.0944     28.37995    18.846319    14.338386 
  570000    305.14858    1.2509986    3548.7869            0            0    99.017338   -109.40928   -8103.0114    44657.537 -0.067234084   -17.036218 -0.041707817    3559.1788    1548.6414     977.1523    881.92054     28.37764    18.846144    14.336555 0.00036044612 0.00035993085  0.000360047 0.00035984997    305.14858     41.49527    35.978931    34.423473    90.016431    119.66323    90.107069    1081.3383    28.379996    18.846823    14.337516 
  580000    299.45511    1.2509986    3474.0397            0            0    98.933663   -109.38559   -7823.2031    44657.537 -0.067234084   -17.036218 -0.041707817    3484.4916    1484.4972    976.20379    868.11526    28.379584    18.844481      14.3369 0.00036408046 0.00036362439 0.00036242688 0.0003621769    299.45511     41.49527    35.978931    34.423473    90.016431    119.66323    90.107069    1092.2414    28.379852    18.845514    14.337702 
  590000    299.50655    1.2509986    3476.5995            0            0    99.074449   -109.37121   -7079.1364    44657.537 -0.067234084   -17.036218 -0.041707817    3486.8963    1479.0793    974.67163    881.63189    28.380386    18.844158    14.336871 0.00036159903 0.00036126484 0.00035987863 0.00035945316    299.50655     41.49527    35.978931    34.423473    90.016431    119.66323    90.107069    1084.7971    28.379205    18.846071    14.337628 
  600000     300.0754    1.2509986    3488.3209            0            0    98.763387   -109.39297   -9305.8813    44657.537 -0.067234084   -17.036218 -0.041707817    3498.9505    1497.7981    986.60174    866.39813    28.378184    18.845664    14.336991 0.00034353152 0.00034341282 0.00034576319 0.0003457243     300.0754     41.49527    35.978931    34.423473    90.016431    119.66323    90.107069    1030.5945    28.379715    18.846406    14.337997 
  610000    298.20764    1.2509986    3486.4496            0            0    99.025325   -109.36796   -9182.2581    44657.537 -0.067234084   -17.036218 -0.041707817    3496.7923    1484.5351     954.1943    905.61365    28.379925    18.845222    14.336913 0.00034808993 0.00034796672 0.00034974253 0.00034964169    298.20764     41.49527    35.978931    34.423473    90.016431    119.66323    90.107069    1044.2698    28.379604    18.846309    14.337452 
  620000    299.94144    1.2509986    3541.6649            0            0    99.063373   -109.38285   -9733.2537    44657.537 -0.067234084   -17.036218 -0.041707817    3551.9844    1481.8056    1001.3849    913.54454    28.380546    18.844452    14.337621 0.0003585119 0.00035818828 0.00035123317 0.00035088901    299.94144     41.49527    35.978931    34.423473    90.016431    119.66323    90.107069    1075.5357    28.379489    18.845695     14.33785 
  630000    302.06024    1.2509986    3427.9289            0            0    98.914972   -109.39858   -7981.3786    44657.537 -0.067234084   -17.036218 -0.041707817    3438.4125    1443.9346    946.02609    890.32311    28.381526    18.846342    14.337165 0.0003555777 0.00035506729 0.00035358203 0.00035279408    302.06024     41.49527    35.978931    34.423473    90.016431    119.66323    90.107069    1066.7331     28.38004    18.846789    14.337485 
  640000     297.3604    1.2509986    3490.2381            0            0    99.085058   -109.36095   -7255.5812    44657.537 -0.067234084   -17.036218 -0.041707817     3500.514    1493.4708     951.8144    900.10928    28.381334     18.84655    14.338556 0.00034780964 0.00034706632 0.00034239997 0.00034149238     297.3604     41.49527    35.978931    34.423473    90.016431    119.66323    90.107069    1043.4289    28.380501    18.846404    14.338122 
  650000    292.30913    1.2509986    3521.1264            0            0    98.898432   -109.39655   -8268.4146    44657.537 -0.067234084   -17.036218 -0.041707817    3531.6245    1506.4023    970.22773    898.05374    28.379824    18.844553      14.3378 0.00035716341 0.00035704938 0.0003565109 0.00035640166    292.30913     41.49527    35.978931    34.423473    90.016431    119.66323    90.107069    1071.4902    28.379993    18.846009    14.337912 
  660000    293.81584    1.2509986    3470.7164            0            0    99.171076   -109.36826   -9083.2525    44657.537 -0.067234084   -17.036218 -0.041707817    3480.9136     1455.274    977.21688    890.77592    28.380933    18.844863    14.337964 0.00034817504 0.00034776293 0.00034950599 0.00034900016    293.81584     41.49527    35.978931    34.423473    90.016431    119.66323    90.107069    1044.5251    28.379373    18.845672     14.33777 
  670000    293.64275    1.2509986    3511.6585            0            0    98.906314   -109.40419     -8588.43    44657.537 -0.067234084   -17.036218 -0.041707817    3522.1564    1501.9536    979.40215    893.45382    28.378888    18.847249     14.33718 0.00036037093 0.00036016415 0.00035511572 0.00035494743    293.64275     41.49527    35.978931    34.423473    90.016431    119.66323    90.107069    1081.1128    28.379922    18.846052    14.337334 
  680000    296.25794    1.2509986    3435.6793            0            0    99.013457   -109.37022   -8019.6656    44657.537 -0.067234084   -17.036218 -0.041707817     3446.036    1436.8322    961.96464     897.7892    28.379843    18.845729    14.338085 0.00034791146 0.00034785813 0.00034349013 0.00034347005    296.25794     41.49527    35.978931    34.423473    90.016431    119.66323    90.107069    1043.7344    28.379892    18.846056    14.337596 
  690000    298.03756    1.2509986    3477.4737            0            0    98.868476    -109.3936   -9605.8989    44657.537 -0.067234084   -17.036218 -0.041707817    3487.9988    1490.6505    966.88197    874.41482    28.380895     18.84523    14.337584 0.00035071851 0.00035059334 0.00034758067 0.0003472344    298.03756     41.49527    35.978931    34.423473    90.016431    119.66323    90.107069    1052.1555    28.379501    18.846396    14.337631 
  700000    301.04517    1.2509986     3433.789            0            0    98.998545   -109.37111   -7588.1117    44657.537 -0.067234084   -17.036218 -0.041707817    3444.1615    1444.7638    927.39303    915.88378    28.377767    18.845217    14.337009 0.00034749605 0.00034731681 0.0003568906 0.00035635417    301.04517     41.49527    35.978931    34.423473    90.016431    119.66323    90.107069    1042.4882    28.380051    18.845981    14.337972 
  710000    301.69391    1.2509986     3490.779            0            0    99.055525   -109.38879   -7557.0762    44657.537 -0.067234084   -17.036218 -0.041707817    3501.1123    1485.5435    956.56726    906.08239    28.381024    18.845534    14.337665 0.00036090099 0.00036076203 0.0003605561 0.00036053501    301.69391     41.49527    35.978931    34.423473    90.016431    119.66323    90.107069     1082.703    28.379718    18.845935    14.338015 
  720000    295.73576    1.2509986    3504.3378            0            0    98.909812   -109.38032   -7608.2145    44657.537 -0.067234084   -17.036218 -0.041707817    3514.8083    1496.1392    953.00309    905.45968    28.380582    18.845763    14.338004 0.00034628288 0.00034616814 0.00034533224 0.00034522621    295.73576     41.49527    35.978931    34.423473    90.016431    119.66323    90.107069    1038.8486    28.380009    18.846028     14.33791 
  730000      297.623    1.2509986    3502.9439            0            0    99.154513   -109.37325    -8465.202    44657.537 -0.067234084   -17.036218 -0.041707817    3513.1626    1479.2071    960.71005    912.63942    28.379485    18.844536    14.337752 0.00034806969 0.00034787517 0.00034979476 0.00034952135      297.623     41.49527    35.978931    34.423473    90.016431    119.66323    90.107069    1044.2091    28.380074    18.846422    14.337937 
  740000     296.9546    1.2509986     3502.809            0            0    99.013153   -109.38943   -9109.0366    44657.537 -0.067234084   -17.036218 -0.041707817    3513.1852    1440.8744    969.91611    941.98173    28.382772      18.8462    14.337873 0.00034301401 0.00034252134 0.00034682906 0.00034633431     296.9546     41.49527    35.978931    34.423473    90.016431    119.66323    90.107069     1029.042    28.380077    18.845634    14.337435 
  750000    295.67713    1.2509986    3426.4971            0            0    99.212874   -109.36272   -8756.4386    44657.537 -0.067234084   -17.036218 -0.041707817     3436.647    1426.2022     936.0106    914.14147    28.381558    18.844505    14.337263 0.00034969258 0.00034942359 0.00035097525 0.00035076576    295.67713     41.49527    35.978931    34.423473    90.016431    119.66323    90.107069    1049.0777    28.380152    18.846433    14.337509 
  760000    298.70294    1.2509986    3545.9012            0            0    99.125138   -109.38699   -7672.7882    44657.537 -0.067234084   -17.036218 -0.041707817    3556.1631    1501.4755    945.94074    937.41677    28.377822     18.84728    14.337332 0.00034899492 0.00034843187 0.00035175929 0.00035088978    298.70294     41.49527    35.978931    34.423473    90.016431    119.66323    90.107069    1046.9848    28.379186    18.846311    14.337275 
  770000    302.55166    1.2509986    3546.3227            0            0    98.792116   -109.36748   -9229.7057    44657.537 -0.067234084   -17.036218 -0.041707817    3556.8981    1479.1857     988.7425    930.61356    28.381157    18.845065    14.338046 0.00033491616 0.00033446104 0.00033546796 0.00033482375    302.55166     41.49527    35.978931    34.423473    90.016431    119.66323    90.107069    1004.7485     28.37975    18.845739     14.33723 
  780000      294.083    1.2509986    3421.9925            0            0    98.962974   -109.37646   -7706.1438    44657.537 -0.067234084   -17.036218 -0.041707817     3432.406    1423.8756    957.41822    891.11601    28.381199     18.84471    14.337601 0.00035231859 0.00035221822 0.0003499362 0.00034989538      294.083     41.49527    35.978931    34.423473    90.016431    119.66323    90.107069    1056.9558    28.379575    18.845958    14.337864 
  790000    293.04545    1.2509986    3568.8672            0            0     99.09292   -109.35537   -8508.1417    44657.537 -0.067234084   -17.036218 -0.041707817    3579.1297    1486.8517    978.54719    952.75364    28.381272    18.846196     14.33742 0.00035324246 0.00035321862 0.00035488528 0.00035468187    293.04545     41.49527    35.978931    34.423473    90.016431    119.66323    90.107069    1059.7274    28.379721     18.84609    14.337857 
  800000    294.07111    1.2509986    3545.4201            0            0    98.915027   -109.38207   -10171.665    44657.537 -0.067234084   -17.036218 -0.041707817    3555.8872    1494.7125    953.51238    950.10299    28.380541    18.844708    14.337692 0.00035750651 0.00035731124 0.00035864359 0.00035800639    294.07111     41.49527    35.978931    34.423473    90.016431    119.66323    90.107069    1072.5195    28.379381    18.846302    14.337548 
Loop time of 2434.05 on 60 procs for 800000 steps with 4560 atoms

Pair  time (%) = 436.64 (17.9388)
Bond  time (%) = 47.2951 (1.94306)
Kspce time (%) = 1283.73 (52.7404)
Neigh time (%) = 12.8233 (0.52683)
Comm  time (%) = 474.451 (19.4922)
Outpt time (%) = 0.508286 (0.0208823)
Other time (%) = 178.605 (7.33775)

Nlocal:    76 ave 84 max 68 min
Histogram: 1 4 6 12 5 13 7 6 3 3
Nghost:    3994.03 ave 4080 max 3890 min
Histogram: 5 6 6 3 2 4 7 14 10 3
Neighs:    28110 ave 31353 max 25301 min
Histogram: 2 4 10 10 11 4 7 7 3 2

Total # of neighbors = 1686601
Ave neighs/atom = 369.869
Ave special neighs/atom = 10.6316
Neighbor list builds = 5774
Dangerous builds = 0
System init for write_data ...
PPPM initialization ...
  G vector (1/distance) = 0.253736
  grid = 15 15 16
  stencil order = 5
  estimated absolute RMS force accuracy = 0.000170568
  estimated relative force accuracy = 5.13659e-07
  using double precision FFTs
  3d grid and FFT values/proc = 960 90
