LAMMPS data file via write_data, version 15 May 2015, timestep = 23005000

2611 atoms
6 atom types
1749 bonds
4 bond types
894 angles
3 angle types
44 dihedrals
3 dihedral types
10 impropers
1 improper types

-1.5038286747265824e+01 1.5038286747265824e+01 xlo xhi
-1.5038286747265824e+01 1.5038286747265824e+01 ylo yhi
-1.5038286747265824e+01 1.5038286747265824e+01 zlo zhi

Masses

1 15.9994
2 1.00794
3 12.0107
4 1.00794
5 12.0107
6 12.0107

Bond Coeffs # harmonic

1 1000 1
2 469 1.4
3 367 1.08
4 469 0.7

Angle Coeffs # harmonic

1 100 109.47
2 35 120
3 63 120

Dihedral Coeffs # opls

1 0 7.25 0 0
2 0 7.25 0 0
3 0 7.25 0 0

Improper Coeffs # cvff

1 2.5 -1 2

Atoms # full

2232 744 2 4.0999999999999998e-01 -1.1970678332916108e+01 -1.0867953178072057e+01 -1.0495593306714532e+01 0 2 4
2230 744 1 -8.1999999999999995e-01 -1.2496644105201966e+01 -1.0875305949127364e+01 -9.6451538300534452e+00 0 2 4
2231 744 2 4.0999999999999998e-01 -1.1880591999720419e+01 -1.0730102777318301e+01 -8.8709851005405653e+00 0 2 4
1759 587 1 -8.1999999999999995e-01 -1.0473703749876879e+01 -1.0834084480698365e+01 -7.7436618772830004e+00 8 -1 2
1760 587 2 4.0999999999999998e-01 -9.6996818063795338e+00 -1.0225854871233739e+01 -7.9194123798009413e+00 8 -1 2
2243 748 2 4.0999999999999998e-01 -1.1476652140795430e+01 -8.2448881933011791e+00 -9.0718085505987460e+00 -1 -5 0
2242 748 1 -8.1999999999999995e-01 -1.0584719522429170e+01 -8.1283370410606786e+00 -9.5086305321519831e+00 -1 -5 0
822 274 2 4.0999999999999998e-01 -8.9231560773919654e+00 -5.5923835804733386e+00 -1.0647376442542797e+01 6 2 1
573 191 2 4.0999999999999998e-01 -1.3378445360280654e+01 -9.3666080075336957e+00 -9.1284659139073394e+00 4 -2 -8
2244 748 2 4.0999999999999998e-01 -1.0680470044143714e+01 -8.2420823860434762e+00 -1.0497486087413444e+01 -1 -5 0
340 114 1 -8.1999999999999995e-01 -1.3741408816518051e+01 -6.8181275275584579e+00 -1.1040180083211744e+01 2 1 4
571 191 1 -8.1999999999999995e-01 -1.3579960891087225e+01 -8.4501475638637249e+00 -8.7828748574602233e+00 4 -2 -8
1914 638 2 4.0999999999999998e-01 -1.4609968100909672e+01 -1.1357317530648308e+01 -1.0281128615252154e+01 6 -3 5
1587 529 2 4.0999999999999998e-01 -1.0674575339014121e+01 -5.2699489464440283e+00 -1.2362034525900441e+01 8 3 -2
483 161 2 4.0999999999999998e-01 -1.2447158369594870e+01 -5.4147319384042145e+00 -8.1756533156010729e+00 3 -1 0
70 24 1 -8.1999999999999995e-01 -8.1682917228684957e+00 -7.3967967227437663e+00 -1.1288140308172473e+01 1 -2 3
2029 677 1 -8.1999999999999995e-01 -1.4884485578778888e+01 -1.1791987823393429e+01 -1.4537071061503109e+01 11 -2 2
106 36 1 -8.1999999999999995e-01 -1.0983437021826610e+01 -9.7926970167701732e+00 -1.2086601377777168e+01 2 -3 3
108 36 2 4.0999999999999998e-01 -1.0101991885409692e+01 -9.9613070350097477e+00 -1.2527698314130534e+01 2 -3 3
107 36 2 4.0999999999999998e-01 -1.1695254041799227e+01 -9.7119973003659048e+00 -1.2784272866718815e+01 2 -3 3
1890 630 2 4.0999999999999998e-01 -1.4323659112652509e+01 -8.6876763938013184e+00 -1.2067202504459317e+01 0 2 2
481 161 1 -8.1999999999999995e-01 -1.2928233413651894e+01 -6.0243431871678172e+00 -7.5456673763086677e+00 3 -1 0
674 225 2 4.0999999999999998e-01 -8.1697372046723444e+00 -1.1331931170938446e+01 -1.3759097223260115e+01 3 1 -4
1601 534 2 4.0999999999999998e-01 -1.4514688172800309e+01 -1.4602666945852281e+01 -9.5238925048063336e+00 4 1 4
482 161 2 4.0999999999999998e-01 -1.2882227188084224e+01 -6.9623433697812640e+00 -7.8891501868252609e+00 3 -1 0
673 225 1 -8.1999999999999995e-01 -8.7537433841104182e+00 -1.0522099629034095e+01 -1.3703860784154811e+01 3 1 -4
342 114 2 4.0999999999999998e-01 -1.3773320445530487e+01 -7.2492934214894911e+00 -1.0138504416979945e+01 2 1 4
675 225 2 4.0999999999999998e-01 -8.1903694765324353e+00 -9.6992337673668878e+00 -1.3777637889541591e+01 3 1 -4
2217 739 2 4.0999999999999998e-01 -1.2792095470271905e+01 -6.3990729793722370e+00 -1.4857020180828759e+01 0 1 5
387 129 2 4.0999999999999998e-01 -8.7536701460166384e+00 -6.2867132174475611e+00 -8.2201194271689495e+00 2 0 7
996 332 2 4.0999999999999998e-01 -8.1611632549320277e+00 -8.5274861994424072e+00 -7.7961970875156137e+00 2 1 1
1919 640 2 4.0999999999999998e-01 -1.2250809575829656e+01 -1.4516695922265122e+01 -1.0029074531451371e+01 6 -3 -1
341 114 2 4.0999999999999998e-01 -1.2926279743213883e+01 -6.2426246373049690e+00 -1.1105773962932449e+01 2 1 4
820 274 1 -8.1999999999999995e-01 -8.9138622076441010e+00 -5.0650013367554028e+00 -9.7978336543154043e+00 6 2 1
1918 640 1 -8.1999999999999995e-01 -1.3007476846724133e+01 -1.3927970402493408e+01 -9.7448231986835765e+00 6 -3 -1
1025 342 2 4.0999999999999998e-01 -1.3668573504064060e+01 -1.0014175704143803e+01 -1.4042043282577156e+01 0 -2 -3
72 24 2 4.0999999999999998e-01 -8.4426102827106124e+00 -7.8758331056389403e+00 -1.0454344857181709e+01 1 -2 3
572 191 2 4.0999999999999998e-01 -1.4476382444379936e+01 -8.4506856167977347e+00 -8.3397387753333501e+00 4 -2 -8
994 332 1 -8.1999999999999995e-01 -7.8795803288465258e+00 -9.4736058405247334e+00 -7.6364784376012622e+00 2 1 1
1920 640 2 4.0999999999999998e-01 -1.2662122133596501e+01 -1.3008415144461040e+01 -9.5575005749559949e+00 6 -3 -1
71 24 2 4.0999999999999998e-01 -8.9774482172236887e+00 -7.2032664942803759e+00 -1.1842895440900257e+01 1 -2 3
1585 529 1 -8.1999999999999995e-01 -1.0209909523050371e+01 -6.1526151550121977e+00 -1.2432230191391188e+01 8 3 -2
1026 342 2 4.0999999999999998e-01 -1.2764923829314750e+01 -8.7701303113039781e+00 -1.4591805491358366e+01 0 -2 -3
2487 829 2 4.0999999999999998e-01 -7.5816244709093690e+00 -7.1738545696554334e+00 -1.3818879261485060e+01 2 0 -3
2485 829 1 -8.1999999999999995e-01 -7.5549404546543686e+00 -7.9898208113020228e+00 -1.4396312124000836e+01 2 0 -3
794 265 2 4.0999999999999998e-01 -1.4719938413922730e+01 -5.4890164111907129e+00 -1.1480519693350770e+01 2 -2 4
1024 342 1 -8.1999999999999995e-01 -1.2736590899420507e+01 -9.6711536027647469e+00 -1.4159028735503080e+01 0 -2 -3
1586 529 2 4.0999999999999998e-01 -1.0232326059327313e+01 -6.4665314941466807e+00 -1.3381385336452119e+01 8 3 -2
1761 587 2 4.0999999999999998e-01 -1.0137758731048987e+01 -1.1760487623237863e+01 -7.5737807345055819e+00 8 -1 2
2324 775 2 4.0999999999999998e-01 -1.1959972488440833e+00 -7.7544591460105785e+00 -1.2912840914282738e+01 3 2 0
2382 794 2 4.0999999999999998e-01 -7.1011905536553321e+00 -1.3710943573738614e+01 -1.2966573215828868e+01 0 -1 -1
2381 794 2 4.0999999999999998e-01 -7.1558938717879235e+00 -1.2206998298395384e+01 -1.2332833088321578e+01 0 -1 -1
1466 489 2 4.0999999999999998e-01 -6.8586138507228220e+00 -1.1822441968384506e+01 -1.0081437530943683e+01 3 -1 0
2380 794 1 -8.1999999999999995e-01 -6.9626645212328242e+00 -1.2739118867045288e+01 -1.3157121618622080e+01 0 -1 -1
995 332 2 4.0999999999999998e-01 -6.8815244797046198e+00 -9.5321900810553011e+00 -7.6563226081360058e+00 2 1 1
587 196 2 4.0999999999999998e-01 -6.3577729694082041e+00 -5.0685032500106804e+00 -1.1636036900881809e+01 1 2 0
869 290 2 4.0999999999999998e-01 -6.8843277337134090e-01 -1.2974317126554606e+01 -7.7845135521615942e+00 3 -6 2
66 22 2 4.0999999999999998e-01 -4.5005413023620200e-01 -1.1694579026313505e+01 -1.4859199854045086e+01 -6 -4 -2
247 83 1 -8.1999999999999995e-01 -7.1879569686396216e-01 -9.3808810379134968e+00 -7.9336891907377467e+00 4 2 -1
1181 394 2 4.0999999999999998e-01 -4.3967552512533690e+00 -6.9616427665390095e+00 -8.4560381258041595e+00 9 -1 2
1634 545 2 4.0999999999999998e-01 -3.9831623944926342e-01 -6.2020510300664746e+00 -9.5307775789406719e+00 1 3 -3
845 282 2 4.0999999999999998e-01 -3.4994896486159988e+00 -1.3466129539659018e+01 -9.8719416881053146e+00 8 1 3
574 192 1 -8.1999999999999995e-01 -4.6118819762750398e+00 -1.1292611769256602e+01 -8.2146170157635581e+00 -2 -2 5
844 282 1 -8.1999999999999995e-01 -2.7087256108879458e+00 -1.4070142669747714e+01 -9.7729371671149146e+00 8 1 3
2367 789 2 4.0999999999999998e-01 -1.8700607282205457e+00 -5.9371699625771832e+00 -1.0966593642414420e+01 1 -2 1
586 196 1 -8.1999999999999995e-01 -6.8340189302889769e+00 -5.4165904991417335e+00 -1.2443481282122566e+01 1 2 0
1052 351 2 4.0999999999999998e-01 -3.8771014605300991e+00 -1.2947500452954902e+01 -1.3729438563530866e+01 -1 2 5
80 27 2 4.0999999999999998e-01 -4.9843396397525712e+00 -8.2920316460533812e+00 -1.2084196914345210e+01 2 -6 4
2323 775 1 -8.1999999999999995e-01 -3.0594437483112813e-01 -7.3085793339723475e+00 -1.3007384377201340e+01 3 2 0
1053 351 2 4.0999999999999998e-01 -3.2898640728155826e+00 -1.4188342231763254e+01 -1.2845168164270943e+01 -1 2 5
2330 777 2 4.0999999999999998e-01 -3.0843492086557482e+00 -7.7199039051542062e+00 -1.4410053748893102e+01 -1 -2 5
846 282 2 4.0999999999999998e-01 -2.2907126804198601e+00 -1.3927631006482756e+01 -8.8757766519463459e+00 8 1 3
1467 489 2 4.0999999999999998e-01 -6.6636446559499412e+00 -1.0293851587534387e+01 -1.0621686374442973e+01 3 -1 0
1465 489 1 -8.1999999999999995e-01 -7.1245421487630143e+00 -1.1165721745424909e+01 -1.0787087606894485e+01 3 -1 0
1541 514 2 4.0999999999999998e-01 -4.5249397798769166e+00 -1.0812385435046407e+01 -1.1100009459500964e+01 1 -3 8
1180 394 1 -8.1999999999999995e-01 -4.4764894016288075e+00 -6.3908099062863748e+00 -9.2731881178065620e+00 9 -1 2
576 192 2 4.0999999999999998e-01 -4.6317647616668598e+00 -1.2246063495108007e+01 -7.9138249309558368e+00 -2 -2 5
1633 545 1 -8.1999999999999995e-01 -6.3739907241271254e-01 -5.2703267695277987e+00 -9.8040371444986594e+00 1 3 -3
1852 618 1 -8.1999999999999995e-01 -5.1067275758911812e+00 -1.1219557677259488e+01 -1.4748714026142711e+01 -3 3 -1
2428 810 1 -8.1999999999999995e-01 -2.4488295276745493e+00 -8.9313821989065083e+00 -1.3035364035772233e+01 5 6 0
1542 514 2 4.0999999999999998e-01 -3.8863612650413106e+00 -1.2272940917950384e+01 -1.1454220313517604e+01 1 -3 8
79 27 1 -8.1999999999999995e-01 -5.5279721974466245e+00 -8.6274336703660346e+00 -1.1314839532842610e+01 2 -6 4
81 27 2 4.0999999999999998e-01 -6.3322697475478265e+00 -8.0452331844317797e+00 -1.1196139685191392e+01 2 -6 4
2430 810 2 4.0999999999999998e-01 -2.4677905884412947e+00 -9.1484872279883511e+00 -1.2059429983718067e+01 5 6 0
1853 618 2 4.0999999999999998e-01 -5.5274338566309105e+00 -1.1698799104546168e+01 -1.3978470354382782e+01 -3 3 -1
2241 747 2 4.0999999999999998e-01 -9.4689033732590744e-02 -5.3813159418697420e+00 -1.3072312184549144e+01 -2 3 -1
618 206 2 4.0999999999999998e-01 -5.5814155606586446e+00 -5.0270784968228064e+00 -1.4224804692898585e+01 2 5 4
575 192 2 4.0999999999999998e-01 -4.4557165079791812e+00 -1.1257705411494651e+01 -9.2017012410829615e+00 -2 -2 5
2049 683 2 4.0999999999999998e-01 -1.3097379848251123e+00 -9.5883840835101264e+00 -9.5539835776741668e+00 4 1 -3
1051 351 1 -8.1999999999999995e-01 -3.4526289575840750e+00 -1.3201825852521125e+01 -1.2860483431777377e+01 -1 2 5
1729 577 1 -8.1999999999999995e-01 -6.3192125241311281e-01 -1.2001953611243428e+01 -1.2364054591632911e+01 -1 4 6
2048 683 2 4.0999999999999998e-01 -2.5902690505121448e+00 -1.0381916547660477e+01 -1.0184076344378465e+01 4 1 -3
1540 514 1 -8.1999999999999995e-01 -3.9341616559909980e+00 -1.1547527594330175e+01 -1.0767611196056066e+01 1 -3 8
2047 683 1 -8.1999999999999995e-01 -1.7774267952751988e+00 -9.8413359027014327e+00 -1.0400874489070722e+01 4 1 -3
2365 789 1 -8.1999999999999995e-01 -2.7982195292660368e+00 -6.0537314664531134e+00 -1.1319971644052112e+01 1 -2 1
2366 789 2 4.0999999999999998e-01 -3.1581565733785375e+00 -5.1670816968790323e+00 -1.1610211011222493e+01 1 -2 1
1731 577 2 4.0999999999999998e-01 -1.5667925404131910e+00 -1.2294903355616754e+01 -1.2564398051952743e+01 -1 4 6
1730 577 2 4.0999999999999998e-01 -6.4157968312730063e-01 -1.1056973463605040e+01 -1.2037159071351175e+01 -1 4 6
2429 810 2 4.0999999999999998e-01 -2.6637520289140753e+00 -9.7526908975866391e+00 -1.3563759563718813e+01 5 6 0
588 196 2 4.0999999999999998e-01 -7.4878448632790624e+00 -6.1208726868973180e+00 -1.2167004121039794e+01 1 2 0
1182 394 2 4.0999999999999998e-01 -3.6418712919633798e+00 -6.4705002468689461e+00 -9.8181685699827668e+00 9 -1 2
856 286 1 -8.1999999999999995e-01 -2.2841498671801812e+00 -1.0957474520790957e+01 -1.5028197310656774e+01 3 1 6
215 72 2 4.0999999999999998e-01 -1.0208333050011387e+01 -7.7523717086896990e+00 -2.9035457765169177e+00 0 -6 0
1407 469 2 4.0999999999999998e-01 -1.3972016509415365e+01 -9.5922211383558036e+00 -3.8103213388879205e+00 1 0 3
1405 469 1 -8.1999999999999995e-01 -1.3770658378565848e+01 -8.8710457203835471e+00 -3.1475225173553198e+00 1 0 3
1406 469 2 4.0999999999999998e-01 -1.2789533794330271e+01 -8.6778951163942359e+00 -3.1528925088324780e+00 1 0 3
214 72 1 -8.1999999999999995e-01 -1.1075423743882794e+01 -8.2404166456730970e+00 -3.0030808804370324e+00 0 -6 0
410 137 2 4.0999999999999998e-01 -1.0935840540772272e+01 -7.1319112596924077e+00 -5.2372749180322078e+00 0 4 1
409 137 1 -8.1999999999999995e-01 -1.0896963570853483e+01 -6.3245844221726077e+00 -5.8260476284742229e+00 0 4 1
956 319 2 4.0999999999999998e-01 -1.2425951701490094e+01 -9.3934250953990031e+00 -5.5302172005763381e+00 3 -2 4
955 319 1 -8.1999999999999995e-01 -1.1439076541760070e+01 -9.2337231694571820e+00 -5.5528916142040430e+00 3 -2 4
28 10 1 -8.1999999999999995e-01 -1.4031840328818465e+01 -1.0127176384421830e+01 -5.7250706024726927e+00 6 -1 4
2018 673 2 4.0999999999999998e-01 -8.6388485953076746e+00 -5.5722784959174962e+00 -3.1225985733804613e+00 0 0 2
385 129 1 -8.1999999999999995e-01 -8.6980828051871857e+00 -6.8514091693247767e+00 -7.3967301596605735e+00 2 0 7
216 72 2 4.0999999999999998e-01 -1.1031802624421109e+01 -8.8374770319872518e+00 -3.8040538037227734e+00 0 -6 0
957 319 2 4.0999999999999998e-01 -1.1040662213042461e+01 -9.7192233685512832e+00 -6.3310284548436435e+00 3 -2 4
1019 340 2 4.0999999999999998e-01 -1.1350634449439340e+01 -8.9738146218456958e+00 -1.3541442729074049e+00 6 5 -1
836 279 2 4.0999999999999998e-01 -1.0064298132508775e+01 -1.4143004958274849e+01 -7.1157735753155018e+00 0 5 2
1436 479 2 4.0999999999999998e-01 -1.2407107746813214e+01 -1.4792729672801398e+01 -9.3072098091421829e-01 1 -3 4
1018 340 1 -8.1999999999999995e-01 -1.0993607351283593e+01 -9.5350790131307228e+00 -6.0751498538085968e-01 6 5 -1
203 68 2 4.0999999999999998e-01 -1.3600456656672186e+01 -1.4194488890439843e+01 -4.2677496304205818e+00 3 4 7
666 222 2 4.0999999999999998e-01 -1.4664417959892521e+01 -1.0294148918980483e+01 -2.0168386145233423e+00 0 3 -2
29 10 2 4.0999999999999998e-01 -1.4762177386981602e+01 -9.7896745273895966e+00 -6.3189069738740393e+00 6 -1 4
1581 527 2 4.0999999999999998e-01 -9.6469388678493608e+00 -1.1433961766020763e+01 -2.5962408102401309e+00 -1 -2 3
411 137 2 4.0999999999999998e-01 -1.1738535217077301e+01 -6.2624919996070734e+00 -6.3625578619736292e+00 0 4 1
439 147 1 -8.1999999999999995e-01 -1.0023191757249945e+01 -1.1759874482379418e+01 -4.2435455859167153e+00 3 1 0
1008 336 2 4.0999999999999998e-01 -9.2839379819286130e+00 -1.2935262218548905e+01 -1.5902385682732714e+00 2 2 0
1579 527 1 -8.1999999999999995e-01 -9.2417776564907044e+00 -1.1205528375750157e+01 -1.7110267158102914e+00 -1 -2 3
441 147 2 4.0999999999999998e-01 -9.7389757883403387e+00 -1.0831871094117620e+01 -4.4843200914618038e+00 3 1 0
1580 527 2 4.0999999999999998e-01 -9.8239831589626689e+00 -1.0543709486338155e+01 -1.2388255008464277e+00 -1 -2 3
1006 336 1 -8.1999999999999995e-01 -9.3751425388994409e+00 -1.3930505063968070e+01 -1.6236266467996430e+00 2 2 0
837 279 2 4.0999999999999998e-01 -8.7315485606600625e+00 -1.3205776411814520e+01 -7.0069079975518527e+00 0 5 2
1437 479 2 4.0999999999999998e-01 -1.0969261341930022e+01 -1.4547378634510453e+01 -1.6647990956277852e+00 1 -3 4
30 10 2 4.0999999999999998e-01 -1.4157968364783262e+01 -1.1106177695718973e+01 -5.5651025525724069e+00 6 -1 4
2144 715 2 4.0999999999999998e-01 -7.7606003434539073e+00 -1.4008273274369913e+01 -4.1553077447762057e+00 6 -2 3
2257 753 1 -8.1999999999999995e-01 -8.4111869023421768e+00 -7.3381332122373886e+00 -2.8077978431400172e+00 0 1 5
440 147 2 4.0999999999999998e-01 -1.0348225378752625e+01 -1.2232062727320129e+01 -5.0628945599515731e+00 3 1 0
2143 715 1 -8.1999999999999995e-01 -8.4268011985003337e+00 -1.4501590845965456e+01 -4.7145533002670685e+00 6 -2 3
2145 715 2 4.0999999999999998e-01 -9.3351385169294137e+00 -1.4106788824963623e+01 -4.5767271747129801e+00 6 -2 3
971 324 2 4.0999999999999998e-01 -1.4059371544196406e+01 -5.5855637283191353e+00 -6.0269088292464392e+00 1 -2 2
304 102 1 -8.1999999999999995e-01 -1.4504098849919185e+01 -1.2595237501261266e+01 -4.8905909907585059e+00 5 0 2
970 324 1 -8.1999999999999995e-01 -1.4678139037098223e+01 -5.0196944724520609e+00 -5.4820600008302200e+00 1 -2 2
386 129 2 4.0999999999999998e-01 -9.4980871442837316e+00 -6.6814340806553290e+00 -6.8213667941386618e+00 2 0 7
1020 340 2 4.0999999999999998e-01 -1.1748579328646624e+01 -1.0015500563600902e+01 -1.6124848437973860e-01 6 5 -1
1697 566 2 4.0999999999999998e-01 -1.4868081416864053e+01 -7.8438608284766591e+00 -2.6072661925181766e+00 -1 4 4
305 102 2 4.0999999999999998e-01 -1.4810201618341518e+01 -1.2305190133422244e+01 -3.9838854286402334e+00 5 0 2
1007 336 2 4.0999999999999998e-01 -8.4671020023451913e+00 -1.4349079078957457e+01 -1.6094994396817430e+00 2 2 0
835 279 1 -8.1999999999999995e-01 -9.7307302871456187e+00 -1.3212013715125604e+01 -6.9676861286997518e+00 0 5 2
1280 427 2 4.0999999999999998e-01 -8.3094281514038535e+00 -8.7870545153396300e+00 -5.7027900764779851e+00 -5 3 -2
1279 427 1 -8.1999999999999995e-01 -7.8947876775285968e+00 -9.0893766941365399e+00 -4.8445266815549335e+00 -5 3 -2
2258 753 2 4.0999999999999998e-01 -8.3253435072330184e+00 -7.9878702439449070e+00 -3.5630554560132133e+00 0 1 5
665 222 2 4.0999999999999998e-01 -1.5002218472592865e+01 -1.1809091231045194e+01 -1.5095804531438226e+00 0 3 -2
426 142 2 4.0999999999999998e-01 -7.8022205208670758e+00 -1.1078144559686447e+01 -6.5410846382361321e-01 3 2 -2
868 290 1 -8.1999999999999995e-01 -1.5013752877118289e+00 -1.3442588722102736e+01 -7.4384101914058594e+00 3 -6 2
1300 434 1 -8.1999999999999995e-01 -9.8939469687612558e-01 -5.8784188700928262e+00 -5.8416709001007217e+00 4 2 1
317 106 2 4.0999999999999998e-01 -4.7671345802711844e+00 -1.4585943594083576e+01 -3.4709729610268063e+00 4 4 5
1509 503 2 4.0999999999999998e-01 -5.2595825097662896e-01 -1.3752622837021782e+01 -2.3077935692526115e+00 3 -5 1
197 66 2 4.0999999999999998e-01 -2.8948285432193366e-01 -9.6984494976175419e+00 -4.0169448034016355e+00 -1 4 -3
1343 448 2 4.0999999999999998e-01 -4.5264760374094060e-01 -1.4923135753602029e+01 -4.1429126622449015e+00 8 3 -2
1513 505 1 -8.1999999999999995e-01 -4.9142865110816967e+00 -5.8109188588760272e+00 -4.5728447155402172e+00 1 2 1
1515 505 2 4.0999999999999998e-01 -5.6454440716609007e+00 -5.3051040938513712e+00 -5.0305580810513302e+00 1 2 1
1887 629 2 4.0999999999999998e-01 -6.1305737125135007e+00 -5.9187807182651255e+00 -1.2367196008409369e+00 7 -1 2
581 194 2 4.0999999999999998e-01 -3.5613702441383186e+00 -1.2288193858785256e+01 -3.3858621715915938e-01 -5 -7 3
1344 448 2 4.0999999999999998e-01 -1.2209760696665146e+00 -1.3657399469174246e+01 -4.8314278502622585e+00 8 3 -2
1302 434 2 4.0999999999999998e-01 -1.8494142394992981e+00 -6.1826641341453890e+00 -6.2512349536953664e+00 4 2 1
1317 439 2 4.0999999999999998e-01 -4.6305717591518309e+00 -1.4175318414592237e+01 -6.0272468274364019e+00 0 1 -1
1824 608 2 4.0999999999999998e-01 -4.8703494167926475e+00 -1.0409667772122800e+01 -5.1984058346513411e+00 8 2 -2
425 142 2 4.0999999999999998e-01 -6.2167043720571993e+00 -1.1428352999119813e+01 -8.2720592694156103e-01 3 2 -2
424 142 1 -8.1999999999999995e-01 -6.8825053265874576e+00 -1.0892068808477312e+01 -3.0850588589758310e-01 3 2 -2
1508 503 2 4.0999999999999998e-01 -7.7977360702239551e-01 -1.2531748796668754e+01 -1.2535097210987196e+00 3 -5 1
1769 590 2 4.0999999999999998e-01 -5.0743878191108038e-01 -8.2168290384715021e+00 -1.1067535719040578e-01 2 -4 -6
2259 753 2 4.0999999999999998e-01 -7.5035803259693061e+00 -7.0110448887583576e+00 -2.5447295703395625e+00 0 1 5
1349 450 2 4.0999999999999998e-01 -3.2829583764295389e+00 -1.1780089110222971e+01 -4.9602293960974535e+00 6 0 1
1507 503 1 -8.1999999999999995e-01 -4.7233981349959286e-01 -1.3478625140807914e+01 -1.3475895895777494e+00 3 -5 1
1886 629 2 4.0999999999999998e-01 -5.2590075887722669e+00 -7.1738889425993015e+00 -1.8125199878326832e+00 7 -1 2
800 267 2 4.0999999999999998e-01 -3.8005420350264654e+00 -8.1434515911879846e+00 -6.4941885588683537e+00 5 1 1
580 194 1 -8.1999999999999995e-01 -3.6468568377047177e+00 -1.1472966034975357e+01 -9.1133133831520929e-01 -5 -7 3
1348 450 1 -8.1999999999999995e-01 -2.4411855460540188e+00 -1.2214351701050415e+01 -5.2808162225729713e+00 6 0 1
2549 850 2 4.0999999999999998e-01 -7.1146543804856641e+00 -5.6692192409715307e+00 -6.2943621654173736e+00 5 -5 4
1301 434 2 4.0999999999999998e-01 -4.7245485886785943e-01 -6.6729453549360755e+00 -5.5231706177355679e+00 4 2 1
582 194 2 4.0999999999999998e-01 -2.7589576558180422e+00 -1.1017844831859861e+01 -9.7797479559185341e-01 -5 -7 3
1315 439 1 -8.1999999999999995e-01 -4.3491364740091836e+00 -1.4229018533587267e+01 -6.9852926631924444e+00 0 1 -1
870 290 2 4.0999999999999998e-01 -1.9329959841712707e+00 -1.2882453936670501e+01 -6.7313783519742785e+00 3 -6 2
1342 448 1 -8.1999999999999995e-01 -1.0849998717600862e+00 -1.4165597606875634e+01 -3.9810241105156194e+00 8 3 -2
1281 427 2 4.0999999999999998e-01 -6.9865540367360435e+00 -9.4656348950560947e+00 -5.0275099829526653e+00 -5 3 -2
1871 624 2 4.0999999999999998e-01 -7.6200337674072927e-01 -1.0125170961246834e+01 -9.6807181410356691e-01 9 -6 0
196 66 1 -8.1999999999999995e-01 -3.5843040708519425e-01 -1.0694174866608421e+01 -4.0779272434997580e+00 -1 4 -3
1870 624 1 -8.1999999999999995e-01 -1.1864002732429704e+00 -1.0868359401087970e+01 -1.4852754821450596e+00 9 -6 0
2022 674 2 4.0999999999999998e-01 -4.3412300479479597e+00 -1.1548038281421263e+01 -2.5575498182295870e+00 6 3 -1
2021 674 2 4.0999999999999998e-01 -5.0896507029395224e+00 -1.2470277615299532e+01 -3.6781796761481900e+00 6 3 -1
1514 505 2 4.0999999999999998e-01 -5.3064471240846700e+00 -6.3898723977770739e+00 -3.8580270376301673e+00 1 2 1
1872 624 2 4.0999999999999998e-01 -8.4162452749361449e-01 -1.0860497695781458e+01 -2.4238964053789989e+00 9 -6 0
1822 608 1 -8.1999999999999995e-01 -5.3633377375863240e+00 -9.9099706977903033e+00 -5.9105903845624770e+00 8 2 -2
1917 639 2 4.0999999999999998e-01 -3.5448557123122324e+00 -9.6493203223143187e+00 -4.6641380123998033e-01 -6 0 -1
316 106 1 -8.1999999999999995e-01 -5.5478421636220130e+00 -1.4478658041209549e+01 -4.0865433073657513e+00 4 4 5
1885 629 1 -8.1999999999999995e-01 -5.9596811399360821e+00 -6.4960698866050173e+00 -2.0351395064725324e+00 7 -1 2
799 267 1 -8.1999999999999995e-01 -3.6241477244749092e+00 -7.1613205041912602e+00 -6.5593420048143720e+00 5 1 1
1823 608 2 4.0999999999999998e-01 -5.1662865880056170e+00 -1.0318635423679732e+01 -6.8017162853154787e+00 8 2 -2
249 83 2 4.0999999999999998e-01 -1.1950775913810041e+00 -9.0740566671867136e+00 -7.1097013794927282e+00 4 2 -1
801 267 2 4.0999999999999998e-01 -4.1454233161974976e+00 -6.6815246663292704e+00 -5.8536444113521480e+00 5 1 1
2020 674 1 -8.1999999999999995e-01 -4.5247825260216779e+00 -1.1657757370392821e+01 -3.5343873466200897e+00 6 3 -1
1350 450 2 4.0999999999999998e-01 -1.6523814041250411e+00 -1.1750409756517181e+01 -4.8777191321639624e+00 6 0 1
1464 488 2 4.0999999999999998e-01 -2.6521462588584956e+00 -1.4822283704689324e+01 -3.1492254858934015e+00 -2 -2 6
1232 411 2 4.0999999999999998e-01 -1.2362996386816008e+01 -7.5659518081473616e+00 6.1855723869823347e+00 -1 5 -1
1231 411 1 -8.1999999999999995e-01 -1.2305215436236399e+01 -8.0098630484656397e+00 5.2913989091195344e+00 -1 5 -1
630 210 2 4.0999999999999998e-01 -1.0077502184170031e+01 -9.9527495880361307e+00 3.3585559401614855e+00 -3 0 1
628 210 1 -8.1999999999999995e-01 -1.1054485727425122e+01 -1.0103723159666842e+01 3.5090607320027001e+00 -3 0 1
1233 411 2 4.0999999999999998e-01 -1.1519773723247425e+01 -8.6285737183405331e+00 5.2765725035165101e+00 -1 5 -1
1136 379 2 4.0999999999999998e-01 -1.3078008171199711e+01 -8.3307496351928449e+00 3.6239833559860504e+00 3 -4 1
629 210 2 4.0999999999999998e-01 -1.1314721899267756e+01 -1.0995713677015200e+01 3.1395048013735849e+00 -3 0 1
1699 567 1 -8.1999999999999995e-01 -9.2354325116328173e+00 -7.0840819820971559e+00 6.0178743984725358e-01 8 -2 -1
2262 754 2 4.0999999999999998e-01 -1.2642538582472548e+01 -1.4005252443618488e+01 4.4394289997270047e+00 8 0 -3
1322 441 2 4.0999999999999998e-01 -1.0990853717579398e+01 -1.3402844624286589e+01 2.0283055075504368e+00 2 -4 -4
1185 395 2 4.0999999999999998e-01 -7.5593328771552786e+00 -7.9578121855436583e+00 3.6744909819659100e-01 3 3 3
1323 441 2 4.0999999999999998e-01 -1.2527083127500982e+01 -1.3034353131998497e+01 2.4414442141887616e+00 2 -4 -4
1321 441 1 -8.1999999999999995e-01 -1.1666899008138383e+01 -1.2668319411538466e+01 2.0864174574848828e+00 2 -4 -4
2260 754 1 -8.1999999999999995e-01 -1.3331315570519127e+01 -1.4035613361909746e+01 3.7151321141565017e+00 8 0 -3
847 283 1 -8.1999999999999995e-01 -8.9860701349451730e+00 -1.4384958590848306e+01 5.2983913632978510e+00 5 1 2
1479 493 2 4.0999999999999998e-01 -8.4229018061443277e+00 -6.9326780560270329e+00 5.4581383560960415e+00 2 0 -1
1700 567 2 4.0999999999999998e-01 -9.7594450758626756e+00 -6.9748312458741797e+00 1.4464273876548024e+00 8 -2 -1
965 322 2 4.0999999999999998e-01 -1.4861553528678224e+01 -1.4431930236145099e+01 2.5949665763638663e-01 6 0 -5
1477 493 1 -8.1999999999999995e-01 -8.7347714191525547e+00 -7.0900046165163202e+00 4.5211606732350003e+00 2 0 -1
1478 493 2 4.0999999999999998e-01 -8.0251613580503136e+00 -7.5757472796456664e+00 4.0108185052266254e+00 2 0 -1
848 283 2 4.0999999999999998e-01 -8.6691071460835687e+00 -1.3436921329472565e+01 5.3248746417137856e+00 5 1 2
283 95 1 -8.1999999999999995e-01 -1.0784643123190342e+01 -6.8720263209143795e+00 2.8045261262092307e+00 7 2 4
2137 713 1 -8.1999999999999995e-01 -7.6306262612916100e+00 -1.0980862571296651e+01 2.6792726382726624e+00 5 1 2
750 250 2 4.0999999999999998e-01 -7.9959249632645371e+00 -1.1186376090071953e+01 4.7220204724774657e+00 -3 3 0
748 250 1 -8.1999999999999995e-01 -8.4481945601215820e+00 -1.1567889187220096e+01 5.5281479528717288e+00 -3 3 0
285 95 2 4.0999999999999998e-01 -1.1647728516595901e+01 -7.1559093002652139e+00 3.2221807809940142e+00 7 2 4
1135 379 1 -8.1999999999999995e-01 -1.3820980005389831e+01 -8.3283080097648199e+00 2.9547089461315235e+00 3 -4 1
284 95 2 4.0999999999999998e-01 -1.0056097274214739e+01 -6.9065202333505411e+00 3.4886112874354946e+00 7 2 4
1198 400 1 -8.1999999999999995e-01 -1.1632085156731621e+01 -1.3784281089825878e+01 6.0332060372771910e+00 6 -1 3
1632 544 2 4.0999999999999998e-01 -1.4037066565753843e+01 -9.0671371457758489e+00 5.3123013537413879e+00 0 3 8
849 283 2 4.0999999999999998e-01 -8.4857116624088711e+00 -1.4884045500233020e+01 4.5909345697555519e+00 5 1 2
2096 699 2 4.0999999999999998e-01 -1.2773076744988529e+01 -1.1586275604125255e+01 1.0895747485865304e+00 -2 -8 -1
2261 754 2 4.0999999999999998e-01 -1.4243049980346736e+01 -1.3960019554653423e+01 4.1188241849080267e+00 8 0 -3
445 149 1 -8.1999999999999995e-01 -1.3673060389660995e+01 -7.0684066547205182e+00 5.9743214328825189e-01 3 -5 3
1630 544 1 -8.1999999999999995e-01 -1.4894014538047424e+01 -9.1783557150855053e+00 5.8155030624632271e+00 0 3 8
2311 771 1 -8.1999999999999995e-01 -1.5016963161836829e+01 -5.6464190515756751e+00 3.4916848591222216e+00 4 1 -4
749 250 2 4.0999999999999998e-01 -9.1212222508603666e+00 -1.0913902684832131e+01 5.8735127946027550e+00 -3 3 0
1199 400 2 4.0999999999999998e-01 -1.0698838525746019e+01 -1.3932692012708966e+01 5.7061489603564102e+00 6 -1 3
2138 713 2 4.0999999999999998e-01 -8.5017987817476346e+00 -1.1265674671738694e+01 2.2794200212113314e+00 5 1 2
446 149 2 4.0999999999999998e-01 -1.3460623614074063e+01 -7.7944232271350158e+00 1.2514291859251738e+00 3 -5 3
1570 524 1 -8.1999999999999995e-01 -1.0001668625974808e+01 -9.6609116445450205e+00 7.0883998245056876e+00 0 -1 3
2095 699 1 -8.1999999999999995e-01 -1.3370552114133730e+01 -1.0956423775670268e+01 5.9333768594297531e-01 -2 -8 -1
279 93 2 4.0999999999999998e-01 -1.2502733817246952e+01 -5.7577886264590994e+00 2.3681924046444180e-01 1 1 2
1701 567 2 4.0999999999999998e-01 -9.5112297990458146e+00 -7.9300652338419253e+00 1.4550944101598873e-01 8 -2 -1
1200 400 2 4.0999999999999998e-01 -1.1843975563567032e+01 -1.4449212970306544e+01 6.7493830816465614e+00 6 -1 3
2100 700 2 4.0999999999999998e-01 -8.1193223171639417e+00 -5.6904818086332831e+00 1.0854728941068359e-01 2 0 -1
2097 699 2 4.0999999999999998e-01 -1.4287038567655920e+01 -1.1350525065282193e+01 5.2494090526931103e-01 -2 -8 -1
893 298 2 4.0999999999999998e-01 -9.7506541043265607e+00 -1.4944450842729161e+01 5.6728739747716084e-01 8 -1 -3
1137 379 2 4.0999999999999998e-01 -1.3915615002030133e+01 -9.2415204364118360e+00 2.5584405792072804e+00 3 -4 1
2083 695 1 -8.1999999999999995e-01 -7.8308503578190498e+00 -5.8101625613292587e+00 6.7230769782101287e+00 1 4 3
1571 524 2 4.0999999999999998e-01 -9.2712235420585642e+00 -9.0008500208408080e+00 7.2636431430516044e+00 0 -1 3
2313 771 2 4.0999999999999998e-01 -1.4829935687131604e+01 -6.6281250043075541e+00 3.5265492451843752e+00 4 1 -4
1962 654 2 4.0999999999999998e-01 -8.4135200391855030e+00 -1.4780434495407025e+01 2.3273276929911209e+00 1 -1 -3
1662 554 2 4.0999999999999998e-01 -1.1259877148104952e+01 -1.2370506437759314e+01 7.3388506402574745e+00 3 1 1
447 149 2 4.0999999999999998e-01 -1.4610271309368374e+01 -7.1808721844403252e+00 2.6738855886685720e-01 3 -5 3
2312 771 2 4.0999999999999998e-01 -1.4169419526338618e+01 -5.1523220258419418e+00 3.2980889489501681e+00 4 1 -4
892 298 1 -8.1999999999999995e-01 -1.0033237944062591e+01 -1.4874616407735219e+01 1.5239539814833361e+00 8 -1 -3