LAMMPS data file via write_data, version 15 May 2015, timestep = 8008000

2611 atoms
6 atom types
1749 bonds
4 bond types
894 angles
3 angle types
44 dihedrals
3 dihedral types
10 impropers
1 improper types

-1.5008901817594635e+01 1.5008901817594635e+01 xlo xhi
-1.5008901817594635e+01 1.5008901817594635e+01 ylo yhi
-1.5008901817594635e+01 1.5008901817594635e+01 zlo zhi

Masses

1 15.9994
2 1.00794
3 12.0107
4 1.00794
5 12.0107
6 12.0107

Bond Coeffs # harmonic

1 1000 1
2 469 1.4
3 367 1.08
4 469 0.7

Angle Coeffs # harmonic

1 100 109.47
2 35 120
3 63 120

Dihedral Coeffs # opls

1 0 7.25 0 0
2 0 7.25 0 0
3 0 7.25 0 0

Improper Coeffs # cvff

1 2.5 -1 2

Atoms # full

1267 423 1 -8.1999999999999995e-01 -9.6024021491538463e+00 -7.5594284312559221e+00 -1.3760087428478109e+01 3 3 3
1268 423 2 4.0999999999999998e-01 -9.3645470170438792e+00 -7.6195615062999966e+00 -1.2790624318172092e+01 3 3 3
261 87 2 4.0999999999999998e-01 -1.1965764971533472e+01 -6.9087487327120538e+00 -8.1795202522830941e+00 1 1 0
259 87 1 -8.1999999999999995e-01 -1.2073602582692827e+01 -7.8935900153589165e+00 -8.0434744052677125e+00 1 1 0
260 87 2 4.0999999999999998e-01 -1.1175242000192938e+01 -8.3326170874177201e+00 -8.0593888326003089e+00 1 1 0
2324 775 2 4.0999999999999998e-01 -1.0710136319709761e+01 -1.0309266247230042e+01 -1.4614240428735146e+01 5 1 -3
2323 775 1 -8.1999999999999995e-01 -1.1049902788575070e+01 -1.0676952442553205e+01 -1.3748552654706911e+01 5 1 -3
2325 775 2 4.0999999999999998e-01 -1.1052594132769361e+01 -9.9540837286641572e+00 -1.3057536482811201e+01 5 1 -3
2349 783 2 4.0999999999999998e-01 -1.3829264013833154e+01 -1.3934924721340959e+01 -1.2876136269731141e+01 0 1 2
2288 763 2 4.0999999999999998e-01 -1.4040997698525315e+01 -9.0222700616274096e+00 -1.0770051476963163e+01 3 -1 1
844 282 1 -8.1999999999999995e-01 -9.3088476078491240e+00 -8.7418941212381505e+00 -8.0926017310252405e+00 3 1 2
1269 423 2 4.0999999999999998e-01 -1.0411807891955180e+01 -6.9824259327619647e+00 -1.3869541397439622e+01 3 3 3
934 312 1 -8.1999999999999995e-01 -1.3598157942136297e+01 -5.8303590646699348e+00 -1.0411061824223005e+01 0 2 1
177 59 2 4.0999999999999998e-01 -8.8464743466854223e+00 -6.5092611889202683e+00 -9.7989378044571271e+00 -1 1 1
136 46 1 -8.1999999999999995e-01 -1.4012545706746302e+01 -1.1073179017765385e+01 -7.6522205148171452e+00 -1 -3 4
1932 644 2 4.0999999999999998e-01 -1.3582980907655372e+01 -7.7321532793119774e+00 -1.2885541691471049e+01 4 0 2
2289 763 2 4.0999999999999998e-01 -1.2445994528652966e+01 -9.0764436483769355e+00 -1.1116156855831816e+01 3 -1 1
193 65 1 -8.1999999999999995e-01 -8.7527433672604058e+00 -1.2931020008522999e+01 -1.0531642016199683e+01 4 1 1
195 65 2 4.0999999999999998e-01 -9.0829705073906375e+00 -1.3867712131601307e+01 -1.0648294008791090e+01 4 1 1
2287 763 1 -8.1999999999999995e-01 -1.3314994540108742e+01 -8.6339062693538544e+00 -1.1337627628107604e+01 3 -1 1
1225 409 1 -8.1999999999999995e-01 -1.2509132935781979e+01 -1.2547352959897351e+01 -1.2517452000197267e+01 0 2 -1
1226 409 2 4.0999999999999998e-01 -1.2376085602110910e+01 -1.2274119151888158e+01 -1.1564723574204482e+01 0 2 -1
1930 644 1 -8.1999999999999995e-01 -1.3714273180873441e+01 -7.3581111095362459e+00 -1.3803640036691270e+01 4 0 2
1227 409 2 4.0999999999999998e-01 -1.2028659137829399e+01 -1.1907981416840942e+01 -1.3117784174198807e+01 0 2 -1
1862 621 2 4.0999999999999998e-01 -1.1627146206125424e+01 -1.2361543244570434e+01 -9.1932360255288632e+00 1 1 2
1863 621 2 4.0999999999999998e-01 -1.3232827187235854e+01 -1.2269876597841073e+01 -9.4763349840276270e+00 1 1 2
1861 621 1 -8.1999999999999995e-01 -1.2345695184522832e+01 -1.2504308709457835e+01 -9.8739379762771264e+00 1 1 2
1726 576 1 -8.1999999999999995e-01 -9.9074945008174176e+00 -1.2660068913593101e+01 -8.0214474343218178e+00 -1 -2 2
137 46 2 4.0999999999999998e-01 -1.4454547944944657e+01 -1.0436319876270080e+01 -8.2839595756462021e+00 -1 -3 4
590 197 2 4.0999999999999998e-01 -1.0517509857594579e+01 -1.0457129599960062e+01 -1.0194901937037358e+01 -1 -1 0
589 197 1 -8.1999999999999995e-01 -1.0751570381440052e+01 -9.8062927880076494e+00 -1.0917173964656900e+01 -1 -1 0
194 65 2 4.0999999999999998e-01 -9.1274838322408769e+00 -1.2548211387497592e+01 -9.6872031948761581e+00 4 1 1
591 197 2 4.0999999999999998e-01 -1.0012521339310991e+01 -9.1401834731162861e+00 -1.1017944259698352e+01 -1 -1 0
846 282 2 4.0999999999999998e-01 -8.4572698672062927e+00 -8.2347647510219915e+00 -8.2255864253503006e+00 3 1 2
1655 552 2 4.0999999999999998e-01 -7.5877122930326166e+00 -6.4077580618149774e+00 -1.4603789581471817e+01 1 -2 5
936 312 2 4.0999999999999998e-01 -1.3375899927240837e+01 -6.7935236918892183e+00 -1.0562603803592195e+01 0 2 1
935 312 2 4.0999999999999998e-01 -1.2933121265518771e+01 -5.2557558159946858e+00 -1.0888143681975686e+01 0 2 1
378 126 2 4.0999999999999998e-01 -1.2270441514928764e+01 -1.4613556041151879e+01 -1.1583328745735283e+01 0 4 -1
848 283 2 4.0999999999999998e-01 -1.3329696143459898e+01 -5.7112651217440789e+00 -1.3890061374397071e+01 0 -1 -1
175 59 1 -8.1999999999999995e-01 -9.2088701728664333e+00 -5.5880208614730122e+00 -9.9404838140468819e+00 -1 1 1
596 199 2 4.0999999999999998e-01 -8.0615300041913400e+00 -9.1758383451065058e+00 -1.0492928770141296e+01 1 -2 1
595 199 1 -8.1999999999999995e-01 -8.3794094087872359e+00 -8.4388852370884244e+00 -1.1089504464583362e+01 1 -2 1
119 40 2 4.0999999999999998e-01 -7.8075021582466517e+00 -1.2406904688928382e+01 -1.2476903373541061e+01 -2 5 0
854 285 2 4.0999999999999998e-01 -7.9464599037070673e+00 -1.2255327686899511e+01 -1.4964713980395540e+01 -1 0 3
1727 576 2 4.0999999999999998e-01 -8.9315778298303385e+00 -1.2675607544761075e+01 -7.8037435605544818e+00 -1 -2 2
1931 644 2 4.0999999999999998e-01 -1.4514319038677868e+01 -7.7843097122465199e+00 -1.4225932745230189e+01 4 0 2
2348 783 2 4.0999999999999998e-01 -1.3510607058812139e+01 -1.4087751142044384e+01 -1.4470457767970144e+01 0 1 2
2347 783 1 -8.1999999999999995e-01 -1.3991728200475114e+01 -1.4490369183581512e+01 -1.3691695339736915e+01 0 1 2
597 199 2 4.0999999999999998e-01 -7.6297958240608255e+00 -8.1422445118745763e+00 -1.1681225197566942e+01 1 -2 1
327 109 2 4.0999999999999998e-01 -3.2184459826900991e-01 -9.2654022358758148e+00 -9.1109152229350663e+00 -1 0 3
2032 678 1 -8.1999999999999995e-01 -4.3906002132085806e+00 -7.2273879444235982e+00 -1.4573102715373686e+01 3 -4 2
506 169 2 4.0999999999999998e-01 -6.7666449349043525e+00 -5.2711138572956457e+00 -1.2127914302271616e+01 4 -2 3
585 195 2 4.0999999999999998e-01 -5.3539640628946774e+00 -7.0720812739022740e+00 -1.1616568405595153e+01 0 -1 1
191 64 2 4.0999999999999998e-01 -4.1049106841593055e+00 -1.0675201094392087e+01 -8.1863362135121882e+00 -3 2 -4
405 135 2 4.0999999999999998e-01 -2.3032215653116221e+00 -1.4047720037688579e+01 -7.7484251886102387e+00 2 0 0
2371 791 1 -8.1999999999999995e-01 -7.1396082729310288e+00 -6.9673339890139996e+00 -8.7150664932508590e+00 0 -2 0
2183 728 2 4.0999999999999998e-01 -7.1754824365842875e+00 -1.4153730591507868e+01 -7.7045482255102185e+00 -2 0 -1
413 138 2 4.0999999999999998e-01 -6.6153966187700526e+00 -1.4928276225623188e+01 -1.4753683412082545e+01 2 6 4
2372 791 2 4.0999999999999998e-01 -6.3550357365055294e+00 -7.4976870473247343e+00 -9.0363472703609276e+00 0 -2 0
2373 791 2 4.0999999999999998e-01 -6.8681446632646459e+00 -6.0130238141355310e+00 -8.5899690586953064e+00 0 -2 0
1641 547 2 4.0999999999999998e-01 -1.0217101470199577e+00 -1.4571169509149312e+01 -1.0665333860504592e+01 4 0 5
2237 746 2 4.0999999999999998e-01 -2.0605126795008228e+00 -7.8002410637478174e+00 -1.4005919327969458e+01 -1 -7 0
558 186 2 4.0999999999999998e-01 -2.9799408302315165e+00 -5.3109258639975874e+00 -8.7110245774465582e+00 2 -1 -1
403 135 1 -8.1999999999999995e-01 -2.1982886536277757e+00 -1.3069611530459781e+01 -7.5685846988098673e+00 2 0 0
1222 408 1 -8.1999999999999995e-01 -3.8120542472969632e+00 -1.2448052945210094e+01 -1.2665655311946509e+01 3 0 -1
118 40 1 -8.1999999999999995e-01 -7.2104742109736808e+00 -1.2307164005613242e+01 -1.3272930503128704e+01 -2 5 0
1033 345 1 -8.1999999999999995e-01 -1.6475047820247628e+00 -9.3949192424529819e+00 -1.0079717583696322e+01 0 0 -2
120 40 2 4.0999999999999998e-01 -6.6636937979477793e+00 -1.1475330965641827e+01 -1.3177354666847211e+01 -2 5 0
2236 746 1 -8.1999999999999995e-01 -1.2188597029892509e+00 -7.2643095331248544e+00 -1.4072608116562396e+01 -1 -7 0
1447 483 1 -8.1999999999999995e-01 -4.2259173900849518e+00 -8.0321830834255863e+00 -1.0757080833350436e+01 0 0 0
583 195 1 -8.1999999999999995e-01 -5.9836498706006136e+00 -6.8799086519225927e+00 -1.2369306903022897e+01 0 -1 1
1511 504 2 4.0999999999999998e-01 -2.9540263272005873e-01 -8.2529623128745797e+00 -1.2900103886621931e+01 -3 0 1
2181 727 2 4.0999999999999998e-01 -6.6156151263315373e+00 -1.2627171726796941e+01 -1.0502351391902023e+01 3 2 2
2238 746 2 4.0999999999999998e-01 -1.4415546244401476e+00 -6.3251820197714412e+00 -1.4334326012949447e+01 -1 -7 0
2033 678 2 4.0999999999999998e-01 -3.7384170627751985e+00 -6.5437945120126670e+00 -1.4900832532115942e+01 3 -4 2
687 229 2 4.0999999999999998e-01 -4.8853967003502952e-01 -1.2215730270186025e+01 -1.3133875968346731e+01 -1 1 2
557 186 2 4.0999999999999998e-01 -1.9587261246794068e+00 -6.2976760806606329e+00 -9.5173766013556236e+00 2 -1 -1
512 171 2 4.0999999999999998e-01 -4.8311340200814001e+00 -9.1257911472657050e+00 -1.2631488799678623e+01 -1 -2 0
2179 727 1 -8.1999999999999995e-01 -5.8225010107287822e+00 -1.2020940321308951e+01 -1.0443164352876302e+01 3 2 2
1034 345 2 4.0999999999999998e-01 -1.9538808502062555e+00 -9.0666692884522426e+00 -1.0973269712131181e+01 0 0 -2
686 229 2 4.0999999999999998e-01 -6.4031961840334084e-01 -1.0685337688984582e+01 -1.2584676005311335e+01 -1 1 2
357 119 2 4.0999999999999998e-01 -4.8402132639959383e-01 -7.4045768290257046e+00 -1.0144292967080013e+01 -2 -1 2
414 138 2 4.0999999999999998e-01 -6.3544287496488767e+00 -1.3452846800723552e+01 -1.4104250678639449e+01 2 6 4
1449 483 2 4.0999999999999998e-01 -4.3765898232333367e+00 -8.9048140229046169e+00 -1.0292470424942593e+01 0 0 0
412 138 1 -8.1999999999999995e-01 -5.9262755338461872e+00 -1.4227213867141046e+01 -1.4570180118158433e+01 2 6 4
511 171 1 -8.1999999999999995e-01 -5.1584264034084661e+00 -1.0031724519949261e+01 -1.2900215765889925e+01 -1 -2 0
1223 408 2 4.0999999999999998e-01 -2.8556041165973394e+00 -1.2190885314764159e+01 -1.2803922174497158e+01 3 0 -1
192 64 2 4.0999999999999998e-01 -4.9244555841878359e+00 -1.0905473845945235e+01 -9.5799214100920480e+00 -3 2 -4
1035 345 2 4.0999999999999998e-01 -2.4383538692328059e+00 -9.6922670182122737e+00 -9.5447486235898467e+00 0 0 -2
355 119 1 -8.1999999999999995e-01 -4.7949841763644052e-01 -6.4047506467851711e+00 -1.0163706638306760e+01 -2 -1 2
685 229 1 -8.1999999999999995e-01 -1.1029296387168497e+00 -1.1429578779130136e+01 -1.3066492253115751e+01 -1 1 2
190 64 1 -8.1999999999999995e-01 -4.2145971200722112e+00 -1.0363386263290494e+01 -9.1301529656414733e+00 -3 2 -4
2385 795 2 4.0999999999999998e-01 -1.6416407779435005e+00 -1.2896486716990538e+01 -9.1722611229661162e+00 1 1 1
2383 795 1 -8.1999999999999995e-01 -1.4017453193959124e+00 -1.3057778497693814e+01 -1.0129593303195319e+01 1 1 1
2384 795 2 4.0999999999999998e-01 -2.1219328717263899e+00 -1.2692912194437319e+01 -1.0719722307208354e+01 1 1 1
1224 408 2 4.0999999999999998e-01 -4.0249126552606178e+00 -1.3251515008040764e+01 -1.3221703669983285e+01 3 0 -1
584 195 2 4.0999999999999998e-01 -5.5570491889265750e+00 -7.1403202375797887e+00 -1.3235475161802290e+01 0 -1 1
2180 727 2 4.0999999999999998e-01 -5.1504748776001410e+00 -1.2282656039871483e+01 -1.1135938075737773e+01 3 2 2
556 186 1 -8.1999999999999995e-01 -2.8134380761477402e+00 -6.2536692233927038e+00 -9.0000946546909901e+00 2 -1 -1
1448 483 2 4.0999999999999998e-01 -3.6386955966720578e+00 -7.4513951084396970e+00 -1.0193249583408779e+01 0 0 0
513 171 2 4.0999999999999998e-01 -4.4237249313985281e+00 -1.0699917908929823e+01 -1.2782822801091326e+01 -1 -2 0
1455 485 2 4.0999999999999998e-01 -2.8738718427304377e+00 -7.1768095763448239e+00 -7.5863533414495077e+00 2 2 -2
1901 634 2 4.0999999999999998e-01 -1.1745255361868116e+01 -9.5505049863801421e+00 -2.4212336294498389e+00 2 -1 -2
1900 634 1 -8.1999999999999995e-01 -1.2635981143839754e+01 -9.8517212933075733e+00 -2.7617128193754610e+00 2 -1 -2
2162 721 2 4.0999999999999998e-01 -1.0258488636323257e+01 -1.4031624637355037e+01 -1.0290765837233966e+00 2 -1 2
2185 729 1 -8.1999999999999995e-01 -1.1053425186096774e+01 -5.9660228838955813e+00 -3.7613573055268361e+00 6 -3 4
2163 721 2 4.0999999999999998e-01 -1.1470808702069260e+01 -1.3163465333707482e+01 -1.6949134341805063e+00 2 -1 2
2161 721 1 -8.1999999999999995e-01 -1.0479860879077609e+01 -1.3223174607126895e+01 -1.5744687615792419e+00 2 -1 2
1728 576 2 4.0999999999999998e-01 -1.0425533403614399e+01 -1.2386990183252989e+01 -7.2108221067773943e+00 -1 -2 2
2186 729 2 4.0999999999999998e-01 -1.1964161906369290e+01 -6.1019462043787929e+00 -4.1513999007580793e+00 6 -3 4
1575 525 2 4.0999999999999998e-01 -9.3069907756685328e+00 -1.1784420704332691e+01 -4.6905439560324727e+00 3 1 0
817 273 1 -8.1999999999999995e-01 -1.4424660085055626e+01 -8.9082365055672881e+00 -1.0578186987041285e+00 -1 2 1
1573 525 1 -8.1999999999999995e-01 -8.5222223369292678e+00 -1.1205605993653426e+01 -4.4688193950995494e+00 3 1 0
1201 401 1 -8.1999999999999995e-01 -1.2133368060008122e+01 -1.0175995544128963e+01 -5.4743003432324926e+00 3 1 5
1898 633 2 4.0999999999999998e-01 -1.1298733675283065e+01 -1.1538913271210616e+01 -5.0820207161050455e+00 0 -2 2
1574 525 2 4.0999999999999998e-01 -8.4850689907597374e+00 -1.1058751381095771e+01 -3.4803341483248325e+00 3 1 0
1897 633 1 -8.1999999999999995e-01 -1.0844405606475620e+01 -1.2410273195915147e+01 -4.8966355074618662e+00 0 -2 2
1368 456 2 4.0999999999999998e-01 -9.1410899639049799e+00 -1.1844621744282126e+01 -1.4161512907415421e+00 -1 2 2
2579 860 2 4.0999999999999998e-01 -9.3549889933472450e+00 -7.6373284620414541e+00 -2.4317407467527019e-01 2 2 0
1488 496 2 4.0999999999999998e-01 -8.1596154391640976e+00 -9.2552060722115073e+00 -2.2344865441339739e+00 1 2 -1
725 242 2 4.0999999999999998e-01 -8.8963875831696981e+00 -8.5305392021467750e+00 -4.3449737841246439e+00 3 0 0
1486 496 1 -8.1999999999999995e-01 -8.2207171126008625e+00 -8.3070824819384335e+00 -2.5465410305498217e+00 1 2 -1
315 105 2 4.0999999999999998e-01 -7.7066845277138238e+00 -5.2187870870506661e+00 -6.9630281839718808e+00 2 1 -2
724 242 1 -8.1999999999999995e-01 -9.3919905344564505e+00 -8.2498618942615902e+00 -5.1669517317005198e+00 3 0 0
1899 633 2 4.0999999999999998e-01 -1.1532717959067851e+01 -1.3123581048630353e+01 -4.7644697657154325e+00 0 -2 2
2187 729 2 4.0999999999999998e-01 -1.0548725439168010e+01 -6.8290372079880477e+00 -3.7844700712840087e+00 6 -3 4
1366 456 1 -8.1999999999999995e-01 -8.4982745617927211e+00 -1.1152265640224677e+01 -1.7439944306104884e+00 -1 2 2
1203 401 2 4.0999999999999998e-01 -1.2472747462175317e+01 -9.7790343548386076e+00 -4.6214855276263958e+00 3 1 5
1681 561 1 -8.1999999999999995e-01 -1.3310877374822743e+01 -1.3830117986503073e+01 -2.2514744124275392e+00 2 0 0
1683 561 2 4.0999999999999998e-01 -1.3240456691777675e+01 -1.3995783068877728e+01 -3.2351642843392803e+00 2 0 0
1902 634 2 4.0999999999999998e-01 -1.3315110473274025e+01 -9.7753099073772933e+00 -2.0316481541005551e+00 2 -1 -2
1799 600 2 4.0999999999999998e-01 -1.4736374309899929e+01 -1.2023411238603931e+01 -4.0981575749621335e+00 2 4 0
2218 740 1 -8.1999999999999995e-01 -1.4602925190218830e+01 -8.0853094731857738e+00 -6.3959167641151833e+00 3 0 1
314 105 2 4.0999999999999998e-01 -8.9008090129823323e+00 -6.3052552048025117e+00 -7.2088183923684586e+00 2 1 -2
726 242 2 4.0999999999999998e-01 -8.8622069747127981e+00 -7.5562159955022032e+00 -5.6550444594050795e+00 3 0 0
1202 401 2 4.0999999999999998e-01 -1.1304186834387849e+01 -9.6949548925778934e+00 -5.7590950505548495e+00 3 1 5
1567 523 1 -8.1999999999999995e-01 -1.3882701225078135e+01 -5.9772697819915326e+00 -4.6069119337298705e+00 -1 2 0
1682 561 2 4.0999999999999998e-01 -1.4017020285385932e+01 -1.3143383962238875e+01 -2.0788235238623383e+00 2 0 0
138 46 2 4.0999999999999998e-01 -1.3326226737576329e+01 -1.0585220029817378e+01 -7.1128578645125584e+00 -1 -3 4
313 105 1 -8.1999999999999995e-01 -8.4376090415262155e+00 -5.7418722253767278e+00 -6.5246436058656645e+00 2 1 -2
1568 523 2 4.0999999999999998e-01 -1.3980212901333033e+01 -6.6410780276374197e+00 -5.3484642166116529e+00 -1 2 0
845 282 2 4.0999999999999998e-01 -9.3531659437117050e+00 -9.0780591379812563e+00 -7.1518154979299258e+00 3 1 2
1367 456 2 4.0999999999999998e-01 -7.5704247971076368e+00 -1.1400394538878674e+01 -1.4654687216993914e+00 -1 2 2
1324 442 1 -8.1999999999999995e-01 -1.3401233347335168e+01 -1.4779890378051405e+01 -4.8750033425024846e+00 0 1 1
1569 523 2 4.0999999999999998e-01 -1.4635192430781567e+01 -6.0895849775100732e+00 -3.9579188419739957e+00 -1 2 0
819 273 2 4.0999999999999998e-01 -1.4750961268376640e+01 -8.4691970097771438e+00 -1.8949695979712882e+00 -1 2 1
2220 740 2 4.0999999999999998e-01 -1.3745687851439436e+01 -8.1777879607349533e+00 -6.9025148295216141e+00 3 0 1
818 273 2 4.0999999999999998e-01 -1.3633680687159691e+01 -8.4079194427841948e+00 -7.0556289220883883e-01 -1 2 1
807 269 2 4.0999999999999998e-01 -7.8879509085003328e+00 -5.0975830774434989e+00 -1.2578573671987101e+00 2 1 5
1835 612 2 4.0999999999999998e-01 -1.4117894693377899e+01 -6.0905135313881651e+00 -2.7415431207112562e-01 3 -1 4
2253 751 2 4.0999999999999998e-01 -1.0334868516891392e+01 -5.0663622459574409e+00 -8.0169590110200062e-01 -4 3 1
805 269 1 -8.1999999999999995e-01 -8.6649133248773751e+00 -5.0996256767797021e+00 -6.2827416882558573e-01 2 1 5
24 8 2 4.0999999999999998e-01 -2.7507088264318451e+00 -1.2559785085973866e+01 -4.5411451768154976e-02 0 -1 0
67 23 1 -8.1999999999999995e-01 -3.9887166243676617e+00 -5.4041961832476808e+00 -5.1253520788655482e+00 1 3 -2
1737 579 2 4.0999999999999998e-01 -5.2283350244080484e+00 -1.4068099861651911e+01 -3.2355584273803828e+00 2 1 -3
2184 728 2 4.0999999999999998e-01 -7.3793901200943539e+00 -1.3415911707698971e+01 -6.2620490043939530e+00 -2 0 -1
410 137 2 4.0999999999999998e-01 -7.3212692500954262e+00 -1.0579395501145296e+01 -5.7523632668313454e+00 -2 2 -3
1776 592 2 4.0999999999999998e-01 -3.5192231789757322e-01 -1.1035493406922763e+01 -5.3126192502486909e+00 0 -1 0
2182 728 1 -8.1999999999999995e-01 -7.4698523006466369e+00 -1.3311678110882246e+01 -7.2525043047821169e+00 -2 0 -1
579 193 2 4.0999999999999998e-01 -9.1357272082632690e-01 -5.8609370140400241e+00 -3.7815287198708170e+00 0 1 -1
2356 786 1 -8.1999999999999995e-01 -3.4614923235767314e-01 -8.1483822174570690e+00 -6.2276641907711685e+00 -2 1 -3
69 23 2 4.0999999999999998e-01 -3.8978264115716321e+00 -6.2600763285381724e+00 -5.6345257881193671e+00 1 3 -2
577 193 1 -8.1999999999999995e-01 -1.0568275580124009e-01 -6.3405490080212275e+00 -4.1240719518427991e+00 0 1 -1
696 232 2 4.0999999999999998e-01 -5.2373705355209523e+00 -5.8073105791693500e+00 -3.9760283631487781e+00 2 2 -3
252 84 2 4.0999999999999998e-01 -4.7714500424217690e+00 -8.2558807414001016e+00 -1.1615257137402839e+00 -1 -2 0
704 235 2 4.0999999999999998e-01 -7.7116513716906532e-01 -1.4138831228553823e+01 -1.7709000210827650e+00 1 -3 -1
2165 722 2 4.0999999999999998e-01 -5.2153846132835415e+00 -1.1770856948660704e+01 -6.3142217790504951e-01 -1 1 0
694 232 1 -8.1999999999999995e-01 -5.8440534834980706e+00 -5.7729922740991597e+00 -3.1817942358041673e+00 2 2 -3
1206 402 2 4.0999999999999998e-01 -5.7376593976785948e+00 -1.2044804283857147e+01 -3.0743478826068227e+00 -1 0 0
409 137 1 -8.1999999999999995e-01 -6.5572337222450834e+00 -1.0698331921472096e+01 -6.3865190893857910e+00 -2 2 -3
289 97 1 -8.1999999999999995e-01 -1.5096018053316627e+00 -9.0891128563911199e+00 -2.0414124956236108e+00 1 1 -3
2466 822 2 4.0999999999999998e-01 -2.4801057876769601e+00 -1.4735234027606298e+01 -3.4165865894611809e+00 1 2 -1
1158 386 2 4.0999999999999998e-01 -3.6059634991389604e+00 -1.1487969628901258e+01 -5.4903960593774208e+00 -2 -2 2
884 295 2 4.0999999999999998e-01 -1.9709469890900362e+00 -7.3685900437459599e+00 -1.4380503511714924e+00 -1 1 -1
1453 485 1 -8.1999999999999995e-01 -2.9463131476274551e+00 -7.5758841703505606e+00 -6.6722737386369495e+00 2 2 -2
1774 592 1 -8.1999999999999995e-01 -3.0119949619659359e-01 -1.0334848380826827e+01 -4.6008794767922510e+00 0 -1 0
1487 496 2 4.0999999999999998e-01 -7.4473385839624004e+00 -7.7865556268646214e+00 -2.1846195143561182e+00 1 2 -1
1205 402 2 4.0999999999999998e-01 -6.7011851189734379e+00 -1.2130285147009058e+01 -4.3900493702943209e+00 -1 0 0
411 137 2 4.0999999999999998e-01 -6.6932608797442406e+00 -1.1533555760981171e+01 -6.9193863402280549e+00 -2 2 -3
2464 822 1 -8.1999999999999995e-01 -1.9097212919670365e+00 -1.3916387526203488e+01 -3.4814071869636116e+00 1 2 -1
2465 822 2 4.0999999999999998e-01 -2.3638063170706491e+00 -1.3238813331221952e+01 -4.0599828337428843e+00 1 2 -1
703 235 1 -8.1999999999999995e-01 -1.9246898044238137e-01 -1.4610551949079580e+01 -1.1055879883235775e+00 1 -3 -1
883 295 1 -8.1999999999999995e-01 -1.9509920629920892e+00 -6.5341788257440498e+00 -8.8722422278434543e-01 -1 1 -1
695 232 2 4.0999999999999998e-01 -5.7717862969115163e+00 -6.6290343924947894e+00 -2.6699161968086607e+00 2 2 -3
1134 378 2 4.0999999999999998e-01 -3.1498252987316544e+00 -1.1191366673962351e+01 -3.5382027024079523e+00 0 3 0
1843 615 1 -8.1999999999999995e-01 -3.9735921717508358e+00 -9.9334752387380085e+00 -6.0421855963592339e+00 2 1 -5
291 97 2 4.0999999999999998e-01 -1.1262872161429645e+00 -9.2589021341263376e+00 -2.9493173678907318e+00 1 1 -3
1132 378 1 -8.1999999999999995e-01 -3.5382934976169711e+00 -1.0561131013539349e+01 -2.8659339897917597e+00 0 3 0
1204 402 1 -8.1999999999999995e-01 -5.8960862981650504e+00 -1.2517898808403004e+01 -3.9410267461577924e+00 -1 0 0
1454 485 2 4.0999999999999998e-01 -2.0539864713748983e+00 -7.9290673730871672e+00 -6.3910896014642411e+00 2 2 -2
251 84 2 4.0999999999999998e-01 -4.6175257517171566e+00 -9.2485800545889880e+00 -2.4490095238829408e+00 -1 -2 0
22 8 1 -8.1999999999999995e-01 -3.5563552390778490e+00 -1.2087279667721564e+01 -4.0279391088409966e-01 0 -1 0
404 135 2 4.0999999999999998e-01 -2.5898719417149643e+00 -1.2851162426709205e+01 -6.6747210192875848e+00 2 0 0
2164 722 1 -8.1999999999999995e-01 -6.2113284968287932e+00 -1.1806182943132869e+01 -7.1447395254456225e-01 -1 1 0
1845 615 2 4.0999999999999998e-01 -4.9700756400657511e+00 -1.0014826351022283e+01 -6.0209140250581559e+00 2 1 -5
250 84 1 -8.1999999999999995e-01 -5.1105159772978546e+00 -8.4607696652604734e+00 -2.0797329939881468e+00 -1 -2 0
885 295 2 4.0999999999999998e-01 -2.6568401515402975e+00 -6.5842883097892084e+00 -1.8060041320630305e-01 -1 1 -1
2079 693 2 4.0999999999999998e-01 -1.9829687412313675e+00 -5.0911169354656973e+00 -2.0865225064154664e+00 2 0 0
23 8 2 4.0999999999999998e-01 -3.2760325320032742e+00 -1.1440070902983225e+01 -1.1117295463751411e+00 0 -1 0
1844 615 2 4.0999999999999998e-01 -3.7187739331270731e+00 -8.9671910318180856e+00 -6.0797642610788643e+00 2 1 -5
1157 386 2 4.0999999999999998e-01 -4.3931338998055338e+00 -1.2819772704409941e+01 -4.9674979588414612e+00 -2 -2 2
1156 386 1 -8.1999999999999995e-01 -3.4937674448685456e+00 -1.2416781129142468e+01 -5.1371667212524894e+00 -2 -2 2
1133 378 2 4.0999999999999998e-01 -2.8106390471851856e+00 -9.9916258794813153e+00 -2.4835302999020712e+00 0 3 0
290 97 2 4.0999999999999998e-01 -8.0915054173798850e-01 -9.2556953942115889e+00 -1.3473894375082640e+00 1 1 -3
2357 786 2 4.0999999999999998e-01 -2.3017542121695733e-01 -7.4894435440298759e+00 -5.4844282265993805e+00 -2 1 -3
2358 786 2 4.0999999999999998e-01 -4.4605490604874909e-01 -9.0672553949412258e+00 -5.8459042515741100e+00 -2 1 -3
1735 579 1 -8.1999999999999995e-01 -4.8967826196187598e+00 -1.4957225083270059e+01 -2.9199969449767327e+00 2 1 -3
1045 349 1 -8.1999999999999995e-01 -1.1136740480369790e+01 -1.3339551573316857e+01 4.0850729367894498e+00 0 0 3
1046 349 2 4.0999999999999998e-01 -1.1080723293564978e+01 -1.3490009754799452e+01 3.0980196735990067e+00 0 0 3
66 22 2 4.0999999999999998e-01 -1.0610536359427275e+01 -8.0459393144173497e+00 3.7402252451050604e+00 -4 0 -1
64 22 1 -8.1999999999999995e-01 -1.0237952504811155e+01 -8.8686596187189508e+00 4.1695994025658845e+00 -4 0 -1
65 22 2 4.0999999999999998e-01 -1.0205208113822209e+01 -9.6092693725359268e+00 3.4984252338990292e+00 -4 0 -1
545 182 2 4.0999999999999998e-01 -9.3431969602039420e+00 -9.9311639752499374e+00 1.2551960436069596e+00 3 -1 -3
1208 403 2 4.0999999999999998e-01 -1.2242057441017836e+01 -9.6735943346284650e+00 7.4138153100070543e+00 2 -1 1
1047 349 2 4.0999999999999998e-01 -1.0222507310804742e+01 -1.3406155952560274e+01 4.4848120063877293e+00 0 0 3
1071 357 2 4.0999999999999998e-01 -1.2863017555814970e+01 -9.6496036764218420e+00 1.8597025731489634e+00 0 2 5
544 182 1 -8.1999999999999995e-01 -9.5147424647359244e+00 -1.0624367108229112e+01 1.9552612538698408e+00 3 -1 -3
471 157 2 4.0999999999999998e-01 -1.0782301800932593e+01 -1.1848461665339499e+01 1.5741430069147260e+00 -1 1 4
1069 357 1 -8.1999999999999995e-01 -1.3661485663425342e+01 -1.0145359051191949e+01 2.2013528621397658e+00 0 2 5
1903 635 1 -8.1999999999999995e-01 -1.0926983823130211e+01 -6.6857440878698640e+00 6.9381558776775254e+00 -1 0 1
1498 500 1 -8.1999999999999995e-01 -8.7041914495572730e+00 -1.3423413862618505e+01 5.0109705636725632e+00 0 2 2
730 244 1 -8.1999999999999995e-01 -1.2535646989411958e+01 -1.1006901603396141e+01 4.5423522181924891e+00 1 2 -2
1904 635 2 4.0999999999999998e-01 -1.1657323399257145e+01 -7.3479757965277512e+00 6.7705162640478651e+00 -1 0 1
305 102 2 4.0999999999999998e-01 -1.4102533207124489e+01 -1.0386330892677787e+01 4.8770386283711300e+00 2 1 1
469 157 1 -8.1999999999999995e-01 -1.1327271351819830e+01 -1.2617481379451091e+01 1.2399774873583898e+00 -1 1 4
1415 472 2 4.0999999999999998e-01 -1.4688070928423347e+01 -1.3538809938607153e+01 4.8508048185069423e+00 0 3 -4
732 244 2 4.0999999999999998e-01 -1.2921485335069367e+01 -1.0733645384939535e+01 3.6611544130108573e+00 1 2 -2
1499 500 2 4.0999999999999998e-01 -8.8126120926375187e+00 -1.4026033923104677e+01 5.8016308676345734e+00 0 2 2
1948 650 1 -8.1999999999999995e-01 -1.1378721599602748e+01 -6.3854359053999890e+00 3.9446311805351630e+00 -4 -4 -1
1049 350 2 4.0999999999999998e-01 -9.0581295418508692e+00 -6.6541826754460516e+00 6.3963300062156652e+00 2 -2 3
2378 793 2 4.0999999999999998e-01 -8.6083372487714751e+00 -8.5953150653315475e+00 4.5746398034450184e+00 -1 1 -1
186 62 2 4.0999999999999998e-01 -1.3757985680139761e+01 -7.4225834911480755e+00 4.7764373552960517e+00 0 -1 1
1946 649 2 4.0999999999999998e-01 -1.3383022054699973e+01 -1.2923574966930396e+01 8.3857230589063825e-01 1 3 1
185 62 2 4.0999999999999998e-01 -1.4541374048748819e+01 -7.4886492953233130e+00 6.2077643723565128e+00 0 -1 1
546 182 2 4.0999999999999998e-01 -8.6969832736137107e+00 -1.1187567985087238e+01 2.0741074888094513e+00 3 -1 -3
1945 649 1 -8.1999999999999995e-01 -1.4224792403045420e+01 -1.2392190036853057e+01 9.3397943990652443e-01 1 3 1
2377 793 1 -8.1999999999999995e-01 -7.6092573908569552e+00 -8.6386541356738782e+00 4.5779434871033065e+00 -1 1 -1
184 62 1 -8.1999999999999995e-01 -1.3657029807291519e+01 -7.3336156229945892e+00 5.7673674050542107e+00 0 -1 1
1803 601 2 4.0999999999999998e-01 -8.4577055079740546e+00 -5.9668695029618135e+00 4.8332095244010329e+00 2 1 -1
1802 601 2 4.0999999999999998e-01 -9.7756623174435617e+00 -5.5868114825363193e+00 3.9470353421787312e+00 2 1 -1
731 244 2 4.0999999999999998e-01 -1.1878900492238852e+01 -1.1748100123842022e+01 4.4032174267159458e+00 1 2 -2
470 157 2 4.0999999999999998e-01 -1.1180636791654852e+01 -1.2727669018634796e+01 2.5691761622422149e-01 -1 1 4
1950 650 2 4.0999999999999998e-01 -1.1610623995958157e+01 -6.4960823577643261e+00 4.9110826117396105e+00 -4 -4 -1
1500 500 2 4.0999999999999998e-01 -8.1164936437499939e+00 -1.2652732767509214e+01 5.2573679894111454e+00 0 2 2
605 202 2 4.0999999999999998e-01 -1.3285061328416644e+01 -1.4197948310084378e+01 7.4761810974656502e+00 -1 2 -1
1947 649 2 4.0999999999999998e-01 -1.4020167635070816e+01 -1.1520834861542035e+01 1.3799824403888561e+00 1 3 1
538 180 1 -8.1999999999999995e-01 -9.0472118154714636e+00 -1.4953439007115779e+01 7.2120665746741093e+00 0 2 1
1293 431 2 4.0999999999999998e-01 -8.8917675669551777e+00 -1.4802077759303948e+01 3.2238478625795732e+00 5 -1 -3
1242 414 2 4.0999999999999998e-01 -1.4338603077943620e+01 -1.2869322436043170e+01 6.9039825791666569e+00 1 2 1
1240 414 1 -8.1999999999999995e-01 -1.3491374368580475e+01 -1.2509196586003835e+01 7.2945751466004314e+00 1 2 1
1560 520 2 4.0999999999999998e-01 -8.1150281982734569e+00 -6.0340311456419169e+00 2.7181298140374839e+00 -2 0 2
1558 520 1 -8.1999999999999995e-01 -7.5174185432526670e+00 -6.3794617527027384e+00 1.9945345042254790e+00 -2 0 2
1853 618 2 4.0999999999999998e-01 -1.0859288499482570e+01 -8.3600309811193174e+00 9.7784260495258657e-01 -3 -1 0
2295 765 2 4.0999999999999998e-01 -1.0221128995002054e+01 -1.0190717765281805e+01 6.1677580932687359e+00 -1 1 1
1048 350 1 -8.1999999999999995e-01 -8.0600662538315042e+00 -6.6783253985354385e+00 6.4540927817221796e+00 2 -2 3
1801 601 1 -8.1999999999999995e-01 -8.7905069171059758e+00 -5.4467743234387491e+00 4.0465750101405984e+00 2 1 -1
2293 765 1 -8.1999999999999995e-01 -1.0575046078082980e+01 -1.0309197955883789e+01 7.0955268759321992e+00 -1 1 1
1070 357 2 4.0999999999999998e-01 -1.4245715699175490e+01 -9.5201246060915174e+00 2.7188534415740246e+00 0 2 5
1708 570 1 -8.1999999999999995e-01 -1.3928925720785420e+01 -7.0097570402164031e+00 2.8520923054767255e+00 -1 1 -3
2094 698 2 4.0999999999999998e-01 -1.3656659066820289e+01 -1.4995398152917870e+01 3.0762946507088014e+00 -1 1 0