2611
Atoms. Timestep: 8000000
O 13.4173 8.51032 10.9316
H 14.0383 7.85159 11.3565
H 12.4713 8.23939 11.1096
O 3.54932 3.85472 -8.47114
H 4.53239 3.80005 -8.6462
H 3.3944 4.11071 -7.51693
O 2.62564 -12.3343 0.933565
H 3.48659 -12.7903 1.15907
H 2.54449 -12.2475 -0.0593854
O -13.9818 -1.46046 7.71061
H -14.9427 -1.20152 7.61194
H -13.7922 -2.26087 7.14188
O -11.0988 3.5838 -12.2766
H -11.6233 3.11132 -12.9849
H -10.6611 2.91031 -11.6809
O 3.34353 8.97938 -14.6264
H 3.48638 9.969 -14.6089
H 3.23943 8.64103 -13.6911
O -14.1903 8.22392 1.81388
H -13.2263 8.47119 1.71595
H -14.7063 8.57879 1.03422
O -4.31881 13.8796 0.962432
H -3.59051 14.4331 0.558481
H -4.08815 13.6668 1.91196
O 2.13688 4.94479 10.781
H 3.09967 4.77066 10.9878
H 1.67414 4.07823 10.5938
O -7.52594 -0.570374 2.25297
H -7.60214 -0.593805 3.24982
H -7.51752 0.379896 1.94156
O -14.2392 10.3666 8.75833
H -14.1423 9.43247 9.10203
H -14.7558 10.3548 7.90214
O 11.1876 3.55474 -3.76184
H 10.7351 2.77689 -4.19797
H 11.4362 4.22872 -4.45754
O -0.38117 -14.5217 4.06729
H 0.209062 -14.8257 4.81511
H -0.087174 -13.6175 3.75713
O -14.2143 -4.4909 0.759934
H -14.0297 -3.62646 0.29227
H 14.8668 -4.5467 0.985512
O -4.35557 10.136 14.8147
H -5.18696 10.5899 14.4941
H -3.82674 9.81516 14.0289
O -8.30405 -3.67817 -6.84152
H -8.5546 -4.55667 -6.43468
H -7.57975 -3.25367 -6.29816
O 12.1425 -7.26686 -4.85136
H 12.5457 -7.67016 -4.02988
H 12.1563 -7.93741 -5.59314
O -3.84748 14.5703 -14.1585
H -4.30947 14.3551 -13.298
H -4.37606 14.1999 -14.9223
O 7.35286 0.258365 -2.62513
H 6.40888 0.428614 -2.34231
H 7.36082 -0.112914 -3.55365
O -10.4743 -0.139741 -5.39417
H -10.9932 0.694035 -5.5828
H -10.3039 -0.211138 -4.41135
O 3.83741 -9.38268 -2.24703
H 3.26187 -8.84224 -2.86082
H 4.6684 -9.66135 -2.72854
O -9.42787 -7.32417 4.52711
H -10.389 -7.54951 4.6871
H -9.35426 -6.72491 3.72991
O -4.1738 -3.15626 -6.31252
H -3.45429 -2.78902 -5.72302
H -3.94246 -2.98101 -7.26951
O 9.30078 -4.24908 -10.0452
H 9.52851 -3.38929 -10.5023
H 10.1368 -4.77504 -9.88873
O 4.12201 -6.11043 -3.10652
H 3.37936 -6.64495 -2.703
H 4.77428 -5.85444 -2.39303
O -14.7943 4.62187 1.73629
H 14.4833 4.22946 1.24278
H -14.1034 4.9281 1.08142
O 0.107939 -9.73052 6.39774
H -0.00912301 -8.73985 6.46788
H 0.488449 -9.95858 5.50149
O -0.599684 13.6153 2.03961
H -1.25666 13.9844 1.38217
H -0.565178 14.2076 2.84463
O 14.1568 -12.4368 7.44686
H 13.4847 -12.0075 6.8435
H -14.9749 -12.217 7.12856
O -14.0799 -0.976063 -9.38967
H -14.9275 -0.488999 -9.6006
H -14.2921 -1.91976 -9.13578
O -4.32803 -13.4637 12.4145
H -3.47139 -13.912 12.6698
H -4.55152 -12.7619 13.0909
O -1.50316 10.0224 1.32254
H -0.915353 10.3948 2.04077
H -0.977554 9.92845 0.47698
O 10.7213 -8.11366 -8.32039
H 10.2676 -8.34148 -9.18194
H 10.0353 -8.00457 -7.60102
O -1.86659 9.31191 -13.8186
H -2.81448 9.61831 -13.9064
H -1.83723 8.31235 -13.8274
O -7.47479 -3.28489 -11.2075
H -7.98121 -2.60581 -11.739
H -6.8189 -3.75122 -11.8012
O -10.0079 1.37008 3.99829
H -10.6794 2.03829 4.31864
H -9.6131 1.68227 3.13416
O 3.98748 -10.3824 11.8118
H 4.73075 -9.73285 11.9723
H 4.07962 -11.1559 12.4389
O 6.05068 -3.31463 -0.638516
H 5.76624 -3.27879 -1.59657
H 6.97431 -2.94141 -0.550842
O -4.26074 11.7784 11.6296
H -4.26554 12.7758 11.558
H -3.33263 11.4378 11.4789
O -7.75239 -10.7273 -10.1152
H -8.69227 -10.8558 -10.4317
H -7.75627 -10.5084 -9.1394
O 9.97545 13.5929 2.32077
H 10.6674 14.1388 1.8482
H 10.3808 13.1701 3.1313
O 9.46085 10.685 1.48636
H 9.91403 11.5535 1.28513
H 10.1225 9.93881 1.4125
O 5.79042 -6.09261 -0.748151
H 5.66235 -5.12659 -0.523524
H 5.56712 -6.65277 0.04961
O -7.27658 3.29111 -13.2703
H -6.46148 3.1499 -12.7084
H -7.97582 3.76067 -12.7312
O 0.897063 -2.30927 -14.0822
H 1.87942 -2.42145 -14.232
H 0.393189 -2.81422 -14.783
O -14.6687 -12.914 -9.6125
H 14.6806 -12.7037 -10.2903
H -14.3765 -12.07 -9.1627
O 12.3876 -13.6365 -13.5336
H 13.3473 -13.3955 -13.389
H 11.9285 -13.7218 -12.6493
O 12.696 13.8105 -5.32566
H 12.0705 14.0038 -4.56973
H 12.5743 14.4967 -6.04281
O 11.7712 -3.11434 8.94234
H 10.992 -3.67144 9.22982
H 12.576 -3.36347 9.48117
O -7.04231 -14.186 1.60837
H -6.08132 -14.4471 1.51684
H -7.16562 -13.6577 2.44846
O 6.37906 -4.0399 -5.51495
H 5.75845 -3.35873 -5.90342
H 6.06591 -4.95647 -5.76375
O -10.9061 10.7669 -0.634671
H -9.94449 11.0229 -0.535381
H -11.3649 11.4215 -1.23554
O 3.93716 -3.70869 4.26732
H 4.11583 -2.81292 3.86022
H 4.53984 -4.38992 3.85167
O 7.82374 -11.1482 -8.27293
H 7.24463 -11.7345 -7.70643
H 7.50012 -10.2038 -8.2147
O 11.0702 10.3345 9.21957
H 11.6263 10.7959 9.91087
H 10.1156 10.6158 9.31763
O 11.5352 8.77739 -14.7821
H 12.4578 8.53725 -14.4802
H 10.9216 8.00302 -14.6272
O 13.2945 -8.34179 -8.2552
H 12.3038 -8.2567 -8.36177
H 13.635 -7.58926 -7.69142
O -12.8176 6.18371 -1.8349
H -12.0892 6.61363 -2.3684
H -13.1733 5.39284 -2.333
O -9.22207 -6.04303 -5.81747
H -9.76949 -6.8659 -5.66489
H -8.42218 -6.05883 -5.21748
O 11.0187 -15.0212 6.28644
H 11.1994 14.1059 6.61619
H 10.2033 -14.6596 6.73851
O 7.37075 2.20361 -5.52594
H 7.54771 3.18568 -5.59142
H 8.19318 1.73776 -5.19937
O -12.8431 -5.95283 7.50867
H -13.7673 -5.78694 7.85261
H -12.1904 -5.89148 8.26386
O -12.1797 10.6418 6.75712
H -12.2086 11.6414 6.76312
H -12.6426 10.2901 7.57075
O -1.15171 -11.8748 -6.99038
H -0.448417 -11.759 -6.28893
H -1.87475 -12.4714 -6.64213
O -9.62373 -12.063 -7.54819
H -8.81141 -11.4804 -7.52185
H -9.41053 -12.9508 -7.14017
O -5.00051 2.9425 -3.40217
H -5.81629 2.36409 -3.40385
H -4.99794 3.51277 -2.58068
O -2.51954 10.4656 7.98891
H -2.777 11.4194 8.14438
H -3.1136 9.868 8.52739
O -4.9435 9.8457 -8.93937
H -4.50781 9.54625 -8.09051
H -4.24153 10.0297 -9.62746
O 7.25861 14.1696 -8.1139
H 6.80106 13.3204 -7.85024
H 8.24241 14.008 -8.19164
O -9.59385 -14.4836 0.742304
H -8.60592 -14.5257 0.891516
H -10.0597 15.0247 1.439
O 5.72067 9.64327 -9.01924
H 5.73727 8.6501 -9.135
H 5.78918 10.0843 -9.91413
O 8.48699 3.45234 10.529
H 9.40524 3.0918 10.365
H 7.95815 2.78912 11.0586
O -2.86858 10.3961 -11.1019
H -2.93594 9.42909 -11.3477
H -2.37808 10.8892 -11.8205
O 3.0392 0.39116 12.0028
H 2.29125 0.70322 12.5887
H 3.19037 1.05704 11.2722
O 12.9893 1.2677 -11.7188
H 12.3967 1.98251 -12.0903
H 13.081 1.39081 -10.7307
O 1.09146 -5.2201 4.17754
H 1.96956 -4.82882 4.45304
H 1.20198 -6.19903 4.00567
O -8.44226 10.3948 -6.77506
H -8.12112 9.54585 -6.35519
H -9.09359 10.1809 -7.50313
O -4.1942 -2.09841 -8.78043
H -3.92765 -1.50543 -9.54029
H -4.87752 -1.63274 -8.21804
O 3.27216 2.761 -12.5383
H 3.57345 3.37888 -13.2647
H 2.72382 3.26943 -11.8744
O -10.9675 2.80636 -5.44603
H -11.8026 3.24425 -5.77901
H -10.8974 2.93134 -4.45632
O 10.3844 13.5538 -11.3359
H 11.2161 13.0961 -11.6503
H 9.73923 13.6318 -12.0959
O -12.4556 11.534 -11.1328
H -12.7576 10.7908 -11.7297
H -13.2472 11.9308 -10.668
O 12.1824 1.72971 4.57491
H 12.9827 1.16352 4.77257
H 11.6095 1.79388 5.39202
O -7.75463 -12.0465 -0.546704
H -7.69701 -12.9886 -0.216168
H -6.84505 -11.6313 -0.530204
O 4.58925 7.12331 -5.03121
H 5.44106 6.97968 -4.52738
H 3.88231 7.45077 -4.40426
O -0.87823 -11.7786 7.8249
H -1.86072 -11.9616 7.86056
H -0.71731 -10.9139 7.34916
O -9.41763 -7.94076 -8.49496
H -8.82084 -7.37234 -7.92858
H -9.31661 -7.6773 -9.45435
O 2.55771 10.6898 4.05446
H 2.26445 10.0234 4.73999
H 3.52404 10.5454 3.84129
O -10.7345 -3.82518 -4.35049
H -10.7553 -4.73802 -4.75836
H -9.85856 -3.68654 -3.88829
O -2.7461 11.6772 -2.34398
H -2.88355 11.1497 -3.18238
H -3.3279 11.3084 -1.61901
O -2.97547 -4.73918 11.3225
H -2.39963 -5.40821 11.7924
H -2.69797 -3.81577 11.5877
O -8.92858 3.51681 8.62669
H -8.51007 3.48219 9.53427
H -9.82147 3.96293 8.68816
O 13.0047 1.08411 -8.92559
H 12.7418 0.125668 -8.81467
H 12.3487 1.66733 -8.44646
O 1.98576 9.02523 6.02414
H 1.17655 9.61175 5.98896
H 2.31612 8.96921 6.96636
O 8.856 4.62537 -9.17229
H 9.06862 4.72683 -10.1442
H 9.64689 4.24048 -8.69647
O -5.45766 3.38588 14.9639
H -6.32784 3.18743 -14.6388
H -4.85653 3.87181 -14.4554
O -3.62795 -8.32893 -1.91788
H -3.35661 -7.83973 -1.08895
H -2.98868 -8.11384 -2.65621
O 6.62856 13.3023 12.4634
H 7.49332 13.3985 11.9705
H 6.47943 12.3398 12.6902
O 6.45111 11.8719 7.75085
H 6.39935 12.0915 6.7766
H 6.26914 12.6954 8.28827
O 12.2094 5.51895 -5.25273
H 13.1136 5.69902 -4.86538
H 11.6948 6.37452 -5.30983
O 3.58445 -14.9159 -1.69931
H 3.18807 -14.0123 -1.86188
H 4.52264 -14.9354 -2.04497
O 14.0162 -8.9317 4.29137
H 13.4517 -9.27053 3.53866
H 14.5833 -8.17422 3.9679
O -6.4527 2.09094 3.40697
H -5.73598 2.6907 3.76287
H -6.70038 1.41769 4.10372
O 3.15259 -14.665 -13.2072
H 3.45958 -13.8603 -12.699
H 3.7112 -14.7729 -14.0297
O -11.6865 -5.18422 -7.55473
H -11.4273 -4.71494 -8.39891
H -10.8643 -5.40467 -7.02993
O 13.2753 5.43324 3.54778
H 13.1657 5.58068 4.53079
H 13.9919 4.75359 3.39057
O -9.22691 14.9836 -6.98758
H -9.07935 14.2716 -6.30106
H -9.65327 14.5819 -7.79809
O -12.6701 9.31638 -12.7382
H -12.2717 8.41995 -12.5439
H -12.3642 9.62929 -13.6374
O 0.713211 14.3417 -5.37788
H 0.74806 14.3263 -4.37858
H -0.066452 13.8003 -5.69262
O -5.61799 -10.957 5.87661
H -5.97397 -10.5663 6.72554
H -5.88281 -10.3772 5.10607
O 1.49014 6.96534 8.50672
H 2.05309 7.79187 8.50545
H 1.81363 6.34281 9.21937
O 4.64814 -6.18385 -11.9101
H 4.41306 -5.22394 -11.7572
H 3.92836 -6.62156 -12.449
O -2.15199 -14.6255 7.99409
H -2.70264 -13.9089 7.56587
H -1.18142 -14.4191 7.8698
O 9.04636 11.9328 -1.16462
H 9.83977 11.9186 -0.556053
H 8.6453 12.8489 -1.16802
O -10.6129 9.70051 -8.76145
H -10.5121 8.71608 -8.61725
H -11.4953 9.88542 -9.19403
O 13.4845 -8.10689 -11.8599
H 13.6147 -8.03697 -10.8708
H 14.0753 -8.82702 -12.2238
O -10.2428 8.835 5.77615
H -9.4311 8.6329 6.32423
H -10.9007 9.34497 6.33035
O 8.27401 6.18308 -6.88361
H 7.88688 5.45021 -6.32407
H 8.67277 5.79342 -7.71381
O -0.359293 -7.80683 -8.29855
H -0.56094 -8.73928 -8.59846
H 0.0263285 -7.28746 -9.06118
O -2.26862 -10.1346 4.56579
H -1.93731 -10.9553 4.1001
H -2.07399 -10.2051 5.54416
O 12.2211 -9.86106 2.22896
H 12.1526 -10.669 1.64362
H 11.3033 -9.54231 2.46583
O -6.85983 -10.8941 14.3346
H -6.10016 -11.5313 14.4652
H -7.51715 -11.0018 -14.9733
O 0.362778 -14.5358 -14.1592
H -0.40988 -14.251 -13.5917
H 1.11367 -14.8386 -13.5722
O 1.49732 7.02899 -8.64803
H 0.874714 7.20624 -7.88579
H 2.44264 7.09535 -8.32861
O 7.53897 -2.14987 7.05177
H 8.29546 -2.65967 7.46152
H 6.67808 -2.43442 7.47363
O -8.36738 10.9626 -10.0549
H -7.5077 10.4837 -10.2329
H -8.99393 10.3532 -9.56887
O -5.59967 10.2986 4.08944
H -6.34138 10.4448 4.74409
H -5.95115 9.80922 3.29131
O -6.47771 12.9441 6.73007
H -5.49822 12.7661 6.82477
H -6.9387 12.1136 6.41725
O 12.9734 1.86016 8.37904
H 12.0794 2.23584 8.13497
H 13.2983 2.29251 9.22022
O -1.55178 -4.50976 4.87285
H -2.05762 -5.17973 5.41629
H -0.592384 -4.78544 4.81263
O 11.4772 12.9158 13.2305
H 11.5072 12.7075 14.2081
H 12.1897 12.3977 12.7573
O -14.7392 3.56237 -11.3115
H -14.2635 2.70549 -11.5104
H 14.3282 3.42446 -11.4005
O 9.73081 9.64832 -4.51508
H 9.80347 10.2367 -5.32042
H 8.93335 9.91867 -3.97561
O 1.24246 8.69202 13.5145
H 1.89973 8.78898 14.2619
H 0.314345 8.67733 13.8866
O -1.97783 13.2121 -6.14598
H -2.92707 13.3822 -5.88131
H -1.93345 13.0279 -7.1279
O 10.3103 -11.9579 -9.15296
H 10.9082 -11.6307 -8.4211
H 9.39687 -11.5679 -9.03659
O -7.39043 -11.8244 -5.24825
H -6.78599 -11.7118 -4.45957
H -7.19164 -12.6947 -5.69899
O -6.67788 -13.4171 -10.2814
H -6.83242 -12.4486 -10.086
H -7.55308 -13.8631 -10.469
O -2.89278 -1.80988 11.5325
H -2.10731 -1.22225 11.3381
H -3.07604 -1.80695 12.5156
O 1.70195 -7.51473 -3.49003
H 1.4435 -6.65392 -3.05154
H 1.60293 -7.42677 -4.48125
O 8.40495 -5.61954 -2.57264
H 8.30282 -6.45641 -2.0348
H 7.5112 -5.18576 -2.68714
O -2.5635 -1.46558 -4.42403
H -1.96621 -2.26227 -4.33136
H -2.86616 -1.16874 -3.5183
O 6.00438 -10.0177 -3.62428
H 5.67899 -10.9448 -3.43804
H 5.50944 -9.64187 -4.40774
O 8.20229 0.622599 14.9857
H 7.69544 1.40815 14.6306
H 8.6368 0.136027 14.2277
O 0.46083 5.02141 13.1957
H 1.3268 4.53178 13.2978
H 0.492786 5.5869 12.3715
O 3.68056 -12.6298 13.6853
H 4.09658 -12.3702 14.5569
H 3.91861 -13.5772 13.4714
O 10.027 -1.09137 -8.64393
H 9.50132 -1.53144 -7.91588
H 10.9033 -1.56073 -8.75277
O 0.0285662 -7.02923 6.96411
H 0.591149 -6.20256 6.95108
H -0.683913 -6.93662 7.65971
O -8.4689 -13.1459 12.7556
H -8.58214 -13.7989 13.5045
H -9.0001 -12.3211 12.9494
O -3.33371 12.0365 3.0285
H -2.53717 11.4486 2.88719
H -4.09507 11.4886 3.37518
O -6.70011 -5.00862 3.92913
H -6.35425 -5.44846 3.10028
H -6.28623 -5.43801 4.73186
O 2.31893 -9.87501 8.20834
H 2.63355 -10.8239 8.23348
H 1.45682 -9.82293 7.70424
O 5.79532 -4.19263 2.30109
H 6.00699 -3.30545 2.71117
H 5.6314 -4.07643 1.32146
O 2.25949 -12.3635 -2.52061
H 2.14612 -11.3897 -2.32333
H 1.79241 -12.5868 -3.37619
O 13.0053 -10.2932 -2.61487
H 13.5578 -9.49307 -2.38123
H 13.5881 -11.1056 -2.63765
O -4.82208 5.40253 -10.0716
H -5.72467 5.13059 -10.4054
H -4.61552 4.90701 -9.22784
O -11.9838 -10.553 3.79319
H -12.1571 -10.0858 2.92617
H -11.0185 -10.809 3.84669
O -1.02817 -2.53491 -6.93579
H -1.19778 -1.55759 -7.0628
H -0.94037 -2.73389 -5.9597
O 13.454 -0.882894 1.1062
H 12.6786 -0.262884 0.986036
H 14.2942 -0.350135 1.20722
O 8.80584 10.1124 4.60046
H 9.72654 9.72407 4.56066
H 8.47639 10.2848 3.67214
O -10.5234 6.4907 -3.79174
H -9.95919 5.68248 -3.62277
H -10.2958 7.20122 -3.12584
O 1.45127 -8.3675 13.3626
H 0.980246 -8.45825 12.4851
H 0.929233 -7.75843 13.9597
O 4.73944 1.42358 -1.59637
H 4.80539 0.880724 -0.759104
H 4.69433 0.812811 -2.38694
O 9.5031 -9.96156 14.2397
H 10.0114 -10.1211 -14.9678
H 8.68711 -10.5395 14.2269
O 7.05336 14.9427 8.55791
H 6.57099 -14.7 7.78435
H 7.86405 -14.5664 8.77275
O -11.3949 8.45026 0.835921
H -11.3062 9.34056 0.389203
H -10.9725 8.48818 1.74157
O 6.59053 -3.80992 -10.8076
H 6.51133 -3.03206 -11.4311
H 7.55678 -4.00644 -10.6409
O 0.113305 0.079222 7.99723
H 0.0431888 -0.90113 8.18176
H -0.364136 0.29295 7.14492
O -6.63694 -7.32778 -8.08015
H -5.72894 -7.60746 -8.39221
H -6.98121 -6.59652 -8.66905
O -14.0383 14.8679 10.5895
H -14.5092 13.9966 10.4514
H -14.5546 -14.4539 10.1448
O 1.97114 -11.2607 -10.1396
H 1.66901 -10.3615 -10.4563
H 2.55667 -11.1517 -9.33629
O 0.663704 0.397379 -12.0307
H 0.344459 -0.514187 -11.7715
H 1.45396 0.645617 -11.4704
O 11.1292 -6.82852 -0.764322
H 11.2676 -6.23557 -1.55763
H 12.0159 -7.1401 -0.422437
O 8.39686 8.78772 -7.97495
H 8.21227 7.84683 -7.69083
H 7.61026 9.14401 -8.4793
O 4.28622 4.73022 6.53127
H 4.76051 5.11744 7.32195
H 4.29497 5.39111 5.78079
O -4.93672 13.53 -6.97693
H -5.2671 12.7656 -6.42321
H -4.25876 13.1979 -7.63279
O -2.78977 -4.18288 -10.0316
H -1.89168 -4.13493 -9.59436
H -3.45044 -3.6584 -9.49449
O -14.8965 -3.98156 6.28029
H 14.716 -3.72761 5.4196
H -14.1617 -4.63501 6.09802
O -6.43985 -10.5217 8.92944
H -6.65388 -11.4961 8.99837
H -7.18824 -9.98743 9.32255
O -8.15022 14.8609 5.3885
H -8.86838 14.3906 4.87556
H -7.62613 14.193 5.91698
O 2.75371 10.93 0.678455
H 2.28061 11.8102 0.639918
H 3.6809 11.0339 0.318489
O -9.58922 -10.652 0.769602
H -9.40073 -9.68246 0.926364
H -8.81039 -11.0719 0.303579
O 4.62943 -9.24294 -5.94297
H 4.7079 -8.24909 -5.86449
H 3.90165 -9.46976 -6.59024
O 10.0585 1.24718 -4.95919
H 10.9429 0.823668 -5.15578
H 9.38785 0.535965 -4.74847
O 5.19193 9.37999 6.89177
H 5.91149 10.0653 7.00409
H 5.516 8.65245 6.28702
O -1.83406 -6.90926 -6.32752
H -1.16372 -6.94275 -7.06887
H -2.75227 -6.81534 -6.71239
O 5.50723 -2.46323 -3.18423
H 5.04622 -1.71135 -3.65561
H 6.07501 -2.96674 -3.8355
O -3.69857 7.06343 13.5969
H -3.08379 7.69789 13.1283
H -3.85149 6.2606 13.0205
O 9.84617 -3.03619 -12.8559
H 9.77735 -3.54197 -13.7158
H 9.22433 -2.25335 -12.8789
O 8.44341 -9.97481 -0.0748543
H 7.91943 -9.28817 -0.578868
H 9.216 -10.2796 -0.631889
O -3.27485 13.1174 -9.18305
H -3.47497 12.2425 -9.62408
H -2.62284 13.6306 -9.74122
O 14.4735 0.498757 5.34881
H 14.059 0.18946 6.2047
H -14.6725 0.0907879 5.25163
O -1.77888 -8.10918 -3.96372
H -0.881482 -8.51802 -3.79764
H -1.87601 -7.90257 -4.93735
O 8.95964 -8.45125 -10.514
H 9.1514 -7.7704 -11.2209
H 8.58512 -9.27578 -10.9382
O -6.24064 -7.5044 -12.159
H -5.40778 -7.0649 -11.8225
H -6.17841 -8.49188 -12.0139
O -5.05083 2.10927 -8.94327
H -5.98306 2.46754 -8.99483
H -4.43234 2.83246 -8.63582
O -7.7249 -10.1024 -7.31784
H -7.35904 -10.5645 -6.50996
H -7.46534 -9.13693 -7.29571
O -2.20794 5.11989 -4.73514
H -1.72375 5.33248 -3.88636
H -2.53881 4.17673 -4.70289
O -4.56489 -10.1839 -5.87571
H -4.94343 -9.57634 -5.17741
H -3.56644 -10.1741 -5.82033
O -14.0044 13.0898 1.67481
H -13.9698 12.1295 1.39788
H -14.6503 13.582 1.09112
O 13.3589 -8.10218 0.0724882
H 14.3287 -7.94259 0.257231
H 12.9473 -8.58454 0.845751
O -10.2864 12.5409 9.24015
H -10.9065 13.3022 9.0506
H -9.97386 12.1428 8.37762
O -10.6787 -1.60213 -14.5941
H -10.7901 -0.617821 -14.7312
H -11.5119 -2.07502 -14.8809
O 14.444 -5.28092 8.44825
H 14.4378 -4.61265 7.70431
H 14.6651 -4.82055 9.30803
O 10.3615 -6.37014 3.30503
H 9.94855 -6.8836 2.55277
H 10.6929 -5.48989 2.96537
O -2.6732 6.51462 4.73512
H -1.79104 6.28455 5.1461
H -3.1635 5.67376 4.50575
O 2.84559 8.118 -3.17044
H 2.24602 8.85578 -3.48069
H 3.65305 8.50841 -2.72812
O -1.27322 4.31205 -11.8021
H -1.01906 4.17878 -12.7601
H -0.996533 5.22693 -11.508
O 7.88414 9.50542 14.2349
H 8.24369 9.52655 -14.886
H 8.49268 10.0207 13.6314
O 10.3462 0.849484 11.3354
H 10.513 0.070323 11.9397
H 9.36301 1.0232 11.2791
O -0.378958 6.35003 -10.4304
H -0.429734 6.99791 -11.1905
H 0.391291 6.58944 -9.83922
O 5.80586 6.45985 12.1609
H 4.99449 6.98451 12.4188
H 5.52516 5.5968 11.7409
O 2.16293 -6.33413 -13.2232
H 1.50835 -6.35759 -13.9789
H 1.75905 -5.84947 -12.4473
O 10.3095 2.12788 -10.5811
H 9.92912 2.25994 -9.66571
H 9.83483 1.37289 -11.0336
O 12.4508 -14.2284 -7.638
H 11.4689 -14.0449 -7.6848
H 12.9565 -13.3826 -7.80822
O -13.9395 8.97358 -10.1991
H -13.7906 8.02009 -9.93691
H -13.5861 9.1245 -11.1223
O 6.29072 -13.1954 -7.1067
H 6.29095 -13.7768 -7.92036
H 5.35638 -12.8985 -6.90946
O 12.2558 -11.1075 -7.46048
H 11.9606 -10.7433 -6.57713
H 13.1618 -10.7476 -7.68345
O 5.40592 2.38705 5.30723
H 5.03438 3.22655 5.7038
H 5.09048 1.59996 5.83736
O -14.1653 12.9756 -9.35341
H -13.8185 13.7389 -8.8083
H 14.8927 13.0387 -9.41977
O -13.5986 10.4905 -7.59685
H -13.9423 10.2894 -8.5142
H -13.6414 11.4762 -7.43361
O 0.970489 2.69127 -5.05143
H 0.135454 2.14979 -5.14927
H 1.12402 2.89542 -4.08457
O -6.52387 1.83796 0.603612
H -5.81447 1.16964 0.379631
H -6.50472 2.02808 1.58522
O 0.514732 9.78702 -0.621298
H 1.25638 10.0047 0.0132396
H 0.798517 10.0085 -1.55428
O -2.03491 -6.69516 8.79584
H -2.71873 -7.40212 8.97651
H -1.97318 -6.08207 9.58348
O -11.8589 6.5981 -6.12403
H -11.3926 6.73876 -5.25063
H -11.246 6.84916 -6.87332
O 4.05429 -7.69427 12.9198
H 3.27321 -8.31109 13.0173
H 3.72645 -6.76862 12.7307
O -0.0924554 10.9647 9.39723
H 0.510679 11.539 8.84361
H -0.918899 10.7504 8.87656
O -0.636879 -11.4432 -13.7578
H 0.296771 -11.0912 -13.6911
H -0.667159 -12.3773 -13.4019
O 7.50212 7.56525 -0.625663
H 6.67665 7.78129 -0.104146
H 7.90032 6.71465 -0.282184
O 4.17668 -13.9663 10.5722
H 4.26675 -14.3308 11.4991
H 3.76023 -14.6573 9.98135
O -6.42075 -8.90285 -1.80683
H -6.88122 -9.46589 -1.12052
H -5.43085 -9.01626 -1.72141
O -10.2558 0.968373 -11.4421
H -10.3595 0.106487 -10.9456
H -10.071 0.777563 -12.4062
O 7.13652 -13.2098 2.3327
H 7.73535 -13.2639 3.13178
H 6.70411 -12.3086 2.30069
O 0.241628 -13.6933 -1.12007
H 1.00358 -13.1593 -1.48651
H -0.598453 -13.4525 -1.60619
O -0.0086202 6.35252 -14.5564
H 0.209638 6.22757 14.5295
H 0.823766 6.25204 -14.0113
O -13.67 -1.89732 -0.205759
H -14.2457 -1.38374 0.43059
H -13.9157 -1.65783 -1.14509
O 5.70548 2.19517 -11.3221
H 6.24127 2.73199 -11.9739
H 4.74888 2.17588 -11.613
O -0.27907 -3.13559 -4.18111
H 0.582333 -2.74909 -4.51075
H -0.151756 -4.10577 -3.97475
O 12.4363 -2.71442 -1.06212
H 12.7547 -1.84694 -1.44439
H 11.767 -2.53522 -0.341037
O 7.29592 3.85423 -13.064
H 6.98193 4.75964 -13.3498
H 8.29572 3.83688 -13.051
O -11.2597 -9.63048 -7.79246
H -10.8826 -10.5411 -7.62342
H -10.5122 -8.97813 -7.91761
O 0.194819 -9.71221 -2.58978
H -0.168444 -9.49531 -1.68366
H 0.853598 -9.01061 -2.86149
O -11.7154 -10.1386 7.75947
H -11.9112 -9.69996 8.63659
H -11.6648 -9.44292 7.04284
O -14.9238 -1.52467 -2.65236
H -14.1348 -1.95715 -3.08894
H 14.3779 -1.46366 -3.30852
O 11.5728 4.10833 -8.05724
H 11.661 4.59803 -7.18979
H 12.4556 4.10087 -8.52707
O -1.30421 -10.6638 1.32668
H -0.507803 -10.7717 1.9218
H -1.7419 -11.5527 1.19122
O 6.75002 -8.54739 -7.92503
H 5.86531 -8.3342 -7.51042
H 7.17495 -7.70464 -8.25559
O -0.736342 12.7282 -0.932931
H -1.57082 12.2993 -1.27901
H -0.221895 12.0654 -0.388814
O 6.07897 -5.55412 -8.01363
H 5.92474 -4.81298 -8.66708
H 5.26084 -6.12668 -7.95982
O 3.36982 4.50429 -5.53095
H 2.45029 4.5908 -5.14749
H 3.93075 5.27518 -5.22904
O -8.76137 11.3524 2.15579
H -9.0314 12.0136 2.85579
H -9.07044 10.4395 2.42261
O 7.61141 9.85211 -2.3089
H 8.06443 10.6715 -1.95762
H 7.38619 9.24361 -1.54794
O 3.52419 -14.5823 4.09065
H 4.34549 -14.8965 4.56695
H 3.6805 -14.6096 3.10329
O 12.0307 -9.88282 7.21289
H 12.9904 -9.60787 7.27105
H 11.9294 -10.5944 6.51759
O 8.4155 6.63731 13.2271
H 7.78806 6.28855 12.5308
H 8.00216 7.42514 13.6837
O -6.75226 13.0272 -14.9045
H -6.73491 12.4954 14.3026
H -6.69657 12.4082 -14.121
O -10.0153 -1.47272 4.42541
H -9.52886 -1.96274 5.1488
H -9.50303 -0.650569 4.17703
O 7.23624 -11.6409 14.3916
H 6.25513 -11.5254 14.547
H 7.4515 -12.6156 14.3302
O -13.9233 4.04454 -3.35858
H -14.4886 3.24285 -3.16399
H -13.6512 4.0349 -4.32082
O 10.5593 7.99 11.766
H 9.78361 7.81016 12.371
H 10.2843 7.83675 10.8168
O 3.18608 12.7103 -3.19225
H 2.56838 13.1107 -2.51533
H 3.5983 13.4388 -3.73941
O -1.94092 -9.73965 14.575
H -1.33723 -10.2829 -14.8953
H -1.79322 -9.9898 13.6181
O 13.1206 -2.63957 -4.7813
H 12.4595 -3.06406 -5.40001
H 13.2684 -3.23529 -3.99179
O 13.1997 -4.94581 -2.68503
H 13.1481 -4.37579 -1.86499
H 12.282 -5.07187 -3.06172
O 10.6075 4.79941 2.44993
H 11.503 5.20623 2.63057
H 10.6758 3.80347 2.50921
O -7.92679 -5.9071 -2.9297
H -8.48318 -6.73805 -2.92715
H -7.14081 -6.03409 -3.53481
O -7.1212 -4.95809 -9.03803
H -7.63632 -4.5418 -8.28876
H -6.97197 -4.27954 -9.75731
O -8.30379 -5.22256 -0.239011
H -8.66717 -4.29153 -0.273464
H -8.0033 -5.49711 -1.15246
O -14.1928 7.41393 4.59748
H -14.1406 7.8004 3.67663
H -14.7572 6.58861 4.58109
O -13.103 4.27747 12.4758
H -13.8231 3.7671 12.0057
H -13.492 4.75195 13.2655
O 14.574 6.42784 -4.37184
H 14.9326 6.95768 -5.14044
H -14.7221 5.997 -3.88164
O 14.8534 -8.71242 -5.42944
H 14.4714 -8.32253 -4.5915
H -14.7624 -7.98955 -5.96391
O -12.8866 -0.310018 5.20081
H -12.8793 -0.782912 4.31969
H -12.1055 -0.611758 5.7475
O 1.75423 5.05438 3.17387
H 0.859868 5.00908 3.61898
H 1.6626 5.50721 2.28696
O -12.7326 2.66176 -14.3744
H -13.6227 2.20582 -14.3697
H -12.8556 3.63063 -14.5894
O -12.4981 5.69779 0.689731
H -12.3587 6.60994 1.07521
H -12.7907 5.77971 -0.263003
O 7.55458 1.06108 11.4208
H 7.25553 0.485955 12.1823
H 6.9452 0.923567 10.6399
O 0.561311 10.8663 -14.0923
H -0.349203 10.4544 -14.0547
H 0.50778 11.7519 -14.5536
O -1.83316 -13.7744 -12.6827
H -2.47431 -14.1033 -13.3761
H -1.82708 -14.4065 -11.9078
O 2.28788 1.15198 -9.64305
H 1.55858 1.01863 -8.97194
H 2.73922 2.02842 -9.47511
O -11.271 -13.494 -9.38432
H -10.83 -12.8696 -8.73946
H -11.6499 -14.2743 -8.88668
O -10.1363 -4.24233 -13.7396
H -10.1071 -3.49054 -14.3984
H -9.22985 -4.65863 -13.6686
O 3.53447 -2.43126 -14.3845
H 3.77561 -2.99477 -13.5944
H 3.83547 -2.88621 14.8312
O -5.67886 -10.3802 -11.7111
H -6.29516 -10.5614 -10.9447
H -5.60005 -11.2012 -12.2767
O 8.48579 -4.39159 1.65682
H 8.734 -5.23271 1.17623
H 7.59155 -4.50641 2.08951
O 6.68422 -10.5764 8.84534
H 6.17915 -9.73244 8.66472
H 7.10157 -10.5274 9.7528
O -10.7646 3.35532 -2.81991
H -11.6517 3.00417 -2.52034
H -10.3664 3.91721 -2.09479
O 5.94984 -6.47717 4.11986
H 6.6234 -6.08305 4.7452
H 5.93262 -5.94772 3.27167
O 7.45888 -13.3444 5.09115
H 7.98829 -12.6976 5.64018
H 6.86924 -13.8858 5.69049
O 9.1072 -7.37303 -6.40942
H 8.56111 -8.1252 -6.7783
H 8.63912 -6.50606 -6.58066
O 11.943 9.01677 -2.76203
H 11.6939 8.04826 -2.75984
H 11.114 9.57403 -2.81018
O 4.1169 0.392258 6.56173
H 3.46924 0.961336 7.06844
H 3.70944 -0.504823 6.3906
O 8.31002 8.14124 6.58244
H 7.34979 7.87256 6.50611
H 8.46047 8.98878 6.07341
O -2.7925 -6.91049 0.379826
H -3.28841 -7.47167 1.04255
H -2.40411 -6.11346 0.842389
O 6.78375 4.83817 -4.93618
H 7.30574 5.61758 -4.5896
H 6.46112 4.28502 -4.16808
O -13.2755 -11.4305 -14.863
H -13.7104 -11.6191 14.3103
H -12.458 -11.9983 -14.7665
O -5.62532 -3.15535 12.72
H -5.53103 -4.09828 13.0395
H -5.52779 -3.12914 11.7251
O -7.45821 -5.27776 -13.5136
H -7.23394 -6.04136 -12.9081
H -6.75195 -5.191 -14.2163
O 1.2096 10.6577 -3.0723
H 1.99788 11.1936 -3.37481
H 0.383299 10.9976 -3.52147
O -11.8532 7.59731 9.76671
H -10.9147 7.94234 9.78194
H -12.0894 7.31474 8.83697
O 11.3734 6.71446 -11.5464
H 11.6348 7.34438 -10.815
H 12.1917 6.27185 -11.9133
O -12.8435 3.22776 7.43497
H -12.6255 3.00376 6.48505
H -12.7286 2.41364 8.00423
O -12.9937 5.52957 15.0115
H -12.485 5.97004 -14.3025
H -13.706 6.1492 14.6818
O 13.536 9.20983 4.2928
H 14.1703 8.59849 4.766
H 13.8853 9.40882 3.37714
O 10.6151 -5.08187 -4.08495
H 9.71745 -5.33404 -3.72339
H 11.0425 -5.88278 -4.50442
O -0.434023 14.0902 10.1306
H -1.41749 14.1124 9.95078
H -0.119239 15.0072 10.3758
O 2.12163 1.88326 8.01339
H 1.794 2.76718 7.67963
H 1.34146 1.28131 8.18377
O -1.74489 -11.1398 12.0933
H -2.23701 -11.114 11.2231
H -1.32408 -12.0392 12.2118
O 3.99803 7.96285 -7.46043
H 4.04641 7.6809 -6.50219
H 4.82412 7.66362 -7.93803
O 14.6425 -12.3384 -2.94755
H -14.9469 -11.9878 -3.76088
H -14.7351 -12.5428 -2.23972
O -13.6077 -5.14655 -10.3516
H -13.0495 -4.58737 -10.9645
H -13.357 -6.10885 -10.4573
O 9.65746 10.7607 12.6987
H 10.2836 10.0281 12.4317
H 10.179 11.5931 12.8861
O 12.8168 11.1129 11.3457
H 13.5815 11.5898 10.9122
H 13.0734 10.1625 11.5216
O 13.7849 8.69427 -13.0078
H 13.2955 8.56774 -12.145
H 14.1902 9.60822 -13.0302
O 8.67322 -3.12606 -7.31183
H 7.94316 -3.46232 -6.71685
H 8.65579 -3.62753 -8.17687
O 3.35513 7.49852 11.9395
H 3.19116 7.37427 10.9609
H 2.49726 7.73994 12.3932
O -8.75472 11.5658 11.515
H -9.44477 12.0542 10.9808
H -8.80269 10.5887 11.3076
O -11.8666 -8.77648 15.0224
H -10.9952 -8.44017 -14.6744
H -12.1526 -9.58038 -14.5099
O -13.9247 10.4554 -0.0981922
H -14.6854 10.4622 -0.74723
H -13.0955 10.1399 -0.559794
O -2.92502 2.55817 -5.19708
H -2.65576 1.62876 -5.44959
H -3.62474 2.52027 -4.48363
O 10.8891 -8.205 9.52495
H 10.7358 -7.28227 9.17121
H 11.2794 -8.77776 8.80408
O 3.40347 1.06685 -14.6377
H 3.12583 1.7015 -13.9164
H 3.45131 0.139816 -14.2657
O 1.8557 13.5397 0.154172
H 0.89004 13.6149 0.402994
H 2.08091 14.2402 -0.52306
O -6.70923 0.503548 -3.00395
H -6.13702 -0.316472 -3.01815
H -7.25651 0.51366 -2.16703
O 9.09003 14.6499 -0.962613
H 8.6409 14.5669 -0.0729757
H 9.67208 -14.5908 -0.967589
O 12.9638 3.43232 0.783014
H 12.6632 3.88242 -0.0578851
H 12.1651 3.1279 1.30201
O -13.1408 -10.1591 12.1709
H -13.976 -10.2616 11.6305
H -13.2234 -9.35763 12.7633
O 11.5036 -5.88354 7.95381
H 11.6971 -6.41491 7.12903
H 12.3624 -5.55909 8.35044
O -7.10498 8.31955 -5.83105
H -7.33677 7.55317 -6.43022
H -6.59572 7.98163 -5.03951
O 7.87234 -14.2802 14.1236
H 7.33468 14.9307 14.1037
H 8.84641 -14.5063 14.1347
O 13.6189 -14.4919 5.75161
H 12.6463 -14.7234 5.73113
H 13.778 -13.7811 6.43681
O -10.9146 -13.5904 4.9318
H -10.1078 -13.7485 5.5011
H -10.6294 -13.2423 4.03876
O 10.4565 8.2923 1.02851
H 11.2723 7.74926 1.22756
H 9.77641 7.71758 0.573225
O -6.54786 -14.3509 -6.14732
H -5.93761 15.0124 -6.53555
H -7.44774 -14.4214 -6.57778
O -14.2512 7.90861 -6.36192
H -13.9455 8.7896 -6.72308
H -13.5226 7.23246 -6.47146
O -1.20168 -3.76242 14.2563
H -1.56654 -2.85664 14.0407
H -0.658897 -4.09538 13.4853
O -8.41794 11.7242 -0.492624
H -8.48566 11.5816 0.49486
H -7.71413 12.4087 -0.683047
O 6.05341 7.15289 -9.63825
H 5.97508 7.20858 -10.6337
H 6.00946 6.19526 -9.35351
O -8.82718 15.0252 14.7231
H -9.45883 14.2679 14.8895
H -7.9289 14.7988 -14.954
O -0.557719 -2.05153 -11.7607
H 0.121194 -2.23128 -12.4726
H -1.47419 -2.07681 -12.16
O 9.84092 -13.5186 4.08809
H 8.89214 -13.4753 4.40117
H 10.3778 -14.07 4.72661
O -9.93483 8.47173 -14.8414
H -9.04156 8.57472 -14.4038
H -9.8305 7.96376 14.3573
O -4.24793 -8.04097 12.0029
H -4.32256 -8.01143 11.0061
H -5.03034 -8.53572 12.3812
O 0.174046 -13.5952 -9.00356
H 0.504266 -12.9499 -9.69244
H -0.104271 -13.0944 -8.18393
O -12.6069 11.0374 12.5509
H -12.4488 10.395 11.801
H -12.4675 11.9722 12.224
O 10.9158 8.58818 3.70317
H 10.8329 8.20587 2.78283
H 11.8814 8.63463 3.95904
O -10.6359 0.991902 -14.4638
H -10.0685 1.10545 14.7744
H -11.4064 1.62818 -14.5025
O -13.3887 -12.8336 4.0226
H -13.1729 -11.8815 3.80588
H -12.5542 -13.3096 4.30039
O -5.61384 -6.7573 5.89172
H -5.89262 -7.59293 5.41836
H -4.63044 -6.78789 6.07075
O -5.624 -2.62872 6.55355
H -6.02348 -2.46556 7.45569
H -5.98241 -3.48436 6.18009
O 7.02253 -6.33121 -14.195
H 6.32036 -6.4151 -13.4879
H 7.01064 -7.14587 -14.7748
O 14.2314 -9.86634 10.9306
H 14.2731 -9.1246 10.2612
H 13.3603 -9.82501 11.4201
O 6.28702 8.4166 10.3094
H 5.57803 9.10879 10.4446
H 6.165 7.68012 10.9748
O 10.1381 12.9751 -8.45654
H 10.9233 12.618 -7.95055
H 10.4403 13.307 -9.35014
O 0.299136 3.26728 -2.39389
H 0.726578 3.29801 -1.49034
H -0.546014 3.80171 -2.38117
O -12.0791 -8.19388 5.82769
H -12.7872 -7.55129 6.12039
H -12.3966 -8.69618 5.02337
O -7.77619 -0.284756 -6.06126
H -7.86848 0.390137 -5.3291
H -8.68415 -0.558589 -6.37856
O -10.704 4.31676 11.182
H -9.90948 4.37692 11.7863
H -11.5411 4.40143 11.7226
O -5.4401 5.73374 6.57652
H -6.42748 5.57518 6.57356
H -5.25386 6.67069 6.87233
O 13.3023 -5.74065 -6.96107
H 12.8429 -6.15422 -6.17497
H 13.442 -4.76527 -6.79028
O -10.0187 12.303 -11.5498
H -9.41154 11.7136 -11.0169
H -10.9701 12.0621 -11.3577
O 0.759197 -4.51495 -11.3162
H 0.0201345 -3.87319 -11.5211
H 0.82727 -4.63988 -10.3264
O -9.07026 3.13111 2.04793
H -9.08414 3.75381 1.26555
H -8.13151 2.83203 2.21928
O 4.19262 5.52606 -1.46438