2611
Atoms. Timestep: 23000000
O 6.38995 -8.93422 11.7886
H 7.06267 -8.2677 11.4674
H 6.78509 -9.4753 12.531
O -13.0248 -0.0706839 -8.40061
H -12.2505 -0.509509 -7.94463
H -12.7071 0.38601 -9.23158
O -9.98161 10.4501 9.87775
H -10.4556 11.2875 10.1501
H -10.4947 9.65583 10.2031
O 8.88072 -13.277 -0.23873
H 9.7797 -13.177 0.187716
H 8.31593 -12.4824 -0.0161019
O 1.33759 5.39181 -5.7695
H 2.05156 5.55449 -5.08848
H 0.728393 4.66723 -5.44719
O -9.52083 10.2752 -11.5565
H -9.24509 10.1788 -12.5129
H -9.73835 9.37466 -11.18
O -7.79555 11.7476 5.48223
H -7.36602 10.9032 5.16215
H -8.49228 11.5289 6.16544
O 7.89846 14.412 -8.01792
H 7.67117 14.3757 -8.99108
H 8.27959 -14.6618 -7.79794
O 13.6937 8.43924 3.74256
H 13.4976 9.14275 3.05943
H 13.1483 8.61026 4.56312
O -12.3991 -12.3049 -6.06433
H -11.9083 -12.8728 -6.72513
H -13.384 -12.428 -6.18571
O 14.7331 3.53448 -8.73278
H 14.5599 2.55038 -8.69301
H -14.7162 3.74787 -9.55824
O 5.51457 -2.0387 -3.42787
H 5.14141 -2.61009 -2.69692
H 5.16766 -1.10574 -3.33169
O 0.870174 14.4213 -1.9094
H 0.000959185 14.1239 -2.30441
H 1.53851 13.6806 -1.97861
O -1.73227 1.36473 -10.1674
H -2.44869 2.04019 -9.99272
H -0.838944 1.81373 -10.148
O -13.3942 -1.48731 8.25316
H -12.464 -1.26541 7.96067
H -13.8648 -0.649947 8.53118
O -0.302864 -1.15542 -10.2675
H -0.0805524 -1.27037 -9.29929
H -0.93821 -0.390709 -10.3751
O -3.70766 9.32655 -13.3567
H -3.21294 8.51528 -13.0451
H -4.27518 9.08857 -14.1449
O 14.7475 1.39088 5.61297
H 14.0602 2.11723 5.60707
H -14.8642 1.28019 6.53933
O -10.3076 -2.59754 -0.905999
H -11.3046 -2.60539 -0.983392
H -9.95532 -3.52319 -1.04401
O -14.667 -3.8896 14.6635
H 14.3282 -4.01116 14.8406
H -14.535 -3.12255 14.0356
O 8.95321 -2.91416 -2.76931
H 8.50835 -3.77288 -2.51492
H 8.95929 -2.8242 -3.76525
O -3.69288 -10.3432 14.3426
H -3.10984 -10.9559 14.8761
H -4.62685 -10.7003 14.3284
O -7.41616 -13.0523 -0.484779
H -6.60451 -12.9961 -1.06623
H -7.14544 -13.3168 0.440827
O -7.4999 -6.92149 14.0061
H -8.10629 -6.33503 14.5431
H -7.57106 -7.86357 14.3339
O -11.05 14.3097 4.68355
H -10.5516 14.5319 3.84555
H -10.7764 13.4025 5.00341
O 2.5397 3.11608 11.3852
H 3.10173 3.74837 11.9184
H 2.21655 3.57441 10.5572
O -6.24644 -9.09991 -12.2854
H -6.63137 -8.21006 -12.0404
H -5.46871 -8.96884 -12.9002
O -6.38099 11.4336 -5.88998
H -6.09354 10.5085 -5.64158
H -6.84746 11.4115 -6.77425
O -12.1184 0.777665 -11.0877
H -12.834 0.12348 -11.3327
H -11.2215 0.355762 -11.2202
O 3.06023 -12.2652 -8.38234
H 2.69043 -11.5583 -8.98534
H 3.26339 -11.8672 -7.48769
O 14.5402 -2.10759 -1.85833
H 14.5559 -2.6499 -2.69837
H 13.7709 -2.39726 -1.28891
O 8.96072 -10.0629 5.98916
H 8.83298 -9.08483 5.82466
H 8.08087 -10.4804 6.21628
O -5.26221 11.4793 2.77928
H -4.81919 11.26 3.64858
H -4.76431 12.2205 2.32903
O 9.56343 7.04694 -11.6323
H 10.4321 7.39985 -11.2846
H 8.84938 7.73553 -11.506
O 14.2311 10.9841 9.71684
H 14.7094 11.2727 10.5463
H 13.3464 10.5882 9.96291
O -12.5606 -8.99173 -11.8669
H -13.0007 -9.58875 -12.5377
H -11.8099 -8.49609 -12.3037
O 4.53109 -1.57343 4.85759
H 3.67272 -2.07629 4.95933
H 5.20727 -2.15605 4.40664
O 0.395512 -4.59789 9.43459
H 1.15092 -5.12363 9.04347
H 0.018267 -5.08972 10.2193
O 13.1934 7.42216 -7.76157
H 13.8971 7.7684 -8.38197
H 13.6088 6.7939 -7.10374
O -3.14625 0.279112 -7.77429
H -3.83961 -0.37765 -8.07081
H -2.32654 0.175595 -8.33765
O -4.17102 3.96894 10.5411
H -4.11768 4.42983 9.65525
H -4.05621 4.64011 11.2735
O -7.40002 1.94428 -14.3112
H -6.76516 2.57369 -14.7593
H -7.90047 1.42582 14.9673
O -11.1542 4.11515 -8.71967
H -10.3243 3.88242 -8.21252
H -11.8404 4.47627 -8.08827
O 13.0496 8.02626 -13.3157
H 14.0142 8.28792 -13.3506
H 12.6459 8.35469 -12.4618
O 2.86972 -2.51138 14.3169
H 2.69753 -2.95225 -14.774
H 3.85098 -2.35051 14.2108
O 4.55399 12.1604 -9.09157
H 5.37021 11.692 -8.75333
H 4.79145 13.0952 -9.35541
O -3.86321 -10.5767 5.90316
H -4.39415 -9.79096 5.58581
H -3.15672 -10.7954 5.23006
O 3.92632 2.90546 7.12711
H 4.41808 3.65752 6.68826
H 3.65578 2.23565 6.43561
O 13.6664 -14.7131 8.64982
H 12.8468 14.705 8.79712
H 13.5311 -14.1225 7.85426
O 7.06918 -1.43668 -9.7005
H 6.47869 -2.12761 -9.28343
H 7.81538 -1.88762 -10.1903
O 11.309 -8.7946 0.165441
H 10.5009 -9.21835 -0.243682
H 11.0238 -8.14164 0.867121
O -8.82833 8.53173 0.205692
H -8.34528 9.05475 0.907922
H -8.92076 9.08833 -0.619941
O 10.0676 -7.97582 -3.39862
H 10.473 -8.18377 -4.28882
H 10.1586 -8.76966 -2.79732
O -2.93271 12.8322 -4.83483
H -2.98231 11.8567 -4.62037
H -2.80139 12.9508 -5.81906
O -10.4794 13.0965 -11.3727
H -9.77268 12.6816 -11.9458
H -10.5205 12.6182 -10.4955
O 8.97451 1.45763 -6.80508
H 8.13482 1.08895 -6.40632
H 9.20405 2.32228 -6.35818
O 8.08381 -13.6599 10.5969
H 7.09846 -13.7966 10.495
H 8.57224 -14.2987 10.0025
O 12.6935 1.33461 -4.51756
H 13.0718 1.31999 -3.592
H 13.0657 0.568772 -5.04193
O 12.1492 -13.681 2.79783
H 11.3973 -14.1514 3.25962
H 12.4232 -12.8831 3.3349
O 2.44006 9.6797 7.61079
H 1.83216 9.48803 8.38134
H 2.08351 10.4553 7.08986
O 8.4964 -7.30733 14.2331
H 9.16398 -6.70675 14.6732
H 7.5998 -6.86448 14.2315
O -2.13098 4.24082 1.3308
H -2.8032 4.96643 1.18371
H -1.858 4.22934 2.29275
O -10.8703 9.88873 -1.55678
H -10.2206 10.6447 -1.63792
H -11.0732 9.52462 -2.46577
O -9.15801 -0.483087 -11.9008
H -8.97391 0.482024 -12.087
H -8.37042 -1.03253 -12.1798
O -3.51314 -2.17232 4.98719
H -3.01941 -2.95591 5.36435
H -4.04571 -2.46481 4.19293
O 0.413125 -8.46198 -3.56699
H 0.688161 -8.04533 -2.70052
H 0.632911 -9.43742 -3.55239
O 2.48146 1.33796 -7.89932
H 3.20838 0.664683 -7.76406
H 2.32756 1.83808 -7.04714
O -11.035 14.1779 -4.96963
H -10.1619 14.567 -4.67605
H -11.5298 13.8304 -4.17305
O -7.75023 -1.51347 5.33654
H -8.34742 -2.30677 5.21798
H -8.30735 -0.694221 5.47246
O 9.32398 14.7817 -2.45321
H 10.2027 14.3803 -2.19499
H 9.02982 -14.5482 -1.74505
O 12.9595 -0.583591 9.5914
H 13.0443 -0.735726 10.5761
H 12.5372 -1.38387 9.16563
O -10.0027 -7.53272 -3.44331
H -9.00424 -7.52875 -3.38806
H -10.2842 -7.77503 -4.37179
O -11.9668 11.7683 -8.55151
H -11.9181 12.6111 -8.01541
H -11.4117 11.0617 -8.11275
O 11.9747 3.74997 0.255617
H 11.8054 2.79463 0.0133798
H 12.9594 3.90343 0.338326
O -10.3247 -7.92162 9.91175
H -9.85597 -8.7164 10.2973
H -10.0046 -7.09175 10.3688
O 9.52774 14.4463 -14.758
H 9.86976 14.0557 14.3592
H 8.67015 14.9302 -14.9324
O -7.43604 1.89519 -0.135328
H -6.81158 1.45708 -0.781954
H -7.02391 2.74009 0.205705
O -13.6211 12.8269 6.20349
H -13.5739 13.7979 5.96926
H -12.6951 12.4637 6.3073
O 14.4226 -9.78013 7.32107
H 14.7817 -9.66235 8.24691
H 13.4344 -9.62679 7.32485
O -0.765576 4.88693 -12.3797
H -0.327942 3.98831 -12.4111
H -0.327068 5.4946 -13.0418
O 7.29828 -0.136439 3.7029
H 7.06907 0.116623 4.64281
H 6.69139 0.345139 3.07061
O -6.43908 -2.22403 3.11799
H -6.86188 -1.67187 2.3994
H -6.72149 -1.87901 4.01311
O -2.00672 -9.76575 -6.96871
H -1.15668 -9.41088 -7.35797
H -2.20671 -9.28778 -6.1134
O 3.11176 4.61596 -8.18454
H 2.42989 4.96306 -8.82844
H 2.76377 4.70358 -7.25114
O 5.20136 9.70375 -11.5913
H 4.62763 10.032 -10.8409
H 4.66086 9.11283 -12.1902
O 7.38304 3.00962 6.06228
H 8.12681 3.4715 6.54549
H 7.30972 2.06657 6.38677
O 13.0673 1.63827 -10.9882
H 12.5667 2.26014 -10.3859
H 13.1556 2.05126 -11.8946
O -9.39836 -3.47182 8.2453
H -8.8865 -3.30237 9.0875
H -10.2012 -4.0317 8.45013
O 3.21737 -5.81565 -7.13119
H 3.81166 -5.89268 -7.93175
H 3.52065 -6.45856 -6.42784
O 4.83765 -8.60369 3.69229
H 4.18316 -7.87557 3.48858
H 5.12644 -8.53472 4.6472
O -5.37442 3.44982 -3.20574
H -5.62934 3.52251 -4.16998
H -5.62209 4.29434 -2.73092
O -5.47162 7.51162 11.0195
H -6.24559 7.34747 10.4079
H -5.6577 7.09837 11.9109
O -12.7498 -5.52329 -0.433938
H -12.7896 -4.55149 -0.201485
H -13.5637 -5.98423 -0.0800204
O 12.1858 8.05378 -10.5267
H 11.7339 8.47733 -9.74164
H 13.1771 8.08928 -10.3997
O -13.3579 -4.86864 2.25219
H -13.5277 -5.69308 2.79208
H -14.1173 -4.22926 2.37233
O -13.0007 7.38075 1.193
H -12.8308 6.68224 1.88814
H -12.7404 8.27747 1.55092
O -11.5121 8.72989 10.9513
H -11.7332 9.47503 11.5805
H -11.6459 7.853 11.4131
O -8.387 5.21716 4.32986
H -8.00853 5.49295 5.21344
H -9.30197 4.83635 4.46339
O 7.49466 -3.81149 6.08774
H 7.27234 -3.49774 7.01086
H 7.02723 -4.67712 5.90829
O 9.40521 5.40592 -14.0317
H 8.4492 5.48239 -14.3149
H 9.56942 6.00437 -13.2475
O -4.24184 -3.73752 -1.41594
H -3.74065 -3.14772 -2.04915
H -4.51484 -3.20822 -0.61261
O 14.4612 -12.4638 -5.67562
H 14.1465 -12.2793 -4.74452
H 13.8299 -13.0986 -6.1212
O 4.15754 -10.3147 10.0275
H 3.66488 -10.9516 10.6205
H 4.93219 -9.92604 10.5264
O 9.84817 12.1391 11.165
H 10.4864 11.4624 10.7979
H 9.01774 11.6784 11.4783
O 13.4519 -12.6066 6.87734
H 12.7731 -11.8753 6.81051
H 13.1834 -13.3659 6.28458
O -5.18978 -13.4012 -2.16588
H -4.3842 -13.3815 -1.57371
H -5.18459 -14.2415 -2.70791
O -12.6598 10.5949 -12.1032
H -13.0284 11.5108 -11.9444
H -11.6671 10.6098 -11.9835
O -3.87521 -5.79887 10.1151
H -3.94909 -5.148 10.8707
H -4.19339 -5.36721 9.27108
O 10.2786 -14.4572 -9.72279
H 10.6042 -14.3482 -8.78356
H 10.0149 14.5622 -9.87577
O 4.39115 2.87294 -9.56367
H 4.20812 3.67747 -8.99865
H 4.01681 2.06008 -9.11742
O 2.66705 -4.55286 12.3098
H 2.45985 -5.40245 12.7949
H 2.62394 -3.78505 12.949
O 1.03063 -12.8928 -11.4064
H 0.0541266 -12.8933 -11.6219
H 1.30153 -11.9838 -11.0895
O 6.19477 -4.02797 10.9809
H 5.26724 -3.98184 10.61
H 6.28915 -3.36741 11.7257
O -10.6156 -7.01637 -12.6007
H -10.0482 -6.69527 -13.359
H -10.5585 -6.36621 -11.8431
O -1.56505 -10.3742 3.98783
H -0.890257 -10.8901 4.5156
H -1.09724 -9.82293 3.29701
O -5.88492 14.1238 14.2881
H -5.55258 14.6027 13.4756
H -6.34782 13.2813 14.0124
O 5.52533 -3.25268 -8.81616
H 4.93021 -3.99271 -9.12954
H 5.50072 -3.20536 -7.81757
O -12.6543 3.40465 -4.87587
H -12.4961 2.43482 -5.06144
H -13.1074 3.50494 -3.99007
O 3.57914 14.297 9.46402
H 3.12463 14.6944 8.66684
H 3.05749 13.5067 9.78557
O 2.19325 14.1086 -14.3627
H 2.53934 14.561 -13.5408
H 1.19484 14.0667 -14.3248
O -14.7268 -13.9157 14.0584
H 14.6658 -13.8654 14.8721
H -14.7804 -13.052 13.5573
O 1.03847 7.0025 -13.5638
H 0.969994 7.16922 -14.5474
H 0.376494 7.57632 -13.0816
O 7.23838 9.23782 -5.4133
H 6.55613 9.86824 -5.043
H 6.88163 8.81121 -6.24442
O 9.60425 3.3142 10.4421
H 9.97156 2.49371 10.8801
H 10.0926 4.11909 10.7793
O 11.6831 0.372353 -8.72045
H 11.8717 0.425121 -9.70111
H 12.3668 0.904109 -8.22052
O -8.38834 10.3668 7.77333
H -7.79485 9.58284 7.95541
H -8.96322 10.5424 8.57252
O -8.91134 12.8833 12.9875
H -9.49995 12.7683 13.7877
H -8.39006 12.0439 12.8338
O 13.8037 0.905033 -1.71935
H 14.0348 -0.0475785 -1.91716
H 13.0619 0.935844 -1.04943
O -10.533 -6.48947 -6.5588
H -11.1884 -6.96087 -5.96857
H -10.5206 -6.92606 -7.45838
O -13.0129 5.84885 3.56454
H -12.7119 6.38685 4.35191
H -13.9898 5.65229 3.64897
O -12.9024 -1.00191 10.9857
H -13.3945 -1.39982 10.2114
H -13.194 -1.449 11.8313
O 14.0741 5.72407 3.48916
H 13.8953 6.70713 3.4484
H 14.2345 5.37589 2.56556
O -10.026 -0.618792 11.4925
H -10.9387 -0.931301 11.2289
H -9.78505 0.192807 10.9603
O -6.24479 6.50552 13.2905
H -5.86322 5.67845 13.7033
H -7.22998 6.53804 13.4589
O -1.60031 6.82439 -2.26316
H -1.77163 6.86234 -1.27867
H -2.34972 6.33895 -2.71343
O -7.66763 8.26141 -6.63843
H -7.12452 8.55615 -5.85219
H -7.38924 7.33989 -6.90921
O -12.1737 -8.66925 -5.79168
H -12.2239 -9.30536 -5.02171
H -12.9266 -8.85144 -6.42415
O 13.2919 -1.03151 -5.8588
H 12.3035 -1.14696 -5.95699
H 13.6868 -1.8612 -5.46423
O 1.60423 7.06932 5.72553
H 0.852551 7.10004 6.38435
H 2.46196 6.88812 6.20666
O -3.36541 10.4477 -4.09402
H -4.14768 9.82673 -4.14305
H -2.54478 9.93144 -3.84906
O 11.3419 9.24818 -8.13622
H 10.714 9.3549 -7.36524
H 12.019 8.54488 -7.91974
O -6.08053 -9.60791 0.0919751
H -5.77461 -10.4401 0.554513
H -6.80243 -9.8359 -0.561396
O -10.9489 -13.2578 -2.85333
H -10.2031 -12.5916 -2.85378
H -11.7831 -12.824 -2.51257
O -9.97068 2.01484 -6.7825
H -10.3154 2.13407 -5.85137
H -8.97077 2.02264 -6.77133
O -2.81261 2.48666 -3.5683
H -3.73748 2.77231 -3.31722
H -2.85081 1.59832 -4.02591
O -10.8259 8.70121 -14.7913
H -11.499 8.10336 -14.3559
H -11.2693 9.23178 14.4581
O -8.46738 -10.6306 -3.63801
H -7.68415 -11.2072 -3.87041
H -8.45692 -10.4334 -2.65768
O -4.99395 -2.97087 -11.9931
H -4.65968 -2.09373 -11.6483
H -4.91628 -2.98859 -12.99
O -14.9082 -7.04009 0.421293
H 14.4158 -6.89936 -0.327403
H 14.5631 -7.13341 1.282
O 4.0138 13.3821 1.83264
H 4.32887 12.5281 1.41855
H 3.03778 13.3123 2.03886
O 6.3181 3.84287 -7.74532
H 7.25418 4.18438 -7.82987
H 6.05873 3.36941 -8.58709
O -1.61545 12.2483 9.64592
H -1.51911 11.3731 10.1201
H -1.40934 12.1258 8.67508
O -10.0542 9.09495 -7.61436
H -9.91295 8.81838 -8.56493
H -9.21915 8.92639 -7.0906
O 11.6294 -13.5244 -12.4078
H 11.0275 -14.3209 -12.4669
H 11.6249 -13.172 -11.4719
O 6.82345 14.5904 -0.11982
H 6.66735 14.5203 0.865439
H 7.48908 -14.6575 -0.30116
O -1.63574 -6.83432 0.51119
H -1.55218 -5.85223 0.680119
H -2.53244 -7.02905 0.113666
O -1.4864 11.634 -13.2922
H -2.17552 10.9371 -13.4908
H -1.33307 11.6794 -12.3051
O -3.2728 -3.9511 13.5113
H -2.5 -3.3171 13.4824
H -2.95749 -4.84687 13.8247
O 6.62814 14.1249 2.58139
H 5.69979 13.8306 2.80841
H 7.28775 13.5538 3.07005
O -0.546753 8.48945 -11.9632
H -1.09152 8.06357 -11.2408
H -0.423069 9.46051 -11.7589
O -13.9784 -6.44025 -7.41032
H -13.8624 -7.42106 -7.5671
H -14.8975 -6.16415 -7.69143
O 5.81703 1.34946 1.46347
H 5.21577 1.73775 2.16184
H 6.1304 2.07604 0.852004
O -8.56564 10.2272 -14.1953
H -9.31404 9.61468 -14.4496
H -7.71835 9.91443 -14.6246
O 12.032 9.79558 10.5712
H 11.5283 9.06119 10.1163
H 11.7834 9.82024 11.5395
O -11.1721 3.43982 11.4875
H -11.8501 2.85283 11.93
H -10.2575 3.19232 11.8073
O 13.4412 -4.43067 8.12157
H 12.693 -4.05347 8.66738
H 13.1038 -5.20148 7.58113
O 7.49425 -10.3831 13.749
H 8.37143 -10.0019 14.0411
H 7.04432 -10.8192 14.5284
O 0.568987 -13.5055 -3.73317
H 0.709006 -14.2342 -3.06273
H -0.381603 -13.5162 -4.04346
O 1.70522 -10.5862 2.45125
H 1.14531 -10.9762 1.72023
H 1.72729 -11.217 3.22688
O -11.4881 6.69444 6.21713
H -10.622 6.38486 6.60968
H -12.186 6.72607 6.93267
O 12.5288 8.58747 -4.95631
H 12.7946 8.03494 -5.74629
H 11.7983 9.21719 -5.22058
O -14.5445 -11.5075 12.6962
H -13.845 -10.8256 12.4828
H -14.8766 -11.921 11.8484
O -14.1512 -3.67718 6.8204
H -14.0181 -2.71164 7.04408
H 14.9031 -3.96052 7.09929
O -5.9733 -5.89957 4.47883
H -6.09357 -5.52724 5.39912
H -6.86495 -6.14916 4.1011
O 0.138366 12.1397 -6.96083
H 0.835846 12.3386 -7.64931
H -0.517978 12.8933 -6.92399
O -14.8385 -2.78703 -9.33525
H -14.1855 -2.43781 -8.66315
H 14.481 -3.39439 -8.88184
O -2.81587 -11.3721 11.2041
H -3.77707 -11.4983 11.4494
H -2.74723 -11.1396 10.2339
O 4.14307 -11.219 -6.05078
H 4.41711 -10.2775 -5.85477
H 4.79525 -11.8502 -5.63099
O -8.14028 -7.58167 4.23331
H -7.77132 -8.20945 4.91871
H -8.27501 -8.07077 3.37155
O -2.16175 -6.5213 13.7786
H -2.34898 -7.40322 13.3459
H -1.47171 -6.64009 14.4925
O -2.86171 3.08209 -7.43167
H -3.14899 2.12729 -7.50806
H -2.46541 3.38139 -8.29965
O -0.0966774 5.48168 8.6491
H 0.667012 4.92774 8.3175
H -0.255504 5.28523 9.61667
O 6.06828 -9.31903 -7.80617
H 6.64506 -9.5144 -8.59937
H 6.51416 -9.65876 -6.97804
O 1.98859 -8.31277 -13.0537
H 2.07553 -8.82603 -13.9075
H 1.72236 -8.93422 -12.3168
O -10.374 -14.0481 -10.4242
H -9.43941 -14.4001 -10.4763
H -10.9522 -14.5401 -11.075
O -1.69018 9.82801 11.1006
H -1.60574 9.39666 11.9988
H -2.23598 9.24355 10.5001
O 3.99019 -14.2655 4.75072
H 4.77256 -14.3097 5.37197
H 3.95469 -13.3622 4.3232
O 5.33472 -13.8632 10.4549
H 4.89819 -12.972 10.5786
H 4.64742 -14.5359 10.1807
O 11.6069 -10.9527 -13.8876
H 12.2052 -10.9919 -14.6878
H 11.4103 -11.8812 -13.5725
O -2.89106 12.4137 13.2064
H -2.68884 12.9872 12.4125
H -2.46532 12.809 14.0203
O -14.1032 -9.23384 -7.30863
H -14.7531 -9.55641 -6.62043
H -14.0064 -9.92452 -8.0253
O -5.41483 -12.5523 -8.42916
H -5.58894 -12.6646 -9.40747
H -6.12006 -11.9662 -8.03023
O 4.45751 0.565407 -1.20245
H 4.59429 1.00185 -0.313167
H 4.32873 -0.418026 -1.07482
O -3.32881 -13.873 0.99334
H -2.61218 -13.6075 1.6383
H -2.9836 -13.7894 0.0585389
O -0.294821 1.18487 12.4331
H 0.152456 0.333358 12.1594
H 0.369807 1.93179 12.4133
O -5.72537 -8.1059 -9.21956
H -4.77736 -8.26085 -9.49755
H -5.97975 -8.77089 -8.51736
O -2.16014 -4.09211 5.90162
H -1.83529 -4.80148 5.2761
H -1.38008 -3.68089 6.37325
O 3.72346 7.69232 -6.55194
H 4.57592 7.28356 -6.87789
H 3.51485 7.34398 -5.63807
O 14.1431 13.5383 -1.21263
H 14.6402 14.0876 -1.88429
H 14.6508 13.5253 -0.351186
O 7.74195 9.0577 5.79066
H 6.97468 9.30715 5.19983
H 7.44326 8.36998 6.45235
O 5.1829 11.2021 -4.53626
H 4.35869 10.9408 -5.03864
H 5.48137 12.1089 -4.83415
O -1.53141 -9.29392 12.6736
H -2.22908 -9.68369 13.2747
H -1.75933 -9.49882 11.7217
O 5.38393 -8.7127 6.46998
H 5.88962 -9.56938 6.36803
H 4.65087 -8.83593 7.13889
O -1.58792 3.14824 14.5662
H -0.826323 3.19517 -14.7593
H -1.43158 2.40073 13.9206
O 2.21626 -1.44933 -11.806
H 2.95105 -0.868507 -11.4557
H 1.51469 -1.56025 -11.1021
O -7.26318 -6.4081 -11.7849
H -7.45943 -5.44409 -11.9643
H -7.25848 -6.56922 -10.798
O -5.26901 -5.90097 -14.6584
H -5.35006 -5.96348 -13.6636
H -6.07276 -6.31569 14.8868
O 1.31174 -7.55209 -1.06517
H 0.985186 -6.69696 -0.66251
H 1.74499 -8.10981 -0.357172
O -7.20023 -1.66779 -13.2656
H -6.31478 -2.01212 -12.9534
H -7.34828 -1.94188 -14.2158
O -11.4083 -9.63419 1.78841
H -11.1757 -8.6967 2.04732
H -11.473 -10.2006 2.61
O -14.2704 14.4153 -5.36841
H -14.0208 14.9274 -4.54656
H -14.5424 -14.9186 -6.08887
O 11.5356 0.843471 0.0438938
H 11.6945 0.461447 0.954294
H 11.0045 0.195119 -0.501594
O 12.946 11.2775 -2.78985
H 13.2603 11.6848 -3.64735
H 13.3137 11.7979 -2.01916
O 12.504 14.9763 11.6049
H 12.0962 14.437 12.3417
H 12.0398 14.7687 10.7438
O 4.4917 -13.7117 -2.84718
H 4.50535 -14.1764 -1.96181
H 4.32024 -12.7362 -2.70904
O 1.06099 5.42578 -9.7632
H 0.381324 5.48002 -10.4947
H 0.687031 5.83298 -8.92992
O -10.9254 1.03982 1.38437
H -10.9124 2.02343 1.20448
H -10.5064 0.858097 2.27401
O -7.019 7.92646 6.68134
H -7.19197 8.34062 5.78771
H -6.07594 8.11172 6.95765
O 11.972 -6.77708 -12.9803
H 11.4078 -6.26715 -13.6297
H 12.377 -6.14336 -12.3212
O 10.0378 3.52241 -4.7603
H 9.67457 4.39046 -5.09876
H 10.8573 3.69452 -4.21357
O -7.28208 5.64972 -7.3559
H -8.18358 5.71529 -6.92811
H -7.35935 5.86096 -8.33029
O 14.1717 -10.8972 -3.12985
H 13.5473 -10.906 -2.34873
H -14.9199 -10.5149 -2.84871
O -8.29812 -14.7983 6.36233
H -8.19373 14.6126 5.54109
H -8.25794 -13.8309 6.11248
O 1.05741 13.8165 2.40222
H 1.08201 14.6314 1.82303
H 1.0126 14.0915 3.36264
O -10.2608 -9.68803 13.2689
H -10.1693 -10.2205 14.1104
H -9.42517 -9.16049 13.1157
O -5.45579 1.09504 -1.76808
H -4.5849 0.636062 -1.94387
H -5.52256 1.91328 -2.33908
O 4.45701 5.12678 4.93468
H 5.29961 4.83758 4.48036
H 4.41934 6.12569 4.96263
O 0.484684 9.27473 9.34502
H -0.0554459 8.88187 8.60075
H -0.123748 9.54843 10.0899
O 11.0371 13.331 13.3634
H 10.3842 12.789 12.8343
H 11.3277 12.8115 14.167
O -8.1244 8.55919 -3.17869
H -8.8237 9.05826 -3.69047
H -8.55411 7.81778 -2.66324
O 3.23324 0.798848 14.6113
H 2.40039 0.287246 14.8226
H 3.085 1.76963 14.8
O 12.2522 6.71988 6.86715
H 12.3027 7.7149 6.7811
H 12.6901 6.29417 6.07533
O 12.6153 7.03768 -2.76242
H 13.2524 7.35629 -2.06057
H 12.7496 7.56755 -3.5998
O -5.66333 -1.48695 6.91488
H -4.78028 -1.66349 6.48005
H -6.39098 -1.55819 6.23263
O -9.83158 -3.259 4.76043
H -9.43316 -3.86106 5.45239
H -10.0226 -3.7846 3.93143
O -8.3105 -9.90081 10.7292
H -8.42444 -10.8429 10.4137
H -7.37842 -9.59479 10.5353
O 7.02458 -8.05729 -0.778663
H 7.8765 -8.20842 -0.277261
H 7.12622 -7.26209 -1.37645
O -1.06849 7.59955 3.40402
H -0.283785 8.20375 3.26545
H -1.80271 8.10532 3.85693
O -12.695 11.472 -5.15379
H -12.91 12.4454 -5.07421
H -13.5147 10.9328 -4.9605
O 8.71305 2.1619 -2.46463
H 7.73876 2.11578 -2.68518
H 9.21701 2.5142 -3.25325
O -3.79632 14.4335 10.2382
H -3.08834 13.8356 9.86235
H -3.42651 14.9386 11.018
O -14.9168 8.04653 8.17202
H -14.7737 8.84173 7.58281
H 14.1811 7.61655 7.94507
O -8.61991 2.67848 12.4584
H -7.67126 2.85218 12.194
H -8.70746 1.73814 12.7872
O -14.0328 4.0994 -12.8173
H -13.7498 3.95323 -11.8694
H 14.9782 3.84252 -12.9217
O -9.0207 6.38036 -1.7808
H -9.704 6.62008 -1.09113
H -9.39542 5.68449 -2.39348
O -7.091 1.91457 7.72839
H -6.7878 1.16291 8.31414
H -6.48295 1.98721 6.93782
O 14.6163 4.00193 0.638534
H 14.7394 3.05439 0.933543
H -14.8012 4.17206 -0.176211
O 2.49246 8.79486 1.44941
H 3.44127 8.50823 1.58208
H 2.06635 8.95901 2.33907
O -3.91767 -10.2641 2.17782
H -4.00918 -9.64937 2.96124
H -4.22099 -11.1812 2.43654
O -8.28603 -12.2524 5.04796
H -9.01159 -11.6544 5.38856
H -8.57287 -12.6656 4.18364
O 6.85235 0.156662 6.71058
H 6.20167 -0.574884 6.50694
H 6.93583 0.2622 7.7015
O -8.45408 -2.89233 11.1572
H -7.60329 -2.39777 11.3349
H -9.22255 -2.25288 11.181
O 14.7099 8.05427 11.1669
H 14.7403 7.92588 10.1757
H 14.545 9.01877 11.3732
O 11.2614 4.626 14.0138
H 10.5825 4.81279 14.7239
H 12.1486 4.99047 14.2968
O -4.43134 9.06199 7.04584
H -4.8971 9.91833 7.26892
H -3.66484 8.92613 7.67355
O 7.51988 -13.8254 6.42614
H 7.6027 -13.7706 5.43107
H 6.83218 -14.5106 6.66613
O 3.80084 -10.9824 14.1843
H 4.7339 -10.885 13.838
H 3.82672 -11.1454 -14.8012
O 1.35639 -5.07026 5.20798
H 0.514553 -5.41882 4.79587
H 1.17128 -4.19483 5.65449
O 4.34124 13.9643 -0.911491
H 5.33517 14.0708 -0.883567
H 4.00742 13.7117 -0.00331925
O -0.795568 -12.2731 7.73788
H -1.52017 -11.6265 7.97628
H -0.507963 -12.7685 8.55757
O 10.8558 3.39338 -10.1629
H 10.3179 2.65488 -9.75624
H 10.9027 4.1619 -9.52478
O 0.751006 3.05878 -4.1704
H 0.274501 3.31756 -3.33017
H 0.32472 2.24094 -4.55697
O 0.568683 2.61169 -13.5088
H 0.601607 1.64046 -13.7447
H 1.34466 2.83819 -12.9201
O 10.3459 -8.75861 -12.4186
H 11.1211 -8.14218 -12.5572
H 10.4251 -9.53849 -13.0395
O -13.3285 -5.36536 -10.4953
H -12.3665 -5.33912 -10.2234
H -13.7882 -4.53714 -10.1748
O -1.04661 11.5248 7.16005
H -0.159615 11.6821 6.72587
H -1.77172 11.6076 6.4764
O -2.01116 -8.27067 -4.69441
H -1.05958 -8.2571 -4.38729
H -2.21924 -7.41748 -5.17272
O -4.53115 0.337255 12.6774
H -3.90043 0.663963 11.9735
H -4.01366 0.0679229 13.4897
O -2.17011 1.35737 -12.9611
H -1.779 1.58556 -12.0694
H -2.36524 2.19898 -13.4647
O -11.2981 -7.73772 7.5199
H -10.83 -7.83083 8.39866
H -11.8024 -8.57786 7.32021
O 9.02529 -3.59389 3.72606
H 8.32804 -3.44286 4.4268
H 9.11716 -2.77151 3.16457
O -7.86071 8.90624 4.43573
H -7.53145 8.29663 3.71464
H -8.7619 9.26095 4.18661
O -13.9836 6.70166 13.154
H -14.6003 7.26817 12.6074
H -13.0663 6.7284 12.7567
O -9.68617 -7.60896 -9.40827
H -8.7992 -7.151 -9.46808
H -9.65649 -8.46228 -9.92882
O 11.5301 -3.51985 -11.0849
H 12.0894 -4.34662 -11.0243
H 12.1228 -2.71459 -11.0693
O -4.40051 11.5698 -12.0379
H -3.89991 11.4835 -11.1765
H -4.20567 10.7784 -12.6173
O 1.9325 3.75234 8.65318
H 1.13115 3.15627 8.60265
H 2.73309 3.26477 8.30484
O -7.5184 -6.25016 9.10151
H -8.3819 -6.1795 9.60089
H -6.76428 -6.34479 9.75141
O -8.63592 14.9496 -4.05601
H -7.90619 14.2669 -4.09433
H -8.69052 -14.6443 -3.1318
O 13.2084 -0.443538 12.2688
H 12.6678 -1.14976 12.7259
H 12.7963 0.452143 12.436
O 8.70049 11.3795 13.7599
H 9.20159 10.5173 13.8336
H 7.90015 11.3521 14.3589
O -3.82841 14.4385 -9.30647
H -3.87216 -14.8684 -10.0521
H -4.63609 13.8497 -9.33715
O -9.86266 -14.5874 2.44207
H -9.54476 -13.6502 2.58576
H -9.16367 14.8674 1.94796
O 11.6685 -2.53516 13.158
H 10.9355 -2.43566 13.8309
H 12.0759 -3.44466 13.2409
O -7.81067 14.9635 -10.4911
H -7.58717 -14.5414 -11.3467
H -7.22557 14.1591 -10.3877
O -6.34522 -11.5099 14.2323
H -5.97343 -11.7258 13.3294
H -7.18876 -12.0269 14.3777
O 11.0672 7.60789 9.36235
H 10.847 6.89547 10.0287
H 11.3748 7.18395 8.51049
O 12.8298 2.07622 13.4305
H 12.0701 2.7233 13.3658
H 13.6959 2.57576 13.4094
O -4.9434 10.7963 12.7696
H -4.04698 11.1823 12.9874
H -5.34851 11.3031 12.0086
O -2.0283 -13.1054 -4.65867
H -1.79277 -13.2935 -5.61217
H -2.49293 -12.222 -4.59813
O 8.9466 0.476634 -12.813
H 8.39364 0.270635 -13.6203
H 9.26817 1.42228 -12.8616
O -11.8583 -11.8268 9.09499
H -11.5291 -11.9267 10.034
H -11.4935 -12.5693 8.53313
O -10.2587 1.51843 -4.13309
H -10.7681 1.39948 -3.28082
H -9.39744 1.01308 -4.07993
O -7.48833 -5.9695 -9.12197
H -7.46712 -5.12665 -8.58421
H -6.80127 -6.60593 -8.77139
O -0.510586 -13.8328 14.174
H -0.6663 -14.6593 14.715
H 0.301497 -13.9559 13.6036
O -12.9379 -14.3244 6.10709
H -12.1844 -14.8076 5.66114
H -12.8317 -14.3851 7.0996
O -8.13817 10.4828 12.0109
H -8.57863 10.449 11.1138
H -7.27696 9.97559 11.9788
O -11.612 13.1247 1.09654
H -11.0775 13.9284 1.35816
H -11.0613 12.3006 1.22887
O 2.82366 4.10078 -11.6855
H 2.40665 4.79497 -11.0988
H 3.22683 3.38302 -11.1178
O 14.1796 5.96382 -5.81163
H 14.6632 6.44269 -5.07894
H 13.6159 5.23687 -5.4194
O 5.26599 10.7824 8.27746
H 5.86702 9.99619 8.42133
H 4.31749 10.5112 8.44121
O 10.2095 -5.00548 -14.7782
H 10.1505 -4.00722 -14.7803
H 10.9389 -5.29755 14.575
O 11.1839 -2.95333 9.37476
H 10.5056 -2.72955 8.67484
H 10.7991 -3.6232 10.0097
O 1.56739 -10.9336 -2.88684
H 2.56533 -10.876 -2.91533
H 1.2743 -11.82 -3.24508
O 6.02482 2.30563 -2.78533
H 5.79177 1.55155 -2.17126
H 5.46422 3.10297 -2.56174
O -13.4793 12.3238 -14.4795
H -14.4349 12.3905 -14.1926
H -12.9617 11.8071 -13.7975
O 6.926 -14.7041 -14.9363
H 6.4613 -13.8223 14.9547
H 6.61764 14.6601 14.3037
O -2.56026 -2.64649 -3.7219
H -2.4738 -1.66332 -3.88286
H -2.08056 -3.14583 -4.4434
O 8.73297 -2.59417 -5.60255
H 9.32065 -1.78516 -5.61431
H 9.18683 -3.34289 -6.08571
O 6.61927 -11.276 6.86335
H 6.85835 -10.9169 7.76549
H 6.99789 -12.1958 6.75971
O 2.63844 -14.4353 7.23611
H 3.09579 -14.7485 6.40377
H 3.02598 -13.5581 7.51949
O -2.3159 -14.4527 5.76244
H -1.87736 -13.8788 6.45406
H -3.23966 -14.6899 6.0631
O -10.2674 -3.15916 13.9569
H -11.0248 -3.34032 13.3296
H -10.5729 -2.53658 14.6773
O 7.53575 12.4672 4.58448
H 8.21581 12.7069 5.27736
H 6.63312 12.406 5.01055
O -10.098 14.9184 -14.7537
H -11.0493 14.741 14.9661
H -9.83834 14.3239 -13.9927
O -13.8993 -11.9187 5.38662
H -13.481 -12.7908 5.6406
H -14.8235 -11.8694 5.7653
O -1.63381 7.536 0.396782
H -0.867269 8.0613 0.027339
H -1.4722 7.34684 1.36535
O -6.3453 -0.240531 9.43383
H -6.08659 -0.717941 8.59409
H -5.82565 -0.613137 10.2027
O -11.3038 -10.7717 -4.07012
H -11.753 -11.4838 -4.60977
H -10.3192 -10.9444 -4.04405
O -12.1811 4.01174 -1.41237
H -11.5177 4.00923 -0.664066
H -12.6634 3.13596 -1.43322
O 7.87227 -12.0409 -3.13449
H 7.6885 -12.2009 -2.16462
H 8.85889 -11.9646 -3.27864
O -13.9259 -14.944 -2.79331
H -13.723 -14.0456 -2.40378
H -13.2011 14.3853 -2.54454
O -8.95146 -1.66853 -9.2664
H -8.67873 -1.15701 -10.0812
H -9.57988 -1.11479 -8.72006
O -13.4163 -4.7677 -5.01134
H -13.6324 -5.51363 -5.64132
H -13.0107 -5.14248 -4.17763
O 6.63112 -9.87115 -4.82343
H 6.91792 -10.6019 -4.20395
H 6.52628 -9.02005 -4.30898
O -13.1519 -14.6824 8.74321
H -12.6735 -14.3497 9.55588
H -14.1388 -14.653 8.90197
O 13.952 -10.3373 14.6103
H 14.0778 -9.34666 14.6642
H 14.493 -10.7012 13.8521
O -1.16866 10.5787 0.417356
H -0.50061 9.97136 -0.0125708
H -0.934139 10.703 1.3815
O 7.0422 -5.44583 3.19243
H 6.84632 -5.86 4.08131
H 7.75701 -4.75439 3.29714
O 0.25997 -1.77385 -7.66582
H -0.228274 -2.37046 -7.02888
H 1.24406 -1.93007 -7.58111
O -5.47993 -11.7112 11.6932
H -5.66258 -10.8507 11.2176
H -6.17606 -12.3843 11.4434
O -9.25203 -9.24018 -6.41998
H -9.01931 -9.62926 -5.52865
H -10.2452 -9.2456 -6.537
O -6.32696 12.8415 -10.0226
H -6.65014 12.1055 -9.42781
H -5.93404 12.4497 -10.8545
O -6.8581 7.83217 -12.9819
H -7.08585 6.93565 -13.3619
H -6.41808 8.39033 -13.6854
O 3.13754 5.31034 13.6544
H 3.22381 6.30662 13.6581
H 3.35989 4.95315 14.5616
O -9.49137 -14.8883 -0.813716
H -8.8535 -14.1182 -0.80354
H -10.2536 -14.6816 -1.42717
O 0.73998 -9.87492 -11.2018
H 0.768356 -9.86387 -10.2022
H -0.136977 -9.5099 -11.5144
O -9.88519 2.52815 -12.8995
H -9.55219 2.46984 -13.8406
H -10.8044 2.13796 -12.8464
O -4.80948 5.37972 8.23089
H -5.46272 5.58721 7.50271
H -3.87828 5.50947 7.89025
O -10.0426 -7.57341 -0.703059
H -10.1115 -7.36438 -1.67855
H -10.6431 -6.96181 -0.18792
O 11.8966 13.0713 -7.48527
H 11.9705 12.6658 -8.39637
H 11.1104 12.6782 -7.00831
O -12.7038 -8.85346 12.6922
H -12.8499 -7.89223 12.926
H -11.7472 -9.09455 12.8555
O -14.3596 -1.43384 13.2788
H -13.885 -0.84759 13.9354
H 14.7807 -0.976315 12.9637
O 7.00477 11.7488 10.6225
H 6.78312 11.7149 9.64793
H 6.62925 10.9417 11.078
O 4.52849 8.15868 6.34989
H 5.22096 8.0798 7.06701
H 3.77524 8.73029 6.67532
O -4.7011 4.69395 -13.5898
H -3.89423 4.11698 -13.7167
H -5.07154 4.55175 -12.6719
O -0.328175 13.7424 11.4467
H 0.0799672 12.8694 11.7134
H -0.922431 13.6043 10.6543
O 6.35738 -5.31239 -5.93199
H 6.73499 -4.38871 -5.86676
H 6.42757 -5.63528 -6.87583
O 9.01254 3.66443 -0.10258
H 9.94651 3.47558 0.200831
H 8.77907 3.05607 -0.86114
O 11.3768 -11.5319 -5.69874
H 10.484 -11.2721 -6.06683
H 11.9516 -10.7181 -5.61304
O -4.46732 -14.2669 -11.6616
H -4.92486 -14.829 -12.3506
H -4.92179 -13.3782 -11.6011
O -13.212 13.0861 -11.2234
H -13.4874 13.7353 -10.5144
H -12.2493 13.2307 -11.4521
O 5.36561 0.231901 -8.42322
H 6.08146 -0.361823 -8.79072
H 5.69349 0.670792 -7.58663
O -3.96317 10.5175 -0.753443
H -3.63309 10.2708 0.157694
H -3.2784 11.0819 -1.21449
O -1.8903 -0.491948 8.48888
H -1.54861 -1.32917 8.91588
H -2.43303 0.0230693 9.15237
O 11.3276 5.044 -8.23972
H 11.5933 4.38815 -7.53311
H 12.0749 5.69085 -8.39202
O 13.2809 -1.1511 -10.7797
H 13.7959 -1.47563 -9.98621
H 13.3408 -0.154205 -10.8309
O 5.4409 4.47856 -5.29311
H 6.15164 4.89297 -4.72467
H 5.76714 4.40775 -6.23575
O 3.14042 2.44984 -5.49237
H 2.35435 2.75548 -4.95507
H 3.81705 3.18458 -5.54077
O -7.50394 -0.0629205 1.88045
H -7.80422 0.345166 1.0183
H -7.4176 0.651289 2.57505
O 2.35598 0.486158 11.1332
H 2.35957 0.425996 10.135
H 2.47061 1.44022 11.4101
O 4.38708 -3.34326 -1.3588
H 4.43231 -3.13458 -0.381848
H 3.86223 -4.18329 -1.49625
O 1.52082 9.26485 3.90833
H 0.727047 9.86561 4.00332
H 1.73767 8.85635 4.79497
O -0.93568 9.65808 -6.26101
H -0.643423 10.5727 -6.54046
H -1.04458 9.63205 -5.26729
O -9.78209 5.09245 -10.8326
H -9.7195 4.31817 -11.4624