LAMMPS data file via write_data, version 15 May 2015, timestep = 8008000

2611 atoms
6 atom types
1749 bonds
4 bond types
894 angles
3 angle types
44 dihedrals
3 dihedral types
10 impropers
1 improper types

-1.5035658022501067e+01 1.5035658022501067e+01 xlo xhi
-1.5035658022501067e+01 1.5035658022501067e+01 ylo yhi
-1.5035658022501067e+01 1.5035658022501067e+01 zlo zhi

Masses

1 15.9994
2 1.00794
3 12.0107
4 1.00794
5 12.0107
6 12.0107

Bond Coeffs # harmonic

1 1000 1
2 469 1.4
3 367 1.08
4 469 0.7

Angle Coeffs # harmonic

1 100 109.47
2 35 120
3 63 120

Dihedral Coeffs # opls

1 0 7.25 0 0
2 0 7.25 0 0
3 0 7.25 0 0

Improper Coeffs # cvff

1 2.5 -1 2

Atoms # full

617 206 2 4.0999999999999998e-01 -5.7563500425675702e+00 -1.3493624983030211e+01 -9.6223121696840952e+00 -1 1 1
2120 707 2 4.0999999999999998e-01 -1.1861424193709135e+01 -1.3897256189512362e+01 -1.0923950046751706e+01 2 0 1
211 71 1 -8.1999999999999995e-01 -9.4817008766477429e+00 -1.2789106875037303e+01 -7.8244513660775414e+00 -1 0 4
351 117 2 4.0999999999999998e-01 -9.5729055085351042e+00 -1.2973962006275395e+01 -1.1628946692543545e+01 -1 -1 1
2091 697 2 4.0999999999999998e-01 -1.4516866368742962e+01 -1.3470567504417062e+01 -1.1387163455624762e+01 1 0 1
484 162 1 -8.1999999999999995e-01 -6.7861206306435768e+00 -1.0423837676920073e+01 -9.6097220289799843e+00 3 -2 -2
349 117 1 -8.1999999999999995e-01 -9.4170652314795422e+00 -1.2292739699396297e+01 -1.2344203065305596e+01 -1 -1 1
350 117 2 4.0999999999999998e-01 -8.4344271362197940e+00 -1.2190931150515647e+01 -1.2499119474670691e+01 -1 -1 1
485 162 2 4.0999999999999998e-01 -7.5263460410319194e+00 -9.9466263028810502e+00 -1.0083301312536584e+01 3 -2 -2
490 164 1 -8.1999999999999995e-01 -6.7512146581289567e+00 -1.2680834397021457e+01 -1.2679892058909289e+01 2 0 3
816 272 2 4.0999999999999998e-01 -8.3964236399838761e+00 -1.4529625587794447e+01 -1.4485193322424639e+01 0 0 3
491 164 2 4.0999999999999998e-01 -5.9901650495079455e+00 -1.2926835004924531e+01 -1.3280082767182000e+01 2 0 3
486 162 2 4.0999999999999998e-01 -5.9150416442341367e+00 -1.0209619494961064e+01 -1.0051619833688182e+01 3 -2 -2
804 268 2 4.0999999999999998e-01 -1.3294201735964160e+01 -1.0595630416083379e+01 -8.5492466264933604e+00 2 0 -1
1661 554 2 4.0999999999999998e-01 -1.1658703216908000e+01 -1.0054387997275812e+01 -1.1647666638945083e+01 2 1 4
802 268 1 -8.1999999999999995e-01 -1.2851489073180847e+01 -1.0234118684181290e+01 -9.3697686908677404e+00 2 0 -1
803 268 2 4.0999999999999998e-01 -1.3503985296020183e+01 -1.0232986265768734e+01 -1.0127521348116932e+01 2 0 -1
1200 400 2 4.0999999999999998e-01 -7.1013438186623725e+00 -1.1281850548270036e+01 -7.7885713266299961e+00 1 1 5
1662 554 2 4.0999999999999998e-01 -1.0874538214509021e+01 -1.0954664736913488e+01 -1.2761694479125502e+01 2 1 4
640 214 1 -8.1999999999999995e-01 -9.4268582564680159e+00 -8.9616129147373833e+00 -1.0846175586414795e+01 -1 0 3
641 214 2 4.0999999999999998e-01 -9.7415066744049845e+00 -9.6128430027965894e+00 -1.0155641419934764e+01 -1 0 3
1141 381 1 -8.1999999999999995e-01 -1.2224035538722877e+01 -1.4096968809656081e+01 -1.4155582148679418e+01 3 -3 -1
1142 381 2 4.0999999999999998e-01 -1.2077407070701193e+01 -1.3822543494912198e+01 -1.3205249294496767e+01 3 -3 -1
1208 403 2 4.0999999999999998e-01 -1.1209118285519232e+01 -1.0498176585876880e+01 -9.0402120085583775e+00 2 0 -1
570 190 2 4.0999999999999998e-01 -1.0121376966445935e+01 -1.3616653965431679e+01 -9.4723676161767152e+00 6 1 3
1207 403 1 -8.1999999999999995e-01 -1.0234466189785167e+01 -1.0364445319202844e+01 -8.8610167329430958e+00 2 0 -1
1660 554 1 -8.1999999999999995e-01 -1.1766777454804320e+01 -1.0747013178636850e+01 -1.2360780942646855e+01 2 1 4
1209 403 2 4.0999999999999998e-01 -9.8363325886771378e+00 -1.1219360794122611e+01 -8.5285248078327562e+00 2 0 -1
1377 459 2 4.0999999999999998e-01 -1.2576450047094173e+01 -8.5537113424413107e+00 -9.8508092339856095e+00 1 4 1
2119 707 1 -8.1999999999999995e-01 -1.2550721929148946e+01 -1.3531775825716911e+01 -1.1549437446485276e+01 2 0 1
642 214 2 4.0999999999999998e-01 -9.2997849136582857e+00 -8.0639225731586706e+00 -1.0424339001224215e+01 -1 0 3
568 190 1 -8.1999999999999995e-01 -1.0138999396909275e+01 -1.4067919640251915e+01 -1.0364550585898488e+01 6 1 3
1143 381 2 4.0999999999999998e-01 -1.3205394547477583e+01 -1.4164143548941077e+01 -1.4335481416125836e+01 3 -3 -1
921 307 2 4.0999999999999998e-01 -1.2045871516349333e+01 -1.0451206246334060e+01 -1.4239858162276454e+01 3 -2 1
563 188 2 4.0999999999999998e-01 -7.6639861731701391e+00 -8.1178020018220476e+00 -1.3149435347020750e+01 0 -2 -1
1375 459 1 -8.1999999999999995e-01 -1.2341867289809425e+01 -7.6535116735511677e+00 -1.0217624222252859e+01 1 4 1
564 188 2 4.0999999999999998e-01 -8.8296021348883436e+00 -8.8652740335290741e+00 -1.2283931942306390e+01 0 -2 -1
562 188 1 -8.1999999999999995e-01 -8.4573322748722095e+00 -8.7243150429672589e+00 -1.3201258222264464e+01 0 -2 -1
618 206 2 4.0999999999999998e-01 -6.9055552325060265e+00 -1.2334406383684826e+01 -9.5774708931677139e+00 -1 1 1
2121 707 2 4.0999999999999998e-01 -1.2246570385715968e+01 -1.2645993076773872e+01 -1.1899897844792243e+01 2 0 1
616 206 1 -8.1999999999999995e-01 -6.7320913949359138e+00 -1.3306440193781292e+01 -9.7355924376344554e+00 -1 1 1
1376 459 2 4.0999999999999998e-01 -1.2588414717454917e+01 -7.6135751054098044e+00 -1.1185901652432971e+01 1 4 1
492 164 2 4.0999999999999998e-01 -6.3950739536660173e+00 -1.2393400877038458e+01 -1.1790798442829113e+01 2 0 3
1449 483 2 4.0999999999999998e-01 -1.4121312208635450e+01 -7.9716670743736007e+00 -1.3146069047456045e+01 3 -1 0
2174 725 2 4.0999999999999998e-01 -6.9152396335298185e+00 -1.4571625422423320e+01 -1.1304316662943450e+01 1 -5 2
1658 553 2 4.0999999999999998e-01 -9.4248536434151955e+00 -1.2558189609320507e+01 -1.4322961823543141e+01 -2 -1 4
1489 497 1 -8.1999999999999995e-01 -6.6345344907375026e+00 -7.9038329002920058e+00 -8.1361760064731357e+00 1 0 0
1565 522 2 4.0999999999999998e-01 -7.4823110286155154e+00 -1.0092043048305351e+01 -1.4523943230466553e+01 1 2 1
1491 497 2 4.0999999999999998e-01 -7.4105544896895781e+00 -8.5230188723660856e+00 -8.0164120728287109e+00 1 0 0
1447 483 1 -8.1999999999999995e-01 -1.3371220596188699e+01 -7.5696249750180238e+00 -1.2621029590092332e+01 3 -1 0
363 121 2 4.0999999999999998e-01 -1.0623067340587141e+01 -7.6388869369806089e+00 -9.1588168958014347e+00 0 1 -2
214 72 1 -8.1999999999999995e-01 -1.4988006763352839e+01 -1.0061513770189725e+01 -1.0921860599894917e+01 1 0 1
215 72 2 4.0999999999999998e-01 -1.4830865751835656e+01 -1.0057781957343066e+01 -1.1909400206238912e+01 1 0 1
212 71 2 4.0999999999999998e-01 -9.4958748832594093e+00 -1.3781066879208414e+01 -7.6989277771705158e+00 -1 0 4
569 190 2 4.0999999999999998e-01 -9.6169693710655775e+00 -1.4919524370892667e+01 -1.0317691659507222e+01 6 1 3
919 307 1 -8.1999999999999995e-01 -1.2694152657381682e+01 -1.0303958115114977e+01 -1.4986846293473270e+01 3 -2 1
184 62 1 -8.1999999999999995e-01 -1.1823323885973240e+01 -5.5302540557596291e+00 -1.4563919189769758e+01 0 3 1
1367 456 2 4.0999999999999998e-01 -1.4416546501503706e+01 -1.0366634327546382e+00 -7.8781121134056313e+00 -1 -3 5
819 273 2 4.0999999999999998e-01 -1.4630154436177726e+01 -4.2726448868067681e+00 -9.4220469092057861e+00 2 0 1
1147 383 1 -8.1999999999999995e-01 -1.1151028271189885e+01 -6.5853690513824326e-01 -7.9990287846683765e+00 3 -1 2
711 237 2 4.0999999999999998e-01 -1.0500335919157152e+01 -4.2064840849720699e+00 -7.8466001954493727e+00 1 -2 1
1853 618 2 4.0999999999999998e-01 -9.5929326344756518e+00 -3.1902577754552865e+00 -1.3888579034136153e+01 0 1 0
1184 395 2 4.0999999999999998e-01 -1.3281002359460405e+01 -7.0009706715479716e+00 -8.4908952850080226e+00 4 -2 5
1148 383 2 4.0999999999999998e-01 -1.1044034152607612e+01 -6.3969577416315460e-01 -8.9930805934076385e+00 3 -1 2
186 62 2 4.0999999999999998e-01 -1.2698514026167594e+01 -5.0465907971615369e+00 -1.4556579231721267e+01 0 3 1
1384 462 1 -8.1999999999999995e-01 -1.1642416817740916e+01 -5.7616133232541422e-01 -1.3283682885741099e+01 -3 -1 -1
1366 456 1 -8.1999999999999995e-01 -1.3877999116041433e+01 -1.9540601841421079e-01 -7.8312669434069360e+00 -1 -3 5
500 167 2 4.0999999999999998e-01 -1.3306995868399905e+01 -9.6784753441128757e-01 -1.2945783607010952e+01 0 0 3
1490 497 2 4.0999999999999998e-01 -6.9691969869802488e+00 -6.9923967296394895e+00 -8.3753973057860893e+00 1 0 0
980 327 2 4.0999999999999998e-01 -5.3498254883933569e+00 -1.5450254941115098e+00 -1.4985459449135522e+01 0 0 1
1852 618 1 -8.1999999999999995e-01 -8.5950687981196179e+00 -3.1493697782007928e+00 -1.3838203992742381e+01 0 1 0
501 167 2 4.0999999999999998e-01 -1.4356870931494820e+01 -1.4595125093301338e+00 -1.1795784074769003e+01 0 0 3
1259 420 2 4.0999999999999998e-01 -5.9850931470012902e+00 -6.9023360775212748e+00 -1.4392241440276985e+01 4 1 6
1854 618 2 4.0999999999999998e-01 -8.2623197839383025e+00 -3.8691794591491444e+00 -1.3229029247679861e+01 0 1 0
2094 698 2 4.0999999999999998e-01 -5.6122380592391323e+00 -4.5472723615662911e+00 -8.4604033972512873e+00 3 -2 -1
1455 485 2 4.0999999999999998e-01 -1.3506605806185133e+01 -3.5699064325524308e+00 -1.0735273674336812e+01 0 3 -2
499 167 1 -8.1999999999999995e-01 -1.4267233809791589e+01 -9.7664411602723433e-01 -1.2666843781904392e+01 0 0 3
522 174 2 4.0999999999999998e-01 -8.3286108913498538e+00 -5.6802650914841131e+00 -1.2083104945961987e+01 6 1 0
1863 621 2 4.0999999999999998e-01 -7.1111738074772290e+00 -1.7281056063349212e+00 -8.3149131518531760e+00 -2 0 0
1453 485 1 -8.1999999999999995e-01 -1.3681165167837776e+01 -2.6716348871744557e+00 -1.0332062835423949e+01 0 3 -2
1448 483 2 4.0999999999999998e-01 -1.2994096991298408e+01 -6.7904557140994015e+00 -1.3121643956927414e+01 3 -1 0
326 109 2 4.0999999999999998e-01 -1.0815433613249319e+01 -6.0458860488106918e+00 -1.3391162906947756e+01 1 0 1
1633 545 1 -8.1999999999999995e-01 -1.0376905364045740e+01 -3.8335091449701242e+00 -1.1071554001462461e+01 2 0 2
1390 464 1 -8.1999999999999995e-01 -1.3413508092603815e+01 -5.0564480883347240e+00 -1.1340200585688969e+01 6 2 0
362 121 2 4.0999999999999998e-01 -1.0151835059051322e+01 -6.1918472301886656e+00 -8.5667972668687931e+00 0 1 -2
1160 387 2 4.0999999999999998e-01 -8.5415962222675184e+00 -6.8780418925951992e-02 -1.4130976485280948e+01 3 0 1
1635 545 2 4.0999999999999998e-01 -1.0462987743485096e+01 -4.5580669022689744e+00 -1.1755328513821906e+01 2 0 2
1391 464 2 4.0999999999999998e-01 -1.3209493422137250e+01 -6.0153466760862369e+00 -1.1143139123367893e+01 6 2 0
1161 387 2 4.0999999999999998e-01 -8.2192826356603632e+00 -1.6301881619357950e+00 -1.4483950730833758e+01 3 0 1
1159 387 1 -8.1999999999999995e-01 -8.4662175459729241e+00 -7.4049809730366256e-01 -1.4867899233885689e+01 3 0 1
74 25 2 4.0999999999999998e-01 -1.0675415624211151e+01 -2.2701858360457816e+00 -1.0615383380352252e+01 1 -1 2
496 166 1 -8.1999999999999995e-01 -1.4720385160288545e+01 -3.7797310573825964e+00 -1.4548512265839600e+01 -1 0 2
1412 471 2 4.0999999999999998e-01 -5.9797889759014353e+00 -3.8632523850326379e+00 -1.2689577028250724e+01 -1 -1 -1
710 237 2 4.0999999999999998e-01 -1.2009044009450072e+01 -4.5022152296921654e+00 -8.3968856336490720e+00 1 -2 1
392 131 2 4.0999999999999998e-01 -7.8792448924861969e+00 -3.8300246347619780e+00 -8.9051473055364525e+00 3 2 3
73 25 1 -8.1999999999999995e-01 -1.1049398656309588e+01 -1.3437558646268251e+00 -1.0657879425533363e+01 1 -1 2
361 121 1 -8.1999999999999995e-01 -9.8682535674941114e+00 -7.1352392697527351e+00 -8.7386538919240628e+00 0 1 -2
2584 862 1 -8.1999999999999995e-01 -9.0818696466931712e+00 -2.3317696379406012e+00 -7.6819994424273661e+00 4 -3 3
393 131 2 4.0999999999999998e-01 -7.2309480538997271e+00 -4.5080739104315981e+00 -1.0241721804325806e+01 3 2 3
327 109 2 4.0999999999999998e-01 -9.6386213130755127e+00 -7.1342332501151065e+00 -1.3079579503953651e+01 1 0 1
1258 420 1 -8.1999999999999995e-01 -6.0418378385027669e+00 -7.1627931758066019e+00 -1.3428455231924982e+01 4 1 6
325 109 1 -8.1999999999999995e-01 -9.9911216527395830e+00 -6.2259311992339654e+00 -1.2854473742313681e+01 1 0 1
520 174 1 -8.1999999999999995e-01 -7.5049785932674293e+00 -5.1195040149085997e+00 -1.1998733466240962e+01 6 1 0
391 131 1 -8.1999999999999995e-01 -7.2098115820260045e+00 -4.4920379394528620e+00 -9.2421029685518175e+00 3 2 3
497 166 2 4.0999999999999998e-01 -1.3995734834221993e+01 -3.0941547196851893e+00 -1.4617857079924017e+01 -1 0 2
1634 545 2 4.0999999999999998e-01 -1.0791167774307210e+01 -4.1347733557234054e+00 -1.0212736062435617e+01 2 0 2
709 237 1 -8.1999999999999995e-01 -1.1039186949899127e+01 -4.7122058205333683e+00 -8.5202668910136943e+00 1 -2 1
521 174 2 4.0999999999999998e-01 -6.6970615358047354e+00 -5.7082907355577230e+00 -1.2022012712034231e+01 6 1 0
1454 485 2 4.0999999999999998e-01 -1.2812641924821044e+01 -2.1996391219928633e+00 -1.0180969932166537e+01 0 3 -2
75 25 2 4.0999999999999998e-01 -1.1083868099472255e+01 -1.0416058459565729e+00 -1.1610485806290971e+01 1 -1 2
1392 464 2 4.0999999999999998e-01 -1.4228316396204173e+01 -5.0008052933339791e+00 -1.1917204070965191e+01 6 2 0
1149 383 2 4.0999999999999998e-01 -1.2122557158047295e+01 -6.0942465110041155e-01 -7.7673796526502414e+00 3 -1 2
1386 462 2 4.0999999999999998e-01 -1.1379872050001509e+01 -7.4869139138451857e-01 -1.4233022293210782e+01 -3 -1 -1
1260 420 2 4.0999999999999998e-01 -5.1418436660417424e+00 -7.0660256197110529e+00 -1.3003498461637344e+01 4 1 6
1411 471 1 -8.1999999999999995e-01 -5.1583674767648677e+00 -3.4489820686617154e+00 -1.2297673323831461e+01 -1 -1 -1
1413 471 2 4.0999999999999998e-01 -5.1156546521047037e+00 -2.4840898302960230e+00 -1.2556710526167027e+01 -1 -1 -1
1861 621 1 -8.1999999999999995e-01 -6.2903998049503009e+00 -1.2681760318481707e+00 -7.9761853384867694e+00 -2 0 0
2585 862 2 4.0999999999999998e-01 -9.8462559843797592e+00 -1.6893398207492361e+00 -7.6277845924845842e+00 4 -3 3
1950 650 2 4.0999999999999998e-01 -6.8820850430748894e+00 -1.2045957755751775e+01 -1.3420556471970055e+00 0 -1 2
1948 650 1 -8.1999999999999995e-01 -7.3217081468524583e+00 -1.1699900796236733e+01 -5.1325060106875675e-01 0 -1 2
1949 650 2 4.0999999999999998e-01 -8.1847371900448458e+00 -1.1255998687338165e+01 -7.5423503091770705e-01 0 -1 2
2303 768 2 4.0999999999999998e-01 -9.8932159052905106e+00 -9.2756448278706607e+00 -9.6131645056643045e-01 2 0 2
2180 727 2 4.0999999999999998e-01 -1.0197294423204927e+01 -1.1630457274008515e+01 -3.6588984751839408e+00 2 -1 0
2181 727 2 4.0999999999999998e-01 -1.1383454986953470e+01 -1.2594362516796387e+01 -3.0841107968937465e+00 2 -1 0
2179 727 1 -8.1999999999999995e-01 -1.1009696025455924e+01 -1.1666895411159031e+01 -3.0769898392770560e+00 2 -1 0
1075 359 1 -8.1999999999999995e-01 -8.5648137900398211e+00 -1.1719124522987805e+01 -4.2555322204962405e+00 2 2 2
2304 768 2 4.0999999999999998e-01 -1.0183728731017361e+01 -1.0679741015145694e+01 -1.7427172513536533e+00 2 0 2
2302 768 1 -8.1999999999999995e-01 -9.8066253351172108e+00 -1.0270630032590997e+01 -9.1183642530197773e-01 2 0 2
1955 652 2 4.0999999999999998e-01 -1.2736273918606679e+01 -8.6288292797187687e+00 -6.8018608950759383e+00 0 1 1
1555 519 1 -8.1999999999999995e-01 -1.2853164275735779e+01 -1.3849336557099505e+01 -5.7296868434304109e+00 1 0 1
2501 834 2 4.0999999999999998e-01 -9.5495675005996397e+00 -1.3959927281962250e+01 -4.5974368787165965e+00 3 1 0
845 282 2 4.0999999999999998e-01 -1.0168624999991732e+01 -8.7798016093531572e+00 -5.9640601897585750e+00 2 0 2
2425 809 1 -8.1999999999999995e-01 -1.2140187552227951e+01 -9.1133968977507998e+00 -3.1891111759691437e+00 2 -1 3
834 278 2 4.0999999999999998e-01 -8.7162850390138562e+00 -7.8549609309554151e+00 -4.4997709775282893e+00 -1 2 1
743 248 2 4.0999999999999998e-01 -1.2779078934429828e+01 -1.3174744277182540e+01 -9.2452487311999398e-01 3 0 0
2426 809 2 4.0999999999999998e-01 -1.2320844157953591e+01 -9.0973134391956236e+00 -4.1724963257499539e+00 2 -1 3
2427 809 2 4.0999999999999998e-01 -1.1554814335084771e+01 -9.8940927172526045e+00 -2.9704928043847563e+00 2 -1 3
1891 631 1 -8.1999999999999995e-01 -6.1088010805264936e+00 -1.2488384406267494e+01 -2.9515399102422233e+00 3 1 -1
1557 519 2 4.0999999999999998e-01 -1.1996140826623801e+01 -1.3926831180999047e+01 -5.2203273543974955e+00 1 0 1
1954 652 1 -8.1999999999999995e-01 -1.2199905821594644e+01 -9.3005762611373584e+00 -6.2909724579889001e+00 0 1 1
1076 359 2 4.0999999999999998e-01 -8.1910017650560896e+00 -1.1293835299309002e+01 -5.0797502478626555e+00 2 2 2
844 282 1 -8.1999999999999995e-01 -9.4020808841564119e+00 -8.1615109504266368e+00 -6.1374628976433581e+00 2 0 2
846 282 2 4.0999999999999998e-01 -9.4777026191207945e+00 -7.7879801644253988e+00 -7.0619616263211853e+00 2 0 2
1077 359 2 4.0999999999999998e-01 -7.8258174657429498e+00 -1.1888947006987713e+01 -3.6036223660850091e+00 2 2 2
2500 834 1 -8.1999999999999995e-01 -1.0356971654477398e+01 -1.4407680056944201e+01 -4.2133044678428018e+00 3 1 0
742 248 1 -8.1999999999999995e-01 -1.2904308316135877e+01 -1.3725679569661530e+01 -1.7495882631627033e+00 3 0 0
558 186 2 4.0999999999999998e-01 -1.4647424484608834e+01 -8.8969502887805856e+00 -3.0284961321246175e+00 6 -6 2
1956 652 2 4.0999999999999998e-01 -1.2479148785071843e+01 -1.0222861048731776e+01 -6.5580976570365213e+00 0 1 1
1199 400 2 4.0999999999999998e-01 -6.4570295600098859e+00 -1.2124498268983093e+01 -6.5470903661527533e+00 1 1 5
833 278 2 4.0999999999999998e-01 -9.0616603291781317e+00 -7.8083565028976123e+00 -2.9044606715069587e+00 -1 2 1
1893 631 2 4.0999999999999998e-01 -5.5330301293714772e+00 -1.1775980975013461e+01 -3.3526768885353935e+00 3 1 -1
744 248 2 4.0999999999999998e-01 -1.3871385314333278e+01 -1.3958963758636852e+01 -1.8509899804622734e+00 3 0 0
1892 631 2 4.0999999999999998e-01 -5.7278282016495972e+00 -1.3386874849633038e+01 -3.1695222068488089e+00 3 1 -1
1534 512 1 -8.1999999999999995e-01 -5.1659337280658910e+00 -1.3377092279676521e+01 -5.8696731264597339e+00 0 2 0
604 202 1 -8.1999999999999995e-01 -1.4797111408099981e+01 -1.1669898622024826e+01 -4.5267517386766549e+00 3 0 1
2258 753 2 4.0999999999999998e-01 -1.3737017721011975e+01 -1.2570300529727167e+01 -7.1234286555522699e+00 0 1 3
54 18 2 4.0999999999999998e-01 -7.0189204238168763e+00 -7.5478042811801878e+00 -4.8358173837663614e+00 1 3 3
605 202 2 4.0999999999999998e-01 -1.3927019655162619e+01 -1.1728050619300618e+01 -4.0373639346010588e+00 3 0 1
1198 400 1 -8.1999999999999995e-01 -7.2463841954841417e+00 -1.1589548637387946e+01 -6.8482379416486783e+00 1 1 5
53 18 2 4.0999999999999998e-01 -6.1963675138612793e+00 -7.6687355789467846e+00 -6.2412544708223159e+00 1 3 3
2259 753 2 4.0999999999999998e-01 -1.4687406433809047e+01 -1.1277831745076242e+01 -6.8188687502527294e+00 0 1 3
1951 651 1 -8.1999999999999995e-01 -9.3470937561337557e+00 -7.5353215026863909e+00 -5.5187987303835762e-01 -3 1 0
1536 512 2 4.0999999999999998e-01 -5.9513199012787474e+00 -1.3795863057823624e+01 -5.4138866708323814e+00 0 2 0
1556 519 2 4.0999999999999998e-01 -1.3598585337621003e+01 -1.4239354536028312e+01 -5.1891545840755438e+00 1 0 1
1047 349 2 4.0999999999999998e-01 -5.3256092017007912e+00 -1.4507450286222960e+01 -3.7695346980484423e-01 0 -2 2
2502 834 2 4.0999999999999998e-01 -1.0082408014839812e+01 -1.4992082849725193e+01 -3.4497405150425600e+00 3 1 0
213 71 2 4.0999999999999998e-01 -8.7694408356777860e+00 -1.2390211307271645e+01 -7.2469483945993778e+00 -1 0 4
606 202 2 4.0999999999999998e-01 -1.4933136421305207e+01 -1.2501732231794115e+01 -5.0647961388684219e+00 3 0 1
791 264 2 4.0999999999999998e-01 -1.1801255378558123e+01 -1.4759493373970797e+01 -7.4300457738956904e+00 1 1 6
2257 753 1 -8.1999999999999995e-01 -1.4109071693754109e+01 -1.1723029598567178e+01 -7.5024399025114548e+00 0 1 3
1928 643 2 4.0999999999999998e-01 -1.2417472061086459e+01 -3.5094560834144062e-01 -1.2268938094981880e+00 2 0 3
832 278 1 -8.1999999999999995e-01 -8.4771738444493216e+00 -7.4345042237620822e+00 -3.6245660213415185e+00 -1 2 1
2465 822 2 4.0999999999999998e-01 -8.8169792200388493e+00 -8.4402661241521670e-01 -9.5018511873159284e-01 1 2 -2
1185 395 2 4.0999999999999998e-01 -1.3943304872918249e+01 -6.5253213826185466e+00 -7.0761217536929459e+00 4 -2 5
1697 566 2 4.0999999999999998e-01 -1.4813314902784558e+01 -4.7589935877275185e+00 -6.8480847869473216e+00 6 -1 -3
1181 394 2 4.0999999999999998e-01 -6.3464608820177073e+00 -5.7240773008863179e+00 -3.4931030926145468e-01 0 -3 1
2586 862 2 4.0999999999999998e-01 -9.2440558092018215e+00 -3.0961998589547051e+00 -7.0580733024356714e+00 4 -3 3
2567 856 2 4.0999999999999998e-01 -9.1999546720222014e+00 -5.2346796560096109e-02 -4.5128160796882479e+00 0 2 1
2355 785 2 4.0999999999999998e-01 -5.1082899789718201e+00 -1.8154495178665169e+00 -2.1386256512637836e-01 0 1 -4
536 179 2 4.0999999999999998e-01 -1.4327148922655841e+01 -7.4376622849095675e-01 -2.1806820655958141e+00 2 -2 2
52 18 1 -8.1999999999999995e-01 -6.2002859692332866e+00 -7.2560250723083763e+00 -5.3304326296682678e+00 1 3 3
871 291 1 -8.1999999999999995e-01 -8.8546047041496969e+00 -4.0370164766814103e+00 -7.3034712598780338e-01 2 0 1
873 291 2 4.0999999999999998e-01 -8.1855003860602373e+00 -4.7786000991586643e+00 -7.7825169935663929e-01 2 0 1
546 182 2 4.0999999999999998e-01 -1.4515344992176459e+01 -2.3915735978230224e+00 -3.8615384673830793e+00 3 0 1
545 182 2 4.0999999999999998e-01 -1.4931001003784511e+01 -2.8363327819176192e+00 -5.3767580579039347e+00 3 0 1
310 104 1 -8.1999999999999995e-01 -1.0013626555073316e+01 -3.9162382358604244e+00 -5.7313594590874875e+00 -2 0 0
665 222 2 4.0999999999999998e-01 -1.1476115740012704e+01 -4.5203593397944353e+00 -3.5716151128192575e+00 0 0 3
1698 566 2 4.0999999999999998e-01 -1.4034149068738994e+01 -5.1628943274480132e+00 -5.4710459622034175e+00 6 -1 -3
1862 621 2 4.0999999999999998e-01 -6.2058971583976081e+00 -1.4196108572178581e+00 -6.9913663147114882e+00 -2 0 0
2484 828 2 4.0999999999999998e-01 -9.1434236416840164e+00 -1.9615226108619996e+00 -3.1268901281570294e+00 4 4 -2
544 182 1 -8.1999999999999995e-01 -1.4535669713433744e+01 -3.1496504728415022e+00 -4.5133422108943844e+00 3 0 1
2466 822 2 4.0999999999999998e-01 -1.0182755323347290e+01 -6.7285641046679778e-01 -7.1648013605207339e-02 1 2 -2
1170 390 2 4.0999999999999998e-01 -1.2164128521332259e+01 -2.3365656499171745e+00 -3.5666010372668033e-01 -1 -1 2
2464 822 1 -8.1999999999999995e-01 -9.3222036699846420e+00 -2.3764377819799698e-01 -3.3619014819553961e-01 1 2 -2
312 104 2 4.0999999999999998e-01 -1.0009160482970268e+01 -3.1217638053221535e+00 -5.1241262667649874e+00 -2 0 0
912 304 2 4.0999999999999998e-01 -7.5701796539053445e+00 -5.6688271629094711e+00 -3.8996495272056357e+00 3 0 3
311 104 2 4.0999999999999998e-01 -9.6920868422235920e+00 -4.7200533584032343e+00 -5.2309244843791820e+00 -2 0 0
1169 390 2 4.0999999999999998e-01 -1.1738667400536775e+01 -2.7528967255900216e+00 -1.8772265390635372e+00 -1 -1 2
774 258 2 4.0999999999999998e-01 -8.1590948997429891e+00 -2.6099464284575813e+00 -1.4231051949797493e+00 5 3 1
1122 374 2 4.0999999999999998e-01 -7.2487491226483458e+00 -2.6641217198565155e+00 -4.3459633139919660e+00 -2 0 4
773 258 2 4.0999999999999998e-01 -6.8037233662176870e+00 -1.8183370454598879e+00 -1.8734313770059181e+00 5 3 1
664 222 1 -8.1999999999999995e-01 -1.1974642162726820e+01 -3.7483758056583483e+00 -3.1773378796674070e+00 0 0 3
1168 390 1 -8.1999999999999995e-01 -1.1604125787822154e+01 -2.0844131208832852e+00 -1.1458101253138402e+00 -1 -1 2
2162 721 2 4.0999999999999998e-01 -1.4722466255986344e+01 -2.9929033999875880e+00 -3.6124322918393936e-01 3 3 2
1953 651 2 4.0999999999999998e-01 -8.6782327374521202e+00 -6.9178351854817013e+00 -9.6573649610273904e-01 -3 1 0
911 304 2 4.0999999999999998e-01 -7.8909826086701571e+00 -4.5720218812977205e+00 -2.7332127874510146e+00 3 0 3
2483 828 2 4.0999999999999998e-01 -1.0674706635406434e+01 -2.3839952250018523e+00 -3.5052553960751798e+00 4 4 -2
666 222 2 4.0999999999999998e-01 -1.2919927710522762e+01 -3.7606186041154999e+00 -3.5032628044488927e+00 0 0 3
720 240 2 4.0999999999999998e-01 -1.1354227726244936e+01 -6.6485347381200128e+00 -5.1643965519321089e+00 0 3 3
718 240 1 -8.1999999999999995e-01 -1.1524995792504473e+01 -6.3264166216546069e+00 -4.2332575216724599e+00 0 3 3
1121 374 2 4.0999999999999998e-01 -5.8677269188815586e+00 -1.8998739613937410e+00 -3.9274253354897439e+00 -2 0 4
535 179 1 -8.1999999999999995e-01 -1.5009744266045470e+01 -1.2528662632951875e+00 -2.7049171829134568e+00 2 -2 2
1696 566 1 -8.1999999999999995e-01 -1.4681725304219539e+01 -5.4774060716398978e+00 -6.1650698675340863e+00 6 -1 -3
725 242 2 4.0999999999999998e-01 -5.2324702150555797e+00 -6.5985803226575932e+00 -3.9842836016606249e+00 2 2 2
1182 394 2 4.0999999999999998e-01 -6.3000110785861168e+00 -6.2354920013290212e+00 -1.8993969033987650e+00 0 -3 1
2482 828 1 -8.1999999999999995e-01 -9.8754455184180614e+00 -1.8606567117817558e+00 -3.8006198497932271e+00 4 4 -2
719 240 2 4.0999999999999998e-01 -1.1571564678829889e+01 -7.1093896633940066e+00 -3.6129944652055634e+00 0 3 3
1120 374 1 -8.1999999999999995e-01 -6.4333896435481073e+00 -2.2020272097497315e+00 -4.6946741872185864e+00 -2 0 4
910 304 1 -8.1999999999999995e-01 -7.8066267725521952e+00 -4.7140707837645852e+00 -3.7194419321885164e+00 3 0 3
772 258 1 -8.1999999999999995e-01 -7.8028589787209288e+00 -1.8150229857146094e+00 -1.9141595955308102e+00 5 3 1
1180 394 1 -8.1999999999999995e-01 -6.8795797908588483e+00 -5.8389965496444400e+00 -1.1874746859441938e+00 0 -3 1
1183 395 1 -8.1999999999999995e-01 -1.3322737784472412e+01 -7.1798253812123711e+00 -7.5079350436965511e+00 4 -2 5
1282 428 1 -8.1999999999999995e-01 -1.4585767941308013e+01 -1.2028406764373511e+01 1.7296229026274474e+00 1 3 3
2572 858 1 -8.1999999999999995e-01 -1.1886371459368496e+01 -1.2207013136998050e+01 7.3957790995759431e-01 3 3 0
438 146 2 4.0999999999999998e-01 -1.4064961296755408e+01 -1.3398795652398453e+01 4.9069972382040739e+00 3 4 1
267 89 2 4.0999999999999998e-01 -1.1767701316923732e+01 -1.0853457050484550e+01 3.8003624757144046e+00 1 4 4
265 89 1 -8.1999999999999995e-01 -1.1382000841760224e+01 -1.1489118023418236e+01 4.4690268088088132e+00 1 4 4
2294 765 2 4.0999999999999998e-01 -8.8176811487358471e+00 -1.1793742792572699e+01 6.1360389139260825e+00 3 0 1
1473 491 2 4.0999999999999998e-01 -9.3755633900365893e+00 -1.4323397198527079e+01 4.9542582216330686e+00 2 -1 1
266 89 2 4.0999999999999998e-01 -1.0419455851272087e+01 -1.1266623828379924e+01 4.6237690697515461e+00 1 4 4
2477 826 2 4.0999999999999998e-01 -7.7156921369288654e+00 -1.3385668087969611e+01 2.5767867054477911e+00 1 3 -1
437 146 2 4.0999999999999998e-01 -1.2837105225963747e+01 -1.2525937374149574e+01 4.2769504712611166e+00 3 4 1
2574 858 2 4.0999999999999998e-01 -1.1324077217148989e+01 -1.2652328101171369e+01 1.4363285977408431e+00 3 3 0
2293 765 1 -8.1999999999999995e-01 -8.8459484705753670e+00 -1.2632639897902688e+01 5.5925370246937725e+00 3 0 1
2476 826 1 -8.1999999999999995e-01 -7.2120382870074753e+00 -1.2963003917995026e+01 3.3301986343878838e+00 1 3 -1
2478 826 2 4.0999999999999998e-01 -6.2600314474665861e+00 -1.3268130431627577e+01 3.3073399334044744e+00 1 3 -1
2295 765 2 4.0999999999999998e-01 -8.0369330488912212e+00 -1.2677531022506743e+01 5.0065160894741254e+00 3 0 1
436 146 1 -8.1999999999999995e-01 -1.3715442669236223e+01 -1.2960882756216378e+01 4.0787395943934293e+00 3 4 1
717 239 2 4.0999999999999998e-01 -8.0258217305801445e+00 -1.0068735541371975e+01 2.4601744072210785e+00 1 -1 1
1293 431 2 4.0999999999999998e-01 -1.3202285341518223e+01 -1.4300895811023548e+01 2.8354659419189474e+00 3 -4 4
2462 821 2 4.0999999999999998e-01 -6.0798611424353641e+00 -1.3806045625589885e+01 6.1566009899463197e+00 3 3 2
715 239 1 -8.1999999999999995e-01 -7.9676692633000012e+00 -1.0348052446066664e+01 3.4185804058406788e+00 1 -1 1
716 239 2 4.0999999999999998e-01 -7.3686557025101784e+00 -1.1144828225726693e+01 3.4977814438898598e+00 1 -1 1
56 19 2 4.0999999999999998e-01 -8.9372785689741736e+00 -8.8112973457521093e+00 3.7505773299176823e+00 1 4 1
1745 582 2 4.0999999999999998e-01 -1.2497522837459904e+01 -9.1373935177419785e+00 5.0487233823665605e+00 -1 -2 -1
2548 850 1 -8.1999999999999995e-01 -8.0347278460741300e+00 -1.4250944241261978e+01 7.3178732765496157e-01 2 0 1
1744 582 1 -8.1999999999999995e-01 -1.3244472206990615e+01 -9.0294032074354895e+00 4.3927154160215096e+00 -1 -2 -1
57 19 2 4.0999999999999998e-01 -1.0082768455937780e+01 -8.2338719336119830e+00 4.7609751993379490e+00 1 4 1
55 19 1 -8.1999999999999995e-01 -9.3999465035576808e+00 -7.9858338630818908e+00 4.0738267484579254e+00 1 4 1
1746 582 2 4.0999999999999998e-01 -1.4008644211268356e+01 -9.6172944616889726e+00 4.6579826725003315e+00 -1 -2 -1
2549 850 2 4.0999999999999998e-01 -7.6359808517985552e+00 -1.4991691168701518e+01 1.9119826444624444e-01 2 0 1
600 200 2 4.0999999999999998e-01 -1.1483467477545233e+01 -8.0184384152170587e+00 6.8598139668436069e+00 -1 0 -2
1837 613 1 -8.1999999999999995e-01 -7.3880773822825940e+00 -9.0721214611201582e+00 7.5493648713299066e-01 5 -1 0
1284 428 2 4.0999999999999998e-01 -1.4133358148795741e+01 -1.2616401140518231e+01 2.4000927101360183e+00 1 3 3
1870 624 1 -8.1999999999999995e-01 -7.8964568343464361e+00 -9.0152220139007220e+00 6.7563486993307542e+00 1 1 0
2550 850 2 4.0999999999999998e-01 -7.6653892443859579e+00 -1.3375252112309957e+01 4.2083066169844052e-01 2 0 1
598 200 1 -8.1999999999999995e-01 -1.1092652503138424e+01 -8.6773905439386922e+00 6.2171729566765670e+00 -1 0 -2
599 200 2 4.0999999999999998e-01 -1.0953367050203152e+01 -9.5524964133880186e+00 6.6805637168605827e+00 -1 0 -2
1280 427 2 4.0999999999999998e-01 -1.2931024815166110e+01 -8.6664646667990368e+00 2.7815772031949564e+00 0 1 -1
2461 821 1 -8.1999999999999995e-01 -6.7190999816167611e+00 -1.4506012175019251e+01 6.4749753851970482e+00 3 3 2
1283 428 2 4.0999999999999998e-01 -1.3900441403901176e+01 -1.1627277446064312e+01 1.1218692276522404e+00 1 3 3