LAMMPS data file via write_data, version 15 May 2015, timestep = 23005000

2611 atoms
6 atom types
1749 bonds
4 bond types
894 angles
3 angle types
44 dihedrals
3 dihedral types
10 impropers
1 improper types

-1.4911326967527138e+01 1.4911326967527138e+01 xlo xhi
-1.4911326967527138e+01 1.4911326967527138e+01 ylo yhi
-1.4911326967527138e+01 1.4911326967527138e+01 zlo zhi

Masses

1 15.9994
2 1.00794
3 12.0107
4 1.00794
5 12.0107
6 12.0107

Bond Coeffs # harmonic

1 1000 1
2 469 1.4
3 367 1.08
4 469 0.7

Angle Coeffs # harmonic

1 100 109.47
2 35 120
3 63 120

Dihedral Coeffs # opls

1 0 7.25 0 0
2 0 7.25 0 0
3 0 7.25 0 0

Improper Coeffs # cvff

1 2.5 -1 2

Atoms # full

2195 732 2 4.0999999999999998e-01 -1.3692378783182258e+01 -1.4441089567984458e+01 -8.7944690344013505e+00 1 2 3
781 261 1 -8.1999999999999995e-01 -9.7462824572146971e+00 -9.8154757054155510e+00 -9.2577053012612751e+00 0 3 11
783 261 2 4.0999999999999998e-01 -9.2723309172433162e+00 -1.0685692499059083e+01 -9.1232620865386593e+00 0 3 11
223 75 1 -8.1999999999999995e-01 -1.4048949697964790e+01 -1.1943886837987167e+01 -9.0273455991965612e+00 8 3 3
225 75 2 4.0999999999999998e-01 -1.4123846763122323e+01 -1.2619590902398089e+01 -9.7606918392536315e+00 8 3 3
782 261 2 4.0999999999999998e-01 -9.1051025763370905e+00 -9.1393098687827123e+00 -9.6205694478603903e+00 0 3 11
310 104 1 -8.1999999999999995e-01 -1.3710846535250703e+01 -1.1464686652800184e+01 -1.3037771713479120e+01 -6 -1 0
312 104 2 4.0999999999999998e-01 -1.4651415205972489e+01 -1.1152028519988928e+01 -1.3170277312796207e+01 -6 -1 0
311 104 2 4.0999999999999998e-01 -1.3498480598342715e+01 -1.1477775151867247e+01 -1.2060678246552010e+01 -6 -1 0
747 249 2 4.0999999999999998e-01 -1.0981130352000342e+01 -1.3774211588142011e+01 -1.0633394036100984e+01 3 3 6
745 249 1 -8.1999999999999995e-01 -1.0338171606452391e+01 -1.3882558974168846e+01 -9.8752072841979910e+00 3 3 6
592 198 1 -8.1999999999999995e-01 -1.1645179003104341e+01 -1.3933843794704099e+01 -1.2234783494988324e+01 5 3 12
593 198 2 4.0999999999999998e-01 -1.1258177771447752e+01 -1.3145160053988215e+01 -1.2712476141080755e+01 5 3 12
224 75 2 4.0999999999999998e-01 -1.3083904368591210e+01 -1.1757551531836985e+01 -8.8430932974636640e+00 8 3 3
1516 506 1 -8.1999999999999995e-01 -1.1442915462925727e+01 -6.7006258684248614e+00 -7.9000557347944369e+00 2 0 1
699 233 2 4.0999999999999998e-01 -8.5696799899800862e+00 -7.4386668765502320e+00 -1.1671638014358296e+01 -3 3 4
1771 591 1 -8.1999999999999995e-01 -1.3457325958865379e+01 -7.3617241836236120e+00 -1.0486053146476170e+01 3 -1 5
1018 340 1 -8.1999999999999995e-01 -1.1560213201736643e+01 -1.1054700964058830e+01 -1.1318954447161934e+01 1 5 7
1020 340 2 4.0999999999999998e-01 -1.1476673744921701e+01 -1.0512499028628760e+01 -1.2155028890896856e+01 1 5 7
1019 340 2 4.0999999999999998e-01 -1.0920051123726431e+01 -1.0709660814976615e+01 -1.0632571123184009e+01 1 5 7
1976 659 2 4.0999999999999998e-01 -1.0379804949795098e+01 -5.6640600870683411e+00 -1.2077867624974749e+01 -2 2 5
1025 342 2 4.0999999999999998e-01 -1.3370697871675214e+01 -1.3592151819821474e+01 -1.1424391535826567e+01 -3 0 6
1975 659 1 -8.1999999999999995e-01 -1.0115337916760797e+01 -6.4986582063569855e+00 -1.2561070947948123e+01 -2 2 5
1773 591 2 4.0999999999999998e-01 -1.4013785994307591e+01 -7.5104688951571879e+00 -9.6686123284498287e+00 3 -1 5
1772 591 2 4.0999999999999998e-01 -1.2488565144987390e+01 -7.4181372624910589e+00 -1.0244594417370296e+01 3 -1 5
1977 659 2 4.0999999999999998e-01 -1.0379455896017657e+01 -6.4249465295788735e+00 -1.3522731262251995e+01 -2 2 5
1886 629 2 4.0999999999999998e-01 -1.0353896023024053e+01 -8.3233133455928581e+00 -1.2972540268688926e+01 4 -1 -5
2580 860 2 4.0999999999999998e-01 -9.3317230428348914e+00 -1.2677238783976113e+01 -9.0572882181905108e+00 -8 0 1
1885 629 1 -8.1999999999999995e-01 -1.0561387602904476e+01 -9.2780301416777320e+00 -1.3185719400605828e+01 4 -1 -5
697 233 1 -8.1999999999999995e-01 -8.1243922908764112e+00 -8.1850941690105472e+00 -1.1177120658163993e+01 -3 3 4
1200 400 2 4.0999999999999998e-01 -1.1162466671919782e+01 -1.0343888480299121e+01 -8.1499182227805704e+00 -5 1 12
698 233 2 4.0999999999999998e-01 -7.8284079977662957e+00 -8.8854060494137421e+00 -1.1826688871423416e+01 -3 3 4
1754 585 2 4.0999999999999998e-01 -1.4717134582135252e+01 -7.5354460899594269e+00 -1.2148361696111609e+01 2 2 0
1755 585 2 4.0999999999999998e-01 -1.4537123435485359e+01 -6.3622370439229350e+00 -1.3269858766897386e+01 2 2 0
1024 342 1 -8.1999999999999995e-01 -1.4194934255228512e+01 -1.3804272401863777e+01 -1.0899394839039740e+01 -3 0 6
1823 608 2 4.0999999999999998e-01 -7.5706047635193219e+00 -5.8529617097973290e+00 -8.8002339069921867e+00 5 -3 6
2578 860 1 -8.1999999999999995e-01 -8.5179026411260299e+00 -1.2142491922583821e+01 -8.8298580005346388e+00 -8 0 1
746 249 2 4.0999999999999998e-01 -1.0611009189681726e+01 -1.4665467575115485e+01 -9.3161041877472464e+00 3 3 6
2579 860 2 4.0999999999999998e-01 -7.7466836643290673e+00 -1.2457683031653584e+01 -9.3829024126414442e+00 -8 0 1
1198 400 1 -8.1999999999999995e-01 -1.1670654479946394e+01 -1.0923549011059720e+01 -7.5129558254578743e+00 -5 1 12
1026 342 2 4.0999999999999998e-01 -1.4493571747010479e+01 -1.4735211609322828e+01 -1.1109514068478417e+01 -3 0 6
594 198 2 4.0999999999999998e-01 -1.1181798618987989e+01 -1.4766871565248675e+01 -1.2536984882620505e+01 5 3 12
1043 348 2 4.0999999999999998e-01 -1.1802922526726420e+01 -9.5634224324185180e+00 -1.4420201046324703e+01 1 2 3
1887 629 2 4.0999999999999998e-01 -9.7262933678663650e+00 -9.7430083588112097e+00 -1.3479649933128350e+01 4 -1 -5
2471 824 2 4.0999999999999998e-01 -1.2892292348323782e+01 -7.7811137964998700e+00 -7.8123098229642540e+00 4 -1 3
1044 348 2 4.0999999999999998e-01 -1.3119780617482368e+01 -1.0523081522478314e+01 -1.4527524879795463e+01 1 2 3
1822 608 1 -8.1999999999999995e-01 -7.5158829302326415e+00 -5.7151300555974434e+00 -9.7891677804031794e+00 5 -3 6
1824 608 2 4.0999999999999998e-01 -7.8582240786237723e+00 -6.5290298210272404e+00 -1.0258584423919265e+01 5 -3 6
914 305 2 4.0999999999999998e-01 -7.9689306804549345e+00 -1.4569983474008628e+01 -7.5230313796985149e+00 -2 -4 2
809 270 2 4.0999999999999998e-01 -1.1296240863613310e+01 -5.5162718982915564e+00 -9.4030879367561688e+00 1 -2 2
2470 824 1 -8.1999999999999995e-01 -1.3855991087461526e+01 -7.9116541602115209e+00 -7.5794445488730267e+00 4 -1 3
1518 506 2 4.0999999999999998e-01 -1.0744725662826729e+01 -7.3132713469842834e+00 -7.5296791920829804e+00 2 0 1
958 320 1 -8.1999999999999995e-01 -6.7594683697073705e+00 -1.2600751821670864e+01 -1.2509514805201675e+01 3 -3 4
959 320 2 4.0999999999999998e-01 -7.2510341306651735e+00 -1.3466455115984425e+01 -1.2603871545168740e+01 3 -3 4
2121 707 2 4.0999999999999998e-01 -2.9693562477359201e+00 -1.4603916857397985e+01 -1.2015550479064984e+01 0 2 5
960 320 2 4.0999999999999998e-01 -5.9958343957105225e+00 -1.2579016235889334e+01 -1.3154784550126793e+01 3 -3 4
1271 424 2 4.0999999999999998e-01 -3.7373879694684948e+00 -5.2576706168874470e+00 -1.2995145841335527e+01 5 -2 8
1455 485 2 4.0999999999999998e-01 -1.2904444134851119e+00 -1.0635493724264748e+01 -1.2675903207413899e+01 -1 1 -3
1468 490 1 -8.1999999999999995e-01 -7.1161754981110192e+00 -6.0841465391724636e+00 -1.4721011576193897e+01 -1 3 11
1935 645 2 4.0999999999999998e-01 -4.4928966031527970e+00 -1.4894225869854878e+01 -1.3529349438373568e+01 0 -4 3
2120 707 2 4.0999999999999998e-01 -2.3295189834001970e+00 -1.3859448351576839e+01 -1.0710577652825515e+01 0 2 5
1632 544 2 4.0999999999999998e-01 -6.1560755449580427e+00 -1.4290899740352245e+01 -8.8770764239844002e+00 -5 -3 3
214 72 1 -8.1999999999999995e-01 -2.8252766179598563e+00 -6.4986742587264654e+00 -1.3889076099494234e+01 -1 1 5
404 135 2 4.0999999999999998e-01 -7.2556071247188214e-02 -9.1560241563217346e+00 -1.1169925785672188e+01 -4 8 4
78 26 2 4.0999999999999998e-01 -4.3630455671418691e+00 -7.0926938280587439e+00 -1.0228374431514892e+01 -1 3 3
1593 531 2 4.0999999999999998e-01 -7.3314634391946312e+00 -1.0896926043254183e+01 -1.2643506868282971e+01 -2 2 1
1591 531 1 -8.1999999999999995e-01 -7.4351437338781938e+00 -9.9873717165385081e+00 -1.3045929042277651e+01 -2 2 1
1592 531 2 4.0999999999999998e-01 -7.4357221731475915e+00 -1.0062181471712060e+01 -1.4043117827579305e+01 -2 2 1
1383 461 2 4.0999999999999998e-01 -6.0956323154791399e+00 -1.2623390336451768e+01 -1.0762337522692576e+01 -2 0 0
2462 821 2 4.0999999999999998e-01 -6.2211081705923110e+00 -9.2290740350285478e+00 -9.4937639190391891e+00 1 1 7
76 26 1 -8.1999999999999995e-01 -5.2112877398068402e+00 -7.1128311640089832e+00 -1.0757583288344321e+01 -1 3 3
2288 763 2 4.0999999999999998e-01 -4.0746968004294004e-01 -1.4003292819173900e+01 -1.1573627634015676e+01 -4 0 3
1470 490 2 4.0999999999999998e-01 -6.4773399552903825e+00 -6.7576565722678232e+00 -1.4349184138448560e+01 -1 3 11
2461 821 1 -8.1999999999999995e-01 -5.4224941778347731e+00 -9.4191473461704973e+00 -8.9227384560070107e+00 1 1 7
1811 604 2 4.0999999999999998e-01 -4.4216236028290101e+00 -8.5733427632717021e+00 -1.4612936606949013e+01 -2 3 2
216 72 2 4.0999999999999998e-01 -2.0023405400597269e+00 -6.9234836463167930e+00 -1.3511855381958240e+01 -1 1 5
1596 532 2 4.0999999999999998e-01 -4.0120377563466469e-01 -1.2065490117076578e+01 -1.3805213509806817e+01 3 -6 1
1004 335 2 4.0999999999999998e-01 -5.2754671233271111e+00 -7.5866134138780303e+00 -1.2388807722778107e+01 4 0 5
215 72 2 4.0999999999999998e-01 -3.5785261988748154e+00 -7.1561121571355581e+00 -1.3869768770263725e+01 -1 1 5
2206 736 1 -8.1999999999999995e-01 -4.1470232921387566e+00 -6.9149046396909677e+00 -7.8148623852943775e+00 -3 0 7
1933 645 1 -8.1999999999999995e-01 -4.8943330729616008e+00 -1.4230442982008105e+01 -1.4160398789960425e+01 0 -4 3
2463 821 2 4.0999999999999998e-01 -5.1218503119977647e+00 -8.5751599539236540e+00 -8.4785754278615517e+00 1 1 7
1453 485 1 -8.1999999999999995e-01 -1.4787339447227517e+00 -9.7438332681210262e+00 -1.2264234678348295e+01 -1 1 -3
77 26 2 4.0999999999999998e-01 -5.8847673643040359e+00 -6.5092272686241532e+00 -1.0330886923591244e+01 -1 3 3
1793 598 2 4.0999999999999998e-01 -3.7368574598306417e+00 -9.9612429527375408e+00 -9.5287128302486863e+00 4 -1 2
1381 461 1 -8.1999999999999995e-01 -5.8423766908346977e+00 -1.2909067324006909e+01 -9.8380905293556218e+00 -2 0 0
1382 461 2 4.0999999999999998e-01 -4.9865729378541737e+00 -1.2464033916234253e+01 -9.5744099270357204e+00 -2 0 0
590 197 2 4.0999999999999998e-01 -4.6162175762825797e-01 -8.6271087568916176e+00 -1.3345683431479875e+01 -3 8 0
589 197 1 -8.1999999999999995e-01 -1.2820510562775844e-01 -8.0095814018777318e+00 -1.4058056619066504e+01 -3 8 0
1794 598 2 4.0999999999999998e-01 -2.3691119912581797e+00 -9.5443048233602532e+00 -8.7400341249370221e+00 4 -1 2
1595 532 2 4.0999999999999998e-01 -1.5755853243595457e+00 -1.2802572948085047e+01 -1.2942591915448578e+01 3 -6 1
1003 335 1 -8.1999999999999995e-01 -5.1767547303154959e+00 -7.9341082612975047e+00 -1.3321269770072394e+01 4 0 5
134 45 2 4.0999999999999998e-01 -3.3211547901050533e+00 -1.3483279273171624e+01 -8.5650634393765799e+00 10 -2 1
133 45 1 -8.1999999999999995e-01 -2.9643032661522017e+00 -1.2983065618076351e+01 -9.3540029396517959e+00 10 -2 1
2208 736 2 4.0999999999999998e-01 -3.9683420157564839e+00 -6.0475198043727634e+00 -8.2792962585684418e+00 -3 0 7
135 45 2 4.0999999999999998e-01 -2.5223006993212316e+00 -1.2141671814888323e+01 -9.0430809439264621e+00 10 -2 1
1594 532 1 -8.1999999999999995e-01 -1.3889457622025869e+00 -1.2188979349321542e+01 -1.3709827755096860e+01 3 -6 1
1005 335 2 4.0999999999999998e-01 -5.6946558918225225e+00 -8.7841932212719627e+00 -1.3416748638566832e+01 4 0 5
1454 485 2 4.0999999999999998e-01 -2.2179097378361483e+00 -9.8342493201721233e+00 -1.1596831968976495e+01 -1 1 -3
1792 598 1 -8.1999999999999995e-01 -2.7378431991227128e+00 -9.9997957569286768e+00 -9.5503103538469603e+00 4 -1 2
2119 707 1 -8.1999999999999995e-01 -2.1406309578398250e+00 -1.4195019972718333e+01 -1.1633451033055845e+01 0 2 5
848 283 2 4.0999999999999998e-01 -1.1750486124105418e+01 -8.1439270732472782e+00 -9.3489186130118362e-01 -5 -3 7
849 283 2 4.0999999999999998e-01 -1.0383799496464800e+01 -7.4494742004704335e+00 -1.4974592412949264e+00 -5 -3 7
847 283 1 -8.1999999999999995e-01 -1.1245056557362329e+01 -7.8856402280926385e+00 -1.7581847099341719e+00 -5 -3 7
173 58 2 4.0999999999999998e-01 -1.1921587475914739e+01 -1.0902923579630489e+01 -2.3866958261749041e+00 -3 0 5
1160 387 2 4.0999999999999998e-01 -1.0379432230534093e+01 -1.4151029594967348e+01 -3.5376702040871049e+00 5 2 4
1199 400 2 4.0999999999999998e-01 -1.2115422335853234e+01 -1.0351423457261799e+01 -6.8238722550262700e+00 -5 1 12
172 58 1 -8.1999999999999995e-01 -1.2375819331937819e+01 -1.1030132824697311e+01 -1.5049512448295097e+00 -3 0 5
555 185 2 4.0999999999999998e-01 -8.5109468180898435e+00 -7.5803777952866538e+00 -6.6599113693614260e+00 6 -3 -1
2525 842 2 4.0999999999999998e-01 -8.5719428511802018e+00 -1.1046213592255123e+01 -5.0854256605613433e+00 -4 4 5
2524 842 1 -8.1999999999999995e-01 -8.1081426291367222e+00 -1.0521931220293553e+01 -5.7995682459085263e+00 -4 4 5
507 169 2 4.0999999999999998e-01 -1.0275328002349129e+01 -1.0910100449596239e+01 -2.4989705082897427e+00 0 2 5
505 169 1 -8.1999999999999995e-01 -9.5480223508440076e+00 -1.0732064331295224e+01 -1.8361644350284330e+00 0 2 5
1972 658 1 -8.1999999999999995e-01 -1.1032164665690914e+01 -1.3229034113004221e+01 -5.9646878306553717e+00 3 6 -3
506 169 2 4.0999999999999998e-01 -8.8615584731814927e+00 -1.1457083777724034e+01 -1.8918098260436178e+00 0 2 5
174 58 2 4.0999999999999998e-01 -1.1745081509599441e+01 -1.1469627226926058e+01 -8.6542273741568820e-01 -3 0 5
684 228 2 4.0999999999999998e-01 -1.0832950167110251e+01 -1.2195707878601002e+01 -4.6560786292573688e+00 -1 1 3
682 228 1 -8.1999999999999995e-01 -1.0915968087150681e+01 -1.1398331151103012e+01 -4.0583490313527850e+00 -1 1 3
683 228 2 4.0999999999999998e-01 -1.1434599236404800e+01 -1.0683128480062773e+01 -4.5268457190566522e+00 -1 1 3
175 59 1 -8.1999999999999995e-01 -9.5129318540866912e+00 -1.4407091593119318e+01 -4.0906141404997776e-01 2 2 11
553 185 1 -8.1999999999999995e-01 -9.3114856766321452e+00 -8.1407312120408495e+00 -6.4474873026668842e+00 6 -3 -1
554 185 2 4.0999999999999998e-01 -9.0358807841603550e+00 -9.0985728001146224e+00 -6.3664706146925969e+00 6 -3 -1
1973 658 2 4.0999999999999998e-01 -1.1087884584444177e+01 -1.2394414469509703e+01 -6.5126728939279648e+00 3 6 -3
1159 387 1 -8.1999999999999995e-01 -9.4683508666606588e+00 -1.4332650527906811e+01 -3.1676338033730893e+00 5 2 4
2250 750 2 4.0999999999999998e-01 -1.3839922118153206e+01 -9.5999859187511927e+00 -1.1657375720667726e+00 4 2 -1
1357 453 1 -8.1999999999999995e-01 -9.5239874712624317e+00 -6.9751359740080998e+00 -3.8809922015802290e+00 -3 -1 5
1359 453 2 4.0999999999999998e-01 -9.1865115866254428e+00 -7.5604167883546669e+00 -4.6182429987610529e+00 -3 -1 5
1358 453 2 4.0999999999999998e-01 -1.0196948674809310e+01 -7.4775214653460242e+00 -3.3381162349915972e+00 -3 -1 5
2472 824 2 4.0999999999999998e-01 -1.4090842877996632e+01 -7.3351387215632773e+00 -6.7968483133974065e+00 4 -1 3
2537 846 2 4.0999999999999998e-01 -1.3599052236184392e+01 -1.0166624447309470e+01 -4.9370786952640859e+00 0 5 1
176 59 2 4.0999999999999998e-01 -9.5099971784459871e+00 -1.4538107766185277e+01 -1.4004283624175606e+00 2 2 11
2536 846 1 -8.1999999999999995e-01 -1.2817646124168173e+01 -9.7065876051512632e+00 -5.3586861839592572e+00 0 5 1
2526 842 2 4.0999999999999998e-01 -7.7338111841423096e+00 -1.1148479919489663e+01 -6.4831581759688159e+00 -4 4 5
2538 846 2 4.0999999999999998e-01 -1.2935091530154551e+01 -8.7161645377286874e+00 -5.2862225550738646e+00 0 5 1
2031 677 2 4.0999999999999998e-01 -1.1842098169714403e+01 -5.6429824160576931e+00 -2.3489601408717959e+00 -1 1 3
1895 632 2 4.0999999999999998e-01 -1.4736369828733631e+01 -1.2511031009422563e+01 -6.0539438385329198e+00 1 0 1
1149 383 2 4.0999999999999998e-01 -8.0062809543239020e+00 -6.4642584194509283e+00 -1.0970147639293639e+00 5 1 0
1057 353 1 -8.1999999999999995e-01 -1.4711804969389197e+01 -1.1132105322686325e+01 -3.8206586733669763e+00 -1 5 5
231 77 2 4.0999999999999998e-01 -1.3496389508983853e+01 -5.7192048008823591e+00 -5.5090045322292642e+00 5 3 6
1147 383 1 -8.1999999999999995e-01 -7.6869780393258615e+00 -5.5403369920593715e+00 -8.8630855770540329e-01 5 1 0
177 59 2 4.0999999999999998e-01 -9.8986999573712637e+00 -1.3510279289927354e+01 -1.9251364855069930e-01 2 2 11
1974 658 2 4.0999999999999998e-01 -1.0384608477438903e+01 -1.3862867576199566e+01 -6.3876634530270984e+00 3 6 -3
321 107 2 4.0999999999999998e-01 -1.2935340295593313e+01 -1.3630418469027628e+01 -5.6293179008643399e+00 3 2 6
319 107 1 -8.1999999999999995e-01 -1.3760307797024115e+01 -1.3472003980529072e+01 -5.0868091268312572e+00 3 2 6
320 107 2 4.0999999999999998e-01 -1.3810379366302337e+01 -1.4147634180575881e+01 -4.3512828201809697e+00 3 2 6
1563 521 2 4.0999999999999998e-01 -1.4699168198031717e+01 -7.0109258935536269e+00 -4.0906118155097193e+00 0 2 4
1059 353 2 4.0999999999999998e-01 -1.4085223661275540e+01 -1.1863588669808731e+01 -3.5517529687706890e+00 -1 5 5
1161 387 2 4.0999999999999998e-01 -8.8204081911047645e+00 -1.4450621617819465e+01 -3.9201199549056032e+00 5 2 4
1517 506 2 4.0999999999999998e-01 -1.1789813448002148e+01 -6.1109804534837746e+00 -7.1706982447805565e+00 2 0 1
2590 864 1 -8.1999999999999995e-01 -8.4430812742596295e+00 -8.1629954760082217e+00 -1.2055209413410264e+00 0 -2 3
913 305 1 -8.1999999999999995e-01 -8.6327156044516933e+00 -1.4661375479978858e+01 -6.7807246115038797e+00 -2 -4 2
2592 864 2 4.0999999999999998e-01 -8.9770894310822875e+00 -8.9490490076829410e+00 -1.5168686431657399e+00 0 -2 3
1561 521 1 -8.1999999999999995e-01 -1.4567146851627385e+01 -7.0528520904938734e+00 -5.0809627098745409e+00 0 2 4
2493 831 2 4.0999999999999998e-01 -1.4431642025099871e+01 -6.7793793713661028e+00 -1.7317905713917607e+00 -3 4 5
2591 864 2 4.0999999999999998e-01 -7.5161907688875340e+00 -8.2218381797700921e+00 -1.5761876451876233e+00 0 -2 3
1353 451 2 4.0999999999999998e-01 -9.9591643164968975e+00 -5.4493193008483960e+00 -4.5985488586692487e+00 6 6 5
229 77 1 -8.1999999999999995e-01 -1.2801650544820243e+01 -5.2803637626639119e+00 -6.0788629608130975e+00 5 3 6
2248 750 1 -8.1999999999999995e-01 -1.4823303292392120e+01 -9.6712811305508950e+00 -1.3326531079012600e+00 4 2 -1
980 327 2 4.0999999999999998e-01 -1.0069218780979648e+01 -1.1319231060100979e+01 -6.4188116710713672e-02 -1 3 7
2528 843 2 4.0999999999999998e-01 -1.8729691234274277e+00 -5.0832805964286845e+00 -3.9089540868809785e+00 6 0 3
689 230 2 4.0999999999999998e-01 -6.5597730427614476e+00 -1.2394627444381138e+01 -1.1091817885614326e+00 0 -3 9
2102 701 2 4.0999999999999998e-01 -7.5955874855008787e-01 -1.0032031646041887e+01 -7.3175166354216934e+00 8 0 1
2207 736 2 4.0999999999999998e-01 -3.7908454201248425e+00 -6.8727328264209344e+00 -6.8814058340991480e+00 -3 0 7
690 230 2 4.0999999999999998e-01 -7.0143717061289053e+00 -1.3573565618270731e+01 -2.1436014486318058e+00 0 -3 9
1240 414 1 -8.1999999999999995e-01 -5.9865829627739444e+00 -5.4133568341823111e+00 -4.1900398050696559e+00 0 3 -3
688 230 1 -8.1999999999999995e-01 -7.2023200124563598e+00 -1.2641256322514703e+01 -1.8346401499847254e+00 0 -3 9
821 274 2 4.0999999999999998e-01 -1.9413809012563021e+00 -1.1768138569589770e+01 -4.7610940990416815e+00 -5 1 7
774 258 2 4.0999999999999998e-01 -2.8474935579273257e+00 -1.4272893567553865e+01 -6.1244669383907819e+00 8 7 4
2294 765 2 4.0999999999999998e-01 -7.2949171127771182e+00 -5.7908845158693865e+00 -6.4225506843482112e+00 2 4 3
2144 715 2 4.0999999999999998e-01 -5.5834321918154206e+00 -9.5707288116904223e+00 -7.8289008638242841e-01 1 1 1
2484 828 2 4.0999999999999998e-01 -4.7037969457505309e+00 -6.0891083070961329e+00 -4.7577050292708236e+00 2 7 2
1148 383 2 4.0999999999999998e-01 -6.6889371091238630e+00 -5.5118368664950737e+00 -9.4184521648312725e-01 5 1 0
2293 765 1 -8.1999999999999995e-01 -7.1281783058389934e+00 -6.6162646663421736e+00 -6.9619281583605384e+00 2 4 3
2482 828 1 -8.1999999999999995e-01 -4.0451037573947293e+00 -6.7551145434336828e+00 -5.1077639214392612e+00 2 7 2
1300 434 1 -8.1999999999999995e-01 -3.4589952477373132e-01 -1.3106473914928396e+01 -2.3515446957321018e+00 1 -3 7
951 317 2 4.0999999999999998e-01 -4.1233671654936170e+00 -1.0741154784312101e+01 -5.7578773041962350e-02 -3 -6 3
480 160 2 4.0999999999999998e-01 -4.4357474933878098e+00 -5.5136974762652464e+00 -1.4218200320012713e+00 5 3 9
1302 434 2 4.0999999999999998e-01 -8.7304911061542256e-01 -1.2954158330356840e+01 -1.5155449817123703e+00 1 -3 7
741 247 2 4.0999999999999998e-01 -5.1136375635100375e+00 -1.4099390234944574e+01 -2.0472284438235278e+00 1 6 7
2483 828 2 4.0999999999999998e-01 -4.5209682771596835e+00 -7.6025948886568031e+00 -5.3429495759805388e+00 2 7 2
950 317 2 4.0999999999999998e-01 -2.7083052993601378e+00 -1.1333492879109521e+01 -6.1732398153920975e-01 -3 -6 3
739 247 1 -8.1999999999999995e-01 -4.5046416394520286e+00 -1.3633963530744357e+01 -2.6894778103628081e+00 1 6 7
1242 414 2 4.0999999999999998e-01 -6.0022982531734979e+00 -5.2323602798783302e+00 -3.2066906662445742e+00 0 3 -3
1853 618 2 4.0999999999999998e-01 -3.5280472044749089e-01 -7.7296823178642970e+00 -2.2327858219122785e+00 -5 4 4
107 36 2 4.0999999999999998e-01 -5.4187632196946023e+00 -9.7744760330764819e+00 -5.1281335880087315e+00 0 0 9
2103 701 2 4.0999999999999998e-01 -1.6819236991166058e+00 -9.7482584451591094e+00 -6.0002107291641522e+00 8 0 1
2101 701 1 -8.1999999999999995e-01 -1.4125081417653558e+00 -9.4011197729991665e+00 -6.8984825634952838e+00 8 0 1
106 36 1 -8.1999999999999995e-01 -5.5267046524255399e+00 -8.8449374150982258e+00 -5.4806798482955035e+00 0 0 9
762 254 2 4.0999999999999998e-01 -6.3698137505020647e-01 -7.8239954497624780e+00 -6.6615168297687610e+00 0 -1 6
2003 668 2 4.0999999999999998e-01 -1.5537337842074042e+00 -9.3002518552608251e+00 -1.2649758328273641e+00 6 0 8
540 180 2 4.0999999999999998e-01 -1.0711002173911979e+00 -1.3554862722493560e+01 -3.9309651564135031e+00 1 2 -1
1398 466 2 4.0999999999999998e-01 -5.8461161366315135e+00 -1.1716969037994739e+01 -3.6215028029808920e+00 0 1 3
538 180 1 -8.1999999999999995e-01 -1.4533206158956418e+00 -1.3504975621273068e+01 -4.8536791501622982e+00 1 2 -1
740 247 2 4.0999999999999998e-01 -4.2390265356808321e+00 -1.2746307690927758e+01 -2.3133156384637346e+00 1 6 7
761 254 2 4.0999999999999998e-01 -4.3302088428166563e-01 -6.5921146207916870e+00 -5.6091628477314224e+00 0 -1 6
1397 466 2 4.0999999999999998e-01 -5.3681962110134975e+00 -1.1891459218149725e+01 -5.1731873776427690e+00 0 1 3
108 36 2 4.0999999999999998e-01 -6.4976923682325900e+00 -8.6066767896519512e+00 -5.5006064500389193e+00 0 0 9
772 258 1 -8.1999999999999995e-01 -2.9108291041851881e+00 -1.4685011219376824e+01 -7.0333838220694149e+00 8 7 4
648 216 2 4.0999999999999998e-01 -3.1721871087132332e+00 -7.5179492568526376e+00 -1.4397464058178340e+00 -1 1 1
1396 466 1 -8.1999999999999995e-01 -5.3208440021563490e+00 -1.1303870275042076e+01 -4.3654254786127549e+00 0 1 3
539 180 2 4.0999999999999998e-01 -7.1876885724213757e-01 -1.3606063886294244e+01 -5.5246465172038377e+00 1 2 -1
647 216 2 4.0999999999999998e-01 -2.8755505838362119e+00 -6.4888937082085203e+00 -2.0701343310866527e-01 -1 1 1
2002 668 1 -8.1999999999999995e-01 -2.0914737643285388e+00 -9.0245389841829304e+00 -2.0617195218540392e+00 6 0 8
646 216 1 -8.1999999999999995e-01 -3.5133964192000100e+00 -6.7209693928539664e+00 -9.4136745934296329e-01 -1 1 1
2529 843 2 4.0999999999999998e-01 -2.3017269178678692e+00 -6.3150927623039745e+00 -4.8914940724770961e+00 6 0 3
822 274 2 4.0999999999999998e-01 -3.2982675621781326e+00 -1.0899985687450647e+01 -4.4932353701970822e+00 -5 1 7
2527 843 1 -8.1999999999999995e-01 -1.5381535131744979e+00 -5.7555904887483909e+00 -4.5691663437281900e+00 6 0 3
1876 626 1 -8.1999999999999995e-01 -5.8060384022355507e+00 -8.6875486574997751e+00 -2.4175772993286628e+00 -6 11 9
1877 626 2 4.0999999999999998e-01 -5.3633691517140996e+00 -9.3003132317465607e+00 -3.0722113591108382e+00 -6 11 9
1878 626 2 4.0999999999999998e-01 -5.3138136451512779e+00 -7.8175291171984043e+00 -2.3899543316261393e+00 -6 11 9
820 274 1 -8.1999999999999995e-01 -2.2995333755944571e+00 -1.0864013928726482e+01 -4.5281397837528132e+00 -5 1 7
2295 765 2 4.0999999999999998e-01 -6.1434598831340672e+00 -6.7761922318948997e+00 -7.0307399209380712e+00 2 4 3
2004 668 2 4.0999999999999998e-01 -1.9679229880010478e+00 -9.6932834004195989e+00 -2.7948624255891090e+00 6 0 8
949 317 1 -8.1999999999999995e-01 -3.6204013028156421e+00 -1.1574753639450790e+01 -2.8587808651359836e-01 -3 -6 3
2143 715 1 -8.1999999999999995e-01 -6.0205348725156682e+00 -1.0086282021821653e+01 -4.5917584748922380e-02 1 1 1
2584 862 1 -8.1999999999999995e-01 -8.5546135539733825e+00 -1.3570078699521407e+01 4.8913100980069260e+00 2 -1 6
2586 862 2 4.0999999999999998e-01 -9.2556319002698064e+00 -1.3946601585805826e+01 4.2856814214682615e+00 2 -1 6
14 5 2 4.0999999999999998e-01 -9.5343987866227984e+00 -1.0306743238014491e+01 3.6325757806578203e+00 -1 -1 5
1821 607 2 4.0999999999999998e-01 -1.2295011162179730e+01 -1.3734049440311864e+01 6.1342321255852177e+00 3 7 2
767 256 2 4.0999999999999998e-01 -1.3741514350347988e+01 -1.1082070408772880e+01 2.3426188068493623e+00 1 4 0
2052 684 2 4.0999999999999998e-01 -8.5680679654065255e+00 -1.1669377306610702e+01 5.1366896608342572e+00 2 4 2
981 327 2 4.0999999999999998e-01 -1.0286178995487106e+01 -1.1793222647285180e+01 1.4833387497430266e+00 -1 3 7
1820 607 2 4.0999999999999998e-01 -1.2669703558366532e+01 -1.2514284042576516e+01 5.1152340276784187e+00 3 7 2
2050 684 1 -8.1999999999999995e-01 -8.8410875427263882e+00 -1.0713120381113125e+01 5.2416434596415833e+00 2 4 2
1819 607 1 -8.1999999999999995e-01 -1.2397797621819652e+01 -1.3474807904483878e+01 5.1739139164401990e+00 3 7 2
2051 684 2 4.0999999999999998e-01 -9.1892370011637574e+00 -1.0565570927639580e+01 6.1673883136964918e+00 2 4 2
1942 648 1 -8.1999999999999995e-01 -1.4873203639631965e+01 -1.4636255501748478e+01 5.0954688296413764e-01 4 -2 4
1197 399 2 4.0999999999999998e-01 -1.3488762352302780e+01 -9.4426523775900080e+00 5.0642968798041963e+00 -1 3 3
1196 399 2 4.0999999999999998e-01 -1.3818435282395907e+01 -8.8033770056064338e+00 3.5982743249526798e+00 -1 3 3
1195 399 1 -8.1999999999999995e-01 -1.3572226903040880e+01 -8.5925922476178869e+00 4.5442836077570234e+00 -1 3 3
2585 862 2 4.0999999999999998e-01 -7.9283074502528450e+00 -1.4298331582912008e+01 5.1694659220195156e+00 2 -1 6
43 15 1 -8.1999999999999995e-01 -1.3066803159849789e+01 -5.5233798864295416e+00 3.6762155048978684e-01 4 6 4
2400 800 2 4.0999999999999998e-01 -1.1151498083927862e+01 -7.9242476547534819e+00 1.0172417226887429e+00 3 0 3
2313 771 2 4.0999999999999998e-01 -8.9241689362972352e+00 -7.0459434870971114e+00 1.9071462511891539e+00 2 -3 1
1172 391 2 4.0999999999999998e-01 -1.0330841112064252e+01 -7.8002713768406888e+00 5.9797610314484793e+00 2 -1 -4
2399 800 2 4.0999999999999998e-01 -1.2416168327736457e+01 -8.9142139492451449e+00 1.3124625504126115e+00 3 0 3
13 5 1 -8.1999999999999995e-01 -9.7271273142690973e+00 -1.0118469997331196e+01 2.6695642728918685e+00 -1 -1 5
1342 448 1 -8.1999999999999995e-01 -1.4253498192629753e+01 -1.1296405591672102e+01 5.3694208703805337e+00 2 2 0
954 318 2 4.0999999999999998e-01 -8.4984931131385224e+00 -7.6066471414107006e+00 5.5764839069844179e+00 2 6 -1
794 265 2 4.0999999999999998e-01 -1.1871951538163426e+01 -6.8505416002034174e+00 3.4090082674160769e+00 5 2 4
793 265 1 -8.1999999999999995e-01 -1.1387569334506866e+01 -6.1791665763410464e+00 3.9699108505774987e+00 5 2 4
1343 448 2 4.0999999999999998e-01 -1.4082039072691860e+01 -1.1638284058343661e+01 4.4454602325547476e+00 2 2 0
952 318 1 -8.1999999999999995e-01 -9.0524739224747748e+00 -6.9499640106134439e+00 5.0647664322141210e+00 2 6 -1
15 5 2 4.0999999999999998e-01 -9.5458807842572959e+00 -9.1543444499114273e+00 2.4756728739842160e+00 -1 -1 5
1171 391 1 -8.1999999999999995e-01 -1.1174691959119688e+01 -7.6986883958220931e+00 6.5066186041666327e+00 2 -1 -4
795 265 2 4.0999999999999998e-01 -1.0525704044241369e+01 -6.5722290013414533e+00 4.2903362312208948e+00 5 2 4
953 318 2 4.0999999999999998e-01 -8.6513099079664251e+00 -6.0379008470346580e+00 5.1495632552299817e+00 2 6 -1
2311 771 1 -8.1999999999999995e-01 -9.5031801208335729e+00 -7.6117293161033075e+00 1.3201072418754514e+00 2 -3 1
768 256 2 4.0999999999999998e-01 -1.4252610939182153e+01 -1.2612037001801781e+01 2.0885283979483482e+00 1 4 0
1173 391 2 4.0999999999999998e-01 -1.1941252029996496e+01 -8.0707227647983135e+00 5.9832083134894241e+00 2 -1 -4
2398 800 1 -8.1999999999999995e-01 -1.2123449131636853e+01 -8.0815245649281753e+00 8.4243464020797454e-01 3 0 3
2312 771 2 4.0999999999999998e-01 -8.9557896772519410e+00 -7.9826800882366822e+00 5.6994624196059007e-01 2 -3 1
44 15 2 4.0999999999999998e-01 -1.2704006145833903e+01 -6.3499825154840348e+00 7.9784096500365465e-01 4 6 4
766 256 1 -8.1999999999999995e-01 -1.3929343905589258e+01 -1.1962933310100675e+01 2.7771104023101998e+00 1 4 0
979 327 1 -8.1999999999999995e-01 -1.0446734292516249e+01 -1.2032888469047675e+01 5.2586052699671093e-01 -1 3 7
74 25 2 4.0999999999999998e-01 -1.3641946227257492e+01 -1.4857083904757266e+01 4.1952020412743884e+00 -1 -3 6
326 109 2 4.0999999999999998e-01 -1.1241233151775379e+01 -1.3916844465104205e+01 3.9601513613874495e+00 -3 6 4
341 114 2 4.0999999999999998e-01 -1.4762025206511201e+01 -5.2936877214988129e+00 3.6862390566238368e-01 -1 7 -6
327 109 2 4.0999999999999998e-01 -1.1108964281793092e+01 -1.4786724952605663e+01 2.5845089419333505e+00 -3 6 4
1903 635 1 -8.1999999999999995e-01 -1.4760914296784131e+01 -8.9702793623714498e+00 2.0759154318297455e+00 2 -4 3