2611
Atoms. Timestep: 23000000
O 12.1453 -10.6318 12.9862
H 11.4062 -11.2579 12.7377
H 12.7259 -10.4683 12.1886
O 4.32748 -8.76828 10.2484
H 5.30075 -8.53892 10.2605
H 3.91332 -8.41959 9.40765
O 9.98266 2.09047 -1.64023
H 10.1583 3.02357 -1.95406
H 10.8492 1.64772 -1.40971
O 9.33607 9.65941 9.48005
H 9.46997 9.58913 10.4685
H 8.68556 8.96113 9.18132
O -11.1436 -7.63171 1.7727
H -10.8506 -8.46578 2.24011
H -10.3889 -6.97584 1.75685
O -1.86127 8.87749 -8.44971
H -2.68992 9.34943 -8.14868
H -1.5989 9.20976 -9.35566
O -5.25807 6.64722 4.33983
H -5.24782 5.92486 3.64839
H -4.39151 6.64325 4.83888
O -5.55011 1.06608 -13.499
H -5.95501 0.824461 -12.6171
H -5.5538 0.265375 -14.098
O -3.38229 2.0224 -11.9995
H -3.28351 1.42951 -11.2003
H -4.01644 1.60316 -12.6492
O -8.64865 6.30139 0.985508
H -8.41162 6.81117 1.81252
H -8.63568 5.32117 1.18298
O -3.87762 10.736 -7.54752
H -3.71862 11.0135 -6.60004
H -3.55335 11.4536 -8.16389
O -8.58183 0.943413 -8.52778
H -8.87066 0.075409 -8.9317
H -8.01655 1.4443 -9.18319
O 8.65792 -2.96631 10.9442
H 7.73943 -3.00435 11.3378
H 9.17161 -2.22041 11.3681
O 7.27039 -9.5064 -5.03841
H 7.11142 -8.76108 -4.39093
H 8.07495 -9.29868 -5.59477
O -14.2098 -5.85673 -1.03274
H -13.6583 -6.69029 -1.06461
H -14.4719 -5.66643 -0.0866438
O -14.6003 4.017 6.86831
H -14.5861 3.86505 7.8566
H -14.6903 4.99552 6.68279
O -13.4046 8.96246 10.2508
H -13.4362 8.77595 9.26883
H -13.3557 8.09891 10.7527
O 9.12733 -2.53686 0.0382573
H 9.39996 -2.92902 0.916828
H 8.62696 -1.68522 0.19428
O -9.98265 3.11307 -14.7334
H -9.22424 2.4629 -14.7792
H -10.843 2.63445 -14.9085
O -4.35917 7.9359 8.92416
H -4.33998 7.7057 9.89711
H -3.60992 7.46748 8.45597
O -14.0844 14.3507 -0.734279
H -13.1555 14.5617 -0.42986
H -14.1955 13.3592 -0.802772
O -6.67489 -2.96319 -13.7416
H -6.41159 -3.24172 -12.818
H -7.45123 -3.51436 -14.0474
O -0.287249 9.0808 6.93978
H -0.0832272 9.98997 6.57674
H 0.412924 8.43527 6.63475
O -10.8151 -3.08661 1.32438
H -10.9119 -2.50409 2.13141
H -11.693 -3.51841 1.11773
O -14.4925 14.1802 2.19593
H -14.4634 14.2243 1.19732
H -13.6751 13.713 2.53293
O -3.47959 -6.00384 -9.14074
H -2.97134 -5.19851 -8.83558
H -4.00033 -6.37956 -8.37414
O 10.7194 -1.95266 -14.8226
H 9.95629 -2.42288 -14.3793
H 10.482 -1.75526 14.1531
O -10.6341 -1.29189 3.93613
H -10.4124 -1.41517 4.90342
H -9.92405 -0.739703 3.49916
O 1.90889 -9.85473 -5.25295
H 2.16736 -9.46014 -6.1347
H 1.62386 -9.12472 -4.63179
O 9.53538 12.4314 -13.0659
H 10.1083 11.9261 -12.4206
H 9.5841 13.4088 -12.8603
O 2.48021 -2.42255 7.52996
H 1.725 -2.85975 8.01834
H 3.30638 -2.97729 7.62842
O 10.5381 -10.6344 -11.8402
H 10.5753 -9.74149 -12.2889
H 9.62929 -10.7718 -11.4463
O -10.9619 -4.84642 4.64745
H -11.1494 -3.86487 4.68473
H -11.39 -5.23681 3.83235
O 14.3853 9.01243 -8.21861
H 13.5699 9.54109 -7.98259
H -14.7241 9.52819 -7.96214
O 10.7653 -11.9977 -3.18624
H 11.3627 -11.4727 -3.79243
H 9.81079 -11.7737 -3.38315
O -7.47072 -10.0502 -4.45244
H -7.81191 -10.0175 -5.39187
H -7.17904 -9.13584 -4.17174
O 4.58738 12.2922 10.7352
H 5.34778 12.3531 11.3817
H 3.82135 11.8147 11.1655
O 4.87935 -3.1264 8.82001
H 5.26917 -2.2819 9.18724
H 5.52627 -3.54154 8.18036
O 12.1448 -2.30265 7.57035
H 11.1538 -2.33111 7.43916
H 12.5564 -1.71428 6.87435
O 5.56304 14.4513 -5.08256
H 6.42087 14.9338 -4.90549
H 5.75697 13.5836 -5.5402
O 3.60151 10.9137 7.8744
H 3.4508 11.0887 6.90142
H 3.16684 11.6348 8.41395
O -8.7555 2.686 9.48881
H -9.20825 3.20876 10.2111
H -7.87271 2.35389 9.82105
O -7.96306 -4.40941 4.58754
H -8.94785 -4.56593 4.66299
H -7.63973 -3.92293 5.3992
O -6.95284 -5.17657 2.21291
H -6.08468 -4.78642 1.9062
H -7.17391 -4.82412 3.12226
O -3.44589 -12.6707 -11.9443
H -4.35908 -12.2769 -12.0491
H -3.05605 -12.3805 -11.0703
O 11.0721 6.64412 7.21078
H 10.5528 7.04299 6.45495
H 10.8509 5.67219 7.29083
O -5.63298 -6.24681 12.1526
H -4.66543 -6.17181 11.9113
H -6.19186 -6.11507 11.3339
O -4.22483 -4.36779 1.8769
H -3.30038 -4.64424 1.61427
H -4.36751 -3.40832 1.63385
O 1.24394 5.99861 -2.32525
H 0.36711 6.23989 -1.90937
H 1.82371 5.55082 -1.64455
O -12.4188 11.1177 13.5884
H -11.5487 10.9447 13.127
H -13.1729 10.9326 12.9582
O 9.80307 7.08593 11.3869
H 10.0498 6.11974 11.4618
H 9.31002 7.36878 12.2097
O -2.68481 -6.64707 8.19069
H -2.57164 -6.10887 7.35551
H -2.26335 -7.54556 8.06789
O 1.7274 -10.8288 9.2854
H 1.02202 -11.4729 8.98941
H 1.43479 -10.3785 10.129
O -6.36008 6.96087 -0.454623
H -7.00195 6.41174 0.080592
H -6.34666 6.63186 -1.39885
O -4.2756 7.48312 -12.352
H -4.46366 8.29446 -12.9055
H -3.39692 7.09059 -12.6237
O -3.00672 -2.50449 -0.666447
H -3.38375 -2.28515 -1.5663
H -3.52253 -2.01793 0.0386816
O -6.88608 5.81336 10.8481
H -6.16854 5.49889 10.2266
H -7.61786 6.24536 10.3209
O -11.0956 -10.4633 -2.51149
H -10.8591 -9.68475 -1.93015
H -11.9702 -10.847 -2.21522
O -9.69606 -14.9398 -2.09334
H -10.2895 -14.7677 -2.8796
H -10.0135 -14.4023 -1.31213
O 10.3369 -6.16254 -8.12449
H 11.3171 -6.36038 -8.13302
H 9.87222 -6.75168 -8.78551
O 13.5224 13.2495 3.73885
H 14.3822 13.4508 3.2697
H 13.4894 13.7503 4.60382
O -9.23 2.28066 -6.02644
H -8.9664 2.03486 -6.95923
H -9.98693 1.69847 -5.7296
O -8.54986 5.29814 4.42354
H -9.24685 4.68536 4.79597
H -7.68304 4.8063 4.34156
O 11.4572 6.45335 -13.8037
H 11.7922 6.29059 -12.8757
H 11.2551 7.42586 -13.9194
O 7.48515 -13.3774 12.4739
H 8.33639 -13.1455 12.9447
H 7.04214 -12.5397 12.1544
O 7.28949 0.0725996 2.20878
H 7.37541 0.389601 1.26426
H 7.17356 -0.920617 2.21778
O 5.06004 4.36876 -13.2822
H 4.75556 4.87886 -14.0866
H 5.28304 5.00844 -12.5466
O -6.61832 1.57221 -10.8398
H -6.06882 1.21237 -10.0857
H -6.74061 2.55773 -10.7224
O -7.49752 -2.1483 1.854
H -8.23792 -1.48297 1.9496
H -7.72965 -2.80442 1.13594
O 12.9809 -2.8123 2.02317
H 13.603 -3.22607 1.35849
H 13.3996 -1.98744 2.40302
O 6.74646 12.3404 12.3457
H 7.69636 12.5433 12.108
H 6.55756 12.6672 13.2717
O -4.83187 -2.58629 -11.6068
H -4.11599 -3.02216 -11.0614
H -4.41691 -2.11078 -12.3825
O -6.71146 -1.23554 -3.22225
H -7.24239 -1.81726 -3.83847
H -6.36916 -0.442012 -3.72538
O 2.38206 -8.46927 7.75091
H 2.208 -9.39137 8.0965
H 1.5964 -7.88417 7.95192
O -12.99 -9.86294 -12.0377
H -12.6675 -9.25623 -12.7642
H -12.4876 -9.67008 -11.1948
O -7.11222 -10.5177 -0.221737
H -6.969 -11.4457 -0.565684
H -6.29694 -9.96669 -0.399841
O -11.4544 -1.28227 -7.45068
H -12.2739 -0.721622 -7.56927
H -10.8841 -1.21641 -8.2695
O 5.02589 -13.833 1.37058
H 5.37463 -14.3536 2.1499
H 5.35034 -14.2479 0.520524
O -9.38549 11.9357 -3.86009
H -9.3668 12.9309 -3.95663
H -8.84614 11.6681 -3.06166
O 3.113 13.2332 -7.75983
H 2.28578 12.6957 -7.59603
H 2.97834 14.1641 -7.42022
O -9.01339 0.871747 5.25894
H -8.48327 0.979785 6.09996
H -9.75704 1.54017 5.2455
O -9.52135 -2.77857 6.35787
H -8.6257 -2.71731 6.79839
H -10.2318 -2.85971 7.05694
O -5.61735 4.34767 -7.04648
H -5.22843 4.20156 -7.95609
H -6.35388 5.02169 -7.10322
O 8.66988 11.1321 6.36364
H 7.83083 11.666 6.46792
H 9.33434 11.417 7.0545
O 8.72255 -5.62885 7.83303
H 8.9588 -5.64305 8.80462
H 9.44006 -6.08751 7.30881
O -8.08952 -14.0432 5.88619
H -7.23204 -14.1533 6.38881
H -8.68629 -14.8243 6.07014
O -0.344468 1.01031 -9.44996
H -1.08482 1.29495 -8.84098
H -0.187659 1.71896 -10.1379
O -6.14396 6.0162 -2.86709
H -6.67371 5.33001 -3.3656
H -5.17589 5.766 -2.88281
O -0.13707 -7.30466 5.11472
H -0.665897 -6.56603 4.69666
H -0.715919 -8.11399 5.2143
O -12.4224 11.8423 -5.58878
H -12.7095 12.7727 -5.81663
H -12.4175 11.7289 -4.59525
O 2.8942 11.5668 -3.89523
H 2.07486 12.136 -3.96398
H 2.63636 10.645 -3.60586
O 12.5742 -1.28664 9.99527
H 12.2062 -1.74064 9.18386
H 12.7133 -1.96111 10.7204
O 14.827 5.21468 -12.0179
H -14.5831 6.04706 -12.2181
H 13.8736 5.45125 -11.8304
O -5.98521 -14.1825 7.80368
H -5.01148 -14.4019 7.86484
H -6.17583 -13.3598 8.33922
O -5.93489 3.46106 6.7244
H -6.6742 4.05407 7.04341
H -5.99206 3.36215 5.73095
O -7.18577 10.0946 -6.93959
H -6.85465 11.0296 -7.06673
H -8.15815 10.1141 -6.70703
O 9.28949 -10.1516 5.13585
H 9.10205 -9.73713 6.02638
H 8.87567 -9.59509 4.41542
O 0.259931 -10.8516 6.34331
H 1.12187 -10.3767 6.1656
H 0.0606587 -11.4748 5.58709
O -1.02 13.17 2.49783
H -1.69633 13.8547 2.22621
H -0.10676 13.4807 2.23433
O -9.76595 10.8851 -6.19496
H -9.53059 11.4234 -5.38579
H -10.7592 10.7833 -6.25029
O 6.716 -5.57769 3.14048
H 7.07635 -6.25315 2.49713
H 5.83469 -5.89117 3.49406
O -1.71791 10.5451 -14.034
H -0.752246 10.4426 -14.2727
H -2.2776 10.023 -14.6775
O -7.01061 -11.9187 9.04335
H -7.30553 -11.7631 9.98613
H -7.81195 -11.9669 8.44708
O -10.5852 -12.5434 -12.8879
H -10.2485 -11.6045 -12.9592
H -11.4812 -12.6104 -13.3268
O -10.5136 9.57102 -2.2562
H -10.89 9.45397 -1.33716
H -10.9215 8.8967 -2.87178
O -1.51446 0.268408 -4.73577
H -0.879679 -0.475819 -4.94357
H -1.25422 0.696605 -3.87037
O -11.7207 -12.63 -8.21374
H -11.8345 -13.0933 -9.09257
H -12.1392 -11.7229 -8.25852
O -3.39615 -8.62091 13.2954
H -3.73113 -9.4453 12.8392
H -3.2083 -8.8247 14.2563
O -9.03768 14.9433 3.5747
H -9.85612 -14.4256 3.4371
H -8.51513 -14.6237 4.34768
O -3.58751 2.06783 4.02739
H -2.78808 2.23075 4.60564
H -3.7462 2.86555 3.44561
O -5.46317 -9.71672 2.91024
H -5.06916 -9.79701 3.82584
H -6.34378 -9.24623 2.96641
O -12.9534 5.8651 -7.75983
H -12.3708 6.66293 -7.60477
H -12.8912 5.58822 -8.71872
O 13.0216 0.0947939 -2.01229
H 13.8953 -0.232837 -2.37209
H 12.4873 0.501223 -2.75343
O 14.7756 -10.2134 -0.404918
H 14.6002 -10.3604 0.568544
H 13.9198 -9.9795 -0.86623
O -12.45 4.97732 13.4224
H -11.7741 5.41111 14.0182
H -13.2888 4.80596 13.9392
O -13.1848 -6.47525 -11.3263
H -12.5439 -6.71816 -10.5981
H -13.9446 -5.95183 -10.9406
O -3.65182 14.0027 6.31652
H -3.10138 13.2167 6.59807
H -4.4865 13.6819 5.86889
O -12.6701 -5.51517 12.6613
H -11.7922 -5.81999 13.0304
H -12.69 -4.51584 12.6308
O -6.38812 -8.98047 -13.7089
H -6.44658 -8.02186 -13.9876
H -5.89851 -9.50155 -14.408
O 13.0493 9.96985 -11.0351
H 13.4385 9.34049 -10.3625
H 13.7866 10.39 -11.5641
O -11.266 7.86074 -7.44376
H -10.6401 8.18907 -8.15119
H -10.7689 7.75317 -6.58275
O 10.2187 -3.54759 2.33224
H 11.2095 -3.65434 2.24926
H 9.89772 -4.03517 3.1442
O 9.84743 3.74615 14.4028
H 9.23151 4.14186 -14.8429
H 10.6767 4.30161 14.3406
O 9.29358 0.0711017 6.65313
H 9.73904 -0.476978 5.9452
H 9.12288 -0.498231 7.45732
O 12.3636 4.64135 13.876
H 12.2737 4.93406 14.828
H 13.079 5.17791 13.4285
O 12.3376 -6.38381 3.4109
H 12.3229 -5.67972 4.12087
H 11.401 -6.59435 3.13079
O -3.55221 -6.81223 -13.0491
H -2.79497 -6.16621 -12.9529
H -3.78386 -7.19018 -12.1528
O -11.9189 11.4943 10.0215
H -12.3202 10.6052 9.801
H -11.2655 11.3884 10.771
O 10.1263 11.4908 -8.45318
H 10.7319 11.0673 -7.7795
H 9.46726 12.0796 -7.98529
O 3.55773 -3.4816 3.56586
H 2.96828 -2.68102 3.67367
H 4.43853 -3.30879 4.00667
O -12.0182 6.43782 -0.0169083
H -11.6097 6.0461 0.807491
H -12.2068 5.70832 -0.674373
O -13.4915 13.9447 9.99514
H -13.1419 14.4406 10.7901
H -13.1514 13.0045 10.0127
O 4.86565 10.7726 -11.2261
H 5.73625 11.0984 -11.5948
H 5.02189 9.94908 -10.6807
O 3.30653 -8.19337 -1.95747
H 2.35636 -7.92909 -1.79217
H 3.51893 -8.08361 -2.92847
O 1.15901 -7.88881 -12.1375
H 0.348658 -8.27845 -11.6999
H 1.47061 -8.49925 -12.8657
O -2.06988 7.07836 7.698
H -1.98315 6.97523 8.68888
H -1.47369 7.81828 7.38644
O 10.5015 2.27212 -11.5255
H 10.3685 3.22483 -11.2523
H 10.195 2.15021 -12.4695
O 7.86199 -1.60083 -11.2919
H 8.3692 -0.742597 -11.2134
H 8.04079 -2.16843 -10.4883
O 1.24828 11.1591 5.93753
H 0.543589 11.1449 5.22816
H 2.11683 11.4533 5.53871
O -1.48104 -1.10007 10.6999
H -0.713391 -0.507184 10.4566
H -1.34863 -1.45368 11.6259
O 1.61398 -1.17942 -14.0711
H 1.05946 -0.433949 -14.4409
H 2.19979 -0.828393 -13.3406
O 0.425049 14.3002 -4.5514
H -0.432148 14.7422 -4.28702
H 1.17338 14.6668 -3.99853
O -14.8988 11.0534 -12.4323
H -14.2253 10.7046 -13.084
H 14.3554 11.6136 -12.9158
O 8.07171 14.8272 -2.41806
H 8.01449 -14.7559 -3.35541
H 8.5222 13.9345 -2.41731
O -3.51876 14.1838 9.80386
H -4.39343 13.7173 9.67215
H -3.0377 13.777 10.5805
O 6.32415 -8.1601 -14.2918
H 5.79231 -8.97653 -14.0669
H 5.70587 -7.38508 -14.4225
O -13.1771 9.94848 -7.49082
H -12.4881 9.22842 -7.40859
H -12.996 10.6619 -6.81391
O 12.8884 -4.60575 -7.63641
H 13.1306 -5.15446 -6.83626
H 13.3432 -4.9776 -8.44566
O 11.2571 5.69067 3.00084
H 12.0287 6.00138 3.55584
H 11.2774 4.69335 2.93043
O 2.3636 -2.2842 -7.92035
H 2.34879 -1.84587 -8.81904
H 2.90832 -1.73207 -7.28914
O -2.5449 -0.545168 7.28111
H -2.69923 -1.45785 7.65951
H -1.84502 -0.593758 6.56851
O 3.15775 -12.5212 5.2607
H 2.67643 -11.6504 5.36086
H 2.49235 -13.266 5.21103
O 8.53707 -11.2675 1.13146
H 8.81791 -12.0151 0.529579
H 8.23279 -11.6414 2.00762
O -0.876609 10.8583 3.97737
H -0.71386 11.5338 3.25814
H -0.436295 9.99527 3.72991
O -12.9362 0.577615 4.01854
H -12.5873 0.612438 3.082
H -12.76 -0.327101 4.40642
O -11.6761 -10.6084 6.8261
H -12.4623 -10.8311 7.40248
H -11.9796 -10.064 6.04408
O -6.34672 5.64942 -12.5039
H -5.54333 6.21892 -12.33
H -7.16461 6.22441 -12.5251
O 7.08096 -14.4687 -10.1871
H 7.94057 -14.8635 -9.86283
H 6.38419 14.7428 -10.2391
O 9.52928 -14.6373 -12.3568
H 9.58619 -13.7726 -12.8559
H 9.67728 -14.4699 -11.3821
O -6.76065 -2.83051 -0.957298
H -5.82998 -3.12334 -0.737981
H -6.72863 -2.10682 -1.64668
O -13.1254 9.51182 -13.9152
H -12.6959 9.81997 -14.7641
H -12.5016 9.6696 -13.1497
O -0.146996 -8.24342 9.41811
H -0.650358 -8.48444 8.58833
H 0.0905291 -7.27235 9.39366
O 11.1819 -13.4058 3.463
H 11.8676 -13.1528 2.7805
H 10.3076 -12.9795 3.23103
O -2.102 -4.1665 6.52693
H -1.90706 -4.38468 5.57069
H -3.0686 -3.92946 6.62436
O 10.8635 -10.1515 2.1279
H 9.96874 -10.4437 1.79014
H 10.7741 -9.26748 2.58667
O -10.3582 -6.48149 13.411
H -10.3 -7.41038 13.0453
H -9.49074 -6.23951 13.8458
O 11.0876 7.64307 1.23782
H 11.1726 6.79223 1.75634
H 10.1551 7.72779 0.886827
O 7.91534 -12.8385 7.08738
H 8.35458 -12.6903 7.97344
H 7.20421 -12.1493 6.94846
O -9.3156 -12.2258 -3.6886
H -9.95925 -11.8618 -3.01534
H -8.74422 -11.4835 -4.03866
O 14.1191 -3.87962 9.08506
H 13.8796 -3.56744 10.0044
H 13.541 -3.41527 8.41416
O 9.3158 14.1262 11.6181
H 9.25086 13.6429 10.7451
H 8.83999 -14.9238 11.5499
O 9.70028 8.45454 5.43233
H 10.4343 8.8965 4.91664
H 9.26697 9.12401 6.0357
O -12.3263 4.72954 2.49533
H -13.0348 4.25639 3.01895
H -11.7827 4.05994 1.98924
O 3.15095 -5.54045 -7.78922
H 2.4728 -5.85471 -8.45357
H 3.23144 -4.54502 -7.84054
O -14.1244 6.73093 2.85835
H -13.5594 5.90891 2.78733
H -13.5457 7.51472 3.08366
O 11.0795 6.75906 -8.36928
H 10.6816 6.77155 -7.45196
H 10.7819 7.57014 -8.87281
O 2.94149 8.47035 -2.40669
H 2.09552 7.93883 -2.36396
H 3.71828 7.87837 -2.19187
O -1.68322 11.3392 -1.96134
H -2.50697 11.8192 -1.65952
H -1.84783 10.9253 -2.85662
O 12.9861 13.1713 -4.32331
H 12.9691 12.7945 -3.39717
H 13.2527 14.1344 -4.28647
O -0.407745 -14.2096 -7.77661
H 0.0293458 -13.3102 -7.77617
H -0.076589 -14.7415 -6.99724
O 7.52848 9.17223 -14.3328
H 7.44429 10.136 -14.0798
H 8.15321 8.7148 -13.7
O -14.6276 -6.00915 14.3677
H -13.8579 -6.00756 13.7293
H 14.9202 -5.08623 14.4351
O 10.1702 9.40018 -3.99319
H 10.4855 9.64836 -3.07721
H 10.6688 8.5933 -4.31004
O 11.9367 -4.41312 14.8648
H 12.1912 -4.83825 -14.1935
H 11.5231 -3.5196 -14.8873
O -9.37236 -6.36351 -6.27469
H -8.99646 -7.28572 -6.36545
H -9.99287 -6.33212 -5.49112
O 0.839812 -14.6127 -14.5297
H 1.77937 -14.5894 -14.1881
H 0.206441 -14.4411 -13.7751
O 7.70632 -9.01543 -0.685504
H 7.97744 -9.86666 -0.236158
H 7.2911 -8.40166 -0.0140345
O -7.56794 -7.91682 2.90738
H -7.89248 -8.16637 3.81974
H -7.6674 -6.93042 2.77647
O 6.88639 -6.07977 -6.42078
H 6.73346 -7.06143 -6.30694
H 6.67867 -5.81714 -7.36305
O 9.69514 -2.7996 6.82303
H 9.16646 -3.49274 6.33308
H 9.13022 -2.39691 7.54324
O -5.6256 12.1765 13.179
H -5.61818 12.1027 12.1817
H -5.50673 13.1336 13.4432
O 2.45065 -5.01534 -4.97589
H 1.76264 -5.41338 -4.36909
H 2.47482 -5.52806 -5.8341
O 6.92516 -0.444995 -8.02742
H 6.90768 0.369889 -8.60678
H 7.78333 -0.937827 -8.17118
O 3.33812 8.4757 -5.73819
H 4.08062 7.85037 -5.49809
H 3.19974 9.1299 -4.99464
O 7.75556 -0.0141446 -5.24724
H 7.63809 -0.117863 -6.23488
H 8.65988 -0.34872 -4.98217
O -14.7743 6.94756 -6.04309
H -14.1235 6.75819 -6.7783
H -14.5778 7.8444 -5.64678
O -1.36208 -5.27809 -12.2231
H -1.0558 -6.06553 -11.6881
H -1.08474 -4.43453 -11.7632
O -12.3578 -13.8322 -10.6499
H -13.2438 -14.279 -10.5254
H -12.3429 -13.3617 -11.5322
O -1.35432 2.98768 5.51146
H -0.511334 3.48799 5.70913
H -1.3106 2.08157 5.93224
O -0.936881 7.84833 12.8847
H -1.3571 7.27323 13.5866
H -1.04817 7.41669 11.9895
O 7.63394 -1.88699 14.1988
H 7.32943 -0.935374 14.1576
H 7.1598 -2.41931 13.4975
O -11.3045 13.3605 -0.27996
H -11.0135 13.7614 -1.1486
H -10.5953 12.7402 0.055101
O 5.00383 -5.17361 12.6756
H 4.51554 -5.74832 13.3323
H 5.93106 -5.52607 12.549
O 14.3239 6.87819 12.4767
H -14.6799 6.92821 12.0953
H 13.7391 7.55102 12.0236
O 1.44961 4.11978 -6.9473
H 0.980711 4.97514 -7.16751
H 1.97778 4.23618 -6.10618
O 13.5528 -2.10478 -10.5314
H 13.4321 -1.11278 -10.5685
H 12.6801 -2.5386 -10.3075
O 1.83632 -12.5059 -7.52616
H 2.22776 -12.228 -8.4034
H 2.54459 -12.9361 -6.96645
O 4.17547 2.25493 8.97535
H 3.55654 2.86115 9.47478
H 4.89788 2.79667 8.54565
O 6.12927 -6.17894 -9.15597
H 5.46056 -6.88992 -8.93838
H 5.70585 -5.49298 -9.74772
O 12.0514 14.2983 -9.33645
H 12.6911 13.6034 -9.00798
H 11.8317 14.1221 -10.296
O -8.22234 11.9475 -9.90946
H -7.93317 12.8579 -9.61368
H -9.21948 11.8845 -9.86773
O 12.7026 -8.87627 -1.83319
H 11.8034 -9.13541 -2.18563
H 12.6616 -7.94696 -1.46618
O 13.9294 13.3842 9.01828
H 14.8421 13.3995 9.4267
H 13.7833 12.5068 8.56135
O 1.37552 -7.01067 -9.29182
H 0.69155 -6.33203 -9.02421
H 1.08798 -7.45756 -10.1389
O 3.61693 -8.16157 0.807599
H 3.78897 -8.45613 -0.132419
H 3.06463 -8.85051 1.27698
O -4.41064 -3.88786 -3.5872
H -4.36071 -4.50344 -2.80071
H -5.24733 -4.07287 -4.10269
O 3.04322 -6.17879 -12.8991
H 2.37938 -6.83305 -12.5368
H 2.5827 -5.3148 -13.1027
O -7.31367 1.35564 2.86478
H -6.66362 0.789899 3.37209
H -7.97635 0.767565 2.40108
O 8.30001 -2.94493 -13.5961
H 8.13092 -2.47496 -12.7297
H 8.01501 -2.35872 -14.3544
O 5.68872 -14.7852 -0.962398
H 4.90114 14.8442 -1.5021
H 6.5245 14.7531 -1.35037
O 13.176 -12.6884 7.57256
H 12.7703 -12.0824 6.88831
H 12.6079 -12.6895 8.39552
O -2.49211 11.8964 -9.91656
H -2.43545 11.194 -10.6261
H -1.61833 11.9536 -9.43362
O -14.8418 -10.6215 -9.6362
H -14.255 -10.3663 -8.86773
H -14.2783 -10.785 -10.4459
O 14.7797 -4.68589 -10.1877
H -14.5225 -4.4706 -9.43709
H 14.3134 -3.85196 -10.4828
O 2.25289 -10.1636 2.54679
H 1.42865 -10.705 2.38086
H 3.05252 -10.6632 2.2137
O 9.97581 -0.847446 11.8736
H 9.78687 -0.170719 12.5852
H 10.8124 -0.595063 11.3873
O 8.56328 -5.56839 -14.5534
H 8.46221 -4.58601 -14.3961
H 8.98951 -5.99176 -13.7539
O -10.9884 -9.55335 -5.1542
H -10.6992 -9.12742 -4.29694
H -11.219 -10.5123 -4.98879
O -13.3322 -1.95515 -10.7882
H -13.0398 -1.9485 -11.7445
H -14.3129 -2.14484 -10.7409
O -7.00027 14.6715 1.8651
H -6.58706 13.8604 2.27899
H -7.93068 14.7861 2.21323
O 9.60763 8.90736 -9.93379
H 9.71363 9.85027 -10.2495
H 8.98662 8.88604 -9.15027
O -4.1472 11.8725 -1.09552
H -3.9757 11.9783 -0.116026
H -4.44146 10.9354 -1.28308
O -6.43214 -5.29976 -7.2845
H -6.07125 -4.79759 -8.07037
H -7.42884 -5.34865 -7.34933
O 0.129768 -4.06225 -8.44745
H -0.174582 -4.66781 -7.71215
H 0.859635 -3.46812 -8.10936
O -9.6078 6.27669 -9.9349
H -9.33815 6.89054 -10.6768
H -10.5881 6.08931 -9.99698
O 12.7949 -0.679314 -13.531
H 12.4952 -0.406168 -12.6169
H 12.0387 -1.1247 -14.0105
O -3.80458 -12.7979 14.9047
H -3.24082 -12.4144 -14.2906
H -3.23089 -13.3412 14.2917
O 0.105578 -3.18407 -11.1565
H 0.045146 -3.34073 -10.1707
H -0.395923 -2.3519 -11.3931
O 2.26124 -9.29269 -7.80166
H 2.49626 -9.9215 -8.54285
H 1.95116 -8.42377 -8.18745
O 11.426 -2.33549 -1.65796
H 10.9486 -2.55564 -0.807307
H 11.8479 -1.43225 -1.57928
O 11.3919 -5.79948 12.4517
H 11.4481 -5.14735 13.2077
H 11.8451 -6.6519 12.7124
O -9.65084 3.88186 11.967
H -10.352 4.18692 12.6114
H -8.88696 3.47941 12.4715
O -12.2204 -8.0724 9.81051
H -12.7669 -7.34352 10.2229
H -11.2566 -7.80574 9.80825
O 5.97273 -2.68777 12.1776
H 5.18521 -2.07159 12.189
H 5.66959 -3.6198 12.3761
O 1.00202 5.40518 2.59308
H 0.49605 4.65023 3.01027
H 0.357664 6.06361 2.20414
O -1.28451 -12.3119 10.6675
H -0.737778 -12.7714 9.9675
H -0.679547 -11.9358 11.3693
O -2.2197 -14.5289 -3.90434
H -2.07308 -13.5426 -3.82878
H -3.19024 -14.7325 -3.77538
O -14.4254 2.94418 -5.6604
H -13.6292 3.18648 -6.21484
H -14.1215 2.50725 -4.81379
O -9.70362 -14.7325 -9.72781
H -9.86594 14.2526 -9.43305
H -10.508 -14.3924 -10.2149
O 12.4319 14.9379 -12.6212
H 12.7819 -14.718 -13.5179
H 11.4672 -14.7356 -12.5494
O 1.1191 12.3651 -1.68308
H 0.212456 11.9667 -1.82183
H 1.73093 11.6749 -1.29674
O 6.61824 -9.96769 -8.28448
H 5.79984 -9.44638 -8.04271
H 7.27068 -9.36796 -8.74778
O -2.63247 10.7244 -4.63319
H -2.67133 11.7012 -4.84388
H -1.84708 10.3144 -5.09692
O -0.386707 -5.50042 -6.31645
H -0.633475 -5.15911 -5.40947
H -1.03924 -6.20453 -6.59652
O 14.106 11.1204 -5.82709
H 13.5743 11.8592 -5.41284
H 14.7488 10.7545 -5.15412
O -13.4485 -11.5946 -1.8169
H -14.2289 -11.0667 -1.48164
H -13.6965 -12.0491 -2.67243
O -11.8025 -14.6393 11.6136
H -11.5505 14.6705 12.3591
H -11.7051 -13.6917 11.9179
O -2.61862 14.1254 -8.44143
H -2.37467 13.5402 -9.21476
H -1.97399 14.8877 -8.38393
O 2.94844 1.12964 11.6403
H 3.23485 0.207578 11.9006
H 3.45254 1.80107 12.1835
O 11.3534 -2.91959 -5.99295
H 12.0278 -3.34406 -6.59706
H 11.2451 -3.47745 -5.17011
O -10.6897 -9.97927 -10.3423
H -10.1824 -10.0571 -11.2005
H -10.1793 -10.432 -9.6112
O 4.25434 0.0423023 -4.50603
H 4.502 -0.560989 -5.26413
H 3.54087 0.676438 -4.80409
O 6.15184 -8.53358 1.76896
H 6.38222 -9.41504 1.3567
H 5.18562 -8.33254 1.60768
O -1.61684 4.03094 -6.89804
H -0.645187 3.79826 -6.85622
H -1.71802 5.00217 -7.11361
O -12.7087 -5.33863 1.91569
H -13.6819 -5.56838 1.89961
H -12.1679 -6.16926 1.78315
O 12.0848 13.6476 -1.6087
H 11.4085 13.6435 -2.34524
H 11.6833 14.0574 -0.789676
O 9.27875 -13.2326 -0.989106
H 8.77226 -13.7371 -1.68837
H 10.0046 -12.699 -1.42316
O -5.87926 3.82219 -14.3495
H -6.02398 4.63614 -13.7868
H -5.74561 3.02733 -13.7576
O 3.56212 12.7033 -12.9859
H 3.91352 12.1078 -12.2634
H 2.56616 12.6241 -13.0281
O -11.0142 -3.75905 -10.6715
H -11.2041 -4.16713 -9.77851
H -11.6596 -3.01437 -10.8417
O 13.3252 10.9221 5.27726
H 13.4271 11.7693 4.75589
H 12.7667 10.2758 4.75721
O 8.62842 6.61294 -6.23857
H 9.13861 6.59591 -5.37868
H 8.25701 5.70314 -6.42384
O 10.2 -14.0805 -6.56104
H 11.151 -14.3749 -6.65575
H 10.0102 -13.3502 -7.21726
O -3.51391 -11.4646 -7.02697
H -2.65933 -11.9443 -6.82809
H -4.12622 -11.5341 -6.23941
O -9.05029 10.4532 -12.9561
H -8.30819 10.8161 -12.3926
H -9.74404 10.0387 -12.3671
O 11.6174 -8.09232 -5.52301
H 12.368 -7.43147 -5.52485
H 11.2194 -8.14209 -4.60699
O 12.9418 14.7928 10.9811
H 12.6355 14.2262 11.7461
H 13.2935 14.2062 10.2517
O -12.2809 11.8501 -2.94874
H -12.7221 11.8149 -2.05205
H -11.4181 11.3456 -2.91573
O 9.4679 -9.23507 -6.98586
H 10.1697 -8.76791 -6.44811
H 8.9832 -8.56848 -7.55218
O 8.51162 11.7031 -5.29121
H 9.01976 10.9038 -4.97046
H 7.57826 11.6702 -4.93377
O 5.40135 -3.72696 -0.359996
H 5.14877 -3.31189 -1.23402
H 4.61026 -4.20332 0.0237471
O -5.77776 -1.37423 9.94858
H -4.84744 -1.73109 9.864
H -6.21056 -1.3549 9.0473
O -10.5865 -8.02753 -1.35399
H -11.523 -8.10484 -1.01194
H -9.94821 -8.04281 -0.584332
O 11.6798 8.9566 3.38448
H 11.3604 8.62541 2.49662
H 12.2662 8.26534 3.80681
O 6.11439 11.8027 -6.94182
H 5.45255 11.6912 -7.68312
H 6.98745 12.1126 -7.3183
O -4.48029 0.464052 -9.07948
H -3.78878 0.879236 -8.48835
H -4.64723 -0.477463 -8.78677
O -7.09483 11.3676 6.9413
H -7.67074 12.024 7.42863
H -6.60832 10.7961 7.6021
O 13.1138 1.87932 13.0297
H 13.1139 2.86707 13.1857
H 13.3387 1.69288 12.0733
O 4.60722 -7.86584 -7.68322
H 3.89777 -8.56129 -7.56909
H 4.19343 -6.95669 -7.63591
O 8.10122 -14.0079 -4.85177
H 8.90967 -14.1012 -5.43291
H 7.98423 -13.0486 -4.59492
O 2.52777 -0.436379 -9.66509
H 1.6347 0.0100566 -9.6092
H 3.24928 0.254371 -9.61729
O -3.07379 5.84006 -9.22822
H -3.30752 6.28633 -8.36438
H -3.12057 6.50741 -9.97149
O 0.824005 4.92738 -14.4373
H 0.402151 5.42573 14.7321
H 0.959059 5.54745 -13.6645
O -4.60825 10.5246 8.26644
H -4.46745 9.54083 8.37775
H -3.86974 10.9062 7.71061
O 13.4544 7.00866 4.21583
H 13.6865 6.92543 5.18495
H 14.2763 6.87046 3.66318
O 2.06265 2.88477 14.4571
H 2.5906 2.66654 -14.649
H 1.33988 3.53578 14.689
O -11.2399 0.4012 -5.21678
H -11.4874 -0.264284 -4.51259
H -11.1807 -0.0579054 -6.10319
O 12.8268 5.08352 10.5127
H 13.1767 5.97012 10.8151
H 12.0189 4.84285 11.0506
O 11.0262 3.99396 8.40267
H 11.7908 4.40991 8.89504
H 10.4287 3.52284 9.05155
O -14.4167 -8.58708 12.3595
H -13.564 -8.91822 12.7636
H -14.3508 -7.60153 12.2033
O 3.72945 6.25 8.476
H 3.7918 6.91594 7.73261
H 4.06588 6.66282 9.3224
O 8.75612 12.4986 9.35407
H 9.03316 11.5453 9.23415
H 7.81078 12.612 9.04834
O -7.93166 5.62869 7.17535
H -7.67555 6.48218 7.62918
H -8.00201 5.78328 6.18988
O -12.0214 5.0912 -10.6272
H -12.5603 5.76691 -11.1302
H -11.3013 4.73079 -11.2201
O -4.96626 -14.7878 -4.10159
H -5.0454 14.6058 -4.94382
H -5.45782 14.6741 -3.36526
O 13.6358 -1.0654 5.69956
H 13.709 -0.0870497 5.89315
H 13.6255 -1.20953 4.71006
O -9.04003 0.426053 -12.7784
H -8.56584 0.58697 -13.644
H -8.57444 0.92277 -12.046
O 1.50801 12.7554 14.2885
H 0.700519 13.3444 14.3212
H 2.25101 13.2341 13.8207
O 1.17706 6.32117 -12.2622
H 1.08103 5.79723 -11.4159
H 1.97192 6.92396 -12.1927
O -13.7478 1.19311 8.89041
H -14.2534 1.06915 8.03661
H -12.7954 1.41765 8.68418
O -7.77423 11.2933 -1.74111
H -7.01052 10.6757 -1.92921
H -8.02636 11.2272 -0.775677
O -8.18856 4.94469 -4.39558
H -8.64787 5.58335 -5.01295
H -8.03328 4.07735 -4.86845
O 3.67569 -13.7479 -9.62305
H 4.17385 -14.5471 -9.28671
H 4.32568 -13.0275 -9.86509
O 9.4748 10.1545 12.2609
H 9.8107 10.7561 12.9856
H 9.06831 9.33665 12.6682
O -3.56405 7.93749 -4.23126
H -3.06178 8.80155 -4.19754
H -4.51705 8.11529 -4.47656
O 7.53895 7.30642 4.54338
H 8.28362 7.77885 5.01484
H 7.89667 6.49073 4.08875
O -2.06938 -11.2614 -3.43502
H -2.67605 -10.6068 -3.88596
H -1.99235 -11.031 -2.46498
O -9.93639 -6.85106 6.22081
H -10.4041 -6.06067 5.82522
H -9.55036 -7.41117 5.48783
O -3.65464 3.5188 -5.23284
H -2.81148 3.75298 -5.71682
H -4.42408 3.54709 -5.87094
O -7.73888 -13.0683 -13.7071
H -8.58109 -13.1367 -13.1723
H -7.92759 -13.3111 -14.6586
O 14.7308 6.61237 -0.34692
H -14.1992 6.69099 -0.336693
H 14.3254 7.47425 -0.0423207
O 9.68317 0.244975 -9.98875
H 10.1105 1.11026 -10.2508
H 10.3892 -0.400996 -9.69854
O -1.12206 -7.86894 1.30033
H -1.80268 -8.40088 0.796544
H -0.916929 -8.32498 2.16633
O -1.78801 6.57073 10.6973
H -2.67373 6.77533 11.114
H -1.69973 5.58278 10.5701
O -3.11044 -5.2195 10.5635
H -2.63165 -5.50508 11.3937
H -2.96394 -5.89835 9.844
O 3.51402 -5.2297 0.756278
H 3.31623 -6.20935 0.72208
H 3.49078 -4.91793 1.70615
O -10.088 -13.5848 0.303483
H -9.6756 -13.3741 1.1898
H -11.0242 -13.2343 0.279709
O -12.798 5.51613 -2.79459
H -12.1615 4.88892 -3.24343
H -13.6909 5.46121 -3.2415
O 6.77165 -4.83245 -2.57619
H 7.31667 -4.01207 -2.74918
H 6.14168 -4.66052 -1.81884
O 4.41488 8.35792 6.98013
H 3.8705 9.0725 7.41949
H 4.88712 8.73972 6.18565
O -10.1213 3.83638 -11.9075
H -9.23011 3.70757 -11.4724
H -10.0501 3.62457 -12.8822
O 12.823 -12.617 1.4695
H 12.2032 -11.8464 1.32105
H 13.1919 -12.9219 0.5915
O 7.03711 5.57381 0.940574
H 7.63455 5.31095 1.69818
H 6.2727 6.11489 1.29115
O -5.84765 -13.1743 -0.117952
H -5.92661 -13.2414 -1.11257
H -6.44138 -13.8556 0.310263
O -4.04348 -8.7534 -11.187
H -4.2387 -9.38507 -11.9372
H -4.35844 -9.15164 -10.3254
O 4.24011 -10.615 -1.72991
H 3.43935 -11.179 -1.5281
H 3.95167 -9.67035 -1.88611
O 3.28395 -1.42317 12.8057
H 2.6494 -2.01131 12.3042
H 2.91826 -1.23987 13.7182
O 10.5926 4.50526 -2.36354
H 11.3723 5.09253 -2.14632
H 9.81945 5.07054 -2.6512
O -10.6041 2.67582 -3.21782
H -10.8473 1.91026 -3.81343
H -9.61023 2.78569 -3.20532
O -9.41923 -9.67938 -13.0256
H -8.56656 -9.19019 -13.209
H -10.196 -9.09141 -13.2512
O 12.1975 -12.4026 10.2249
H 12.9899 -11.9018 10.5731
H 12.1002 -13.2626 10.7259
O 13.5349 12.5735 -13.8039
H 14.2799 13.1342 -14.1653
H 12.7912 13.1664 -13.495
O 2.25931 5.13756 -10.0099
H 2.47199 5.39796 -9.06815
H 3.05052 5.3211 -10.5933
O -2.03018 4.15694 -12.9483
H -1.15169 3.83574 -13.3019
H -2.50727 3.39932 -12.5028
O -11.7922 2.3416 -9.44826
H -11.6025 2.65773 -8.51872
H -11.3829 2.97435 -10.1056
O -3.45296 6.78256 -6.5822
H -2.93432 7.32448 -5.92089
H -4.41321 6.74841 -6.30515
O -14.1281 -12.3326 7.92447
H 14.8561 -12.6516 8.02277
H -13.867 -11.8092 8.73562
O -12.5128 -9.06829 14.4696
H -11.763 -9.00607 13.8108
H -12.3816 -8.38656 -14.7375
O 3.62411 6.64065 13.2077
H 4.23404 6.86149 13.9688
H 2.68897 6.90631 13.4421
O -10.6024 -2.19854 -1.25336
H -10.3217 -2.97315 -1.82009
H -10.662 -2.48867 -0.298235
O 3.27883 14.1302 12.2616
H 3.20629 -14.8882 11.8498
H 3.66431 13.492 11.5951
O 12.9943 0.493526 -10.9495
H 13.8524 1.00521 -10.9933
H 12.2283 1.11162 -11.1259
O -11.4069 -12.2016 -5.59712
H -10.756 -12.7281 -5.05021
H -11.2778 -12.4149 -6.56554
O 2.50055 14.7528 5.81989
H 2.95672 13.995 5.35338
H 1.51003 14.657 5.72142
O -13.5774 8.5639 7.5748
H -13.6816 9.31079 6.91805
H -12.6258 8.25669 7.58202
O 11.6097 13.1556 12.9196
H 10.7124 13.3591 12.5279
H 11.4926 12.6778 13.7903
O 8.68779 -7.49133 -11.9552
H 7.92142 -7.85789 -12.4827
H 8.45793 -6.57554 -11.6257
O 4.80926 -4.67491 -11.04
H 4.14315 -5.3247 -11.4062
H 4.55224 -3.74676 -11.3093
O 9.65278 -6.97506 0.250393
H 8.7073 -6.65015 0.227704
H 9.83708 -7.52165 -0.566474
O 4.62582 5.69344 11.023
H 3.95708 5.19802 10.4686
H 4.26185 5.82583 11.945
O -8.01748 -2.30137 -5.3701
H -7.90689 -1.43689 -5.86046
H -8.98524 -2.55254 -5.35142
O -4.0943 -4.77552 -14.8709
H -4.99335 -4.61402 14.649
H -4.12433 -5.60638 -14.3152
O 7.6584 7.36921 9.5226
H 7.48652 6.45727 9.14999
H 8.46511 7.34147 10.1129
O 2.61154 -10.879 -9.81192
H 1.87828 -10.8665 -10.4918
H 3.48553 -11.0483 -10.2674
O 14.728 -13.9354 12.764
H -14.4238 -13.3037 12.7454