2611
Atoms. Timestep: 8000000
O -11.0573 8.00143 -12.3709
H -11.5924 8.40669 -13.1122
H -11.475 8.23407 -11.4926
O 9.57696 9.48627 -6.08184
H 9.60993 10.1715 -5.35425
H 10.5051 9.18046 -6.294
O 9.56202 4.48625 12.9389
H 9.81861 4.46792 13.9052
H 8.64204 4.10937 12.8311
O -2.51296 11.808 8.89338
H -2.04159 10.9313 8.79787
H -3.47685 11.6963 8.65162
O -0.604906 -11.783 -10.7255
H -0.466752 -12.0439 -11.681
H 0.129077 -12.1674 -10.1656
O -9.86165 -3.51085 2.70432
H -10.1583 -2.58886 2.95321
H -9.4038 -3.93586 3.48519
O 9.86865 -14.3133 -6.66071
H 9.57137 -14.5613 -7.58273
H 10.6707 -13.7187 -6.71774
O 0.693588 -4.57309 -7.12385
H 1.29175 -3.8113 -7.3726
H 0.259028 -4.93826 -7.94715
O -11.5884 5.45188 -9.61978
H -12.027 5.83659 -10.432
H -10.8274 4.86586 -9.89791
O -7.97502 13.0241 13.3134
H -7.31865 13.6321 13.7602
H -8.11844 13.3239 12.3702
O 12.9686 14.897 2.99878
H 12.7645 14.9182 3.97751
H 12.6401 -14.2003 2.57154
O 5.57795 -13.7443 -14.5918
H 5.99559 -13.1501 -13.9044
H 6.27313 -14.0316 14.689
O -14.0476 12.1387 -5.53544
H -14.6244 11.585 -4.9348
H -13.2085 12.3901 -5.05296
O -8.3656 10.8037 2.09269
H -7.99929 10.0878 1.49819
H -9.3601 10.8415 1.995
O -1.01151 -10.7386 3.596
H -1.54442 -11.094 4.36395
H -0.168673 -10.3238 3.93882
O -3.51201 -4.13991 7.52065
H -2.55852 -3.99338 7.7841
H -3.95365 -3.25673 7.36266
O 2.25567 -5.51644 0.00118591
H 2.68483 -6.34209 -0.365058
H 2.95267 -4.81367 0.143694
O -4.37008 -9.47967 -5.03803
H -3.71922 -10.2348 -5.11664
H -5.29025 -9.80941 -5.24917
O 14.6934 -7.41586 0.558262
H -14.5687 -7.98442 1.02474
H 14.1572 -6.91262 1.23595
O -12.3515 11.7425 -8.78896
H -11.8931 11.9448 -9.65441
H -11.8018 12.0932 -8.03074
O 8.46428 -13.9434 -11.8559
H 9.00146 -13.5006 -12.5738
H 8.00216 -14.7462 -12.2326
O 7.55018 2.03099 0.671355
H 6.84843 2.01012 1.38348
H 7.38952 1.28666 0.0231517
O -9.9745 10.6778 -1.78983
H -10.3944 10.4836 -2.67641
H -9.66466 9.82301 -1.37342
O 0.966457 3.29064 5.27465
H 0.421745 2.76391 5.92723
H 1.5776 3.90688 5.7714
O -11.3648 0.971745 -10.0517
H -10.6888 0.488754 -10.6084
H -11.3588 1.94326 -10.2887
O -12.4965 13.4237 -2.82739
H -11.9564 14.2628 -2.76375
H -13.272 13.4779 -2.19844
O 12.8465 -0.307646 14.4628
H 13.7386 -0.142746 14.8835
H 12.1261 0.0457676 -14.88
O 10.9975 1.43943 4.83248
H 10.21 1.07145 4.33794
H 10.6812 1.93344 5.6424
O 13.3325 -11.6075 -10.5736
H 14.0251 -11.2585 -11.2049
H 13.3538 -12.6073 -10.5749
O -3.16587 6.38663 0.786854
H -3.35645 7.2076 1.32509
H -3.15846 5.5879 1.3885
O 1.15288 -1.49956 -3.79567
H 1.31154 -0.562671 -3.4841
H 0.496123 -1.49334 -4.54976
O 0.177428 -6.05688 1.89873
H 0.0321566 -7.01799 1.66381
H 0.959026 -5.70271 1.38523
O 9.73788 -0.330416 12.4763
H 8.83258 0.0261518 12.2454
H 10.44 0.278749 12.1076
O 1.89388 0.818451 -6.64057
H 2.73457 0.937109 -7.16893
H 1.18004 0.440798 -7.23034
O -10.5957 11.6388 14.6577
H -10.915 12.3461 -14.6512
H -9.902 12.0237 14.0489
O -0.490018 8.79214 -7.61109
H -1.27172 9.19354 -7.13377
H -0.526736 7.79596 -7.53182
O -3.30639 14.8702 -0.629045
H -3.54802 13.918 -0.815752
H -2.33344 14.9296 -0.405791
O 12.4393 -3.85922 5.09261
H 13.3728 -3.53373 5.24317
H 12.0897 -3.48373 4.23421
O -7.90766 2.84078 2.45127
H -8.6691 3.0957 3.04728
H -7.24877 3.59203 2.41246
O 2.1763 2.90103 -13.5591
H 3.12389 3.22038 -13.5493
H 1.86695 2.74667 -12.6207
O -8.4368 9.97845 -8.51614
H -7.92856 9.3585 -9.11395
H -8.67414 9.50407 -7.66841
O -0.705047 -9.20341 -12.1968
H -1.02508 -10.1416 -12.3288
H -0.6852 -8.99235 -11.2195
O 13.4195 0.235107 5.86624
H 13.6422 0.5984 6.77091
H 12.5329 0.592583 5.57253
O -7.65643 10.304 13.3612
H -7.88754 11.2738 13.2822
H -8.4393 9.75059 13.0769
O 3.41712 -7.24378 2.65631
H 3.0318 -8.15697 2.52352
H 3.25647 -6.69199 1.83794
O 4.73276 -4.58108 -2.12332
H 4.57883 -4.44982 -1.14399
H 5.29398 -5.39633 -2.26618
O 7.67276 -12.0133 -1.27385
H 7.51632 -11.5682 -0.392136
H 7.90947 -12.9735 -1.12519
O 1.34734 -10.3058 -6.94605
H 0.436016 -10.2639 -6.53648
H 2.02524 -10.4852 -6.23311
O -7.42924 -7.21123 3.26466
H -7.28417 -6.88301 4.19806
H -7.14284 -8.1671 3.19917
O 3.77628 3.88415 0.0849314
H 3.68573 4.30361 -0.818319
H 2.91948 3.9909 0.589417
O 12.8342 -9.52001 -7.03079
H 11.9398 -9.93745 -7.19153
H 12.9351 -8.71344 -7.61326
O 4.99245 -8.32357 14.4897
H 4.29541 -7.70754 14.8567
H 4.57332 -9.20188 14.2597
O -14.4859 4.11429 11.1869
H -14.6987 3.25555 11.6531
H -13.8581 4.65229 11.7494
O 0.104762 9.33326 -10.2987
H -0.628195 10.0076 -10.3881
H 0.330495 9.21252 -9.33199
O 11.4929 14.3125 -12.5211
H 11.671 13.8082 -13.3661
H 10.6941 14.9011 -12.6463
O 0.307575 -8.95672 5.71109
H 0.783345 -9.81768 5.89109
H 0.965138 -8.27184 5.39715
O -2.91136 -7.07702 -10.3425
H -2.15121 -6.8044 -10.9323
H -3.23271 -6.28399 -9.82495
O 10.105 10.1842 14.5025
H 10.6922 9.45374 14.8514
H 9.36696 10.3586 -14.7853
O 13.9302 4.00084 -13.0376
H 13.8117 3.75012 -12.0768
H 13.3445 4.78226 -13.2529
O -2.80653 11.4961 -0.855913
H -2.21591 10.8161 -0.421366
H -2.29686 11.9701 -1.57391
O -14.6635 -2.43514 8.52218
H -14.1182 -2.89801 9.2211
H -14.3378 -1.49593 8.41326
O -10.348 -4.26186 13.3749
H -10.8779 -3.5934 12.853
H -10.0881 -5.02069 12.7777
O -10.9219 -6.8453 2.12951
H -10.3377 -6.29025 1.53732
H -10.9254 -7.79047 1.80295
O -8.44234 -1.42202 6.80782
H -8.2238 -2.14571 6.15321
H -8.77191 -0.616096 6.31601
O -5.65489 -12.7563 -13.8669
H -6.17684 -11.915 -13.7263
H -5.54535 -13.2305 -12.9933
O -4.69649 2.50157 8.32918
H -4.38189 1.93004 7.57129
H -5.4534 3.07755 8.02042
O 3.84956 4.7022 10.7667
H 3.84129 3.71784 10.5907
H 4.14274 4.87008 11.7079
O 11.0553 1.66879 11.0171
H 11.3546 1.01713 10.3201
H 10.3459 2.26184 10.6362
O -13.5168 11.9371 8.9261
H -12.6027 11.7651 8.5589
H -14.2038 11.6318 8.26668
O 0.669256 -6.88553 -12.5514
H 0.296554 -7.79331 -12.7439
H 1.6323 -6.85696 -12.8193
O -9.05847 -12.8447 -10.1333
H -9.41245 -13.5636 -9.53506
H -8.109 -12.6462 -9.8901
O -14.5392 -11.3758 -12.6838
H -13.552 -11.2233 -12.7308
H -14.8541 -11.7872 -13.5392
O -2.1009 12.7175 11.6233
H -2.24297 12.0709 10.8738
H -2.70403 13.5059 11.5022
O 5.35234 1.10713 9.67525
H 5.38178 1.85365 9.01054
H 4.50301 1.16164 10.2003
O 14.1028 -11.4636 3.87304
H 14.597 -12.3201 4.02223
H 13.3554 -11.3907 4.53335
O -0.625743 -8.29957 -4.56178
H -1.37218 -7.75199 -4.18362
H -0.023605 -7.71324 -5.10368
O 6.51132 -14.9468 -7.65573
H 5.92095 -14.7633 -8.44174
H 6.08901 -14.5769 -6.82814
O 2.38472 10.2954 -12.9345
H 1.44671 10.2801 -13.2808
H 2.91757 9.57822 -13.3837
O 11.9167 -12.4136 2.42045
H 11.808 -12.1671 1.45743
H 12.7565 -12.0038 2.77666
O -12.512 1.20295 -2.26681
H -13.2145 0.790649 -1.68662
H -12.0413 0.485944 -2.78093
O -12.4178 10.8649 11.2864
H -11.4194 10.8749 11.2296
H -12.7946 11.538 10.65
O -0.610553 7.10814 14.6757
H -0.846354 7.7477 13.9441
H -0.570941 7.59796 -14.393
O 11.1941 3.79604 -14.6044
H 11.3364 4.73249 -14.2838
H 12.0458 3.27978 -14.5141
O -11.1956 -0.195124 9.93734
H -11.8309 -0.258513 9.16773
H -11.6179 0.330469 10.6758
O -3.61122 7.01132 -12.5962
H -3.18348 6.12847 -12.7902
H -4.59909 6.88916 -12.5003
O 5.59646 -7.71466 -5.88059
H 4.85737 -8.0196 -6.48123
H 5.54945 -6.72169 -5.77193
O 5.12374 7.06242 -3.05142
H 5.55774 7.86773 -2.64752
H 5.09299 7.16382 -4.04579
O -1.43728 -3.13685 9.33311
H -1.46104 -3.1808 10.3319
H -0.748433 -3.77418 8.98772
O -11.079 -10.0321 2.72949
H -10.7597 -10.874 2.29457
H -10.9697 -10.1068 3.72069
O -10.0325 5.8898 5.08615
H -9.12357 6.24046 4.86054
H -10.295 6.20626 5.99771
O -1.95415 -3.59705 -10.2569
H -2.90876 -3.32125 -10.1443
H -1.73558 -4.31763 -9.59884
O -11.2565 2.00162 0.14634
H -11.2491 2.47711 -0.733356
H -10.9071 1.07242 0.0259312
O 8.94967 0.500361 3.17948
H 8.34918 0.60289 2.38644
H 8.96599 -0.45833 3.46348
O 9.03089 -3.11021 11.0348
H 9.24423 -2.13442 10.9865
H 8.63444 -3.32093 11.9283
O 12.7216 -14.7021 11.4326
H 13.0328 14.6914 10.6548
H 13.4286 -14.0389 11.6783
O -0.742385 -14.4769 -4.37276
H 0.0874692 -14.0205 -4.05171
H -0.836524 -14.3422 -5.35916
O 3.07189 -11.1663 -4.94486
H 3.61725 -11.2655 -5.77718
H 3.66104 -10.8681 -4.19388
O -9.99124 8.45966 13.8843
H -10.6367 8.7922 14.5719
H -9.54351 7.63112 14.2206
O -8.38643 8.2487 -12.5115
H -9.37336 8.40977 -12.5048
H -8.01499 8.49292 -13.4073
O 5.64707 -4.98281 -5.5048
H 6.34438 -4.97324 -4.78808
H 4.95512 -4.2888 -5.30591
O 7.95846 5.45108 8.55183
H 8.59638 6.01102 9.08054
H 7.71785 5.92809 7.7065
O 3.98096 1.26977 -2.34201
H 3.10493 1.15044 -2.80927
H 3.83152 1.72687 -1.46523
O -10.2578 -11.8846 7.97881
H -10.6498 -12.087 7.08137
H -9.94186 -12.733 8.40354
O -9.39984 -0.940645 -6.17847
H -9.71454 -0.785195 -5.24209
H -8.63917 -0.323949 -6.38116
O 14.8278 1.83304 12.0952
H 14.7618 0.913175 11.7086
H 13.9992 2.03546 12.6172
O 14.9561 2.19949 0.13662
H -14.8032 2.03236 1.10592
H -14.8177 1.36114 -0.382671
O 0.0277797 -4.21059 -4.53316
H 0.219216 -4.41713 -5.49269
H 0.857288 -4.34563 -3.99123
O 7.4073 12.4772 -5.61672
H 7.10307 12.9656 -4.79885
H 6.85274 12.7599 -6.39938
O -13.0388 -5.60489 -13.1158
H -13.6708 -5.38793 -13.8598
H -12.2052 -6.00813 -13.4935
O 11.9671 -14.7583 6.06012
H 12.4064 -13.8774 6.23616
H 11.0131 -14.7204 6.35765
O -11.5965 3.85791 -2.72255
H -12.3548 4.49323 -2.57664
H -11.9471 2.92191 -2.75379
O -2.85634 1.81687 -12.6306
H -1.96932 1.52503 -12.9884
H -2.76593 2.04523 -11.6612
O 7.42093 14.3803 13.8257
H 6.88596 13.8849 13.1412
H 8.38582 14.3739 13.5631
O -0.787627 -12.5361 -13.2729
H -1.71038 -12.3196 -13.5918
H -0.520808 -13.4381 -13.6123
O -12.3687 -12.0631 -9.19975
H -13.1321 -12.7061 -9.26056
H -12.7219 -11.1278 -9.17562
O 6.36172 -13.5538 6.19158
H 5.78335 -13.3289 5.40739
H 6.17164 -14.4896 6.48852
O -7.34606 -10.6187 -13.3197
H -7.2336 -10.085 -12.4815
H -8.02597 -11.3364 -13.1693
O 2.64792 -13.5534 13.6575
H 2.08041 -12.9121 14.174
H 3.40255 -13.8688 14.2329
O -11.3691 -6.33371 4.8167
H -11.1266 -6.41664 3.85009
H -12.0345 -5.59609 4.93132
O -7.86921 12.1517 -6.41977
H -8.39892 11.644 -7.09923
H -7.10686 12.616 -6.87053
O -11.8737 -3.95689 -9.50658
H -11.8198 -3.38849 -10.3276
H -11.2825 -3.57406 -8.79672
O -11.2304 1.61313 -6.89398
H -11.7758 1.11254 -6.22173
H -11.4956 1.33014 -7.81571
O -7.31658 -3.64026 5.32161
H -7.22746 -4.3177 6.05178
H -6.4953 -3.65494 4.75126
O -4.39391 -4.23356 -3.99254
H -4.2063 -5.16892 -4.29239
H -4.88451 -3.74443 -4.71371
O -0.984585 5.74854 -0.741008
H -0.186517 6.35108 -0.748385
H -1.78087 6.25411 -0.408822
O -5.27241 9.01208 -9.89243
H -4.34715 8.63475 -9.85338
H -5.35126 9.62037 -10.6822
O 11.6445 -7.10535 -4.24621
H 11.339 -7.03893 -3.29633
H 12.4037 -7.75335 -4.30764
O 1.72476 3.3311 13.3677
H 0.828655 3.77495 13.3648
H 2.01648 3.17538 14.3115
O 11.587 -12.6418 8.44055
H 10.5939 -12.5254 8.44737
H 11.8324 -13.4434 8.98573
O 6.60944 9.2093 4.83473
H 5.94789 9.62288 4.20918
H 7.12 9.92982 5.30398
O -7.85932 -6.09586 -9.69141
H -7.94337 -5.90269 -8.71385
H -8.72122 -5.8783 -10.1495
O -12.2744 14.486 5.29349
H -11.4028 14.0982 4.99353
H -12.3718 14.3625 6.28105
O -7.53558 13.1678 0.592041
H -6.71355 13.0499 0.0349042
H -7.61359 12.4068 1.23615
O -2.60423 4.40943 -13.6936
H -2.60438 4.59117 -14.677
H -2.84841 3.45337 -13.5313
O -0.463594 -14.3283 0.108241
H -0.00937861 -13.5149 -0.255198
H 0.188715 14.8544 0.146397
O -13.7462 5.00746 -14.3655
H -14.6547 4.61422 -14.2241
H -13.0532 4.29622 -14.2479
O 14.3992 10.6493 11.7332
H 13.8602 10.3734 10.9374
H -14.5702 10.4924 11.5493
O 14.8364 9.20869 14.5925
H 14.437 8.61229 13.8962
H 14.174 9.35281 -14.612
O 1.36669 -6.43909 4.53645
H 0.802077 -6.16531 5.31507
H 0.909963 -6.17898 3.68571
O 3.17232 14.2821 -6.69796
H 2.66701 -14.9067 -7.12321
H 3.09659 13.4642 -7.26835
O 4.14436 12.6859 8.85232
H 5.00391 12.2356 8.61054
H 3.91005 13.3567 8.14865
O 12.4518 12.6105 -5.02839
H 12.4648 12.4268 -6.0113
H 12.527 13.5953 -4.87233
O 5.1895 11.5647 -11.1194
H 4.50561 11.421 -10.4041
H 4.75348 11.9769 -11.9194
O -7.86788 3.85463 12.1379
H -7.48405 2.93138 12.1206
H -8.85564 3.80224 12.2849
O 9.7056 11.5185 -8.1109
H 9.18339 11.9261 -8.85997
H 9.07561 11.1455 -7.42972
O -13.6357 -9.58659 2.11206
H -12.6702 -9.65568 2.36334
H -14.2019 -9.7116 2.92678
O 2.1675 7.24356 -10.2344
H 1.69959 8.00869 -10.6768
H 1.49096 6.62696 -9.8318
O -6.65614 -2.12444 8.60182
H -6.33813 -1.30791 9.08366
H -7.27151 -1.85571 7.8608
O -1.73377 -3.24173 -13.2055
H -2.33663 -3.14293 -12.4138
H -1.72177 -2.38677 -13.7241
O -13.2175 5.86882 -11.746
H -14.1101 6.07802 -11.3467
H -13.3248 5.68161 -12.7225
O 11.4676 1.99825 -1.55129
H 10.6979 1.55958 -2.01512
H 11.3955 2.9906 -1.65157
O 6.59125 -7.81141 7.93256
H 6.11246 -7.7221 8.80594
H 7.55199 -7.56096 8.05199
O 4.38566 -1.15327 -12.2534
H 3.76873 -0.370445 -12.3345
H 5.27006 -0.845677 -11.9023
O 9.11511 -0.909956 -14.6765
H 9.16525 -0.94421 14.265
H 9.65341 -1.65877 -14.2899
O -6.88497 -11.0645 11.8927
H -7.25051 -10.8686 10.9828
H -7.35317 -11.8609 12.2756
O -1.45728 2.23492 13.5582
H -1.33022 3.22366 13.4791
H -0.814488 1.7667 12.9519
O -4.2439 12.3056 -4.23825
H -5.20598 12.0364 -4.28218
H -4.1804 13.2894 -4.07038
O -4.66521 -3.52948 -13.6465
H -5.31188 -3.73244 -14.3817
H -3.97458 -2.88672 -13.978
O 12.5907 -11.0322 12.3039
H 13.1037 -10.3141 12.7742
H 13.1012 -11.3337 11.4987
O 2.02157 -1.70004 11.8207
H 2.2854 -2.00582 10.9058
H 2.24828 -2.40979 12.4876
O 2.29273 -14.5763 9.47241
H 1.30511 -14.5986 9.62773
H 2.5207 14.7808 8.69232
O -6.71509 -10.0475 -9.0201
H -7.15016 -9.58518 -9.79275
H -5.95771 -9.48936 -8.6812
O -0.829814 10.6132 -4.49819
H -1.54912 9.9683 -4.23976
H -1.00517 11.4983 -4.06726
O -7.96062 -8.29917 -11.2937
H -7.73148 -7.49359 -10.7473
H -8.93926 -8.29515 -11.4992
O -6.60203 6.21468 -0.177799
H -5.74351 6.35438 -0.671193
H -7.3274 5.98931 -0.828223
O 14.3977 -3.20472 -12.6159
H 14.392 -2.84296 -13.5481
H 14.0845 -4.15434 -12.6249
O 14.6499 2.17937 -14.9148
H 14.4009 2.70284 14.21
H 14.3744 2.68469 -14.097
O -14.3829 9.51024 -10.8913
H 14.9557 8.99962 -10.2765
H -13.4339 9.40237 -10.5952
O 8.04193 12.318 -10.0683
H 7.13619 12.2774 -10.4902
H 8.71022 12.6311 -10.7432
O 10.7171 -8.85052 3.7137
H 10.7917 -7.86987 3.53264
H 10.1263 -8.99911 4.50667
O -6.00295 13.374 -10.5694
H -6.99565 13.256 -10.5949
H -5.74051 14.1229 -11.1778
O 10.7959 -9.85777 -10.9911
H 11.2263 -10.0545 -10.1102
H 10.1054 -10.5539 -11.1875
O 9.12695 -1.52438 -11.0315
H 8.72512 -2.2041 -10.4179
H 10.0904 -1.74314 -11.1861
O -9.00828 -3.9335 -13.9939
H -8.10788 -3.52146 -14.1336
H -9.48155 -4.00591 -14.8718
O 5.47092 -9.99806 6.44526
H 6.06238 -9.53905 7.1082
H 4.63603 -9.46283 6.31676
O -2.73776 1.89507 5.30734
H -3.40254 1.31052 4.84218
H -3.03688 2.84781 5.25412
O -13.4255 3.73114 -5.77928
H -14.2027 3.80195 -5.15395
H -13.0645 2.79881 -5.75809
O 13.5239 10.3807 8.36739
H 14.2085 10.7211 7.72282
H 13.6755 9.40582 8.53066
O 14.0905 1.1893 -2.59141
H 13.2518 0.974639 -2.09098
H 14.4121 2.09891 -2.32832
O 9.70003 -9.52295 6.17644
H 9.4698 -9.3288 7.13001
H 9.12728 -10.2709 5.84088
O -9.93586 11.909 10.2653
H -9.18446 12.4995 10.5598
H -10.1855 12.1321 9.32302
O -13.0932 -2.9485 -2.61131
H -13.0027 -3.48549 -1.77258
H -13.0742 -1.97417 -2.38696
O -8.30508 8.88382 0.185067
H -8.54224 7.91357 0.233811
H -7.53404 9.00751 -0.439603
O 5.6934 -14.8801 -2.66869
H 5.35053 -14.6208 -1.76581
H 6.53796 -14.3803 -2.86071
O -13.8831 5.19107 -8.2661
H -13.2118 5.53226 -8.92417
H -13.4111 4.70823 -7.52849
O 13.673 -11.1829 -2.50761
H 13.8919 -12.1585 -2.5234
H 14.3486 -10.6986 -1.95174
O 4.79801 -9.83912 -3.31072
H 5.12599 -8.96843 -3.67726
H 5.00066 -9.88651 -2.33261
O -9.52626 -5.37183 -11.6513
H -9.33121 -4.91095 -12.517
H -10.1609 -6.12779 -11.8117
O -9.01251 1.39083 5.51328
H -9.1681 1.44459 6.49965
H -8.04511 1.55346 5.31909
O -8.99959 -12.7645 -12.9651
H -8.39468 -13.5186 -13.2208
H -9.13492 -12.7671 -11.9743
O 2.44676 6.63351 9.53797
H 2.19612 7.21813 10.3096
H 2.94924 5.8365 9.87306
O 13.277 5.69574 10.7046
H 13.9635 4.98376 10.8524
H 13.6854 6.45132 10.1924
O 12.6268 -8.60365 -0.834954
H 12.0781 -7.97005 -1.38039
H 13.4077 -8.11667 -0.443705
O -2.89539 3.83751 -2.07134
H -2.2714 4.6178 -2.029
H -2.80172 3.29028 -1.23961
O -1.23418 12.7368 -2.72487
H -0.319895 13.1367 -2.78962
H -1.86491 13.2513 -3.30581
O 0.16049 10.3134 -14.4097
H 0.633797 10.4256 14.6563
H -0.739036 9.9061 -14.5678
O -6.93651 9.499 -2.16454
H -7.04703 10.2916 -2.76423
H -6.30136 8.85006 -2.58343
O -4.49041 -8.52007 -8.5457
H -4.2238 -7.81599 -9.20388
H -4.68083 -8.09442 -7.66107
O 14.1527 7.82904 8.72874
H 13.8666 7.07152 8.14191
H -14.7888 7.84767 8.78614
O -11.0734 -9.2244 5.3482
H -11.1479 -8.26155 5.0886
H -11.8417 -9.47074 5.939
O -4.62322 -11.0226 5.67871
H -3.7497 -11.5062 5.73439
H -4.46548 -10.0387 5.76327
O 12.5933 -13.5559 -6.84881
H 13.0125 -12.8986 -7.47506
H 13.2893 -14.195 -6.52141
O -8.67356 -2.65701 -10.5786
H -7.69439 -2.63837 -10.7808
H -9.0928 -3.4431 -11.0328
O -1.92404 11.3297 -9.96718
H -2.82776 11.2797 -10.3924
H -2.01393 11.2112 -8.9783
O 6.68012 -4.82007 13.4472
H 7.53028 -5.12761 13.8746
H 6.21437 -4.1778 14.056
O -5.24908 -13.8176 -11.1586
H -5.948 -13.6761 -10.4575
H -4.42179 -13.3133 -10.911
O -8.10443 -4.98543 1.33964
H -8.94096 -4.56199 1.68739
H -7.85301 -5.75642 1.92477
O -8.53027 1.73083 -7.30772
H -8.03859 2.35647 -6.70205
H -9.51127 1.79019 -7.123
O -1.12774 4.70309 9.46345
H -0.898543 4.69951 8.49007
H -0.374341 4.30226 9.98475
O -3.08076 11.5666 -7.18201
H -2.51314 12.3668 -6.98829
H -2.92554 10.8703 -6.48126
O 2.18432 -12.3432 1.68829
H 1.90994 -12.3277 2.64979
H 2.49452 -13.2621 1.44489
O 0.21597 12.3887 6.65877
H 0.84693 12.0999 7.37884
H -0.429065 13.0571 7.02915
O 4.75712 -6.06239 6.98496
H 5.52273 -6.55261 7.40155
H 4.96007 -5.08343 6.96385
O -11.1522 -6.42791 -8.99652
H -11.1387 -7.08683 -9.74862
H -11.215 -5.50101 -9.36653
O 11.8305 -1.90404 -10.9641
H 12.4066 -2.35228 -10.2806
H 12.0462 -0.928006 -10.9935
O -12.3678 2.64913 2.52647
H -11.5081 2.89993 2.97159
H -12.1761 2.26833 1.62191
O 9.93154 -3.02829 6.0597
H 9.83159 -3.1413 7.04826
H 10.8333 -3.35466 5.7764
O 11.0753 11.5074 -1.91694
H 10.783 12.3112 -1.39885
H 10.6026 11.4887 -2.79798
O 2.25657 -2.54316 9.45105
H 1.81208 -1.73855 9.05728
H 1.7977 -3.37004 9.1259
O -13.9865 8.41927 -0.689741
H -14.3896 9.18378 -1.19272
H -14.03 8.60606 0.291703
O -10.7917 8.23561 -3.29727
H -11.1223 7.57099 -3.96733
H -10.7168 7.79701 -2.4017
O -12.2003 -4.05243 -5.18358
H -12.29 -3.58286 -6.06192
H -12.8432 -3.65745 -4.52731
O 12.2337 12.6828 5.11451
H 12.3871 13.6709 5.10803
H 11.5381 12.458 5.79686
O -11.5924 6.17183 -5.54273
H -12.2213 5.39637 -5.4867
H -12.0337 6.92417 -6.03191
O 6.8899 -12.0344 -3.7097
H 7.02789 -11.9775 -2.7209
H 6.31786 -11.2715 -4.01089
O -0.755815 6.06803 -8.0689
H -0.932339 5.45389 -7.29969
H -0.464929 5.53338 -8.86234
O 11.8974 0.851083 -11.6779
H 12.8315 0.538311 -11.85
H 11.3707 0.81098 -12.527
O -5.97777 -13.0167 9.29054
H -6.12233 -12.3361 8.57229
H -5.35201 -12.6481 9.97797
O 2.14697 -0.407686 -14.774
H 1.26941 0.0665004 -14.703
H 1.9939 -1.39582 -14.7611
O -11.6228 -14.6097 10.7446
H -12.3916 14.7894 11.0862
H -11.3624 -13.93 11.4303
O -13.1361 -11.2013 12.4879
H -12.8224 -10.6424 11.7204
H -13.5934 -10.6185 13.1597
O -2.14923 -7.02243 -2.53
H -1.4561 -6.35906 -2.24798
H -2.21133 -7.75032 -1.84712
O 1.8415 14.6561 -1.55482
H 1.96876 13.9699 -2.2711
H 1.50658 -14.4342 -1.96265
O -5.21498 10.0362 12.2161
H -6.14864 10.1272 12.5625
H -4.60712 9.76686 12.9631
O 5.82124 4.47036 -9.64973
H 5.67378 3.48849 -9.53055
H 6.11234 4.87153 -8.7812
O -11.0281 10.0633 2.96527
H -11.2302 10.328 2.02236
H -11.4466 9.17604 3.1594
O -12.4285 -1.99781 -6.87653
H -12.4906 -1.71108 -7.83254
H -11.4674 -2.10732 -6.62311
O 8.86655 -2.01435 -0.0699818
H 9.56852 -1.30219 -0.0781473
H 8.72049 -2.32766 0.868377
O -9.63359 -12.2678 1.97914
H -9.0547 -12.4214 1.17832
H -9.6296 -13.0853 2.55505
O -12.546 -6.5673 -6.25427
H -12.5753 -5.65665 -5.84212
H -12.2698 -6.49083 -7.21231
O -5.57828 14.0639 9.27577
H -5.93596 -14.9446 9.34528
H -5.43109 13.8343 8.31366
O -4.33865 -7.1081 -3.92424
H -4.29949 -8.00422 -4.36632
H -3.53079 -6.98521 -3.3478
O 1.82846 12.5212 4.30537
H 1.13915 12.5965 5.02593
H 2.48195 11.8026 4.54304
O -0.492596 5.52642 -12.7287
H -1.37045 5.12983 -12.9972
H -0.633297 6.465 -12.4136
O 5.01457 5.58408 8.08844
H 5.43257 6.45041 7.81499
H 4.73848 5.63549 9.0482
O 8.6266 -14.6104 -0.674874
H 8.41486 -14.3643 0.270983
H 9.31927 14.6081 -0.684617
O 10.682 -10.735 -7.94946
H 9.70035 -10.6274 -7.7918
H 10.8513 -11.6027 -8.41684
O 14.4448 -14.2088 -3.05056
H -14.8618 14.9695 -3.19013
H 13.7145 -14.2533 -3.73227
O 7.66715 13.6194 -13.0482
H 7.96882 12.6673 -13.0984
H 7.56836 13.9869 -13.973
O 9.37494 -9.02519 -4.58852
H 10.0691 -9.7123 -4.37401
H 9.81073 -8.13053 -4.68689
O -5.71667 2.58062 -10.157
H -5.61544 2.57347 -11.1518
H -6.21548 1.76392 -9.8668
O 9.75781 13.0722 6.65589
H 9.16546 13.87 6.54351
H 10.3895 13.2303 7.41484
O -3.37616 -12.0254 -10.3282
H -3.73011 -11.1788 -10.7257
H -2.37753 -11.9856 -10.2942
O 5.72668 11.9782 14.8594
H 4.99617 11.2953 14.8689
H 6.03663 12.1217 13.9196
O -8.17546 5.98727 8.48983
H -8.85411 5.88085 9.21654
H -8.1512 6.94209 8.19363
O 1.96431 -9.59518 2.14496
H 0.970668 -9.48799 2.11024
H 2.19434 -10.5683 2.15767
O -12.0495 7.42663 3.41641
H -11.6498 6.81389 4.09822
H -12.0787 6.96499 2.52982
O -6.68715 -0.321038 -4.45079
H -6.17971 -0.611873 -3.63966
H -7.56576 0.067284 -4.17282
O -13.1141 8.05321 8.33818
H -12.2316 8.37481 8.68118
H -12.9653 7.35306 7.63987
O 5.69631 12.3619 -2.65307
H 5.09492 12.3052 -3.45001
H 6.04223 13.2958 -2.56235
O -12.5462 3.11551 8.32223
H -12.9813 2.35802 7.83548
H -13.0669 3.32238 9.15052
O -2.37338 -8.85739 -0.585013
H -3.10194 -9.4067 -0.994254
H -1.48726 -9.17304 -0.924381
O 0.298525 -11.7496 11.1474
H 0.271791 -12.6308 11.6192
H -0.608099 -11.3286 11.1759
O -9.80828 14.6044 -8.8872
H -9.16649 14.945 -8.20014
H -9.52374 13.6936 -9.18654
O 3.00595 2.55212 3.23833
H 2.39905 2.61009 4.031
H 2.88238 1.6679 2.78789
O 10.8717 -7.86933 -13.973
H 10.3986 -7.85716 -14.8539
H 11.1494 -8.80532 -13.7567
O -11.5164 -12.62 5.42828
H -12.1243 -11.9016 5.09033
H -12.0185 -13.4831 5.48312
O -10.8622 -8.22391 -11.4222
H -11.3582 -8.25529 -12.29
H -10.7161 -9.155 -11.088
O 4.69999 13.5194 2.88245
H 4.62863 13.289 1.91196
H 4.83882 14.5047 2.98182
O 1.77265 -7.61878 -6.05158
H 1.4578 -6.74514 -6.42258
H 2.26777 -8.12249 -6.75949
O -8.0651 6.71519 2.84311
H -8.81233 6.49608 2.21569
H -7.30457 6.08446 2.68886
O -6.0895 -14.4728 14.2485
H -5.68323 -13.7424 14.7976
H -6.79083 -14.0878 13.6485
O -14.6918 -4.88723 -9.01866
H -13.8346 -4.43267 -8.77657
H -14.5175 -5.57254 -9.72576
O 5.80367 5.52206 1.51942
H 4.90556 5.41635 1.09252
H 6.51765 5.35561 0.839325
O 7.08384 -6.36934 4.97708
H 7.87565 -6.36062 5.5878
H 6.28336 -6.02007 5.46417
O 1.85959 1.21631 -3.94368
H 0.96265 1.52767 -3.62975
H 1.77642 0.834198 -4.86405
O -10.4749 -6.85969 7.19587
H -10.9486 -6.64909 6.34077
H -10.0424 -7.7585 7.12467
O -8.2885 -7.65869 -3.90979
H -9.2749 -7.6629 -3.74547
H -8.10972 -7.39739 -4.85835
O -9.71404 6.37384 0.922295
H -10.6942 6.18249 0.974258
H -9.33831 5.96525 0.0904979
O 13.4932 -5.66162 -12.6836
H 13.0921 -6.2239 -11.9604
H 12.9432 -5.74517 -13.5145
O -6.90285 8.44217 -14.8969
H -6.9731 7.60132 14.5061
H -7.01273 9.23249 14.44
O -9.69781 -8.06451 -7.34758
H -10.2522 -7.3989 -7.84721
H -9.88463 -8.98284 -7.69654
O 2.1089 -3.78987 -3.013
H 2.96489 -3.56457 -2.54767
H 1.67682 -2.94987 -3.3412
O 5.72299 1.65763 2.70202
H 5.0881 2.42969 2.73124
H 5.23496 0.81585 2.93276
O -4.82871 1.26409 -6.2236
H -5.26689 2.10789 -6.53345
H -5.34746 0.880182 -5.45972
O -10.9092 -14.3076 -2.2111
H -10.029 -13.8495 -2.08731
H -11.5275 -13.7095 -2.72109
O -3.97426 5.2169 11.5966
H -3.27864 4.69447 11.1034
H -4.82361 5.22222 11.0688
O -3.92454 -9.58281 -11.7958
H -4.03046 -9.31942 -12.7547
H -3.51374 -8.82697 -11.286
O -5.89374 -5.22168 12.8945
H -6.55839 -4.94879 12.199
H -5.09477 -5.62775 12.4509
O -3.28037 9.81489 -3.66901
H -3.60897 9.46694 -2.79096
H -3.60461 10.752 -3.79863
O -8.41471 -4.35158 -3.2832
H -9.2787 -4.76618 -3.56891
H -7.71769 -5.06284 -3.1922
O 8.77577 4.58999 4.31735
H 8.17224 5.30758 3.96975
H 9.27272 4.17443 3.55554
O -3.93412 -6.41716 10.9789
H -4.35843 -6.99493 10.2817
H -3.1925 -6.92033 11.4226
O -7.11114 3.32512 7.51159
H -7.85103 2.73675 7.83776
H -7.46946 4.24052 7.32812
O 1.9311 -6.65849 10.2574
H 1.99194 -7.48872 9.70332
H 2.5866 -6.71174 11.0107
O -0.781666 -13.7392 -7.01097
H -1.07087 -12.8191 -7.27531
H 0.198217 -13.8425 -7.18174
O 6.98676 -10.8043 4.48114
H 6.72143 -10.2446 3.69608
H 6.35792 -10.6338 5.23977
O -1.39763 -11.8659 8.84049
H -1.19965 -10.8978 8.68696
H -0.599938 -12.3084 9.25032
O -4.60839 -3.31966 -1.39969
H -4.58852 -3.77918 -2.28764
H -3.73223 -3.45207 -0.936186
O 0.558742 13.473 2.03418
H -0.221151 13.963 2.42372
H 1.00875 12.9396 2.7504
O 7.16145 -5.85501 1.18517
H 6.80748 -6.48413 1.87721
H 7.91687 -6.28962 0.69481
O -0.774469 1.71227 -3.63207
H -1.14078 2.64271 -3.64238
H -1.51463 1.06079 -3.7986
O -0.548326 -6.084 6.42938
H -0.958425 -6.99604 6.4265
H -1.18555 -5.43072 6.0205
O -8.03436 -3.52599 -5.8279
H -8.01847 -3.54267 -4.82816
H -8.65495 -2.80639 -6.13943
O 12.5321 3.01742 12.9226
H 11.9466 2.47131 12.3235
H 12.108 3.90914 13.0806
O -14.3502 9.70031 -7.33084
H -13.4965 9.24934 -7.07058
H -14.2349 10.6919 -7.27188
O 13.7927 -9.27397 14.0586
H 13.213 -9.35054 14.8699
H 14.6153 -8.75222 14.2847
O 13.7824 -7.31015 7.38254
H 14.1767 -7.93519 8.05624
H 13.4978 -7.8268 6.57502
O -11.6111 5.63953 7.77861
H -11.0998 6.07844 8.51754
H -11.8901 4.72295 8.06502
O -1.22569 4.78814 -5.71803
H -1.88022 5.24675 -5.11697
H -1.67163 4.01423 -6.1677
O -6.76495 6.06788 -5.35396
H -7.76215 5.99462 -5.36952
H -6.39529 5.77307 -6.23512
O -2.33997 -3.83207 0.038606
H -2.22363 -3.84404 1.03175
H -1.75934 -4.53424 -0.373499
O -6.25509 8.58133 -4.6719
H -6.62408 7.67716 -4.88713
H -5.77416 8.94375 -5.47025
O 3.83453 -7.60653 -0.933621
H 3.67994 -7.68618 -1.91839
H 4.41147 -8.3626 -0.624571
O 14.4135 -11.5689 -7.90841
H 14.0949 -11.74 -8.84075
H 13.9727 -10.7453 -7.55151
O -4.03101 -0.26646 4.63878
H -3.18772 -0.80022 4.70177
H -4.75368 -0.830828 4.23971
O -11.8009 9.11561 -9.91293
H -11.4976 8.47444 -9.20799
H -11.8478 10.0371 -9.52743
O -9.25269 12.1443 -9.75978
H -9.24302 12.0036 -10.7498
H -8.8696 11.3403 -9.30506
O 13.7033 3.13469 9.1638
H 14.3099 3.57054 9.82866
H 13.1805 3.83626 8.67951
O -9.2166 -3.62074 10.0059
H -8.83875 -2.74042 10.2927
H -9.76025 -3.49562 9.17598
O 1.65298 -8.65537 -14.8259
H 2.13866 -8.46629 -13.9725
H 2.17329 -9.31688 14.5736
O -2.23776 9.67274 13.369
H -2.87329 9.3161 14.0538
H -2.18175 10.6677 13.4525
O 10.8313 6.67303 -3.80978
H 11.1366 7.54171 -3.41962
H 9.83244 6.66077 -3.85533
O -7.7183 0.78208 -9.70077
H -8.37448 1.01449 -10.4187
H -7.94533 1.28437 -8.86641
O 6.86966 0.350236 11.8237
H 6.34756 0.642835 11.0226
H 6.42522 -0.443167 12.2397
O 8.68624 -5.43107 -14.8908
H 9.30004 -6.17817 14.7937
H 8.55701 -5.42977 -13.8992
O -6.10375 -0.697509 -12.3971
H -5.7251 -1.04035 -11.5374
H -6.74333 -1.3692 -12.771
O -0.547667 4.82173 13.2338
H -0.732829 5.46338 13.9781
H -1.04039 5.11176 12.4133
O 13.4094 0.524296 2.91713
H 12.8885 0.336123 3.74979
H 14.0754 -0.206645 2.76825
O 10.8925 -0.259281 8.90994
H 9.95463 0.0766111 8.82283
H 10.8823 -1.25427 9.00945
O 10.4643 6.09473 10.8748
H 11.3632 5.72071 10.6465
H 10.0407 5.53362 11.5859
O -4.87233 5.97789 -7.55179
H -4.85134 6.63235 -6.79597
H -4.06685 6.10996 -8.12951
O 3.71397 -1.13857 -5.96086
H 4.16385 -1.50448 -5.14617
H 3.04834 -0.443141 -5.69008
O 4.29923 0.841372 14.5421
H 3.45777 0.387876 14.8358
H 4.435 1.67313 -14.8593
O 10.9679 -4.23508 -11.7954
H 11.5429 -5.01565 -11.5504
H 11.3757 -3.39518 -11.4373
O -7.64095 7.37601 -9.90496
H -6.69502 7.67841 -10.0224
H -8.17756 7.64131 -10.706
O 6.63769 9.30264 -9.17657
H 6.33773 10.2411 -9.34757
H 5.87858 8.77411 -8.79653
O -12.9807 -9.9595 9.96881
H -13.3348 -10.435 9.16351
H -13.7269 -9.47351 10.4239
O -1.96435 -7.43965 12.4264
H -1.74497 -8.19613 13.0425
H -1.61941 -6.58426 12.8128
O 14.693 -1.93095 4.2512
H 14.1466 -1.41733 4.91269
H -14.3665 -1.4747 4.12018
O 4.94761 12.9617 5.36875
H 5.02143 13.2441 4.41228
H 4.78004 11.9769 5.41357
O -5.80108 -1.84845 3.30533
H -6.71077 -1.46373 3.14892
H -5.76643 -2.78003 2.94344
O 8.98454 -2.24291 3.59333
H 9.34451 -2.54023 4.47766
H 8.24893 -2.8578 3.30911
O 1.93117 12.619 -3.29844
H 2.7588 12.5898 -3.85897
H 2.09898 12.1494 -2.43164
O -8.85481 5.42937 -1.67441
H -8.99597 5.61656 -2.64654
H -8.68314 4.45282 -1.5445
O -9.92374 6.98632 -8.18427
H -10.6822 6.48837 -8.60467
H -9.10488 6.88543 -8.74934
O 2.53775 -5.05106 -9.89022
H 2.97311 -4.45538 -9.21521
H 3.23457 -5.60863 -10.3414
O 6.35236 8.87572 8.4737
H 7.31694 8.64177 8.35178
H 6.25064 9.87032 8.49439
O -5.52214 11.7721 -0.796998
H -4.6341 11.3892 -1.05153
H -6.24943 11.1536 -1.09451
O 12.9426 3.44667 5.47464
H 13.0972 4.15942 4.79046
H 12.4572 2.68032 5.05379
O 7.43472 -10.8028 -8.56054
H 6.79332 -11.4673 -8.94403
H 7.18065 -10.602 -7.61444
O 2.87436 -3.8109 12.9887
H 3.51027 -4.50988 12.6615
H 2.38847 -4.15264 13.7931
O 9.80856 1.82239 -3.70121
H 8.88884 1.96979 -3.33734
H 9.88722 2.26142 -4.59624
O -9.70265 1.88738 -13.5025
H -9.6028 1.06564 -12.9414
H -10.5182 2.38987 -13.2155
O 9.46339 -10.1674 1.68705
H 10.0164 -10.0343 2.50953
H 10.0531 -10.4527 0.931469
O 11.5257 9.70593 -10.9578
H 11.8711 10.6226 -11.1589
H 11.8015 9.44102 -10.0339
O 11.6203 -4.45148 11.8955
H 12.0857 -3.9443 12.6209
H 10.6322 -4.32262 11.9798
O 4.34666 6.07545 -11.6825
H 3.42732 6.42025 -11.4929
H 4.75035 5.72127 -10.839
O -7.03647 -10.1741 -5.82135
H -8.01078 -10.155 -5.59692
H -6.92377 -10.2075 -6.81442
O 3.24035 1.47801 11.2977
H 3.17619 1.40186 12.2927
H 2.52584 0.921236 10.874
O 9.13946 6.15546 -14.5663
H 8.64501 5.40261 -14.1318
H 8.66404 6.42766 14.5368
O 2.60747 -8.89809 8.94004
H 2.5675 -9.89639 8.98254
H 2.79654 -8.61176 8.00074
O 4.85956 -13.6016 3.69265
H 4.12326 -13.9264 4.28629
H 4.82152 -12.6043 3.62956
O -12.1268 1.68409 12.025
H -11.72 1.01427 12.6462
H -13.1127 1.73154 12.1853
O 10.2759 -8.8943 9.48856