LAMMPS data file via write_data, version 15 May 2015, timestep = 8008000

2611 atoms
6 atom types
1749 bonds
4 bond types
894 angles
3 angle types
44 dihedrals
3 dihedral types
10 impropers
1 improper types

-1.4976269176316926e+01 1.4976269176316926e+01 xlo xhi
-1.4976269176316926e+01 1.4976269176316926e+01 ylo yhi
-1.4976269176316926e+01 1.4976269176316926e+01 zlo zhi

Masses

1 15.9994
2 1.00794
3 12.0107
4 1.00794
5 12.0107
6 12.0107

Bond Coeffs # harmonic

1 1000 1
2 469 1.4
3 367 1.08
4 469 0.7

Angle Coeffs # harmonic

1 100 109.47
2 35 120
3 63 120

Dihedral Coeffs # opls

1 0 7.25 0 0
2 0 7.25 0 0
3 0 7.25 0 0

Improper Coeffs # cvff

1 2.5 -1 2

Atoms # full

557 186 2 4.0999999999999998e-01 -9.1020608169353956e+00 -1.0107469073543168e+01 -7.8998116673749976e+00 -2 1 3
1792 598 1 -8.1999999999999995e-01 -1.0195102438724032e+01 -6.1360645108903249e+00 -8.9620130239527640e+00 -3 0 2
1474 492 1 -8.1999999999999995e-01 -1.2603899710851712e+01 -9.1149339813577459e+00 -1.0465198036640302e+01 -1 1 3
1794 598 2 4.0999999999999998e-01 -1.1167344597782641e+01 -6.0043012372591402e+00 -9.1554718805990412e+00 -3 0 2
2534 845 2 4.0999999999999998e-01 -1.2456754751771877e+01 -1.0220640534530496e+01 -9.0766124281770324e+00 2 -2 -1
2535 845 2 4.0999999999999998e-01 -1.1372718072833862e+01 -1.0850576445133843e+01 -8.0302923960472228e+00 2 -2 -1
1987 663 1 -8.1999999999999995e-01 -1.2540933248257073e+01 -1.3103195693837822e+01 -1.0145443596107084e+01 3 -1 -1
1814 605 2 4.0999999999999998e-01 -1.1014564041124506e+01 -1.0762677890605104e+01 -1.2673970616649878e+01 -4 -4 1
2533 845 1 -8.1999999999999995e-01 -1.2346354026247454e+01 -1.0747934519549847e+01 -8.2341069700273692e+00 2 -2 -1
1475 492 2 4.0999999999999998e-01 -1.2545600235295359e+01 -9.6674837880391724e+00 -1.1296662162253028e+01 -1 1 3
1028 343 2 4.0999999999999998e-01 -1.3542389093871346e+01 -1.3590788587495531e+01 -1.3254291538612083e+01 1 3 0
1793 598 2 4.0999999999999998e-01 -9.6774646434956164e+00 -5.3531737044777969e+00 -9.3072314705472401e+00 -3 0 2
558 186 2 4.0999999999999998e-01 -9.1931526851959156e+00 -1.1154180286641040e+01 -9.1499469723822919e+00 -2 1 3
212 71 2 4.0999999999999998e-01 -1.4265254473409332e+01 -7.6595086626397748e+00 -1.3492841951893425e+01 0 1 -1
370 124 1 -8.1999999999999995e-01 -8.6760225131870019e+00 -1.1463494498066311e+01 -1.0783920962282984e+01 0 6 1
1476 492 2 4.0999999999999998e-01 -1.2798334000476897e+01 -8.1648571722446128e+00 -1.0709312850363034e+01 -1 1 3
371 124 2 4.0999999999999998e-01 -8.0442183054799621e+00 -1.0843390369201579e+01 -1.1249041399828402e+01 0 6 1
372 124 2 4.0999999999999998e-01 -9.3152903547492301e+00 -1.1848860183383959e+01 -1.1449407709308550e+01 0 6 1
1543 515 1 -8.1999999999999995e-01 -9.5968806239973592e+00 -8.3239473539903699e+00 -1.1405021406369395e+01 -3 0 -1
1545 515 2 4.0999999999999998e-01 -9.8236106585870324e+00 -8.2726504616095617e+00 -1.0432393618889963e+01 -3 0 -1
556 186 1 -8.1999999999999995e-01 -9.4147794064623174e+00 -1.1013516507257371e+01 -8.1849920408945511e+00 -2 1 3
1027 343 1 -8.1999999999999995e-01 -1.2800325478372997e+01 -1.4043084362134529e+01 -1.2759505928637012e+01 1 3 0
1813 605 1 -8.1999999999999995e-01 -1.1936537448116155e+01 -1.0385200436593450e+01 -1.2760679888014565e+01 -4 -4 1
1815 605 2 4.0999999999999998e-01 -1.2338237829702617e+01 -1.0682285862975695e+01 -1.3626947591076666e+01 -4 -4 1
213 71 2 4.0999999999999998e-01 -1.3469391231601408e+01 -8.7980212675296805e+00 -1.2634278542384195e+01 0 1 -1
1811 604 2 4.0999999999999998e-01 -1.0437697615265211e+01 -1.3449847669417283e+01 -1.2981582623839207e+01 -3 -3 4
1544 515 2 4.0999999999999998e-01 -8.6594492547360336e+00 -8.6554291645248895e+00 -1.1511721663337406e+01 -3 0 -1
1989 663 2 4.0999999999999998e-01 -1.3367242048475156e+01 -1.3635428505611543e+01 -9.9610943758613626e+00 3 -1 -1
1988 663 2 4.0999999999999998e-01 -1.2582210572563053e+01 -1.2239078121944447e+01 -9.6438065813600176e+00 3 -1 -1
1029 343 2 4.0999999999999998e-01 -1.2713474868027989e+01 -1.3640618258638497e+01 -1.1848176847390604e+01 1 3 0
2277 759 2 4.0999999999999998e-01 -1.3463538394756966e+01 -7.3863008733167286e+00 -8.4087053020934235e+00 -2 -4 -2
2468 823 2 4.0999999999999998e-01 -9.4634862575216303e+00 -7.4563316805909112e+00 -8.0700348495013241e+00 -1 0 0
1224 408 2 4.0999999999999998e-01 -7.7271768204941962e+00 -9.6982503867861354e+00 -1.4893233799349343e+01 -3 0 0
2285 762 2 4.0999999999999998e-01 -1.4792633521502145e+01 -1.2433722077878429e+01 -8.1322812228017050e+00 -4 0 1
1267 423 1 -8.1999999999999995e-01 -1.4664435356630138e+01 -1.3686241651125908e+01 -1.4582444901835583e+01 0 -1 2
627 209 2 4.0999999999999998e-01 -1.1037673682198045e+01 -1.4208243251704420e+01 -9.8832337262445549e+00 0 -1 1
1950 650 2 4.0999999999999998e-01 -9.6722651295348960e+00 -7.8670202052448044e+00 -1.3221031758445593e+01 -1 -1 0
2467 823 1 -8.1999999999999995e-01 -9.1391801862285238e+00 -8.3276384667419485e+00 -7.7016698734524294e+00 -1 0 0
322 108 1 -8.1999999999999995e-01 -1.2555833059041264e+01 -6.1262370916634996e+00 -1.0820882305315656e+01 -1 0 1
625 209 1 -8.1999999999999995e-01 -1.0456316319518661e+01 -1.4919416138638278e+01 -9.4878864709682489e+00 0 -1 1
1810 604 1 -8.1999999999999995e-01 -9.9758673932230657e+00 -1.2628499728656756e+01 -1.3316460364719156e+01 -3 -3 4
323 108 2 4.0999999999999998e-01 -1.3305102103738021e+01 -5.5055065174637701e+00 -1.1051819859523174e+01 -1 0 1
952 318 1 -8.1999999999999995e-01 -1.4344222161275917e+01 -6.4115478644760824e+00 -1.4663168916957989e+01 -3 -2 0
324 108 2 4.0999999999999998e-01 -1.2014591636071961e+01 -6.3147904230963015e+00 -1.1640362665774628e+01 -1 0 1
24 8 2 4.0999999999999998e-01 -1.1545524118118189e+01 -6.0062985284122217e+00 -1.3935916375509784e+01 -2 3 0
211 71 1 -8.1999999999999995e-01 -1.4237624723254696e+01 -8.1578680534232078e+00 -1.2626287139337933e+01 0 1 -1
2275 759 1 -8.1999999999999995e-01 -1.4457068785307754e+01 -7.4980842827709226e+00 -8.4297894898853727e+00 -2 -4 -2
1812 604 2 4.0999999999999998e-01 -1.0332914099284910e+01 -1.2390154672627292e+01 -1.4219650269746937e+01 -3 -3 4
626 209 2 4.0999999999999998e-01 -9.5628346733066323e+00 -1.4907323587311840e+01 -9.9368708846107321e+00 0 -1 1
22 8 1 -8.1999999999999995e-01 -1.2134989096946885e+01 -5.2582308016904218e+00 -1.3631009216346818e+01 -2 3 0
722 241 2 4.0999999999999998e-01 -8.6518769795390167e+00 -6.0759793918027079e+00 -1.4148048328720053e+01 -1 2 1
1949 650 2 4.0999999999999998e-01 -1.0425622265559769e+01 -8.0461137813700017e+00 -1.4658779614313996e+01 -1 -1 0
1223 408 2 4.0999999999999998e-01 -7.7960643709321973e+00 -8.1223949258433841e+00 -1.4470534803852681e+01 -3 0 0
1948 650 1 -8.1999999999999995e-01 -9.6387107392601106e+00 -7.6398016837030678e+00 -1.4194319259794391e+01 -1 -1 0
53 18 2 4.0999999999999998e-01 -8.6856474446971266e+00 -1.1692515522800242e+01 -1.4428825612984239e+01 2 1 1
2276 759 2 4.0999999999999998e-01 -1.4885512358930919e+01 -6.7739179717523861e+00 -7.8893618855455321e+00 -2 -4 -2
954 318 2 4.0999999999999998e-01 -1.3658292659372210e+01 -5.9198249240035068e+00 -1.4126743742444178e+01 -3 -2 0
721 241 1 -8.1999999999999995e-01 -7.9948514259503396e+00 -5.3324255131725433e+00 -1.4272498113297113e+01 -1 2 1
1269 423 2 4.0999999999999998e-01 -1.3965123593229780e+01 -1.4316672738051668e+01 -1.4919435126335799e+01 0 -1 2
716 239 2 4.0999999999999998e-01 -7.1193848178377896e+00 -1.4935105850982954e+01 -9.9880181741284488e+00 -1 0 0
2228 743 2 4.0999999999999998e-01 -1.3242813123001902e+00 -9.7293707873413577e+00 -1.0664889151529362e+01 -1 2 0
770 257 2 4.0999999999999998e-01 -4.7696741877583371e-01 -1.4087263465876337e+01 -1.2471641506508664e+01 1 1 -1
430 144 1 -8.1999999999999995e-01 -2.7979714859694518e+00 -1.4536589760696144e+01 -1.4770700556996927e+01 -4 3 3
1607 536 2 4.0999999999999998e-01 -4.0127066272677858e-01 -6.2670921952972733e+00 -1.1778399411103386e+01 3 -2 1
1983 661 2 4.0999999999999998e-01 -2.0841520623475667e+00 -5.0900730930318421e+00 -7.7629943549246878e+00 2 -1 1
2329 777 1 -8.1999999999999995e-01 -2.9970059019562143e+00 -1.2070035719830237e+01 -1.1164258292930985e+01 -1 0 -2
1134 378 2 4.0999999999999998e-01 -6.2720033181345993e+00 -9.4667641862566683e+00 -1.1354543188311943e+01 -3 -4 -1
1132 378 1 -8.1999999999999995e-01 -7.0649144741225349e+00 -9.2236811670774834e+00 -1.1913332300916956e+01 -3 -4 -1
1498 500 1 -8.1999999999999995e-01 -5.5950937085217820e+00 -1.4207999372964780e+01 -1.4188653426582793e+01 -2 -3 -2
391 131 1 -8.1999999999999995e-01 -5.8045356474093737e+00 -1.2273782304413867e+01 -1.2072161069541741e+01 -3 1 2
2330 777 2 4.0999999999999998e-01 -2.5355623992731342e+00 -1.1403450740316341e+01 -1.0578786640319191e+01 -1 0 -2
1825 609 1 -8.1999999999999995e-01 -4.7779181583064894e+00 -9.5187687885486092e+00 -1.0577325709884814e+01 0 -1 0
671 224 2 4.0999999999999998e-01 -4.7235720461832837e+00 -6.4990430244409101e+00 -8.8207458695201630e+00 -2 -1 -1
1861 621 1 -8.1999999999999995e-01 -5.3275588195301573e+00 -6.1216157720727633e+00 -1.1907977329024408e+01 -4 1 1
1584 528 2 4.0999999999999998e-01 -2.6919061854712147e+00 -8.3808019837516490e+00 -1.4197043392467572e+01 3 2 4
1133 378 2 4.0999999999999998e-01 -6.8435178398083139e+00 -9.3524061564242960e+00 -1.2880005002425818e+01 -3 -4 -1
1152 384 2 4.0999999999999998e-01 -2.4615490982116945e+00 -7.8207492864014316e+00 -1.2059948444752504e+01 1 -2 1
90 30 2 4.0999999999999998e-01 -4.9969853104263660e+00 -1.3477616480057726e+01 -9.1333561972225041e+00 -1 1 1
2229 743 2 4.0999999999999998e-01 -1.5097043415442677e+00 -1.0116518863987750e+01 -9.0893019640214803e+00 -1 2 0
670 224 1 -8.1999999999999995e-01 -5.6059977233478779e+00 -6.9621131567834773e+00 -8.7374774354323606e+00 -2 -1 -1
672 224 2 4.0999999999999998e-01 -6.3208141041454748e+00 -6.2869795294431583e+00 -8.5550635522216716e+00 -2 -1 -1
89 30 2 4.0999999999999998e-01 -4.5574034614013392e+00 -1.4863094073306156e+01 -9.8776410636260561e+00 -1 1 1
2496 832 2 4.0999999999999998e-01 -2.4221397734257248e+00 -6.0538092974069055e+00 -1.1048133732894687e+01 -3 0 0
1025 342 2 4.0999999999999998e-01 -2.3756447671359311e+00 -1.1855447755131646e+01 -1.3110373871726175e+01 -1 4 1
88 30 1 -8.1999999999999995e-01 -5.3259935172275945e+00 -1.4261470740462567e+01 -9.6600143500111137e+00 -1 1 1
2227 743 1 -8.1999999999999995e-01 -1.9899647308642141e+00 -9.9343169320312477e+00 -9.9473200698743156e+00 -1 2 0
1150 384 1 -8.1999999999999995e-01 -2.7582351910220613e+00 -8.6677477572564321e+00 -1.2501098851703361e+01 1 -2 1
1151 384 2 4.0999999999999998e-01 -3.3667503613061598e+00 -9.1686974514048742e+00 -1.1885630418694189e+01 1 -2 1
2495 832 2 4.0999999999999998e-01 -2.6993672991409259e+00 -6.6055530645169043e+00 -9.5363585840484042e+00 -3 0 0
1024 342 1 -8.1999999999999995e-01 -1.8739037713606290e+00 -1.1248576168097937e+01 -1.3726819764478435e+01 -1 4 1
1500 500 2 4.0999999999999998e-01 -6.2262162691632383e+00 -1.3717560529950466e+01 -1.3587656973314783e+01 -2 -3 -2
392 131 2 4.0999999999999998e-01 -4.9384352112230356e+00 -1.2009709275667221e+01 -1.1647687079979272e+01 -3 1 2
393 131 2 4.0999999999999998e-01 -6.4790749137853876e+00 -1.2468416633406813e+01 -1.1360011531844229e+01 -3 1 2
1862 621 2 4.0999999999999998e-01 -4.5309195565126625e+00 -6.1039500520917152e+00 -1.1303745164571069e+01 -4 1 1
1026 342 2 4.0999999999999998e-01 -2.1233837402840479e+00 -1.0299171754811436e+01 -1.3535943662730677e+01 -1 4 1
1826 609 2 4.0999999999999998e-01 -5.0084551269973385e+00 -8.8091430506844866e+00 -9.9114978878249733e+00 0 -1 0
1863 621 2 4.0999999999999998e-01 -5.8436927840805968e+00 -6.9642873496987683e+00 -1.1754507341922567e+01 -4 1 1
431 144 2 4.0999999999999998e-01 -3.6932680627397740e+00 -1.4110021133101641e+01 -1.4642147469910244e+01 -4 3 3
1222 408 1 -8.1999999999999995e-01 -7.1930573074962796e+00 -8.8618621041625651e+00 -1.4769889916801150e+01 -3 0 0
2331 777 2 4.0999999999999998e-01 -2.5875632926770429e+00 -1.2972314814161159e+01 -1.1029010778856849e+01 -1 0 -2
2494 832 1 -8.1999999999999995e-01 -2.8841024411403868e+00 -6.7568700886751465e+00 -1.0507450135096679e+01 -3 0 0
1827 609 2 4.0999999999999998e-01 -3.8702941495287799e+00 -9.8854599843847843e+00 -1.0372878008823818e+01 0 -1 0
2519 840 2 4.0999999999999998e-01 -3.3840272751889344e-01 -6.9331314812035636e+00 -8.1915909698693259e+00 -2 -1 1
2281 761 1 -8.1999999999999995e-01 -3.5533875055049080e-01 -1.0610343763061614e+01 -7.8077605724782657e+00 -3 1 -4
1981 661 1 -8.1999999999999995e-01 -2.7349501440392103e+00 -5.8484398972163572e+00 -7.8002015306885450e+00 2 -1 1
771 257 2 4.0999999999999998e-01 -1.8119596423502831e+00 -1.4407983771068938e+01 -1.3355765123510240e+01 1 1 -1
769 257 1 -8.1999999999999995e-01 -1.4004993885529906e+00 -1.4470010812310095e+01 -1.2446426997720803e+01 1 1 -1
649 217 1 -8.1999999999999995e-01 -3.9511901323190397e+00 -1.3248628811659517e+01 -7.5495940023050219e+00 0 2 2
1790 597 2 4.0999999999999998e-01 -1.4743877994274973e+01 -6.7782116888422834e+00 -2.5059362350487131e+00 0 0 2
2215 739 1 -8.1999999999999995e-01 -8.3689400108275009e+00 -5.3063135772166170e+00 -4.3773154363638813e+00 0 -4 3
182 61 2 4.0999999999999998e-01 -1.0269451176669619e+01 -9.4864440020998710e+00 -3.3310642009867824e+00 0 2 2
181 61 1 -8.1999999999999995e-01 -9.4245505361771844e+00 -9.5990721218873833e+00 -2.8080914264198462e+00 0 2 2
183 61 2 4.0999999999999998e-01 -9.3118634332539472e+00 -8.8243142747577537e+00 -2.1859221698511391e+00 0 2 2
1789 597 1 -8.1999999999999995e-01 -1.4475627063123076e+01 -7.3746736834002409e+00 -3.2624527176097669e+00 0 0 2
158 53 2 4.0999999999999998e-01 -1.1594044422764433e+01 -1.3500424233031440e+01 -7.0427752536554955e-01 -2 -1 2
1303 435 1 -8.1999999999999995e-01 -1.1978864265390039e+01 -8.5193307323807446e+00 -3.9379678983809203e+00 -1 -1 -1
186 62 2 4.0999999999999998e-01 -1.2464527744469271e+01 -8.6693098832336872e+00 -7.4052025268750095e+00 -4 -2 1
1305 435 2 4.0999999999999998e-01 -1.1752572304106552e+01 -8.3446660645097843e+00 -4.8962616486942672e+00 -1 -1 -1
1642 548 1 -8.1999999999999995e-01 -1.1959477632327275e+01 -8.1445399668259810e+00 -9.5217556271084014e-01 0 2 2
184 62 1 -8.1999999999999995e-01 -1.1792582830974734e+01 -8.0661476657851807e+00 -6.9754024771621967e+00 -4 -2 1
1560 520 2 4.0999999999999998e-01 -9.7443432410438326e+00 -1.2712202306005754e+01 -4.8937917187094033e+00 0 -3 -1
1304 435 2 4.0999999999999998e-01 -1.2721420672951247e+01 -7.9122962684558935e+00 -3.6548392553369009e+00 -1 -1 -1
1460 487 2 4.0999999999999998e-01 -7.5614941816562320e+00 -1.1995165750686029e+01 -2.0571843547749040e+00 0 3 1
2210 737 2 4.0999999999999998e-01 -1.1298951079522205e+01 -6.7234300428654006e+00 -5.8025978392751085e+00 1 -2 0
1558 520 1 -8.1999999999999995e-01 -1.0128332921115868e+01 -1.2944493420661678e+01 -5.7874557596879121e+00 0 -3 -1
2286 762 2 4.0999999999999998e-01 -1.3730129100962907e+01 -1.1704368703889328e+01 -7.1293513337958530e+00 -4 0 1
2284 762 1 -8.1999999999999995e-01 -1.4355670096814363e+01 -1.2477558092071236e+01 -7.2338469796401386e+00 -4 0 1
2152 718 1 -8.1999999999999995e-01 -1.2370811893397896e+01 -5.2667950353314410e+00 -2.8725366304364126e+00 1 2 3
1643 548 2 4.0999999999999998e-01 -1.2880102934776648e+01 -8.4337719265431090e+00 -6.8980819677394756e-01 0 2 2
405 135 2 4.0999999999999998e-01 -1.3790432042089007e+01 -1.2908893836423786e+01 -2.9816412625594513e+00 0 1 2
511 171 1 -8.1999999999999995e-01 -1.4847437339080432e+01 -1.0059777876260744e+01 -2.0584687076675365e+00 2 -3 -2
2469 823 2 4.0999999999999998e-01 -8.2252305369685264e+00 -8.2062761285627950e+00 -7.3143587493968516e+00 -1 0 0
1644 548 2 4.0999999999999998e-01 -1.1807627652510625e+01 -8.3520559150242413e+00 -1.9185716535160449e+00 0 2 2
513 171 2 4.0999999999999998e-01 -1.4542755081890567e+01 -9.9410697062422386e+00 -1.1134185627961397e+00 2 -3 -2
2154 718 2 4.0999999999999998e-01 -1.1664875404839028e+01 -5.3390399428906683e+00 -2.1679253507595089e+00 1 2 3
1174 392 1 -8.1999999999999995e-01 -7.6091509288383650e+00 -1.2929854317463130e+01 -3.5146041798837935e+00 -2 -2 0
2419 807 1 -8.1999999999999995e-01 -9.8042471060261001e+00 -1.4335076910269306e+01 -2.1711017086969520e+00 2 1 -2
2328 776 2 4.0999999999999998e-01 -1.2698546211042398e+01 -1.4031302064329829e+01 -4.0354630551123165e+00 0 -2 -1
1857 619 2 4.0999999999999998e-01 -7.6276920940085127e+00 -1.0167306557037371e+01 -3.9772885085463230e+00 0 0 -1
2326 776 1 -8.1999999999999995e-01 -1.2458182128904847e+01 -1.4277774300021614e+01 -3.0965704854122205e+00 0 -2 -1
1461 487 2 4.0999999999999998e-01 -8.3556020280779144e+00 -1.0625324041203374e+01 -1.6576010943859121e+00 0 3 1
2209 737 1 -8.1999999999999995e-01 -1.0857147343562328e+01 -5.9002882690624610e+00 -5.4458209082313687e+00 1 -2 0
2153 718 2 4.0999999999999998e-01 -1.1975633447249685e+01 -5.4877973279384964e+00 -3.7641837907547409e+00 1 2 3
2327 776 2 4.0999999999999998e-01 -1.1464097873919075e+01 -1.4255229203947367e+01 -2.9901237322949274e+00 0 -2 -1
1570 524 1 -8.1999999999999995e-01 -1.3401858221678260e+01 -1.4481696036178215e+01 -5.6699897419115679e+00 -1 1 3
1571 524 2 4.0999999999999998e-01 -1.3711014741042296e+01 -1.3761385082780730e+01 -6.2909704970265157e+00 -1 1 3
512 171 2 4.0999999999999998e-01 -1.4454508125497268e+01 -9.3381716540444515e+00 -2.6284982998948312e+00 2 -3 -2
1459 487 1 -8.1999999999999995e-01 -7.6395484455552731e+00 -1.1265078028230679e+01 -1.3782718612058282e+00 0 3 1
1559 520 2 4.0999999999999998e-01 -9.7450155953231139e+00 -1.2336871306225706e+01 -6.4830892122757131e+00 0 -3 -1
403 135 1 -8.1999999999999995e-01 -1.4645679249510641e+01 -1.2562289180321647e+01 -2.5963360188805762e+00 0 1 2
2421 807 2 4.0999999999999998e-01 -9.2537987592795030e+00 -1.3757345112179758e+01 -2.7738249447510395e+00 2 1 -2
2211 737 2 4.0999999999999998e-01 -1.1148888045357959e+01 -5.1070695360029728e+00 -5.9803618913240975e+00 1 -2 0
240 80 2 4.0999999999999998e-01 -8.3195505209856613e+00 -6.9688067016787478e+00 -8.9441138972052059e-01 -2 0 -2
863 288 2 4.0999999999999998e-01 -1.4915732263221480e+01 -5.0850064312003393e+00 -6.2882051083092225e+00 -1 1 2
185 62 2 4.0999999999999998e-01 -1.0873124608767959e+01 -8.3301364755751344e+00 -7.2668629508965621e+00 -4 -2 1
2216 739 2 4.0999999999999998e-01 -9.1738364139586484e+00 -5.6165186405631253e+00 -4.8832376817323997e+00 0 -4 3
238 80 1 -8.1999999999999995e-01 -8.1826275044713448e+00 -7.9217653437980964e+00 -1.1649009474691265e+00 -2 0 -2
1389 463 2 4.0999999999999998e-01 -7.6707574840729853e+00 -7.8286962784082670e+00 -3.0394941941123008e+00 -2 0 0
404 135 2 4.0999999999999998e-01 -1.4515630281156499e+01 -1.1618868488482764e+01 -2.2912337710427213e+00 0 1 2
1085 362 2 4.0999999999999998e-01 -1.3924790091511577e+01 -5.0450165126466526e+00 -4.0529041811715860e+00 -1 2 -2
1147 383 1 -8.1999999999999995e-01 -1.6549672879894235e+00 -1.3067062713837359e+01 -1.0930427107714991e+00 2 -1 5
1176 392 2 4.0999999999999998e-01 -7.2358479022078859e+00 -1.2181132276205345e+01 -4.0624206133314704e+00 -2 -2 0
1175 392 2 4.0999999999999998e-01 -6.8789873259119556e+00 -1.3575572706358216e+01 -3.2911056669150405e+00 -2 -2 0
1982 661 2 4.0999999999999998e-01 -2.8786387474254216e+00 -6.2098660997152297e+00 -6.8789157920337463e+00 2 -1 1
2018 673 2 4.0999999999999998e-01 -4.9089011209816960e+00 -1.4143300693806117e+01 -2.7058321383385646e+00 3 -3 1
443 148 2 4.0999999999999998e-01 -5.8200100778149100e-01 -7.7802509563883557e+00 -6.1342407787213027e+00 -2 -3 -1
1855 619 1 -8.1999999999999995e-01 -7.0229071612079643e+00 -1.0517807043140696e+01 -4.6924299658945632e+00 0 0 -1
2017 673 1 -8.1999999999999995e-01 -5.6336656933597045e+00 -1.4829858488640861e+01 -2.7641196232491705e+00 3 -3 1
2282 761 2 4.0999999999999998e-01 -9.7768904875997897e-01 -1.1306100378656772e+01 -7.4490886771116775e+00 -3 1 -4
2343 781 2 4.0999999999999998e-01 -6.2160925365990618e+00 -7.6896490485516518e+00 -7.1739571127578179e+00 -3 -1 2
84 28 2 4.0999999999999998e-01 -1.4785570013581406e+00 -5.6120170925472834e+00 -2.8092635383130968e+00 -1 1 1
1148 383 2 4.0999999999999998e-01 -9.5839715343714182e-01 -1.3686621569682973e+01 -7.3113173790077290e-01 2 -1 5
2283 761 2 4.0999999999999998e-01 -4.9234951005990091e-01 -9.7529444683948476e+00 -7.3116384013901570e+00 -3 1 -4
419 140 2 4.0999999999999998e-01 -4.4854401295382367e+00 -1.2231964305364096e+01 -1.0991750188249068e+00 -1 3 0
2190 730 2 4.0999999999999998e-01 -2.1024050981462317e-01 -9.2044308306462383e+00 -2.2401765205809969e+00 -2 3 1
650 217 2 4.0999999999999998e-01 -4.5649357665548056e+00 -1.3202022362043310e+01 -6.7614399330306885e+00 0 2 2
1149 383 2 4.0999999999999998e-01 -2.1938975037288557e+00 -1.2693839459143435e+01 -3.3785972654436591e-01 2 -1 5
1254 418 2 4.0999999999999998e-01 -2.9554136463074538e+00 -1.4078366099938727e+01 -5.7125719683729397e+00 -4 -5 0
651 217 2 4.0999999999999998e-01 -3.0210245700180778e+00 -1.3020751054034143e+01 -7.2616591777897641e+00 0 2 2
601 201 1 -8.1999999999999995e-01 -4.2624022792357046e+00 -6.7383283551080115e+00 -2.3148117767794965e+00 -1 -1 0
1425 475 2 4.0999999999999998e-01 -1.0206290888889686e+00 -1.1751192218701844e+01 -1.9664872235886897e+00 -2 0 -1
1423 475 1 -8.1999999999999995e-01 -6.1775586207392230e-01 -1.1021428741107172e+01 -2.5189192435142935e+00 -2 0 -1
1856 619 2 4.0999999999999998e-01 -7.0716474987468487e+00 -9.9201040689208426e+00 -5.4926913309319900e+00 0 0 -1
706 236 1 -8.1999999999999995e-01 -7.4060588322738345e+00 -5.0838429642339058e+00 -1.8361941172898710e-01 -2 2 -1
2554 852 1 -8.1999999999999995e-01 -2.5916026788671083e+00 -9.5620158299501661e+00 -4.4793246383417618e+00 2 1 -3
134 45 2 4.0999999999999998e-01 -5.2599397143536049e+00 -9.1922934323617831e+00 -1.2010489688668819e+00 0 0 -1
2189 730 2 4.0999999999999998e-01 -2.5483247237715823e-01 -7.5838422276657846e+00 -2.4362491668308941e+00 -2 3 1
2556 852 2 4.0999999999999998e-01 -3.3949363512344046e+00 -1.0155027727175042e+01 -4.5344117049417161e+00 2 1 -3
461 154 2 4.0999999999999998e-01 -4.3068028879236468e+00 -6.0599654827389244e+00 -4.8790212796405097e+00 -3 1 0
1424 475 2 4.0999999999999998e-01 -1.5683401339560454e-01 -1.1419544912301927e+01 -3.3120757589720640e+00 -2 0 -1
279 93 2 4.0999999999999998e-01 -1.1669391370798863e+00 -1.2789167026188853e+01 -5.6086757913186069e+00 1 3 -1
602 201 2 4.0999999999999998e-01 -5.1498765540249014e+00 -7.1328339042057411e+00 -2.5531339759061993e+00 -1 -1 0
1388 463 2 4.0999999999999998e-01 -7.3589557336914275e+00 -6.4718442247163761e+00 -3.8930002275964828e+00 -2 0 0
2341 781 1 -8.1999999999999995e-01 -6.6692408110804013e+00 -8.1374593294938400e+00 -6.4031359469751425e+00 -3 -1 2
603 201 2 4.0999999999999998e-01 -4.3988671246232407e+00 -5.9442253145055481e+00 -1.7225108220458978e+00 -1 -1 0
353 118 2 4.0999999999999998e-01 -2.2534696668670922e+00 -5.0837190707687743e+00 -4.7867766257795132e+00 -1 0 1
239 80 2 4.0999999999999998e-01 -7.2921832687234769e+00 -8.2368354539626267e+00 -8.3644610517050566e-01 -2 0 -2
277 93 1 -8.1999999999999995e-01 -1.9368547355239336e+00 -1.2420806881842115e+01 -6.1298124983783424e+00 1 3 -1
2555 852 2 4.0999999999999998e-01 -1.8092839485331460e+00 -1.0090356416252744e+01 -4.1493604938291409e+00 2 1 -3
359 120 2 4.0999999999999998e-01 -1.6005765059157895e+00 -5.6432161470948170e+00 -3.7456247516828434e-01 -1 -4 4
460 154 1 -8.1999999999999995e-01 -3.4303723117673748e+00 -6.4117794654909037e+00 -5.2078663367952043e+00 -3 1 0
82 28 1 -8.1999999999999995e-01 -1.5309394726637873e+00 -6.3165291070182157e+00 -2.1014771602958877e+00 -1 1 1
1387 463 1 -8.1999999999999995e-01 -6.9797968673112383e+00 -7.3397245411978220e+00 -3.5719627631659510e+00 -2 0 0
462 154 2 4.0999999999999998e-01 -3.3013162396534579e+00 -7.3467187650622741e+00 -4.8772975316084164e+00 -3 1 0
418 140 1 -8.1999999999999995e-01 -4.2470303389702888e+00 -1.2720809680890714e+01 -1.9383613240862392e+00 -1 3 0
133 45 1 -8.1999999999999995e-01 -5.5846194401933449e+00 -8.7728907538595564e+00 -3.5327119029415499e-01 0 0 -1
83 28 2 4.0999999999999998e-01 -2.4626005635421908e+00 -6.6773865613193255e+00 -2.0586727788629169e+00 -1 1 1
278 93 2 4.0999999999999998e-01 -2.5066341666664371e+00 -1.1858674356533800e+01 -5.5303117746562318e+00 1 3 -1
1318 440 1 -8.1999999999999995e-01 -4.3414294611805566e+00 -1.1682718678252721e+01 -4.5766045318191875e+00 -3 -3 -3
1319 440 2 4.0999999999999998e-01 -5.2923680675648210e+00 -1.1413604843267100e+01 -4.7293664155386299e+00 -3 -3 -3
442 148 1 -8.1999999999999995e-01 -1.2766454918579306e+00 -8.2476646271804661e+00 -6.6810828124471726e+00 -2 -3 -1
1839 613 2 4.0999999999999998e-01 -6.1745621616267830e+00 -1.1739478173635996e+01 -2.1352518435586632e-01 0 1 -1
1320 440 2 4.0999999999999998e-01 -4.2396828953301480e+00 -1.2033315528713969e+01 -3.6455985435380303e+00 -3 -3 -3
2342 781 2 4.0999999999999998e-01 -6.4984829367963464e+00 -7.6157661909949805e+00 -5.5672407878279095e+00 -3 -1 2
420 140 2 4.0999999999999998e-01 -3.2544710789289386e+00 -1.2831757102563905e+01 -1.9889525483962860e+00 -1 3 0
444 148 2 4.0999999999999998e-01 -1.8853908204557897e+00 -8.7624318917926907e+00 -6.0773556525585430e+00 -2 -3 -1
615 205 2 4.0999999999999998e-01 -1.4882067324157720e+01 -1.1832544199063701e+01 8.5205918780734002e-01 -3 -2 -2
500 167 2 4.0999999999999998e-01 -1.0851506756925733e+01 -6.1153637675228047e+00 6.5595128669053828e+00 1 -2 3
1169 390 2 4.0999999999999998e-01 -9.5224361011451748e+00 -1.3658701518647296e+01 2.4834619092198906e+00 1 3 -1
1631 544 2 4.0999999999999998e-01 -1.3078971332629427e+01 -9.2404100602946642e+00 6.8117014269247242e+00 0 3 -2
1630 544 1 -8.1999999999999995e-01 -1.2139028870073005e+01 -9.4338803950987824e+00 7.0929843947481857e+00 0 3 -2
2582 861 2 4.0999999999999998e-01 -1.1711867566895014e+01 -1.1564673118896144e+01 6.7774212281428241e+00 -1 3 1
1546 516 1 -8.1999999999999995e-01 -1.4356465091349277e+01 -8.9095153578381883e+00 4.2491065754431112e-01 -1 -2 -1
2087 696 2 4.0999999999999998e-01 -1.3715551491464476e+01 -5.6901557671417873e+00 5.1553338931019752e+00 0 0 -2
1492 498 1 -8.1999999999999995e-01 -1.4044095958350070e+01 -6.4592637887970810e+00 3.2309600513702605e+00 3 3 3
1493 498 2 4.0999999999999998e-01 -1.3686035596263707e+01 -7.3870327038772201e+00 3.3362229141279016e+00 3 3 3
808 270 1 -8.1999999999999995e-01 -1.2329370177058280e+01 -8.6523834750151956e+00 3.8922459982016875e+00 0 2 0
1168 390 1 -8.1999999999999995e-01 -9.0251900968918051e+00 -1.3118656898147686e+01 1.8043883217828380e+00 1 3 -1
1494 498 2 4.0999999999999998e-01 -1.4006797389756590e+01 -6.1949335756135167e+00 2.2672271727297897e+00 3 3 3
1411 471 1 -8.1999999999999995e-01 -1.1225061849877886e+01 -8.7188584574455241e+00 1.5741735222944939e+00 0 0 4
1105 369 1 -8.1999999999999995e-01 -1.4499765494732607e+01 -8.5249365810380802e+00 6.2605180011322545e+00 1 0 2
2086 696 1 -8.1999999999999995e-01 -1.3644159485603527e+01 -5.8523050138773147e+00 6.1395358432778089e+00 0 0 -2
169 57 1 -8.1999999999999995e-01 -1.0611873398569948e+01 -7.4687912488306676e+00 5.7195392269481751e+00 -2 -3 1
809 270 2 4.0999999999999998e-01 -1.2837664651438727e+01 -9.4575106602985350e+00 4.1979411249132816e+00 0 2 0
2581 861 1 -8.1999999999999995e-01 -1.1425895003653189e+01 -1.2080324696584370e+01 5.9697295656251832e+00 -1 3 1
170 57 2 4.0999999999999998e-01 -1.1299187731052140e+01 -7.6896349584366224e+00 5.0275350472891382e+00 -2 -3 1
2583 861 2 4.0999999999999998e-01 -1.0728206079850207e+01 -1.2747743856100115e+01 6.2301608400773887e+00 -1 3 1
695 232 2 4.0999999999999998e-01 -1.2475584435302563e+01 -1.2092048882803320e+01 4.6320877466528749e+00 0 -2 -1
589 197 1 -8.1999999999999995e-01 -8.5277409764017555e+00 -8.5432877072909257e+00 4.3116231602402806e+00 1 -1 1
810 270 2 4.0999999999999998e-01 -1.1806748299934807e+01 -8.8802593850613647e+00 3.0706733091609877e+00 0 2 0
171 57 2 4.0999999999999998e-01 -9.7134551073500930e+00 -7.7778918874622960e+00 5.4075391238743045e+00 -2 -3 1
694 232 1 -8.1999999999999995e-01 -1.3161144291861397e+01 -1.1782262343971560e+01 3.9732382413529095e+00 0 -2 -1
696 232 2 4.0999999999999998e-01 -1.3996642138135622e+01 -1.1523816346734716e+01 4.4582039315938538e+00 0 -2 -1
591 197 2 4.0999999999999998e-01 -9.2322293540653781e+00 -9.2173722657231920e+00 4.0894771443588347e+00 1 -1 1
2095 699 1 -8.1999999999999995e-01 -9.7454544569677566e+00 -1.1201163969377852e+01 3.8138113267894624e+00 0 0 -1
2096 699 2 4.0999999999999998e-01 -9.8332514079259941e+00 -1.1599585641480340e+01 2.9007973241945741e+00 0 0 -1
790 264 1 -8.1999999999999995e-01 -1.0514912961624992e+01 -1.4863556326984574e+01 3.4819684110589471e+00 -1 4 1
792 264 2 4.0999999999999998e-01 -1.1463249045408356e+01 -1.4679950760152934e+01 3.7407934028203016e+00 -1 4 1
1349 450 2 4.0999999999999998e-01 -1.0618596597165386e+01 -5.5476517745814142e+00 2.0384298533068943e+00 0 -3 2
1217 406 2 4.0999999999999998e-01 -8.0475063784304375e+00 -9.7783969428925204e+00 1.5508486340671155e+00 0 0 -1
2097 699 2 4.0999999999999998e-01 -1.0470861143491801e+01 -1.1556156115808196e+01 4.4035641048874261e+00 0 0 -1
1350 450 2 4.0999999999999998e-01 -9.9426017338991670e+00 -7.0341085798992973e+00 2.0531762022500324e+00 0 -3 2
2088 696 2 4.0999999999999998e-01 -1.2760943097192051e+01 -5.5186218371521178e+00 6.4691220370315214e+00 0 0 -2
1348 450 1 -8.1999999999999995e-01 -9.7551971485676887e+00 -6.0521158844183756e+00 2.0284264062218504e+00 0 -3 2
2223 741 2 4.0999999999999998e-01 -7.6034137292113542e+00 -7.1650232000473553e+00 4.8588190948952423e+00 -2 -2 1
1316 439 2 4.0999999999999998e-01 -1.3416669898196762e+01 -1.1229223831026191e+01 2.1894058026280518e+00 0 3 -4
499 167 1 -8.1999999999999995e-01 -1.1000145093215574e+01 -5.2046826102945083e+00 6.9450114826279687e+00 1 -2 3
2351 784 2 4.0999999999999998e-01 -1.1260730607927218e+01 -1.4940171877025938e+01 6.5813846040579662e+00 0 -1 -1
2101 701 1 -8.1999999999999995e-01 -8.0436805635693638e+00 -1.3999380542468229e+01 5.5477858001656024e+00 -1 0 -2