LAMMPS data file via write_data, version 15 May 2015, timestep = 23005000

2611 atoms
6 atom types
1749 bonds
4 bond types
894 angles
3 angle types
44 dihedrals
3 dihedral types
10 impropers
1 improper types

-1.5037778485882418e+01 1.5037778485882418e+01 xlo xhi
-1.5037778485882418e+01 1.5037778485882418e+01 ylo yhi
-1.5037778485882418e+01 1.5037778485882418e+01 zlo zhi

Masses

1 15.9994
2 1.00794
3 12.0107
4 1.00794
5 12.0107
6 12.0107

Bond Coeffs # harmonic

1 1000 1
2 469 1.4
3 367 1.08
4 469 0.7

Angle Coeffs # harmonic

1 100 109.47
2 35 120
3 63 120

Dihedral Coeffs # opls

1 0 7.25 0 0
2 0 7.25 0 0
3 0 7.25 0 0

Improper Coeffs # cvff

1 2.5 -1 2

Atoms # full

2284 762 1 -8.1999999999999995e-01 -9.7937733996683214e+00 -1.1482622459416710e+01 -1.0444199561096395e+01 -2 6 3
2285 762 2 4.0999999999999998e-01 -1.0114809247811925e+01 -1.1359118115298292e+01 -1.1383178561231114e+01 -2 6 3
299 100 2 4.0999999999999998e-01 -1.2795800799659244e+01 -7.1921817746681604e+00 -1.4410914718402546e+01 -2 2 4
427 143 1 -8.1999999999999995e-01 -1.1531949724876712e+01 -1.0253701078709957e+01 -8.2556009224773241e+00 3 4 6
1153 385 1 -8.1999999999999995e-01 -1.1238126085324394e+01 -9.2645105280483016e+00 -1.2643513053442096e+01 3 8 2
1154 385 2 4.0999999999999998e-01 -1.1667413169014852e+01 -9.6530221438246535e+00 -1.3458847492470541e+01 3 8 2
2286 762 2 4.0999999999999998e-01 -9.7938187040648437e+00 -1.2456542500292336e+01 -1.0217310496335722e+01 -2 6 3
2211 737 2 4.0999999999999998e-01 -7.6857019796839268e+00 -1.4811125495555970e+01 -1.4704729628633226e+01 6 2 0
625 209 1 -8.1999999999999995e-01 -1.3858353201852902e+01 -9.2368286130962343e+00 -1.1340122028597918e+01 3 -3 3
1155 385 2 4.0999999999999998e-01 -1.0381781354926940e+01 -8.8159288792432395e+00 -1.2899339411876186e+01 3 8 2
688 230 1 -8.1999999999999995e-01 -1.3607571236644279e+01 -1.2949891505428489e+01 -1.3016262129995988e+01 -2 7 2
626 209 2 4.0999999999999998e-01 -1.2896929541117771e+01 -9.3623704990595780e+00 -1.1584872336705104e+01 3 -3 3
200 67 2 4.0999999999999998e-01 -8.4259233713863146e+00 -9.9305704618366413e+00 -1.0960813165984415e+01 3 3 2
1356 452 2 4.0999999999999998e-01 -9.1432880411881676e+00 -8.1204880631950260e+00 -1.4809873736092065e+01 0 -4 6
1354 452 1 -8.1999999999999995e-01 -8.8019942656810741e+00 -8.4526324211342256e+00 -1.3930557187531393e+01 0 -4 6
428 143 2 4.0999999999999998e-01 -1.0983252076177781e+01 -1.0493583623067007e+01 -9.0564668112805542e+00 3 4 6
1086 362 2 4.0999999999999998e-01 -1.1944733936166248e+01 -6.1286496492860110e+00 -1.0677955723623839e+01 2 10 -2
689 230 2 4.0999999999999998e-01 -1.3591822996308016e+01 -1.3734697391506915e+01 -1.3635802810398612e+01 -2 7 2
1355 452 2 4.0999999999999998e-01 -7.8232202222747143e+00 -8.2606384966457718e+00 -1.3858873002111302e+01 0 -4 6
298 100 1 -8.1999999999999995e-01 -1.3495787284328548e+01 -7.7854939845585598e+00 -1.4808404929113101e+01 -2 2 4
1374 458 2 4.0999999999999998e-01 -1.4634706217346084e+01 -1.2542676726484871e+01 -8.1994912923468650e+00 -1 11 -1
458 153 2 4.0999999999999998e-01 -1.3462762022272269e+01 -1.0428538720568092e+01 -8.5192027680440567e+00 3 2 1
429 143 2 4.0999999999999998e-01 -1.1445092379586203e+01 -9.2743106513128204e+00 -8.0732575073385267e+00 3 4 6
457 153 1 -8.1999999999999995e-01 -1.4450923454753930e+01 -1.0276629410039870e+01 -8.5406381471250761e+00 3 2 1
2049 683 2 4.0999999999999998e-01 -8.3100448467257131e+00 -8.7193671973615459e+00 -8.7774530098916976e+00 4 -6 5
300 100 2 4.0999999999999998e-01 -1.4381195931745573e+01 -7.3215347814230922e+00 -1.4780256953981404e+01 -2 2 4
76 26 1 -8.1999999999999995e-01 -1.0909791089093797e+01 -1.2536964723342644e+01 -1.3064083948299782e+01 -2 4 3
1468 490 1 -8.1999999999999995e-01 -1.1419632239656561e+01 -7.4651224121416710e+00 -8.2007380379019565e+00 2 5 3
2409 803 2 4.0999999999999998e-01 -9.9777283275882063e+00 -1.4373903287853562e+01 -9.5379275757523736e+00 2 3 -1
1470 490 2 4.0999999999999998e-01 -1.1377881031180053e+01 -7.0571925822674144e+00 -9.1127956119859377e+00 2 5 3
690 230 2 4.0999999999999998e-01 -1.4394370082141302e+01 -1.2371310515457420e+01 -1.3231181976509246e+01 -2 7 2
627 209 2 4.0999999999999998e-01 -1.4437592847302628e+01 -9.6627000378441341e+00 -1.2035185977805178e+01 3 -3 3
574 192 1 -8.1999999999999995e-01 -1.3568761281748090e+01 -6.5000703723166300e+00 -1.0824925961625372e+01 2 4 5
1790 597 2 4.0999999999999998e-01 -1.0923873413896439e+01 -5.6806599971021967e+00 -1.4274470440463878e+01 4 5 9
2365 789 1 -8.1999999999999995e-01 -1.3011076300788199e+01 -1.4508780235802643e+01 -1.0912152307463668e+01 3 2 0
77 26 2 4.0999999999999998e-01 -1.1806137370169189e+01 -1.2134762081388249e+01 -1.3250618877020694e+01 -2 4 3
575 192 2 4.0999999999999998e-01 -1.3587101433564769e+01 -7.4778352613757200e+00 -1.1033823963140083e+01 2 4 5
576 192 2 4.0999999999999998e-01 -1.4285189419046832e+01 -6.2877213619956240e+00 -1.0160367804276655e+01 2 4 5
1783 595 1 -8.1999999999999995e-01 -8.6401936517829796e+00 -1.2136475387530670e+01 -7.6104014780191429e+00 7 6 3
2407 803 1 -8.1999999999999995e-01 -9.6558048062736326e+00 -1.4147667596718261e+01 -1.0457265146954775e+01 2 3 -1
78 26 2 4.0999999999999998e-01 -1.0361755523996315e+01 -1.2532262443839432e+01 -1.3900525112982780e+01 -2 4 3
2366 789 2 4.0999999999999998e-01 -1.3691307316098221e+01 -1.4271793441075493e+01 -1.1605781853513783e+01 3 2 0
1084 362 1 -8.1999999999999995e-01 -1.0955434947209477e+01 -6.2403166537707033e+00 -1.0771854080700574e+01 2 10 -2
459 153 2 4.0999999999999998e-01 -1.4721439370634604e+01 -9.9709801127251065e+00 -9.4535447989964858e+00 3 2 1
2047 683 1 -8.1999999999999995e-01 -8.7794774644614009e+00 -8.3904256918427045e+00 -7.9580450352032424e+00 4 -6 5
102 34 2 4.0999999999999998e-01 -1.4688813473693605e+01 -6.0606829628111232e+00 -7.7634176623338291e+00 1 4 -4
199 67 1 -8.1999999999999995e-01 -7.7166881758487511e+00 -9.4022603290097297e+00 -1.0494044735996713e+01 3 3 2
2408 803 2 4.0999999999999998e-01 -9.7435647417054483e+00 -1.4949787277119304e+01 -1.1047943677988789e+01 2 3 -1
2209 737 1 -8.1999999999999995e-01 -7.6873601743274529e+00 -1.3997000653442029e+01 -1.4124043044942830e+01 6 2 0
1784 595 2 4.0999999999999998e-01 -8.5589730287430825e+00 -1.1684497965599490e+01 -8.4987249076035809e+00 7 6 3
1085 362 2 4.0999999999999998e-01 -1.0714261106425088e+01 -6.2729565065449577e+00 -1.1741786412940668e+01 2 10 -2
1789 597 1 -8.1999999999999995e-01 -1.0851507967150727e+01 -5.5764307683364152e+00 -1.3282553896750771e+01 4 5 9
2367 789 2 4.0999999999999998e-01 -1.2094195795908846e+01 -1.4426993430678349e+01 -1.1302843976607456e+01 3 2 0
871 291 1 -8.1999999999999995e-01 -9.0614150149718853e+00 -5.1453064115724487e+00 -9.0353626619531688e+00 10 -6 -2
872 291 2 4.0999999999999998e-01 -9.9388959599566995e+00 -5.3702682268085162e+00 -9.4589406292464915e+00 10 -6 -2
261 87 2 4.0999999999999998e-01 -8.1136045328940458e+00 -1.3264014887000556e+01 -1.1296503694024391e+01 2 6 -3
2048 683 2 4.0999999999999998e-01 -9.6781056083744001e+00 -8.0314252885971484e+00 -8.2102058844933588e+00 4 -6 5
267 89 2 4.0999999999999998e-01 -9.0222159381276743e+00 -5.0759124875926442e+00 -1.2106376963163441e+01 3 0 3
2069 690 2 4.0999999999999998e-01 -1.0175455938675050e+01 -1.4269424892783062e+01 -1.2872141864948004e+01 2 7 1
1469 490 2 4.0999999999999998e-01 -1.2115403302143305e+01 -6.9956366641840440e+00 -7.6571530084361097e+00 2 5 3
873 291 2 4.0999999999999998e-01 -9.0899768495834721e+00 -5.3812111652864107e+00 -8.0640068668574898e+00 10 -6 -2
266 89 2 4.0999999999999998e-01 -8.2872511884352029e+00 -5.1974843936647854e+00 -1.0653218098950170e+01 3 0 3
2210 737 2 4.0999999999999998e-01 -7.6269465213248511e+00 -1.3179224153856065e+01 -1.4696398445323357e+01 6 2 0
630 210 2 4.0999999999999998e-01 -7.6790863709063473e-01 -9.8533999925825739e+00 -9.1786055808883873e+00 3 8 5
487 163 1 -8.1999999999999995e-01 -6.3033867146317260e+00 -1.0783590613309114e+01 -1.4654962753393766e+01 0 5 -1
462 154 2 4.0999999999999998e-01 -4.6759990972245546e+00 -6.0194261584881961e+00 -9.9280503688389530e+00 5 4 -4
489 163 2 4.0999999999999998e-01 -7.2785146950659332e+00 -1.0736466238642020e+01 -1.4438390274343190e+01 0 5 -1
1377 459 2 4.0999999999999998e-01 -4.9410985503595128e-02 -7.4326123903217258e+00 -1.1725517146186373e+01 0 2 2
1597 533 1 -8.1999999999999995e-01 -2.5458276690162585e+00 -6.9912537726726001e+00 -8.9787281082208636e+00 -2 5 3
488 163 2 4.0999999999999998e-01 -5.8112823187699671e+00 -1.1196297254265277e+01 -1.3888473763227216e+01 0 5 -1
204 68 2 4.0999999999999998e-01 -6.5959691191937750e+00 -6.5631680419813918e+00 -8.8155689783660272e+00 2 2 3
764 255 2 4.0999999999999998e-01 -2.7312422649303869e-01 -1.2924244387113824e+01 -8.6768500120818040e+00 2 7 4
1078 360 1 -8.1999999999999995e-01 -2.4197059650545203e+00 -1.3896998959487149e+01 -8.4343329707242649e+00 5 5 3
203 68 2 4.0999999999999998e-01 -5.3760078371265720e+00 -7.0797880080060835e+00 -7.8608848005934000e+00 2 2 3
2472 824 2 4.0999999999999998e-01 -3.0963628384850939e+00 -1.1516145543171071e+01 -1.3451349720846206e+01 -2 6 -3
106 36 1 -8.1999999999999995e-01 -1.3857209093322460e+00 -1.4623222621796650e+01 -1.2392752651468406e+01 4 6 8
1749 583 2 4.0999999999999998e-01 -6.1505126455222534e+00 -1.3586569618522033e+01 -1.0765792831093787e+01 6 2 3
2382 794 2 4.0999999999999998e-01 -2.4950204815846622e+00 -5.3335260502881798e+00 -1.4486194397990927e+01 -2 4 -4
108 36 2 4.0999999999999998e-01 -1.4606485151923234e+00 -1.3651088138981031e+01 -1.2614877226443390e+01 4 6 8
201 67 2 4.0999999999999998e-01 -6.9159870150309377e+00 -9.9814530010997942e+00 -1.0341033538246833e+01 3 3 2
686 229 2 4.0999999999999998e-01 -1.4046506047566876e+00 -5.6340126319048078e+00 -9.7448727179492707e+00 -1 6 4
2471 824 2 4.0999999999999998e-01 -2.1394327334920611e+00 -1.2246213469117455e+01 -1.4554938970106873e+01 -2 6 -3
1748 583 2 4.0999999999999998e-01 -4.8286613621188597e+00 -1.4386878629672472e+01 -1.0237741410944530e+01 6 2 3
1598 533 2 4.0999999999999998e-01 -3.1543927704500661e+00 -6.2105093582829198e+00 -8.8370044542972881e+00 -2 5 3
1652 551 2 4.0999999999999998e-01 -1.8260088767318567e+00 -9.3703502023394254e+00 -1.4566204512375828e+01 1 6 6
2580 860 2 4.0999999999999998e-01 -5.8069343248364707e+00 -1.3363859587421985e+01 -8.5007034824596808e+00 0 2 -2
1080 360 2 4.0999999999999998e-01 -2.6233017735075226e+00 -1.4610366224350209e+01 -9.1048960231733105e+00 5 5 3
364 122 1 -8.1999999999999995e-01 -5.9257212089157463e-01 -1.0779647023469547e+01 -1.1866945209219162e+01 2 4 -2
1945 649 1 -8.1999999999999995e-01 -4.1857658935187043e+00 -1.0633410755467651e+01 -1.2457751756265655e+01 0 4 1
2579 860 2 4.0999999999999998e-01 -6.7186633939758487e+00 -1.2239089549554667e+01 -7.7455438503525489e+00 0 2 -2
2470 824 1 -8.1999999999999995e-01 -2.1932729964484583e+00 -1.1913882992437902e+01 -1.3613314518607321e+01 -2 6 -3
950 317 2 4.0999999999999998e-01 -6.9447934240111842e+00 -8.0602240090854451e+00 -1.1543446689323062e+01 -1 4 5
949 317 1 -8.1999999999999995e-01 -6.4131464799323261e+00 -7.3946647516615407e+00 -1.2067260894512435e+01 -1 4 5
951 317 2 4.0999999999999998e-01 -6.8989462862664190e+00 -6.5208029379841097e+00 -1.2086313538387062e+01 -1 4 5
259 87 1 -8.1999999999999995e-01 -7.3605890355397356e+00 -1.2833544840982903e+01 -1.1794160283393225e+01 2 6 -3
202 68 1 -8.1999999999999995e-01 -5.6521069652005185e+00 -6.3924899629881295e+00 -8.5327401425473219e+00 2 2 3
2450 817 2 4.0999999999999998e-01 -5.0010097325313563e+00 -9.8933725689040077e+00 -9.0854846337037216e+00 -1 2 4
260 87 2 4.0999999999999998e-01 -7.3162174359345071e+00 -1.3207728510511174e+01 -1.2720452165553153e+01 2 6 -3
1854 618 2 4.0999999999999998e-01 -4.8596726191541837e+00 -7.9075569240658483e+00 -1.2449611416612669e+01 2 4 5
800 267 2 4.0999999999999998e-01 -2.0961908464395957e+00 -1.2399971960338293e+01 -9.3992295941368997e+00 1 4 6
2451 817 2 4.0999999999999998e-01 -4.3831676499080174e+00 -1.1252366386633172e+01 -9.7473234186372082e+00 -1 2 4
1852 618 1 -8.1999999999999995e-01 -3.9607414668215171e+00 -7.9026430424725440e+00 -1.2887672582697640e+01 2 4 5
537 179 2 4.0999999999999998e-01 -2.9640509658062228e+00 -1.0158025988733904e+01 -8.5894544946228990e+00 4 5 -3
2449 817 1 -8.1999999999999995e-01 -5.0086438682363941e+00 -1.0485518693799964e+01 -9.8912784070009501e+00 -1 2 4
1853 618 2 4.0999999999999998e-01 -3.2536997256346680e+00 -7.7553775501828888e+00 -1.2196005201510502e+01 2 4 5
799 267 1 -8.1999999999999995e-01 -2.0866728461939541e+00 -1.1436361056738534e+01 -9.6663668905209281e+00 1 4 6
365 122 2 4.0999999999999998e-01 -1.2777048889698328e+00 -1.1273836024921131e+01 -1.2402080030937084e+01 2 4 -2
801 267 2 4.0999999999999998e-01 -1.5360932716048410e+00 -1.1325263570640173e+01 -1.0493723170897994e+01 1 4 6
1419 473 2 4.0999999999999998e-01 -1.8758945794581052e+00 -7.8351614462681489e+00 -1.0365213980775048e+01 4 4 -1
1747 583 1 -8.1999999999999995e-01 -5.7665421370034267e+00 -1.4122055447281767e+01 -1.0013582420149557e+01 6 2 3
1417 473 1 -8.1999999999999995e-01 -1.4801225492168371e+00 -8.0951060376832089e+00 -1.1246004666819712e+01 4 4 -1
1946 649 2 4.0999999999999998e-01 -4.5870349708362550e+00 -1.0393165577511407e+01 -1.1573860182536160e+01 0 4 1
1599 533 2 4.0999999999999998e-01 -2.5623608941235414e+00 -7.5780172809220367e+00 -8.1691392309775921e+00 -2 5 3
1418 473 2 4.0999999999999998e-01 -1.4706111511327826e+00 -9.0918562973088015e+00 -1.1325988162625810e+01 4 4 -1
2241 747 2 4.0999999999999998e-01 -4.8052103867778051e+00 -7.3109826511503719e+00 -1.4261092820844089e+01 5 0 0
1079 360 2 4.0999999999999998e-01 -2.9847592835286871e+00 -1.4033373405756489e+01 -7.6206280722013320e+00 5 5 3
1947 649 2 4.0999999999999998e-01 -4.0456857157358836e+00 -9.8029772080211117e+00 -1.2996970255133222e+01 0 4 1
460 154 1 -8.1999999999999995e-01 -4.2394741140424141e+00 -5.4949709052665217e+00 -1.0659071263053367e+01 5 4 -4
535 179 1 -8.1999999999999995e-01 -2.7948534487914500e+00 -9.4891898906926997e+00 -7.8655557452767750e+00 4 5 -3
2578 860 1 -8.1999999999999995e-01 -5.8736032700788758e+00 -1.2771615665795604e+01 -7.6977082561772185e+00 0 2 -2
384 128 2 4.0999999999999998e-01 -3.1555653091609042e+00 -5.1205291775536619e+00 -1.2088072593492877e+01 0 7 -3
107 36 2 4.0999999999999998e-01 -4.3817093475817437e-01 -1.4920102387500821e+01 -1.2511117880133758e+01 4 6 8
385 129 1 -8.1999999999999995e-01 -1.0570318718427444e+01 -1.1292371985911311e+01 -5.8398824175171065e+00 4 0 5
987 329 2 4.0999999999999998e-01 -8.9290350018903961e+00 -1.1366364263978515e+01 -9.3134577951467179e-01 0 6 3
485 162 2 4.0999999999999998e-01 -9.2915764406024408e+00 -1.3018524288185242e+01 -4.6988565296146039e+00 5 3 4
1623 541 2 4.0999999999999998e-01 -1.3523158949819958e+01 -1.2065914486452918e+01 -3.6535167143324170e+00 3 4 5
387 129 2 4.0999999999999998e-01 -1.1230990234545491e+01 -1.1281775490756807e+01 -5.0892827929896978e+00 4 0 5
1265 422 2 4.0999999999999998e-01 -1.4050312521250396e+01 -1.1846152261461802e+01 -1.3305515266352810e+00 -5 11 1
1885 629 1 -8.1999999999999995e-01 -1.2743692854157182e+01 -8.7726935859997255e+00 -3.9554359717245724e+00 8 4 5
1641 547 2 4.0999999999999998e-01 -1.2553704993513840e+01 -6.1046803438030377e+00 -2.2874802142228088e+00 2 4 3
1622 541 2 4.0999999999999998e-01 -1.2882596437872458e+01 -1.0575687727127578e+01 -3.8420040811620577e+00 3 4 5
1621 541 1 -8.1999999999999995e-01 -1.2793894286131366e+01 -1.1540048711333750e+01 -4.0912805360613724e+00 3 4 5
64 22 1 -8.1999999999999995e-01 -1.0024007766788429e+01 -9.2803924828440749e+00 -2.7483482799656809e+00 1 4 7
65 22 2 4.0999999999999998e-01 -9.9023436819873965e+00 -9.0666280846797953e+00 -3.7176271506455265e+00 1 4 7
66 22 2 4.0999999999999998e-01 -1.0029454493928487e+01 -1.0272612945769763e+01 -2.6239786799641660e+00 1 4 7
1130 377 2 4.0999999999999998e-01 -9.8380254962325324e+00 -7.9944332522239900e+00 -6.0835505038788273e+00 5 0 0
1278 426 2 4.0999999999999998e-01 -1.3757619357224469e+01 -9.1645392843697913e+00 -5.4973926750291700e+00 -5 3 -3
484 162 1 -8.1999999999999995e-01 -8.4691471132245084e+00 -1.3343724766081335e+01 -5.1656043991929756e+00 5 3 4
285 95 2 4.0999999999999998e-01 -9.7824511487300505e+00 -1.4625936219068576e+01 -6.4465803231303855e+00 3 0 8
1129 377 1 -8.1999999999999995e-01 -1.0530396493498301e+01 -7.6591208121511203e+00 -5.4446554481287031e+00 5 0 0
1131 377 2 4.0999999999999998e-01 -1.0413140024851876e+01 -6.6748582358865303e+00 -5.3124547444778578e+00 5 0 0
814 272 1 -8.1999999999999995e-01 -1.3857995060412780e+01 -6.7351336116690383e+00 -1.3741683428549152e+00 -1 3 2
1886 629 2 4.0999999999999998e-01 -1.2950629650747207e+01 -8.2171885243954854e+00 -3.1500849814013225e+00 8 4 5
1887 629 2 4.0999999999999998e-01 -1.2028077732091548e+01 -8.3267354060634702e+00 -4.4930373463881157e+00 8 4 5
1264 422 1 -8.1999999999999995e-01 -1.4686235380911905e+01 -1.1978443443940712e+01 -2.0908804517035833e+00 -5 11 1
1276 426 1 -8.1999999999999995e-01 -1.4583878084258574e+01 -9.0022997796662043e+00 -6.0368125359532652e+00 -5 3 -3
33 11 2 4.0999999999999998e-01 -1.1422145893666309e+01 -1.2817871213798222e+01 -3.5092698727231557e+00 4 3 -3
815 272 2 4.0999999999999998e-01 -1.4564433945966321e+01 -6.5107556599111618e+00 -2.0454339445306058e+00 -1 3 2
1586 529 2 4.0999999999999998e-01 -8.6034679535622374e+00 -8.7808318483321717e+00 -1.7112710651402843e+00 -4 9 0
100 34 1 -8.1999999999999995e-01 -1.3854473281090751e+01 -6.3342635219032886e+00 -7.2848478720546730e+00 1 4 -4
1639 547 1 -8.1999999999999995e-01 -1.1843746711261190e+01 -5.9970598992909441e+00 -2.9834514757443316e+00 2 4 3
31 11 1 -8.1999999999999995e-01 -1.0702189959684810e+01 -1.3417763762860661e+01 -3.1602837685702223e+00 4 3 -3
816 272 2 4.0999999999999998e-01 -1.3964233936066989e+01 -6.1499904799593761e+00 -5.7022820512610650e-01 -1 3 2
56 19 2 4.0999999999999998e-01 -1.2517479096813835e+01 -7.5459121897516832e+00 -7.8175650026679655e-01 2 -3 0
283 95 1 -8.1999999999999995e-01 -1.0541536834976323e+01 -1.5028332760434537e+01 -6.9583076186676198e+00 3 0 8
696 232 2 4.0999999999999998e-01 -8.1085739122177323e+00 -5.0529414890668001e+00 -5.7599883818628772e+00 6 -2 0
897 299 2 4.0999999999999998e-01 -1.3372815507438917e+01 -1.4263985840518899e+01 -6.5424891741881996e+00 1 2 8
1785 595 2 4.0999999999999998e-01 -9.3499088572953237e+00 -1.1684425367372285e+01 -7.0700737640504947e+00 7 6 3
386 129 2 4.0999999999999998e-01 -1.1034713993973661e+01 -1.1065308142293718e+01 -6.6959069377973108e+00 4 0 5
101 34 2 4.0999999999999998e-01 -1.3966779219158022e+01 -7.2590132093548938e+00 -6.9212212702919818e+00 1 4 -4
55 19 1 -8.1999999999999995e-01 -1.1886425267949949e+01 -8.3021087050587994e+00 -6.0873390425489227e-01 2 -3 0
57 19 2 4.0999999999999998e-01 -1.1408040614823973e+01 -8.5372559406125941e+00 -1.4548147561461153e+00 2 -3 0
32 11 2 4.0999999999999998e-01 -1.0278774439887986e+01 -1.2998144695813297e+01 -2.3573902092477130e+00 4 3 -3
2011 671 1 -8.1999999999999995e-01 -1.4912107807798424e+01 -1.4583600004293867e+01 -3.5558320909724817e+00 6 5 6
985 329 1 -8.1999999999999995e-01 -9.8825085049500530e+00 -1.1530105693557843e+01 -1.1844779889623265e+00 0 6 3
1277 426 2 4.0999999999999998e-01 -1.4485158383407695e+01 -9.4309658927170794e+00 -6.9348652684950309e+00 -5 3 -3
2448 816 2 4.0999999999999998e-01 -1.2277970012699768e+01 -5.0302301354917809e+00 -4.2726644252637502e+00 1 6 2
1585 529 1 -8.1999999999999995e-01 -7.7032240063286244e+00 -8.4331563154030853e+00 -1.4491994839533113e+00 -4 9 0
1995 665 2 4.0999999999999998e-01 -1.2065678777742690e+01 -1.4573905146761312e+01 -1.0045660674592440e+00 5 4 3
159 53 2 4.0999999999999998e-01 -7.5734299640329610e+00 -1.4576953268280292e+01 -3.9001654711328904e+00 1 4 2
486 162 2 4.0999999999999998e-01 -8.4345648956007189e+00 -1.2957969526854882e+01 -6.0875566245002375e+00 5 3 4
235 79 1 -8.1999999999999995e-01 -1.2663106975139318e+01 -1.1779832763134349e+01 -1.5105483189626590e-01 -3 1 3
2447 816 2 4.0999999999999998e-01 -1.3053514453338298e+01 -5.2470933984113195e+00 -5.6932716105848424e+00 1 6 2
1233 411 2 4.0999999999999998e-01 -7.5831260562266021e+00 -9.7047217190714683e+00 -4.1795234597711186e+00 8 1 5
986 329 2 4.0999999999999998e-01 -1.0471246970071174e+01 -1.1358626192679731e+01 -3.9455349018970054e-01 0 6 3
1640 547 2 4.0999999999999998e-01 -1.0944592773835989e+01 -6.0015792250138915e+00 -2.5458435594574862e+00 2 4 3
1372 458 1 -8.1999999999999995e-01 -1.4763170642923965e+01 -1.3253245829796716e+01 -7.5076912043275543e+00 -1 11 -1
1776 592 2 4.0999999999999998e-01 -3.6124921146750708e+00 -1.0445611104338226e+01 -1.8400103331624873e+00 0 6 2
891 297 2 4.0999999999999998e-01 -7.2914485448097821e-01 -1.4571644388224943e+01 -3.6877787406350571e-01 2 13 4
678 226 2 4.0999999999999998e-01 -3.3336392008877649e+00 -1.4793475885862859e+01 -1.1187633147790876e-01 -5 2 2
444 148 2 4.0999999999999998e-01 -5.4059831381433909e-01 -1.0416132085082289e+01 -1.8017535703331600e+00 0 -1 1
443 148 2 4.0999999999999998e-01 -5.0981928302598156e-01 -8.8090559265711583e+00 -1.5136868458318204e+00 0 -1 1
1764 588 2 4.0999999999999998e-01 -6.6506824589267808e+00 -5.1044404869647817e+00 -3.4097111073399056e+00 2 6 7
1762 588 1 -8.1999999999999995e-01 -6.9771248876730017e+00 -5.4895688318459968e+00 -4.2729088857511002e+00 2 6 7
1763 588 2 4.0999999999999998e-01 -6.3954868031358050e+00 -6.2594630081653033e+00 -4.5355093805585103e+00 2 6 7
536 179 2 4.0999999999999998e-01 -2.0857337964932938e+00 -9.8351731998575573e+00 -7.2511912044823434e+00 4 5 -3
1587 529 2 4.0999999999999998e-01 -7.2513736368228860e+00 -8.0406095178234764e+00 -2.2502844948765546e+00 -4 9 0
643 215 1 -8.1999999999999995e-01 -2.6509378116556928e+00 -9.5726550605179561e+00 -3.9262954659525580e+00 5 2 2
2117 706 2 4.0999999999999998e-01 -3.8099321585183556e+00 -1.2381436863635091e+01 -5.3101395519226138e+00 1 9 4
879 293 2 4.0999999999999998e-01 -6.8279582476091800e+00 -1.1416300184373577e+01 -2.0852032205844271e+00 -1 7 -2
390 130 2 4.0999999999999998e-01 -4.8784282566889789e+00 -9.0496821830196517e+00 -6.3557826567610203e+00 -2 3 0
41 14 2 4.0999999999999998e-01 -9.3504577500143782e-01 -5.8241150204992849e+00 -5.8594863699093782e+00 4 2 0
2067 689 2 4.0999999999999998e-01 -6.1882050728866211e-01 -6.3956193605172089e+00 -1.7257373062042038e+00 8 9 1
2394 798 2 4.0999999999999998e-01 -2.1300194294240580e+00 -7.3982825406198325e+00 -1.5391922850962558e-01 0 -1 0
1775 592 2 4.0999999999999998e-01 -4.4129305076598335e+00 -1.0680903857619800e+01 -4.3624422937170415e-01 0 6 2
2116 706 1 -8.1999999999999995e-01 -4.5348140197574374e+00 -1.1767332509750972e+01 -5.6222629440888774e+00 1 9 4
42 14 2 4.0999999999999998e-01 -9.3705587865551720e-02 -6.0696215542898262e+00 -4.4816268518072295e+00 4 2 0
616 206 1 -8.1999999999999995e-01 -3.8988941004033073e+00 -1.3215399147743303e+01 -2.8490732198918884e+00 1 3 2
2099 700 2 4.0999999999999998e-01 -7.2872220503544316e+00 -1.2360250788073527e+01 -4.0092731263080292e+00 8 -2 -7
1708 570 1 -8.1999999999999995e-01 -6.2236722047824955e-01 -1.2212374197766032e+01 -2.1718890099412960e+00 7 9 3
878 293 2 4.0999999999999998e-01 -6.9635695087691865e+00 -1.0176580125308814e+01 -1.0310081029614580e+00 -1 7 -2
1709 570 2 4.0999999999999998e-01 -1.2546672523078222e+00 -1.2960368242105657e+01 -1.9701454149143061e+00 7 9 3
877 293 1 -8.1999999999999995e-01 -6.9364361833363084e+00 -1.1172101154987608e+01 -1.1215651742860899e+00 -1 7 -2
645 215 2 4.0999999999999998e-01 -1.6846519748723310e+00 -9.3310250328348125e+00 -4.0152082781708760e+00 5 2 2
618 206 2 4.0999999999999998e-01 -3.7348108022296334e+00 -1.2561582337949112e+01 -2.1104263552628595e+00 1 3 2
677 226 2 4.0999999999999998e-01 -2.5801442006716293e+00 -1.5019779501315695e+01 -1.5428394916120407e+00 -5 2 2
2187 729 2 4.0999999999999998e-01 -3.9944322688760110e+00 -7.9418607084718484e+00 -3.1841410844749518e+00 1 5 8
2118 706 2 4.0999999999999998e-01 -5.0590379010893045e+00 -1.2212371516702678e+01 -6.3482991422901573e+00 1 9 4
29 10 2 4.0999999999999998e-01 -4.7097955937584981e+00 -1.4584726246713139e+01 -6.3331480213943756e+00 1 -1 1
676 226 1 -8.1999999999999995e-01 -2.4767177754717480e+00 -1.4669070815057417e+01 -6.1208424597242406e-01 -5 2 2
2098 700 1 -8.1999999999999995e-01 -6.6773580816161591e+00 -1.1579788133918207e+01 -3.8716398899821485e+00 8 -2 -7
28 10 1 -8.1999999999999995e-01 -3.7166553047239201e+00 -1.4474814492397027e+01 -6.2932647417823055e+00 1 -1 1
905 302 2 4.0999999999999998e-01 -3.2234256042964198e+00 -1.4687521109341564e+01 -3.3235276970683163e+00 1 5 8
644 215 2 4.0999999999999998e-01 -2.9078830555215962e+00 -1.0196239273695683e+01 -4.6646184051582509e+00 5 2 2
388 130 1 -8.1999999999999995e-01 -5.5961769804837012e+00 -8.6090276280963529e+00 -6.8949108666028973e+00 -2 3 0
2066 689 2 4.0999999999999998e-01 -1.7132142626522473e+00 -6.3658688029150259e+00 -2.9373646284295276e+00 8 9 1
2065 689 1 -8.1999999999999995e-01 -1.4822451779517234e+00 -6.7772605523029181e+00 -2.0556566217043422e+00 8 9 1
2100 700 2 4.0999999999999998e-01 -5.9963321738224522e+00 -1.1555816705164213e+01 -4.6035060027229697e+00 8 -2 -7
1232 411 2 4.0999999999999998e-01 -6.3550549141105215e+00 -8.6925847827035767e+00 -3.8134037259519804e+00 8 1 5
1231 411 1 -8.1999999999999995e-01 -7.2652622732566954e+00 -8.7575571025441690e+00 -4.2224270375207773e+00 8 1 5
157 53 1 -8.1999999999999995e-01 -6.8693674637141964e+00 -1.4810562116691989e+01 -3.2295524552172346e+00 1 4 2
617 206 2 4.0999999999999998e-01 -4.8790767704892488e+00 -1.3401004738575089e+01 -2.9182933278432017e+00 1 3 2
2185 729 1 -8.1999999999999995e-01 -4.8202779062729562e+00 -7.3814769481622546e+00 -3.2469737641266558e+00 1 5 8
1774 592 1 -8.1999999999999995e-01 -3.8051374411074903e+00 -1.1101274184575715e+01 -1.1099468975881823e+00 0 6 2
2186 729 2 4.0999999999999998e-01 -4.7167641071998254e+00 -6.5696941026096969e+00 -2.6722630336357103e+00 1 5 8
389 130 2 4.0999999999999998e-01 -6.4531248765377693e+00 -8.6179560361571426e+00 -6.3795862261919432e+00 -2 3 0
1880 627 2 4.0999999999999998e-01 -6.7651046851403258e+00 -7.7182937700241041e+00 -1.7977265900463024e-01 2 0 1
40 14 1 -8.1999999999999995e-01 -9.0766125727947511e-01 -6.3332989961746886e+00 -4.9992650543813415e+00 4 2 0
237 79 2 4.0999999999999998e-01 -1.2804685043715040e+01 -1.0876583139215285e+01 2.5403119820099640e-01 -3 1 3
2197 733 1 -8.1999999999999995e-01 -1.1015144787743033e+01 -7.7478152112311811e+00 2.2067414815256097e+00 -2 -4 3
1893 631 2 4.0999999999999998e-01 -1.3556959281439056e+01 -9.4684213879076395e+00 5.1311176081397480e+00 4 4 1
1891 631 1 -8.1999999999999995e-01 -1.2867885993386080e+01 -8.8161949648524711e+00 4.8152416492142915e+00 4 4 1
1892 631 2 4.0999999999999998e-01 -1.2331802483109438e+01 -8.4937023561815117e+00 5.5953774593641885e+00 4 4 1
1787 596 2 4.0999999999999998e-01 -1.2839913754937228e+01 -1.1305113636434895e+01 4.7000084960725435e+00 3 2 0
1979 660 2 4.0999999999999998e-01 -1.1160140054651913e+01 -1.3255036990484060e+01 5.0268667710832293e+00 -1 7 5
2589 863 2 4.0999999999999998e-01 -1.0079521778907084e+01 -1.0424905883609394e+01 5.1124161790350495e+00 -6 4 0
1786 596 1 -8.1999999999999995e-01 -1.1917887863597560e+01 -1.1645723309307241e+01 4.5160187703169381e+00 3 2 0
2018 673 2 4.0999999999999998e-01 -8.8935737424641825e+00 -8.2495832087964320e+00 6.3100292773617301e+00 9 1 -1
727 243 1 -8.1999999999999995e-01 -1.1014436445329697e+01 -1.0504961545773240e+01 2.2130859492704094e+00 6 4 6
2588 863 2 4.0999999999999998e-01 -8.8281991536709405e+00 -9.8769968829257984e+00 4.2176474895319043e+00 -6 4 0
2587 863 1 -8.1999999999999995e-01 -9.3620013218261118e+00 -9.7311196107173448e+00 5.0505784529059117e+00 -6 4 0
1788 596 2 4.0999999999999998e-01 -1.1592145136106513e+01 -1.1273133883258632e+01 3.6470724399592438e+00 3 2 0
766 256 1 -8.1999999999999995e-01 -1.3585350688111877e+01 -9.7928745157601238e+00 1.4219687316720115e+00 -4 4 -1
560 187 2 4.0999999999999998e-01 -1.4016060944131668e+01 -7.9358552620969638e+00 3.6382323171782485e+00 7 5 0
1980 660 2 4.0999999999999998e-01 -1.0190610169662051e+01 -1.3966990673833870e+01 6.1312930246059292e+00 -1 7 5
768 256 2 4.0999999999999998e-01 -1.4394943699446488e+01 -1.0340386087735759e+01 1.6336031357041367e+00 -4 4 -1
236 79 2 4.0999999999999998e-01 -1.3085583812535859e+01 -1.2475586123451293e+01 4.2984060654525891e-01 -3 1 3
767 256 2 4.0999999999999998e-01 -1.3669627838419796e+01 -8.8935892776116567e+00 1.8511334368139583e+00 -4 4 -1
541 181 1 -8.1999999999999995e-01 -1.4840995845557668e+01 -1.1291865310142448e+01 6.9561533277036585e+00 3 1 0
2198 733 2 4.0999999999999998e-01 -1.1477977587349731e+01 -8.5664562191131530e+00 2.5467585808757516e+00 -2 -4 3
2199 733 2 4.0999999999999998e-01 -1.1210753283035583e+01 -7.6346702047449222e+00 1.2326088227333951e+00 -2 -4 3
1978 660 1 -8.1999999999999995e-01 -1.0812214958192278e+01 -1.4129459808672017e+01 5.3649966115185439e+00 -1 7 5
1737 579 2 4.0999999999999998e-01 -7.7460714321283035e+00 -6.3341166702600535e+00 7.4192215755865849e+00 4 1 6
2019 673 2 4.0999999999999998e-01 -9.5317280601035783e+00 -6.8328454015502853e+00 5.8077976078331819e+00 9 1 -1
2017 673 1 -8.1999999999999995e-01 -8.9050634440662080e+00 -7.2608165955658919e+00 6.4590510520499063e+00 9 1 -1
2431 811 1 -8.1999999999999995e-01 -1.4761656538124939e+01 -1.1100400371880029e+01 4.1338492416706085e+00 6 2 1
559 187 1 -8.1999999999999995e-01 -1.4742566112255030e+01 -7.6238882703805961e+00 3.0259695100929331e+00 7 5 0
841 281 1 -8.1999999999999995e-01 -1.2989995477845804e+01 -1.4055992890084807e+01 1.3972927376479571e+00 3 9 -5
135 45 2 4.0999999999999998e-01 -8.1078464346904546e+00 -6.7520777961954526e+00 3.3326168649913566e+00 3 2 -4
133 45 1 -8.1999999999999995e-01 -8.6672129915866911e+00 -6.6593538722644769e+00 2.5088995487116907e+00 3 2 -4
134 45 2 4.0999999999999998e-01 -9.5026853422391486e+00 -7.1993516219893969e+00 2.6108176447971925e+00 3 2 -4