2611
Atoms. Timestep: 23000000
O -1.74771 6.78999 1.78883
H -0.891792 6.27778 1.71799
H -1.66517 7.47907 2.50877
O 5.59712 -3.28065 0.720174
H 5.64638 -2.67442 1.51392
H 6.04411 -2.84433 -0.0607184
O -5.77166 9.75231 -10.4824
H -5.11942 10.2795 -9.93771
H -6.70168 9.9521 -10.174
O 4.47345 5.3532 -7.37176
H 4.59224 4.64537 -8.06807
H 4.13159 6.1891 -7.80114
O -9.69932 4.21906 14.8991
H -9.02495 3.94164 -14.4949
H -9.94853 5.17633 -15.0326
O -10.3232 -8.40772 10.075
H -10.5147 -7.48953 10.4217
H -9.35454 -8.4787 9.83692
O -4.25598 11.8853 -9.25523
H -3.27993 11.934 -9.46722
H -4.74204 12.6012 -9.75643
O 0.0255594 4.91631 5.71865
H 0.143643 5.25369 4.78474
H -0.490767 5.58614 6.25223
O 6.22963 14.1216 13.8115
H 6.19422 13.17 14.1169
H 6.6835 14.1695 12.9218
O -3.37118 14.6714 -7.70509
H -4.13301 14.8023 -7.07071
H -2.75666 13.9682 -7.34741
O -11.1044 14.7886 -3.24362
H -11.5214 14.8985 -2.34142
H -11.2621 -14.4649 -3.78649
O -5.47682 8.27801 -14.9134
H -4.66127 7.977 -14.4192
H -6.1155 7.5134 -14.9996
O -6.54221 13.4588 -10.0615
H -6.33699 14.4311 -10.1733
H -6.43932 12.9932 -10.9404
O 1.52549 -6.4872 -3.04441
H 0.825458 -5.87965 -3.41965
H 2.36459 -5.96825 -2.88134
O -6.39233 -15.016 -1.34369
H -6.71206 -14.6928 -0.453026
H -7.13252 14.5748 -1.80672
O -3.56681 -1.08526 -5.54328
H -3.44248 -1.97475 -5.98295
H -3.7329 -1.21683 -4.566
O 12.1517 0.00493311 10.7996
H 12.5334 0.832715 11.2107
H 12.8377 -0.722411 10.8163
O 5.32484 -11.6833 5.36548
H 4.73196 -11.9894 4.62065
H 6.26235 -11.9839 5.19023
O 14.9754 -8.96395 0.302503
H -15.0067 -8.35028 1.08616
H -14.6184 -9.81901 0.487271
O 0.556644 1.64276 -8.34305
H 0.893954 2.49062 -8.75209
H -0.439379 1.68393 -8.26423
O -10.3268 10.6628 9.9796
H -9.84054 11.2276 10.6464
H -9.66779 10.1197 9.45925
O -11.893 -10.0976 -2.12747
H -11.6927 -10.8503 -1.50039
H -12.247 -10.4654 -2.98737
O 12.0011 9.3275 5.6473
H 12.8964 9.40903 5.20946
H 11.4723 10.1601 5.48231
O 2.27615 -10.3115 9.52378
H 1.75242 -9.65062 10.0613
H 2.27735 -10.0337 8.56318
O -0.167763 -6.02073 5.98637
H 0.0569148 -5.08585 5.71165
H -1.05653 -6.029 6.44462
O -8.82752 -13.407 -13.9411
H -8.23736 -12.6 -13.9631
H -9.76653 -13.1391 -14.1568
O -14.087 13.8654 14.1384
H -14.4493 14.4456 13.409
H -13.4272 13.2197 13.754
O -6.22405 -12.9688 8.23313
H -6.31187 -12.6228 7.299
H -5.25585 -13.0359 8.47404
O -5.51409 -8.07542 11.0902
H -6.42848 -8.19788 10.7044
H -5.21789 -8.92713 11.5225
O -1.34531 -0.255251 6.74401
H -0.430056 -0.107032 6.36944
H -1.92721 -0.67342 6.04652
O -4.84951 10.7159 -4.66822
H -4.469 9.79404 -4.59502
H -5.83857 10.6584 -4.80398
O 8.57638 -2.22393 2.68556
H 8.95918 -1.70553 3.45022
H 7.71216 -1.80905 2.40104
O 11.53 -11.3848 -8.21148
H 12.4819 -11.5599 -8.46278
H 11.1409 -10.7048 -8.83291
O -14.4299 -4.59788 -6.01976
H -14.8393 -5.31594 -5.45699
H -14.6869 -4.73669 -6.97613
O 14.7281 -14.9996 5.95702
H -14.3566 -14.909 5.89015
H 14.2914 -14.2158 5.51544
O 0.439224 14.0992 -14.2123
H 1.23224 14.6223 -13.9002
H -0.376601 14.6762 -14.1746
O -0.858176 0.571188 -11.984
H -0.866519 0.407525 -12.9704
H 0.0136533 0.264 -11.6025
O 8.96575 0.858392 -4.54363
H 8.97302 0.886001 -5.5432
H 9.68241 0.239546 -4.22207
O 4.65359 7.27902 5.8464
H 5.31427 6.68962 5.38157
H 3.91682 6.7194 6.22583
O 10.8409 11.2151 3.81968
H 11.4658 10.6729 3.25796
H 11.1921 12.1476 3.90365
O 6.31028 3.93057 -14.0112
H 7.17164 3.94582 -14.5189
H 5.5652 3.67315 -14.6265
O 1.12642 2.63898 -5.67967
H 1.9953 2.2683 -5.35164
H 0.756644 2.04164 -6.3913
O -10.8316 2.23744 0.963922
H -10.5606 3.08738 1.41574
H -10.1578 2.00299 0.263201
O -9.52131 13.6037 2.25522
H -9.20124 12.728 2.61686
H -10.5165 13.5811 2.1597
O -8.67448 -5.34842 1.91968
H -8.04417 -5.57605 2.66188
H -8.25373 -5.57945 1.04243
O 8.60673 1.77855 -7.31221
H 7.64713 1.72702 -7.03568
H 8.8954 0.894799 -7.68047
O -14.9622 7.36667 9.52176
H -14.9551 8.19054 8.95506
H 14.4967 6.69172 9.12083
O 4.95646 -5.80423 14.7469
H 4.17162 -5.41455 14.265
H 4.73438 -6.73053 -15.0271
O -4.48067 3.37227 -8.11334
H -4.69307 2.47206 -7.73323
H -5.25708 3.98605 -7.97043
O 14.1994 0.860143 -10.2645
H 14.6337 0.978262 -9.37158
H 14.0863 1.75278 -10.7009
O 7.25519 -2.27505 -6.82237
H 6.63497 -2.95908 -7.2063
H 7.51358 -2.54299 -5.89425
O 13.5589 -12.5979 5.03415
H 12.7503 -12.1336 5.39558
H 13.7935 -12.2125 4.14176
O -7.22212 -14.1503 -5.79183
H -7.38529 -14.7672 -6.56177
H -8.00964 -13.5448 -5.67716
O -3.30826 4.26061 11.453
H -3.69334 4.6617 12.2841
H -3.62753 4.77387 10.6564
O 14.2304 7.10906 2.99138
H 14.5578 6.49347 3.7082
H 14.2898 8.05462 3.31131
O -2.61376 10.7636 -12.4418
H -1.75491 11.1916 -12.7233
H -3.3374 11.0142 -13.0849
O -3.55379 8.35014 -4.35009
H -4.10877 7.71524 -4.88757
H -3.66285 8.14675 -3.3771
O 13.5997 -6.08625 -12.5926
H 12.9371 -5.36826 -12.8056
H 13.9369 -5.96246 -11.6594
O 3.20753 10.1984 -5.49185
H 3.13726 10.4649 -4.53059
H 4.13529 9.87718 -5.68172
O -10.0422 14.8205 7.69278
H -10.4539 -14.8237 8.49407
H -9.0503 14.9442 7.71934
O 10.5408 3.82674 -6.99251
H 10.4962 4.34621 -6.1392
H 9.81868 3.13507 -6.99977
O 7.87192 -0.941517 8.25136
H 8.61951 -0.744817 8.8857
H 7.45763 -1.82067 8.48679
O 10.5892 -10.9464 4.2029
H 10.9216 -10.0048 4.25685
H 10.6179 -11.256 3.25251
O -3.83885 -13.2051 9.62173
H -4.10738 -13.5096 10.5356
H -3.04488 -12.6012 9.69153
O -1.49754 -10.9752 5.76486
H -0.890607 -11.6118 5.28913
H -1.54465 -11.2202 6.73323
O 8.62391 8.09586 -11.0512
H 8.78194 8.35288 -10.0978
H 9.12777 8.71673 -11.6517
O -8.45271 -11.9833 -10.9461
H -8.14639 -12.6362 -11.6388
H -8.52826 -11.074 -11.3552
O -5.4043 -7.96037 -8.59363
H -5.33376 -8.58834 -7.81861
H -6.22619 -7.39947 -8.49441
O -12.5517 -4.58046 6.57422
H -11.7732 -4.04123 6.89531
H -13.2634 -3.96712 6.23173
O 6.11514 -3.49092 -9.66265
H 5.63065 -3.78838 -8.84
H 6.08264 -2.49349 -9.72628
O 0.380753 -2.31455 -5.8925
H 0.102742 -1.35416 -5.87409
H 0.127931 -2.71793 -6.77189
O -2.01736 3.05511 -11.5824
H -1.3993 2.27743 -11.6973
H -1.52967 3.80536 -11.1361
O -14.1171 -0.123546 10.4192
H -14.2277 0.737147 10.9161
H -13.3665 -0.647047 10.8223
O 2.11337 -2.41163 6.6189
H 2.9664 -2.68768 7.06172
H 1.33992 -2.82884 7.09606
O -5.75706 2.33947 -2.45763
H -5.98419 3.30284 -2.60009
H -5.20403 2.01068 -3.22316
O 7.7568 12.3563 -5.38436
H 8.36602 12.1823 -4.6107
H 6.86448 11.9417 -5.20574
O -2.05648 -2.72517 -14.5977
H -1.75443 -3.66408 -14.4328
H -2.77262 -2.48546 -13.9422
O -2.47266 6.4268 -12.7516
H -1.94234 6.81726 -13.5041
H -2.64656 7.13268 -12.065
O -12.4188 14.9873 -0.972605
H -12.243 14.6078 -0.0642381
H -13.1433 14.462 -1.41874
O 10.0284 -8.99238 -12.7284
H 9.67261 -9.54861 -13.4794
H 9.26854 -8.66665 -12.1658
O -1.37453 6.02761 7.66635
H -0.981661 5.89634 8.57651
H -1.80716 5.17814 7.36437
O -12.9242 12.0555 4.14093
H -12.1335 12.1271 4.74891
H -13.7613 12.014 4.68633
O -12.1892 -11.8772 7.45913
H -12.9882 -12.2273 6.97017
H -12.4829 -11.2078 8.14141
O -7.44948 8.57078 5.84578
H -8.24055 7.99542 5.63806
H -7.59199 9.4839 5.46383
O 12.7573 0.38545 -3.10404
H 12.9676 0.711107 -2.18225
H 13.5814 -0.00291186 -3.51639
O 12.0062 13.7895 10.1824
H 12.1871 14.2457 9.31117
H 11.0203 13.6661 10.2957
O -6.3402 -14.1959 -11.6007
H -6.72393 -14.5785 -12.4412
H -5.63958 -13.5207 -11.8314
O 10.5077 -11.6341 1.59916
H 11.2233 -11.209 1.04488
H 10.5692 -12.6288 1.51694
O -6.14543 -5.47718 -12.7752
H -5.52173 -5.85074 -12.0886
H -7.0738 -5.45334 -12.4044
O -10.5048 9.56032 5.41644
H -11.3691 9.82448 5.84432
H -10.392 8.56859 5.47746
O 7.32539 0.645232 -0.409704
H 8.189 0.963201 -0.018482
H 6.58163 1.2387 -0.102174
O 0.602555 5.49323 1.79406
H 1.20699 4.776 1.44735
H 1.14666 6.19197 2.25849
O 10.1781 0.492006 0.386072
H 11.1477 0.620915 0.594209
H 9.92382 1.0705 -0.388934
O 5.69638 6.51361 10.4166
H 6.36335 6.29429 9.70455
H 5.30627 7.41744 10.2409
O -10.115 -14.7455 -8.13177
H -10.5354 15.0036 -7.28625
H -10.8141 -14.6655 -8.84233
O 9.82895 -0.972992 4.80187
H 9.30249 -1.38124 5.54762
H 9.32423 -0.197129 4.42337
O 2.31189 -14.5604 1.07221
H 2.75728 14.6633 0.805371
H 1.53474 -14.3866 0.467407
O 12.6806 -6.45907 3.14135
H 12.4953 -5.80571 3.87534
H 11.8274 -6.68077 2.66917
O 8.52948 -8.12249 -4.33701
H 8.34878 -8.77182 -5.07572
H 7.77177 -8.14043 -3.68469
O -14.0369 -6.86855 -14.5366
H -14.7344 -6.70272 -13.8395
H -13.3219 -6.17308 -14.4647
O -11.757 9.11525 -5.57006
H -11.0819 8.91633 -6.28048
H -12.2129 8.26818 -5.29693
O 7.61431 5.69437 0.565956
H 7.80864 5.12324 1.36346
H 7.37421 6.61713 0.867361
O 14.7402 11.8797 6.47426
H 14.4738 12.8435 6.46433
H 14.3444 11.4327 7.27648
O -3.7343 -1.57219 -2.9152
H -4.0607 -1.41254 -1.98356
H -3.27597 -2.45981 -2.96028
O -9.93649 10.9276 -8.18492
H -9.26838 11.5257 -7.74239
H -10.6995 11.4759 -8.52723
O -11.4827 -10.9655 14.6775
H -12.282 -10.4204 14.4248
H -10.6958 -10.6758 14.1327
O -7.95556 7.22078 -11.9484
H -7.66301 6.96924 -12.8709
H -7.33176 6.81701 -11.2792
O 9.09564 5.04936 -1.52265
H 9.32351 4.16461 -1.92917
H 8.38781 4.92435 -0.827445
O 3.12583 6.59216 -3.39436
H 2.70749 5.70471 -3.20103
H 2.47681 7.32111 -3.1767
O -8.95606 1.59683 -4.44374
H -9.78209 1.77594 -3.90936
H -8.91134 0.624365 -4.67239
O 2.8186 4.84326 -11.6391
H 2.62259 4.2244 -12.3997
H 3.80155 4.8446 -11.4553
O 14.9441 0.689416 -7.50116
H 14.1761 1.22675 -7.15271
H 15.0104 -0.167522 -6.99006
O 10.8141 -6.62465 -3.58078
H 10.1655 -7.14332 -4.13783
H 10.3134 -6.00566 -2.97576
O 9.84659 -0.950002 -11.669
H 10.6725 -0.846727 -11.1148
H 9.63976 -1.92193 -11.781
O 12.2342 11.6793 14.9568
H 12.4675 11.7684 -14.1532
H 11.5286 12.3476 14.7211
O -14.5275 -2.898 -14.3485
H 14.9786 -3.68865 -14.1308
H -14.8371 -2.48874 14.8715
O -4.69943 10.7416 6.03392
H -4.62536 11.7382 5.99933
H -5.0051 10.399 5.14555
O 6.64012 1.14352 -3.11725
H 6.98125 1.16699 -2.17755
H 7.40264 1.26905 -3.75189
O 12.2678 -2.76665 -5.99899
H 11.9186 -2.5571 -6.91227
H 11.7894 -2.2067 -5.3226
O 7.00426 -10.7358 -10.2334
H 7.28518 -9.77682 -10.2713
H 6.4731 -10.8948 -9.40116
O 14.0472 3.33724 2.87668
H 13.6944 3.74289 2.03352
H 13.4583 2.57776 3.15303
O -0.296095 -11.9638 -12.9573
H 0.569372 -12.3352 -13.2935
H -0.97312 -11.978 -13.6931
O -9.59637 -14.5595 4.69557
H -10.3799 -14.2976 5.25895
H -9.90801 14.9478 3.93604
O 4.39388 6.45307 14.9176
H 4.71878 7.14979 -14.5212
H 3.41244 6.31263 -15.0303
O -9.10126 0.628799 -0.556009
H -8.14854 0.622427 -0.252296
H -9.3819 -0.30138 -0.792601
O 2.12306 11.7961 -0.616348
H 2.76958 12.5037 -0.331261
H 1.1886 12.1154 -0.459027
O 9.47813 3.28516 13.523
H 8.77231 3.91057 13.1904
H 9.07003 2.62955 14.1583
O -1.2231 -5.11264 -13.7293
H -0.461743 -4.53411 -13.4367
H -1.78958 -5.34337 -12.9382
O -11.7169 -10.765 -5.83109
H -11.2619 -10.1856 -6.50727
H -12.6308 -10.4046 -5.64438
O -3.58501 -7.38038 -4.73748
H -3.99722 -7.72756 -3.89516
H -2.88011 -8.01683 -5.05055
O 0.403524 -11.8286 -7.59385
H 0.0771141 -12.2703 -6.75819
H 0.812972 -12.5146 -8.19534
O 0.199916 13.0235 9.25501
H -0.0318926 12.4869 8.44363
H 0.417507 13.961 8.98364
O -11.8077 -5.76228 -13.4672
H -11.859 -5.68879 -12.4712
H -11.8274 -4.84739 -13.8704
O 6.1076 2.94308 8.92988
H 6.64128 2.60599 9.70546
H 5.26197 2.41498 8.85249
O 3.86285 8.75556 12.2216
H 4.55914 9.44742 12.0306
H 3.61309 8.79235 13.1892
O -12.1981 -2.23846 -6.60914
H -12.7 -1.39434 -6.42064
H -12.6692 -3.0092 -6.18019
O 9.07052 -3.21206 -1.8398
H 8.77472 -4.15773 -1.97462
H 9.48602 -3.11856 -0.935039
O -14.6022 0.675495 7.72126
H -14.4891 0.100033 8.53122
H -13.9881 1.46234 7.78312
O 6.43458 -11.0825 -2.62879
H 6.22619 -11.1528 -1.65329
H 7.35654 -11.4305 -2.79859
O 11.0124 5.77164 -8.62023
H 11.7882 5.57101 -9.21836
H 10.8965 5.02663 -7.96334
O -9.358 8.91141 -1.31571
H -9.87303 9.54895 -0.74277
H -8.669 9.41426 -1.83763
O -8.98421 9.97355 14.1022
H -9.6046 10.0512 14.8827
H -9.30872 9.25356 13.4888
O -10.304 -11.2394 -8.64136
H -9.80186 -11.483 -9.4711
H -9.66509 -11.1608 -7.8761
O -4.21891 -14.2705 12.2043
H -3.34117 -14.6398 12.5095
H -4.51097 -13.5461 12.8288
O -10.7429 12.9042 13.3351
H -9.95116 12.5492 12.838
H -11.4712 12.219 13.3348
O -1.92881 7.78384 10.8162
H -2.9083 7.63454 10.681
H -1.41283 7.10934 10.2882
O 5.82441 -14.3191 9.98745
H 5.61843 -14.846 9.16292
H 6.78378 -14.0374 9.972
O 0.00263109 -12.7973 -4.87598
H -0.192163 -13.757 -4.67334
H 0.875355 -12.5396 -4.46136
O 8.94954 10.4496 9.12289
H 9.48412 9.9286 9.78828
H 8.69086 9.85336 8.36293
O 0.863296 6.90487 -12.1439
H 1.4872 6.16274 -11.8991
H 0.459034 6.71867 -13.0394
O -5.67999 11.6546 -1.74556
H -6.679 11.6109 -1.73881
H -5.35305 11.6617 -2.69056
O 12.9003 -0.288071 0.938235
H 13.5649 0.448587 0.81368
H 13.2321 -1.11631 0.48673
O -13.4026 -11.1959 -8.68199
H -12.4086 -11.2955 -8.6363
H -13.631 -10.3515 -9.16659
O -1.91867 -6.71335 -11.159
H -2.90082 -6.52538 -11.1646
H -1.7458 -7.59624 -11.5956
O -8.46709 -5.898 11.1096
H -8.89417 -5.76789 12.0044
H -8.74444 -5.1578 10.4971
O -14.8846 -0.627734 -3.54269
H -14.6306 0.334886 -3.4488
H -14.6184 -1.12476 -2.7168
O 1.97013 7.61434 3.21191
H 1.79823 8.09777 4.07023
H 2.8904 7.22342 3.22808
O 14.5974 1.1305 14.5628
H 14.7376 0.144211 14.4759
H 13.6814 1.36682 14.2388
O 13.7793 10.4854 -3.03078
H 13.5904 11.0866 -2.25439
H 14.5312 9.86813 -2.79916
O 14.2409 -2.63681 -8.55162
H 14.6695 -2.19802 -7.76182
H 13.5034 -2.05603 -8.89608
O 0.469622 -12.9057 11.8378
H 0.889564 -12.3666 12.5679
H 1.06879 -12.9065 11.0372
O -9.39976 -12.2 -4.89254
H -10.2835 -12.6239 -4.6942
H -9.45913 -11.2148 -4.7318
O -6.12254 -12.1427 13.2481
H -6.67767 -11.7641 13.9886
H -6.70775 -12.6606 12.6241
O -6.54675 0.800843 10.8772
H -6.3438 -0.122474 11.2032
H -5.9623 1.45822 11.3528
O 8.03681 -8.17111 -9.25672
H 8.89521 -8.48047 -8.84756
H 7.46129 -7.75756 -8.55123
O -12.4352 12.1322 -9.36173
H -13.3283 11.9459 -9.77123
H -11.9502 12.8102 -9.91401
O -5.88894 10.6872 9.4986
H -5.03034 10.9244 9.04414
H -5.94056 11.1572 10.3797
O 6.46297 6.20308 -2.5529
H 6.4524 5.43591 -1.91156
H 7.26813 6.77052 -2.38056
O 3.64457 -1.54905 -9.32632
H 3.08351 -1.22148 -8.56614
H 4.51338 -1.05404 -9.33684
O 8.35556 -7.83448 14.5407
H 8.07877 -6.88751 14.3776
H 7.91723 -8.43044 13.8679
O 5.71235 11.2419 -1.12112
H 5.39821 10.3201 -0.894037
H 5.29647 11.8999 -0.493346
O 12.0206 -2.42399 3.47053
H 11.9803 -1.83975 2.65997
H 11.0925 -2.61411 3.79083
O -11.7716 5.9084 -9.19972
H -11.4876 5.56237 -8.30553
H -11.2547 5.44165 -9.91727
O 7.23679 -9.08368 12.287
H 6.81516 -8.71951 11.4566
H 6.52735 -9.27126 12.9663
O 11.9501 14.927 14.1973
H 11.1064 14.4328 13.9878
H 11.8077 -14.1722 14.0522
O -4.03872 -10.4265 12.2798
H -4.02968 -9.75845 13.0239
H -4.85636 -10.9973 12.3543
O 5.91537 2.59895 1.18164
H 6.45114 3.1596 1.81297
H 5.67254 3.1418 0.377703
O 1.42705 8.84605 5.78295
H 1.97902 8.23791 6.35345
H 1.66127 9.79685 5.98566
O -2.45445 -10.3288 -7.94083
H -1.59067 -10.8323 -7.92327
H -3.12255 -10.8321 -8.48885
O -3.78152 -3.46218 -6.69595
H -3.43245 -4.37348 -6.47766
H -3.6924 -3.29761 -7.67827
O 14.3174 -8.9272 6.52146
H 15.0365 -8.23544 6.58696
H 14.663 -9.80078 6.86405
O -1.09161 12.0237 -4.65124
H -1.93874 11.9904 -5.18156
H -0.402587 12.5437 -5.15599
O 6.62914 -13.7961 -14.4443
H 6.47005 -14.4444 14.8895
H 7.44107 -14.072 -13.9299
O -8.54842 12.2277 11.6391
H -8.62101 13.0907 11.1391
H -7.62164 12.1295 12.0015
O 7.92876 -11.6126 4.76374
H 8.77145 -11.0742 4.76459
H 7.93017 -12.2326 3.9792
O 14.2001 -12.5203 -8.9916
H 14.3661 -13.3196 -9.56914
H -15.0216 -12.022 -8.85783
O -14.7119 -7.58894 2.8108
H -14.1345 -7.88672 3.57104
H 14.454 -7.36473 3.15312
O -6.78872 14.6607 4.43389
H -7.76494 14.7744 4.61838
H -6.50952 -14.7828 3.71345
O 6.64372 11.6328 14.6833
H 7.0607 10.9086 14.1341
H 6.8239 11.4622 -14.4263
O -6.7208 -3.54505 -2.21463
H -6.62567 -2.72622 -2.78071
H -5.86201 -3.71866 -1.73265
O -1.91935 -11.4142 10.8988
H -2.71136 -11.119 11.4332
H -1.17012 -11.652 11.517
O 14.9415 -5.3594 -8.3744
H 14.3737 -6.0034 -8.8871
H 14.7066 -4.4241 -8.63897
O 8.3953 6.10315 -7.53223
H 9.04236 6.58147 -8.12593
H 8.88148 5.72859 -6.74273
O 6.64772 10.169 2.84327
H 6.76284 9.67568 1.9811
H 7.39612 9.93481 3.46378
O 12.2091 -8.26312 -14.0659
H 11.4105 -8.41283 -13.4829
H 12.7541 -7.50988 -13.6977
O 1.44268 -14.7305 3.70188
H 0.744442 -14.0337 3.86576
H 1.66134 -14.7603 2.72655
O 6.71356 -2.27144 -14.6295
H 6.11273 -2.61209 -13.9063
H 7.52853 -1.86134 -14.2201
O 5.05259 4.04823 -0.920793
H 4.54879 4.87554 -0.672375
H 4.62507 3.62484 -1.7195
O 3.06711 -14.3177 -6.18625
H 3.7229 -13.8212 -5.61755
H 3.36092 14.8095 -6.28076
O 8.26005 2.40689 10.5852
H 8.83796 1.60131 10.7158
H 8.17432 2.89947 11.4512
O -11.8343 2.93214 5.38638
H -10.8763 2.9904 5.10593
H -12.265 2.14735 4.9407
O 8.87851 -13.9584 -12.9362
H 9.80147 -13.7297 -12.6267
H 8.20831 -13.4878 -12.3624
O 3.35377 -10.5764 -14.2012
H 3.14142 -9.62392 -14.4193
H 4.28749 -10.7848 -14.4922
O -5.31013 -0.704185 6.00444
H -5.44858 -0.0114573 5.29668
H -5.47444 -0.299221 6.90387
O -10.4595 -2.96106 6.7676
H -9.66129 -2.61503 7.2606
H -10.3448 -2.79389 5.78839
O -4.36534 -13.97 -4.70788
H -5.23747 -14.089 -5.18243
H -4.02672 -13.0416 -4.86065
O 13.1202 0.834573 6.49737
H 12.7355 1.60633 7.00368
H 14.0444 0.645547 6.82938
O 9.04819 -11.0815 11.529
H 8.89525 -11.4325 10.6052
H 8.39 -10.3539 11.7223
O -13.65 -9.09376 -10.5586
H -13.1087 -9.43642 -11.3264
H -13.2259 -8.26399 -10.1958
O 1.20773 -10.2862 -11.0332
H 0.567483 -10.1021 -10.2874
H 0.895219 -11.0819 -11.5519
O 1.17282 -0.908244 -14.3796
H 1.88117 -0.590456 -15.0098
H 0.289826 -0.524313 -14.6496
O -13.5689 4.8755 -3.53021
H -14.553 4.71527 -3.45395
H -13.2415 5.33702 -2.70573
O 10.2289 2.9195 3.50685
H 10.6763 2.02542 3.52627
H 10.5848 3.48658 4.2496
O -10.8076 6.24077 -1.77102
H -10.6496 7.22643 -1.82988
H -11.7439 6.0711 -1.46357
O -1.75898 -9.23143 -5.61296
H -1.64312 -9.44551 -6.58286
H -0.865451 -9.22486 -5.16403
O 11.6805 -13.8406 -4.01901
H 12.4182 -14.5148 -3.98478
H 10.9043 -14.2209 -4.52187
O -10.3046 10.9832 -4.12332
H -9.30987 10.8983 -4.06639
H -10.6452 10.4159 -4.8731
O -7.99285 -5.03201 5.22031
H -8.31497 -5.76729 5.8166
H -6.99768 -5.0827 5.13645
O -10.0092 -2.76093 14.3961
H -10.718 -2.87362 -14.9858
H -10.0824 -1.84985 13.9904
O 13.6384 10.3935 -7.80511
H 14.5619 10.6406 -7.51162
H 12.969 10.8855 -7.24858
O -2.66998 11.8042 9.96726
H -1.94072 12.4776 9.84572
H -2.63427 11.1364 9.22385
O -13.0052 2.17387 -7.63581
H -13.1008 2.62217 -8.52454
H -13.8098 1.60677 -7.46019
O 6.24811 6.90738 3.35819
H 6.65516 7.72331 2.94766
H 5.53385 6.55189 2.75534
O 3.01283 1.54197 -11.366
H 3.91519 1.70878 -10.9686
H 2.33958 2.13551 -10.925
O -6.3158 11.2237 0.959457
H -6.12478 11.4747 0.0105187
H -6.86473 10.3881 0.979178
O -2.54914 -12.0134 -0.604892
H -2.92777 -11.1545 -0.260248
H -2.40619 -11.9424 -1.59205
O 4.26622 -10.902 -5.56691
H 4.99538 -11.3221 -6.10708
H 3.98276 -10.0456 -5.99856
O -1.33733 11.573 2.37023
H -0.624404 11.904 2.98837
H -1.33559 12.1224 1.53473
O 2.11848 -6.78232 -7.29609
H 2.22242 -7.71546 -6.95196
H 1.61079 -6.79934 -8.15744
O -10.6223 -14.6576 -12.1996
H -9.85356 -14.3248 -12.7457
H -11.2279 -13.8938 -11.9763
O -0.249547 -10.2761 2.14222
H -1.10936 -9.76926 2.08068
H 0.0712731 -10.5012 1.22222
O -7.53041 -5.40063 -5.18908
H -8.28802 -4.83682 -4.86028
H -7.3911 -6.16892 -4.56436
O -9.12384 -0.313478 7.65561
H -9.67988 -0.913712 7.08072
H -9.7172 0.18996 8.28366
O -14.5351 6.59186 -9.06515
H -13.5963 6.24785 -9.07875
H 14.9096 5.82709 -8.94797
O 5.58124 0.98858 14.2731
H 4.98717 0.613293 14.9845
H 5.19894 1.8505 13.94
O -11.8305 -1.76219 0.341597
H -11.7592 -1.8362 1.33628
H -10.9487 -1.9859 -0.0733803
O 7.84162 -10.4991 -6.3283
H 8.33816 -11.3301 -6.07753
H 7.01029 -10.7451 -6.82664
O -7.52345 -2.34713 5.11659
H -7.72583 -3.20948 5.58066
H -6.67008 -1.96824 5.47458
O 5.71804 -8.49866 -3.8673
H 5.07507 -8.24871 -3.14336
H 5.90745 -9.47944 -3.82085
O 4.03929 3.74903 5.32413
H 5.00701 3.9466 5.16779
H 3.64931 4.44724 5.92446
O 13.2888 12.3771 -1.32541
H 13.7351 13.1897 -1.70016
H 12.4052 12.633 -0.933241
O -10.3059 0.0276882 2.57383
H -9.55185 0.165416 3.216
H -10.3485 0.799373 1.93927
O -8.32945 -9.20123 0.245375
H -7.46293 -9.34268 -0.233269
H -8.95495 -8.68805 -0.342312
O -4.65541 8.48235 2.16895
H -4.58886 9.33203 1.6459
H -3.74333 8.20385 2.46982
O -9.84025 8.50435 -7.41898
H -9.97521 9.38133 -7.88013
H -9.31643 7.89301 -8.01214
O 5.78558 -7.32241 -6.50006
H 5.27965 -8.00151 -7.03187
H 5.83261 -7.61465 -5.54489
O 14.6952 10.2103 8.7906
H -14.9528 10.6519 9.57784
H 13.7451 10.5133 8.71667
O 1.51691 -9.51614 -6.48987
H 1.50154 -9.42978 -5.49374
H 1.11739 -10.3938 -6.75454
O 12.3188 4.77599 11.6812
H 12.6062 5.43831 12.3731
H 11.5209 5.12922 11.1928
O -13.765 8.84378 -2.79189
H -12.9417 9.40819 -2.85181
H -13.9846 8.47755 -3.69612
O 2.73795 -3.91505 -6.12677
H 2.41136 -4.70681 -6.64295
H 2.05093 -3.18918 -6.15978
O -9.03143 7.11636 1.07452
H -9.69243 6.39451 1.2794
H -9.34767 7.64388 0.286053
O -1.14792 5.63559 -10.3536
H -1.40205 6.07351 -11.2159
H -1.77516 5.93012 -9.63264
O 12.7346 -8.22049 11.0034
H 12.0848 -8.30668 11.7585
H 12.2347 -8.11206 10.1441
O 0.919003 -14.0313 -9.5462
H -0.0741704 -14.1164 -9.62588
H 1.35621 -14.8288 -9.96193
O 13.9062 -11.1482 2.69562
H 14.595 -10.8989 2.01484
H 13.274 -10.3844 2.82539
O 12.5278 3.58139 -3.62322
H 12.7255 2.83084 -2.9927
H 12.9612 4.419 -3.29068
O 11.2177 -13.601 -11.8471
H 11.0518 -13.5716 -10.8614
H 12.0394 -14.1405 -12.0308
O -7.41887 -0.0207945 -13.4196
H -7.05051 0.255361 -12.5319
H -6.85098 -0.748419 -13.8044
O -2.46898 -6.45142 -1.12592
H -2.73098 -5.79524 -0.418279
H -1.49491 -6.66131 -1.04165
O -8.32107 0.312892 4.22125
H -8.21247 -0.681169 4.21731
H -7.52783 0.733102 4.66188
O -13.9989 -7.13495 -1.36822
H -14.7654 -6.53856 -1.60619
H -14.3255 -7.88338 -0.791052
O 7.69096 9.28799 13.181
H 6.94682 9.71054 12.6636
H 7.41135 8.37666 13.4831
O -7.13178 4.35282 -7.84989
H -7.75541 5.10318 -7.63073
H -7.19107 3.65179 -7.13925
O 5.78774 -4.41288 -12.1616
H 5.82564 -4.18729 -11.1882
H 5.54588 -5.37697 -12.2712
O 5.57737 5.72325 -11.9735
H 5.76029 6.65229 -11.652
H 6.03163 5.57932 -12.8527
O -1.7207 -11.6591 -10.8869
H -1.77471 -12.4734 -10.309
H -1.19502 -11.8696 -11.7111
O 14.2594 3.13257 -11.7129
H 14.9855 3.49373 -12.2979
H 13.3739 3.2721 -12.156
O 3.53759 -10.2478 0.974256
H 2.88737 -9.86711 1.63173
H 4.46961 -10.0251 1.26016
O -10.9096 -0.140874 13.3927
H -10.3267 0.0463038 12.6021
H -11.2452 0.72179 13.7711
O 11.9747 10.1088 1.56355
H 11.928 10.9369 1.00492
H 12.8847 9.7024 1.48168
O -12.4614 -8.01577 -4.23073
H -13.2428 -7.5071 -4.59201
H -12.4842 -7.99617 -3.23119
O 4.04402 0.791823 5.70101
H 4.02021 1.70479 5.29371
H 3.99003 0.869468 6.69652
O -5.26611 7.59168 7.00193
H -4.41431 7.93049 6.60241
H -6.03939 7.89644 6.44594
O 5.7995 -11.3031 -14.9256
H 6.4053 -12.0951 -14.8499
H 5.63406 -11.1011 14.1874
O -14.7224 -13.9709 -6.84901
H 14.6215 -13.5128 -7.34972
H -13.9743 -14.1854 -7.47692
O -6.00252 -9.80782 -1.11886
H -6.15193 -10.6271 -1.67246
H -5.25895 -9.26903 -1.51482
O 2.06595 4.26376 -2.55466
H 2.7688 3.74462 -3.04095
H 1.16495 3.88645 -2.7687
O -13.7837 -7.09941 7.6654
H -12.946 -7.62502 7.81317
H -13.566 -6.25661 7.17321
O -6.37862 -3.23874 7.70804
H -6.6083 -4.17252 7.98242
H -5.44419 -3.02742 7.99467
O -12.2863 13.4892 1.79808
H -12.8753 13.076 1.10356
H -12.4689 13.0651 2.68511
O 3.07499 -12.4845 13.3795
H 3.73486 -11.7888 13.0958
H 3.34303 -13.3713 13.0031
O 13.0315 14.3835 -13.4472
H 12.7315 14.6541 -14.3619
H 14.02 14.2322 -13.4518
O -2.5943 -6.75948 7.36743
H -2.74229 -7.04002 8.31578
H -2.7679 -7.53437 6.75967
O 12.6144 -7.70994 -6.99627
H 12.48 -6.84718 -6.50888
H 12.8688 -7.52087 -7.94467
O 13.947 -10.1912 -10.7628
H 14.8419 -9.74627 -10.7283
H 13.9334 -10.9622 -10.126
O 8.95323 14.1688 0.165986
H 8.16036 14.7669 0.282455
H 8.65856 13.2972 -0.225786
O 0.489284 -10.6886 13.8515
H -0.316139 -11.0553 14.3171
H 1.31575 -10.9966 14.3227
O 2.66041 8.0219 10.0389
H 3.07745 8.5121 9.27359
H 2.97256 8.42182 10.9007
O 9.79834 -3.80186 14.6728
H 10.3776 -3.86526 13.8602
H 9.62748 -2.83995 14.8861
O -7.41681 -5.79043 -7.79147
H -8.40029 -5.94776 -7.7022
H -7.01835 -5.64854 -6.88534
O 1.77803 3.09935 -13.7115
H 1.87361 2.46322 -12.9459
H 0.923827 2.9115 -14.1963
O -6.42862 -12.4042 -2.26016
H -6.0441 -13.1304 -1.69028
H -7.3644 -12.6437 -2.51883
O 1.62197 -6.57153 -9.99981
H 2.38993 -7.01389 -10.463
H 1.87346 -5.63429 -9.75834
O 6.1829 -0.724712 -9.26705
H 6.86148 -0.883549 -8.54992
H 6.56431 -0.108731 -9.95629
O -0.134638 11.6231 -13.5483
H 0.605418 11.0746 -13.1592
H 0.238208 12.4782 -13.9088
O 0.478469 -13.698 -0.87174
H -0.487167 -13.9428 -0.958866
H 0.976562 -14.0138 -1.67928
O 3.7024 -13.0343 -9.12809
H 3.76964 -12.5302 -9.98911
H 2.74274 -13.2398 -8.93621
O -10.752 13.5106 -5.71301
H -10.8287 12.5395 -5.48732
H -10.5109 14.0259 -4.89061
O 4.18615 -0.138982 -13.9274
H 3.81624 0.428057 -13.1915
H 4.1192 -1.10322 -13.671
O -13.295 -6.15788 10.2408
H -13.6287 -6.79041 9.54183
H -13.6314 -6.44467 11.1378
O -1.64968 15.0063 -4.67541
H -2.53894 -14.6396 -4.52644
H -1.4306 14.418 -3.89707
O 2.34827 -5.89915 12.89
H 1.54694 -6.49185 12.9709
H 2.17071 -5.03296 13.357
O -8.00007 3.52917 -10.9501
H -7.01881 3.68793 -11.0592
H -8.2493 3.63178 -9.9871
O 8.18108 1.18624 -10.5285
H 8.81484 0.460633 -10.7965
H 8.69644 1.95855 -10.1571
O 1.5939 -14.5647 -3.1755
H 1.9346 -13.644 -3.36588
H 2.28456 14.8411 -3.44123
O 12.2816 2.28122 12.781
H 12.7905 3.13156 12.6474
H 11.3004 2.47024 12.7411
O 13.0369 -1.47261 -13.352
H 14.018 -1.28201 -13.3831
H 12.5288 -0.612134 -13.3898
O 7.98011 14.2601 11.4514
H 7.89794 13.6755 10.6443
H 8.39402 -14.946 11.1904
O 15.0217 5.75895 -14.2418
H -14.793 6.39388 -13.5156
H -14.662 4.85889 -14.0571
O -13.7036 -5.09256 1.76699
H -13.9683 -5.9611 2.18602
H -12.8517 -4.76961 2.17903
O 7.34124 -5.00016 13.5844
H 7.95755 -4.38588 14.0772
H 6.45393 -5.02198 14.0451
O 4.67644 9.86826 5.01862
H 5.44215 10.1197 4.42665
H 4.60905 8.87194 5.07133
O 11.9821 6.70678 5.99607
H 12.3777 6.73436 6.91407
H 12.0611 7.60887 5.57185
O -14.4854 8.04419 -12.2577
H -15.0221 8.46585 -11.5269
H -13.688 7.58681 -11.8643
O 5.45499 -6.77385 6.34378
H 5.55953 -7.4545 5.61868
H 6.3449 -6.59399 6.76291
O -6.30421 -9.9655 -11.1331
H -7.28151 -9.90288 -11.3354
H -6.13734 -9.65762 -10.1964
O -9.40074 6.81033 5.7424
H -10.2735 6.92899 6.21586
H -8.92027 6.01985 6.12222
O 0.946604 -14.4876 8.17518
H 1.80932 -14.1069 8.50793
H 0.283022 -13.7501 8.05007
O -6.33362 9.02259 12.5133
H -5.74928 8.51715 11.8784
H -6.01964 8.86834 13.4501
O 5.57612 11.3166 7.57613
H 5.6791 12.3108 7.60662
H 5.23006 11.0447 6.67818
O 10.0787 11.6029 -3.17631
H 11.042 11.6404 -3.44216
H 9.67436 10.7506 -3.50785
O 2.27429 14.2494 5.91853
H 1.72626 14.6298 6.66344
H 2.03598 14.7071 5.06199
O 1.18147 -11.1596 -0.383946
H 2.10393 -11.0491 -0.0140566
H 0.969616 -12.1334 -0.465787
O 2.95476 10.7291 -2.83817
H 2.46592 9.86255 -2.9388
H 2.74612 11.1277 -1.94513
O 3.42685 13.3726 -3.69377
H 2.95096 12.5365 -3.42088
H 3.56248 13.3707 -4.68451
O -8.14329 4.41005 0.427053
H -7.88726 5.34382 0.677031
H -8.66429 3.99612 1.17351
O 10.4835 4.22978 5.98432
H 10.6802 3.75018 6.83947
H 10.9753 5.10035 5.96972
O -13.9268 -11.1193 1.01084
H -13.5259 -11.1932 1.92395
H -13.3487 -11.602 0.352942
O 1.07617 0.131914 5.94795
H 1.27897 -0.795854 6.26113
H 1.51025 0.286458 5.06045
O 3.35401 -1.03879 13.2391
H 3.93502 -1.33933 12.4827
H 3.8849 -1.03612 14.0865
O -2.24858 6.17364 13.8283
H -2.02048 6.51209 12.9154
H -3.23675 6.03583 13.8954
O 4.92654 8.18354 -0.896827
H 4.07916 7.81628 -0.513387
H 5.24384 7.58825 -1.63502
O -7.83389 3.14032 -13.6224
H -6.91622 2.74797 -13.6849
H -8.09903 3.21641 -12.6612
O 14.0571 7.35335 -4.69332
H 14.6917 6.997 -5.37911
H 13.1867 7.5798 -5.13039
O -4.70856 5.29377 -13.807
H -3.87769 5.66382 -13.3915
H -4.71914 4.29933 -13.7024
O 11.5983 3.29217 -12.2916
H 11.4857 4.08466 -12.891
H 10.9065 3.31908 -11.57
O 11.4869 -14.2588 -9.07676
H 12.0036 -14.8155 -8.42625
H 11.3569 -13.3413 -8.70074
O 9.08086 -6.01682 -1.39676
H 8.30698 -6.5607 -1.72121
H 9.23169 -6.1983 -0.425015
O 9.84649 2.23975 -2.03083
H 9.65246 1.83455 -2.92421
H 10.8315 2.2143 -1.86013
O -6.10128 11.8202 3.72114
H -6.26215 11.5061 2.78549
H -6.34901 12.7862 3.7957
O -13.4554 11.4784 -7.03618
H -12.8161 10.8005 -6.67324
H -13.0723 11.888 -7.86411
O 12.1959 11.2754 8.5642
H 11.6671 10.6663 9.15532
H 12.4259 12.1094 9.06557
O -13.9748 4.78691 4.66916
H -13.1144 4.30907 4.84648
H -14.6858 4.12074 4.44414
O 9.36609 -12.7098 -6.1068
H 9.97663 -12.2033 -6.71567
H 9.59314 -13.683 -6.14125
O 14.0126 14.4953 -4.85155
H 14.5639 14.9979 -5.51748
H 14.2396 13.5225 -4.89729
O 8.69466 13.6634 -13.8622
H 8.54488 13.0866 -13.0592
H 8.94165 14.5866 -13.5681
O 7.19403 8.55352 0.755996
H 8.11265 8.55086 0.360902
H 6.53119 8.27664 0.0603276
O -1.5323 5.76911 -2.83293
H -1.0535 5.62636 -3.69916
H -0.891095 6.12299 -2.15206
O 4.82556 14.738 4.52959
H 4.98604 14.0861 3.78846
H 4.06443 14.4196 5.0946
O -9.78134 -3.96253 -4.38505
H -9.55984 -2.98938 -4.44744
H -10.7609 -4.09191 -4.53871
O -5.75955 3.04371 1.75128
H -6.46171 3.42464 1.14976
H -4.96483 3.65056 1.76201
O -6.74859 -3.37423 2.59052
H -7.51916 -3.88677 2.21171
H -6.83826 -3.32429 3.58522
O 0.35948 12.606 3.9963
H 0.404249 13.6018 3.91571
H 0.891774 12.3116 4.78999
O -5.67696 -1.49152 -14.9702
H -5.32271 -2.2717 -14.4546
H -6.31212 -1.8159 14.4072
O 14.8515 -6.59274 -4.2878
H 14.3357 -7.43695 -4.43366
H 14.686 -6.25704 -3.3605
O 11.3365 0.557351 -13.3477
H 10.7167 0.0982902 -12.7112
H 11.7278 1.36547 -12.9074
O -9.77311 10.8294 2.99243
H -10.1213 10.5398 3.88402
H -8.90396 10.3702 2.80888
O -8.67528 -5.26961 -12.1422
H -8.81961 -5.34099 -11.1552
H -9.01248 -4.38536 -12.4652
O -2.34131 -13.93 -9.90344
H -2.49398 -14.5417 -9.1272
H -2.33524 -14.4616 -10.7504
O 5.08438 -13.3856 -4.45747
H 4.69299 -12.4675 -4.39485
H 6.05857 -13.3485 -4.2349
O -10.0241 -5.19766 -9.59659
H -10.9276 -5.21874 -10.0247
H -9.82059 -4.26674 -9.29339
O -0.752336 -9.06301 10.2478
H -0.659837 -8.91729 9.26278
H -1.12001 -9.97754 10.4163
O -8.2937 14.1282 -3.52374
H -7.80467 14.53 -4.29794
H -9.17766 14.583 -3.41554
O -11.7862 2.46487 -14.2814