2611
Atoms. Timestep: 8000000
O 5.37634 7.36724 0.470176
H 4.51722 6.89111 0.282498
H 5.89413 7.46788 -0.379395
O -6.01315 1.53346 -5.8289
H -5.77609 2.32511 -5.26578
H -5.22138 0.926977 -5.90152
O -10.4244 4.07528 4.91571
H -10.9945 4.75274 5.3805
H -10.9678 3.60139 4.22278
O -8.92126 13.4411 9.6677
H -9.06924 14.419 9.51997
H -9.21728 12.9332 8.85871
O 2.1467 9.40319 -6.68314
H 2.31626 10.3706 -6.87117
H 2.8943 8.8548 -7.0578
O 13.6194 -14.0868 -7.08684
H 12.9616 -13.5922 -6.51883
H 13.4662 15.0676 -6.99434
O -8.85113 1.34865 11.6246
H -9.46231 1.0701 10.8838
H -9.31931 1.24015 12.5016
O -11.3634 -4.03828 -14.9006
H -11.1565 -3.19775 -14.3999
H -11.6621 -3.80941 14.3112
O 1.57166 -3.42408 -10.2654
H 2.01446 -3.21927 -9.39252
H 1.2851 -2.57126 -10.702
O -2.8585 5.45019 -5.86423
H -3.18066 5.62842 -4.93447
H -2.13517 6.10038 -6.09673
O 12.4941 -10.0175 14.7152
H 11.9933 -10.455 13.9683
H 12.2199 -10.4271 -14.5529
O 14.8859 -3.94571 13.5456
H -14.4072 -3.99253 13.0131
H -15.0647 -3.52243 14.432
O 3.47237 1.71604 11.0608
H 3.99865 2.05922 10.2828
H 2.68073 2.30736 11.2146
O -7.1541 6.4159 -2.91077
H -6.67509 5.77536 -3.511
H -7.41375 7.22953 -3.43096
O 2.19423 -5.98701 -11.3589
H 1.47978 -6.67277 -11.2199
H 1.89224 -5.11041 -10.9842
O -7.76032 -10.7499 6.29516
H -8.28895 -11.2773 5.62999
H -8.37218 -10.1404 6.79931
O 9.96275 4.9558 11.8661
H 9.17028 4.40905 11.5958
H 10.7622 4.66731 11.3391
O -6.40306 -10.3583 -14.6169
H -6.80033 -9.47667 -14.3622
H -6.11083 -10.8429 -13.7923
O 10.2422 -9.94921 3.44216
H 11.1382 -10.1835 3.06489
H 9.90017 -9.1206 2.99894
O 10.8477 2.8546 1.71246
H 10.9725 2.80559 0.721483
H 9.94658 3.23722 1.91639
O -5.51629 -0.958722 -13.6196
H -6.09986 -1.05324 -14.4261
H -5.8376 -0.19208 -13.0637
O -1.7649 4.24616 4.50138
H -2.23634 3.70683 5.19914
H -0.776625 4.17539 4.63672
O -7.64708 -1.64207 14.3276
H -7.9629 -2.59087 14.3213
H -7.06857 -1.47797 13.5286
O 12.7483 -13.9994 5.61901
H 12.2065 -13.2694 5.20237
H 12.138 -14.6564 6.06156
O 13.2492 5.97077 -6.08872
H 12.7354 6.54975 -5.45569
H 14.1852 6.31351 -6.16892
O 12.9674 0.592916 -14.5265
H 12.9781 0.748991 14.6241
H 13.8299 0.171426 -14.2464
O 13.6095 -14.2307 10.8473
H 14.2204 -14.3556 10.0654
H 13.2971 15.0148 11.1721
O -0.619401 -5.56248 -0.912454
H -0.593149 -5.37603 -1.89457
H -0.281394 -4.76501 -0.412646
O 12.7287 -1.91734 -5.29307
H 12.8844 -1.62496 -4.34953
H 11.7604 -2.13271 -5.41981
O -9.5124 14.7076 -8.94143
H -8.92075 14.1898 -9.55938
H -8.94976 -14.881 -8.32384
O 12.3698 -13.3049 -0.260893
H 12.0069 -13.7094 0.578584
H 11.6185 -12.9204 -0.797347
O -7.05416 -3.67653 9.522
H -7.39069 -4.0202 8.64527
H -7.12099 -2.67887 9.53676
O 2.14907 -7.59516 12.5374
H 1.61421 -8.42136 12.3604
H 1.61472 -6.96694 13.1029
O -14.7265 -4.96871 -9.81271
H 14.4503 -4.91137 -9.54378
H -14.3933 -4.05753 -10.055
O -3.40414 -6.10907 5.31006
H -3.8857 -6.78818 5.86405
H -3.17009 -6.50761 4.42328
O -0.168233 11.0849 -3.61395
H 0.688791 11.5369 -3.3666
H -0.87412 11.7745 -3.77592
O 12.7504 6.27226 -9.19984
H 12.6858 5.90594 -10.1281
H 12.8246 5.51749 -8.54806
O -10.1406 9.8712 -6.08125
H -11.0578 9.86227 -6.47957
H -9.52132 10.3769 -6.68189
O 13.2746 10.3819 -13.7474
H 13.351 9.55402 -13.1917
H 14.1211 10.5167 -14.2625
O 1.27535 -14.1934 12.8187
H 1.61449 -14.1455 13.7582
H 1.48092 -13.3365 12.3461
O 6.71197 13.261 4.36254
H 6.91833 12.4797 4.95157
H 7.33631 14.0128 4.57503
O -0.446605 -10.9944 -11.3664
H -1.25149 -10.454 -11.121
H -0.622091 -11.9599 -11.1741
O -1.35635 -3.04241 8.1926
H -2.3421 -3.13163 8.33524
H -0.947963 -3.95144 8.10953
O 6.46204 11.4047 -1.03428
H 7.45937 11.4555 -1.08687
H 6.06488 12.2342 -1.42698
O -3.04974 -9.70962 -1.46536
H -2.62974 -9.09268 -0.799776
H -3.01325 -10.6474 -1.11995
O 14.1647 -0.822535 -9.83865
H 13.2586 -0.422531 -9.97638
H 14.3086 -0.994361 -8.86407
O -6.40572 12.7869 1.3359
H -7.21736 13.2209 1.72701
H -5.75617 12.5755 2.06623
O 5.36293 10.0396 8.25865
H 5.82822 10.4236 7.46109
H 5.98499 9.42486 8.74354
O 1.21586 1.53737 -10.3123
H 1.70648 1.18424 -9.5157
H 0.641781 2.30799 -10.0356
O -0.498724 11.4136 -10.8901
H -0.504965 11.0819 -11.8335
H 0.310341 11.0626 -10.4187
O -14.4424 13.7404 -5.78524
H 14.7336 13.4813 -5.70189
H -14.2178 14.4179 -5.08485
O -12.5414 10.197 -7.20467
H -13.337 9.68353 -6.88324
H -12.8438 10.944 -7.79676
O -8.34874 -12.9763 -0.0142496
H -9.00918 -12.5656 -0.642808
H -8.83477 -13.3972 0.751689
O 9.08379 -6.75014 13.9754
H 8.6326 -6.98948 13.1156
H 9.48998 -5.83976 13.8965
O -2.3567 2.2905 14.1765
H -1.83242 3.0268 14.6042
H -2.21337 2.31061 13.187
O 14.9441 8.0405 -9.39826
H -14.4797 7.50647 -9.85029
H 14.0865 7.52617 -9.40869
O -10.6135 -6.37625 4.69977
H -11.0978 -7.23815 4.84998
H -9.7283 -6.56135 4.2729
O 12.2707 12.8981 9.36436
H 13.0472 12.8616 9.99337
H 12.3471 12.1571 8.6972
O -9.19856 6.32129 1.40157
H -10.1745 6.11312 1.33621
H -9.05326 7.022 2.10007
O 13.4774 -8.32517 -3.91586
H 13.8749 -7.87508 -3.1162
H 12.6306 -8.78695 -3.65187
O -9.93694 -12.4339 -2.12187
H -9.93021 -13.4165 -2.3076
H -9.79046 -11.9325 -2.97459
O -10.7272 -8.46556 -5.9113
H -11.3945 -7.881 -5.44982
H -10.6572 -8.19735 -6.87212
O -7.24043 0.781954 4.08813
H -7.73793 1.60913 3.82683
H -7.5666 0.0103111 3.54207
O -1.43986 5.61151 -0.711284
H -0.769681 5.328 -0.0253554
H -2.36223 5.4241 -0.373485
O 2.52244 3.27842 -5.97748
H 1.71038 3.83096 -5.78971
H 3.24764 3.86405 -6.33959
O -5.3589 -13.7022 12.7051
H -6.20686 -13.2093 12.9
H -4.82714 -13.1954 12.0266
O 8.72151 5.71098 -3.91784
H 9.51547 5.31163 -4.37625
H 8.92553 6.65541 -3.66011
O 9.94039 13.5036 -9.84642
H 9.89708 12.579 -9.4679
H 10.1497 14.1534 -9.11574
O -7.85681 -1.59305 -9.84722
H -8.50437 -1.21361 -10.508
H -7.5937 -2.51538 -10.1302
O -1.03538 11.4757 5.52232
H -0.88181 11.2599 4.55804
H -1.91303 11.9443 5.62334
O -12.5533 -8.86654 -14.6668
H -13.2276 -9.08616 14.7665
H -12.598 -7.89017 -14.4553
O -10.8731 4.67634 14.8775
H -10.3431 5.52302 14.9244
H -11.2061 4.44052 -14.3478
O 9.91736 10.4321 -1.33042
H 9.91748 10.3958 -0.331072
H 9.75194 9.51663 -1.69719
O 7.70169 11.3224 6.1251
H 8.38256 10.7267 5.69911
H 8.13644 11.8646 6.8442
O -12.9792 -13.4865 10.5092
H -12.5071 -13.8945 11.2906
H -13.6364 -12.8066 10.8347
O 2.89607 -13.458 6.31896
H 3.58148 -13.4847 5.59129
H 2.36868 -14.3075 6.31151
O 14.0861 -15.0616 -1.1008
H 13.6017 14.3252 -1.54881
H 13.4488 -14.3108 -0.926955
O -12.4792 2.74107 11.0216
H -13.1363 2.65988 11.771
H -12.7626 2.15247 10.2645
O -4.4703 7.41143 6.54076
H -5.03633 7.46985 5.71845
H -3.53833 7.70302 6.3253
O -5.95596 -7.03671 -2.33452
H -4.98259 -7.01989 -2.10587
H -6.32783 -7.9449 -2.14241
O -14.2077 3.68576 -9.41454
H -14.3588 4.40614 -10.0915
H -14.3588 4.05358 -8.497
O -14.3231 2.51378 13.0396
H 14.9863 3.0112 13.2955
H -13.8004 2.29117 13.8626
O -4.79257 3.99813 10.6558
H -4.61021 3.01654 10.5989
H -4.38814 4.45861 9.86561
O 0.282934 -10.6331 -2.35991
H 0.116512 -11.3792 -1.7151
H 0.327748 -9.76663 -1.86276
O 10.0914 -8.658 -12.4842
H 9.89875 -8.90309 -13.4344
H 10.996 -8.23567 -12.4258
O 6.1085 7.23318 -13.6505
H 7.07732 7.47657 -13.6041
H 5.85619 6.71262 -12.8348
O -10.6863 13.9463 12.4471
H -10.1645 13.6836 11.6355
H -10.431 14.8733 12.7218
O -0.569536 3.95027 -14.8308
H -0.446351 4.74414 -14.2353
H 0.281694 3.42684 -14.8688
O -3.90978 9.13275 -1.39837
H -4.39143 8.85069 -2.22811
H -2.93715 8.91855 -1.48844
O 7.59514 -12.4965 3.89039
H 7.86201 -12.8296 2.98605
H 6.79434 -11.9037 3.80432
O 6.78596 -9.94495 -3.5333
H 7.20201 -9.03623 -3.56699
H 6.2582 -10.0388 -2.6891
O -0.0236383 -1.49557 6.14665
H -0.476358 -2.03225 6.85871
H 0.898917 -1.25375 6.44736
O 1.39993 13.2185 -5.89552
H 1.58217 13.1526 -4.91448
H 2.20794 12.923 -6.40524
O 10.3776 -5.27899 8.61324
H 9.59799 -5.77512 8.23107
H 10.3096 -5.26883 9.61088
O 10.5164 12.4574 -5.49034
H 9.99481 12.6221 -4.6532
H 10.0129 11.8238 -6.07769
O -1.16367 -3.36286 13.3017
H -0.710729 -2.48088 13.432
H -0.610751 -3.93531 12.6963
O 0.34454 5.03212 -5.74805
H -0.426299 4.40638 -5.8675
H 0.0252707 5.97543 -5.83882
O 1.25851 -14.0077 2.83779
H 1.342 -13.844 1.85481
H 1.64846 -14.901 3.06126
O 7.10842 -14.3782 -15.0022
H 6.67447 -13.8952 -14.2417
H 8.03167 -14.6563 -14.737
O 12.2168 -3.33212 15.0233
H 12.5113 -3.23156 -14.1646
H 12.8213 -3.97523 14.5532
O 7.12303 0.514795 4.65916
H 6.1521 0.613109 4.87739
H 7.24646 0.545115 3.66727
O -8.18713 -1.95116 0.50676
H -7.33861 -1.44426 0.658635
H -8.15651 -2.39106 -0.390771
O 8.52812 2.58994 5.78209
H 8.04578 1.80549 5.39224
H 9.49969 2.37175 5.87403
O 9.76679 11.555 -12.3394
H 9.90803 12.5311 -12.1743
H 8.78714 11.3544 -12.3338
O -9.25473 3.58947 -12.4243
H -8.85687 2.9284 -13.0605
H -8.5434 4.21685 -12.1074
O -0.531796 6.92094 -10.7609
H -1.51131 6.81944 -10.9349
H -0.374473 7.73931 -10.2082
O -9.1046 8.24672 3.43439
H -8.21705 8.7069 3.41206
H -9.76127 8.81308 3.93241
O -13.5407 -6.88832 -11.1437
H -14.1849 -7.62429 -11.352
H -14.0395 -6.10204 -10.779
O -9.19048 5.35381 -5.52271
H -8.37488 5.93171 -5.55166
H -9.93194 5.84631 -5.06697
O 12.6235 -10.6358 2.0732
H 12.5202 -10.0856 1.24459
H 13.0891 -11.492 1.84894
O -6.8067 11.6116 13.7881
H -6.3657 12.5081 13.8309
H -7.449 11.5924 13.0219
O -14.4714 -12.3994 3.65247
H -14.8454 -11.8536 4.40224
H -14.638 -13.3692 3.83079
O -5.66517 -4.55336 -14.6591
H -5.07667 -4.85629 14.7296
H -6.58015 -4.35753 -15.0119
O -4.75469 4.9475 -13.2297
H -5.20095 4.16985 -13.6725
H -4.13969 5.39351 -13.88
O -0.489816 3.07931 -8.84145
H -0.455466 3.20508 -7.84998
H -1.44296 3.00885 -9.13567
O -7.35885 -5.48746 -8.69893
H -7.79665 -5.58927 -9.59222
H -7.92015 -4.89812 -8.11787
O -3.50038 10.4498 10.7785
H -4.07158 9.97554 10.1086
H -3.96891 11.2764 11.0904
O -0.623526 -5.41641 -3.67572
H -1.62215 -5.37026 -3.70062
H -0.325313 -6.33184 -3.94604
O 13.9302 5.74129 12.2294
H 13.911 5.13813 13.0268
H 14.4997 6.53883 12.4284
O 0.253454 -8.023 -1.13708
H 0.000195543 -7.06985 -0.971658
H 1.2034 -8.1683 -0.86048
O 4.42608 14.7635 -3.74006
H 4.44893 14.6144 -4.72861
H 5.2008 14.296 -3.31441
O 2.72906 10.0598 8.89363
H 2.48311 11.0081 8.69268
H 3.7049 9.92499 8.72171
O 8.17421 -12.3233 13.4526
H 7.59218 -13.0892 13.1792
H 9.01641 -12.6743 13.8619
O -9.64981 -10.8855 -12.2096
H -9.28403 -10.2357 -11.5432
H -9.80737 -10.4177 -13.0793
O 10.1553 -12.8677 -1.7223
H 9.49128 -12.6752 -0.999782
H 9.80091 -12.5377 -2.59724
O 6.42895 3.02662 0.268375
H 6.61132 3.58546 -0.540606
H 6.84894 2.12642 0.153225
O 4.09498 -11.6962 -8.82852
H 3.47145 -11.1016 -9.3362
H 3.75654 -11.8147 -7.89502
O -11.0175 2.13732 2.24529
H -10.0601 1.85358 2.19163
H -11.5031 1.55071 2.89338
O 13.2865 4.01254 14.1641
H 12.5361 3.43286 13.8464
H 13.1662 4.21023 -15.0013
O 2.42443 4.96937 -12.2122
H 2.09088 4.94748 -11.2698
H 2.1564 4.12731 -12.6803
O -6.01531 -12.3365 -6.62363
H -6.55005 -11.5735 -6.9868
H -5.35846 -11.9934 -5.95218
O 7.37206 -5.06116 3.42511
H 7.33021 -4.20373 3.938
H 6.47176 -5.26322 3.03956
O 11.7274 8.96366 8.27187
H 10.9047 9.23716 8.77029
H 12.3976 8.59106 8.91376
O 1.16191 4.9558 -9.79623
H 0.630857 4.2141 -9.3865
H 0.553346 5.71688 -10.0208
O -13.6452 -11.6468 -4.04149
H -13.8729 -11.0818 -4.83456
H -13.1268 -11.1023 -3.38213
O -0.153452 -9.31935 3.15532
H -0.50799 -9.05048 4.05087
H -0.0897636 -10.3162 3.10762
O -1.72868 7.9431 8.79757
H -2.3258 8.60995 9.24339
H -1.3635 8.33485 7.95306
O -13.3286 5.62587 10.0172
H -12.5072 5.32576 10.5022
H -13.3837 6.62407 10.0409
O 12.688 -9.97034 -0.585242
H 12.2774 -9.68399 -1.45094
H 13.6453 -10.2172 -0.735899
O -4.2387 -13.4786 -3.34566
H -5.23002 -13.3657 -3.41333
H -3.78905 -12.8792 -4.00795
O 6.85077 10.1054 -10.033
H 6.90985 10.7452 -10.7992
H 6.56572 10.5966 -9.20986
O 5.48809 -3.38859 -8.78825
H 6.42613 -3.70868 -8.65545
H 5.15783 -3.68669 -9.68384
O -8.59181 8.1498 12.3173
H -8.35919 9.05015 11.9495
H -8.90076 7.55594 11.5744
O -5.76539 14.117 14.2902
H -5.71491 14.9313 13.712
H -6.48165 14.2399 14.9771
O 8.89476 3.55875 -1.58736
H 9.83909 3.22988 -1.57712
H 8.77612 4.20821 -2.33845
O 2.75154 13.1518 -11.269
H 3.21749 12.2683 -11.2207
H 3.31791 13.7999 -11.7781
O 12.7336 10.691 -0.891881
H 13.0084 11.5364 -1.34996
H 11.7811 10.4849 -1.11619
O -0.435446 -11.9929 -4.58422
H 0.0830654 -12.8339 -4.42987
H -0.261579 -11.3522 -3.83641
O 11.5953 5.87774 5.31985
H 12.0212 4.98284 5.45331
H 12.2849 6.59415 5.42548
O 10.3823 -13.6042 14.7712
H 10.624 -14.5743 14.7956
H 10.8403 -13.1276 -14.6167
O 2.68696 -11.4343 12.4048
H 3.04007 -11.6399 13.3175
H 2.033 -10.68 12.4625
O 3.97436 11.5005 4.63295
H 4.02814 10.5084 4.74638
H 4.87707 11.8581 4.39358
O 6.63334 -5.94239 -5.05935
H 6.24707 -6.23022 -4.18302
H 6.27076 -6.52133 -5.78967
O -4.16805 -6.48375 -5.20938
H -4.57444 -7.35418 -4.93152
H -4.19914 -5.84175 -4.44329
O 5.02442 7.90222 -4.23848
H 5.66667 7.27775 -4.68297
H 4.13568 7.84576 -4.69343
O 4.81493 2.68171 8.44814
H 4.11686 2.24472 7.88091
H 5.42649 3.2201 7.86837
O -4.09878 12.2599 2.82402
H -4.27094 12.5172 3.7749
H -3.67804 11.3532 2.795
O -8.47324 3.59885 3.24282
H -8.3994 4.21191 2.45624
H -9.27026 3.85369 3.79038
O -12.6256 1.9491 -5.17015
H -11.6445 2.10735 -5.28173
H -12.9377 2.37628 -4.32157
O 0.491766 -9.30692 7.21722
H 1.06653 -9.23475 8.03235
H 0.862222 -10.0092 6.60927
O 7.66395 -2.78024 13.986
H 7.62501 -3.35481 14.8035
H 6.74519 -2.68193 13.6036
O 6.17265 13.977 -11.5072
H 5.29349 14.4293 -11.6571
H 6.90301 14.66 -11.5059
O -2.23189 -8.07703 0.676191
H -1.24737 -8.21346 0.786262
H -2.40043 -7.18034 0.266876
O 2.55744 13.0162 6.32581
H 2.92355 13.1513 7.24653
H 3.23027 12.5309 5.76745
O -13.5077 14.3131 8.81369
H -13.0548 14.9594 9.42779
H -14.308 14.7491 8.40216
O -13.1159 0.00635199 12.5922
H -13.6794 -0.577404 12.0077
H -13.6405 0.813943 12.8617
O -12.6021 -4.61141 3.77225
H -11.7397 -4.76932 4.25328
H -12.9218 -3.68218 3.95752
O -4.97184 12.2003 -1.20518
H -5.08274 11.2512 -1.4998
H -4.97743 12.242 -0.206062
O -12.3721 8.04262 7.23403
H -13.0237 8.27379 7.95649
H -11.4523 7.98185 7.62173
O 3.4573 -3.15019 -3.94347
H 3.27364 -2.16748 -3.91967
H 4.32434 -3.31596 -4.41332
O 14.2825 -7.48418 -1.41631
H 14.5853 -8.4366 -1.45103
H 13.6679 -7.35798 -0.637576
O -8.6127 1.19891 -6.69112
H -7.67918 1.29146 -6.34473
H -8.88698 0.237847 -6.65743
O 10.9369 7.80771 -5.74799
H 10.9811 8.34666 -6.58917
H 11.3477 8.32619 -4.99801
O -14.8836 3.3007 0.0734591
H -13.8978 3.25924 0.236415
H 14.7916 2.6363 0.660125
O 2.40096 12.6512 -1.95751
H 3.18265 13.2478 -2.13932
H 2.65974 11.9586 -1.28419
O -13.1762 9.27712 -13.3268
H -13.0317 8.30129 -13.4908
H -13.586 9.69436 -14.138
O 12.8151 0.414237 -3.59511
H 13.2695 1.17039 -4.06606
H 13.4983 -0.254802 -3.30243
O 10.6954 -1.45527 2.90448
H 10.5115 -2.43474 2.82183
H 10.2074 -1.09026 3.69736
O 13.5454 -2.99293 10.4516
H 13.6786 -3.40308 11.3539
H 13.2854 -2.03307 10.5569
O 2.42547 -3.59437 2.84205
H 3.03273 -3.81602 3.60502
H 1.47756 -3.59111 3.16059
O -12.4614 -8.05093 -1.14645
H -13.074 -7.67662 -0.450286
H -11.638 -7.48645 -1.20416
O 11.0973 -11.6372 -13.5013
H 10.1077 -11.5987 -13.3627
H 11.5447 -11.8876 -12.6427
O 10.3518 8.88342 -12.8654
H 10.288 9.88021 -12.8172
H 11.0349 8.56103 -12.2102
O 12.7753 11.8408 2.05605
H 13.4968 12.1251 1.42472
H 12.9914 10.9361 2.42341
O 0.156724 -4.8952 11.6196
H -0.190076 -5.67103 12.1467
H 0.961843 -5.17923 11.0989
O -9.39201 -11.089 -7.53399
H -9.43228 -12.0706 -7.72053
H -10.3197 -10.7322 -7.42415
O -4.38502 10.1297 13.3768
H -5.32731 10.4398 13.5031
H -3.85217 10.853 12.9376
O 4.03859 -5.05027 13.6523
H 4.70333 -5.79055 13.7529
H 3.28358 -5.19096 14.2928
O 11.2882 2.30098 13.6737
H 10.2963 2.22824 13.7786
H 11.5799 1.76418 12.882
O 15.0057 -0.858195 0.271096
H 14.8698 -0.150001 0.963918
H -15.0536 -1.74985 0.716905
O -4.43656 0.886789 2.11506
H -3.75889 1.62055 2.16367
H -5.27309 1.23325 1.69056
O -12.1472 -0.0577821 0.178193
H -12.9681 0.237858 -0.310464
H -12.3164 -0.0267345 1.16329
O -6.98963 -7.76943 -6.779
H -6.72319 -7.20617 -5.99685
H -7.24423 -7.17815 -7.54423
O -9.76153 7.81718 8.52455
H -9.11668 7.40641 7.87999
H -9.66571 7.37764 9.41765
O 3.18189 -7.03683 -0.685949
H 2.76598 -6.43589 -1.36852
H 2.79979 -6.83231 0.215261
O -10.1618 1.65574 14.3041
H -11.1236 1.47758 14.5121
H -10.0354 2.63078 14.1216
O -7.85652 -7.12594 4.22357
H -7.19172 -6.72355 3.59418
H -8.17899 -7.99786 3.8551
O -1.64736 0.871923 8.5495
H -2.49612 0.544559 8.13422
H -1.38576 0.262453 9.29791
O 4.9578 6.67179 8.40545
H 5.52051 7.2504 8.99584
H 5.50589 5.90603 8.06897
O 9.30574 9.79331 9.96833
H 8.70377 8.99742 10.0331
H 9.38314 10.2266 10.8663
O -3.49659 -6.18813 -0.888093
H -3.23041 -5.41829 -1.46818
H -3.9756 -5.84626 -0.0795875
O -10.065 -11.6026 11.7997
H -9.94995 -11.9021 12.7468
H -9.3699 -10.9182 11.5797
O 8.66062 6.28956 -7.05891
H 9.50155 6.79457 -6.86444
H 8.89047 5.38712 -7.42329
O 4.74035 -12.3154 10.8704
H 4.01263 -11.9797 11.4685
H 5.53499 -11.7125 10.9416
O -14.0345 -14.2895 0.174079
H -14.895 -14.4516 -0.308841
H -13.2681 -14.4454 -0.449052
O -11.9678 3.45487 -12.5646
H -11.0097 3.27355 -12.3429
H -12.4877 3.5791 -11.7195
O 13.0261 -4.63126 -5.34129
H 12.3577 -4.92148 -6.0261
H 12.9495 -3.64455 -5.19795
O -13.7219 2.51105 -2.69194
H -14.4938 2.73618 -2.09742
H -12.903 2.36931 -2.13572
O -10.4429 15.0426 -13.7282
H -11.0966 -14.81 -13.0274
H -10.1742 14.0931 -13.5661
O -1.05488 11.3517 2.72492
H -1.62464 11.8537 2.07422
H -0.102362 11.3754 2.42136
O 11.921 -2.29469 -1.88479
H 12.8718 -2.06265 -2.08971
H 11.6333 -3.06048 -2.45998
O -0.828293 8.35038 6.34134
H 0.0211027 8.19904 6.84694
H -0.614453 8.58477 5.393
O 2.55384 5.39626 9.20772
H 2.81096 4.56671 8.712
H 3.25617 6.0955 9.07425
O -9.64583 -4.8075 6.7067
H -9.84982 -3.86345 6.44754
H -10.0285 -5.43053 6.02449
O -8.34103 0.729269 -0.00659052
H -8.3805 -0.26815 0.0534595
H -8.79586 1.03099 -0.844509
O 6.57833 13.8011 9.73781
H 5.86806 13.3398 10.2696
H 7.07728 14.4357 10.328
O -8.22183 -13.9733 -6.9664
H -8.25217 -14.7389 -6.32379
H -7.39283 -13.4372 -6.8072
O -1.34095 -12.4916 8.18153
H -1.45262 -13.4805 8.08362
H -0.39144 -12.2428 7.99035
O -10.6167 -5.05826 9.43635
H -10.1007 -5.11707 8.58182
H -10.7932 -5.97942 9.78325
O -8.08031 -1.95111 5.86695
H -7.61161 -1.34841 5.22113
H -8.69381 -1.41036 6.44246
O -4.51287 14.9119 9.6637
H -4.57374 15.0449 8.67445
H -4.2324 -14.3706 10.0985
O 13.035 -3.1995 3.26395
H 12.4909 -2.59669 3.84756
H 12.6205 -4.10936 3.24616
O 7.68087 0.56116 -3.25467
H 8.65298 0.578852 -3.48855
H 7.23766 1.3844 -3.60942
O -2.17249 -7.43286 -7.60347
H -1.96232 -6.5675 -8.05842
H -2.86288 -7.27875 -6.89663
O -4.99911 12.0881 5.5947
H -5.76662 11.4853 5.81283
H -4.74474 12.6114 6.40795
O -1.60586 -5.95604 -14.0308
H -1.05069 -5.23704 -13.6126
H -2.19362 -5.55662 -14.7343
O -11.1058 -3.92301 -10.5239
H -12.0782 -4.0302 -10.731
H -10.6301 -3.57159 -11.3302
O 9.8517 5.86412 -13.035
H 10.1995 6.76264 -13.3027
H 9.25093 5.51192 -13.7527
O -6.28584 -3.58663 3.09412
H -7.21066 -3.85527 2.82479
H -5.62105 -4.18164 2.64245
O 13.0798 13.0478 -13.4983
H 13.1391 12.0521 -13.57
H 13.9494 13.4545 -13.7781
O 1.24505 -13.8179 -9.04603
H 1.08531 -14.7639 -9.32828
H 0.941547 -13.6963 -8.10099
O -14.3499 -11.7539 0.972036
H -14.3928 -12.6987 0.647219
H -14.3396 -11.7453 1.97195
O 1.44622 -11.2885 5.50605
H 1.96651 -12.0566 5.87917
H 0.802543 -11.6245 4.81847
O -6.05205 -0.237067 -8.38579
H -6.55957 0.000857083 -7.55765
H -6.67647 -0.639169 -9.05543
O 12.4586 7.49084 -3.49403
H 12.6026 7.7937 -2.55193
H 11.7571 6.77837 -3.5116
O -7.80252 -5.47542 -0.573426
H -7.37032 -6.1807 -1.13538
H -7.54238 -5.60571 0.383316
O 11.6629 3.09548 -0.877289
H 12.3418 3.81817 -1.00732
H 12.1075 2.20297 -0.953344
O -8.8604 -12.466 4.37301
H -9.34825 -12.9872 3.6727
H -9.51917 -11.9705 4.93917
O -7.4633 14.6247 -13.5737
H -8.4174 14.9218 -13.5367
H -7.34044 13.8245 -12.9866
O -7.82203 -9.37983 10.5577
H -6.86916 -9.49059 10.2753
H -8.33583 -8.9292 9.82769
O -8.72576 -4.46297 14.104
H -8.69034 -5.21893 14.7577
H -9.62033 -4.45027 13.6573
O 14.6115 -9.75058 -10.5733
H 14.9131 -9.97731 -9.64716
H -14.7296 -9.55831 -11.1457
O -4.20779 -14.6227 5.48807
H -4.31729 -13.7578 5.97781
H -5.07108 -14.8674 5.04663
O 0.646162 -6.96919 3.78336
H 0.24654 -6.67621 4.65196
H -0.0171403 -7.52458 3.28178
O 11.4928 -5.04272 -2.96754
H 12.1847 -5.12721 -3.68458
H 10.6054 -4.84228 -3.38262
O -4.91931 -3.15282 -1.36681
H -5.73841 -2.83117 -1.84179
H -4.87275 -2.7324 -0.460666
O 11.3994 -11.5391 12.419
H 11.4596 -11.7217 11.4376
H 11.0741 -12.3584 12.8911
O 13.7335 2.80637 -4.58276
H 14.3495 3.16074 -5.28629
H 13.4448 3.55429 -3.98504
O 4.74095 -6.45291 5.57547
H 4.03248 -7.0813 5.25421
H 5.58894 -6.95901 5.7329
O 6.79033 -14.6007 7.54714
H 5.92052 -14.1292 7.69252
H 6.73692 14.6145 7.92825
O -1.15876 13.5751 -6.92936
H -0.17716 13.4845 -6.76121
H -1.31024 14.2152 -7.68251
O -0.201372 -3.3657 4.19541
H -0.189245 -2.48387 4.66683
H -1.114 -3.53134 3.82168
O 8.61508 -4.29166 -3.83393
H 7.8139 -4.82684 -4.10171
H 8.52645 -4.01494 -2.87707
O 14.8115 12.6831 0.455988
H 14.4835 13.6268 0.498837
H -14.4116 12.6662 0.0530721
O -13.2462 5.54965 -13.8778
H -12.7957 4.68825 -13.6432
H -12.6722 6.06307 -14.5157
O 6.90882 8.14025 9.52768
H 7.48513 7.48597 9.03801
H 6.88435 7.90158 10.4985
O -2.37475 -14.3203 -13.3706
H -2.73161 -13.7425 -14.1046
H -2.65215 14.8701 -13.5277
O 5.08043 9.8509 -13.8627
H 4.49524 9.95951 -14.6663
H 5.59561 8.99717 -13.9385
O -5.97167 1.20507 12.392
H -5.81162 1.52984 13.3241
H -6.90856 1.42368 12.1191
O -0.337403 -11.9954 3.28073
H -1.2041 -12.103 2.79363
H 0.260108 -12.7699 3.07296
O 14.9092 -11.3616 8.00984
H 14.4939 -11.2773 7.10406
H -14.9573 -10.4567 8.33747
O -8.19636 -8.88398 13.2433
H -8.10796 -9.30801 12.342
H -7.49633 -8.17781 13.3495
O -3.81953 -0.608416 7.03579
H -4.7786 -0.351278 7.15449
H -3.62672 -0.736442 6.06294
O -11.0429 12.0939 1.2484
H -11.5688 12.2945 0.421844
H -11.1254 12.857 1.88935
O 9.06564 12.6093 -2.93227
H 9.45982 11.7488 -2.60953
H 9.6075 13.3749 -2.58552
O -13.0975 12.2797 11.6553
H -12.5759 12.986 12.134
H -12.4979 11.5076 11.4449
O 11.8344 10.5352 -10.3104
H 11.1368 10.8246 -10.9658
H 12.6739 11.0559 -10.4656
O -1.41359 -8.51501 5.43682
H -2.23412 -8.9873 5.7588
H -0.673757 -8.64451 6.09704
O -13.9248 12.6526 -8.30055
H -14.7632 12.296 -8.71269
H -14.1229 12.9892 -7.37995
O -11.1235 -11.2133 0.90646
H -12.0564 -10.9169 0.701956
H -11.1406 -12.1496 1.2574
O 0.623164 8.55418 -4.51323
H 0.113598 9.35895 -4.20879
H 1.28295 8.82319 -5.21489
O -13.106 -5.25393 -7.52349
H -12.2614 -5.72636 -7.77554
H -13.6613 -5.10464 -8.34164
O -1.28099 -6.10064 8.10313
H -2.14862 -6.52793 7.84887
H -0.698764 -6.0213 7.29398
O 10.6294 -12.439 -6.99209
H 11.4143 -12.1208 -6.46035
H 10.538 -11.8819 -7.81748
O -12.6814 -10.6979 11.7118
H -12.4282 -9.74631 11.886
H -11.8739 -11.2803 11.8059
O -3.67854 -12.552 -0.77576
H -3.19882 -13.2641 -0.263138
H -3.71558 -12.8048 -1.74256
O -2.94438 9.34914 3.01748
H -2.74394 8.44958 3.40558
H -2.24319 10.0008 3.30685
O -0.0630628 13.6226 10.0942
H 0.42016 14.4981 10.0843
H 0.386516 13.001 10.7356
O 6.30289 -1.68908 -2.05618
H 7.06623 -2.09724 -2.55691
H 6.37787 -0.692419 -2.08862
O 3.12341 3.80982 4.9209
H 4.04834 4.06494 4.63908
H 2.53559 4.6187 4.90665
O -11.9843 13.8464 -10.2045
H -11.1312 14.1878 -9.80979
H -12.6008 13.5618 -9.47041
O 0.349434 -9.4936 12.252
H -0.0760392 -9.72469 13.1269
H -0.249269 -9.78047 11.5041
O -0.633624 11.4995 -0.183374
H 0.14113 10.9701 0.162299
H -1.01797 11.0428 -0.98568
O 5.45794 -3.57395 -5.50559
H 4.71313 -3.57393 -6.17287
H 6.07999 -4.3323 -5.70042
O -15.0681 8.93047 -6.84018
H -14.9436 8.42893 -7.69631
H 14.3225 9.58651 -6.94393
O -7.76223 -2.91838 -1.99166
H -7.52187 -3.86105 -1.76012
H -8.21987 -2.89983 -2.88061
O -4.31017 7.88231 12.143
H -4.39 8.77671 12.5831
H -3.4121 7.49098 12.3438
O -14.2987 -5.2092 -4.93351
H 14.8419 -5.14151 -4.94227
H -13.9531 -5.16085 -5.87065
O -8.08064 12.7773 -10.4657
H -8.69317 12.3005 -11.0961
H -7.15922 12.8051 -10.8533
O 7.25918 3.25199 11.5061
H 7.0858 2.36486 11.0784
H 6.40141 3.7611 11.5771
O 2.1353 -9.6435 1.50105
H 2.86838 -8.99452 1.29748
H 1.4549 -9.20446 2.08782
O 5.05456 8.66652 -7.39639
H 5.23934 7.7738 -6.98539
H 5.09763 8.59018 -8.39255
O 2.91458 -10.6803 -3.12255
H 1.98012 -10.3695 -2.94875
H 3.51069 -9.88789 -3.25224
O 14.0549 -9.59567 -7.41993
H 14.1795 -10.3573 -8.05582
H 14.8915 -9.46552 -6.88772
O 11.2897 14.2506 11.4109
H 11.5098 13.7655 10.5646
H 10.4045 14.7056 11.3137
O 11.7664 12.7044 13.5106
H 11.6137 13.1967 12.6538
H 11.5761 13.3113 14.2823
O -12.0862 -2.01283 -7.05869
H -12.7887 -1.49786 -6.56754
H -12.3077 -2.98763 -7.03206
O -10.4743 9.3138 -9.71072
H -10.6305 8.32923 -9.78962
H -10.4861 9.57691 -8.74602
O -4.41415 9.23938 -8.9939
H -3.68033 9.68825 -8.48396
H -4.4102 8.26013 -8.79124
O -8.08421 11.5306 11.3157
H -8.56662 12.1361 10.6827
H -7.18603 11.3027 10.9397
O -13.6516 -6.97608 0.993694
H -13.2677 -6.05333 0.959173
H -14.6477 -6.92038 1.06209
O 5.65492 -9.48311 7.15771
H 6.23641 -10.2916 7.24841
H 5.56057 -9.24721 6.19052
O -12.1348 5.74802 1.13153
H -12.6128 4.94669 0.771884
H -12.4461 6.56646 0.648579
O -0.881749 -11.4974 14.0785
H -0.726601 -11.4916 15.0664
H -1.78522 -11.88 13.8852
O 4.5891 -3.49418 -1.0919
H 3.81327 -3.38426 -1.7132
H 5.31368 -2.85392 -1.34694
O 9.89381 7.27667 13.4882
H 10.2767 6.46053 13.0554
H 10.6069 7.97195 13.5781
O -7.34207 11.6211 -13.7351
H -7.25289 10.6661 -13.452
H -7.40439 11.6687 -14.732
O 0.266003 -5.23137 6.06449
H 0.252752 -4.5167 5.36515
H 1.08061 -5.12475 6.63462
O -5.4616 -1.81239 1.1864
H -5.46075 -1.94965 2.17694
H -4.88101 -1.03097 0.95769
O -2.4743 2.65635 2.26134
H -2.1709 3.18114 3.05667
H -1.6785 2.36904 1.72826
O -0.0351217 6.29912 -13.2736
H 0.943243 6.36208 -13.4707
H -0.190574 6.46767 -12.3002
O 9.25496 10.8556 -7.30325
H 9.69938 9.99563 -7.55422
H 8.32428 10.8689 -7.66886
O 3.88797 -11.6555 -15.0126
H 3.40711 -12.4494 -14.6403
H 3.35368 -10.829 -14.8356
O -6.3337 -1.44229 11.9887
H -6.25387 -0.44774 12.0557
H -6.56046 -1.69582 11.0483
O 6.6628 -11.2417 -9.76163
H 6.65827 -10.7144 -10.6114
H 5.75073 -11.2217 -9.35209
O 5.16738 -8.08378 -6.02201
H 5.37293 -9.04623 -6.19933
H 4.47586 -7.76567 -6.67056
O -3.64049 -12.0551 6.64334
H -4.42507 -12.0362 7.26308
H -2.85299 -12.4523 7.11457
O 14.9168 -3.15846 -13.2255
H -14.4798 -3.28811 -12.5674
H 14.0475 -3.41456 -12.8028
O -7.49839 -12.3974 14.0086
H -8.42496 -12.6224 14.3101
H -7.21624 -11.5296 14.4176
O -6.06149 -9.84265 4.24581
H -5.10386 -9.90872 4.52617
H -6.65206 -10.0614 5.02258
O 10.2016 -6.87981 -10.0319
H 9.42501 -6.76678 -9.41207
H 9.98291 -7.57485 -10.7168
O 7.74543 -11.0353 -7.34009
H 8.16836 -10.1347 -7.4406
H 7.47899 -11.3807 -8.23992
O 7.74117 11.5004 14.3448
H 7.80396 10.645 14.8589
H 8.14239 12.2423 14.882
O -6.77025 4.82065 5.27374
H -6 4.18531 5.2183
H -7.4032 4.64369 4.52003
O -3.25752 -5.01921 13.8807
H -2.75889 -4.15872 13.7761
H -2.74457 -5.75713 13.4421
O -2.89141 -12.29 2.23501
H -3.04645 -13.2778 2.24952
H -3.35151 -11.8921 1.44133
O 11.957 1.98285 11.1592
H 12.2938 2.9187 11.0557
H 10.976 1.95853 10.9666
O -9.79034 -2.9442 10.9936
H -9.54533 -2.0272 10.6788
H -9.83102 -3.56545 10.211
O 3.51756 -8.35777 -12.3023
H 3.05146 -8.82938 -11.5538
H 3.28526 -7.38538 -12.2796
O -1.71367 -1.21882 10.5813
H -2.4894 -1.84913 10.6122
H -1.04405 -1.54672 9.91493
O 13.0551 -3.58199 -9.27122
H 12.8015 -4.04333 -8.42098
H 12.5356 -2.73177 -9.3568
O 13.0122 -8.56937 -12.2883
H 13.6237 -9.06531 -11.6718
H 13.5444 -8.16674 -13.0331
O 7.41427 -7.45398 11.8805
H 6.62255 -7.28918 12.4688
H 7.2847 -6.98346 11.0077
O -9.86482 -0.193176 7.03074
H -10.6868 -0.218134 6.46181
H -9.46617 0.72343 7.00042
O -4.20224 -5.4438 2.09525
H -3.53734 -4.80626 2.48443
H -4.02333 -6.36466 2.44168
O -4.90816 12.8394 11.6517
H -4.83658 13.0522 12.6262
H -5.10085 13.6772 11.1409
O -12.7353 -5.91036 11.8491
H -13.357 -6.04923 11.0782
H -12.7981 -4.96245 12.1614
O 7.38533 -9.91556 -0.381216
H 6.46779 -9.6318 -0.65978
H 8.06558 -9.35992 -0.859269
O 9.31376 0.452819 10.4765
H 9.72133 -0.233775 9.87442
H 8.36923 0.623615 10.1959
O 3.57446 5.79571 -1.33057
H 3.12154 6.1757 -2.1371
H 3.52153 4.79748 -1.35787
O 8.32069 8.96788 -14.5789
H 8.60215 8.32646 14.8456
H 8.98364 8.94578 -13.8306
O -5.56873 -11.2068 -12.2053
H -6.16207 -11.9916 -12.0261
H -4.61529 -11.4688 -12.056
O -13.439 -14.8657 -12.0517
H -12.7341 -14.1881 -12.2615
H -13.0649 14.5837 -11.4308
O 11.0245 -9.47643 8.72867
H 10.0284 -9.39645 8.76426
H 11.3779 -9.65146 9.64764
O 6.58803 -14.3041 12.2637
H 6.28738 -14.6591 13.1489
H 5.92605 -13.632 11.9318
O -9.52423 13.6706 -5.87644
H -9.33838 13.024 -6.61628
H -10.4139 14.1019 -6.02637
O 6.77062 -2.38814 3.84244
H 6.73508 -1.92855 2.95501
H 6.49785 -1.74788 4.56054
O 6.69021 4.21789 7.11918
H 7.50864 3.7332 6.81054
H 6.16192 4.51904 6.32532
O 8.16128 -6.56056 -8.20856
H 7.30173 -6.92215 -8.56972
H 8.08009 -5.57189 -8.08227
O -4.56587 9.46596 8.59457
H -5.10686 8.73237 9.00591
H -4.70827 9.47031 7.60476
O -9.68198 8.18691 -12.7485
H -10.2364 8.99283 -12.5408
H -8.71353 8.41193 -12.6414
O -9.94564 10.865 5.96808
H -9.84614 11.8569 5.88884
H -10.6639 10.5514 5.34701
O 9.15832 -13.2409 8.45969
H 8.83903 -12.7126 7.67291
H 8.37177 -13.611 8.95402
O 8.67369 4.69055 14.7692
H 8.73757 3.70769 14.9421
H 9.05774 4.89624 13.8691
O -12.6702 -3.25752 12.7757
H -12.9971 -2.38392 13.1362
H -12.0076 -3.08989 12.0457
O -6.54707 -4.077 6.24898
H -6.22427 -4.15494 5.30572
H -7.21455 -3.33509 6.31262
O -10.6175 12.0508 14.4439
H -10.2842 12.4339 -14.8328
H -10.6899 12.7782 13.7615
O -1.79114 6.31324 12.7871
H -1.49566 5.79075 11.9872
H -1.25873 7.15746 12.849
O -4.37786 2.91576 5.22178
H -4.44275 1.99718 4.83189
H -4.57509 3.5933 4.51323
O 10.6395 11.7521 3.60792
H 10.5665 12.4983 4.26961
H 11.4377 11.9011 3.02422
O -9.06471 5.45355 -1.32256
H -9.02015 5.66283 -0.345712
H -8.48667 6.09459 -1.82748
O -13.4291 -2.73407 -4.00686
H -12.5516 -2.74548 -3.52742
H -13.6596 -3.6612 -4.30237
O -3.96961 -4.25449 7.74107
H -4.75744 -3.64605 7.64551
H -3.70548 -4.60163 6.84121
O 13.5298 -12.3209 -2.94577
H 14.3879 -11.8104 -3.00079
H 13.1133 -12.1769 -2.04809
O -2.98456 -3.36262 3.63551