LAMMPS data file via write_data, version 15 May 2015, timestep = 18500000

2593 atoms
6 atom types
1728 bonds
4 bond types
864 angles
3 angle types
0 dihedrals
3 dihedral types
0 impropers
1 improper types

-1.4920654731620875e+01 1.4920654731620875e+01 xlo xhi
-1.4920654731620875e+01 1.4920654731620875e+01 ylo yhi
-1.4920654731620875e+01 1.4920654731620875e+01 zlo zhi

Masses

1 15.9994
2 1.00794
3 12.0107
4 1.00794
5 12.0107
6 12.0107

Bond Coeffs # harmonic

1 1000 1
2 469 1.4
3 367 1.08
4 469 0.7

Angle Coeffs # harmonic

1 100 109.47
2 35 120
3 63 120

Dihedral Coeffs # opls

1 0 7.25 0 0
2 0 7.25 0 0
3 0 7.25 0 0

Improper Coeffs # cvff

1 2.5 -1 2

Atoms # full

297 99 2 4.0999999999999998e-01 -1.4835851114010064e+01 -1.3333303287280108e+01 -1.1568771948656360e+01 -4 4 -9
295 99 1 -8.1999999999999995e-01 -1.4119044455470117e+01 -1.2636097910529514e+01 -1.1557661549510563e+01 -4 4 -9
296 99 2 4.0999999999999998e-01 -1.4086741438594583e+01 -1.2205598369883717e+01 -1.0655632059906154e+01 -4 4 -9
2324 775 2 4.0999999999999998e-01 -1.1556091181102699e+01 -1.4363521536087189e+01 -1.2403008104159230e+01 -5 4 -7
2293 765 1 -8.1999999999999995e-01 -1.2408842412016991e+01 -6.0404606699690540e+00 -7.5464303651477271e+00 3 -1 -7
1775 592 2 4.0999999999999998e-01 -1.3700226883753269e+01 -1.0411439308668433e+01 -8.6908822258409568e+00 1 0 -8
905 302 2 4.0999999999999998e-01 -1.3621063320680829e+01 -6.3410695904206786e+00 -9.0480485199266703e+00 2 2 -3
906 302 2 4.0999999999999998e-01 -1.3522705063753342e+01 -6.1925948100600774e+00 -1.0671313588728980e+01 2 2 -3
904 302 1 -8.1999999999999995e-01 -1.4110335649135990e+01 -6.4688520267522271e+00 -9.9107854219162963e+00 2 2 -3
2290 764 1 -8.1999999999999995e-01 -1.4743210587186859e+01 -9.5941572063268499e+00 -1.3199126875625442e+01 3 4 -2
1423 475 1 -8.1999999999999995e-01 -1.2564713103855663e+01 -5.9608445872528311e+00 -1.1957582568053120e+01 -3 4 -5
2323 775 1 -8.1999999999999995e-01 -1.0625920278469192e+01 -1.4016426163361945e+01 -1.2283268566149774e+01 -5 4 -7
245 82 2 4.0999999999999998e-01 -1.0883695277575860e+01 -7.9470077892587163e+00 -1.3775236880441852e+01 3 1 1
2191 731 1 -8.1999999999999995e-01 -9.7229876653559248e+00 -9.5866293038431003e+00 -7.9774014723766102e+00 -2 0 1
2015 672 2 4.0999999999999998e-01 -1.0454336366581954e+01 -1.0182671290312895e+01 -1.2543235026908294e+01 1 0 -4
1779 593 2 4.0999999999999998e-01 -1.1251829933808176e+01 -1.1781808716573002e+01 -1.2588296714368287e+01 4 2 -3
2014 672 1 -8.1999999999999995e-01 -9.9830904827247711e+00 -9.4552834417025799e+00 -1.3042098781637032e+01 1 0 -4
1777 593 1 -8.1999999999999995e-01 -1.1552553435123174e+01 -1.1204694668811880e+01 -1.1828997378882518e+01 4 2 -3
741 247 2 4.0999999999999998e-01 -8.1412667642673373e+00 -9.9556351439343107e+00 -8.7246074685922697e+00 -3 2 3
1424 475 2 4.0999999999999998e-01 -1.2198942441503323e+01 -6.4969325628231918e+00 -1.2718405950764570e+01 -3 4 -5
2189 730 2 4.0999999999999998e-01 -9.4183706304935271e+00 -1.3644132998889214e+01 -8.3387964250057127e+00 -3 -4 -5
1425 475 2 4.0999999999999998e-01 -1.1850476096831660e+01 -5.3590933855295475e+00 -1.1600102997831577e+01 -3 4 -5
1635 545 2 4.0999999999999998e-01 -9.0724691908502884e+00 -8.5876708721712518e+00 -1.1512474860330418e+01 -2 1 -5
1633 545 1 -8.1999999999999995e-01 -8.3409033772960743e+00 -8.1307155834240383e+00 -1.1006476690481637e+01 -2 1 -5
2291 764 2 4.0999999999999998e-01 -1.4400889473825361e+01 -1.0521715596419044e+01 -1.3349068546403574e+01 3 4 -2
2540 847 2 4.0999999999999998e-01 -1.3954481390533319e+01 -8.3511687660702876e+00 -1.4293541399054474e+01 0 1 -4
1778 593 2 4.0999999999999998e-01 -1.2478658095002183e+01 -1.1466794197466045e+01 -1.1557584795340629e+01 4 2 -3
1394 465 2 4.0999999999999998e-01 -7.8375749138214790e+00 -6.2261117355019806e+00 -1.0069180218809372e+01 1 -5 -7
1634 545 2 4.0999999999999998e-01 -7.8776843223833612e+00 -8.7938908227556496e+00 -1.0418550220649772e+01 -2 1 -5
2188 730 1 -8.1999999999999995e-01 -8.9348438098110634e+00 -1.4185396798611157e+01 -9.0267397915582812e+00 -3 -4 -5
539 180 2 4.0999999999999998e-01 -7.4643190797948913e+00 -1.3643663620941497e+01 -9.9039805820750608e+00 -3 -1 -7
2192 731 2 4.0999999999999998e-01 -1.0697484065193871e+01 -9.7814325890687499e+00 -8.0889328343848348e+00 -2 0 1
244 82 1 -8.1999999999999995e-01 -1.1038280275090777e+01 -6.9690686309801944e+00 -1.3915840008243272e+01 3 1 1
2016 672 2 4.0999999999999998e-01 -9.3023931444079935e+00 -9.8578184034425327e+00 -1.3654183304403603e+01 1 0 -4
673 225 1 -8.1999999999999995e-01 -9.3488151407376954e+00 -5.3133444161744467e+00 -1.2811389406082423e+01 3 -1 1
246 82 2 4.0999999999999998e-01 -1.0236784806261550e+01 -6.4570962086887249e+00 -1.3606776919913083e+01 3 1 1
1774 592 1 -8.1999999999999995e-01 -1.4158724563784068e+01 -1.1054718342958502e+01 -9.3040728556269592e+00 1 0 -8
2325 775 2 4.0999999999999998e-01 -1.0549788129411450e+01 -1.3567225086987515e+01 -1.1393070238606290e+01 -5 4 -7
541 181 1 -8.1999999999999995e-01 -7.5702944373650665e+00 -9.6060470601612558e+00 -1.4899256915572623e+01 -4 -2 -5
1442 481 2 4.0999999999999998e-01 -1.4884810216114957e+01 -6.5618443537302618e+00 -1.3961561931807774e+01 -2 -4 -3
2295 765 2 4.0999999999999998e-01 -1.1570367044739575e+01 -5.5014976828880648e+00 -7.4657534122380635e+00 3 -1 -7
2216 739 2 4.0999999999999998e-01 -1.4874595569892026e+01 -8.0134934745200823e+00 -1.0408590611265561e+01 1 4 -5
2541 847 2 4.0999999999999998e-01 -1.2977500369935049e+01 -7.1236637257304150e+00 -1.4746805116075601e+01 0 1 -4
2067 689 2 4.0999999999999998e-01 -1.3372589749074443e+01 -1.4882326003949913e+01 -1.2441724159562906e+01 4 1 -3
2193 731 2 4.0999999999999998e-01 -9.6059763159353775e+00 -8.6500389118635788e+00 -7.6470416916193287e+00 -2 0 1
1056 352 2 4.0999999999999998e-01 -1.4870033020393324e+01 -1.1716325372790767e+01 -1.4873155485028118e+01 4 4 -5
2072 691 2 4.0999999999999998e-01 -3.5012407656121258e+00 -5.5493257234326023e+00 -8.6581077156033892e+00 0 2 -5
542 181 2 4.0999999999999998e-01 -7.2083821684680176e+00 -8.7086589443021438e+00 -1.4646779593539181e+01 -4 -2 -5
125 42 2 4.0999999999999998e-01 -2.1303906378702031e-01 -1.1494190195130640e+01 -1.0493846092554236e+01 6 -2 -4
1215 405 2 4.0999999999999998e-01 -7.2606544944433580e+00 -7.7030196142685456e+00 -1.2411090385171576e+01 -7 -2 -3
1157 386 2 4.0999999999999998e-01 -3.9980190570498486e+00 -6.5404522754435543e+00 -1.3579231790946077e+01 -4 -2 -9
698 233 2 4.0999999999999998e-01 -2.0246416953827850e+00 -7.9020297833400654e+00 -1.4647272208406378e+01 1 -1 -4
1213 405 1 -8.1999999999999995e-01 -6.7023148631266718e+00 -7.3673636289777136e+00 -1.3169788439094802e+01 -7 -2 -3
2506 836 1 -8.1999999999999995e-01 -3.7729503553526520e+00 -1.2856819759781153e+01 -1.0763350948907071e+01 0 2 1
1393 465 1 -8.1999999999999995e-01 -7.2300820990926589e+00 -5.6451772874115154e+00 -9.5274254309519080e+00 1 -5 -7
894 298 2 4.0999999999999998e-01 -5.0500354973580173e+00 -5.4653416428333035e+00 -1.0595800599041606e+01 0 -2 -5
392 131 2 4.0999999999999998e-01 -2.5656354130287227e+00 -5.0148458693174494e+00 -1.4144792958308022e+01 1 -2 -4
2073 691 2 4.0999999999999998e-01 -4.6379905899474849e+00 -6.7182305815791477e+00 -8.5677215501237960e+00 0 2 -5
126 42 2 4.0999999999999998e-01 -7.1037230407165985e-01 -1.2906038222161165e+01 -1.1146573613153249e+01 6 -2 -4
892 298 1 -8.1999999999999995e-01 -4.6245563542700232e+00 -5.1874248709648203e+00 -1.1457055828836918e+01 0 -2 -5
1395 465 2 4.0999999999999998e-01 -6.6695053493785679e+00 -6.2165840971377619e+00 -8.9280268162688809e+00 1 -5 -7
858 286 2 4.0999999999999998e-01 -1.1433841261620472e+00 -1.4049036079413364e+01 -1.4061625171525829e+01 -6 -4 -6
857 286 2 4.0999999999999998e-01 -1.9393883665767593e+00 -1.2689863584386538e+01 -1.3630654340881483e+01 -6 -4 -6
1214 405 2 4.0999999999999998e-01 -6.8769519795825556e+00 -6.3922137547571882e+00 -1.3306226663641931e+01 -7 -2 -3
1621 541 1 -8.1999999999999995e-01 -2.8024607201234986e-01 -6.7352661953855151e+00 -1.1563040232153085e+01 2 2 -2
739 247 1 -8.1999999999999995e-01 -7.2620294939632819e+00 -9.9075372559579211e+00 -9.1985895273474441e+00 -3 2 3
815 272 2 4.0999999999999998e-01 -1.4283909933806225e+00 -5.5639319193280308e+00 -1.0281096437343091e+01 -4 -2 -13
699 233 2 4.0999999999999998e-01 -1.8965372281473023e+00 -9.5108661435501425e+00 -1.4398388084563816e+01 1 -1 -4
1504 502 1 -8.1999999999999995e-01 -2.1047303047841783e+00 -1.0949252698066537e+01 -1.3096791734227320e+01 -2 -3 -4
2508 836 2 4.0999999999999998e-01 -4.7446813403940151e+00 -1.2777244306060670e+01 -1.0541005855690408e+01 0 2 1
2071 691 1 -8.1999999999999995e-01 -4.3327592350624453e+00 -5.8450015920514353e+00 -8.1878062044189885e+00 0 2 -5
78 26 2 4.0999999999999998e-01 -6.1923663949507244e+00 -8.6536775676974855e+00 -9.7340517058811500e+00 0 -1 -4
1808 603 2 4.0999999999999998e-01 -1.2438142020146259e-02 -1.1784945054442773e+01 -8.1393730640662838e+00 -4 -3 -8
2507 836 2 4.0999999999999998e-01 -3.6650719324071357e+00 -1.2967693948969215e+01 -1.1751328567840220e+01 0 2 1
856 286 1 -8.1999999999999995e-01 -2.0257714482022653e+00 -1.3675577021592193e+01 -1.3775353303498777e+01 -6 -4 -6
2084 695 2 4.0999999999999998e-01 -2.2443300425894570e+00 -1.3534664979218350e+01 -9.7676788557475014e+00 1 -1 -9
538 180 1 -8.1999999999999995e-01 -6.5107591592861755e+00 -1.3452368620974086e+01 -1.0136704160265282e+01 -3 -1 -7
1297 433 1 -8.1999999999999995e-01 -3.0078580545053946e-01 -1.0110012866648589e+01 -9.1086752685376453e+00 1 1 -5
1298 433 2 4.0999999999999998e-01 -1.2549167592035602e+00 -9.9349982358090099e+00 -9.3516460092736402e+00 1 1 -5
740 247 2 4.0999999999999998e-01 -6.7740931516691862e+00 -1.0772949637445954e+01 -9.0845267426910681e+00 -3 2 3
1299 433 2 4.0999999999999998e-01 -5.2044478872831590e-02 -9.5557448963409080e+00 -8.3143544758972965e+00 1 1 -5
1506 502 2 4.0999999999999998e-01 -1.3649496689906861e+00 -1.1154046629414514e+01 -1.2455843324421267e+01 -2 -3 -4
2586 862 2 4.0999999999999998e-01 -6.3796268583975415e+00 -1.2420814215065509e+01 -1.1596430383529860e+01 1 -2 -6
2130 710 2 4.0999999999999998e-01 -3.2219884716027050e+00 -1.1076569013505903e+01 -9.8458980384095955e+00 -1 0 -8
1505 502 2 4.0999999999999998e-01 -2.7595922710168210e+00 -1.0330226439722866e+01 -1.2663210009039066e+01 -2 -3 -4
2584 862 1 -8.1999999999999995e-01 -6.1868495630048557e+00 -1.1808370109890243e+01 -1.2363098376237570e+01 1 -2 -6
77 26 2 4.0999999999999998e-01 -5.3276756941728358e+00 -7.7923573768858025e+00 -1.0819015375214786e+01 0 -1 -4
2585 862 2 4.0999999999999998e-01 -6.7604392071110091e+00 -1.2059596574636059e+01 -1.3142784847966183e+01 1 -2 -6
1691 564 2 4.0999999999999998e-01 -5.2320235753236748e+00 -8.7554758976277203e+00 -1.3140952777513041e+01 3 4 3
2128 710 1 -8.1999999999999995e-01 -2.7860447400209765e+00 -1.0192379608952280e+01 -1.0013805158403443e+01 -1 0 -8
1156 386 1 -8.1999999999999995e-01 -3.3659131667317084e+00 -6.6500852285584635e+00 -1.4346339001353844e+01 -4 -2 -9
76 26 1 -8.1999999999999995e-01 -5.4228815195568068e+00 -8.0258448573266890e+00 -9.8513117737709486e+00 0 -1 -4
1690 564 1 -8.1999999999999995e-01 -4.6575318954890488e+00 -9.4577877101790087e+00 -1.2720538431350706e+01 3 4 3
2129 710 2 4.0999999999999998e-01 -3.4807108991878462e+00 -9.4730263783479156e+00 -1.0014485983181149e+01 -1 0 -8
540 180 2 4.0999999999999998e-01 -6.0324140814605887e+00 -1.3110332533821873e+01 -9.3278605100578389e+00 -3 -1 -7
1692 564 2 4.0999999999999998e-01 -5.1428340452331085e+00 -1.0332139632647177e+01 -1.2725157992947512e+01 3 4 3
814 272 1 -8.1999999999999995e-01 -1.7361437912329478e+00 -5.1244856632289242e+00 -9.4371734572219061e+00 -4 -2 -13
556 186 1 -8.1999999999999995e-01 -7.3947182045852680e+00 -1.2566237907632722e+01 -1.4558224568365482e+01 -3 -1 -3
1287 429 2 4.0999999999999998e-01 -3.3711815179611531e+00 -1.4589870557128201e+01 -1.3565104830638816e+01 2 1 -6
2083 695 1 -8.1999999999999995e-01 -1.4583964956103408e+00 -1.4143866615894096e+01 -9.6617891270780625e+00 1 -1 -9
1809 603 2 4.0999999999999998e-01 -4.6603611632084707e-01 -1.3304943945986343e+01 -7.7513515295683462e+00 -4 -3 -8
124 42 1 -8.1999999999999995e-01 -2.1411942088406200e-01 -1.2055623893177742e+01 -1.1321385702046621e+01 6 -2 -4
2371 791 1 -8.1999999999999995e-01 -5.7275498823247819e+00 -1.2468640407652229e+01 -7.6916874537780036e+00 2 0 1
1681 561 1 -8.1999999999999995e-01 -1.2609737435566313e+01 -9.5019333397746522e+00 -3.7213819569573268e+00 2 -4 -9
1911 637 2 4.0999999999999998e-01 -1.3439549859729594e+01 -9.4620635694854620e+00 -6.8018561352188449e+00 2 1 -7
498 166 2 4.0999999999999998e-01 -9.3808872914524279e+00 -7.4644641043858657e+00 -5.7605308640909403e+00 1 0 0
918 306 2 4.0999999999999998e-01 -1.1024882925384450e+01 -8.8802137739246305e+00 -3.9138159062929905e+00 4 0 0
917 306 2 4.0999999999999998e-01 -9.6482665571955444e+00 -9.3579667485928031e+00 -4.6509645396259049e+00 4 0 0
916 306 1 -8.1999999999999995e-01 -1.0180840850036788e+01 -8.5671594656868777e+00 -4.3492705262757383e+00 4 0 0
503 168 2 4.0999999999999998e-01 -1.0121871647756189e+01 -6.8631810471869006e+00 -3.3930504297457809e+00 1 -6 -6
502 168 1 -8.1999999999999995e-01 -9.4814924226545916e+00 -6.3333145230700403e+00 -2.8370049660186289e+00 1 -6 -6
1682 561 2 4.0999999999999998e-01 -1.3225635827906462e+01 -9.7484977346960555e+00 -2.9731133107392456e+00 2 -4 -9
1683 561 2 4.0999999999999998e-01 -1.3071183998090818e+01 -8.8619029903822160e+00 -4.3357588774992877e+00 2 -4 -9
2445 815 2 4.0999999999999998e-01 -1.4458469834977498e+01 -1.0264535877860760e+01 -1.4776100530471137e+00 -2 3 -6
406 136 1 -8.1999999999999995e-01 -1.1289306657883607e+01 -1.1208554736082791e+01 -1.4157570241382302e+00 -3 2 -1
2444 815 2 4.0999999999999998e-01 -1.4316587795313776e+01 -1.1797139912377085e+01 -2.0232313649178000e+00 -2 3 -6
2363 788 2 4.0999999999999998e-01 -1.2790008646042970e+01 -5.1845783009978756e+00 -3.4864075796859915e+00 -4 2 -3
1120 374 1 -8.1999999999999995e-01 -9.8672295497195108e+00 -1.1898135521617087e+01 -3.5237558619008809e+00 4 -2 -1
407 136 2 4.0999999999999998e-01 -1.0720195617850756e+01 -1.1360052508176762e+01 -2.2239598784614056e+00 -3 2 -1
1121 374 2 4.0999999999999998e-01 -9.7551588038863066e+00 -1.2889373962544548e+01 -3.5938794577831796e+00 4 -2 -1
2443 815 1 -8.1999999999999995e-01 -1.3815792667646445e+01 -1.0962690455341598e+01 -1.7931683374041363e+00 -2 3 -6
496 166 1 -8.1999999999999995e-01 -9.0579081525661351e+00 -7.1261347650950499e+00 -6.6444135023186011e+00 1 0 0
408 136 2 4.0999999999999998e-01 -1.2253270268679977e+01 -1.1210045320717759e+01 -1.6818449022232400e+00 -3 2 -1
592 198 1 -8.1999999999999995e-01 -1.3293528056244167e+01 -6.3102151561948432e+00 -9.8599112141491396e-01 2 0 -8
497 166 2 4.0999999999999998e-01 -9.4233506107777352e+00 -6.2090719051048815e+00 -6.8040325799274139e+00 1 0 0
2465 822 2 4.0999999999999998e-01 -1.3032750993840439e+01 -6.9707186088845896e+00 -4.8432233557975106e+00 4 -2 -7
2464 822 1 -8.1999999999999995e-01 -1.3795240577784615e+01 -7.5202954295891669e+00 -5.1846992209330498e+00 4 -2 -7
2510 837 2 4.0999999999999998e-01 -9.2442959697828400e+00 -1.1034244229107138e+01 -1.9100791411376150e-01 2 -3 0
2383 795 1 -8.1999999999999995e-01 -1.2912360193150326e+01 -1.4515166500811842e+01 -4.2984602157654574e+00 -3 -2 -4
394 132 1 -8.1999999999999995e-01 -1.2196572682847563e+01 -1.2142872173162496e+01 -5.0555111589644870e+00 3 1 -1
504 168 2 4.0999999999999998e-01 -8.6055727870272634e+00 -6.8133935627154329e+00 -2.7888425040627336e+00 1 -6 -6
1122 374 2 4.0999999999999998e-01 -9.2897463434148833e+00 -1.1448372727556876e+01 -4.2051200980199681e+00 4 -2 -1
138 46 2 4.0999999999999998e-01 -1.0425433774817071e+01 -6.9422786793875266e+00 -1.2077518514830086e+00 4 -1 -4
2384 795 2 4.0999999999999998e-01 -1.2944771502393595e+01 -1.3569095266348988e+01 -4.6208413187726087e+00 -3 -2 -4
136 46 1 -8.1999999999999995e-01 -1.0742296315267305e+01 -7.2006332299315048e+00 -2.9512825952778066e-01 4 -1 -4
384 128 2 4.0999999999999998e-01 -1.4276110961636133e+01 -1.3929280946558746e+01 -3.3093050257756236e+00 2 -1 -6
1015 339 1 -8.1999999999999995e-01 -1.2850855353112115e+01 -1.3830760251140561e+01 -7.4476195253531685e-01 0 3 1
1352 451 2 4.0999999999999998e-01 -7.7260420084191255e+00 -1.4362196759999199e+01 -6.3936362774269337e+00 2 4 -10
395 132 2 4.0999999999999998e-01 -1.1463603640206308e+01 -1.2020289639708082e+01 -4.3863619214135916e+00 3 1 -1
396 132 2 4.0999999999999998e-01 -1.2685191759814256e+01 -1.1278815801675112e+01 -5.1767084183914385e+00 3 1 -1
1351 451 1 -8.1999999999999995e-01 -7.8490291683607110e+00 -1.3399670909536002e+01 -6.1518742996826585e+00 2 4 -10
2362 788 1 -8.1999999999999995e-01 -1.2231182202738726e+01 -5.5097814756973484e+00 -4.2492880747182902e+00 -4 2 -3
594 198 2 4.0999999999999998e-01 -1.4120087638004359e+01 -6.4032360711826293e+00 -4.3085423606087225e-01 2 0 -8
2294 765 2 4.0999999999999998e-01 -1.3056298159637402e+01 -5.7575867777001619e+00 -6.8387481791877605e+00 3 -1 -7
1353 451 2 4.0999999999999998e-01 -8.7908721375668257e+00 -1.3125046477294628e+01 -6.3456363468238965e+00 2 4 -10
1085 362 2 4.0999999999999998e-01 -1.1116896814891319e+01 -1.2480374509459407e+01 -6.4975838301998774e+00 4 -2 -2
1016 339 2 4.0999999999999998e-01 -1.2234375410211372e+01 -1.3094333905255720e+01 -1.0234365388498254e+00 0 3 1
830 277 2 4.0999999999999998e-01 -7.9963184360847146e+00 -1.0511285632550237e+01 -6.2770242682574988e+00 0 4 -4
829 277 1 -8.1999999999999995e-01 -8.1864732710715522e+00 -1.0210005125880844e+01 -5.3426250420819752e+00 0 4 -4
2466 822 2 4.0999999999999998e-01 -1.4457497847937990e+01 -6.9251322230841108e+00 -5.6399208110476486e+00 4 -2 -7
593 198 2 4.0999999999999998e-01 -1.2550182880300488e+01 -6.8316835736692081e+00 -5.6701683061828412e-01 2 0 -8
1084 362 1 -8.1999999999999995e-01 -1.0343969028681727e+01 -1.2499597813731889e+01 -7.1318108008564804e+00 4 -2 -2
1017 339 2 4.0999999999999998e-01 -1.3771291773657211e+01 -1.3642518927577783e+01 -1.0873882172531601e+00 0 3 1
2509 837 1 -8.1999999999999995e-01 -8.4598730570738070e+00 -1.1640594232834033e+01 -6.0427831337031890e-02 2 -3 0
382 128 1 -8.1999999999999995e-01 -1.4834003235433084e+01 -1.3255799400637908e+01 -2.8243209580722031e+00 2 -1 -6
1125 375 2 4.0999999999999998e-01 -1.1150093324016625e+01 -1.0192959264146209e+01 -1.4457109912181565e-01 -3 1 -6
2385 795 2 4.0999999999999998e-01 -1.1977267476326936e+01 -1.4742904626715585e+01 -4.0268580151097630e+00 -3 -2 -4
1910 637 2 4.0999999999999998e-01 -1.2360849024353104e+01 -8.3570261350337152e+00 -7.3328976783771100e+00 2 1 -7
1086 362 2 4.0999999999999998e-01 -1.0007647626395915e+01 -1.1568892394526166e+01 -7.2757067367801707e+00 4 -2 -2
1909 637 1 -8.1999999999999995e-01 -1.2705533458873902e+01 -9.2873665821623561e+00 -7.4581575199852637e+00 2 1 -7
847 283 1 -8.1999999999999995e-01 -5.7312992040046140e-01 -7.9822999380267072e+00 -4.8626850684332847e+00 3 2 3
1721 574 2 4.0999999999999998e-01 -7.5034960210010127e-01 -6.6727285701242014e+00 -1.8835605652419751e-01 -2 -1 1
2373 791 2 4.0999999999999998e-01 -6.3986363401214259e+00 -1.2775030104386790e+01 -7.0165585108761039e+00 2 0 1
848 283 2 4.0999999999999998e-01 -3.6213253976006321e-01 -8.7464958435960831e+00 -4.2531643488024677e+00 3 2 3
428 143 2 4.0999999999999998e-01 -4.2164722275963165e+00 -1.4756554669537525e+01 -3.4205035723625219e+00 3 -3 1
951 317 2 4.0999999999999998e-01 -7.2899629883029187e+00 -6.1552644645661108e+00 -4.8180951367127953e+00 4 -2 0
1470 490 2 4.0999999999999998e-01 -3.5581192335716167e+00 -1.0430991153425644e+01 -6.2047293029757995e+00 2 4 -2
849 283 2 4.0999999999999998e-01 -1.4918217944999892e+00 -8.1004240475709111e+00 -5.2396236690802098e+00 3 2 3
949 317 1 -8.1999999999999995e-01 -6.4868145304211922e+00 -5.9545713080539784e+00 -5.3790812257566074e+00 4 -2 0
950 317 2 4.0999999999999998e-01 -6.5466405187909444e+00 -6.4601763664466354e+00 -6.2397874316678799e+00 4 -2 0
1448 483 2 4.0999999999999998e-01 -2.1101113124546700e-01 -6.6770311723805182e+00 -2.4380175611719164e+00 3 -3 -5
1968 656 2 4.0999999999999998e-01 -4.3327694711569844e+00 -7.8394371992235907e+00 -4.7066467499609352e+00 0 -4 -6
139 47 1 -8.1999999999999995e-01 -5.8298711520792104e+00 -1.1919572476801372e+01 -1.9423790070893983e+00 -4 0 -4
279 93 2 4.0999999999999998e-01 -4.8839463400346794e-01 -1.1756842548604617e+01 -2.1618808427385261e+00 -6 -3 -3
831 277 2 4.0999999999999998e-01 -7.3430503495670676e+00 -9.8756361435434830e+00 -4.9220707691494372e+00 0 4 -4
1601 534 2 4.0999999999999998e-01 -4.4475947073820290e+00 -8.1802737547307114e+00 -1.0204104765776627e+00 1 1 2
37 13 1 -8.1999999999999995e-01 -2.0752181872502913e+00 -1.2410593660214774e+01 -4.4863477305505981e+00 -6 -1 -2
277 93 1 -8.1999999999999995e-01 -1.3856826925671548e+00 -1.1357947521266443e+01 -1.9727044171439800e+00 -6 -3 -3
278 93 2 4.0999999999999998e-01 -1.4009427829559993e+00 -1.0999307775202380e+01 -1.0393365895707394e+00 -6 -3 -3
1898 633 2 4.0999999999999998e-01 -6.0336038435258477e+00 -1.0615819360862787e+01 -3.1834748771800943e+00 0 2 -4
1784 595 2 4.0999999999999998e-01 -4.7989394770994025e+00 -6.3124570379335729e+00 -2.1032197127892402e+00 2 2 -7
1469 490 2 4.0999999999999998e-01 -3.2404268352237455e+00 -1.1945564697019542e+01 -5.6833397890681940e+00 2 4 -2
664 222 1 -8.1999999999999995e-01 -7.0905888775683215e+00 -7.7392003240330558e+00 -2.4347708786395259e+00 -2 -6 -4
38 13 2 4.0999999999999998e-01 -1.2026223283840380e+00 -1.2546852531443829e+01 -4.9554327379521279e+00 -6 -1 -2
427 143 1 -8.1999999999999995e-01 -3.3749575184573395e+00 -1.4463882108873559e+01 -2.9663818553094039e+00 3 -3 1
1216 406 1 -8.1999999999999995e-01 -3.6512561191232162e+00 -5.5840902696876942e+00 -5.0424105531364471e+00 4 1 -6
1967 656 2 4.0999999999999998e-01 -3.2525821412046199e+00 -8.6667712107743604e+00 -3.8036393361784295e+00 0 -4 -6
39 13 2 4.0999999999999998e-01 -1.9064183129247212e+00 -1.2079747544998138e+01 -3.5578660438242338e+00 -6 -1 -2
1950 650 2 4.0999999999999998e-01 -6.1396799053194204e+00 -1.3201308227849109e+01 -3.0710738698824986e+00 -4 2 -8
666 222 2 4.0999999999999998e-01 -6.8418937603166530e+00 -8.6742311614122549e+00 -2.6875531382670950e+00 -2 -6 -4
776 259 2 4.0999999999999998e-01 -2.4716934518636382e+00 -9.7133342403976393e+00 -2.1899085448801650e+00 1 1 -5
1468 490 1 -8.1999999999999995e-01 -3.7621084076424935e+00 -1.1400620123564476e+01 -6.3397805875788062e+00 2 4 -2
2372 791 2 4.0999999999999998e-01 -4.9069468569665524e+00 -1.2143064961676876e+01 -7.2219621354177663e+00 2 0 1
1600 534 1 -8.1999999999999995e-01 -5.0575194622679778e+00 -7.4882907926953228e+00 -6.3416942227363648e-01 1 1 2
777 259 2 4.0999999999999998e-01 -1.9629357430846444e+00 -8.1621357710775175e+00 -2.2306199461479554e+00 1 1 -5
1966 656 1 -8.1999999999999995e-01 -3.5550204503281506e+00 -8.4673633649666407e+00 -4.7357328813718631e+00 0 -4 -6
775 259 1 -8.1999999999999995e-01 -2.7632915073074802e+00 -8.7602789282426592e+00 -2.2716823526649641e+00 1 1 -5
1785 595 2 4.0999999999999998e-01 -4.2531083778944971e+00 -5.5256485129473631e+00 -3.4259855237390617e+00 2 2 -7
140 47 2 4.0999999999999998e-01 -5.2188876258248449e+00 -1.1671903640832017e+01 -1.1904548832089219e+00 -4 0 -4
1949 650 2 4.0999999999999998e-01 -6.5346762311763396e+00 -1.3787340686349616e+01 -4.5432328163629343e+00 -4 2 -8
665 222 2 4.0999999999999998e-01 -6.5981791217247352e+00 -7.4760388829312818e+00 -1.6051266791460996e+00 -2 -6 -4
141 47 2 4.0999999999999998e-01 -6.7782447561566066e+00 -1.1762484876093758e+01 -1.6668038460036314e+00 -4 0 -4
429 143 2 4.0999999999999998e-01 -2.9961064396556534e+00 -1.3671741903346710e+01 -3.4449385513747757e+00 3 -3 1
1948 650 1 -8.1999999999999995e-01 -6.3262908248092788e+00 -1.4031654471415678e+01 -3.5961758487194508e+00 -4 2 -8
1899 633 2 4.0999999999999998e-01 -5.1204916780706693e+00 -9.6749306920546356e+00 -4.1569548706410586e+00 0 2 -4
1217 406 2 4.0999999999999998e-01 -4.5016783501697191e+00 -5.8235794233558718e+00 -5.5108736982081528e+00 4 1 -6
1897 633 1 -8.1999999999999995e-01 -6.0474795918969857e+00 -9.8481722144245989e+00 -3.8242213527241162e+00 0 2 -4
1536 512 2 4.0999999999999998e-01 -2.8868318045804031e+00 -1.4276139670504037e+01 -1.9822159896386360e-01 2 -1 -5
1237 413 1 -8.1999999999999995e-01 -3.6700824709321189e-01 -5.5354730167896697e+00 -3.6810390011109071e+00 -1 -1 -6
1783 595 1 -8.1999999999999995e-01 -4.4677440755710318e+00 -5.4362541058150864e+00 -2.4533751653121154e+00 2 2 -7
1238 413 2 4.0999999999999998e-01 -6.7455582517416168e-01 -6.4082804884863673e+00 -4.0600539505560871e+00 -1 -1 -6
1447 483 1 -8.1999999999999995e-01 -1.2538647759171440e-01 -7.3613767040520068e+00 -1.7138833413161336e+00 3 -3 -5
398 133 2 4.0999999999999998e-01 -1.1382107942481428e+01 -1.1122792970641354e+01 3.4399641393477012e+00 -1 -3 -3
166 56 1 -8.1999999999999995e-01 -1.3560288251482168e+01 -9.1653491147081603e+00 2.3991037967753570e+00 2 -2 -10
378 126 2 4.0999999999999998e-01 -9.7568070889858944e+00 -9.2837471045242026e+00 2.2429756974024180e+00 -1 -1 -4
1985 662 2 4.0999999999999998e-01 -8.0554726119800826e+00 -8.7672862043290642e+00 6.4512610304372267e+00 -3 0 -1
167 56 2 4.0999999999999998e-01 -1.3154038627821887e+01 -9.6197787224658882e+00 3.1918747261845155e+00 2 -2 -10
168 56 2 4.0999999999999998e-01 -1.4529186907253536e+01 -9.4051333997311328e+00 2.3377067004715215e+00 2 -2 -10
2142 714 2 4.0999999999999998e-01 -1.0548837197259200e+01 -5.8615818614187312e+00 7.1007913739251727e+00 5 3 -9
2141 714 2 4.0999999999999998e-01 -9.2214886727625860e+00 -6.6467033000728595e+00 6.5637265521570676e+00 5 3 -9
2140 714 1 -8.1999999999999995e-01 -9.7092731657303695e+00 -5.7737221582519194e+00 6.5646535970197064e+00 5 3 -9
1984 662 1 -8.1999999999999995e-01 -7.7911593795849088e+00 -7.9391913695324927e+00 6.9456578677790297e+00 -3 0 -1
397 133 1 -8.1999999999999995e-01 -1.0679756534919978e+01 -1.1496556990522881e+01 2.8341310227333487e+00 -1 -3 -3
1397 466 2 4.0999999999999998e-01 -1.3801599859033972e+01 -1.3551193189191547e+01 5.1287451073615351e+00 -2 4 -4
956 319 2 4.0999999999999998e-01 -9.9860785399936773e+00 -5.8720429144104660e+00 4.6209001132254244e+00 -2 1 -8
1396 466 1 -8.1999999999999995e-01 -1.3827929718203094e+01 -1.2738042785866348e+01 5.7102292759854407e+00 -2 4 -4
955 319 1 -8.1999999999999995e-01 -9.9858608159549203e+00 -6.0034896103968372e+00 3.6295614706438926e+00 -2 1 -8
399 133 2 4.0999999999999998e-01 -1.0772134559550288e+01 -1.1089199508212666e+01 1.9255293934296525e+00 -1 -3 -3
2224 742 1 -8.1999999999999995e-01 -1.0807489094689839e+01 -1.3613815029093569e+01 4.5575261920818235e+00 -3 0 -3
731 244 2 4.0999999999999998e-01 -1.3330412074873269e+01 -7.0072659946580584e+00 4.2193306555723353e+00 -3 -2 -6
102 34 2 4.0999999999999998e-01 -1.2550142126478763e+01 -9.7966966380909888e+00 5.2710717989889737e+00 -3 0 -6
1828 610 1 -8.1999999999999995e-01 -1.1978650833930695e+01 -8.6812008764689299e+00 6.6160167005644475e+00 -2 -2 -7
101 34 2 4.0999999999999998e-01 -1.2971676174323246e+01 -1.1361696314557062e+01 5.0715882981437552e+00 -3 0 -6
1124 375 2 4.0999999999999998e-01 -1.0717073814631723e+01 -8.7407624769905699e+00 4.6397402077920624e-01 -3 1 -6
100 34 1 -8.1999999999999995e-01 -1.2545597654794978e+01 -1.0568917736996006e+01 4.6357099018533319e+00 -3 0 -6
1398 466 2 4.0999999999999998e-01 -1.3362689775903027e+01 -1.2930869344402989e+01 6.5741739644924309e+00 -2 4 -4
730 244 1 -8.1999999999999995e-01 -1.2532856507761439e+01 -7.1145242644951621e+00 3.6256712496596002e+00 -3 -2 -6
1830 610 2 4.0999999999999998e-01 -1.2102754410304501e+01 -7.7611163644894203e+00 6.9875990939697949e+00 -2 -2 -7
2225 742 2 4.0999999999999998e-01 -1.0515460520481497e+01 -1.2741984239967447e+01 4.1642562943823975e+00 -3 0 -3
2226 742 2 4.0999999999999998e-01 -1.1648655944885224e+01 -1.3916533477545739e+01 4.1093848167251146e+00 -3 0 -3
1708 570 1 -8.1999999999999995e-01 -9.9478353199211824e+00 -1.3444451595769484e+01 1.2852353739588587e+00 6 3 -2
1709 570 2 4.0999999999999998e-01 -1.0241936564886071e+01 -1.2836323991843605e+01 2.0226064217890105e+00 6 3 -2
1812 604 2 4.0999999999999998e-01 -1.3785192644624304e+01 -1.4058057686055607e+01 2.8458871938446215e+00 -4 0 -6
2010 670 2 4.0999999999999998e-01 -1.0353295033121075e+01 -1.3839466939065893e+01 6.3065925146751241e+00 2 -1 -2
8 3 2 4.0999999999999998e-01 -1.4625140356245712e+01 -6.3784629457213988e+00 5.7146476673834208e+00 5 1 -7
1073 358 2 4.0999999999999998e-01 -8.9353318453169273e+00 -1.4391367565228183e+01 3.1149183567499783e+00 1 -8 -1
1829 610 2 4.0999999999999998e-01 -1.1432721009653037e+01 -9.2266767163026309e+00 7.2519785139940964e+00 -2 -2 -7
1710 570 2 4.0999999999999998e-01 -1.0718424953685194e+01 -1.4010838835590240e+01 9.9295490832241384e-01 6 3 -2
662 221 2 4.0999999999999998e-01 -7.8687094472823169e+00 -1.1447589373475587e+01 1.5908260268668712e+00 -5 -1 -5
2312 771 2 4.0999999999999998e-01 -9.0065020506580193e+00 -6.1418419652572407e+00 2.1029012384464387e+00 3 -4 -2
376 126 1 -8.1999999999999995e-01 -8.9223537844233931e+00 -8.8945219452429374e+00 2.6331324251217616e+00 -1 -1 -4
2008 670 1 -8.1999999999999995e-01 -1.0190002939589883e+01 -1.3686061072411052e+01 7.2811863527517282e+00 2 -1 -2
6 2 2 4.0999999999999998e-01 -8.9252350246847776e+00 -9.5239349250288612e+00 4.5658520972597110e+00 0 0 -6
2311 771 1 -8.1999999999999995e-01 -8.4077134182586235e+00 -6.3671737620443380e+00 1.3343256341373646e+00 3 -4 -2
4 2 1 -8.1999999999999995e-01 -8.5200905302552634e+00 -9.9872950557698292e+00 5.3540056995828493e+00 0 0 -6
5 2 2 4.0999999999999998e-01 -9.2459370398115830e+00 -1.0376157292253321e+01 5.9214242525872329e+00 0 0 -6
957 319 2 4.0999999999999998e-01 -1.0723507092524866e+01 -6.6293415011530605e+00 3.3761486712219053e+00 -2 1 -8
2313 771 2 4.0999999999999998e-01 -7.4698004635880126e+00 -6.0972143444865523e+00 1.5522061955477895e+00 3 -4 -2