LAMMPS data file via write_data, version 15 May 2015, timestep = 1009000

2593 atoms
6 atom types
1728 bonds
4 bond types
864 angles
3 angle types
0 dihedrals
3 dihedral types
0 impropers
1 improper types

-1.4886922713844518e+01 1.4886922713844518e+01 xlo xhi
-1.4886922713844518e+01 1.4886922713844518e+01 ylo yhi
-1.4886922713844518e+01 1.4886922713844518e+01 zlo zhi

Masses

1 15.9994
2 1.00794
3 12.0107
4 1.00794
5 12.0107
6 12.0107

Bond Coeffs # harmonic

1 1000 1
2 469 1.4
3 367 1.08
4 469 0.7

Angle Coeffs # harmonic

1 100 109.47
2 35 120
3 63 120

Dihedral Coeffs # opls

1 0 7.25 0 0
2 0 7.25 0 0
3 0 7.25 0 0

Improper Coeffs # cvff

1 2.5 -1 2

Atoms # full

302 101 2 4.0999999999999998e-01 -9.0652866118052184e+00 -1.1232872182890763e+01 -9.2095085363949991e+00 0 0 0
1355 452 2 4.0999999999999998e-01 -1.1226405118319690e+01 -8.1980010682334310e+00 -1.4355143058783181e+01 1 3 3
1165 389 1 -8.1999999999999995e-01 -1.1797040746268213e+01 -8.8140521485473649e+00 -8.5733028172751027e+00 3 0 2
1241 414 2 4.0999999999999998e-01 -1.0978034157194466e+01 -1.2075878882927704e+01 -7.9824925698386133e+00 3 0 1
1821 607 2 4.0999999999999998e-01 -9.7434362483082211e+00 -9.0270529900238508e+00 -1.0984453081125759e+01 0 1 2
1240 414 1 -8.1999999999999995e-01 -1.1883661150078408e+01 -1.1821879443998482e+01 -8.3220974472200488e+00 3 0 1
1819 607 1 -8.1999999999999995e-01 -9.5283317438409298e+00 -9.4545717534484073e+00 -1.0106406857880902e+01 0 1 2
1242 414 2 4.0999999999999998e-01 -1.2006923057864526e+01 -1.0833288714294927e+01 -8.2354818113302102e+00 3 0 1
1820 607 2 4.0999999999999998e-01 -1.0040666908965498e+01 -8.9980538755275035e+00 -9.3790063291005232e+00 0 1 2
1166 389 2 4.0999999999999998e-01 -1.2167113358082766e+01 -8.2805954763901948e+00 -9.3338799841280533e+00 3 0 2
1285 429 1 -8.1999999999999995e-01 -3.3408721449945240e+00 -9.2235655456561894e+00 -7.6815472777806706e+00 0 1 1
525 175 2 4.0999999999999998e-01 -6.6554796727956855e-01 -8.3110765530024437e+00 -9.4231068206712525e+00 1 1 3
1589 530 2 4.0999999999999998e-01 -1.3816686853385390e+01 -1.1395237929337098e+01 -1.4052500710786809e+01 3 1 1
10 4 1 -8.1999999999999995e-01 -1.1400023919256871e+01 -1.2840803380165724e+01 -1.1487210517881467e+01 1 2 0
11 4 2 4.0999999999999998e-01 -1.1606811932222548e+01 -1.2148576679067295e+01 -1.2178635341866320e+01 1 2 0
1917 639 2 4.0999999999999998e-01 -6.8593940395868103e+00 -1.1219709781821802e+01 -1.4453332303322370e+01 0 1 2
12 4 2 4.0999999999999998e-01 -1.1512302432152735e+01 -1.2445322735463908e+01 -1.0575620752415066e+01 1 2 0
492 164 2 4.0999999999999998e-01 -1.3405644032255362e+01 -7.0929041594116198e+00 -1.1083059341780316e+01 1 0 0
414 138 2 4.0999999999999998e-01 -1.1429603684228907e+01 -1.4468535722166381e+01 -1.1540734722715378e+01 0 3 2
491 164 2 4.0999999999999998e-01 -1.2200776072221844e+01 -7.8690331795887625e+00 -1.1865723500300680e+01 1 0 0
490 164 1 -8.1999999999999995e-01 -1.2579030550127355e+01 -7.6437612443507703e+00 -1.0967846292455850e+01 1 0 0
1167 389 2 4.0999999999999998e-01 -1.2296933567023945e+01 -8.5920763738351411e+00 -7.7361401632985736e+00 3 0 2
504 168 2 4.0999999999999998e-01 -1.3430446316161863e+01 -1.0220125498416486e+01 -1.2308913900322640e+01 1 2 1
1084 362 1 -8.1999999999999995e-01 -1.4183475791890540e+01 -1.3288630022502904e+01 -9.0207963495533239e+00 3 0 1
503 168 2 4.0999999999999998e-01 -1.3223617926695503e+01 -9.5916805222768744e+00 -1.0815955400247528e+01 1 2 1
695 232 2 4.0999999999999998e-01 -8.4632199486648680e+00 -6.3876080166946263e+00 -1.1642950381536513e+01 2 3 1
1588 530 1 -8.1999999999999995e-01 -1.2999041576034696e+01 -1.0878802110448699e+01 -1.4306976002881319e+01 3 1 1
40 14 1 -8.1999999999999995e-01 -1.0011622530332430e+01 -5.1631671057732014e+00 -1.1290322514895450e+01 1 2 2
1916 639 2 4.0999999999999998e-01 -8.1856283074882228e+00 -1.1423360883429240e+01 -1.3522593464403821e+01 0 1 2
2359 787 1 -8.1999999999999995e-01 -8.0654330627320014e+00 -1.4497135968006438e+01 -8.8212109641499499e+00 3 -1 2
696 232 2 4.0999999999999998e-01 -7.7813762877816037e+00 -7.2234185994974389e+00 -1.2868983094129943e+01 2 3 1
1356 452 2 4.0999999999999998e-01 -1.2349978818173133e+01 -9.3187595214519341e+00 -1.3970267999623845e+01 1 3 3
694 232 1 -8.1999999999999995e-01 -7.7303704343573649e+00 -7.0211892424900482e+00 -1.1890970241468317e+01 2 3 1
502 168 1 -8.1999999999999995e-01 -1.3260739109471029e+01 -1.0437747884557329e+01 -1.1347744104724169e+01 1 2 1
1767 589 2 4.0999999999999998e-01 -6.4250519593786830e+00 -8.4340414758931583e+00 -1.4823743747286011e+01 2 1 1
1086 362 2 4.0999999999999998e-01 -1.3424837696480756e+01 -1.2637950578471067e+01 -8.9877544168967134e+00 3 0 1
1233 411 2 4.0999999999999998e-01 -9.6439344457034828e+00 -1.4345203978409698e+01 -7.5454441497555038e+00 2 2 1
436 146 1 -8.1999999999999995e-01 -1.4832363964827509e+01 -6.0111178009301032e+00 -1.1356547571366345e+01 2 2 1
301 101 1 -8.1999999999999995e-01 -9.0571767764328257e+00 -1.1885431292852244e+01 -8.4518092040026076e+00 0 0 0
1354 452 1 -8.1999999999999995e-01 -1.1923233533142131e+01 -8.4597677536824385e+00 -1.3687373949496576e+01 1 3 3
1620 540 2 4.0999999999999998e-01 -4.6961555689738432e-01 -1.2372542645700015e+01 -1.4607931098106430e+01 0 2 1
2054 685 2 4.0999999999999998e-01 -9.2029707057311256e+00 -1.2766400092723201e+01 -1.1382422565743962e+01 0 1 2
2053 685 1 -8.1999999999999995e-01 -8.3185947470244095e+00 -1.2302155791531852e+01 -1.1431041102096856e+01 0 1 2
1286 429 2 4.0999999999999998e-01 -3.3814918771463827e+00 -8.5161436041039060e+00 -8.3871757940999370e+00 0 1 1
958 320 1 -8.1999999999999995e-01 -9.0176939933255209e+00 -5.3663186829549119e+00 -8.2162822770543897e+00 2 -1 1
303 101 2 4.0999999999999998e-01 -8.6257565326217094e+00 -1.2736928662799285e+01 -8.7498633017899969e+00 0 0 0
2055 685 2 4.0999999999999998e-01 -7.5872328710334580e+00 -1.2957719290936582e+01 -1.1243015283521679e+01 0 1 2
1915 639 1 -8.1999999999999995e-01 -7.8362569380109681e+00 -1.1022864900370946e+01 -1.4369676623768056e+01 0 1 2
1085 362 2 4.0999999999999998e-01 -1.4758108882492735e+01 -1.3090589058212036e+01 -9.8148895487638583e+00 3 0 1
523 175 1 -8.1999999999999995e-01 -7.7510900763342860e-01 -9.2962413298820490e+00 -9.5552209821659684e+00 1 1 3
435 145 2 4.0999999999999998e-01 -8.4751548547919207e+00 -8.9840238219704567e+00 -1.4332438277144862e+01 1 -1 2
959 320 2 4.0999999999999998e-01 -9.2484114340304515e+00 -5.9144711810460304e+00 -9.0202136539854294e+00 2 -1 1
286 96 1 -8.1999999999999995e-01 -1.5943919161932758e+00 -7.9945963908470947e+00 -1.3495564395211883e+01 3 2 2
966 322 2 4.0999999999999998e-01 -2.4783085114663450e-01 -6.0124123180423066e+00 -1.0903310841017856e+01 0 -1 1
2360 787 2 4.0999999999999998e-01 -7.1447219617398634e+00 -1.4533692345993067e+01 -8.4326726502130462e+00 3 -1 2
498 166 2 4.0999999999999998e-01 -4.0974782928342339e+00 -1.2695979443522457e+01 -1.0373238462829073e+01 1 -1 2
1180 394 1 -8.1999999999999995e-01 -1.3566150130958992e+00 -1.3730400764715890e+01 -7.9567789332401810e+00 1 2 1
497 166 2 4.0999999999999998e-01 -3.3047599076534180e+00 -1.3911965718029624e+01 -1.1121316837525246e+01 1 -1 2
1509 503 2 4.0999999999999998e-01 -3.6451959338775097e-02 -1.4657682769160852e+01 -1.3131739439952263e+01 0 0 1
1669 557 1 -8.1999999999999995e-01 -3.1070153123171877e+00 -6.8746827300670876e+00 -9.8126704993483287e+00 0 0 -1
288 96 2 4.0999999999999998e-01 -1.9902638033471458e+00 -8.7956984749301519e+00 -1.3046645344783546e+01 3 2 2
1508 503 2 4.0999999999999998e-01 -1.1849735453998864e+00 -1.4400079672678785e+01 -1.4263633848060335e+01 0 0 1
1507 503 1 -8.1999999999999995e-01 -3.3207396198125849e-01 -1.4054356951725365e+01 -1.3872423553772036e+01 0 0 1
212 71 2 4.0999999999999998e-01 -7.0158598682075404e+00 -1.4516503971584445e+01 -1.3776309724669970e+01 2 1 3
1182 394 2 4.0999999999999998e-01 -1.1680162492239035e+00 -1.3885371013643026e+01 -8.9265325535040247e+00 1 2 1
964 322 1 -8.1999999999999995e-01 -1.0087747659962893e+00 -6.3782123411320999e+00 -1.1439185847264419e+01 0 -1 1
2145 715 2 4.0999999999999998e-01 -7.3227599215640247e+00 -1.0683992171777341e+01 -1.0796719553138027e+01 0 0 1
675 225 2 4.0999999999999998e-01 -5.2226670274888125e+00 -1.2852822092096469e+01 -8.3718086677957153e+00 3 2 1
1825 609 1 -8.1999999999999995e-01 -4.5497670105419754e+00 -1.1265956983234352e+01 -9.1373950112915132e+00 1 -1 -1
1826 609 2 4.0999999999999998e-01 -5.2614873184813895e+00 -1.0987870040912645e+01 -9.7824758369906810e+00 1 -1 -1
1181 394 2 4.0999999999999998e-01 -1.1392052663468650e+00 -1.2782924677790511e+01 -7.7221953313145013e+00 1 2 1
673 225 1 -8.1999999999999995e-01 -5.7011463388054242e+00 -1.3289415824475901e+01 -7.6099353877178224e+00 3 2 1
433 145 1 -8.1999999999999995e-01 -8.1895695511746567e+00 -8.0270788846364844e+00 -1.4280429962129523e+01 1 -1 2
783 261 2 4.0999999999999998e-01 -2.8510631369706410e+00 -1.0040288316722418e+01 -1.1960333057940701e+01 0 3 2
1344 448 2 4.0999999999999998e-01 -5.1709381092993372e+00 -1.3176639460262495e+01 -1.2403088371721045e+01 1 2 1
1343 448 2 4.0999999999999998e-01 -5.1038111878940207e+00 -1.2802472950024356e+01 -1.3991212892822670e+01 1 2 1
524 175 2 4.0999999999999998e-01 -1.0219314852248882e+00 -9.7237524709168177e+00 -8.6855542108942956e+00 1 1 3
287 96 2 4.0999999999999998e-01 -1.2982356909560870e+00 -7.3367957288453205e+00 -1.2803034823913038e+01 3 2 2
782 261 2 4.0999999999999998e-01 -1.6112017423001301e+00 -1.0077878103603929e+01 -1.0898270435593494e+01 0 3 2
781 261 1 -8.1999999999999995e-01 -1.8934736936341121e+00 -1.0298258031192688e+01 -1.1831952749849711e+01 0 3 2
2143 715 1 -8.1999999999999995e-01 -6.5523290794230125e+00 -1.0105438849258125e+01 -1.0528913999387964e+01 0 0 1
1611 537 2 4.0999999999999998e-01 -6.4703630150922766e+00 -8.4196934518657187e+00 -7.4955538477385355e+00 1 0 0
965 322 2 4.0999999999999998e-01 -1.7948358084046987e+00 -6.5315043053331951e+00 -1.0840339399825996e+01 0 -1 1
1827 609 2 4.0999999999999998e-01 -4.2097024633552866e+00 -1.0462104046567816e+01 -8.6493540603420307e+00 1 -1 -1
647 216 2 4.0999999999999998e-01 -5.4322331368075112e+00 -9.5637508236531978e+00 -1.1765704231435024e+01 2 3 2
1671 557 2 4.0999999999999998e-01 -3.2954332352153113e+00 -6.6682190137893684e+00 -8.8525252955289524e+00 0 0 -1
1342 448 1 -8.1999999999999995e-01 -5.5849723316104232e+00 -1.3339855956664600e+01 -1.3298601287007859e+01 1 2 1
2109 703 2 4.0999999999999998e-01 -1.3700610459504979e+01 -1.4362569898426063e+01 -7.9351857094068734e+00 1 0 -1
496 166 1 -8.1999999999999995e-01 -4.2052551166785417e+00 -1.3557539592090366e+01 -1.0869328879093766e+01 1 -1 2
1670 557 2 4.0999999999999998e-01 -3.8721624162239863e+00 -7.3895705839244261e+00 -1.0199255296104354e+01 0 0 -1
1605 535 2 4.0999999999999998e-01 -6.6592583669607830e+00 -6.4570173070877850e+00 -9.1294291103040024e+00 -1 0 -1
1619 540 2 4.0999999999999998e-01 -7.8611865704038131e-01 -1.0855973573116838e+01 -1.4091704105544032e+01 0 2 1
648 216 2 4.0999999999999998e-01 -4.7827610482423175e+00 -9.0404175250864771e+00 -1.3169611106996587e+01 2 3 2
646 216 1 -8.1999999999999995e-01 -4.5795255152605687e+00 -9.4261011119861848e+00 -1.2269638373589384e+01 2 3 2
321 107 2 4.0999999999999998e-01 -1.3889800512495452e+00 -6.0218278911107816e+00 -1.4622692725536176e+01 0 0 2
1603 535 1 -8.1999999999999995e-01 -6.9506038195087374e+00 -7.3851346054200340e+00 -9.3612121444532121e+00 -1 0 -1
1604 535 2 4.0999999999999998e-01 -7.4367836693646820e+00 -7.3734345865861357e+00 -1.0234996812437306e+01 -1 0 -1
2144 715 2 4.0999999999999998e-01 -6.8873875885418796e+00 -9.1944293178015606e+00 -1.0288487565454787e+01 0 0 1
88 30 1 -8.1999999999999995e-01 -5.0379038554651316e+00 -1.1072446706783353e+01 -1.4856409385647749e+01 3 1 2
1035 345 2 4.0999999999999998e-01 -1.1257611468932341e+01 -6.3592227417236629e+00 -3.9711996242492908e-01 3 1 1
2187 729 2 4.0999999999999998e-01 -1.2229339586711514e+01 -1.0224568675601613e+01 -4.5747401891872563e-01 1 0 1
780 260 2 4.0999999999999998e-01 -3.9950177339910802e+00 -1.4529071330460560e+01 -2.2249031677407505e+00 1 1 2
2509 837 1 -8.1999999999999995e-01 -9.1058283183436153e+00 -1.0298282878654543e+01 -1.1124701628766882e+00 4 0 3
2510 837 2 4.0999999999999998e-01 -8.8354616710831877e+00 -1.0287858289504925e+01 -2.0751750054876474e+00 4 0 3
2208 736 2 4.0999999999999998e-01 -1.2446216845765123e+01 -1.3298414913512863e+01 -3.1139494832977661e+00 1 1 0
1034 345 2 4.0999999999999998e-01 -1.0601336999977448e+01 -5.3262719453597462e+00 -1.4783057683774512e+00 3 1 1
1033 345 1 -8.1999999999999995e-01 -1.1238759734614694e+01 -5.4104053175092108e+00 -7.1239372296936665e-01 3 1 1
1218 406 2 4.0999999999999998e-01 -1.2528186228865438e+01 -7.6750780295417860e+00 -6.0993486174437770e+00 2 1 1
2046 682 2 4.0999999999999998e-01 -1.0309687961694326e+01 -1.0559240789507491e+01 -4.5454768349652284e+00 2 -1 -1
2493 831 2 4.0999999999999998e-01 -4.9459242094592248e-01 -7.9765535329129218e+00 -6.5745933089082698e-01 3 3 -1
158 53 2 4.0999999999999998e-01 -9.8307785890780330e+00 -7.2741302053345454e+00 -4.7688679482992118e+00 -1 0 0
2207 736 2 4.0999999999999998e-01 -1.2209789869474520e+01 -1.1932500709041269e+01 -3.9770986701289797e+00 1 1 0
2206 736 1 -8.1999999999999995e-01 -1.2837176548825063e+01 -1.2412623344339986e+01 -3.3640117886730820e+00 1 1 0
150 50 2 4.0999999999999998e-01 -8.0194769433624469e+00 -1.0532137043593647e+01 -4.5405003042496794e+00 0 1 0
148 50 1 -8.1999999999999995e-01 -8.2488412084806786e+00 -1.0053613360484839e+01 -3.6929069196416009e+00 0 1 0
2044 682 1 -8.1999999999999995e-01 -1.0972996722954212e+01 -1.1173749181129200e+01 -4.9725697410237757e+00 2 -1 -1
149 50 2 4.0999999999999998e-01 -8.5460440656574690e+00 -9.1227854625825238e+00 -3.9055975799181066e+00 0 1 0
1500 500 2 4.0999999999999998e-01 -1.3539727382260651e+01 -1.2992437913959801e+01 -1.8069814989658948e+00 4 -1 3
815 272 2 4.0999999999999998e-01 -1.0195267183313902e+01 -1.2785090151822843e+01 -4.4708283785208476e+00 0 1 -1
2100 700 2 4.0999999999999998e-01 -1.4013826905013884e+01 -9.4427177513133245e+00 -3.6333849771493796e+00 -1 2 1
157 53 1 -8.1999999999999995e-01 -1.0306013571000229e+01 -8.0291972674223651e+00 -4.3171679427752228e+00 -1 0 0
159 53 2 4.0999999999999998e-01 -1.1075307849722794e+01 -7.6702590220887163e+00 -3.7886255235692143e+00 -1 0 0
2511 837 2 4.0999999999999998e-01 -8.3061656612568768e+00 -1.0118018865819582e+01 -5.3971200457023372e-01 4 0 3
1535 512 2 4.0999999999999998e-01 -9.9483040330515102e+00 -8.7865672560820869e+00 -2.0600468491421076e-01 1 1 1
65 22 2 4.0999999999999998e-01 -1.3357162004410819e+01 -7.4953156336468609e+00 -3.4870748687256796e+00 2 1 1
752 251 2 4.0999999999999998e-01 -8.5065160660525301e+00 -1.4061349985605442e+01 -1.6373236680888912e+00 2 1 2
814 272 1 -8.1999999999999995e-01 -9.8768620135362291e+00 -1.3708475842843098e+01 -4.2563885218695034e+00 0 1 -1
1351 451 1 -8.1999999999999995e-01 -6.0325214267649052e-01 -1.1197714183104337e+01 -7.2726896622212349e+00 2 2 0
1232 411 2 4.0999999999999998e-01 -1.0134995039071159e+01 -1.4435575273124286e+01 -5.9906648482077482e+00 2 2 1
2045 682 2 4.0999999999999998e-01 -1.1506495965203722e+01 -1.0668733727950130e+01 -5.6510572988653216e+00 2 -1 -1
2185 729 1 -8.1999999999999995e-01 -1.3223634509562714e+01 -1.0238563496933903e+01 -5.6325286563970245e-01 1 0 1
1674 558 2 4.0999999999999998e-01 -8.8482772486697208e+00 -6.1726973077918625e+00 -6.6680799459919449e+00 0 -2 1
2168 723 2 4.0999999999999998e-01 -1.3818542707566129e+01 -1.1291684767880476e+01 -4.5474220035251189e+00 2 1 1
64 22 1 -8.1999999999999995e-01 -1.2723547388198369e+01 -6.7473311484612033e+00 -3.6847088376909394e+00 2 1 1
2189 730 2 4.0999999999999998e-01 -2.3891544035291616e+00 -5.9886489605783169e+00 -6.9490024849588545e+00 3 1 -1
1217 406 2 4.0999999999999998e-01 -1.3444118049049514e+01 -8.9243262738000251e+00 -5.5825375281459149e+00 2 1 1
1216 406 1 -8.1999999999999995e-01 -1.3155656380464572e+01 -8.3999532530846359e+00 -6.3836803761716912e+00 2 1 1
66 22 2 4.0999999999999998e-01 -1.3215230782542662e+01 -5.8770946595594431e+00 -3.6539960164945757e+00 2 1 1
1672 558 1 -8.1999999999999995e-01 -8.8668884510459769e+00 -6.2285829782606541e+00 -5.6698125174238019e+00 0 -2 1
1231 411 1 -8.1999999999999995e-01 -1.0420742588333841e+01 -1.4532163861026895e+01 -6.9440935889359929e+00 2 2 1
1498 500 1 -8.1999999999999995e-01 -1.3948842278704969e+01 -1.2921881698830548e+01 -8.9722645401880285e-01 4 -1 3
751 251 1 -8.1999999999999995e-01 -7.5221843802910398e+00 -1.4121823043990542e+01 -1.4716687022199686e+00 2 1 2
2491 831 1 -8.1999999999999995e-01 -1.1532611523769631e-01 -7.1353606200192772e+00 -1.0428924894366212e+00 3 3 -1
1293 431 2 4.0999999999999998e-01 -1.1406054672592761e+01 -5.4639319609311023e+00 -4.2479080870825943e+00 2 2 0
1558 520 1 -8.1999999999999995e-01 -1.0300598496703435e+01 -1.4547332394493761e+01 -2.5373694580374995e-01 0 4 0
2042 681 2 4.0999999999999998e-01 -1.2617760154357178e+00 -1.3097023350049847e+01 -1.7222648527962114e-01 2 3 0
1673 558 2 4.0999999999999998e-01 -8.5831525857581532e+00 -5.3517997595994515e+00 -5.2815438173775870e+00 0 -2 1
229 77 1 -8.1999999999999995e-01 -8.6028413723722430e-01 -5.0620240038984061e+00 -6.9957488802863237e+00 1 0 0
1499 500 2 4.0999999999999998e-01 -1.3976097612938277e+01 -1.1962175211696735e+01 -6.1753371126098777e-01 4 -1 3
2484 828 2 4.0999999999999998e-01 -8.1833858549137588e+00 -1.1693684423887467e+01 -6.8127322579727689e+00 2 0 2
2056 686 1 -8.1999999999999995e-01 -6.2684263456368576e+00 -6.2399100557352298e+00 -6.1815158636957968e-01 1 0 3
2098 700 1 -8.1999999999999995e-01 -1.4130937399587284e+01 -8.8153628691958836e+00 -2.8635029108752956e+00 -1 2 1
1833 611 2 4.0999999999999998e-01 -9.7811622117365165e+00 -5.3418101829180120e+00 -3.1189155967203774e+00 0 -1 0
1832 611 2 4.0999999999999998e-01 -8.7567235460664712e+00 -6.5587053855819804e+00 -2.7496761580449434e+00 0 -1 0
1678 560 1 -8.1999999999999995e-01 -4.0230519282946684e+00 -5.3484373458603205e+00 -4.6186210190964339e+00 2 1 1
2482 828 1 -8.1999999999999995e-01 -7.2964942459789413e+00 -1.1571658393630518e+01 -6.3671536210177173e+00 2 0 2
2586 862 2 4.0999999999999998e-01 -6.4118294257121917e+00 -9.9934844165381946e+00 -2.4731231973189658e+00 2 1 0
2585 862 2 4.0999999999999998e-01 -5.2757841796685501e+00 -1.0082350454757183e+01 -1.3034435992755675e+00 2 1 0
2074 692 1 -8.1999999999999995e-01 -1.1673478858485353e-01 -1.1460159690732954e+01 -5.3805332774642345e-01 1 1 0
2058 686 2 4.0999999999999998e-01 -7.1726629788944436e+00 -6.0428232234097496e+00 -2.3931120445397802e-01 1 0 3
1352 451 2 4.0999999999999998e-01 -1.2969623577628528e+00 -1.1102556476631650e+01 -6.5587439116959203e+00 2 2 0
1888 630 1 -8.1999999999999995e-01 -1.9471482362270862e+00 -8.1387547414090395e+00 -2.9937202991829786e+00 1 0 1
2076 692 2 4.0999999999999998e-01 -8.6871571120284941e-01 -1.1183071116762108e+01 -1.1361787382294892e+00 1 1 0
2492 831 2 4.0999999999999998e-01 -7.5729467496698177e-02 -6.4318435453580012e+00 -3.3331303571207904e-01 3 3 -1
753 251 2 4.0999999999999998e-01 -7.0297891202793972e+00 -1.3691927090682578e+01 -2.2284670746726274e+00 2 1 2
1890 630 2 4.0999999999999998e-01 -1.1957311551990450e+00 -7.6523527321496552e+00 -2.5478583421970207e+00 1 0 1
1642 548 1 -8.1999999999999995e-01 -1.5445785241374281e+00 -9.4767562209464895e+00 -5.2327230611262383e+00 0 1 2
2099 700 2 4.0999999999999998e-01 -1.4057559425151286e+01 -9.3234835865888641e+00 -2.0053441974078154e+00 -1 2 1
2112 704 2 4.0999999999999998e-01 -4.4933251302521260e+00 -1.0397215821887539e+01 -3.7334104911525632e+00 2 3 0
2406 802 2 4.0999999999999998e-01 -2.3975471337682919e+00 -9.6341349023084994e+00 -1.6600226527563660e+00 2 0 2
2167 723 1 -8.1999999999999995e-01 -1.4255170548255435e+01 -1.0540340450247268e+01 -5.0422404164548187e+00 2 1 1
1889 630 2 4.0999999999999998e-01 -2.7830570496149676e+00 -7.5939683954276420e+00 -2.9268492333118523e+00 1 0 1
103 35 1 -8.1999999999999995e-01 -6.1793589880859496e+00 -1.2807418352444339e+01 -3.7012101846099767e+00 1 0 1
2043 681 2 4.0999999999999998e-01 -2.7857048651201097e+00 -1.3620950643458803e+01 -4.3639947587856831e-01 2 3 0
105 35 2 4.0999999999999998e-01 -6.7212091159025640e+00 -1.2961858709200282e+01 -4.5273784577395944e+00 1 0 1
1679 560 2 4.0999999999999998e-01 -4.3690395988577198e+00 -5.9232313086941719e+00 -3.8770605892490764e+00 2 1 1
104 35 2 4.0999999999999998e-01 -5.2896240291049832e+00 -1.2426350001951533e+01 -3.9525386507779121e+00 1 0 1
2402 801 2 4.0999999999999998e-01 -4.7781937066085689e+00 -8.2453831730162150e+00 -2.4898345233563823e+00 1 0 2
1643 548 2 4.0999999999999998e-01 -6.8156772007090360e-01 -9.9521367704474404e+00 -5.0617462909760160e+00 0 1 2
1287 429 2 4.0999999999999998e-01 -2.9293079615021931e+00 -8.8444252584845096e+00 -6.8527680790676531e+00 0 1 1
2405 802 2 4.0999999999999998e-01 -3.0064777048759677e+00 -1.0944234426008773e+01 -2.4212644773902436e+00 2 0 2
2111 704 2 4.0999999999999998e-01 -3.2053404636767837e+00 -1.0769833207503535e+01 -4.6655573052385844e+00 2 3 0
2401 801 1 -8.1999999999999995e-01 -4.5828636650411045e+00 -7.2650066676461673e+00 -2.5165811605698210e+00 1 0 2
2108 703 2 4.0999999999999998e-01 -1.2332584382147935e+01 -1.4834027139939845e+01 -7.1782980929685527e+00 1 0 -1
1610 537 2 4.0999999999999998e-01 -5.0771770483925103e+00 -9.0484522709363375e+00 -6.9208004652842385e+00 1 0 0
1644 548 2 4.0999999999999998e-01 -1.7441356494264788e+00 -8.8631128870445330e+00 -4.4687687589328551e+00 0 1 2
2483 828 2 4.0999999999999998e-01 -6.9323629335371164e+00 -1.0667714447452362e+01 -6.5914327798683097e+00 2 0 2
2110 704 1 -8.1999999999999995e-01 -3.9726783596670767e+00 -1.1144965241126497e+01 -4.1454843043956320e+00 2 3 0
778 260 1 -8.1999999999999995e-01 -4.3643367295504660e+00 -1.3781576793912532e+01 -1.6727594069529665e+00 1 1 2
2403 801 2 4.0999999999999998e-01 -5.0307141374807802e+00 -6.8147156230496506e+00 -1.7441335753678011e+00 1 0 2
2190 730 2 4.0999999999999998e-01 -3.8849821604667270e+00 -6.3109138060091858e+00 -6.3786596975592573e+00 3 1 -1
816 272 2 4.0999999999999998e-01 -1.0634950547608554e+01 -1.4244631626529584e+01 -3.8851121253587433e+00 0 1 -1
2404 802 1 -8.1999999999999995e-01 -2.5541690014879297e+00 -1.0619359639788353e+01 -1.5906739347788239e+00 2 0 2
2584 862 1 -8.1999999999999995e-01 -5.4387044220251433e+00 -9.8847761715578173e+00 -2.2701021322008401e+00 2 1 0
779 260 2 4.0999999999999998e-01 -5.1934440217313682e+00 -1.3426379157308149e+01 -2.1045268465586204e+00 1 1 2
1988 663 2 4.0999999999999998e-01 -1.1414244937456536e+01 -1.4538206001775134e+01 -1.8318601111290747e+00 1 1 1
1831 611 1 -8.1999999999999995e-01 -9.1392713630276159e+00 -5.6897807489305929e+00 -2.4356147775233818e+00 0 -1 0
2057 686 2 4.0999999999999998e-01 -5.9764580716252773e+00 -5.4786379460633334e+00 -1.1971392080640477e+00 1 0 3
674 225 2 4.0999999999999998e-01 -6.2676639679367643e+00 -1.2612334380373602e+01 -7.1402270398632401e+00 3 2 1
1609 537 1 -8.1999999999999995e-01 -6.0594253326181988e+00 -8.9554109430084328e+00 -6.7578924029080909e+00 1 0 0
230 77 2 4.0999999999999998e-01 -3.1815541721483775e-01 -5.8799813108870822e+00 -6.8032658347431614e+00 1 0 0
2188 730 1 -8.1999999999999995e-01 -3.1837223374437560e+00 -6.5897403376258499e+00 -7.0347830475468927e+00 3 1 -1
567 189 2 4.0999999999999998e-01 -4.1059947026394461e-01 -8.4111807705384951e+00 -6.2304738930845041e+00 1 1 1
122 41 2 4.0999999999999998e-01 -1.4863255843211657e+01 -8.0394652717512329e+00 -7.0642110774759459e+00 1 2 1
1250 417 2 4.0999999999999998e-01 -6.0313615566030201e+00 -1.3787440726066240e+01 -8.7927047460093277e-02 1 1 0
81 27 2 4.0999999999999998e-01 -9.2753261776448586e+00 -5.6800728935097453e+00 -8.3444805965379842e-02 -1 -1 0
666 222 2 4.0999999999999998e-01 -4.5826588870572280e+00 -1.4590762056332915e+01 -7.1177045660576042e+00 2 3 1
1987 663 1 -8.1999999999999995e-01 -1.1812610013602843e+01 -1.4823239514788801e+01 -2.7036792390164521e+00 1 1 1
665 222 2 4.0999999999999998e-01 -2.9804927792720424e+00 -1.4363017091176074e+01 -7.3364328281999303e+00 2 3 1
578 193 2 4.0999999999999998e-01 -3.4676649443398588e+00 -1.4512380014794696e+01 6.7327052223898551e+00 1 0 -1
670 224 1 -8.1999999999999995e-01 -9.9245864605614695e+00 -7.0344496892031136e+00 3.1707871586271228e+00 2 3 0
359 120 2 4.0999999999999998e-01 -9.8054590840423721e+00 -1.3751514810360856e+01 5.8441161800934065e+00 0 0 0
931 311 1 -8.1999999999999995e-01 -3.3564685282203186e+00 -5.8317041630927715e+00 2.0959647053318875e-01 2 -2 1
2041 681 1 -8.1999999999999995e-01 -1.9240939857231520e+00 -1.3818066538049827e+01 3.1339094425220537e-02 2 3 0
2421 807 2 4.0999999999999998e-01 -8.2967294235682445e+00 -1.1943044879446308e+01 4.6076707246147155e+00 2 1 1
2460 820 2 4.0999999999999998e-01 -1.1666178228081778e+01 -8.4694934180976418e+00 5.8204402032999365e+00 3 4 0
2458 820 1 -8.1999999999999995e-01 -1.1178964612751619e+01 -8.9345719849141787e+00 5.0812973088196376e+00 3 4 0
541 181 1 -8.1999999999999995e-01 -9.8249135463883555e+00 -1.4258671222162780e+01 2.5967268136505250e+00 1 2 0
1155 385 2 4.0999999999999998e-01 -1.3362213093406112e+01 -1.1610705534566915e+01 5.0868126162935585e+00 -1 2 1
2419 807 1 -8.1999999999999995e-01 -8.7926286643041465e+00 -1.2279814908027710e+01 5.4080938457094856e+00 2 1 1
543 181 2 4.0999999999999998e-01 -9.7872612592210704e+00 -1.3289262165385066e+01 2.3541658268461898e+00 1 2 0
1153 385 1 -8.1999999999999995e-01 -1.2375682224139805e+01 -1.1580708450493017e+01 5.2476368671929645e+00 -1 2 1
2459 820 2 4.0999999999999998e-01 -1.0204510955717145e+01 -8.9800082764076059e+00 5.3012585644706309e+00 3 4 0
2310 770 2 4.0999999999999998e-01 -7.4591710638419713e+00 -1.1206658296214844e+01 2.2344835317108664e+00 2 0 0
2093 698 2 4.0999999999999998e-01 -3.0044287882799470e+00 -6.9460157844148283e+00 6.5694988143447528e+00 5 2 1
542 181 2 4.0999999999999998e-01 -9.0599609499321083e+00 -1.4480956104853862e+01 3.2012467850595403e+00 1 2 0
2060 687 2 4.0999999999999998e-01 -3.4890864899199414e-01 -5.4513723227826958e+00 1.4060503333385395e+00 1 1 0
975 325 2 4.0999999999999998e-01 -1.3020640947790723e+01 -1.3338342235197464e+01 4.2304263927718555e+00 0 3 2
1481 494 2 4.0999999999999998e-01 -1.3942259209723021e+01 -9.6646913495965592e+00 6.7839591005178494e+00 1 0 2
2308 770 1 -8.1999999999999995e-01 -6.6470224262484408e+00 -1.1678499338684126e+01 2.5776861632667245e+00 2 0 0
2309 770 2 4.0999999999999998e-01 -6.4606782562615521e+00 -1.2478755835176830e+01 2.0077100077887007e+00 2 0 0
534 178 2 4.0999999999999998e-01 -1.4689771235162702e+01 -8.5700179225623803e+00 2.3480996981806381e+00 -1 -1 0
1534 512 1 -8.1999999999999995e-01 -1.0672223552862576e+01 -8.1606416986919150e+00 8.4107648094500220e-02 1 1 1
973 325 1 -8.1999999999999995e-01 -1.3461283500980773e+01 -1.4094985609015819e+01 3.7473815162843263e+00 0 3 2
2198 733 2 4.0999999999999998e-01 -1.1839713611847422e+01 -9.5813808807629073e+00 3.3091257702516561e+00 3 2 3
485 162 2 4.0999999999999998e-01 -1.3743475376195327e+01 -6.0248806081617641e+00 6.3661369286254139e+00 1 0 2
2583 861 2 4.0999999999999998e-01 -8.2362903121734217e+00 -1.4778243918951524e+01 5.3445367365112784e+00 1 3 0
2094 698 2 4.0999999999999998e-01 -4.2594981084916128e+00 -7.9531487518730977e+00 6.8472217412013965e+00 5 2 1
1871 624 2 4.0999999999999998e-01 -8.3208231689962204e+00 -7.0674883000110249e+00 6.9647468806399910e+00 1 1 1
484 162 1 -8.1999999999999995e-01 -1.3348870857064783e+01 -6.7241743134741032e+00 5.7700807648798627e+00 1 0 2
1154 385 2 4.0999999999999998e-01 -1.2063011781174984e+01 -1.0631110852347256e+01 5.2250751450846966e+00 -1 2 1
560 187 2 4.0999999999999998e-01 -6.3047610667358196e+00 -9.2040586432637443e+00 7.3357589132417367e-01 2 -1 3
190 64 1 -8.1999999999999995e-01 -1.0099323676377850e+01 -1.1703581625119238e+01 1.5312655191293860e+00 2 0 0
532 178 1 -8.1999999999999995e-01 -1.4530471979771201e+01 -9.0968232336697241e+00 1.5131701638015631e+00 -1 -1 0
1426 476 1 -8.1999999999999995e-01 -8.1303473008477045e+00 -8.4132741345839399e+00 5.8291303529740350e+00 3 0 0
612 204 2 4.0999999999999998e-01 -4.0870207459579433e+00 -1.0371187239965195e+01 5.2435960364322121e-01 1 0 1
2199 733 2 4.0999999999999998e-01 -1.2672582286362474e+01 -9.3160776646761967e+00 1.9297816535966401e+00 3 2 3
672 224 2 4.0999999999999998e-01 -1.0226984069075773e+01 -6.1473854684419162e+00 3.5196138012826648e+00 2 3 0
932 311 2 4.0999999999999998e-01 -4.3395240217642748e+00 -5.9939588102369061e+00 1.2425761649785549e-01 2 -2 1
1924 642 1 -8.1999999999999995e-01 -1.4822424360684655e+01 -7.3029654201041598e+00 3.4024776337565559e+00 -1 2 0
486 162 2 4.0999999999999998e-01 -1.3303300535453539e+01 -7.5939355782199591e+00 6.2614524535147478e+00 1 0 2
1427 476 2 4.0999999999999998e-01 -8.3834523051932344e+00 -8.9298331539505700e+00 6.6471230637570695e+00 3 0 0
611 204 2 4.0999999999999998e-01 -5.2550897305540385e+00 -1.1510184186069104e+01 4.5402377271396510e-01 1 0 1
2197 733 1 -8.1999999999999995e-01 -1.1761083428299971e+01 -9.3484209866592565e+00 2.3398196403683524e+00 3 2 3
2399 800 2 4.0999999999999998e-01 -1.2013835174803390e+01 -5.8014469395914841e+00 4.8596220753507655e+00 3 1 -1
1480 494 1 -8.1999999999999995e-01 -1.3127739568774500e+01 -9.1762469291319029e+00 7.0969881415746290e+00 1 0 2
191 64 2 4.0999999999999998e-01 -1.0775586254655742e+01 -1.0992389148845563e+01 1.7233113040564358e+00 2 0 0
2420 807 2 4.0999999999999998e-01 -8.8902267741625192e+00 -1.1540998426632097e+01 6.0749012960273046e+00 2 1 1
1625 542 2 4.0999999999999998e-01 -1.2076030472739674e+01 -1.1989081303953881e+01 6.8352565182747878e+00 1 1 -1
1536 512 2 4.0999999999999998e-01 -1.1012391872287937e+01 -8.4380129048019263e+00 9.8263876805593675e-01 1 1 1
1560 520 2 4.0999999999999998e-01 -1.0347422396717874e+01 -1.4017362313053599e+01 5.9299000638884181e-01 0 4 0
192 64 2 4.0999999999999998e-01 -9.7185007575619391e+00 -1.1563335954842403e+01 6.1731121307039594e-01 2 0 0