2593
Atoms. Timestep: 18495000
O -13.5641 -8.06379 0.529803
H -14.5185 -8.33397 0.402798
H -13.5225 -7.24819 1.10697
O -6.5466 -10.9219 6.29973
H -6.12129 -10.0774 5.97408
H -5.92669 -11.6903 6.14041
O 13.1873 -6.54594 5.70851
H 13.6643 -5.91787 6.32336
H 12.218 -6.30307 5.67032
O -6.7007 -10.626 11.3148
H -6.21156 -9.77512 11.5066
H -6.65849 -11.2227 12.1162
O -2.2046 4.18093 9.63835
H -2.24832 3.30843 10.1251
H -3.06849 4.33955 9.16023
O -6.23456 9.78961 -3.01521
H -7.10315 10.1478 -2.67267
H -5.9296 9.03848 -2.42966
O 1.55346 -4.31629 6.51778
H 2.33101 -3.71277 6.69454
H 0.839561 -4.14792 7.19754
O 0.61164 -9.24864 6.77533
H 0.522907 -10.1147 6.28321
H 0.280478 -8.50196 6.1984
O -1.08365 10.85 5.45761
H -0.698903 11.7724 5.42357
H -0.589811 10.3077 6.13743
O 11.151 1.15096 -10.304
H 11.9974 1.68208 -10.3429
H 10.9761 0.73665 -11.1972
O -13.923 7.55991 2.80309
H -13.182 8.22419 2.70432
H -14.7781 7.96367 2.47793
O 14.4503 -12.5313 -7.75505
H 13.5776 -12.6293 -8.23344
H 14.6092 -13.3362 -7.18322
O -1.31374 -13.39 -4.30655
H -1.07871 -12.869 -5.12717
H -1.33676 -12.7763 -3.51733
O 7.38557 13.1891 -2.11784
H 6.94632 13.869 -1.53066
H 6.68642 12.6858 -2.6257
O 2.12107 1.64242 -12.7431
H 2.32513 2.61512 -12.6323
H 2.3915 1.14883 -11.9164
O -11.692 6.82025 -0.451296
H -11.1013 7.11487 -1.20247
H -12.4855 7.42618 -0.393919
O -11.3201 13.8953 14.4049
H -11.2326 13.7973 -14.3965
H -11.7237 14.7853 14.1923
O 1.88932 14.2418 -10.7878
H 1.86961 13.3009 -11.1259
H 1.83543 14.8747 -11.5601
O 8.30866 12.3871 7.25677
H 9.08479 12.8923 7.63418
H 7.46002 12.8706 7.47157
O 4.9772 10.0956 13.527
H 4.49127 9.27859 13.8374
H 4.95791 10.1355 12.528
O 11.5062 3.20763 8.49745
H 11.0175 3.55234 9.29895
H 12.0601 3.94129 8.10376
O -12.9155 4.54692 9.50595
H -13.7111 4.81095 10.0514
H -13.1613 3.78692 8.90423
O 9.4461 -12.9662 -5.45017
H 8.55983 -12.9439 -5.91285
H 9.68462 -13.9126 -5.23211
O -0.444605 -5.059 2.32565
H -0.204674 -4.12721 2.59814
H 0.383883 -5.61738 2.28227
O 3.63048 -8.80446 5.27972
H 2.67658 -8.51339 5.35331
H 4.22667 -8.00196 5.30397
O -4.76417 -9.06477 -10.2464
H -4.04672 -8.64993 -10.8061
H -5.06665 -9.91811 -10.6711
O -0.225597 7.51274 12.4972
H -0.0180252 7.57923 11.5213
H -1.00643 6.90246 12.6311
O 14.4431 -2.40464 8.49084
H 14.311 -3.32589 8.12488
H 14.4564 -1.74588 7.73857
O -1.42108 -10.391 0.479126
H -0.951906 -11.1209 0.976324
H -0.977834 -9.51617 0.674688
O 8.76211 9.1844 3.7104
H 8.74304 9.15926 4.70993
H 7.84094 9.36151 3.36379
O 12.4981 -7.82079 14.3639
H 12.5337 -6.89436 13.9891
H 12.5011 -7.77648 -14.4298
O -1.17422 14.3779 13.2743
H -0.44397 -14.7321 13.2476
H -1.12337 13.8033 12.4574
O 0.638423 -12.7603 1.5014
H 1.40691 -12.2208 1.84555
H 0.974244 -13.4415 0.850904
O -12.8785 -10.215 5.33765
H -13.1472 -11.1471 5.09449
H -12.268 -10.24 6.12929
O -7.44038 6.01626 13.4828
H -7.83275 6.92947 13.593
H -6.73766 6.03899 12.7717
O -1.4335 13.584 -13.9232
H -1.40869 13.8225 -14.894
H -2.35666 13.7301 -13.5675
O -9.20524 -13.8818 -3.88542
H -9.86351 -14.1798 -3.1941
H -8.30169 -14.2499 -3.66589
O 13.5517 7.02428 -4.90753
H 14.468 7.30151 -4.61852
H 13.5273 6.03231 -5.03188
O -6.90537 8.46683 7.09162
H -7.55643 9.22034 7.1833
H -6.02046 8.74345 7.46642
O 7.5281 11.1618 14.5188
H 6.66126 10.67 14.4362
H 7.3625 12.1448 14.4394
O -12.1917 -14.7721 -4.99966
H -12.2401 14.1382 -5.46771
H -11.9328 -14.0615 -5.65394
O 0.487117 -11.3144 -10.4004
H -0.421127 -11.7166 -10.516
H 0.479767 -10.6946 -9.61557
O 13.1947 6.0883 -14.888
H 13.6247 6.74842 -14.272
H 12.2245 6.30886 14.8044
O 9.58433 7.84362 9.95375
H 9.3487 7.85198 10.9256
H 8.94242 7.25678 9.46017
O 8.77018 -8.04294 -2.72135
H 9.21069 -7.15565 -2.58445
H 7.78544 -7.95271 -2.57232
O -10.3025 -7.50059 -0.0168792
H -10.9005 -8.28797 -0.167133
H -9.59268 -7.48195 -0.72101
O -5.9038 -10.2485 -1.62727
H -5.33385 -10.1458 -0.812005
H -6.40542 -11.1121 -1.57663
O 12.1179 -3.6336 -1.27274
H 12.2785 -2.70658 -1.61169
H 12.2869 -3.66223 -0.287512
O -12.3694 0.864595 1.24953
H -13.3498 0.882008 1.05331
H -11.9906 1.78332 1.13745
O 2.52289 0.986629 -5.261
H 2.2684 0.858157 -4.30246
H 2.72115 1.95271 -5.42663
O -12.8091 -12.3699 8.02012
H -12.9716 -13.1517 8.62211
H -11.8392 -12.1272 8.04344
O 12.6845 -13.6449 -13.437
H 13.54 -13.4111 -13.8991
H 12.7113 -14.6026 -13.1503
O -10.8272 12.6028 -1.41967
H -10.7241 13.4184 -1.989
H -10.5358 12.8093 -0.485576
O -13.7294 -7.44255 12.3412
H -13.7797 -7.53769 13.3355
H -13.6036 -8.34361 11.9261
O 8.03978 5.09525 10.0522
H 7.62425 4.23951 10.3605
H 8.98507 5.14214 10.3751
O -12.9185 -10.1785 2.5317
H -12.9091 -9.87064 3.48312
H -12.9269 -9.38404 1.92437
O 6.59871 -7.16367 -11.0027
H 5.88797 -6.90715 -11.6578
H 6.24199 -7.07624 -10.0726
O -5.34267 5.4342 -10.7906
H -5.86568 4.58269 -10.7524
H -5.7983 6.07799 -11.4054
O 5.45474 -9.21059 3.03455
H 4.45629 -9.19113 3.08717
H 5.83589 -9.27727 3.95668
O 12.482 -11.6477 7.71491
H 12.8512 -11.6679 6.78575
H 12.9518 -10.9418 8.24502
O -0.966175 6.95031 -11.1682
H -0.90589 7.57098 -11.95
H -1.85675 7.05683 -10.7259
O -4.45481 -12.5718 7.84011
H -3.94634 -13.2759 8.33597
H -5.34651 -12.9338 7.56829
O -4.81434 -6.35125 10.3166
H -5.56803 -5.75236 10.0458
H -4.06703 -5.79973 10.6873
O 11.7881 -8.82304 -3.71619
H 11.0352 -8.43424 -4.24717
H 11.7245 -9.82096 -3.72895
O -0.834622 -10.6827 12.0667
H -1.10126 -9.94965 11.441
H -0.861971 -10.3444 13.0074
O -0.568389 4.65333 13.6537
H -0.748529 3.69345 13.4387
H 0.418699 4.81347 13.6621
O 7.02285 -14.4111 -0.264429
H 6.58983 -14.1139 0.586578
H 7.47446 -13.6316 -0.698572
O -1.70328 -0.182011 12.7383
H -1.28279 -0.674033 11.976
H -2.50428 -0.687126 13.0598
O -12.6126 3.44803 -5.72796
H -13.2724 2.83828 -6.16721
H -13.0232 3.84914 -4.90909
O 5.07416 1.57511 5.46715
H 5.35681 2.06921 4.64494
H 4.11441 1.30743 5.38176
O 3.9518 -2.34064 -3.08076
H 4.73216 -2.60223 -2.51272
H 3.16398 -2.14694 -2.49607
O 10.1068 -2.06833 10.2339
H 10.9054 -1.50333 10.0263
H 9.36756 -1.48789 10.5754
O 14.0265 -7.41313 -3.05065
H 14.5372 -7.2462 -3.89405
H 13.2019 -7.93914 -3.25891
O -10.9015 1.57569 -7.04319
H -10.2739 1.18454 -6.37002
H -11.1105 2.52136 -6.79403
O -8.21901 12.5281 -6.53062
H -7.42847 11.9508 -6.32622
H -8.90947 11.9892 -7.0132
O 14.2798 3.65877 -13.8424
H 13.882 4.48951 -14.2319
H 13.9754 3.55574 -12.8954
O 4.72247 -2.13535 -10.239
H 4.6998 -2.07028 -9.24132
H 4.46475 -3.06024 -10.5186
O -12.1789 8.4935 -5.16776
H -12.2401 8.92374 -6.06843
H -11.2422 8.56797 -4.82571
O -9.34043 1.31741 -12.9682
H -9.91038 2.13457 -12.8819
H -8.37577 1.58033 -12.9494
O -5.95187 8.94954 -11.9486
H -5.81639 8.03568 -12.3314
H -6.09251 9.6045 -12.6911
O -3.16286 0.719708 -6.99697
H -3.67236 1.38765 -6.45446
H -2.33992 0.444613 -6.49982
O -10.1158 -8.29254 12.6383
H -10.2396 -9.2216 12.2896
H -9.23837 -7.93193 12.3219
O 12.6563 -0.858908 -1.58681
H 13.3041 -0.893739 -0.825748
H 12.8944 -0.0997604 -2.19268
O -9.23122 7.14879 -3.83705
H -9.04501 7.69396 -3.01963
H -8.97375 7.66974 -4.65092
O -9.9065 10.9957 11.3591
H -9.31257 10.8213 10.5736
H -10.3363 10.1403 11.6483
O -5.48334 -14.5908 0.812074
H -5.8082 -14.3112 1.71561
H -4.61321 -14.1385 0.616084
O -5.57063 1.14109 -5.06476
H -6.15084 0.32836 -5.01111
H -5.90045 1.73844 -5.79583
O 6.40818 7.71377 -4.83369
H 6.54222 6.87425 -4.3071
H 7.08298 8.39566 -4.55136
O 3.49924 -7.81836 -11.8209
H 2.60193 -8.20089 -11.6005
H 3.59941 -7.75398 -12.8138
O -1.07581 3.9996 -13.1697
H -0.870262 4.28039 -14.1072
H -1.32276 3.03061 -13.1585
O 10.0014 -12.2118 5.68678
H 9.98815 -13.1949 5.50431
H 9.94399 -12.055 6.67276
O 3.97739 -3.88125 -0.146433
H 3.2889 -3.15654 -0.175251
H 4.46025 -3.84768 0.728651
O -0.768668 -11.5272 -2.26341
H -1.16046 -10.9699 -1.53126
H 0.139456 -11.8451 -1.99079
O -14.2869 -10.5326 13.1592
H -14.8597 -11.0347 12.5112
H -13.4754 -10.1866 12.6882
O 12.6814 13.4051 -13.1408
H 11.7145 13.5944 -13.3118
H 12.7822 12.9659 -12.248
O 12.5839 -3.74435 1.45507
H 12.3883 -4.66914 1.78154
H 12.6061 -3.11451 2.23151
O 0.198513 13.2402 5.00749
H 0.0684115 13.2282 4.01603
H 1.09375 13.6312 5.22148
O 10.5722 -9.75155 11.7797
H 11.3551 -9.79386 12.4005
H 10.7786 -9.12884 11.0249
O -12.9042 -11.6683 -11.7515
H -13.4102 -11.4005 -10.9315
H -12.2635 -12.4015 -11.5232
O 8.80786 4.18669 0.659029
H 9.12671 3.44026 0.0748703
H 8.93042 3.9344 1.61892
O 6.71866 -0.357177 -0.449509
H 7.24043 -0.182673 -1.28459
H 7.14132 0.129058 0.31534
O -9.80794 10.6359 -7.88494
H -10.7552 10.3807 -8.07911
H -9.33332 10.8331 -8.74279
O 5.42683 6.94807 -10.2334
H 5.21582 6.35494 -11.0104
H 6.41735 6.98361 -10.1005
O 8.88951 1.76233 7.31658
H 8.10692 2.16259 7.79345
H 9.73722 2.11812 7.71012
O -4.16632 1.57021 7.95116
H -4.63335 1.30611 8.79508
H -4.84375 1.82429 7.26081
O 5.49609 8.38534 4.86998
H 4.78417 9.08438 4.93757
H 6.18106 8.67089 4.19965
O -4.4794 4.89749 1.6498
H -4.02847 4.00513 1.62955
H -5.42727 4.79892 1.34665
O -13.1909 5.88854 -8.08619
H -12.1925 5.85049 -8.12889
H -13.499 5.5612 -7.19291
O -2.66793 -4.75426 11.1265
H -2.58271 -4.78076 12.1226
H -2.92844 -3.83267 10.8387
O 4.92404 5.80065 -3.01378
H 5.2756 5.02564 -2.48859
H 5.00057 5.60316 -3.99113
O 1.59855 14.637 -0.330596
H 1.41327 14.1401 -1.17845
H 2.53458 14.4499 -0.0323908
O 11.0701 -4.28981 8.51607
H 10.5558 -3.72233 9.15912
H 11.6689 -4.9095 9.02349
O 14.7671 -5.22593 -11.136
H 13.9962 -5.83617 -10.9531
H -14.2139 -5.56175 -10.6581
O -8.17869 6.05537 7.59728
H -7.81699 6.98752 7.57915
H -7.65034 5.50534 8.24409
O 8.96666 6.09688 -13.0596
H 8.04577 5.95795 -13.4239
H 9.62304 6.12266 -13.8137
O 4.35254 -10.5025 -10.9416
H 4.17809 -9.64059 -11.4177
H 3.984 -11.2609 -11.4793
O 11.4936 -11.6182 -11.9673
H 11.0172 -11.0889 -12.6694
H 12.2218 -12.156 -12.3921
O -11.8336 -1.62912 -0.236296
H -11.0537 -2.10293 0.172742
H -12.1346 -0.895313 0.372768
O 6.92032 -6.90292 11.2017
H 6.49709 -7.44119 10.4729
H 6.81845 -5.92898 10.999
O -10.1551 5.80505 9.53416
H -9.76553 5.78421 8.61336
H -10.1381 4.88437 9.92419
O -10.3126 -13.9501 9.88505
H -10.1185 -13.7604 10.8476
H -11.2536 -14.2757 9.79262
O 13.9485 7.76843 -1.67488
H 14.5929 8.09989 -2.36407
H 13.9982 6.7709 -1.62456
O 1.94054 4.05517 -11.3363
H 1.00399 4.40565 -11.3269
H 2.32111 4.09633 -10.4124
O -13.8671 -2.04682 -4.70679
H -13.5465 -2.65684 -3.98215
H -14.4793 -2.54839 -5.31811
O -2.93868 2.79209 3.97421
H -3.82845 3.22975 4.10387
H -2.54173 2.57338 4.86565
O -8.05773 -9.68308 1.76508
H -8.32168 -8.72628 1.88727
H -8.7866 -10.1712 1.28494
O 2.54919 -5.99085 -8.47373
H 1.89565 -6.72807 -8.30217
H 2.37367 -5.23601 -7.84169
O 13.5341 -12.3679 -4.41006
H 12.5566 -12.199 -4.28396
H 13.7555 -13.2924 -4.09966
O -4.96448 13.0644 -8.49262
H -5.18923 13.5642 -7.65608
H -4.18807 13.5035 -8.94479
O -8.28367 -1.42798 8.4554
H -8.14334 -0.747595 7.73606
H -8.08047 -1.01914 9.34513
O -0.235311 -5.90439 -14.5965
H 0.652234 -5.5037 -14.824
H -0.734223 -6.10936 14.3542
O -11.8045 -10.4845 -8.15073
H -12.105 -10.1354 -7.26306
H -10.8077 -10.431 -8.20985
O -9.06528 -12.7844 3.39706
H -8.97604 -11.8367 3.09058
H -9.83571 -13.2155 2.92733
O -4.70934 -4.68089 -12.0232
H -4.553 -3.83436 -12.5322
H -5.42651 -5.21288 -12.4735
O -6.2293 6.9102 4.9452
H -6.65942 7.19226 5.80282
H -5.93253 7.72001 4.43904
O -10.179 -12.3875 -1.36296
H -9.97384 -11.8236 -2.16298
H -10.4325 -13.3081 -1.66014
O -3.8348 11.23 -2.13809
H -3.14461 11.2767 -2.86025
H -4.74446 11.1731 -2.54959
O -7.88784 -7.42826 11.4599
H -7.26863 -7.45068 12.2449
H -7.52107 -6.81133 10.7636
O -2.21921 -13.5729 2.19663
H -2.51189 -13.2522 1.29579
H -1.22287 -13.5179 2.26255
O 8.19766 13.274 1.38227
H 8.39564 13.7734 2.22575
H 7.82439 13.9043 0.701502
O -3.85626 -1.78097 10.3257
H -4.70851 -2.28976 10.2038
H -3.80461 -1.43702 11.2633
O -6.15966 9.91953 10.7036
H -7.02936 9.8307 10.2181
H -5.41298 9.62669 10.1063
O -3.66041 -14.2424 -2.94971
H -4.32382 -14.463 -3.66477
H -2.75005 -14.1567 -3.35461
O 13.7037 -11.2832 5.16843
H 14.4032 -11.9857 5.03714
H 13.5264 -10.8227 4.29864
O 9.06234 -14.6261 3.24186
H 9.79626 -14.0667 2.85654
H 9.36588 14.769 4.10776
O -13.0966 11.4767 -1.70328
H -13.7849 12.0219 -1.2247
H -12.229 11.9738 -1.7184
O 4.54754 4.87827 -12.1859
H 3.60348 4.56134 -12.0944
H 5.15767 4.08986 -12.2647
O 0.278695 7.4388 9.38821
H -0.105346 6.61807 8.96515
H 1.22346 7.5599 9.08356
O 11.9943 -6.45535 1.88956
H 11.0717 -6.80806 2.04632
H 12.2266 -6.54838 0.921361
O 11.7094 8.31932 -11.7188
H 10.7592 8.15371 -11.4548
H 12.1788 8.80964 -10.9845
O 7.08789 2.49502 9.09122
H 6.57593 2.13887 9.87295
H 6.60976 3.28763 8.7128
O -8.05135 11.1234 8.75889
H -8.48865 11.011 7.8666
H -7.98611 12.097 8.97786
O 9.43754 2.25014 -1.20509
H 8.73822 2.42491 -1.89824
H 10.1841 1.72246 -1.61043
O -0.270058 -1.39924 10.8178
H -0.792293 -1.0905 10.0228
H 0.662426 -1.04209 10.7632
O -10.8566 6.31711 2.11287
H -10.8536 6.42379 1.11855
H -9.95707 6.55899 2.47675
O -9.78099 9.32939 3.25736
H -10.4649 8.86877 2.69153
H -8.87891 8.9385 3.07432
O -0.285551 -3.9552 -8.25543
H 0.00295508 -3.12145 -8.72626
H 0.326606 -4.1315 -7.48456
O -1.98262 3.90553 -6.3835
H -2.34606 4.13409 -5.48032
H -1.86951 4.74257 -6.91887
O 12.501 3.13337 0.476063
H 12.7696 3.72452 1.23662
H 11.8759 2.42677 0.807767
O -13.6362 6.65298 5.32895
H -13.6205 6.70878 4.3306
H -13.7757 5.70271 5.60752
O -12.5031 -1.28408 9.20822
H -11.6911 -1.81463 8.96492
H -13.1116 -1.22435 8.41692
O 4.52997 -12.7354 13.4305
H 5.07417 -12.0535 12.9416
H 5.08521 -13.5511 13.5926
O -6.82136 5.0905 10.0564
H -7.26695 4.53442 10.7581
H -6.45093 5.92016 10.4742
O 7.08542 -0.819746 -4.70821
H 7.53811 -1.6158 -4.30641
H 6.14689 -1.05992 -4.95625
O 7.8401 2.61076 12.4124
H 7.96525 3.56977 12.6668
H 7.81851 2.04699 13.2381
O -8.05776 -6.76234 -6.23114
H -8.60814 -5.97515 -6.5095
H -8.59218 -7.34185 -5.61582
O -4.81182 9.27731 -7.19582
H -4.69124 9.36 -8.1851
H -4.39593 8.42466 -6.87945
O -8.56906 -6.82686 -2.27998
H -8.76305 -7.24013 -3.16972
H -7.67519 -7.13704 -1.95616
O -2.04242 -2.92731 -11.4057
H -1.05985 -3.04977 -11.2657
H -2.50135 -3.81344 -11.3408
O 11.3724 -10.6173 0.731286
H 10.9397 -9.93683 0.139792
H 11.2782 -11.5241 0.320497
O -3.4974 10.4545 6.76918
H -3.12221 10.3197 5.85204
H -4.10325 11.2501 6.76791
O -11.0289 3.63257 -10.7065
H -10.8132 4.30172 -9.99536
H -10.8828 2.70939 -10.351
O 6.08621 -10.9874 10.0893
H 6.02514 -9.98962 10.0621
H 6.49228 -11.273 10.9574
O 7.91008 13.9787 14.4192
H 6.98279 14.2531 14.6739
H 8.19869 14.4905 13.6099
O -12.6274 -0.367369 -2.86272
H -12.4508 -1.02462 -2.12999
H -13.1884 -0.798675 -3.5693
O 12.7439 -14.6287 0.184362
H 11.9053 14.6195 0.16931
H 12.9768 -14.4013 1.12995
O -8.03081 -2.14819 4.84388
H -7.34445 -2.39959 4.16141
H -8.09729 -2.87106 5.53171
O 7.98148 -14.8571 11.6627
H 8.39476 -14.1731 11.0616
H 7.00049 14.8781 11.4772
O 12.6378 -2.93617 5.14979
H 13.6342 -2.89946 5.22616
H 12.2262 -2.46007 5.92694
O -4.61311 -13.3931 -11.2996
H -5.06617 -13.5116 -10.416
H -4.84602 -12.4964 -11.676
O -5.51301 -10.8837 14.3424
H -4.77449 -11.5231 14.5566
H -5.35804 -10.0217 14.8251
O -12.7713 -6.8183 7.2937
H -12.3938 -7.74253 7.35143
H -13.0927 -6.53253 8.19653
O 10.3125 10.4256 -7.70445
H 9.96013 11.0687 -7.02456
H 11.0204 9.85501 -7.28807
O 2.87003 4.92297 6.24325
H 3.73178 5.08555 5.76261
H 2.12354 5.36867 5.74913
O -9.94094 13.7271 6.4544
H -10.5954 13.1952 6.99183
H -9.07242 13.234 6.40373
O -8.00106 -11.9876 14.7052
H -8.27019 -11.8067 -14.1416
H -7.1291 -11.5365 14.5146
O 5.28476 3.08877 11.6957
H 6.26252 2.87941 11.6818
H 4.96864 3.14159 12.643
O -6.63368 -1.50735 -14.2653
H -6.57492 -1.31843 -13.285
H -7.37599 -0.969183 -14.6645
O 2.65536 -10.1555 -1.49607
H 2.37474 -9.9891 -2.44138
H 2.26013 -11.0172 -1.17781
O -4.32831 12.1548 13.6665
H -5.04496 11.4633 13.7575
H -4.20209 12.3789 12.7
O -2.53832 13.5029 -10.2861
H -2.63634 13.7077 -11.26
H -1.68332 13.007 -10.1342
O -10.4059 0.126624 10.704
H -10.892 0.397814 11.5348
H -11.0567 -0.251011 10.0453
O -11.061 8.68848 12.436
H -11.3761 8.3727 11.541
H -11.3077 8.01504 13.1329
O 2.34769 -4.57984 14.6541
H 3.07721 -4.74944 13.9914
H 2.41008 -3.63813 -14.808
O 14.8934 14.026 3.97298
H -14.0956 14.2615 4.5194
H 14.1861 13.6441 4.56793
O 2.46824 -5.62826 -1.69634
H 3.07628 -5.08453 -1.11782
H 1.80344 -5.02664 -2.13923
O 7.00533 -4.53778 -3.19387
H 6.67864 -4.21808 -2.30442
H 7.75691 -3.95458 -3.5022
O -13.4159 -6.55368 -1.6632
H -13.5114 -6.84279 -0.710661
H -14.2188 -6.84638 -2.18255
O 2.27341 0.432018 2.29908
H 1.38238 0.769582 2.60267
H 2.73474 1.14147 1.76625
O 5.36797 -3.39155 2.0424
H 5.9717 -4.18861 2.02568
H 5.25897 -3.07569 2.98496
O -0.118719 1.49375 3.31044
H -0.102158 1.24756 4.27955
H -1.01599 1.86855 3.07703
O 8.09163 -0.537332 11.3368
H 8.76656 0.14418 11.6197
H 7.19157 -0.106826 11.2688
O -5.43752 -13.0257 11.8325
H -4.93323 -12.6933 12.6296
H -6.00672 -13.8036 12.0988
O -12.2613 9.36304 1.82851
H -12.3255 10.357 1.91785
H -12.7732 9.06714 1.02196
O 9.89462 -7.60778 -5.29649
H 9.63969 -8.27879 -5.99278
H 9.17867 -7.56195 -4.5998
O 12.1912 -12.693 -9.43443
H 11.4444 -12.3243 -8.88089
H 12.1425 -12.3106 -10.3572
O 1.14907 4.30451 -6.76173
H 1.2029 5.29522 -6.88687
H 1.09538 4.09428 -5.78552
O 3.52419 10.4993 -0.396753
H 4.29918 11.0964 -0.603858
H 3.50272 10.3094 0.584842
O 10.955 -1.863 7.19131
H 11.4175 -1.08468 7.61598
H 11.1994 -2.7019 7.67768
O -1.2257 11.3823 -3.82301
H -0.544635 11.2468 -3.10339
H -0.950373 12.1495 -4.40236
O -2.86087 -5.11481 13.8807
H -3.54584 -5.83502 13.7704
H -3.20986 -4.41568 14.5048
O 13.4543 7.57043 9.51618
H 14.2396 8.14679 9.74243
H 12.8387 7.5221 10.3028
O 4.16607 -7.82008 -14.6752
H 3.34915 -7.82472 14.5408
H 4.95523 -8.11751 14.5801
O 7.73862 9.32596 -8.58819
H 8.56693 9.71554 -8.18546
H 7.73584 8.33528 -8.45181
O 4.02557 12.4081 -2.88519
H 3.15685 12.6619 -2.45977
H 3.94365 12.4805 -3.87922
O -11.399 11.4773 7.36226
H -12.1526 11.2908 6.73195
H -11.7666 11.79 8.23814
O 2.01584 5.65467 13.1063
H 2.65436 5.5029 12.3517
H 1.2718 6.24803 12.7991
O 9.07917 -10.3276 -1.2566
H 9.33235 -9.54482 -1.82517
H 8.12423 -10.5695 -1.42868
O -10.4269 5.74471 -8.27745
H -9.57085 6.2455 -8.40565
H -10.3612 5.17678 -7.45697
O 7.01295 -9.71904 -10.2351
H 7.15758 -8.7997 -10.601
H 6.03833 -9.94081 -10.2665
O -5.44307 -10.3314 3.00155
H -6.34715 -10.3183 2.57432
H -5.42824 -9.69146 3.7699
O -5.74825 -7.30446 -2.01393
H -5.46689 -7.14407 -1.06779
H -5.27549 -8.11045 -2.37019
O -6.48737 10.4091 -5.51098
H -5.79531 10.1113 -6.16859
H -6.23053 10.1018 -4.59465
O -5.27586 -9.9629 8.97011
H -5.86302 -10.2134 9.73988
H -5.31263 -10.6812 8.2753
O -7.04093 -5.60685 -13.6069
H -6.96696 -6.46445 -13.0979
H -7.85329 -5.10846 -13.304
O 11.8122 8.45295 -6.71334
H 11.8742 7.62871 -7.27625
H 12.2819 8.29892 -5.84397
O -9.31193 -13.5896 12.9355
H -8.88669 -14.478 12.7624
H -8.9447 -13.2036 13.7818
O -3.86996 -7.68809 14.0582
H -4.30781 -8.14487 14.8326
H -4.12796 -8.14984 13.2095
O -1.37178 5.86546 -8.1572
H -0.678022 6.55305 -7.94275
H -2.17855 6.31449 -8.54133
O 9.3056 -7.57487 2.20693
H 9.41601 -7.98666 3.11153
H 8.33393 -7.53966 1.97308
O 1.46323 -13.5801 -8.81333
H 1.28392 -12.7776 -9.38241
H 1.64915 -14.3692 -9.3989
O -9.40516 -10.4003 11.1123
H -9.67895 -11.3348 10.8846
H -8.40786 -10.3487 11.1652
O -0.899124 -10.7867 14.8295
H -0.123827 -11.2325 -14.5158
H -1.55273 -11.48 14.5261
O 6.15694 9.38061 7.9993
H 5.62706 9.91889 7.34391
H 5.75495 9.47465 8.91014
O -6.04912 2.69154 -10.4917
H -5.16402 2.4219 -10.1123
H -6.77381 2.15178 -10.0633
O -6.17644 6.48275 -13.1934
H -6.87901 6.4101 -13.9013
H -5.27537 6.33661 -13.6018
O 6.03297 8.73025 -13.09
H 6.90966 9.20954 -13.1318
H 5.36321 9.3013 -12.6152
O -3.2509 7.04858 2.87965
H -3.52139 6.29318 2.28277
H -4.04541 7.62622 3.06712
O -7.1964 3.15522 -12.8085
H -6.62921 2.85849 -12.0402
H -7.91529 3.76566 -12.4759
O 3.21193 -12.6036 -6.353
H 3.55224 -11.673 -6.48829
H 2.61574 -12.8546 -7.11563
O -13.5725 -14.3125 -0.891017
H -14.2822 14.8212 -0.641716
H -13.4836 -13.6285 -0.166964
O -14.1186 13.7117 7.77524
H -13.4256 13.0661 7.45432
H -14.8601 13.7646 7.10629
O -1.8119 -2.01295 1.71234
H -2.67214 -1.96956 2.22044
H -1.08837 -2.35725 2.31069
O -13.6467 -5.99004 2.35368
H -12.8561 -6.22298 2.92012
H -14.4023 -6.61004 2.5649
O 0.0966268 -7.59813 9.17551
H 0.335442 -8.0636 8.32324
H 0.837257 -6.97864 9.43582
O 7.54275 6.7943 -7.28599
H 6.94869 6.92187 -6.49172
H 8.45437 6.52 -6.97977
O -9.09927 -10.6959 -7.73589
H -8.36712 -11.1714 -7.24817
H -8.89231 -9.71834 -7.77688
O 9.41438 -9.94355 -6.79541
H 10.3319 -10.2191 -6.50866
H 9.10729 -10.5335 -7.54222
O 6.12969 4.26043 -1.34222
H 6.41574 3.30801 -1.44774
H 6.76434 4.85564 -1.83518
O -8.0044 -1.15894 11.4986
H -8.85926 -0.643749 11.4366
H -7.37433 -0.686348 12.1148
O 12.1413 7.13872 12.0585
H 12.6765 6.789 12.8274
H 11.7157 8.00632 12.3158
O -13.3748 1.01056 4.69314
H -13.5918 1.69567 3.99772
H -12.3988 1.05058 4.90744
O 8.94078 8.95879 6.60847
H 8.00543 8.97087 6.96206
H 9.54012 9.4582 7.23412
O -2.97457 -8.31837 6.47907
H -2.80373 -8.78894 7.34476
H -2.50359 -8.79942 5.73959
O -10.0515 -5.10335 10.0284
H -10.6026 -5.05489 10.8614
H -10.3273 -4.37303 9.40334
O -0.206494 4.99352 8.02187
H -0.772841 4.98179 7.19775
H -0.751939 4.69585 8.80542
O 11.2002 0.137836 -13.0008
H 10.4786 -0.55345 -13.0392
H 10.8494 1.00582 -13.3522
O 3.20473 6.81176 1.51933
H 3.07179 7.11181 0.574681
H 2.61728 7.34824 2.12526
O -1.36575 -5.72835 -0.122293
H -1.19543 -5.33607 0.781677
H -1.59408 -4.99726 -0.765278
O 2.89588 -11.8495 2.60636
H 2.95561 -12.4245 3.42235
H 2.79354 -10.8929 2.87944
O -4.97583 -0.778754 -8.71228
H -4.4032 0.0194701 -8.52521
H -5.0451 -1.33996 -7.88747
O 1.28499 -7.16008 4.98874
H 1.5294 -7.02165 4.02897
H 0.905616 -6.31324 5.36157
O 3.2408 10.9297 -5.55092
H 3.43899 9.98492 -5.28994
H 3.58091 11.0983 -6.4761
O 4.463 -10.0515 -6.04814
H 4.27722 -9.67557 -6.95599
H 5.36046 -9.74011 -5.73566
O 2.56012 -6.55275 2.44073
H 2.55979 -7.11396 1.61302
H 3.43605 -6.07688 2.52044
O -13.742 5.08471 -2.35258
H -14.6326 5.14757 -1.90226
H -13.4299 4.13466 -2.34292
O -1.48665 4.13048 -10.4798
H -1.4584 5.01867 -10.0212
H -1.31471 4.25441 -11.4571
O 7.60422 -3.60292 -13.6826
H 6.9792 -2.87677 -13.3961
H 7.91313 -4.11291 -12.8798
O 1.75536 2.38948 11.5698
H 1.89339 2.53665 12.5493
H 2.50709 2.80858 11.0606
O -10.1553 -4.58034 -1.96523
H -9.52718 -5.35073 -2.07462
H -10.5204 -4.57751 -1.03422
O -2.32661 -8.4489 2.39183
H -1.52301 -8.27243 1.82338
H -2.07199 -9.04547 3.15297
O -1.84927 -6.12917 -9.23729
H -1.34731 -6.20005 -10.0993
H -1.55874 -5.30618 -8.7491
O 1.90647 -8.32569 13.4362
H 1.73655 -8.98783 12.7063
H 1.03519 -7.96181 13.7656
O -5.61339 9.22659 3.65291
H -5.63689 10.098 4.14301
H -5.43818 9.39442 2.68277
O -14.1013 9.36986 -3.35073
H -13.663 10.0626 -2.77797
H -13.4868 9.1182 -4.09848
O -6.56288 -14.7183 7.96396
H -6.85185 14.3062 8.53528
H -7.22845 -14.5795 7.23062
O -6.98443 -12.1446 -6.76225
H -6.89144 -13.0727 -7.12279
H -6.13482 -11.8768 -6.30779
O 14.4888 7.42099 -12.9438
H -14.3188 7.30227 -12.8195
H 14.1794 8.21302 -12.4175
O 10.8488 -12.6654 3.08658
H 10.5251 -12.3541 3.98011
H 11.308 -11.9112 2.61713
O -4.31088 8.20189 13.9144
H -3.63086 8.0485 14.6314
H -4.15613 7.55806 13.165
O 3.10982 12.637 2.49721
H 2.20207 12.238 2.3673
H 3.34228 13.2015 1.70516
O -13.7255 8.87851 -0.296545
H -13.6858 9.83396 -0.589115
H -14.6289 8.50348 -0.504479
O -2.36814 -8.79767 -4.13566
H -1.70997 -9.54728 -4.06533
H -2.06207 -8.03126 -3.57085
O -8.18155 11.7594 5.99992
H -8.64071 11.5308 5.14144
H -7.19163 11.687 5.87802
O -9.25122 13.5017 12.5538
H -9.47981 12.5967 12.1949
H -9.97752 13.8098 13.1684
O 1.93887 -13.6214 -12.9802
H 1.64511 -12.7689 -13.4127
H 1.88337 -14.368 -13.6432
O 8.29664 10.6633 9.68786
H 8.97083 9.92673 9.63316
H 8.32168 11.2013 8.84528
O -7.5684 2.09909 8.93875
H -8.01763 1.86358 8.0769
H -8.12389 2.76846 9.43215
O 11.8889 -3.57236 -11.5129
H 11.6373 -3.34255 -12.4531
H 11.5006 -4.46183 -11.2719
O 6.71196 -8.64912 13.4733
H 7.11768 -8.26252 14.3016
H 6.84616 -8.01704 12.7101
O 9.28975 10.3611 12.6769
H 9.17639 11.0483 11.9594
H 8.73135 10.6101 13.4682
O 11.3034 -13.861 11.7998
H 10.4244 -13.4155 11.6297
H 11.3482 -14.7173 11.2852
O 8.87316 -3.04817 5.12621
H 9.06427 -2.86953 4.161
H 9.25854 -2.31298 5.68393
O -0.0888926 -1.73341 -4.9221
H -0.198531 -0.73942 -4.91758
H 0.873137 -1.96197 -5.0715
O 14.0648 10.5363 -5.09223
H 13.7646 11.4744 -4.91937
H 14.5095 10.1724 -4.27375
O -5.3564 1.33707 10.8047
H -5.69357 1.09645 11.7149
H -6.07835 1.80473 10.2947
O -10.8218 -3.77467 -4.91624
H -11.3752 -2.97087 -5.13464
H -10.815 -3.91569 -3.92623
O -3.69676 -7.24011 -12.1492
H -3.92325 -6.26639 -12.1741
H -2.8118 -7.38788 -12.5909
O -9.65875 -2.01396 -9.40897
H -8.83679 -2.40059 -8.99068
H -10.2399 -1.61801 -8.69794
O 3.81251 12.788 13.122
H 4.06263 11.8938 13.4932
H 3.04211 12.6842 12.4929
O 5.67447 13.0543 4.12989
H 6.11165 13.9254 4.35373
H 4.77366 13.2262 3.73109
O -12.8202 -6.26298 -10.0022
H -12.3392 -6.63346 -9.20759
H -12.1671 -6.1029 -10.7424
O -4.72633 12.74 10.9666
H -4.12863 13.1052 10.2529
H -5.23032 11.9536 10.6093
O 6.3991 -13.9275 4.23755
H 7.26086 -14.1877 3.80201
H 5.90533 -13.2906 3.64537
O 13.9888 -7.97234 -9.09297
H 13.838 -7.67906 -8.14888
H 13.1594 -8.40745 -9.44338
O -9.43472 -8.38508 -4.79405
H -9.21872 -9.31261 -4.48893
H -10.3192 -8.10809 -4.41838
O -7.18393 -1.27483 -5.20764
H -6.68741 -1.55744 -4.38687
H -6.82299 -1.76516 -6.00095
O 12.7741 13.6538 -4.10581
H 13.4987 14.1251 -3.60297
H 12.2477 13.0832 -3.47537
O 11.7957 9.78071 11.9518
H 10.8221 9.85471 12.168
H 12.3306 10.2368 12.6631
O -6.60115 -3.79999 7.58601
H -6.76278 -2.86504 7.90193
H -7.04375 -4.44392 8.21012
O -1.56311 9.82785 13.3733
H -1.03217 9.08345 12.9683
H -2.2775 9.44677 13.9603
O 10.272 6.27493 14.2312
H 10.0126 6.82676 13.4385
H 10.3581 5.31717 13.9567
O 9.66988 -5.09307 -8.79204
H 9.50597 -4.42348 -8.06758
H 10.5776 -4.94417 -9.18439
O -1.09115 8.63624 3.80304
H -1.26475 9.48069 4.30982
H -1.96158 8.22537 3.53175
O -5.49795 -8.73767 5.2591
H -5.90589 -7.8827 4.93866
H -4.65654 -8.53786 5.76126
O -0.811162 2.03353 14.0115
H -0.523224 1.95435 -14.8268
H -0.959393 1.12058 13.6312
O -5.52893 -5.729 -6.62028
H -5.09319 -6.32902 -7.29123
H -6.41015 -6.11642 -6.34931
O -0.44602 13.3885 7.80302
H 0.346124 13.7374 8.30381
H -0.252123 13.4009 6.82205
O -9.51469 -5.6521 1.73932
H -9.46877 -6.18194 2.58621
H -9.95657 -6.19852 1.02783
O 0.302312 11.766 2.12431
H -0.413606 12.3153 1.69336
H 0.200766 10.8102 1.84811
O 5.5566 -5.80358 -13.2148
H 5.9071 -5.21121 -13.9403
H 4.79386 -6.34612 -13.5669
O -6.86332 6.13407 -2.98777
H -6.42432 6.08644 -3.88503
H -7.85548 6.18034 -3.10416
O 8.84655 -1.88275 -8.69658
H 7.90578 -2.00999 -8.38222
H 9.46207 -2.44206 -8.14127
O 10.2578 11.2204 -10.9551
H 10.8528 10.6706 -10.3688
H 10.2111 12.1543 -10.6005
O -6.23479 -3.47012 13.8222
H -6.40605 -4.31125 14.3352
H -6.25 -2.68955 14.4471
O 9.30524 -11.8226 11.1864
H 9.84795 -11.0318 11.4694
H 8.62121 -12.0255 11.8871
O -4.97932 3.23526 -0.663665
H -4.4615 2.59 -0.101921
H -5.90924 3.31767 -0.305181
O -3.42899 -13.8265 9.95116
H -2.60378 -13.4123 10.3352
H -4.22708 -13.5251 10.4729
O 10.631 4.9312 11.1589
H 11.0522 5.83322 11.2536
H 10.6477 4.46127 12.0415
O 10.337 -0.0430214 5.08709
H 10.4984 0.825126 5.5565
H 10.2764 -0.77984 5.7605
O 5.94736 4.39816 -8.1402
H 6.2246 5.35703 -8.20151
H 4.97447 4.31795 -8.35723
O 14.5934 14.7906 -6.75382
H 14.0874 14.7863 -5.89127
H -14.3538 14.2674 -6.64685
O 7.54928 -5.5779 -0.398406
H 7.54931 -5.00593 0.421908
H 7.00941 -6.40261 -0.229703
O -0.811823 -13.1212 10.5275
H -0.331069 -13.8919 10.9457
H -0.949819 -12.4041 11.2107
O 2.50224 3.05473 4.07181
H 2.25644 3.84192 4.63747
H 2.53545 2.2329 4.64064
O 12.3696 11.7125 9.63678
H 12.0783 11.2433 10.4705
H 13.3532 11.5855 9.50914
O -0.682095 7.2553 -4.62562
H -0.216506 7.55784 -3.79391
H -1.11426 6.36847 -4.46189
O 1.81346 -13.7341 -4.37962
H 1.46789 -14.6156 -4.70149
H 2.32844 -13.2901 -5.11291
O -11.3748 -14.5521 -2.41091
H -11.758 -14.5576 -3.33461
H -12.1162 -14.6081 -1.74217
O -1.8364 9.90381 -6.31054
H -1.54285 10.2287 -5.41146
H -2.6428 9.32143 -6.20758
O 6.81359 1.62943 -2.97994
H 7.1316 0.863452 -3.53869
H 6.72695 2.4455 -3.55141
O 12.2558 10.0274 -9.41053
H 11.418 10.129 -8.87403
H 12.9777 9.64712 -8.83243
O 1.53121 2.6002 -1.59323
H 2.34958 2.09174 -1.86119
H 1.67176 3.00605 -0.690128
O 1.99268 11.4297 -9.61956
H 1.67152 11.2781 -8.68472
H 1.28106 11.8962 -10.145
O -10.6059 -9.41789 7.12039
H -10.4163 -10.3116 7.5271
H -10.4833 -8.70475 7.81064
O 2.08043 14.226 14.8904
H 2.97334 14.0606 14.4716
H 1.73091 13.3731 -14.5146
O 6.90918 -11.4227 12.6703
H 7.06601 -11.8201 13.5745
H 6.89493 -10.4254 12.7424
O 0.467036 4.3591 1.94872
H 1.32727 3.94833 1.64652
H 0.1469 3.89325 2.77368
O -11.8091 -3.92257 14.7906
H -11.4949 -4.56755 14.0939
H -12.7374 -4.16373 -14.7191
O 10.042 13.2678 11.0941
H 10.6142 13.1721 11.9087
H 9.10071 13.4638 11.3691
O 2.53972 13.2665 8.79536
H 2.85955 12.3191 8.78294
H 2.51223 13.5967 9.73891
O -12.1635 -10.8927 -14.3532
H -12.8834 -10.7363 14.7633
H -12.5755 -11.0181 -13.4506
O 9.01015 -7.76087 -9.25239
H 8.87626 -6.87813 -8.80194
H 8.38517 -8.43456 -8.85793
O -9.77592 -4.99877 6.6617
H -9.29343 -5.36982 5.86823
H -10.0874 -5.74998 7.24372
O -9.98698 9.22438 7.7724
H -10.3053 8.65694 7.01295
H -10.3664 10.1452 7.68227
O 11.0486 7.44271 3.00446
H 11.3158 7.55483 3.96159
H 10.2783 8.04694 2.80048
O -8.9554 -2.20681 -2.23428
H -8.06998 -2.43084 -2.64158
H -9.46121 -3.04995 -2.0517
O -6.46017 -14.0287 3.3063
H -7.17747 -13.3672 3.0871
H -6.65932 -14.4564 4.18803
O 10.1767 -13.3378 14.5714
H 10.5621 -13.4985 13.6627
H 10.9137 -13.3159 -14.5458
O 12.8205 10.7981 -0.0611646
H 12.1889 10.18 -0.52938
H 13.2555 10.3165 0.699673
O 5.888 3.83216 6.99581
H 5.62061 3.02842 6.46424
H 5.61637 4.6609 6.50644
O -12.7236 -13.3708 -8.1482
H -13.6922 -13.1242 -8.11498
H -12.189 -12.69 -7.64749
O 5.68168 0.30599 10.2674
H 5.11617 0.776088 9.58975
H 5.13754 0.122687 11.0862
O -1.23012 -8.3571 -13.4602
H -0.935695 -7.50553 -13.8941
H -1.21495 -9.09663 -14.1332
O 7.12263 -4.85924 6.63979
H 6.49931 -4.33387 7.21904
H 7.92893 -4.30604 6.43024