LAMMPS data file via write_data, version 29 Oct 2020, timestep = 10000000

10000 atoms
1 atom types
9000 bonds
1 bond types

85.57773532192152 108.32139667807846 xlo xhi
85.57773532192152 108.32139667807846 ylo yhi
85.57773532192152 108.32139667807846 zlo zhi
0.0 0.0 0.0 xy xz yz

Masses

1 1

Pair Coeffs # lj/cut

1 1 1

Bond Coeffs # fene

1 30 1.5 1 1

Atoms # bond

6920 692 1 90.80924402507446 89.5603395201697 87.77811705397815 2 2 2
844 85 1 89.16215732253808 86.86992399069817 90.74431753666431 1 4 0
299 30 1 87.11103881330438 90.43126771246725 87.41259346053936 1 -1 1
923 93 1 88.02938658489086 85.69361821125433 89.57427239413082 -2 1 0
7016 702 1 91.07802210152647 87.74017697060786 87.09338186533775 1 2 1
7208 721 1 89.87691805043981 85.72831358643887 87.57282573876746 -3 -2 3
3081 309 1 86.58526749651698 85.75096890730539 86.16604908068767 2 -1 0
5818 582 1 90.71712044702656 86.55722663973657 89.78365601566026 2 1 -2
7835 784 1 87.59898573000915 86.3873688138385 87.62051474614802 2 1 -2
9318 932 1 86.29199905269928 89.24938005614345 90.00424817216935 -1 0 -2
6491 650 1 90.7357600401767 87.07867509176803 85.71828985944265 2 4 -1
1556 156 1 90.70546358112918 90.45496181568447 86.49791868763258 -1 1 -1
297 30 1 87.58023109020156 88.96844259660374 87.02141688932385 1 -1 1
1332 134 1 87.79234600436513 87.36550292509868 90.33670264839708 -1 1 -2
842 85 1 90.45639897882064 86.60061266294205 90.71613621040032 1 4 0
1335 134 1 86.97036514209259 87.31848135800132 89.08308018369986 -1 1 -2
4405 441 1 88.74665019098471 88.56876934080121 90.62649551805087 -1 1 2
5817 582 1 90.51144938274854 85.63501790788207 89.51484399407103 2 1 -2
7833 784 1 88.41337804456596 86.63404531047193 88.55556514984926 2 1 -2
7836 784 1 86.68883997786558 86.70750231403949 88.08838370665873 2 1 -2
7586 759 1 90.73524528583535 89.58502915845301 91.0764151068669 2 0 0
7583 759 1 91.2036735780285 88.7060170727514 90.64617794624361 2 0 0
8367 837 1 87.41706885760334 90.01047647664622 89.63771802630221 1 -2 2
1331 134 1 88.21888429342208 86.5315244532954 90.532575987785 -1 1 -2
1253 126 1 89.04994047006393 89.57893055944777 85.71694831857471 2 2 1
7589 759 1 89.35347988467564 90.87102593098237 90.59381716393072 2 0 0
8255 826 1 88.44780263853173 89.3573600416029 87.79997296381612 2 -1 4
1553 156 1 89.07141554486705 90.52420642792006 85.98825448619738 -1 1 -1
8512 852 1 89.80153537297682 89.32353868557287 87.93467853512384 0 0 1
7207 721 1 89.66827841881718 85.83943921797947 88.55520930007138 -3 -2 3
6412 642 1 85.75042875785012 85.92325957434667 87.53372746908435 3 1 1
8197 820 1 88.59295285964335 90.45248187170337 89.69987792040948 0 -1 3
8365 837 1 87.58172546280535 90.57698869083438 91.07745252143938 1 -2 2
2173 218 1 88.86351075833456 86.0972246356252 87.77356860494302 3 1 -3
8200 820 1 90.10830572153567 90.77252928978834 88.84253851247242 0 -1 3
4682 469 1 88.43168953145516 90.16169033388675 90.75806770535648 -1 0 -4
1140 114 1 89.97306937804024 91.14610004661483 87.78551830994209 -3 -1 -1
1336 134 1 86.81390326911414 88.02173788136481 89.74907772538224 -1 1 -2
8258 826 1 88.12392389537372 87.1176403351589 86.88885746802495 2 -1 4
4363 437 1 87.80520680118231 89.46374486106802 85.9626960537016 5 1 3
2368 237 1 85.94413730888779 90.92458388897475 90.64863812012216 0 -5 -2
1339 134 1 88.03678767083372 87.66518189601163 89.27846674924518 -1 1 -2
2176 218 1 87.92987403194114 85.97333850841055 86.07896198917884 3 1 -3
8254 826 1 88.51368835702814 89.86237794992194 87.04472961972895 2 -1 4
8382 839 1 90.01148174592898 87.64008516461702 86.25626000889731 3 0 -1
4450 445 1 86.7578160511512 87.76518827101715 85.69323951887296 0 -1 0
7839 784 1 86.72469629806974 87.51906057265221 86.6849440644783 2 1 -2
4679 468 1 87.21388809861628 90.9434688504553 86.06729563065828 -1 2 -2
8252 826 1 88.31892889878986 90.95663316924656 87.58604323624873 2 -1 4
4409 441 1 88.61159596980936 90.10879076644686 88.73531739017218 -1 1 2
7838 784 1 86.50253499560075 86.7136175942087 87.13600925278566 2 1 -2
921 93 1 87.62472732940809 85.79809060907743 88.46662381890299 -2 1 0
1340 134 1 88.11573566075018 86.76876121935445 89.52500771927937 -1 1 -2
1333 134 1 87.26391902540276 86.58573359398339 90.08338381057092 -1 1 -2
8368 837 1 86.99673211394921 89.90504869473683 88.77806344459604 1 -2 2
1554 156 1 89.468281780181 90.50545541211947 86.857199918408 -1 1 -1
295 30 1 87.71798572775965 87.97025894884771 87.50091946588252 1 -1 1
3087 309 1 86.57410934124384 86.18331564763852 89.01213918399436 2 -1 0
298 30 1 87.06651322584096 89.77281970094286 86.78553321365374 1 -1 1
291 30 1 85.94930524200863 90.05755121450481 87.3719820070043 1 -1 1
4410 441 1 89.11419231733719 89.2328323916407 88.93031256751895 -1 1 2
845 85 1 89.16967318792845 87.79938151030795 91.14243341177847 1 4 0
6166 617 1 86.8226407668856 87.5947111328295 90.74304291057419 0 2 1
3090 309 1 85.59775097251313 88.01783333039877 87.93694400825825 2 -1 0
8257 826 1 88.6661291116225 87.53176167253481 87.52472643944726 2 -1 4
7832 784 1 88.93900479700757 87.44464083195919 88.6564700222192 2 1 -2
7019 702 1 89.70751751689849 86.66301416172514 87.91685400039827 1 2 1
4681 469 1 88.98770721318024 89.50393549574216 90.29639868546704 -1 0 -4
300 30 1 86.8253563772408 90.93135436763457 88.163833387048 1 -1 1
296 30 1 87.44625526457423 88.10722837143226 86.58063664964436 1 -1 1
5820 582 1 91.04455803530739 87.64592814016473 90.55815155436613 2 1 -2
4402 441 1 90.6127338027891 89.14710927994363 89.58552022686521 -1 1 2
8511 852 1 90.11375306555965 89.71261060458767 88.755030900514 0 0 1
1649 165 1 91.21684500994385 86.18700157788511 86.14604005242654 2 0 -2
8253 826 1 88.97641627316254 90.28728686971945 87.72045695814704 2 -1 4
2175 218 1 88.86068232560348 85.93759012839735 85.98937982241301 3 1 -3
3088 309 1 85.80692518049743 86.74578369989841 88.96891043153326 2 -1 0
1252 126 1 89.04830786259218 88.87390482186784 86.37521977952116 2 2 1
292 30 1 85.95357638655152 89.21295338673856 86.94282178463037 1 -1 1
7588 759 1 90.23675772641548 90.46884626153249 90.66997985188866 2 0 0
7587 759 1 91.11108200917683 90.27319543791612 90.52820957485551 2 0 0
1338 134 1 88.2043081100861 88.28311052924545 88.57290811788633 -1 1 -2
7020 702 1 89.63761255586437 86.97194944478926 86.95078884113259 1 2 1
4678 468 1 88.06689534814939 90.61139283720665 86.44280696108274 -1 2 -2
8196 820 1 89.21190735373305 91.15116989428378 89.40348613238532 0 -1 3
8199 820 1 90.4647327899236 90.27165114220558 89.50982505226307 0 -1 3
1337 134 1 87.30138245294124 88.43588240240088 89.07626418488127 -1 1 -2
7018 702 1 90.4917678428913 86.57724630623184 87.37467367567653 1 2 1
7837 784 1 86.72707650373073 85.87778488365237 87.58498787443811 2 1 -2
8518 852 1 90.64627102617047 86.57359744315578 88.42441100418417 0 0 1
2174 218 1 88.81118736666345 86.3118025911793 86.88752908011695 3 1 -3
8251 826 1 87.81269200439365 90.485566500917 88.17857025557757 2 -1 4
9822 983 1 89.41174391797003 85.77887238591086 91.09194091552813 -1 -1 -2
1650 165 1 90.23119133256569 86.21543904151778 86.40568010116188 2 0 -2
841 85 1 90.3675750823805 85.6117847318719 90.6466947424339 1 4 0
8370 837 1 86.37907065638203 89.28816843131209 88.17760166091 1 -2 2
7584 759 1 90.38755163003384 88.42471303368453 91.04736809369747 2 0 0
7590 759 1 90.01169395664539 91.20742119217734 90.02706827131449 2 0 0
4407 441 1 87.80531618637902 88.99630856133514 89.94803305127033 -1 1 2
9316 932 1 86.40289131452556 89.91800025936085 90.92515292064022 -1 0 -2
8383 839 1 90.44070387496178 88.4589919492711 86.42414418559169 3 0 -1
8259 826 1 87.56219040864556 87.0676497096147 86.10640007390043 2 -1 4
4406 441 1 88.63070554568814 88.55691400111814 89.67067493789388 -1 1 2
8513 852 1 89.86868555531682 88.53889577327708 87.33200953946631 0 0 1
293 30 1 86.5791115308843 88.52223399413425 87.2626720721687 1 -1 1
8361 837 1 87.55993801360378 90.98776612877771 89.3524024353476 1 -2 2
9317 932 1 85.59402274087769 89.75165977190433 90.47865611228424 -1 0 -2
9212 922 1 86.06670193559269 90.32223701565859 88.5950046392591 0 0 3
466 47 1 86.24811845460407 90.04793644751678 86.29991391459666 -1 0 -1
8362 837 1 86.83304222767006 90.85560541797216 90.02631314472666 1 -2 2
4408 441 1 88.09701576522649 89.37050865364272 89.17557339674147 -1 1 2
4401 441 1 90.60567601560996 88.20854268420369 89.84261209244481 -1 1 2
4366 437 1 85.92610026821443 88.42911981963853 85.91737559420622 5 1 3
7834 784 1 87.65718211452035 87.18459950213241 88.18640896400014 2 1 -2
9319 932 1 86.22343008243283 88.74616188817444 89.2337817484978 -1 0 -2
7831 784 1 89.24602390453028 86.69176582279812 89.1920549472388 2 1 -2
9828 983 1 86.25329362843154 86.08046562055063 90.72987384816356 -1 -1 -2
9829 983 1 85.7987506419253 86.9099611402923 90.68458781207939 -1 -1 -2
7110 711 1 89.46411492445195 86.77827556934339 85.91911841626114 1 0 2
1555 156 1 90.20347156252511 90.1473149778774 87.27555714903217 -1 1 -1
6165 617 1 87.17727251012067 88.41153916264777 91.10372635398568 0 2 1
4404 441 1 89.70781415022535 88.4161007095645 90.2854863793525 -1 1 2
9320 932 1 86.04621670619456 87.83451014182977 89.12654440244197 -1 0 -2
7017 702 1 90.38034143593845 87.47703105461295 87.74135142428733 1 2 1
8515 852 1 90.08542594444803 88.33292126612689 88.86032308281219 0 0 1
8198 820 1 89.50466606609281 90.10788220464404 89.6162187800806 0 -1 3
294 30 1 86.82277588254517 87.78955587748416 87.82659400914594 1 -1 1
4364 437 1 86.8799852880173 88.96890112232055 86.04829892450233 5 1 3
8517 852 1 90.27501011828562 87.23951033272962 89.00433268366073 0 0 1
8256 826 1 88.74074763703882 88.50314116403555 87.33474003177184 2 -1 4
8516 852 1 89.61181519906138 87.78807583661415 89.50559666895552 0 0 1
8514 852 1 89.60288609489439 88.00065454174117 88.05351115011706 0 0 1
8381 839 1 89.04940026460638 87.8794011756324 86.4492185711018 3 0 -1
8369 837 1 87.41737262364018 89.16560140207608 88.35182918287347 1 -2 2
9824 983 1 87.53146623017156 85.7204611453102 90.7014427557034 -1 -1 -2
1334 134 1 86.32330081311528 86.92564675737093 89.82557963041424 -1 1 -2
7467 747 1 91.14370187200744 90.6368482297124 87.87308908242403 -2 4 -1
7840 784 1 86.31150486542461 86.90787402574779 86.03955481669384 2 1 -2
6919 692 1 90.83961237791345 88.62553155859396 87.45625544077923 2 2 2
843 85 1 89.75803072416647 86.32851930411782 90.15515714788702 1 4 0
464 47 1 85.9146463842198 90.97114353900092 86.02061199977544 -1 0 -1
6164 617 1 86.23667718199518 88.69834565260518 91.19509216599768 0 2 1
4403 441 1 90.03056215934879 89.34765243369995 90.23146522009003 -1 1 2
9213 922 1 86.19409314798763 91.047988962616 89.26991640595743 0 0 3
8366 837 1 87.45367090759586 89.7520806273106 90.54909072251395 1 -2 2
2440 244 1 88.07108870198006 87.85931546315605 91.25151707659195 -1 0 -3
1251 126 1 89.76821987674776 89.43300057428445 86.71998981186324 2 2 1
6411 642 1 85.62598585882489 86.41318033280005 86.71100201717397 3 1 1
6918 692 1 91.14166834358984 89.29225472088848 86.84832879169066 2 2 2
9211 922 1 85.58595869259882 89.96994679522844 89.40296818653331 0 0 3
2177 218 1 87.48362769709338 85.58314310504136 86.83667530286588 3 1 -3
4683 469 1 88.56228118715165 90.89092565869072 91.25265585138159 -1 0 -4
1557 156 1 90.59716829676049 90.32903460197312 85.59069703942905 -1 1 -1
7053 706 1 89.86339521986956 87.65401359767453 94.69665659937787 0 -1 -1
7044 705 1 90.00893045318998 89.5360318397337 96.85059357500481 -1 1 -2
8555 856 1 88.21590191396842 90.68228164950303 95.98330074568419 3 1 4
746 75 1 85.99036022967815 87.6476640358573 96.39809412591488 1 2 -1
9329 933 1 85.91682753918123 89.07837972372317 94.12604009194027 0 0 -2
9340 934 1 90.72615324060311 86.68493620089896 95.01574282163385 4 0 -4
742 75 1 86.59533815172672 86.13220913741762 95.05696393230612 1 2 -1
3423 343 1 88.6163133676418 86.38022281818826 91.67458243852607 2 -2 -1
3806 381 1 88.65146491169686 86.36979521306942 96.8469988549321 -1 3 -1
7219 722 1 90.65268995727347 89.80121529275105 95.61287735922937 0 -3 -5
2864 287 1 89.0481230926724 86.71763993580215 94.03678259201307 2 0 -1
2873 288 1 91.16156504719672 89.36813826327158 92.11614687595393 1 -2 0
7216 722 1 88.70961621506049 89.96420439486425 95.26059274603989 0 -3 -5
750 75 1 86.38212573060119 89.75131857977381 96.15243826444157 1 2 -1
2870 287 1 90.8343169162064 86.56810467183887 91.89666359434884 2 0 -1
4219 422 1 87.61377378491065 85.62186891280679 93.67546314187403 0 4 0
8118 812 1 87.25457890065562 88.87939453958919 94.40467263149628 -2 -2 4
9330 933 1 85.6858467868874 89.76651721968692 93.55900799732497 0 0 -2
1575 158 1 87.44423440757225 89.96606806978055 92.79185847237315 1 1 -1
2874 288 1 90.48099193453979 89.77132423911974 92.73070200117284 1 -2 0
5543 555 1 89.04589490970747 87.50872863727166 92.97944447852099 2 -2 -1
9826 983 1 87.1355572286495 85.76515243756243 91.91611826018658 -1 -1 -2
8284 829 1 86.11221531481556 90.43762974230128 94.24967018960155 3 -1 1
804 81 1 89.71092525353573 87.40784654442561 95.74377456028097 0 1 -2
2434 244 1 86.15795127335302 88.65182028703012 92.28915052392874 -1 0 -3
8554 856 1 88.62830730293963 90.3764320054214 96.92462491119099 3 1 4
2865 287 1 89.05732030883894 86.08346139536667 93.32145042485665 2 0 -1
849 85 1 90.56828386132489 87.20814034036994 93.0533638738644 1 4 0
9825 983 1 87.45348839387327 86.42077804578169 91.34696550264235 -1 -1 -2
5550 555 1 91.24416716767568 87.6242547082733 94.91670761664707 2 -2 -1
8551 856 1 89.67837419255733 89.23859504365072 95.85932657389057 3 1 4
2599 260 1 85.94907574943609 90.74124677227142 92.60725830635698 2 0 0
7214 722 1 88.28241610778551 88.2225009985581 94.95058336871418 0 -3 -5
749 75 1 86.24777119501061 88.97458986103292 96.69550620018036 1 2 -1
9821 983 1 89.69948300262037 86.64038685977407 91.45253690553672 -1 -1 -2
1571 158 1 89.03145957438481 88.74339665936007 92.82511305227115 1 1 -1
2872 288 1 90.39703745307949 88.74419403125445 92.2312072985794 1 -2 0
8115 812 1 87.4977678987585 89.13108269760812 95.97457946879418 -2 -2 4
6167 617 1 87.08571610728295 87.32661721989433 91.63801770422847 0 2 1
745 75 1 86.44415661802368 87.13761425291366 95.75895178054402 1 2 -1
8117 812 1 87.8674743928702 89.43174367410514 94.87045375111273 -2 -2 4
2600 260 1 86.09091784725997 90.66862858736197 91.69915320617915 2 0 0
3807 381 1 87.9195673889493 85.97662445030446 96.30881023640062 -1 3 -1
744 75 1 86.24480693964041 87.69411439606351 94.89004278636418 1 2 -1
782 79 1 87.9944747619121 90.51840480902793 93.49771338255886 -2 -2 -2
1572 158 1 88.79198277725641 89.62748485222099 93.01125387180325 1 1 -1
4218 422 1 86.81938376000873 85.66167103158037 93.03828555935355 0 4 0
847 85 1 90.3138027590861 87.61107820621946 92.00750303165835 1 4 0
2435 244 1 86.37110653101996 89.01911107469881 93.18340544814652 -1 0 -3
2439 244 1 88.02070996910184 88.83101252421463 91.36321910990927 -1 0 -3
7054 706 1 88.9942374799471 87.29454785141252 94.93600834858636 0 -1 -1
7060 706 1 89.82967040414495 85.79951044403134 96.70788562006047 0 -1 -1
7052 706 1 89.52373364596606 87.76718130220787 93.7885113581692 0 -1 -1
8114 812 1 86.63815421727517 88.8987981085481 95.52334318665167 -2 -2 4
3428 343 1 86.52466850090286 87.30693857350293 93.27270170639936 2 -2 -1
8120 812 1 87.45154403779901 87.11546361981104 93.76359608913447 -2 -2 4
7215 722 1 88.67074401043524 88.98744135471087 95.24603209052634 0 -3 -5
8553 856 1 88.94842557324485 89.53246342685537 96.6243441653169 3 1 4
743 75 1 86.70026283192931 86.87896657348662 94.48922338098424 1 2 -1
2862 287 1 89.62056717177182 86.29851675251749 94.72529489893908 2 0 -1
2437 244 1 87.15386683040853 88.40740233745817 92.49483809971906 -1 0 -3
4685 469 1 88.89215274301593 89.56732594258037 91.57999390295761 -1 0 -4
4687 469 1 89.96690044238143 90.2577236286692 91.79407850283529 -1 0 -4
2871 288 1 91.16924672127841 88.46312468495458 91.73261163536108 1 -2 0
2438 244 1 87.8633273248062 89.07686595880725 92.28343747281097 -1 0 -3
3424 343 1 88.47447657945563 86.70050068431918 92.57587530354202 2 -2 -1
2433 244 1 85.62991167242293 88.13698193478933 92.7786450304601 -1 0 -3
2869 287 1 90.36836519648801 85.69062294022974 91.7269598204563 2 0 -1
8112 812 1 87.0949116622909 88.126748255634 96.12449284164536 -2 -2 4
9339 934 1 90.89094716305574 87.13769018162563 95.78843953403144 4 0 -4
7220 722 1 91.05545299244487 90.35689838832383 94.97561056301835 0 -3 -5
5544 555 1 89.6487005059201 86.97967487113479 92.5422582846819 2 -2 -1
7213 722 1 88.66416291490785 88.6028722505909 94.12113783439978 0 -3 -5
803 81 1 89.99346701924901 88.30464669156281 95.50170600462599 0 1 -2
5091 510 1 89.97545837318017 91.16508263318224 94.83220962111272 2 -2 1
809 81 1 87.95322215541316 87.35050240923155 96.8736728473224 0 1 -2
784 79 1 89.38258830570493 90.51562529466098 92.68455227224759 -2 -2 -2
9315 932 1 86.62785603814284 89.47698379928154 91.72591246695121 -1 0 -2
2361 237 1 86.89732753147446 91.0566422067473 92.26591329504001 0 -5 -2
9314 932 1 86.07127285568943 89.65725184621219 92.4815384783635 -1 0 -2
806 81 1 88.18044011014062 87.64885663660321 95.7586166909122 0 1 -2
1573 158 1 88.62005618339411 89.54380374471285 93.88645896047501 1 1 -1
802 81 1 89.73309805267397 88.13421216732549 96.42833758313446 0 1 -2
7212 722 1 88.49510834328372 87.70204054390962 94.02086839585174 0 -3 -5
4905 491 1 90.6406560572956 89.75759360057324 94.06404151401478 -1 2 1
3425 343 1 87.67454727713519 86.2859716450925 92.86000994155945 2 -2 -1
4907 491 1 89.87276224942791 89.17705451701549 94.4045109276708 -1 2 1
1580 158 1 87.04917182213643 91.06249067455904 95.89502249223649 1 1 -1
805 81 1 88.81952297695557 87.12444757501385 96.16462417517151 0 1 -2
8113 812 1 87.12790790130931 88.12051148820676 95.18141161927322 -2 -2 4
783 79 1 88.47274038164171 90.7671779302648 92.72050502886194 -2 -2 -2
8285 829 1 86.2296796133312 89.76943397264209 94.96464845825089 3 -1 1
5545 555 1 89.94096561171786 86.07482384374396 92.74489638756269 2 -2 -1
3426 343 1 86.8589761402253 86.64618389368874 92.49643023938908 2 -2 -1
6168 617 1 86.513447716214 87.64076865186158 92.26699774222237 0 2 1
5541 555 1 87.58053070276888 87.40563279083864 92.49923424732455 2 -2 -1
741 75 1 85.77491402231482 86.54397884397414 94.87548521991808 1 2 -1
7051 706 1 89.8394370778813 88.25124181319079 93.04920751635726 0 -1 -1
4684 469 1 88.18163518128533 90.16847793142423 91.86003334331073 -1 0 -4
7057 706 1 88.42643539082347 86.26693693376247 95.198420328949 0 -1 -1
1579 158 1 86.54623099480666 90.7140223292965 95.2368665210098 1 1 -1
7585 759 1 89.90368257033275 89.14895081367827 91.32473569338987 2 0 0
4909 491 1 90.91772932531033 88.67306242690859 95.10671869136658 -1 2 1
9680 968 1 90.47465732624227 90.99348920544996 92.3649329538114 -2 1 -2
7217 722 1 89.39735025285187 90.15300564515178 94.64987421268569 0 -3 -5
8552 856 1 88.94642038073586 88.65694318774047 96.16064446797621 3 1 4
1723 173 1 91.14181533336827 88.91455281711586 92.98330959486178 -1 1 1
850 85 1 91.08873251773778 86.44289965239558 93.27835880852741 1 4 0
7890 789 1 91.15480866565349 86.22887636241916 96.20146135586269 1 0 3
7058 706 1 89.26902034900792 86.21771636923533 95.75198621318462 0 -1 -1
7055 706 1 88.00685350190173 87.16764023211498 94.71135951900452 0 -1 -1
808 81 1 87.12907515678111 86.97682107457835 96.58678930167515 0 1 -2
6227 623 1 86.81944010894047 90.53166898001506 96.74952625651714 2 4 0
4686 469 1 89.5588915581596 89.55947247427756 92.29079982695353 -1 0 -4
7211 722 1 88.23742212333164 88.07030785980994 93.1945333707065 0 -3 -5
846 85 1 89.53747844898699 88.1711528957534 91.91936260804195 1 4 0
4904 491 1 90.96681539316025 90.66703056815602 93.90700710078694 -1 2 1
2863 287 1 89.91391654608415 86.56403351248395 93.83050196120126 2 0 -1
5542 555 1 88.51155419921363 87.68402622139405 92.20665636726167 2 -2 -1
848 85 1 91.01038411506718 87.90190690684683 92.61703146941818 1 4 0
4906 491 1 90.11888489995368 89.18152814823404 93.50991887710967 -1 2 1
4908 491 1 90.4868267550498 88.48315624101971 94.18484506031807 -1 2 1
781 79 1 88.15443137182531 90.40058852440524 94.44314946001201 -2 -2 -2
2436 244 1 86.96315558866212 88.34852108035768 93.42014908060568 -1 0 -3
3427 343 1 85.93410383108238 86.72631692128192 92.85925634247289 2 -2 -1
604 61 1 85.82869815343271 86.49316545195249 96.34035334221502 0 1 1
3422 343 1 88.1515253525689 85.60376312064193 91.93017132134771 2 -2 -1
1574 158 1 87.77471028685859 89.35330742630694 93.53006851987332 1 1 -1
1576 158 1 86.73501410088502 90.52658248680021 93.35679995917205 1 1 -1
7059 706 1 90.21080111302597 85.98071487133615 95.84736093801742 0 -1 -1
8119 812 1 87.46653903459762 87.9446937101822 94.22845531864209 -2 -2 4
601 61 1 86.8971463733301 86.00306961873613 96.13054859665586 0 1 1
3429 343 1 86.01194174490752 87.9769790287909 93.79814040403978 2 -2 -1
9334 934 1 90.72107288370516 87.64609031137337 96.77484752382581 4 0 -4
786 79 1 89.28082544101812 90.99518345577204 93.66325988358928 -2 -2 -2
1578 158 1 87.14355522242533 90.3994059257003 94.54079181177346 1 1 -1
5116 512 1 90.94199137539803 90.61855814496431 96.26806077401714 1 1 2
7218 722 1 89.91438151142563 90.34829781304836 95.42537365756644 0 -3 -5
6169 617 1 86.0185688428877 87.40272809991197 91.47222225742729 0 2 1
603 61 1 85.60517647724295 85.65044223497974 95.85299173291446 0 1 1
1577 158 1 86.87401922866884 89.75397267102636 93.89328023326397 1 1 -1
7056 706 1 87.5745318276336 86.32946167619171 94.91304628866689 0 -1 -1
790 79 1 88.94302651343384 90.93436059133776 95.23222090371748 -2 -2 -2
4910 491 1 90.70715168697444 88.66214958233675 96.01909463679962 -1 2 1
785 79 1 89.84637229610618 90.24026617263206 93.44111016195853 -2 -2 -2
8116 812 1 87.31483222076098 89.93178049734273 95.46882412724855 -2 -2 4
5115 512 1 89.99653886465723 90.5564472781883 96.47843984999916 1 1 2
4688 469 1 89.53099660894614 91.06245330142954 91.66317894262963 -1 0 -4
6225 623 1 87.8592510565901 89.35146504200594 96.89624705402537 2 4 0
807 81 1 87.62294371220192 86.8552433877467 95.73109445510273 0 1 -2
8556 856 1 88.88836304864647 91.21347394696028 96.2957387806744 3 1 4
9827 983 1 86.28190432202078 86.18293432460925 91.67120084802603 -1 -1 -2
8289 829 1 85.75799430080886 91.08754888309768 95.75021469827391 3 -1 1
6616 662 1 86.32973804762997 86.02478553724335 93.90768015600133 2 -1 1
7050 705 1 87.8488517572019 91.142999560331 96.9302222637868 -1 1 -2
6634 664 1 87.45272310077577 90.07012342960815 100.56332052290637 0 2 0
9994 1000 1 87.57109082592444 91.1568091579925 100.72240161023198 -1 2 1
3042 305 1 90.81802427471347 88.74620524152856 101.06010214848605 1 0 0
2412 242 1 88.43252997556766 87.12139515406069 98.93003202228788 -2 -2 -1
6566 657 1 87.76724825850484 90.4496123326816 98.67658007289438 0 0 0
9583 959 1 89.74068777871132 89.23116224091837 99.27128125611192 1 1 2
6565 657 1 87.36646426681799 90.17198750349331 99.47982766643553 0 0 0
6569 657 1 88.20123756793639 88.93679143776187 98.34415699931311 0 0 0
2447 245 1 86.12100587208434 86.10187698887681 99.77230528221857 0 0 0
9881 989 1 89.42537376845961 88.75513961731177 101.16503719716992 -3 2 2
2549 255 1 87.91829580381292 88.76607382253917 101.42916635923879 0 -2 -2
6070 607 1 86.03581179927112 86.14870549252738 102.13553636108905 -1 -1 -1
7046 705 1 89.83611102333768 91.05078023797857 97.70763998272709 -1 1 -2
2413 242 1 88.46312754054648 87.4520795826035 99.78361895690632 -2 -2 -1
8111 812 1 86.91087760692348 87.9768547864307 97.07598199408434 -2 -2 4
2502 251 1 86.03119615325937 89.0869969647613 100.43449704314268 0 0 4
4863 487 1 85.95112437712102 90.69951744911036 98.52926865167562 -2 0 1
2548 255 1 87.81771929862411 89.69075367037497 101.68307516819752 0 -2 -2
4760 476 1 90.17242399933109 89.55490623733778 101.27018547420379 0 3 -1
2445 245 1 86.18381586638812 85.90667789556811 98.68682607826115 0 0 0
3043 305 1 90.58958285438429 88.50208156884322 100.07811699156589 1 0 0
6635 664 1 86.64515969445281 90.63886125468309 100.34311828713106 0 2 0
6465 647 1 89.6390631755559 86.09880604830295 102.39009861399536 0 -1 0
6292 630 1 86.3286411211991 87.22331694009065 99.34746925262903 1 1 1
1678 168 1 85.69072472034718 89.32833457069762 101.63594183653154 3 0 0
6632 664 1 88.75139287985874 88.89808136344378 99.78397537040338 0 2 0
6779 678 1 91.09854862621597 88.61837199212566 97.87890061939622 1 2 -1
2545 255 1 87.19230317394516 91.19369268435766 102.58024769977237 0 -2 -2
8146 815 1 90.60620311549171 86.96710512357878 101.33548026655619 -2 -2 -1
9991 1000 1 86.39321805400235 90.6740083378937 102.05333181319962 -1 2 1
9516 952 1 85.6406960327257 90.2160199806645 101.04959159814128 2 2 -3
6567 657 1 88.02172639586448 89.9193815233718 97.93506218793004 0 0 0
328 33 1 90.6779801419968 86.2767440685203 100.14205270577824 0 -2 -3
2507 251 1 85.73612557652623 88.06677973157593 98.21440854024098 0 0 4
2501 251 1 85.96660264321893 88.22173982199661 100.04175799447047 0 0 4
7045 705 1 89.74054907169088 90.06080073969434 97.58355819836744 -1 1 -2
6294 630 1 86.99128924105115 87.93580610879805 99.84937580591718 1 1 1
2416 242 1 89.54531913225728 86.21928845609771 98.49484930978575 -2 -2 -1
4864 487 1 86.65565797936617 90.95459973311551 99.06749470126454 -2 0 1
9581 959 1 88.86687246701592 90.38429957493064 98.306573107996 1 1 2
5735 574 1 88.47212483376306 87.49570560129091 101.84750789477825 0 1 -2
6462 647 1 88.04740351983763 86.34934895416849 101.78919200897133 0 -1 0
4959 496 1 90.81791434471147 87.16128126512396 98.95763102969765 0 3 -1
2708 271 1 90.70793592838966 90.60451475415013 101.14836142774563 1 2 0
6071 608 1 85.69496010207769 85.98296562461348 97.60725234030377 4 0 0
9331 934 1 88.82677984217598 89.28770595935575 97.57246603343665 4 0 -4
2550 255 1 88.55514931796826 88.38925017775665 100.90588455516807 0 -2 -2
2417 242 1 90.5151743526233 86.34695121171558 98.18188626146849 -2 -2 -1
2441 245 1 87.30135620808731 86.51468043737982 100.23405540656633 0 0 0
9333 934 1 90.22845936328547 88.17310505766751 97.4748940638273 4 0 -4
9517 952 1 85.63782740809334 91.13822655243708 101.2251307648605 2 2 -3
1942 195 1 85.63176165053828 89.69168942684306 98.8805166628848 1 2 -1
5015 502 1 89.96680387533438 91.08480698507874 100.22189788761048 -2 0 -2
6989 699 1 88.4985812411588 85.72515244547766 102.50890415987863 1 2 3
5736 574 1 87.6551270575119 87.27708388277905 101.49352667906254 0 1 -2
6295 630 1 87.63167108694145 88.4880265697666 99.48517312342153 1 1 1
2547 255 1 87.98973878758808 90.2666349335985 102.43182172513146 0 -2 -2
4866 487 1 87.2891653368578 90.88536286882479 97.78378334410357 -2 0 1
5739 574 1 89.11468923279095 86.62331272320004 101.4126743405865 0 1 -2
9526 953 1 90.40506330405135 88.15941932431569 98.6854329919568 0 -1 -2
2448 245 1 86.36892164611851 86.17245325887434 100.7488702881759 0 0 0
2449 245 1 87.02081052776876 86.08452064268221 101.41662762446802 0 0 0
9584 959 1 89.16487524692788 90.01413435540766 99.40343312886668 1 1 2
1679 168 1 85.92782085735051 88.77493646678934 102.41903447491973 3 0 0
3041 305 1 90.8358654419216 89.55879397493177 100.42762207957024 1 0 0
2558 256 1 88.0586313522846 85.81840228161687 100.31228636967155 -1 0 -1
6631 664 1 89.33885118507222 88.1929869369242 100.0035509937781 0 2 0
3045 305 1 89.4754834564496 89.88921071535682 100.55450013222845 1 0 0
6223 623 1 87.53333320917575 88.13825277091932 97.85886602220752 2 4 0
6228 623 1 85.98421349967974 90.22268044999223 97.07856802481575 2 4 0
3805 381 1 89.2101566003516 86.78325128999357 97.54662454682736 -1 3 -1
8145 815 1 90.46743984334726 87.28870298854716 102.27442726772433 -2 -2 -1
3044 305 1 89.95282119747051 89.13124911816692 100.20854662033052 1 0 0
6300 630 1 86.07415081562488 86.96060882119667 101.54718930118116 1 1 1
327 33 1 89.85263753877506 85.96787900847151 100.41732490555017 0 -2 -3
7043 705 1 90.88756983387447 89.70197751490015 97.15804798923126 -1 1 -2
2554 256 1 87.278429919728 85.80993523579802 98.33017028114823 -1 0 -1
330 33 1 90.17948025059836 87.97530610926903 100.9428711947964 0 -2 -3
2551 256 1 86.60840702537803 86.26279418828067 97.31660914578384 -1 0 -1
9582 959 1 89.17549526655176 89.50521082009992 98.54493884366637 1 1 2
9882 989 1 89.9105851476101 88.50581259337743 101.97696778108644 -3 2 2
6072 608 1 85.81374473088223 86.75971604608483 98.11993206964073 4 0 0
2119 212 1 90.48789167454773 85.88844399122513 101.30143208041882 2 2 0
5737 574 1 87.67160432666086 87.38791020543691 100.55395595998985 0 1 -2
6298 630 1 86.85799269854435 87.86836678473875 101.9471023875851 1 1 1
810 81 1 88.08920888265996 87.22132071694432 97.81152602230198 0 1 -2
9521 953 1 90.1992118310119 90.41753855893218 99.47053880057511 0 -1 -2
3047 305 1 88.77213374273971 89.94937349446602 101.19395862453898 1 0 0
5738 574 1 88.4300493238506 86.84186190627959 100.80670926809108 0 1 -2
6296 630 1 87.53584043409883 88.45069171557508 100.48965686993851 1 1 1
2556 256 1 88.4728383591716 85.90674649707921 99.06921664916871 -1 0 -1
8142 815 1 91.03152307286157 89.54224789090041 102.09790687328615 -2 -2 -1
5732 574 1 86.94647055693356 89.61992984351414 102.2514524756872 0 1 -2
329 33 1 90.17463387990075 87.1390806127393 100.42166345936856 0 -2 -3
2557 256 1 88.14846632798553 86.53362883374629 99.74059240113793 -1 0 -1
6463 647 1 87.98433670294732 86.82611885432317 102.62479094657893 0 -1 0
6570 657 1 88.11976833299659 89.4543348686969 99.19507410856347 0 0 0
9523 953 1 90.53956365521995 90.2658595613108 98.46629830891955 0 -1 -2
6568 657 1 87.34137440653053 89.24500168958816 98.00918094345946 0 0 0
5017 502 1 88.83479555948271 91.22591056021261 101.22397372266572 -2 0 -2
1677 168 1 85.64819333372958 89.930050750484 102.41045374870684 3 0 0
9524 953 1 90.38451887057288 89.30633412928445 98.36417667071925 0 -1 -2
9993 1000 1 87.91759632736847 90.93494072583084 101.64298556282561 -1 2 1
2560 256 1 88.74215051065605 85.67104047223549 101.15596031558843 -1 0 -1
8144 815 1 90.88098875687383 88.14349448390978 102.18521226365831 -2 -2 -1