LAMMPS data file via write_data, version 15 May 2015, timestep = 18500000

2593 atoms
6 atom types
1728 bonds
4 bond types
864 angles
3 angle types
0 dihedrals
3 dihedral types
0 impropers
1 improper types

-1.5088744868468273e+01 1.5088744868468273e+01 xlo xhi
-1.5088744868468273e+01 1.5088744868468273e+01 ylo yhi
-1.5088744868468273e+01 1.5088744868468273e+01 zlo zhi

Masses

1 15.9994
2 1.00794
3 12.0107
4 1.00794
5 12.0107
6 12.0107

Bond Coeffs # harmonic

1 1000 1
2 469 1.4
3 367 1.08
4 469 0.7

Angle Coeffs # harmonic

1 100 109.47
2 35 120
3 63 120

Dihedral Coeffs # opls

1 0 7.25 0 0
2 0 7.25 0 0
3 0 7.25 0 0

Improper Coeffs # cvff

1 2.5 -1 2

Atoms # full

1717 573 1 -8.1999999999999995e-01 -8.7879963907880825e+00 -9.6102172338941472e+00 -1.0292212356802413e+01 -3 2 4
1718 573 2 4.0999999999999998e-01 -8.9458439915174459e+00 -1.0487607911363220e+01 -9.8390938475734373e+00 -3 2 4
1381 461 1 -8.1999999999999995e-01 -1.3013801234059116e+01 -7.0914618983071209e+00 -1.4286418183332968e+01 -2 -1 4
2259 753 2 4.0999999999999998e-01 -1.0275925244989612e+01 -7.8124486809885525e+00 -9.5694662701592250e+00 -1 2 3
1739 580 2 4.0999999999999998e-01 -1.0475426900723683e+01 -1.1272454496353582e+01 -1.3897044515243339e+01 4 2 2
1382 461 2 4.0999999999999998e-01 -1.3076476009370323e+01 -7.1106954503550881e+00 -1.3288546147561329e+01 -2 -1 4
372 124 2 4.0999999999999998e-01 -1.4013584476331602e+01 -1.4665345806603536e+01 -1.2827148123918322e+01 -7 2 4
2257 753 1 -8.1999999999999995e-01 -1.0594693791260514e+01 -7.2736440630559027e+00 -8.7896439590668134e+00 -1 2 3
1738 580 1 -8.1999999999999995e-01 -1.0454634498703637e+01 -1.1775886763439617e+01 -1.3033233029373910e+01 4 2 2
1740 580 2 4.0999999999999998e-01 -9.6096122146774494e+00 -1.2307767537232564e+01 -1.2977673705116525e+01 4 2 2
2451 817 2 4.0999999999999998e-01 -9.9702463192740414e+00 -8.9094586167482692e+00 -1.1185183132894860e+01 -2 1 2
2258 753 2 4.0999999999999998e-01 -1.1246998582397289e+01 -6.5844019315792330e+00 -9.1050649354068245e+00 -1 2 3
474 158 2 4.0999999999999998e-01 -1.2085251068442989e+01 -8.6699077584453619e+00 -8.7116812349873989e+00 -5 0 -3
1948 650 1 -8.1999999999999995e-01 -1.2406709365019857e+01 -1.0366233979229822e+01 -1.1824640954643094e+01 -3 3 4
723 241 2 4.0999999999999998e-01 -7.9087495427797299e+00 -1.1265773756283181e+01 -1.3761548518287395e+01 -1 -1 -2
1719 573 2 4.0999999999999998e-01 -7.9337296565836706e+00 -9.2116257634102165e+00 -9.9584461782784217e+00 -3 2 4
1153 385 1 -8.1999999999999995e-01 -9.7412516613445561e+00 -1.1912436249670275e+01 -8.8517127834001208e+00 -7 -1 5
473 158 2 4.0999999999999998e-01 -1.2471578315237656e+01 -9.9253941081441432e+00 -9.6818648183446587e+00 -5 0 -3
2449 817 1 -8.1999999999999995e-01 -1.0646498867315330e+01 -8.2558542108166115e+00 -1.1525080825168786e+01 -2 1 2
1949 650 2 4.0999999999999998e-01 -1.3030991450513536e+01 -1.0096663494125533e+01 -1.2557887343760742e+01 -3 3 4
1950 650 2 4.0999999999999998e-01 -1.1628904698285144e+01 -1.0859859559544084e+01 -1.2213742947218051e+01 -3 3 4
1155 385 2 4.0999999999999998e-01 -9.9418463090565545e+00 -1.2422760580139002e+01 -9.6880007248896280e+00 -7 -1 5
346 116 1 -8.1999999999999995e-01 -1.3757303908116327e+01 -6.6090413673731732e+00 -1.1625955002928258e+01 5 3 -4
1931 644 2 4.0999999999999998e-01 -9.9237155105434383e+00 -1.4683245360615214e+01 -1.0865646051702839e+01 2 -5 -3
1930 644 1 -8.1999999999999995e-01 -1.0369260199882488e+01 -1.3788716151701578e+01 -1.0902443781734618e+01 2 -5 -3
1383 461 2 4.0999999999999998e-01 -1.3931919892917017e+01 -7.1449673005528620e+00 -1.4679154668389572e+01 -2 -1 4
2450 817 2 4.0999999999999998e-01 -1.1492246264779205e+01 -8.7388766848721691e+00 -1.1751900739863382e+01 -2 1 2
1932 644 2 4.0999999999999998e-01 -1.0389465010931776e+01 -1.3465063736728389e+01 -1.1848428731573087e+01 2 -5 -3
220 74 1 -8.1999999999999995e-01 -1.0519137409440752e+01 -8.0398674920520676e+00 -1.4624427702722063e+01 -5 -1 0
382 128 1 -8.1999999999999995e-01 -1.2299189227883554e+01 -1.3091226313291555e+01 -7.7623601672932532e+00 -4 4 2
347 116 2 4.0999999999999998e-01 -1.3140356053722485e+01 -6.1161412835996867e+00 -1.1012382270221675e+01 5 3 -4
383 128 2 4.0999999999999998e-01 -1.1545496647980041e+01 -1.2593456413025290e+01 -8.1915678798841682e+00 -4 4 2
1154 385 2 4.0999999999999998e-01 -8.8976232349321265e+00 -1.2260680988083930e+01 -8.4429789450314203e+00 -7 -1 5
2278 760 1 -8.1999999999999995e-01 -1.4723126665054306e+01 -1.0634263529841903e+01 -1.3801734945609486e+01 -6 -1 0
2437 813 1 -8.1999999999999995e-01 -1.0074368796358218e+01 -5.9375302421026230e+00 -1.2708003147771471e+01 0 4 3
1304 435 2 4.0999999999999998e-01 -1.4219124171495215e+01 -8.7469012095951051e+00 -9.4009604848100388e+00 2 1 2
472 158 1 -8.1999999999999995e-01 -1.2684249983796677e+01 -9.4631981231764080e+00 -8.8209395798414594e+00 -5 0 -3
2439 813 2 4.0999999999999998e-01 -1.0542162564052553e+01 -6.7958161168510891e+00 -1.2496908392660865e+01 0 4 3
1129 377 1 -8.1999999999999995e-01 -1.2576690134486821e+01 -5.3337919187341711e+00 -9.4422292785057778e+00 -2 3 2
1398 466 2 4.0999999999999998e-01 -1.1380938163508963e+01 -1.3742915629152638e+01 -1.4206179808364340e+01 0 0 -2
1431 477 2 4.0999999999999998e-01 -1.3564874774097561e+01 -1.3782320605963761e+01 -1.5078153728754112e+01 2 4 7
1530 510 2 4.0999999999999998e-01 -8.8773844000125663e+00 -8.8136359607304442e+00 -1.3419187546278389e+01 2 2 -1
2438 813 2 4.0999999999999998e-01 -9.1774302790405216e+00 -5.9292834659641205e+00 -1.2265872012943969e+01 0 4 3
1529 510 2 4.0999999999999998e-01 -8.3948979026509178e+00 -9.8336509839668604e+00 -1.2238710107318767e+01 2 2 -1
1528 510 1 -8.1999999999999995e-01 -8.2216245590190287e+00 -9.5280568344043530e+00 -1.3174998101023334e+01 2 2 -1
221 74 2 4.0999999999999998e-01 -1.1391122964886474e+01 -7.5508861199799373e+00 -1.4600238665592059e+01 -5 -1 0
1303 435 1 -8.1999999999999995e-01 -1.5073085343349243e+01 -8.3881089428910958e+00 -9.7778756960250313e+00 2 1 2
721 241 1 -8.1999999999999995e-01 -7.8286931878833688e+00 -1.2252207714962255e+01 -1.3618071464229663e+01 -1 -1 -2
722 241 2 4.0999999999999998e-01 -8.0224115480016813e+00 -1.2730439297407733e+01 -1.4474701128880275e+01 -1 -1 -2
2057 686 2 4.0999999999999998e-01 -8.7420754767897613e+00 -5.3200736452692059e+00 -8.9125292136309469e+00 0 -2 4
1770 590 2 4.0999999999999998e-01 -1.0231078261291694e+01 -5.0298423036160003e+00 -1.4154521603836347e+01 2 0 7
1130 377 2 4.0999999999999998e-01 -1.2900438599568201e+01 -5.1427223111870504e+00 -8.5155545920216440e+00 -2 3 2
348 116 2 4.0999999999999998e-01 -1.4532367727262429e+01 -6.9650717926317842e+00 -1.1103877360475146e+01 5 3 -4
370 124 1 -8.1999999999999995e-01 -1.4561079121652574e+01 -1.3903795261897745e+01 -1.3174044430119899e+01 -7 2 4
1396 466 1 -8.1999999999999995e-01 -1.0701314119274283e+01 -1.4450697119476002e+01 -1.4013298615796547e+01 0 0 -2
371 124 2 4.0999999999999998e-01 -1.4620430822999012e+01 -1.3190599570307672e+01 -1.2475563266389360e+01 -7 2 4
1199 400 2 4.0999999999999998e-01 -1.3754822206338496e+01 -1.1697285770687888e+01 -1.1078023922890889e+01 -4 1 -3
1198 400 1 -8.1999999999999995e-01 -1.4636614803737277e+01 -1.2163386045615288e+01 -1.1150404755351142e+01 -4 1 -3
2280 760 2 4.0999999999999998e-01 -1.4577846901294652e+01 -1.1623648191137569e+01 -1.3794092169847556e+01 -6 -1 0
138 46 2 4.0999999999999998e-01 -1.3403565950389119e+01 -5.4299081178614781e+00 -1.4873404232721768e+01 -1 0 0
1572 524 2 4.0999999999999998e-01 -1.3132398085195536e+01 -1.0389209462740949e+01 -7.5525621001889460e+00 0 5 5
2543 848 2 4.0999999999999998e-01 -7.1005926281211966e+00 -8.8527534013409941e+00 -7.7507044925869568e+00 0 3 3
620 207 2 4.0999999999999998e-01 -1.6796773957023881e-01 -9.1827698302806073e+00 -7.7705854148975542e+00 1 2 -1
447 149 2 4.0999999999999998e-01 -7.0035470428289557e+00 -1.3679981431835692e+01 -8.3115988003195973e+00 1 2 1
357 119 2 4.0999999999999998e-01 -6.7304677286446140e+00 -1.2704530424779872e+01 -1.0717073261116548e+01 -7 1 0
1459 487 1 -8.1999999999999995e-01 -3.6161318022143227e+00 -5.6958428613471295e+00 -1.3097446608391696e+01 -1 -1 -2
96 32 2 4.0999999999999998e-01 -2.6487360100409330e+00 -9.9759386321744774e+00 -7.7772610593054985e+00 -7 4 2
1975 659 1 -8.1999999999999995e-01 -6.3787016924564774e+00 -9.0526386863828421e+00 -9.3060106746000280e+00 -2 1 -3
2284 762 1 -8.1999999999999995e-01 -4.8308199059275783e+00 -1.2686804719082799e+01 -1.4953415724222777e+01 -5 -3 3
1681 561 1 -8.1999999999999995e-01 -5.5414470596449519e+00 -6.7511208576131079e+00 -8.1414761239542166e+00 1 -2 2
984 328 2 4.0999999999999998e-01 -3.7297741682540000e+00 -1.1676594501930053e+01 -9.0082568729998869e+00 -3 3 3
2340 780 2 4.0999999999999998e-01 -7.9867923371662819e-01 -1.2734204724129430e+01 -8.9913019066728772e+00 -4 6 2
744 248 2 4.0999999999999998e-01 -6.6762222147905792e+00 -6.4362435024363212e+00 -1.1745399831658334e+01 -5 6 3
355 119 1 -8.1999999999999995e-01 -6.9904956397978495e+00 -1.3516760549216903e+01 -1.1239293863743969e+01 -7 1 0
128 43 2 4.0999999999999998e-01 -2.7509051566975309e+00 -1.3905758141705315e+01 -8.5225788855163209e+00 3 0 2
2324 775 2 4.0999999999999998e-01 -5.7606465757841345e+00 -1.0928465347160103e+01 -1.4788439053474796e+01 -2 4 8
127 43 1 -8.1999999999999995e-01 -2.4947602664250255e+00 -1.3165941638628132e+01 -9.1447589141062924e+00 3 0 2
1818 606 2 4.0999999999999998e-01 -2.0249770634075244e+00 -8.1496523773584109e+00 -8.4038710192654964e+00 -1 4 2
1976 659 2 4.0999999999999998e-01 -5.7272444097272395e+00 -9.8101690381288904e+00 -9.3484114324685379e+00 -2 1 -3
1977 659 2 4.0999999999999998e-01 -5.9079429530349934e+00 -8.2248676955042210e+00 -9.0006779950418938e+00 -2 1 -3
446 149 2 4.0999999999999998e-01 -6.0769599670099765e+00 -1.2335390174932790e+01 -8.2954241304352401e+00 1 2 1
1648 550 1 -8.1999999999999995e-01 -1.7618938117948506e+00 -1.4602027727625028e+01 -1.1568582371192013e+01 -8 -1 0
1294 432 1 -8.1999999999999995e-01 -5.2311896241358546e-01 -8.0273271036903004e+00 -1.2336400130638200e+01 -7 0 3
1683 561 2 4.0999999999999998e-01 -5.6491705589578913e+00 -5.7854551878348399e+00 -7.9049764279140868e+00 1 -2 2
2059 687 1 -8.1999999999999995e-01 -3.9781031749907161e+00 -1.0634055646025971e+01 -1.2240388883969665e+01 -4 8 3
356 119 2 4.0999999999999998e-01 -7.1011645028726536e+00 -1.3272331959696288e+01 -1.2202649312354044e+01 -7 1 0
2060 687 2 4.0999999999999998e-01 -4.7814096460714879e+00 -1.0612580242697748e+01 -1.2835606623065191e+01 -4 8 3
2061 687 2 4.0999999999999998e-01 -3.2884076657065222e+00 -1.1242424358589773e+01 -1.2633141044618046e+01 -4 8 3
983 328 2 4.0999999999999998e-01 -4.1517878436801059e+00 -1.0831487999728219e+01 -1.0340341818428723e+01 -3 3 3
129 43 2 4.0999999999999998e-01 -2.3130022776936254e+00 -1.3542339679507927e+01 -1.0053238529919483e+01 3 0 2
1612 538 1 -8.1999999999999995e-01 -3.0154510391164333e+00 -8.0781215595932938e+00 -1.1307124033428385e+01 0 -2 -2
2323 775 1 -8.1999999999999995e-01 -5.7962180353037649e+00 -9.9871049784332193e+00 -1.4452847070197160e+01 -2 4 8
1817 606 2 4.0999999999999998e-01 -2.8217703163515200e+00 -7.5988547889490539e+00 -9.7185928210650872e+00 -1 4 2
742 248 1 -8.1999999999999995e-01 -7.2021037502480656e+00 -5.6528596728181455e+00 -1.2076768229962360e+01 -5 6 3
1461 487 2 4.0999999999999998e-01 -3.6939046971590006e+00 -6.4664835637225533e+00 -1.2464903390498840e+01 -1 -1 -2
37 13 1 -8.1999999999999995e-01 -2.3965988698457306e+00 -1.2700425495972262e+01 -1.3527242905656195e+01 -2 4 4
1650 550 2 4.0999999999999998e-01 -1.8669594505964504e+00 -1.3945385624820327e+01 -1.2315461919818539e+01 -8 -1 0
445 149 1 -8.1999999999999995e-01 -7.0106738132553144e+00 -1.2682550315642374e+01 -8.3832021001958950e+00 1 2 1
38 13 2 4.0999999999999998e-01 -3.2585263116393577e+00 -1.2674880383315367e+01 -1.4033676684831359e+01 -2 4 4
29 10 2 4.0999999999999998e-01 -1.4594615308969416e+00 -7.7297125046145787e+00 -1.4117051767429265e+01 -3 0 1
1613 538 2 4.0999999999999998e-01 -2.0854185439316826e+00 -8.0886800086125152e+00 -1.1674513126594324e+01 0 -2 -2
1682 561 2 4.0999999999999998e-01 -4.5684903899744480e+00 -6.9800561191892871e+00 -8.1729499939034405e+00 1 -2 2
2325 775 2 4.0999999999999998e-01 -6.5998261072078073e+00 -9.8715256769219852e+00 -1.3868978817837576e+01 -2 4 8
1816 606 1 -8.1999999999999995e-01 -2.5887822667315081e+00 -7.4069521350575487e+00 -8.7652111452809791e+00 -1 4 2
39 13 2 4.0999999999999998e-01 -1.6353405220255066e+00 -1.2545080474832373e+01 -1.4156846199152177e+01 -2 4 4
982 328 1 -8.1999999999999995e-01 -4.2397563280569894e+00 -1.0885310376564608e+01 -9.3456502369540324e+00 -3 3 3
1614 538 2 4.0999999999999998e-01 -3.4978795207319102e+00 -8.9046137137015293e+00 -1.1597331121312028e+01 0 -2 -2
1477 493 1 -8.1999999999999995e-01 -6.4581909182134289e-01 -5.7044150968336016e+00 -7.8179151810340208e+00 -3 5 2
1478 493 2 4.0999999999999998e-01 -1.4918867318202640e+00 -6.1644821657033777e+00 -8.0872745454547612e+00 -3 5 2
1460 487 2 4.0999999999999998e-01 -2.6747016807160513e+00 -5.3585657207672579e+00 -1.3097749435094304e+01 -1 -1 -2
680 227 2 4.0999999999999998e-01 -9.9858429994285700e+00 -8.4126827216601754e+00 -4.8499657136934928e+00 -6 6 2
679 227 1 -8.1999999999999995e-01 -1.0160890905842026e+01 -9.2507066236868827e+00 -4.3331284004681585e+00 -6 6 2
2193 731 2 4.0999999999999998e-01 -8.9864211813071897e+00 -6.7060331982783214e+00 -4.7676811663644383e+00 -3 1 2
2191 731 1 -8.1999999999999995e-01 -9.9578705131094249e+00 -6.6271699910554283e+00 -4.5438208881855395e+00 -3 1 2
414 138 2 4.0999999999999998e-01 -1.3362431011144961e+01 -8.9546886487329562e+00 -3.7910159161745902e+00 -3 5 0
1071 357 2 4.0999999999999998e-01 -1.1571295682227385e+01 -1.4131304214710907e+01 -5.7898626668230442e+00 -1 1 0
1069 357 1 -8.1999999999999995e-01 -1.0748971810775707e+01 -1.4071401718995986e+01 -5.2239635737512220e+00 -1 1 0
1903 635 1 -8.1999999999999995e-01 -1.4199297638564664e+01 -6.8142348403749295e+00 -5.9466452542850377e+00 0 3 2
2192 731 2 4.0999999999999998e-01 -1.0400326270407081e+01 -6.0083061074625341e+00 -5.1928871643972148e+00 -3 1 2
1042 348 1 -8.1999999999999995e-01 -8.2980803480200169e+00 -9.3897096793996262e+00 -1.9817893536972413e+00 -2 -3 4
1497 499 2 4.0999999999999998e-01 -1.1307457920603021e+01 -7.8375859315682757e+00 -2.0621057079079090e+00 0 7 2
1044 348 2 4.0999999999999998e-01 -8.2417020657413644e+00 -1.0106371804913238e+01 -2.6769609306227391e+00 -2 -3 4
1496 499 2 4.0999999999999998e-01 -1.0491792651476683e+01 -9.1393019305832368e+00 -1.5080511444863856e+00 0 7 2
412 138 1 -8.1999999999999995e-01 -1.3054069584401320e+01 -9.7903261729193751e+00 -4.2456254256007959e+00 -3 5 0
1043 348 2 4.0999999999999998e-01 -8.6857240467089589e+00 -8.5618181630845207e+00 -2.3872207710175051e+00 -2 -3 4
958 320 1 -8.1999999999999995e-01 -9.8072086968344259e+00 -1.2705242958770389e+01 -3.0824523083437860e+00 -4 -3 3
413 138 2 4.0999999999999998e-01 -1.2071917724680878e+01 -9.9070954912913116e+00 -4.0980134822595513e+00 -3 5 0
682 228 1 -8.1999999999999995e-01 -1.4469115300536066e+01 -1.1024957360658188e+01 -2.2949099852471111e+00 -8 3 -1
1495 499 1 -8.1999999999999995e-01 -1.1328169492967595e+01 -8.5991737501985650e+00 -1.4143390395945286e+00 0 7 2
959 320 2 4.0999999999999998e-01 -8.8635449169892109e+00 -1.2685783862151027e+01 -2.7520485022771375e+00 -4 -3 3
683 228 2 4.0999999999999998e-01 -1.4016859659270011e+01 -1.0998823681535949e+01 -3.1864415326867412e+00 -8 3 -1
960 320 2 4.0999999999999998e-01 -9.8170234037345381e+00 -1.2965596775995925e+01 -4.0479398499012103e+00 -4 -3 3
307 103 1 -8.1999999999999995e-01 -1.4298440738073584e+01 -7.7143705885444707e+00 -3.1033391761165756e+00 -3 0 3
309 103 2 4.0999999999999998e-01 -1.4563998650774577e+01 -6.7541021132821228e+00 -3.0172572410328833e+00 -3 0 3
162 54 2 4.0999999999999998e-01 -1.3651729705062454e+01 -1.2990547523033179e+01 -1.1486684081639496e+00 -7 -1 1
728 243 2 4.0999999999999998e-01 -8.9031011929698032e+00 -5.6724869966152909e+00 -3.0142558714155268e+00 -7 -3 -2
2141 714 2 4.0999999999999998e-01 -1.0877510452889773e+01 -1.2106989028708327e+01 -1.6639982799149404e+00 -3 -2 -5
1570 524 1 -8.1999999999999995e-01 -1.3449879169914338e+01 -1.0866600021207951e+01 -6.7332021774470956e+00 0 5 5
1667 556 2 4.0999999999999998e-01 -8.4122470727446448e+00 -1.1127300567132657e+01 -4.9010066758210726e+00 4 -1 -4
2420 807 2 4.0999999999999998e-01 -1.4285658492328430e+01 -1.0201843751735399e+01 -6.6683026541928214e-01 -1 0 7
2140 714 1 -8.1999999999999995e-01 -1.1212710958274066e+01 -1.1711258322412426e+01 -8.0896350098617020e-01 -3 -2 -5
1905 635 2 4.0999999999999998e-01 -1.4099389672956432e+01 -7.1211424888587862e+00 -5.0001397041626561e+00 0 3 2
308 103 2 4.0999999999999998e-01 -1.4247936137232719e+01 -8.1289765209797835e+00 -2.1947150298362725e+00 -3 0 3
681 227 2 4.0999999999999998e-01 -1.0051678076668477e+01 -1.0042181109578483e+01 -4.9345328813176224e+00 -6 6 2
1636 546 1 -8.1999999999999995e-01 -1.0001689457936303e+01 -1.1295394901852223e+01 -5.9846363092184767e+00 -3 6 1
1560 520 2 4.0999999999999998e-01 -1.3468525405792187e+01 -5.2429916663888161e+00 -6.4473064133333402e+00 -2 3 0
2493 831 2 4.0999999999999998e-01 -1.3267751019359496e+01 -1.4456100758063538e+01 -7.0446870383150255e+00 0 5 -2
1571 524 2 4.0999999999999998e-01 -1.3330679578568027e+01 -1.0275219920838852e+01 -5.9356385686964686e+00 0 5 5
1904 635 2 4.0999999999999998e-01 -1.5028226093411387e+01 -7.2117609684438717e+00 -6.3402151227254162e+00 0 3 2
727 243 1 -8.1999999999999995e-01 -8.3533039052785600e+00 -5.4948273074503291e+00 -2.1980410662538965e+00 -7 -3 -2
812 271 2 4.0999999999999998e-01 -8.6062973958599773e+00 -5.8468848607094515e+00 -5.8074656065929275e-01 -4 3 0
540 180 2 4.0999999999999998e-01 -1.4623377943276846e+01 -1.5057847373295504e+01 -4.4660650749535158e+00 -3 4 2
1637 546 2 4.0999999999999998e-01 -1.0408538623144434e+01 -1.2096157310134585e+01 -5.5449773918261869e+00 -3 6 1
384 128 2 4.0999999999999998e-01 -1.3021965942451969e+01 -1.2448162792481412e+01 -7.5091610940274993e+00 -4 4 2
1070 357 2 4.0999999999999998e-01 -1.0508452929760638e+01 -1.4982090988205835e+01 -4.8880433958702287e+00 -1 1 0
1638 546 2 4.0999999999999998e-01 -9.8871409185918075e+00 -1.1473901719848081e+01 -6.9619083209161037e+00 -3 6 1
259 87 1 -8.1999999999999995e-01 -1.4864725760651158e+01 -5.1225460939632228e+00 -2.8278930125031874e+00 -2 1 3
160 54 1 -8.1999999999999995e-01 -1.3867292841237820e+01 -1.3661116820067381e+01 -4.3879800904899113e-01 -7 -1 1
2542 848 1 -8.1999999999999995e-01 -7.6320360172338715e+00 -8.9437838188707772e+00 -6.9084883505202903e+00 0 3 3
998 333 2 4.0999999999999998e-01 -8.8391086699463060e+00 -1.5072985408172233e+01 -2.5161866551365666e+00 -5 2 -1
2142 714 2 4.0999999999999998e-01 -1.1386944400554356e+01 -1.0735177853680494e+01 -9.3917968745772917e-01 -3 -2 -5
2544 848 2 4.0999999999999998e-01 -8.5078569434033504e+00 -8.4728764905864793e+00 -7.0144630087277484e+00 0 3 3
1810 604 1 -8.1999999999999995e-01 -1.4974507358892417e+00 -5.8053769201296070e+00 -5.7278437909238988e-01 -1 -2 8
2241 747 2 4.0999999999999998e-01 -5.0018476412460906e+00 -1.2165215264466303e+01 -3.0442397887252426e-01 -5 0 0
1505 502 2 4.0999999999999998e-01 -7.2058917785727816e+00 -1.0088796198384420e+01 -1.0691726019694272e+00 -2 -3 2
802 268 1 -8.1999999999999995e-01 -7.4486789479964237e+00 -1.2715695758825863e+01 -1.9235090499072118e+00 -3 5 -4
1690 564 1 -8.1999999999999995e-01 -3.2120435695456209e+00 -1.5054739663946574e+01 -5.9866335645519975e-01 2 3 2
693 231 2 4.0999999999999998e-01 -2.6125970085081995e-01 -9.7157855714332335e+00 -8.2914183871000269e-01 4 -3 3
159 53 2 4.0999999999999998e-01 -4.9445727840792113e+00 -1.4705912379160921e+01 -2.8878175938294888e+00 -7 2 2
803 268 2 4.0999999999999998e-01 -7.0396514987273235e+00 -1.1838121873595195e+01 -1.6732946089316343e+00 -3 5 -4
1386 462 2 4.0999999999999998e-01 -4.9254356599055349e-01 -1.4954201485342701e+01 -6.7804009008957600e+00 -7 -8 0
1504 502 1 -8.1999999999999995e-01 -6.5047079167413742e+00 -1.0629488238591490e+01 -6.0437163742821198e-01 -2 -3 2
804 268 2 4.0999999999999998e-01 -7.3064596938135056e+00 -1.3372868145863341e+01 -1.1832761153275282e+00 -3 5 -4
450 150 2 4.0999999999999998e-01 -3.1220307660476685e+00 -6.0428137835073912e+00 -5.8061752149844335e+00 -3 1 -2
691 231 1 -8.1999999999999995e-01 -1.2308006328769086e+00 -9.8559858136856864e+00 -6.2819180871155211e-01 4 -3 3
1692 564 2 4.0999999999999998e-01 -3.0146255535703919e+00 -1.4099635708420156e+01 -8.1968193047654836e-01 2 3 2
448 150 1 -8.1999999999999995e-01 -2.3976838666010281e+00 -5.3845147792321182e+00 -5.6012102604590961e+00 -3 1 -2
764 255 2 4.0999999999999998e-01 -1.9142592574961128e+00 -8.7104359813585468e+00 -1.8560465364692238e+00 -1 1 1
789 263 2 4.0999999999999998e-01 -5.5297408150109622e+00 -7.8208317542893306e+00 -1.6239266790149607e+00 -2 -2 -3
1666 556 1 -8.1999999999999995e-01 -7.4617647675254668e+00 -1.0838519913653194e+01 -4.7859598309622502e+00 4 -1 -4
2526 842 2 4.0999999999999998e-01 -4.0454810545948661e-01 -1.1608754994999039e+01 -5.2623169085446921e+00 -3 2 6
360 120 2 4.0999999999999998e-01 -1.4661245273064942e+00 -7.6610375888716797e+00 -3.8813806281684062e+00 1 -1 4
56 19 2 4.0999999999999998e-01 -1.3988148376784384e+00 -1.1587058400274449e+01 -1.1350809930082022e+00 -6 3 5
1668 556 2 4.0999999999999998e-01 -7.2195005656019386e+00 -1.0193052297796545e+01 -5.5103397564042798e+00 4 -1 -4
763 255 1 -8.1999999999999995e-01 -2.4147360079901254e+00 -8.3819303473701847e+00 -2.6570794369245867e+00 -1 1 1
2525 842 2 4.0999999999999998e-01 -1.9320806002157269e+00 -1.1341896899234744e+01 -4.7502797316411964e+00 -3 2 6
1172 391 2 4.0999999999999998e-01 -3.8530987704510569e+00 -1.1784662901226628e+01 -3.7612950849822244e+00 2 2 5
2524 842 1 -8.1999999999999995e-01 -1.1666609964909451e+00 -1.0961311986906988e+01 -5.2692542939618274e+00 -3 2 6
1171 391 1 -8.1999999999999995e-01 -3.0440822850302656e+00 -1.2362263442556200e+01 -3.8704582892113475e+00 2 2 5
358 120 1 -8.1999999999999995e-01 -8.8564124803250976e-01 -7.1724549998924614e+00 -4.5328197163280972e+00 1 -1 4
931 311 1 -8.1999999999999995e-01 -5.0452836867337503e+00 -1.0530954872457826e+01 -3.4845653480101291e+00 -5 -1 -4
232 78 1 -8.1999999999999995e-01 -1.5257925443152747e+00 -1.4479776989537493e+01 -5.3638744978760897e+00 -1 2 0
932 311 2 4.0999999999999998e-01 -5.9180328557666879e+00 -1.0729948552737408e+01 -3.9303871172126197e+00 -5 -1 -4
765 255 2 4.0999999999999998e-01 -3.3671609040112909e+00 -8.2079161085325651e+00 -2.4067746264168104e+00 -1 1 1
233 78 2 4.0999999999999998e-01 -2.0426719950291545e+00 -1.3916276182174132e+01 -4.7193986545849924e+00 -1 2 0
561 187 2 4.0999999999999998e-01 -4.4307980064924841e+00 -8.5447703956466707e+00 -5.3233197281703148e+00 -1 3 6
342 114 2 4.0999999999999998e-01 -6.6099622137242555e+00 -7.4752525047390384e+00 -5.3738174665582257e+00 -5 3 3
95 32 2 4.0999999999999998e-01 -1.5421849471466107e+00 -1.0157138156577332e+01 -6.5900532606161715e+00 -7 4 2
1173 391 2 4.0999999999999998e-01 -2.5861668601891399e+00 -1.2464873362119469e+01 -2.9873777036679083e+00 2 2 5
560 187 2 4.0999999999999998e-01 -2.8866839264881143e+00 -8.1848347140139293e+00 -5.7143553545857397e+00 -1 3 6
341 114 2 4.0999999999999998e-01 -5.9974053641434519e+00 -6.0063635050927751e+00 -5.0079075635115711e+00 -5 3 3
340 114 1 -8.1999999999999995e-01 -6.7404780218466698e+00 -6.6499508388301969e+00 -4.8243728190036848e+00 -5 3 3
559 187 1 -8.1999999999999995e-01 -3.8235553996028031e+00 -7.8364718770934676e+00 -5.6833423139808055e+00 -1 3 6
359 120 2 4.0999999999999998e-01 -1.4367105952338708e+00 -6.5071849097564822e+00 -5.0365904285894771e+00 1 -1 4
933 311 2 4.0999999999999998e-01 -5.0797728833760232e+00 -9.6185750906842973e+00 -3.0766189461219700e+00 -5 -1 -4
57 19 2 4.0999999999999998e-01 -1.0740640947598159e+00 -1.3033560935775775e+01 -4.5030496043756152e-01 -6 3 5
788 263 2 4.0999999999999998e-01 -5.5270866298425805e+00 -7.1296099506962625e+00 -3.1034388341942503e+00 -2 -2 -3
55 19 1 -8.1999999999999995e-01 -1.6356323555599364e+00 -1.2558609874819719e+01 -1.1278809538359287e+00 -6 3 5
787 263 1 -8.1999999999999995e-01 -5.1136742698171354e+00 -7.8394312010321192e+00 -2.5330962634499024e+00 -2 -2 -3
449 150 2 4.0999999999999998e-01 -1.8718710832737724e+00 -5.1983102271855284e+00 -6.4312075019692880e+00 -3 1 -2
1811 604 2 4.0999999999999998e-01 -1.2083472569355322e+00 -6.5981172315663290e+00 -1.1094673452158279e+00 -1 -2 8
91 31 1 -8.1999999999999995e-01 -6.5866813651530745e+00 -1.4956982441230135e+01 -1.5075360276464700e-01 0 5 1
94 32 1 -8.1999999999999995e-01 -1.7488406518663311e+00 -9.6886806200889435e+00 -7.4490571268046626e+00 -7 4 2
698 233 2 4.0999999999999998e-01 -1.1192847285213848e+01 -7.8566161181810381e+00 5.3385220166122771e-01 -5 5 3
2419 807 1 -8.1999999999999995e-01 -1.4897227200054651e+01 -9.8415111422131965e+00 3.7577831868576439e-02 -1 0 7
2495 832 2 4.0999999999999998e-01 -1.2236240423973886e+01 -8.5712698028494323e+00 4.4675780777086711e+00 0 -2 4
385 129 1 -8.1999999999999995e-01 -1.1676348747821020e+01 -1.1006098816968432e+01 5.3160423846796672e+00 2 -2 3
2494 832 1 -8.1999999999999995e-01 -1.3083185846703142e+01 -8.9258302606126207e+00 4.0713243906904832e+00 0 -2 4
1711 571 1 -8.1999999999999995e-01 -1.0721796534560969e+01 -8.1510236801711713e+00 5.1181055899859285e+00 2 2 -1
2496 832 2 4.0999999999999998e-01 -1.3864308929813486e+01 -8.4442169163692782e+00 4.4687435338500006e+00 0 -2 4
386 129 2 4.0999999999999998e-01 -1.1665080745037889e+01 -1.0027891789964627e+01 5.1086039642337315e+00 2 -2 3
205 69 1 -8.1999999999999995e-01 -1.0099666272093465e+01 -1.2567374962262285e+01 3.8106233076516691e+00 -4 2 0
207 69 2 4.0999999999999998e-01 -1.0358933512662286e+01 -1.2992336741309932e+01 2.9433087029891372e+00 -4 2 0
387 129 2 4.0999999999999998e-01 -1.1141748651025960e+01 -1.1498646929913056e+01 4.6292776783782816e+00 2 -2 3
1712 571 2 4.0999999999999998e-01 -9.9807734321647779e+00 -8.2795937941159323e+00 4.4590144522354986e+00 2 2 -1
822 274 2 4.0999999999999998e-01 -1.1785283928274543e+01 -1.4121048480299452e+01 1.1262856743369252e+00 -1 -1 1
1713 571 2 4.0999999999999998e-01 -1.0610787782234766e+01 -7.2692874026665821e+00 5.5766520461109845e+00 2 2 -1
1390 464 1 -8.1999999999999995e-01 -1.0245630444008473e+01 -5.6633622974843352e+00 6.4771875125398974e+00 -4 2 2
699 233 2 4.0999999999999998e-01 -1.2045141852900503e+01 -6.5461466273621074e+00 1.0060963462214811e+00 -5 5 3
876 292 2 4.0999999999999998e-01 -1.3567201338901393e+01 -1.2050394908518651e+01 2.7833585323660390e+00 -1 -3 0
697 233 1 -8.1999999999999995e-01 -1.1127919230104483e+01 -6.9335736031471455e+00 9.1309288557943979e-01 -5 5 3
206 69 2 4.0999999999999998e-01 -9.7718555513434371e+00 -1.3270617992040512e+01 4.4415242606731429e+00 -4 2 0
1531 511 1 -8.1999999999999995e-01 -8.3253954383236923e+00 -8.9730594466926004e+00 3.2897054678590774e+00 -3 -2 4
1591 531 1 -8.1999999999999995e-01 -1.3321289279571452e+01 -1.3507287489314651e+01 5.0762220394711211e+00 -4 4 0
1593 531 2 4.0999999999999998e-01 -1.2770936835837308e+01 -1.2673724756698252e+01 5.1245128365591359e+00 -4 4 0
2160 720 2 4.0999999999999998e-01 -1.4270243493173101e+01 -1.4768629564684836e+01 4.1083511330712827e+00 -8 3 2
899 300 2 4.0999999999999998e-01 -1.4405491726432093e+01 -8.1907832124749902e+00 2.4890263039998199e+00 -6 -1 -2
2335 779 1 -8.1999999999999995e-01 -1.4553384059319320e+01 -5.2970446965298432e+00 5.9978659521588771e+00 -5 0 5
2470 824 1 -8.1999999999999995e-01 -8.3553889589760360e+00 -1.3754681064681549e+01 1.5661950620635690e+00 -7 3 -3
1592 531 2 4.0999999999999998e-01 -1.3018294763979693e+01 -1.4148088412259000e+01 5.7816404680216369e+00 -4 4 0
811 271 1 -8.1999999999999995e-01 -8.5538969743738864e+00 -5.7778846828524948e+00 4.1551636769610312e-01 -4 3 0
2337 779 2 4.0999999999999998e-01 -1.4763312752731895e+01 -6.2492456111085364e+00 5.7758523866326055e+00 -5 0 5
194 65 2 4.0999999999999998e-01 -1.4471037023282172e+01 -5.4898271454850658e+00 7.4806807443654399e-01 -3 0 -2
875 292 2 4.0999999999999998e-01 -1.3530862577007097e+01 -1.0444031466372429e+01 3.0749523017531271e+00 -1 -3 0
2472 824 2 4.0999999999999998e-01 -9.3336338449063216e+00 -1.3754835728595472e+01 1.3586292232652024e+00 -7 3 -3
597 199 2 4.0999999999999998e-01 -8.1496561030127666e+00 -1.1203348704821082e+01 5.7905399899587788e+00 -3 0 5
874 292 1 -8.1999999999999995e-01 -1.4009335424857259e+01 -1.1174908384213028e+01 2.5881984380421468e+00 -1 -3 0
2471 824 2 4.0999999999999998e-01 -7.8497522821421679e+00 -1.4130002564435282e+01 7.8933473817085797e-01 -7 3 -3
813 271 2 4.0999999999999998e-01 -9.3231601278686149e+00 -6.2687701335605759e+00 8.2455465214859558e-01 -4 3 0
161 54 2 4.0999999999999998e-01 -1.4514216758376572e+01 -1.3262213780698676e+01 2.1113465842433143e-01 -7 -1 1
1586 529 2 4.0999999999999998e-01 -7.9772530148299019e+00 -1.0706761407736931e+01 4.9935222688061209e-01 0 1 6
911 304 2 4.0999999999999998e-01 -1.0538698782566104e+01 -1.1412649297215562e+01 6.8294666917953801e+00 -2 2 -4
1585 529 1 -8.1999999999999995e-01 -8.5604118156115767e+00 -1.0630853244097899e+01 1.3081849616838443e+00 0 1 6
1533 511 2 4.0999999999999998e-01 -8.5738570915201642e+00 -9.5888756225513418e+00 2.5419863263280167e+00 -3 -2 4
2421 807 2 4.0999999999999998e-01 -1.4711899117160213e+01 -1.0300525931950315e+01 9.0648839168603956e-01 -1 0 7
2001 667 2 4.0999999999999998e-01 -1.3385624294803353e+01 -5.6560653406828933e+00 7.1522026196261503e+00 2 4 -1
821 274 2 4.0999999999999998e-01 -1.0996101434473449e+01 -1.2848836984039192e+01 4.7404356134562775e-01 -1 -1 1
1078 360 1 -8.1999999999999995e-01 -1.2583593863909876e+01 -5.3342225980785791e+00 3.9248704570905968e+00 -2 8 -1
1391 464 2 4.0999999999999998e-01 -9.5344350050971709e+00 -5.5264984259392875e+00 7.1667641776346809e+00 -4 2 2