LAMMPS data file via write_data, version 15 May 2015, timestep = 1009000

2593 atoms
6 atom types
1728 bonds
4 bond types
864 angles
3 angle types
0 dihedrals
3 dihedral types
0 impropers
1 improper types

-1.5034228328034665e+01 1.5034228328034665e+01 xlo xhi
-1.5034228328034665e+01 1.5034228328034665e+01 ylo yhi
-1.5034228328034665e+01 1.5034228328034665e+01 zlo zhi

Masses

1 15.9994
2 1.00794
3 12.0107
4 1.00794
5 12.0107
6 12.0107

Bond Coeffs # harmonic

1 1000 1
2 469 1.4
3 367 1.08
4 469 0.7

Angle Coeffs # harmonic

1 100 109.47
2 35 120
3 63 120

Dihedral Coeffs # opls

1 0 7.25 0 0
2 0 7.25 0 0
3 0 7.25 0 0

Improper Coeffs # cvff

1 2.5 -1 2

Atoms # full

1231 411 1 -8.1999999999999995e-01 -8.0850239097659582e+00 -1.3486568450464734e+01 -1.0011222957995404e+01 0 1 -1
845 282 2 4.0999999999999998e-01 -5.2133428898187990e+00 -4.8606047631700715e+00 -8.2811949113446310e+00 -1 0 0
400 134 1 -8.1999999999999995e-01 -8.0156289197175035e+00 -1.2504338291514191e+01 -1.4750423880762543e+01 0 1 0
137 46 2 4.0999999999999998e-01 -1.0561986148857805e+01 -1.7737957600069976e-01 -1.0543796805023948e+01 0 -1 0
1542 514 2 4.0999999999999998e-01 -8.5154179076159053e+00 -1.0353429026480061e+01 -7.6838185236869778e+00 1 1 1
2124 708 2 4.0999999999999998e-01 -1.3862724710659764e+01 -1.4104584684430582e+01 -1.2773558352524287e+01 0 1 -1
1540 514 1 -8.1999999999999995e-01 -9.4757303819738574e+00 -1.0436461057846884e+01 -7.9500000407100107e+00 1 1 1
2224 742 1 -8.1999999999999995e-01 -1.3811583389558361e+01 -9.2296156211840721e+00 -1.0658821535152693e+01 -1 1 1
1671 557 2 4.0999999999999998e-01 -8.1712829790089856e+00 -1.0465616415629249e+01 -1.0798307277628144e+01 -1 0 0
1669 557 1 -8.1999999999999995e-01 -9.1260692981166152e+00 -1.0700413666626210e+01 -1.0616097726754568e+01 -1 0 0
2023 675 1 -8.1999999999999995e-01 -6.7933157153875054e+00 -9.9160939135112312e+00 -7.7294346316897293e+00 0 0 0
2025 675 2 4.0999999999999998e-01 -6.5412578615765149e+00 -1.0021508971599667e+01 -8.6913607046560077e+00 0 0 0
528 176 2 4.0999999999999998e-01 -1.0971659577641301e+01 -9.7893462044672095e+00 -8.4982121044449386e+00 0 1 -1
1670 557 2 4.0999999999999998e-01 -9.3488475735193326e+00 -1.0477536474564392e+01 -9.6670758200922222e+00 -1 0 0
2582 861 2 4.0999999999999998e-01 -5.5618276752549018e+00 -7.4868329933833779e+00 -1.4305988231395245e+01 0 1 0
812 271 2 4.0999999999999998e-01 -1.3589232822521243e+01 -1.0703896693869954e+01 -1.3462304543869413e+01 0 1 0
2342 781 2 4.0999999999999998e-01 -9.6582362133849546e+00 -1.1011048073814443e+01 -1.2449046223761455e+01 -1 1 -2
2343 781 2 4.0999999999999998e-01 -1.1245997846857126e+01 -1.1225931236764767e+01 -1.2764202693758428e+01 -1 1 -2
2341 781 1 -8.1999999999999995e-01 -1.0318568300899543e+01 -1.1498093603818708e+01 -1.3020618783610860e+01 -1 1 -2
811 271 1 -8.1999999999999995e-01 -1.2853039186864530e+01 -1.0798125586484378e+01 -1.2792165117513981e+01 0 1 0
813 271 2 4.0999999999999998e-01 -1.3154065926881295e+01 -1.0430262458813214e+01 -1.1912388667975700e+01 0 1 0
503 168 2 4.0999999999999998e-01 -1.1755001268503957e+01 -1.4205828042401306e+01 -1.2431778327702428e+01 -2 2 1
2225 742 2 4.0999999999999998e-01 -1.3622899115654022e+01 -8.3235855512700425e+00 -1.1037575899349385e+01 -1 1 1
1932 644 2 4.0999999999999998e-01 -1.3087489735644974e+01 -1.1552019913503971e+01 -8.0856968738120791e+00 1 0 -1
395 132 2 4.0999999999999998e-01 -5.3865557690063515e+00 -1.0562462128710777e+01 -1.4191731210587132e+01 -2 1 0
1727 576 2 4.0999999999999998e-01 -7.1663673585848029e+00 -1.2916411285499780e+01 -8.5399993103954515e+00 0 1 1
57 19 2 4.0999999999999998e-01 -6.4874534950073262e+00 -8.8244255600592112e+00 -1.0717228532482263e+01 -1 0 0
526 176 1 -8.1999999999999995e-01 -1.1962501313897047e+01 -9.6829113494814720e+00 -8.5809852936950719e+00 0 1 -1
541 181 1 -8.1999999999999995e-01 -1.1145734171667968e+01 -5.4911488963848907e+00 -9.7551863071724689e+00 -1 0 1
55 19 1 -8.1999999999999995e-01 -6.4603685502328450e+00 -9.8196221295637258e+00 -1.0623435411187266e+01 -1 0 0
2249 750 2 4.0999999999999998e-01 -1.3410557924199276e+01 -1.4746479683321811e+01 -8.0449042537076458e+00 0 0 0
1726 576 1 -8.1999999999999995e-01 -6.6334271362616164e+00 -1.2833400146798837e+01 -7.6979595954858384e+00 0 1 1
504 168 2 4.0999999999999998e-01 -1.0469308342761613e+01 -1.3203109747279022e+01 -1.2342141590643070e+01 -2 2 1
56 19 2 4.0999999999999998e-01 -5.5643079377176701e+00 -1.0157291710091787e+01 -1.0911535398979424e+01 -1 0 0
502 168 1 -8.1999999999999995e-01 -1.0820331910982505e+01 -1.4105112108003585e+01 -1.2090902324758298e+01 -2 2 1
402 134 2 4.0999999999999998e-01 -7.5111387148902127e+00 -1.1670080017545203e+01 -1.4972797031721941e+01 0 1 0
1232 411 2 4.0999999999999998e-01 -8.3456494803487757e+00 -1.4431942318648280e+01 -1.0206900491096150e+01 0 1 -1
1930 644 1 -8.1999999999999995e-01 -1.3774851431890058e+01 -1.2248427469454311e+01 -7.8795478635810490e+00 1 0 -1
2581 861 1 -8.1999999999999995e-01 -6.4127177153031880e+00 -7.6181447506215081e+00 -1.4814604400685006e+01 0 1 0
2226 742 2 4.0999999999999998e-01 -1.3282672864567987e+01 -9.3568723205276996e+00 -9.8197705446032106e+00 -1 1 1
1259 420 2 4.0999999999999998e-01 -1.3024610376725796e+01 -4.1953985631436765e+00 -1.4876032252486473e+01 1 2 0
613 205 1 -8.1999999999999995e-01 -1.4024343879898119e+01 -4.0530724758730834e+00 -1.1694010195943623e+01 0 -2 2
695 232 2 4.0999999999999998e-01 -9.4002520165793069e+00 -5.3549729787991360e+00 -1.2607310590819418e+01 0 1 1
625 209 1 -8.1999999999999995e-01 -1.3986807591274440e+01 -7.5824903274297775e+00 -1.4249542367775577e+01 0 1 -1
2123 708 2 4.0999999999999998e-01 -1.3249004169061473e+01 -1.2849119311072512e+01 -1.3618330023194584e+01 0 1 -1
401 134 2 4.0999999999999998e-01 -8.7012143632674892e+00 -1.2302810162804228e+01 -1.4050919675730235e+01 0 1 0
1233 411 2 4.0999999999999998e-01 -8.8775536801712338e+00 -1.2889689909347341e+01 -1.0136041744049663e+01 0 1 -1
615 205 2 4.0999999999999998e-01 -1.3741484432622215e+01 -3.0984403281499411e+00 -1.1786827575641865e+01 0 -2 2
783 261 2 4.0999999999999998e-01 -5.6080856928620282e+00 -7.7548968896445913e-01 -1.2596049022600031e+01 -1 2 0
781 261 1 -8.1999999999999995e-01 -6.3960203333680017e+00 -2.4492658256676769e-01 -1.2283624947936378e+01 -1 2 0
1016 339 2 4.0999999999999998e-01 -9.0114435810728271e+00 -7.7609012552348453e+00 -8.2554610919289821e+00 0 -1 1
626 209 2 4.0999999999999998e-01 -1.4935811825984853e+01 -7.7713741306354507e+00 -1.4501853696619159e+01 0 1 -1
2186 729 2 4.0999999999999998e-01 -7.0168636802212330e+00 -1.6004488342399572e+00 -7.5419608361605412e+00 -1 -2 0
110 37 2 4.0999999999999998e-01 -7.3296337351634575e+00 -4.4243879297484909e+00 -8.0554237027067774e+00 0 1 0
780 260 2 4.0999999999999998e-01 -9.7889803627958614e+00 -9.7722257584204186e-01 -8.3811088540632870e+00 0 0 0
782 261 2 4.0999999999999998e-01 -7.0736371283434867e+00 -1.9118437650421072e-01 -1.3017037685805448e+01 -1 2 0
562 188 1 -8.1999999999999995e-01 -1.3111809122150095e+01 -6.8510999435484727e+00 -1.1695640044893562e+01 0 -1 2
614 205 2 4.0999999999999998e-01 -1.5011084024017727e+01 -4.1240106803953847e+00 -1.1839813771626872e+01 0 -2 2
1548 516 2 4.0999999999999998e-01 -7.8348662081169929e+00 -6.9815172906062699e+00 -9.9326043585616830e+00 1 -1 0
298 100 1 -8.1999999999999995e-01 -8.4991739822760337e+00 -2.7517595178447074e+00 -1.0521773483096759e+01 -1 2 3
72 24 2 4.0999999999999998e-01 -5.4235293878887436e+00 -6.4667936616546786e+00 -9.8984337206957100e+00 -2 -1 1
609 203 2 4.0999999999999998e-01 -1.1934254564562538e+01 -4.9990806999895607e+00 -7.9587826681226783e+00 -1 1 1
1666 556 1 -8.1999999999999995e-01 -9.6228887380180073e+00 -1.9082157479255368e+00 -1.2957225980528133e+01 1 1 -2
299 100 2 4.0999999999999998e-01 -7.7892082874633495e+00 -3.1054115881965654e+00 -1.1130728349352058e+01 -1 2 3
2021 674 2 4.0999999999999998e-01 -5.4045276097001018e+00 -1.1067582303509411e+00 -8.8114116572454577e+00 -1 0 0
2516 839 2 4.0999999999999998e-01 -6.0810939880562724e+00 -4.0849191787594989e+00 -1.2271882065316937e+01 0 1 0
1332 444 2 4.0999999999999998e-01 -8.6719216640530146e+00 -9.8723729539363170e-01 -9.9289821862387413e+00 1 1 2
1015 339 1 -8.1999999999999995e-01 -8.9919616140205356e+00 -6.8371120501568416e+00 -8.6377972231587137e+00 0 -1 1
2517 839 2 4.0999999999999998e-01 -7.3303649557207509e+00 -4.8823079880174092e+00 -1.2957431667914760e+01 0 1 0
608 203 2 4.0999999999999998e-01 -1.3461172430965378e+01 -5.5763850094590985e+00 -8.0003434318786972e+00 -1 1 1
1017 339 2 4.0999999999999998e-01 -9.8811463572744422e+00 -6.6254238773320786e+00 -9.0433654374334012e+00 0 -1 1
1668 556 2 4.0999999999999998e-01 -9.3372240056682703e+00 -1.9972776478606367e+00 -1.2003071487732807e+01 1 1 -2
300 100 2 4.0999999999999998e-01 -8.4234539157434085e+00 -3.1951411472765230e+00 -9.6286742644999261e+00 -1 2 3
2515 839 1 -8.1999999999999995e-01 -6.6801030169540372e+00 -4.1312079508940336e+00 -1.3071252148519170e+01 0 1 0
543 181 2 4.0999999999999998e-01 -1.1889605480165088e+01 -6.1337724391530575e+00 -9.9385917836431279e+00 -1 0 1
1921 641 1 -8.1999999999999995e-01 -1.3311001401430046e+01 -1.4380336158462868e+00 -1.2083241862457262e+01 1 0 2
1258 420 1 -8.1999999999999995e-01 -1.2589953751113187e+01 -5.0887113445407408e+00 -1.4761958298057483e+01 1 2 0
705 235 2 4.0999999999999998e-01 -8.5988740119872809e+00 -8.2980741182737159e+00 -1.4526522791280049e+01 0 0 1
627 209 2 4.0999999999999998e-01 -1.3373524383733546e+01 -8.0285050557297986e+00 -1.4901387103725146e+01 0 1 -1
1546 516 1 -8.1999999999999995e-01 -7.0716812285119968e+00 -7.0524865352778621e+00 -1.0574834191108630e+01 1 -1 0
696 232 2 4.0999999999999998e-01 -9.2273380175106503e+00 -6.7225120049080900e+00 -1.3482766759693151e+01 0 1 1
563 188 2 4.0999999999999998e-01 -1.3275858544214222e+01 -7.3057409996761100e+00 -1.2571046390248332e+01 0 -1 2
527 176 2 4.0999999999999998e-01 -1.2347273252838171e+01 -9.4407890424543446e+00 -7.6903256316136446e+00 0 1 -1
1667 556 2 4.0999999999999998e-01 -9.6418258896843891e+00 -9.4105748113954490e-01 -1.3210590299791711e+01 1 1 -2
1547 516 2 4.0999999999999998e-01 -7.3312793713422204e+00 -6.6397872089314429e+00 -1.1447895095554031e+01 1 -1 0
1923 641 2 4.0999999999999998e-01 -1.2981495060312501e+01 -1.5425234117637743e+00 -1.3021567227221933e+01 1 0 2
1260 420 2 4.0999999999999998e-01 -1.3233354995454530e+01 -5.7194859238195548e+00 -1.4328247188859072e+01 1 2 0
542 181 2 4.0999999999999998e-01 -1.0889871142176460e+01 -5.0267106017562018e+00 -1.0602994175189703e+01 -1 0 1
694 232 1 -8.1999999999999995e-01 -8.7657737453977909e+00 -6.0823406515744356e+00 -1.2868693148490284e+01 0 1 1
564 188 2 4.0999999999999998e-01 -1.3423957647967324e+01 -5.9025951639650405e+00 -1.1749016269236686e+01 0 -1 2
785 262 2 4.0999999999999998e-01 -1.4684207829421629e+01 -4.9530123981289940e+00 -9.7336791242615632e+00 0 1 0
1330 444 1 -8.1999999999999995e-01 -8.9885968847035365e+00 -4.5016344989937451e-02 -9.8199701846441521e+00 1 1 2
11 4 2 4.0999999999999998e-01 -1.1584711553461819e+01 -4.5005470020255220e+00 -1.3205762829756496e+01 0 1 0
2020 674 1 -8.1999999999999995e-01 -6.2742363984720360e+00 -1.3188750720252909e+00 -9.2570125551135707e+00 -1 0 0
10 4 1 -8.1999999999999995e-01 -1.0805983495463236e+01 -4.2835053828898140e+00 -1.2617186123828779e+01 0 1 0
2022 674 2 4.0999999999999998e-01 -6.3124517628344332e+00 -8.6421050306531022e-01 -1.0146825321517817e+01 -1 0 0
12 4 2 4.0999999999999998e-01 -1.0516319650413944e+01 -3.3406729280899370e+00 -1.2781833617957830e+01 0 1 0
111 37 2 4.0999999999999998e-01 -8.7075986511689614e+00 -5.2879363539110944e+00 -8.2036867856419065e+00 0 1 0
1922 641 2 4.0999999999999998e-01 -1.2590896268903458e+01 -1.0324108934561345e+00 -1.1520333305873994e+01 1 0 2
2122 708 1 -8.1999999999999995e-01 -1.3042048167398445e+01 -1.3739576025854916e+01 -1.3213110157778267e+01 0 1 -1
109 37 1 -8.1999999999999995e-01 -8.3270186049671331e+00 -4.3689164851278957e+00 -8.1011768089654250e+00 0 1 0
678 226 2 4.0999999999999998e-01 -1.1953656476627259e+01 -1.4353341598776657e+01 -1.4852858821396444e+01 0 1 2
840 280 2 4.0999999999999998e-01 -6.7733873136177447e+00 -4.4153698357483808e+00 -1.5021203441661779e+01 -2 2 0
1086 362 2 4.0999999999999998e-01 -1.4462233709463062e+01 -9.4178629377996081e-01 -1.0636140101690843e+01 2 1 -1
784 262 1 -8.1999999999999995e-01 -1.4949585548919629e+01 -5.3846200219136726e+00 -8.8715673741499614e+00 0 1 0
1740 580 2 4.0999999999999998e-01 -6.4986828844285007e+00 -1.4874344675314648e+01 -7.7104065547428364e+00 -1 2 -1
778 260 1 -8.1999999999999995e-01 -1.0063640975107228e+01 -1.4479784827498197e+00 -7.5427190967734052e+00 0 0 0
703 235 1 -8.1999999999999995e-01 -9.5372866621558288e+00 -8.1010981152214079e+00 -1.4810299342886958e+01 0 0 1
1322 441 2 4.0999999999999998e-01 -9.3130725720903555e+00 -2.1337106408299569e+00 -1.4981092670293986e+01 -2 1 2
310 104 1 -8.1999999999999995e-01 -9.0680346994031531e+00 -1.4208386402304596e+01 -3.7379477531731542e+00 0 2 1
1590 530 2 4.0999999999999998e-01 -1.0903155692903244e+01 -1.0972346101962920e+01 -1.2266426363707907e+00 0 0 -1
1588 530 1 -8.1999999999999995e-01 -9.9321429807546835e+00 -1.1158321252408957e+01 -1.3766244196577055e+00 0 0 -1
747 249 2 4.0999999999999998e-01 -8.6437068904039869e+00 -1.2300522691483353e+01 -1.3463597027609762e+00 0 2 -1
389 130 2 4.0999999999999998e-01 -1.4463356547800418e+01 -1.4805154534225657e+01 -8.0808542088779056e-01 -2 2 0
1630 544 1 -8.1999999999999995e-01 -5.6019309115672620e+00 -1.3017918217176614e+01 -2.9975622511010496e+00 0 3 1
746 249 2 4.0999999999999998e-01 -7.7580934270174842e+00 -1.3438766952250454e+01 -5.8047859058738283e-01 0 2 -1
311 104 2 4.0999999999999998e-01 -8.8481023359514843e+00 -1.3614892908656412e+01 -2.9637758045302878e+00 0 2 1
2049 683 2 4.0999999999999998e-01 -8.0210916231017215e+00 -1.2929566847601055e+01 -4.7209437916315551e+00 0 2 -1
133 45 1 -8.1999999999999995e-01 -9.6610330640747328e+00 -1.4907079276348716e+01 -6.9232395219847991e+00 -1 4 2
1632 544 2 4.0999999999999998e-01 -5.3405211403600568e+00 -1.3925684102447624e+01 -2.6695790345347099e+00 0 3 1
2048 683 2 4.0999999999999998e-01 -6.9773773177984708e+00 -1.1749525599595120e+01 -5.1506510546361159e+00 0 2 -1
2047 683 1 -8.1999999999999995e-01 -7.8922082547447356e+00 -1.2124626170081100e+01 -5.3000868886328263e+00 0 2 -1
1814 605 2 4.0999999999999998e-01 -1.4037779122541252e+01 -1.2148869683109531e+01 -4.5332892017791817e+00 -2 -1 0
475 159 1 -8.1999999999999995e-01 -1.4725859549233920e+01 -1.1060897245391638e+01 -3.2822696663647246e+00 0 1 -1
1704 568 2 4.0999999999999998e-01 -1.0912069296200084e+01 -1.2925302887594173e+01 -5.5686787347073974e+00 0 3 1
477 159 2 4.0999999999999998e-01 -1.4002594347899359e+01 -1.0489109087916674e+01 -2.8951098509660671e+00 0 1 -1
1631 544 2 4.0999999999999998e-01 -6.3946017850257419e+00 -1.2692724358065364e+01 -2.4819375641952952e+00 0 3 1
1702 568 1 -8.1999999999999995e-01 -1.0499203455820687e+01 -1.2250196044016306e+01 -6.1800049273166451e+00 0 3 1
2489 830 2 4.0999999999999998e-01 -1.3328713854542320e+01 -1.0895657922193148e+01 -2.6740105133455394e-01 -1 2 1
934 312 1 -8.1999999999999995e-01 -1.2792828687178368e+01 -9.7508053247113651e+00 -5.5844848257897244e+00 -1 -1 2
936 312 2 4.0999999999999998e-01 -1.3457848935757932e+01 -9.2017691812173421e+00 -5.0782690734342140e+00 -1 -1 2
1589 530 2 4.0999999999999998e-01 -9.5157964757097808e+00 -1.0387647052012792e+01 -1.8589768716764539e+00 0 0 -1
1813 605 1 -8.1999999999999995e-01 -1.3477686175983610e+01 -1.2546898872653925e+01 -5.2597985383206396e+00 -2 -1 0
935 312 2 4.0999999999999998e-01 -1.2934831916393914e+01 -1.0719126026381034e+01 -5.3792116559593488e+00 -1 -1 2
745 249 1 -8.1999999999999995e-01 -7.8601668280074257e+00 -1.2916548934664149e+01 -1.4271286498469511e+00 0 2 -1
2106 702 2 4.0999999999999998e-01 -1.1822829447315097e+01 -8.1280485342877959e+00 -5.4555905041409272e+00 0 1 0
2490 830 2 4.0999999999999998e-01 -1.2765076643680668e+01 -1.1971970801505226e+01 -1.3584321893417695e+00 -1 2 1
1815 605 2 4.0999999999999998e-01 -1.2677232294156157e+01 -1.2991509474437869e+01 -4.8578753391039378e+00 -2 -1 0
2488 830 1 -8.1999999999999995e-01 -1.2734427807091247e+01 -1.1017323052061865e+01 -1.0623656761800255e+00 -1 2 1
1728 576 2 4.0999999999999998e-01 -7.2525396760099854e+00 -1.2803190730947138e+01 -6.9132723865837971e+00 0 1 1
1571 524 2 4.0999999999999998e-01 -8.1180587754525249e+00 -7.7603399067260144e+00 -5.6036782384505202e+00 -1 2 1
2329 777 1 -8.1999999999999995e-01 -9.3960729421295426e+00 -8.3378386845360826e+00 -2.0707509944138760e+00 0 -1 0
2331 777 2 4.0999999999999998e-01 -9.2429537207851062e+00 -8.2863304686605943e+00 -3.0575885558744371e+00 0 -1 0
1570 524 1 -8.1999999999999995e-01 -8.8048468954580752e+00 -7.7493995493812546e+00 -4.8769393329081296e+00 -1 2 1
1820 607 2 4.0999999999999998e-01 -1.3961118301657500e+01 -7.6327505681201497e+00 -8.0020986988159848e-02 0 0 0
2330 777 2 4.0999999999999998e-01 -8.5184116370065901e+00 -8.2873280179340121e+00 -1.5941942352990068e+00 0 -1 0
1572 524 2 4.0999999999999998e-01 -9.7118570137772124e+00 -7.6194397781847174e+00 -5.2774273741833841e+00 -1 2 1
1703 568 2 4.0999999999999998e-01 -9.6310944955511388e+00 -1.1938010600183908e+01 -5.7941625383984245e+00 0 3 1
2104 702 1 -8.1999999999999995e-01 -1.1265996295709014e+01 -7.4434275328802686e+00 -5.9258860449704258e+00 0 1 0
739 247 1 -8.1999999999999995e-01 -5.5847451708593834e+00 -1.0536551920042040e+01 -5.3053530144523542e+00 0 4 0
1729 577 1 -8.1999999999999995e-01 -6.1881835623297157e+00 -7.7342196161204466e+00 -6.3863950280559756e+00 0 2 -1
2144 715 2 4.0999999999999998e-01 -5.4285944022893666e+00 -6.9616106364504180e+00 -4.5751014788662427e+00 -1 -1 0
266 89 2 4.0999999999999998e-01 -1.2199295009893707e+01 -8.4091657547811725e+00 -1.5686442779986542e+00 -3 0 1
390 130 2 4.0999999999999998e-01 -1.2869973907125221e+01 -1.4672006411676511e+01 -4.7659126827607246e-01 -2 2 0
1931 644 2 4.0999999999999998e-01 -1.3714168598568790e+01 -1.2501072034488708e+01 -6.9139209565321593e+00 1 0 -1
1731 577 2 4.0999999999999998e-01 -6.0116493869918894e+00 -7.0120442894068074e+00 -7.0551591417837889e+00 0 2 -1
2367 789 2 4.0999999999999998e-01 -1.3410657124247788e+01 -3.3983144002980481e-01 -3.2908755533929011e+00 0 1 0
605 202 2 4.0999999999999998e-01 -1.0274241748408468e+01 -5.4859226688166878e+00 -2.7113323546346990e-01 0 2 1
267 89 2 4.0999999999999998e-01 -1.2045757521247708e+01 -7.0026190766162397e+00 -7.5345212761267000e-01 -3 0 1
740 247 2 4.0999999999999998e-01 -5.5871404549062547e+00 -9.5671136491332369e+00 -5.0601374118578697e+00 0 4 0
1385 462 2 4.0999999999999998e-01 -1.0167543307407847e+01 -1.4350598202976510e+00 -5.0068673018319743e-01 -1 -1 -1
1285 429 1 -8.1999999999999995e-01 -6.5932588646518138e+00 -7.7680426565931571e+00 -7.1978057281458874e-01 -2 0 0
1541 514 2 4.0999999999999998e-01 -9.9794559426252469e+00 -1.0919810970131421e+01 -7.2340528479334960e+00 1 1 1
1287 429 2 4.0999999999999998e-01 -5.8079309111830213e+00 -8.3744487445689337e+00 -5.9536656613919270e-01 -2 0 0
2563 855 1 -8.1999999999999995e-01 -6.0589095152059969e+00 -2.2172649197821102e+00 -4.5612669251734506e+00 0 1 0
2145 715 2 4.0999999999999998e-01 -5.2733917402352173e+00 -6.1427555599298405e+00 -3.1708672972042411e+00 -1 -1 0
242 81 2 4.0999999999999998e-01 -8.2146498513638395e+00 -6.3861045979733255e-01 -1.5364047755987649e+00 -2 1 -1
2024 675 2 4.0999999999999998e-01 -6.2721138720254768e+00 -1.0565076901454990e+01 -7.1752533980359754e+00 0 0 0
1682 561 2 4.0999999999999998e-01 -1.0618696709657623e+01 -1.4187208163798743e+01 -3.9461061591305686e+00 1 2 0
2364 788 2 4.0999999999999998e-01 -6.7557944287459470e+00 -6.3514745418348060e+00 -1.6917322769496952e+00 0 2 0
846 282 2 4.0999999999999998e-01 -5.0904983177345251e+00 -4.4587281425916423e+00 -6.7032565000448585e+00 -1 0 0
2185 729 1 -8.1999999999999995e-01 -7.5162225345649372e+00 -1.4167656433995699e+00 -6.6952919609460597e+00 -1 -2 0
2565 855 2 4.0999999999999998e-01 -6.5277220200294472e+00 -2.0000356229543517e+00 -5.4174055361101399e+00 0 1 0
1681 561 1 -8.1999999999999995e-01 -1.1596539373216174e+01 -1.4116646396204784e+01 -4.1430632828304326e+00 1 2 0
844 282 1 -8.1999999999999995e-01 -5.6990525828773304e+00 -4.8235563365945300e+00 -7.4078905233662029e+00 -1 0 0
241 81 1 -8.1999999999999995e-01 -9.1243732589215973e+00 -2.2350334196448784e-01 -1.5303671128606346e+00 -2 1 -1
927 309 2 4.0999999999999998e-01 -8.0814489426277163e+00 -2.9281508117051320e+00 -1.8635821204236098e+00 -1 0 0
607 203 1 -8.1999999999999995e-01 -1.2641985669780556e+01 -5.4742575399907185e+00 -7.4360295371768439e+00 -1 1 1
82 28 1 -8.1999999999999995e-01 -1.4812158783793732e+01 -1.5893788032116287e+00 -1.1787776806545569e+00 -1 1 1
2551 851 1 -8.1999999999999995e-01 -9.7953749089649857e+00 -4.4028363552689758e+00 -1.4362750743145316e+00 2 3 0
925 309 1 -8.1999999999999995e-01 -7.3742332890513360e+00 -2.2256237526466531e+00 -1.9426317000013977e+00 -1 0 0
2187 729 2 4.0999999999999998e-01 -8.4805691491222497e+00 -1.6501985286340943e+00 -6.8197583172932479e+00 -1 -2 0
2363 788 2 4.0999999999999998e-01 -7.9849282740712919e+00 -5.3039784619711501e+00 -1.9335325090920410e+00 0 2 0
173 58 2 4.0999999999999998e-01 -1.3339245297752189e+01 -4.6036843020082827e+00 -6.1589532809709073e+00 -2 1 -2
2564 855 2 4.0999999999999998e-01 -5.7730252520402345e+00 -3.1754453130265752e+00 -4.5716337201299915e+00 0 1 0
2362 788 1 -8.1999999999999995e-01 -7.1078186271284309e+00 -5.6291445301762071e+00 -2.2869342714561416e+00 0 2 0
732 244 2 4.0999999999999998e-01 -6.7148359402426987e+00 -2.6463466979230983e+00 -3.2691588534132521e-01 -1 0 0
1245 415 2 4.0999999999999998e-01 -8.7910003306097551e+00 -4.1981075625140605e+00 -6.3077361279916424e+00 -1 2 2
942 314 2 4.0999999999999998e-01 -1.2043118932406427e+01 -2.4840269315944266e+00 -3.0439097035640934e+00 0 2 1
108 36 2 4.0999999999999998e-01 -1.0415847588601448e+01 -3.9751450350595157e+00 -4.4059326392216693e+00 1 2 3
1244 415 2 4.0999999999999998e-01 -8.4894160493303890e+00 -5.1355392910166611e+00 -5.0051410885835281e+00 -1 2 2
107 36 2 4.0999999999999998e-01 -1.2028672643580723e+01 -4.1804726291819030e+00 -4.2538765322821401e+00 1 2 3
1243 415 1 -8.1999999999999995e-01 -8.8098889288329971e+00 -4.2382842454424292e+00 -5.3087485491477935e+00 -1 2 2
940 314 1 -8.1999999999999995e-01 -1.2353669595492764e+01 -1.6472638530789592e+00 -2.5929850973913542e+00 0 2 1
1208 403 2 4.0999999999999998e-01 -1.3202203218821397e+01 -6.4505319774605034e+00 -2.4923230021950928e+00 -1 0 1
2553 851 2 4.0999999999999998e-01 -1.0299912952237309e+01 -3.7987560274395697e+00 -8.1944816044626734e-01 2 3 0
2105 702 2 4.0999999999999998e-01 -1.1857010124931008e+01 -6.7175449646514132e+00 -6.2776589004317387e+00 0 1 0
1207 403 1 -8.1999999999999995e-01 -1.3782302684869665e+01 -5.9628636763567116e+00 -3.1447118602839179e+00 -1 0 1
172 58 1 -8.1999999999999995e-01 -1.3942945599852635e+01 -4.3823373535253687e+00 -5.3931214050018461e+00 -2 1 -2
265 89 1 -8.1999999999999995e-01 -1.2652397118912878e+01 -7.5504049738954020e+00 -1.3295303449283367e+00 -3 0 1
926 309 2 4.0999999999999998e-01 -6.8710063953588953e+00 -2.3539401702386407e+00 -2.7971753676248312e+00 -1 0 0
83 28 2 4.0999999999999998e-01 -1.4021851084853418e+01 -1.9274600283195529e+00 -1.6897198425765172e+00 -1 1 1
1916 639 2 4.0999999999999998e-01 -1.4687011027384994e+01 -2.8474685627787562e+00 -4.9762711899772842e+00 -2 0 0
84 28 2 4.0999999999999998e-01 -1.4498426713174313e+01 -1.0979256639353245e+00 -3.6637801354583743e-01 -1 1 1
1917 639 2 4.0999999999999998e-01 -1.4296157698733101e+01 -1.2639370115933843e+00 -4.8978692071465222e+00 -2 0 0
941 314 2 4.0999999999999998e-01 -1.1685507605071583e+01 -1.3738379056382115e+00 -1.9010711282329762e+00 0 2 1
106 36 1 -8.1999999999999995e-01 -1.1199812226382527e+01 -3.8588661041289534e+00 -3.7961575543355934e+00 1 2 3
2552 851 2 4.0999999999999998e-01 -1.0089528197615476e+01 -4.2388365015954665e+00 -2.3778296505066354e+00 2 3 0
174 58 2 4.0999999999999998e-01 -1.3838836804472431e+01 -5.0719707898944399e+00 -4.6765224451749852e+00 -2 1 -2
388 130 1 -8.1999999999999995e-01 -1.3737607444384043e+01 -1.4177392105857336e+01 -5.2674963408939490e-01 -2 2 0
1730 577 2 4.0999999999999998e-01 -6.3414049537761645e+00 -8.5997712429975852e+00 -6.8631450370130551e+00 0 2 -1
134 45 2 4.0999999999999998e-01 -1.0094814332871231e+01 -1.4015284381999589e+01 -6.7948545486904344e+00 -1 4 2
1209 403 2 4.0999999999999998e-01 -1.4743593550424789e+01 -6.1280989932557208e+00 -2.9243390323149576e+00 -1 0 1
1683 561 2 4.0999999999999998e-01 -1.2094604377805437e+01 -1.4797862088886237e+01 -3.6065714882517863e+00 1 2 0
779 260 2 4.0999999999999998e-01 -1.1038807476936270e+01 -1.2976538965690594e+00 -7.3802387078950424e+00 0 0 0
312 104 2 4.0999999999999998e-01 -8.3967043219665811e+00 -1.4947493184128518e+01 -3.7925709866387258e+00 0 2 1
652 218 1 -8.1999999999999995e-01 -1.0109591332739928e+01 -1.4475272539254188e+01 1.7234977564292357e+00 -1 1 1
653 218 2 4.0999999999999998e-01 -9.4235823260323244e+00 -1.4727054236010847e+01 2.4060991349815097e+00 -1 1 1
116 39 2 4.0999999999999998e-01 -1.1812481591645568e+01 -9.8890356577629461e+00 4.7123812731508039e+00 -1 0 -1
654 218 2 4.0999999999999998e-01 -1.1018724066664358e+01 -1.4501854796421245e+01 2.1390914083442674e+00 -1 1 1
1467 489 2 4.0999999999999998e-01 -9.5880914266108395e+00 -1.1856661394234241e+01 3.7956399709545217e+00 1 2 1
1215 405 2 4.0999999999999998e-01 -1.3373250733912696e+01 -1.4838127364917748e+01 2.5358102782723222e+00 -1 0 0
2374 792 1 -8.1999999999999995e-01 -1.1237818488205658e+01 -1.3831193104920773e+01 6.0676516999925809e+00 -1 2 1
1819 607 1 -8.1999999999999995e-01 -1.4738394511406261e+01 -8.1036358274199589e+00 3.3717891093547081e-01 0 0 0
2007 669 2 4.0999999999999998e-01 -8.1489832657571846e+00 -1.3434066610271350e+01 3.5033410267197524e+00 0 1 0
117 39 2 4.0999999999999998e-01 -1.2705429346444697e+01 -9.0733994744820805e+00 5.8095899821487258e+00 -1 0 -1
115 39 1 -8.1999999999999995e-01 -1.2028084755476689e+01 -9.7983355083506858e+00 5.6846136433825443e+00 -1 0 -1
1465 489 1 -8.1999999999999995e-01 -8.9915746902304896e+00 -1.2380186495654327e+01 4.4039463599276303e+00 1 2 1
1718 573 2 4.0999999999999998e-01 -1.1428913770019440e+01 -8.8369525788650272e+00 3.2870406437642714e+00 -1 2 1
1717 573 1 -8.1999999999999995e-01 -1.1454870547345685e+01 -9.8057972518699614e+00 3.0408430030581286e+00 -1 2 1
1238 413 2 4.0999999999999998e-01 -7.6856927687950201e+00 -1.1371103446230329e+01 1.3182168436181101e+00 0 2 0
132 44 2 4.0999999999999998e-01 -9.0129892435458849e+00 -1.4289405085587310e+01 7.3157948628866052e+00 -1 0 1
1237 413 1 -8.1999999999999995e-01 -6.8654135058200900e+00 -1.0871899714439781e+01 1.5972949573561870e+00 0 2 0
1719 573 2 4.0999999999999998e-01 -1.0711136861916714e+01 -1.0007820521595157e+01 2.4036665514643190e+00 -1 2 1
2395 799 1 -8.1999999999999995e-01 -1.4074677874268783e+01 -1.3365658004582013e+01 5.8440562289003033e+00 -1 3 -1
1466 489 2 4.0999999999999998e-01 -8.2642476128242670e+00 -1.1787046918496097e+01 4.7490953515707801e+00 1 2 1
1286 429 2 4.0999999999999998e-01 -7.1672931709961345e+00 -7.7939169707067126e+00 9.8609428123298315e-02 -2 0 0
2005 669 1 -8.1999999999999995e-01 -7.8706796919306843e+00 -1.4346490316258132e+01 3.2033790279336500e+00 0 1 0
986 329 2 4.0999999999999998e-01 -5.1663234664269275e+00 -1.1381952219904974e+01 2.5845752992680922e+00 0 3 0
2237 746 2 4.0999999999999998e-01 -5.9795716508053935e+00 -1.0590957150047711e+01 6.3334268494778811e+00 -1 0 0
1301 434 2 4.0999999999999998e-01 -9.7503074576020374e+00 -1.2660717498537775e+01 1.5396138337344496e+00 0 -1 -2
2376 792 2 4.0999999999999998e-01 -1.1264507436168929e+01 -1.3082329551218507e+01 6.7297982827385958e+00 -1 2 1
604 202 1 -8.1999999999999995e-01 -1.0617885140051122e+01 -6.0971274940499800e+00 4.4180778970455670e-01 0 2 1
767 256 2 4.0999999999999998e-01 -6.4989487911283952e+00 -1.3806079015814277e+01 4.8207474485511987e+00 -3 2 -1
1971 657 2 4.0999999999999998e-01 -1.1725221887438696e+01 -1.0897868712145932e+01 6.9570204041049166e+00 2 1 2
425 142 2 4.0999999999999998e-01 -5.8415704455118060e+00 -1.0075584355114954e+01 4.4917954091525480e-01 -2 1 -1
1300 434 1 -8.1999999999999995e-01 -9.6800815936065305e+00 -1.1665186652900662e+01 1.4768937259543868e+00 0 -1 -2
1920 640 2 4.0999999999999998e-01 -1.4963985313176705e+01 -1.2924923244952939e+01 4.3850523162599053e-01 1 2 2
2046 682 2 4.0999999999999998e-01 -1.4468564403742734e+01 -1.7812730073310821e+00 6.2243897464184883e+00 0 -1 -1
1239 413 2 4.0999999999999998e-01 -7.1051845811514136e+00 -1.0204268133229913e+01 2.3020822596379169e+00 0 2 0
1512 504 2 4.0999999999999998e-01 -5.9669953450831699e+00 -2.4787613681476337e+00 3.7500765979876505e+00 0 0 0
2177 726 2 4.0999999999999998e-01 -1.4389955073133386e+01 -1.1170635103558826e+01 1.6214436118433539e+00 -1 -1 0
2178 726 2 4.0999999999999998e-01 -1.3157558362754591e+01 -1.0274860744055765e+01 2.2090422255745388e+00 -1 -1 0
2176 726 1 -8.1999999999999995e-01 -1.3694505068756218e+01 -1.0489320967345023e+01 1.3931732337844416e+00 -1 -1 0
2397 799 2 4.0999999999999998e-01 -1.3141775160637941e+01 -1.3708018188778746e+01 5.9555418836042051e+00 -1 3 -1
2332 778 1 -8.1999999999999995e-01 -8.6282916845516091e+00 -1.0541313363735714e+01 7.3103682260310912e+00 -1 1 -2
2044 682 1 -8.1999999999999995e-01 -1.4951106072686583e+01 -2.2469592814335453e+00 5.4826099606698655e+00 0 -1 -1
2375 792 2 4.0999999999999998e-01 -1.0512542062520541e+01 -1.3660678931755609e+01 5.4006838802500816e+00 -1 2 1
469 157 1 -8.1999999999999995e-01 -1.3858735056266909e+01 -7.4583755615618328e+00 5.7100053630973058e+00 0 1 1
768 256 2 4.0999999999999998e-01 -5.9603242534221916e+00 -1.4229248405663473e+01 6.3030755944580115e+00 -3 2 -1
766 256 1 -8.1999999999999995e-01 -6.2650391740858726e+00 -1.3467067036474255e+01 5.7319577284299186e+00 -3 2 -1