2593
Atoms. Timestep: 1000000
O 8.01639 -8.99875 12.268
H 7.56685 -9.40702 11.4735
H 8.4968 -8.16743 11.9885
O 4.15914 0.0357965 -14.8377
H 3.75082 -0.585801 -14.1692
H 4.48571 -0.488364 14.4357
O 3.23439 -10.4821 -3.34213
H 3.58177 -11.3389 -2.96101
H 2.81221 -10.6596 -4.23108
O -13.8926 -2.77354 -12.8611
H -14.5247 -2.89247 -13.6268
H -12.981 -3.08454 -13.13
O 7.53831 6.65213 -14.4782
H 7.56923 7.44027 -13.8634
H 7.42012 5.81603 -13.9425
O 12.9922 -8.04968 9.04841
H 13.662 -8.14144 9.78522
H 13.2565 -7.29339 8.44993
O 6.67032 -2.45431 -1.97191
H 5.96657 -2.22325 -2.64374
H 6.87265 -1.65118 -1.4115
O -11.5439 7.33293 3.4789
H -11.643 8.2404 3.07063
H -11.9798 7.32288 4.37881
O 3.02067 -13.6088 5.06729
H 2.86485 -14.3777 5.68727
H 3.40464 -12.8403 5.57926
O -7.23018 5.17524 10.5448
H -6.4601 5.81162 10.5001
H -7.1526 4.61548 11.3698
O -10.9233 12.5191 2.35865
H -11.587 13.0843 2.84863
H -10.6875 11.723 2.91602
O -10.4461 7.58075 -14.5111
H -10.4025 7.18567 -13.5935
H -9.60757 7.3601 -15.0092
O 12.9191 0.231182 -9.42465
H 13.532 0.687334 -8.77943
H 12.9588 0.697347 -10.3085
O 12.0388 0.717151 -5.18663
H 12.3915 0.495139 -6.09563
H 11.546 1.58651 -5.22352
O -14.8823 10.6012 -6.99428
H -14.9474 11.3514 -7.65231
H 14.9727 9.7366 -7.45309
O -1.01787 1.13775 8.29682
H -1.17144 1.76982 7.53728
H -0.706326 1.64878 9.09794
O -3.41213 3.19433 -11.7029
H -3.90184 2.72656 -10.9671
H -4.05503 3.43736 -12.4293
O 3.77245 0.583882 3.64356
H 3.95631 0.796777 2.68393
H 4.30562 1.19497 4.22862
O -7.52381 -6.66613 -13.8176
H -6.55844 -6.92495 -13.7849
H -7.95527 -7.08858 -14.6147
O -14.9193 -6.03119 11.8417
H -13.9523 -5.77926 11.88
H -15.0161 -6.91239 11.379
O -2.51991 12.6941 3.80663
H -3.07548 12.3044 3.07211
H -1.57858 12.3674 3.72169
O 12.22 3.7781 11.1828
H 12.2262 4.72243 11.5117
H 12.9336 3.25724 11.6514
O -14.9264 9.74841 7.13592
H -14.1746 10.4 7.23685
H 14.8167 9.74919 6.18739
O -7.35884 -7.39703 -10.7921
H -7.72721 -6.47673 -10.9238
H -8.10849 -8.03307 -10.6091
O -12.2902 -5.81896 4.84546
H -12.7603 -6.57513 5.30071
H -11.618 -5.42042 5.46937
O 5.89665 -3.94904 -6.85934
H 6.31982 -4.83769 -7.03606
H 6.01535 -3.35867 -7.6577
O -13.7403 -4.34297 7.50499
H -13.0846 -3.85785 6.92645
H -13.3068 -4.57882 8.37472
O -11.6877 -0.884066 -3.88433
H -12.5235 -0.578285 -4.34024
H -11.7811 -0.757011 -2.89684
O 5.68159 1.03431 1.46461
H 6.60419 0.925467 1.83469
H 5.71516 0.986841 0.4663
O 11.7426 11.8376 10.416
H 11.8881 11.5955 9.45672
H 12.3749 12.5677 10.6751
O -3.08348 -10.6268 4.13629
H -2.55539 -9.9919 3.57235
H -2.82005 -10.5194 5.09497
O -6.10796 13.3779 -6.39557
H -6.94065 12.9231 -6.07969
H -5.64244 12.7956 -7.06206
O 7.78527 5.85171 -11.1599
H 8.59269 6.02914 -10.5972
H 8.005 5.16237 -11.8502
O 10.7269 -2.18122 4.53427
H 9.74584 -1.99705 4.47444
H 11.0905 -2.35187 3.61846
O -9.32729 6.7887 7.2652
H -8.92803 7.05308 8.14309
H -9.75884 7.5853 6.84189
O -10.5595 -5.14094 -5.62695
H -11.5455 -5.2082 -5.77969
H -10.0751 -5.36981 -6.47129
O -9.47044 -9.20129 -8.34475
H -9.70935 -9.19234 -7.37375
H -9.09446 -10.0956 -8.58727
O 4.45313 -4.31941 -12.2845
H 4.26351 -4.54747 -13.2395
H 4.51683 -5.16044 -11.7472
O -13.0853 -8.53162 5.77483
H -12.5937 -8.77496 4.93872
H -14.0702 -8.57426 5.60681
O 7.08813 -1.63479 -11.7993
H 7.12366 -0.637121 -11.741
H 7.72145 -1.95013 -12.5061
O 8.90248 -3.5684 0.942553
H 8.97421 -3.92895 1.87253
H 8.20145 -4.07584 0.441486
O 2.23246 10.1601 14.537
H 2.07087 9.76749 -14.6174
H 3.08538 9.79575 14.1631
O -14.0871 2.69224 -4.84716
H -13.0965 2.75931 -4.96642
H -14.3666 1.73437 -4.91301
O -9.89601 -11.4915 7.19322
H -10.5173 -11.2975 6.434
H -10.0084 -10.7952 7.9021
O -9.13097 -13.4032 -10.601
H -8.24209 -13.3012 -11.0477
H -9.15759 -12.8358 -9.77805
O -10.3854 -2.99292 -13.8454
H -9.52666 -2.5018 -13.6994
H -10.2015 -3.97367 -13.9111
O 11.6999 -3.28683 2.18195
H 11.3868 -3.26413 1.2325
H 12.5726 -3.77239 2.23363
O 0.198842 14.39 5.16732
H 0.477318 -14.7253 5.34107
H -0.746755 14.2609 5.46598
O -6.29323 -2.40918 0.677606
H -6.53622 -3.2669 0.224515
H -7.09484 -2.0432 1.15033
O 3.39334 6.9224 -5.70967
H 2.88771 6.20329 -5.233
H 3.86956 6.52958 -6.49638
O 14.085 -4.57551 1.90414
H 14.575 -5.28443 1.39689
H 14.5784 -3.70915 1.82716
O 3.22493 8.01809 3.4643
H 3.7731 8.81225 3.72663
H 3.83076 7.26262 3.21483
O 4.09107 5.05739 11.4454
H 4.79511 5.37413 12.0811
H 3.33282 5.70928 11.4361
O 1.79982 9.53669 8.53204
H 1.35493 9.65166 7.64386
H 2.28884 8.6646 8.54948
O 4.27258 -0.336652 6.8995
H 3.31667 -0.223782 6.62841
H 4.32762 -0.437781 7.89285
O 14.6331 -2.12233 10.0474
H -14.4874 -2.46289 10.0074
H 14.0664 -2.76683 10.5608
O -0.308489 -11.6722 11.1303
H -0.408227 -11.5927 12.1222
H 0.554853 -11.2543 10.8476
O -13.3699 -5.07665 -5.71919
H -13.7869 -4.69395 -6.54358
H -14.013 -5.00593 -4.9567
O -12.4975 9.34677 -13.9811
H -12.3725 8.35988 -14.0831
H -13.2455 9.65073 -14.5712
O -6.1733 7.21906 7.43547
H -6.27415 6.79448 6.53571
H -6.23925 8.21272 7.34442
O 14.4881 -10.3254 8.08997
H 13.794 -10.8507 7.59773
H 14.3095 -9.34806 7.97588
O 10.8602 3.86028 -13.7505
H 11.203 3.25577 -14.4695
H 11.6312 4.29007 -13.2806
O -6.35821 -6.99772 2.19933
H -7.01801 -7.14087 1.46164
H -6.09932 -7.88068 2.59094
O 6.63712 0.237752 -1.07891
H 7.31744 0.954751 -1.23083
H 6.89103 -0.297323 -0.273162
O 14.1101 -13.2678 -13.361
H 14.8758 -13.6331 -12.8316
H 13.4685 -14.0054 -13.5716
O 9.2792 7.63211 -5.56509
H 8.75321 8.31689 -5.06069
H 10.0475 8.07551 -6.02666
O 4.43653 10.2087 0.0402026
H 3.46778 10.4487 -0.0221638
H 4.59644 9.34258 -0.433452
O 11.379 9.282 12.0489
H 11.3611 10.2634 12.2398
H 12.1079 9.08306 11.3939
O -2.77418 -14.2883 12.8533
H -1.93881 -13.8099 13.1241
H -3.03907 -14.0014 11.9327
O -2.12101 5.55607 9.71944
H -2.63142 5.1397 8.96703
H -2.71133 5.62734 10.5235
O -12.9437 3.61881 -2.21397
H -13.1804 3.23126 -1.32304
H -13.7802 3.80833 -2.72797
O -11.2626 2.89972 -11.8013
H -12.1993 2.69756 -12.0872
H -10.7985 3.41627 -12.5209
O 9.64838 0.329921 -6.95626
H 9.76212 0.690463 -6.03047
H 9.76375 1.07008 -7.61872
O -11.3998 11.1351 -1.3837
H -11.1716 11.5658 -2.25688
H -10.6659 10.5098 -1.11851
O 12.4169 7.04534 -2.63525
H 12.7121 7.69162 -1.93157
H 13.0152 7.12447 -3.4326
O 6.22396 14.4035 4.79943
H 5.93916 -14.7076 4.93682
H 5.63732 13.9756 4.11185
O 13.3762 0.294275 -0.793496
H 12.9055 0.0513338 0.0547275
H 14.2636 -0.165616 -0.825801
O 6.65927 13.6507 7.46788
H 5.86643 13.4769 8.05201
H 6.35324 13.8098 6.52925
O -0.71503 8.36324 3.49992
H -0.795369 7.3794 3.65996
H -1.57405 8.8122 3.74594
O -7.26108 9.80615 8.34837
H -7.71106 8.92641 8.50193
H -7.02831 9.89695 7.38009
O -5.24343 0.511728 -5.46957
H -4.75932 -0.264026 -5.87435
H -5.80023 0.193556 -4.70228
O -12.7303 1.73654 10.9932
H -13.5956 1.35749 10.6652
H -12.8715 2.16668 11.8848
O 10.7114 -6.39047 4.7784
H 9.83608 -6.34993 4.29656
H 10.94 -7.344 4.9747
O 11.6386 -10.1173 -1.58393
H 11.5537 -9.6994 -0.679413
H 12.6026 -10.2992 -1.77792
O -8.03549 -14.0402 4.23357
H -8.62315 -14.3616 3.49102
H -8.29304 -14.4981 5.08446
O -6.7773 11.9677 2.92785
H -5.84486 11.86 2.58292
H -6.76085 12.5053 3.77088
O 13.57 10.5238 1.66422
H 13.1874 10.7016 2.57087
H 13.8728 11.3848 1.25547
O 1.15523 12.1527 -13.3688
H 1.63743 12.7378 -14.0209
H 1.25865 11.1957 -13.6399
O -12.677 -4.38298 -1.06419
H -13.5523 -3.90484 -0.991826
H -12.7792 -5.31848 -0.725997
O -6.21516 0.895597 -11.1643
H -5.77814 0.21141 -11.7482
H -5.60479 1.12586 -10.4064
O 2.73196 10.5762 -6.19547
H 2.34032 11.4061 -5.7982
H 3.71536 10.7015 -6.32674
O -1.91545 -4.10894 -14.5403
H -2.73068 -4.62175 -14.8094
H -1.30183 -4.70578 -14.0233
O 2.33644 -8.41993 13.0711
H 3.28563 -8.57332 13.3459
H 2.24724 -7.5053 12.6768
O -3.94155 -9.452 -4.63714
H -3.6133 -9.996 -3.86493
H -3.50119 -9.76703 -5.47789
O 0.831515 1.97557 -14.25
H 1.61102 1.66493 -13.706
H 1.15466 2.5699 -14.9864
O -3.51603 -2.45438 5.53536
H -3.71749 -3.42946 5.62824
H -2.75667 -2.21192 6.13919
O -2.35328 -7.33624 -8.04278
H -3.10138 -7.58441 -8.65821
H -2.70492 -6.75718 -7.30724
O -0.804643 -12.2295 8.41681
H -0.549489 -13.1951 8.46783
H -0.732363 -11.8172 9.32499
O 8.40905 -5.90568 -10.7753
H 7.94859 -6.62246 -11.2989
H 9.12558 -6.31408 -10.2098
O -6.86805 -3.19861 -11.337
H -6.33358 -3.42271 -10.5221
H -7.69344 -3.76272 -11.3598
O -4.69566 6.6845 -12.0476
H -4.25951 6.50028 -11.1668
H -4.5238 7.63329 -12.3126
O 5.40196 3.35725 -4.73834
H 5.53326 2.46275 -4.31099
H 5.73804 4.07215 -4.12518
O 14.043 -6.28812 4.43656
H 13.6175 -5.41896 4.6886
H 14.4262 -6.21697 3.51565
O -8.88325 -13.6483 -4.3825
H -8.43495 -13.2328 -3.59107
H -9.73532 -13.162 -4.57629
O -0.292717 -12.4326 -2.44399
H -0.111523 -11.4694 -2.64285
H -0.361663 -12.9427 -3.30133
O 12.1588 4.27215 -3.16415
H 12.7402 4.23794 -3.9771
H 12.1963 5.18868 -2.76596
O -8.75436 11.9701 0.588829
H -7.94753 12.2153 1.12629
H -9.57719 12.2927 1.05668
O 5.28691 7.48642 8.56102
H 4.37536 7.07522 8.55993
H 5.6139 7.56965 9.50237
O 8.8736 2.50168 8.47351
H 9.39104 2.09152 7.7225
H 8.96998 3.49648 8.44043
O 6.66509 -7.03572 -14.3785
H 7.66152 -6.95314 -14.3604
H 6.33316 -7.26703 -13.464
O -11.3091 9.33028 8.91586
H -10.6982 9.70835 9.61144
H -11.4067 8.34523 9.0578
O 4.92308 10.0858 4.25329
H 5.82432 9.90213 3.86081
H 4.96825 9.99608 5.24824
O 3.43138 -5.99535 9.67548
H 3.53176 -5.05152 9.99033
H 4.30648 -6.32265 9.319
O -2.47457 9.56729 14.1741
H -3.09851 10.2922 13.8822
H -1.84959 9.34412 13.4261
O -14.2638 3.92048 -10.8701
H -14.331 2.94305 -11.0703
H -14.1216 4.05066 -9.88882
O -0.253212 -2.57867 13.4917
H -0.783983 -3.12979 14.1356
H -0.59258 -2.73141 12.5636
O 2.58711 14.3754 -7.17534
H 2.16485 13.7319 -6.53691
H 3.55544 14.1505 -7.2837
O -9.54623 3.16778 -14.0395
H -9.20231 3.85334 -14.6812
H -8.81491 2.90305 -13.411
O 4.41412 -1.42658 -12.376
H 5.31914 -1.68246 -12.0362
H 3.97251 -2.22622 -12.7829
O -8.22803 -1.6502 4.53806
H -8.79518 -2.2113 5.14096
H -8.81319 -1.04675 3.99636
O 12.9851 -5.92277 -8.24905
H 13.3781 -6.53462 -7.56261
H 12.2119 -5.42866 -7.85153
O 4.08274 -4.98009 -1.10622
H 4.69073 -5.75537 -1.27737
H 4.12818 -4.72792 -0.139605
O 9.67258 -5.12867 7.18973
H 9.17175 -4.46248 6.63713
H 10.0847 -5.81563 6.59121
O -6.17259 3.05657 6.55994
H -6.3991 2.92224 5.59524
H -6.93367 3.51329 7.02056
O 1.20937 -8.01028 6.59444
H 0.294533 -8.19545 6.23558
H 1.51746 -8.78966 7.14001
O 6.07601 -8.90246 -7.14666
H 5.29898 -8.46366 -6.69535
H 6.84285 -8.96146 -6.50754
O 5.48536 -12.8404 -13.0079
H 5.59754 -13.4463 -13.7956
H 5.3454 -11.9027 -13.326
O 5.83867 6.02397 13.417
H 5.86142 6.75024 12.7299
H 6.35787 6.31046 14.2222
O 3.77194 -7.19844 5.5138
H 2.98595 -7.06221 6.11685
H 4.00589 -6.33312 5.07053
O 14.2931 -10.7004 -2.07236
H 14.3354 -11.6383 -2.41672
H 14.7486 -10.6509 -1.18349
O -4.42831 1.57649 -9.3172
H -4.85395 1.79384 -8.4388
H -3.4713 1.32601 -9.17094
O -4.48538 -9.91243 13.956
H -5.15605 -10.6522 13.9017
H -3.84029 -10.1011 14.6965
O -1.34611 -6.25815 -1.12022
H -1.22219 -6.26665 -0.127965
H -0.850059 -7.0265 -1.52466
O -10.1016 -9.95372 14.4783
H -10.817 -9.41667 14.9253
H -10.0624 -9.71456 13.5081
O 13.9452 -7.74073 -6.46048
H 14.2374 -8.68187 -6.29063
H 13.9932 -7.21806 -5.60929
O 12.0127 -0.081992 13.021
H 12.9028 -0.536138 13.0594
H 11.606 -0.221294 12.1181
O 9.28225 -14.3697 5.46511
H 9.80502 -13.9301 4.73473
H 8.33943 -14.0369 5.44695
O 10.7474 -8.44486 0.491821
H 10.1031 -8.05187 -0.164205
H 11.0787 -7.72724 1.10443
O 5.1162 6.67447 -10.7175
H 4.71795 5.99997 -11.3392
H 6.11256 6.65728 -10.801
O -14.8048 1.02593 -7.7844
H -14.0969 1.66713 -7.4882
H -14.5399 0.0959194 -7.52967
O -5.08395 -10.0474 8.63409
H -4.40955 -10.4626 8.02352
H -5.97444 -10.4789 8.48989
O -7.08158 -7.24529 -1.77738
H -6.17653 -7.4422 -2.15435
H -7.48884 -8.08988 -1.42981
O -13.5401 4.4354 -8.42963
H -13.3519 5.31074 -7.98423
H -13.0979 3.69902 -7.91759
O -8.55155 12.4834 -1.99411
H -7.79073 11.8742 -2.21775
H -8.77235 12.3981 -1.02252
O 14.3781 -13.9829 11.5531
H -14.6926 -13.8416 11.5916
H 13.9235 -13.3226 12.1509
O -8.49441 5.5757 -3.90275
H -8.87315 5.20692 -3.05389
H -7.64335 5.09897 -4.1228
O -0.693215 10.7252 -6.50965
H 0.298818 10.6009 -6.48923
H -1.07588 10.2251 -7.28648
O 8.9754 5.28568 8.0471
H 8.62674 6.05588 7.51304
H 8.54353 5.28282 8.94903
O 11.6721 14.7138 -7.88389
H 10.7593 14.9604 -8.20958
H 12.1296 14.1488 -8.57052
O 1.51597 -11.6593 -13.6672
H 1.74907 -11.1919 -12.8144
H 1.59863 -12.6476 -13.539
O 7.51988 -8.89616 4.95486
H 7.42109 -8.05128 4.4291
H 7.83282 -9.62959 4.35141
O -4.82704 -7.07267 -3.32531
H -4.45378 -7.67796 -4.02838
H -4.21065 -6.29656 -3.19216
O -2.28047 -1.16727 -13.4144
H -2.30041 -2.08108 -13.82
H -3.20118 -0.777189 -13.4262
O -8.2575 0.497839 -9.08598
H -7.56453 0.376394 -9.79664
H -8.86881 1.24699 -9.34107
O -11.4287 7.80572 -9.44648
H -10.4843 7.71261 -9.13139
H -12.0502 7.71461 -8.66836
O -1.08735 9.04324 -13.7439
H -1.62 9.4093 -14.5069
H -1.02156 8.04912 -13.8299
O 12.3689 -4.33658 5.3866
H 11.7438 -5.04877 5.06718
H 11.8793 -3.46683 5.44894
O -2.3027 11.1394 -1.32112
H -2.61032 12.0899 -1.27697
H -2.91842 10.6168 -1.91088
O -11.8749 -12.3097 -4.57967
H -12.4274 -12.914 -4.00552
H -11.4562 -11.6012 -4.01161
O 8.36253 8.23947 7.96532
H 7.6364 7.92414 8.57632
H 8.26961 9.22412 7.81754
O -12.4457 11.2025 7.35812
H -12.5069 12.1391 7.70309
H -11.9398 10.6391 8.01133
O 6.83385 -3.21643 10.537
H 7.37636 -2.3931 10.7038
H 7.25645 -3.75153 9.80546
O 10.5811 2.43994 -1.89532
H 10.6822 1.45806 -1.73503
H 11.4658 2.82837 -2.15336
O 0.500045 -8.22497 9.1908
H 0.742231 -7.32864 8.81942
H 0.901791 -8.32838 10.1007
O 13.117 -4.37435 11.2175
H 12.6043 -4.88764 10.5293
H 13.9607 -4.8638 11.4383
O 14.384 -10.6032 -5.71589
H -14.9488 -10.2044 -5.15702
H 13.5102 -10.5165 -5.2374
O 1.66659 1.39081 10.9261
H 1.52148 0.931439 11.8024
H 2.4179 2.04499 11.0131
O -11.8572 -12.6356 -12.5867
H -11.9696 -11.8441 -11.986
H -12.3588 -12.4818 -13.438
O -2.34574 11.1228 10.1602
H -3.27942 10.7866 10.0368
H -1.80369 10.4327 10.6398
O -7.59862 1.26514 10.9221
H -7.35949 1.73134 10.0703
H -7.24693 0.329282 10.8999
O -7.46181 2.82964 -12.378
H -6.67937 3.17525 -12.896
H -7.15789 2.10602 -11.7583
O 4.81841 13.2538 -8.76729
H 3.93529 13.2931 -9.23478
H 5.17977 12.3226 -8.81531
O 6.23135 -12.7307 5.16446
H 5.33282 -12.314 5.30246
H 6.82337 -12.5107 5.9398
O 3.77581 1.96781 13.149
H 3.16279 2.75204 13.2449
H 3.80308 1.45884 14.0093
O -13.2085 -11.3627 7.13
H -14.1231 -11.1729 7.48718
H -12.7771 -10.5062 6.84659
O 14.655 -8.88599 -9.55889
H -14.8989 -9.6378 -9.1361
H 14.761 -8.05996 -9.00532
O 5.87976 -9.46219 7.16295
H 6.24692 -9.1316 6.29352
H 5.12545 -10.0948 6.98725
O -7.44989 6.72234 -12.6689
H -8.11371 6.13782 -12.2024
H -6.52467 6.46256 -12.3924
O 10.0535 0.0742617 14.939
H 9.57564 -0.688457 14.5032
H 10.9892 0.124497 14.59
O 1.68368 -5.67222 11.8477
H 1.344 -4.7477 11.6748
H 2.17542 -6.00273 11.0421
O -13.4951 -3.83469 -10.4361
H -13.737 -3.46872 -11.3347
H -13.0683 -4.73239 -10.5457
O -0.760651 11.1665 -10.4717
H -1.09667 11.9939 -10.9218
H 0.226771 11.2407 -10.332
O -5.29824 -14.7107 8.95275
H -5.4118 -14.053 8.20803
H -4.46899 -14.4919 9.46705
O -4.42152 6.68762 -3.48645
H -5.18155 7.21679 -3.10918
H -4.58351 6.51816 -4.45858
O 6.93304 11.5574 0.968402
H 7.64112 11.0828 0.445519
H 6.03559 11.3491 0.579524
O -12.5402 -4.477 10.0121
H -12.6428 -3.82869 10.7666
H -11.6089 -4.84123 10.0099
O -10.5976 2.08408 6.71098
H -9.72664 1.93997 7.18071
H -10.7391 3.06306 6.56407
O 14.9763 -7.44413 14.1249
H -14.8329 -6.89511 13.3275
H 14.0386 -7.22794 14.397
O -9.29089 8.30263 -6.75812
H -9.40622 9.04657 -6.0999
H -9.72865 7.4753 -6.40613
O 2.6327 12.8095 13.8204
H 2.48595 11.8483 14.0539
H 3.57784 13.0623 14.0273
O 6.06984 2.92252 11.6105
H 6.70822 2.40849 12.1834
H 5.13296 2.73957 11.9085
O 11.2753 -6.23341 -12.4347
H 11.8798 -6.92607 -12.0412
H 11.3282 -5.39655 -11.8899
O -5.0932 -1.2698 13.0569
H -5.52155 -1.08972 12.1714
H -5.24882 -2.22339 13.3147
O -9.18639 -12.0536 0.637766
H -8.30213 -11.928 1.08755
H -9.07395 -12.6484 -0.158225
O -6.56239 0.0600721 -14.7325
H -7.30081 0.624276 14.958
H -6.06491 -0.372012 14.5751
O -10.1266 -13.6898 10.6453
H -9.47559 -13.7398 9.88787
H -9.63386 -13.7534 11.5131
O 5.21921 -1.66937 -4.8922
H 5.70741 -2.26676 -5.52843
H 4.69492 -2.22611 -4.24786
O 12.3812 -10.1554 -12.1702
H 11.4737 -9.9619 -11.7972
H 12.9235 -9.3153 -12.1801
O 6.11192 7.77231 -2.67934
H 5.39995 7.57723 -2.00478
H 5.69146 8.12543 -3.51512
O 9.63996 7.62011 -1.91056
H 10.4887 7.09892 -2.00018
H 8.88906 7.10871 -2.32843
O 1.40975 9.72607 2.26296
H 2.17966 9.11937 2.46083
H 0.594411 9.3959 2.73859
O -10.0162 -4.35417 -0.431931
H -10.0067 -4.17795 0.552377
H -10.9608 -4.36158 -0.760088
O -14.7657 -4.25803 -7.92196
H 14.6347 -5.00261 -8.02554
H -14.2787 -4.12162 -8.78468
O 3.7151 0.915248 -8.19546
H 4.54433 0.404709 -7.968
H 3.20922 0.429008 -8.90796
O 13.0462 -5.01915 -10.7347
H 12.9327 -5.29862 -9.78131
H 13.5351 -4.14753 -10.7706
O -13.5215 11.1665 13.3849
H -13.6471 11.3556 12.411
H -12.6103 10.7829 13.5352
O 8.79358 -1.71198 7.44417
H 9.74405 -1.42888 7.57246
H 8.56528 -2.42384 8.10835
O -14.0107 -13.1502 4.87093
H -13.6264 -12.6325 5.63533
H -13.3026 -13.7345 4.47456
O 14.1801 -3.52337 14.8173
H 13.3211 -3.45638 -14.7351
H 14.131 -4.29126 14.1786
O -9.81585 -14.9218 2.22611
H -10.3714 14.3079 2.27398
H -9.46205 -14.8106 1.29742
O 2.25376 2.40496 5.18823
H 3.09506 2.56029 5.70601
H 2.44836 1.81353 4.40572
O 10.7473 -12.5104 -11.6853
H 10.0482 -11.9261 -11.2729
H 11.6088 -12.0064 -11.7472
O -3.00181 -7.26408 10.9115
H -2.21247 -7.56574 11.4462
H -3.28349 -6.35453 11.2171
O 5.44697 3.84882 1.96608
H 4.61058 4.2828 1.63124
H 5.41389 2.86816 1.77315
O -8.33715 10.5112 -9.7899
H -7.94325 10.2318 -10.6656
H -8.40464 9.7168 -9.1862
O 3.82755 -11.006 5.56422
H 3.93904 -10.263 4.90425
H 2.95327 -10.9022 6.03841
O 8.06185 8.78683 -10.0355
H 7.58029 9.65484 -10.1566
H 7.67345 8.10141 -10.6514
O -11.8422 -11.8699 2.0172
H -12.4022 -12.6966 2.07138
H -11.0706 -12.0298 1.4015
O 1.38368 -14.3717 -1.39463
H 0.632171 -13.7941 -1.71333
H 1.44044 -14.3247 -0.397354
O -11.7525 -1.7438 -8.18482
H -11.1713 -0.987391 -7.88479
H -11.2988 -2.23927 -8.92554
O 10.9849 -4.45279 -7.13031
H 11.5014 -3.79293 -6.58454
H 10.2919 -3.97153 -7.66714
O -2.16323 -8.31921 8.45884
H -1.23556 -8.60212 8.70254
H -2.70116 -8.18764 9.2915
O 8.83869 -13.1599 -7.02149
H 8.88852 -13.9902 -7.57658
H 9.62843 -13.1203 -6.40933
O 14.4401 3.52558 1.46079
H 14.006 2.65417 1.68931
H 13.7359 4.20362 1.25011
O 12.8942 12.8285 -9.55833
H 13.7847 12.5155 -9.88844
H 12.2878 12.9895 -10.3371
O -9.04742 -13.7247 13.6819
H -8.10442 -14.0151 13.8443
H -9.43148 -13.3517 14.5265
O -8.56525 -3.34848 10.8344
H -8.79887 -2.69096 10.1181
H -8.22026 -4.18866 10.416
O 10.4519 3.00819 0.988344
H 11.0249 3.31163 1.74966
H 10.9442 3.13925 0.12781
O -11.3944 4.85079 6.58705
H -10.7153 5.48756 6.22191
H -11.2358 4.71941 7.56562
O 13.2938 -11.038 -14.6512
H 13.6199 -11.9364 -14.3571
H 12.8621 -10.5711 -13.8794
O 5.22117 14.6596 -0.874581
H 5.81984 14.6341 -1.67517
H 4.37288 14.1703 -1.07699
O -10.3588 -5.84019 -14.7267
H -10.0595 -5.7981 14.3799
H -10.5203 -6.79305 -14.4698
O -9.1103 -9.37674 12.1459
H -8.39508 -8.69204 12.2861
H -8.69386 -10.2825 12.0675
O 3.58931 -13.3362 0.381702
H 4.1641 -14.0769 0.0339013
H 3.99039 -12.969 1.22094
O -10.1067 -6.72709 12.5792
H -9.13338 -6.73442 12.3499
H -10.5462 -7.5383 12.1934
O 0.222418 -9.88932 -3.48137
H 0.712277 -10.1895 -4.29987
H -0.249159 -9.02837 -3.67211
O -1.20804 -11.7838 -12.4529
H -0.920754 -11.6435 -11.5054
H -0.660999 -12.5138 -12.8624
O 2.59131 -9.15974 -8.3764
H 1.91383 -9.01563 -9.09769
H 3.06782 -10.0245 -8.53464
O -0.559136 13.4731 -2.49723
H -1.47806 13.7319 -2.19955
H -0.0597899 13.0738 -1.72833
O -7.73665 -0.722579 7.55661
H -7.40623 -0.866549 6.62382
H -7.05515 -0.206757 8.07573
O 6.08821 -7.80406 -11.8713
H 6.32304 -8.60243 -11.3168
H 5.32529 -7.31628 -11.447
O -3.07904 7.34464 4.8213
H -2.70207 6.6049 4.26391
H -4.05341 7.44889 4.62197
O -0.192001 -0.0949377 -11.8973
H 0.699179 0.250024 -12.192
H -0.829676 -0.0713811 -12.6673
O -7.24723 1.47273 -1.10624
H -8.07618 1.95837 -0.828754
H -6.52098 2.1338 -1.29481
O 13.9889 12.9299 -13.9239
H 14.7207 13.2645 -14.5177
H 13.8924 11.9412 -14.0386
O -11.4584 6.93028 10.2443
H -12.1319 7.21368 10.927
H -11.6989 6.02482 9.89462
O -6.39177 -9.58628 -6.21821
H -6.82519 -8.69018 -6.12257
H -5.6495 -9.67018 -5.55337
O -3.43855 14.6237 -14.5722
H -3.32869 14.9274 14.5413
H -3.89764 -14.7218 -14.044
O -10.6696 -10.4038 -3.02756
H -9.86547 -10.4406 -3.62086
H -10.6559 -9.55457 -2.49974
O -5.10689 10.7317 9.76238
H -5.16507 11.5407 10.3473
H -5.91301 10.6884 9.17221
O -10.0859 12.5725 14.9634
H -10.2651 13.5186 -14.8265
H -9.92748 12.0172 -14.28
O -10.2779 9.03263 6.11431
H -9.81782 9.51238 5.36718
H -10.8254 9.68295 6.64087
O 12.3038 -15.0055 -14.6518
H 13.0419 14.4043 -14.8326
H 11.9198 -14.6877 14.5412
O 2.91775 -14.3606 8.99609
H 2.039 -14.029 9.33938
H 2.77297 -14.8735 8.14995
O 10.3838 -10.7752 6.845
H 11.1449 -11.3972 7.02873
H 10.2653 -10.1551 7.62057
O -5.3615 -13.078 6.88099
H -5.91816 -12.5578 6.23331
H -4.44841 -13.2184 6.49812
O 13.3969 -0.641584 -3.29206
H 12.8065 -0.16301 -3.94205
H 13.2707 -0.253633 -2.37905
O 10.0455 -9.47705 -11.1606
H 9.59347 -10.0467 -10.4742
H 10.2046 -8.56441 -10.7841
O 2.54723 13.1822 -11.2808
H 2.00396 12.654 -11.9334
H 1.94798 13.553 -10.5713
O -10.4965 -4.25875 -9.02787
H -9.9971 -5.10296 -8.83307
H -11.3912 -4.48238 -9.41441
O -4.87439 -0.662207 -12.9146
H -4.91862 -1.66123 -12.9166
H -5.48761 -0.300053 -13.6166
O 12.0338 -1.12073 -7.31139
H 12.3897 -0.566123 -8.06354
H 11.059 -0.932957 -7.19109
O 7.13866 11.1499 -11.6013
H 7.16754 11.2916 -12.5907
H 7.96366 11.5326 -11.1855
O 2.79502 -11.0166 11.6689
H 3.07683 -10.0685 11.8166
H 3.3827 -11.435 10.9764
O 1.42315 3.74584 13.8921
H 0.574298 3.70857 13.3648
H 1.62044 4.69444 14.1396
O -4.44427 -10.7302 -8.14725
H -5.31153 -10.5832 -7.67161
H -4.286 -11.7116 -8.25594
O 10.0962 -0.407538 -1.75657
H 10.826 -1.0337 -1.4821
H 9.5034 -0.222595 -0.972769
O -3.26712 -10.9994 -2.55695
H -2.73678 -11.0024 -1.70917
H -3.01413 -11.7924 -3.11114
O -0.105434 3.22986 6.26866
H 0.773217 2.86364 5.9623
H -0.774085 3.1546 5.5289
O -14.9123 -8.58223 -3.70385
H 14.8013 -9.36935 -3.19343
H -14.8327 -7.79624 -3.09076
O -14.1938 -8.13401 -13.1923
H -14.976 -8.0606 -12.5737
H -14.4721 -7.86662 -14.1148
O 0.537627 5.5043 4.04556
H 0.598435 4.61008 4.48904
H 1.25919 6.1006 4.39739
O -2.96515 -5.03625 -3.06872
H -3.07595 -4.05263 -2.92647
H -2.32583 -5.40099 -2.39179
O -0.820027 9.2696 11.9086
H -1.11422 8.44059 11.433
H 0.163787 9.22322 12.0817
O 2.19068 3.40581 -10.5873
H 2.37806 3.03309 -9.67851
H 1.90989 4.36196 -10.5041
O -6.81904 9.39931 0.946699
H -6.94131 10.3798 1.10086
H -5.86937 9.21793 0.691326
O 7.78709 12.3977 -4.25828
H 6.80768 12.4582 -4.45085
H 8.28424 12.2281 -5.10921
O 0.253224 12.0687 3.89076
H 0.84109 11.7269 3.15756
H 0.52165 13.0031 4.12497
O 1.73333 -7.01765 -2.07404
H 2.11977 -6.18863 -1.66981
H 1.50196 -6.84501 -3.03147
O -5.79426 -3.78389 13.9579
H -6.66206 -3.37217 13.6797
H -5.7169 -3.75693 14.9545
O 9.6232 -7.24264 11.2212
H 10.5856 -7.4996 11.3088
H 9.39245 -6.57002 11.9242
O -6.75143 -5.23153 -7.14419
H -6.23905 -4.97824 -7.96475
H -6.72713 -4.47594 -6.48958
O -0.73027 -12.7871 13.7444
H 0.12076 -13.3113 13.7128
H -0.60064 -11.975 14.3133
O 1.72787 11.087 -0.0554822
H 1.06887 11.8371 -0.110796
H 1.63188 10.6233 0.825274
O -2.29892 9.72285 -8.50212
H -1.8005 10.2939 -9.15442
H -3.22656 9.56315 -8.83975
O -14.9606 9.83173 10.1355
H -14.7218 10.7352 10.4917
H -14.9423 9.85203 9.13589
O 3.21538 3.11771 -6.34526
H 4.01885 3.48843 -5.87942
H 3.46648 2.27681 -6.82467
O 4.36282 3.12318 8.05979
H 3.53507 3.02131 8.61158
H 5.14203 3.30781 8.65874
O 3.71778 -11.8963 8.53654
H 4.35277 -11.8773 9.30883
H 3.31748 -12.8092 8.45657
O -1.69727 -4.24487 -10.8207
H -1.77738 -3.25717 -10.955
H -2.4328 -4.70908 -11.3142
O 2.97936 8.7632 -10.3136
H 3.72847 8.10515 -10.2375
H 2.58962 8.93081 -9.40807
O -8.7057 7.61724 -9.2801
H -7.72884 7.45107 -9.41474
H -8.87427 7.85764 -8.32417
O -7.60713 -4.70279 5.3317
H -7.24445 -4.4454 4.43604
H -7.24142 -5.59537 5.59542
O 7.94507 1.98432 13.2188
H 8.54704 1.35921 13.7156
H 8.40833 2.86111 13.0898
O -14.9999 0.645511 9.77271
H 14.2607 1.242 9.84569
H 14.7881 -0.299683 9.95357
O -5.96942 6.06057 4.90049
H -5.87607 5.17002 4.45528
H -6.88231 6.42804 4.72269
O 13.4838 12.1098 -2.13007
H 14.0369 11.2824 -2.22724
H 13.7071 12.7484 -2.86652
O -6.39761 -7.28719 5.87011
H -6.82271 -7.92298 6.51436
H -5.40284 -7.33875 5.95825
O 14.3397 1.75352 -13.6187
H 14.8711 1.01488 -14.0335
H 14.7708 2.63157 -13.8264
O 2.14057 8.58953 -7.81945
H 2.39301 9.38892 -7.27425
H 2.16065 7.77286 -7.24268
O 6.08967 6.76904 3.46475
H 6.16001 5.82923 3.13036
H 6.37245 6.80381 4.4233
O 4.75074 -6.51528 12.1394
H 5.62317 -6.02971 12.195
H 4.32569 -6.33634 11.2521
O 14.1971 6.73654 -4.72486
H 14.2294 7.02357 -5.68223
H 14.2116 5.73786 -4.67563
O 9.08651 -10.3485 -3.62197
H 9.59653 -10.3114 -2.76261
H 8.28979 -10.9427 -3.51132
O -1.09542 4.09564 -10.9518
H -0.881679 3.60829 -10.1052
H -2.02632 3.87095 -11.2398
O -13.5398 7.89403 11.8576
H -14.0529 8.50849 11.2583
H -13.8294 8.03355 12.8046
O -12.6582 -8.4008 8.50118
H -12.1408 -7.55181 8.60812
H -12.7996 -8.58474 7.52846
O -14.6405 -14.9203 -9.0247
H -13.772 -14.7891 -8.54662
H 14.6626 -14.7618 -8.39054
O -4.32566 -1.98663 -6.47661
H -3.56431 -2.35848 -7.00771
H -5.07368 -1.74112 -7.09321
O -8.97265 13.8395 -4.60569
H -8.70855 14.8004 -4.6891
H -8.59116 13.4609 -3.76238
O -1.36386 -13.6009 -6.15043
H -1.70066 -14.4706 -6.51119
H -0.627125 -13.774 -5.4968
O -11.8315 -8.01168 -4.52563
H -11.4451 -7.26673 -3.98181
H -12.5895 -8.4308 -4.02582
O 11.3281 -12.8356 -2.57641
H 11.0733 -12.1271 -1.91824
H 11.4592 -13.7037 -2.09765
O -10.1399 -2.92417 -4.13548
H -10.8551 -2.22788 -4.19518
H -10.4298 -3.74317 -4.63064
O -4.37748 13.9656 -3.93041
H -3.69718 13.2427 -4.05111
H -4.99349 13.9785 -4.71805
O 9.86548 12.0876 -6.02858
H 10.4327 12.8881 -5.83502
H 10.4505 11.2853 -6.14689
O -13.6338 -3.33784 4.36849
H -13.3447 -4.27956 4.54047
H -12.8414 -2.73042 4.42434
O 11.3216 -3.45639 -0.601863
H 11.555 -4.30622 -1.07446
H 10.3369 -3.43021 -0.429844
O 8.18769 -13.8242 10.0981
H 8.94102 -13.1693 10.0379
H 8.2392 -14.463 9.33054
O 5.71383 -7.14703 -1.8242
H 5.31471 -7.70938 -2.5484
H 6.46842 -7.64308 -1.39463
O 4.6413 12.6868 2.90229
H 4.66475 11.8045 3.37247
H 5.3139 12.6881 2.16228
O -6.38251 -14.4656 12.9702
H -7.28782 -14.8577 12.8067
H -5.68558 14.8887 12.8417
O -4.2433 -2.69973 9.22101
H -3.80787 -1.85541 8.90871
H -4.19666 -3.38677 8.49589
O -13.4334 -12.2315 14.9892
H -14.0121 -13.035 -14.931
H -13.9858 -11.4825 14.6232
O -14.0461 9.07456 1.56268
H -15.0218 9.19832 1.74347
H -13.7645 8.16319 1.86285
O -2.46764 9.23029 6.613
H -3.11416 9.90691 6.26059
H -2.47467 8.42335 6.02241
O 14.8698 12.9508 1.57971
H -14.5104 12.6983 2.26841
H -14.756 12.9836 0.679428
O 3.51951 14.4402 -13.5858
H 3.16686 14.0073 -12.7562
H 2.81236 15.0252 -13.9829
O -5.7768 -9.90953 3.19605
H -6.33721 -10.3515 3.8965
H -4.80942 -10.0232 3.42242
O 3.81367 -2.68429 13.3313
H 3.87413 -3.06022 14.2559
H 4.73376 -2.50047 12.9854
O 11.5518 13.4557 4.85462
H 11.459 14.4513 4.84047
H 11.5227 13.1049 3.91862
O 4.75529 -0.38233 9.57664
H 4.32898 -0.111661 10.4398
H 5.65776 0.0421007 9.50312
O 11.3174 -13.9465 13.2708
H 11.5852 -13.0176 13.0153
H 10.3213 -14.0278 13.2359
O 5.36064 -2.81677 1.75535
H 4.84238 -3.6611 1.61935
H 5.17646 -2.45623 2.66973
O -9.50569 0.284261 -4.71743
H -8.74056 0.00139052 -4.13903
H -10.3476 -0.144178 -4.38946
O -2.91057 -5.70666 -5.88857
H -3.19643 -5.48409 -4.9565
H -2.76664 -4.86177 -6.40379
O -12.6456 14.2611 7.50164
H -12.2373 -15.0248 7.01746
H -13.3683 14.5915 8.10873
O 1.49728 -10.8148 7.23537
H 0.651599 -11.2626 7.52576
H 2.23728 -11.0624 7.86074
O -12.302 -6.2851 -10.5467
H -11.5802 -6.95135 -10.7342
H -12.8346 -6.58456 -9.7551
O -10.7593 11.79 -10.6632
H -11.4832 11.9799 -9.99988
H -9.88767 11.6851 -10.1845
O -14.1579 1.36826 -10.4797
H -13.7918 0.494989 -10.8012
H -14.3876 1.2963 -9.50916
O 0.634757 -5.83309 1.40748
H 1.2276 -5.08237 1.116
H -0.305133 -5.50216 1.49171
O 6.88781 1.2402 9.56909
H 6.58548 1.86289 10.2908
H 7.65913 1.64685 9.0795
O -2.04565 -3.42606 -7.51833
H -1.14176 -3.088 -7.25621
H -2.1036 -3.48431 -8.51495
O -0.116442 7.94282 -9.29398
H -0.958562 8.47122 -9.40182
H 0.502663 8.42518 -8.67427
O 0.0779149 -3.36367 9.30214
H 0.289966 -4.26975 8.936
H 0.849465 -2.74899 9.13819
O -5.29876 4.18024 -13.4982
H -4.99597 5.06981 -13.1561
H -5.51933 4.25458 -14.4707
O -2.92211 -13.5155 5.80816
H -2.47683 -13.9846 6.57082
H -2.22657 -13.1202 5.20818
O 0.313428 6.60477 10.1512
H -0.500291 6.2279 9.70862
H 1.05578 6.66943 9.48427
O -4.81445 13.5017 11.9189
H -4.75457 13.0346 12.8011
H -3.89457 13.7274 11.5982
O -7.95264 12.1601 9.6067
H -8.0494 11.1885 9.39085
H -8.1849 12.3129 10.5673
O 4.097 -3.73652 10.7992
H 3.71119 -3.28184 11.602
H 4.93594 -3.26822 10.5219
O -3.85517 -4.75275 11.5102
H -4.70212 -4.76623 12.0417
H -3.98964 -4.20767 10.6827
O -0.375312 9.38952 -3.0008
H -1.03235 9.32066 -3.7515
H -0.795219 9.87467 -2.23378
O 1.59402 -4.32875 -8.03062
H 2.03539 -4.03224 -8.87754
H 0.972065 -5.08688 -8.22661
O 4.09387 12.3945 8.16634
H 4.22059 11.5918 7.58361
H 3.26645 12.28 8.71614
O 13.5108 3.91685 -5.42312
H 12.9161 3.48841 -6.10339
H 14.3023 3.32929 -5.25509
O -12.7899 13.247 -0.121388
H -12.3777 12.3847 -0.415493
H -12.195 14.0071 -0.382924
O 14.8497 9.20488 14.5415
H 13.9085 9.43174 14.792
H -14.7679 10.0091 14.1444
O 9.22973 13.3661 10.9888
H 9.35089 14.1872 10.4311
H 9.98315 12.7316 10.816
O -6.6746 13.5866 -14.7036
H -6.01477 14.3207 -14.8643
H -7.41475 13.925 -14.1226
O 13.5949 -1.32851 -13.3229
H 14.1197 -1.81684 -12.6256
H 13.3282 -0.431034 -12.9716
O -4.08271 9.86112 -2.76396
H -4.29122 9.57413 -3.69893
H -4.38463 9.15506 -2.1234
O 7.79027 2.4786 -1.7088
H 7.30968 3.27834 -2.06858
H 8.7772 2.62098 -1.78419
O 7.62455 9.07063 -13.5035
H 7.66632 9.963 -13.9528