2593
Atoms. Timestep: 18495000
O -3.17055 -0.768158 8.81868
H -3.89664 -0.114397 8.60568
H -2.42261 -0.295476 9.28467
O 6.6481 3.02947 -12.512
H 6.73824 2.12112 -12.1036
H 5.87465 3.50702 -12.0952
O 6.971 -13.8089 11.6105
H 6.12923 -13.3754 11.9322
H 7.72371 -13.572 12.2247
O 7.51587 8.48935 1.47668
H 7.08101 8.0594 2.2679
H 7.19812 9.4339 1.39406
O -12.9956 -2.21174 -6.04161
H -12.3618 -2.24327 -5.26878
H -13.9355 -2.18662 -5.70105
O 8.73003 -11.8213 -12.4514
H 9.6099 -11.4641 -12.7648
H 8.86423 -12.3492 -11.6128
O 11.4136 9.09235 8.07755
H 11.2205 10.0144 8.41288
H 12.1596 8.69327 8.61058
O 9.98433 8.84153 11.7895
H 9.74976 8.32661 12.614
H 10.9457 9.11402 11.8289
O 10.1312 6.27419 -1.17998
H 9.51684 7.02903 -1.40971
H 9.6378 5.59732 -0.633723
O -0.67615 -10.9381 14.0353
H -0.0288768 -10.6144 14.7254
H -0.542057 -11.9178 13.8861
O 5.99069 -2.20345 -1.49947
H 6.00269 -1.40454 -2.10079
H 5.44604 -2.92902 -1.92004
O -13.6061 2.84278 -2.69844
H -13.4409 2.47836 -3.61488
H -14.0688 2.15157 -2.14329
O -1.1317 -13.0475 -13.0428
H -1.76735 -13.3097 -13.7689
H -0.424807 -13.7486 -12.9495
O 4.97668 4.85225 14.3092
H 5.26433 3.97434 13.9265
H 4.20196 4.7095 14.9252
O 7.41578 -9.82231 -13.892
H 8.08108 -9.48576 -14.5584
H 7.79983 -10.6063 -13.4043
O -14.77 0.71139 -4.91122
H 14.8186 -0.101891 -5.28801
H -13.8871 0.457025 -4.51651
O 14.0089 5.70069 4.5033
H 13.3833 5.19673 3.90777
H 13.9168 6.68122 4.32996
O -6.54141 -13.4303 5.41025
H -6.87516 -12.5165 5.64148
H -6.68033 -14.0427 6.1885
O -1.26163 -13.3368 -1.07296
H -1.71805 -12.4915 -1.35042
H -0.808592 -13.1975 -0.192434
O 13.3807 -2.32813 8.58258
H 13.6971 -1.90547 7.73332
H 13.658 -3.28873 8.6003
O -14.0073 -12.7383 11.1841
H -13.2667 -12.2777 11.6734
H -14.4407 -13.4069 11.7884
O 9.53434 9.23093 3.26364
H 8.8068 9.78999 3.6613
H 9.26668 8.9397 2.34521
O -0.652269 6.57841 -9.55152
H -0.917463 5.70831 -9.96694
H 0.321411 6.55643 -9.3247
O -8.13145 6.48688 7.02325
H -7.80984 5.99501 6.21417
H -7.71029 6.09468 7.84105
O 13.6618 2.5452 14.7357
H 13.289 1.77288 14.2213
H 14.6602 2.49064 14.742
O 7.00333 11.5342 -9.12163
H 7.96475 11.3727 -9.34427
H 6.89976 12.4515 -8.73726
O 8.43104 -7.74861 7.32237
H 8.48229 -7.11831 6.54773
H 7.56444 -8.24656 7.29014
O -6.65084 6.55574 -8.98891
H -7.39773 6.62925 -8.32804
H -6.50004 5.59358 -9.21581
O 1.08799 7.84594 -14.0661
H 1.8389 7.1868 -14.0255
H 1.29207 8.5417 -14.7547
O -7.1001 -0.305181 -4.58099
H -6.16932 0.0601648 -4.59298
H -7.73811 0.416735 -4.31309
O -7.50249 13.2843 -1.17051
H -7.46427 14.0702 -0.553391
H -6.57315 12.9994 -1.4053
O -3.13863 -9.65206 -6.47026
H -2.67002 -9.73542 -5.59081
H -2.70548 -10.258 -7.1375
O -0.494688 -6.96789 11.147
H -1.35264 -6.61392 11.5193
H 0.228123 -6.28809 11.2711
O -7.82968 -6.24306 -7.67366
H -7.4086 -7.11018 -7.40762
H -8.81243 -6.3755 -7.80272
O 3.37208 -0.178269 -3.81369
H 3.08559 -0.831877 -4.51419
H 3.3248 -0.611957 -2.91388
O -1.70195 7.68153 -14.0052
H -1.87424 7.71716 -13.0208
H -0.717253 7.72784 -14.1731
O 8.64049 -3.67791 6.01736
H 8.48102 -3.1636 5.17472
H 7.91258 -3.47741 6.67305
O 8.6433 8.34891 7.78092
H 9.61972 8.43265 7.97984
H 8.13042 8.3116 8.63856
O -13.4557 -5.95322 9.85093
H -13.6661 -6.93005 9.81201
H -12.7733 -5.78737 10.5629
O 6.8901 14.6207 -2.96699
H 6.90775 14.4246 -3.9474
H 7.33938 -14.5347 -2.79425
O -12.1411 0.588946 -4.0639
H -11.5559 0.745448 -4.85951
H -11.5717 0.429516 -3.25747
O -12.954 1.0799 14.7219
H -12.3189 0.375616 -14.993
H -12.4572 1.93528 14.5754
O -2.05166 -14.3474 -7.56155
H -2.4311 14.8198 -7.23253
H -2.15529 -14.2944 -8.55475
O -11.8558 -1.20236 -8.49365
H -12.2914 -1.31383 -7.60043
H -11.3862 -0.320142 -8.52771
O -1.9825 -1.51403 12.9524
H -2.50201 -2.34329 12.7464
H -1.13712 -1.50905 12.4182
O -12.7959 -5.08539 -13.3959
H -13.4816 -4.82528 -12.7161
H -11.8814 -4.91479 -13.0291
O 12.861 7.23838 13.6938
H 11.8725 7.08745 13.6973
H 13.2732 6.72975 12.9379
O 10.2663 -2.70344 -4.80078
H 10.5824 -3.65204 -4.81536
H 9.63128 -2.55205 -5.5583
O 0.705185 -2.87432 9.32536
H 1.27358 -3.30731 8.62576
H -0.133537 -3.40473 9.44862
O -7.96929 11.6262 5.80332
H -7.85147 11.3067 6.74354
H -8.9309 11.5443 5.54146
O 12.454 13.7686 -12.5375
H 12.1601 14.7234 -12.5814
H 13.0151 13.6297 -11.7214
O 12.7482 -6.12397 -1.57264
H 12.3296 -5.21957 -1.48994
H 12.1501 -6.80756 -1.15436
O -4.94758 14.3784 -1.49086
H -3.97765 14.3222 -1.2541
H -5.05 14.8487 -2.36738
O 13.4342 -14.1499 1.23036
H 13.6566 -14.9031 1.84941
H 14.1896 -13.4948 1.21774
O 1.07013 -2.20947 -8.32006
H 0.357328 -2.60594 -8.8986
H 1.20901 -1.25161 -8.57147
O -7.61458 7.52739 -3.34287
H -8.39654 8.08255 -3.62627
H -7.62134 6.66185 -3.84365
O 1.32901 -5.20859 11.0548
H 1.41941 -4.59267 10.2722
H 2.08231 -5.86623 11.0501
O 0.297165 -7.2338 7.25377
H 0.293841 -8.1722 7.5993
H -0.623522 -6.84976 7.32327
O -8.9994 1.64918 -3.69565
H -9.29854 2.40609 -4.27667
H -9.12312 1.89743 -2.73489
O -9.36373 9.1493 -4.28576
H -10.3486 9.16648 -4.45837
H -8.8735 9.36437 -5.13039
O 7.20027 -5.6721 11.7524
H 7.99701 -5.40269 12.2933
H 7.4504 -5.70628 10.7848
O 0.371321 -10.8052 11.645
H 0.0319904 -10.8748 12.5831
H -0.359538 -11.0484 11.0073
O 0.209746 -1.36924 11.4739
H 0.499216 -0.417575 11.3713
H 0.659652 -1.93114 10.7797
O -9.59692 3.84539 -5.31979
H -10.2721 4.56969 -5.45954
H -9.10336 3.68053 -6.17373
O -9.84002 -4.50898 2.06276
H -9.74008 -4.84133 1.12492
H -9.45154 -3.5903 2.13399
O 2.1593 12.2597 -2.93548
H 2.94249 11.7993 -2.51758
H 2.40041 12.5546 -3.86009
O 7.3491 -2.00745 -12.2863
H 7.1368 -2.42747 -13.1686
H 7.31944 -2.70428 -11.5697
O -12.0683 7.00413 -12.0431
H -11.2083 6.72812 -12.4723
H -12.0876 6.68045 -11.0971
O -10.1304 -12.6217 3.61594
H -9.80266 -13.3502 3.01446
H -10.1387 -11.7554 3.11635
O -2.50593 10.3284 0.243253
H -1.62109 10.4439 -0.208073
H -2.45988 9.55365 0.873777
O -14.6592 11.7648 14.0237
H -14.8435 10.825 14.3116
H 14.7667 12.0061 13.2658
O -12.7234 4.99246 -6.05323
H -12.703 3.99302 -6.02716
H -12.0337 5.35633 -5.42722
O 6.6293 7.13355 -8.42296
H 6.75132 6.93653 -7.4502
H 7.51414 7.08542 -8.88635
O -10.7591 -9.92008 13.3635
H -11.0071 -9.52927 14.25
H -11.1716 -10.8264 13.2717
O 4.95195 -12.6058 3.47469
H 5.49077 -12.9016 2.68594
H 4.01428 -12.9408 3.38236
O -7.34284 3.3749 7.81999
H -7.54992 2.39662 7.81155
H -6.88213 3.62543 6.96855
O 13.309 -4.32912 11.9446
H 14.0218 -4.15777 12.6247
H 13.7259 -4.41807 11.04
O 1.40973 -13.0651 -2.42773
H 0.802315 -13.3661 -1.6926
H 2.26212 -13.5866 -2.39039
O 2.24801 -6.01719 -12.5044
H 2.58289 -5.43062 -13.2418
H 2.53933 -5.64426 -11.6235
O 2.07466 0.414152 -12.4734
H 2.91209 0.248862 -12.9943
H 1.29047 0.0572305 -12.981
O 2.62709 8.48514 -2.49519
H 3.04746 8.46149 -1.58816
H 2.37438 7.55738 -2.76974
O 10.8654 8.91781 0.338222
H 11.6519 9.08153 0.933819
H 10.4349 8.04986 0.585697
O 2.15013 -6.65801 -7.60131
H 1.85019 -7.42725 -7.03714
H 1.36773 -6.28589 -8.10067
O -0.00418889 -7.03506 -13.2101
H 0.0245909 -7.3686 -14.1524
H 0.87711 -6.62547 -12.9744
O 6.99922 7.9379 -1.1641
H 7.04593 7.80037 -0.174709
H 7.18936 8.89634 -1.37673
O 0.312891 5.57183 3.93361
H 0.417932 6.28576 3.24133
H -0.537878 5.07219 3.77072
O -14.9545 -5.05627 -3.10593
H -14.5641 -4.72252 -2.24788
H 14.2152 -5.52696 -2.91906
O -0.730715 12.0328 -13.7021
H -0.712061 11.3952 -12.932
H -0.12868 12.8074 -13.5083
O -9.6357 1.89398 3.19778
H -9.74205 1.03545 3.69938
H -9.41052 2.62839 3.83803
O -0.161287 -2.23509 -5.85887
H -0.900386 -2.89092 -6.01247
H 0.450491 -2.23106 -6.64988
O 4.55795 -12.8993 -3.51105
H 5.24852 -12.7874 -4.2256
H 4.07887 -13.767 -3.64341
O 13.0464 8.75566 -11.7494
H 12.2339 9.33794 -11.724
H 12.819 7.88488 -12.1853
O 10.2486 6.87696 4.66511
H 9.907 7.73707 4.28629
H 9.6964 6.11809 4.31994
O -5.73801 12.3894 3.96945
H -6.56511 12.2935 4.52324
H -5.5115 11.5088 3.55332
O 14.1212 -4.9965 9.38587
H -14.9496 -5.11279 9.63612
H 13.9387 -5.48024 8.5299
O 0.0920063 -0.122124 7.01939
H -0.0303862 -1.03325 6.62587
H -0.501007 -0.0216884 7.81828
O 10.5895 -10.9532 9.59861
H 9.70338 -11.4135 9.65235
H 10.4752 -9.98358 9.81468
O 3.32868 -13.1298 7.74956
H 3.28287 -12.3482 8.37162
H 3.4343 -12.8027 6.81051
O -7.52908 -11.3857 9.74793
H -7.27658 -12.0847 9.07889
H -8.43698 -11.0278 9.52962
O 2.66457 -6.31617 -1.32867
H 3.6536 -6.45872 -1.29008
H 2.28547 -6.81859 -2.10574
O 8.27283 -5.54039 9.18703
H 9.23912 -5.44915 9.42775
H 8.19335 -5.92067 8.26559
O -14.7872 12.7344 -11.7065
H -14.9423 11.8857 -12.2121
H -14.6514 12.5255 -10.7381
O -12.9409 -6.24461 -4.60525
H -13.6227 -5.68108 -4.13892
H -12.0722 -5.7509 -4.64649
O 14.6563 6.24673 -5.58723
H -14.7052 5.55193 -5.8475
H 14.2817 6.0275 -4.68635
O 7.61174 11.8397 13.7243
H 7.60219 12.6619 13.1553
H 8.54899 11.5003 13.8039
O -12.0916 11.7893 -7.4331
H -12.358 10.8597 -7.17832
H -12.8034 12.1945 -8.00682
O 11.2804 -7.81265 -0.228806
H 11.7402 -8.58117 0.216134
H 10.2916 -7.96129 -0.212924
O -12.6996 -3.62781 2.59009
H -11.8517 -4.14905 2.49312
H -12.8463 -3.40627 3.55414
O -2.54093 13.1029 14.7457
H -2.4209 12.607 13.8857
H -1.90087 12.748 -14.6048
O 6.64146 -4.89414 3.648
H 5.86222 -4.52736 3.13982
H 7.42951 -4.28961 3.53181
O 11.2677 -13.5743 -12.9068
H 10.6432 -13.986 -13.5706
H 10.9122 -13.715 -11.9828
O -13.0816 5.22172 11.6774
H -13.7302 5.40332 12.4165
H -13.4761 4.55633 11.0437
O -0.560985 -3.38308 -14.8767
H 0.059367 -4.04182 14.7296
H -1.44665 -3.41168 14.6919
O -7.2925 -8.814 -6.67548
H -6.45019 -8.98823 -6.16546
H -7.27774 -9.33242 -7.53047
O -10.02 13.1976 -3.3929
H -9.24354 12.6941 -3.01395
H -10.3917 13.8109 -2.69604
O -14.0214 -6.96655 -9.76522
H -14.3708 -6.06988 -10.0371
H -13.9852 -7.0216 -8.76741
O 1.90395 -14.05 -14.5687
H 2.36479 -13.3527 -14.0196
H 2.51643 -14.3604 14.7363
O -6.03808 -4.18259 -8.14409
H -6.85515 -4.74262 -8.00714
H -6.0296 -3.8285 -9.07925
O -6.22757 14.8322 -14.304
H -5.67865 -14.4222 -14.6107
H -6.85006 -14.9033 -13.5797
O -1.74224 -7.60101 -3.08128
H -2.55869 -7.15689 -3.45027
H -1.78241 -8.5822 -3.27006
O 0.513978 3.19683 -11.3853
H 0.300493 2.3012 -11.7755
H 1.4982 3.2629 -11.2213
O -5.97796 2.37923 3.08842
H -5.13991 2.1964 2.57439
H -6.75502 1.95977 2.61914
O 8.13564 -4.41532 -10.7968
H 8.09806 -4.92851 -9.93937
H 9.06396 -4.07196 -10.9393
O -13.0343 14.5478 -12.593
H -13.2902 -14.9274 -11.8027
H -13.6964 13.8072 -12.7075
O 5.56607 -3.21831 11.2807
H 5.47261 -4.1759 11.5532
H 6.50729 -2.91807 11.4354
O -13.5088 7.97078 12.0705
H -14.0461 8.30496 11.2962
H -13.4264 6.97577 12.0144
O 6.73578 11.0615 1.30688
H 6.48259 11.9996 1.54329
H 7.64931 11.0553 0.900183
O -9.28501 -12.1386 -7.50949
H -9.51822 -12.1296 -8.48187
H -9.8246 -11.446 -7.03087
O -12.4961 -11.5696 4.64956
H -11.6554 -12.0324 4.36828
H -12.5642 -10.6887 4.18126
O 12.5553 -13.2056 -5.30485
H 13.3216 -12.5878 -5.12843
H 12.8458 -14.1498 -5.14953
O 2.15729 -3.78306 4.67464
H 2.87546 -3.81337 5.36983
H 2.32844 -4.48921 3.98759
O 6.92468 -9.01908 3.57457
H 7.71011 -8.4029 3.63281
H 6.92806 -9.63851 4.35961
O 8.46888 8.35046 -13.7272
H 7.84057 8.89395 -14.2838
H 8.10748 7.42363 -13.6254
O -10.7894 1.33351 -7.93008
H -10.7512 1.78602 -8.82101
H -11.6035 1.63866 -7.4359
O 6.7 4.8363 1.37116
H 6 4.46915 1.98368
H 7.0934 4.09253 0.830758
O -10.6275 -0.183229 -1.6218
H -9.72325 -0.54821 -1.84335
H -10.964 -0.612516 -0.783679
O -4.77664 -3.77847 4.85286
H -5.16825 -3.1799 5.55167
H -5.04848 -4.72375 5.03324
O -14.1645 -7.81127 -2.11384
H -13.2191 -8.0204 -1.86379
H -14.1785 -7.32626 -2.98822
O -0.325644 -2.49402 5.70377
H -0.812115 -3.34575 5.50916
H 0.554522 -2.49695 5.22913
O 9.82304 -1.33865 0.274939
H 9.47814 -1.64554 -0.612104
H 10.1867 -2.12132 0.780078
O -2.59 -8.19869 9.37262
H -1.76123 -7.72953 9.67757
H -3.2637 -8.19938 10.1116
O -0.190139 -5.70903 4.41016
H 0.154006 -5.00223 3.79211
H 0.556932 -6.04053 4.98633
O 6.3897 2.99828 -0.516208
H 5.90867 3.75845 -0.952923
H 6.95229 2.52599 -1.19476
O 0.722701 -13.9228 -8.92164
H -0.147307 -13.8848 -9.41319
H 1.17903 -14.7906 -9.11832
O 0.223376 -10.0699 -0.615055
H 0.727072 -10.4197 -1.40495
H 0.836766 -9.52533 -0.043104
O -2.41303 -5.87472 12.7307
H -2.71941 -6.06971 13.6624
H -2.87576 -5.05538 12.3922
O 12.8602 -2.57466 4.52909
H 13.0988 -3.30197 3.88559
H 12.4337 -1.81795 4.03368
O 7.6632 -0.647666 2.69391
H 7.50351 0.271375 3.05425
H 6.93882 -0.881986 2.04556
O -5.52838 -14.5564 -10.2022
H -4.96683 -14.5129 -11.0285
H -5.22745 14.7092 -9.63469
O -4.33251 -6.97127 -4.07737
H -4.49999 -6.46135 -4.92113
H -4.46829 -7.94764 -4.24545
O 11.0532 14.2866 -2.1698
H 11.8304 14.8322 -2.48323
H 10.4342 14.8635 -1.63704
O 0.999739 14.1298 -1.56376
H 0.0194791 14.1605 -1.75903
H 1.42691 13.4125 -2.11426
O -11.4754 3.0079 1.53851
H -10.9084 2.38988 2.08311
H -12.4086 2.6515 1.49361
O -2.97109 5.2264 6.41622
H -3.53096 5.66726 7.11777
H -2.05118 5.06787 6.77486
O -3.00323 10.4191 4.2644
H -2.54493 11.2393 4.6068
H -2.96322 9.70056 4.95869
O -5.39435 0.546908 8.12867
H -6.02568 0.371643 7.37324
H -4.85507 1.36511 7.92937
O -8.36601 9.90582 3.61544
H -8.61252 10.2173 4.53316
H -8.92246 10.3883 2.93902
O -13.2571 -11.7625 -6.77119
H -13.0967 -12.7325 -6.95394
H -12.3997 -11.258 -6.87246
O 3.21231 -4.60702 -14.7063
H 4.0476 -4.91756 14.872
H 2.42142 -4.82643 14.7544
O -8.21363 0.067301 -8.71079
H -9.11292 0.335884 -8.36565
H -7.79798 -0.589924 -8.08208
O -7.27651 -1.38471 -0.232827
H -6.65458 -0.820461 -0.775784
H -7.10514 -2.35068 -0.426515
O 1.83459 -2.88261 -4.17597
H 2.00925 -3.69634 -4.73033
H 1.0026 -2.43155 -4.49897
O 0.724344 -2.79296 -12.1821
H 0.245104 -2.64634 -13.0475
H 1.70918 -2.69603 -12.3259
O 8.98306 4.87192 9.02076
H 9.34883 5.59304 9.60913
H 9.38593 4.94945 8.1088
O -10.6784 2.5359 9.35535
H -9.78274 2.44864 9.79143
H -11.3675 2.07425 9.91396
O -12.2727 8.99268 -4.61455
H -12.7911 9.71041 -4.14963
H -12.5127 8.98378 -5.58528
O 14.7581 9.01402 5.97799
H 13.8187 8.68505 5.88151
H -14.839 8.55759 6.75419
O 5.41517 14.0711 -0.720392
H 5.1239 13.1149 -0.747922
H 6.03568 14.2526 -1.48329
O 0.888357 4.4152 -6.00712
H 0.978802 3.86143 -6.83486
H 0.263842 5.17638 -6.18193
O -3.81923 0.614138 -12.4672
H -3.01833 0.81232 -11.9022
H -3.53587 0.10594 -13.2805
O -13.2907 8.90873 -7.4275
H -12.6531 8.38933 -7.99644
H -14.2025 8.88003 -7.83721
O 10.6668 -11.2687 12.5875
H 11.3436 -11.9837 12.7627
H 10.8562 -10.8396 11.7044
O -7.91325 10.5327 8.60604
H -7.88861 10.4431 9.60171
H -8.64547 9.95972 8.23787
O -4.86916 3.90014 -4.7289
H -4.29713 4.69981 -4.91135
H -5.74564 4.19681 -4.34975
O 8.35674 4.06294 -14.5909
H 7.74234 3.62456 -13.9349
H 7.88443 4.8266 15.0009
O 4.53775 10.0764 3.17207
H 4.85951 9.12982 3.19397
H 5.11307 10.6097 2.55196
O -7.7196 1.57319 -10.9798
H -7.32018 2.47089 -10.7938
H -7.78063 1.05263 -10.1282
O 8.18826 5.21548 3.85352
H 7.6744 4.94211 3.04037
H 8.4378 4.40219 4.37914
O -0.566226 -12.1834 5.46789
H -1.24872 -12.5565 6.0964
H -0.817862 -12.4135 4.52781
O -13.9179 14.845 -1.54481
H -13.5364 14.8503 -0.620475
H -13.8927 -14.2608 -1.92116
O 3.81348 -1.3553 9.91201
H 3.91663 -2.2258 10.3932
H 3.61743 -1.52913 8.94696
O 14.0975 -11.5888 -11.3377
H 14.8696 -11.0138 -11.6083
H 13.7951 -11.3307 -10.4202
O 9.0114 0.467008 -7.0265
H 9.97193 0.536271 -6.75712
H 8.91618 -0.218842 -7.74798
O -12.8038 -4.57149 7.51532
H -12.6363 -5.28555 6.83556
H -13.0091 -4.99347 8.39834
O 2.59598 0.0159229 -9.95282
H 2.35349 0.437734 -10.8265
H 2.92843 -0.913596 -10.1124
O 12.1696 3.1894 5.93994
H 11.9988 3.8672 6.65506
H 12.2724 3.6524 5.05957
O -5.2725 -9.80138 -5.08472
H -4.40596 -9.68382 -5.56977
H -5.1147 -10.3116 -4.23931
O 10.1524 3.06208 2.65191
H 9.94778 2.58915 1.79489
H 9.43505 2.86571 3.32041
O 5.01227 5.93106 6.43556
H 5.71444 6.56199 6.10561
H 4.49839 5.56819 5.65824
O 12.7137 -1.35367 -11.2597
H 13.6897 -1.55979 -11.3298
H 12.5891 -0.496422 -10.7601
O 0.339885 -15.0067 10.8017
H -0.244134 -14.5296 10.145
H 0.191537 14.0393 10.7248
O 10.428 -13.8702 6.61051
H 9.51157 -13.8658 7.01071
H 10.8096 -14.7931 6.66169
O 6.8267 11.3087 10.5132
H 6.2273 11.4226 9.72093
H 6.82882 12.1503 11.0533
O -0.733732 9.80969 -9.36104
H -1.49184 10.1063 -9.94181
H -0.974201 8.94866 -8.91295
O -0.416781 3.47197 14.8525
H -0.339057 3.80553 13.913
H 0.456413 3.59643 -14.7083
O 8.08279 1.41371 -2.23103
H 8.91794 0.885066 -2.07921
H 7.52778 0.966052 -2.93213
O 5.885 -6.05883 -10.2395
H 6.13049 -6.85449 -10.7932
H 6.55785 -5.33297 -10.3822
O -4.56077 12.3213 -11.5448
H -4.97435 12.9492 -10.8855
H -5.28042 11.8746 -12.0763
O -6.92082 -8.79339 7.90242
H -6.01137 -8.38078 7.95389
H -7.61548 -8.07529 7.9443
O 4.40557 2.20306 -4.74484
H 3.88842 1.54787 -4.19414
H 5.10431 1.71818 -5.27079
O -6.04339 -2.37872 9.04654
H -5.68265 -3.30859 9.11852
H -5.59049 -1.79257 9.71833
O -1.67541 4.36566 -10.5876
H -0.848119 3.97118 -10.9875
H -2.46519 4.12732 -11.1528
O 2.78646 -11.9823 -8.92017
H 3.64269 -12.439 -8.67881
H 2.07709 -12.6682 -9.08248
O 4.87757 -5.96243 13.4374
H 4.28124 -6.52032 12.8602
H 5.82351 -6.05428 13.1264
O -1.26094 0.7654 -11.6804
H -0.888111 0.534809 -10.7816
H -0.776465 0.247176 -12.3852
O 10.0674 9.71272 -11.9436
H 10.3015 10.5964 -12.3488
H 9.38979 9.25217 -12.5169
O 1.024 -7.57234 -3.02427
H 1.36151 -8.2341 -3.6937
H 0.0256387 -7.53458 -3.06704
O -14.467 -1.8913 -9.76878
H -14.7026 -0.924428 -9.86689
H -13.5088 -1.97476 -9.49497
O -2.31137 12.906 1.21318
H -3.24811 13.2507 1.27387
H -2.32838 11.9344 0.977153
O 3.58163 -9.09832 12.7144
H 3.07965 -9.89937 12.3883
H 4.54244 -9.33974 12.8505
O 0.0672719 -7.89468 14.2122
H 0.535814 -8.75015 14.4328
H -0.445983 -8.00554 13.3612
O 3.2877 2.82066 12.1214
H 2.76394 3.64826 12.3232
H 4.20367 2.90176 12.5143
O 14.7864 -10.5505 -2.39461
H 15.0073 -9.71336 -1.89428
H 13.8384 -10.8092 -2.20926
O -7.95631 -0.183453 9.96368
H -7.6369 0.651498 10.4118
H -7.30604 -0.449498 9.25211
O -13.6004 2.20298 -9.51877
H -12.6753 2.14122 -9.89337
H -13.998 3.0891 -9.75692
O 11.9184 -7.84351 3.42602
H 11.7895 -8.21817 4.34416
H 11.2491 -7.11821 3.26498
O 1.6745 5.72552 -3.65094
H 0.936356 5.52804 -3.00587
H 1.57678 5.14294 -4.45781
O -7.69892 1.01792 1.35577
H -8.43383 1.01447 2.03391
H -7.63351 0.115197 0.930565
O -1.46604 -14.1745 3.41879
H -2.46163 -14.0933 3.3719
H -1.21532 14.8973 3.54211
O -5.64597 3.96203 -8.976
H -5.21269 3.3954 -8.27515
H -5.04137 4.03109 -9.76952
O 6.3324 -2.6809 7.69323
H 6.89453 -1.85732 7.76883
H 5.97712 -2.92591 8.5953
O 12.3066 8.04581 5.90968
H 11.8701 8.19956 6.79615
H 11.6207 7.74152 5.24871
O -1.01916 -2.63755 -9.96841
H -0.353285 -2.68747 -10.7128
H -1.69787 -3.36355 -10.0791
O -11.7272 3.52765 6.60113
H -11.3485 3.50379 7.52634
H -12.0586 2.61737 6.35305
O -9.43117 3.52327 5.22786
H -8.9023 4.35815 5.07532
H -10.3203 3.75895 5.62008
O -10.6458 13.5738 3.91907
H -11.4708 13.358 4.44138
H -10.5464 12.9208 3.16828
O -10.9799 -10.1325 -6.8679
H -10.8239 -9.55814 -6.06429
H -11.0638 -9.55434 -7.67953
O -13.4076 -12.5078 -1.75522
H -12.5 -12.1769 -2.01351
H -14.0937 -11.8213 -1.99623
O -9.29942 -4.41797 6.50184
H -8.85026 -3.92286 5.75812
H -9.12964 -3.94583 7.36685
O 7.26294 0.599325 10.0297
H 7.43502 -0.041588 10.7778
H 6.33424 0.466131 9.68365
O -2.40646 -10.7033 -1.14782
H -3.10538 -10.1209 -0.732698
H -1.50222 -10.4149 -0.83294
O 10.5233 11.1852 14.1822
H 10.9125 10.5307 13.5339
H 11.0166 12.0525 14.1169
O -8.59157 -8.81162 1.43851
H -9.41874 -9.35092 1.28063
H -8.42647 -8.73465 2.42177
O -7.84618 3.66182 -14.6934
H -7.76932 4.00555 14.4027
H -7.5556 4.37228 -14.0524
O 11.463 -12.0588 1.41469
H 12.1889 -12.7255 1.58362
H 10.8713 -11.9994 2.21866
O -14.1669 -13.7454 -10.6071
H -13.9099 -12.8467 -10.9623
H 14.8721 -13.7888 -10.497
O -8.176 3.15599 -7.73279
H -8.31313 2.19886 -7.4777
H -7.40164 3.22568 -8.36167
O 10.065 -8.37525 9.94939
H 10.9122 -7.86506 10.098
H 9.70094 -8.16007 9.04324
O 7.19143 3.64393 -7.56306
H 8.07108 3.62669 -8.03835
H 7.21005 2.99352 -6.80372
O -13.2828 6.15367 -8.48026
H -13.3525 6.27946 -7.49066
H -12.3212 6.18416 -8.7532
O -5.0823 -13.3903 13.4919
H -5.43711 -12.76 12.8014
H -4.96938 -14.2981 13.088
O -14.8038 3.51188 10.2003
H -14.8582 3.59676 9.20543
H -14.9978 2.56738 10.4654
O -9.0971 -6.51617 -2.71443
H -9.78663 -7.05481 -3.19859
H -8.46626 -6.11045 -3.3758
O -11.6969 -2.36352 -3.52849
H -12.0494 -1.47855 -3.22427
H -11.3053 -2.85217 -2.74886
O -14.4415 -8.62774 13.481
H -14.3585 -7.66013 13.7194
H -14.1106 -8.77084 12.5483
O 12.5918 -9.98048 14.7328
H 12.2529 -10.1686 13.811
H 13.5908 -10.0249 14.7362
O 13.4087 -5.62091 -14.2985
H 14.3004 -5.76376 -14.7281
H 13.1635 -4.65299 -14.3534
O -7.30999 -7.2679 -14.5369
H -6.61891 -6.79845 -13.9873
H -6.85898 -7.85898 14.8263
O 14.1391 11.2532 -2.42313
H 14.6427 10.3907 -2.4724
H 14.7288 12.0013 -2.72733
O 13.437 3.63958 -1.30672
H 14.2196 3.58191 -1.92647
H 12.6136 3.32559 -1.77948
O 0.446134 12.3596 11.4086
H 0.327337 11.7126 12.1618
H 0.115024 11.9475 10.5598
O 4.59314 -12.7636 12.6685
H 3.96895 -12.2815 12.0538
H 5.10828 -12.0986 13.2092
O 3.47441 -10.0156 8.99885
H 4.22073 -9.48634 8.59522
H 2.71411 -9.4047 9.21973
O 8.94403 -5.55196 -8.30074
H 9.55064 -6.19354 -8.77019
H 8.24023 -6.06069 -7.80491
O -1.7077 -10.1419 -4.11161
H -2.03651 -10.6976 -3.348
H -0.813056 -10.4772 -4.40686
O -11.257 3.97228 -13.971
H -11.1996 3.6138 -14.9028
H -12.1486 3.7436 -13.5802
O -12.2147 -2.92659 -14.9478
H -11.5496 -2.87894 14.3389
H -12.3256 -3.87794 -14.6603
O -8.80517 -2.71361 8.58342
H -9.14401 -1.78493 8.73416
H -7.82015 -2.74076 8.7537
O 4.58973 -0.128119 -13.6331
H 5.05798 0.0804096 -14.4918
H 5.04287 0.351062 -12.8814
O -2.23222 13.341 10.0031
H -1.87142 14.0504 9.39765
H -2.85927 12.7535 9.49161
O -7.11281 0.794839 5.73615
H -8.09731 0.799906 5.9114
H -6.92315 1.28524 4.88555
O -5.52024 9.5839 14.0101
H -5.79422 9.86109 14.931
H -4.52307 9.52621 13.9622
O -4.35023 -11.4447 -3.12809
H -3.74487 -11.3758 -2.33514
H -4.46511 -12.4063 -3.37719
O -2.66162 8.19029 -11.0769
H -1.90674 7.62313 -10.7475
H -3.49748 7.64276 -11.1159
O 14.2688 -1.34104 -7.2463
H 14.6743 -1.65388 -8.10516
H 14.2574 -2.09463 -6.58907
O 6.14802 -11.9347 -1.57414
H 7.07487 -12.2812 -1.71861
H 5.51992 -12.3897 -2.20534
O -12.0972 0.13214 3.45378
H -12.6739 0.675066 4.06422
H -11.5717 -0.527549 3.99099
O -8.80483 -13.5476 -1.37614
H -8.30777 -13.2798 -0.550822
H -8.90456 -14.5424 -1.39704
O 0.748575 14.4727 -12.7129
H 1.2687 14.9856 -13.3958
H 1.26302 14.4422 -11.8559
O -4.75062 6.80496 8.34462
H -4.88857 7.71666 7.95764
H -4.76994 6.86018 9.3429
O -9.5394 -6.44215 0.171657
H -8.93097 -6.41721 -0.621546
H -9.23922 -7.16023 0.799538
O 7.37778 2.63094 7.06547
H 7.99504 2.73653 7.8451
H 6.61861 3.27609 7.15164
O -1.77659 1.9016 -7.30589
H -1.23562 1.57024 -6.53289
H -1.65107 1.29006 -8.08707
O -12.9242 14.7366 1.09256
H -13.2056 -14.5071 1.63976
H -13.1915 13.8939 1.55992
O 0.952284 13.1033 4.38065
H 1.38748 12.2245 4.57625
H 1.01948 13.6947 5.18422
O -12.4306 14.6037 9.93763
H -13.1091 13.8908 9.76047
H -12.0449 14.477 10.8515
O 12.3581 -7.04767 10.4692
H 13.1506 -6.61762 10.0368
H 12.5476 -7.19619 11.4397
O 10.5067 -12.9633 3.82908
H 9.65269 -12.4836 3.62772
H 10.3716 -13.5696 4.61277
O 12.79 -9.59911 1.40948
H 12.3433 -9.03291 2.10219
H 12.3914 -10.5161 1.42081
O 4.59276 9.41675 -13.8449
H 4.73619 9.85053 -12.9554
H 5.46963 9.32677 -14.3171
O -1.82966 13.1683 4.15683
H -0.860556 13.029 4.36033
H -2.00841 12.9248 3.20354
O -6.8865 9.45043 -8.60676
H -6.6393 8.49238 -8.75173
H -6.92545 9.92162 -9.48792
O -10.2659 -10.7403 9.42488
H -10.4169 -11.6851 9.71587
H -10.9697 -10.4785 8.76451
O 3.00983 -0.420592 6.4746
H 3.48357 -0.756758 5.66063
H 2.02659 -0.382865 6.29625
O 4.30261 -8.80537 -2.03559
H 3.50213 -9.38156 -2.20058
H 4.94622 -9.29054 -1.44368
O 11.964 12.3107 -0.494914
H 12.526 11.6766 -1.02588
H 11.785 13.1317 -1.03714
O 9.03949 13.3055 -11.0179
H 8.06819 13.1133 -11.158
H 9.58083 12.7853 -11.6784
O -6.60454 1.6441 11.4871
H -6.8813 2.39334 12.0888
H -5.60662 1.58238 11.469
O 5.6938 9.77482 -10.723
H 6.17854 10.3489 -10.0631
H 5.63497 8.84035 -10.3719
O -9.26935 6.73178 -7.00637
H -8.9127 7.66597 -6.99855
H -9.45119 6.43656 -6.06841
O -10.0855 -4.79199 9.95091
H -9.73671 -4.86911 10.8849
H -9.58775 -4.07174 9.46769
O -14.1585 -9.95562 2.09697
H -14.0989 -9.30257 1.34202
H -14.6701 -9.54606 2.85232
O 1.74041 5.24082 12.3599
H 1.07603 4.5169 12.1741
H 1.2786 6.12773 12.3495
O 8.29345 -6.74929 4.43646
H 7.54384 -6.17265 4.11159
H 9.11791 -6.19402 4.54565
O 3.92119 -3.82019 -2.7441
H 3.19092 -3.32861 -3.21849
H 3.52474 -4.55115 -2.18866
O -10.3114 -1.26329 5.06746
H -9.58234 -1.75522 5.54335
H -11.1881 -1.70803 5.25051
O -4.02381 11.8797 8.10318
H -3.39011 11.163 7.81193
H -4.13073 12.549 7.36797
O -3.12748 12.0234 12.0931
H -2.94568 12.6725 11.3544
H -3.72131 11.2928 11.7562
O -5.63573 13.9091 -5.57615
H -6.03097 13.0117 -5.38044
H -6.31109 14.4748 -6.04938
O -14.8574 -7.17094 3.30067
H -14.9441 -7.45408 2.34552
H 14.8493 -7.90505 3.89675
O -7.64979 -14.4644 11.0678
H -7.75465 -13.4829 10.9075
H -8.50116 -14.8342 11.4398
O 8.49577 2.53846 4.67224
H 7.89763 2.61531 5.46993
H 9.18103 1.82896 4.83658
O -6.92837 13.9693 7.82896
H -6.63486 13.5729 8.69884
H -7.25942 13.243 7.22653
O -8.7888 -10.5631 5.97278
H -9.17498 -11.3824 6.39672
H -8.06962 -10.1915 6.55983
O 8.31787 11.4312 -5.35391
H 8.21469 10.4629 -5.58119
H 9.09796 11.548 -4.73927
O 13.9213 14.4066 -4.08943
H 14.8672 14.0845 -4.05078
H 13.7858 -14.9065 -3.40752
O -13.1644 2.14247 -6.82259
H -13.7007 1.57334 -6.19934
H -13.4736 1.99135 -7.76148
O 14.7268 -10.4361 9.80836
H 14.9271 -11.3599 10.1346
H 13.8597 -10.4392 9.31022
O -5.53188 7.92466 11.0121
H -5.20877 8.85516 10.8396
H -6.34804 7.95679 11.589
O -4.85031 13.8622 1.56085
H -5.16476 13.5537 2.45858
H -5.59012 14.3508 1.09837
O -4.51821 -14.0244 -3.78744
H -5.03809 -14.4695 -4.51651
H -3.54108 -14.1806 -3.93163
O 10.9879 5.44875 -12.1536
H 11.552 4.6232 -12.1678
H 11.4507 6.17745 -12.6583
O -10.748 6.12257 -9.27869
H -10.2347 5.37395 -9.69831
H -10.293 6.40673 -8.43477
O 8.45817 -13.7363 -6.4479
H 9.02187 -13.9152 -7.25426
H 8.39179 -14.5679 -5.89648
O 2.32558 12.082 -14.9242
H 2.1107 12.9172 14.6015
H 2.40151 12.2932 -13.9497
O 8.63759 -6.9672 -4.92752
H 7.91098 -6.89834 -5.6111
H 9.36576 -7.55883 -5.27353
O -9.04664 -6.43122 12.3143
H -9.29233 -6.71265 13.2419
H -9.37632 -7.11266 11.6609
O 13.075 7.6376 -7.33677
H 13.7075 7.18987 -6.70467
H 13.4986 8.46736 -7.70015
O 10.408 6.26837 10.7875
H 10.6805 7.11741 11.2401
H 11.2241 5.75121 10.5298
O -10.5552 -12.4031 -3.17518
H -9.91488 -12.833 -2.53869
H -10.835 -13.0688 -3.86694
O 10.1179 -8.97654 -6.15909
H 9.84899 -9.34859 -7.04749
H 11.0034 -9.35709 -5.89259
O 3.29096 7.08581 1.69324
H 3.5744 6.94536 2.64188
H 2.29271 7.12 1.64522
O 3.86049 14.9135 13.6869
H 4.03667 -14.1698 13.4241
H 4.72908 14.4475 13.8552
O -1.20577 -14.7747 8.21185
H -0.47012 -14.9924 7.57043
H -1.79372 -14.0684 7.81749
O -13.2602 -4.18708 -1.07085
H -12.2915 -4.4024 -1.19411
H -13.4112 -3.21517 -1.25133
O 4.89947 -4.12498 1.73967
H 3.99057 -4.53408 1.82044
H 5.39414 -4.55804 0.986178
O 9.7442 -2.99989 -7.63132
H 9.38637 -2.34134 -8.29333
H 9.46994 -3.92366 -7.89856
O -2.05773 -11.6015 -7.8949
H -1.11424 -11.3281 -8.08213
H -2.104 -12.5959 -7.79994
O 14.7886 10.1382 -13.2379
H 14.9143 9.51211 -14.0074
H 14.0833 9.7784 -12.6271
O -7.40185 4.98994 -4.14096
H -8.11839 4.57082 -4.69853
H -7.49781 4.68761 -3.19261
O -9.04759 -2.89576 -10.7823
H -8.0765 -2.98697 -11.0029
H -9.16555 -2.89892 -9.7893
O 4.76047 -10.6416 -10.7032
H 4.04189 -11.0321 -10.1278
H 5.48032 -10.2591 -10.124
O -7.22346 11.9912 -5.02831
H -8.05212 12.0957 -5.57821
H -7.14382 11.0424 -4.72249
O -2.01669 -4.11925 -6.46396
H -2.35731 -3.70465 -7.3078
H -2.61282 -4.87787 -6.20107
O 6.57468 -13.8745 1.4413
H 7.38441 -14.4145 1.67079
H 6.08028 -14.3166 0.692919
O -11.9824 8.26358 9.55717
H -11.9835 7.41034 10.0787
H -11.1484 8.31758 9.00808
O 14.3767 7.23607 0.940025
H -14.9775 7.3475 0.213268
H 13.8469 6.40379 0.776934
O -5.17636 8.48579 -13.3588
H -4.8609 7.75363 -12.7551
H -4.41084 9.09115 -13.5767
O -6.61442 11.9189 -13.7351
H -6.5263 12.8351 -14.126
H -7.582 11.7064 -13.5986
O -5.55436 0.293776 -1.64155
H -5.34405 1.17838 -1.22534
H -5.30133 0.311939 -2.60882
O 8.45404 -8.02066 -0.745962
H 7.92308 -8.63337 -0.160588
H 7.84183 -7.56034 -1.38883
O -5.30035 -5.94773 -13.204
H -5.22085 -5.54652 -12.2915
H -4.49532 -6.51037 -13.3921
O 4.71873 3.84566 -8.76006
H 5.65872 3.99006 -8.45095
H 4.08628 4.2765 -8.11634
O 5.5115 1.13959 1.46948
H 5.76851 1.64134 0.643537
H 5.3532 0.179167 1.24032
O -0.131312 -0.410001 -13.9792
H 0.305977 -0.866627 -14.754
H -1.11639 -0.349895 -14.1404
O 4.70523 -11.1701 5.91722
H 3.80116 -10.7558 6.02201
H 4.73538 -11.6934 5.0656
O -4.76907 10.6151 10.4875
H -5.53851 11.0678 10.9381
H -4.70184 10.9342 9.54216
O -9.86216 -9.80631 -2.78027
H -9.75282 -9.31498 -3.64435
H -9.91411 -10.7887 -2.95971
O 6.58824 -6.56654 -7.08407
H 5.99919 -5.86468 -6.68358
H 6.04326 -7.37764 -7.29644
O 3.50083 -6.7615 11.142
H 4.12734 -6.51777 10.4017
H 3.67901 -7.70129 11.4336
O -0.0670487 7.68931 1.78439
H -1.05846 7.66424 1.91269
H 0.171947 8.45094 1.18207
O -9.94891 7.68419 2.22249
H -9.31105 8.36273 2.58675
H -10.5967 8.13256 1.60663
O -14.0248 -6.08683 14.4535
H -13.6951 -5.44866 13.7577
H -13.6959 -5.7985 -14.6792
O 0.0911328 -5.6511 -9.33783
H -0.708581 -5.65444 -9.93819
H 0.923695 -5.66357 -9.8916
O 6.16161 -12.5385 -12.3469
H 5.78805 -11.7338 -11.8854
H 7.12328 -12.3785 -12.5696
O 5.56775 -8.35998 -4.5215
H 5.09304 -8.66452 -3.69574
H 4.90639 -7.96715 -5.16046
O -10.2759 -14.5275 -5.36538
H -9.99988 14.5433 -5.35587
H -9.47465 -13.9523 -5.52992
O 4.20602 13.8654 -8.81963
H 4.43731 13.4841 -7.92456
H 4.86382 13.5418 -9.49979
O 7.64028 -12.0175 9.47932
H 7.13771 -11.1533 9.50207
H 7.11607 -12.7207 9.95968
O -13.1648 -6.60482 5.58989
H -12.3454 -6.14752 5.24434
H -13.8817 -6.57554 4.8933
O -3.83655 0.70729 11.9845
H -3.41024 1.32623 12.6442
H -3.38525 -0.184197 12.024
O 2.13185 0.791958 -7.27877
H 1.55776 1.58178 -7.49463
H 2.41432 0.343511 -8.12676
O 12.4133 -13.5 12.4997
H 12.3931 -13.5642 11.5019
H 13.3619 -13.4428 12.8109
O 5.28383 8.15199 11.2074
H 5.51916 9.09358 11.4482
H 4.72075 7.75355 11.9314