LAMMPS data file via write_data, version 15 May 2015, timestep = 2100000

2611 atoms
6 atom types
1749 bonds
4 bond types
894 angles
3 angle types
44 dihedrals
3 dihedral types
10 impropers
1 improper types

-1.5090888887772749e+01 1.5090888887772749e+01 xlo xhi
-1.5090888887772749e+01 1.5090888887772749e+01 ylo yhi
-1.5090888887772749e+01 1.5090888887772749e+01 zlo zhi

Masses

1 15.9994
2 1.00794
3 12.0107
4 1.00794
5 12.0107
6 12.0107

Bond Coeffs # harmonic

1 1000 1
2 469 1.4
3 367 1.08
4 469 0.7

Angle Coeffs # harmonic

1 100 109.47
2 35 120
3 63 120

Dihedral Coeffs # opls

1 0 7.25 0 0
2 0 7.25 0 0
3 0 7.25 0 0

Improper Coeffs # cvff

1 2.5 -1 2

Atoms # full

260 87 2 4.0999999999999998e-01 -1.2594784790185011e+01 -1.2586920513222946e+01 -1.0720369549511283e+01 0 0 0
259 87 1 -8.1999999999999995e-01 -1.2138234055117222e+01 -1.2756221610911911e+01 -1.1593845136578526e+01 0 0 0
261 87 2 4.0999999999999998e-01 -1.1828016753525819e+01 -1.3706262617569434e+01 -1.1629175976850405e+01 0 0 0
380 127 2 4.0999999999999998e-01 -8.9646330009250121e+00 -1.2085077805789744e+01 -1.2647687640750799e+01 0 1 -1
381 127 2 4.0999999999999998e-01 -1.0571363495618883e+01 -1.1845088790931115e+01 -1.2481520629318752e+01 0 1 -1
379 127 1 -8.1999999999999995e-01 -9.7944647594228194e+00 -1.1767171734575410e+01 -1.3106355245584432e+01 0 1 -1
686 229 2 4.0999999999999998e-01 -1.2105819696598200e+01 -1.0632921981881823e+01 -1.2732847934088939e+01 1 2 1
687 229 2 4.0999999999999998e-01 -1.2684102680312620e+01 -9.2126785910467390e+00 -1.2171344057825879e+01 1 2 1
1505 502 2 4.0999999999999998e-01 -1.0424465300632237e+01 -1.2810610720650095e+01 -1.4303276635825984e+01 2 -1 2
1128 376 2 4.0999999999999998e-01 -1.4666819321665704e+01 -9.0133497673074956e+00 -1.4467811747909259e+01 0 -1 1
117 39 2 4.0999999999999998e-01 -8.2134698950931906e+00 -1.3243780637541704e+01 -9.3762451363429449e+00 0 -1 1
604 202 1 -8.1999999999999995e-01 -1.3167705316391295e+01 -8.6499780284630194e+00 -1.0523858509766519e+01 0 -1 1
2485 829 1 -8.1999999999999995e-01 -8.3186066125953602e+00 -9.4169897774828382e+00 -1.4023438113376370e+01 1 2 2
2487 829 2 4.0999999999999998e-01 -8.7571196927968185e+00 -1.0258807222390029e+01 -1.3708619595005047e+01 1 2 2
1506 502 2 4.0999999999999998e-01 -1.1332825887020153e+01 -1.4050912294466713e+01 -1.4854023591361923e+01 2 -1 2
2592 864 2 4.0999999999999998e-01 -1.4382647004190956e+01 -1.0560670489865759e+01 -1.2475241091593698e+01 3 2 0
2465 822 2 4.0999999999999998e-01 -7.7069246956905264e+00 -1.3839416678275516e+01 -1.2589546146008974e+01 2 0 1
685 229 1 -8.1999999999999995e-01 -1.2631197769016628e+01 -9.8150994493650927e+00 -1.2967805717970343e+01 1 2 1
2486 829 2 4.0999999999999998e-01 -8.9365301532928640e+00 -8.9299935809929174e+00 -1.4640743734730229e+01 1 2 2
605 202 2 4.0999999999999998e-01 -1.2401860540905410e+01 -9.1389950848122297e+00 -1.0106240163322731e+01 0 -1 1
1355 452 2 4.0999999999999998e-01 -1.1373831198461657e+01 -1.4713574347685118e+01 -1.0062233151378468e+01 0 1 1
1124 375 2 4.0999999999999998e-01 -1.4897105673214069e+01 -1.2863726739692321e+01 -9.3746945194378828e+00 1 1 1
1618 540 1 -8.1999999999999995e-01 -1.2773496752866992e+01 -1.4658094061819499e+01 -1.4208979744945710e+01 0 1 1
2189 730 2 4.0999999999999998e-01 -1.1427185610382011e+01 -9.4083949663859556e+00 -1.4296657495879471e+01 0 -1 1
606 202 2 4.0999999999999998e-01 -1.3999354117215422e+01 -8.8190026644615571e+00 -9.9948481418187676e+00 0 -1 1
1620 540 2 4.0999999999999998e-01 -1.3501477207496844e+01 -1.3972842751938055e+01 -1.4185826605718885e+01 0 1 1
1504 502 1 -8.1999999999999995e-01 -1.0556112511748385e+01 -1.3454590880207100e+01 -1.5056947426880846e+01 2 -1 2
1454 485 2 4.0999999999999998e-01 -8.2154751837029814e+00 -8.0046713576126276e+00 -9.6111791415977414e+00 0 1 1
1756 586 1 -8.1999999999999995e-01 -7.9270413237460211e+00 -1.4986910308876938e+01 -1.3662870341227338e+01 3 0 0
2423 808 2 4.0999999999999998e-01 -1.0549295095778723e+01 -1.0957564930150838e+01 -1.0021455090015863e+01 1 0 0
2424 808 2 4.0999999999999998e-01 -1.0187691360231758e+01 -9.4195028341472540e+00 -9.6086636244154633e+00 1 0 0
1246 416 1 -8.1999999999999995e-01 -1.5050930547525493e+01 -1.3064811217399752e+01 -1.4250312663616560e+01 1 1 0
2422 808 1 -8.1999999999999995e-01 -1.0763042436653510e+01 -9.9952354488488950e+00 -1.0189666269714575e+01 1 0 0
1354 452 1 -8.1999999999999995e-01 -1.1798591149727255e+01 -1.4300819087345245e+01 -9.2564583340906701e+00 0 1 1
113 38 2 4.0999999999999998e-01 -1.4740906873366812e+01 -8.3792603943010988e+00 -1.1561271808700218e+01 0 0 0
1125 375 2 4.0999999999999998e-01 -1.4867469848140109e+01 -1.1686720513404087e+01 -1.0506316089632293e+01 1 1 1
1123 375 1 -8.1999999999999995e-01 -1.5041010390977219e+01 -1.1888405967695928e+01 -9.5423307921966263e+00 1 1 1
2188 730 1 -8.1999999999999995e-01 -1.0800687073718990e+01 -9.2139436710105365e+00 -1.5051474942611758e+01 0 -1 1
1247 416 2 4.0999999999999998e-01 -1.5071776826343324e+01 -1.2275654306974555e+01 -1.3636425202212770e+01 1 1 0
2384 795 2 4.0999999999999998e-01 -6.4761191059158971e+00 -1.0347915747759210e+01 -1.4507699403475982e+01 1 1 2
1406 469 2 4.0999999999999998e-01 -6.2841988717362369e+00 -1.2999248725548236e+01 -1.4842860023777654e+01 0 -1 0
2464 822 1 -8.1999999999999995e-01 -7.5084865235071243e+00 -1.3012209206459509e+01 -1.2063798022417046e+01 2 0 1
2466 822 2 4.0999999999999998e-01 -7.2537686093520168e+00 -1.3263809988764764e+01 -1.1130054590247736e+01 2 0 1
1823 608 2 4.0999999999999998e-01 -6.5629784640708699e-01 -1.3010234047802738e+01 -1.0228053231394913e+01 1 1 0
753 251 2 4.0999999999999998e-01 -3.5647968554065468e+00 -1.0169723241275628e+01 -9.6188261401050887e+00 -1 1 0
1274 425 2 4.0999999999999998e-01 -5.5788876771905329e+00 -1.3114661107035580e+01 -1.2967706447673706e+01 0 2 1
2588 863 2 4.0999999999999998e-01 -6.7770878450600325e+00 -8.8072354651685494e+00 -1.1120686242564116e+01 1 1 1
2587 863 1 -8.1999999999999995e-01 -6.4541431048666649e+00 -9.1446014945191436e+00 -1.2004966727077328e+01 1 1 1
1608 536 2 4.0999999999999998e-01 -3.5628517778622282e-01 -9.4574275789366737e+00 -1.2349535726744287e+01 1 2 0
1498 500 1 -8.1999999999999995e-01 -5.6748840623263419e-01 -7.8659698750904452e+00 -1.2403015431408352e+01 1 2 3
2589 863 2 4.0999999999999998e-01 -7.1578695738844447e+00 -8.9890950512939138e+00 -1.2698254450427457e+01 1 1 1
999 333 2 4.0999999999999998e-01 -1.8224481033557129e+00 -1.2973299580003648e+01 -1.3287479102066332e+01 -1 -2 0
2028 676 2 4.0999999999999998e-01 -3.5083601053052380e+00 -1.1258165125843911e+01 -1.2348020354803314e+01 1 2 -1
2026 676 1 -8.1999999999999995e-01 -4.0309201728199753e+00 -1.0663151171760836e+01 -1.1737323755338082e+01 1 2 -1
997 333 1 -8.1999999999999995e-01 -2.1164984755462903e+00 -1.2019039461798437e+01 -1.3342095876880808e+01 -1 -2 0
2027 676 2 4.0999999999999998e-01 -4.9030825167269576e+00 -1.0428336405621259e+01 -1.2166574074587967e+01 1 2 -1
1792 598 1 -8.1999999999999995e-01 -2.1781780674923645e+00 -1.4711492472068718e+01 -1.4100017551087863e+01 -1 0 2
185 62 2 4.0999999999999998e-01 -4.8350011787586435e+00 -1.2716071706957933e+01 -1.0002432256545720e+01 1 1 1
1377 459 2 4.0999999999999998e-01 -5.9199397045313251e+00 -8.1952493696848876e+00 -1.4077394784503127e+01 1 1 2
998 333 2 4.0999999999999998e-01 -1.4667673668887229e+00 -1.1441241789445971e+01 -1.2848071227885670e+01 -1 -2 0
184 62 1 -8.1999999999999995e-01 -4.2336386898867957e+00 -1.3481292811666359e+01 -1.0232347033568978e+01 1 1 1
1822 608 1 -8.1999999999999995e-01 -8.7989313125171797e-01 -1.3984939786022045e+01 -1.0231919221412566e+01 1 1 0
987 329 2 4.0999999999999998e-01 -3.0935241639749460e+00 -1.1759321458304036e+01 -1.4662231194788692e+01 0 0 1
2192 731 2 4.0999999999999998e-01 -5.1515059974499202e+00 -7.7349558982702780e+00 -1.0688068864371996e+01 1 -2 0
2383 795 1 -8.1999999999999995e-01 -5.5718796481904302e+00 -1.0228192758517517e+01 -1.4917673199287959e+01 1 1 2
1824 608 2 4.0999999999999998e-01 -1.0155849575302796e+00 -1.4299522494775841e+01 -9.2924052599145384e+00 1 1 0
1275 425 2 4.0999999999999998e-01 -4.3185793107048642e+00 -1.3742068958751608e+01 -1.2140197347120717e+01 0 2 1
1794 598 2 4.0999999999999998e-01 -3.1249130791316571e+00 -1.4780513200933811e+01 -1.3785390898819966e+01 -1 0 2
1500 500 2 4.0999999999999998e-01 -1.5203890068586023e+00 -7.6236701980479111e+00 -1.2220443823846669e+01 1 2 3
1273 425 1 -8.1999999999999995e-01 -4.8112307609115170e+00 -1.3754147781712382e+01 -1.3010375284084851e+01 0 2 1
186 62 2 4.0999999999999998e-01 -4.2233565364526271e+00 -1.4135933926747276e+01 -9.4764368041692606e+00 1 1 1
1453 485 1 -8.1999999999999995e-01 -7.2347462970782610e+00 -7.9279292648540949e+00 -9.7910193657338951e+00 0 1 1
2193 731 2 4.0999999999999998e-01 -3.9656846036721465e+00 -8.7301647898062811e+00 -1.1207853366986233e+01 1 -2 0
2191 731 1 -8.1999999999999995e-01 -4.1778323048633688e+00 -7.9516984462144400e+00 -1.0617053514854145e+01 1 -2 0
115 39 1 -8.1999999999999995e-01 -7.2599208248179110e+00 -1.3544411212336597e+01 -9.3555956199218961e+00 0 -1 1
1606 536 1 -8.1999999999999995e-01 -3.0249286076992377e-01 -1.0451893947192275e+01 -1.2258959346231791e+01 1 2 0
1455 485 2 4.0999999999999998e-01 -6.7332270663260640e+00 -8.5239837539154486e+00 -9.1639161038236843e+00 0 1 1
193 65 1 -8.1999999999999995e-01 -1.1393366990100857e+01 -5.2134710162747986e+00 -9.1555601571612222e+00 -2 1 -1
353 118 2 4.0999999999999998e-01 -1.1503468484591973e+01 -6.9114192742928662e+00 -1.2745785080674885e+01 1 1 1
352 118 1 -8.1999999999999995e-01 -1.1481187467065560e+01 -5.9835881464450775e+00 -1.2373368704580729e+01 1 1 1
354 118 2 4.0999999999999998e-01 -1.1729682723086412e+01 -6.0070518863271563e+00 -1.1404988322720603e+01 1 1 1
1916 639 2 4.0999999999999998e-01 -1.3652438064824679e+01 -3.6720243402363426e+00 -1.4288892235275856e+01 2 -1 0
2358 786 2 4.0999999999999998e-01 -8.5275116142371736e+00 -2.0692516179761480e+00 -1.5012047372921124e+01 -2 1 1
992 331 2 4.0999999999999998e-01 -7.9428495387788596e+00 -5.1107706567594118e+00 -1.4427698896505120e+01 1 1 1
932 311 2 4.0999999999999998e-01 -8.6637048799832499e+00 -2.8476076314059053e+00 -1.2820003122436489e+01 1 2 1
494 165 2 4.0999999999999998e-01 -1.4333477287884516e+01 -3.8513548198052003e+00 -1.0680963824540967e+01 0 0 1
469 157 1 -8.1999999999999995e-01 -1.4408626107691555e+01 -2.7183365641048116e+00 -1.3174420682147097e+01 1 0 1
495 165 2 4.0999999999999998e-01 -1.4015897134736072e+01 -2.7999684401460918e+00 -9.4724446329154670e+00 0 0 1
493 165 1 -8.1999999999999995e-01 -1.3625547140755689e+01 -3.2905423049488949e+00 -1.0251562821179405e+01 0 0 1
471 157 2 4.0999999999999998e-01 -1.3538785932135442e+01 -2.2754442205634788e+00 -1.2956968483715428e+01 1 0 1
1328 443 2 4.0999999999999998e-01 -1.0427503247009726e+01 -3.8225909168128780e+00 -1.4561570815075889e+01 2 1 2
1327 443 1 -8.1999999999999995e-01 -1.0319043687094663e+01 -3.8903857823027916e+00 -1.3569753597155348e+01 2 1 2
195 65 2 4.0999999999999998e-01 -1.0856382786157727e+01 -4.3744668681028180e+00 -9.2437699955858612e+00 -2 1 -1
383 128 2 4.0999999999999998e-01 -1.1165028248229955e+01 -2.7240288902428844e+00 -1.2692908986975757e+01 2 1 -1
1948 650 1 -8.1999999999999995e-01 -9.3336445174962641e+00 -2.9594176739179563e+00 -9.8172047303328789e+00 0 0 1
1950 650 2 4.0999999999999998e-01 -9.2557897953247341e+00 -2.3527398595625169e+00 -1.0608369490714814e+01 0 0 1
1949 650 2 4.0999999999999998e-01 -8.7596518814668229e+00 -3.7661219179258119e+00 -9.9579945595531214e+00 0 0 1
1056 352 2 4.0999999999999998e-01 -8.0216246739977546e+00 -5.3581175603306495e+00 -1.1627970189147216e+01 0 1 1
1054 352 1 -8.1999999999999995e-01 -7.9165774758757541e+00 -5.3040964428297084e+00 -1.0634940563669524e+01 0 1 1
382 128 1 -8.1999999999999995e-01 -1.1543938053808148e+01 -2.0527764428642641e+00 -1.2055799500648668e+01 2 1 -1
384 128 2 4.0999999999999998e-01 -1.1944201237871518e+01 -2.5266446828194553e+00 -1.1271389382560830e+01 2 1 -1
290 97 2 4.0999999999999998e-01 -8.2479074959104999e+00 -4.6117612283740783e-01 -1.2201086088439473e+01 -1 1 0
489 163 2 4.0999999999999998e-01 -1.1575306201037604e+01 -3.3278455548865082e-01 -1.0708101859956969e+01 1 1 2
1329 443 2 4.0999999999999998e-01 -1.0753326471088410e+01 -4.7300684754155320e+00 -1.3243574992135104e+01 2 1 2
931 311 1 -8.1999999999999995e-01 -8.2655964839813443e+00 -2.2083691355053343e+00 -1.2162017696659465e+01 1 2 1
2357 786 2 4.0999999999999998e-01 -8.2482040127282321e+00 -6.6338479322084432e-01 -1.4229541928315486e+01 -2 1 1
194 65 2 4.0999999999999998e-01 -1.2292792813844844e+01 -5.0788376720295592e+00 -9.5714544016146856e+00 -2 1 -1
933 311 2 4.0999999999999998e-01 -7.6893987611927592e+00 -2.7099980149313723e+00 -1.1516707209143091e+01 1 2 1
10 4 1 -8.1999999999999995e-01 -1.2698020947974037e+01 -2.9694260380622950e-02 -1.4509144794818452e+01 0 -1 0
2356 786 1 -8.1999999999999995e-01 -8.0357797918506098e+00 -1.1991628873591491e+00 -1.5046780423346734e+01 -2 1 1
54 18 2 4.0999999999999998e-01 -4.6961154185565803e+00 -1.2502382530962493e+00 -1.2605099401571431e+01 1 1 1
2205 735 2 4.0999999999999998e-01 -2.0175256147849829e-01 -6.1378782163827239e-01 -1.2881990817900322e+01 1 -1 1
519 173 2 4.0999999999999998e-01 -4.2151173658619356e+00 -2.6789904445493544e+00 -1.4419154835984404e+01 -1 0 1
761 254 2 4.0999999999999998e-01 -1.9881802791338838e+00 -1.2557869049402193e-01 -9.1784847987366192e+00 -1 0 -1
19 7 1 -8.1999999999999995e-01 -2.1376204605229212e+00 -4.4553112852996115e+00 -1.1132342688040861e+01 2 1 -1
1375 459 1 -8.1999999999999995e-01 -6.0913555362025313e+00 -7.2228925122034333e+00 -1.4236139024974308e+01 1 1 2
20 7 2 4.0999999999999998e-01 -2.7235418352781071e+00 -4.8467606060328876e+00 -1.1841937339085806e+01 2 1 -1
1683 561 2 4.0999999999999998e-01 -2.2498552650846175e+00 -2.6936964287030527e+00 -1.0890441306407336e+01 1 2 1
1055 352 2 4.0999999999999998e-01 -7.5229353922358948e+00 -6.1580148748705401e+00 -1.0294455114112393e+01 0 1 1
1214 405 2 4.0999999999999998e-01 -6.0877547517714259e+00 -4.0485222197907458e+00 -1.5084110712864721e+01 -1 1 2
1093 365 1 -8.1999999999999995e-01 -6.2297839676357665e+00 -2.8026875829718083e+00 -1.0126075009855347e+01 0 1 0
168 56 2 4.0999999999999998e-01 -3.1223868066528500e+00 -4.7112287434066769e+00 -1.4199726722224124e+01 -1 1 1
728 243 2 4.0999999999999998e-01 -1.0042187810054362e+00 -3.0074527775057405e+00 -1.4002762307180211e+01 0 1 2
993 331 2 4.0999999999999998e-01 -6.7574575342566146e+00 -5.7355217624314712e+00 -1.3494253189261247e+01 1 1 1
517 173 1 -8.1999999999999995e-01 -3.7600483516572254e+00 -1.8951219741262335e+00 -1.3996634515614824e+01 -1 0 1
1095 365 2 4.0999999999999998e-01 -5.7779978369919309e+00 -3.6494124859484103e+00 -9.8449927640860722e+00 0 1 0
518 173 2 4.0999999999999998e-01 -2.7691708734830822e+00 -2.0246679428488328e+00 -1.4034590211738497e+01 -1 0 1
1937 646 2 4.0999999999999998e-01 -3.1890905867714192e+00 -7.0330622407405734e+00 -9.5031640599070411e+00 1 2 2
1094 365 2 4.0999999999999998e-01 -6.5615007457542234e+00 -2.3174336059493630e+00 -9.3170301731491918e+00 0 1 0
431 144 2 4.0999999999999998e-01 -3.9115643358709029e-01 -5.0771850447324383e+00 -1.1924289355826224e+01 0 1 0
727 243 1 -8.1999999999999995e-01 -1.4431649877565960e+00 -3.4545981343120769e+00 -1.4782151962972534e+01 0 1 2
991 331 1 -8.1999999999999995e-01 -7.3478828534671452e+00 -4.9419978026879967e+00 -1.3641829085727933e+01 1 1 1
53 18 2 4.0999999999999998e-01 -5.3603865879663761e+00 -1.4261180559548556e+00 -1.1123681386093756e+01 1 1 1
1682 561 2 4.0999999999999998e-01 -3.3504758945756148e+00 -1.4872971815956451e+00 -1.0885523409920118e+01 1 2 1
52 18 1 -8.1999999999999995e-01 -5.0135598067127987e+00 -7.6582188618564118e-01 -1.1789850439968687e+01 1 1 1
2204 735 2 4.0999999999999998e-01 -1.1819533185763369e+00 -1.5879236890243025e+00 -1.2011901792219350e+01 1 -1 1
1681 561 1 -8.1999999999999995e-01 -2.3818231733531707e+00 -1.7093007337961179e+00 -1.0773776874174853e+01 1 2 1
166 56 1 -8.1999999999999995e-01 -3.4568340832814606e+00 -5.4145831091175491e+00 -1.3572432038312595e+01 -1 1 1
167 56 2 4.0999999999999998e-01 -4.4297381268740228e+00 -5.5747560944208754e+00 -1.3739355052526790e+01 -1 1 1
21 7 2 4.0999999999999998e-01 -2.1772197829401190e+00 -5.0283824203129601e+00 -1.0313757113370235e+01 2 1 -1
2203 735 1 -8.1999999999999995e-01 -5.2396522472621498e-01 -1.5531265948107382e+00 -1.2764166268731252e+01 1 -1 1
2355 785 2 4.0999999999999998e-01 -2.0102603755177135e+00 -6.6238086256258288e+00 -1.4445050776085491e+01 1 1 1
2354 785 2 4.0999999999999998e-01 -4.9647418510278385e-01 -6.8703148206039284e+00 -1.5005831603034496e+01 1 1 1
1080 360 2 4.0999999999999998e-01 -1.0939423432227974e+01 -9.8985694832037119e+00 -5.5292576756493812e+00 1 1 3
1078 360 1 -8.1999999999999995e-01 -1.1570485518111408e+01 -1.0611440173667539e+01 -5.2232558497222268e+00 1 1 3
429 143 2 4.0999999999999998e-01 -9.5169151235279674e+00 -8.5468125257062333e+00 -5.0767496067324700e+00 1 1 0
2367 789 2 4.0999999999999998e-01 -1.4418108580994920e+01 -1.3012158067746086e+01 -4.8322588293305770e+00 1 2 0
427 143 1 -8.1999999999999995e-01 -1.0089562914332284e+01 -8.0950661661297865e+00 -5.7608992237301280e+00 1 1 0
655 219 1 -8.1999999999999995e-01 -8.2937701750784818e+00 -9.1313449841815384e+00 -4.1175170743512339e+00 1 1 1
1176 392 2 4.0999999999999998e-01 -1.3055841341939429e+01 -1.1164139823304268e+01 -4.1946046228476259e+00 2 0 1
1079 360 2 4.0999999999999998e-01 -1.1228047368632206e+01 -1.1505790938159667e+01 -5.5112386079607436e+00 1 1 3
773 258 2 4.0999999999999998e-01 -1.0238198134600303e+01 -1.3401618723139125e+01 -5.1405628881800851e+00 1 0 1
774 258 2 4.0999999999999998e-01 -1.0899066978015501e+01 -1.3963138675904062e+01 -6.5243030454183462e+00 1 0 1
287 96 2 4.0999999999999998e-01 -9.9891464078653058e+00 -8.1194607614773879e+00 -7.7080438263960049e+00 1 3 2
772 258 1 -8.1999999999999995e-01 -1.0473891457936572e+01 -1.3171823500478643e+01 -6.0848635825164461e+00 1 0 1
2406 802 2 4.0999999999999998e-01 -9.9887169244999967e+00 -1.2287052804997554e+01 -7.8342871518824362e+00 1 2 0
516 172 2 4.0999999999999998e-01 -9.2617661568545788e+00 -1.2240872736924128e+01 -3.2845058750901739e+00 0 0 1
2404 802 1 -8.1999999999999995e-01 -9.8024940400845466e+00 -1.2561864438708939e+01 -8.7776114266159357e+00 1 2 0
656 219 2 4.0999999999999998e-01 -8.2652923178508733e+00 -1.0026944711274297e+01 -3.6735000066432484e+00 1 1 1
286 96 1 -8.1999999999999995e-01 -1.0022020832544833e+01 -7.9969391580574110e+00 -8.6999958098787502e+00 1 3 2
1174 392 1 -8.1999999999999995e-01 -1.3947595649859659e+01 -1.1553186463354503e+01 -3.9633516623592104e+00 2 0 1
2366 789 2 4.0999999999999998e-01 -1.4387899983007134e+01 -1.3428116539742074e+01 -6.4111366083926598e+00 1 2 0
1635 545 2 4.0999999999999998e-01 -1.3517535070966277e+01 -1.4427982373547813e+01 -8.8501055715547174e+00 0 1 -1
1509 503 2 4.0999999999999998e-01 -1.3308316601999202e+01 -9.8122147055429245e+00 -5.8786637804741204e+00 1 0 1
2365 789 1 -8.1999999999999995e-01 -1.4754968695222800e+01 -1.3664344662595397e+01 -5.5114045400185230e+00 1 2 0
1507 503 1 -8.1999999999999995e-01 -1.4068635608445151e+01 -9.1952317420449212e+00 -6.0819075394452771e+00 1 0 1
2000 667 2 4.0999999999999998e-01 -1.0563545713922210e+01 -1.4503100637722229e+01 -3.2725631826038661e+00 0 1 1
1175 392 2 4.0999999999999998e-01 -1.4249663187027059e+01 -1.1192950377053846e+01 -3.0807157481249678e+00 2 0 1
1356 452 2 4.0999999999999998e-01 -1.1744608752170780e+01 -1.4938246162329026e+01 -8.4878012993724781e+00 0 1 1
1163 388 2 4.0999999999999998e-01 -1.4874218266213077e+01 -7.9953351172751166e+00 -4.9067434177381344e+00 1 0 2
2405 802 2 4.0999999999999998e-01 -1.0407898746362207e+01 -1.3316533984251359e+01 -9.0306333608260800e+00 1 2 0
1633 545 1 -8.1999999999999995e-01 -1.4457874568523515e+01 -1.4233309666400690e+01 -8.5709546270947747e+00 0 1 -1
1999 667 1 -8.1999999999999995e-01 -1.0786419889620195e+01 -1.3528265141366017e+01 -3.2634079392282818e+00 0 1 1
1508 503 2 4.0999999999999998e-01 -1.4418085060982564e+01 -9.3876785039979964e+00 -6.9989191669259263e+00 1 0 1
2442 814 2 4.0999999999999998e-01 -1.1425125449976717e+01 -8.7385874329565087e+00 -3.4602867968309337e+00 -1 0 1
1808 603 2 4.0999999999999998e-01 -1.5029074482714577e+01 -1.0338269715330146e+01 -9.0352791711776099e+00 1 1 0
1634 545 2 4.0999999999999998e-01 -1.4829717686359619e+01 -1.5021185880362218e+01 -8.0799914093468566e+00 0 1 -1
2169 723 2 4.0999999999999998e-01 -5.3624510027078571e+00 -1.3763512282453043e+01 -3.8725393336107032e+00 2 1 -1
2167 723 1 -8.1999999999999995e-01 -4.9836024404297099e+00 -1.4686569285595317e+01 -3.8054535694910427e+00 2 1 -1
657 219 2 4.0999999999999998e-01 -7.3887665478418532e+00 -8.9107537763347580e+00 -4.4813424760840075e+00 1 1 1
1685 562 2 4.0999999999999998e-01 -5.6111624442573458e+00 -1.1775076501375139e+01 -3.8817839661494222e+00 1 3 -2
2168 723 2 4.0999999999999998e-01 -4.0456894356212239e+00 -1.4637776964044614e+01 -3.4619429378342002e+00 2 1 -1
1461 487 2 4.0999999999999998e-01 -6.9214364448690091e-01 -1.3235226521481929e+01 -7.3007141122004535e+00 1 1 -1
1684 562 1 -8.1999999999999995e-01 -6.2514483928091309e+00 -1.2186293487720480e+01 -4.5306256780051477e+00 1 3 -2
2571 857 2 4.0999999999999998e-01 -4.6401897668353360e+00 -9.4115158108934693e+00 -5.2509931431205299e+00 1 0 0
70 24 1 -8.1999999999999995e-01 -5.7645606374407112e+00 -8.0890549316184348e+00 -4.7674013751206754e+00 1 2 -1
71 24 2 4.0999999999999998e-01 -6.2881518029176160e+00 -7.7055666711233650e+00 -5.5282233604794069e+00 1 2 -1
369 123 2 4.0999999999999998e-01 -2.0900573245784209e+00 -9.6691914576911309e+00 -8.0194087973234129e+00 0 1 0
367 123 1 -8.1999999999999995e-01 -1.5561044898931993e+00 -9.0136160387755488e+00 -7.4853898160197554e+00 0 1 0
2569 857 1 -8.1999999999999995e-01 -4.0582410306546706e+00 -1.0188617339848630e+01 -5.4908052966771930e+00 1 0 0
1769 590 2 4.0999999999999998e-01 -2.9913304953612165e+00 -1.4361040860058285e+01 -7.4942224907716000e+00 1 0 1
2570 857 2 4.0999999999999998e-01 -4.3422422128340301e+00 -1.0557057639055808e+01 -6.3760487916467916e+00 1 0 0
368 123 2 4.0999999999999998e-01 -9.7233294256096414e-01 -9.5063324839023480e+00 -6.8400198401323582e+00 0 1 0
1783 595 1 -8.1999999999999995e-01 -1.8468389990117569e+00 -1.0658802972796192e+01 -3.7812567984969938e+00 2 1 2
116 39 2 4.0999999999999998e-01 -6.8801816620222684e+00 -1.3386117020234771e+01 -8.4441121341890018e+00 0 -1 1
1784 595 2 4.0999999999999998e-01 -2.6937346120447252e+00 -1.0670910475734962e+01 -4.3129354699117446e+00 2 1 2
2254 752 1 -8.1999999999999995e-01 -5.8312175357466831e+00 -1.2822261943043845e+01 -7.0868442354324088e+00 2 1 0
1459 487 1 -8.1999999999999995e-01 -1.2362400222209597e+00 -1.4073574547627077e+01 -7.3352494826748211e+00 1 1 -1
1686 562 2 4.0999999999999998e-01 -7.1891127083638215e+00 -1.1999201556726369e+01 -4.2376354481325027e+00 1 3 -2
2256 752 2 4.0999999999999998e-01 -6.0598316868006883e+00 -1.2859738706543968e+01 -6.1140174041615598e+00 2 1 0
2255 752 2 4.0999999999999998e-01 -5.0329315358584719e+00 -1.3397928694535530e+01 -7.2640681599852241e+00 2 1 0
1460 487 2 4.0999999999999998e-01 -7.3692141871656602e-01 -1.4813796878320693e+01 -6.8849020603999413e+00 1 1 -1
751 251 1 -8.1999999999999995e-01 -3.4554985355810359e+00 -1.0662535177204450e+01 -8.7555467704086976e+00 -1 1 0
1768 590 1 -8.1999999999999995e-01 -3.8735216459390855e+00 -1.4732677835662088e+01 -7.7835073545735094e+00 1 0 1
225 75 2 4.0999999999999998e-01 -8.8886406960767417e-01 -1.0847521870006958e+01 -5.4327682902955612e+00 1 1 -1
529 177 1 -8.1999999999999995e-01 -5.9696585393277495e+00 -9.7074926078906962e+00 -7.9610416499917838e+00 1 0 1
752 251 2 4.0999999999999998e-01 -3.2020424862648014e+00 -1.1611527826114440e+01 -8.9432539107934304e+00 -1 1 0
223 75 1 -8.1999999999999995e-01 -1.5032416205121102e-01 -1.0849960232972418e+01 -6.1070188609577905e+00 1 1 -1
531 177 2 4.0999999999999998e-01 -6.1754652220970438e+00 -1.0269366967474955e+01 -7.1597915011899573e+00 1 0 1
934 312 1 -8.1999999999999995e-01 -2.0708331683620518e+00 -1.5061852128224954e+01 -3.6118463324802050e+00 -1 0 0
530 177 2 4.0999999999999998e-01 -5.1230292222874532e+00 -1.0029103414713028e+01 -8.3851245075538579e+00 1 0 1
2393 798 2 4.0999999999999998e-01 -4.7655735125977117e-01 -7.7560629115480371e+00 -7.4680667363175948e+00 1 1 0
627 209 2 4.0999999999999998e-01 -3.0370298490007386e-02 -1.1434022829462663e+01 -7.8337367939137676e+00 0 1 -1
428 143 2 4.0999999999999998e-01 -9.9875179268571834e+00 -7.1036413513252121e+00 -5.6788949853315547e+00 1 1 0
2114 705 2 4.0999999999999998e-01 -9.4621911150619447e+00 -1.7169848079510945e+00 -3.6228211914352855e+00 0 1 0
1284 428 2 4.0999999999999998e-01 -7.7541968527021288e+00 -7.4100807959826138e+00 -7.1998998595799497e+00 1 1 0
1953 651 2 4.0999999999999998e-01 -1.3616071553123597e+01 -4.2797381823493250e+00 -3.4168999144016006e+00 -1 1 -2
988 330 1 -8.1999999999999995e-01 -7.7452227121634465e+00 -1.9178687287631337e+00 -8.0779223446979369e+00 -1 1 0
1643 548 2 4.0999999999999998e-01 -1.4200722020787147e+01 -3.8633868394988777e+00 -5.8968397795265268e+00 2 0 1
288 96 2 4.0999999999999998e-01 -1.0497690661639833e+01 -7.1439380231221197e+00 -8.9149105113190679e+00 1 3 2
413 138 2 4.0999999999999998e-01 -1.3977493588959275e+01 -2.0265316035682375e+00 -5.1033709980147020e+00 1 2 0
2113 705 1 -8.1999999999999995e-01 -8.9703621802187605e+00 -1.2372360776408726e+00 -4.3494617112566640e+00 0 1 0
540 180 2 4.0999999999999998e-01 -1.3142529866264310e+01 -5.9191005251784183e+00 -5.4435607612351777e+00 -1 0 0
903 301 2 4.0999999999999998e-01 -1.2171403399065213e+01 -1.2929018598501276e+00 -5.4302940915635016e+00 0 -1 0
13 5 1 -8.1999999999999995e-01 -9.8108192082854444e+00 -5.4987602344504474e+00 -5.0338767351500717e+00 -1 0 0
15 5 2 4.0999999999999998e-01 -9.3898638390306175e+00 -4.9469611293464588e+00 -4.3138938812760035e+00 -1 0 0
902 301 2 4.0999999999999998e-01 -1.0543225587506548e+01 -1.4112834895721456e+00 -5.4728601386623499e+00 0 -1 0
1617 539 2 4.0999999999999998e-01 -1.1851108529591325e+01 -3.3136100624973128e+00 -6.5394746193462261e+00 1 2 1
901 301 1 -8.1999999999999995e-01 -1.1369494554384289e+01 -1.3125416473834903e+00 -6.0274686658721350e+00 0 -1 0
1616 539 2 4.0999999999999998e-01 -1.1449778472229010e+01 -4.7330134773105463e+00 -7.2402009049686402e+00 1 2 1
782 261 2 4.0999999999999998e-01 -8.0447934180305154e+00 -3.6581193155219864e+00 -5.2992902627111498e+00 1 2 1
781 261 1 -8.1999999999999995e-01 -7.6077441844021774e+00 -3.8686419492894508e+00 -6.1737782096435279e+00 1 2 1
1615 539 1 -8.1999999999999995e-01 -1.1661866049537760e+01 -4.2814436504094715e+00 -6.3735033961054732e+00 1 2 1
14 5 2 4.0999999999999998e-01 -1.0633320508843719e+01 -5.0387753315875070e+00 -5.3684909542979291e+00 -1 0 0
412 138 1 -8.1999999999999995e-01 -1.3722632619823967e+01 -1.3998371245201096e+00 -4.3669194319131464e+00 1 2 0
2115 705 2 4.0999999999999998e-01 -7.9915764610551046e+00 -1.2353206327648376e+00 -4.1444352769510076e+00 0 1 0
539 180 2 4.0999999999999998e-01 -1.4419531243459126e+01 -6.1195346944803344e+00 -4.4456214157944984e+00 -1 0 0
414 138 2 4.0999999999999998e-01 -1.3286417923810898e+01 -1.9135636520887278e+00 -3.6280941651344243e+00 1 2 0
990 330 2 4.0999999999999998e-01 -8.0857902200054603e+00 -9.8617495243656528e-01 -7.9513463547025296e+00 -1 1 0
1642 548 1 -8.1999999999999995e-01 -1.4707474854073761e+01 -3.0607209611060942e+00 -6.2114666648412609e+00 2 0 1
1283 428 2 4.0999999999999998e-01 -7.7863086749141965e+00 -6.0952795933679464e+00 -6.2318834612559737e+00 1 1 0
989 330 2 4.0999999999999998e-01 -8.3649313905663885e+00 -2.4202411026780695e+00 -8.6809515277090199e+00 -1 1 0
538 180 1 -8.1999999999999995e-01 -1.3806653256414545e+01 -5.4483523654730739e+00 -4.8627016232761111e+00 -1 0 0
2066 689 2 4.0999999999999998e-01 -1.0652427303234170e+01 -5.4587041580894891e-02 -3.3709458487743049e+00 0 2 0
2211 737 2 4.0999999999999998e-01 -3.4446099843376921e-01 -3.0300411393529263e+00 -7.2110800425928332e+00 1 0 2
2209 737 1 -8.1999999999999995e-01 -1.4664524331023365e-01 -3.8458735333988727e+00 -7.7545388880980264e+00 1 0 2
72 24 2 4.0999999999999998e-01 -5.5142763413885696e+00 -7.3577334712967168e+00 -4.1329033628524634e+00 1 2 -1
1450 484 1 -8.1999999999999995e-01 -5.6893520421983972e+00 -4.9343580116872765e+00 -8.3682069416638996e+00 1 1 0
2210 737 2 4.0999999999999998e-01 -6.5858902459506652e-01 -3.8069237336075155e+00 -8.6127098697406392e+00 1 0 2
783 261 2 4.0999999999999998e-01 -7.5239714096500121e+00 -3.0316403120882960e+00 -6.7145844388073535e+00 1 2 1
1451 484 2 4.0999999999999998e-01 -6.3625752047550304e+00 -5.2434107895941899e+00 -7.6964049170505575e+00 1 1 0
2564 855 2 4.0999999999999998e-01 -4.4654282659134807e+00 -7.2735701023309218e-01 -7.1340677919497386e+00 0 0 0
1936 646 1 -8.1999999999999995e-01 -2.6283468328109247e+00 -6.5873568663624553e+00 -8.8053287136417975e+00 1 2 2
971 324 2 4.0999999999999998e-01 -2.4911716415359457e+00 -6.2873842062712733e+00 -3.8998022626287074e+00 2 -1 1
970 324 1 -8.1999999999999995e-01 -2.3453995752766854e+00 -5.3503858347236477e+00 -4.2173640878562697e+00 2 -1 1
724 242 1 -8.1999999999999995e-01 -8.2742845967281120e-01 -1.3999325514553878e+00 -6.8674892724016043e+00 1 -1 -1
1145 382 2 4.0999999999999998e-01 -2.8126986701613372e+00 -2.0657130803248247e+00 -8.6170200793373599e+00 1 0 2
946 316 1 -8.1999999999999995e-01 -6.1435078100505134e+00 -1.4096717686774127e+00 -4.1314921174719714e+00 1 0 0
948 316 2 4.0999999999999998e-01 -5.8541850763367904e+00 -1.7691339034676545e+00 -5.0187014425589336e+00 1 0 0
1144 382 1 -8.1999999999999995e-01 -3.3197924842069941e+00 -2.0875042484305890e+00 -7.7553693009546896e+00 1 0 2
1146 382 2 4.0999999999999998e-01 -3.3146597204118873e+00 -3.0180027749987079e+00 -7.3890263762699151e+00 1 0 2