LAMMPS data file via write_data, version 15 May 2015, timestep = 40000

2611 atoms
6 atom types
1749 bonds
4 bond types
894 angles
3 angle types
44 dihedrals
3 dihedral types
10 impropers
1 improper types

-1.4945804757044938e+01 1.4945804757044938e+01 xlo xhi
-1.4945804757044938e+01 1.4945804757044938e+01 ylo yhi
-1.4945804757044938e+01 1.4945804757044938e+01 zlo zhi

Masses

1 15.9994
2 1.00794
3 12.0107
4 1.00794
5 12.0107
6 12.0107

Bond Coeffs # harmonic

1 1000 1
2 469 1.4
3 367 1.08
4 469 0.7

Angle Coeffs # harmonic

1 100 109.47
2 35 120
3 63 120

Dihedral Coeffs # opls

1 0 7.25 0 0
2 0 7.25 0 0
3 0 7.25 0 0

Improper Coeffs # cvff

1 2.5 -1 2

Atoms # full

596 199 2 4.0999999999999998e-01 -9.8381709588578019e+00 -1.1307123291565361e+01 -1.2590066090791895e+01 0 0 0
595 199 1 -8.1999999999999995e-01 -1.0688399000985530e+01 -1.1341217984600490e+01 -1.3115452937348064e+01 0 0 0
597 199 2 4.0999999999999998e-01 -1.1145753301663625e+01 -1.0453185875663468e+01 -1.3067416209772244e+01 0 0 0
872 291 2 4.0999999999999998e-01 -8.1515365736558500e+00 -1.0125754720192052e+01 -1.1172843967772025e+01 0 0 0
871 291 1 -8.1999999999999995e-01 -8.4853658671616135e+00 -1.1064912377713370e+01 -1.1091465797878548e+01 0 0 0
530 177 2 4.0999999999999998e-01 -1.0520152654415197e+01 -9.6218692871408216e+00 -9.5485346172157044e+00 0 0 0
880 294 1 -8.1999999999999995e-01 -1.0691411748051845e+01 -1.3569164235789234e+01 -8.9839410637892492e+00 0 0 0
521 174 2 4.0999999999999998e-01 -8.4056974923855226e+00 -1.2003156750010209e+01 -9.3286346720302156e+00 0 0 0
873 291 2 4.0999999999999998e-01 -7.7443857714296840e+00 -1.1701718492818820e+01 -1.1304791773106512e+01 0 0 0
528 176 2 4.0999999999999998e-01 -1.1922931190951401e+01 -1.4349378488337718e+01 -1.4699910233193140e+01 0 0 0
452 151 2 4.0999999999999998e-01 -1.2269027024905331e+01 -1.1821463007695034e+01 -1.1237535590004487e+01 0 0 0
529 177 1 -8.1999999999999995e-01 -1.1386823861192681e+01 -9.7797982178063609e+00 -1.0021843159443232e+01 0 0 0
531 177 2 4.0999999999999998e-01 -1.1534508387611442e+01 -9.0569110362509733e+00 -1.0696902350531982e+01 0 0 0
451 151 1 -8.1999999999999995e-01 -1.2458569167791996e+01 -1.2756733651808764e+01 -1.0938496953842927e+01 0 0 0
447 149 2 4.0999999999999998e-01 -1.3375978024126297e+01 -1.4192291323863968e+01 -1.1690003066856244e+01 0 0 0
827 276 2 4.0999999999999998e-01 -8.3947751543435913e+00 -8.5339225850973897e+00 -9.3858890981253200e+00 0 1 0
335 112 2 4.0999999999999998e-01 -1.3922876327295755e+01 -1.4491961746772368e+01 -9.5924487633046329e+00 0 1 0
992 331 2 4.0999999999999998e-01 -1.0313635402307881e+01 -1.2988226442297639e+01 -1.3711298290981690e+01 0 0 1
991 331 1 -8.1999999999999995e-01 -1.0284623731040156e+01 -1.3926376486083919e+01 -1.4056427723273851e+01 0 0 1
453 151 2 4.0999999999999998e-01 -1.1745382152319094e+01 -1.3054804851386999e+01 -1.0303989778261773e+01 0 0 0
993 331 2 4.0999999999999998e-01 -9.9948391780503130e+00 -1.4542264402919116e+01 -1.3323769215293977e+01 0 0 1
526 176 1 -8.1999999999999995e-01 -1.2795872396660886e+01 -1.4797290411259420e+01 -1.4893378767633292e+01 0 0 0
1022 341 2 4.0999999999999998e-01 -9.1729148637444240e+00 -8.4294066565234225e+00 -1.4464986264089475e+01 0 0 0
2252 751 2 4.0999999999999998e-01 -1.3882291809072528e+01 -7.5981849044965788e+00 -9.0767749470904526e+00 1 0 0
95 32 2 4.0999999999999998e-01 -1.2064921831550047e+01 -8.7049334768639746e+00 -1.3826951262506658e+01 0 0 0
440 147 2 4.0999999999999998e-01 -8.7052215571631066e+00 -1.1570846595063063e+01 -1.4405684860209480e+01 0 0 0
86 29 2 4.0999999999999998e-01 -1.4340708347578145e+01 -9.1090076908346624e+00 -1.3628561341880918e+01 0 0 0
939 313 2 4.0999999999999998e-01 -7.8494523944183641e+00 -8.3520212541613787e+00 -1.2674224717842066e+01 0 0 0
937 313 1 -8.1999999999999995e-01 -8.0860513213470249e+00 -8.3464176514889594e+00 -1.1702591529301683e+01 0 0 0
445 149 1 -8.1999999999999995e-01 -1.4007949269774505e+01 -1.4393058855934035e+01 -1.2438592579144840e+01 0 0 0
439 147 1 -8.1999999999999995e-01 -7.7631233657996930e+00 -1.1740714180616663e+01 -1.4116414282956924e+01 0 0 0
2253 751 2 4.0999999999999998e-01 -1.3184985420838691e+01 -9.0721415343311556e+00 -9.1665496327854221e+00 1 0 0
881 294 2 4.0999999999999998e-01 -1.0496212762516974e+01 -1.4549904475272406e+01 -8.9726522338875956e+00 0 0 0
94 32 1 -8.1999999999999995e-01 -1.1133964380561501e+01 -8.3437759571239702e+00 -1.3881402900660472e+01 0 0 0
96 32 2 4.0999999999999998e-01 -1.1136960743048219e+01 -7.4920980001757522e+00 -1.4405537608512796e+01 0 0 0
87 29 2 4.0999999999999998e-01 -1.3588201631207028e+01 -1.0370325644450327e+01 -1.4342462242599945e+01 0 0 0
446 149 2 4.0999999999999998e-01 -1.3499421494036733e+01 -1.4450590858103199e+01 -1.3297761413659909e+01 0 0 0
85 29 1 -8.1999999999999995e-01 -1.3599257883572381e+01 -9.7741570269266944e+00 -1.3539628354917021e+01 0 0 0
21 7 2 4.0999999999999998e-01 -1.4640473682197362e+01 -1.2004652153419000e+01 -9.0021760330110894e+00 0 0 0
1590 530 2 4.0999999999999998e-01 -3.2501373375225366e+00 -1.3053079583521379e+01 -1.4097902735598984e+01 0 1 0
441 147 2 4.0999999999999998e-01 -7.1722139278378370e+00 -1.1796452968883486e+01 -1.4921274981977232e+01 0 0 0
878 293 2 4.0999999999999998e-01 -5.9622852926529344e+00 -1.3921248260045168e+01 -9.3208526814142800e+00 0 0 0
1394 465 2 4.0999999999999998e-01 -2.2804440571808904e-01 -1.3422356355131802e+01 -9.1187641150534660e+00 0 0 0
813 271 2 4.0999999999999998e-01 -7.3704779128216478e+00 -1.4179817440858134e+01 -1.3343242003959105e+01 0 1 0
1323 441 2 4.0999999999999998e-01 -1.2666542625973207e+00 -1.1120800847382739e+01 -9.4078087203750620e+00 0 0 0
877 293 1 -8.1999999999999995e-01 -6.1740291836400942e+00 -1.4661132910793265e+01 -9.9594579989778680e+00 0 0 0
879 293 2 4.0999999999999998e-01 -6.0954696236296702e+00 -1.4324272326525270e+01 -1.0897772899260628e+01 0 0 0
1322 441 2 4.0999999999999998e-01 -1.9201546984228486e+00 -1.0790075506196620e+01 -1.0867398305821322e+01 0 0 0
1722 574 2 4.0999999999999998e-01 -6.7788696857449384e+00 -1.2160731082207768e+01 -1.2797158134007184e+01 0 1 1
1720 574 1 -8.1999999999999995e-01 -6.2557111519209254e+00 -1.2321952768625540e+01 -1.1960262528908567e+01 0 1 1
1721 574 2 4.0999999999999998e-01 -5.4599865354737744e+00 -1.1716480426459697e+01 -1.1942738778974661e+01 0 1 1
1381 461 1 -8.1999999999999995e-01 -3.7590803022649109e+00 -1.0626537220508236e+01 -1.0935578326790894e+01 0 0 0
1825 609 1 -8.1999999999999995e-01 -3.0239781175542522e+00 -1.3292162353593838e+01 -1.0658640421657058e+01 0 0 0
1826 609 2 4.0999999999999998e-01 -3.5155004864891080e+00 -1.3860329770462807e+01 -9.9985850812709671e+00 0 0 0
1361 454 2 4.0999999999999998e-01 -2.8461971045227035e+00 -1.4085114454836296e+01 -1.2455506563383238e+01 0 0 1
1382 461 2 4.0999999999999998e-01 -3.6038194916997668e+00 -1.0133839925784805e+01 -1.1791863904857621e+01 0 0 0
1827 609 2 4.0999999999999998e-01 -3.3886673528299234e+00 -1.2361316148521974e+01 -1.0633971054055440e+01 0 0 0
1383 461 2 4.0999999999999998e-01 -4.0130197221665487e+00 -9.9771700588137264e+00 -1.0218697179371247e+01 0 0 0
875 292 2 4.0999999999999998e-01 -5.2655007804248051e+00 -8.2655720500283714e+00 -1.3741210229270932e+01 0 0 0
1360 454 1 -8.1999999999999995e-01 -2.9204989790072009e+00 -1.4491445327305980e+01 -1.3366251296075276e+01 0 0 1
874 292 1 -8.1999999999999995e-01 -6.2087899283085140e+00 -7.9534551400635207e+00 -1.3627763656577850e+01 0 0 0
1372 458 1 -8.1999999999999995e-01 -3.6421472454461092e+00 -9.2981469897265896e+00 -1.3393298839946750e+01 0 0 0
1373 458 2 4.0999999999999998e-01 -3.2494219902047217e+00 -1.0097677230338753e+01 -1.3847831321696267e+01 0 0 0
1384 462 1 -8.1999999999999995e-01 -4.1803086226475266e+00 -7.9856471226655978e+00 -9.8327786922352622e+00 0 0 0
1374 458 2 4.0999999999999998e-01 -3.0978521045132084e+00 -8.4886410596332276e+00 -1.3613581491470260e+01 0 0 0
1385 462 2 4.0999999999999998e-01 -5.1468803113633932e+00 -7.7311215481431974e+00 -9.8005697989483558e+00 0 0 0
876 292 2 4.0999999999999998e-01 -6.8079090480093889e+00 -8.4754361790344568e+00 -1.4234948616688030e+01 0 0 0
1321 441 1 -8.1999999999999995e-01 -1.1165725834499014e+00 -1.1153535918726000e+01 -1.0395981486669971e+01 0 0 0
1588 530 1 -8.1999999999999995e-01 -3.1761207785722121e+00 -1.2197138126947264e+01 -1.4609730137461515e+01 0 1 0
1314 438 2 4.0999999999999998e-01 -4.8456747583605697e-01 -1.2850038353300821e+01 -1.0994725143386482e+01 0 0 0
1805 602 2 4.0999999999999998e-01 -6.0648230250017221e-01 -9.2447132824212339e+00 -1.3905978195850723e+01 0 0 0
938 313 2 4.0999999999999998e-01 -7.4220262080644401e+00 -7.7918172765403053e+00 -1.1201023383132766e+01 0 0 0
1362 454 2 4.0999999999999998e-01 -3.8317124023617222e+00 -1.4887056903119445e+01 -1.3481416765309993e+01 0 0 1
1804 602 1 -8.1999999999999995e-01 -8.0072709224174510e-01 -9.1003243772158360e+00 -1.4876288615967072e+01 0 0 0
599 200 2 4.0999999999999998e-01 -1.1030282593151671e+01 -3.4409551178069187e-01 -9.7821592640067472e+00 0 0 0
1171 391 1 -8.1999999999999995e-01 -8.5089740666968705e+00 -2.3223897459322469e+00 -8.9980687743506227e+00 0 0 0
2411 804 2 4.0999999999999998e-01 -1.3150920881640236e+01 -3.0140168807001722e-01 -9.6506983759487142e+00 1 0 0
108 36 2 4.0999999999999998e-01 -1.2100851736262349e+01 -6.3867068049413174e+00 -1.2263858885731356e+01 0 0 0
525 175 2 4.0999999999999998e-01 -1.4475695657324295e+01 -6.9513524393700878e+00 -1.3380587000534724e+01 0 0 0
191 64 2 4.0999999999999998e-01 -1.4072042117471300e+01 -5.1745789922905381e+00 -9.7200143219018180e+00 0 0 0
192 64 2 4.0999999999999998e-01 -1.3643844119940653e+01 -5.9829089811027689e+00 -1.1072823603810022e+01 0 0 0
1113 371 2 4.0999999999999998e-01 -1.0735776659317837e+01 -3.3297843991232838e+00 -1.0665767342523690e+01 0 0 0
190 64 1 -8.1999999999999995e-01 -1.4016261683393385e+01 -6.0760225541066486e+00 -1.0149397088434965e+01 0 0 0
608 203 2 4.0999999999999998e-01 -9.7990487670993609e+00 -6.9976146982051537e+00 -1.1636053593986983e+01 0 0 0
607 203 1 -8.1999999999999995e-01 -1.0661779594638954e+01 -6.8515944502725556e+00 -1.1151847947214840e+01 0 0 0
107 36 2 4.0999999999999998e-01 -1.2625300247898540e+01 -5.4401238427694469e+00 -1.3486879038667761e+01 0 0 0
106 36 1 -8.1999999999999995e-01 -1.2904550181806648e+01 -6.0893635266382873e+00 -1.2779356030984760e+01 0 0 0
1118 373 2 4.0999999999999998e-01 -1.2729404059885557e+01 -1.1204775131203331e+00 -1.2977867029348788e+01 0 0 0
1111 371 1 -8.1999999999999995e-01 -1.1073729543665463e+01 -3.6421672300662404e+00 -1.1553622236656498e+01 0 0 0
1117 373 1 -8.1999999999999995e-01 -1.3070856485586056e+01 -1.9643697641162969e+00 -1.2563937539797802e+01 0 0 0
1119 373 2 4.0999999999999998e-01 -1.2314340590184482e+01 -2.6077235197578794e+00 -1.2446204096878816e+01 0 0 0
2256 752 2 4.0999999999999998e-01 -1.4196857067046016e+01 -3.2140493174263423e+00 -1.2754309433683883e+01 1 0 0
609 203 2 4.0999999999999998e-01 -1.0487220392496317e+01 -6.3528682225412645e+00 -1.0302799815953215e+01 0 0 0
1112 371 2 4.0999999999999998e-01 -1.0574616628113326e+01 -4.4634696837198433e+00 -1.1830082133839980e+01 0 0 0
1044 348 2 4.0999999999999998e-01 -9.9271693533631016e+00 -5.2355793523877736e+00 -1.4022373050858931e+01 0 0 0
2410 804 1 -8.1999999999999995e-01 -1.3975237515907899e+01 -7.7766736709287088e-01 -9.9568920910671732e+00 1 0 0
1042 348 1 -8.1999999999999995e-01 -9.1893811415807747e+00 -5.2633749551410656e+00 -1.3347852873698201e+01 0 0 0
1029 343 2 4.0999999999999998e-01 -8.9862082012069386e+00 -3.6349576036260416e+00 -1.4041596754255329e+01 0 0 0
1027 343 1 -8.1999999999999995e-01 -8.9302717718482683e+00 -2.6409176046030378e+00 -1.4135602644998571e+01 0 0 0
1028 343 2 4.0999999999999998e-01 -8.2195272006737063e+00 -2.2880190456899339e+00 -1.3527008957124872e+01 0 0 0
2412 804 2 4.0999999999999998e-01 -1.3756660884476284e+01 -1.3457666587567942e+00 -1.0750345905585291e+01 1 0 0
2400 800 2 4.0999999999999998e-01 -9.6973604012551924e+00 -1.4233662722087566e+00 -1.2749612066859603e+01 1 0 0
1025 342 2 4.0999999999999998e-01 -8.0103967441528603e+00 -5.0936535886154566e+00 -1.2078337541295697e+01 0 0 0
1043 348 2 4.0999999999999998e-01 -8.3133344579605506e+00 -5.3770880312823479e+00 -1.3816567165150248e+01 0 0 0
2398 800 1 -8.1999999999999995e-01 -1.0007913359763709e+01 -5.5666507333001647e-01 -1.2359141332746118e+01 1 0 0
2399 800 2 4.0999999999999998e-01 -1.0661838376272589e+01 -1.2607867531282935e-01 -1.2981281945220875e+01 1 0 0
1172 391 2 4.0999999999999998e-01 -7.5681179161624685e+00 -2.6303220148456088e+00 -9.1396630174183855e+00 0 0 0
1014 338 2 4.0999999999999998e-01 -3.3320089116331779e+00 -4.5709140302048876e+00 -1.3309998841833075e+01 0 0 0
1470 490 2 4.0999999999999998e-01 -1.4315447742629690e+00 -6.3975742253051688e+00 -9.4686741136621979e+00 0 0 0
501 167 2 4.0999999999999998e-01 -6.6088075817013987e+00 -6.3705476545795214e+00 -1.4239041847211348e+01 0 0 1
499 167 1 -8.1999999999999995e-01 -6.7537531045455506e+00 -5.4075332477283524e+00 -1.4466364420040630e+01 0 0 1
1386 462 2 4.0999999999999998e-01 -3.6315500760137081e+00 -7.2649972314459834e+00 -9.4089753264731772e+00 0 0 0
1220 407 2 4.0999999999999998e-01 -6.3457296179153690e+00 -1.3044920652452596e+00 -1.2398704826692208e+01 0 0 1
1030 344 1 -8.1999999999999995e-01 -2.4578248365662958e-01 -7.7621957837140165e-01 -1.0328841909646581e+01 0 0 0
959 320 2 4.0999999999999998e-01 -5.0996349530070191e+00 -2.0258080075833504e+00 -9.3078798490417505e+00 0 0 0
1219 407 1 -8.1999999999999995e-01 -7.0238229944022423e+00 -1.9470542852743886e+00 -1.2041794925968464e+01 0 0 1
1468 490 1 -8.1999999999999995e-01 -2.2364886933712995e+00 -5.8143097070300076e+00 -9.5779869131002755e+00 0 0 0
1015 339 1 -8.1999999999999995e-01 -5.2661770399342700e+00 -2.3570077893845820e+00 -1.4159328835204313e+01 0 0 0
1942 648 1 -8.1999999999999995e-01 -7.0012524340784310e-01 -3.9491580954415006e-01 -1.3671580498200354e+01 0 0 1
960 320 2 4.0999999999999998e-01 -4.9363323435857929e+00 -3.3158232635470952e+00 -1.0295825562629808e+01 0 0 0
887 296 2 4.0999999999999998e-01 -3.9241535531461853e+00 -5.0308190463947540e+00 -1.0880073895691405e+01 0 0 0
888 296 2 4.0999999999999998e-01 -4.9904522973727818e+00 -5.0763115768072993e+00 -1.2116108380779044e+01 0 0 0
1017 339 2 4.0999999999999998e-01 -4.9730889927286537e+00 -1.5259703354867504e+00 -1.3686509994066242e+01 0 0 0
1221 407 2 4.0999999999999998e-01 -7.1555456240669484e+00 -1.7837106783185170e+00 -1.1064017074920409e+01 0 0 1
624 208 2 4.0999999999999998e-01 -6.9069101038615681e+00 -5.8744393954030816e+00 -1.0499352223444948e+01 0 0 0
1016 339 2 4.0999999999999998e-01 -5.7827928132634021e+00 -2.9352366683734505e+00 -1.3527790228860329e+01 0 0 0
958 320 1 -8.1999999999999995e-01 -5.5808094995177715e+00 -2.7861020728637467e+00 -9.7443492230490723e+00 0 0 0
1026 342 2 4.0999999999999998e-01 -7.1254642540587545e+00 -3.7701338634703969e+00 -1.1714972904779199e+01 0 0 0
886 296 1 -8.1999999999999995e-01 -4.1611623753492903e+00 -4.6383983692733235e+00 -1.1768845146396814e+01 0 0 0
622 208 1 -8.1999999999999995e-01 -6.7161568633024107e+00 -6.7618087056893010e+00 -1.0079506547644030e+01 0 0 0
1024 342 1 -8.1999999999999995e-01 -7.2209128762567758e+00 -4.7545045864463482e+00 -1.1566698325662548e+01 0 0 0
1148 383 2 4.0999999999999998e-01 -9.9893126464615456e-01 -3.5053023042005833e+00 -1.3601030384498744e+01 0 0 1
1091 364 2 4.0999999999999998e-01 -1.8627824462749327e+00 -1.6598639704634799e-01 -1.0942481536723793e+01 0 0 0
1012 338 1 -8.1999999999999995e-01 -2.9418840192607973e+00 -4.3719092873824028e+00 -1.4209043443327566e+01 0 0 0
1013 338 2 4.0999999999999998e-01 -3.3637560242868751e+00 -3.5444396262760360e+00 -1.4579717805372610e+01 0 0 0
623 208 2 4.0999999999999998e-01 -6.8416508850487148e+00 -6.6960535336963236e+00 -9.0895525128322632e+00 0 0 0
1944 648 2 4.0999999999999998e-01 -1.2472440174653006e+00 -2.3206066955227733e-01 -1.2850471034540893e+01 0 0 1
1469 490 2 4.0999999999999998e-01 -2.0066021177073701e+00 -4.8766564333920321e+00 -9.3171421126762652e+00 0 0 0
1443 481 2 4.0999999999999998e-01 -2.6594082080613077e+00 -6.1038601985127734e+00 -1.4897089805262418e+01 0 0 0
1147 383 1 -8.1999999999999995e-01 -1.9951271204618592e-02 -3.4346977496020568e+00 -1.3792588937284764e+01 0 0 1
1031 344 2 4.0999999999999998e-01 -7.0757461766035590e-04 -1.6082929078104335e+00 -1.0826510238277521e+01 0 0 0
175 59 1 -8.1999999999999995e-01 -1.2082669818257644e+01 -1.3176071598624123e+01 -5.8732913328702221e+00 0 0 0
459 153 2 4.0999999999999998e-01 -9.1407907668012065e+00 -9.6011357772172232e+00 -7.5263281887984990e+00 0 0 0
457 153 1 -8.1999999999999995e-01 -8.9317371435841260e+00 -1.0293379767310011e+01 -6.8355486472850124e+00 0 0 0
176 59 2 4.0999999999999998e-01 -1.2332667247469209e+01 -1.2721507727405104e+01 -6.7282501132388273e+00 0 0 0
177 59 2 4.0999999999999998e-01 -1.1114466249568055e+01 -1.3425084093887326e+01 -5.8989067133109021e+00 0 0 0
458 153 2 4.0999999999999998e-01 -8.8335142165965443e+00 -1.1185468217335529e+01 -7.2766971060176910e+00 0 0 0
99 33 2 4.0999999999999998e-01 -1.2063272185963642e+01 -9.8598134436460114e+00 -4.2504926461601666e+00 0 0 0
29 10 2 4.0999999999999998e-01 -9.4601365233764128e+00 -1.1202351061425128e+01 -4.8543859583244657e+00 0 0 0
98 33 2 4.0999999999999998e-01 -1.1256896315403289e+01 -9.1823021065916066e+00 -5.4985231652937703e+00 0 0 0
2251 751 1 -8.1999999999999995e-01 -1.3576969406521364e+01 -8.3905672473404458e+00 -8.5485799327644152e+00 1 0 0
828 276 2 4.0999999999999998e-01 -9.3551292407910989e+00 -7.5143707516487517e+00 -8.5461999244243998e+00 0 1 0
28 10 1 -8.1999999999999995e-01 -9.0554781108565603e+00 -1.1951421380081602e+01 -4.3297654022789924e+00 0 0 0
30 10 2 4.0999999999999998e-01 -9.1070025642800232e+00 -1.2796743754584513e+01 -4.8616082501539122e+00 0 0 0
468 156 2 4.0999999999999998e-01 -1.2967509527485966e+01 -1.2147012555615937e+01 -4.7801241005095800e+00 0 0 0
810 270 2 4.0999999999999998e-01 -7.7448645481536493e+00 -9.5493426778567247e+00 -5.8829563199411616e+00 0 1 0
334 112 1 -8.1999999999999995e-01 -1.4335865757478714e+01 -1.4890333140095699e+01 -8.7734118611721641e+00 0 1 0
97 33 1 -8.1999999999999995e-01 -1.1236334257732027e+01 -9.3636881336787212e+00 -4.5152847311582640e+00 0 0 0
407 136 2 4.0999999999999998e-01 -8.9234022925575260e+00 -1.4896975666735992e+01 -5.9706504253906907e+00 0 1 0
46 16 1 -8.1999999999999995e-01 -1.1287705502051136e+01 -1.4901786869446633e+01 -3.9034839956216256e+00 0 0 0
406 136 1 -8.1999999999999995e-01 -9.5549819143199919e+00 -1.4217979323894889e+01 -6.3450201265335000e+00 0 1 0
91 31 1 -8.1999999999999995e-01 -1.2807403996004259e+01 -1.1895628939425604e+01 -8.0181461829458129e+00 0 0 0
466 156 1 -8.1999999999999995e-01 -1.3368584800437841e+01 -1.1441409672643976e+01 -4.1958769674097383e+00 0 0 0
520 174 1 -8.1999999999999995e-01 -8.1733728374167960e+00 -1.2396428811393163e+01 -8.4390033669015985e+00 0 0 0
120 40 2 4.0999999999999998e-01 -1.4335388893734740e+01 -8.8720932174545162e+00 -6.5228365577040588e+00 0 0 0
393 131 2 4.0999999999999998e-01 -1.4602840103853596e+01 -1.4702840196466438e+01 -6.7381288931658130e+00 0 1 0
48 16 2 4.0999999999999998e-01 -1.1615617446450646e+01 -1.4463176234487173e+01 -4.7402491679451657e+00 0 0 0
184 62 1 -8.1999999999999995e-01 -1.1740196607158600e+01 -7.5125212586907288e+00 -6.6922275660202519e+00 0 0 0
185 62 2 4.0999999999999998e-01 -1.2318039880901532e+01 -7.7162651424754767e+00 -7.4825864081193165e+00 0 0 0
114 38 2 4.0999999999999998e-01 -1.0963951816455715e+01 -8.2142141710798739e+00 -3.4653764960337980e+00 0 0 0
467 156 2 4.0999999999999998e-01 -1.4171831503371003e+01 -1.1811855999065159e+01 -3.7293517636024749e+00 0 0 0
92 31 2 4.0999999999999998e-01 -1.2423433515691261e+01 -1.2497178740442095e+01 -8.7187073934798711e+00 0 0 0
93 31 2 4.0999999999999998e-01 -1.2318655584303798e+01 -1.1023174490171726e+01 -8.0235981479382303e+00 0 0 0
118 40 1 -8.1999999999999995e-01 -1.4642214460609829e+01 -8.3269964660334601e+00 -5.7425743543308165e+00 0 0 0
882 294 2 4.0999999999999998e-01 -9.8323955156900738e+00 -1.3057969614722145e+01 -8.9547405825701247e+00 0 0 0
408 136 2 4.0999999999999998e-01 -9.5120256904021989e+00 -1.4237853836841854e+01 -7.3439401798512778e+00 0 1 0
47 16 2 4.0999999999999998e-01 -1.1184157634780522e+01 -1.4213840369219261e+01 -3.1850906890652144e+00 0 0 0
826 276 1 -8.1999999999999995e-01 -9.1523117965336844e+00 -8.4751210133551194e+00 -8.7356875017046622e+00 0 1 0
1271 424 2 4.0999999999999998e-01 -5.0039343263801044e+00 -1.4534782329558986e+01 -5.3401199019746954e+00 0 1 0
956 319 2 4.0999999999999998e-01 -7.3106573920689550e+00 -7.5211458148325034e+00 -7.0573278344312156e+00 0 0 0
971 324 2 4.0999999999999998e-01 -7.3390781465990074e-01 -1.1065330148993063e+01 -6.7576879823594851e+00 0 0 0
890 297 2 4.0999999999999998e-01 -1.7974328559455621e-01 -1.2727461110877154e+01 -5.2625652121144491e+00 0 0 0
883 295 1 -8.1999999999999995e-01 -5.4326238180633251e+00 -1.2666705934694045e+01 -8.2239196698389296e+00 0 0 0
1459 487 1 -8.1999999999999995e-01 -5.4922295556666381e+00 -1.0025277308619797e+01 -7.8892626746401415e+00 0 0 0
1460 487 2 4.0999999999999998e-01 -6.2384511607299427e+00 -9.5651888551685982e+00 -7.4080626775568303e+00 0 0 0
1389 463 2 4.0999999999999998e-01 -3.8356432841512778e-01 -1.4285847338749630e+01 -3.1792593414278354e+00 0 0 0
464 155 2 4.0999999999999998e-01 -4.4980800089406330e+00 -1.2047973743893731e+01 -4.4582813092025582e+00 0 0 0
891 297 2 4.0999999999999998e-01 -1.6378856529254460e+00 -1.2523734310352850e+01 -4.5560526041748766e+00 0 0 0
463 155 1 -8.1999999999999995e-01 -3.7428571898025336e+00 -1.1871245188924407e+01 -3.8270230252115098e+00 0 0 0
809 270 2 4.0999999999999998e-01 -6.7280407426417224e+00 -9.1988954435537629e+00 -4.6540950884652119e+00 0 1 0
1041 347 2 4.0999999999999998e-01 -1.9316937266981746e+00 -1.4719288186655968e+01 -7.9425853441464662e+00 0 0 0
808 270 1 -8.1999999999999995e-01 -6.9797377320059848e+00 -8.9732364178488737e+00 -5.5952688952813450e+00 0 1 0
1127 376 2 4.0999999999999998e-01 -9.3779230267191238e-01 -8.6320027501089847e+00 -5.9327610204984378e+00 0 0 0
889 297 1 -8.1999999999999995e-01 -1.0354256030959217e+00 -1.2210623262768483e+01 -5.2902765987245264e+00 0 0 0
1126 376 1 -8.1999999999999995e-01 -1.0235548867039235e+00 -8.7184028742099571e+00 -4.9401577254493318e+00 0 0 0
465 155 2 4.0999999999999998e-01 -3.3621180689886696e+00 -1.0964468191911079e+01 -4.0083368456484827e+00 0 0 0
1128 376 2 4.0999999999999998e-01 -1.9829366662247665e+00 -8.8669532429399052e+00 -4.7001559134014297e+00 0 0 0
1352 451 2 4.0999999999999998e-01 -2.8490574301197338e+00 -1.3494800059677100e+01 -3.5294696872175972e+00 0 0 0
884 295 2 4.0999999999999998e-01 -4.6805602757485438e+00 -1.3112597729376182e+01 -7.7384689226336985e+00 0 0 0
1351 451 1 -8.1999999999999995e-01 -2.2202185269393375e+00 -1.4222378323309551e+01 -3.8038289838149542e+00 0 0 0
755 252 2 4.0999999999999998e-01 -6.7530903446641162e+00 -1.2693367168878080e+01 -5.9654580070430665e+00 0 1 0
754 252 1 -8.1999999999999995e-01 -6.0608580631590456e+00 -1.2611193472227562e+01 -5.2484200372643972e+00 0 1 0
756 252 2 4.0999999999999998e-01 -6.5105849424728319e+00 -1.2512176711374003e+01 -4.3607134869798756e+00 0 1 0
1461 487 2 4.0999999999999998e-01 -4.9190479284525104e+00 -9.3439326994585201e+00 -8.3445799727142926e+00 0 0 0
885 295 2 4.0999999999999998e-01 -5.2784330981068877e+00 -1.1678789821813947e+01 -8.2420429523434002e+00 0 0 0
1039 347 1 -8.1999999999999995e-01 -2.9136749757674316e+00 -1.4883019627432704e+01 -8.0373816617865028e+00 0 0 0
1395 465 2 4.0999999999999998e-01 -6.4182934217748233e-01 -1.2816946885413991e+01 -7.6596187338230894e+00 0 0 0
522 174 2 4.0999999999999998e-01 -7.1790765671817853e+00 -1.2420995540915364e+01 -8.3348259938041167e+00 0 0 0
1920 640 2 4.0999999999999998e-01 -2.7590964119689865e-01 -7.6246886369750753e+00 -3.5641178036823025e+00 0 0 0
970 324 1 -8.1999999999999995e-01 -5.5326160286265846e-01 -1.0848613302471897e+01 -7.7171056540795622e+00 0 0 0
1353 451 2 4.0999999999999998e-01 -2.6331368052569442e+00 -1.4760235761990883e+01 -4.5388727648434610e+00 0 0 0
1393 465 1 -8.1999999999999995e-01 -4.7140632757803580e-01 -1.3655475417349249e+01 -8.1772164556251425e+00 0 0 0
1197 399 2 4.0999999999999998e-01 -3.1595519577502191e+00 -7.9090673574988637e+00 -3.0778470417284236e+00 0 0 0
2342 781 2 4.0999999999999998e-01 -1.4620885028294591e+01 -5.0790455851329490e+00 -5.3565265459184399e+00 1 0 0
302 101 2 4.0999999999999998e-01 -1.4793697777434593e+01 -9.2923238955816245e-01 -5.6222785485089215e+00 0 0 0
174 58 2 4.0999999999999998e-01 -1.4598546773020455e+01 -1.4703223899132567e-01 -3.6694238372868604e+00 0 0 0
100 34 1 -8.1999999999999995e-01 -1.3800469231096168e+01 -4.0817966334100291e+00 -8.2986530372381502e+00 0 0 0
1046 349 2 4.0999999999999998e-01 -9.3329653359190576e+00 -7.1404284830946105e+00 -3.2811261091434289e+00 0 0 0
2343 781 2 4.0999999999999998e-01 -1.4511057559798203e+01 -6.5771966061196370e+00 -5.9970929221306584e+00 1 0 0
957 319 2 4.0999999999999998e-01 -7.5795952514315514e+00 -5.9285657011690329e+00 -6.8160710465573224e+00 0 0 0
159 53 2 4.0999999999999998e-01 -1.0013942011707975e+01 -3.0368756333987648e+00 -8.0753460965591017e+00 0 0 0
1550 517 2 4.0999999999999998e-01 -8.7343626210964764e+00 -1.6680826203689598e+00 -5.3537936528753107e+00 0 0 0
1036 346 1 -8.1999999999999995e-01 -8.6013178035999580e+00 -4.9379937461150902e+00 -5.6647614436137808e+00 0 0 0
198 66 2 4.0999999999999998e-01 -1.2089162213533902e+01 -3.5195559836999859e+00 -4.3763648910894837e+00 0 0 0
197 66 2 4.0999999999999998e-01 -1.1185272010563761e+01 -2.2005974133200148e+00 -4.7082905361794172e+00 0 0 0
2341 781 1 -8.1999999999999995e-01 -1.4228403515097762e+01 -5.6232604834770381e+00 -6.0980586955123730e+00 1 0 0
2420 807 2 4.0999999999999998e-01 -1.3305405063879441e+01 -5.9709441466472235e-01 -7.7861531567358604e+00 1 0 0
186 62 2 4.0999999999999998e-01 -1.2205630509054581e+01 -6.8549897854290407e+00 -6.0996862961822380e+00 0 0 0
101 34 2 4.0999999999999998e-01 -1.3931014905011496e+01 -4.5748264453947538e+00 -7.4384431968953351e+00 0 0 0
158 53 2 4.0999999999999998e-01 -1.1164378324322449e+01 -3.4445199943555558e+00 -6.9903731876277906e+00 0 0 0
157 53 1 -8.1999999999999995e-01 -1.0841753611298667e+01 -3.5781164004876995e+00 -7.9274680687778512e+00 0 0 0
2421 807 2 4.0999999999999998e-01 -1.3327603771093939e+01 -1.9182220630583284e+00 -6.8264798976933889e+00 1 0 0
196 66 1 -8.1999999999999995e-01 -1.1539309991252647e+01 -3.0611343289268262e+00 -5.0746439516342559e+00 0 0 0
1037 346 2 4.0999999999999998e-01 -9.4925109893577648e+00 -5.3000543429539793e+00 -5.3913234483572445e+00 0 0 0
1038 346 2 4.0999999999999998e-01 -8.6930168049645804e+00 -3.9708681092289275e+00 -5.9021236539572861e+00 0 0 0
2419 807 1 -8.1999999999999995e-01 -1.3146635963826974e+01 -9.3521281020221991e-01 -6.8584949108600082e+00 1 0 0
102 34 2 4.0999999999999998e-01 -1.2823105849787419e+01 -3.9420123721721367e+00 -8.4577212388786727e+00 0 0 0
232 78 1 -8.1999999999999995e-01 -9.6893212185213962e+00 -7.1132429766484506e-01 -3.6197582590941071e+00 0 0 0
1549 517 1 -8.1999999999999995e-01 -8.2782215162174140e+00 -2.2134675807211792e+00 -6.0570518115030438e+00 0 0 0
1054 352 1 -8.1999999999999995e-01 -1.0228886270906431e+01 -6.0235913037246487e+00 -8.5704185524603034e+00 0 0 0
1047 349 2 4.0999999999999998e-01 -8.1633247719561890e+00 -6.1820779661448473e+00 -3.8978505698491173e+00 0 0 0
1055 352 2 4.0999999999999998e-01 -1.0616615520093195e+01 -6.6720428916585170e+00 -7.9152406507550719e+00 0 0 0
1173 391 2 4.0999999999999998e-01 -8.5036777646129220e+00 -1.3903566945753454e+00 -8.6356217528953643e+00 0 0 0
1056 352 2 4.0999999999999998e-01 -1.0381758227773116e+01 -5.0901394345832109e+00 -8.2457967549871594e+00 0 0 0
233 78 2 4.0999999999999998e-01 -8.9367518497046419e+00 -9.4937858368706252e-01 -3.0057134678274124e+00 0 0 0
1045 349 1 -8.1999999999999995e-01 -8.3828788706634860e+00 -6.8445904574824095e+00 -3.1816420151320930e+00 0 0 0
619 207 1 -8.1999999999999995e-01 -1.2640206767092353e+01 -4.4060801509370524e+00 -3.0643062119209734e+00 0 0 0
1185 395 2 4.0999999999999998e-01 -2.7467330528673486e+00 -4.6195876334853381e-01 -3.9611269892167265e+00 0 0 0
1611 537 2 4.0999999999999998e-01 -1.3141695661860382e+00 -4.9509143829727265e-02 -5.6856908136693942e+00 0 0 0
1609 537 1 -8.1999999999999995e-01 -9.9564330065560291e-01 -1.8788264640385854e-01 -4.7478873673813684e+00 0 0 0
955 319 1 -8.1999999999999995e-01 -7.1701802986201368e+00 -6.6037336824026873e+00 -7.4297559132234117e+00 0 0 0
1610 537 2 4.0999999999999998e-01 -4.0793263527720214e-01 -9.9617748304790332e-01 -4.7113204978277032e+00 0 0 0
1612 538 1 -8.1999999999999995e-01 -1.6621345189390642e+00 -1.6208673556652720e-01 -7.5057782995349607e+00 0 0 0
169 57 1 -8.1999999999999995e-01 -5.6199802514911799e+00 -1.9917746372504936e+00 -5.2325721189636045e+00 0 0 0
606 202 2 4.0999999999999998e-01 -5.3483221623754904e+00 -3.0855179736737544e+00 -6.7450442037954463e+00 0 0 0
1093 365 1 -8.1999999999999995e-01 -4.3807746016237754e+00 -8.2679160280937936e-01 -8.1433479038744316e+00 0 0 0
1474 492 1 -8.1999999999999995e-01 -2.3116499971986997e+00 -3.5490409075273295e+00 -8.2168871049804970e+00 0 0 0
1195 399 1 -8.1999999999999995e-01 -3.4703369080464022e+00 -6.9663129909724919e+00 -3.1991254006368006e+00 0 0 0
170 57 2 4.0999999999999998e-01 -4.8154351104915136e+00 -1.5134149418744105e+00 -4.8804916859641203e+00 0 0 0
1476 492 2 4.0999999999999998e-01 -2.3159353706185772e+00 -2.5793504778170711e+00 -8.4613530865458646e+00 0 0 0
604 202 1 -8.1999999999999995e-01 -4.8874811311650550e+00 -3.8045351520868689e+00 -7.2653531014440569e+00 0 0 0
1551 517 2 4.0999999999999998e-01 -7.2915664083888512e+00 -2.0565081144060624e+00 -6.0128145584966397e+00 0 0 0