LAMMPS data file via write_data, version 15 May 2015, timestep = 12095000

2611 atoms
6 atom types
1749 bonds
4 bond types
894 angles
3 angle types
44 dihedrals
3 dihedral types
10 impropers
1 improper types

-1.5067792639181130e+01 1.5067792639181130e+01 xlo xhi
-1.5067792639181130e+01 1.5067792639181130e+01 ylo yhi
-1.5067792639181130e+01 1.5067792639181130e+01 zlo zhi

Masses

1 15.9994
2 1.00794
3 12.0107
4 1.00794
5 12.0107
6 12.0107

Bond Coeffs # harmonic

1 1000 1
2 469 1.4
3 367 1.08
4 469 0.7

Angle Coeffs # harmonic

1 100 109.47
2 35 120
3 63 120

Dihedral Coeffs # opls

1 0 7.25 0 0
2 0 7.25 0 0
3 0 7.25 0 0

Improper Coeffs # cvff

1 2.5 -1 2

Atoms # full

2344 782 1 -8.1999999999999995e-01 -1.4228189561927310e+01 -1.2427395103614728e+01 -1.2890081773547275e+01 3 6 3
2345 782 2 4.0999999999999998e-01 -1.4551752080301290e+01 -1.1577109928316327e+01 -1.3305236849046391e+01 3 6 3
1540 514 1 -8.1999999999999995e-01 -1.1209472567189712e+01 -9.7268559667162293e+00 -1.0889709631794954e+01 2 1 0
1331 444 2 4.0999999999999998e-01 -1.1352324633258480e+01 -1.0124875815982058e+01 -8.7166653277320627e+00 2 2 3
1651 551 1 -8.1999999999999995e-01 -1.1398376732921577e+01 -1.0609294525751563e+01 -1.4661369382205415e+01 -2 -1 1
1155 385 2 4.0999999999999998e-01 -9.5135249687164354e+00 -1.3087515801543825e+01 -1.4081139507603233e+01 1 1 -1
2319 773 2 4.0999999999999998e-01 -1.4497438694777868e+01 -9.5977414164458583e+00 -1.4313581095424729e+01 3 3 1
1541 514 2 4.0999999999999998e-01 -1.1042325507160726e+01 -1.0401159449265132e+01 -1.1609020475405721e+01 2 1 0
1816 606 1 -8.1999999999999995e-01 -1.1586320599007051e+01 -1.2922495305019744e+01 -1.2031584569921362e+01 -2 -3 2
1542 514 2 4.0999999999999998e-01 -1.2015325426251925e+01 -9.1828414481612697e+00 -1.1123548882284219e+01 2 1 0
1332 444 2 4.0999999999999998e-01 -1.2167430622623094e+01 -9.3408491508549325e+00 -7.5386947626502900e+00 2 2 3
1330 444 1 -8.1999999999999995e-01 -1.1579602632989388e+01 -1.0123678982640332e+01 -7.7428200123498323e+00 2 2 3
1154 385 2 4.0999999999999998e-01 -1.1087902561823583e+01 -1.2699801114053805e+01 -1.4275362970380215e+01 1 1 -1
1818 606 2 4.0999999999999998e-01 -1.1617131627962371e+01 -1.3913988089755440e+01 -1.1904998026051160e+01 -2 -3 2
1837 613 1 -8.1999999999999995e-01 -1.4701326788632088e+01 -1.4818193012571152e+01 -1.3881033156498340e+01 1 4 3
2488 830 1 -8.1999999999999995e-01 -1.2355287912093621e+01 -1.2633811794048793e+01 -9.1841562513760344e+00 3 1 3
1817 606 2 4.0999999999999998e-01 -1.2516684642997468e+01 -1.2570528421651646e+01 -1.2134411923549134e+01 -2 -3 2
2436 812 2 4.0999999999999998e-01 -1.3721858906297719e+01 -9.4302500536398774e+00 -1.2247771123177882e+01 -4 3 4
2489 830 2 4.0999999999999998e-01 -1.1866013891252166e+01 -1.2700984716895372e+01 -1.0053713672791925e+01 3 1 3
1555 519 1 -8.1999999999999995e-01 -1.3794313255756750e+01 -8.2965522872477315e+00 -7.8791327935163382e+00 2 1 2
2346 782 2 4.0999999999999998e-01 -1.4764736319574702e+01 -1.2622742710300091e+01 -1.2069113872862967e+01 3 6 3
1115 372 2 4.0999999999999998e-01 -1.4234664175906101e+01 -1.2908722387020864e+01 -9.5646395569700342e+00 2 3 3
2434 812 1 -8.1999999999999995e-01 -1.3663124481066337e+01 -8.7946687975680451e+00 -1.1477954155587524e+01 -4 3 4
2490 830 2 4.0999999999999998e-01 -1.1897532822444937e+01 -1.1968220459724005e+01 -8.5946820323382767e+00 3 1 3
1078 360 1 -8.1999999999999995e-01 -9.2575937598751263e+00 -1.3313804567044155e+01 -9.4570503137274784e+00 -1 3 7
1839 613 2 4.0999999999999998e-01 -1.4231897330067161e+01 -1.4001807437099369e+01 -1.3544607810007832e+01 1 4 3
2435 812 2 4.0999999999999998e-01 -1.4294958622941861e+01 -9.0832036719958520e+00 -1.0758534490024655e+01 -4 3 4
1653 551 2 4.0999999999999998e-01 -1.2090030814155329e+01 -9.9248656667042106e+00 -1.4892027556143342e+01 -2 -1 1
1556 519 2 4.0999999999999998e-01 -1.3207461981029535e+01 -7.6197076344765877e+00 -8.3235631020436731e+00 2 1 2
1487 496 2 4.0999999999999998e-01 -9.4232203264040493e+00 -1.0440561669067540e+01 -1.0870369986399236e+01 0 1 5
1153 385 1 -8.1999999999999995e-01 -1.0368450277011778e+01 -1.3345526673257689e+01 -1.4531211215282926e+01 1 1 -1
2457 819 2 4.0999999999999998e-01 -1.3096335690832253e+01 -1.4990878600635011e+01 -9.3654124842606024e+00 2 0 5
1080 360 2 4.0999999999999998e-01 -9.7351290958645169e+00 -1.4181285730142417e+01 -9.5965773927409934e+00 -1 3 7
2317 773 1 -8.1999999999999995e-01 -1.5042515626075330e+01 -1.0046294917952018e+01 -1.3605257495000233e+01 3 3 1
411 137 2 4.0999999999999998e-01 -1.4978662225832002e+01 -9.5090478813393506e+00 -8.9446131755119449e+00 -1 6 1
1388 463 2 4.0999999999999998e-01 -1.1084253128390944e+01 -1.5025169116816722e+01 -1.4485607061179881e+01 -2 1 -1
1652 551 2 4.0999999999999998e-01 -1.0500157806590131e+01 -1.0290659707840042e+01 -1.4964199308746005e+01 -2 -1 1
294 98 2 4.0999999999999998e-01 -1.1938207233466121e+01 -6.9915286732770223e+00 -1.1727300237102700e+01 -1 5 6
730 244 1 -8.1999999999999995e-01 -1.4825416718541957e+01 -6.8079887783863740e+00 -1.2866312695489437e+01 3 4 0
1913 638 2 4.0999999999999998e-01 -9.4605378360381334e+00 -5.7755313464758924e+00 -8.8790145649641996e+00 7 -2 -2
426 142 2 4.0999999999999998e-01 -9.7036697689988785e+00 -4.5622418093398789e+00 -1.1718634404023344e+01 4 4 7
1912 638 1 -8.1999999999999995e-01 -9.8826569069117092e+00 -5.6869961161762141e+00 -7.9767904158926317e+00 7 -2 -2
45 15 2 4.0999999999999998e-01 -1.3848095117496007e+01 -2.9947215075382960e+00 -9.9312908591124867e+00 2 5 5
424 142 1 -8.1999999999999995e-01 -1.0590641258710903e+01 -4.3347926591873591e+00 -1.2120604390058919e+01 4 4 7
43 15 1 -8.1999999999999995e-01 -1.4443495085068369e+01 -2.2927867991460253e+00 -9.5403715048720237e+00 2 5 5
946 316 1 -8.1999999999999995e-01 -1.2435423696734142e+01 -3.3158396368089704e+00 -1.4228977542429076e+01 4 0 3
537 179 2 4.0999999999999998e-01 -1.2497187048817718e+01 -4.3128070928530580e+00 -8.1048958276977920e+00 6 5 4
1946 649 2 4.0999999999999998e-01 -1.0812718978132622e+01 -2.5072687009480052e+00 -1.1418018657049833e+01 3 3 -1
1843 615 1 -8.1999999999999995e-01 -1.3109875806626428e+01 -4.2739268209159160e+00 -1.1121496436182781e+01 -3 0 3
2014 672 1 -8.1999999999999995e-01 -1.1189146252707106e+01 -1.6571910656483979e-01 -8.8271059046794811e+00 0 6 -2
351 117 2 4.0999999999999998e-01 -1.2077028958900017e+01 -1.9917885806170013e+00 -7.9045857295601385e+00 -1 5 -1
1947 649 2 4.0999999999999998e-01 -1.1235149887296789e+01 -1.2640122862145304e+00 -1.0447155323919059e+01 3 3 -1
1844 615 2 4.0999999999999998e-01 -1.2140643338303692e+01 -4.2462509185501371e+00 -1.1366146995451459e+01 -3 0 3
293 98 2 4.0999999999999998e-01 -1.2741563377854479e+01 -6.7323477985930840e+00 -1.3125210974195635e+01 -1 5 6
1945 649 1 -8.1999999999999995e-01 -1.1512238000797307e+01 -1.8170182069077665e+00 -1.1232927552176331e+01 3 3 -1
948 316 2 4.0999999999999998e-01 -1.2339886877085565e+01 -2.7808687823586418e+00 -1.3389507289870405e+01 4 0 3
44 15 2 4.0999999999999998e-01 -1.4164872667291931e+01 -2.1062775302841423e+00 -8.5982381501418494e+00 2 5 5
535 179 1 -8.1999999999999995e-01 -1.2604970605950278e+01 -5.2184359286331770e+00 -8.5150793751582103e+00 6 5 4
536 179 2 4.0999999999999998e-01 -1.3043317438388264e+01 -5.1292324125490136e+00 -9.4094653106987192e+00 6 5 4
1914 638 2 4.0999999999999998e-01 -1.0804150649923956e+01 -5.3112739948164833e+00 -8.0753479787023394e+00 7 -2 -2
947 316 2 4.0999999999999998e-01 -1.3339476336612510e+01 -3.7427239515012456e+00 -1.4251113797591222e+01 4 0 3
1845 615 2 4.0999999999999998e-01 -1.3659494456407399e+01 -4.3869155981625632e+00 -1.1949255016685489e+01 -3 0 3
427 143 1 -8.1999999999999995e-01 -1.4924593834776925e+01 -4.5603721778497253e+00 -1.4844549187275963e+01 -1 2 -1
1505 502 2 4.0999999999999998e-01 -1.3424242328367527e+01 -6.5817415157270531e-01 -1.1055604729989685e+01 5 1 6
425 142 2 4.0999999999999998e-01 -1.0980619361300672e+01 -5.1492889303793525e+00 -1.2550190585421296e+01 4 4 7
292 98 1 -8.1999999999999995e-01 -1.1837231586445691e+01 -6.8147897304378944e+00 -1.2706380751513471e+01 -1 5 6
2015 672 2 4.0999999999999998e-01 -1.0212770738861446e+01 -1.8962214050278625e-01 -8.6122783451596412e+00 0 6 -2
731 244 2 4.0999999999999998e-01 -1.4313043183552372e+01 -7.4828517945796262e+00 -1.2335215071124344e+01 3 4 0
2469 823 2 4.0999999999999998e-01 -9.1185973455377631e+00 -6.5443828173100247e+00 -1.1164748483998938e+01 2 1 2
2396 799 2 4.0999999999999998e-01 -1.3121552054951907e+01 -1.9752323548292381e+00 -1.5057307520182762e+01 1 -1 2
1306 436 1 -8.1999999999999995e-01 -9.2215740190548647e+00 -1.4833950080667222e+01 -4.1027203163734658e+00 1 0 0
1269 423 2 4.0999999999999998e-01 -9.4963793393688114e+00 -1.2018779713807811e+01 -1.0636665602843092e+00 -4 -3 3
1823 608 2 4.0999999999999998e-01 -1.3275635476455507e+01 -1.1232414039354714e+01 -6.6396780614441262e+00 4 1 4
1565 522 2 4.0999999999999998e-01 -1.4793900852860638e+01 -1.4458209936367217e+01 -6.0754644361768051e+00 1 1 4
1557 519 2 4.0999999999999998e-01 -1.4286734868041014e+01 -7.8655535093688007e+00 -7.1229632159167844e+00 2 1 2
1564 522 1 -8.1999999999999995e-01 -1.4847991941887329e+01 -1.3543264875328470e+01 -5.6754880900287805e+00 1 1 4
18 6 2 4.0999999999999998e-01 -1.0103277063920007e+01 -9.8925151810107756e+00 -6.5643882484738025e+00 -1 5 2
882 294 2 4.0999999999999998e-01 -1.1812321655046363e+01 -7.6542171298571455e+00 -2.7544189870837581e+00 1 3 1
1824 608 2 4.0999999999999998e-01 -1.4395701905219598e+01 -1.2061866464936509e+01 -5.7886962189454376e+00 4 1 4
2018 673 2 4.0999999999999998e-01 -1.0454323029980188e+01 -9.7348891009089407e+00 -4.3419714891079053e-01 1 2 2
1822 608 1 -8.1999999999999995e-01 -1.4035176236351139e+01 -1.1152015764685805e+01 -5.9941818552289945e+00 4 1 4
1368 456 2 4.0999999999999998e-01 -1.3606017398917196e+01 -9.1671610999863749e+00 -1.1073371835610377e+00 2 3 3
418 140 1 -8.1999999999999995e-01 -9.8319422454076371e+00 -1.3969160503645814e+01 -6.7060113018287346e+00 0 -1 6
1367 456 2 4.0999999999999998e-01 -1.4364263070622473e+01 -1.0533910309529070e+01 -6.3429348501523819e-01 2 3 3
1366 456 1 -8.1999999999999995e-01 -1.3734416617047456e+01 -9.8101683220869980e+00 -3.5229629631026071e-01 2 3 3
2167 723 1 -8.1999999999999995e-01 -1.1126884286050695e+01 -1.1076930941602038e+01 -1.3345377111389052e+00 6 -5 -1
1879 627 1 -8.1999999999999995e-01 -1.0102270145918027e+01 -1.1509197131507165e+01 -3.9449156998080817e+00 -1 4 6
2333 778 2 4.0999999999999998e-01 -1.1898744684308362e+01 -8.3575993906060546e+00 -4.7354382690219516e+00 3 1 8
16 6 1 -8.1999999999999995e-01 -9.3838406544370674e+00 -9.8155204522687534e+00 -5.8740879682364291e+00 -1 5 2
2332 778 1 -8.1999999999999995e-01 -1.2334601946804600e+01 -8.9840295569496043e+00 -4.0891835807714507e+00 3 1 8
2334 778 2 4.0999999999999998e-01 -1.2710834359498996e+01 -9.7664103960852806e+00 -4.5855310445073840e+00 3 1 8
1881 627 2 4.0999999999999998e-01 -9.9469385266762522e+00 -1.0833105061429695e+01 -4.6651955125525024e+00 -1 4 6
2169 723 2 4.0999999999999998e-01 -1.1046676238820407e+01 -1.1193870782637182e+01 -2.3244483864225227e+00 6 -5 -1
1307 436 2 4.0999999999999998e-01 -9.5569456577895462e+00 -1.4649297989525582e+01 -5.0265497877181300e+00 1 0 0
934 312 1 -8.1999999999999995e-01 -1.1911287763234519e+01 -1.3102349692300615e+01 -5.0858687205494562e+00 -1 -1 6
935 312 2 4.0999999999999998e-01 -1.2100936969526028e+01 -1.4000689570095615e+01 -4.6895732799486822e+00 -1 -1 6
936 312 2 4.0999999999999998e-01 -1.2701510513622432e+01 -1.2504683356537592e+01 -4.9503166257470799e+00 -1 -1 6
2168 723 2 4.0999999999999998e-01 -1.1957099266740299e+01 -1.1531210338667067e+01 -1.0114205161062326e+00 6 -5 -1
1880 627 2 4.0999999999999998e-01 -1.0569648754686888e+01 -1.2305025020502622e+01 -4.3299437252381097e+00 -1 4 6
323 108 2 4.0999999999999998e-01 -1.3822771789298272e+01 -8.5945797757185503e+00 -3.3081286961926537e+00 2 0 4
420 140 2 4.0999999999999998e-01 -9.3722632980022968e+00 -1.3551447933520246e+01 -7.4897477965591923e+00 0 -1 6
419 140 2 4.0999999999999998e-01 -1.0501697643360828e+01 -1.3327792602058866e+01 -6.3317034844698163e+00 0 -1 6
322 108 1 -8.1999999999999995e-01 -1.4728714599991578e+01 -8.5360767810610980e+00 -2.8887524653696364e+00 2 0 4
1211 404 2 4.0999999999999998e-01 -1.5008037216108088e+01 -1.2333811205999433e+01 -7.9170479622232293e-01 3 3 5
1520 507 2 4.0999999999999998e-01 -1.4249793010473178e+01 -4.9633208312457100e-02 -5.8797322392203863e+00 1 1 0
823 275 1 -8.1999999999999995e-01 -9.1095505733929869e+00 -4.0874959640927315e+00 -3.4583425950890643e+00 -1 4 8
881 294 2 4.0999999999999998e-01 -1.1828375005893374e+01 -7.0420909243609593e+00 -1.2405649440029816e+00 1 3 1
2416 806 1 -8.1999999999999995e-01 -1.3842058161910272e+01 -4.5421432429022808e+00 -3.0680515511072084e+00 3 0 1
349 117 1 -8.1999999999999995e-01 -1.2511104925499797e+01 -2.6413857829445000e+00 -7.2803798784146432e+00 -1 5 -1
880 294 1 -8.1999999999999995e-01 -1.1467616325968907e+01 -6.9231046969308903e+00 -2.1656199929348787e+00 1 3 1
2339 780 2 4.0999999999999998e-01 -1.1320829532270945e+01 -5.9657756580486794e+00 -5.1665884256869834e+00 2 2 1
679 227 1 -8.1999999999999995e-01 -1.4705036536686118e+01 -1.0518901917554935e+00 -3.8676712473156289e+00 4 4 2
576 192 2 4.0999999999999998e-01 -9.8703919565826013e+00 -6.8418199662639871e+00 -2.3154184661328880e+00 0 1 6
2418 806 2 4.0999999999999998e-01 -1.4840113717957960e+01 -4.5204895742576738e+00 -3.0093361499628895e+00 3 0 1
2054 685 2 4.0999999999999998e-01 -1.0340321530353734e+01 -2.2990781538427552e+00 -1.1905629391570702e+00 -3 4 -1
1519 507 1 -8.1999999999999995e-01 -1.4794332451490764e+01 -4.7645646688549093e-02 -6.7184838401953257e+00 1 1 0
681 227 2 4.0999999999999998e-01 -1.4934169650620497e+01 -1.9921581999379114e+00 -3.6158270448370082e+00 4 4 2
1150 384 1 -8.1999999999999995e-01 -1.1542015644238251e+01 -4.3037975587498476e+00 -4.6956980533961712e+00 1 1 1
2338 780 1 -8.1999999999999995e-01 -1.1343496289803241e+01 -6.7979769306708011e+00 -5.7206269544723334e+00 2 2 1
2340 780 2 4.0999999999999998e-01 -1.0815760251653936e+01 -6.6554001327356591e+00 -6.5580025886192281e+00 2 2 1
2055 685 2 4.0999999999999998e-01 -1.0419191492040209e+01 -2.2872698977172323e+00 -2.8216209645868400e+00 -3 4 -1
1152 384 2 4.0999999999999998e-01 -1.2334095043972802e+01 -4.2844703778082298e+00 -4.0855603113916104e+00 1 1 1
1095 365 2 4.0999999999999998e-01 -1.2418286399369201e+01 -3.7569905826396699e-01 -1.9040541730750888e+00 0 4 2
2417 806 2 4.0999999999999998e-01 -1.3460494770928610e+01 -4.7745635571228267e+00 -2.1733887151271407e+00 3 0 1
1094 365 2 4.0999999999999998e-01 -1.3806722997683654e+01 -2.9363122448694057e-01 -2.7597521016024800e+00 0 4 2
1249 417 1 -8.1999999999999995e-01 -1.2193172463050189e+01 -1.4633210234733163e+00 -4.9325001827917720e+00 0 2 0
1251 417 2 4.0999999999999998e-01 -1.1587713284174217e+01 -6.8440296461503536e-01 -4.7689849133768440e+00 0 2 0
350 117 2 4.0999999999999998e-01 -1.2475233744104727e+01 -2.2823016251019563e+00 -6.3477474734776269e+00 -1 5 -1
1151 384 2 4.0999999999999998e-01 -1.1742405933411767e+01 -3.7726794579947214e+00 -5.5189772979492915e+00 1 1 1
2053 685 1 -8.1999999999999995e-01 -1.0615201828159700e+01 -1.7662126263212787e+00 -1.9908919646284211e+00 -3 4 -1
824 275 2 4.0999999999999998e-01 -9.9840565315904186e+00 -4.3138909978977811e+00 -3.8873135132834786e+00 -1 4 8
1250 417 2 4.0999999999999998e-01 -1.2960826227411278e+01 -1.4288945340535335e+00 -4.2925363025270045e+00 0 2 0
66 22 2 4.0999999999999998e-01 -9.3583394335416070e+00 -1.4621411367240711e-02 -9.4647969262985221e-01 -2 -3 3
845 282 2 4.0999999999999998e-01 -1.0534742145072236e+01 -1.0346925751259821e+01 1.8581588778462166e+00 2 2 3
844 282 1 -8.1999999999999995e-01 -1.0860147086372084e+01 -1.0556800824746892e+01 2.7801650861229508e+00 2 2 3
846 282 2 4.0999999999999998e-01 -1.0081197586455893e+01 -1.0606389238970671e+01 3.4053130885659595e+00 2 2 3
839 280 2 4.0999999999999998e-01 -1.3855736152155897e+01 -1.1799627053043737e+01 4.4308151755696148e+00 5 0 1
641 214 2 4.0999999999999998e-01 -1.2341292100537700e+01 -9.7469725919021073e+00 2.6317705972614096e+00 0 5 -1
640 214 1 -8.1999999999999995e-01 -1.3269102189871280e+01 -9.4872947825398857e+00 2.3638763859414613e+00 0 5 -1
2402 801 2 4.0999999999999998e-01 -1.2976373315412326e+01 -1.3826983626256242e+01 4.5598155658916060e+00 5 3 -2
642 214 2 4.0999999999999998e-01 -1.3355716385057221e+01 -9.5395229531814358e+00 1.3689886357734782e+00 0 5 -1
2401 801 1 -8.1999999999999995e-01 -1.2594684843595079e+01 -1.3088503181876131e+01 5.1156860095887620e+00 5 3 -2
2403 801 2 4.0999999999999998e-01 -1.1598233030298982e+01 -1.3088668494276549e+01 5.0313347013209455e+00 5 3 -2
51 17 2 4.0999999999999998e-01 -9.6203392258539626e+00 -8.9095998130303311e+00 4.6634349281274208e+00 -1 3 4
49 17 1 -8.1999999999999995e-01 -9.7078089154220848e+00 -8.4039339768988182e+00 5.5217370519669355e+00 -1 3 4
840 280 2 4.0999999999999998e-01 -1.4250776943371067e+01 -1.0510755699566353e+01 3.5091516455490979e+00 5 0 1
838 280 1 -8.1999999999999995e-01 -1.4602529788070159e+01 -1.1332647584597044e+01 3.9572532997142407e+00 5 0 1
1692 564 2 4.0999999999999998e-01 -1.1036522685215397e+01 -1.3469591779042368e+01 1.2809367687781918e+00 -1 4 5
1941 647 2 4.0999999999999998e-01 -1.3916446979513271e+01 -1.2650817693963631e+01 6.4273023093001544e+00 3 2 0
50 17 2 4.0999999999999998e-01 -9.3359567231151708e+00 -8.9520866484581205e+00 6.2709272969601013e+00 -1 3 4
1690 564 1 -8.1999999999999995e-01 -1.1745901965682542e+01 -1.2801906547912454e+01 1.5067880927479873e+00 -1 4 5
2575 859 1 -8.1999999999999995e-01 -9.2780241571783861e+00 -1.3346429277921160e+01 5.3902896402340108e+00 1 2 1
1691 564 2 4.0999999999999998e-01 -1.1343588142228496e+01 -1.2053725504889590e+01 2.0344243923198437e+00 -1 4 5
2577 859 2 4.0999999999999998e-01 -9.4056963857504634e+00 -1.3092010780573927e+01 6.3489357744971731e+00 1 2 1
1939 647 1 -8.1999999999999995e-01 -1.4447066653270385e+01 -1.3015735917203934e+01 7.1923571220797786e+00 3 2 0
1029 343 2 4.0999999999999998e-01 -1.0128898984790476e+01 -7.8839202611276722e+00 1.7413574592871637e+00 -5 0 0
2157 719 2 4.0999999999999998e-01 -1.4222926732266629e+01 -8.0251569548422879e+00 2.3709530175858848e+00 1 1 0
40 14 1 -8.1999999999999995e-01 -1.4538913940025086e+01 -1.3058133972311355e+01 8.8155437448567397e-01 1 0 -1
41 14 2 4.0999999999999998e-01 -1.3581756855184080e+01 -1.2990958719611347e+01 1.1632797730568480e+00 1 0 -1
170 57 2 4.0999999999999998e-01 -9.4834574649252339e+00 -1.4836104079434206e+01 2.5796854850954833e+00 6 0 2
1483 495 1 -8.1999999999999995e-01 -1.4392763229343158e+01 -1.4714665082252742e+01 4.1935294578281823e+00 -2 -1 3
1484 495 2 4.0999999999999998e-01 -1.4523234126465033e+01 -1.4908984926650916e+01 3.2212905641329375e+00 -2 -1 3
2017 673 1 -8.1999999999999995e-01 -1.0084671165868869e+01 -9.2254881119252303e+00 3.4291259463565105e-01 1 2 2
2019 673 2 4.0999999999999998e-01 -9.2162520245148301e+00 -8.8036666601713449e+00 8.2247637040953947e-02 1 2 2
1468 490 1 -8.1999999999999995e-01 -1.4594436878263748e+01 -5.4469637026050677e-02 2.7483343848245259e+00 2 0 -3
2155 719 1 -8.1999999999999995e-01 -1.4826263418704910e+01 -7.2885964018262159e+00 2.0651837677813010e+00 1 1 0
894 298 2 4.0999999999999998e-01 -1.3415717869635865e+01 -6.1591030581268562e+00 2.7376441573508270e+00 1 -1 4
892 298 1 -8.1999999999999995e-01 -1.2479124290631079e+01 -6.0246425932490517e+00 3.0612863072364984e+00 1 -1 4
1028 343 2 4.0999999999999998e-01 -1.0934520830544681e+01 -6.5591014766696087e+00 2.2537429545933829e+00 -5 0 0
1027 343 1 -8.1999999999999995e-01 -1.0040406728971211e+01 -6.9184416125779418e+00 1.9864115776765612e+00 -5 0 0
2462 821 2 4.0999999999999998e-01 -1.3112333339924444e+01 -1.2891994843917232e-02 6.7813660578615913e+00 4 -1 -1
406 136 1 -8.1999999999999995e-01 -1.1938940382515639e+01 -4.5490894037457714e+00 3.6535994511268655e-01 2 4 1
2383 795 1 -8.1999999999999995e-01 -1.0037261417817444e+01 -2.6887699375447482e+00 4.4054676941226845e-01 4 -3 4
705 235 2 4.0999999999999998e-01 -1.3207598089779053e+01 -4.2142855452872396e+00 5.8668873223535964e+00 0 2 4
1571 524 2 4.0999999999999998e-01 -1.3847261708416820e+01 -2.5308356275454287e+00 1.1150763273688522e+00 3 -2 4
407 136 2 4.0999999999999998e-01 -1.1605501446765276e+01 -3.6449861560810888e+00 6.3265604875736869e-01 2 4 1
33 11 2 4.0999999999999998e-01 -9.3706552395358997e+00 -3.0801507149170266e+00 4.2812744190281737e+00 -1 1 0
31 11 1 -8.1999999999999995e-01 -9.7165632128973503e+00 -2.5034022192801686e+00 3.5411796758397447e+00 -1 1 0
32 11 2 4.0999999999999998e-01 -1.0712826453411537e+01 -2.5784050210444374e+00 3.4979878567070859e+00 -1 1 0
1999 667 1 -8.1999999999999995e-01 -1.1485294490323342e+01 -8.8686742524604512e-02 9.9918164706296686e-01 0 1 5
703 235 1 -8.1999999999999995e-01 -1.2556646683684182e+01 -3.9927839010620492e+00 5.1407807798694503e+00 0 2 4
704 235 2 4.0999999999999998e-01 -1.1624037678742502e+01 -4.0836043255044032e+00 5.4900994287356060e+00 0 2 4
1673 558 2 4.0999999999999998e-01 -1.2780297754121415e+01 -2.8703031813448767e+00 3.5525865955961944e+00 1 1 6
1672 558 1 -8.1999999999999995e-01 -1.2775294774166651e+01 -2.3026334506937172e+00 2.7293263513730697e+00 1 1 6
2384 795 2 4.0999999999999998e-01 -9.3466367705590514e+00 -3.4032092203802407e+00 3.2809456878414700e-01 4 -3 4
784 262 1 -8.1999999999999995e-01 -9.9402188627282193e+00 -4.1576808252122639e+00 5.9645700858849846e+00 5 1 3
893 298 2 4.0999999999999998e-01 -1.2489433408449441e+01 -5.4595223045886740e+00 3.8862494544214581e+00 1 -1 4
1674 558 2 4.0999999999999998e-01 -1.3360788155076277e+01 -1.5044579580190085e+00 2.8712585958510974e+00 1 1 6
2000 667 2 4.0999999999999998e-01 -1.1479355039785176e+01 -1.0370763646683283e+00 6.8208033106425070e-01 0 1 5
2001 667 2 4.0999999999999998e-01 -1.1739759377405020e+01 -6.2051561707901826e-02 1.9659130466099821e+00 0 1 5
2385 795 2 4.0999999999999998e-01 -9.8548838502777247e+00 -2.1781776778948849e+00 1.2808237304061283e+00 4 -3 4
1188 396 2 4.0999999999999998e-01 -1.4905867585408627e+01 -3.7022493873633326e+00 7.4438237559331260e+00 4 1 0
1570 524 1 -8.1999999999999995e-01 -1.4434905828896181e+01 -3.2276679501657757e+00 7.0382152321270475e-01 3 -2 4
1572 524 2 4.0999999999999998e-01 -1.3901507895483570e+01 -4.0567113496351297e+00 5.3587790752368747e-01 3 -2 4
408 136 2 4.0999999999999998e-01 -1.1540425767370603e+01 -5.2422986325238732e+00 9.6592505542119689e-01 2 4 1
1227 409 2 4.0999999999999998e-01 -9.3974872917116699e+00 -7.6305503190737767e-01 3.6391103500017952e+00 0 -1 -2
1365 455 2 4.0999999999999998e-01 -1.0783200356871228e+01 -1.7030700127589427e-01 5.1313548930827597e+00 1 -1 3
1187 396 2 4.0999999999999998e-01 -1.4916993393075293e+01 -5.3349633386817565e+00 7.4726613433846243e+00 4 1 0
597 199 2 4.0999999999999998e-01 -9.9256381553862596e+00 -6.9723209758272358e+00 7.0690131339364672e+00 0 0 3
1186 396 1 -8.1999999999999995e-01 -1.4334903390860786e+01 -4.5230794769280074e+00 7.4274148256181807e+00 4 1 0
785 262 2 4.0999999999999998e-01 -9.9997453558686882e+00 -5.0700169394132626e+00 6.3697007052258083e+00 5 1 3
786 262 2 4.0999999999999998e-01 -1.0132423957322704e+01 -3.4692267203456026e+00 6.6639409357867958e+00 5 1 3
987 329 2 4.0999999999999998e-01 -1.4900586586668599e+01 -1.5234570996412611e+00 7.5029297234993333e+00 4 5 2
862 288 1 -8.1999999999999995e-01 -1.2461220849331591e+01 -1.4612316469994795e+01 1.1996121390352736e+01 6 2 1
864 288 2 4.0999999999999998e-01 -1.3107641122099393e+01 -1.4783432946055479e+01 1.2739688059397261e+01 6 2 1
2201 734 2 4.0999999999999998e-01 -1.2603460808623939e+01 -1.4629742219303100e+01 8.8619463076721470e+00 3 2 3
2200 734 1 -8.1999999999999995e-01 -1.2807393524020002e+01 -1.3732748563259543e+01 9.2541774069846898e+00 3 2 3
204 68 2 4.0999999999999998e-01 -1.1800594028517175e+01 -1.2940829359914737e+01 1.2344572478385723e+01 -2 -1 -3
1199 400 2 4.0999999999999998e-01 -9.5222807858460428e+00 -1.2229280240796058e+01 9.4782740682863942e+00 1 6 -4
1417 473 1 -8.1999999999999995e-01 -1.4231662529656072e+01 -1.0559460158100901e+01 1.2486248210142017e+01 2 6 0
1198 400 1 -8.1999999999999995e-01 -9.5162626719252206e+00 -1.2649001122120202e+01 1.0385924650861599e+01 1 6 -4
1940 647 2 4.0999999999999998e-01 -1.3824772654598066e+01 -1.3354290101145466e+01 7.8981634958020894e+00 3 2 0
414 138 2 4.0999999999999998e-01 -1.3080247681717102e+01 -8.1138462490665990e+00 1.4201940019584297e+01 0 2 0
1266 422 2 4.0999999999999998e-01 -1.2331297956972673e+01 -1.0060568397699555e+01 1.0235340130260402e+01 -1 4 -2
412 138 1 -8.1999999999999995e-01 -1.3378677697625735e+01 -8.9952850889208751e+00 1.4568049994836235e+01 0 2 0
874 292 1 -8.1999999999999995e-01 -1.0460853700478136e+01 -1.2132170356345810e+01 7.7550164798350085e+00 1 2 -2
1004 335 2 4.0999999999999998e-01 -1.3469641318792627e+01 -1.0050364372805353e+01 8.0016931514446572e+00 2 2 5
875 292 2 4.0999999999999998e-01 -1.1136010137779166e+01 -1.1416559417084487e+01 7.9341705426625051e+00 1 2 -2
983 328 2 4.0999999999999998e-01 -1.4440900129158676e+01 -8.8519110119941988e+00 1.1661119683305239e+01 -3 4 -2
1005 335 2 4.0999999999999998e-01 -1.3463423007110078e+01 -1.1652712141937014e+01 8.3165791616362643e+00 2 2 5
1003 335 1 -8.1999999999999995e-01 -1.2923101415305078e+01 -1.0811902672967191e+01 8.3500966014960820e+00 2 2 5
1264 422 1 -8.1999999999999995e-01 -1.1423030711303481e+01 -1.0029034258399541e+01 1.0652578144766840e+01 -1 4 -2
1265 422 2 4.0999999999999998e-01 -1.1386406741380751e+01 -1.0669029484150442e+01 1.1420104169939640e+01 -1 4 -2
876 292 2 4.0999999999999998e-01 -1.0879911056949437e+01 -1.3028936813827972e+01 7.8972566989702901e+00 1 2 -2
203 68 2 4.0999999999999998e-01 -1.1000546469457522e+01 -1.1918283021964481e+01 1.3335043636845535e+01 -2 -1 -3
413 138 2 4.0999999999999998e-01 -1.3816165869165806e+01 -9.5266458320787688e+00 1.3842590652485638e+01 0 2 0
1200 400 2 4.0999999999999998e-01 -1.0001379145235788e+01 -1.2057438180813584e+01 1.1029932958417858e+01 1 6 -4
2135 712 2 4.0999999999999998e-01 -1.1156985989804292e+01 -8.0777179797122365e+00 1.0372597772634895e+01 0 0 0
202 68 1 -8.1999999999999995e-01 -1.1512776666502489e+01 -1.1992666423946764e+01 1.2479404253678650e+01 -2 -1 -3
1740 580 2 4.0999999999999998e-01 -9.3426088539469596e+00 -1.4434140354803374e+01 1.1105218983436385e+01 0 -1 0
1317 439 2 4.0999999999999998e-01 -9.3076170346540685e+00 -1.0106867272656473e+01 1.1213922348293375e+01 1 2 -2
1419 473 2 4.0999999999999998e-01 -1.3308709931808224e+01 -1.0942228954658127e+01 1.2527211148435248e+01 2 6 0
2202 734 2 4.0999999999999998e-01 -1.2679776566502577e+01 -1.3765600307551415e+01 1.0245472558580685e+01 3 2 3
982 328 1 -8.1999999999999995e-01 -1.4408140307329516e+01 -7.9305739992057589e+00 1.1273697035557097e+01 -3 4 -2
1418 473 2 4.0999999999999998e-01 -1.4872188389516989e+01 -1.1265450414297668e+01 1.2184030087246276e+01 2 6 0
2451 817 2 4.0999999999999998e-01 -1.2888646883942750e+01 -6.4993303037669214e-01 1.1520503810698441e+01 2 0 3
365 122 2 4.0999999999999998e-01 -1.1323195244289495e+01 -1.7989315274242514e+00 7.7563660431100256e+00 2 2 0
366 122 2 4.0999999999999998e-01 -1.0316846821184434e+01 -2.7304051192643986e+00 8.6431185778697941e+00 2 2 0
1753 585 1 -8.1999999999999995e-01 -9.3776588473470461e+00 -3.4551175900083564e-01 1.0520769050037957e+01 -1 2 -3
2134 712 1 -8.1999999999999995e-01 -1.0763330795926288e+01 -7.1585890143830291e+00 1.0388996552893976e+01 0 0 0
913 305 1 -8.1999999999999995e-01 -1.4903331715451625e+01 -3.7590403555986427e+00 1.1420583504950828e+01 5 -5 -3
2397 799 2 4.0999999999999998e-01 -1.4607575241182271e+01 -1.4755312881248095e+00 1.4621392555889466e+01 1 -1 1
291 97 2 4.0999999999999998e-01 -1.2920182916583675e+01 -4.2323919882581880e+00 8.4684335610437902e+00 2 -1 0
2271 757 2 4.0999999999999998e-01 -1.1527261870551440e+01 -4.3021648267155790e+00 1.4259769309506238e+01 3 -1 3
107 36 2 4.0999999999999998e-01 -1.0593721798564253e+01 -2.4701088581925337e+00 1.3501432615070035e+01 0 0 -1
2461 821 1 -8.1999999999999995e-01 -1.3567329246520586e+01 -4.2955318873648807e-01 7.5683880237426084e+00 4 -1 -1
2395 799 1 -8.1999999999999995e-01 -1.3630429471142781e+01 -1.4273429927942338e+00 1.4414280455355209e+01 1 -1 1
290 97 2 4.0999999999999998e-01 -1.1960524308930554e+01 -5.1893455832439273e+00 9.3794799027737970e+00 2 -1 0
915 305 2 4.0999999999999998e-01 -1.4279961940908294e+01 -2.9933220135237644e+00 1.1579066665755141e+01 5 -5 -3
1812 604 2 4.0999999999999998e-01 -1.2169787415169049e+01 -6.0270148840125355e+00 1.3133935288045871e+01 0 2 5
1810 604 1 -8.1999999999999995e-01 -1.2967720915782206e+01 -6.5838505399930458e+00 1.3364733077516336e+01 0 2 5
364 122 1 -8.1999999999999995e-01 -1.0475408718419901e+01 -2.3290760289477941e+00 7.7409963528250021e+00 2 2 0
2269 757 1 -8.1999999999999995e-01 -1.1282801292680675e+01 -4.4955534441527440e+00 1.3309573915356216e+01 3 -1 3
1811 604 2 4.0999999999999998e-01 -1.3662301789796647e+01 -6.0082482155905375e+00 1.3796324088931945e+01 0 2 5
984 328 2 4.0999999999999998e-01 -1.3668990533276530e+01 -7.4135421178704286e+00 1.1705399539841617e+01 -3 4 -2
289 97 1 -8.1999999999999995e-01 -1.2342016568199366e+01 -4.2699521858066536e+00 9.2835067476231696e+00 2 -1 0
2136 712 2 4.0999999999999998e-01 -1.0185553552716275e+01 -7.0578456647838266e+00 1.1198969179841738e+01 0 0 0
108 36 2 4.0999999999999998e-01 -1.0355411032359694e+01 -8.9860894886238718e-01 1.3876007342205535e+01 0 0 -1
2450 817 2 4.0999999999999998e-01 -1.3896859843581886e+01 -1.2443932651136169e+00 1.2659289960607476e+01 2 0 3
159 53 2 4.0999999999999998e-01 -1.1029221968726882e+01 -3.4013534373540608e+00 1.0061227642497643e+01 -2 0 -1
595 199 1 -8.1999999999999995e-01 -9.6680988557152663e+00 -6.4304575187747677e+00 7.8690686894621766e+00 0 0 3