2611
Atoms. Timestep: 12090000
O 8.89169 4.51482 -0.849256
H 9.20386 4.42041 0.0960554
H 9.65788 4.35262 -1.47105
O 7.44252 9.55741 13.3106
H 8.19782 9.97024 12.8016
H 7.80763 9.01418 14.0666
O 4.1354 -3.33367 -4.16431
H 4.2132 -4.02065 -3.44182
H 3.64045 -3.72202 -4.9416
O 6.17051 1.99208 -1.01169
H 5.76714 2.90371 -0.933012
H 5.85031 1.55743 -1.85343
O 7.40686 2.01512 9.91216
H 7.54132 1.65683 10.836
H 7.92015 1.457 9.26024
O -10.9391 -11.1644 -7.50851
H -10.9947 -10.1707 -7.41139
H -10.6855 -11.3938 -8.44822
O -11.649 -1.64394 -3.60397
H -12.4048 -2.28562 -3.73422
H -10.7927 -2.0756 -3.88746
O 10.6762 -0.186902 1.31184
H 10.2837 0.732739 1.32375
H 9.94877 -0.861464 1.43733
O -1.13011 -11.2144 -12.9206
H -0.516614 -11.339 -13.7004
H -1.85587 -10.5721 -13.1668
O -4.26352 -10.4343 12.1791
H -4.61702 -10.8895 11.3619
H -3.71394 -11.0802 12.709
O -12.7666 -2.90822 2.01222
H -12.6923 -3.33156 1.10931
H -13.2583 -3.52282 2.62907
O 0.396083 -3.62439 11.7112
H 1.24655 -3.91387 11.272
H 0.218661 -4.20251 12.5076
O 1.17956 -4.61331 -14.1561
H 0.716359 -5.01063 -14.9483
H 0.723498 -4.91329 -13.3183
O -13.179 -14.9816 1.82413
H -12.7778 14.9886 0.911433
H -12.4527 -14.8377 2.49633
O 14.9558 -3.5544 -10.5059
H -14.3829 -2.91651 -10.2051
H -14.8687 -3.89412 -11.4196
O 12.9867 -0.500236 -0.603191
H 12.1902 -0.231973 -0.0614047
H 12.6973 -1.10705 -1.34345
O -10.1525 -9.85284 3.84354
H -9.15698 -9.93148 3.89617
H -10.4428 -8.99991 4.27733
O -13.977 4.9191 6.69242
H -13.2432 5.01599 7.36486
H -14.172 3.9488 6.54931
O 8.7439 10.4119 -12.1445
H 8.06273 10.6977 -11.4705
H 9.22983 9.60603 -11.8062
O 2.18485 -11.5401 -10.5576
H 2.257 -10.7418 -9.95976
H 1.22801 -11.8237 -10.621
O 8.02263 -4.64425 4.07817
H 8.90656 -5.11157 4.09387
H 7.30153 -5.28622 4.33867
O -11.9423 -0.726764 -1.00277
H -12.8327 -0.901387 -0.58248
H -11.8663 -1.24932 -1.85197
O 11.6542 11.4073 -2.53379
H 12.1814 11.2588 -3.37044
H 11.1035 10.5958 -2.33836
O -1.78129 -12.6692 5.84902
H -1.60352 -13.6088 5.55636
H -0.916717 -12.1709 5.91317
O -8.64418 3.24823 -0.962335
H -9.21886 4.0227 -1.22675
H -8.41942 2.70782 -1.77315
O -1.80834 -6.1495 -14.6082
H -2.26274 -5.26406 -14.5108
H -1.37336 -6.39794 -13.7427
O -1.60188 8.99814 5.47618
H -2.11646 8.31913 5.99975
H -1.19381 9.66254 6.10229
O 14.2491 14.7695 10.0638
H 14.9696 -14.9009 10.6457
H 14.1817 13.7831 10.2138
O 9.78733 9.32515 2.98943
H 9.251 9.46409 2.15695
H 10.7022 9.00253 2.74658
O -1.01602 14.1435 -0.374418
H -0.547992 13.2598 -0.368433
H -1.7844 14.118 0.265047
O -1.37601 11.9649 4.66249
H -2.07269 11.7344 3.98315
H -1.62137 11.5585 5.54261
O -14.5219 2.74361 12.1569
H 14.9958 2.72818 11.309
H -13.5651 2.53374 11.9557
O 0.313293 3.91077 9.25861
H -0.124096 3.03581 9.4662
H 1.06116 4.07071 9.90288
O 6.59047 -13.4148 -13.0046
H 6.59797 -13.4544 -14.0038
H 5.84144 -12.8265 -12.6999
O 13.0958 -2.17573 -3.25024
H 12.2436 -2.52408 -3.6406
H 13.5386 -1.5658 -3.90741
O -9.3422 -1.34502 12.9166
H -8.58259 -1.77856 13.4013
H -10.106 -1.20905 13.5475
O 3.64577 -9.57778 -12.509
H 3.0311 -8.80985 -12.3289
H 3.26472 -10.1457 -13.2386
O -11.4629 5.01329 3.28903
H -10.5061 5.2712 3.1551
H -11.6328 4.12731 2.85759
O 10.255 -9.05972 8.82011
H 9.71314 -8.57709 9.50818
H 11.1314 -9.33236 9.2171
O -8.11797 -6.01282 -0.912995
H -7.96405 -6.4164 -1.81489
H -8.53703 -6.69238 -0.310863
O 2.74848 -5.7642 -5.44981
H 2.6191 -5.7585 -4.45824
H 3.68672 -6.03745 -5.66196
O 7.31334 -5.39146 -1.35953
H 7.73868 -4.48695 -1.38992
H 7.69978 -5.91618 -0.601038
O -10.9069 7.46183 12.0459
H -11.7231 7.18959 12.5556
H -10.7865 6.8547 11.2605
O -1.22022 5.09844 11.4506
H -0.55757 4.71276 10.8086
H -0.857394 5.94773 11.834
O -3.2908 2.51421 10.3542
H -3.64547 1.83958 9.70688
H -3.62783 3.42266 10.107
O -7.78968 -7.18241 -3.41084
H -8.3135 -6.91051 -4.21809
H -6.81433 -7.04762 -3.58545
O 4.81579 -12.2597 -4.59643
H 4.45897 -11.3268 -4.64448
H 4.08817 -12.8802 -4.30401
O 2.25589 -6.5578 -10.1566
H 1.46052 -7.15994 -10.0875
H 2.2896 -5.95714 -9.35784
O -14.0835 12.8079 6.38607
H -14.8667 12.194 6.2872
H -13.8044 13.1399 5.48504
O 1.20594 11.7876 -8.14588
H 1.67618 11.5172 -7.30581
H 0.385104 12.31 -7.91501
O -8.69714 -6.72388 -5.93734
H -9.57179 -6.3822 -5.59352
H -8.86039 -7.35037 -6.69946
O 13.575 -7.99137 -11.5999
H 13.6173 -7.27804 -12.2994
H 13.9463 -7.63847 -10.7411
O -10.2909 -2.73534 10.8815
H -10.1835 -2.16055 11.6927
H -10.4741 -3.67742 11.1624
O -8.32339 -9.22924 -8.36032
H -9.22614 -8.83524 -8.53286
H -8.32931 -10.1977 -8.60923
O -5.87243 -0.871515 11.5753
H -6.0755 -0.0914775 10.9835
H -6.59168 -1.55947 11.4786
O 3.64996 0.236374 -11.073
H 3.18409 0.983227 -10.5985
H 4.05072 -0.386673 -10.4013
O -8.31864 14.8596 6.74385
H -9.26953 14.5698 6.63511
H -8.2822 -14.1933 6.83959
O 2.53839 -12.7167 9.93944
H 3.28881 -13.3744 9.8739
H 2.27128 -12.6101 10.8972
O 4.30815 -10.3482 12.2727
H 3.62534 -11.0353 12.0242
H 4.23843 -9.56869 11.6503
O -10.8398 -9.33632 -10.0576
H -11.751 -8.94353 -9.93348
H -10.345 -8.81676 -10.7541
O 8.37345 11.3277 1.04635
H 8.80739 11.2153 0.152467
H 8.98925 11.8276 1.6553
O -4.24595 9.74066 -3.14717
H -4.03683 9.23778 -2.30851
H -3.96205 10.6939 -3.04378
O -8.90196 13.9486 0.310409
H -9.6425 13.2806 0.237666
H -9.26981 14.8199 0.635123
O 13.9125 10.8636 6.7504
H 13.476 11.4779 7.40767
H 13.4252 9.99051 6.73563
O -6.69508 10.9417 13.8197
H -6.56407 10.2202 13.1399
H -6.93384 11.7957 13.3576
O -10.493 8.0674 3.3973
H -10.0146 8.01215 4.27371
H -11.2925 7.46707 3.41555
O 8.0245 -7.77835 -13.627
H 8.38259 -7.26654 -14.4079
H 7.19865 -7.33001 -13.285
O -10.777 -13.77 12.7225
H -10.2575 -12.9278 12.8666
H -10.9937 -13.866 11.751
O 9.5602 -13.0014 -13.8577
H 8.7501 -12.6201 -13.4124
H 9.35915 -13.1773 -14.8213
O -12.4436 4.27751 14.2541
H -12.1526 4.78141 -14.9803
H -11.6421 3.89517 13.7943
O -1.461 12.8915 -11.585
H -1.37785 13.8374 -11.8987
H -1.80509 12.8808 -10.6462
O -7.13576 8.21558 -1.93296
H -7.48911 9.04663 -1.50348
H -6.97077 8.38664 -2.9043
O -12.2815 2.74113 1.81359
H -12.9081 3.24832 1.22194
H -11.5861 2.29028 1.25396
O 13.3825 1.42405 -14.5576
H 13.8395 2.2849 -14.3338
H 12.9233 1.51043 14.6059
O 13.0875 11.0286 -4.74181
H 12.2214 10.6985 -5.11723
H 13.503 11.6755 -5.38129
O 9.73706 -7.735 -5.56349
H 9.56825 -8.59847 -6.03878
H 9.26529 -7.74206 -4.68181
O 6.69659 -6.44455 10.8097
H 7.46029 -5.8027 10.7406
H 5.84967 -5.98488 10.5424
O -10.649 -0.0271584 -7.41918
H -10.7232 0.338667 -6.49147
H -10.3794 0.704389 -8.04537
O -3.32463 -9.52156 -13.7916
H -3.82511 -8.65635 -13.7615
H -3.94501 -10.2734 -13.5683
O 11.0164 -7.07908 -12.8993
H 10.0455 -7.22245 -13.0913
H 11.3647 -7.84215 -12.355
O -0.413991 -12.4801 -10.5059
H -0.596916 -13.4618 -10.5581
H -0.683769 -12.0446 -11.3647
O 3.12818 4.60223 -3.07119
H 3.34764 4.49876 -4.0413
H 2.13885 4.69811 -2.96165
O 3.03967 9.38459 10.9749
H 2.41872 10.1547 10.8289
H 3.95012 9.62161 10.636
O 8.90435 -14.0381 13.7038
H 9.54425 -13.4712 13.185
H 9.29675 -14.9484 13.8355
O -3.54735 1.18323 8.02217
H -2.83812 0.670354 7.53852
H -4.44382 0.795326 7.80807
O 5.39125 -6.16916 -5.99966
H 5.9133 -5.31638 -6.01369
H 5.9061 -6.88299 -6.47437
O -12.4779 8.28927 -12.2331
H -12.8358 8.90896 -12.9315
H -11.8578 8.79015 -11.6293
O -9.45741 -11.7846 -3.01642
H -9.36798 -10.935 -3.53619
H -10.3256 -11.782 -2.52029
O 4.70224 -14.0566 -0.0655488
H 5.11091 -14.3937 0.782577
H 5.38454 -14.0791 -0.796256
O 6.17982 -14.6769 2.22268
H 7.16202 -14.8642 2.23621
H 5.68937 14.6089 2.64596
O 0.855585 1.41308 7.01374
H 1.02857 0.434978 6.89818
H 0.126263 1.54556 7.68494
O 2.23065 -2.04562 14.9074
H 1.81021 -2.91222 -14.8714
H 2.46638 -1.52159 -14.3217
O -7.41315 4.78123 12.5214
H -7.54056 4.15244 11.7544
H -6.77155 4.3822 13.1765
O -8.22392 -5.63 12.8578
H -7.56681 -6.31428 13.1739
H -7.73914 -4.79011 12.6138
O -10.7272 1.54886 0.0187945
H -10.8054 0.57184 -0.179426
H -9.83136 1.8787 -0.278884
O 2.16432 2.90548 -10.7281
H 2.68084 3.59235 -10.2168
H 1.98656 3.24217 -11.6527
O -12.7163 -3.87285 9.53854
H -12.1549 -3.53063 8.78504
H -12.2225 -3.75862 10.4006
O -10.0383 -10.7241 12.8672
H -9.10796 -10.7814 13.2294
H -10.0035 -10.5007 11.8931
O -4.27637 -4.27417 7.23527
H -5.23105 -4.43877 7.48322
H -3.89655 -3.56233 7.82602
O -1.62386 7.9833 -9.91129
H -0.794153 8.19126 -9.39331
H -2.4155 8.37851 -9.44537
O -4.94111 -5.56654 -9.19688
H -3.96217 -5.52141 -8.9979
H -5.45001 -5.6772 -8.34321
O 3.55292 -11.7421 0.771818
H 2.5669 -11.5819 0.817249
H 3.72465 -12.6795 0.468899
O 14.7711 7.14405 14.7842
H 14.0112 6.55354 14.5127
H -14.4228 6.78206 14.4097
O 9.22069 9.9043 -8.1403
H 8.51917 10.611 -8.23176
H 10.0833 10.2399 -8.51882
O -7.52814 -0.653964 -12.1722
H -8.33004 -0.59107 -12.7663
H -7.70254 -1.31918 -11.4462
O -12.5457 0.596831 -4.93978
H -12.0428 -0.0378199 -4.35301
H -13.5282 0.465004 -4.80837
O -7.12216 4.06424 -13.3154
H -6.42791 4.05353 -12.5958
H -7.01281 4.88791 -13.8718
O 15.0235 -9.88704 -2.89055
H -14.1012 -9.78886 -3.26268
H 14.5706 -10.6662 -3.32379
O 2.71354 4.39907 -13.1503
H 3.67764 4.58263 -13.342
H 2.35262 3.7647 -13.8338
O 6.12363 2.53068 6.67185
H 6.0065 1.59483 7.00419
H 6.64141 3.06055 7.34351
O -1.74117 3.18395 -14.918
H -1.76593 2.95096 14.1575
H -1.31823 4.08254 -14.8013
O 6.03068 8.24453 -11.6212
H 5.24223 8.81649 -11.8474
H 6.75586 8.81434 -11.2347
O 11.4461 5.86696 7.42892
H 11.8299 5.99292 8.34369
H 10.4621 5.70341 7.49992
O -5.60594 -8.21197 2.15623
H -5.73731 -7.57756 1.39449
H -4.82776 -7.91304 2.70854
O -7.08554 -0.856548 -4.87743
H -7.25191 -0.984893 -5.85509
H -6.23585 -1.31704 -4.62065
O 6.74661 -8.17486 -7.38965
H 6.17008 -8.97821 -7.24061
H 6.93269 -8.07485 -8.36707
O -12.9323 -1.90654 -9.50359
H -12.7917 -1.93059 -8.51384
H -12.0493 -1.814 -9.96361
O 10.2754 7.27565 13.0698
H 10.6413 6.4598 13.5175
H 9.62498 7.72749 13.6804
O 4.33872 -5.05431 -2.19487
H 4.95311 -5.83417 -2.31454
H 4.11594 -4.95118 -1.22549
O 8.56679 -14.9685 -4.93253
H 9.26253 -14.3338 -5.26868
H 9.00794 14.2426 -4.60738
O 5.51288 12.0313 -14.5971
H 5.10334 12.7528 -14.0389
H 5.16362 11.1422 -14.3012
O -10.3746 -2.59637 7.96761
H -11.0032 -1.94835 7.53771
H -10.2197 -2.32947 8.9188
O 10.7444 13.8369 -14.4245
H 10.7301 12.8557 -14.2321
H 10.1654 14.3147 -13.7639
O -11.4222 13.3613 -10.8116
H -12.2062 12.8693 -11.1901
H -11.6557 13.7136 -9.90529
O 3.20017 -11.0935 -14.942
H 3.68478 -10.886 14.2558
H 2.27704 -11.4139 14.8931
O 12.1195 -14.0888 14.7209
H 11.6336 -14.951 14.8638
H 11.6336 -13.5414 14.0396
O -11.6631 11.3121 5.54578
H -10.8049 10.9121 5.86739
H -12.3599 10.5978 5.48013
O 0.761865 -11.2074 1.8399
H 1.41002 -11.0069 2.57452
H 0.29996 -12.0737 2.03019
O 3.50286 -9.73867 -5.87358
H 3.40461 -9.21542 -5.0271
H 2.69001 -9.60949 -6.44153
O -1.81998 14.2204 -3.24477
H -2.39545 13.4157 -3.39104
H -1.34299 14.1344 -2.37009
O 6.39041 4.86352 2.4779
H 6.36453 5.81707 2.17784
H 6.48458 4.82963 3.47287
O 11.5608 -14.7618 2.41522
H 11.6591 14.3854 2.83895
H 11.9418 -14.785 1.49096
O -4.51676 7.00919 -13.1275
H -5.31501 6.59823 -13.5678
H -4.12372 7.70315 -13.7308
O -13.394 12.746 -4.43606
H -13.2579 12.3414 -5.34034
H -13.0781 12.1076 -3.73424
O 11.9571 -2.11856 14.4796
H 12.563 -1.81569 -14.8324
H 11.0169 -2.15921 14.8176
O 14.3428 -6.08215 0.875775
H 13.7294 -6.22985 1.65162
H 14.0106 -6.59705 0.0855248
O 13.2349 -9.75525 -9.37481
H 12.7058 -9.42 -10.1543
H 14.2007 -9.81279 -9.62763
O -12.0105 -10.6183 -15.0133
H -11.6941 -11.3747 -14.4408
H -11.6739 -10.7432 14.101
O -3.06874 5.46111 9.33007
H -2.36756 5.04283 8.75269
H -2.74706 5.49085 10.2764
O -9.47713 13.8976 -4.44523
H -9.88684 13.3278 -3.73289
H -9.7143 14.8555 -4.28333
O 1.24885 13.6004 14.5794
H 1.06832 13.9214 -14.5385
H 0.879486 12.6779 14.4677
O -11.1794 -5.88889 -14.5062
H -11.5837 -5.68733 14.6493
H -11.904 -6.11389 -13.8549
O 14.2523 -4.83525 13.7046
H 13.8888 -4.9056 14.6335
H 13.5049 -4.64643 13.0676
O 3.38442 -9.81134 9.43801
H 4.08751 -9.31042 8.93332
H 3.48813 -10.7916 9.26994
O 9.63405 -11.95 10.1433
H 8.74489 -11.6067 9.84077
H 10.1136 -12.3617 9.36838
O 3.28234 5.33655 5.61953
H 3.29616 4.76455 4.7994
H 4.12238 5.87729 5.66295
O -0.88843 -5.92117 -3.16001
H -0.915147 -6.72481 -3.7545
H 0.0628884 -5.67947 -2.96884
O 10.2998 -6.65294 7.57093
H 10.1071 -6.95592 6.63764
H 10.602 -7.43296 8.11887
O 0.799471 6.64468 6.09112
H 1.14709 7.25183 5.37663
H 1.55541 6.11407 6.4745
O -2.88618 -13.6507 -14.4812
H -3.49702 -13.2381 -13.8055
H -3.19112 -14.5818 -14.6816
O 10.2121 4.14071 9.46453
H 10.6634 5.00619 9.68182
H 10.3539 3.49361 10.2136
O -6.02548 -8.40723 13.0696
H -5.07267 -8.66413 12.908
H -6.57133 -9.2309 13.2232
O 14.7979 -13.1038 3.75383
H 14.7937 -12.2904 4.33556
H 14.2778 -12.9197 2.91976
O 11.9866 -6.38404 -2.89257
H 11.0203 -6.35233 -2.63703
H 12.4967 -6.89958 -2.2041
O 13.3511 -3.50522 1.01854
H 13.8467 -2.74611 1.44062
H 13.9121 -4.33211 1.05739
O 7.50699 2.07689 -10.8993
H 8.37816 1.77695 -10.5106
H 7.02498 2.64854 -10.2353
O 8.32817 -2.18924 1.67446
H 7.95805 -2.01077 2.58613
H 8.73601 -3.10202 1.65313
O -10.9321 13.8922 6.6606
H -11.5985 13.8629 7.40558
H -11.1448 13.1771 5.99477
O -7.9112 -2.55543 -10.0821
H -7.58629 -3.47865 -10.2872
H -7.95521 -2.43011 -9.09095
O 9.027 -5.06501 -14.8579
H 9.09034 -4.0671 -14.8697
H 8.37565 -5.3659 14.4932
O 1.82264 -6.16026 -3.00397
H 2.48176 -5.57435 -2.53253
H 2.17922 -7.09338 -3.04981
O -3.84445 8.09139 -8.17134
H -4.33031 7.93807 -9.03181
H -3.84741 7.24917 -7.63225
O -5.17749 7.48102 13.4753
H -5.26436 7.30265 12.4952
H -4.38295 6.99118 13.8341
O 6.27025 4.91603 5.15682
H 6.27331 5.75452 5.7017
H 6.03873 4.13901 5.74215
O 10.3992 13.7711 -9.77861
H 10.0873 14.2894 -10.5749
H 10.6186 12.8355 -10.055
O -11.7956 5.95908 -5.44479
H -12.3658 6.6275 -5.92242
H -11.4728 5.27127 -6.09491
O 0.324631 6.40571 -1.81795
H 0.482476 7.26756 -2.29989
H 0.454031 6.54431 -0.83611
O 1.76686 -4.4987 5.53224
H 2.24773 -3.80519 6.06869
H 2.38524 -4.87398 4.84178
O -0.485235 -9.06608 14.0607
H -1.21343 -8.95584 14.7371
H 0.400679 -8.90391 14.4952
O 11.4001 -6.83246 -9.61011
H 12.3103 -6.68657 -9.22255
H 11.4667 -7.44957 -10.3942
O 6.9799 -3.7963 -5.50083
H 7.08402 -2.80803 -5.38929
H 7.86464 -4.20061 -5.73262
O -12.8968 7.85505 -7.50131
H -13.1982 8.25409 -8.3673
H -13.4996 7.09559 -7.25665
O 13.9933 11.9547 10.8094
H 14.865 11.5212 11.0381
H 13.5621 12.2969 11.6442
O 11.3805 6.84896 10.0607
H 11.7728 7.74915 9.87157
H 10.9258 6.86391 10.9512
O -9.60682 7.14955 0.771706
H -9.53588 7.82133 0.0343766
H -10.2241 7.4946 1.47874
O 8.42363 -9.38239 6.73182
H 9.08311 -9.29035 7.47787
H 7.85998 -8.55792 6.68159
O 9.86439 -7.31293 11.0914
H 9.56284 -7.59368 12.0026
H 10.8423 -7.49712 10.9925
O 11.6972 -4.99763 11.9428
H 11.8473 -5.73128 11.2801
H 10.8126 -5.12856 12.3903
O -12.7425 -6.17588 -10.022
H -13.4882 -5.74809 -9.51127
H -12.0883 -6.57877 -9.38197
O 8.4791 10.4009 10.5165
H 8.39926 10.3412 9.52149
H 9.10463 11.1432 10.7567
O -8.90043 2.94399 10.7657
H -8.9865 2.42379 9.91605
H -8.45898 2.37648 11.4607
O -10.6145 7.13908 -9.09702
H -10.1863 6.24039 -9.19176
H -11.1994 7.14578 -8.28593
O -13.7461 12.1869 -12.3784
H -14.4638 12.8711 -12.508
H -13.865 11.4492 -13.0429
O 14.0892 12.5475 -6.89149
H 13.5119 13.3013 -7.20543
H 14.8177 12.3861 -7.55713
O -2.67807 7.69498 3.03214
H -1.85674 7.13339 3.13214
H -2.64821 8.44899 3.68831
O 4.98596 -11.6893 6.76049
H 5.86462 -12.0452 7.07878
H 5.00127 -10.6898 6.78841
O 12.6598 8.21182 2.7089
H 13.5352 7.93998 2.30928
H 12.3298 7.48667 3.31323
O 1.35745 -14.6945 -12.8149
H 2.11822 -14.1186 -13.1142
H 1.61604 14.8664 -11.9805
O 14.2758 -5.00286 -4.37815
H 13.6268 -5.16283 -5.12186
H 13.7754 -4.85238 -3.52559
O 5.67504 11.0352 1.83226
H 5.28058 11.1935 2.73741
H 6.49936 11.5912 1.72598
O 5.89201 -5.69212 -12.9357
H 5.51503 -4.81512 -13.2336
H 5.2339 -6.15276 -12.3401
O -12.0029 -6.75927 -2.31783
H -11.6601 -5.8603 -2.59049
H -12.4421 -6.69089 -1.42205
O 9.85721 2.971 2.5217
H 8.9053 3.07778 2.23458
H 9.95245 3.25996 3.47427
O 14.1695 -7.74358 13.667
H 14.3664 -6.76317 13.6624
H -15.0195 -8.25584 13.689
O -2.07875 -5.09819 -5.7814
H -1.71144 -5.45019 -4.9205
H -1.51527 -4.33466 -6.09678
O 13.4246 9.81349 -8.12956
H 13.0473 9.56106 -7.23854
H 14.3395 10.1981 -8.0073
O -4.5695 -1.8015 -4.21725
H -4.25486 -1.58968 -3.29199
H -4.2679 -1.08341 -4.84443
O 6.19852 6.17965 -7.09862
H 7.1429 6.46753 -7.25751
H 6.1563 5.61551 -6.27403
O -9.05384 -6.70953 6.82945
H -8.45518 -7.49628 6.97978
H -9.67104 -6.60649 7.60947
O 8.85457 8.23455 -14.5951
H 9.78547 7.98852 -14.3251
H 8.23401 8.08612 -13.8251
O 8.53312 13.0416 13.2652
H 7.59093 13.1863 12.963
H 8.53856 12.8 14.2355
O -4.56165 -4.37846 -5.39893
H -3.59386 -4.51729 -5.6089
H -4.67755 -3.50736 -4.92172
O -9.59487 6.60566 -3.59726
H -10.2833 6.48494 -4.31242
H -9.56739 7.56598 -3.31977
O 10.9337 -11.5994 1.35232
H 10.1149 -11.7743 0.805463
H 10.8569 -12.0748 2.22874
O 12.3152 -12.1959 -9.20746
H 11.7542 -11.9531 -9.9988
H 12.4708 -11.3824 -8.64702
O -5.31316 11.1564 -13.5447
H -5.96628 11.8496 -13.24
H -5.65087 10.7251 -14.3813
O -4.24 -0.0655346 -6.33909
H -4.82876 0.43249 -6.97573
H -3.32976 -0.170673 -6.73958
O 5.05324 -3.04542 -13.4135
H 5.19744 -2.5618 -14.2768
H 4.17377 -2.77422 -13.0224
O -7.41632 -6.83224 -9.52895
H -6.45741 -6.56416 -9.62173
H -7.48321 -7.62788 -8.9269
O 9.69916 6.86138 -4.41408
H 9.05095 7.54421 -4.07713
H 10.5342 6.89503 -3.86499
O -5.1772 9.06837 8.06246
H -5.36638 9.07921 9.04432
H -5.98155 8.73345 7.57171
O -3.29151 4.30231 5.53445
H -2.44814 4.41824 6.05909
H -3.59231 5.19023 5.18648
O 5.45576 -11.1746 -7.24948
H 4.77732 -10.6586 -6.72664
H 5.53675 -12.0969 -6.87154
O -12.5681 -13.0258 3.8626
H -12.291 -12.3039 3.22852
H -13.5508 -13.1885 3.77353
O -5.11892 -1.86664 -11.9685
H -5.92873 -1.34501 -12.2369
H -4.30266 -1.30261 -12.0932
O 10.8489 -11.0994 5.91683
H 11.3677 -11.5523 6.64193
H 9.97967 -10.7696 6.28506
O 13.6133 8.36213 -13.1017
H 12.6784 8.00753 -13.0848
H 14.1231 7.92289 -13.8414
O 6.77359 -1.53065 3.92087
H 7.16052 -0.678851 4.274
H 5.95124 -1.76358 4.43996
O 2.15603 2.51549 -15.0209
H 2.05028 1.74066 -14.3977
H 1.6835 2.3191 14.1675
O 4.26203 -4.91039 11.6505
H 3.88564 -4.14786 11.1243
H 5.05402 -4.59561 12.1736
O 7.94057 -9.29586 11.5826
H 7.5261 -8.41654 11.3482
H 7.68849 -9.97701 10.8953
O 2.17268 13.5556 12.0827
H 1.90446 13.7378 13.0287
H 1.71063 14.2015 11.475
O 6.04256 -10.2625 0.015249
H 5.29474 -10.7636 0.450719
H 5.78773 -9.30028 -0.0805389
O 12.7177 3.16999 10.4928
H 12.7689 2.18475 10.3295
H 12.7771 3.65585 9.6208
O 13.7895 -10.605 4.88751
H 12.8893 -10.9994 5.07242
H 14.0147 -9.93994 5.59951
O 13.7889 -9.01808 7.08265
H 13.9135 -8.36268 7.82756
H 13.3543 -9.84624 7.43657
O 14.4169 -2.471 -6.24575
H 14.3254 -1.73797 -6.91973
H 13.6823 -3.13694 -6.37569
O 7.07873 14.9685 -9.58034
H 6.5883 -14.2246 -9.75172
H 7.61589 14.7248 -10.3878
O 2.07774 6.57014 -7.63224
H 1.13104 6.88869 -7.58486
H 2.4855 6.86419 -8.49667
O 14.0699 -0.150291 11.0246
H 13.4349 -0.922706 11.0148
H 15.0048 -0.485962 10.9098
O 7.38072 12.5548 -7.56286
H 8.05508 13.2744 -7.39758
H 6.63629 12.9179 -8.12317
O 7.81596 -6.44942 1.17571
H 8.51026 -6.70168 1.84971
H 7.22955 -5.73289 1.55346
O 1.08447 11.2946 10.7874
H 1.48498 11.9922 11.3815
H 0.0897799 11.3005 10.89
O 5.49326 -11.9795 2.91301
H 5.68233 -12.9167 2.62011
H 4.79365 -11.5799 2.32069
O -10.7172 -7.14823 4.48326
H -9.89267 -6.93784 5.00841
H -11.4506 -7.41681 5.10774
O -2.12551 1.81368 12.6997
H -2.38171 2.28708 11.8569
H -2.7098 1.01146 12.8222
O -5.52808 -6.54986 -0.0756981
H -6.41738 -6.12683 -0.249375
H -4.84129 -6.14056 -0.67633
O 11.2546 11.1997 -13.7375
H 11.9279 11.0464 -13.0142
H 10.4997 10.5523 -13.6329
O 8.91638 -11.0397 -11.0101
H 8.4985 -10.9749 -11.9163
H 8.21875 -11.2888 -10.3384
O 12.0297 -10.8337 -2.66943
H 11.2337 -10.6271 -3.23835
H 11.9931 -10.2861 -1.83351
O -1.83083 -6.78889 1.39371
H -1.0831 -7.43115 1.22522
H -2.36708 -7.10008 2.17828
O -12.8917 4.51707 -1.20652
H -12.8941 3.52301 -1.31516
H -11.9502 4.83943 -1.10873
O 3.77532 -14.0616 7.07054
H 4.03797 -13.0985 7.01182
H 3.7764 -14.3496 8.02815
O 12.8361 -4.88389 -13.6537
H 12.0222 -5.3448 -13.3
H 12.749 -3.89789 -13.5117
O -0.631739 9.67904 -5.65952
H -0.944703 9.17357 -4.85545
H -0.00767545 10.4063 -5.37393
O -9.15258 -3.81206 3.15501
H -9.3574 -4.72588 2.80436
H -9.6021 -3.68589 4.03931
O -6.35263 -5.7029 -6.87216
H -7.23298 -5.84224 -6.41878
H -5.76276 -5.14337 -6.28996
O 6.1796 4.32637 -5.06146
H 6.89716 4.4984 -4.38656
H 5.73698 3.45217 -4.8619
O 2.61431 -6.63362 -12.7403
H 2.22973 -5.88633 -13.2822
H 2.62625 -6.37341 -11.7748
O 1.12795 -8.03981 -6.62866
H 0.167656 -8.21174 -6.40901
H 1.59995 -7.69888 -5.81567
O -5.24664 -12.3213 7.58185
H -5.57775 -11.7815 6.80791
H -5.21261 -13.287 7.32445
O 12.421 2.86491 -8.12275
H 13.1985 2.65586 -7.5296
H 11.6607 3.20398 -7.56867
O -5.7285 -11.0037 -10.9143
H -6.26782 -11.3958 -10.1691
H -6.34074 -10.6947 -11.6421
O 5.53542 -7.61818 -0.337789
H 6.40255 -7.63244 0.160059
H 5.70229 -7.36494 -1.29068
O -5.29564 6.64094 3.94858
H -5.64483 5.98455 3.27986
H -4.43307 7.02515 3.61945
O 12.851 3.99825 -3.95395
H 12.3552 3.91435 -3.08958
H 12.7627 4.93247 -4.29952
O -7.78242 -7.90018 -13.9243
H -8.19086 -7.33353 -14.6398
H -8.12122 -8.83736 -14.0072
O -0.281761 -14.1411 13.4514
H -0.893233 -14.3475 12.6875
H -0.210359 -14.9413 14.0468
O 12.4041 4.86153 -12.443
H 12.1956 3.89828 -12.6123
H 12.9425 5.22461 -13.2034
O -6.11849 1.43527 10.0876
H -6.46345 1.48353 11.0249
H -5.98077 2.36086 9.73504
O -9.43452 12.1861 8.35525
H -9.90266 12.7449 7.67071
H -9.46059 12.6516 9.23992
O -10.6949 -4.09366 5.7044
H -10.6772 -5.09247 5.7494
H -10.2201 -3.71573 6.49919
O -5.95201 -8.9982 -6.09297
H -5.85405 -9.5487 -5.26393
H -6.64956 -8.29675 -5.94681
O -5.20523 -7.4079 -13.0947
H -5.05684 -6.49868 -12.7057
H -6.17426 -7.52285 -13.3132
O 10.3974 -3.85975 0.577738
H 10.2797 -3.23141 -0.191241
H 11.2772 -3.68476 1.01957
O 0.203732 -8.07807 -10.4539
H 0.672736 -8.87101 -10.0649
H -0.755273 -8.08604 -10.1706
O 8.53278 14.6629 -11.9772
H 8.17755 13.8608 -12.4573
H 8.17098 -14.5548 -12.4018
O 10.2032 -2.53786 5.03425
H 9.28481 -2.46846 4.64472
H 10.8189 -1.91701 4.54899
O -8.28233 10.686 -0.96487
H -8.66604 11.3368 -1.62004
H -8.30072 11.0857 -0.0484068
O -13.0148 3.85755 -9.69931
H -13.1572 2.87033 -9.77063
H -13.8851 4.33059 -9.83663
O -7.35442 2.86144 1.40183
H -7.79539 3.07612 0.530372
H -6.62835 3.52542 1.58046
O -5.00454 -6.25251 -3.32273
H -4.15229 -6.55073 -2.89294
H -4.79714 -5.63151 -4.07859
O 7.67669 -6.81104 13.5273
H 7.04312 -7.50459 13.8701
H 7.2795 -6.36379 12.7259
O 12.6069 6.76314 -4.25892
H 12.2632 7.4584 -4.89015
H 12.5737 7.11624 -3.32394
O -10.8832 -5.38306 -5.00322
H -11.8792 -5.29946 -5.03545
H -10.4895 -4.53937 -4.6383
O -2.46965 -9.96592 5.9432
H -2.42653 -10.9593 6.04917
H -1.70197 -9.65698 5.38178
O -3.34365 -7.36482 3.72309
H -2.6373 -6.6872 3.92771
H -3.7577 -7.68265 4.57604
O 4.6976 -1.3084 5.94781
H 3.90953 -1.68058 6.43811
H 5.37528 -0.980646 6.60605
O -0.586767 9.3592 -0.815855
H -0.875064 10.2371 -0.433646
H -1.26927 8.66116 -0.599305
O -12.9923 -8.92249 6.12181
H -12.8545 -9.88481 6.35614
H -13.8783 -8.81276 5.67123
O -2.01439 -5.72189 5.88441
H -1.35376 -5.80974 6.62995
H -2.78001 -5.15207 6.18292
O -11.6559 -11.2248 1.93496
H -11.4866 -10.7244 1.08586
H -11.1049 -10.8298 2.67006
O 1.33815 14.8632 -7.15862
H 1.79815 -14.3674 -7.50637
H 1.08862 15.0036 -6.2005
O -10.4431 5.50039 10.1903
H -9.83438 4.73613 10.403
H -11.0571 5.24002 9.44508
O -7.01339 -14.8724 -1.63568
H -6.3311 14.5634 -1.23548
H -7.92229 14.9241 -1.30271
O 3.96968 -8.50891 1.92149
H 4.15619 -8.4853 0.939335
H 4.78076 -8.83504 2.40703
O 6.59194 1.28516 -6.93494
H 6.67062 2.15738 -7.41766
H 7.35668 0.693218 -7.1894
O -13.9225 -14.0778 11.904
H -13.5585 -14.5358 12.715
H -14.3172 -13.1975 12.1673
O 1.87758 12.9294 -10.7465
H 1.71352 12.3448 -11.5411
H 1.35973 12.5823 -9.96468
O 1.50906 11.9178 3.92321
H 1.80442 11.066 4.35569
H 0.521234 12.0242 4.03661
O 2.03596 9.08173 -1.74043
H 2.70872 9.36428 -1.05667
H 1.11749 9.14398 -1.34991
O -10.9003 -11.1471 8.90582
H -10.561 -10.3243 9.36183
H -11.0194 -11.8765 9.57948
O -0.527815 5.82896 -14.4108
H 0.472104 5.83928 -14.4057
H -0.868361 6.07565 -13.5036
O -13.0911 -7.34631 0.261589
H -13.9036 -7.87871 0.499024
H -12.589 -7.11492 1.09485
O -7.42374 -9.77575 3.15914
H -7.85754 -9.41978 2.33145
H -6.56579 -9.28845 3.32174
O 7.68996 -8.11607 -10.3563
H 6.96963 -8.58192 -10.8702
H 8.39321 -7.79071 -10.9884
O 0.327537 -10.057 -3.49518
H 1.07352 -10.6666 -3.2272
H -0.313232 -9.95958 -2.73366
O -13.5336 -5.99919 2.90753
H -14.0301 -6.2 3.75199
H -14.1687 -6.01638 2.13531
O -6.53655 10.1001 4.24894
H -6.55998 9.29731 4.84466
H -6.91808 9.86343 3.35543
O -13.2635 7.09349 -1.5269
H -13.1741 6.14102 -1.23572
H -13.7604 7.13174 -2.39387
O 2.99205 -13.0675 -8.26635
H 2.83554 -12.5821 -9.12646
H 3.38056 -12.4375 -7.59393
O 0.590553 5.24395 -4.15038
H 0.298173 5.62755 -3.2744
H -0.0369388 5.54065 -4.87024
O -1.1995 -1.10135 10.2347
H -0.934682 -1.23432 11.1898
H -1.07181 -1.95592 9.73134
O -7.03127 0.0993188 1.67321
H -6.04657 -0.0262936 1.79385
H -7.25485 1.07117 1.74725
O 14.6345 -3.92846 10.0501
H -14.4953 -3.58817 9.8456
H 14.2697 -3.44569 10.8463
O 5.19529 7.42146 6.32884
H 6.06824 7.72735 5.94891
H 4.60963 8.21402 6.49858
O 1.6086 11.7854 -2.54893
H 1.78004 10.954 -2.02044
H 2.11862 12.5464 -2.14792
O 9.09944 -1.04962 -12.6244
H 8.3096 -1.44224 -12.1533
H 9.67155 -0.561097 -11.9656
O -3.5224 13.821 7.57657
H -3.7629 12.9022 7.26365
H -2.88297 14.2367 6.92978
O -10.7995 -5.41532 11.5177
H -10.001 -5.37505 12.1183
H -11.5166 -5.95991 11.9527
O 6.09222 1.14958 14.3246
H 6.11547 1.24459 -14.7278
H 5.54992 1.8921 13.9315
O -12.5729 -11.857 -1.93411
H -13.266 -12.5725 -2.02123
H -12.5734 -11.2904 -2.75807
O -6.34719 0.333032 14.6483
H -5.57824 0.515648 -14.7867
H -6.52343 -0.650856 14.6187
O 4.19491 10.4647 -9.37268
H 4.60497 10.1569 -8.51412
H 3.34928 10.9619 -9.17876
O -9.41415 12.2924 11.1192
H -10.0529 12.6773 11.7854
H -9.31739 11.31 11.2792
O -13.5567 -1.64724 -13.5717
H -14.5103 -1.46889 -13.3292
H -13.3561 -2.61842 -13.4431
O -1.6943 8.92651 9.50013
H -1.11068 8.26645 9.02719
H -2.63495 8.83361 9.17376
O 9.25013 12.7118 -2.95822
H 8.70191 11.8756 -2.97648
H 10.2124 12.4765 -2.82179
O 9.21756 -10.7982 -4.14895
H 8.75912 -11.6427 -3.87219
H 8.80996 -10.4603 -4.99727
O -9.24354 10.0587 -12.6483
H -8.91214 10.9613 -12.3735
H -9.68092 9.61231 -11.8676
O -8.43347 -13.799 -13.5346
H -7.70334 -14.2791 -13.0484
H -8.20523 -13.7419 -14.5065
O 13.9673 -9.47431 2.3191
H 14.4107 -9.97364 1.57476
H 13.938 -10.0504 3.13593
O 12.9412 -11.577 7.86318
H 12.2321 -12.2558 8.05427
H 13.8403 -12.012 7.91055
O 10.656 -5.28371 4.09431
H 11.4357 -5.43167 3.48592
H 10.7112 -4.36698 4.48994
O 10.1652 -2.52851 -4.26027
H 10.2862 -1.8199 -4.9554
H 10.0098 -3.4099 -4.70632
O 7.44998 14.5588 10.0529
H 7.1179 14.4364 10.9882
H 6.83288 14.0955 9.41683
O 0.0521524 7.28934 8.4597
H 0.0996263 7.16699 7.46836
H 0.971955 7.442 8.82112
O -13.3015 -8.59795 13.446
H -13.2325 -9.10223 12.5852
H -12.6118 -8.93576 14.0864
O 14.2667 -4.44734 5.81309
H 13.3367 -4.09364 5.91269
H 14.9179 -3.68974 5.85704
O 6.1368 14.5164 12.2914
H 5.7408 -14.6336 12.4849
H 5.44103 13.8101 12.4217
O -9.77625 10.7757 14.8249
H -9.51249 10.6894 -14.262
H -9.02497 11.1867 14.3086
O -4.95245 13.8767 -14.6261
H -4.0961 13.3664 -14.5478
H -5.17925 14.001 14.4555
O -10.8874 4.34102 -7.59495
H -11.7652 4.74654 -7.84997
H -10.7664 3.47545 -8.08086
O 6.2944 3.63529 -8.68774
H 6.30429 4.53369 -8.24872
H 5.40505 3.20232 -8.54089
O -13.1902 -9.75642 10.9281
H -13.2706 -9.16555 10.1253
H -12.5808 -10.5212 10.7193
O 12.0466 -11.8239 -12.8204
H 12.6244 -12.5611 -12.4701
H 11.1576 -12.1956 -13.0876
O 9.09136 7.86632 0.694737
H 8.34487 7.20991 0.58593
H 9.96618 7.40223 0.55589
O -10.8181 11.5102 0.642654
H -11.3607 10.7637 0.257458
H -10.485 11.2473 1.54812
O 7.32759 7.76419 10.0374
H 7.31209 8.35513 10.844
H 6.40585 7.42012 9.85858
O -1.29547 -4.0571 -9.77542
H -1.70932 -3.19607 -9.47992
H -1.69711 -4.81411 -9.26005
O 10.1148 14.8701 9.88774
H 9.15526 15.0045 10.135
H 10.4415 14.0085 10.2761
O -2.28158 -14.3373 10.9999
H -2.3905 -13.8603 10.1278
H -2.6718 14.7924 10.9288
O -10.4617 -6.2951 1.83609
H -10.907 -6.61088 2.67393
H -9.58171 -6.75832 1.7314
O 12.1942 -10.0896 10.8882
H 12.441 -10.9453 10.4334
H 11.6552 -10.2903 11.7062
O 14.3972 -15.0028 0.773173
H -14.7699 14.9129 1.22844
H 14.1027 -14.0538 0.885555
O -7.08303 -12.7411 -3.55133
H -6.94948 -13.6423 -3.13912
H -8.00076 -12.4082 -3.33474
O 6.51125 11.3259 -10.7216
H 6.05709 11.652 -11.5507
H 5.82373 11.0167 -10.0646
O 10.7502 -4.02241 -10.1677
H 10.5437 -4.08447 -11.1441
H 11.2761 -4.82516 -9.88654
O 9.59358 1.24971 -1.59583
H 8.84887 1.91016 -1.6917
H 9.22123 0.366622 -1.3104
O 11.2108 7.27498 -13.3939
H 10.9509 6.78212 -12.5635
H 11.1978 6.64705 -14.1721
O -8.67376 12.5156 -11.2261
H -8.24474 13.3627 -11.5395
H -9.648 12.6746 -11.0663
O -14.0508 1.08551 -9.80537
H -14.0005 1.273 -10.7863
H -13.7397 0.151815 -9.62811
O -2.72636 -7.74502 10.1382
H -3.41099 -7.33542 10.7411
H -3.1793 -8.34449 9.47826
O 0.181913 -8.84091 0.61503
H -0.2992 -8.95211 -0.254531
H 0.258547 -9.7284 1.06942
O 3.47673 0.995244 -5.41129
H 3.94362 1.1821 -4.54696
H 3.7234 0.0809399 -5.7325
O 14.759 -1.83543 2.84524
H 14.9951 -2.17076 3.75727
H -14.5136 -1.97346 2.22845
O 6.59981 -11.8924 -9.53591
H 6.19598 -11.5832 -8.67493
H 6.33813 -11.2665 -10.2706
O -4.23136 -12.9527 4.36871
H -3.38141 -12.8945 4.89232
H -4.95602 -13.3233 4.94967
O 13.5927 12.4082 3.17763
H 14.3197 13.0598 3.39431
H 13.9053 11.787 2.45907
O -9.53851 -14.3077 -10.2285
H -10.2955 -14.8477 -10.5963
H -9.14606 -14.7788 -9.43851
O -13.238 1.65471 9.044
H -13.3085 0.833254 9.60988
H -14.1171 1.83081 8.6011
O -2.41857 -11.7865 -2.76086
H -2.77416 -10.8829 -2.52207
H -2.62492 -11.9833 -3.71933
O 7.97723 4.46504 7.58404
H 8.59115 4.0941 8.28081
H 8.1208 5.45146 7.50434
O 2.25689 6.21979 12.8813
H 2.64288 6.55777 13.7396
H 2.11824 6.98585 12.2537
O -14.9133 0.325841 -3.71027
H 14.3347 0.733662 -3.26961