LAMMPS (15 May 2015)
Reading data file ...
  orthogonal box = (-14.9458 -14.9458 -14.9458) to (14.9458 14.9458 14.9458)
  2 by 2 by 5 MPI processor grid
  reading atoms ...
  2611 atoms
  reading velocities ...
  2611 velocities
  scanning bonds ...
  3 = max bonds/atom
  scanning angles ...
  3 = max angles/atom
  scanning dihedrals ...
  8 = max dihedrals/atom
  scanning impropers ...
  1 = max impropers/atom
  reading bonds ...
  1749 bonds
  reading angles ...
  894 angles
  reading dihedrals ...
  44 dihedrals
  reading impropers ...
  10 impropers
Finding 1-2 1-3 1-4 neighbors ...
 Special bond factors lj:   0          0          0         
 Special bond factors coul: 0          0          0         
  4 = max # of 1-2 neighbors
  8 = max # of 1-3 neighbors
  20 = max # of 1-4 neighbors
  16 = max # of special neighbors
2611 atoms in group all
2592 atoms in group water
19 atoms in group naph
864 atoms in group O
1728 atoms in group H
8 atoms in group C
8 atoms in group He
2 atoms in group S
1 atoms in group Na
Setting atom values ...
  864 settings made for charge
Setting atom values ...
  1728 settings made for charge
Setting atom values ...
  2 settings made for charge
Setting atom values ...
  8 settings made for charge
Setting atom values ...
  8 settings made for charge
Setting atom values ...
  1 settings made for charge
Finding 1-2 1-3 1-4 neighbors ...
 Special bond factors lj:   0          0          0.5       
 Special bond factors coul: 0          0          0.5       
  4 = max # of 1-2 neighbors
  8 = max # of 1-3 neighbors
  20 = max # of 1-4 neighbors
  16 = max # of special neighbors
Finding SHAKE clusters ...
  0 = # of size 2 clusters
  0 = # of size 3 clusters
  0 = # of size 4 clusters
  864 = # of frozen angles
PPPM initialization ...
  G vector (1/distance) = 0.249226
  grid = 20 20 20
  stencil order = 5
  estimated absolute RMS force accuracy = 0.00369209
  estimated relative force accuracy = 1.11186e-05
  using double precision FFTs
  3d grid and FFT values/proc = 3179 400
Neighbor list info ...
  6 neighbor list requests
  update every 1 steps, delay 0 steps, check yes
  master list distance cutoff = 14
Setting up run ...
Memory usage per processor = 14.9131 Mbytes
Step Temp PotEng Density E_vdwl E_tail E_coul E_long ljcoul born water naph Press Volume 14[1] 14[2] 14[3] msd[4] msd2[4] msd3[4] msd4[4] Lx Ly Lz E_mol E_bond E_angle E_dihed Cella Cellb Cellc 
       0    296.31967   -8547.8199   0.97644921    1492.0931    -21.58751    30625.925   -40673.992    32087.645    51.960752   -8583.3279    57.095439    223.77562    26708.402   -2.2046001   -1.7783688   -2.1075357 2.8907779e-30 2.6249037e-30 2.911968e-30 3.4330058e-30     29.89161     29.89161     29.89161    8.1538225    2.6095331    1.1212219    4.2831951     29.89161     29.89161     29.89161 
   10000    296.10348   -8465.4867   0.95743019    1396.5688   -21.167034    30794.369   -40672.678    32183.496    28.608291   -8480.7284    36.408723   -295.36451    27238.955   -2.8600025   -1.4694792   -2.3764037    14.179821    13.597307    14.160817    13.570204    30.088242    30.088242    30.088242    16.253423    6.2553069    4.6939353     4.476524    30.088242    30.088242    30.088242 
   20000    306.19278   -8542.1079   0.94805616    1503.8589   -20.959791    30611.327   -40674.455    32120.775    15.370415   -8551.1864    30.038268    61.552273    27508.284   -2.7167474   -1.2410196   -2.4880588    27.291781    26.618026    27.439195    26.754429    30.187084    30.187084    30.187084    17.161265    8.7639905    4.4698234     3.363038    30.187084    30.187084    30.187084 
   30000    294.88449   -8413.4695   0.94216171    1445.1058   -20.829476    30801.736   -40675.635    32245.993    21.677922   -8424.3954    31.755442    23.485476    27680.384   -1.8671783   -0.3438835   -2.4975664    42.212226    39.963073    42.472429    40.200276    30.249907    30.249907    30.249907    15.323566    7.0755902    3.0499229    4.6723338    30.249907    30.249907    30.249907 
   40000     305.4886   -8530.4271   0.95967566    1463.6326   -21.216677      30661.1   -40672.313    32125.914    20.035229    -8542.023     32.81251    47.559306    27175.221  -0.94541492   0.99415898   -2.7618497    60.855222    51.255866     61.15962    51.482063    30.064757    30.064757    30.064757    17.152611    6.1163616    4.2399777    5.6040755    30.064757    30.064757    30.064757 
   50000    294.80393   -8600.2953   0.97227762    1530.1417   -21.495284    30529.635   -40673.795    32058.244     23.02801   -8610.2739    31.473871    554.02305    26822.995  -0.05343166    2.1701258   -3.3715011    85.015523    63.357795     85.49819    63.606533    29.934299    29.934299    29.934299    13.723884    5.8431192    4.6222844    2.7909874    29.934299    29.934299    29.934299 
   60000    292.71085   -8562.6522   0.95861826    1512.1466     -21.1933    30587.183   -40675.221    32105.742    14.780223   -8568.7763    27.317439    383.33484    27205.196   0.69727321     2.971434   -3.7372995    112.56923    78.821006    113.22616    79.057008    30.075807    30.075807    30.075807    13.239341    4.9803348    3.5430094     4.333016    30.075807    30.075807    30.075807 
   70000    300.41622   -8561.8888   0.94240591    1578.9381   -20.834875    30519.991   -40675.247    32095.929    23.835282   -8572.9683    31.914337    634.88144    27673.211    1.0290489     3.843474   -3.5033296    136.30888    92.415205    137.24444    92.787571    30.247293    30.247293    30.247293    14.428288    4.4174689     6.238563    3.1647192    30.247293    30.247293    30.247293 
   80000    306.53494   -8572.6303   0.94983223    1495.6807   -20.999057    30592.075   -40674.659    32089.935     18.81909    -8582.266     30.63477    35.394893    27456.846    1.0641223    4.2528651   -3.1447241    156.15718    108.27668    157.21942    108.73158    30.168257    30.168257    30.168257    14.272797    6.8839905    3.9006834    3.1102468    30.168257    30.168257    30.168257 
   90000    304.47527   -8534.6157   0.94591291    1433.7836   -20.912408    30684.517   -40673.481    32124.654    14.558748   -8548.9057    35.202384   -296.69556    27570.612   0.31591993    4.1088924   -2.6903821    160.32132    119.07714    161.37037    119.65236    30.209866    30.209866    30.209866    20.565504    10.900224    3.8115646    5.2033092    30.209866    30.209866    30.209866 
  100000    300.46417   -8560.0442   0.95432986     1429.673   -21.098491    30668.419   -40676.604    32101.357    17.833125    -8572.643    33.697287   -452.66794    27327.446   -1.0498426    3.3301239   -2.0223412    158.42733    131.44273    159.41841    132.05966    30.120789    30.120789    30.120789    18.468038    6.9923516    5.2944981     5.161248    30.120789    30.120789    30.120789 
  110000    297.68808   -8546.0118    0.9492418    1466.3646   -20.986004    30647.806   -40673.754    32113.244     21.91321   -8554.6619    29.636123   -264.71219    27473.925   -2.2450883    2.8374418    -1.698074    159.82493    138.72586    160.85481    139.42655    30.174511    30.174511    30.174511    13.571091    4.9564991    5.1605049    2.9755106    30.174511    30.174511    30.174511 
  120000    292.34783   -8550.9449   0.96816906    1585.3609   -21.404451    30521.019   -40670.729    32100.467    27.317617   -8563.5652    34.024757    1048.0071    26936.822   -3.2035143    3.0314982   -1.6219766    171.56599    147.42008    172.74336    148.25602    29.976583    29.976583    29.976583    13.404329    6.3674262    4.5110056     2.104111    29.976583    29.976583    29.976583 
  130000    293.52731   -8444.3991   0.93653042    1482.2646   -20.704978    30731.085   -40672.955    32212.981    21.074017   -8456.2344    32.540317    74.635478    27846.824   -3.5760007    3.9161129      -2.2458    194.23693    160.14818    195.51861    160.90655    30.310416    30.310416    30.310416    15.205887    7.0264425    3.7473539    3.7501927    30.310416    30.310416    30.310416 
  140000    302.23486   -8448.4031   0.95041675    1449.0586    -21.01198    30755.753   -40673.253    32199.555    26.268906   -8463.9515    36.560304   -302.99771     27439.96   -3.7272062    4.9291721   -2.7511568    217.95464    170.36798    219.41041    171.17994    30.162071    30.162071    30.162071    20.038643    11.685119    4.0905898    3.4712998    30.162071    30.162071    30.162071 
  150000    300.40214    -8421.472   0.93729416    1408.0743   -20.721863    30826.128   -40671.518    32232.808    22.116505   -8435.1339    34.383747   -229.59214    27824.134     -3.60879    5.6550416   -2.9054069    244.97765    187.18538    246.69848    188.18683    30.302181    30.302181    30.302181    15.843568    5.0420693    5.7189838    4.1552452    30.302181    30.302181    30.302181 
  160000    304.44242   -8566.6036   0.95863597    1453.6305   -21.193692    30634.059   -40672.338    32089.732    19.150594   -8579.1607    33.750769   -85.294817    27204.693   -2.9986842     6.029759   -2.9732355    262.21875    199.80725    264.04947     200.7229    30.075622    30.075622    30.075622    18.044951    8.8250444     3.444468    5.0266367    30.075622    30.075622    30.075622 
  170000    294.68453   -8574.3792    0.9416971    1537.6534   -20.819204    30550.191   -40676.204    32093.196    15.468039   -8581.8959    28.335943    206.30668    27694.041   -1.3408814    6.0986375   -3.5120945    276.06245    211.03934    277.94105    211.92838    30.254881    30.254881    30.254881     13.98015    7.8518421    3.4585179    2.1608465    30.254881    30.254881    30.254881 
  180000     293.4917   -8501.6059   0.94229414    1473.9587   -20.832404    30688.396   -40679.662    32157.136    26.051508   -8515.7769    35.003423   -217.12444    27676.494   0.53069078    6.0705288   -3.6446557    297.87347    226.46482    299.93275    227.49662    30.248489    30.248489    30.248489     15.70136    6.3311576    2.8762163    6.0106197    30.248489    30.248489    30.248489 
  190000    301.58011   -8540.9899   0.96359343      1438.94   -21.303292    30677.808   -40673.255    32111.489    26.562384   -8553.5857    33.899072   -84.347044    27064.732    2.1964272    6.2508261   -3.7764551    323.94655    237.43207    326.24077    238.52233    30.023956    30.023956    30.023956    15.516488    6.9285661    3.1602428    4.7731715    30.023956    30.023956    30.023956 
  200000     276.9426   -8565.1009   0.94235038    1455.8935   -20.833647    30636.605   -40672.021    32087.829    25.503878   -8576.9312    32.663912   -597.91684    27674.842    3.4661123    6.4322091   -4.9530869    359.91358    252.07114    362.44979    253.19307    30.247887    30.247887    30.247887    14.421396    4.8402269    4.5806958    4.1752632    30.247887    30.247887    30.247887 
  210000    306.35145   -8500.7043   0.92958685    1418.6157   -20.551469    30742.146   -40673.107    32170.104    11.209604   -8505.3478       25.195   -516.58518    28054.826    4.1902639    6.1801051   -6.2340165     384.5437    263.34216    387.33144     264.3396    30.385696    30.385696    30.385696    11.640624    4.5343904    4.1697996    2.6677233    30.385696    30.385696    30.385696 
  220000    289.46596   -8645.9276   0.94643912    1677.2936   -20.924042    30334.987   -40676.532    32015.727    17.477622   -8658.2136    33.210076    1084.9256    27555.283    5.0207723    6.3653327   -6.5270073    406.94519    268.45465    409.82838    269.24284    30.204266    30.204266    30.204266    18.324388    7.8352681    2.8111268     6.215965    30.204266    30.204266    30.204266 
  230000    290.94352   -8452.4479   0.92730312    1350.9579    -20.50098    30851.132   -40669.687    32206.536    16.054997   -8461.9739    30.026958   -934.29701    28123.919    7.0530902    6.2641686   -6.5233245    457.43082    287.28124    460.64203    288.12786     30.41062     30.41062     30.41062    15.148912    4.7946283     3.480508    6.3698064     30.41062     30.41062     30.41062 
  240000    290.96904   -8539.6548   0.95433953    1499.7077   -21.098705    30624.014   -40677.193     32122.55    22.270294   -8548.7319    30.175866    22.391976    27327.169    7.9751576     5.911844   -6.5876039    477.22838     294.0894    480.68732    295.11117    30.120688    30.120688    30.120688    13.817029    5.7620868    4.4275764    3.1393681    30.120688    30.120688    30.120688 
  250000     297.8719   -8534.4428   0.95098715    1428.8829    -21.02459    30696.533   -40674.364    32121.507     24.93319   -8547.8812    34.462986    -418.3444    27423.502    7.7952181    6.3349794   -7.0549711    493.97292    304.00767    497.51215    304.86337     30.15604     30.15604     30.15604    14.505559    4.3132995    3.8654294    6.1504338     30.15604     30.15604     30.15604 
  260000    288.02219   -8572.9618   0.96099409    1484.2842   -21.245825    30597.959   -40672.493    32077.224    26.264693   -8586.2109    34.494906   -275.75538    27137.938    7.2669217     6.774052   -7.7858427    509.29978    314.03678    512.95229     314.7745    30.051001    30.051001    30.051001    17.287645    9.3142291    3.0199592    4.2826382    30.051001    30.051001    30.051001 
  270000    299.65852   -8587.4911   0.94945498     1458.081   -20.990717    30616.988   -40672.362     32077.54    18.518877    -8591.875    25.374605    -372.0727    27467.756    7.1886194     7.503426   -8.5824507    551.66662    335.01993    555.62659     335.8861    30.172252    30.172252    30.172252    9.8024528    4.3077423    3.0296155    1.9607853    30.172252    30.172252    30.172252 
  280000    295.41168    -8538.202   0.95183455    1418.4948   -21.043325    30705.514   -40673.264    32128.926    16.125664   -8543.1395     25.98078    -280.2678    27399.087    6.9722803    8.6109093   -9.0168423    583.92575    343.79311    588.08719    344.70372    30.147088    30.147088    30.147088    11.053831     3.521139    3.0556589    3.8247254    30.147088    30.147088    30.147088 
  290000    306.43042   -8428.3182   0.94058336    1432.1453   -20.794581    30799.758    -40672.92    32229.598    23.100208   -8437.5245    30.000923   -322.80454    27726.833    6.7846683    9.2282078   -8.6844395    603.81503    358.53237    608.10897    359.41348    30.266817    30.266817    30.266817    12.697865    5.3487811    4.1731384    2.5586359    30.266817    30.266817    30.266817 
  300000    303.11438   -8542.1787   0.93961265    1476.4368   -20.773121    30641.648   -40674.511     32118.15    20.707821   -8551.6046    30.198969   -218.69661    27755.477    6.5424771    8.9556016   -8.3163213    599.39061    368.39725    603.72089    369.35912    30.277237    30.277237    30.277237    14.247312    5.1503215    3.0523978    5.1141343    30.277237    30.277237    30.277237 
  310000    292.11234   -8473.4153   0.96455897    1529.4007   -21.324638    30657.225   -40672.476    32182.426    25.524066   -8483.7014    31.610736    840.54032     27037.64    5.9267806    8.4696663   -8.0648367    580.22427    373.21585    584.29847    374.37031    30.013934    30.013934    30.013934    12.435378    4.3158274    2.7586446    4.3815502    30.013934    30.013934    30.013934 
  320000    295.14412   -8581.9638   0.94388108    1474.5146   -20.867488    30602.763   -40673.043    32074.764    23.381169   -8591.6734    30.577104   -482.53057    27629.961    5.0990489    8.7362737   -7.7055672    583.98386    388.57351    588.13588     389.8873    30.231528    30.231528    30.231528    13.801305    6.4924696    2.8315131    3.8838318    30.231528    30.231528    30.231528 
  330000    291.44452   -8528.2459   0.93905434    1482.0644   -20.760778    30647.852   -40675.127    32127.921    22.756454   -8543.4788    35.993687   -258.24012     27771.98    4.4621481    8.8120329   -7.3123101    584.54891    400.89368    588.72171    402.30415    30.283236    30.283236    30.283236    16.964517    6.9264306    5.5207382    3.8380993    30.283236    30.283236    30.283236 
  340000     296.6472   -8565.4817   0.96891657    1462.5411   -21.420977    30629.952   -40671.687    32085.359    28.555015   -8576.5471    32.486369    -23.90484    26916.041    4.7414273    8.5851816   -7.0946073    587.21707    406.93495    591.37432    408.48278    29.968872    29.968872    29.968872    13.712315    5.5488726    4.5132515    3.0630385    29.968872    29.968872    29.968872 
  350000    292.62555   -8547.2333   0.96317412    1501.7471   -21.294022    30612.322   -40673.492     32108.68    26.683003   -8557.1164    31.177139    233.46417    27076.514    5.4711151    8.4370173   -7.0434331    610.84705    423.56266    615.23587    425.13806    30.028312    30.028312    30.028312    12.189935    5.7153244    2.5771737    3.1370793    30.028312    30.028312    30.028312 
  360000    299.61229   -8608.3594   0.96320565    1511.8778   -21.294719    30541.268   -40675.465    32049.049    25.391472   -8621.3727    34.308059    255.73368    27075.628    6.2127467    8.3842043   -6.6496527    635.42295    440.53063    639.89463    442.10977    30.027984    30.027984    30.027984    13.959458    5.0073885     4.048967    3.9568439    30.027984    30.027984    30.027984 
  370000    300.22774   -8571.1885   0.94546834    1503.8528   -20.902579    30581.945    -40673.08    32084.796     21.90437    -8582.191    31.905158   -178.10297    27583.576    7.1940567    8.6605252    -6.395542    675.51603    459.19004    680.35709    460.96875      30.2146      30.2146      30.2146    16.093372    7.1663129    5.0701373     3.288358      30.2146      30.2146      30.2146 
  380000    294.99485   -8492.5838   0.94807602    1432.5306   -20.960231    30732.868   -40676.535    32166.911    19.447325   -8505.4975     33.87391   -418.19497    27507.707    7.8770685    8.9868676   -6.2961946    708.62186    472.75296    713.79148     474.6072    30.186873    30.186873    30.186873    18.553215     9.946979    4.5029417    3.5673609    30.186873    30.186873    30.186873 
  390000    299.49057   -8565.2273   0.94269689    1440.6648   -20.841308    30649.341   -40671.731    32088.516    22.330298   -8581.0316    36.645579   -256.76727    27664.669    7.9490001    9.5556753   -5.9353086    737.04212    490.20656    742.35068    492.03761    30.244181    30.244181    30.244181    16.498627    5.6926023     6.460316     3.872518    30.244181    30.244181    30.244181 
  400000    292.73351   -8528.6376   0.95260225    1459.7028   -21.060297    30673.629   -40676.275    32132.198    22.193951   -8538.9079    31.330599   -203.36953    27377.006    7.7073289    9.9671257   -5.6732734     753.5979    504.24647    758.99784    505.98431    30.138987    30.138987    30.138987    14.305655    8.0472634    3.8553554    1.9888496    30.138987    30.138987    30.138987 
  410000    298.98804   -8520.3118   0.95729151    1475.2807   -21.163968    30665.199   -40677.092    32135.867    25.776127   -8533.9924    34.844533    27.562873    27242.901    7.9119102    10.294382   -5.8297328    779.67016    516.89799    785.25296    518.62308    30.089695    30.089695    30.089695     16.30052    4.5390385     6.357054    4.4860316    30.089695    30.089695    30.089695 
  420000    312.54693   -8453.6726    0.9471132    1398.5585   -20.938944    30801.547   -40667.001    32198.811    22.233183   -8463.0639    30.330191   -307.86561    27535.671    8.6423904    10.831503   -6.1957804    821.71428    527.68875    827.70997    529.73593    30.197099    30.197099    30.197099    13.222946    8.0011606    2.3781516    2.2686208    30.197099    30.197099    30.197099 
  430000    292.37137   -8608.3242   0.94820667    1548.9955   -20.963119    30497.894   -40670.844    32048.853      18.9999   -8618.9894    31.628372    209.88033    27503.917    8.5201485    10.696747   -7.2856529    838.15145    539.54268    844.16043    541.38233    30.185487    30.185487    30.185487    15.630563    9.0589732    3.2067711    2.7921523    30.185487    30.185487    30.185487 
  440000    296.30918   -8461.6843   0.93433278    1491.5449   -20.656392    30706.547   -40677.877     32201.47    17.278558   -8474.6848    33.656907     125.7769    27912.322    8.3513149    10.403635   -8.6235983    869.54589    566.66804     875.7946    568.50667    30.334161    30.334161    30.334161    18.101115    7.3141632    5.2718052    4.7382218    30.334161    30.334161    30.334161 
  450000    298.01618   -8459.7107   0.93920809    1430.2945   -20.764177    30765.596   -40672.121    32199.531    17.123881   -8469.8843    30.937743   -217.31624    27767.433    8.0489417     10.64728   -9.7211679    896.08638    578.33613    902.56742    580.05773    30.281583    30.281583    30.281583    16.519461     9.159295    4.5275012    2.2733718    30.281583    30.281583    30.281583 
  460000    304.70785   -8559.3956   0.95155278    1509.9275   -21.037095    30590.334   -40673.921    32103.374    17.924255   -8568.2735    29.914963    373.06829      27407.2     8.048458    11.417965   -10.362135    924.95692    576.83047    931.60887    578.63792    30.150063    30.150063    30.150063      14.2642    5.1913838    4.0158294      4.28423    30.150063    30.150063    30.150063 
  470000    289.89079   -8475.4078    0.9649905    1399.5731   -21.334179    30781.454   -40673.775    32178.602     23.75889   -8490.6886    36.614969   -243.23232    27025.549    8.2216743    11.699746   -10.924144    951.09605    581.85884    957.94285    583.40596    30.009459    30.009459    30.009459    17.340357    8.3517294    4.8907861     3.841802    30.009459    30.009459    30.009459 
  480000    306.44612    -8486.273   0.95002165    1422.6933   -21.003245    30748.865   -40675.771    32170.964    21.597826   -8499.5133    34.243641   -385.64689    27451.372    8.0835208    11.874329   -11.673461    990.34514    604.95629    997.54037    606.36247    30.166252    30.166252    30.166252    17.939094    12.150572    4.3036253    1.2280341    30.166252    30.166252    30.166252 
  490000    304.63679   -8486.5029   0.95876247    1450.0177   -21.196488    30723.118   -40677.334    32174.632     19.70082    -8499.874    34.567578    98.997003    27201.104    7.7463109    11.869804    -12.11634     1001.981    615.76256    1009.2298    617.48032    30.074299    30.074299    30.074299    17.695641    6.8845524    4.3268816    5.6729526    30.074299    30.074299    30.074299 
  500000    300.21835   -8504.1954    0.9460729    1440.6978   -20.915945    30713.244   -40676.373    32157.125    17.732353    -8517.833    34.553588   -182.44468    27565.949    7.5592572    12.447571   -12.468155     1042.792    637.20022    1050.3946    638.84647    30.208163    30.208163    30.208163    18.235897    8.6221195    4.7745366    4.2106969    30.208163    30.208163    30.208163 
  510000    292.51117   -8551.8902   0.96014649    1452.7408   -21.227086    30656.537   -40675.611    32105.919    24.585617   -8563.1736     32.51045   -270.13815    27161.895    7.0935914    12.942012   -12.669541    1064.4962    649.42403    1072.1701    651.40776    30.059842    30.059842    30.059842    14.443396    4.1639143    6.2968883    3.2941238    30.059842    30.059842    30.059842 
  520000    299.06255    -8609.032   0.97529407    1426.4654   -21.561972    30628.363    -40677.38    32046.663    29.727528   -8621.6359    34.165872   -383.22949    26740.035    6.6532384    13.107166   -12.581234    1062.2078    651.34148    1069.9311    653.41808    29.903406    29.903406    29.903406    13.519923    5.8295683      2.57822     4.672334    29.903406    29.903406    29.903406 
  530000    295.20882   -8535.4066   0.96293054    1495.9959   -21.288637    30627.276   -40676.281    32118.621    25.939035   -8550.7728    36.654878     389.9442    27083.364    6.4558897    13.159605   -11.900613    1063.6965    668.50832    1071.4598    670.60541    30.030844    30.030844    30.030844    17.602358    10.044369    3.7637394    3.0669199    30.030844    30.030844    30.030844 
  540000    294.67201   -8429.8153   0.93634584    1434.5802   -20.700898    30790.689   -40673.058    32225.395     20.57509   -8445.0949     35.98048   -117.45068    27852.313     5.847845    13.133859   -11.708832     1075.297    694.70312    1083.1062    697.19127    30.312407    30.312407    30.312407    17.973472    7.2392796    5.7756727    4.4248859    30.312407    30.312407    30.312407 
  550000     301.5603   -8522.9007   0.95506014     1403.128   -21.114637    30728.304   -40671.598      32129.8    22.746322     -8534.94    33.153954   -554.43515     27306.55    4.9066369    12.541074   -11.361943    1041.3684    699.07671    1048.8625    701.72121     30.11311     30.11311     30.11311    17.265282     9.725424    2.3878907     4.564927     30.11311     30.11311     30.11311 
  560000    301.15958   -8598.6001   0.95465621    1491.8163   -21.105706    30572.676   -40674.625    32069.367    16.230619   -8603.2604    25.766073   -38.427633    27318.104     4.498553    11.473183   -10.751148    1008.9616     712.9591    1016.3435    715.97805    30.117357    30.117357    30.117357    11.532277    4.9829755    3.0706642    3.2634523    30.117357    30.117357    30.117357 
  570000    299.92209   -8572.7973   0.95309614    1526.6944   -21.071216    30563.284   -40677.264    32087.095    23.953656   -8584.4657    32.739607    278.97303     27362.82    4.6602501    10.754416   -9.9902025    994.82839    727.99652    1002.0311    731.37661     30.13378     30.13378     30.13378    14.488349    5.2126461     3.570252    4.6838559     30.13378     30.13378     30.13378 
  580000    289.84234   -8590.1243   0.96084346    1534.0686   -21.242495    30532.904    -40676.44    32071.085    17.130262   -8602.2433    33.361474     506.2785    27142.192    4.3692809    10.855164   -9.2914973    991.31039    736.58879    998.45714    740.06009    30.052572    30.052572    30.052572    19.342988    11.182247    3.2045666    4.0866117    30.052572    30.052572    30.052572 
  590000    288.67795   -8473.4422   0.93854006    1427.5856   -20.749408    30755.174   -40671.933    32180.635    22.873723   -8486.7024    34.009618   -361.86029    27787.197    4.2192983      11.2226   -8.7915984    1016.2373    760.40806     1023.608    764.28012    30.288766    30.288766    30.288766    15.731465    4.9158311    4.8379685    4.9387929    30.288766    30.288766    30.288766 
  600000    296.31394   -8556.5386   0.96068126    1461.9398   -21.238909    30643.477   -40675.228    32106.921    19.734412   -8564.8489    29.549166   -43.446989    27146.775    4.0867223    11.196161   -8.1490245    1008.4639    763.93986    1015.7619    767.71497    30.054263    30.054263    30.054263    13.272943    6.7054808    2.9818559    2.9127122    30.054263    30.054263    30.054263 
  610000    291.03226   -8590.7099   0.95886613    1485.6073    -21.19878    30579.224   -40673.189      32064.5    21.529922   -8604.1707    34.659643    64.906871    27198.164    3.8747353    11.102173   -7.7542316    1009.9318    774.42113    1017.2746    778.52794    30.073215    30.073215    30.073215     17.64837    8.4353446     2.917621    5.6098414    30.073215    30.073215    30.073215 
  620000    300.43483    -8532.853   0.94877514     1452.738   -20.975687    30671.817   -40671.941    32123.932    21.598766   -8543.8568    31.979455   -63.863846    27487.438    3.9034205    10.469523   -7.7354484    1013.6828    793.92951    1020.9552    798.06997    30.179457    30.179457    30.179457    14.532669    4.6896843    5.0202098    4.1324283    30.179457    30.179457    30.179457 
  630000    293.26479   -8590.9205   0.96199761     1532.976   -21.268011    30532.378   -40674.487    32065.711    20.910631   -8605.8942    36.241699    473.58818    27109.629    4.2508504    9.5434096   -7.9828046    996.76548    792.01951    1004.0375    796.28454    30.040548    30.040548    30.040548    18.212303    9.8233192    6.0478934    2.0667596    30.040548    30.040548    30.040548 
  640000    307.27787    -8562.063   0.97254369    1434.7324   -21.501166    30662.284   -40674.858    32093.695    24.822317   -8576.7441    36.182242    33.862147    26815.657    4.0464536    8.8227057   -8.1797543    982.91053    794.46472    989.97311    799.04176    29.931569    29.931569    29.931569    15.778822    8.7641105     2.964429    3.5642512    29.931569    29.931569    29.931569 
  650000    303.02121   -8485.9655   0.96853326    1538.0241   -21.412503    30628.991   -40672.887    32165.606     22.82104   -8502.7614    38.208434    961.83566    26926.693    3.2638379    8.1488856   -8.1160691     963.8208     799.5919    970.78195    804.17795    29.972825    29.972825    29.972825    19.906992    9.3023184    3.6694595    6.2802502    29.972825    29.972825    29.972825 
  660000    308.21569   -8491.8037   0.95600836    1468.9981     -21.1356    30697.476   -40674.257    32166.931    20.679086   -8503.3836    32.715451    243.01656    27279.466    3.0247749    8.3149226   -7.7842669    985.62526    824.01765     992.7039    828.73732    30.103151    30.103151    30.103151    15.979158    7.5880274    4.4376416    3.4373571    30.103151    30.103151    30.103151 
  670000    315.17254   -8614.9847   0.94907895    1604.5389   -20.982403    30435.458   -40669.545    32044.048    16.930851    -8625.419    31.416753    913.62996    27478.639    2.8388591    8.9321159   -7.2512271    1003.5172    836.58928    1010.6903    841.33664    30.176236    30.176236    30.176236    14.563306    4.6604644    5.0087059    4.4311328    30.176236    30.176236    30.176236 
  680000    290.85919   -8510.6297   0.93969384    1439.9715   -20.774916    30702.074   -40675.875    32139.015    23.805479   -8531.4358    41.580999   -606.38474    27753.079    2.1127088    9.7105584   -6.4112026    1036.8359    867.81772    1044.3436    872.74341    30.276365    30.276365    30.276365    23.200302    7.8483105    5.7258761    7.7203391    30.276365    30.276365    30.276365 
  690000    290.24772   -8511.3599    0.9329256    1471.2133   -20.625282    30671.876   -40672.246    32139.687    24.027362   -8527.1648    36.430227    -175.9779    27954.424     1.191932    10.331648   -5.9223319    1055.5854    882.96971    1063.1349    888.17316    30.349405    30.349405    30.349405    17.796659    4.9802961    5.2313889    6.7350601    30.349405    30.349405    30.349405 
  700000    296.98444   -8558.1884   0.95467766    1493.0726   -21.106181    30608.511   -40676.985    32104.383    18.306625   -8570.6819    33.599598    120.14742     27317.49   0.46602511    10.362858   -6.0329154    1049.7123    879.93783    1057.2504    885.06378    30.117131    30.117131    30.117131    17.212923    10.815127    4.6161352    1.3967033    30.117131    30.117131    30.117131 
  710000    290.24954    -8562.515   0.95633855    1471.6175     -21.1429    30622.702   -40677.143    32096.571    18.892337   -8577.0157    35.643608   -245.95562    27270.048    0.1002667    10.474247   -6.6055578    1067.8195    892.24391    1075.5189    897.41249    30.099686    30.099686    30.099686    20.307567    8.5951101    4.9581345    5.9105936    30.099686    30.099686    30.099686 
  720000    302.43045   -8478.4405   0.95206947    1383.4871   -21.048518    30789.187   -40667.884     32173.29    20.432119   -8489.8665    32.474494     -609.443    27392.327  -0.13370438    10.529091   -7.3303958    1088.0185    905.42026    1095.8584      910.746    30.144608    30.144608    30.144608    16.769558     7.610995    4.3801574    4.0482356    30.144608    30.144608    30.144608 
  730000    297.86351   -8510.2095    0.9462094    1419.3763   -20.918963    30727.305   -40672.397    32144.284    23.316213   -8522.3484    33.057793   -465.40032    27561.973  -0.15292529    10.270739   -7.4983884    1089.5191    911.48634    1097.4133    916.74679    30.206711    30.206711    30.206711    15.506728    6.1312738     4.367184    4.3468459    30.206711    30.206711    30.206711 
  740000    299.56448   -8485.3328   0.94091679    1418.5894   -20.801953    30757.265   -40673.997    32179.006    17.650624   -8492.8309    28.300142   -328.48536    27717.008 -0.023327362    10.124078   -7.0603097    1096.9977    926.20969     1104.896    931.60627    30.263242    30.263242    30.263242    12.809261    6.4868553    2.2252474    3.3381789    30.263242    30.263242    30.263242 
  750000    295.99298   -8598.8697   0.95128362    1447.9362   -21.031145     30611.35   -40676.578    32058.417    21.900626   -8613.4084    35.569836    -476.9391    27414.955 -0.047496546    10.149955   -6.0766759    1095.1166    932.54972    1103.0807    938.14378    30.152906    30.152906    30.152906    18.422177    6.9152196     5.181347    5.8497318    30.152906    30.152906    30.152906 
  760000     305.3381   -8492.7377   0.95611294    1413.5968   -21.137912    30753.487   -40675.603    32163.422    24.799606   -8505.4885    33.888659   -153.41079    27276.482  -0.36257131    10.225269   -5.1670269    1094.1036    937.01134    1101.9743    942.70449    30.102053    30.102053    30.102053    15.781759    6.6198005    4.0447379    4.2734906    30.102053    30.102053    30.102053 
  770000    295.72371   -8636.1701   0.96305571    1548.6967   -21.291404    30474.982       -40674    32025.008    19.961942    -8645.286    30.407335    422.42875    27079.843  -0.40994489    10.496801   -4.9109614    1100.2136    938.45057    1108.2379    944.18666    30.029542    30.029542    30.029542    14.151469    7.3812916    3.8994842     2.403887    30.029542    30.029542    30.029542 
  780000    295.94654    -8542.555   0.93870913    1539.7701   -20.753146    30574.556   -40674.629    32117.513     17.56615   -8554.1874    32.385543    339.30709    27782.193   0.41737849     10.65399   -4.8986523    1140.9909    971.34727    1149.2735      977.254    30.286948    30.286948    30.286948    17.747643    8.7845058    5.7594349    2.7188129    30.286948    30.286948    30.286948 
  790000    296.38777   -8460.6715   0.93934665    1491.1317    -20.76724    30704.658   -40670.663    32195.159     21.39855   -8471.3259    31.421633    262.28091    27763.337    1.5632544    10.439151   -4.9319603    1156.7011    984.84262    1165.1515    990.82461    30.280094    30.280094    30.280094    14.201435    7.0830418    2.8886054    3.4842173    30.280094    30.280094    30.280094 
  800000    298.60505   -8508.4258   0.95037922    1457.8265    -21.01115    30693.478     -40677.3      32152.8    19.515262   -8520.0059    32.591222   -199.29368    27441.044    2.1319181    10.107375   -4.9831718    1160.4284    991.55216    1168.8024     997.4701    30.162468    30.162468    30.162468    17.570455    9.7158683    2.9231506    4.0009171    30.162468    30.162468    30.162468 
  810000    304.25333   -8540.4589   0.97207078    1579.5751   -21.490711    30540.682   -40676.724    32120.023    21.725239   -8552.5953    33.627105    1305.5132    26828.703    1.6477969    10.089042   -4.8390356    1155.1521    991.65883    1163.5506    997.72112    29.936422    29.936422    29.936422    16.008114    6.6806045    4.1716454    4.3610259    29.936422    29.936422    29.936422 
  820000     296.5754   -8566.8332   0.94999683    1371.4076   -21.002696    30721.126   -40673.105    32091.286    22.249366   -8576.2621    30.431585   -907.20962    27452.089   0.93427482    10.368212    -4.808464    1185.0453    1019.9951    1193.5657    1026.1322    30.166515    30.166515    30.166515    13.738218    6.9502872    2.6382649    3.6575849    30.166515    30.166515    30.166515 
  830000    303.67948   -8535.7213   0.95899681    1472.4103   -21.201669    30645.861   -40674.694    32116.262    23.210202   -8550.7601    36.240428    -47.97543    27194.457 -0.024141337    10.817308    -4.725417    1190.7048    1020.1639     1199.391     1026.318    30.071849    30.071849    30.071849    20.701234    13.650883    4.6457118    1.9464373    30.071849    30.071849    30.071849 
  840000    307.82362   -8591.3667   0.95142684    1578.5786   -21.034311    30489.067   -40673.685    32070.299     18.38121   -8600.7288    30.396406    677.36737    27410.828  -0.94775925    12.087632   -4.6520971    1231.5781    1031.0885    1240.5738    1037.3028    30.151393    30.151393    30.151393    14.672281    8.6637708    2.9059283    2.6165068    30.151393    30.151393    30.151393 
  850000     296.8583   -8410.0855   0.93205383    1402.3664   -20.606009    30847.286   -40675.499     32253.59    16.667975   -8419.9371    30.457604   -605.35234    27980.571   -1.5310957    12.452785   -4.5647807    1265.1995    1055.8805    1274.3014    1062.2363    30.358864    30.358864    30.358864    15.761516    8.9963906    2.5767569    3.4999591    30.358864    30.358864    30.358864 
  860000    304.02553   -8543.4948   0.96040321    1538.7445   -21.232762     30579.07   -40675.707    32115.035    24.012435   -8553.8752    31.613192    491.29544    27154.634   -1.6626289    12.028209   -4.7383934    1249.3607    1051.6705    1258.3969    1057.7288    30.057163    30.057163    30.057163    14.397236    7.9560318    3.3745237    2.6920671    30.057163    30.057163    30.057163 
  870000    296.58975   -8562.8176   0.95872242    1490.7163   -21.195603    30606.051    -40674.53    32100.692    17.270473   -8572.0351    30.413108     247.6262     27202.24   -1.9073038    12.006782    -5.583041    1269.8513    1067.5375    1279.0832    1073.7027    30.074718    30.074718    30.074718    14.945877    5.7343095    4.5754322    4.1420713    30.074718    30.074718    30.074718 
  880000    289.65904   -8559.2908    0.9482697    1448.7348   -20.964512    30654.461   -40676.718    32102.103    22.057088    -8569.287    30.960767   -530.71388    27502.089   -2.3581485     12.97066   -6.8562355    1325.7287    1085.3174    1335.3377    1091.4527    30.184818    30.184818    30.184818    14.231792    6.2577173    3.1748486    4.1773568    30.184818    30.184818    30.184818 
  890000    316.42272   -8531.5297   0.94815488    1396.9791   -20.961974    30732.708   -40673.735    32130.701    19.948092   -8539.0417    28.473972    -510.7119     27505.42   -2.4067983      13.8194   -7.7687015    1368.2706    1092.9475    1378.1589    1098.7796    30.186036    30.186036    30.186036    12.518248    3.4702058    3.4899305    4.7810358    30.186036    30.186036    30.186036 
  900000    292.54145   -8534.9316   0.94879264    1496.7805   -20.976074    30618.758   -40666.781     32114.19    22.324667    -8547.584    33.628527   -87.086346    27486.931   -2.0104258    14.439288   -8.8148653    1412.7419    1104.9435    1422.9883    1110.8205    30.179271    30.179271    30.179271    16.310475     6.801047    3.9668854    4.6868352    30.179271    30.179271    30.179271 
  910000    293.85906    -8494.367   0.94237758    1429.4447   -20.834248    30735.955   -40676.919     32165.91    20.323624   -8506.6033    33.070512   -397.92935    27674.043   -1.8725325    14.819869   -10.265495    1461.0702    1118.3468    1471.7695    1124.1765    30.247597    30.247597    30.247597    17.153042    7.5262445    4.6190106    4.3609056    30.247597    30.247597    30.247597 
  920000    299.99346   -8448.2149   0.93734271    1467.2099   -20.722937    30746.437   -40676.522     32214.68    19.690087   -8459.1613     31.66925    93.807619    27822.692   -2.2013562     15.03222   -11.687113    1511.8618    1136.8696     1522.822    1142.4152    30.301657    30.301657    30.301657    14.660148    4.4726402    6.0484427    3.4565914    30.301657    30.301657    30.301657 
  930000    295.59038   -8538.9004   0.96186829    1432.7601   -21.265152    30689.386   -40676.157    32123.669     19.74288   -8550.1331    32.497948   -17.356973    27113.273   -3.0089753    15.361873   -12.782267    1532.6579    1124.7148    1543.7816    1130.1461    30.041895    30.041895    30.041895    15.110471    3.3728255    6.8290178    4.2714022    30.041895    30.041895    30.041895 
  940000    299.31764   -8579.8192     0.956401    1518.8754   -21.144281    30562.221    -40674.39    32084.568    17.672269   -8588.7585    30.083637    306.35815    27268.267   -4.4126934    15.568079   -12.931587    1559.6114    1136.1897    1570.9538    1141.4825    30.099031    30.099031    30.099031    13.474435    4.8043317    4.4821299    3.4409219    30.099031    30.099031    30.099031 
  950000    293.38386   -8446.7381   0.93663327    1491.3134   -20.707252    30718.432   -40672.302    32210.771    19.682158   -8458.1673    32.136463    309.29289    27843.766   -5.1170642    15.436152   -12.518777    1570.5378     1157.284    1582.0207    1163.0091    30.309306    30.309306    30.309306    15.818473    4.7758667     5.461677    5.0327892    30.309306    30.309306    30.309306 
  960000    295.21981   -8540.8524   0.94656867    1415.1986   -20.926906    30705.921   -40674.471    32126.553    15.493822   -8546.1806    26.255135   -509.38796    27551.512   -4.6936812    14.444581   -11.959178    1528.6269    1162.3294    1539.6878    1168.4803    30.202888    30.202888    30.202888    12.498071    5.4613982    2.5794805     3.723526    30.202888    30.202888    30.202888 
  970000    300.34703   -8479.8703   0.93972551    1412.3069   -20.775616     30759.95   -40674.251    32177.795    15.237779    -8496.229    37.134304   -361.05028    27752.144   -4.0953666    12.819287   -11.274286    1480.4124    1178.9036    1491.1272    1185.3221    30.276024    30.276024    30.276024    22.123485    6.3217607    10.201167    4.6558737    30.276024    30.276024    30.276024 
  980000    297.26137   -8552.2956   0.94258615    1439.3617    -20.83886    30672.009   -40675.252    32117.829    14.380369   -8557.9546    26.497848   -219.38938     27667.92   -3.3812267    11.803202   -10.933272    1448.6692    1184.3484    1459.2043    1190.9166    30.245365    30.245365    30.245365    11.585882    6.0367082    3.6135408    1.6552646    30.245365    30.245365    30.245365 
  990000    298.13675   -8504.9129   0.95442252    1466.1842    -21.10054    30688.046   -40670.877    32156.611    18.720133   -8511.6244    27.812029    197.11865    27324.793   -2.7939989    11.411339   -10.990542    1430.3129    1175.7669    1440.6807    1182.3107    30.119815    30.119815    30.119815    11.734255    5.6278859    1.9393904    3.6011318    30.119815    30.119815    30.119815 
 1000000    297.26283   -8598.6845   0.93860681    1479.5283   -20.750883    30580.872   -40675.731    32066.916    14.235515   -8609.7923    31.858665   -154.46128    27785.221   -2.6500419    11.972254   -11.404316    1482.3229    1205.3959    1493.1063    1212.0248    30.288048    30.288048    30.288048     16.64634    7.0386073    5.8129225    3.3749628    30.288048    30.288048    30.288048 
 1010000    302.36023   -8538.2977   0.95838072     1479.186   -21.188049     30645.69   -40674.908    32125.345    20.719939   -8546.8687    29.759053    298.13993    27211.939    -2.451337    12.634526   -11.689587    1500.5757    1200.0148     1511.488    1206.4525    30.078291    30.078291    30.078291    11.733794    5.8889042    3.6431516     1.912398    30.078291    30.078291    30.078291 
 1020000    298.23505    -8525.217   0.94954334     1473.872    -20.99267    30659.849   -40672.546    32134.583    20.131156   -8536.4227    32.198403    100.42027      27465.2   -2.3504593     13.30953   -11.878565    1547.0482    1223.3248    1558.2516    1229.9268    30.171316    30.171316    30.171316    13.607887    3.9176679    5.4870279    3.9423218    30.171316    30.171316    30.171316 
 1030000    301.77567    -8563.195   0.95056265     1391.853   -21.015205    30703.332   -40676.737    32094.845    21.355282    -8577.459    35.279221   -731.70593    27435.748   -1.9350875    14.207074   -11.333023    1575.2149    1234.1301    1586.6969    1240.7305    30.160528    30.160528    30.160528    18.356574    9.6323199     6.446382    1.9832502    30.160528    30.160528    30.160528 
 1040000    291.91815   -8572.5145   0.95001838    1448.2846   -21.003173    30637.371   -40676.567    32086.309    20.350405   -8586.5079    34.996577   -450.31483    27451.466   -1.4799091    14.964015   -10.740552    1611.0868    1255.2009    1622.7807    1261.8147    30.166286    30.166286    30.166286    18.396657    6.8932924     4.320888    5.9267381    30.166286    30.166286    30.166286 
 1050000    291.42301   -8492.8035   0.96927427    1411.5025   -21.428885      30756.9   -40676.309    32167.599    22.233093   -8504.7555    33.380965   -113.29776    26906.107   -1.1632045    15.289258   -10.101268    1611.1312    1254.7728    1622.8414    1261.0786    29.965185    29.965185    29.965185    15.102888    3.7347116    4.6673451    5.9756921    29.965185    29.965185    29.965185 
 1060000    297.63624   -8515.4517   0.96900895     1463.762   -21.423019    30684.522   -40675.643    32144.315    25.391603   -8525.1296    31.100983    94.528019    26913.475   -1.1789741    15.960746   -10.125198    1649.1647    1269.1668    1661.1192    1275.7226    29.967919    29.967919    29.967919    11.907595    5.3144334    3.0190196    3.0261181    29.967919    29.967919    29.967919 
 1070000    300.28342   -8599.8227   0.94889928    1478.2035   -20.978431    30581.565   -40675.396     32059.72    21.027682   -8611.2123    32.368045   -218.74919    27483.842   -0.9700401    16.894455   -10.365915    1723.8463    1305.2269    1736.4049    1311.9245    30.178141    30.178141    30.178141    15.804815    6.3628048    4.7886309    3.8919287    30.178141    30.178141    30.178141 
 1080000    293.79389   -8507.1166   0.97429128    1440.5936   -21.539802    30711.949   -40672.648    32143.548    30.534585   -8517.9243    32.347467    88.276418    26767.557  -0.61029876    17.488118   -10.154192    1731.7707    1293.0154    1744.3629    1299.4235    29.913662    29.913662    29.913662    12.988781    3.4773575    4.0270737    4.9011319    29.913662    29.913662    29.913662 
 1090000     307.4484   -8524.6747   0.94176323    1443.9659   -20.820666    30688.179   -40672.453    32133.284    19.681557   -8536.1252    32.271162   -258.83363    27692.096  -0.36581733    18.424405   -9.6322831    1811.8052    1343.0623    1824.9801    1349.6345    30.254172    30.254172    30.254172    15.633926    6.7082369    5.0138303    3.2257646    30.254172    30.254172    30.254172 
 1100000    301.45577   -8526.6389   0.96705378    1475.3995   -21.379794    30659.447   -40673.036    32134.709    21.516701   -8535.2164    29.957288    349.44363    26967.888  -0.64611567    18.874395   -8.3158751    1800.5576     1332.428    1813.7191    1339.0872    29.988102    29.988102    29.988102    11.550543    3.9263412    3.4347939    3.4109756    29.988102    29.988102    29.988102 
 1110000    294.04255   -8574.9644   0.94766391    1479.4202    -20.95112    30603.792   -40672.937    32079.875    24.288311   -8586.9063    32.892965   -229.93813     27519.67   -1.0902046     19.30116   -7.1488233    1823.6027    1351.1286    1836.9004      1357.67    30.191248    30.191248    30.191248    14.760763    8.1903412    2.9121827    3.1808436    30.191248    30.191248    30.191248 
 1120000    303.61752   -8549.1899   0.95851031    1526.2859   -21.190914    30583.404   -40673.653    32111.079    19.801218    -8558.558    30.558996    441.83876     27208.26   -1.3115165     19.37722   -6.5054323    1821.2529    1352.3756    1834.5169    1358.7483    30.076936    30.076936    30.076936    14.773441     7.943412    4.5512265    2.0420525    30.076936    30.076936    30.076936 
 1130000    301.44508   -8576.5852   0.94104739    1459.0971    -20.80484    30622.539    -40672.08    32081.384    21.056212   -8586.0893    30.308956   -523.91267    27713.161  -0.72873824    19.693455   -6.5165761     1869.537    1385.3637    1883.1325    1391.9924    30.261842    30.261842    30.261842    13.858924    8.0310924    3.2670153    2.1682117    30.261842    30.261842    30.261842 
 1140000    299.93726   -8493.5049   0.95576713    1496.7533   -21.130267    30669.189   -40672.717    32163.867    23.205825   -8503.1223    30.747685    380.61858    27286.351  -0.21344839    20.033973   -7.0579824    1885.5863    1380.7857    1899.3068    1387.2643    30.105683    30.105683    30.105683    13.269719    5.7211905     5.765322    1.5758698    30.105683    30.105683    30.105683 
 1150000    302.33066   -8492.9284   0.93570053    1415.1618   -20.686631    30753.816   -40675.745    32168.531    21.133644   -8503.2486    31.006824   -581.36705    27871.522  0.092473189    20.376773   -8.0211781    1946.8438    1414.4306    1961.0226    1421.0592    30.319374    30.319374    30.319374    13.838581    6.8656027    1.8505072    4.3723493    30.319374    30.319374    30.319374 
 1160000    286.41444   -8582.1261   0.95428553    1596.5078   -21.097511    30479.585   -40671.899    32077.148    20.042449   -8591.5127    30.484154    771.37371    27328.716   0.15453262    19.875186   -8.8279932    1926.4144    1405.9169    1940.4612    1412.7645    30.121256    30.121256    30.121256    13.680168    5.8387873    4.3074866    3.0229832    30.121256    30.121256    30.121256 
 1170000    301.85218   -8618.6955   0.95029177    1494.5138   -21.009217    30549.338   -40675.373    32043.776    21.084879   -8627.3163    29.629969   -153.70789    27443.569   0.19528523    19.246161    -9.443858    1928.4626    1426.8562    1942.5729     1433.888    30.163393    30.163393    30.163393    12.825123    7.4478143    1.6822677    3.1192054    30.163393    30.163393    30.163393 
 1180000    296.49679   -8552.0102   0.93645605    1470.0068   -20.703334    30640.111   -40674.678    32109.091    21.730815   -8561.4273    30.120418   -260.83041    27849.036   0.71246476    19.014641   -9.6140189    1944.6497    1447.0661    1958.7747    1454.1534    30.311218    30.311218    30.311218    12.549964    7.1229011     2.292434    2.4825778    30.311218    30.311218    30.311218 
 1190000    300.86239    -8521.609   0.96374327    1485.0982   -21.306605    30658.739   -40674.513     32143.98    21.163016   -8526.9318    26.629332    376.41117    27060.524    2.0159748    18.327957   -8.5078978    1886.4993    1423.1721    1900.1452     1430.285    30.022399    30.022399    30.022399     9.066673     2.649241    2.5837194    3.3062803    30.022399    30.022399    30.022399 
 1200000    300.63506   -8499.7386   0.95073027    1419.6482   -21.018911    30745.216    -40675.18    32163.743    22.139803   -8506.7849    28.065263   -240.24537    27430.911    2.6448743    17.434352   -7.3628429    1863.6603    1443.2675    1877.1728    1450.6773    30.158755    30.158755    30.158755    10.577698    6.0712702    2.3227725    1.8321675    30.158755    30.158755    30.158755 
 1210000    284.61955   -8474.4906   0.95598845     1465.678    -21.13516    30723.751   -40674.259    32190.731    19.832634   -8480.8777    27.522275    237.42604    27280.034    2.5718414    17.280417   -6.9667206    1854.5662    1444.0385     1868.107    1451.6739     30.10336     30.10336     30.10336    10.339665    5.6072441    2.5376705    1.9055273     30.10336     30.10336     30.10336 
 1220000    290.36402   -8551.7422   0.96886832    1506.6147    -21.41991    30605.992   -40675.032    32110.759    23.267659   -8559.0857    28.763422    408.22726    26917.381    2.3808394    17.465404   -6.6340828    1854.9003     1442.442    1868.3641    1449.9444    29.969369    29.969369    29.969369    10.683618    5.4156898    3.2176741    1.7179024    29.969369    29.969369    29.969369 
 1230000    309.54924   -8422.6558   0.95071568    1486.5956   -21.018589    30749.218   -40673.098    32233.191    23.641991   -8434.7858    33.148622    545.09107    27431.332    2.5144937     17.74273   -6.5817249    1893.8472    1470.1901    1907.6595     1478.023    30.158909    30.158909    30.158909    14.627887    6.0686114    4.4312428    3.4479121    30.158909    30.158909    30.158909 
 1240000    299.36817   -8548.7084   0.95560315    1426.7045   -21.126642    30684.245   -40675.429    32112.849    19.226888   -8559.9041    32.322368   -421.61739    27291.034    1.9557651    17.559993   -6.8248677    1902.2254    1487.5064    1916.0854    1495.3433    30.107405    30.107405    30.107405    15.772014    7.1962487    5.4395097    2.6129681    30.107405    30.107405    30.107405 
 1250000    304.26077    -8522.115   0.95335373    1455.2814   -21.076911    30681.668   -40674.084    32140.819    17.208171   -8531.2679    30.229863    102.62511    27355.426    1.2721337    17.356675   -6.7228158    1903.4285    1503.1414     1917.354    1511.1058    30.131066    30.131066    30.131066    15.019005    7.6652065    4.0201214    2.9233033    30.131066    30.131066    30.131066 
 1260000    304.03496   -8581.1889   0.95719361    1522.1867   -21.161804    30553.838   -40671.355    32072.752    24.434406   -8592.2609    32.233789     287.8674    27245.687   0.75628772    17.352327    -6.438471    1911.2199    1517.1534    1925.2145    1525.2399    30.090721    30.090721    30.090721    14.140857    4.9297062    1.8996081    6.3471106    30.090721    30.090721    30.090721 
 1270000    297.25441   -8491.0494   0.93393624    1391.5709   -20.647626    30778.554   -40673.814    32174.244    16.528578   -8498.3367      27.9349   -716.53999    27924.174   0.19877315    17.630773   -6.2942666    1950.8908    1550.5972    1965.1457    1558.8761    30.338454    30.338454    30.338454     12.63896    6.0484749    2.8012282    3.3210202    30.338454    30.338454    30.338454 
 1280000    289.57331   -8559.5533   0.96383586    1464.1529   -21.308652    30635.963   -40672.928    32098.528    22.896811   -8568.7745    30.529857   -187.96082    27057.924   0.20364378    18.062966   -5.9815264    1952.6995    1537.7927    1966.9473    1546.0229    30.021438    30.021438    30.021438    13.259163    7.0819475    4.6605188     1.412463    30.021438    30.021438    30.021438 
 1290000    295.49315   -8466.0577    0.9312417    1428.9657   -20.588054    30765.221   -40674.119    32200.769    14.005787   -8474.1271    28.657491   -390.69585    28004.972    1.2279097    18.945086    -5.558972    2046.0857    1591.7729    2060.9938    1600.2071    30.367687    30.367687    30.367687    13.874606    7.9730039    3.0051631    2.5291874    30.367687    30.367687    30.367687 
 1300000    292.23415   -8507.7989   0.93863902    1421.0242   -20.751596    30729.191   -40672.176     32151.55    19.416899   -8518.5988    31.551461   -607.95255    27784.268    2.2707267    19.272874   -4.8380658    2060.5841    1588.4042    2075.4935    1596.4487    30.287702    30.287702    30.287702    14.161312    7.2450893    2.6747608    3.3835197    30.287702    30.287702    30.287702 
 1310000    291.05325   -8547.8581   0.94994977    1421.3222   -21.001656     30695.79   -40675.367    32122.269    15.844609   -8552.7033    25.846825   -351.63755    27453.449    2.8146719    19.144717    -3.641057    2060.9171    1593.5999    2075.9835    1601.9204    30.167013    30.167013    30.167013    10.396616    5.7003147    1.6422376    2.5545574    30.167013    30.167013    30.167013 
 1320000    295.25475   -8465.6613   0.94034355    1502.8485    -20.78928    30694.128   -40672.824    32191.163    26.603218   -8473.4901      28.6181    137.04785    27733.904    2.8302678    18.498876     -3.30054    2063.8525    1625.2135    2078.8884    1633.8182     30.26939     30.26939     30.26939    10.185444    5.1753462    2.7510603    1.8725142     30.26939     30.26939     30.26939 
 1330000    291.82501   -8550.5288   0.96598148    1503.4054   -21.356088    30606.426   -40672.975    32112.439    18.748931   -8557.1413    27.968619    448.28785    26997.824    2.6118652    17.573602    -3.166084    2011.3409    1611.4983    2026.0326    1620.0246    29.999194    29.999194    29.999194    12.614609    7.7584694    2.3295945    2.1607467    29.999194    29.999194    29.999194 
 1340000    294.90353   -8457.9602   0.94074509    1473.2694   -20.798157    30736.486   -40677.248    32203.913    26.640559   -8465.4277     28.26567   -31.466516    27722.066    2.5622017    17.619683   -3.2719293    2055.0608    1653.9148    2070.0133    1662.7702    30.265083    30.265083    30.265083    9.5324847     4.812807    1.4051122    2.9228318    30.265083    30.265083    30.265083 
 1350000    288.51944   -8534.6369   0.95622105    1497.8317   -21.140302    30625.425   -40672.886    32118.497    25.900432   -8546.4285    32.931944    204.17223    27273.399    3.1073956    17.865728   -3.9463321    2071.2045    1653.0282     2086.258    1662.0528    30.100919    30.100919    30.100919    14.992643    4.8702324    3.9446364    5.7329585    30.100919    30.100919    30.100919 
 1360000    300.81753   -8536.3213   0.95795079    1464.7606   -21.178544    30662.216   -40675.457    32130.228    17.926872   -8543.7003    28.557552    105.36034    27224.152    3.7452425     18.10673   -4.6827976    2098.1223    1659.5451    2113.4697    1668.5556    30.082791    30.082791    30.082791    12.160002    5.1857649    4.5321091    2.1864123    30.082791    30.082791    30.082791 
 1370000    303.01177   -8502.6898   0.94109116    1344.2648   -20.805808     30810.81   -40671.987    32157.727    18.153571   -8510.3144    28.430422   -898.92846    27711.872    3.7230938    17.978697   -5.0968098    2112.0402    1677.4546    2127.4222     1686.853    30.261373    30.261373    30.261373    14.222197    8.1986326    4.1122135    1.5719901    30.261373    30.261373    30.261373 
 1380000    301.84381   -8495.4485   0.93220357    1449.4178   -20.609319    30706.696   -40668.395    32163.141     13.58274   -8505.6223    30.783113   -418.79034    27976.076    3.0331189    17.380239   -4.7121313    2109.9757    1708.0962    2125.3071    1717.7623    30.357239    30.357239    30.357239    16.832381    6.6000921     5.218945     4.304642    30.357239    30.357239    30.357239 
 1390000    295.95602   -8559.5782   0.94918702    1448.2881   -20.984793    30657.058    -40674.79     32107.95    18.381015    -8563.969    25.375596   -298.94997     27475.51    1.5392478    16.493279    -3.459542    2054.6639    1704.3921    2069.6285    1714.0893    30.175091    30.175091    30.175091    9.8651924    3.8676863    1.9589975    3.5935931    30.175091    30.175091    30.175091 
 1400000    299.76399   -8503.2722   0.94915851    1384.5696   -20.984162    30771.617   -40675.499    32154.854    22.316943   -8517.1326    34.844503   -442.02977    27476.336   0.35742023    15.856451   -1.9646102    2040.6462    1722.4668    2055.5106    1732.7089    30.175393    30.175393    30.175393    16.040532    4.9653509    3.5569606    6.2389694    30.175393    30.175393    30.175393 
 1410000    290.15036   -8492.3509   0.95471158    1462.2037   -21.106931    30706.363   -40674.533    32169.186    20.487533   -8501.1697    29.925686   -102.95879     27316.52   0.92537204    15.518508   -1.5364307    2035.7696    1725.8328    2050.6318    1736.2178    30.116774    30.116774    30.116774    13.615358    5.9083819    1.7061244    5.2422084    30.116774    30.116774    30.116774 
 1420000    295.18139   -8576.8912   0.94404138     1485.825   -20.871032    30598.022   -40674.302    32085.581    19.136534   -8586.3134    30.293262   -184.78532     27625.27    2.2859419    15.093137   -1.5270023    2058.9378    1752.5476    2073.9333    1763.2792    30.229816    30.229816    30.229816    13.564157    4.1958838    3.7706958     4.868575    30.229816    30.229816    30.229816 
 1430000    280.71122   -8562.6396   0.95460011    1554.9267   -21.104466    30539.281   -40673.902    32093.775    21.536997   -8575.2472     33.71203    356.73434     27319.71    3.2596377    14.115788     -1.35995    2040.7254    1757.1667    2055.5599    1768.0189    30.117947    30.117947    30.117947    17.055232    6.4109694    5.6192999    4.3725024    30.117947    30.117947    30.117947 
 1440000    296.81755   -8444.1019   0.93853706    1479.6304   -20.749341    30741.015   -40676.879     32225.76    15.633829   -8450.1547    26.802156    310.92519    27787.286    2.8654478    13.151568   -1.3223078    2041.9444    1792.5475    2056.8532    1803.8197    30.288798    30.288798    30.288798    12.132343    3.0009437    4.7710449    3.8526448    30.288798    30.288798    30.288798 
 1450000    299.40454   -8472.3464   0.96820396    1441.5544   -21.405222    30744.948   -40672.697    32181.737    26.170384   -8483.2045    32.263335    63.816438    26935.851    2.2481779     12.52779   -1.3959242       1998.1    1772.5353    2012.6399    1783.7174    29.976222    29.976222    29.976222    13.848058    5.9080943    3.4759383    3.6774152    29.976222    29.976222    29.976222 
 1460000    295.95256   -8493.4239   0.94521593    1490.0779   -20.896999    30670.683   -40671.574    32163.103    18.554939   -8506.9038    34.376859     192.6259    27590.942     2.029711    12.820056   -1.5740134    2038.6614    1806.4886    2053.5425    1817.9921     30.21729     30.21729     30.21729    17.389331     6.672027    4.3726308    5.8995851     30.21729     30.21729     30.21729 
 1470000    303.86517   -8591.9098   0.96252959    1520.5413   -21.279772    30541.818   -40675.675    32063.437    20.202058    -8607.173    36.543037    227.72485    27094.645    1.6925623    12.980995   -1.1802342     2031.736    1797.8543    2046.5508    1809.3277    30.035013    30.035013    30.035013     21.40607    6.6871789     5.974626    7.8028005    30.035013    30.035013    30.035013 
 1480000    300.82157   -8592.4604   0.96012315    1442.9291    -21.22657     30627.25   -40677.509    32068.999    22.406742   -8603.5825    32.348675   -136.20526    27162.555    1.0926563    13.289103  -0.21596199     2051.851     1809.913    2066.8347    1821.5004    30.060085    30.060085    30.060085    14.869438    5.7526462    3.5718549    4.6125947    30.060085    30.060085    30.060085 
 1490000    290.84828   -8537.8346   0.95440599    1532.9505   -21.100175    30583.609   -40673.994    32119.287    18.372419   -8551.5493     34.81492    391.94896    27325.266   0.20984207    13.462219    1.1337831     2091.042    1841.9258    2106.2164    1853.5796    30.119988    30.119988    30.119988    19.599877    9.6411847    5.3134296    4.0983675    30.119988    30.119988    30.119988 
 1500000    291.89286     -8494.62   0.94516959    1419.7454   -20.895975    30740.389   -40677.609    32154.796    26.233517    -8512.735    39.010927   -808.16447    27592.295  -0.56236058    13.214612    2.3889504    2109.7379    1861.5353    2125.0418    1873.2561    30.217784    30.217784    30.217784    22.855301    10.049723    7.7264482    4.6609691    30.217784    30.217784    30.217784 
 1510000    302.76028   -8534.1398   0.96376664    1496.7322   -21.307121    30628.093   -40678.057    32126.303    19.829376   -8549.1921    36.359486    477.26931    27059.868  -0.94775757    12.775705    2.8908545    2097.6428    1858.9122    2112.9695    1870.6546    30.022157    30.022157    30.022157    19.092095     6.400895    5.2072612    6.2754626    30.022157    30.022157    30.022157 
 1520000    296.49225   -8561.0765   0.96695454    1465.7988     -21.3776    30626.577   -40666.878    32093.376    20.377234   -8571.2702    31.571372    28.219713    26970.656  -0.50774875     12.62155    3.0197515    2090.1959    1853.5026    2105.3984    1865.2902    29.989128    29.989128    29.989128    13.425902    6.5650402    4.4007868    2.0648813    29.989128    29.989128    29.989128 
 1530000    296.44129   -8574.7847    0.9699065    1442.6925   -21.442863    30642.779   -40676.233    32082.809    24.104874   -8586.7053    33.363538    -185.8773    26888.569   0.38325384    11.760476    3.0561658    2078.6855    1861.5784    2093.8433    1873.6873    29.958672    29.958672    29.958672     15.97671    6.5331999    3.7926343    4.9383647    29.958672    29.958672    29.958672 
 1540000    300.81916   -8491.0949    0.9359881    1434.9537   -20.692989    30733.867   -40675.573    32175.766    13.748514   -8500.1577    29.755797   -123.94198    27862.959   0.78072953    10.740291    3.2265908    2106.5435    1911.9237    2121.8133    1924.0316    30.316268    30.316268    30.316268    15.656791     8.379761    2.8022163    3.8490741    30.316268    30.316268    30.316268 
 1550000    298.93913   -8543.8508   0.96606724    1519.8598   -21.357984    30595.344   -40672.807     32109.73    26.831665   -8555.7334    33.240613    485.08489    26995.427    1.7515665    9.7940648    4.0449461    2071.2606    1883.1824     2086.312    1895.5403    29.998306    29.998306    29.998306    13.752672    6.1335725    2.2307114    4.6199112    29.998306    29.998306    29.998306 
 1560000    303.13756   -8520.6571   0.95065541    1454.5541   -21.017256    30681.995    -40676.03    32135.856    21.710126   -8535.7894    36.149596   -128.59509    27433.072    2.1947176    9.5187644    4.4696891    2090.4333    1899.4075    2105.6117    1911.6676    30.159547    30.159547    30.159547     18.82354    4.9743409    5.7694663    6.8324374    30.159547    30.159547    30.159547 
 1570000    300.65357   -8493.8444   0.94771582    1474.0796   -20.952267    30687.511    -40671.25    32162.465    20.078124   -8504.5479    31.655864   -91.616546    27518.163    2.1661867     9.521135    5.2604853    2101.3156    1899.7038     2116.558    1911.9687    30.190697    30.190697    30.190697     15.81499    6.7274318    4.1224681    4.5554892    30.190697    30.190697    30.190697 
 1580000    293.42775   -8461.9346   0.94267627    1457.4778   -20.840852    30738.218   -40673.078    32196.481     20.05501   -8472.9803    31.886505   -8.5272909    27665.274    1.6478342     9.334765    6.5330853      2136.66    1923.5574    2152.2372    1936.0952    30.244401    30.244401    30.244401    15.447852    9.5597199    1.7941611    3.6094448    30.244401    30.244401    30.244401 
 1590000    314.29038    -8508.498   0.94511493    1489.5731   -20.894766    30660.599   -40673.059     32151.75    19.317596   -8519.3136    31.710386    207.37424     27593.89    1.2298861    9.0299173    6.8840033    2140.5713    1931.3191    2156.1773     1943.948    30.218366    30.218366    30.218366    14.388821    4.2738019    5.7255122    3.6860723    30.218366    30.218366    30.218366 
 1600000    304.79959   -8559.1982    0.9476418    1512.4529   -20.950631    30589.841   -40677.563    32106.971     16.27327   -8569.2944    31.046774    201.96697    27520.312    1.0088453    8.1458361    6.4896096    2116.2732    1933.2958    2131.6983     1945.992    30.191483    30.191483    30.191483    16.071118     8.968744    4.1671782    2.5646604    30.191483    30.191483    30.191483 
 1610000    302.31494   -8507.2318   0.94121287    1565.8726   -20.808499    30580.162   -40671.736    32148.937    17.906673     -8520.93    34.506769    578.98424    27708.289    1.0389124    6.7846611    6.4480978    2112.3587     1955.186    2127.6906    1968.0542    30.260068    30.260068    30.260068    18.468925    8.0320357     3.805575    5.4447219    30.260068    30.260068    30.260068 
 1620000    296.47561   -8587.8823   0.95178309    1463.8976   -21.042187    30609.779   -40676.873    32073.497    21.221813   -8599.0076    32.167479   -132.33319    27400.568    1.2838028    6.2327084    6.5943633     2102.585    1950.3514     2117.846    1963.3961    30.147631    30.147631    30.147631    15.313675    7.1611922    3.2793695    4.5633503    30.147631    30.147631    30.147631 
 1630000    301.85783    -8520.091   0.96243693    1520.9596   -21.277724    30613.456   -40676.018    32133.714    21.979572   -8537.0292    38.215947     566.6301    27097.254    1.5108584    6.3058586    6.7064361    2098.8571    1942.0708       2114.1     1954.961    30.035977    30.035977    30.035977     21.51131     8.168235    6.1803642     6.544936    30.035977    30.035977    30.035977 
 1640000    292.44527   -8595.9164   0.95519644    1523.2777    -21.11765    30538.573     -40675.7    32058.687    24.281034   -8610.0621     35.26331    68.740076    27302.654    1.1919135    7.1093231    6.8589551    2137.0807    1965.8642    2152.6565    1978.9189    30.111678    30.111678    30.111678    17.933432    8.3615792    3.1031133    5.8936469    30.111678    30.111678    30.111678 
 1650000    299.35814   -8563.5679   0.95938415    1496.4224   -21.210233    30592.334   -40673.782     32092.03    17.936439   -8580.2047    37.847073     161.6122    27183.478    1.1881225    7.5717607    6.9388178    2143.9956    1963.1595    2159.6301    1976.2998    30.067801    30.067801    30.067801    21.457866    8.6192235    7.6831514    4.4422824    30.067801    30.067801    30.067801 
 1660000    291.52311    -8541.963   0.94759209    1402.2899   -20.949532     30709.98   -40676.513    32109.373    23.846284   -8561.1525    40.138997   -870.88481    27521.756    1.4962484    7.5287933    6.7233571    2183.4268    2005.0999    2199.3136    2018.1463    30.192011    30.192011    30.192011    22.280226    9.0025717    5.4127286    6.5878675    30.192011    30.192011    30.192011 
 1670000    300.09638   -8566.8723   0.95927151    1424.6026   -21.207742    30667.856   -40672.021    32092.634    21.031979   -8574.2986    28.634062   -308.80657     27186.67    1.9360057    7.4891214    7.0083535    2188.5854    2002.4839    2204.5138    2015.6232    30.068978    30.068978    30.068978    12.690742    4.2977905    4.6264459    3.0216815    30.068978    30.068978    30.068978 
 1680000    294.30538   -8535.1669    0.9609633    1471.5703   -21.245145    30649.425    -40672.37    32115.323    26.917712   -8547.4358    33.514022   -98.372883    27138.807    2.8140159    7.5311609    7.5845822    2219.0809     2012.578    2235.2189    2025.6708    30.051322    30.051322    30.051322    16.206835    6.7503788    3.9441371    4.9063875    30.051322    30.051322    30.051322 
 1690000    304.91034   -8549.1978   0.94448672    1506.4776   -20.880878    30600.924   -40672.061    32106.466    21.816423   -8561.1739    32.856944    111.40517    27612.244    3.2686975    7.4464349     8.773916    2293.3539    2059.7141    2310.0544    2073.0379    30.225064    30.225064    30.225064    15.461499    6.9648414    2.4954515    5.0079972    30.225064    30.225064    30.225064 
 1700000    293.66152   -8519.9818   0.94576259    1469.3037   -20.909085    30656.235   -40667.014    32128.079    18.368685   -8537.6584    38.585713   -16.096365    27574.994    3.2561945    7.3381907     9.445022     2316.715    2069.9336    2333.5258    2083.1224    30.211467    30.211467    30.211467     21.49402    11.943978    1.7111382     6.511776    30.211467    30.211467    30.211467 
 1710000    299.55191   -8506.6718   0.95156867     1421.773   -21.037447    30730.726   -40674.938    32148.564    24.973079   -8518.3037    32.669325   -678.63343    27406.743    2.8126976     7.926828    9.7781004    2345.9499    2085.3698    2363.1355    2098.6907    30.149895    30.149895    30.149895    15.767279    9.5170916    3.1394486     2.586251    30.149895    30.149895    30.149895 
 1720000    304.45733   -8539.5312   0.93315852    1450.5965   -20.630432    30669.234   -40676.896    32122.817    17.644183   -8553.7938    34.893018   -361.48434    27947.446    2.2947612     8.726805    9.9323925    2406.6156    2130.7762    2424.1294    2144.4575     30.34688     30.34688     30.34688    17.533935    9.5447215    3.1143613     4.165554     30.34688     30.34688     30.34688 
 1730000    287.02324   -8612.6015   0.94902115    1458.2761   -20.981126    30585.266   -40672.455    32047.691    16.831428   -8623.1328    31.512441   -475.32173    27480.313    2.3120338    9.2540646    9.4473985    2399.1697    2123.2234    2416.5894    2136.3397    30.176849    30.176849    30.176849    16.311427     9.765102    2.1147471    3.7406557    30.176849    30.176849    30.176849 
 1740000     301.3148   -8534.4042    0.9460629    1514.1811   -20.915724    30610.375   -40676.833    32122.507    22.965251   -8547.5158    34.027353   0.19964911    27566.241    2.5027225    10.232655    8.8710481    2431.4434    2144.7513    2449.1892    2158.3525     30.20827     30.20827     30.20827     17.87269    9.7999623    3.9958762    3.7487743     30.20827     30.20827     30.20827 
 1750000    297.16206   -8476.9206   0.94457031    1465.9099   -20.882726    30711.307   -40675.485    32174.014    24.085653   -8495.2632    39.225273   -94.314984    27609.801    2.5683939    10.431777    8.1040923    2440.7595    2164.0003    2458.5008    2177.5036    30.224173    30.224173    30.224173    21.347476    7.3555613    5.2411042    8.0313743    30.224173    30.224173    30.224173 
 1760000    311.42641   -8589.0306   0.96845385    1418.5659   -21.410747    30651.985     -40675.6    32071.575    20.386699   -8600.8239    33.204048   -180.24558    26928.901    2.7324231    9.8851722    7.3669618    2397.1359     2146.491    2414.5945    2160.3153    29.973644    29.973644    29.973644    16.018328    5.0394201    3.7748636    6.4806362    29.973644    29.973644    29.973644 
 1770000    294.19379   -8501.5734   0.94751246    1460.3405   -20.947771    30694.316   -40671.105    32148.236    27.368078   -8515.4012    34.775547   -268.93242    27524.068     2.917222    9.7474224    6.7500922    2426.1855    2188.1382    2443.8256    2202.0954    30.192857    30.192857    30.192857    14.874731    6.5870404    5.9765238    1.8455384    30.192857    30.192857    30.192857 
 1780000    305.49965   -8501.2706   0.95027357     1510.286   -21.008814    30643.736   -40673.864    32151.635    23.395393   -8515.2279    34.966118    227.06692    27444.095    3.3655391    9.6829495    6.2173444     2426.245    2193.9449    2443.9733    2208.0953    30.163586    30.163586    30.163586    18.572089    9.9521751    5.0565384    2.9086544    30.163586    30.163586    30.163586 
 1790000    301.04836   -8478.1633   0.96265799    1412.6989   -21.282611    30770.313   -40677.174    32187.668    16.626431   -8489.2652    32.384561   -7.9846533    27091.031    4.3665424    10.063083    6.1813342    2440.2951    2187.8606    2458.0494     2201.759    30.033678    30.033678    30.033678    15.999517    5.6536875    4.3229809    5.4235226    30.033678    30.033678    30.033678 
 1800000    301.18837   -8507.2611   0.94574905    1438.3334   -20.908785    30716.177   -40675.437    32154.165    21.254397   -8517.5438    31.191526   -366.39732    27575.389    5.6354346    10.624904    6.4779516    2507.5016    2217.7779    2525.7697    2231.8864    30.211611    30.211611    30.211611    13.664941    5.3513058    3.4296278    4.0665598    30.211611    30.211611    30.211611 
 1810000    312.88289   -8536.6663   0.94224967    1512.2116    -20.83142    30609.335    -40674.46    32117.754    24.624901   -8550.8556    35.020735    250.25909      27677.8    6.7446567    10.880648    6.6878856    2567.9503    2250.2291    2586.7066    2264.2806    30.248965    30.248965    30.248965    16.246854    7.6063817    5.8259216    2.3944137    30.248965    30.248965    30.248965 
 1820000     294.3647   -8516.1229   0.94278465    1425.7772   -20.843248    30721.021   -40678.056     32143.73    23.911298   -8527.4114    32.131768   -497.91478    27662.094    7.6707527    11.288608    7.1371839    2616.2921    2262.2491    2635.3326     2275.963    30.243243    30.243243    30.243243    15.134449    7.6545138    2.5696552    4.4025983    30.243243    30.243243    30.243243 
 1830000    286.11394    -8579.057   0.96333065    1474.6132   -21.297482    30611.147   -40676.813    32089.961    17.097134   -8585.5918    27.832258    154.95752    27072.115     8.861065    11.659355    7.5423406    2643.9648    2246.7673    2663.2414    2260.3672    30.026685    30.026685    30.026685    11.995603    5.8232782    3.6275461    2.2982511    30.026685    30.026685    30.026685 
 1840000     295.4642   -8541.2583   0.96607922     1466.759   -21.358248    30652.917   -40674.098    32115.309    25.725398    -8551.342    31.441921   -51.492086    26995.092    10.076469    11.795814    7.5656225    2681.3005    2251.6214    2700.8456    2265.0341    29.998182    29.998182    29.998182    13.163556     7.431252    2.6998275    2.7454274    29.998182    29.998182    29.998182 
 1850000    297.17183   -8583.8885   0.94799156    1472.4688   -20.958363    30603.409   -40673.613    32077.644    19.191778    -8594.286    31.355839      32.3335    27510.158    10.349983    11.357549    7.1302643     2714.858    2298.1388    2734.6691    2311.8335     30.18777     30.18777     30.18777    13.846756    4.7923431    4.6236228    3.7475997     30.18777     30.18777     30.18777 
 1860000    290.07255   -8551.8824   0.94747081    1514.7005    -20.94685    30593.305   -40673.947    32105.258    23.694566   -8561.4984    30.562845    60.754586    27525.278    10.139206     10.84678    6.5720676     2691.673    2303.9742    2711.3883    2318.0671    30.193299    30.193299    30.193299    14.059198    8.3955449    1.4026505    3.7592439    30.193299    30.193299    30.193299 
 1870000    299.53137   -8559.9685   0.94283347    1429.2048   -20.844327    30668.018   -40672.145    32101.474    16.593106   -8569.0492    29.924998    -482.9313    27660.662    9.6169165    10.472067    6.3408218     2683.102    2321.6605    2702.5861      2335.78    30.242721    30.242721    30.242721    14.953363    4.8286726    2.3144272    7.0919877    30.242721    30.242721    30.242721 
 1880000    301.88874   -8570.8739   0.95511929    1510.3502   -21.115944     30578.87   -40674.323    32086.722    23.613714     -8581.38    31.621974    197.96201    27304.859    9.1589441     10.06236    6.7999332    2672.5253    2323.4113    2692.0684    2337.6568    30.112489    30.112489    30.112489     14.22908    5.2631788     2.080711    5.9018046    30.112489    30.112489    30.112489 
 1890000    302.02612   -8609.7653   0.95018071    1484.3393   -21.006761    30571.724   -40676.397    32053.404    23.665836   -8618.0252    29.266664    49.933406    27446.777    9.0612361    10.026565    7.6886441    2716.6278    2354.2398    2736.3972    2368.6331    30.164568    30.164568    30.164568    10.568493    4.9978217    1.7227538    3.4043462    30.164568    30.164568    30.164568 
 1900000    312.18279   -8574.6924   0.95095597    1521.3979   -21.023901    30563.244   -40672.074    32085.535    20.130844   -8582.7627     29.09422    148.99116    27424.401    8.7612547    10.596462    8.6419444     2738.701    2349.6337    2758.7133    2363.7757    30.156369    30.156369    30.156369    12.739623    5.7810959    2.8557264    3.6336202    30.156369    30.156369    30.156369 
 1910000    288.93063   -8597.3616   0.95391984    1533.7044   -21.089427    30532.041   -40675.283    32069.809    17.025604   -8605.5586    29.286431    561.41419    27339.192    8.0363042    11.382588    9.4578088    2776.4191    2364.9099    2796.6581    2379.2949    30.125104    30.125104    30.125104     12.17625    5.8567477    2.3331189    3.3286727    30.125104    30.125104    30.125104 
 1920000    302.84851   -8566.8646   0.95642402    1482.8701    -21.14479     30607.03   -40672.177    32092.911    18.133988   -8575.8607    30.140885   -13.604484    27267.611    6.8981157    11.164891    10.149841    2779.8252    2378.8367     2800.175    2393.3723    30.098789    30.098789    30.098789    15.412079    6.9926922    3.2762723    4.4491497    30.098789    30.098789    30.098789 
 1930000     285.3421   -8557.1489   0.94381578    1466.2203   -20.866044    30636.716   -40671.651    32100.706    23.096507   -8565.9223    29.639386   -447.56918    27631.873    6.4903813    10.017765    11.053393    2795.3179    2406.9584    2815.7572     2421.856    30.232225    30.232225    30.232225    11.565596    6.5982092   0.75083277    3.4790204    30.232225    30.232225    30.232225 
 1940000    298.89916    -8552.174   0.96928946    1528.9864   -21.429221    30579.749   -40671.285    32108.661    21.504339   -8558.7722    28.027425    837.26766    26905.686    6.4877393    8.7435776    11.069128    2730.1369    2369.5515    2750.0395    2383.9972    29.965028    29.965028    29.965028    10.375385    2.6704038    3.5484004    3.8495149    29.965028    29.965028    29.965028 
 1950000    297.37305   -8563.3932   0.95394748    1402.8085   -21.090038     30698.27   -40675.443    32102.258    19.910662   -8570.0627    27.759589   -427.83255      27338.4    6.7443887    8.1701868    10.925242    2737.1885    2386.5933    2757.1348    2401.4001    30.124813    30.124813    30.124813    10.970724    3.7734849    3.9312122    2.7726226    30.124813    30.124813    30.124813 
 1960000    297.55408   -8537.7599   0.95087905    1447.6377     -21.0222    30682.458   -40676.925    32129.035    22.082695   -8543.2067     26.46901    -104.6761    27426.619    6.6619386    7.8777205    10.626843    2752.3705    2416.9799     2772.389    2431.9978    30.157182    30.157182    30.157182    9.0691845    4.0023388    2.2288415    2.5400651    30.157182    30.157182    30.157182 
 1970000    299.22775   -8569.1463   0.95535966    1515.7775   -21.121259    30576.331   -40674.864    32089.163    24.066021   -8579.3126    31.287563    314.69354    27297.989    6.1485449    8.2082547    10.265779    2747.8245    2424.8465    2767.9572    2440.1877    30.109963    30.109963    30.109963    13.609466    6.8099831    3.2119404     3.409162    30.109963    30.109963    30.109963 
 1980000    292.24009   -8477.4738   0.94755522    1450.9235   -20.948717    30736.217   -40675.844    32190.962    17.127475   -8483.4546    26.929484     61.42197    27522.826    5.7391041    8.7113988    10.424572     2784.519    2453.4391    2804.8193    2468.8972    30.192403    30.192403    30.192403    11.229634    4.3982464    2.8501555    3.4794324    30.192403    30.192403    30.192403 
 1990000    297.42671   -8507.2819   0.94890986     1481.719   -20.978665     30674.46   -40673.963    32160.343    16.815206   -8513.9731    27.669863    450.70357    27483.536    5.3177827     9.090999    11.097745    2811.6511    2462.7072    2832.1861    2478.0527    30.178029    30.178029    30.178029    10.501296    4.7678443    2.8292891     2.727535    30.178029    30.178029    30.178029 
 2000000    299.55645   -8479.4319   0.95219723    1493.8854   -21.051343    30686.732   -40671.053     32175.85    25.818076   -8490.1247    31.744198    388.73114    27388.651    5.3072162    9.2471053    11.707163    2840.6476    2471.8925    2861.3426    2487.0842     30.14326     30.14326     30.14326    11.004299    3.7572551    3.4878907    3.1404026     30.14326     30.14326     30.14326 
 2010000    298.42251    -8544.609   0.93851548    1477.3932   -20.748864     30644.75   -40676.383    32122.015    20.877447    -8548.809    24.948862    -319.2391    27787.925     5.981724    9.5125292    12.261754    2919.3934    2517.4738    2940.7251    2532.8213    30.289031    30.289031    30.289031    9.6306192    5.0421382    2.6259656    1.6551964    30.289031    30.289031    30.289031 
 2020000    306.50176   -8553.3893   0.95812067    1490.4139   -21.182299     30616.85   -40670.383    32109.051    19.395995   -8558.7232    26.516232    407.59642    27219.325    6.9450496    9.4130083    12.578616    2929.9552    2504.2186    2951.3224    2519.4983    30.081012    30.081012    30.081012    9.7295814    3.0978613    2.1325939    3.8458693    30.081012    30.081012    30.081012 
 2030000    298.83082    -8523.441   0.95763924    1486.4998   -21.171656    30650.077   -40672.344    32133.039    24.709674   -8533.2064    30.937127      74.6691    27233.009    7.7106854    8.9734738    12.573038    2946.6674     2515.889    2968.0822    2530.9176    30.086052    30.086052    30.086052    12.326668    4.7810696    2.5682006    4.2196599    30.086052    30.086052    30.086052 
 2040000    293.59116   -8514.9357    0.9499839    1510.6755    -21.00241    30634.382   -40670.895    32144.998    21.061729   -8521.8558    27.922544    368.78401    27452.463    8.1426906    9.2889072    11.416411    2945.7907    2532.8082    2967.2983    2548.2358    30.166651    30.166651    30.166651    10.902322    3.4892044    3.3849969    3.3592145    30.166651    30.166651    30.166651 
 2050000    290.49206   -8494.3782   0.94444664    1507.8804   -20.879992     30659.95   -40674.718    32168.882    19.828467   -8502.1251    28.626849    262.10799    27613.416    8.3513444    9.9471142    10.456954     2969.298    2562.5098    2990.9343    2578.2122    30.225492    30.225492    30.225492    12.509439    6.3567407    3.3782803    2.3327453    30.225492    30.225492    30.225492 
 2060000    300.78506    -8600.203   0.94489171    1383.0345   -20.889831    30679.836   -40673.758    32063.786    19.974241    -8607.274    27.960808   -844.68775    27600.409    8.1759148    11.195265    9.5528104    2987.7299    2575.4245    3009.4911    2591.2983    30.220745    30.220745    30.220745    10.684814    4.9037178    3.1720253    2.2576837    30.220745    30.220745    30.220745 
 2070000    297.04126   -8594.3932   0.96989815    1532.2248   -21.442678    30537.292   -40675.473    32064.142     26.81764    -8602.092    29.141475    227.61756      26888.8    7.2008136    12.295071    9.0948647    2948.6031    2535.9359    2970.0753    2551.3761    29.958758    29.958758    29.958758    11.563483    7.3133257    2.7760929    1.4026653    29.958758    29.958758    29.958758 
 2080000    298.09942   -8476.1541   0.96213902    1421.3635   -21.271138    30768.977   -40677.422    32190.162    21.449456   -8482.3527    27.469798   -143.52159    27105.644    6.3843325    13.289706    8.9790236    2984.2468    2560.0974    3006.0562    2575.7668    30.039076    30.039076    30.039076    10.927428    3.5720272    3.3237836    3.5015438    30.039076    30.039076    30.039076 
 2090000    294.65022   -8602.8558   0.95454905    1526.8509   -21.103337    30533.063   -40672.932    32057.575    23.441571   -8609.4354    27.682933    236.20523    27321.171    6.3847142     13.47741    8.8858673    3011.6042    2583.7872    3033.5823    2599.4636    30.118484    30.118484    30.118484    10.162416    4.9863839    1.9887186    2.6885241    30.118484    30.118484    30.118484 
 2100000    317.67387   -8566.9108   0.94855629    1523.0328   -20.970848    30573.579   -40674.835        32099     18.58233   -8571.4788    25.538852    250.53189     27493.78     7.823004    13.315142    8.9844877    3052.0128    2599.7924    3074.3185    2615.4767    30.181778    30.181778    30.181778    11.312017    5.6245681    3.5076265    1.9451378    30.181778    30.181778    30.181778 
Loop time of 5199.68 on 20 procs for 2100000 steps with 2611 atoms

Pair  time (%) = 3023.85 (58.1546)
Bond  time (%) = 3.93705 (0.0757171)
Kspce time (%) = 1320.07 (25.3875)
Neigh time (%) = 123.217 (2.36971)
Comm  time (%) = 235.835 (4.53556)
Outpt time (%) = 1.18938 (0.0228741)
Other time (%) = 491.581 (9.45406)

Nlocal:    130.55 ave 148 max 110 min
Histogram: 1 1 1 2 2 5 2 4 1 1
Nghost:    5881.3 ave 5962 max 5774 min
Histogram: 1 0 3 2 2 2 2 4 1 3
Neighs:    71331.8 ave 90215 max 60664 min
Histogram: 3 4 2 3 1 4 1 1 0 1

Total # of neighbors = 1426635
Ave neighs/atom = 546.394
Ave special neighs/atom = 2.06281
Neighbor list builds = 51889
Dangerous builds = 0
System init for write_data ...
PPPM initialization ...
  G vector (1/distance) = 0.259802
  grid = 24 24 24
  stencil order = 5
  estimated absolute RMS force accuracy = 0.00167591
  estimated relative force accuracy = 5.04697e-06
  using double precision FFTs
  3d grid and FFT values/proc = 4332 1152
