LAMMPS data file via write_data, version 15 May 2015, timestep = 23005000

2611 atoms
6 atom types
1749 bonds
4 bond types
894 angles
3 angle types
44 dihedrals
3 dihedral types
10 impropers
1 improper types

-1.4972350864525263e+01 1.4972350864525263e+01 xlo xhi
-1.4972350864525263e+01 1.4972350864525263e+01 ylo yhi
-1.4972350864525263e+01 1.4972350864525263e+01 zlo zhi

Masses

1 15.9994
2 1.00794
3 12.0107
4 1.00794
5 12.0107
6 12.0107

Bond Coeffs # harmonic

1 1000 1
2 469 1.4
3 367 1.08
4 469 0.7

Angle Coeffs # harmonic

1 100 109.47
2 35 120
3 63 120

Dihedral Coeffs # opls

1 0 7.25 0 0
2 0 7.25 0 0
3 0 7.25 0 0

Improper Coeffs # cvff

1 2.5 -1 2

Atoms # full

1440 480 2 4.0999999999999998e-01 -8.1005349943176803e+00 -9.9654557673654018e+00 -9.7664979631944320e+00 0 4 3
1611 537 2 4.0999999999999998e-01 -1.3803156624735941e+01 -1.0233305977007984e+01 -1.2383994517297625e+01 1 0 1
130 44 1 -8.1999999999999995e-01 -8.6576792664228321e+00 -8.2690407082248498e+00 -1.2250951749913094e+01 -5 -7 1
1688 563 2 4.0999999999999998e-01 -1.4162225653559753e+01 -1.4687174324581813e+01 -1.0341646041266245e+01 -4 5 0
1204 402 1 -8.1999999999999995e-01 -1.0780049470136476e+01 -1.1728786836075713e+01 -1.3920443756095956e+01 0 3 3
1205 402 2 4.0999999999999998e-01 -1.1285747064487694e+01 -1.1448570185701140e+01 -1.3104491127688597e+01 0 3 3
109 37 1 -8.1999999999999995e-01 -9.6862118373493438e+00 -1.3350154518086628e+01 -1.1327582488148170e+01 0 0 6
111 37 2 4.0999999999999998e-01 -9.1011866047771086e+00 -1.3540336405392949e+01 -1.2116002698534110e+01 0 0 6
1206 402 2 4.0999999999999998e-01 -1.0203811507800225e+01 -1.0972949028411385e+01 -1.4231392528314982e+01 0 3 3
907 303 1 -8.1999999999999995e-01 -9.7142183347333848e+00 -9.0405897106639266e+00 -1.4801565111012808e+01 0 0 1
2088 696 2 4.0999999999999998e-01 -9.3217925883777308e+00 -1.1903965710539556e+01 -1.0427719375645705e+01 2 0 5
562 188 1 -8.1999999999999995e-01 -1.4079580073232130e+01 -5.7662674789483823e+00 -9.4316865364872555e+00 0 -1 2
1610 537 2 4.0999999999999998e-01 -1.3223451864136873e+01 -1.1681555471146714e+01 -1.1901063263983566e+01 1 0 1
276 92 2 4.0999999999999998e-01 -1.1020329365226125e+01 -8.4904035422581785e+00 -9.2717685965559937e+00 2 2 5
110 37 2 4.0999999999999998e-01 -1.0559782605817801e+01 -1.3824026587659976e+01 -1.1438710757658198e+01 0 0 6
274 92 1 -8.1999999999999995e-01 -1.1599594574581737e+01 -9.2820942197096272e+00 -9.4659536390028070e+00 2 2 5
1609 537 1 -8.1999999999999995e-01 -1.2978903219682101e+01 -1.0790606758487314e+01 -1.2283733449147292e+01 1 0 1
2087 696 2 4.0999999999999998e-01 -1.0313324555044263e+01 -1.0701089040137607e+01 -9.9412434249134556e+00 2 0 5
131 44 2 4.0999999999999998e-01 -8.6582064929361167e+00 -9.0298124849893302e+00 -1.1601909269217476e+01 -5 -7 1
2086 696 1 -8.1999999999999995e-01 -9.3712705460067802e+00 -1.0936242019077762e+01 -1.0180549565064810e+01 2 0 5
301 101 1 -8.1999999999999995e-01 -1.2698640623764810e+01 -5.3125624169957621e+00 -1.1785580560436095e+01 1 -1 3
135 45 2 4.0999999999999998e-01 -1.1857891611706853e+01 -9.4363762246293561e+00 -7.8245336704783570e+00 0 0 -1
275 92 2 4.0999999999999998e-01 -1.1931859017021546e+01 -9.2290285135621382e+00 -1.0407661923113896e+01 2 2 5
1124 375 2 4.0999999999999998e-01 -1.1286868451921976e+01 -1.2547008516772996e+01 -8.6840634274124575e+00 -1 -1 1
2452 818 1 -8.1999999999999995e-01 -1.4955982660416915e+01 -1.3739417582823181e+01 -1.4414870397877735e+01 0 -2 5
564 188 2 4.0999999999999998e-01 -1.3649985977653147e+01 -5.6977330854062238e+00 -1.0332120926426333e+01 0 -1 2
1819 607 1 -8.1999999999999995e-01 -1.3828953620746647e+01 -1.3192272869582478e+01 -9.4212286414147748e+00 4 -3 -3
1431 477 2 4.0999999999999998e-01 -1.3956544156963783e+01 -7.6630815584409913e+00 -1.4085277653361979e+01 3 -3 1
132 44 2 4.0999999999999998e-01 -9.1325730123882174e+00 -8.5438434350132866e+00 -1.3087007679104872e+01 -5 -7 1
1821 607 2 4.0999999999999998e-01 -1.4028183041804219e+01 -1.2272140092376524e+01 -9.0840440889678771e+00 4 -3 -3
1429 477 1 -8.1999999999999995e-01 -1.4292448815900116e+01 -7.3359838072702814e+00 -1.3201985388858459e+01 3 -3 1
386 129 2 4.0999999999999998e-01 -1.0898726607997894e+01 -1.4712500829981078e+01 -1.4682325696705623e+01 -1 -9 3
2264 755 2 4.0999999999999998e-01 -1.3546647017309903e+01 -6.4326384702608390e+00 -7.9097837520095098e+00 2 1 4
728 243 2 4.0999999999999998e-01 -9.6141665709140511e+00 -6.5733988702473383e+00 -1.0107622235547684e+01 1 -2 4
2570 857 2 4.0999999999999998e-01 -1.1926878330738523e+01 -1.2954078874491731e+01 -1.4579137880935304e+01 -6 -2 9
1820 607 2 4.0999999999999998e-01 -1.3517420303537993e+01 -1.3764953859120244e+01 -8.6629321348999042e+00 4 -3 -3
729 243 2 4.0999999999999998e-01 -9.6277378135637459e+00 -6.7336702836832316e+00 -8.4825574099320455e+00 1 -2 4
2453 818 2 4.0999999999999998e-01 -1.3977444560982216e+01 -1.3533398727572724e+01 -1.4421908946516101e+01 0 -2 5
2173 725 1 -8.1999999999999995e-01 -1.1005144329078302e+01 -5.0371525493879830e+00 -1.4767316512899752e+01 2 -2 6
727 243 1 -8.1999999999999995e-01 -1.0149120967815652e+01 -6.8851557259252463e+00 -9.3223442138310357e+00 1 -2 4
1123 375 1 -8.1999999999999995e-01 -1.1426343395832761e+01 -1.3221273478279372e+01 -7.9588437257088529e+00 -1 -1 1
1430 477 2 4.0999999999999998e-01 -1.4699268351948543e+01 -8.0974688424440977e+00 -1.2697338445898911e+01 3 -3 1
1797 599 2 4.0999999999999998e-01 -8.3860855468962114e+00 -5.8192727865520713e+00 -1.3506048609951604e+01 -4 -3 5
302 101 2 4.0999999999999998e-01 -1.3002467966338550e+01 -6.0575682720210491e+00 -1.2379453726887313e+01 1 -1 3
387 129 2 4.0999999999999998e-01 -9.2716094212275522e+00 -1.4715800202724262e+01 -1.4820837667695002e+01 -1 -9 3
1740 580 2 4.0999999999999998e-01 -7.6565670346722570e-02 -7.3652144678090021e+00 -1.3671482592343761e+01 6 3 3
2145 715 2 4.0999999999999998e-01 -2.0684664911478716e+00 -1.4915447358762528e+01 -1.0415336146708736e+01 0 -5 2
273 91 2 4.0999999999999998e-01 -1.8563164975913740e+00 -8.7519012640215657e+00 -1.4618746501575947e+01 1 3 2
2177 726 2 4.0999999999999998e-01 -5.8466852345724423e+00 -1.4002829666969429e+01 -1.2959137349133988e+01 2 -4 3
2153 718 2 4.0999999999999998e-01 -6.8547706245170517e+00 -7.9184982837522107e+00 -1.1579918406960449e+01 -6 -2 0
53 18 2 4.0999999999999998e-01 -4.9116416916874250e-01 -1.2906385461365510e+01 -8.3324048569631763e+00 1 4 6
2344 782 1 -8.1999999999999995e-01 -6.9659863340178152e+00 -1.1545120779565137e+01 -1.4684402855468175e+01 0 -1 -2
2592 864 2 4.0999999999999998e-01 -7.9821139709590483e-01 -1.1497123678030141e+01 -1.0201157869618347e+01 0 -2 6
21 7 2 4.0999999999999998e-01 -1.6631677505096842e+00 -7.9025111866774731e+00 -1.2062691298918811e+01 -4 1 2
1078 360 1 -8.1999999999999995e-01 -2.8810559353408411e+00 -1.2614024619544994e+01 -1.2024630933582952e+01 -5 -5 8
1270 424 1 -8.1999999999999995e-01 -2.1276645845112441e+00 -6.8738359461119085e+00 -1.0543876927129435e+01 -1 2 -2
1860 620 2 4.0999999999999998e-01 -4.9810878202243831e+00 -1.1799089853163402e+01 -9.0090561881669480e+00 3 -2 3
2346 782 2 4.0999999999999998e-01 -7.0806370767169700e+00 -1.0576242699362782e+01 -1.4464947632059580e+01 0 -1 -2
569 190 2 4.0999999999999998e-01 -1.9232578525045980e+00 -8.7366938657542885e+00 -8.0616691391919453e+00 0 -6 1
342 114 2 4.0999999999999998e-01 -3.8013712969351907e+00 -1.0188802077727351e+01 -9.3420036099041042e+00 8 1 5
20 7 2 4.0999999999999998e-01 -1.2826697114374301e+00 -9.2951630751927219e+00 -1.2825874605254235e+01 -4 1 2
1865 622 2 4.0999999999999998e-01 -1.6329382355833406e+00 -6.7709416004014162e+00 -8.5277054599533884e+00 3 5 6
1438 480 1 -8.1999999999999995e-01 -7.4573164386789239e+00 -9.2324442125621999e+00 -9.5451518801026118e+00 0 4 3
1439 480 2 4.0999999999999998e-01 -6.5991312354818685e+00 -9.3825224877118032e+00 -1.0036094631973640e+01 0 4 3
1859 620 2 4.0999999999999998e-01 -6.5393433324574826e+00 -1.2263388958249553e+01 -8.8574880444418831e+00 3 -2 3
2176 726 1 -8.1999999999999995e-01 -5.2860576413991716e+00 -1.3181690740059871e+01 -1.3066177864104493e+01 2 -4 3
19 7 1 -8.1999999999999995e-01 -1.3683586621236348e+00 -8.3042515668899171e+00 -1.2929710561334826e+01 -4 1 2
2076 692 2 4.0999999999999998e-01 -5.1487260981672200e-01 -1.4479471935542346e+01 -1.1901824390899092e+01 -6 -2 0
2013 671 2 4.0999999999999998e-01 -6.9636905635200819e+00 -8.8883843152712245e+00 -1.3314187063390342e+01 -3 -5 5
281 94 2 4.0999999999999998e-01 -5.4699711931129418e+00 -1.3573026378313886e+01 -7.6797572257759876e+00 2 6 3
2178 726 2 4.0999999999999998e-01 -5.7282048830818990e+00 -1.2557909258101439e+01 -1.3710718480814904e+01 2 -4 3
2152 718 1 -8.1999999999999995e-01 -5.8550787207245065e+00 -7.9378619702368232e+00 -1.1596388415594241e+01 -6 -2 0
2318 773 2 4.0999999999999998e-01 -3.0844463352870708e+00 -1.2367743529528971e+01 -1.3950518348153876e+01 -3 -4 5
1864 622 1 -8.1999999999999995e-01 -1.2436344766103886e+00 -7.0089361457653396e+00 -7.6378564271757394e+00 3 5 6
1595 532 2 4.0999999999999998e-01 -4.3520572519866008e+00 -8.1575140708133880e+00 -8.5762387900390458e+00 3 2 2
586 196 1 -8.1999999999999995e-01 -4.7737494090908861e+00 -5.9352063517485885e+00 -1.3965072782055937e+01 1 -7 2
1271 424 2 4.0999999999999998e-01 -2.9403394705384045e+00 -7.3179504364787586e+00 -1.0166581307255317e+01 -1 2 -2
341 114 2 4.0999999999999998e-01 -4.0620182727122511e+00 -1.0329683357916871e+01 -1.0947905980227510e+01 8 1 5
1858 620 1 -8.1999999999999995e-01 -5.6930581147558428e+00 -1.2069855118233322e+01 -8.3611251666759330e+00 3 -2 3
2591 864 2 4.0999999999999998e-01 -1.6643065578154950e+00 -1.1497954265524777e+01 -1.1585565786714247e+01 0 -2 6
588 196 2 4.0999999999999998e-01 -4.4588457160812940e+00 -5.2910973845786273e+00 -1.3267943356441984e+01 1 -7 2
1080 360 2 4.0999999999999998e-01 -3.8054356541544241e+00 -1.2838161626082616e+01 -1.2333362022439191e+01 -5 -5 8
1079 360 2 4.0999999999999998e-01 -2.5809677099985127e+00 -1.3290675967843450e+01 -1.1352232134698742e+01 -5 -5 8
2154 718 2 4.0999999999999998e-01 -5.5005835530834606e+00 -7.5875297994081343e+00 -1.0729422056671343e+01 -6 -2 0
587 196 2 4.0999999999999998e-01 -5.1184122008512052e+00 -6.7631165666267155e+00 -1.3522577174680237e+01 1 -7 2
1596 532 2 4.0999999999999998e-01 -5.0905025729992950e+00 -6.7273604229017749e+00 -8.8520391640697156e+00 3 2 2
2144 715 2 4.0999999999999998e-01 -1.3698497242291374e+00 -1.3874341161696178e+01 -9.3690382555315850e+00 0 -5 2
2143 715 1 -8.1999999999999995e-01 -1.5536558398708351e+00 -1.4061998877885527e+01 -1.0333937214183372e+01 0 -5 2
1272 424 2 4.0999999999999998e-01 -2.3997260804267864e+00 -6.0552678176687760e+00 -1.1049800730949535e+01 -1 2 -2
2590 864 1 -8.1999999999999995e-01 -1.0371426351221533e+00 -1.0967588839856639e+01 -1.1015120295044788e+01 0 -2 6
568 190 1 -8.1999999999999995e-01 -2.6531773280208686e+00 -9.3661100665611770e+00 -8.3282829564915026e+00 0 -6 1
2011 671 1 -8.1999999999999995e-01 -6.7553380946998551e+00 -8.8592503697221865e+00 -1.4291822261749608e+01 -3 -5 5
340 114 1 -8.1999999999999995e-01 -4.4539417934987959e+00 -1.0482239294095709e+01 -1.0040628315403813e+01 8 1 5
1002 334 2 4.0999999999999998e-01 -1.9731757634245994e-01 -7.1356048327764556e+00 -1.0112142196780304e+01 -3 1 8
1594 532 1 -8.1999999999999995e-01 -4.5351318097107747e+00 -7.4517041864128410e+00 -9.2605970492925316e+00 3 2 2
2012 671 2 4.0999999999999998e-01 -7.0029505027915810e+00 -7.9625727987466393e+00 -1.4658820282944957e+01 -3 -5 5
2317 773 1 -8.1999999999999995e-01 -2.8332296343569894e+00 -1.2470349140156072e+01 -1.4913011140233245e+01 -3 -4 5
570 190 2 4.0999999999999998e-01 -2.6769355818406062e+00 -1.0137507850324290e+01 -7.6923496873483401e+00 0 -6 1
2365 789 1 -8.1999999999999995e-01 -9.2384736342472848e+00 -7.6376519948252533e+00 -3.1110022000016659e+00 2 0 8
34 12 1 -8.1999999999999995e-01 -9.4671467376418335e+00 -8.3914280573235516e+00 -5.7021668956260871e+00 -1 -2 3
1837 613 1 -8.1999999999999995e-01 -9.1752564392268106e+00 -1.0336681118659321e+01 -2.7509166697447647e+00 -4 1 -1
1838 613 2 4.0999999999999998e-01 -1.0106977219016436e+01 -1.0605642409724098e+01 -2.5068135228700488e+00 -4 1 -1
1292 431 2 4.0999999999999998e-01 -1.4088535398755010e+01 -1.3837596464570113e+01 -3.1389761360650503e+00 3 -2 -2
134 45 2 4.0999999999999998e-01 -1.1071741119979059e+01 -8.9824444973874247e+00 -6.4671021952277972e+00 0 0 -1
182 61 2 4.0999999999999998e-01 -1.3562357899495629e+01 -7.3331389104483664e+00 -3.7611687901920021e+00 4 -5 3
35 12 2 4.0999999999999998e-01 -9.4206083581468647e+00 -8.2672253142679537e+00 -4.7109867923134612e+00 -1 -2 3
1690 564 1 -8.1999999999999995e-01 -1.2823051438274934e+01 -1.2365455371897411e+01 -5.7660692124676558e+00 3 0 -1
1691 564 2 4.0999999999999998e-01 -1.3254106153931815e+01 -1.2384640828367043e+01 -4.8639307109740937e+00 3 0 -1
2367 789 2 4.0999999999999998e-01 -9.8958470695068854e+00 -7.0502852338193946e+00 -2.6388893063755727e+00 2 0 8
1692 564 2 4.0999999999999998e-01 -1.2022741354858061e+01 -1.1766393161506084e+01 -5.7404108028715122e+00 3 0 -1
233 78 2 4.0999999999999998e-01 -1.2772902784993947e+01 -9.0797084375782973e+00 -2.0449492262191349e+00 -2 -1 5
1855 619 1 -8.1999999999999995e-01 -1.1741489245358601e+01 -1.1323845642822478e+01 -2.4867228241987807e+00 -4 -1 4
1856 619 2 4.0999999999999998e-01 -1.2591147705090563e+01 -1.1759928601550744e+01 -2.7832734568900381e+00 -4 -1 4
1839 613 2 4.0999999999999998e-01 -9.1372270209649038e+00 -9.3456758297400953e+00 -2.8793394631770397e+00 -4 1 -1
232 78 1 -8.1999999999999995e-01 -1.3021564286442931e+01 -8.1375607438160245e+00 -2.2697942790276731e+00 -2 -1 5
234 78 2 4.0999999999999998e-01 -1.2445121096783048e+01 -7.5074580540199820e+00 -1.7494924732390977e+00 -2 -1 5
36 12 2 4.0999999999999998e-01 -8.6994238696259174e+00 -8.9568852424003644e+00 -6.0036464302483861e+00 -1 -2 3
231 77 2 4.0999999999999998e-01 -1.0399835242398126e+01 -5.6975697251512507e+00 -1.2182926317637541e+00 0 1 -6
229 77 1 -8.1999999999999995e-01 -1.0944098330898600e+01 -6.5336404889088708e+00 -1.1490576017148175e+00 0 1 -6
1857 619 2 4.0999999999999998e-01 -1.1281369679652302e+01 -1.1909678632322809e+01 -1.8195498199678433e+00 -4 -1 4
2341 781 1 -8.1999999999999995e-01 -9.3933190253344208e+00 -1.2281423447067729e+01 -4.5774587237879203e+00 3 -3 -3
1291 431 1 -8.1999999999999995e-01 -1.4008729125579752e+01 -1.2847272399771807e+01 -3.2526393187073523e+00 3 -2 -2
2342 781 2 4.0999999999999998e-01 -9.4464084879807579e+00 -1.1431912013376163e+01 -4.0525378128062535e+00 3 -3 -3
125 42 2 4.0999999999999998e-01 -1.3803158500699427e+01 -9.6922435730993577e+00 -6.6180365913333752e+00 -2 0 4
2343 781 2 4.0999999999999998e-01 -8.4805895542234531e+00 -1.2370323582743474e+01 -4.9762717126498490e+00 3 -3 -3
183 61 2 4.0999999999999998e-01 -1.3732920011161625e+01 -6.8657870702069275e+00 -5.3165457986255067e+00 4 -5 3
2185 729 1 -8.1999999999999995e-01 -1.3542040687074474e+01 -5.0640603948795491e+00 -1.1863664432976844e+00 -1 -2 -4
1744 582 1 -8.1999999999999995e-01 -8.8174373359013405e+00 -5.7440098337911660e+00 -6.4937018273923801e+00 3 -1 -3
181 61 1 -8.1999999999999995e-01 -1.4200590632009142e+01 -7.2652359176639107e+00 -4.5280314180156864e+00 4 -5 3
1773 591 2 4.0999999999999998e-01 -9.8569898805680456e+00 -1.4005027980378618e+01 -4.2925994594961008e+00 -3 -2 0
230 77 2 4.0999999999999998e-01 -1.0660563464258480e+01 -7.0499741757534187e+00 -3.4095017103694758e-01 0 1 -6
2438 813 2 4.0999999999999998e-01 -1.3155501054134783e+01 -1.4813878445222576e+01 -5.8597592104754170e+00 6 0 1
133 45 1 -8.1999999999999995e-01 -1.1963360889653549e+01 -9.2165809241448784e+00 -6.8546901817434875e+00 0 0 -1
2263 755 1 -8.1999999999999995e-01 -1.3132189351589759e+01 -6.5047481787050927e+00 -7.0025598721796021e+00 2 1 4
1964 655 2 4.0999999999999998e-01 -7.5863896770465180e+00 -1.0876641892264329e+01 -1.6220014019595812e+00 3 0 3
2240 747 2 4.0999999999999998e-01 -9.6822212395665961e+00 -1.4789506355886324e+01 -2.1018762221854370e+00 3 2 1
2265 755 2 4.0999999999999998e-01 -1.2701211212160761e+01 -7.4016545424384441e+00 -6.9033281092437697e+00 2 1 4
2366 789 2 4.0999999999999998e-01 -8.3234739841689933e+00 -7.4794250800966564e+00 -2.7398283400525969e+00 2 0 8
1746 582 2 4.0999999999999998e-01 -7.8195335594668087e+00 -5.7942504726810711e+00 -6.5348606657164900e+00 3 -1 -3
1745 582 2 4.0999999999999998e-01 -9.1736524758393845e+00 -6.5591039444055408e+00 -6.0367964804866450e+00 3 -1 -3
964 322 1 -8.1999999999999995e-01 -1.0765220478553676e+01 -1.2730550636588234e+01 -1.7395706814520295e-01 -4 6 0
124 42 1 -8.1999999999999995e-01 -1.4766917023725952e+01 -9.8136028026989646e+00 -6.8556740732287462e+00 -2 0 4
1293 431 2 4.0999999999999998e-01 -1.4815439726754533e+01 -1.2401192491535715e+01 -2.8650043887019248e+00 3 -2 -2
930 310 2 4.0999999999999998e-01 -1.3107172115548606e+01 -1.4557145634604218e+01 -7.8686408466523439e-01 3 3 7
1125 375 2 4.0999999999999998e-01 -1.2099764765919005e+01 -1.2874233098456500e+01 -7.3060828534281850e+00 -1 -1 1
1685 562 2 4.0999999999999998e-01 -7.7660127848547482e+00 -1.4264032527966995e+01 -2.4309155249496861e-01 -6 -1 5
2186 729 2 4.0999999999999998e-01 -1.3441125393487148e+01 -5.7413684060994292e+00 -4.5760030942366647e-01 -1 -2 -4
1771 591 1 -8.1999999999999995e-01 -1.0122210911610519e+01 -1.4965130802282674e+01 -4.2037708362271875e+00 -3 -2 0
1866 622 2 4.0999999999999998e-01 -4.9236833204177088e-01 -6.3842251050590004e+00 -7.4248648300631315e+00 3 5 6
1251 417 2 4.0999999999999998e-01 -6.7281841455122429e+00 -5.2430288823705311e+00 -3.2044165670960236e+00 6 -5 -4
1607 536 2 4.0999999999999998e-01 -2.5571477074946181e+00 -1.0365604572422615e+01 -4.7295021627061384e+00 0 -3 3
66 22 2 4.0999999999999998e-01 -2.0339927577447163e+00 -1.4669311543146588e+01 -6.9299776736895424e+00 1 -5 5
1631 544 2 4.0999999999999998e-01 -9.5133820967714122e-01 -6.0891717857933418e+00 -4.9485931234381297e-01 4 2 -1
975 325 2 4.0999999999999998e-01 -7.2208619888259582e+00 -9.2049110211303180e+00 -7.4529769548169069e+00 0 -1 2
2 1 2 4.0999999999999998e-01 -6.8925511981270482e+00 -1.3441945519571471e+01 -2.7993449982738490e+00 -6 4 0
1632 544 2 4.0999999999999998e-01 -1.9858407724102705e+00 -7.3489713656555757e+00 -5.9189670766092917e-01 4 2 -1
662 221 2 4.0999999999999998e-01 -1.1021254786646288e+00 -5.0228621596056389e+00 -3.7027579855301180e+00 -7 6 2
280 94 1 -8.1999999999999995e-01 -5.4127066444758771e+00 -1.4511506978826935e+01 -7.3391620692347841e+00 2 6 3
1967 656 2 4.0999999999999998e-01 -2.0082141394250748e+00 -1.2386511577452339e+01 -6.3011137632637961e+00 -3 -2 -4
661 221 1 -8.1999999999999995e-01 -2.0130907276284926e+00 -5.4099169104394456e+00 -3.5600657354930689e+00 -7 6 2
432 144 2 4.0999999999999998e-01 -3.3593117580262941e+00 -5.5585153035584298e+00 -8.5430400845682897e-01 0 -2 3
3 1 2 4.0999999999999998e-01 -6.0211452089731949e+00 -1.2604692137909062e+01 -3.8976915671982955e+00 -6 4 0
888 296 2 4.0999999999999998e-01 -2.7253419576800724e+00 -1.3699043682136162e+01 -2.8420243597383692e+00 9 2 3
663 221 2 4.0999999999999998e-01 -2.0639145701494392e+00 -5.8149193721552965e+00 -2.6471472956697824e+00 -7 6 2
65 22 2 4.0999999999999998e-01 -4.2909392967315796e-01 -1.4686733782161296e+01 -7.2311471012133577e+00 1 -5 5
1966 656 1 -8.1999999999999995e-01 -1.6773187545311288e+00 -1.1517965217792870e+01 -5.9321075492915742e+00 -3 -2 -4
1233 411 2 4.0999999999999998e-01 -6.6151627212146540e+00 -6.7872893812149471e+00 -1.3399649074431181e+00 -1 2 1
887 296 2 4.0999999999999998e-01 -4.3392353436021054e+00 -1.3694236898608917e+01 -3.0910862984858003e+00 9 2 3
282 94 2 4.0999999999999998e-01 -4.5403716972311070e+00 -1.4642490973904653e+01 -6.8680940773349413e+00 2 6 3
1143 381 2 4.0999999999999998e-01 -5.4065790832270242e+00 -9.4156083190639031e+00 -1.5736345624449228e+00 2 -4 6
1142 381 2 4.0999999999999998e-01 -3.8865297814634872e+00 -9.3867377034139388e+00 -2.1697246583450411e+00 2 -4 6
431 144 2 4.0999999999999998e-01 -4.9676012357608936e+00 -5.3606571854171516e+00 -6.5190857379213618e-01 0 -2 3
973 325 1 -8.1999999999999995e-01 -7.1614508014499370e+00 -9.4358886765843586e+00 -6.4818179767795261e+00 0 -1 2
2038 680 1 -8.1999999999999995e-01 -6.6042856770999485e+00 -1.1988065963753522e+01 -5.6100683411546637e+00 0 6 4
1019 340 2 4.0999999999999998e-01 -5.5580446631103619e-01 -1.3218003298962557e+01 -1.5638524633229984e+00 6 -3 3
1 1 1 -8.1999999999999995e-01 -5.9852830630951566e+00 -1.3084539539984677e+01 -3.0210556600706013e+00 -6 4 0
2039 680 2 4.0999999999999998e-01 -7.0773012946523863e+00 -1.1138563049773843e+01 -5.8438014518288366e+00 0 6 4
2040 680 2 4.0999999999999998e-01 -6.0618473176832026e+00 -1.2293712122740979e+01 -6.3926098300493752e+00 0 6 4
886 296 1 -8.1999999999999995e-01 -3.5040202665640461e+00 -1.4239825757981896e+01 -3.1602145080383846e+00 9 2 3
2303 768 2 4.0999999999999998e-01 -2.3820618740625505e+00 -7.0034820533076347e+00 -4.6668778556286110e+00 1 -1 1
382 128 1 -8.1999999999999995e-01 -5.4522565718610938e+00 -7.5756034620224906e+00 -5.8166149296928413e+00 5 3 6
1231 411 1 -8.1999999999999995e-01 -6.7718632288706520e+00 -6.9272072086887473e+00 -2.3176653262320261e+00 -1 2 1
974 325 2 4.0999999999999998e-01 -6.3950543529748174e+00 -8.9441075055110062e+00 -6.0685167412387280e+00 0 -1 2
2112 704 2 4.0999999999999998e-01 -4.0815466884595253e-02 -1.0307642822090092e+01 -3.2238527629208953e+00 -6 1 2
2302 768 1 -8.1999999999999995e-01 -2.7640298268578736e+00 -7.4853809296132860e+00 -5.4554868082126404e+00 1 -1 1
1963 655 1 -8.1999999999999995e-01 -6.6032796189524774e+00 -1.0993374567978181e+01 -1.4809403646621355e+00 3 0 3
1968 656 2 4.0999999999999998e-01 -8.5598397485122923e-01 -1.1679545735311851e+01 -5.3849960124867771e+00 -3 -2 -4
1018 340 1 -8.1999999999999995e-01 -1.5544072133730698e+00 -1.3256658003505830e+01 -1.5274037410767569e+00 6 -3 3
1965 655 2 4.0999999999999998e-01 -6.2762443408228936e+00 -1.1760867412323330e+01 -2.0323320439498094e+00 3 0 3
1141 381 1 -8.1999999999999995e-01 -4.6048003010546079e+00 -8.8410301771515361e+00 -1.7380756396904875e+00 2 -4 6
383 128 2 4.0999999999999998e-01 -4.4802338936813157e+00 -7.7946323951641201e+00 -5.7315950440916392e+00 5 3 6
358 120 1 -8.1999999999999995e-01 -5.3705151776781310e+00 -5.1378543803445726e+00 -7.2579908914576965e+00 1 -4 5
1608 536 2 4.0999999999999998e-01 -3.3068274244135303e+00 -8.9873121723254279e+00 -4.2767360169728299e+00 0 -3 3
2304 768 2 4.0999999999999998e-01 -2.1030540526915740e+00 -7.4730970892329189e+00 -6.2058135800570327e+00 1 -1 1
1020 340 2 4.0999999999999998e-01 -1.8987893100481958e+00 -1.2482367082734550e+01 -9.9645677723641768e-01 6 -3 3
2111 704 2 4.0999999999999998e-01 -6.4379397637346791e-01 -8.9323240817245413e+00 -2.5822749613288067e+00 -6 1 2
64 22 1 -8.1999999999999995e-01 -1.2631715355367739e+00 -1.4137261264965426e+01 -7.2803878429858004e+00 1 -5 5
384 128 2 4.0999999999999998e-01 -5.5548664698059618e+00 -6.6367699454553701e+00 -6.1453898631399735e+00 5 3 6
1232 411 2 4.0999999999999998e-01 -5.9719678882056133e+00 -7.3693367941891719e+00 -2.7235212080655877e+00 -1 2 1
1606 536 1 -8.1999999999999995e-01 -2.8858814419426153e+00 -9.8332843494504925e+00 -3.9493743300121764e+00 0 -3 3
1630 544 1 -8.1999999999999995e-01 -1.6254904929384466e+00 -6.5494737363029714e+00 -1.0725018788215124e+00 4 2 -1
2400 800 2 4.0999999999999998e-01 -3.2326996239493777e+00 -1.4955732000748039e+01 -4.7973324817900238e+00 6 -3 -2
499 167 1 -8.1999999999999995e-01 -1.0357907265162085e+01 -7.7952720009232657e+00 5.7433505346378535e+00 0 0 3
116 39 2 4.0999999999999998e-01 -1.0351960607118325e+01 -1.3657117157369008e+01 3.6134219275814150e+00 -1 1 3
550 184 1 -8.1999999999999995e-01 -7.5009382037729138e+00 -1.1320088471205025e+01 3.8533498348791024e+00 -1 0 2
101 34 2 4.0999999999999998e-01 -1.0599692881086124e+01 -7.1913168175460740e+00 4.1058102331241333e+00 -6 -3 4
117 39 2 4.0999999999999998e-01 -1.1598624527638632e+01 -1.2603618671455328e+01 3.6651594403577530e+00 -1 1 3
115 39 1 -8.1999999999999995e-01 -1.1233790894130024e+01 -1.3415114665370391e+01 3.2086500945148035e+00 -1 1 3
501 167 2 4.0999999999999998e-01 -9.6204019686060356e+00 -7.4856141372956060e+00 6.3435405556902378e+00 0 0 3
500 167 2 4.0999999999999998e-01 -1.0696408327263402e+01 -8.6810425903455091e+00 6.0609314072768239e+00 0 0 3
100 34 1 -8.1999999999999995e-01 -1.0364204827527132e+01 -6.6624086264314712e+00 3.2904381413842803e+00 -6 -3 4
553 185 1 -8.1999999999999995e-01 -1.3832945414368243e+01 -7.9027805890723366e+00 4.0863423942280246e+00 0 4 -4
102 34 2 4.0999999999999998e-01 -9.6682654734163940e+00 -5.9830865817236383e+00 3.5232902810153686e+00 -6 -3 4
1055 352 2 4.0999999999999998e-01 -1.1549604839008072e+01 -8.4671257776102582e+00 9.1911670770955389e-01 -1 0 1
1054 352 1 -8.1999999999999995e-01 -1.0607706516707117e+01 -8.1635553750059771e+00 1.0630009683957358e+00 -1 0 1
2164 722 1 -8.1999999999999995e-01 -8.5475514129648307e+00 -1.1871495587642730e+01 6.9013205779452758e+00 3 -4 -2
1056 352 2 4.0999999999999998e-01 -1.0565854884737609e+01 -7.5796940839320266e+00 1.8737935289604390e+00 -1 0 1
1889 630 2 4.0999999999999998e-01 -1.3277792871040232e+01 -1.0386052677961432e+01 5.3404191720507175e+00 0 -2 -5
82 28 1 -8.1999999999999995e-01 -1.3552922122771861e+01 -1.1400806773276992e+01 6.9790576733210763e-01 5 -3 6
83 28 2 4.0999999999999998e-01 -1.4545307574565818e+01 -1.1472253656397740e+01 5.9742387646459783e-01 5 -3 6
84 28 2 4.0999999999999998e-01 -1.3309993876103443e+01 -1.0464034342843133e+01 9.4984505434018374e-01 5 -3 6
1181 394 2 4.0999999999999998e-01 -8.2587702191561139e+00 -1.4043438588515929e+01 2.4671314443706525e+00 -6 -2 -2
666 222 2 4.0999999999999998e-01 -1.4280328249434733e+01 -8.4596632678911057e+00 6.1498120271008361e-01 -4 -6 4
664 222 1 -8.1999999999999995e-01 -1.3518655900222294e+01 -8.7540223070573759e+00 1.1922490057882680e+00 -4 -6 4
1890 630 2 4.0999999999999998e-01 -1.1686297846498844e+01 -1.0593517185381021e+01 5.6417642418108809e+00 0 -2 -5
965 322 2 4.0999999999999998e-01 -1.1488110706649355e+01 -1.2596763451438580e+01 5.0395209013137610e-01 -4 6 0
665 222 2 4.0999999999999998e-01 -1.3709531231342746e+01 -8.5137680523612964e+00 2.1440234649181438e+00 -4 -6 4
1888 630 1 -8.1999999999999995e-01 -1.2367931242500159e+01 -1.0432225260055194e+01 4.9280479465576352e+00 0 -2 -5
649 217 1 -8.1999999999999995e-01 -1.3301215274148040e+01 -6.4978100582208356e+00 6.3678695736901343e+00 -3 -1 -2
651 217 2 4.0999999999999998e-01 -1.2809992646463755e+01 -6.8636259562481836e+00 7.1583815508534610e+00 -3 -1 -2
840 280 2 4.0999999999999998e-01 -1.0150085235489003e+01 -1.1168761778124061e+01 7.1036490318989660e+00 3 0 1
554 185 2 4.0999999999999998e-01 -1.3686477448174468e+01 -8.8277205504427929e+00 4.4371462199574214e+00 0 4 -4
121 41 1 -8.1999999999999995e-01 -1.3980549455641349e+01 -1.3677154371393035e+01 4.1634099913318838e+00 0 -2 0
2165 722 2 4.0999999999999998e-01 -8.9410777606654346e+00 -1.2787642062728997e+01 6.9777587054983155e+00 3 -4 -2
838 280 1 -8.1999999999999995e-01 -1.0994571075061801e+01 -1.0645313787175329e+01 7.2171215466721836e+00 3 0 1
555 185 2 4.0999999999999998e-01 -1.3476122502479607e+01 -7.2372591775761812e+00 4.7419251894502015e+00 0 4 -4
928 310 1 -8.1999999999999995e-01 -1.3575159364386341e+01 -1.4163786968587647e+01 4.5188848831649864e-03 3 3 7
210 70 2 4.0999999999999998e-01 -9.7532008113934410e+00 -9.7124270136160380e+00 7.9212251990331417e-01 6 4 -1
650 217 2 4.0999999999999998e-01 -1.4163852408646035e+01 -6.0920972220980349e+00 6.6700026438234961e+00 -3 -1 -2
161 54 2 4.0999999999999998e-01 -1.2305352269384198e+01 -5.2824400138640257e+00 5.4566501479247105e+00 3 -1 7
929 310 2 4.0999999999999998e-01 -1.3443256217164913e+01 -1.3172530387994417e+01 1.1004878086474434e-02 3 3 7
552 184 2 4.0999999999999998e-01 -8.2049714821766706e+00 -1.0609973064671363e+01 3.8635169215395546e+00 -1 0 2
1180 394 1 -8.1999999999999995e-01 -8.3346252011969639e+00 -1.3967706014317281e+01 3.4613852939362584e+00 -6 -2 -2
123 41 2 4.0999999999999998e-01 -1.3460729787047743e+01 -1.3510057001207427e+01 3.3256175950444788e+00 0 -2 0
122 41 2 4.0999999999999998e-01 -1.3759429916178066e+01 -1.4585982597632512e+01 4.5172002156306679e+00 0 -2 0
2025 675 2 4.0999999999999998e-01 -1.4798850039833752e+01 -6.7323223050755949e+00 3.5335327366577136e+00 2 2 -1
208 70 1 -8.1999999999999995e-01 -9.2028729720218614e+00 -1.0537156822245887e+01 6.6177629106186941e-01 6 4 -1
551 184 2 4.0999999999999998e-01 -7.9257659877507951e+00 -1.2212822079430563e+01 4.0036102277371821e+00 -1 0 2
2004 668 2 4.0999999999999998e-01 -7.9177658032545581e+00 -9.5239994812764852e+00 9.8091754738399395e-01 -2 2 3
435 145 2 4.0999999999999998e-01 -1.4445813825702640e+01 -1.2040331094547920e+01 5.2929635042324410e+00 1 1 4
1091 364 2 4.0999999999999998e-01 -1.0896138251305436e+01 -5.2429249773761839e+00 1.8846140940479241e+00 -7 -5 -3
2305 769 1 -8.1999999999999995e-01 -8.1498103532655968e+00 -5.1152021589794572e+00 3.8467713526870693e+00 1 -1 4
154 52 1 -8.1999999999999995e-01 -9.0618364342469917e+00 -1.4652838583896045e+01 6.9844823695086102e+00 -1 3 7
966 322 2 4.0999999999999998e-01 -1.0213369896229075e+01 -1.3525028495930629e+01 7.9609453205586433e-02 -4 6 0
433 145 1 -8.1999999999999995e-01 -1.4937873799587326e+01 -1.1299892523710914e+01 5.7508475882971819e+00 1 1 4
1182 394 2 4.0999999999999998e-01 -8.0750359327822423e+00 -1.4836724797520244e+01 3.8826333007736356e+00 -6 -2 -2
1202 401 2 4.0999999999999998e-01 -7.4928559080918253e+00 -8.7768383543419297e+00 7.3371795865255844e+00 2 -10 7
209 70 2 4.0999999999999998e-01 -9.7965107839653793e+00 -1.1341498413276927e+01 6.8744476952818623e-01 6 4 -1
1266 422 2 4.0999999999999998e-01 -4.5419459540285327e+00 -9.3776438100416826e+00 3.4207569941401417e-01 -2 -5 -3
2003 668 2 4.0999999999999998e-01 -6.4815234802942321e+00 -9.3630807890172143e+00 1.7411937847211920e+00 -2 2 3