LAMMPS data file via write_data, version 15 May 2015, timestep = 8008000

2611 atoms
6 atom types
1749 bonds
4 bond types
894 angles
3 angle types
44 dihedrals
3 dihedral types
10 impropers
1 improper types

-1.4984975377256447e+01 1.4984975377256447e+01 xlo xhi
-1.4984975377256447e+01 1.4984975377256447e+01 ylo yhi
-1.4984975377256447e+01 1.4984975377256447e+01 zlo zhi

Masses

1 15.9994
2 1.00794
3 12.0107
4 1.00794
5 12.0107
6 12.0107

Bond Coeffs # harmonic

1 1000 1
2 469 1.4
3 367 1.08
4 469 0.7

Angle Coeffs # harmonic

1 100 109.47
2 35 120
3 63 120

Dihedral Coeffs # opls

1 0 7.25 0 0
2 0 7.25 0 0
3 0 7.25 0 0

Improper Coeffs # cvff

1 2.5 -1 2

Atoms # full

2347 783 1 -8.1999999999999995e-01 -1.3294398632504958e+01 -1.3014734874511174e+01 -1.4019556087083915e+01 -1 1 4
2246 749 2 4.0999999999999998e-01 -8.2684843348894752e+00 -1.2611135658518368e+01 -1.2432974305788672e+01 1 -2 5
2245 749 1 -8.1999999999999995e-01 -9.2224206461704945e+00 -1.2749358088989169e+01 -1.2166619798847961e+01 1 -2 5
960 320 2 4.0999999999999998e-01 -1.0567962356570067e+01 -7.1542936558487593e+00 -1.0039245387880925e+01 2 1 -1
2247 749 2 4.0999999999999998e-01 -9.2823079212525386e+00 -1.3516281034267468e+01 -1.1527646097244492e+01 1 -2 5
1467 489 2 4.0999999999999998e-01 -1.0257690995997166e+01 -1.0323537201489319e+01 -1.1274974664751577e+01 0 0 1
1465 489 1 -8.1999999999999995e-01 -1.0974505077985656e+01 -1.0980569678192072e+01 -1.1041456883327577e+01 0 0 1
1466 489 2 4.0999999999999998e-01 -1.0836195277567146e+01 -1.1823561281467617e+01 -1.1561341708027612e+01 0 0 1
749 250 2 4.0999999999999998e-01 -9.8933268203878644e+00 -1.1939230098779992e+01 -1.3861294322032171e+01 -1 1 -1
854 285 2 4.0999999999999998e-01 -1.3989836757633517e+01 -1.1672441844154449e+01 -8.8187666120036905e+00 3 1 1
855 285 2 4.0999999999999998e-01 -1.2886262287212867e+01 -1.1312951690152438e+01 -9.9675206572323987e+00 3 1 1
212 71 2 4.0999999999999998e-01 -1.0980266196128714e+01 -6.7390140700575678e+00 -8.3407217828391147e+00 3 0 0
853 285 1 -8.1999999999999995e-01 -1.3863617763831154e+01 -1.1372398534227800e+01 -9.7643285884254460e+00 3 1 1
2348 783 2 4.0999999999999998e-01 -1.4132082398609544e+01 -1.2921951564758402e+01 -1.3481297941691510e+01 -1 1 4
959 320 2 4.0999999999999998e-01 -1.0382105571882111e+01 -8.7638476915648518e+00 -1.0243055537854582e+01 2 1 -1
665 222 2 4.0999999999999998e-01 -1.3992345309892947e+01 -9.1850799810395465e+00 -1.2082165988270466e+01 1 -1 2
1328 443 2 4.0999999999999998e-01 -7.7059827291789844e+00 -1.0728689882910460e+01 -1.0746036629153995e+01 5 -2 1
1888 630 1 -8.1999999999999995e-01 -1.0144151245628596e+01 -7.1791098698463260e+00 -1.3219192553759287e+01 1 -2 -2
958 320 1 -8.1999999999999995e-01 -1.0358238508615660e+01 -8.0168083142944582e+00 -9.5786707315392157e+00 2 1 -1
211 71 1 -8.1999999999999995e-01 -1.1241021690715773e+01 -6.1664139001243115e+00 -7.5634314445705311e+00 3 0 0
1059 353 2 4.0999999999999998e-01 -1.4824936557648270e+01 -1.3380322878594360e+01 -1.0445901429712011e+01 2 -3 3
1016 339 2 4.0999999999999998e-01 -9.5109292799338867e+00 -8.6422316810218121e+00 -1.2302404889883171e+01 5 -1 2
1058 353 2 4.0999999999999998e-01 -1.3349414718809932e+01 -1.4068622070879226e+01 -1.0571699150500127e+01 2 -3 3
869 290 2 4.0999999999999998e-01 -1.3144219613688948e+01 -5.4645512388794550e+00 -7.9224009817565202e+00 2 0 2
2349 783 2 4.0999999999999998e-01 -1.3450286569763913e+01 -1.3656012379217630e+01 -1.4770892740096761e+01 -1 1 4
1015 339 1 -8.1999999999999995e-01 -8.9223337306731132e+00 -9.3416667946601599e+00 -1.1896953911595100e+01 5 -1 2
72 24 2 4.0999999999999998e-01 -1.1030608455895386e+01 -8.9932289344926275e+00 -7.9037418850207342e+00 2 0 -1
1889 630 2 4.0999999999999998e-01 -1.0824188193810359e+01 -6.5188546383087775e+00 -1.2900354913040507e+01 1 -2 -2
2529 843 2 4.0999999999999998e-01 -1.4482444359791211e+01 -6.7100187844199439e+00 -9.0677490802346021e+00 3 1 1
2089 697 1 -8.1999999999999995e-01 -1.1908741909783721e+01 -5.8140619943019765e+00 -1.1371626153685664e+01 -1 2 -5
1017 339 2 4.0999999999999998e-01 -8.2209533825539385e+00 -9.6106600844061738e+00 -1.2557069724855928e+01 5 -1 2
748 250 1 -8.1999999999999995e-01 -1.0505893135234228e+01 -1.1809779845879069e+01 -1.4641069802357604e+01 -1 1 -1
1890 630 2 4.0999999999999998e-01 -1.0138740508186817e+01 -7.1955453082755199e+00 -1.4219065175870822e+01 1 -2 -2
750 250 2 4.0999999999999998e-01 -1.1351654561722405e+01 -1.2321268856746208e+01 -1.4489045959267138e+01 -1 1 -1
664 222 1 -8.1999999999999995e-01 -1.3122281335666047e+01 -9.1027766613786039e+00 -1.2568231304421047e+01 1 -1 2
1057 353 1 -8.1999999999999995e-01 -1.4306711226467572e+01 -1.4132032901956034e+01 -1.0853846544160792e+01 2 -3 3
2528 843 2 4.0999999999999998e-01 -1.3889050184215508e+01 -7.9875172898259770e+00 -9.8939611854234553e+00 3 1 1
1863 621 2 4.0999999999999998e-01 -8.1420474523257891e+00 -6.5715216321786123e+00 -1.1633015810948923e+01 1 -2 2
46 16 1 -8.1999999999999995e-01 -1.1778936539158490e+01 -1.4053197127009367e+01 -9.6780647650310954e+00 0 -1 2
1862 621 2 4.0999999999999998e-01 -8.5890537527383444e+00 -6.8427701741804832e+00 -1.0085968561667411e+01 1 -2 2
48 16 2 4.0999999999999998e-01 -1.1322456886271395e+01 -1.3170795420019886e+01 -9.5638798273497159e+00 0 -1 2
926 309 2 4.0999999999999998e-01 -7.7997343652141646e+00 -1.3181854478855579e+01 -7.7172211421345809e+00 5 1 2
1861 621 1 -8.1999999999999995e-01 -8.1734067328136142e+00 -6.1830201140882242e+00 -1.0712077260630698e+01 1 -2 2
2050 684 1 -8.1999999999999995e-01 -1.2652987236135823e+01 -7.6222391459669705e+00 -1.4915941116911910e+01 -2 3 -3
1697 566 2 4.0999999999999998e-01 -7.8484679422267103e+00 -6.3931104472595841e+00 -1.4146123488664868e+01 0 -1 0
2527 843 1 -8.1999999999999995e-01 -1.3654245894510854e+01 -7.2229341588584193e+00 -9.2936910478343293e+00 3 1 1
2090 697 2 4.0999999999999998e-01 -1.2807530659283916e+01 -6.1720370008019145e+00 -1.1118491149418951e+01 -1 2 -5
666 222 2 4.0999999999999998e-01 -1.2500433305740142e+01 -9.8240171256654314e+00 -1.2263006984810573e+01 1 -1 2
704 235 2 4.0999999999999998e-01 -1.3923656365564328e+01 -1.0035199714406883e+01 -1.4309878072110907e+01 1 -1 2
2052 684 2 4.0999999999999998e-01 -1.2813570362618096e+01 -7.7495790232640713e+00 -1.3937144766293912e+01 -2 3 -3
47 16 2 4.0999999999999998e-01 -1.1921059896142923e+01 -1.4473403117421514e+01 -8.7818100308070477e+00 0 -1 2
829 277 1 -8.1999999999999995e-01 -1.0810251630304487e+01 -1.2202089243273615e+01 -7.5083055069483642e+00 -1 1 1
158 53 2 4.0999999999999998e-01 -3.6327204189042810e+00 -5.6833557349022019e+00 -1.3335799852487460e+01 2 0 -2
414 138 2 4.0999999999999998e-01 -1.4617839171630163e+00 -7.9917613112572967e+00 -1.4347352781401659e+01 1 1 1
316 106 1 -8.1999999999999995e-01 -6.5756183488797504e-01 -1.2192533500958122e+01 -1.3344616217122764e+01 0 0 0
1294 432 1 -8.1999999999999995e-01 -4.1659043307520065e+00 -1.0037962839547951e+01 -1.4180922299218295e+01 4 -1 2
2290 764 1 -8.1999999999999995e-01 -5.8302904890191787e+00 -1.3570500102118832e+01 -1.2002250437497956e+01 1 3 1
685 229 1 -8.1999999999999995e-01 -6.7733678169268607e-01 -1.2374852259828963e+01 -8.5589998747921143e+00 0 0 0
686 229 2 4.0999999999999998e-01 -4.6816283998064101e-01 -1.2166229607836200e+01 -7.6036112079318654e+00 0 0 0
62 21 2 4.0999999999999998e-01 -8.1794732048472163e-01 -5.6530553412320437e+00 -8.0009633161032152e+00 -1 -1 -1
692 231 2 4.0999999999999998e-01 -6.6904343070318628e+00 -5.0468721066840523e+00 -1.1647716484984173e+01 2 5 2
2313 771 2 4.0999999999999998e-01 -4.6015041464741788e+00 -8.3819652963250917e+00 -1.1071782984250760e+01 0 -2 2
633 211 2 4.0999999999999998e-01 -4.0399388564469696e-01 -6.7428872604691836e+00 -1.1096753119339446e+01 -3 1 3
157 53 1 -8.1999999999999995e-01 -3.0684061442593364e+00 -5.7985169194981996e+00 -1.2518284133639980e+01 2 0 -2
927 309 2 4.0999999999999998e-01 -6.4293670370213327e+00 -1.3391368694248627e+01 -8.5803217752725516e+00 5 1 2
687 229 2 4.0999999999999998e-01 -9.1416350866419194e-02 -1.3121926888152842e+01 -8.8730403454045970e+00 0 0 0
609 203 2 4.0999999999999998e-01 -1.7456465714503047e+00 -1.3303620225804575e+01 -1.4623544446150561e+01 -1 2 4
978 326 2 4.0999999999999998e-01 -4.7415840673948040e-01 -9.2627314576680284e+00 -1.1008725347151522e+01 5 5 1
2292 764 2 4.0999999999999998e-01 -6.2903076840250005e+00 -1.2925049712687102e+01 -1.2612023026181754e+01 1 3 1
317 106 2 4.0999999999999998e-01 -5.5511854147426298e-01 -1.1197772834771905e+01 -1.3343507852644827e+01 0 0 0
1966 656 1 -8.1999999999999995e-01 -2.4620331193646070e+00 -1.0440245570728436e+01 -9.3876500903947075e+00 0 -2 -2
1213 405 1 -8.1999999999999995e-01 -7.3111100142578289e+00 -1.1938063758608603e+01 -1.4213595149430203e+01 3 1 2
1214 405 2 4.0999999999999998e-01 -7.1128198296857397e+00 -1.0970511472852554e+01 -1.4056852468921985e+01 3 1 2
1844 615 2 4.0999999999999998e-01 -1.7712201932760046e+00 -1.4662829928295645e+01 -1.0818239986611164e+01 1 -1 3
1968 656 2 4.0999999999999998e-01 -1.8128659428536960e+00 -1.1130481335675933e+01 -9.0679607593079758e+00 0 -2 -2
2291 764 2 4.0999999999999998e-01 -4.9380671466840198e+00 -1.3203003386701658e+01 -1.1739708395006486e+01 1 3 1
413 138 2 4.0999999999999998e-01 -9.1806434602612086e-01 -9.1085924841897601e+00 -1.3287257164766595e+01 1 1 1
2322 774 2 4.0999999999999998e-01 -2.0491844557496712e+00 -1.2463179269363879e+01 -1.0504096455554954e+01 -2 1 3
1967 656 2 4.0999999999999998e-01 -3.2034748206226471e+00 -1.0346872700511209e+01 -8.7231274150330744e+00 0 -2 -2
61 21 1 -8.1999999999999995e-01 -8.7994165165715010e-01 -6.6498298848796971e+00 -8.0523626590728021e+00 -1 -1 -1
412 138 1 -8.1999999999999995e-01 -1.5750605999360658e+00 -8.9297550295301775e+00 -1.4019662608214601e+01 1 1 1
447 149 2 4.0999999999999998e-01 -5.9196537065083810e+00 -9.5441630444975072e+00 -1.4182264635146050e+01 2 2 1
1327 443 1 -8.1999999999999995e-01 -6.9097340547440140e+00 -1.0968125921122581e+01 -1.0190426073472041e+01 5 -2 1
1314 438 2 4.0999999999999998e-01 -5.1556797222727671e+00 -1.0312024383415530e+01 -1.0988817237058147e+01 0 -4 -1
446 149 2 4.0999999999999998e-01 -6.7647403634895724e+00 -8.4150081645473858e+00 -1.3359110141272179e+01 2 2 1
1696 566 1 -8.1999999999999995e-01 -7.0438242758247132e+00 -6.2322569386719024e+00 -1.3574529783067785e+01 0 -1 0
2321 774 2 4.0999999999999998e-01 -2.3141696121853350e+00 -1.2674160993716043e+01 -1.2101599232292209e+01 -2 1 3
1377 459 2 4.0999999999999998e-01 -7.2337417824588242e+00 -8.6338130446296901e+00 -8.9074013799239857e+00 5 2 1
1698 566 2 4.0999999999999998e-01 -6.2270438638213630e+00 -6.1989201630372506e+00 -1.4150553297313914e+01 0 -1 0
159 53 2 4.0999999999999998e-01 -3.4626524699259811e+00 -6.5119134323919905e+00 -1.1938905240391993e+01 2 0 -2
63 21 2 4.0999999999999998e-01 -1.0096993895903204e+00 -6.9270747450107155e+00 -9.0043830876832089e+00 -1 -1 -1
1375 459 1 -8.1999999999999995e-01 -6.3414176867836343e+00 -8.1827207503933721e+00 -8.8895661911342891e+00 5 2 1
1295 432 2 4.0999999999999998e-01 -3.2407664476800520e+00 -9.6596456684670855e+00 -1.4148662517481792e+01 4 -1 2
2320 774 1 -8.1999999999999995e-01 -2.6756116191069150e+00 -1.2843289188422883e+01 -1.1184647772968139e+01 -2 1 3
1376 459 2 4.0999999999999998e-01 -5.6440886246686848e+00 -8.8349537093168173e+00 -8.5922969701976584e+00 5 2 1
445 149 1 -8.1999999999999995e-01 -6.7982561781190913e+00 -9.3332544755347691e+00 -1.3753755654007984e+01 2 2 1
1296 432 2 4.0999999999999998e-01 -4.5007449176523977e+00 -1.0179661697250120e+01 -1.3249338768358990e+01 4 -1 2
2401 801 1 -8.1999999999999995e-01 -1.9787440594467718e+00 -7.8179602964525543e+00 -1.0212963009268012e+01 3 -3 1
925 309 1 -8.1999999999999995e-01 -7.1431817892809129e+00 -1.2738291809587269e+01 -8.3273322077263039e+00 5 1 2
2403 801 2 4.0999999999999998e-01 -2.8929760909236837e+00 -7.4990733650006067e+00 -1.0463034113672744e+01 3 -3 1
2312 771 2 4.0999999999999998e-01 -5.1549281123666209e+00 -7.1361039748607054e+00 -1.0172729591441032e+01 0 -2 2
2402 801 2 4.0999999999999998e-01 -2.0531666278004135e+00 -8.6691728479836616e+00 -9.6934025024172286e+00 3 -3 1
1312 438 1 -8.1999999999999995e-01 -4.3472613438344219e+00 -1.0098713972330689e+01 -1.1537454679631072e+01 0 -4 -1
2311 771 1 -8.1999999999999995e-01 -4.4669793628718910e+00 -7.4181693997385505e+00 -1.0841467444646636e+01 0 -2 2
1329 443 2 4.0999999999999998e-01 -7.1887814700389345e+00 -1.1589762257799611e+01 -9.4584797117689909e+00 5 -2 1
1313 438 2 4.0999999999999998e-01 -3.5234569076788134e+00 -1.0345595565384457e+01 -1.1027121085882147e+01 0 -4 -1
716 239 2 4.0999999999999998e-01 -8.5309979281316757e+00 -1.0483699793058804e+01 -2.9200658157807897e+00 2 0 1
645 215 2 4.0999999999999998e-01 -1.0480995325202018e+01 -7.8286456103955491e+00 -4.6649932585487957e+00 0 1 2
715 239 1 -8.1999999999999995e-01 -8.4077087593396787e+00 -1.1417352395302631e+01 -3.2564246633150358e+00 2 0 1
1350 450 2 4.0999999999999998e-01 -1.4198059332362551e+01 -8.1229406199095457e+00 -2.0598818942225670e+00 0 0 -1
717 239 2 4.0999999999999998e-01 -8.2309016978929428e+00 -1.2028871894441197e+01 -2.4851738162153669e+00 2 0 1
2426 809 2 4.0999999999999998e-01 -1.3974501056327110e+01 -1.1367949761796620e+01 -2.0024948121128094e+00 3 2 -1
1093 365 1 -8.1999999999999995e-01 -1.2375161119145476e+01 -1.0697682021488912e+01 -4.9747891681446426e+00 1 -2 -2
1197 399 2 4.0999999999999998e-01 -1.2133604267433412e+01 -7.7417808237999441e+00 -3.1720172251367895e+00 -4 0 0
1196 399 2 4.0999999999999998e-01 -1.0942891625513248e+01 -8.5839191178494048e+00 -2.4373389942520269e+00 -4 0 0
1195 399 1 -8.1999999999999995e-01 -1.1394633769177714e+01 -8.4011477166178459e+00 -3.3105905861637535e+00 -4 0 0
430 144 1 -8.1999999999999995e-01 -9.4114988740701655e+00 -5.5834301606131280e+00 -2.0602271182343515e+00 -1 1 1
431 144 2 4.0999999999999998e-01 -1.0005438590944063e+01 -5.0978930716035329e+00 -2.7017362712981203e+00 -1 1 1
497 166 2 4.0999999999999998e-01 -1.3508385678620812e+01 -7.3612801375468910e+00 -6.8381652934748800e+00 2 -4 1
538 180 1 -8.1999999999999995e-01 -1.1874986225016190e+01 -1.4816078550448436e+01 -4.5043375803306809e+00 -2 -1 2
1349 450 2 4.0999999999999998e-01 -1.3107725982983528e+01 -9.2135026357660674e+00 -1.5226731641422617e+00 0 0 -1
2100 700 2 4.0999999999999998e-01 -1.2579267910654721e+01 -1.3903212463755056e+01 -1.9795315147613142e+00 3 3 2
432 144 2 4.0999999999999998e-01 -9.5297376696882736e+00 -5.2027966775345433e+00 -1.1430671615129260e+00 -1 1 1
987 329 2 4.0999999999999998e-01 -8.6531305160059304e+00 -7.2862961823265104e+00 -2.2640242432519244e+00 -3 0 0
643 215 1 -8.1999999999999995e-01 -1.0116112196236735e+01 -7.4126767414834740e+00 -5.4979847743126360e+00 0 1 2
2275 759 1 -8.1999999999999995e-01 -1.4522755055944792e+01 -6.5577930206506192e+00 -3.3881314023153895e+00 4 0 1
1348 450 1 -8.1999999999999995e-01 -1.4072409431912078e+01 -9.0612856750741280e+00 -1.7377556662024123e+00 0 0 -1
496 166 1 -8.1999999999999995e-01 -1.3895248475195029e+01 -7.5451990199802825e+00 -5.9345305952999983e+00 2 -4 1
2356 786 1 -8.1999999999999995e-01 -9.5514341116571462e+00 -1.3070564437306929e+01 -5.3022559434811161e+00 0 -2 3
2357 786 2 4.0999999999999998e-01 -9.3246202783767060e+00 -1.2482647548547412e+01 -4.5257548728691201e+00 0 -2 3
2277 759 2 4.0999999999999998e-01 -1.4351442432128145e+01 -6.9774472758899488e+00 -4.2795274648760042e+00 4 0 1
2433 811 2 4.0999999999999998e-01 -1.1344004921163553e+01 -9.5993925568246574e+00 -1.0991825703779767e-01 4 1 2
800 267 2 4.0999999999999998e-01 -8.3458076897128564e+00 -1.2606677225415453e+01 -3.9938778630559391e-01 -2 -3 0
818 273 2 4.0999999999999998e-01 -8.0582352459122504e+00 -5.6478827949289201e+00 -3.3139109983292308e+00 0 -1 3
644 215 2 4.0999999999999998e-01 -9.1817334969269009e+00 -7.0976081533156270e+00 -5.3315129347417951e+00 0 1 2
1423 475 1 -8.1999999999999995e-01 -1.4920455443558996e+01 -1.0111514344969940e+01 -5.9232544911212450e+00 5 1 2
831 277 2 4.0999999999999998e-01 -1.0343761320741637e+01 -1.2598360690885347e+01 -6.7174828905002695e+00 -1 1 1
70 24 1 -8.1999999999999995e-01 -1.1060930036877444e+01 -9.5110610209935658e+00 -7.0487710079515864e+00 2 0 -1
985 329 1 -8.1999999999999995e-01 -8.2799182690769584e+00 -8.1950504136858342e+00 -2.4509013579989336e+00 -3 0 0
540 180 2 4.0999999999999998e-01 -1.0969063779683401e+01 -1.4432802369539203e+01 -4.6844723870166103e+00 -2 -1 2
2425 809 1 -8.1999999999999995e-01 -1.3537126846457907e+01 -1.2264878884251353e+01 -1.9371754613915986e+00 3 2 -1
2098 700 1 -8.1999999999999995e-01 -1.2079780975894371e+01 -1.4760130116881317e+01 -1.8520576434966163e+00 3 3 2
2358 786 2 4.0999999999999998e-01 -8.7440915048259047e+00 -1.3597125206492823e+01 -5.5686697674715564e+00 0 -2 3
799 267 1 -8.1999999999999995e-01 -7.6975217478828935e+00 -1.2796646735724178e+01 -1.1367354640547749e+00 -2 -3 0
801 267 2 4.0999999999999998e-01 -7.5930877455567956e+00 -1.3785594665741190e+01 -1.2421878132471491e+00 -2 -3 0
830 277 2 4.0999999999999998e-01 -1.0841984046811540e+01 -1.1207168773977152e+01 -7.4125402190956864e+00 -1 1 1
986 329 2 4.0999999999999998e-01 -8.5032328237443870e+00 -8.8092190484523947e+00 -1.6939520798286605e+00 -3 0 0
1094 365 2 4.0999999999999998e-01 -1.2320325806446251e+01 -1.0158486005630001e+01 -4.1343694016397166e+00 1 -2 -2
498 166 2 4.0999999999999998e-01 -1.4135984912800756e+01 -8.5133742189609372e+00 -5.8657744340810289e+00 2 -4 1
1425 475 2 4.0999999999999998e-01 -1.4156298819451932e+01 -1.0756225845460971e+01 -5.9446176720144681e+00 5 1 2
2427 809 2 4.0999999999999998e-01 -1.3786736870703869e+01 -1.2816206606384526e+01 -2.7332767551397303e+00 3 2 -1
71 24 2 4.0999999999999998e-01 -1.0627961467268612e+01 -8.9788632770689816e+00 -6.3212076539393678e+00 2 0 -1
1095 365 2 4.0999999999999998e-01 -1.1903504895265304e+01 -1.0214307220313016e+01 -5.7123078801799281e+00 1 -2 -2
1551 517 2 4.0999999999999998e-01 -1.3524298455276858e+01 -1.3034149547291889e+01 -6.7735097427524860e+00 3 3 5
810 270 2 4.0999999999999998e-01 -1.3394519953301112e+01 -1.4129223965732660e+01 -4.4162897768877016e+00 0 2 0
2211 737 2 4.0999999999999998e-01 -1.2798273993019095e+01 -1.1802859503330925e+01 -3.9383172099581643e-02 3 -2 6
1549 517 1 -8.1999999999999995e-01 -1.4290039291848409e+01 -1.2706711989838137e+01 -7.3271073009969241e+00 3 3 5
2431 811 1 -8.1999999999999995e-01 -1.1193397375971090e+01 -8.7870492757753347e+00 -6.7335454078220813e-01 4 1 2
1468 490 1 -8.1999999999999995e-01 -8.3194352142434447e+00 -9.6291602823425411e+00 -1.7707478425604606e-01 -1 2 3
213 71 2 4.0999999999999998e-01 -1.0955369868270637e+01 -6.6084763071354597e+00 -6.7131205801175593e+00 3 0 0
1332 444 2 4.0999999999999998e-01 -8.0013179689999223e+00 -1.0310298151541911e+01 -6.1692909078018321e+00 5 1 0
809 270 2 4.0999999999999998e-01 -1.4826508746084574e+01 -1.3956015144983434e+01 -5.1818956336976321e+00 0 2 0
2432 811 2 4.0999999999999998e-01 -1.0505168433027066e+01 -8.2044302995717331e+00 -2.4098805602256768e-01 4 1 2
89 30 2 4.0999999999999998e-01 -1.2927706818068605e+01 -5.3836486954460216e+00 -1.2145888729007943e+00 0 1 1
808 270 1 -8.1999999999999995e-01 -1.4304162617723595e+01 -1.3717176188484091e+01 -4.3632655871218162e+00 0 2 0
1710 570 2 4.0999999999999998e-01 -1.3673038025070314e+01 -7.7661001954399120e+00 -2.0962405908049497e-01 0 3 3
2083 695 1 -8.1999999999999995e-01 -7.3208759030281199e+00 -1.4935835193902308e+01 -5.0748143233936052e+00 4 2 3
647 216 2 4.0999999999999998e-01 -2.0720118240941883e+00 -1.4565020822312750e+01 -6.7855418672174199e+00 1 2 2
1331 444 2 4.0999999999999998e-01 -7.1463476842893838e+00 -1.1202121327732071e+01 -7.2371966863992485e+00 5 1 0
96 32 2 4.0999999999999998e-01 -4.6645542109806613e+00 -1.4503526453404211e+01 -1.2701892231597061e+00 1 0 1
1849 617 1 -8.1999999999999995e-01 -5.4535530441616729e+00 -9.2995613282920004e+00 -1.8974005799900429e+00 2 1 1
144 48 2 4.0999999999999998e-01 -6.8052555557933658e-03 -6.1965105268043512e+00 -4.4847591684249686e+00 -2 -5 0
1749 583 2 4.0999999999999998e-01 -1.2698674597523887e+00 -1.4707344082980590e+01 -8.2464502622264213e-01 0 -1 1
2466 822 2 4.0999999999999998e-01 -5.0731269172822895e+00 -1.3750388634856877e+01 -6.8825800032064226e+00 -1 0 4
1642 548 1 -8.1999999999999995e-01 -1.7280747685298028e+00 -9.2884142261688023e+00 -1.5445338221144471e+00 0 -2 -2
1919 640 2 4.0999999999999998e-01 -5.5783130525071964e+00 -1.0929543753918900e+01 -2.1741575203038881e+00 5 1 0
2060 687 2 4.0999999999999998e-01 -3.8256187755521207e+00 -1.4070441398319547e+01 -3.9078391849962362e+00 0 0 1
2242 748 1 -8.1999999999999995e-01 -4.1306919628818228e+00 -7.0709629592022001e+00 -7.4314805214257262e-01 3 3 0
2142 714 2 4.0999999999999998e-01 -6.9171835437337581e+00 -7.3634006513191173e+00 -6.9856534606590133e+00 1 1 0
2464 822 1 -8.1999999999999995e-01 -5.3276157035197542e+00 -1.3471727855946865e+01 -5.9564977854368966e+00 -1 0 4
1918 640 1 -8.1999999999999995e-01 -5.4062855784803379e+00 -1.1914526651656448e+01 -2.1580358355158644e+00 5 1 0
1997 666 2 4.0999999999999998e-01 -5.6390781280904640e+00 -5.0586157878184590e+00 -5.1158267997479445e+00 4 0 2
1643 548 2 4.0999999999999998e-01 -1.0019372759207759e+00 -9.3630762791327697e+00 -2.2280501521374951e+00 0 -2 -2
1920 640 2 4.0999999999999998e-01 -6.2528313009340408e+00 -1.2397107168818591e+01 -1.9332669002506293e+00 5 1 0
1654 552 1 -8.1999999999999995e-01 -4.2387476003179803e+00 -9.7398659545070245e+00 -7.3605058929821654e+00 -1 -4 2
1655 552 2 4.0999999999999998e-01 -3.9382651615593929e+00 -8.9487177309526516e+00 -6.8277400274645501e+00 -1 -4 2
1656 552 2 4.0999999999999998e-01 -5.1640483267802075e+00 -9.9973200517448273e+00 -7.0819729345552354e+00 -1 -4 2
2244 748 2 4.0999999999999998e-01 -3.1964638702576238e+00 -7.4276156908783628e+00 -7.3531580246211092e-01 3 3 0
2140 714 1 -8.1999999999999995e-01 -7.2802027794538251e+00 -7.6365977454927787e+00 -6.0947971169661486e+00 1 1 0
1851 617 2 4.0999999999999998e-01 -6.3230334382338764e+00 -8.8330884209747964e+00 -2.0600398615624709e+00 2 1 1
709 237 1 -8.1999999999999995e-01 -1.3661810902904143e+00 -1.3402208444836059e+01 -5.5826272336483047e+00 0 3 0
2059 687 1 -8.1999999999999995e-01 -3.2399933833551824e+00 -1.3355889122763498e+01 -3.5250825362170417e+00 0 0 1
2061 687 2 4.0999999999999998e-01 -3.7685301413416390e+00 -1.2799855984333213e+01 -2.8835837403663955e+00 0 0 1
1644 548 2 4.0999999999999998e-01 -2.5808280905050580e+00 -9.6478850513085455e+00 -1.9235287518963418e+00 0 -2 -2
945 315 2 4.0999999999999998e-01 -1.2935593612109244e+00 -1.2108728437783423e+01 -6.4180225022029624e-01 1 -4 2
2243 748 2 4.0999999999999998e-01 -4.1175923537627153e+00 -6.1079611328475956e+00 -1.0124072954181500e+00 3 3 0
2085 695 2 4.0999999999999998e-01 -6.5924778370313870e+00 -1.4275259998284008e+01 -5.2568069222874190e+00 4 2 3
1330 444 1 -8.1999999999999995e-01 -7.2351976782541874e+00 -1.0301385529625161e+01 -6.8119610461001336e+00 5 1 0
710 237 2 4.0999999999999998e-01 -7.0379418084823264e-01 -1.2661915156348115e+01 -5.6977536393330492e+00 0 3 0
819 273 2 4.0999999999999998e-01 -7.1120698184051507e+00 -6.5397051912946935e+00 -4.3019238224484369e+00 0 -1 3
817 273 1 -8.1999999999999995e-01 -7.3600608730294379e+00 -5.6101942116614278e+00 -4.0288772716413206e+00 0 -1 3
2181 727 2 4.0999999999999998e-01 -1.5751605718519883e+00 -1.3613892949205020e+01 -2.3658561046997679e+00 2 3 -1
2550 850 2 4.0999999999999998e-01 -2.1529174554938297e+00 -6.7775298380999622e+00 -4.1095212823397436e+00 -1 3 2
2141 714 2 4.0999999999999998e-01 -7.4112545577126179e+00 -8.6278538397048337e+00 -6.0780205470245505e+00 1 1 0
215 72 2 4.0999999999999998e-01 -5.3329893745592578e+00 -1.0035783534621219e+01 -2.0708610065078759e-01 1 0 -3
1850 617 2 4.0999999999999998e-01 -4.7129000093394762e+00 -8.6278429655292754e+00 -1.8809024871610092e+00 2 1 1
711 237 2 4.0999999999999998e-01 -1.9362005902862531e+00 -1.3217916821511356e+01 -4.7819031409582315e+00 0 3 0
2548 850 1 -8.1999999999999995e-01 -1.7719576773430035e+00 -6.1524503226702887e+00 -3.4282064581912550e+00 -1 3 2
2179 727 1 -8.1999999999999995e-01 -7.4333196040279503e-01 -1.3458749852764027e+01 -1.8329054146142987e+00 2 3 -1
678 226 2 4.0999999999999998e-01 -3.4503589127530567e+00 -6.6823272750741882e+00 -6.0077671189195190e+00 -1 0 -1
2549 850 2 4.0999999999999998e-01 -2.4957244938783525e+00 -5.8586961665488388e+00 -2.8037749268371499e+00 -1 3 2
676 226 1 -8.1999999999999995e-01 -3.0314953023821580e+00 -7.5439812132100688e+00 -6.2943860425062770e+00 -1 0 -1
2465 822 2 4.0999999999999998e-01 -4.6021349299245209e+00 -1.2903444047220816e+01 -5.5681991761333283e+00 -1 0 4
677 226 2 4.0999999999999998e-01 -2.3014839315441460e+00 -7.3572593752392939e+00 -6.9518532135275795e+00 -1 0 -1
1450 484 1 -8.1999999999999995e-01 -1.2285963736408018e+01 -1.2410197709024066e+01 3.3867412851074228e+00 -1 -1 5
2129 710 2 4.0999999999999998e-01 -1.1133986547671203e+01 -7.0801071549174308e+00 6.5639833400809309e+00 -2 1 -1
2428 810 1 -8.1999999999999995e-01 -1.0265441682369879e+01 -1.4204316121560609e+01 4.9099921017293440e+00 5 1 2
1452 484 2 4.0999999999999998e-01 -1.3177261587038849e+01 -1.2509729342939433e+01 3.8291509008415652e+00 -1 -1 5
2210 737 2 4.0999999999999998e-01 -1.2099060300486622e+01 -1.1575748566397117e+01 1.4187891897070912e+00 3 -2 6
2209 737 1 -8.1999999999999995e-01 -1.2062430739924348e+01 -1.1333901824341655e+01 4.4914326426751572e-01 3 -2 6
1451 484 2 4.0999999999999998e-01 -1.2032529119697589e+01 -1.3273232728778368e+01 2.9497217081137990e+00 -1 -1 5
195 65 2 4.0999999999999998e-01 -1.2571544343764966e+01 -8.7169303321782419e+00 3.4986839100537424e+00 0 2 2
966 322 2 4.0999999999999998e-01 -1.4239373751415597e+01 -8.6734820006015632e+00 2.0871613335903731e+00 -7 4 2
712 238 1 -8.1999999999999995e-01 -7.6293279616030194e+00 -1.4798313914918456e+01 5.7184226426199487e+00 -3 1 2
2192 731 2 4.0999999999999998e-01 -1.4696051462538435e+01 -1.0198127073594350e+01 3.3437425966037111e+00 1 -2 2
713 238 2 4.0999999999999998e-01 -8.5465332323860164e+00 -1.4472966021340785e+01 5.4883619910574666e+00 -3 1 2
2044 682 1 -8.1999999999999995e-01 -1.4896189414727019e+01 -5.4746697729939342e+00 1.9244882399014678e+00 0 -1 -1
442 148 1 -8.1999999999999995e-01 -9.4732874887136909e+00 -9.2361126275279624e+00 2.3264658219431418e+00 -4 0 1
1570 524 1 -8.1999999999999995e-01 -9.5114767485415861e+00 -6.8997134063538592e+00 4.3193138853212254e-01 0 -1 2
330 110 2 4.0999999999999998e-01 -1.3409629793682379e+01 -6.5004840346472132e+00 5.7399569730094981e+00 1 2 1
2592 864 2 4.0999999999999998e-01 -1.1283734280108746e+01 -1.1351340321644381e+01 4.3167981698851392e+00 4 0 4
329 110 2 4.0999999999999998e-01 -1.3890113315350959e+01 -7.0019301322035394e+00 4.2619742545577424e+00 1 2 1
2590 864 1 -8.1999999999999995e-01 -1.0905374763297740e+01 -1.0515339268134607e+01 4.7142789909377960e+00 4 0 4
2591 864 2 4.0999999999999998e-01 -1.0742790107372699e+01 -1.0654645505418125e+01 5.6911130029183994e+00 4 0 4
328 110 1 -8.1999999999999995e-01 -1.4194956821624814e+01 -6.7824175309339996e+00 5.1887586380948285e+00 1 2 1
1572 524 2 4.0999999999999998e-01 -1.0057268744736479e+01 -6.5252858240230562e+00 1.1815711346155382e+00 0 -1 2
2191 731 1 -8.1999999999999995e-01 -1.4519023052004437e+01 -1.0570466648191049e+01 4.2548237263425968e+00 1 -2 2
444 148 2 4.0999999999999998e-01 -9.8245257593284308e+00 -9.8987787963961189e+00 2.9879413596146875e+00 -4 0 1
1168 390 1 -8.1999999999999995e-01 -8.3929663370776719e+00 -6.9147232094386144e+00 3.5818681759837538e+00 2 1 1
1169 390 2 4.0999999999999998e-01 -7.4997806212204141e+00 -6.4776885590188975e+00 3.6880032586060381e+00 2 1 1
193 65 1 -8.1999999999999995e-01 -1.2895738873663333e+01 -7.9683323252730389e+00 2.9202864758446232e+00 0 2 2
194 65 2 4.0999999999999998e-01 -1.2178545984968622e+01 -7.2763469419021991e+00 2.8376110537441974e+00 0 2 2
1402 468 1 -8.1999999999999995e-01 -9.7012775147818235e+00 -8.0195903623687315e+00 5.6349020792937452e+00 1 -4 0
1403 468 2 4.0999999999999998e-01 -9.9636461578473074e+00 -8.9101678603100893e+00 5.2633121709180273e+00 1 -4 0
378 126 2 4.0999999999999998e-01 -1.0346005607429671e+01 -1.2355613942076968e+01 8.2978680778995439e-01 -1 1 -1
443 148 2 4.0999999999999998e-01 -8.6545089907258621e+00 -8.7973890734924822e+00 2.6968279047623795e+00 -4 0 1
2429 810 2 4.0999999999999998e-01 -1.0839280505776529e+01 -1.4975823749152790e+01 5.1848186622623516e+00 5 1 2
1956 652 2 4.0999999999999998e-01 -1.4003891195112251e+01 -1.2478108950425202e+01 5.7443302295763452e+00 2 1 0
2128 710 1 -8.1999999999999995e-01 -1.1837173382986400e+01 -6.4415590829921516e+00 6.8767600694790225e+00 -2 1 -1
2430 810 2 4.0999999999999998e-01 -1.0829392611816939e+01 -1.3382777421446436e+01 4.8258602108178010e+00 5 1 2
1170 390 2 4.0999999999999998e-01 -8.7501732543443005e+00 -7.1658716505920044e+00 4.4815194163652130e+00 2 1 1
376 126 1 -8.1999999999999995e-01 -9.4498839440860181e+00 -1.2765835788356789e+01 9.9928206583373047e-01 -1 1 -1
2125 709 1 -8.1999999999999995e-01 -1.2479686720238330e+01 -1.4966832021774616e+01 2.5373845794349776e+00 2 -2 2
377 126 2 4.0999999999999998e-01 -9.5308753626923846e+00 -1.3762424479473921e+01 9.8207704866938528e-01 -1 1 -1
1553 518 2 4.0999999999999998e-01 -1.4212992978034556e+01 -1.4726764885773957e+01 6.8444406810506386e+00 0 -3 -2
164 55 2 4.0999999999999998e-01 -7.9869002430475708e+00 -1.2262736893832686e+01 1.9107030754414005e+00 0 1 -2
1571 524 2 4.0999999999999998e-01 -8.5459848187853851e+00 -6.6888311230507753e+00 5.8489753203213013e-01 0 -1 2
1454 485 2 4.0999999999999998e-01 -9.9838058156789167e+00 -6.1838917817623180e+00 3.0809064635949071e+00 2 1 0
1954 652 1 -8.1999999999999995e-01 -1.4164593408449541e+01 -1.3286448215510498e+01 5.1779318946725184e+00 2 1 0
2045 682 2 4.0999999999999998e-01 -1.4597840185451332e+01 -6.1779685058693659e+00 1.2791950514647219e+00 0 -1 -1