2611
Atoms. Timestep: 8000000
O -0.966841 6.6139 2.10434
H -1.5163 7.10147 1.42586
H -1.09575 5.62865 1.99196
O 10.5704 -12.0211 -9.09263
H 9.62962 -11.9663 -8.75801
H 11.1217 -12.5546 -8.45125
O 7.11476 4.59618 8.8596
H 7.424 3.71519 9.21763
H 7.57893 5.3356 9.34723
O 9.56885 -9.14017 -12.6661
H 10.1672 -8.46464 -13.0969
H 8.80847 -8.67259 -12.2153
O 6.8031 -14.4527 13.5249
H 7.57632 -14.7916 14.0608
H 5.97684 -14.9567 13.7763
O 3.18368 -10.7251 -0.496882
H 4.00203 -10.2872 -0.869127
H 3.44318 -11.3343 0.252471
O -9.25523 6.60377 2.70795
H -9.56426 6.21251 3.57477
H -9.30635 7.60131 2.75549
O 1.02537 -10.0903 11.5339
H 1.4443 -9.84691 12.4086
H 1.16201 -11.0653 11.3587
O -6.36325 -0.211825 -1.85742
H -6.51048 0.70808 -2.22082
H -7.09345 -0.816582 -2.17528
O 10.597 -3.48106 7.32612
H 11.2829 -3.32431 6.61559
H 10.8141 -4.32366 7.81891
O -13.5929 4.49353 -4.86226
H -13.702 4.73359 -5.82685
H -13.1171 3.61708 -4.78865
O -5.67917 6.60675 7.55809
H -6.4275 6.37159 6.93788
H -5.10471 5.80199 7.70749
O -9.82315 -14.0742 10.4764
H -9.32609 -14.6126 11.1568
H -10.3771 -13.382 10.9389
O -9.00449 -1.81916 -1.90341
H -9.55137 -1.70966 -2.73341
H -9.54327 -1.53705 -1.10963
O -1.59903 6.8517 -6.86436
H -2.19134 6.10575 -7.16881
H -1.12528 6.5804 -6.02656
O -11.9123 -13.6032 -8.78098
H -12.5766 -13.0283 -9.25881
H -11.0637 -13.0913 -8.64731
O -4.76971 11.5422 -1.94643
H -4.22608 10.811 -2.35834
H -5.01663 12.21 -2.64864
O -5.26957 5.75708 2.01003
H -5.22996 5.4418 2.95818
H -6.17021 5.55084 1.62755
O 9.4829 -4.83586 -3.77828
H 9.5225 -4.43932 -4.69543
H 9.23082 -5.80136 -3.8432
O -3.35545 -2.85978 -6.41227
H -4.33073 -3.07287 -6.35413
H -2.85847 -3.38101 -5.71851
O -0.423315 -6.09948 -4.99505
H -1.34919 -5.72202 -5.01071
H 0.173386 -5.49685 -4.46519
O 7.13504 2.00998 9.59904
H 7.47048 1.8207 8.6762
H 7.15504 1.16916 10.1399
O -10.787 -4.05838 4.29945
H -11.4776 -4.65906 4.70211
H -11.2385 -3.32555 3.79048
O -13.3808 -10.5048 -6.30412
H -13.6628 -10.9287 -7.16478
H -13.8794 -10.9256 -5.54626
O 13.4218 12.6944 8.89761
H 13.6133 12.3235 9.80631
H 13.6689 13.6631 8.87411
O 5.68158 -2.66099 1.99395
H 6.27377 -2.43138 1.22158
H 6.08254 -2.306 2.83844
O 4.68491 3.272 3.1242
H 4.80365 4.10342 2.58143
H 5.07284 3.41057 4.0354
O 11.582 8.49216 -7.31811
H 11.6597 7.51807 -7.53041
H 11.8914 9.02993 -8.10237
O 1.65764 6.51073 3.12602
H 0.740108 6.77895 2.83249
H 2.22506 7.32705 3.23377
O -11.5516 -3.15171 -0.852061
H -10.7212 -3.0092 -0.313379
H -11.3594 -3.78884 -1.59846
O -6.19941 12.5243 2.5249
H -6.619 13.4018 2.75716
H -6.44841 12.273 1.5896
O -3.53038 -13.0208 -2.6918
H -3.50477 -13.8243 -3.28659
H -4.44841 -12.9189 -2.30866
O -2.93784 0.838 11.5967
H -3.12405 0.920909 10.6177
H -2.16306 1.42183 11.8392
O -13.1828 5.85415 9.27162
H -13.8677 5.132 9.36795
H -13.1255 6.37495 10.1234
O 13.0207 -13.7262 3.62258
H 13.7358 -14.2466 4.08914
H 13.2977 -13.5523 2.67759
O -7.48822 3.71086 8.94007
H -6.77119 3.72725 9.6369
H -8.12409 4.46623 9.09829
O -11.0211 5.04046 11.7431
H -11.7458 4.65256 11.1736
H -11.0166 4.58469 12.6332
O 7.99268 -7.05444 9.78748
H 7.03372 -6.8887 10.0175
H 8.35487 -6.27038 9.28346
O -7.60592 7.70517 -3.09525
H -7.79936 8.60442 -2.70296
H -7.51368 7.78726 -4.08758
O -2.99758 11.2312 6.24376
H -3.84797 10.7481 6.0355
H -2.8681 11.9756 5.58866
O 6.49906 11.0241 3.08354
H 6.179 10.1676 2.67872
H 6.07114 11.7957 2.61279
O 12.5462 -1.98228 11.3295
H 12.3464 -2.92614 11.5924
H 13.4778 -1.74879 11.6082
O 11.5086 -5.11515 14.5778
H 11.5648 -4.14319 14.806
H 12.3982 -5.54542 14.7307
O 12.8596 1.92888 2.3092
H 13.5924 1.3934 2.72894
H 12.6203 1.52997 1.42399
O 0.436841 -2.96865 7.92775
H 0.0840197 -2.22824 8.49983
H -0.190046 -3.12836 7.16521
O 14.7446 10.1555 -4.13002
H 13.9839 10.4704 -4.69749
H -14.4143 10.5529 -4.4666
O 0.182019 -13.6906 2.80057
H -0.573476 -14.3428 2.86316
H 0.0273608 -13.0745 2.02829
O 0.330769 -3.78518 -3.42354
H 0.107709 -2.89036 -3.81019
H 1.30908 -3.82608 -3.22055
O -14.5989 12.2781 -0.405686
H -13.8563 11.6571 -0.656202
H 14.6303 12.1204 -1.00681
O 13.5111 14.2696 13.542
H 12.9982 14.0823 14.3797
H 14.2779 13.6316 13.4709
O -9.7291 -12.2059 -8.62197
H -9.00709 -12.2718 -7.93326
H -9.32217 -12.2323 -9.53503
O -13.7839 2.39597 5.11774
H -14.1707 2.25106 4.20703
H -14.1667 1.72522 5.75299
O -3.60729 -4.00161 -13.3876
H -3.07127 -3.68524 -14.1702
H -3.76232 -4.98639 -13.466
O 8.9968 -5.01207 -0.739053
H 9.20621 -5.57679 -1.5373
H 9.30957 -5.47678 0.089307
O -5.88191 -12.5707 2.67849
H -5.78749 -12.109 1.7965
H -4.97493 -12.7804 3.04371
O 6.09025 13.6562 -8.70358
H 7.082 13.6475 -8.57583
H 5.72603 14.5446 -8.42418
O 12.0861 9.51113 12.2265
H 11.6007 10.1036 12.8694
H 12.7984 9.00473 12.7124
O -14.4784 -2.43053 14.2303
H -13.6366 -2.89524 14.5051
H -14.8954 -1.99651 -14.9837
O -1.02141 10.9255 -9.17538
H -0.127559 10.4927 -9.29262
H -1.06608 11.3597 -8.27571
O 1.22241 7.66663 -10.7439
H 1.19528 8.453 -10.1268
H 2.11657 7.62333 -11.1895
O -5.53897 3.31039 13.0135
H -6.52354 3.29092 12.8397
H -5.04833 3.37458 12.1445
O 1.51338 8.05254 10.6878
H 1.66399 7.49438 9.87188
H 0.670591 7.76097 11.1402
O 2.39141 -11.4185 -4.27884
H 2.56972 -12.37 -4.02812
H 2.05627 -10.9203 -3.4792
O 11.3081 -8.8204 -5.2564
H 12.2112 -8.77526 -5.68345
H 10.7994 -9.59436 -5.63346
O -9.56462 -6.22084 2.64696
H -9.71067 -5.50179 3.32637
H -9.25281 -7.05347 3.10463
O -1.32384 4.03615 14.5266
H -1.86547 4.76216 14.1029
H -0.953117 4.36132 -14.616
O 13.6343 -2.04299 -3.28828
H 14.6196 -2.20689 -3.33619
H 13.1929 -2.80236 -2.81021
O 9.61413 5.41587 -13.5796
H 9.94725 5.84746 -14.4179
H 8.78696 4.89121 -13.7809
O 2.75224 0.234313 14.0474
H 2.0783 0.95008 14.2303
H 3.16163 0.384095 13.1474
O -11.2072 14.394 8.91298
H -12.0978 14.1705 9.30923
H -10.6292 14.818 9.61011
O -10.8817 -4.99333 -7.43103
H -9.92016 -5.04728 -7.70026
H -11.2606 -5.91613 -7.36122
O -4.48898 -8.92566 1.27701
H -4.11683 -8.04709 0.977713
H -5.30105 -8.76951 1.83927
O -13.7772 3.69048 12.5821
H -14.6124 3.37925 12.1287
H -13.0819 2.97383 12.5282
O -5.52488 -5.56546 2.25088
H -4.59981 -5.89439 2.06114
H -5.48012 -4.78851 2.87882
O 8.70325 -7.70404 -2.00471
H 7.80271 -7.85253 -1.59611
H 9.41328 -7.95047 -1.3451
O -2.58409 -3.56526 -1.02159
H -1.9528 -2.82398 -0.793687
H -3.26851 -3.23256 -1.67032
O 12.1796 6.55855 8.96785
H 12.1796 6.39054 7.98209
H 13.0383 6.9982 9.23108
O 8.78972 8.57238 6.47714
H 9.58431 9.11798 6.74345
H 8.02833 9.18027 6.25194
O 7.67386 5.2798 13.324
H 6.8833 4.67571 13.4243
H 8.46301 4.87552 13.7864
O 0.570355 -4.89662 10.8716
H 0.320592 -5.82216 11.1561
H -0.0834055 -4.56987 10.1892
O -7.20677 13.787 7.11723
H -7.49223 13.0372 7.7141
H -6.20805 13.8259 7.08529
O -1.058 2.69153 12.0166
H -1.512 2.97537 12.8612
H -1.40196 3.23834 11.2533
O -3.58575 3.46392 0.99776
H -3.8067 3.3787 0.0262245
H -4.06151 4.25631 1.37952
O 8.53033 7.49068 0.436389
H 8.49428 8.39625 0.0137589
H 8.41231 6.78969 -0.266919
O -9.68626 3.19083 -12.8253
H -9.09549 3.01274 -12.0384
H -9.6191 4.15523 -13.081
O -9.31321 -11.0946 1.09468
H -9.51246 -11.9826 0.680369
H -10.0668 -10.8311 1.69686
O 5.28715 -7.64436 -4.64579
H 5.37056 -7.39293 -5.61004
H 4.5922 -7.07173 -4.21093
O 0.766792 7.61267 -0.517492
H 1.10441 8.31702 0.106913
H -0.219474 7.50293 -0.394212
O -10.4487 10.1626 10.2276
H -11.0875 10.3 10.9845
H -10.3847 11.0026 9.68879
O -13.8844 -5.63224 -10.9411
H -12.9408 -5.30694 -11.0018
H -14.2188 -5.85764 -11.8562
O 6.90863 -1.15886 -10.9854
H 7.26748 -1.49428 -11.8564
H 6.15749 -0.521607 -11.1576
O 10.1243 -10.9047 -1.43664
H 10.3712 -11.4227 -0.617655
H 10.8569 -10.9814 -2.11298
O 13.384 -13.6913 0.898097
H 14.2656 -13.3322 0.591997
H 12.9992 -14.2804 0.187536
O -1.39605 7.88787 -12.3683
H -0.801322 7.79116 -11.5702
H -1.53476 6.99235 -12.791
O -4.42459 -6.70071 10.571
H -3.85858 -7.24098 11.1937
H -5.34685 -6.6155 10.9481
O 12.1598 -13.1928 -7.03002
H 12.7662 -13.7314 -7.61504
H 12.6996 -12.7299 -6.32697
O 6.70808 10.4405 5.86764
H 7.05108 11.152 6.48096
H 6.49595 10.8422 4.97682
O 9.33075 -12.2852 -11.9139
H 9.63516 -12.5802 -11.0082
H 9.43827 -11.2944 -11.9953
O 2.0573 8.63539 6.72552
H 2.2951 8.59718 5.75498
H 1.47544 9.43079 6.89505
O 4.24776 11.4557 14.2626
H 4.48797 10.508 14.0522
H 3.28494 11.6122 14.0425
O 14.9109 9.86245 -9.0468
H 14.6705 8.91381 -8.84119
H 14.0873 10.3658 -9.30838
O -5.70759 -11.3667 10.244
H -5.5488 -11.9 9.41316
H -6.45693 -10.723 10.0887
O 11.0462 10.5415 -12.0018
H 11.2637 11.5173 -11.9767
H 10.1474 10.4111 -12.4203
O 0.724574 2.48386 8.09504
H 1.47645 1.94739 7.71184
H 0.661507 2.31425 9.07851
O 5.09448 0.879463 -11.5226
H 4.4688 0.705782 -10.7622
H 4.67614 1.52995 -12.1565
O -1.65777 -10.74 -12.6419
H -1.49164 -10.0259 -11.9618
H -1.34997 -10.4237 -13.5392
O -4.40927 13.4627 13.5864
H -4.92752 14.3008 13.7566
H -4.27455 12.9734 14.4481
O -11.5249 8.67012 6.4651
H -10.8746 8.52237 7.21021
H -12.4534 8.49805 6.79408
O -3.66246 -10.3859 14.3918
H -3.7925 -11.3123 14.0385
H -2.70196 -10.2544 14.637
O -12.8708 -11.2775 7.08251
H -12.0854 -11.8672 7.27066
H -13.2819 -11.5385 6.20911
O 14.5488 -10.5697 13.3908
H 13.6404 -10.2584 13.6699
H -14.8007 -10.345 14.1048
O -12.1143 10.293 12.3946
H -11.8595 11.0396 13.009
H -12.0565 9.42336 12.8849
O 8.16248 14.6268 1.59338
H 8.36174 13.9839 2.33288
H 8.13178 -14.4558 1.95954
O 3.04235 -10.554 7.99418
H 3.57021 -10.9554 8.74261
H 3.05704 -11.1711 7.20746
O 9.63243 -1.47477 8.82422
H 9.9302 -2.22046 8.2282
H 9.66228 -1.77731 9.77687
O 5.2844 -9.06411 8.2093
H 5.09015 -8.08318 8.20797
H 4.45378 -9.56869 7.97384
O -7.54559 14.1347 -9.23698
H -8.16334 13.9754 -8.46694
H -6.83607 14.7852 -8.96603
O 8.78436 1.34583 -13.2572
H 8.60233 2.08792 -13.9022
H 8.35664 1.55598 -12.378
O -12.5578 0.356849 1.73407
H -13.0123 0.520688 0.858534
H -12.0527 1.17597 2.00584
O -4.80626 8.43049 0.9839
H -5.05232 7.75161 1.67566
H -5.63293 8.74724 0.518884
O 11.6946 -0.583758 -1.79664
H 10.9819 -1.23255 -2.06306
H 12.5495 -0.819477 -2.25876
O 10.9343 4.89054 10.8447
H 10.2351 5.45315 11.2857
H 11.3582 5.40774 10.1011
O 5.89378 7.91258 4.64389
H 6.39633 7.42996 5.36116
H 6.08491 8.89226 4.70447
O 7.384 -0.663187 7.1184
H 8.24825 -0.996874 7.49482
H 7.45379 0.318865 6.94329
O -14.4582 5.24352 14.739
H -14.2724 4.84449 13.8411
H -13.6042 5.31768 -14.7586
O -5.26707 -10.7388 -0.847612
H -6.16786 -10.8598 -1.26462
H -5.34984 -10.1572 -0.0383854
O 6.75225 -10.4722 1.3979
H 5.86312 -10.9289 1.36822
H 7.34065 -10.9313 2.06351
O 8.50735 10.2711 -13.09
H 8.86365 10.2941 -14.0241
H 7.93437 11.0753 -12.932
O 7.89764 -10.8915 3.90543
H 8.68861 -10.3114 4.09973
H 7.30863 -10.9333 4.71245
O -5.96198 -8.13497 3.70968
H -6.03478 -7.21494 3.32471
H -6.83611 -8.39468 4.12007
O -4.31916 2.67012 -1.88957
H -4.95495 3.28057 -1.41725
H -4.75224 2.31356 -2.71737
O -13.16 8.74665 -13.8651
H -13.8455 9.32292 -13.4203
H -12.4036 8.57983 -13.2326
O 10.42 -4.49639 -6.90779
H 10.0804 -5.43257 -6.81711
H 11.379 -4.46097 -6.62655
O -0.173038 14.3286 13.8162
H 0.0743937 14.611 14.743
H -0.305198 -14.8738 13.2451
O -6.84263 1.93907 6.88572
H -6.09878 1.53229 7.41599
H -7.0973 2.81809 7.28873
O -9.28303 1.0607 10.7242
H -8.71648 1.83642 10.4463
H -8.69571 0.286061 10.9586
O -3.32651 8.07701 6.91835
H -3.03877 8.05628 5.96089
H -4.07216 7.42518 7.05649
O -1.16683 -6.98892 -14.4898
H -2.04364 -6.81456 -14.9378
H -0.594209 -6.17122 -14.5483
O 12.1061 14.6915 -1.00208
H 11.2746 -14.7711 -0.924303
H 11.8697 13.7211 -0.952584
O 13.3305 5.77336 -13.6985
H 12.991 4.89191 -14.0268
H 14.3083 5.84796 -13.8947
O -2.28934 -8.3732 4.9971
H -1.87108 -8.53638 4.10358
H -1.60816 -8.51622 5.7151
O 13.8902 -14.5773 9.20186
H 13.8722 -13.9643 8.41196
H 13.2409 -14.2533 9.88996
O 4.01916 -2.97523 -0.544875
H 3.72508 -3.86313 -0.191163
H 4.65484 -2.55297 0.10132
O -7.95816 -4.45615 -1.83337
H -7.04979 -4.47719 -1.41575
H -8.20121 -3.51187 -2.05525
O -0.414584 3.7469 2.08248
H -1.03028 3.23567 1.48287
H 0.390812 3.19022 2.28597
O 10.7009 -6.14824 8.40477
H 10.2038 -6.89002 8.85496
H 11.4841 -6.52423 7.9096
O 13.7268 -5.21333 7.53801
H 13.2841 -4.73654 6.7786
H 14.5395 -4.70484 7.82243
O -7.7512 -6.78997 0.436727
H -6.87699 -6.44424 0.777595
H -8.47889 -6.54597 1.07773
O -3.52663 -10.2631 -9.69027
H -3.64178 -10.6994 -8.79788
H -2.59633 -9.90487 -9.76855
O -9.68379 1.3754 -4.27105
H -9.9831 0.422067 -4.23184
H -8.70434 1.42554 -4.07579
O 5.03541 -2.72857 -6.627
H 5.07874 -2.924 -7.60674
H 5.53156 -3.43605 -6.12374
O 3.09178 -10.4019 -6.76081
H 3.16291 -10.7162 -5.81419
H 2.17807 -10.0281 -6.92014
O 7.03958 -13.0862 -1.75399
H 7.20623 -12.133 -1.50178
H 6.33465 -13.4704 -1.1578
O -9.72686 12.0024 8.31226
H -10.2347 12.8605 8.38786
H -9.99724 11.5277 7.47464
O -11.6805 12.0377 14.4682
H -11.062 12.8232 14.4494
H -11.682 11.6366 -14.6284
O -8.23908 3.51349 12.6039
H -8.97327 2.86579 12.8074
H -8.48997 4.41952 12.9447
O 2.83339 -6.02666 -8.52308
H 3.55074 -6.60999 -8.14214
H 2.90663 -6.01647 -9.52033
O 12.3039 10.3101 -5.50133
H 11.9344 9.56688 -6.05904
H 11.7007 10.4725 -4.72045
O -2.98248 -0.475323 -5.00341
H -2.0631 -0.499132 -4.6108
H -3.05521 -1.16499 -5.72385
O 10.9582 8.60349 -1.47025
H 11.913 8.8757 -1.35145
H 10.9197 7.70376 -1.90496
O -9.38704 13.3305 11.7078
H -9.72509 13.6856 12.5793
H -8.80596 12.5341 11.8752
O -0.231957 -2.16539 -7.52925
H -0.568842 -2.70808 -8.29865
H 0.752991 -2.02333 -7.62753
O -13.5067 -1.5602 -6.32647
H -12.883 -0.912065 -6.76351
H -14.2021 -1.84896 -6.98443
O -0.234695 -9.02978 6.55327
H 0.68332 -8.84382 6.20308
H -0.167106 -9.52782 7.41777
O 1.09804 1.84658 -12.6297
H 2.056 1.91445 -12.9084
H 1.03747 1.35289 -11.7622
O 13.1725 -4.56174 -6.87376
H 13.9512 -4.62689 -6.24983
H 13.4737 -4.76573 -7.80522
O 9.37663 14.1484 -7.32104
H 8.39779 14.3304 -7.22759
H 9.86647 14.5559 -6.55038
O 14.0574 -13.0964 6.75205
H 13.244 -13.4458 6.28705
H 14.5719 -12.509 6.12735
O 13.7 -10.0185 7.42175
H 13.6468 -9.22931 6.80992
H 14.5182 -9.94387 7.99167
O -14.9124 0.250535 -13.8651
H 14.8853 -0.538197 -13.2892
H -13.9598 0.195139 -14.1643
O -8.4318 3.08164 4.72399
H -9.38424 2.79587 4.8296
H -7.83021 2.39171 5.12653
O 6.43392 -11.873 -4.61867
H 5.9415 -11.1551 -4.1266
H 7.37535 -11.9203 -4.28487
O -5.75095 -2.58507 -12.9653
H -4.94185 -3.10403 -13.241
H -5.70271 -1.66328 -13.3499
O 0.936224 -2.51035 11.9509
H 0.983859 -3.43073 11.5628
H 0.343602 -1.93936 11.3828
O 11.3925 -7.97746 10.6745
H 12.093 -7.28425 10.5052
H 10.8846 -7.7426 11.5033
O -8.2666 -1.17666 14.2189
H -8.88209 -0.560284 14.71
H -7.41728 -1.28151 14.7362
O 4.12017 12.9462 -0.712388
H 5.11888 12.9229 -0.756912
H 3.74403 12.2135 -1.27941
O -2.09754 -0.646729 -13.9938
H -1.14022 -0.879272 -14.1654
H -2.21931 0.342748 -14.0717
O 2.85901 -14.2235 -9.38862
H 3.36958 -14.5497 -8.59312
H 3.47336 -14.1575 -10.1749
O -7.95922 -12.3401 -6.41723
H -7.91234 -13.2773 -6.07162
H -7.05835 -12.0624 -6.75082
O 11.4947 3.24222 4.44674
H 11.8652 2.66234 3.72119
H 10.4971 3.26285 4.38025
O 1.44643 6.61421 -4.88277
H 1.22288 6.5339 -5.85413
H 2.22404 6.02271 -4.6697
O -13.7331 11.9644 -8.02555
H -13.9985 11.0427 -8.30816
H -14.1896 12.6363 -8.60886
O 8.46671 1.55124 -7.28523
H 8.87866 2.45953 -7.35789
H 7.94449 1.48917 -6.43471
O -13.1504 3.79753 -7.90284
H -13.8032 3.99917 -8.63299
H -13.2124 2.82994 -7.65812
O 6.77722 3.56824 -11.145
H 5.96785 3.40166 -10.5818
H 7.50657 2.93988 -10.8745
O -0.984678 7.30786 11.5534
H -1.51256 6.74194 12.1867
H -1.31515 7.16169 10.621
O -11.0875 14.6475 -11.129
H -11.3211 14.7979 -10.1684
H -11.094 -14.4909 -11.6145
O 7.75803 12.0893 7.88349
H 6.93596 12.6031 8.12876
H 8.04802 11.5329 8.66214
O 3.27114 -6.02321 -3.59305
H 2.44658 -6.34098 -3.125
H 3.0135 -5.4361 -4.36044
O 9.56631 -14.7762 14.6949
H 9.76793 -14.6301 13.7264
H 10.0451 -14.0899 -14.7703
O -7.77605 10.0315 9.76389
H -8.74284 10.2818 9.81514
H -7.56634 9.69806 8.84474
O -2.38317 7.4797 -0.510601
H -3.20723 7.852 -0.0836623
H -2.5822 6.5745 -0.886061
O 13.8814 6.54949 13.2112
H 13.74 5.88403 12.4783
H 14.4568 6.14519 13.9221
O -13.8169 7.2056 11.6848
H -14.6535 7.03518 12.2054
H -13.1323 7.62399 12.2817
O -3.33507 11.0819 -6.82538
H -2.51438 11.1311 -6.25617
H -3.28938 10.2695 -7.40663
O 1.79747 -5.09047 6.27527
H 1.56718 -4.29383 6.83409
H 1.3302 -5.89737 6.63657
O 7.8003 7.74636 14.1118
H 7.75584 6.8223 13.7322
H 7.0754 7.86306 14.7907
O 5.79108 -12.4709 5.64596
H 6.36585 -13.2711 5.47501
H 5.61226 -12.3923 6.62668
O 5.52649 14.3567 5.88852
H 4.70826 14.3889 5.31457
H 5.32554 13.8506 6.72727
O 3.31864 -11.5884 4.872
H 4.25145 -11.7905 5.17032
H 3.29732 -10.6925 4.42823
O 3.47241 10.5089 8.32755
H 2.96934 10.4432 9.18928
H 3.03114 9.93304 7.6393
O -1.09313 -9.80722 14.9124
H -0.157839 -10.1129 14.7343
H -1.08676 -8.83588 -14.8627
O -7.88859 11.2691 12.4791
H -7.35769 11.8797 13.0667
H -7.31398 10.9481 11.7263
O -8.14712 6.12917 -12.6282
H -7.99298 6.0184 -11.6464
H -7.26974 6.25448 -13.0913
O 12.455 -6.79408 -12.2578
H 12.9914 -6.10264 -12.7417
H 12.0464 -6.38732 -11.4408
O 6.02502 -3.91609 12.1649
H 5.09394 -3.55778 12.2332
H 5.99149 -4.90056 11.9927
O 1.06879 -0.153312 6.29806
H 1.21348 -0.250862 5.31342
H 1.79903 0.4074 6.68832
O 9.12408 -8.20238 13.2875
H 9.25091 -7.59094 14.0685
H 8.97378 -7.66026 12.4607
O -5.83781 6.72774 -5.75184
H -6.64135 7.24809 -6.04086
H -5.25284 7.30625 -5.18342
O 2.07213 -3.26181 -8.70247
H 2.62206 -4.04622 -8.41569
H 1.14336 -3.56564 -8.9147
O 13.7551 4.80703 11.3535
H 12.756 4.77025 11.3732
H 14.0763 4.64325 10.4208
O 3.47268 -8.50727 -11.9545
H 3.69769 -8.83691 -11.0376
H 3.32889 -9.28748 -12.5633
O -9.8145 6.31212 -1.78726
H -9.11126 6.48383 -2.47714
H -9.93357 5.32609 -1.67092
O -11.1957 -7.70869 -7.1517
H -10.2696 -7.57998 -6.79713
H -11.6096 -8.50994 -6.71969
O -3.0114 -12.4808 -7.07628
H -2.95148 -12.0044 -6.19912
H -2.09156 -12.6231 -7.44185
O -13.4379 -10.5752 -14.6091
H -13.3111 -11.4472 -14.1364
H -13.5975 -9.85193 -13.9372
O -6.7636 -13.2171 12.1137
H -6.2793 -12.6823 11.4213
H -7.54467 -12.6932 12.4535
O 8.05249 7.12871 9.69974
H 7.26832 7.6676 9.39209
H 8.89379 7.64719 9.54692
O -14.3219 12.5418 3.44266
H -14.7123 11.6564 3.1907
H -13.4907 12.7031 2.91062
O 14.3042 -7.88897 5.38233
H 13.3723 -7.92435 5.02143
H 14.4627 -6.99878 5.80943
O -6.50824 -5.56764 -10.6211
H -7.01165 -5.00108 -11.2734
H -5.58093 -5.20895 -10.5142
O -2.72398 1.72664 6.25612
H -1.99894 2.35695 6.5336
H -2.8574 1.78681 5.26691
O 10.0072 3.07525 -2.56897
H 10.9876 3.27081 -2.59211
H 9.84308 2.15229 -2.91708
O -6.69527 11.2989 -0.157517
H -5.87879 11.3515 -0.732448
H -6.82228 10.3577 0.155686
O -2.7225 -4.33909 -4.2385
H -2.0148 -4.0926 -3.57641
H -3.6139 -4.34894 -3.78544
O 3.72791 -9.20081 3.58959
H 4.5366 -8.61275 3.60189
H 3.2832 -9.13734 2.69619
O -3.11211 5.02757 -1.61904
H -3.9011 5.61385 -1.80271
H -3.30999 4.09664 -1.92591
O -0.710138 -12.536 -8.76437
H -0.0642137 -11.8437 -8.44261
H -0.323203 -13.4464 -8.61825
O 11.3155 1.48815 -5.7598
H 10.6167 1.35538 -5.0569
H 11.1006 0.920908 -6.55478
O -2.51281 -2.91266 -10.8244
H -2.85582 -3.41226 -11.6198
H -2.73108 -1.9416 -10.9212
O 10.3637 10.745 -3.78664
H 9.7146 10.0844 -3.40959
H 10.1183 11.665 -3.48112
O -10.8853 8.14479 -12.1567
H -10.3005 8.07442 -12.9647
H -11.2007 7.23319 -11.8931
O -4.83134 -10.587 5.50526
H -4.81638 -9.67638 5.09225
H -3.91684 -10.9889 5.45926
O -12.5137 -5.40052 14.7625
H -12.2296 -4.51591 14.3928
H -11.7579 -6.05102 14.6885
O 6.89348 12.9473 -0.598491
H 7.73795 13.2194 -0.137217
H 6.66274 12.008 -0.344485
O -1.78355 -8.91398 -2.86669
H -1.47757 -8.52194 -1.99914
H -1.53038 -9.88069 -2.90332
O -9.00408 -11.1681 7.07399
H -8.84087 -12.1008 7.39537
H -8.70108 -11.0848 6.12466
O -10.2483 -11.8757 -5.0402
H -10.39 -10.886 -5.02214
H -9.37595 -12.0795 -5.4845
O -9.82677 13.3778 -6.00433
H -10.2342 12.7724 -6.68798
H -10.5127 13.6121 -5.31545
O -11.6818 -0.37897 -1.74175
H -11.6244 -1.29536 -1.34565
H -12.35 -0.378687 -2.4857
O 8.68344 2.47022 4.25889
H 7.80002 2.11057 3.95859
H 9.35461 1.7293 4.2817
O -10.6527 13.465 2.16894
H -9.74775 13.672 1.79718
H -10.8226 14.0378 2.97082
O 0.451024 -14.8595 -8.86558
H 0.547242 14.1652 -8.987
H 1.23923 -14.3957 -9.26998
O -1.05109 3.96099 6.37131
H -0.211638 3.58475 6.76339
H -0.81901 4.66236 5.69738
O -11.1233 2.5189 5.58611
H -10.98 3.03375 6.4313
H -12.0862 2.25892 5.51344
O -14.4934 -9.43395 3.28303
H -14.8454 -8.9193 4.06483
H 14.7556 -9.83391 2.77619
O 0.900812 2.1072 -5.38507
H 0.461737 1.52194 -4.70341
H 0.277697 2.24816 -6.15436
O -2.88836 5.48908 12.8127
H -3.35986 5.69274 11.9547
H -3.16498 6.1502 13.5101
O -9.47483 -9.54826 -11.9967
H -8.63442 -9.1606 -11.6181
H -10.0999 -9.78082 -11.2516
O -6.13532 -3.80827 10.4348
H -5.36756 -3.76145 9.79582
H -6.75867 -4.53802 10.154
O -8.45736 2.50084 -10.4836
H -8.84419 3.01839 -9.72043
H -8.6118 1.52392 -10.3361
O -14.4705 -12.1998 0.629721
H -13.7844 -11.6278 0.180077
H -14.0326 -12.7471 1.34287
O 1.3565 3.84377 -9.01917
H 0.792631 3.211 -8.48849
H 0.768893 4.51407 -9.47236
O 6.68115 -4.27219 -5.32816
H 6.83053 -4.82017 -4.50513
H 7.41618 -3.60032 -5.4192
O 9.86642 2.29046 11.2695
H 10.2341 3.19994 11.0755
H 9.05889 2.12939 10.7021
O 10.5197 3.71166 14.0208
H 11.2135 3.4442 14.6895
H 10.8999 3.63891 13.0988
O -14.8486 0.538404 3.3127
H 14.7803 -0.30404 3.69095
H -13.9404 0.352191 2.93794
O 9.19461 -10.3011 -6.20541
H 8.65905 -10.8448 -6.85155
H 8.59357 -9.65491 -5.73515
O 6.85805 2.62791 -5.25234
H 6.24843 3.09709 -5.89124
H 7.56304 3.26308 -4.9369
O 11.8676 -2.59495 -14.889
H 11.7472 -1.72631 14.643
H 11.363 -2.57109 -14.026
O -12.7542 -7.43827 9.63741
H -12.2753 -7.75426 10.4564
H -13.3096 -8.18318 9.26782
O 8.76443 7.62118 -12.0064
H 9.13066 7.02376 -12.7198
H 8.65422 8.54605 -12.3703
O -9.53714 -0.038489 -10.3654
H -9.34813 -0.298527 -9.4185
H -8.99625 -0.610134 -10.9823
O -4.92519 3.66433 10.2191
H -4.13107 4.24393 10.4018
H -4.67307 2.94949 9.56685
O 1.34304 12.1891 2.93076
H 0.725632 12.7538 3.47839
H 1.00891 11.2467 2.91717
O -4.1137 -10.5307 -4.23749
H -4.11978 -11.3022 -3.60126
H -3.18334 -10.3826 -4.57284
O 13.3872 -10.3544 2.01354
H 14.0185 -10.6425 1.29357
H 12.5716 -10.9327 1.99269
O 10.7147 -5.10338 3.65154
H 10.3868 -4.77937 2.76415
H 9.98876 -5.00332 4.33192
O -13.3717 14.5272 0.570051
H -13.8871 13.78 0.150483
H -12.7123 14.8886 -0.0891801
O -0.137553 -12.0127 -5.36049
H -0.071985 -12.9594 -5.67578
H 0.773615 -11.6771 -5.12148
O -2.81497 1.54748 -9.07793
H -2.97849 0.564571 -8.99353
H -3.25594 1.88866 -9.90805
O -7.71983 -2.36121 -5.61253
H -7.10194 -1.59895 -5.80522
H -7.18596 -3.19343 -5.46303
O -2.1013 -3.91212 13.9648
H -1.97228 -3.41706 13.1056
H -1.26376 -4.40885 14.1923
O 13.0284 -10.36 -8.96909
H 12.1638 -10.8622 -8.95435
H 13.1632 -9.95495 -9.87336
O -2.77505 13.889 11.0005
H -3.77009 13.9174 11.0955
H -2.53599 13.4865 10.1169
O -12.4356 -13.8898 -6.12562
H -12.2769 -13.8678 -7.11269
H -11.8746 -13.1907 -5.68221
O 10.5073 -14.604 -5.21768
H 11.2679 -14.1243 -5.65499
H 9.86861 -13.9368 -4.83447
O -0.0978503 9.97077 3.12256
H -0.38647 9.91687 4.07847
H -0.722702 10.5673 2.61886
O 5.89826 8.19485 -13.8341
H 6.19174 7.51408 -13.1629
H 5.74808 9.07107 -13.3762
O -12.6274 -13.6014 2.65147
H -12.1939 -13.9872 3.46584
H -12.9279 -14.3425 2.05107
O -13.9927 -3.51202 8.23458
H -13.8702 -2.78248 8.90742
H -14.0186 -3.11745 7.31611
O 9.58658 13.6987 6.86167
H 10.4704 13.3348 6.56775
H 9.09109 12.9973 7.37401
O 7.34754 -0.177802 11.1096
H 6.80092 -0.563477 10.3664
H 8.28478 -0.520703 11.0467
O -10.9717 -4.71889 -10.6802
H -10.5334 -5.55885 -10.3603
H -11.0896 -4.0907 -9.91117
O -2.79543 12.92 8.49399
H -3.04731 13.8176 8.13232
H -2.69046 12.2736 7.73826
O 11.3112 -0.508314 -11.3772
H 12.1672 -0.0968464 -11.6902
H 10.711 0.205192 -11.0158
O -9.98141 4.17053 -8.55159
H -9.76429 3.62847 -7.73981
H -10.6663 4.86075 -8.31811
O -11.5023 0.610324 8.97749
H -12.131 1.28959 9.35614
H -10.7152 0.509002 9.58585
O -14.4562 -2.49846 -12.6581
H -14.3464 -3.45498 -12.9282
H -13.5558 -2.07647 -12.5522
O 3.59287 2.228 -5.58919
H 3.85551 1.85298 -6.4782
H 2.5967 2.21474 -5.50298
O -9.58022 8.23322 8.30096
H -9.78517 8.88457 9.03152
H -8.62484 8.33362 8.02324
O -0.318719 12.344 -12.6543
H -0.712683 11.6612 -13.2696
H 0.580742 12.0349 -12.3455
O 5.74509 11.2824 -13.3152
H 5.02044 11.5157 -13.9636
H 5.44722 11.507 -12.3874
O -12.4844 10.2999 -1.29934
H -13.2134 9.87989 -1.83985
H -12.0275 9.59769 -0.753384
O 0.160323 -14.7631 -6.2281
H 0.929972 14.7468 -5.83451
H 0.290112 -14.6746 -7.21567
O 7.25619 -5.38694 -8.24885
H 7.9053 -4.99797 -7.59515
H 7.75608 -5.78814 -9.01638
O -11.6039 1.93556 12.2945
H -11.157 2.44817 13.0276
H -10.917 1.62898 11.6355
O 6.18192 -14.7852 -5.12608
H 6.35077 14.3655 -4.64798
H 6.39428 -14.0199 -4.5185
O -2.31288 9.73424 -2.08879
H -2.30677 10.6298 -1.64392
H -2.09738 9.02643 -1.41608
O 5.33162 8.83118 -9.16818
H 5.69215 9.59705 -8.63581
H 4.99553 8.12279 -8.54755
O 2.15668 11.7197 -12.0642
H 1.95945 10.9676 -12.693
H 3.02846 11.55 -11.6046
O 10.2313 6.79718 -9.69617
H 11.1496 6.46873 -9.91718
H 9.78806 7.13224 -10.5276
O -2.12219 -14.2746 6.66608
H -2.90063 -14.1388 7.27888
H -1.28161 -13.9898 7.12681
O 3.76909 4.54359 -1.63954
H 3.83297 3.61157 -1.28286
H 3.65501 5.18402 -0.880066
O 12.1222 6.18579 6.05797
H 12.8758 5.53236 6.12899
H 11.4447 5.84373 5.40685
O 7.80688 -4.23379 3.98633
H 7.64977 -3.2571 3.84018
H 7.09971 -4.75953 3.51359
O -12.0148 6.35587 -7.55274
H -12.6713 7.1082 -7.49827
H -12.5048 5.48426 -7.53845
O -7.57795 -12.9221 -11.2348
H -7.48246 -13.9111 -11.1221
H -6.67187 -12.4992 -11.2494
O -7.66783 5.52117 0.902953
H -8.2681 4.95456 0.338513
H -8.20704 5.97216 1.61417
O 3.41628 -1.78875 -14.2094
H 3.21384 -1.54893 -13.2599
H 3.27138 -0.989856 -14.7931
O -1.22379 13.4093 -4.22878
H -1.02537 14.0043 -5.00762
H -0.492519 13.4915 -3.5517
O 3.26052 -7.88235 -14.6933
H 2.97553 -7.03633 14.8688
H 3.22705 -7.75938 -13.7015
O 8.76413 -11.5814 10.6982
H 7.88778 -11.1029 10.6435
H 9.13225 -11.498 11.6242
O -0.919642 -9.79768 3.16533
H -0.867105 -10.4708 3.90299
H -1.35533 -10.2121 2.36635
O -7.16796 12.7421 9.83624
H -7.16542 11.7616 9.63998
H -8.09257 13.0296 10.086
O 1.52672 3.48577 12.417
H 0.601502 3.25588 12.1152
H 2.01298 3.95026 11.6769
O 12.2254 11.981 -1.09985
H 12.157 11.1912 -0.490286
H 12.4719 11.6726 -2.01857
O 14.4862 12.5393 -12.9705
H 14.7254 11.6522 -12.5758
H 13.5022 12.5717 -13.1457
O -8.306 -4.79745 -8.59244
H -7.71199 -4.98534 -9.37463
H -8.52083 -3.82123 -8.56397
O -2.30755 -5.39454 9.4123
H -3.00259 -6.01938 9.76792
H -1.66196 -5.90336 8.84284
O -13.5949 -6.91438 2.4606
H -14.0669 -7.77314 2.65979
H -13.531 -6.36772 3.29549
O 5.39937 -7.12713 -7.49932
H 6.06643 -6.45039 -7.8108
H 5.12951 -7.70733 -8.26776
O -9.93114 14.1439 14.2607
H -9.11392 13.9916 14.8165
H -10.2857 -14.9499 14.4341
O 9.31185 -12.3377 -3.93858
H 9.59332 -12.1255 -3.00277
H 9.58707 -11.5928 -4.54636
O 3.44417 -5.87873 -11.304
H 3.5538 -6.85343 -11.4986
H 4.29427 -5.39816 -11.5193
O 8.09045 -8.6853 7.47277
H 7.80242 -7.95539 8.09264
H 7.58998 -9.52347 7.68949
O 7.01623 -9.91956 -10.6785
H 6.85721 -10.6177 -11.3765
H 7.22869 -9.04829 -11.1209
O -7.53687 -7.35179 -3.14117
H -6.62981 -7.63611 -2.83073
H -7.71762 -6.41825 -2.83169
O 14.7365 14.7279 4.97494
H -14.8427 13.9269 4.56207
H -14.602 -14.7834 5.51742
O -11.0745 5.06455 1.58918
H -11.8957 5.62635 1.68848
H -10.2828 5.56716 1.93647
O 8.4952 10.2713 9.95546
H 7.92023 9.90806 10.6886
H 9.39258 9.83119 9.98655
O 14.2383 7.96716 4.78504
H 14.7438 7.40719 5.44144
H 13.2978 8.08616 5.10313
O -11.3939 -2.62441 14.591
H -10.8275 -2.82753 -14.623
H -11.0334 -3.10978 13.7945
O 10.6783 0.465988 4.62073
H 10.7528 -0.143558 3.83152
H 11.5094 0.399622 5.17281
O -6.98769 2.02754 -3.63964
H -6.19553 1.9036 -4.23722
H -7.04015 2.9831 -3.34962
O 10.3865 -9.6572 1.97331
H 10.3746 -10.6292 1.7389
H 11.1113 -9.484 2.64009
O 3.8744 -13.7628 -3.6445
H 4.60733 -13.1155 -3.85365
H 4.21018 -14.4496 -2.99987
O -7.60283 -8.02817 -10.2314
H -8.5453 -7.69395 -10.2286
H -6.97685 -7.25914 -10.3606
O 0.438606 0.10123 -10.4792
H -0.508714 0.407998 -10.3874
H 0.539992 -0.418041 -11.3278
O -2.92045 -8.50421 12.0874
H -2.82877 -9.25611 11.4346
H -2.91266 -8.86852 13.0186
O 3.11822 -5.07939 9.91109
H 2.1663 -5.07146 10.2173
H 3.2714 -4.31974 9.27909
O -9.42581 10.4416 -11.0225
H -10.0182 9.66146 -11.2236
H -8.46881 10.1624 -11.1011
O -13.7751 7.46246 -1.26963
H -13.5983 6.4887 -1.41269
H -12.9345 7.91333 -0.96952
O 12.3569 13.012 6.15081
H 12.9692 13.687 5.73913
H 12.6739 12.7936 7.07373
O -13.5661 -2.22119 -3.58614
H -13.5714 -3.20145 -3.38856
H -13.1628 -2.0651 -4.48775
O 1.10712 6.29923 -7.52945
H 0.146703 6.56827 -7.60136
H 1.21264 5.35429 -7.83918
O 11.8865 10.4525 1.39206
H 11.9774 10.9364 2.26241
H 11.7073 9.48423 1.56619
O 6.70021 -7.95716 2.90464
H 6.91709 -8.91774 2.73079
H 6.58876 -7.81331 3.88793
O 9.35604 -14.5288 -0.842796
H 8.94801 -14.9518 -0.0337586
H 8.72424 -13.8512 -1.21911
O 12.2133 10.345 -9.19098
H 11.9852 10.3523 -10.1646
H 11.8981 11.1948 -8.76844
O -6.04225 -2.08528 0.525505
H -6.59777 -1.92914 1.34219
H -6.42481 -1.56996 -0.241347
O -14.8144 -11.8838 -8.31933
H 15.0051 -12.8596 -8.21679
H 14.3626 -11.4052 -8.58875
O -9.07963 1.7856 -6.87833
H -9.30783 1.67789 -5.91071
H -8.10844 2.00578 -6.96924
O 1.19063 -10.1139 -2.10957
H 0.471155 -10.7834 -1.92492
H 1.99974 -10.3355 -1.5653
O -5.56154 14.9197 10.4851
H -6.10159 14.0972 10.3069
H -6.03767 -14.5195 11.1519
O 13.9645 -5.24062 -9.3426
H 14.6511 -5.31296 -10.066
H 13.0908 -5.59532 -9.67558
O 1.36728 12.9261 -7.85681
H 0.658987 12.5003 -7.29384
H 2.19151 13.0639 -7.30762
O -8.15042 6.32043 -9.71055
H -8.83376 5.69145 -9.33987
H -8.34748 7.24927 -9.3969
O 8.60039 -6.47849 1.44293
H 9.32082 -7.14496 1.25116
H 7.97402 -6.85229 2.12696
O 6.62356 -6.6125 -14.2262
H 6.08824 -5.80678 -14.4796
H 6.49203 -7.32899 -14.9113
O 12.4293 -11.3747 -2.49544
H 12.7206 -11.3307 -3.45104
H 12.9762 -12.0577 -2.01139
O 9.37255 -6.52121 -14.6442
H 10.0552 -5.82433 -14.8641
H 8.48042 -6.08666 -14.5208
O 6.05696 0.972458 13.952
H 5.75483 0.438534 13.1623
H 7.03718 0.833635 14.0929
O -13.4914 -8.29064 -4.75335
H -13.4486 -9.19948 -5.16825
H -12.5652 -7.92854 -4.64787