2611
Atoms. Timestep: 23000000
O -5.88916 13.7536 -1.18156
H -5.6699 12.7816 -1.26605
H -6.0502 14.1392 -2.09007
O -13.0148 10.2135 1.91106
H -13.6607 10.9565 2.08661
H -12.6901 10.2702 0.96695
O -1.8491 7.10146 -11.8297
H -0.96939 6.84887 -12.2326
H -2.5015 6.35467 -11.9588
O 3.60979 -8.88319 -13.6072
H 3.06499 -9.40173 -12.9482
H 4.13759 -8.18333 -13.1259
O 2.12817 -4.17255 1.84966
H 1.83919 -4.34957 2.79047
H 1.74881 -3.29957 1.54311
O 1.8471 -11.4886 0.61107
H 2.49365 -11.4996 1.37385
H 1.32229 -12.3397 0.606595
O -3.94761 -8.36118 -11.6756
H -4.14999 -7.64022 -11.0129
H -3.66025 -9.18772 -11.1917
O -14.5544 1.35641 -5.20934
H -14.9178 2.13685 -4.70054
H 14.9735 0.51662 -4.88959
O -5.69848 11.1734 -1.38426
H -6.14455 10.7555 -0.59285
H -5.18183 10.4768 -1.88207
O 8.32176 14.9562 -4.97123
H 7.52558 14.9276 -4.36686
H 8.18696 -14.305 -5.667
O 7.19633 4.08236 6.24739
H 6.38126 4.49702 5.8428
H 6.94782 3.62117 7.09917
O -10.2642 -8.27476 -4.91499
H -10.6724 -7.5192 -4.40269
H -10.3884 -9.12726 -4.40726
O 3.76306 -5.32288 5.65356
H 2.84405 -5.16157 5.29387
H 4.34769 -4.541 5.43713
O -7.09219 -8.28382 12.4928
H -6.20365 -8.72077 12.6325
H -7.43657 -7.94166 13.367
O -14.4496 -11.8874 -6.15864
H 14.5821 -12.2342 -6.08412
H -14.4355 -11.0956 -6.76926
O 3.64372 6.96784 -6.9941
H 3.3218 7.80945 -6.56046
H 4.44045 7.17 -7.5636
O 7.58849 12.5326 -1.63247
H 8.19647 12.0996 -0.967023
H 7.32837 11.8651 -2.33009
O -1.36513 -13.366 -10.6293
H -1.60251 -13.2431 -9.66572
H -0.528802 -13.9097 -10.6998
O 12.1268 2.81739 -7.02041
H 11.6137 3.67354 -6.95951
H 11.889 2.34597 -7.86964
O -2.61925 -12.0432 12.513
H -2.65461 -11.0588 12.3405
H -3.49551 -12.4566 12.2655
O 3.16455 4.34625 3.6582
H 3.08592 3.53779 4.24146
H 3.31972 4.06107 2.71238
O -2.75995 -14.8874 -8.22521
H -1.83699 14.921 -7.87438
H -3.42363 14.9468 -7.48903
O 0.0956513 -8.91082 -5.64836
H 0.0538452 -9.81805 -5.22984
H 0.340466 -8.23431 -4.95381
O 13.8857 2.99632 6.29448
H 13.8986 3.11738 7.28703
H 14.5931 3.56868 5.87972
O -1.23308 10.3304 -9.76707
H -1.32647 11.2924 -10.0234
H -0.437345 9.93819 -10.2286
O -4.60181 1.89466 -11.0456
H -5.1678 2.55877 -11.534
H -5.11293 1.52939 -10.2676
O 10.3519 -6.65866 -7.46459
H 11.0588 -7.1744 -6.98062
H 9.46425 -6.82682 -7.0359
O -12.1455 -9.79315 0.700591
H -13.1303 -9.82277 0.87134
H -11.7791 -8.91685 1.01345
O -8.33461 8.99486 -2.73983
H -9.20492 8.5025 -2.7505
H -7.88685 8.86117 -1.85574
O 5.05262 -2.76799 7.64363
H 5.2523 -3.71799 7.40362
H 5.87681 -2.33657 8.01046
O 12.8142 -13.5832 8.03604
H 12.8552 -13.6294 9.03411
H 12.8367 -14.5088 7.65826
O 9.75967 0.743987 -10.4931
H 9.83699 0.027954 -11.1869
H 8.93578 1.28476 -10.6626
O 12.3162 -0.169703 2.49476
H 12.5307 -0.65546 3.34214
H 12.5975 0.78627 2.57826
O -9.70573 -7.36063 3.94609
H -9.54781 -8.33206 4.12316
H -8.83203 -6.90793 3.76809
O 9.92402 -8.16937 11.6771
H 8.96908 -8.43804 11.8032
H 10.077 -7.27516 12.0978
O -14.3643 4.83066 5.01198
H -13.4633 4.63098 4.62691
H -14.6326 5.76223 4.76667
O -10.7998 -12.9014 -9.45105
H -11.7798 -13.0609 -9.33229
H -10.4231 -13.5887 -10.072
O -2.97381 -5.20219 -0.0146842
H -3.7356 -5.11263 0.626897
H -2.51239 -6.07652 0.135745
O -8.5047 -11.9674 3.67006
H -9.24338 -11.9757 2.99608
H -7.78298 -12.5965 3.3813
O -11.4383 14.2356 6.61412
H -11.8952 13.5487 6.04899
H -10.5316 14.427 6.23821
O 14.7811 -14.9651 3.07935
H -14.1939 -14.9423 3.20605
H 14.337 14.822 3.95712
O -14.1318 -9.7641 -7.75913
H -13.2342 -9.77593 -8.19975
H -14.2556 -8.89618 -7.27813
O 5.83784 -14.5927 0.292564
H 5.40027 14.4807 0.190076
H 5.73053 -14.07 -0.553155
O -8.80801 -6.23529 -8.95918
H -9.51943 -6.64944 -8.39143
H -9.22818 -5.60934 -9.61615
O -10.7096 -7.49134 -7.26427
H -10.3839 -7.82016 -6.37784
H -11.2211 -8.21854 -7.72211
O 13.3378 8.18605 -2.97232
H 13.2345 7.88672 -2.02379
H 12.4577 8.51342 -3.31623
O 13.9023 -14.6735 -3.45452
H 14.6818 14.6675 -3.48224
H 13.786 -14.246 -4.35099
O 11.1149 6.93356 6.81544
H 10.5352 7.65223 7.1993
H 12.0568 7.26348 6.75203
O -6.95719 -12.7079 10.68
H -6.05911 -12.8547 11.0946
H -7.24756 -11.7644 10.8391
O -11.5176 -6.9909 12.6418
H -12.0254 -6.19041 12.3235
H -11.0513 -7.41923 11.8678
O -13.1267 -2.00086 7.87043
H -12.3022 -2.08351 8.43027
H -13.1423 -1.10288 7.43071
O -12.505 -14.2224 3.37632
H -12.2916 -13.4768 4.0076
H -12.2512 14.8715 3.79327
O 1.35746 0.152996 -8.02841
H 1.3166 0.0686657 -9.024
H 0.500803 -0.175476 -7.63065
O -10.7057 -4.99039 6.06724
H -11.3222 -5.54009 6.63094
H -10.1016 -5.59449 5.54762
O -8.54794 3.17934 -11.5705
H -8.71304 2.22343 -11.3277
H -8.83087 3.33657 -12.5166
O -0.359417 5.29048 3.97303
H -0.27892 4.379 4.37639
H 0.395671 5.86367 4.29127
O 4.95827 -8.48725 10.2129
H 4.76363 -9.20745 9.54698
H 4.98194 -8.8806 11.1319
O 8.66816 -0.469229 0.125838
H 7.99405 -1.00459 -0.383023
H 9.38084 -1.07698 0.476124
O 12.0094 13.9118 -5.46254
H 11.2017 13.5266 -5.01613
H 12.6751 13.185 -5.63179
O 10.694 4.1043 -3.131
H 10.708 3.15606 -2.8138
H 9.88665 4.56656 -2.76423
O -12.844 -4.16857 -3.58299
H -12.4892 -5.09827 -3.48432
H -12.759 -3.87879 -4.53629
O -9.51165 -10.29 13.2208
H -10.3519 -9.95607 12.7936
H -9.53625 -10.0955 14.2014
O -4.47729 -1.85825 8.14923
H -4.61233 -2.40701 7.32424
H -4.93966 -2.29616 8.92022
O -14.1365 -7.31151 -14.9667
H -13.3343 -6.72182 -14.8733
H -13.8513 -8.21314 14.6748
O 10.712 8.55954 -4.17244
H 9.89369 8.01609 -3.98546
H 11.1108 8.27268 -5.04346
O -10.4448 9.88768 11.6726
H -10.3063 9.397 12.5329
H -11.2115 10.5222 11.7705
O -4.12448 1.07939 7.97633
H -3.20602 1.28263 7.63708
H -4.22541 0.091449 8.09368
O 9.22324 12.4364 -4.0837
H 8.53879 13.0999 -4.38581
H 9.16124 11.6132 -4.64798
O -1.27978 -7.14858 0.439926
H -0.486675 -7.74397 0.311612
H -1.68292 -7.31953 1.33894
O -8.41214 -12.0489 -0.34274
H -8.68043 -11.2538 0.201107
H -8.87072 -12.0155 -1.23075
O 12.815 -3.71698 8.73919
H 12.3387 -4.49815 8.33557
H 12.1991 -3.23802 9.36472
O 2.84967 -14.1868 10.6383
H 2.50037 -14.7815 11.3624
H 2.2523 -14.249 9.83879
O 13.5644 -14.1785 10.873
H 12.783 -13.574 11.0282
H 13.5552 -14.9153 11.549
O 9.78716 -1.46195 7.85052
H 10.5872 -1.30198 8.42879
H 10.0799 -1.84875 6.97609
O 0.435216 -5.16742 9.44995
H 0.599432 -6.06203 9.0344
H 0.353077 -5.27037 10.4412
O 6.93455 -4.41354 3.8653
H 6.68616 -4.57504 4.82039
H 6.42752 -5.04422 3.27782
O -10.8722 -5.69673 -0.429467
H -11.0129 -6.11354 0.468565
H -9.9123 -5.79014 -0.69362
O -12.02 -6.87885 -2.64737
H -12.5792 -7.68934 -2.47285
H -11.5503 -6.61055 -1.80631
O 11.384 3.32516 -9.67005
H 11.4951 4.3189 -9.68017
H 10.7079 3.05838 -10.3569
O 1.97723 4.39151 -10.2177
H 1.83177 4.85273 -9.34239
H 2.90403 4.01714 -10.2472
O -10.3192 -2.56807 5.02129
H -10.3527 -3.53669 5.2675
H -11.012 -2.37675 4.32601
O 7.99542 -14.7794 -10.4771
H 7.85592 14.2352 -10.7493
H 8.63448 -14.342 -11.1097
O 11.6478 -10.3789 -7.92665
H 10.7018 -10.159 -8.16469
H 11.684 -10.7239 -6.98876
O 12.0239 9.17199 10.4457
H 12.717 8.92385 11.1225
H 11.9376 10.1675 10.4066
O 9.48029 7.53462 -9.99668
H 9.47263 8.3278 -9.38775
H 9.38888 6.69841 -9.45596
O 4.5274 -4.96729 -0.363865
H 3.90127 -5.48673 0.217623
H 4.06942 -4.14125 -0.692314
O 10.5152 10.5311 -2.06512
H 10.112 11.3802 -2.40623
H 10.63 9.88869 -2.82284
O 9.32533 -14.2825 8.60522
H 9.03003 14.8082 8.98658
H 8.77898 -13.545 9.00219
O -3.98619 4.4149 5.74215
H -3.334 3.71688 5.44653
H -3.97598 5.1764 5.09409
O -6.52782 9.01822 1.99816
H -7.41481 9.38476 2.279
H -6.60397 8.62748 1.08082
O -4.81562 -10.5968 14.636
H -4.05145 -11.219 14.8058
H -4.5448 -9.66385 14.8733
O -13.5483 -8.18893 -11.2226
H -14.5047 -8.48036 -11.2426
H -13.5002 -7.21985 -10.9806
O 9.33885 -0.902078 4.03493
H 10.1999 -0.670135 3.58242
H 8.9885 -0.0988008 4.51656
O -6.05409 14.7186 -8.05668
H -5.57798 14.7377 -7.17751
H -5.53465 -14.7201 -8.72853
O 6.65599 -4.29528 9.44538
H 5.81636 -4.18947 9.97811
H 7.36127 -3.68771 9.81063
O 12.8641 -14.7641 -0.158525
H 13.6759 -14.197 -0.297726
H 13.1436 14.2617 0.0328641
O -9.71663 11.8964 7.39002
H -10.6394 11.6248 7.11658
H -9.75255 12.7847 7.84778
O -3.63591 -10.154 8.14274
H -4.2084 -10.6794 7.51326
H -3.01798 -10.7733 8.62711
O -3.84735 -5.47893 14.2089
H -4.68126 -5.02064 14.5164
H -3.41652 -4.93778 13.4867
O -0.806113 14.0176 12.6643
H -1.70055 14.0122 12.2171
H -0.9294 14.058 13.6558
O -12.4177 -3.82579 -12.1229
H -12.2365 -2.86947 -11.8935
H -12.505 -3.91992 -13.1146
O 7.26586 -8.73522 -1.7903
H 6.56788 -9.14618 -1.20386
H 8.11418 -8.62575 -1.27227
O -1.76588 5.53183 7.84422
H -2.25168 4.93808 7.20279
H -0.786793 5.51063 7.64196
O 14.9767 11.4136 5.15356
H 14.7075 11.7127 4.23811
H 14.7176 12.111 5.82172
O 8.5746 5.94143 -12.2001
H 8.99416 6.57334 -11.5484
H 8.83518 5.00379 -11.9701
O -8.73887 11.8435 -9.51364
H -8.11959 12.5977 -9.73212
H -9.04111 11.4046 -10.3598
O 8.70278 9.05902 -0.0215366
H 9.30232 9.28022 -0.790697
H 9.07231 8.27281 0.47374
O 9.45899 1.84821 -6.52685
H 10.3376 2.11512 -6.13094
H 9.3972 0.850657 -6.5591
O 9.02642 12.9283 9.42365
H 8.86412 12.4182 8.57899
H 9.04152 12.2953 10.1976
O 1.89229 -14.7704 0.354647
H 1.09392 14.5942 0.344067
H 2.65482 14.7469 -0.11073
O -5.75487 1.42432 -7.43664
H -6.00238 0.555391 -7.86521
H -6.25195 2.16908 -7.88186
O 8.13137 -7.0115 0.902196
H 8.24002 -6.01848 0.94792
H 7.25917 -7.27081 1.31692
O -5.92422 -11.8236 6.88139
H -5.77648 -12.7565 7.20976
H -5.38611 -11.673 6.0521
O -6.07362 -10.7272 -8.50484
H -7.03521 -10.9839 -8.60179
H -5.98203 -10.0463 -7.77817
O 14.8272 2.42415 10.6437
H -14.9596 3.40783 10.6425
H -14.2911 1.92996 10.4536
O 3.78969 -13.8845 -8.37363
H 3.29506 -13.1239 -7.95304
H 3.98774 -13.6656 -9.32905
O -0.0932452 -1.31127 8.3634
H -0.80075 -1.71416 8.944
H -0.0268362 -0.331166 8.55037
O 5.79377 -13.8871 -6.66626
H 4.90602 -13.9677 -7.11944
H 6.49398 -13.6595 -7.34293
O 2.35225 -0.814435 14.214
H 1.6698 -1.53763 14.108
H 2.85708 -0.704485 13.3578
O -4.65564 -2.53704 -6.90691
H -3.71974 -2.79538 -6.66747
H -5.21768 -2.51662 -6.08007
O 4.31028 10.7604 -12.5388
H 4.54572 11.7135 -12.3484
H 3.34861 10.7018 -12.8066
O -11.7478 -9.84951 11.5863
H -11.8696 -9.10471 10.9303
H -11.8845 -10.726 11.1247
O 14.7246 -1.25989 1.09853
H 14.074 -1.00997 1.81565
H -14.6778 -2.02375 1.41183
O 1.01775 9.73983 12.0347
H 0.0901657 9.62461 11.6794
H 1.5655 8.93575 11.8036
O 3.35435 3.17069 1.27138
H 3.12556 3.76529 0.50061
H 3.8988 2.39766 0.945847
O 12.6842 0.81241 10.5368
H 12.7776 0.292284 9.68782
H 13.3359 1.57091 10.5363
O 10.2598 -10.0235 -11.4982
H 10.9903 -9.39042 -11.7541
H 10.3358 -10.2446 -10.5259
O -6.22519 -10.6188 -5.54763
H -6.48319 -10.9145 -4.62784
H -5.57209 -11.2691 -5.93578
O -8.75368 13.9222 14.9107
H -9.72529 13.701 -14.9721
H -8.64036 14.6943 14.2855
O -6.63634 3.37569 -9.18947
H -7.43037 3.41233 -9.79623
H -6.42541 4.29619 -8.86058
O -11.8531 1.75369 -4.17954
H -11.7432 0.83906 -3.79051
H -12.6524 1.76655 -4.78025
O 8.49663 7.39653 -2.774
H 8.10808 7.26096 -1.86261
H 7.82614 7.12781 -3.46553
O 7.75803 -12.2369 3.88395
H 8.51889 -12.7582 3.49754
H 6.92413 -12.7876 3.84748
O -9.33659 6.28371 -8.4488
H -8.40983 6.57082 -8.69099
H -9.48659 6.4316 -7.47125
O 6.23411 6.02539 -10.8956
H 7.08871 5.65584 -11.2604
H 6.04728 6.91229 -11.3181
O -12.5435 13.1915 9.11054
H -13.3644 12.6422 8.95411
H -12.1316 13.4329 8.2319
O 7.168 -2.59461 -1.09306
H 7.44144 -3.31565 -0.456424
H 6.54178 -2.97213 -1.7752
O -4.41414 9.101 8.12795
H -3.43125 9.06639 8.30876
H -4.58339 9.65054 7.30981
O -1.65469 -9.91567 -13.4943
H -2.49572 -9.37587 -13.4587
H -1.31995 -10.0729 -12.5652
O 13.9842 -6.51866 -9.837
H 14.8888 -6.09261 -9.85165
H 13.9899 -7.29114 -9.202
O -14.044 13.3672 -4.04365
H -13.4509 13.9797 -4.56628
H -13.5014 12.6128 -3.67421
O 11.9562 11.6076 4.59471
H 11.4007 11.4338 3.78161
H 11.9356 10.8046 5.19038
O -14.7419 -10.4784 1.65452
H -14.8096 -10.7878 2.60302
H 14.3167 -10.2254 1.32079
O -3.25633 -5.26247 -4.04731
H -2.50151 -5.15929 -4.69506
H -3.4166 -4.39254 -3.58094
O -13.7151 -14.2253 7.24286
H -13.8168 -14.2242 8.23767
H -12.9568 -14.8245 6.98602
O 0.528647 2.83902 -1.71984
H 0.740456 2.8407 -2.69714
H 1.28652 3.25079 -1.21384
O -11.5653 -13.3376 13.6241
H -11.6158 -12.697 12.8579
H -10.7287 -13.8803 13.5501
O 0.227619 -8.15197 5.98852
H -0.669944 -8.58847 6.05036
H 0.767169 -8.59891 5.27501
O 5.58718 14.2337 -9.47334
H 5.67465 13.5062 -8.79288
H 6.40869 14.8037 -9.45933
O -0.199427 3.24055 5.71231
H 0.495367 3.87016 6.05991
H -0.490097 2.62672 6.44627
O 12.6736 8.3762 -10.2317
H 12.062 9.09 -9.89038
H 13.5818 8.49549 -9.83046
O 14.4165 8.33094 12.0837
H -14.8529 8.67896 12.7103
H 14.081 7.44903 12.4149
O -7.48104 -0.0873356 -5.65737
H -6.63538 0.185964 -6.11579
H -8.1442 0.659382 -5.70846
O -9.6172 -9.78647 -14.13
H -9.01394 -10.5102 -13.795
H -10.257 -9.52471 -13.4074
O -8.06113 12.1096 12.9445
H -8.86619 11.5576 12.7274
H -8.28955 12.7625 13.6667
O 10.7757 -2.06215 0.968775
H 11.3925 -1.47474 1.49268
H 11.3098 -2.64041 0.35209
O -4.51155 13.4195 12.0368
H -5.45391 13.3826 11.7043
H -3.89741 13.0495 11.3398
O -2.16614 -13.4931 3.79042
H -1.34247 -13.8292 4.24711
H -1.90988 -12.8336 3.08381
O -12.9079 -8.77751 9.31561
H -12.8573 -9.60601 8.75794
H -13.7158 -8.249 9.0548
O -2.6848 5.3807 0.676534
H -2.889 5.39305 -0.302304
H -1.8056 5.82847 0.839276
O 6.02242 -9.72591 0.437468
H 6.72908 -10.4276 0.346422
H 5.92559 -9.47332 1.40017
O -0.469349 6.7404 1.54135
H 0.15547 7.51082 1.41472
H -0.702694 6.65624 2.51008
O -14.4178 6.4193 -14.9668
H -14.2679 7.0602 -14.214
H 14.5846 6.43507 14.7356
O 3.13284 2.10358 13.7716
H 2.94295 2.45637 12.8554
H 2.97597 1.1161 13.7877
O -2.87854 4.24209 -7.98969
H -3.60668 4.09203 -8.65847
H -2.74202 5.22423 -7.86033
O -11.9737 -0.537143 -2.9946
H -11.224 -0.985483 -2.50781
H -12.5615 -1.23001 -3.41225
O -8.06779 -9.38998 4.7915
H -7.93351 -9.39602 5.78241
H -7.91135 -10.3085 4.42833
O 11.4692 9.86663 6.90939
H 12.1501 9.1983 7.20889
H 11.6786 10.7584 7.31051
O 7.9094 -5.03644 -11.6258
H 7.4867 -4.97 -10.722
H 8.68748 -5.66324 -11.5846
O 14.5781 -1.37963 -10.0284
H -14.6692 -1.2467 -10.7102
H 13.8577 -0.700094 -10.1672
O 13.2111 -11.8299 5.9944
H 13.1561 -12.5131 6.72256
H 12.3535 -11.8208 5.48034
O -7.4488 6.03462 14.0279
H -8.23104 6.41865 13.5374
H -6.73894 6.73266 14.1219
O 3.89834 -10.4451 -1.17998
H 4.70219 -10.1154 -0.684877
H 3.11837 -10.4915 -0.555905
O 6.1993 14.9752 7.41771
H 5.60881 14.2065 7.17209
H 6.09161 -14.786 8.39041
O -7.72022 6.29634 3.74398
H -7.07385 5.53543 3.68737
H -7.23099 7.13121 3.99617
O -14.6715 4.6752 -10.1405
H -14.0272 4.71989 -9.37704
H 14.9336 3.74606 -10.2175
O -7.9764 6.1886 0.390061
H -8.96392 6.26067 0.530033
H -7.64612 5.32962 0.781288
O 0.0486448 13.2959 -0.0803333
H -0.913379 13.1909 0.171613
H 0.50943 12.411 -0.0123128
O -10.7014 -2.76987 8.92203
H -10.8307 -3.73707 9.14059
H -10.1017 -2.68529 8.12627
O 14.5271 -11.4905 9.95813
H 14.2391 -10.935 9.17809
H 13.7244 -11.7585 10.4909
O 1.643 2.63642 -4.47583
H 2.3733 1.98061 -4.28462
H 0.907595 2.17976 -4.97645
O 0.114265 -14.1285 4.86516
H -0.150652 14.8777 4.7799
H 0.765839 -13.897 4.14275
O 7.33645 -8.44363 12.6023
H 6.34965 -8.46828 12.4423
H 7.64528 -9.34049 12.9189
O -8.98076 -12.2653 6.4959
H -8.99457 -12.1938 5.49857
H -8.09879 -11.9443 6.84092
O 14.1292 -7.05429 3.10831
H 14.4282 -7.92492 3.49894
H 14.304 -6.3181 3.76211
O -10.0787 3.22372 -2.93048
H -10.8504 2.64946 -3.20398
H -10.0863 4.06887 -3.46494
O -9.92937 8.75003 14.1466
H -10.757 8.33867 14.5284
H -9.16861 8.61975 14.7824
O -13.438 -5.56716 -10.1508
H -13.0191 -5.30361 -9.28191
H -13.1681 -4.91757 -10.8616
O -10.2538 -0.674339 10.7988
H -9.39088 -0.179693 10.6952
H -10.2424 -1.48929 10.2194
O -4.05256 -12.159 -7.30485
H -3.10228 -12.4042 -7.49663
H -4.60826 -12.3145 -8.12155
O -8.69187 5.50281 6.1794
H -8.61231 5.96011 5.29367
H -8.49388 6.15564 6.91055
O 2.9014 -10.3856 -3.66568
H 2.12634 -9.76131 -3.56799
H 3.59534 -10.1652 -2.98022
O 5.6849 12.6556 3.39766
H 6.3811 12.2319 2.81817
H 5.74601 12.2786 4.32185
O 2.5662 8.69363 4.86409
H 3.39235 9.25647 4.83839
H 1.86691 9.15289 5.41186
O -14.6308 -1.68836 12.679
H -13.684 -1.60039 12.9886
H -14.6562 -2.21637 11.8301
O -5.15235 -6.53901 -9.82009
H -5.62652 -6.56099 -8.93994
H -5.53692 -5.81113 -10.3878
O -13.4368 0.918073 -7.81949
H -13.9434 1.10689 -6.97827
H -13.3011 -0.068281 -7.91259
O -12.0068 9.39761 8.23552
H -12.618 9.09207 8.96565
H -11.0655 9.41185 8.5729
O -4.26862 12.88 8.07118
H -4.01959 12.7659 7.10945
H -5.23555 12.6565 8.19391
O 11.6435 -5.48647 -3.71866
H 10.8484 -5.43614 -3.11423
H 12.1958 -6.2844 -3.47722
O 5.48827 0.802741 -1.90978
H 5.43522 1.77928 -2.11845
H 6.25914 0.398171 -2.40178
O 2.45848 -3.49111 -12.6656
H 3.37128 -3.25603 -12.9995
H 2.14197 -2.78316 -12.0342
O -6.54868 -4.06976 0.683919
H -5.70074 -3.97174 1.20485
H -6.97489 -3.17247 0.56901
O 1.80293 -12.8049 -3.07009
H 2.12488 -11.8597 -3.12456
H 2.33178 -13.2979 -2.37925
O -1.80385 -2.00052 -5.45714
H -2.36379 -2.03084 -4.62917
H -1.17619 -2.77896 -5.46372
O -14.4191 0.515239 7.80719
H -13.9146 0.634396 6.95203
H -13.8694 0.858074 8.56897
O 1.57848 8.26362 -0.880636
H 2.45371 8.04379 -0.449803
H 1.2657 7.48068 -1.41836
O -6.40761 10.0904 9.55138
H -5.70765 9.58732 9.04449
H -6.52025 10.9997 9.15089
O 7.29049 -12.2041 9.16927
H 7.21335 -11.6077 8.37028
H 6.52643 -12.8491 9.17873
O 9.52171 -9.63301 7.50326
H 9.79546 -9.21016 6.63941
H 8.99131 -10.4599 7.31627
O -4.34974 10.6722 1.24321
H -3.91381 10.2892 0.42884
H -5.09325 10.0716 1.53705
O 0.97102 8.48327 -10.8068
H 1.16254 7.73575 -11.4428
H 0.700309 8.1062 -9.92103
O -4.17219 7.52942 -1.77253
H -4.38827 8.05908 -2.59275
H -3.85631 6.61843 -2.03766
O 4.84271 -0.554733 -13.2704
H 4.07576 -0.576105 -13.9117
H 4.5169 -0.264135 -12.3707
O -14.5683 9.2405 -0.257321
H -14.5362 9.35679 0.735364
H 14.5101 8.86384 -0.520238
O -5.24838 7.62215 3.97269
H -4.5672 6.9626 3.65492
H -5.71488 8.02507 3.18529
O -12.4951 -6.81942 7.03309
H -13.3694 -6.99196 7.48671
H -12.1392 -7.67563 6.65868
O -8.73241 0.352021 7.67551
H -9.63105 0.781204 7.58478
H -8.08783 1.00805 8.06807
O 4.74008 -2.03571 4.62369
H 4.76503 -2.19687 5.61029
H 3.86216 -1.62666 4.37488
O -11.2664 6.18279 -14.9192
H -11.1228 6.4835 -13.9764
H -12.2421 6.02829 14.8918
O -0.255922 -4.63123 -4.82469
H 0.433963 -3.91556 -4.71586
H -0.196667 -5.27064 -4.05812
O -13.8603 -6.07923 1.54516
H -14.3638 -6.55262 2.26792
H -14.5058 -5.70497 0.879441
O 3.50628 6.91429 -14.3224
H 3.92872 7.19397 -13.4603
H 3.38602 5.92157 -14.328
O 9.00491 14.9404 3.04538
H 8.6968 14.5199 3.89875
H 8.73713 14.3634 2.2738
O -2.07804 -12.2235 1.28758
H -1.94396 -12.6236 0.38098
H -2.42193 -11.2894 1.19213
O 8.94147 -3.52256 -5.3451
H 9.35946 -3.84589 -6.19405
H 8.57227 -4.30117 -4.83773
O -3.74282 3.06329 1.4774
H -4.71921 3.24112 1.35491
H -3.21404 3.78774 1.0352
O -3.39244 6.32953 -14.8239
H -2.83651 7.07591 14.7769
H -3.98584 5.97158 14.4218
O 13.9248 -4.60021 0.45006
H 14.4313 -4.13648 -0.276805
H 13.0006 -4.22234 0.50562
O 5.17866 11.3715 14.145
H 4.35545 11.6467 14.6415
H 5.78351 10.8633 14.7581
O -12.5044 12.5438 -0.700658
H -11.7049 12.8891 -0.209182
H -12.2202 12.1867 -1.59039
O 3.01119 7.68486 11.7579
H 3.911 7.89528 12.1401
H 3.09455 6.9337 11.1031
O -9.57066 9.61612 -7.9158
H -8.84434 9.17711 -7.38693
H -9.16754 10.1303 -8.67282
O -8.96526 9.56111 2.73726
H -8.77044 10.1664 3.50908
H -9.58276 8.83221 3.03287
O 13.2901 2.3609 2.77837
H 12.7555 3.04613 3.27306
H 14.2448 2.40713 3.07219
O 0.70673 -11.7937 -5.43475
H 1.53274 -11.6711 -5.98489
H 0.951408 -12.1901 -4.54988
O -8.12862 5.8862 10.6688
H -8.07104 6.33479 9.77693
H -7.39428 5.21244 10.751
O 1.74189 -2.72421 -4.95559
H 1.10046 -1.9854 -4.74895
H 2.67875 -2.38184 -4.88457
O 11.7721 13.5864 -12.4543
H 12.5986 14.1424 -12.5422
H 11.4638 13.5957 -11.5031
O 4.55341 -0.29525 -10.2752
H 3.76103 -0.898304 -10.1833
H 5.18895 -0.462777 -9.52151
O -13.1446 -0.643747 -14.5652
H -13.0206 0.00645648 14.6519
H -14.0059 -1.13622 -14.6901
O 0.855041 11.2292 -3.02012
H 1.61015 11.8835 -3.06048
H 0.711986 10.9433 -2.0726
O -10.4181 -2.11935 -8.93663
H -10.0687 -1.74955 -9.79754
H -9.68632 -2.12528 -8.25508
O 8.20422 0.987626 7.34514
H 7.76798 1.12327 6.45561
H 8.30212 0.00837407 7.5225
O 3.18895 -13.6203 -11.5333
H 3.16544 -12.6348 -11.7013
H 3.65529 -14.0766 -12.2911
O -13.2947 3.39853 8.25971
H -13.346 3.0361 7.32913
H -12.5565 4.07075 8.31536
O 12.3577 5.72113 -10.3946
H 13.2585 5.40681 -10.0951
H 12.3624 6.71783 -10.4755
O 13.5068 -3.96145 -5.21615
H 12.6604 -4.4274 -4.95852
H 13.885 -4.38748 -6.03804
O -11.071 5.30735 7.86311
H -11.5298 5.89202 7.19406
H -10.0812 5.365 7.7329
O -8.0436 -9.91326 10.5299
H -7.50307 -9.37645 11.1777
H -8.7821 -10.3789 11.0175
O 4.31954 6.54796 -3.26801
H 4.22961 7.38258 -2.72459
H 3.54611 6.47527 -3.89771
O 8.64247 11.7624 4.08076
H 8.52008 12.6693 4.48401
H 9.30957 11.8153 3.33769
O 7.79468 3.16525 11.5622
H 8.58478 3.69194 11.8758
H 7.03779 3.28541 12.2046
O 3.64679 -6.32405 11.4985
H 3.92257 -7.11907 10.9582
H 4.13352 -6.32957 12.372
O -13.1209 -1.07708 -11.5868
H -13.4443 -0.80188 -12.4922
H -12.1336 -0.930371 -11.5267
O 11.3432 8.5629 -14.345
H 11.2594 9.14778 14.8149
H 11.7403 9.0881 -13.5923
O 3.06309 -5.72949 -11.0119
H 2.20822 -5.81697 -10.5005
H 3.06722 -4.86139 -11.5082
O 9.57071 -5.9608 9.49501
H 8.67722 -6.34163 9.25706
H 9.77832 -6.16977 10.4506
O 3.6796 9.87996 9.99851
H 4.01835 9.83475 9.05874
H 2.84398 9.33647 10.0781
O 7.35894 10.9106 8.49517
H 7.95575 10.2606 8.02479
H 7.29196 10.6626 9.46158
O -2.75286 12.5491 10.3052
H -1.8289 12.1832 10.1941
H -3.20629 12.5856 9.41468
O -9.02382 10.6246 -11.9547
H -9.04311 11.6111 -12.1177
H -9.92467 10.2369 -12.1498
O 12.2199 10.6873 0.108568
H 13.0677 11.0144 -0.30896
H 11.5038 10.6358 -0.587497
O -14.6903 -2.87575 9.99666
H 14.4039 -3.23446 9.6649
H -14.1271 -2.59707 9.21878
O -3.31111 12.1957 5.57582
H -2.9867 11.2948 5.28755
H -3.24179 12.8355 4.81045
O -6.17406 10.6148 4.68747
H -5.21547 10.3702 4.54178
H -6.39657 11.4268 4.14787
O 8.69356 13.7054 0.784101
H 9.16969 13.8472 -0.0837561
H 7.70632 13.7639 0.6361
O -13.4341 10.6243 -7.81182
H -12.7381 11.1962 -8.24613
H -13.6308 9.83707 -8.39621
O -9.68075 14.0286 9.41359
H -10.5051 13.7888 9.9263
H -9.60435 -14.9429 9.35185
O 14.7644 2.1414 -9.54753
H 13.8091 1.9545 -9.31843
H -14.6112 1.49538 -9.0646
O 3.1748 -4.04635 14.586
H 2.46246 -3.94539 13.8914
H 2.75062 -4.16436 -14.4829
O 14.8223 -8.83146 5.17677
H 13.9594 -8.83546 5.68199
H -14.6983 -9.72142 5.27183
O 0.35086 -3.68807 7.00275
H 0.557091 -4.32297 7.74729
H 0.115224 -2.79372 7.38301
O 6.16678 9.33733 1.17984
H 5.66623 9.50361 0.330262
H 7.13746 9.21082 0.975496
O -7.4976 0.267575 10.7364
H -6.85422 -0.481206 10.8957
H -7.17268 0.830202 9.97628
O 10.0543 7.34508 12.4023
H 10.1389 7.14961 13.3793
H 10.4734 8.23063 12.2021
O 1.62456 4.65749 6.8709
H 2.11007 5.30352 6.28191
H 2.28387 4.16016 7.43477
O 12.1571 4.35927 4.02079
H 11.2191 4.44664 4.35623
H 12.79 4.3664 4.79499
O -0.192394 -14.8096 -7.27664
H 0.509203 -14.2362 -6.85369
H 0.174862 14.7395 -8.10776
O -13.7016 -10.7491 7.07759
H -13.1962 -11.1907 6.33629
H -14.3921 -11.3797 7.43208
O 4.84708 -13.2093 -1.94458
H 5.53919 -13.1517 -2.66405
H 4.63573 -12.2906 -1.61103
O 9.73006 -9.18333 4.76678
H 10.2222 -8.68857 4.05053
H 8.81275 -8.79823 4.86787
O 10.5735 9.91044 -8.35232
H 9.98236 10.2819 -7.63643
H 11.3733 10.5004 -8.46358
O 0.522471 12.1743 2.87548
H -0.260866 11.5946 2.6514
H 0.359198 12.632 3.74945
O 7.64551 -7.35984 4.61584
H 7.12221 -6.93225 5.35293
H 8.1261 -6.65404 4.09541
O 0.103434 -14.4761 9.86715
H -0.602291 -14.2586 9.19292
H -0.191709 -14.1655 10.7707
O 13.5434 8.20232 7.40801
H 13.9536 7.86282 8.25443
H 14.258 8.58034 6.81949
O -9.87204 -1.81041 -1.75906
H -9.12886 -2.24816 -2.26505
H -10.4533 -2.51208 -1.34706
O 4.90612 11.3242 7.60646
H 5.84266 11.1226 7.8932
H 4.52175 12.0331 8.19783
O 11.392 -3.58804 -1.29466
H 11.7861 -4.01587 -2.10807
H 10.6565 -2.96787 -1.56743
O -2.40522 7.28613 -8.42185
H -2.1406 7.59109 -7.507
H -1.95981 7.86234 -9.10709
O 1.00547 0.467745 -10.5632
H 0.0613259 0.729105 -10.7639
H 1.63054 1.06186 -11.0695
O 10.9629 -13.2825 2.57525
H 10.1534 -13.8523 2.71688
H 11.7342 -13.8598 2.30731
O -12.1103 -1.30887 3.50751
H -12.6258 -1.95863 2.94892
H -11.5491 -0.731406 2.91458
O -3.59979 4.66385 -1.86915
H -3.3656 4.29654 -2.76927
H -4.59199 4.63926 -1.74698
O -4.29163 -13.4743 -3.22637
H -5.2411 -13.7593 -3.09516
H -3.75697 -13.7126 -2.41564
O 10.2263 -14.1212 6.08616
H 10.3447 -13.1665 5.81304
H 9.92946 -14.1605 7.04028
O -1.19026 8.56431 4.66559
H -1.12558 9.20064 3.8969
H -0.507402 8.80452 5.3555
O 2.63647 -11.6611 -7.4434
H 1.97356 -11.2963 -8.09723
H 3.43923 -11.0654 -7.41529
O 11.5697 5.34207 11.2758
H 10.8681 5.99962 11.5506
H 11.1515 4.44293 11.1468
O 1.64342 6.38648 -12.293
H 1.74631 5.58704 -11.7012
H 2.12122 6.22555 -13.1566
O -11.4723 -5.39703 9.31997
H -11.7506 -5.65161 8.39383
H -10.8778 -6.10746 9.69653
O -13.0377 -11.0073 -12.8123
H -13.4343 -10.2911 -12.238
H -13.2956 -10.8509 -13.7657
O 10.3076 11.7968 2.06089
H 11.0891 11.5191 1.50224
H 9.73887 12.4365 1.54385
O 14.9307 -7.19768 8.23999
H 14.2423 -6.70993 8.77671
H 14.6176 -7.2821 7.29405
O 8.82522 -10.9304 13.6565
H 9.19113 -11.6184 14.2832
H 8.55326 -11.3702 12.8006
O -5.84855 14.0567 14.9282
H -5.34982 14.2367 14.0803
H -6.82704 14.1949 14.775
O 5.22963 -7.0373 -12.2295
H 4.45425 -6.4322 -12.0488
H 6.00112 -6.49851 -12.5679
O 12.368 -11.5592 11.4924
H 12.5644 -11.33 12.4458
H 11.9252 -10.7811 11.047
O -11.9183 -14.3989 0.615416
H -12.048 -14.0816 1.55482
H -12.6795 -14.0833 0.0489047
O 6.902 -7.05053 9.12518
H 6.55977 -6.12634 9.29467
H 6.39794 -7.70185 9.69235
O -4.10923 -14.2644 1.47118
H -4.86499 -13.8653 0.951966
H -3.47005 -13.5428 1.73726
O -10.8297 6.04674 0.611223
H -11.6997 6.40245 0.269653
H -10.8124 5.05231 0.507374
O 9.76531 4.26737 13.6382
H 9.57322 5.0944 14.1665
H 10.7262 4.26438 13.3614
O 0.188106 10.563 -0.513815
H -0.771461 10.3001 -0.413268
H 0.770018 9.76332 -0.365894
O -3.69652 -2.33859 -0.728494
H -4.09931 -1.87044 0.0580003
H -3.4123 -3.25869 -0.459039
O -14.3763 9.76284 14.1399
H -13.5493 10.2756 14.3706
H -14.8573 9.51098 14.9797
O -1.52489 2.17372 -4.8696
H -1.95936 1.8721 -4.02093
H -1.77925 1.55465 -5.61258
O 5.39826 -5.56742 -6.7845
H 6.28899 -6.02173 -6.79755
H 5.5234 -4.59392 -6.59313
O -14.6216 -12.942 13.5041
H -14.6532 -12.2294 12.8032
H -13.6888 -13.0232 13.855
O 8.02995 -10.6995 -13.146
H 8.75258 -10.5002 -12.4842
H 8.27388 -11.5154 -13.6703
O -10.557 -12.0301 1.70045
H -10.874 -12.68 1.00969
H -10.9189 -11.1211 1.49378
O -6.26674 -2.35766 -4.6338
H -6.61363 -2.81935 -3.81741
H -6.75589 -1.49495 -4.76202
O -6.29537 11.2056 -7.79245
H -6.23027 11.5148 -8.74119
H -6.52744 11.9805 -7.2045
O -8.54351 -12.1783 -6.719
H -7.90056 -11.5553 -6.27357
H -8.79549 -11.8127 -7.61499
O 6.73693 2.60222 8.8943
H 7.05169 1.87719 8.28173
H 7.21686 2.53147 9.76874
O 0.145742 -10.9566 3.75001
H 0.28794 -11.625 3.01988
H 0.0175103 -11.4345 4.619
O -11.2766 -13.1808 -13.5414
H -11.7095 -12.3683 -13.1508
H -11.3972 -13.1781 -14.5341
O -11.2692 7.15291 -12.4847
H -11.9487 6.7523 -11.87
H -10.3661 7.10854 -12.0577
O -1.56666 8.33226 8.19439
H -1.58274 7.34198 8.05635
H -0.920849 8.74764 7.5538
O 5.22304 -11.7094 -4.60258
H 4.3055 -11.3305 -4.48208
H 5.27254 -12.191 -5.47758
O 10.989 -12.5885 -12.3747
H 10.5381 -12.9654 -13.1838
H 11.1071 -11.602 -12.4881
O -11.5165 4.40782 4.12076
H -11.328 5.36717 3.91079
H -10.6587 3.89399 4.13069
O 1.03592 -10.5337 -9.77228
H 0.906178 -9.56746 -9.54981
H 0.301012 -11.0722 -9.36011
O -1.25635 -10.8079 9.62673
H -1.61634 -10.5829 10.5321
H -0.313637 -10.4827 9.5526
O -4.79159 6.28986 12.8281
H -5.56582 6.88695 12.6183
H -4.7397 5.55956 12.1469
O 8.13541 -5.75655 -3.57904
H 8.48449 -6.32199 -2.83178
H 8.03014 -6.31736 -4.40025
O 13.9845 -14.8467 -12.9735
H 14.7676 14.5431 -13.2057
H 14.2458 -14.2042 -12.2531
O -9.40831 13.2045 -12.4786
H -9.11389 13.4514 -13.4018
H -9.65993 14.0319 -11.9765
O -2.32192 14.5934 -1.94414
H -1.65793 -14.6256 -1.94553
H -2.62547 14.4189 -1.00744
O -1.38063 -1.37989 -14.5716
H -1.02776 -2.28634 -14.3397
H -1.77781 -1.40158 14.4776
O 10.0993 -5.82785 13.1487
H 9.21407 -5.46217 12.8612
H 10.2369 -5.6412 14.1215
O 7.65891 -11.5175 -3.18373
H 7.73408 -10.6371 -2.71556
H 6.88533 -11.4933 -3.81696
O -4.76747 -4.28614 -11.9206
H -3.82068 -4.53277 -12.1273
H -4.78083 -3.5763 -11.2164
O 14.4169 -9.89983 -11.1235
H 13.8769 -9.70867 -11.9431
H 13.9192 -10.5399 -10.5382
O 7.76823 -13.1751 -8.44448
H 7.08402 -12.5143 -8.75296
H 8.07045 -13.7288 -9.2204
O -5.95408 4.01408 10.7174
H -6.50565 3.3504 10.2121
H -5.16549 4.28218 10.164
O -12.6675 1.448 13.5525
H -12.6857 2.43177 13.7309
H -12.8175 1.28323 12.5776
O 8.85142 -12.3399 -6.14195
H 8.28422 -11.5238 -6.03144
H 8.70706 -12.7252 -7.05336
O -3.74254 9.37644 12.2708
H -4.16455 9.82372 13.0594
H -4.45544 9.07411 11.6381
O -5.85232 3.93199 -12.364
H -6.81855 3.96542 -12.1086
H -5.41757 4.80381 -12.1384
O -11.386 -7.30012 1.81676
H -12.3486 -7.0311 1.78696
H -10.9832 -7.00197 2.68213
O 14.4416 8.58563 -6.34242
H -14.7561 8.22567 -5.81416
H 14.3061 9.55077 -6.11852
O -14.4212 8.72572 -9.21902
H -13.5735 8.30231 -9.53841
H -14.6934 8.31245 -8.35006
O -11.7893 7.66759 -9.00528
H -11.1765 6.87743 -9.00235
H -11.3329 8.44505 -8.57264
O 3.47182 12.485 11.0532
H 2.71261 12.8113 11.6164
H 3.33751 11.517 10.8412
O 3.78623 2.08534 5.37422
H 4.77232 2.09887 5.20859
H 3.57405 1.39615 6.06702
O 10.4895 -8.12248 2.43421
H 10.8946 -7.22358 2.26729
H 9.64399 -8.21004 1.90751
O 12.4101 -14.287 -10.4658
H 13.1483 -13.7345 -10.0788
H 11.8701 -13.7281 -11.095
O -5.13038 -13.2668 -9.93148
H -4.85929 -13.7879 -10.7408
H -5.93965 -12.719 -10.1435
O 3.16982 -6.57137 1.84108
H 2.72169 -5.70354 2.05561
H 2.50349 -7.31453 1.90179
O 8.79033 0.568995 10.1779
H 8.76057 0.794965 9.20426
H 9.27431 1.2906 10.6729
O 9.14077 7.13123 3.78334
H 9.61578 6.38421 4.24843
H 9.27919 7.98154 4.29107
O -13.3099 -3.17134 2.05605
H -12.6286 -3.1464 1.32457
H -13.5687 -4.11991 2.23832
O -10.8059 -7.41621 -12.4576
H -11.786 -7.57733 -12.5732
H -10.4502 -6.93617 -13.2595
O -13.3436 4.25078 -13.5906