LAMMPS data file via write_data, version 15 May 2015, timestep = 590000

4560 atoms
7 atom types
5040 bonds
3 bond types
7200 angles
2 angle types
10560 dihedrals
3 dihedral types
2400 impropers
1 improper types

-1.0763502675555259e-01 4.1387635026745990e+01 xlo xhi
-4.0433884491974936e-02 3.5938433884472119e+01 ylo yhi
-3.5711112484589691e-01 2.9555111124838550e+01 zlo zhi
-6.7234083837551181e-02 -1.7036217651000683e+01 -4.1707816797290791e-02 xy xz yz

Masses

1 12.0107
2 1.008
3 12.0107
4 12.0107
5 12.0107
6 12.0107
7 12.0107

Pair Coeffs # lj/cut/coul/long

1 0.0488 3.55
2 0.02091 2.42
3 0.0488 3.55
4 0.0488 3.55
5 0.0488 3.55
6 0 0
7 0.0488 3.55

Bond Coeffs # harmonic

1 469 1.4
2 367 1.08
3 469 0.7

Angle Coeffs # harmonic

1 35 120
2 63 120

Dihedral Coeffs # opls

1 0 7.25 0 0
2 0 7.25 0 0
3 0 7.25 0 0

Improper Coeffs # cvff

1 2.5 -1 2

Atoms # full

219 13 3 0.0000000000000000e+00 -2.6859899264119180e-01 3.0921013603239182e+00 3.1405832704279120e+00 1 0 0
220 13 4 -1.1500000000000000e-01 2.9278639273910012e-01 4.1093299187303165e+00 2.3860739938372717e+00 1 0 0
224 13 2 1.1500000000000000e-01 4.5713090142051560e-01 5.0254002184425488e+00 2.8056162067622377e+00 1 0 0
580 33 4 -1.1500000000000000e-01 2.6786238034718060e+00 6.7451887076974408e+00 3.9948914558676316e+00 1 0 0
228 13 3 0.0000000000000000e+00 -5.3491457853137181e-01 1.8375346736249603e+00 2.5749233705302825e+00 1 0 0
989 53 4 -1.1500000000000000e-01 -1.3742720216854156e+00 7.0425963118693611e+00 3.5137132654315728e+00 1 0 0
600 34 2 1.1500000000000000e-01 2.5916465248122744e-01 5.7928979770800115e+00 6.8917243829983281e+00 1 0 0
245 14 4 -1.1500000000000000e-01 -4.9169722203584767e+00 1.4320387804877128e+00 9.0653285491998368e+00 1 0 0
227 13 4 -1.1500000000000000e-01 -1.7068678749189592e-01 1.5737348229022670e+00 1.2532507832767792e+00 1 0 0
4390 233 1 -1.1500000000000000e-01 2.3936876803135227e+00 7.1582228699385397e-01 5.5457986686728349e+00 1 1 0
733 13 6 0.0000000000000000e+00 -4.4357791018091364e-01 2.4428930640480337e+00 2.9597700956208954e+00 1 0 0
1064 57 2 1.1500000000000000e-01 7.2084801489587313e+00 6.3476016387440151e+00 1.0213546235312332e+00 1 0 0
230 13 1 -1.1500000000000000e-01 6.2642481351493884e-01 3.8515592001187815e+00 1.0303898936642319e+00 1 0 0
217 13 7 -1.1500000000000000e-01 -1.3735018444397096e+00 2.4808365132728443e+00 5.2008303076800741e+00 1 0 0
218 13 5 -1.1500000000000000e-01 -5.9265932264746546e-01 3.3861528413395985e+00 4.4909156529232730e+00 1 0 0
221 13 1 -1.1500000000000000e-01 -1.6842342471298541e+00 1.2182339961722712e+00 4.6109239551916179e+00 1 0 0
222 13 2 1.1500000000000000e-01 -1.6452105082281441e+00 2.7071375980461330e+00 6.2268853205612924e+00 1 0 0
223 13 2 1.1500000000000000e-01 -4.8611391040373642e-01 4.3546283047144367e+00 4.9875465204417013e+00 1 0 0
248 14 1 -1.1500000000000000e-01 -3.5759372255352342e+00 3.4610620622797081e+00 8.6794978821026554e+00 1 0 0
4380 233 4 -1.1500000000000000e-01 2.5612920338979963e+00 1.1164618283920853e+00 4.1474465002503615e+00 1 1 0
244 14 1 -1.1500000000000000e-01 -4.2100950296494055e+00 2.3016040301552150e+00 8.2004279114368970e+00 1 0 0
603 34 2 1.1500000000000000e-01 1.0613392753262030e+00 3.6252391758975975e+00 7.4422332882553706e+00 1 0 0
4396 234 5 -1.1500000000000000e-01 -7.3348085398219531e-01 2.0446062542176091e-01 9.2378514924926609e+00 1 1 0
4394 233 2 1.1500000000000000e-01 1.8524589672309895e+00 1.3421347525775735e+00 6.2674317829352288e+00 1 1 0
579 33 3 0.0000000000000000e+00 3.3272960068721424e+00 5.8271095653948120e+00 3.1681184051680980e+00 1 0 0
252 14 2 1.1500000000000000e-01 -2.8796854084080552e+00 3.9866774597156023e+00 8.0881346370932796e+00 1 0 0
581 33 1 -1.1500000000000000e-01 4.5911862559946481e+00 3.9632855530993343e+00 1.4699036435455073e+00 1 0 0
596 34 5 -1.1500000000000000e-01 -5.3581393866487481e-01 6.3424483777305838e+00 8.8748927869778278e+00 1 0 0
577 33 7 -1.1500000000000000e-01 4.1378672616579406e+00 5.1828907674047668e+00 9.8389859507851218e-01 1 0 0
588 33 3 0.0000000000000000e+00 3.9014303226026459e+00 4.6599871158232693e+00 3.7472614314727490e+00 1 0 0
589 33 4 -1.1500000000000000e-01 4.5081123302995554e+00 3.7138140193829123e+00 2.8698181075347295e+00 1 0 0
593 33 2 1.1500000000000000e-01 4.9713951236287084e+00 2.8885946292303943e+00 3.3262297880336873e+00 1 0 0
753 33 6 0.0000000000000000e+00 3.6153508232406151e+00 5.2013435489842683e+00 3.3017852233723017e+00 1 0 0
4383 233 2 1.1500000000000000e-01 3.0708306879155840e+00 1.4273047537228092e+00 1.4388552926193858e+00 1 1 0
4379 233 3 0.0000000000000000e+00 3.2510282411513316e+00 2.2322468249039104e-01 3.2682886449496866e+00 1 1 0
578 33 5 -1.1500000000000000e-01 3.4877508906105650e+00 6.1198933026382853e+00 1.8010868360749406e+00 1 0 0
226 13 1 -1.1500000000000000e-01 4.4787572400685283e-01 2.5696054055401807e+00 5.4536223097901726e-01 1 0 0
4384 233 2 1.1500000000000000e-01 2.1276589382701103e+00 2.0433173369863620e+00 3.7981972902793339e+00 1 1 0
586 33 1 -1.1500000000000000e-01 3.0940243710937709e+00 5.3723861465117544e+00 5.9258103465174274e+00 1 0 0
587 33 4 -1.1500000000000000e-01 3.7868526932668649e+00 4.4130418220339873e+00 5.1573857521854451e+00 1 0 0
585 33 2 1.1500000000000000e-01 5.1104061879305691e+00 3.2519270306735315e+00 9.0216751641493831e-01 1 0 0
591 33 2 1.1500000000000000e-01 2.9374868413597310e+00 5.1651539161928044e+00 6.9778293923305679e+00 1 0 0
592 33 2 1.1500000000000000e-01 4.3451963678375423e+00 3.6099510325820483e+00 5.7021574356112694e+00 1 0 0
590 33 1 -1.1500000000000000e-01 2.5696259935650478e+00 6.5395189638910889e+00 5.3632441678052993e+00 1 0 0
2129 114 2 1.1500000000000000e-01 -3.4696197299591347e-01 1.6916989316952023e+01 1.3759013087340730e+01 1 0 0
234 13 2 1.1500000000000000e-01 1.0902847308944383e+00 4.6828162478000257e+00 3.9833005508379127e-01 1 0 0
229 13 4 -1.1500000000000000e-01 -1.2286622379714742e+00 8.4582192801081180e-01 3.3405712123935611e+00 1 0 0
993 53 2 1.1500000000000000e-01 -1.8436976487112415e+00 6.1946358742404621e+00 3.0745575438941315e+00 1 0 0
985 53 2 1.1500000000000000e-01 -1.6226890458883805e+00 6.3026892318781940e+00 5.4940641143397926e+00 1 0 0
599 34 1 -1.1500000000000000e-01 6.1437314805137344e-01 4.2140085024829759e+00 8.2657396011942179e+00 1 0 0
4401 234 2 1.1500000000000000e-01 -1.0606412989870284e+00 1.1823804603739865e+00 8.7834523718965265e+00 1 1 0
225 13 2 1.1500000000000000e-01 -2.1971108900525138e+00 5.3967283073871453e-01 5.2019708870174561e+00 1 0 0
595 34 7 -1.1500000000000000e-01 1.3310016611284770e-01 5.4778584590723014e+00 7.9073552279173462e+00 1 0 0
981 53 1 -1.1500000000000000e-01 -1.2928000271750431e+00 7.1135768170912987e+00 4.9171345761831393e+00 1 0 0
4378 233 5 -1.1500000000000000e-01 3.4326513556662066e+00 5.0863356810858651e-01 1.8945101401190914e+00 1 1 0
582 33 2 1.1500000000000000e-01 4.2337702912323039e+00 5.3513375955221667e+00 -4.3223800846987293e-02 1 0 0
583 33 2 1.1500000000000000e-01 2.9700672942372930e+00 6.9850698894815784e+00 1.4000894911482966e+00 1 0 0
1010 54 2 1.1500000000000000e-01 -5.0032528229473554e+00 6.3207822797376387e+00 8.4597646426202839e+00 1 0 0
232 13 2 1.1500000000000000e-01 -4.1781865127336115e-01 5.5647624848944732e-01 8.0352355124554453e-01 1 0 0
235 14 7 -1.1500000000000000e-01 -5.2689470822058784e+00 2.2954356096417583e+00 1.3169996946706009e+01 1 0 0
236 14 5 -1.1500000000000000e-01 -4.5531317305865100e+00 3.1645945065959382e+00 1.2352559041205277e+01 1 0 0
597 34 3 0.0000000000000000e+00 -5.3521843496612309e-01 5.9004424562955977e+00 1.0229343435715215e+01 1 0 0
734 14 6 0.0000000000000000e+00 -4.6426390280538374e+00 2.3530488459422978e+00 1.0523847266898676e+01 1 0 0
239 14 1 -1.1500000000000000e-01 -5.8696474744288478e+00 1.1331576107385251e+00 1.2648163594596134e+01 1 0 0
240 14 2 1.1500000000000000e-01 -5.4113703668677413e+00 2.5509046114646510e+00 1.4214668239723199e+01 1 0 0
243 14 2 1.1500000000000000e-01 -6.3191351689714903e+00 4.7088178056002139e-01 1.3350762077298198e+01 1 0 0
237 14 3 0.0000000000000000e+00 -4.4235705935387140e+00 2.9000748019024023e+00 1.0958381285408016e+01 1 0 0
4402 234 2 1.1500000000000000e-01 -1.8995662653382510e+00 1.7047894356409530e+00 1.1034249895579896e+01 1 1 0
1760 94 2 1.1500000000000000e-01 -5.4077636111498020e+00 1.4428450448450830e+01 1.3873335919195814e+01 1 0 0
242 14 2 1.1500000000000000e-01 -3.2572649278991119e+00 4.5939302031090721e+00 1.0459766979438390e+01 1 0 0
4408 234 1 -1.1500000000000000e-01 -1.8706218712019353e+00 3.1508913065052835e-01 1.2679761266787676e+01 1 1 0
238 14 4 -1.1500000000000000e-01 -3.7122227851266985e+00 3.7288753629207418e+00 1.0015532333810178e+01 1 0 0
246 14 3 0.0000000000000000e+00 -5.0633103937316424e+00 1.7611403656409264e+00 1.0415610712198955e+01 1 0 0
604 34 1 -1.1500000000000000e-01 -1.0027164597742804e+00 4.9750325352404063e+00 1.2800778141858254e+01 1 0 0
605 34 4 -1.1500000000000000e-01 -3.9252913340325257e-01 4.0981214698503745e+00 1.1871278284863246e+01 1 0 0
606 34 3 0.0000000000000000e+00 -1.8246596002556181e-01 4.5976990652948100e+00 1.0559821408838911e+01 1 0 0
607 34 4 -1.1500000000000000e-01 3.9772354332395388e-01 3.7341330500380470e+00 9.6288773229863303e+00 1 0 0
611 34 2 1.1500000000000000e-01 6.8515802071318976e-01 2.7841955906077707e+00 9.9302226066791039e+00 1 0 0
610 34 2 1.1500000000000000e-01 -1.8583468353111865e-01 3.0939277355616182e+00 1.2193608301298939e+01 1 0 0
241 14 2 1.1500000000000000e-01 -4.1088888287624137e+00 4.0715543183550409e+00 1.2752836356425208e+01 1 0 0
1342 73 2 1.1500000000000000e-01 4.3433820529463043e+00 1.1537753072078440e+01 -3.0048880118705396e-01 1 0 0
598 34 4 -1.1500000000000000e-01 -1.1715635249728127e+00 6.7752119843225698e+00 1.1202929766745518e+01 1 0 0
754 34 6 0.0000000000000000e+00 -4.4410511091306493e-01 5.2512685585909429e+00 1.0482471561252167e+01 1 0 0
609 34 2 1.1500000000000000e-01 -1.1829792948639044e+00 4.5278453695973191e+00 1.3756838009099308e+01 1 0 0
4398 234 4 -1.1500000000000000e-01 -1.6122024679847602e+00 7.4779363146668443e-01 1.1404915949496536e+01 1 1 0
4412 234 2 1.1500000000000000e-01 -2.4367152554812295e+00 1.0266661003167510e+00 1.3302134684192007e+01 1 1 0
247 14 4 -1.1500000000000000e-01 -5.7556539525617829e+00 8.6949168789707654e-01 1.1256627300811305e+01 1 0 0
608 34 1 -1.1500000000000000e-01 -1.4059104570704362e+00 6.2389765230723571e+00 1.2461046561127107e+01 1 0 0
612 34 2 1.1500000000000000e-01 -2.0935378462170871e+00 6.5984166130315414e+00 1.3260629079515171e+01 1 0 0
979 53 3 0.0000000000000000e+00 -1.4429589095820550e-01 9.1364102296950715e+00 3.3173971017887038e+00 1 0 0
980 53 4 -1.1500000000000000e-01 5.7521331038383794e-01 1.0013938461169474e+01 2.5253432521702033e+00 1 0 0
984 53 2 1.1500000000000000e-01 9.9633518762833306e-01 1.0931125930352618e+01 2.9559096171427091e+00 1 0 0
1361 74 2 1.1500000000000000e-01 -1.1772509281512695e+00 1.3211778047975894e+01 8.4881556350728591e+00 1 0 0
990 53 1 -1.1500000000000000e-01 5.6207710157538215e-01 9.8542738593442429e+00 1.1026274051205194e+00 1 0 0
2253 93 6 0.0000000000000000e+00 -3.7933111384392126e-01 1.4274872865748508e+01 3.0124757780144629e+00 1 0 0
1493 53 6 0.0000000000000000e+00 -5.4935586842447082e-01 8.6497633596646111e+00 2.9832397271370881e+00 1 0 0
986 53 1 -1.1500000000000000e-01 -1.2792711627280995e-01 8.8459738095462335e+00 4.9044317918911373e-01 1 0 0
1005 54 4 -1.1500000000000000e-01 -4.5178679103821855e+00 7.2189808591728717e+00 8.8823245475748287e+00 1 0 0
994 53 2 1.1500000000000000e-01 1.1362723478715278e+00 1.0574800609776524e+01 4.4717296045548771e-01 1 0 0
594 33 2 1.1500000000000000e-01 2.1429642899814438e+00 7.3508603664983116e+00 5.9422017634109876e+00 1 0 0
1741 93 1 -1.1500000000000000e-01 -1.6026347761579283e+00 1.3534624657961796e+01 4.8643362291372387e+00 1 0 0
977 53 7 -1.1500000000000000e-01 -6.2305831142878576e-01 8.2218940050987808e+00 5.5185005258130122e+00 1 0 0
978 53 5 -1.1500000000000000e-01 -1.8165872342491163e-01 9.2841871518652965e+00 4.7124829214050497e+00 1 0 0
982 53 2 1.1500000000000000e-01 -6.0968246047905073e-01 8.2155752723583646e+00 6.6276599172820827e+00 1 0 0
983 53 2 1.1500000000000000e-01 3.0518503417199883e-01 1.0120976459959481e+01 5.1273181466190660e+00 1 0 0
1012 54 2 1.1500000000000000e-01 -2.1549959876457407e+00 9.5864720973514590e+00 7.9842379438906246e+00 1 0 0
1004 54 1 -1.1500000000000000e-01 -3.5569801877013978e+00 7.7865018056556154e+00 8.0361049454302513e+00 1 0 0
1363 74 2 1.1500000000000000e-01 9.1131925189424212e-01 9.6230536271169331e+00 7.6348431710404023e+00 1 0 0
1745 93 2 1.1500000000000000e-01 -2.1706933770145111e+00 1.2990842873673694e+01 5.5740157882274870e+00 1 0 0
1008 54 1 -1.1500000000000000e-01 -2.8626443023297181e+00 8.9994568310785894e+00 8.4617675687502825e+00 1 0 0
1338 73 5 -1.1500000000000000e-01 3.6740384856493429e+00 1.2275991948746476e+01 1.6693648303270132e+00 1 0 0
1339 73 3 0.0000000000000000e+00 3.4515648046949057e+00 1.1901171881179900e+01 3.0489910864912892e+00 1 0 0
1340 73 4 -1.1500000000000000e-01 2.7816597083404613e+00 1.2787655251277242e+01 3.9430670952193481e+00 1 0 0
1341 73 1 -1.1500000000000000e-01 4.8593752914939170e+00 1.0104769432447188e+01 1.2378063125375969e+00 1 0 0
1337 73 7 -1.1500000000000000e-01 4.2691365880610759e+00 1.1323316795941189e+01 7.6109507392913756e-01 1 0 0
1343 73 2 1.1500000000000000e-01 3.3463198531020550e+00 1.3176233347747877e+01 1.2148916989714265e+00 1 0 0
988 53 3 0.0000000000000000e+00 -7.5097361018618103e-01 8.0314911876831854e+00 2.7292921158783856e+00 1 0 0
1348 73 3 0.0000000000000000e+00 3.9797659287444889e+00 1.0697620324676770e+01 3.4887959294963951e+00 1 0 0
1349 73 4 -1.1500000000000000e-01 4.6447397593982727e+00 9.7975625617153739e+00 2.5971536592005227e+00 1 0 0
1353 73 2 1.1500000000000000e-01 5.1283962921164719e+00 8.9119726878039511e+00 2.9411904225753065e+00 1 0 0
1513 73 6 0.0000000000000000e+00 3.7353878470618112e+00 1.1286309278580790e+01 3.2407790406223120e+00 1 0 0
1356 74 5 -1.1500000000000000e-01 -6.5984349539421405e-01 1.2340662426526450e+01 8.8422477335970378e+00 1 0 0
1354 73 2 1.1500000000000000e-01 2.0921958105574037e+00 1.3120914824250598e+01 5.9352470245103097e+00 1 0 0
1346 73 1 -1.1500000000000000e-01 3.0312695321756924e+00 1.1187356341759761e+01 5.7329970605228810e+00 1 0 0
1347 73 4 -1.1500000000000000e-01 3.6391352183546548e+00 1.0240509737831122e+01 4.7829537498974082e+00 1 0 0
1350 73 1 -1.1500000000000000e-01 2.6023692481024110e+00 1.2473463733612704e+01 5.2521486604796577e+00 1 0 0
1351 73 2 1.1500000000000000e-01 2.8570218836851193e+00 1.1063475158840442e+01 6.7865164695481210e+00 1 0 0
1352 73 2 1.1500000000000000e-01 4.0455394348041747e+00 9.2988669324992195e+00 5.1996131404566794e+00 1 0 0
1345 73 2 1.1500000000000000e-01 5.4260072706059086e+00 9.4023172417194516e+00 6.3384300243365765e-01 1 0 0
1355 74 7 -1.1500000000000000e-01 -6.8152233511568738e-02 1.1493813919792858e+01 7.9126007134139442e+00 1 0 0
1359 74 1 -1.1500000000000000e-01 5.5262596688166887e-01 1.0337523980391406e+01 8.3875521086848366e+00 1 0 0
1360 74 2 1.1500000000000000e-01 -3.3508387386244287e-02 1.1771407402477474e+01 6.9364638407741275e+00 1 0 0
1747 93 4 -1.1500000000000000e-01 -6.0689378236428915e-01 1.3211523311169048e+01 1.3062602658074784e+00 1 0 0
1748 93 3 0.0000000000000000e+00 -7.2549750240182587e-01 1.3762630263372749e+01 2.5830682570561438e+00 1 0 0
601 34 2 1.1500000000000000e-01 -9.7494088511264998e-01 7.3310406647548936e+00 8.6494667655654958e+00 1 0 0
1756 94 5 -1.1500000000000000e-01 -4.6295439009298907e+00 1.5155283122977723e+01 1.2011484506630291e+01 1 0 0
1746 93 1 -1.1500000000000000e-01 1.7057875292978508e-01 1.3896512947459749e+01 3.5121988816987737e-01 1 0 0
584 33 2 1.1500000000000000e-01 2.1711476173138715e+00 7.6635860706203331e+00 3.6408560003729433e+00 1 0 0
1753 93 2 1.1500000000000000e-01 -1.9283016353195135e+00 1.2101264184286810e+01 3.2528993309956369e+00 1 0 0
1749 93 4 -1.1500000000000000e-01 -1.4632885478401676e+00 1.3046402595175252e+01 3.5801561669519057e+00 1 0 0
2513 133 2 1.1500000000000000e-01 -1.6839839345204628e+00 1.7821574129737041e+01 3.0249218830535760e+00 1 0 0
1344 73 2 1.1500000000000000e-01 2.4286844971178878e+00 1.3721008627489148e+01 3.4856242628576561e+00 1 0 0
1009 54 2 1.1500000000000000e-01 -3.2975958342560059e+00 7.3547141112990317e+00 7.0783627183021807e+00 1 0 0
987 53 4 -1.1500000000000000e-01 -7.8219645015864980e-01 7.9701091404926245e+00 1.3313195969518452e+00 1 0 0
995 54 7 -1.1500000000000000e-01 -5.4750150147704897e+00 8.9594764486912482e+00 1.2560270391547219e+01 1 0 0
996 54 5 -1.1500000000000000e-01 -4.5184154977007251e+00 9.5389526904509925e+00 1.1758529057965189e+01 1 0 0
997 54 3 0.0000000000000000e+00 -4.2511892878854285e+00 8.9868633262270947e+00 1.0487030691229407e+01 1 0 0
1001 54 2 1.1500000000000000e-01 -4.0658063486948741e+00 1.0453723980055123e+01 1.2066785347490683e+01 1 0 0
1371 74 2 1.1500000000000000e-01 9.9334813342714678e-01 9.0436581998598200e+00 1.0088498098065063e+01 1 0 0
1357 74 3 0.0000000000000000e+00 -6.4281669816905396e-01 1.2136578475744995e+01 1.0235976633071903e+01 1 0 0
1767 94 4 -1.1500000000000000e-01 -5.9958717870322094e+00 1.3057954860249907e+01 1.0842254340913280e+01 1 0 0
998 54 4 -1.1500000000000000e-01 -3.2668353297850974e+00 9.6306196682218541e+00 9.6216631518019060e+00 1 0 0
1494 54 6 0.0000000000000000e+00 -4.5640086082635367e+00 8.4266421370760884e+00 1.0298867251971194e+01 1 0 0
1362 74 2 1.1500000000000000e-01 -1.7546018236280405e+00 1.3943332148063547e+01 1.0808307727612751e+01 1 0 0
1003 54 2 1.1500000000000000e-01 -6.7407209095693394e+00 7.2672701020959352e+00 1.2971495233519985e+01 1 0 0
999 54 1 -1.1500000000000000e-01 -6.0656788041480514e+00 7.7705421619188400e+00 1.2267597324454695e+01 1 0 0
1372 74 2 1.1500000000000000e-01 -1.8220381566740889e+00 1.3369603836163911e+01 1.3147183040016438e+01 1 0 0
1514 74 6 0.0000000000000000e+00 -2.5179452288521631e-01 1.1643843067388705e+01 1.0544686638161808e+01 1 0 0
602 34 2 1.1500000000000000e-01 -1.5626087556222217e+00 7.7831961714810260e+00 1.0957187423117524e+01 1 0 0
1358 74 4 -1.1500000000000000e-01 -1.2898639598482697e+00 1.3035804216007399e+01 1.1105004571846303e+01 1 0 0
1364 74 1 -1.1500000000000000e-01 -6.8147300215539808e-01 1.1527187325186718e+01 1.2878321327341622e+01 1 0 0
1365 74 4 -1.1500000000000000e-01 -1.1708177786648832e-01 1.0588806194436431e+01 1.1999902279300018e+01 1 0 0
1366 74 3 0.0000000000000000e+00 -6.9917127024711867e-02 1.0948664062248284e+01 1.0677687329352125e+01 1 0 0
1759 94 1 -1.1500000000000000e-01 -5.9746344155566282e+00 1.3178997347825982e+01 1.2257377366662727e+01 1 0 0
1368 74 1 -1.1500000000000000e-01 -1.2802362496733348e+00 1.2737668673767546e+01 1.2486645586901107e+01 1 0 0
1369 74 2 1.1500000000000000e-01 -8.4298543768282830e-01 1.1301540463520197e+01 1.3942717010340514e+01 1 0 0
1370 74 2 1.1500000000000000e-01 2.2778255294915795e-01 9.6112096622442191e+00 1.2252485104397298e+01 1 0 0
1378 75 2 1.1500000000000000e-01 -4.0961859681806398e+00 1.1731979163849104e+01 1.3971150423614079e+01 1 0 0
1000 54 2 1.1500000000000000e-01 -5.6995319252876309e+00 9.4394238195351505e+00 1.3562555731121481e+01 1 0 0
1766 94 3 0.0000000000000000e+00 -5.2681819800032903e+00 1.3988063168310973e+01 1.0041635076875606e+01 1 0 0
1006 54 3 0.0000000000000000e+00 -4.8456654741344387e+00 7.8013438234547827e+00 1.0116974445967902e+01 1 0 0
1763 94 2 1.1500000000000000e-01 -6.5389198171951559e+00 1.2568796969720589e+01 1.2909394951469952e+01 1 0 0
1367 74 4 -1.1500000000000000e-01 5.4961278822520931e-01 1.0067115337686403e+01 9.7630833192049788e+00 1 0 0
1002 54 2 1.1500000000000000e-01 -2.8747913659035671e+00 1.0609957646004997e+01 9.9004466710349242e+00 1 0 0
1755 94 7 -1.1500000000000000e-01 -5.3221011788472081e+00 1.4250823257997673e+01 1.2832432486582444e+01 1 0 0
1007 54 4 -1.1500000000000000e-01 -5.7003163299734370e+00 7.1600151024755565e+00 1.1041850174357322e+01 1 0 0
1737 93 7 -1.1500000000000000e-01 -8.8365045786892304e-01 1.4611680588058203e+01 5.2586627239871016e+00 1 0 0
1740 93 4 -1.1500000000000000e-01 6.7825578855660695e-01 1.5621981264794799e+01 2.0254810204592300e+00 1 0 0
1744 93 2 1.1500000000000000e-01 1.2521433488523572e+00 1.6535727355646923e+01 2.2660600648876423e+00 1 0 0
1768 94 1 -1.1500000000000000e-01 -3.8313988716720013e+00 1.5753751704707607e+01 8.3738403142346733e+00 1 0 0
1750 93 1 -1.1500000000000000e-01 8.2045192932439526e-01 1.5131171223228442e+01 6.8997910161927845e-01 1 0 0
2112 113 2 1.1500000000000000e-01 4.0446278203567223e+00 1.5660908934751005e+01 5.5030473828996822e+00 1 0 0
2119 114 1 -1.1500000000000000e-01 5.3738244433549642e-01 1.5773773584557739e+01 8.1573829505224129e+00 1 0 0
1765 94 4 -1.1500000000000000e-01 -5.2114432154857457e+00 1.3759946775336731e+01 8.6201139653393586e+00 1 0 0
1743 93 2 1.1500000000000000e-01 2.4633460928144979e-01 1.6379372600302872e+01 4.6645223125302522e+00 1 0 0
2127 114 4 -1.1500000000000000e-01 6.2133890614985177e-01 1.5497223017334939e+01 9.5656167704729320e+00 1 0 0
1772 94 2 1.1500000000000000e-01 -3.3547464646241059e+00 1.6374764942300480e+01 7.6136083376167853e+00 1 0 0
1739 93 3 0.0000000000000000e+00 -7.8704417771368496e-02 1.4936588834577229e+01 2.9804620427379986e+00 1 0 0
1754 93 2 1.1500000000000000e-01 1.3914740357946551e+00 1.5620074488494458e+01 -5.9943921017000523e-02 1 0 0
2097 113 7 -1.1500000000000000e-01 4.4162971191624942e+00 1.7354865153426498e+01 1.1440154218318741e+00 1 0 0
2131 114 2 1.1500000000000000e-01 1.1103855842080197e+00 1.4531958238019399e+01 9.8827187303909820e+00 1 0 0
2101 113 1 -1.1500000000000000e-01 4.8392778570756052e+00 1.6149006284825489e+01 1.6697671294255363e+00 1 0 0
2113 113 2 1.1500000000000000e-01 4.9766579443361803e+00 1.4916291474060406e+01 3.3714544397527582e+00 1 0 0
1738 93 5 -1.1500000000000000e-01 -1.4330153720673344e-01 1.5366841109188440e+01 4.3375685399243613e+00 1 0 0
2108 113 3 0.0000000000000000e+00 3.7916299940406408e+00 1.6770493544618262e+01 3.7559780500787481e+00 1 0 0
2109 113 4 -1.1500000000000000e-01 4.5734660029328769e+00 1.5859037511195954e+01 3.0282531050709793e+00 1 0 0
2273 113 6 0.0000000000000000e+00 3.6466081409556002e+00 1.7320801254189956e+01 3.3971626729352220e+00 1 0 0
2106 113 1 -1.1500000000000000e-01 2.8048581317755170e+00 1.7406521190372118e+01 5.9537075384558733e+00 1 0 0
2107 113 4 -1.1500000000000000e-01 3.5730036330173225e+00 1.6508559095735549e+01 5.1409288348333178e+00 1 0 0
2111 113 2 1.1500000000000000e-01 2.7123077636699877e+00 1.7126332540125723e+01 6.9525987314061419e+00 1 0 0
2115 114 7 -1.1500000000000000e-01 9.7082117832947290e-04 1.7002486652876101e+01 7.7036475375267166e+00 1 0 0
2102 113 2 1.1500000000000000e-01 4.5387219826844660e+00 1.7642066891849336e+01 1.2669195498767066e-01 1 0 0
2120 114 2 1.1500000000000000e-01 1.2173541770512220e-01 1.7319395615122353e+01 6.7274411566105128e+00 1 0 0
2123 114 2 1.1500000000000000e-01 1.0136548869007438e+00 1.4987233779703155e+01 7.6153100442694912e+00 1 0 0
1758 94 4 -1.1500000000000000e-01 -3.8394668524219027e+00 1.5945735986995327e+01 9.7844083534264374e+00 1 0 0
2105 113 2 1.1500000000000000e-01 5.4298529950282992e+00 1.5471754682663112e+01 1.0725246914581217e+00 1 0 0
1742 93 2 1.1500000000000000e-01 -1.0029133791619835e+00 1.4851514063713370e+01 6.3273376335026699e+00 1 0 0
1764 94 1 -1.1500000000000000e-01 -4.5438186020560449e+00 1.4668511973926105e+01 7.8001650700002756e+00 1 0 0
2117 114 3 0.0000000000000000e+00 -5.2655309044533194e-01 1.7610236713616143e+01 9.9778274279156225e+00 1 0 0
1761 94 2 1.1500000000000000e-01 -4.1163967978156162e+00 1.6022066515377848e+01 1.2395941339723560e+01 1 0 0
2274 114 6 0.0000000000000000e+00 -2.9751806235995293e-01 1.7034065002977076e+01 1.0316630369204960e+01 1 0 0
2254 94 6 0.0000000000000000e+00 -5.0579127803400423e+00 1.4608563152392378e+01 1.0283652548864026e+01 1 0 0
2130 114 2 1.1500000000000000e-01 6.0369052167653603e-01 1.5323015604146551e+01 1.2183996462812519e+01 1 0 0
2124 114 1 -1.1500000000000000e-01 -4.1432855863418538e-01 1.7154782896437162e+01 1.2746235588467234e+01 1 0 0
2125 114 4 -1.1500000000000000e-01 1.8044212028423434e-01 1.6252006346513181e+01 1.1817447156034710e+01 1 0 0
2126 114 3 0.0000000000000000e+00 9.7784622749647276e-02 1.6438313359596943e+01 1.0453175754068686e+01 1 0 0
1011 54 2 1.1500000000000000e-01 -6.2331230218460556e+00 6.3334710680399056e+00 1.0680504175766563e+01 1 0 0
1757 94 3 0.0000000000000000e+00 -4.5895471854101606e+00 1.5049650684509757e+01 1.0580298255188954e+01 1 0 0
2138 115 2 1.1500000000000000e-01 -3.6566592385113887e+00 1.7362777803769951e+01 1.4406786739484444e+01 1 0 0
1762 94 2 1.1500000000000000e-01 -3.3046018815925495e+00 1.6627919025238338e+01 1.0345834600224714e+01 1 0 0
1027 55 2 1.1500000000000000e-01 -8.3441753372205483e+00 8.1801816649889130e+00 1.4282217257656516e+01 1 0 0
251 14 2 1.1500000000000000e-01 -6.1990303727866705e+00 -1.7933770107848506e-02 1.0867189601810894e+01 1 0 0
2116 114 5 -1.1500000000000000e-01 -5.4741984212935701e-01 1.7916196233237091e+01 8.6229624003907759e+00 1 0 0
2099 113 3 0.0000000000000000e+00 3.2973683880330151e+00 1.7913507364139850e+01 3.1945252239440687e+00 1 0 0
322 18 2 1.1500000000000000e-01 2.8160055663716985e+00 1.9048414397281485e-01 9.0521899012864999e+00 1 0 0
249 14 2 1.1500000000000000e-01 -3.9543186580379626e+00 2.0825653595209141e+00 7.1877631009172935e+00 1 0 0
4416 235 4 -1.1500000000000000e-01 -5.8737145855159199e+00 8.9042495386967524e-01 1.9058039291474323e+01 1 1 0
4420 235 2 1.1500000000000000e-01 -6.2434034786285384e+00 1.8255868092210843e+00 1.8647255715059234e+01 1 1 0
255 15 3 0.0000000000000000e+00 -8.8027714839495506e+00 3.1325060168135703e+00 1.8192751256267378e+01 1 0 0
256 15 4 -1.1500000000000000e-01 -8.0616724111729781e+00 3.8720808047386126e+00 1.7211369733281142e+01 1 0 0
260 15 2 1.1500000000000000e-01 -7.6753586676237529e+00 4.8947487932271283e+00 1.7425068509603417e+01 1 0 0
1045 56 2 1.1500000000000000e-01 -1.2527752580073628e+01 7.4777312836019583e+00 2.2048090282923916e+01 1 0 0
4414 235 5 -1.1500000000000000e-01 -4.9217542165500250e+00 3.4938297216971193e-01 1.6856506545869159e+01 1 1 0
264 15 3 0.0000000000000000e+00 -9.3556757587279300e+00 1.8930710112630651e+00 1.7853699447824678e+01 1 0 0
262 15 1 -1.1500000000000000e-01 -8.4093130186159470e+00 2.0417697863956570e+00 1.5606793139398123e+01 1 0 0
266 15 1 -1.1500000000000000e-01 -7.7743211591241312e+00 3.2613221512797113e+00 1.6000552579635549e+01 1 0 0
263 15 4 -1.1500000000000000e-01 -9.1539689471252608e+00 1.3785120149712231e+00 1.6531333218418713e+01 1 0 0
735 15 6 0.0000000000000000e+00 -8.9220156858858317e+00 2.4254563010297776e+00 1.8048903526024034e+01 1 0 0
265 15 4 -1.1500000000000000e-01 -1.0077704698685515e+01 1.1016674823527757e+00 1.8738996369002816e+01 1 0 0
2256 96 6 0.0000000000000000e+00 -1.3137548178519294e+01 1.4338202602539749e+01 2.5052584616246673e+01 1 0 0
613 35 7 -1.1500000000000000e-01 -4.4299446834812057e+00 5.6337842351217100e+00 1.6112406296075473e+01 1 0 0
618 35 2 1.1500000000000000e-01 -4.1818724950648196e+00 6.0799566332898785e+00 1.5114043893694511e+01 1 0 0
615 35 3 0.0000000000000000e+00 -5.2909677148671799e+00 5.7521527903674468e+00 1.8391416033600620e+01 1 0 0
617 35 1 -1.1500000000000000e-01 -3.8054064632055988e+00 4.3819302856916993e+00 1.6394986463318702e+01 1 0 0
621 35 2 1.1500000000000000e-01 -3.2839995957649881e+00 3.8015205140691344e+00 1.5590950679890982e+01 1 0 0
624 35 3 0.0000000000000000e+00 -4.6611854346599682e+00 4.4964638466600420e+00 1.8695756648279190e+01 1 0 0
625 35 4 -1.1500000000000000e-01 -4.0191324497089642e+00 3.8019001517452344e+00 1.7644943792442614e+01 1 0 0
629 35 2 1.1500000000000000e-01 -3.7327319509106953e+00 2.7579809739207906e+00 1.7673178494548612e+01 1 0 0
755 35 6 0.0000000000000000e+00 -4.9561292170490479e+00 5.1221427970561768e+00 1.8430653788761035e+01 1 0 0
270 15 2 1.1500000000000000e-01 -7.1417172178946053e+00 3.7576732962348842e+00 1.5280377720169453e+01 1 0 0
614 35 5 -1.1500000000000000e-01 -5.1960487921052323e+00 6.3070068933042283e+00 1.7104616742211938e+01 1 0 0
4419 235 2 1.1500000000000000e-01 -5.1918491623009633e+00 1.3170130248484202e+00 1.6482413896605934e+01 1 1 0
1025 55 4 -1.1500000000000000e-01 -9.8068501935051220e+00 6.7396839279550136e+00 1.8305826599427753e+01 1 0 0
616 35 4 -1.1500000000000000e-01 -5.9566277315141258e+00 6.5550451706111499e+00 1.9383187795040826e+01 1 0 0
269 15 2 1.1500000000000000e-01 -1.0482031422823777e+01 1.0176212531816073e-01 1.8534497230649222e+01 1 0 0
2153 116 3 0.0000000000000000e+00 -9.4930428775460509e+00 1.7873495551567579e+01 2.5727009235313535e+01 1 0 0
254 15 5 -1.1500000000000000e-01 -8.9365754815167744e+00 3.5711338749527579e+00 1.9508577977157330e+01 1 0 0
280 16 1 -1.1500000000000000e-01 -1.2743920310000618e+01 2.3530565491916202e+00 2.3098698562780818e+01 1 0 0
1878 100 2 1.1500000000000000e-01 -5.3396950574262529e+00 1.2138547425831096e+01 2.3159978660820308e+01 1 0 0
258 15 2 1.1500000000000000e-01 -9.6353499279735395e+00 3.1958837775286875e+00 2.1455532667142762e+01 1 0 0
634 36 4 -1.1500000000000000e-01 -1.0208753726540778e+01 6.3990210637057752e+00 2.6167134827382103e+01 1 0 0
4433 236 3 0.0000000000000000e+00 -9.5159083230699348e+00 6.4725435097845674e-02 2.5648596020415550e+01 1 1 0
257 15 1 -1.1500000000000000e-01 -1.0293711833775236e+01 1.5818844287449065e+00 2.0049381316791052e+01 1 0 0
284 16 1 -1.1500000000000000e-01 -1.2213042037732437e+01 3.5734134525833028e+00 2.3607990300498003e+01 1 0 0
279 16 2 1.1500000000000000e-01 -1.4789621378793861e+01 6.0028653970410772e-01 2.8316895689608973e+01 1 0 0
1792 96 5 -1.1500000000000000e-01 -1.3062983782945905e+01 1.5296729072737278e+01 2.6731626165977815e+01 1 0 0
288 16 2 1.1500000000000000e-01 -1.1782000855847588e+01 4.2985327373901736e+00 2.2918256382165886e+01 1 0 0