LAMMPS (15 May 2015)
Reading data file ...
  triclinic box = (-0.107635 -0.0404339 -0.357111) to (41.3876 35.9384 29.5551) with tilt (-0.0672341 -17.0362 -0.0417078)
  5 by 2 by 2 MPI processor grid
  reading atoms ...
  4560 atoms
  reading velocities ...
  4560 velocities
  scanning bonds ...
  3 = max bonds/atom
  scanning angles ...
  3 = max angles/atom
  scanning dihedrals ...
  8 = max dihedrals/atom
  scanning impropers ...
  1 = max impropers/atom
  reading bonds ...
  5040 bonds
  reading angles ...
  7200 angles
  reading dihedrals ...
  10560 dihedrals
  reading impropers ...
  2400 impropers
Finding 1-2 1-3 1-4 neighbors ...
 Special bond factors lj:   0          0          0         
 Special bond factors coul: 0          0          0         
  4 = max # of 1-2 neighbors
  8 = max # of 1-3 neighbors
  20 = max # of 1-4 neighbors
  16 = max # of special neighbors
4560 atoms in group all
720 atoms in group C
480 atoms in group S
1920 atoms in group H
720 atoms in group Si
240 atoms in group Na
240 atoms in group Ba
240 atoms in group O
4560 atoms in group naphthalene
1200 atoms in group fixed
960 atoms in group CO
Setting atom values ...
  720 settings made for charge
Setting atom values ...
  720 settings made for charge
Setting atom values ...
  1920 settings made for charge
Setting atom values ...
  480 settings made for charge
Setting atom values ...
  240 settings made for charge
Setting atom values ...
  240 settings made for charge
Setting atom values ...
  240 settings made for charge
Finding 1-2 1-3 1-4 neighbors ...
 Special bond factors lj:   0          0          0.5       
 Special bond factors coul: 0          0          0.5       
  4 = max # of 1-2 neighbors
  8 = max # of 1-3 neighbors
  20 = max # of 1-4 neighbors
  16 = max # of special neighbors
PPPM initialization ...
  G vector (1/distance) = 0.253736
  grid = 20 18 24
  stencil order = 5
  estimated absolute RMS force accuracy = 0.00131269
  estimated relative force accuracy = 3.95312e-06
  using double precision FFTs
  3d grid and FFT values/proc = 3344 720
Neighbor list info ...
  6 neighbor list requests
  update every 1 steps, delay 0 steps, check yes
  master list distance cutoff = 12
Setting up run ...
Memory usage per processor = 14.3555 Mbytes
Step Temp Density PotEng E_vdwl E_tail E_coul E_long Press Volume Xy Xz Yz E_mol E_bond E_angle E_dihed 14[1] 14[2] 14[3] msd[4] msd2[4] msd3[4] msd4[4] naphthal Cella Cellb Cellc CellAlpha CellBeta CellGamma 27[1] 27[2] 27[3] 
       0          298    1.2509986    2443.1475   -817.81905   -147.44472    2133.4636   -2371.3301   -4292.5976    44657.537 -0.067234084   -17.036218 -0.041707817     3498.833    1521.0094     935.4334    889.67826    28.379601    18.846571    14.337846 2.3535127e-29 2.7422013e-29 2.2534249e-29 2.2900766e-29          298     41.49527    35.978931    34.423473    90.016431    119.66323    90.107069    28.379761    18.846182    14.337739 
   10000    293.10561    1.2509986    2554.2262   -793.85387   -147.44472    2133.1178    -2372.263   -3234.4406    44657.537 -0.067234084   -17.036218 -0.041707817    3587.2253    1575.6129    935.98291    919.29535    28.379057    18.845435    14.335933 0.00031349691 0.00031293903 0.00031591712 0.00031492034    293.10561     41.49527    35.978931    34.423473    90.016431    119.66323    90.107069    28.379894    18.846219    14.337005 
   20000     288.1649    1.2509986    2485.0887   -779.02456   -147.44472    2139.3648   -2371.2702   -2240.9795    44657.537 -0.067234084   -17.036218 -0.041707817    3496.0187    1532.9544     914.7655    894.00326     28.38145    18.846502    14.339053 0.00032482302 0.00032454157 0.00033256553 0.00033222693     288.1649     41.49527    35.978931    34.423473    90.016431    119.66323    90.107069    28.379391    18.846487    14.337512 
   30000    294.29124    1.2509986    2483.5524   -795.80691   -147.44472    2133.4299   -2371.7164   -3275.8597    44657.537 -0.067234084   -17.036218 -0.041707817    3517.6457    1547.1554     899.6226    912.36416    28.380481    18.846324    14.337144 0.00033117474 0.0003310412 0.00033971394 0.00033959297    294.29124     41.49527    35.978931    34.423473    90.016431    119.66323    90.107069    28.379664    18.846528    14.337672 
   40000    297.81246    1.2509986    2536.1071   -771.26817   -147.44472    2133.3546   -2371.7464   -2084.9971    44657.537 -0.067234084   -17.036218 -0.041707817     3545.767    1523.4133     963.1751    902.72399    28.377305    18.844928     14.33807 0.00032942326 0.00032907412 0.00033486027 0.00033449209    297.81246     41.49527    35.978931    34.423473    90.016431    119.66323    90.107069    28.379477    18.845693    14.337909 
   50000     293.9569    1.2509986    2476.4588   -775.76162   -147.44472    2133.9746   -2371.6352   -2039.0786    44657.537 -0.067234084   -17.036218 -0.041707817    3489.8811    1535.9147    925.86166    874.20299    28.379531    18.844606    14.336531 0.00033853406 0.00033844594 0.0003464626 0.00034635611     293.9569     41.49527    35.978931    34.423473    90.016431    119.66323    90.107069    28.379853     18.84616    14.337458 
   60000    294.66417    1.2509986    2481.1721   -779.04821   -147.44472    2133.5484    -2371.678   -2850.5515    44657.537 -0.067234084   -17.036218 -0.041707817    3498.3499    1541.2571    946.20038      863.405    28.377994    18.845306    14.337327 0.00033856986 0.00033844666 0.00033905361 0.0003387427    294.66417     41.49527    35.978931    34.423473    90.016431    119.66323    90.107069     28.37973    18.846511    14.337619 
   70000    298.79441    1.2509986    2487.0539   -792.41416   -147.44472    2132.0566   -2371.7284   -4173.4857    44657.537 -0.067234084   -17.036218 -0.041707817    3519.1398    1551.0717    918.47666     898.1148    28.380564    18.847698    14.338506 0.00034229555 0.00034212293 0.00034813598 0.00034781366    298.79441     41.49527    35.978931    34.423473    90.016431    119.66323    90.107069    28.379718    18.846501    14.338002 
   80000    301.32589    1.2509986    2486.3694   -785.36694   -147.44472      2132.19     -2372.27   -2759.2428    44657.537 -0.067234084   -17.036218 -0.041707817    3511.8163    1513.9299    939.74156    904.59239    28.380259    18.846063    14.337081 0.00033399825 0.00033347076 0.0003381964 0.0003374923    301.32589     41.49527    35.978931    34.423473    90.016431    119.66323    90.107069    28.379706    18.845866    14.337088 
   90000    302.24466    1.2509986    2453.6081   -795.60517   -147.44472    2132.7085   -2371.8752   -2285.3018    44657.537 -0.067234084   -17.036218 -0.041707817      3488.38    1494.8732    927.56148    908.65311    28.379738     18.84584    14.338049 0.00033831934 0.0003382444 0.00034219931 0.00034209837    302.24466     41.49527    35.978931    34.423473    90.016431    119.66323    90.107069    28.379995    18.846286    14.337641 
  100000    298.03228    1.2509986    2528.8094   -776.76452   -147.44472    2133.4247   -2371.9133   -1864.3653    44657.537 -0.067234084   -17.036218 -0.041707817    3544.0625    1537.5159    942.35618    905.39742    28.378234    18.844647    14.336824 0.00032932087 0.00032896706 0.00033740357 0.00033692713    298.03228     41.49527    35.978931    34.423473    90.016431    119.66323    90.107069    28.379986    18.845928    14.338227 
  110000     300.6341    1.2509986    2436.1289   -781.32522   -147.44472     2133.512   -2371.6431   -2013.3612    44657.537 -0.067234084   -17.036218 -0.041707817    3455.5852    1486.9511    973.37699    845.59816    28.378431    18.844244    14.337775 0.00034648431 0.00034602969 0.00034950405 0.0003490337     300.6341     41.49527    35.978931    34.423473    90.016431    119.66323    90.107069    28.379256    18.845831    14.337463 
  120000    297.13846    1.2509986    2511.8108   -786.69125   -147.44472    2135.0559   -2371.4907   -1648.8369    44657.537 -0.067234084   -17.036218 -0.041707817    3534.9369    1525.3569    980.66963    879.57875    28.380142    18.845973    14.337557 0.00034976285 0.00034964645 0.00034892868 0.00034882801    297.13846     41.49527    35.978931    34.423473    90.016431    119.66323    90.107069     28.37995    18.846058    14.337484 
  130000     300.4504    1.2509986    2397.3761   -787.95402   -147.44472     2133.514   -2372.0341   -1902.4371    44657.537 -0.067234084   -17.036218 -0.041707817    3423.8503    1514.0288    939.08057    824.02219    28.378215    18.845515    14.337776 0.00034664745 0.0003461974 0.00035013747 0.00034979531     300.4504     41.49527    35.978931    34.423473    90.016431    119.66323    90.107069    28.379808    18.846746    14.338099 
  140000    301.30751    1.2509986    2452.5437   -786.69411   -147.44472    2135.1888   -2371.8723   -2656.1198    44657.537 -0.067234084   -17.036218 -0.041707817    3475.9213    1530.4089    933.46727    864.38437    28.379968    18.846557    14.336622 0.00034632881 0.00034607538 0.00034752569 0.00034711896    301.30751     41.49527    35.978931    34.423473    90.016431    119.66323    90.107069    28.380228    18.846364    14.337692 
  150000    300.10781    1.2509986    2430.6229   -791.93373   -147.44472    2133.5034   -2371.8696   -2457.7776    44657.537 -0.067234084   -17.036218 -0.041707817    3460.9229    1564.0687    893.48414    857.91604    28.378998    18.845599    14.337889 0.00035394068 0.00035380025 0.00035484513 0.00035471752    300.10781     41.49527    35.978931    34.423473    90.016431    119.66323    90.107069    28.379653     18.84593    14.337995 
  160000    296.52142    1.2509986    2510.9991   -787.89455   -147.44472    2134.8892   -2371.5925    -3281.036    44657.537 -0.067234084   -17.036218 -0.041707817    3535.5969     1522.148    970.12477    887.25863    28.381194    18.846641    14.337352 0.00036418895 0.00036386062 0.00036648546 0.00036608854    296.52142     41.49527    35.978931    34.423473    90.016431    119.66323    90.107069    28.379269    18.846468    14.337669 
  170000    299.08669    1.2509986    2368.6171   -795.38143   -147.44472    2137.2914   -2371.5134   -1200.4628    44657.537 -0.067234084   -17.036218 -0.041707817    3398.2205    1465.8225    917.51406    867.47547      28.3769    18.845997    14.337204 0.00034861462 0.0003483262 0.0003556527 0.00035487035    299.08669     41.49527    35.978931    34.423473    90.016431    119.66323    90.107069    28.379362    18.846109    14.338091 
  180000    293.53528    1.2509986    2403.2565   -796.63451   -147.44472    2136.6373   -2371.7724   -3459.8872    44657.537 -0.067234084   -17.036218 -0.041707817    3435.0261    1517.4906    940.22421    836.37575    28.379692     18.84474    14.337192 0.00035029984 0.00035021391 0.0003523765 0.0003522189    293.53528     41.49527    35.978931    34.423473    90.016431    119.66323    90.107069    28.379502     18.84617    14.337602 
  190000    291.75131    1.2509986    2593.4614   -771.69745   -147.44472    2135.2056   -2371.7985   -1594.0402    44657.537 -0.067234084   -17.036218 -0.041707817    3601.7518    1563.7595    972.78943    905.44892    28.380529    18.844881    14.337392 0.00035623919 0.00035603279 0.00036071544 0.00036033121    291.75131     41.49527    35.978931    34.423473    90.016431    119.66323    90.107069    28.380005    18.846359    14.337399 
  200000     295.6285    1.2509986    2437.0974   -810.51233   -147.44472    2138.9898   -2371.4791   -3176.4149    44657.537 -0.067234084   -17.036218 -0.041707817    3480.0989     1536.862     923.7467    866.31832    28.378327     18.84635    14.337154 0.00035453212 0.00035394944 0.00035592203 0.00035541804     295.6285     41.49527    35.978931    34.423473    90.016431    119.66323    90.107069    28.379254    18.846745    14.337835 
Loop time of 518.515 on 20 procs for 200000 steps with 4560 atoms

Pair  time (%) = 325.579 (62.7907)
Bond  time (%) = 34.5023 (6.65407)
Kspce time (%) = 114.088 (22.0029)
Neigh time (%) = 5.61475 (1.08285)
Comm  time (%) = 23.6512 (4.56134)
Outpt time (%) = 0.0632671 (0.0122016)
Other time (%) = 15.016 (2.89596)

Nlocal:    228 ave 240 max 222 min
Histogram: 2 4 4 3 2 3 1 0 0 1
Nghost:    5780.05 ave 5839 max 5728 min
Histogram: 2 0 2 5 3 2 3 1 1 1
Neighs:    84317.8 ave 89131 max 81207 min
Histogram: 2 2 5 2 3 3 1 1 0 1

Total # of neighbors = 1686355
Ave neighs/atom = 369.815
Ave special neighs/atom = 10.6316
Neighbor list builds = 1174
Dangerous builds = 0
System init for write_data ...
PPPM initialization ...
  G vector (1/distance) = 0.253736
  grid = 20 18 24
  stencil order = 5
  estimated absolute RMS force accuracy = 0.00131269
  estimated relative force accuracy = 3.95312e-06
  using double precision FFTs
  3d grid and FFT values/proc = 3344 720
