Created on Thu Jul 15 11:05:09 2021

         444 atoms
         528 bonds
        1008 angles
         960 dihedrals
         576 impropers

           9 atom types
          13 bond types
          25 angle types
           5 dihedral types
           1 improper types
           0.000000  50.000000 xlo xhi
           0.000000  50.000000 ylo yhi
           0.000000  50.000000 zlo zhi
           0.000000   0.000000   0.000000 xy xz yz

Masses

  1    12.010700000 # C_R
  2     1.007940000 # H_
  3    15.999400000 # O_R
  4    15.999400000 # O_3
  5    65.380000000 # Zn3+2
  6    14.006700000 # N_R
  7    12.010700000 # C_3
  8    65.380000000 # Zn_x
  9    14.006700000 # N_x

Bond Coeffs

  1      391.669513        1.458000  # C_R C_R
  2      646.680887        1.311940  # C_R O_R
  3      462.655054        1.379256  # C_R C_R
  4      357.440381        1.081418  # C_R H_
  5      160.291409        1.840266  # O_R Zn3+2
  6      166.031136        1.818811  # O_3 Zn3+2
  7      559.995206        0.990254  # O_3 H_
  8       41.823535        2.386000  # Zn3+2 Zn3+2
  9      165.837318        1.881712  # Zn3+2 N_R
 10      663.718927        1.345073  # C_R N_R
 11      529.724731        1.450075  # N_R C_3
 12      331.069389        1.109401  # C_3 H_
 13      369.943935        1.486000  # C_3 C_R

Angle Coeffs

  1              cosine/periodic      131.755710              -1               3 # C_R C_R O_R
  2              cosine/periodic      187.136328              -1               3 # O_R C_R O_R
  3              cosine/periodic      102.183280              -1               3 # C_R C_R C_R
  4              cosine/periodic      111.297508              -1               3 # C_R C_R C_R
  5              cosine/periodic       57.289016              -1               3 # C_R C_R H_
  6              cosine/periodic       60.877639              -1               3 # C_R O_R Zn3+2
  7                      fourier       64.112792        0.300235        0.267331        0.266745 # Zn3+2 O_3 H_
  8                      fourier      120.499822        0.300235        0.267331        0.266745 # H_ O_3 H_
  9                      fourier      172.607259        0.343737        0.374972        0.281246 # O_R Zn3+2 O_R
 10                      fourier      175.650062        0.343737        0.374972        0.281246 # O_R Zn3+2 O_3
 11                      fourier       62.839919        0.343737        0.374972        0.281246 # O_R Zn3+2 Zn3+2
 12                      fourier       63.625415        0.343737        0.374972        0.281246 # O_3 Zn3+2 Zn3+2
 13                      fourier      184.568655        0.343737        0.374972        0.281246 # O_R Zn3+2 N_R
 14                      fourier       67.844457        0.343737        0.374972        0.281246 # Zn3+2 Zn3+2 N_R
 15              cosine/periodic      153.699352              -1               3 # C_R C_R N_R
 16              cosine/periodic       79.786967              -1               3 # N_R C_R H_
 17              cosine/periodic      212.442573              -1               3 # N_R C_R N_R
 18              cosine/periodic       45.889625              -1               3 # Zn3+2 N_R C_R
 19              cosine/periodic      120.000516              -1               3 # C_R N_R C_R
 20              cosine/periodic      106.782348              -1               3 # C_R N_R C_3
 21                      fourier      170.007371        0.343737        0.374972        0.281246 # N_R C_3 H_
 22                      fourier      312.548166        0.343737        0.374972        0.281246 # N_R C_3 C_R
 23                      fourier       75.498766        0.343737        0.374972        0.281246 # H_ C_3 H_
 24                      fourier      121.777217        0.343737        0.374972        0.281246 # H_ C_3 C_R
 25              cosine/periodic       99.137149              -1               3 # C_3 C_R C_R

Dihedral Coeffs

  1        1.250000              -1               2 # O_R C_R C_R C_R
  2        6.737110              -1               2 # C_R C_R O_R Zn3+2
  3        3.368555              -1               2 # C_R C_R C_R H_
  4        0.166667               1               3 # C_R N_R C_3 H_
  5        0.833333              -1               2 # N_R C_3 C_R C_R

Improper Coeffs

  1        2.000000        1.000000       -1.000000        0.000000               0 # C_R C_R O_R O_R

Pair Coeffs

   1        0.105000        3.430851 # C_R C_R
   2        0.044000        2.571134 # H_ H_
   3        0.060000        3.118146 # O_R O_R
   4        0.060000        3.118146 # O_3 O_3
   5        0.124000        2.461553 # Zn3+2 Zn3+2
   6        0.069000        3.260689 # N_R N_R
   7        0.105000        3.430851 # C_3 C_3
   8        0.124000        2.461553 # Zn_x Zn_x
   9        0.069000        3.260689 # N_x N_x

BondBond Coeffs #Dummy Section

 1         0.0    0.0    0.0
 2         0.0    0.0    0.0
 3         0.0    0.0    0.0
 4         0.0    0.0    0.0
 5         0.0    0.0    0.0
 6         0.0    0.0    0.0
 7         0.0    0.0    0.0
 8         0.0    0.0    0.0
 9         0.0    0.0    0.0
 10         0.0    0.0    0.0
 11         0.0    0.0    0.0
 12         0.0    0.0    0.0
 13         0.0    0.0    0.0
 14         0.0    0.0    0.0
 15         0.0    0.0    0.0
 16         0.0    0.0    0.0
 17         0.0    0.0    0.0
 18         0.0    0.0    0.0
 19         0.0    0.0    0.0
 20         0.0    0.0    0.0
 21         0.0    0.0    0.0
 22         0.0    0.0    0.0
 23         0.0    0.0    0.0
 24         0.0    0.0    0.0
 25         0.0    0.0    0.0

BondAngle Coeffs #Dummy Section

 1         0.0    0.0    0.0
 2         0.0    0.0    0.0
 3         0.0    0.0    0.0
 4         0.0    0.0    0.0
 5         0.0    0.0    0.0
 6         0.0    0.0    0.0
 7         0.0    0.0    0.0
 8         0.0    0.0    0.0
 9         0.0    0.0    0.0
 10         0.0    0.0    0.0
 11         0.0    0.0    0.0
 12         0.0    0.0    0.0
 13         0.0    0.0    0.0
 14         0.0    0.0    0.0
 15         0.0    0.0    0.0
 16         0.0    0.0    0.0
 17         0.0    0.0    0.0
 18         0.0    0.0    0.0
 19         0.0    0.0    0.0
 20         0.0    0.0    0.0
 21         0.0    0.0    0.0
 22         0.0    0.0    0.0
 23         0.0    0.0    0.0
 24         0.0    0.0    0.0
 25         0.0    0.0    0.0

MiddleBondTorsion Coeffs #Dummy Section

 1         0.0    0.0    0.0    0.0
 2         0.0    0.0    0.0    0.0
 3         0.0    0.0    0.0    0.0
 4         0.0    0.0    0.0    0.0
 5         0.0    0.0    0.0    0.0

EndBondTorsion Coeffs #Dummy Section

 1         0.0    0.0    0.0    0.0    0.0    0.0    0.0    0.0
 2         0.0    0.0    0.0    0.0    0.0    0.0    0.0    0.0
 3         0.0    0.0    0.0    0.0    0.0    0.0    0.0    0.0
 4         0.0    0.0    0.0    0.0    0.0    0.0    0.0    0.0
 5         0.0    0.0    0.0    0.0    0.0    0.0    0.0    0.0

AngleTorsion Coeffs #Dummy Section

 1          0.0    0.0    0.0    0.0    0.0    0.0  0.0  0.0
 2          0.0    0.0    0.0    0.0    0.0    0.0  0.0  0.0
 3          0.0    0.0    0.0    0.0    0.0    0.0  0.0  0.0
 4          0.0    0.0    0.0    0.0    0.0    0.0  0.0  0.0
 5          0.0    0.0    0.0    0.0    0.0    0.0  0.0  0.0

AngleAngleTorsion Coeffs #Dummy Section

 1         0.0    0.0    0.0
 2         0.0    0.0    0.0
 3         0.0    0.0    0.0
 4         0.0    0.0    0.0
 5         0.0    0.0    0.0

BondBond13 Coeffs #Dummy Section

 1         0.0    0.0    0.0
 2         0.0    0.0    0.0
 3         0.0    0.0    0.0
 4         0.0    0.0    0.0
 5         0.0    0.0    0.0

AngleAngle Coeffs #Dummy Section

 1          0.0    0.0    0.0  0.0  0.0  0.0

Atoms

       1      444        1     0.00000   17.45700   17.14950  -21.05250
       2      444        1     0.00000   18.25100   15.98150  -20.45150
       3      444        1     0.00000   17.68300   14.76450  -20.21750
       4      444        2     0.00000   16.76900   14.62250  -20.43350
       5      444        1     0.00000   18.44500   13.69750  -19.64950
       6      444        2     0.00000   18.06100   12.84850  -19.46950
       7      444        1     0.00000   19.78000   13.96650  -19.37650
       8      444        2     0.00000   20.32000   13.29750  -18.97650
       9      444        1     0.00000   20.32200   15.16850  -19.67050
      10      444        1     0.00000   19.58300   16.19850  -20.25350
      11      444        2     0.00000   19.99100   17.02150  -20.49850
      12      444        1     0.00000   21.85500   15.37450  -19.30450
      13      444        1     0.00000   15.97100   20.09250  -19.67150
      14      444        1     0.00000   15.90900   20.68850  -18.23850
      15      444        1     0.00000   14.85000   20.48250  -17.40250
      16      444        2     0.00000   14.10000   19.98250  -17.69950
      17      444        1     0.00000   14.87400   20.99250  -16.15450
      18      444        2     0.00000   14.11300   20.88350  -15.59750
      19      444        1     0.00000   15.99000   21.67850  -15.65950
      20      444        2     0.00000   16.00400   21.99050  -14.76150
      21      444        1     0.00000   17.07800   21.90350  -16.49950
      22      444        1     0.00000   17.05800   21.39650  -17.78250
      23      444        2     0.00000   17.80500   21.51550  -18.35450
      24      444        1     0.00000   18.31100   22.59650  -15.98250
      25      444        1     0.00000   14.67700   21.02550  -23.04250
      26      444        1     0.00000   13.92700   22.16550  -23.73450
      27      444        1     0.00000   12.51800   22.07650  -23.78350
      28      444        2     0.00000   12.07000   21.36450  -23.34050
      29      444        1     0.00000   11.77300   23.04950  -24.48950
      30      444        2     0.00000   10.83000   22.97550  -24.58850
      31      444        1     0.00000   12.51300   24.17350  -25.06050
      32      444        2     0.00000   12.05400   24.87750  -25.50650
      33      444        1     0.00000   13.88100   24.19950  -24.94350
      34      444        1     0.00000   14.60200   23.22750  -24.29850
      35      444        2     0.00000   15.54900   23.28450  -24.23950
      36      444        1     0.00000   14.71000   25.31350  -25.65650
      37      444        1     0.00000   16.15200   18.16450  -24.38250
      38      444        1     0.00000   16.16800   17.57950  -25.84750
      39      444        1     0.00000   15.18100   16.66050  -26.24950
      40      444        2     0.00000   14.51000   16.36650  -25.64250
      41      444        1     0.00000   15.22300   16.17950  -27.59450
      42      444        2     0.00000   14.61000   15.50650  -27.86750
      43      444        1     0.00000   16.15700   16.68650  -28.52850
      44      444        2     0.00000   16.15300   16.39750  -29.43550
      45      444        1     0.00000   17.08500   17.63350  -28.07250
      46      444        1     0.00000   17.09300   18.10350  -26.73650
      47      444        2     0.00000   17.71900   18.76250  -26.45950
      48      444        1     0.00000   18.09400   18.22450  -29.04250
      49      444        1     0.00000   26.80800   16.08450  -18.31150
      50      444        1     0.00000   28.33200   16.22750  -18.16550
      51      444        1     0.00000   29.03700   15.29050  -17.38350
      52      444        2     0.00000   28.56300   14.58250  -16.96650
      53      444        1     0.00000   30.45700   15.38650  -17.21250
      54      444        2     0.00000   30.93700   14.78750  -16.65550
      55      444        1     0.00000   31.10600   16.43250  -17.92950
      56      444        2     0.00000   32.05300   16.49950  -17.90450
      57      444        1     0.00000   30.39500   17.32950  -18.64750
      58      444        1     0.00000   29.02000   17.24350  -18.81350
      59      444        2     0.00000   28.55800   17.86950  -19.35950
      60      444        1     0.00000   31.19000   18.46750  -19.41350
      61      444        1     0.00000   23.55300   17.10550  -16.75850
      62      444        1     0.00000   22.96900   17.84450  -15.50250
      63      444        1     0.00000   22.88500   17.22350  -14.23550
      64      444        2     0.00000   23.25300   16.35750  -14.10150
      65      444        1     0.00000   22.27200   17.87750  -13.20050
      66      444        2     0.00000   22.17000   17.45250  -12.35650
      67      444        1     0.00000   21.82400   19.10550  -13.38950
      68      444        2     0.00000   21.40500   19.56250  -12.66850
      69      444        1     0.00000   21.95100   19.75150  -14.64050
      70      444        1     0.00000   22.53400   19.17150  -15.69150
      71      444        2     0.00000   22.64900   19.62650  -16.51850
      72      444        1     0.00000   21.41600   21.23050  -14.76450
      73      444        1     0.00000   25.09900   14.41950  -20.83150
      74      444        1     0.00000   25.63100   13.67750  -22.06250
      75      444        1     0.00000   25.71600   12.23950  -22.07250
      76      444        2     0.00000   25.39000   11.73350  -21.33450
      77      444        1     0.00000   26.27700   11.59850  -23.15550
      78      444        2     0.00000   26.41000   10.65750  -23.14450
      79      444        1     0.00000   26.62300   12.31050  -24.20650
      80      444        2     0.00000   26.92100   11.84850  -24.98050
      81      444        1     0.00000   26.58100   13.67450  -24.25950
      82      444        1     0.00000   26.04400   14.34050  -23.13250
      83      444        2     0.00000   25.97800   15.28650  -23.14550
      84      444        1     0.00000   27.08000   14.43250  -25.51750
      85      444        1     0.00000   22.74700   24.64350  -14.24350
      86      444        1     0.00000   24.00500   25.24750  -13.69750
      87      444        1     0.00000   24.34900   25.19450  -12.40650
      88      444        2     0.00000   23.74800   24.79050  -11.79050
      89      444        1     0.00000   25.56100   25.70950  -11.92750
      90      444        2     0.00000   25.76700   25.65950  -11.00350
      91      444        1     0.00000   26.48800   26.31250  -12.83250
      92      444        2     0.00000   27.32400   26.64050  -12.52450
      93      444        1     0.00000   26.12600   26.40350  -14.19450
      94      444        1     0.00000   24.92100   25.81750  -14.62650
      95      444        2     0.00000   24.71700   25.80150  -15.55350
      96      444        1     0.00000   27.00100   27.07450  -15.17450
      97      444        1     0.00000   19.66300   26.01450  -15.41550
      98      444        1     0.00000   19.21400   27.48750  -15.56650
      99      444        1     0.00000   18.50900   28.10050  -14.54950
     100      444        2     0.00000   18.26900   27.57850  -13.79450
     101      444        1     0.00000   18.12100   29.47550  -14.57350
     102      444        2     0.00000   17.71000   29.90750  -13.83250
     103      444        1     0.00000   18.40300   30.15350  -15.80450
     104      444        2     0.00000   18.04700   31.02350  -15.94150
     105      444        1     0.00000   19.17200   29.58650  -16.79650
     106      444        1     0.00000   19.52100   28.17350  -16.68250
     107      444        2     0.00000   19.96900   27.73950  -17.39850
     108      444        1     0.00000   19.61000   30.33250  -18.09050
     109      444        1     0.00000   30.17600   16.16750  -26.20250
     110      444        1     0.00000   31.39400   16.37950  -25.43150
     111      444        1     0.00000   32.55700   15.51750  -25.62050
     112      444        2     0.00000   32.56300   14.84950  -26.29650
     113      444        1     0.00000   33.67300   15.70150  -24.78050
     114      444        2     0.00000   34.41400   15.11450  -24.87950
     115      444        1     0.00000   33.74100   16.68350  -23.82450
     116      444        2     0.00000   34.52300   16.79350  -23.29650
     117      444        1     0.00000   32.63700   17.51450  -23.64550
     118      444        1     0.00000   31.47200   17.38050  -24.49150
     119      444        2     0.00000   30.75300   17.99150  -24.39750
     120      444        1     0.00000   32.63400   18.62650  -22.62550
     121      444        1     0.00000   25.72500   15.44850  -28.81950
     122      444        1     0.00000   24.44700   15.27050  -29.62150
     123      444        1     0.00000   24.25300   14.05250  -30.29350
     124      444        2     0.00000   24.86100   13.33350  -30.17150
     125      444        1     0.00000   23.16800   13.91850  -31.13850
     126      444        2     0.00000   23.06400   13.14150  -31.67050
     127      444        1     0.00000   22.19400   14.98250  -31.19550
     128      444        2     0.00000   21.41800   14.88350  -31.73450
     129      444        1     0.00000   22.39000   16.15850  -30.45750
     130      444        1     0.00000   23.51000   16.26050  -29.65250
     131      444        2     0.00000   23.62800   17.03450  -29.11350
     132      444        1     0.00000   21.40200   17.29650  -30.57450
     133      444        1     0.00000   18.13400   21.29350  -30.94050
     134      444        1     0.00000   17.20000   22.49450  -31.02550
     135      444        1     0.00000   16.31700   22.59950  -32.16850
     136      444        2     0.00000   16.35700   21.94950  -32.86150
     137      444        1     0.00000   15.43600   23.62250  -32.24150
     138      444        2     0.00000   14.83400   23.67150  -32.97450
     139      444        1     0.00000   15.40900   24.60850  -31.25250
     140      444        2     0.00000   14.84400   25.36850  -31.33950
     141      444        1     0.00000   16.26100   24.45250  -30.08050
     142      444        1     0.00000   17.16600   23.41250  -30.03350
     143      444        2     0.00000   17.76800   23.33950  -29.30250
     144      444        1     0.00000   16.11900   25.49750  -28.92050
     145      444        3     0.00000   18.10700   18.11150  -21.48050
     146      444        3     0.00000   16.20100   16.93850  -21.09150
     147      444        3     0.00000   16.92200   20.47150  -20.38250
     148      444        3     0.00000   14.99900   19.34950  -19.95350
     149      444        3     0.00000   15.95000   21.18050  -22.98050
     150      444        3     0.00000   14.02000   20.05850  -22.58550
     151      444        3     0.00000   17.09100   18.86350  -24.08650
     152      444        3     0.00000   15.17400   17.69950  -23.68050
     153      444        3     0.00000   26.28100   16.96550  -18.99850
     154      444        3     0.00000   26.29900   15.08150  -17.75250
     155      444        3     0.00000   23.73600   17.73250  -17.78250
     156      444        3     0.00000   23.78700   15.84850  -16.54950
     157      444        3     0.00000   22.38100   16.40750  -19.83650
     158      444        3     0.00000   22.39000   14.48050  -18.61250
     159      444        3     0.00000   24.89000   15.62750  -21.06050
     160      444        3     0.00000   24.89500   13.72650  -19.80950
     161      444        3     0.00000   22.67100   24.44650  -15.46250
     162      444        3     0.00000   21.87700   24.36150  -13.34750
     163      444        3     0.00000   20.21800   25.53550  -16.41650
     164      444        3     0.00000   19.39400   25.50050  -14.29350
     165      444        3     0.00000   19.21500   22.83350  -16.81850
     166      444        3     0.00000   18.38300   22.81950  -14.74450
     167      444        3     0.00000   21.64600   21.74350  -15.91450
     168      444        3     0.00000   20.81600   21.73350  -13.77750
     169      444        3     0.00000   29.28200   17.03250  -26.06050
     170      444        3     0.00000   30.12000   15.15050  -26.97150
     171      444        3     0.00000   26.82100   15.71250  -25.49050
     172      444        3     0.00000   27.65100   13.81250  -26.36050
     173      444        3     0.00000   25.79800   16.45950  -28.05450
     174      444        3     0.00000   26.62600   14.53350  -28.92550
     175      444        3     0.00000   28.22100   17.80950  -28.67850
     176      444        3     0.00000   29.03100   15.91450  -29.58250
     177      444        3     0.00000   21.54200   18.21150  -29.73950
     178      444        3     0.00000   20.47000   17.18750  -31.43550
     179      444        3     0.00000   18.97900   18.96250  -28.57050
     180      444        3     0.00000   17.94300   17.93650  -30.24750
     181      444        3     0.00000   19.02400   21.38550  -30.07850
     182      444        3     0.00000   17.97700   20.34850  -31.74250
     183      444        3     0.00000   21.54000   20.67450  -31.21850
     184      444        3     0.00000   20.43700   19.65450  -32.96650
     185      444        3     0.00000   32.46800   22.08750  -22.12850
     186      444        3     0.00000   34.44500   21.35250  -21.24850
     187      444        3     0.00000   31.29600   22.00850  -19.52150
     188      444        3     0.00000   33.22000   21.18050  -18.63250
     189      444        3     0.00000   30.44200   19.29950  -20.01650
     190      444        3     0.00000   32.42800   18.49750  -19.21250
     191      444        3     0.00000   31.59400   19.34850  -22.59850
     192      444        3     0.00000   33.58000   18.65250  -21.82750
     193      444        4     0.00000   19.07300   20.89550  -22.64450
     194      444        4     0.00000   24.32700   18.72750  -20.70050
     195      444        4     0.00000   21.78200   23.54150  -18.40650
     196      444        4     0.00000   26.77700   18.83650  -25.88150
     197      444        4     0.00000   21.45600   20.91250  -28.13150
     198      444        4     0.00000   29.35500   21.43250  -22.02750
     199      444        5     0.00000   17.06800   19.69050  -22.23950
     200      444        8     0.00000   15.03400   18.49050  -21.81150
     201      444        5     0.00000   24.30600   16.75250  -19.43450
     202      444        8     0.00000   24.32900   14.73550  -18.13550
     203      444        5     0.00000   20.95000   23.64550  -16.21550
     204      444        8     0.00000   20.08500   23.61350  -13.98250
     205      444        5     0.00000   27.50200   16.81150  -27.03850
     206      444        8     0.00000   28.39300   14.79450  -27.99450
     207      444        5     0.00000   20.31500   19.83550  -29.85350
     208      444        8     0.00000   19.17300   18.72850  -31.64550
     209      444        5     0.00000   31.40100   20.71650  -21.10150
     210      444        8     0.00000   33.47300   19.90550  -20.20850
     211      444        1     0.00000   30.91700   30.30950  -26.58350
     212      444        1     0.00000   30.12300   31.47750  -27.18350
     213      444        1     0.00000   30.69100   32.69450  -27.41750
     214      444        2     0.00000   31.60500   32.83750  -27.20150
     215      444        1     0.00000   29.92900   33.76150  -27.98650
     216      444        2     0.00000   30.31300   34.61150  -28.16650
     217      444        1     0.00000   28.59400   33.49250  -28.25950
     218      444        2     0.00000   28.05400   34.16250  -28.65950
     219      444        1     0.00000   28.05200   32.29150  -27.96450
     220      444        1     0.00000   28.79100   31.26050  -27.38250
     221      444        2     0.00000   28.38300   30.43850  -27.13750
     222      444        1     0.00000   26.51900   32.08550  -28.33150
     223      444        1     0.00000   32.40300   27.36750  -27.96450
     224      444        1     0.00000   32.46500   26.77150  -29.39650
     225      444        1     0.00000   33.52400   26.97750  -30.23350
     226      444        2     0.00000   34.27400   27.47650  -29.93550
     227      444        1     0.00000   33.50000   26.46750  -31.48150
     228      444        2     0.00000   34.26100   26.57650  -32.03850
     229      444        1     0.00000   32.38400   25.78050  -31.97650
     230      444        2     0.00000   32.37000   25.46950  -32.87350
     231      444        1     0.00000   31.29600   25.55650  -31.13550
     232      444        1     0.00000   31.31600   26.06350  -29.85350
     233      444        2     0.00000   30.56900   25.94350  -29.28050
     234      444        1     0.00000   30.06300   24.86350  -31.65350
     235      444        1     0.00000   33.69700   26.43350  -24.59250
     236      444        1     0.00000   34.44700   25.29350  -23.90150
     237      444        1     0.00000   35.85600   25.38350  -23.85250
     238      444        2     0.00000   36.30400   26.09550  -24.29550
     239      444        1     0.00000   36.60100   24.41050  -23.14550
     240      444        2     0.00000   37.54400   24.48450  -23.04750
     241      444        1     0.00000   35.86100   23.28650  -22.57450
     242      444        2     0.00000   36.32000   22.58250  -22.12850
     243      444        1     0.00000   34.49300   23.26050  -22.69150
     244      444        1     0.00000   33.77200   24.23250  -23.33750
     245      444        2     0.00000   32.82500   24.17550  -23.39550
     246      444        1     0.00000   33.66400   22.14650  -21.97950
     247      444        1     0.00000   32.22200   29.29550  -23.25250
     248      444        1     0.00000   32.20600   29.87950  -21.78750
     249      444        1     0.00000   33.19300   30.79850  -21.38650
     250      444        2     0.00000   33.86400   31.09350  -21.99250
     251      444        1     0.00000   33.15100   31.28050  -20.04050
     252      444        2     0.00000   33.76400   31.95350  -19.76850
     253      444        1     0.00000   32.21700   30.77350  -19.10650
     254      444        2     0.00000   32.22100   31.06250  -18.20050
     255      444        1     0.00000   31.28900   29.82650  -19.56250
     256      444        1     0.00000   31.28100   29.35650  -20.89950
     257      444        2     0.00000   30.65500   28.69750  -21.17550
     258      444        1     0.00000   30.28000   29.23550  -18.59350
     259      444        1     0.00000   21.56600   31.37550  -29.32350
     260      444        1     0.00000   20.04200   31.23250  -29.46950
     261      444        1     0.00000   19.33700   32.16950  -30.25150
     262      444        2     0.00000   19.81100   32.87750  -30.66950
     263      444        1     0.00000   17.91700   32.07350  -30.42250
     264      444        2     0.00000   17.43700   32.67250  -30.98050
     265      444        1     0.00000   17.26800   31.02750  -29.70650
     266      444        2     0.00000   16.32100   30.96050  -29.73150
     267      444        1     0.00000   17.97900   30.13050  -28.98850
     268      444        1     0.00000   19.35400   30.21650  -28.82150
     269      444        2     0.00000   19.81600   29.59050  -28.27550
     270      444        1     0.00000   17.18400   28.99150  -28.22150
     271      444        1     0.00000   24.82100   30.35450  -30.87650
     272      444        1     0.00000   25.40500   29.61550  -32.13250
     273      444        1     0.00000   25.48900   30.23650  -33.40050
     274      444        2     0.00000   25.12100   31.10250  -33.53350
     275      444        1     0.00000   26.10200   29.58250  -34.43450
     276      444        2     0.00000   26.20400   30.00750  -35.27850
     277      444        1     0.00000   26.55000   28.35450  -34.24550
     278      444        2     0.00000   26.96900   27.89650  -34.96750
     279      444        1     0.00000   26.42300   27.70850  -32.99450
     280      444        1     0.00000   25.84000   28.28850  -31.94350
     281      444        2     0.00000   25.72500   27.83350  -31.11650
     282      444        1     0.00000   26.95800   26.22950  -32.87150
     283      444        1     0.00000   23.27500   33.04050  -26.80350
     284      444        1     0.00000   22.74300   33.78250  -25.57350
     285      444        1     0.00000   22.65800   35.22050  -25.56350
     286      444        2     0.00000   22.98400   35.72550  -26.30150
     287      444        1     0.00000   22.09700   35.86150  -24.47950
     288      444        2     0.00000   21.96400   36.80250  -24.49050
     289      444        1     0.00000   21.75100   35.14950  -23.42950
     290      444        2     0.00000   21.45300   35.61150  -22.65450
     291      444        1     0.00000   21.79300   33.78450  -23.37650
     292      444        1     0.00000   22.33000   33.11950  -24.50250
     293      444        2     0.00000   22.39600   32.17350  -24.49050
     294      444        1     0.00000   21.29400   33.02750  -22.11850
     295      444        1     0.00000   25.62700   22.81650  -33.39150
     296      444        1     0.00000   24.36900   22.21150  -33.93750
     297      444        1     0.00000   24.02500   22.26550  -35.22850
     298      444        2     0.00000   24.62600   22.66950  -35.84550
     299      444        1     0.00000   22.81300   21.75050  -35.70750
     300      444        2     0.00000   22.60700   21.80050  -36.63250
     301      444        1     0.00000   21.88600   21.14750  -34.80350
     302      444        2     0.00000   21.05000   20.81850  -35.11050
     303      444        1     0.00000   22.24800   21.05650  -33.44150
     304      444        1     0.00000   23.45300   21.64250  -33.00950
     305      444        2     0.00000   23.65700   21.65850  -32.08150
     306      444        1     0.00000   21.37300   20.38550  -32.46050
     307      444        1     0.00000   28.71100   21.44550  -32.22050
     308      444        1     0.00000   29.16000   19.97250  -32.06850