LAMMPS data file via write_data, version 15 May 2015, timestep = 8008000

2611 atoms
6 atom types
1749 bonds
4 bond types
894 angles
3 angle types
44 dihedrals
3 dihedral types
10 impropers
1 improper types

-1.4875205229600160e+01 1.4875205229600160e+01 xlo xhi
-1.4875205229600160e+01 1.4875205229600160e+01 ylo yhi
-1.4875205229600160e+01 1.4875205229600160e+01 zlo zhi

Masses

1 15.9994
2 1.00794
3 12.0107
4 1.00794
5 12.0107
6 12.0107

Bond Coeffs # harmonic

1 1000 1
2 469 1.4
3 367 1.08
4 469 0.7

Angle Coeffs # harmonic

1 100 109.47
2 35 120
3 63 120

Dihedral Coeffs # opls

1 0 7.25 0 0
2 0 7.25 0 0
3 0 7.25 0 0

Improper Coeffs # cvff

1 2.5 -1 2

Atoms # full

501 167 2 4.0999999999999998e-01 -1.1069709258774164e+01 -9.9614393596483310e+00 -1.1690562616891372e+01 3 0 3
626 209 2 4.0999999999999998e-01 -1.1552486113901651e+01 -6.9035901963969000e+00 -1.4117191391922518e+01 0 -1 5
982 328 1 -8.1999999999999995e-01 -1.1514528285029032e+01 -6.7641538212891223e+00 -1.2437151374969654e+01 -2 0 1
983 328 2 4.0999999999999998e-01 -1.1181072996009831e+01 -6.6626035786811730e+00 -1.1499871294927440e+01 -2 0 1
456 152 2 4.0999999999999998e-01 -9.7579036039706946e+00 -1.1129225181056718e+01 -1.0616842105512493e+01 0 0 -2
946 316 1 -8.1999999999999995e-01 -1.2573774466036701e+01 -1.3114920561207816e+01 -1.4294871819605062e+01 -3 1 -1
1476 492 2 4.0999999999999998e-01 -1.2359536463402783e+01 -1.2090041584910264e+01 -1.1137695077610594e+01 0 -2 1
499 167 1 -8.1999999999999995e-01 -1.1404005136199244e+01 -9.6480866104000480e+00 -1.2579413139584702e+01 3 0 3
455 152 2 4.0999999999999998e-01 -8.2585790930090646e+00 -1.0704474433764727e+01 -1.1104936628832277e+01 0 0 -2
1474 492 1 -8.1999999999999995e-01 -1.2916251411598310e+01 -1.2804339140195784e+01 -1.1561777984621610e+01 0 -2 1
454 152 1 -8.1999999999999995e-01 -8.9174440727243471e+00 -1.1454730236423565e+01 -1.1050054631926557e+01 0 0 -2
2047 683 1 -8.1999999999999995e-01 -1.1228656229086791e+01 -1.0704008977020582e+01 -9.7736912105273728e+00 3 0 4
1689 563 2 4.0999999999999998e-01 -9.0188658730624951e+00 -1.1450266477439364e+01 -1.2951827588329532e+01 -2 2 1
60 20 2 4.0999999999999998e-01 -1.2383583069943809e+01 -1.0074759293741646e+01 -1.3767989257042519e+01 2 0 0
1718 573 2 4.0999999999999998e-01 -1.0094150988926053e+01 -6.8879525917519722e+00 -7.4886149658099423e+00 -6 1 0
2049 683 2 4.0999999999999998e-01 -1.1607983433029402e+01 -9.7849130011894765e+00 -9.6670500106465251e+00 3 0 4
2048 683 2 4.0999999999999998e-01 -1.1407828439579784e+01 -1.1236587828501099e+01 -8.9464935794427447e+00 3 0 4
1475 492 2 4.0999999999999998e-01 -1.2786400636433553e+01 -1.3664744743027688e+01 -1.1068990158646148e+01 0 -2 1
664 222 1 -8.1999999999999995e-01 -1.1929275999644521e+01 -7.9818027982642779e+00 -9.4060855404529207e+00 -2 1 4
666 222 2 4.0999999999999998e-01 -1.1462080206095386e+01 -7.0983013624936433e+00 -9.3721421975198922e+00 -2 1 4
665 222 2 4.0999999999999998e-01 -1.2893739707238911e+01 -7.8580256666867436e+00 -9.1726592140890801e+00 -2 1 4
2509 837 1 -8.1999999999999995e-01 -1.1183584479666342e+01 -5.3708087417648791e+00 -9.9658514096894031e+00 2 3 1
948 316 2 4.0999999999999998e-01 -1.2825174857062127e+01 -1.2935617733582619e+01 -1.3343742367205650e+01 -3 1 -1
947 316 2 4.0999999999999998e-01 -1.1927432529243653e+01 -1.3877122155111845e+01 -1.4330784190544799e+01 -3 1 -1
755 252 2 4.0999999999999998e-01 -1.0699067229210321e+01 -1.4749524368214734e+01 -8.0537262006567918e+00 0 1 3
1095 365 2 4.0999999999999998e-01 -1.4286129887570885e+01 -5.9210589703101544e+00 -9.1438146996131842e+00 1 -1 2
58 20 1 -8.1999999999999995e-01 -1.2729543445065048e+01 -1.0356847562007765e+01 -1.4662828068703300e+01 2 0 0
2511 837 2 4.0999999999999998e-01 -1.1959427466353215e+01 -5.0505120960506211e+00 -9.4222738616481010e+00 2 3 1
1413 471 2 4.0999999999999998e-01 -1.4282482183876478e+01 -5.2117118956723427e+00 -1.2925611411225404e+01 1 0 -1
635 212 2 4.0999999999999998e-01 -1.4756624902468051e+01 -1.1450998084745732e+01 -1.1399608111412775e+01 -2 -2 2
1719 573 2 4.0999999999999998e-01 -9.9741897288885024e+00 -8.5160019151477044e+00 -7.4475281092715964e+00 -6 1 0
2565 855 2 4.0999999999999998e-01 -7.6757002705598927e+00 -1.2858214433823683e+01 -1.1116615412094697e+01 3 4 3
2590 864 1 -8.1999999999999995e-01 -1.4614228837195419e+01 -7.9748099786795539e+00 -8.7305457155616271e+00 2 0 4
500 167 2 4.0999999999999998e-01 -1.1411499520282570e+01 -8.6483096610543413e+00 -1.2599129223157529e+01 3 0 3
2592 864 2 4.0999999999999998e-01 -1.4402321166669260e+01 -8.3804752190743059e+00 -7.8414283506141915e+00 2 0 4
2489 830 2 4.0999999999999998e-01 -8.9217392502501642e+00 -7.1419606366050878e+00 -9.2814354300346729e+00 2 0 0
2488 830 1 -8.1999999999999995e-01 -8.4289589012772623e+00 -6.9867769230859169e+00 -1.0137638960207052e+01 2 0 0
2490 830 2 4.0999999999999998e-01 -7.9282933256097685e+00 -7.8151445547462686e+00 -1.0388915512090119e+01 2 0 0
674 225 2 4.0999999999999998e-01 -8.4036291675321397e+00 -5.1458216935831942e+00 -1.0434377901483987e+01 2 0 -1
2105 702 2 4.0999999999999998e-01 -7.8559011057814470e+00 -1.4130942659270065e+01 -1.2567685977565333e+01 0 4 3
1687 563 1 -8.1999999999999995e-01 -8.6780217701680336e+00 -1.1864401183781574e+01 -1.3795816100668944e+01 -2 2 1
59 20 2 4.0999999999999998e-01 -1.2899016875421330e+01 -1.1342374733355854e+01 -1.4659113529844996e+01 2 0 0
1688 563 2 4.0999999999999998e-01 -9.2065881151584446e+00 -1.2688401089990025e+01 -1.3999876513451369e+01 -2 2 1
984 328 2 4.0999999999999998e-01 -1.2245495054023404e+01 -6.1025526717811900e+00 -1.2604394734663609e+01 -2 0 1
2151 717 2 4.0999999999999998e-01 -9.1858527468709159e+00 -6.1916691230075127e+00 -1.3260524414024930e+01 2 4 3
210 70 2 4.0999999999999998e-01 -7.8767152536581229e+00 -1.2421218642076672e+01 -7.7078781928765538e+00 1 -1 2
1336 446 1 -8.1999999999999995e-01 -1.4736702753386949e+01 -1.1768273135707759e+01 -8.1815249490725357e+00 0 3 2
2149 717 1 -8.1999999999999995e-01 -8.3888519083887481e+00 -5.6292780164410541e+00 -1.3040286439838198e+01 2 4 3
2104 702 1 -8.1999999999999995e-01 -8.3241851071646344e+00 -1.4833829013646104e+01 -1.3103092112521258e+01 0 4 3
1717 573 1 -8.1999999999999995e-01 -9.5258802297187781e+00 -7.6713918132112155e+00 -7.7401904701463629e+00 -6 1 0
2406 802 2 4.0999999999999998e-01 -1.3218817356411151e+01 -1.1682937885389192e+01 -7.5115886930416789e+00 -2 2 2
2150 717 2 4.0999999999999998e-01 -8.5170498958573688e+00 -5.2061937118234010e+00 -1.2143311631760746e+01 2 4 3
1605 535 2 4.0999999999999998e-01 -7.8950963275865940e+00 -7.3966066656347706e+00 -7.5186507935069651e+00 3 -1 2
756 252 2 4.0999999999999998e-01 -1.0606263043918995e+01 -1.3218640335434346e+01 -7.4930079698873095e+00 0 1 3
104 35 2 4.0999999999999998e-01 -8.7589060183817402e-01 -1.3051226194728937e+01 -1.4768585408516767e+01 -1 0 6
1210 404 1 -8.1999999999999995e-01 -6.9517449109440577e-02 -7.1082404918755744e+00 -1.2790672459407920e+01 -4 -1 1
1921 641 1 -8.1999999999999995e-01 -6.1913310015488019e+00 -9.4236597109616191e+00 -8.4369982773395265e+00 2 2 3
2303 768 2 4.0999999999999998e-01 -6.2849964081494303e+00 -5.0752366602230854e+00 -1.3021785096712478e+01 1 1 7
105 35 2 4.0999999999999998e-01 -1.3729403351687743e+00 -1.4485971876981292e+01 -1.4167694595517720e+01 -1 0 6
1923 641 2 4.0999999999999998e-01 -6.3673191529127848e+00 -8.7527371581931988e+00 -7.7166581088532622e+00 2 2 3
1211 404 2 4.0999999999999998e-01 -8.4665747673486536e-01 -7.6207984697306905e+00 -1.3155825336642653e+01 -4 -1 1
2187 729 2 4.0999999999999998e-01 -4.8569047625221433e+00 -1.2523491870626101e+01 -8.0913714171513664e+00 3 0 1
1314 438 2 4.0999999999999998e-01 -4.1288646156972710e+00 -1.0376932516176460e+01 -1.1972616730603626e+01 2 0 -1
2324 775 2 4.0999999999999998e-01 -1.8988305473474956e+00 -9.5765331148009771e+00 -1.3818099714594819e+01 3 0 2
96 32 2 4.0999999999999998e-01 -4.4876982895781996e+00 -1.3754440657637888e+01 -1.2194792439916021e+01 -1 -1 2
2185 729 1 -8.1999999999999995e-01 -5.1985996536104029e+00 -1.2720110911027724e+01 -9.0103841509166429e+00 3 0 1
628 210 1 -8.1999999999999995e-01 -3.1467103887640899e+00 -5.1782463868155393e+00 -7.8771815219595842e+00 -2 -2 2
1312 438 1 -8.1999999999999995e-01 -3.5399305684348068e+00 -1.0918814569275767e+01 -1.1373017376689205e+01 2 0 -1
629 210 2 4.0999999999999998e-01 -2.2451023202994964e+00 -5.5952984630168370e+00 -7.9919394909363781e+00 -2 -2 2
2186 729 2 4.0999999999999998e-01 -4.8702181261166206e+00 -1.3618178237892435e+01 -9.3030264562843215e+00 3 0 1
2563 855 1 -8.1999999999999995e-01 -6.8840930217140057e+00 -1.3452905752221747e+01 -1.0976262089038993e+01 3 4 3
103 35 1 -8.1999999999999995e-01 -6.2330582802035117e-01 -1.3824398270951084e+01 -1.4186859767128391e+01 -1 0 6
1225 409 1 -8.1999999999999995e-01 -1.8601818081369856e+00 -6.1515715280038723e+00 -1.0715155717797300e+01 -3 0 0
1313 438 2 4.0999999999999998e-01 -3.7825277623883604e+00 -1.1885669060366723e+01 -1.1452628047611391e+01 2 0 -1
1720 574 1 -8.1999999999999995e-01 -1.1401804042525860e+00 -1.4142463379755045e+01 -9.8065898836519558e+00 1 3 0
1414 472 1 -8.1999999999999995e-01 -8.8134552851051318e-01 -1.2028061839710102e+01 -1.1369547985814325e+01 0 -2 5
2209 737 1 -8.1999999999999995e-01 -2.1143392073168208e+00 -1.1411676048769703e+01 -1.4374596662218016e+01 -2 2 3
95 32 2 4.0999999999999998e-01 -3.3597325330329824e+00 -1.4288093324947312e+01 -1.3248135432674193e+01 -1 -1 2
1929 643 2 4.0999999999999998e-01 -5.8628683681119735e+00 -9.4517729062241571e+00 -1.3894870356271891e+01 3 0 1
1054 352 1 -8.1999999999999995e-01 -2.7819806831754725e+00 -1.0694453488614055e+01 -8.6507307376437641e+00 -1 4 -1
1226 409 2 4.0999999999999998e-01 -1.3653587772721565e+00 -6.6925064737475033e+00 -1.1395257488911836e+01 -3 0 0
78 26 2 4.0999999999999998e-01 -4.1487126154477796e+00 -5.1584534698212199e+00 -9.4558287276385968e+00 1 2 6
1928 643 2 4.0999999999999998e-01 -6.0829953423152521e+00 -1.0990411127280396e+01 -1.3394110989495502e+01 3 0 1
2323 775 1 -8.1999999999999995e-01 -2.0540155722797486e+00 -8.5945655027876651e+00 -1.3710136488785350e+01 3 0 2
76 26 1 -8.1999999999999995e-01 -4.7821720750319106e+00 -5.3660749823983451e+00 -1.0201228820575407e+01 1 2 6
462 154 2 4.0999999999999998e-01 -4.7004268338153281e+00 -8.3723616890097023e+00 -8.9183290395308763e+00 -4 2 3
1227 409 2 4.0999999999999998e-01 -2.5360214768525680e+00 -6.7292017033372318e+00 -1.0257353386859972e+01 -3 0 0
1416 472 2 4.0999999999999998e-01 -7.6706478206241080e-01 -1.2274556611810537e+01 -1.2331929968086840e+01 0 -2 5
1722 574 2 4.0999999999999998e-01 -9.8518419954973524e-01 -1.3333956203989356e+01 -1.0374296844772386e+01 1 3 0
1927 643 1 -8.1999999999999995e-01 -5.7500458193017536e+00 -1.0085363904122101e+01 -1.3129473496051684e+01 3 0 1
2210 737 2 4.0999999999999998e-01 -2.6757232826332764e+00 -1.1740306511076392e+01 -1.3615091044214289e+01 -2 2 3
835 279 1 -8.1999999999999995e-01 -7.0007774618376963e+00 -9.3132074317317635e+00 -1.0894693677647060e+01 1 3 5
1922 641 2 4.0999999999999998e-01 -6.3901291006553382e+00 -1.0341497621606376e+01 -8.0934117208622567e+00 2 2 3
795 265 2 4.0999999999999998e-01 -7.2199897608461683e-01 -7.0611396612236090e+00 -7.4451025561323672e+00 2 -2 0
836 279 2 4.0999999999999998e-01 -6.2423970754066680e+00 -9.3145862195777731e+00 -1.1546503575244703e+01 1 3 5
1415 472 2 4.0999999999999998e-01 -1.7164300369267789e+00 -1.1488862428267906e+01 -1.1260475973574041e+01 0 -2 5
77 26 2 4.0999999999999998e-01 -5.2275822335284801e+00 -6.2439552646240060e+00 -1.0025345726497768e+01 1 2 6
2526 842 2 4.0999999999999998e-01 -1.5122790917931184e+00 -9.4565576751192228e+00 -7.7706319559175192e+00 0 1 -3
1056 352 2 4.0999999999999998e-01 -3.3306097763834703e+00 -1.0998611032516113e+01 -9.4295074610780603e+00 -1 4 -1
2564 855 2 4.0999999999999998e-01 -6.3103809412776322e+00 -1.3077855771677482e+01 -1.0248120056341580e+01 3 4 3
1055 352 2 4.0999999999999998e-01 -2.3058471881939724e+00 -1.1478253071007359e+01 -8.2520404567420158e+00 -1 4 -1
94 32 1 -8.1999999999999995e-01 -3.7230670528005074e+00 -1.3482994129940076e+01 -1.2779304803610003e+01 -1 -1 2
461 154 2 4.0999999999999998e-01 -3.1500094750799654e+00 -8.7239307144922371e+00 -9.2914625669686171e+00 -4 2 3
837 279 2 4.0999999999999998e-01 -6.6402949584774813e+00 -9.3719999901035926e+00 -9.9637829873974706e+00 1 3 5
460 154 1 -8.1999999999999995e-01 -3.8628057126020643e+00 -8.0241895378421795e+00 -9.3392397885563110e+00 -4 2 3
2325 775 2 4.0999999999999998e-01 -2.6699667202828063e+00 -8.2733853867650513e+00 -1.4429474053181430e+01 3 0 2
1085 362 2 4.0999999999999998e-01 -1.9194388787157237e+00 -1.3868393432606329e+01 -8.2630733292043068e+00 -4 -2 0
50 17 2 4.0999999999999998e-01 -2.4150791044696867e+00 -5.3954718951186855e+00 -1.2549998431654977e+01 -1 0 0
1604 535 2 4.0999999999999998e-01 -6.7448142201309285e+00 -6.2387535669090983e+00 -7.4652584442793710e+00 3 -1 2
2028 676 2 4.0999999999999998e-01 -1.2435061509721741e+01 -1.0508744930535995e+01 -2.3984007968961958e+00 1 2 -2
2026 676 1 -8.1999999999999995e-01 -1.2765446768783081e+01 -1.0192615639532882e+01 -3.2877301734684803e+00 1 2 -2
1854 618 2 4.0999999999999998e-01 -1.3170290669950674e+01 -1.4519296470336711e+01 -5.6777825103349731e+00 -1 1 2
1152 384 2 4.0999999999999998e-01 -1.1553266408893347e+01 -1.3839262042589539e+01 -3.4942072895964778e+00 -2 2 1
2569 857 1 -8.1999999999999995e-01 -9.4824103204390688e+00 -9.1983646930837217e+00 -1.5901658894340223e+00 0 -1 2
204 68 2 4.0999999999999998e-01 -9.8877881216787920e+00 -9.0890503424262032e+00 -4.8456353559865484e+00 1 -1 0
202 68 1 -8.1999999999999995e-01 -1.0598418493396231e+01 -8.7569157455476887e+00 -4.2254015991793441e+00 1 -1 0
203 68 2 4.0999999999999998e-01 -1.0763091800283565e+01 -7.7855790081581171e+00 -4.3968265415449288e+00 1 -1 0
2405 802 2 4.0999999999999998e-01 -1.2708042441087446e+01 -1.1106999411417355e+01 -6.0714403539319886e+00 -2 2 2
2571 857 2 4.0999999999999998e-01 -9.4841179245792926e+00 -8.6632469097266451e+00 -2.4349409654905099e+00 0 -1 2
1150 384 1 -8.1999999999999995e-01 -1.2023035826138903e+01 -1.4427454357912442e+01 -4.1524970057267243e+00 -2 2 1
1853 618 2 4.0999999999999998e-01 -1.3688925177699023e+01 -1.3454930429771990e+01 -6.8024009189856738e+00 -1 1 2
2453 818 2 4.0999999999999998e-01 -1.4337204139840521e+01 -1.0581785070957594e+01 -3.5556219355711072e+00 0 1 0
2570 857 2 4.0999999999999998e-01 -1.0416746586203459e+01 -9.4805278101491837e+00 -1.3724536790698334e+00 0 -1 2
1818 606 2 4.0999999999999998e-01 -9.7838031735443654e+00 -1.3017794879106470e+01 -3.0129247274407174e+00 -1 -1 2
2487 829 2 4.0999999999999998e-01 -7.4562471535303407e+00 -6.9404424590380458e+00 -6.0059277798555044e-01 3 1 1
588 196 2 4.0999999999999998e-01 -8.6935015050072799e+00 -1.0734973773313737e+01 -1.8783789761269620e+00 1 0 -1
705 235 2 4.0999999999999998e-01 -1.2336756646887194e+01 -1.3588504922006784e+01 -1.1904196048166416e+00 1 0 3
2027 676 2 4.0999999999999998e-01 -1.2023922625540971e+01 -9.7298183376099079e+00 -3.7734868138005151e+00 1 2 -2
286 96 1 -8.1999999999999995e-01 -7.4410391238336890e+00 -5.8117703041210369e+00 -4.7492213000224375e+00 1 -1 3
2581 861 1 -8.1999999999999995e-01 -1.4300789997787239e+01 -6.5506415739191084e+00 -1.9768381718762527e+00 2 2 2
703 235 1 -8.1999999999999995e-01 -1.3023222565995395e+01 -1.3831088821477577e+01 -5.0491504504635287e-01 1 0 3
1816 606 1 -8.1999999999999995e-01 -1.0536479849236564e+01 -1.3197858091706212e+01 -2.3796364598777640e+00 -1 -1 2
1174 392 1 -8.1999999999999995e-01 -1.3595075395045740e+01 -6.3554565483710910e+00 -6.3208803545163494e+00 1 2 4
1817 606 2 4.0999999999999998e-01 -1.0193065046618299e+01 -1.3705581138757807e+01 -1.5895209895421729e+00 -1 -1 2
2582 861 2 4.0999999999999998e-01 -1.4860954531466792e+01 -6.9348741044030984e+00 -1.2429581336266331e+00 2 2 2
1836 612 2 4.0999999999999998e-01 -9.2399198888556562e+00 -1.0807551847169840e+01 -6.8174589594061761e+00 1 0 2
208 70 1 -8.1999999999999995e-01 -7.5877389363692282e+00 -1.1798673368291912e+01 -6.9806031888104165e+00 1 -1 2
1123 375 1 -8.1999999999999995e-01 -1.1726820503957411e+01 -1.0058225517933632e+01 -6.3819610939082061e-01 1 3 2
528 176 2 4.0999999999999998e-01 -9.0162913677815109e+00 -5.7588420972782792e+00 -4.2898965088478693e+00 -1 2 1
1654 552 1 -8.1999999999999995e-01 -1.2668989280428374e+01 -4.9827663277382275e+00 -5.6550010506570558e-01 1 4 1
1176 392 2 4.0999999999999998e-01 -1.2668472208768742e+01 -5.9810115373079000e+00 -6.3554681218879985e+00 1 2 4
392 131 2 4.0999999999999998e-01 -8.0110185304639927e+00 -1.2806292241547789e+01 -4.9625971668230804e+00 0 0 2
393 131 2 4.0999999999999998e-01 -8.2883063943400579e+00 -1.3816767646171572e+01 -3.7101298671061169e+00 0 0 2
1834 612 1 -8.1999999999999995e-01 -1.0007363410445741e+01 -1.0168977369351005e+01 -6.8744848690320062e+00 1 0 2
2486 829 2 4.0999999999999998e-01 -8.3001676999737803e+00 -8.3173093809458010e+00 -8.4278944663151556e-01 3 1 1
2404 802 1 -8.1999999999999995e-01 -1.2416476303509496e+01 -1.1500607959630953e+01 -6.9432547589113636e+00 -2 2 2
1277 426 2 4.0999999999999998e-01 -1.0718681647303960e+01 -5.4580968565217560e+00 -5.6062721190872828e+00 -1 -1 0
587 196 2 4.0999999999999998e-01 -7.9996346272884153e+00 -1.1840636717240693e+01 -2.8595423702188150e+00 1 0 -1
391 131 1 -8.1999999999999995e-01 -8.3313179985347574e+00 -1.2866043370106025e+01 -4.0171676807553265e+00 0 0 2
526 176 1 -8.1999999999999995e-01 -9.9951061660021630e+00 -5.8307044412152731e+00 -4.0981772753726542e+00 -1 2 1
1276 426 1 -8.1999999999999995e-01 -1.0742188417307602e+01 -5.1672278076564240e+00 -6.5627455804470234e+00 -1 -1 0
527 176 2 4.0999999999999998e-01 -1.0234702377890782e+01 -5.2111781226926315e+00 -3.3506616169093935e+00 -1 2 1
1835 612 2 4.0999999999999998e-01 -1.0864569529751886e+01 -1.0664779078343400e+01 -6.7352829798626441e+00 1 0 2
2485 829 1 -8.1999999999999995e-01 -7.5738355059702549e+00 -7.8886450780022841e+00 -3.0549313770346131e-01 3 1 1
1852 618 1 -8.1999999999999995e-01 -1.3890104274268847e+01 -1.4319916281128631e+01 -6.3426996220746297e+00 -1 1 2
586 196 1 -8.1999999999999995e-01 -7.8473151040282296e+00 -1.1225890951932953e+01 -2.0856655895653464e+00 1 0 -1
1175 392 2 4.0999999999999998e-01 -1.4198611894799484e+01 -5.7089841496872804e+00 -5.8541727606329044e+00 1 2 4
704 235 2 4.0999999999999998e-01 -1.2821490785703340e+01 -1.4739220700740342e+01 -1.3803685078374173e-01 1 0 3
1655 552 2 4.0999999999999998e-01 -1.3039118231353150e+01 -5.6466543149439499e+00 -1.2153125066398331e+00 1 4 1
1125 375 2 4.0999999999999998e-01 -1.1019493372522412e+01 -1.0565770288982316e+01 -1.4617425771486126e-01 1 3 2
2583 861 2 4.0999999999999998e-01 -1.4262431723951979e+01 -7.1960943841136427e+00 -2.7396739112859780e+00 2 2 2
1872 624 2 4.0999999999999998e-01 -1.4669086283979015e+01 -1.3417769089213859e+01 -3.0106766370723470e+00 1 0 4
1124 375 2 4.0999999999999998e-01 -1.2628329143594609e+01 -1.0336950183420129e+01 -3.0714689702952036e-01 1 3 2
834 278 2 4.0999999999999998e-01 -1.4621196863995765e+01 -7.8832924621717524e+00 -5.4714541259636622e+00 1 1 -2
754 252 1 -8.1999999999999995e-01 -1.0241310053256363e+01 -1.4145171663427044e+01 -7.4016410537451014e+00 0 1 3
759 253 2 4.0999999999999998e-01 -4.4225819945369551e+00 -4.9643585753043453e+00 -3.1964632097391554e+00 -2 3 1
1632 544 2 4.0999999999999998e-01 -1.5174836408738201e+00 -1.1021126344443232e+01 -5.2308035557453199e+00 0 0 1
1398 466 2 4.0999999999999998e-01 -2.1060469969951967e-01 -1.3794410824442823e+01 -4.2378087560055988e+00 -3 1 -1
209 70 2 4.0999999999999998e-01 -6.6900244878562081e+00 -1.2078002321713635e+01 -6.6398936312491585e+00 1 -1 2
909 303 2 4.0999999999999998e-01 -3.4752607151081421e+00 -1.4821129457080772e+01 -5.4881636749985727e+00 0 1 3
1924 642 1 -8.1999999999999995e-01 -7.3404480150621145e+00 -5.6533421241062189e+00 -1.5898859980348679e+00 2 -1 3
2444 815 2 4.0999999999999998e-01 -5.6052275216168361e+00 -1.3734751826358711e+01 -9.8215514497153222e-01 0 1 3
1925 642 2 4.0999999999999998e-01 -7.3545701227350770e+00 -6.1083942142475998e+00 -2.4802381809380805e+00 2 -1 3
1039 347 1 -8.1999999999999995e-01 -1.5644969829448083e+00 -1.1521898242300084e+01 -6.4340450934971827e-01 1 -2 0
1617 539 2 4.0999999999999998e-01 -5.8945529358886262e-01 -6.9761208295224177e+00 -2.1887428181290858e+00 -3 0 2
2443 815 1 -8.1999999999999995e-01 -6.0860743691972701e+00 -1.3996859241399580e+01 -1.4544438760028910e-01 0 1 3
288 96 2 4.0999999999999998e-01 -7.3457600395249614e+00 -6.2833207863071081e+00 -5.6258973535856391e+00 1 -1 3
1084 362 1 -8.1999999999999995e-01 -2.2705531092055118e+00 -1.3562899215381487e+01 -7.3779795728970621e+00 -4 -2 0
287 96 2 4.0999999999999998e-01 -6.6038311443919273e+00 -5.3014930685435129e+00 -4.5525012395695814e+00 1 -1 3
512 171 2 4.0999999999999998e-01 -3.6172715229520520e+00 -1.4318742138896802e+01 -2.3605252581285168e+00 0 1 -2
793 265 1 -8.1999999999999995e-01 -3.6145147149324508e-01 -6.1304134642805277e+00 -7.3838394598759933e+00 2 -2 0
1709 570 2 4.0999999999999998e-01 -3.0979310423145687e+00 -1.4280482320309993e+01 -6.3034842419940063e-02 1 4 2
1119 373 2 4.0999999999999998e-01 -7.3581853571906377e+00 -1.1105539534016589e+01 -3.7275961239051192e-01 0 -2 3
1603 535 1 -8.1999999999999995e-01 -6.9883298285275375e+00 -7.1620629903398587e+00 -7.1682757717486192e+00 3 -1 2
1630 544 1 -8.1999999999999995e-01 -2.3993626833844512e+00 -1.0770159129304488e+01 -4.8316749223872240e+00 0 0 1
1086 362 2 4.0999999999999998e-01 -1.8368897470983470e+00 -1.4090255115173369e+01 -6.6473423894325414e+00 -4 -2 0
1295 432 2 4.0999999999999998e-01 -2.5754959305991427e+00 -5.5309244155139510e+00 -1.8545903380814099e+00 -2 -1 2
2524 842 1 -8.1999999999999995e-01 -1.2603092947058503e+00 -8.5791277653594733e+00 -7.3624324862377204e+00 0 1 -3
2525 842 2 4.0999999999999998e-01 -1.5536240095723119e+00 -8.5596902985656929e+00 -6.4066147723350024e+00 0 1 -3
2413 805 1 -8.1999999999999995e-01 -5.3122185014292391e+00 -1.2487568291795853e+01 -5.9615435264068903e+00 1 1 0
2243 748 2 4.0999999999999998e-01 -1.3192361980766076e+00 -8.6046088967057237e+00 -2.5707500410402471e+00 0 3 3
168 56 2 4.0999999999999998e-01 -3.4470708358556141e+00 -7.3002103462651986e+00 -2.2372752490247905e+00 -5 2 2
1294 432 1 -8.1999999999999995e-01 -1.7344524080431434e+00 -5.0369341855765626e+00 -1.6340947539735478e+00 -2 -1 2
167 56 2 4.0999999999999998e-01 -4.3252556075454098e+00 -6.9174533702861050e+00 -9.1481088628473017e-01 -5 2 2
1005 335 2 4.0999999999999998e-01 -5.3651894390289812e-01 -5.8174976336876458e+00 -5.6423756808313801e+00 1 -4 1
907 303 1 -8.1999999999999995e-01 -3.5366375212431329e+00 -1.4302969648189361e+01 -4.6350856202139319e+00 0 1 3
2415 805 2 4.0999999999999998e-01 -4.6978443623258102e+00 -1.3135405632416450e+01 -5.5111547202354831e+00 1 1 0
1822 608 1 -8.1999999999999995e-01 -5.5914090718767255e+00 -9.7341850430613501e+00 -2.6121227980166601e+00 -1 4 1
1397 466 2 4.0999999999999998e-01 -1.1065936900325024e+00 -1.3185331054317206e+01 -3.0159867772142128e+00 -3 1 -1
738 246 2 4.0999999999999998e-01 -2.7744943960438881e+00 -1.1666796421313540e+01 -1.7759122826121718e+00 -1 2 1
1003 335 1 -8.1999999999999995e-01 -9.3152594190257432e-01 -5.9844176493247954e+00 -4.7389898144078106e+00 1 -4 1
1823 608 2 4.0999999999999998e-01 -5.4540338574663352e+00 -8.9028437839271799e+00 -2.0736076259285277e+00 -1 4 1
1396 466 1 -8.1999999999999995e-01 -2.6916916609666863e-01 -1.3070552677576529e+01 -3.5503508166079083e+00 -3 1 -1
736 246 1 -8.1999999999999995e-01 -3.2782117867826983e+00 -1.1971270625560122e+01 -2.5843447868843832e+00 -1 2 1
737 246 2 4.0999999999999998e-01 -4.1170695939717650e+00 -1.1434701248042142e+01 -2.6760495352465608e+00 -1 2 1
1004 335 2 4.0999999999999998e-01 -1.8607976142091527e+00 -6.3391866259809326e+00 -4.8419070889308724e+00 1 -4 1
2276 759 2 4.0999999999999998e-01 -4.7250686720364659e+00 -7.7767395636847745e+00 -5.8200717144647296e+00 0 -3 3
2277 759 2 4.0999999999999998e-01 -3.8904100612698898e+00 -6.5930463170203257e+00 -6.5742858649480240e+00 0 -3 3
1631 544 2 4.0999999999999998e-01 -2.6519436416817594e+00 -1.1440008760253155e+01 -4.1334606452925904e+00 0 0 1
2414 805 2 4.0999999999999998e-01 -5.2648034140163862e+00 -1.1604087490429521e+01 -5.4954830990617793e+00 1 1 0
1041 347 2 4.0999999999999998e-01 -6.9338125144067497e-01 -1.2009960611302338e+01 -6.9773085162183790e-01 1 -2 0
1824 608 2 4.0999999999999998e-01 -6.4109979769206653e+00 -1.0208181907718744e+01 -2.2902535009702572e+00 -1 4 1
2275 759 1 -8.1999999999999995e-01 -3.8633109993917429e+00 -7.2697566853862625e+00 -5.8385360733166802e+00 0 -3 3
2244 748 2 4.0999999999999998e-01 -2.2377853273352031e+00 -8.7838560484163946e+00 -3.9089433589713405e+00 0 3 3
166 56 1 -8.1999999999999995e-01 -3.9164628683659757e+00 -6.5606836889323521e+00 -1.7548125177209872e+00 -5 2 2
1958 653 2 4.0999999999999998e-01 -4.1309924341781361e+00 -9.8734867987096244e+00 -5.6690397091189269e+00 2 -3 -1
1959 653 2 4.0999999999999998e-01 -5.0764819367841554e+00 -9.5599968360817407e+00 -4.3750547691640165e+00 2 -3 -1
1957 653 1 -8.1999999999999995e-01 -5.0713022424315444e+00 -9.7298819948879824e+00 -5.3605044589831579e+00 2 -3 -1
2242 748 1 -8.1999999999999995e-01 -2.1739048057260817e+00 -8.3378934863937317e+00 -3.0161748933747727e+00 0 3 3
31 11 1 -8.1999999999999995e-01 -9.8966763339359627e+00 -1.1429212340469677e+01 1.0578460665709652e+00 -1 0 1
33 11 2 4.0999999999999998e-01 -8.9000361856486165e+00 -1.1357170672405513e+01 1.0188936856968933e+00 -1 0 1
32 11 2 4.0999999999999998e-01 -1.0166526057449744e+01 -1.1856027015516924e+01 1.9209852297477763e+00 -1 0 1
1525 509 1 -8.1999999999999995e-01 -1.2620610747630806e+01 -1.0657236151355679e+01 3.3767838460989186e+00 4 -1 4
1527 509 2 4.0999999999999998e-01 -1.2022600626264397e+01 -1.1457068625212623e+01 3.4282693044933854e+00 4 -1 4
1526 509 2 4.0999999999999998e-01 -1.2066473528625373e+01 -9.8250141663554551e+00 3.3951510506571001e+00 4 -1 4
1393 465 1 -8.1999999999999995e-01 -1.2645301058199612e+01 -6.4262608370472876e+00 4.2571000046455172e+00 2 0 1
1395 465 2 4.0999999999999998e-01 -1.2174138219301756e+01 -7.2085450936975253e+00 3.8496250523248268e+00 2 0 1
2180 727 2 4.0999999999999998e-01 -1.3230538400691476e+01 -1.4477170143097927e+01 3.6279111851154742e+00 -1 0 2
2353 785 1 -8.1999999999999995e-01 -1.1017379943208027e+01 -8.4941093026507275e+00 3.3947591441415081e+00 2 1 2
2034 678 2 4.0999999999999998e-01 -9.9820704673533029e+00 -8.3014717207872017e+00 6.4389050312620544e+00 -1 -3 4
2473 825 1 -8.1999999999999995e-01 -1.4034072519072399e+01 -1.1681203704135722e+01 8.6471889463245333e-01 2 3 4
349 117 1 -8.1999999999999995e-01 -1.0783449088697289e+01 -1.2749529352729420e+01 3.1746879964849999e+00 2 -1 -1
2355 785 2 4.0999999999999998e-01 -1.0447142794926439e+01 -8.5561716338708464e+00 4.2138908275337368e+00 2 1 2
2354 785 2 4.0999999999999998e-01 -1.0552406779525327e+01 -7.9374489199909446e+00 2.7063348247360803e+00 2 1 2
2032 678 1 -8.1999999999999995e-01 -9.3190613200554164e+00 -8.6248485671279997e+00 5.7637419594781694e+00 -1 -3 4
1602 534 2 4.0999999999999998e-01 -1.4453926999380691e+01 -6.0824486373339877e+00 1.3924548875170881e+00 0 3 0
350 117 2 4.0999999999999998e-01 -1.1615117867740306e+01 -1.3295679106863522e+01 3.0744564853034166e+00 2 -1 -1
2300 767 2 4.0999999999999998e-01 -1.3820210183995009e+01 -1.0809576893585323e+01 5.1368967631805358e+00 5 -1 2
2474 825 2 4.0999999999999998e-01 -1.3487062704725311e+01 -1.1505908329258826e+01 1.6832851117218954e+00 2 3 4
351 117 2 4.0999999999999998e-01 -1.0054455902730560e+01 -1.3319032722880184e+01 3.5544692412127592e+00 2 -1 -1
876 292 2 4.0999999999999998e-01 -1.2923781632459287e+01 -1.4257648784734606e+01 6.5380322643250448e+00 1 0 2
1241 414 2 4.0999999999999998e-01 -1.4306312916688869e+01 -1.0104389282185718e+01 3.3603176099833068e+00 4 -1 6
679 227 1 -8.1999999999999995e-01 -8.3666626335698187e+00 -1.4108935917205827e+01 3.9774253015294097e+00 -2 -2 0
2497 833 1 -8.1999999999999995e-01 -9.5840799946326634e+00 -7.2479175328358414e+00 1.5529175399117197e+00 3 1 4
2499 833 2 4.0999999999999998e-01 -8.9179663481580729e+00 -7.6588803281884452e+00 9.3050205622095383e-01 3 1 4
2475 825 2 4.0999999999999998e-01 -1.3648997003130024e+01 -1.2458097827096134e+01 3.6657109042385194e-01 2 3 4
2498 833 2 4.0999999999999998e-01 -9.5291490437956448e+00 -6.2514575315498035e+00 1.4892866063354173e+00 3 1 4
680 227 2 4.0999999999999998e-01 -7.7061992610950085e+00 -1.3402377125770311e+01 4.2315151767485819e+00 -2 -2 0
1028 343 2 4.0999999999999998e-01 -1.4410407566015540e+01 -6.9644144356325137e+00 6.7017597907736235e+00 1 -1 1
1601 534 2 4.0999999999999998e-01 -1.3618966747653923e+01 -5.6896231442160197e+00 2.7397309976689517e+00 0 3 0
55 19 1 -8.1999999999999995e-01 -1.4788274123204097e+01 -1.3702329294621787e+01 3.3997075964919308e+00 2 1 5
802 268 1 -8.1999999999999995e-01 -8.6645438579919798e+00 -1.1578847583195547e+01 6.7654619082402565e+00 -2 -1 0
1600 534 1 -8.1999999999999995e-01 -1.3903143792556296e+01 -5.3743352892951304e+00 1.8342831383864304e+00 0 3 0
2299 767 1 -8.1999999999999995e-01 -1.4467361791692790e+01 -1.1441240980410548e+01 5.5637387799562195e+00 5 -1 2
1394 465 2 4.0999999999999998e-01 -1.1976882657840932e+01 -5.8272928413661962e+00 4.6980683163120904e+00 2 0 1
874 292 1 -8.1999999999999995e-01 -1.3799070495544505e+01 -1.4031649413649397e+01 6.1104898413645987e+00 1 0 2
875 292 2 4.0999999999999998e-01 -1.3879282912677612e+01 -1.3039004906438237e+01 6.0198163067494246e+00 1 0 2
2090 697 2 4.0999999999999998e-01 -1.4123050290286750e+01 -6.9945948967044504e+00 4.7384002238418450e+00 -1 -2 1
2301 767 2 4.0999999999999998e-01 -1.4622399075288456e+01 -1.1168458813182664e+01 6.5132397910294646e+00 5 -1 2
2033 678 2 4.0999999999999998e-01 -8.6420292787650865e+00 -7.9091832265455890e+00 5.5921330102930238e+00 -1 -3 4