LAMMPS data file via write_data, version 15 May 2015, timestep = 23005000

2611 atoms
6 atom types
1749 bonds
4 bond types
894 angles
3 angle types
44 dihedrals
3 dihedral types
10 impropers
1 improper types

-1.4925434157086105e+01 1.4925434157086105e+01 xlo xhi
-1.4925434157086105e+01 1.4925434157086105e+01 ylo yhi
-1.4925434157086105e+01 1.4925434157086105e+01 zlo zhi

Masses

1 15.9994
2 1.00794
3 12.0107
4 1.00794
5 12.0107
6 12.0107

Bond Coeffs # harmonic

1 1000 1
2 469 1.4
3 367 1.08
4 469 0.7

Angle Coeffs # harmonic

1 100 109.47
2 35 120
3 63 120

Dihedral Coeffs # opls

1 0 7.25 0 0
2 0 7.25 0 0
3 0 7.25 0 0

Improper Coeffs # cvff

1 2.5 -1 2

Atoms # full

2046 682 2 4.0999999999999998e-01 -1.3259215286406267e+01 -1.0037463448308184e+01 -9.4782071786446096e+00 7 3 -1
2044 682 1 -8.1999999999999995e-01 -1.3694575108758649e+01 -9.9029763624932379e+00 -1.0368367827032342e+01 7 3 -1
1715 572 2 4.0999999999999998e-01 -1.1207228658477465e+01 -1.1375453520290110e+01 -9.0443926631771419e+00 2 -5 2
2259 753 2 4.0999999999999998e-01 -1.1595895942948815e+01 -8.5818816150563961e+00 -1.2465671771557425e+01 1 1 3
1714 572 1 -8.1999999999999995e-01 -1.1950424491005117e+01 -1.2041490451666048e+01 -8.9806299512176615e+00 2 -5 2
1036 346 1 -8.1999999999999995e-01 -1.3660675513689382e+01 -1.1225721944464070e+01 -1.3836067508453617e+01 5 3 3
1037 346 2 4.0999999999999998e-01 -1.3362453905080079e+01 -1.0678372782736137e+01 -1.3054093276880788e+01 5 3 3
2257 753 1 -8.1999999999999995e-01 -1.1668780794631189e+01 -8.3676591733416874e+00 -1.1491604264878369e+01 1 1 3
2045 682 2 4.0999999999999998e-01 -1.3106617460056579e+01 -9.3352902094779324e+00 -1.0944604867982635e+01 7 3 -1
2318 773 2 4.0999999999999998e-01 -1.0945438968357234e+01 -9.8573912653595279e+00 -1.3945758895684659e+01 3 -1 2
2317 773 1 -8.1999999999999995e-01 -1.1253353262565559e+01 -8.9215930390802853e+00 -1.4117460390146206e+01 3 -1 2
2388 796 2 4.0999999999999998e-01 -1.3487068873694344e+01 -1.2896163707177003e+01 -9.5529559321513400e+00 -1 1 2
1695 565 2 4.0999999999999998e-01 -7.8614547500992087e+00 -6.8562644674884758e+00 -1.2871202817528030e+01 -1 -7 1
1693 565 1 -8.1999999999999995e-01 -8.3765405318383834e+00 -6.2763621398029930e+00 -1.2240004857783926e+01 -1 -7 1
2258 753 2 4.0999999999999998e-01 -1.1716634792874654e+01 -7.3760993356062103e+00 -1.1371063665602826e+01 1 1 3
2402 801 2 4.0999999999999998e-01 -1.0446243612129358e+01 -1.1446770906488602e+01 -1.1320227161587653e+01 2 -2 -1
753 251 2 4.0999999999999998e-01 -1.4845148980211647e+01 -6.6317342682635108e+00 -8.3748885364592738e+00 2 0 -6
1038 346 2 4.0999999999999998e-01 -1.2860345131304554e+01 -1.1585175398209007e+01 -1.4315937730765253e+01 5 3 3
1410 470 2 4.0999999999999998e-01 -1.1534745605988288e+01 -1.4701397464583435e+01 -1.3954009132676704e+01 0 -3 -2
2403 801 2 4.0999999999999998e-01 -1.2021590290356507e+01 -1.1029622826676011e+01 -1.1424754552528739e+01 2 -2 -1
2401 801 1 -8.1999999999999995e-01 -1.1220082907972181e+01 -1.1328792016702987e+01 -1.1942533115720259e+01 2 -2 -1
1694 565 2 4.0999999999999998e-01 -8.3730197563679063e+00 -6.6896172769565876e+00 -1.1329390365151868e+01 -1 -7 1
732 244 2 4.0999999999999998e-01 -8.1443653526235646e+00 -7.0404323716551520e+00 -8.7438864810131118e+00 7 -2 -5
730 244 1 -8.1999999999999995e-01 -8.0335425363492945e+00 -7.4165309580578826e+00 -9.6638207727030192e+00 7 -2 -5
2400 800 2 4.0999999999999998e-01 -1.0276539872369444e+01 -8.6124104558103234e+00 -8.6036900584480556e+00 -2 4 10
1954 652 1 -8.1999999999999995e-01 -9.1598138896552204e+00 -1.1686382274516943e+01 -1.0267339544424917e+01 0 6 4
2399 800 2 4.0999999999999998e-01 -1.1389696971770904e+01 -8.7858845290967640e+00 -9.7858252836030744e+00 -2 4 10
2398 800 1 -8.1999999999999995e-01 -1.1166029915460058e+01 -9.0057567454362406e+00 -8.8362779060031826e+00 -2 4 10
1716 572 2 4.0999999999999998e-01 -1.1772642376434034e+01 -1.2667637189226204e+01 -8.2214562432399436e+00 2 -5 2
1955 652 2 4.0999999999999998e-01 -8.9611677082049201e+00 -1.2535439632194821e+01 -9.7777966520600792e+00 0 6 4
1956 652 2 4.0999999999999998e-01 -8.5201384660999544e+00 -1.0975535570011218e+01 -9.9748960071661550e+00 0 6 4
1298 433 2 4.0999999999999998e-01 -1.0699258359295982e+01 -1.3367263368666030e+01 -1.2309403473270539e+01 0 0 0
903 301 2 4.0999999999999998e-01 -9.5949523485172179e+00 -1.3045293307126267e+01 -1.4247694056656469e+01 5 3 -5
901 301 1 -8.1999999999999995e-01 -8.6633924545793910e+00 -1.3408053892530223e+01 -1.4222958686391504e+01 5 3 -5
2386 796 1 -8.1999999999999995e-01 -1.4350690144043069e+01 -1.3400165929160059e+01 -9.5406671612816307e+00 -1 1 2
902 301 2 4.0999999999999998e-01 -8.0879714850900868e+00 -1.2811101581045868e+01 -1.3663897360483315e+01 5 3 -5
751 251 1 -8.1999999999999995e-01 -1.4405075651210858e+01 -6.6022695131704854e+00 -9.2723729414118417e+00 2 0 -6
1297 433 1 -8.1999999999999995e-01 -1.1200908320659074e+01 -1.4232292957615595e+01 -1.2318462160807549e+01 0 0 0
1659 553 2 4.0999999999999998e-01 -1.4533242525505173e+01 -5.6987191109170858e+00 -1.0611527860991266e+01 5 6 -1
2058 686 2 4.0999999999999998e-01 -1.1469410212780996e+01 -5.2454726619894974e+00 -9.6052592858063655e+00 7 -1 3
897 299 2 4.0999999999999998e-01 -1.1866224453563548e+01 -6.3401259963625680e+00 -7.9728677222665576e+00 3 6 0
1657 553 1 -8.1999999999999995e-01 -1.4772668686976850e+01 -5.2705998979262549e+00 -1.1482963473883769e+01 5 6 -1
731 244 2 4.0999999999999998e-01 -7.5711043961376143e+00 -8.3014703737686588e+00 -9.6086469757549509e+00 7 -2 -5
1299 433 2 4.0999999999999998e-01 -1.1869203529135497e+01 -1.4237847952839250e+01 -1.1574579386807402e+01 0 0 0
2057 686 2 4.0999999999999998e-01 -9.9522150218621359e+00 -5.8406900837198972e+00 -9.5028353829829229e+00 7 -1 3
929 310 2 4.0999999999999998e-01 -8.3431866238096539e+00 -1.0007948416162057e+01 -1.3734470724737687e+01 -3 -4 -4
752 251 2 4.0999999999999998e-01 -1.4691637600130916e+01 -7.3950642347445426e+00 -9.8103039113103350e+00 2 0 -6
928 310 1 -8.1999999999999995e-01 -7.9379274870078946e+00 -9.3947146368451300e+00 -1.4412497477044925e+01 -3 -4 -4
2056 686 1 -8.1999999999999995e-01 -1.0888475352461246e+01 -6.0372361237038810e+00 -9.7940349584838753e+00 7 -1 3
1241 414 2 4.0999999999999998e-01 -1.4754273527929065e+01 -6.6130734651666447e+00 -1.3062985988360644e+01 11 -1 7
735 245 2 4.0999999999999998e-01 -1.1971752307375061e+01 -9.3332844660917971e+00 -7.6064170763639218e+00 4 3 0
1156 386 1 -8.1999999999999995e-01 -9.9011051835217501e-01 -6.6748660863330151e+00 -1.0583259607789754e+01 1 3 2
2277 759 2 4.0999999999999998e-01 -6.9126236043231319e+00 -4.9794074560313426e+00 -8.6242774577383123e+00 3 -2 4
2508 836 2 4.0999999999999998e-01 -1.3003777547298689e-01 -1.4172110226027243e+01 -8.6246732406142925e+00 8 -3 6
289 97 1 -8.1999999999999995e-01 -5.9092516665208645e+00 -1.4805536495636742e+01 -1.3564655426766668e+01 4 -1 5
2507 836 2 4.0999999999999998e-01 -1.3642343491121416e+00 -1.3109223783700777e+01 -8.5076825460704821e+00 8 -3 6
1108 370 1 -8.1999999999999995e-01 -2.6553163124479795e-01 -1.0139472447149336e+01 -1.0507903950014320e+01 5 4 -1
323 108 2 4.0999999999999998e-01 -4.3531590867199181e+00 -5.2453842166025098e+00 -8.9918972379610516e+00 4 2 2
1110 370 2 4.0999999999999998e-01 -1.8983615836209999e-01 -9.1549071093023926e+00 -1.0665740009837911e+01 5 4 -1
1109 370 2 4.0999999999999998e-01 -1.1730908734052665e+00 -1.0349989303590000e+01 -1.0144544878917021e+01 5 4 -1
510 170 2 4.0999999999999998e-01 -3.7471994675066949e+00 -1.1345496308424945e+01 -9.5845455044346117e+00 7 3 -3
1229 410 2 4.0999999999999998e-01 -3.3954939950555687e+00 -9.2803914966690755e+00 -1.3938968173065662e+01 2 2 2
79 27 1 -8.1999999999999995e-01 -3.2510850084268395e+00 -1.0231189563984980e+01 -1.2584214841761424e+01 7 3 3
970 324 1 -8.1999999999999995e-01 -6.9238039689319759e+00 -1.0027740441700415e+01 -9.8002461566252315e+00 4 -6 2
81 27 2 4.0999999999999998e-01 -2.9492494723891021e+00 -1.0105578042101358e+01 -1.1639160341016012e+01 7 3 3
2506 836 1 -8.1999999999999995e-01 -1.0826691061459979e+00 -1.3996507415026954e+01 -8.8730038939962306e+00 8 -3 6
790 264 1 -8.1999999999999995e-01 -1.4391784439015964e+00 -6.4581690071796842e+00 -7.6380225446789520e+00 2 6 6
972 324 2 4.0999999999999998e-01 -6.6756942963169230e+00 -9.8062829689730080e+00 -1.0743331058630467e+01 4 -6 2
509 170 2 4.0999999999999998e-01 -3.3379949887259457e+00 -9.8241557518260443e+00 -9.1547428919147595e+00 7 3 -3
2177 726 2 4.0999999999999998e-01 -5.2621488943290871e+00 -1.3985157250208525e+01 -1.0218193142406058e+01 6 -2 4
2446 816 1 -8.1999999999999995e-01 -4.8506708839254209e+00 -1.1757363656302882e+01 -7.7789865493364596e+00 4 0 7
1385 462 2 4.0999999999999998e-01 -1.7056736983991225e+00 -5.1725273160434018e+00 -1.3673021254565230e+01 2 -1 2
1491 497 2 4.0999999999999998e-01 -2.7401567383941430e+00 -1.4509756371112447e+01 -1.1212331265947530e+01 -1 -3 4
971 324 2 4.0999999999999998e-01 -6.1059519228212924e+00 -1.0307355799235772e+01 -9.2973105443361987e+00 4 -6 2
1490 497 2 4.0999999999999998e-01 -2.1319287361479802e+00 -1.3448131205573109e+01 -1.0130820111739844e+01 -1 -3 4
1386 462 2 4.0999999999999998e-01 -2.2775797262515400e+00 -6.2260099825954551e+00 -1.2564078764696859e+01 2 -1 2
418 140 1 -8.1999999999999995e-01 -3.0697348186820790e+00 -8.7688412307646786e+00 -7.9292914146066593e+00 2 3 3
1230 410 2 4.0999999999999998e-01 -2.7943265423114259e+00 -7.7804547682540157e+00 -1.4174431832039785e+01 2 2 2
290 97 2 4.0999999999999998e-01 -5.9753603738225269e+00 -1.3836272971357868e+01 -1.3327655802419764e+01 4 -1 5
1489 497 1 -8.1999999999999995e-01 -2.5702149802972514e+00 -1.3542321575430359e+01 -1.1024712886103893e+01 -1 -3 4
1384 462 1 -8.1999999999999995e-01 -2.0483757117423629e+00 -6.1009331040533290e+00 -1.3529393334834751e+01 2 -1 2
1104 368 2 4.0999999999999998e-01 -2.6913057953654409e+00 -1.2799782204421598e+01 -1.2798015248856311e+01 2 1 1
1157 386 2 4.0999999999999998e-01 -9.2770910991578504e-01 -5.6983747532587508e+00 -1.0789612873376853e+01 1 3 2
1228 410 1 -8.1999999999999995e-01 -3.5007195509089808e+00 -8.4303025704904169e+00 -1.4454998562166203e+01 2 2 2
1103 368 2 4.0999999999999998e-01 -2.9219840435773143e+00 -1.3279914347421634e+01 -1.4341685001762540e+01 2 1 1
865 289 1 -8.1999999999999995e-01 -6.0098929257328493e+00 -9.1559558431895880e+00 -1.2422764179528658e+01 -1 -1 -1
866 289 2 4.0999999999999998e-01 -5.0324517459734466e+00 -8.9980872945466785e+00 -1.2563110906077215e+01 -1 -1 -1
419 140 2 4.0999999999999998e-01 -2.5232452049960425e+00 -7.9335791440359476e+00 -7.8684860789313706e+00 2 3 3
2176 726 1 -8.1999999999999995e-01 -5.8933803723023246e+00 -1.3277176733773379e+01 -9.9014576682026991e+00 6 -2 4
1102 368 1 -8.1999999999999995e-01 -2.8382899340659158e+00 -1.2488042414390920e+01 -1.3736751056332706e+01 2 1 1
1623 541 2 4.0999999999999998e-01 -6.3139297818840365e+00 -1.2765808073126713e+01 -1.1492319709000482e+01 -1 1 5
1621 541 1 -8.1999999999999995e-01 -6.5443535541768068e+00 -1.2448242755442195e+01 -1.2412139324418941e+01 -1 1 5
1622 541 2 4.0999999999999998e-01 -6.2707764928074408e+00 -1.1491667622014488e+01 -1.2512789986248297e+01 -1 1 5
2178 726 2 4.0999999999999998e-01 -5.5112009805211422e+00 -1.2826566114011277e+01 -9.0946739691842282e+00 6 -2 4
80 27 2 4.0999999999999998e-01 -3.2120755860393135e+00 -1.1202140305048760e+01 -1.2820316266309366e+01 7 3 3
1158 386 2 4.0999999999999998e-01 -1.3630113234736854e+00 -6.7980328027028420e+00 -9.6635934169900821e+00 1 3 2
867 289 2 4.0999999999999998e-01 -6.5016086829702360e+00 -8.9812332234696441e+00 -1.3275816679360389e+01 -1 -1 -1
508 170 1 -8.1999999999999995e-01 -3.2973368834650234e+00 -1.0504867987916178e+01 -9.8861721412612518e+00 7 3 -3
1182 394 2 4.0999999999999998e-01 -7.2852942743106501e+00 -1.4640987816651359e+01 -9.6578001141453562e+00 2 1 5
1135 379 1 -8.1999999999999995e-01 -5.0863663165588875e+00 -6.0782899732714384e+00 -1.4839985049675780e+01 5 -4 -3
1137 379 2 4.0999999999999998e-01 -4.7895760259356273e+00 -6.9890062113319615e+00 -1.4552717934740608e+01 5 -4 -3
40 14 1 -8.1999999999999995e-01 -1.2282726298823157e+01 -6.7304678902400727e+00 -3.7252953357502783e+00 6 -5 2
42 14 2 4.0999999999999998e-01 -1.2779863427015634e+01 -7.5866664819947394e+00 -3.5846199987874190e+00 6 -5 2
1101 367 2 4.0999999999999998e-01 -9.2150586541779500e+00 -1.2703170038430011e+01 -5.7653534989626589e+00 1 4 3
1345 449 1 -8.1999999999999995e-01 -1.3464554516280987e+01 -9.4134305731780117e+00 -4.0097623740792745e+00 5 2 8
669 223 2 4.0999999999999998e-01 -1.4659031032622538e+01 -1.4486433438561260e+01 -1.7151673033476911e-01 -1 3 2
1346 449 2 4.0999999999999998e-01 -1.3826675650581285e+01 -1.0251386872118093e+01 -3.6014628875558312e+00 5 2 8
1347 449 2 4.0999999999999998e-01 -1.2931910964414319e+01 -9.6427930936691695e+00 -4.8244368438201768e+00 5 2 8
1452 484 2 4.0999999999999998e-01 -8.0832415155690587e+00 -5.7200449203542778e+00 -2.1979558253903786e+00 5 1 2
41 14 2 4.0999999999999998e-01 -1.2281167595191654e+01 -6.5020329768318010e+00 -4.6988588870863524e+00 6 -5 2
717 239 2 4.0999999999999998e-01 -1.0497583132295571e+01 -5.6513153898377908e+00 -3.6228925824245479e+00 8 3 2
1099 367 1 -8.1999999999999995e-01 -1.0046938589056509e+01 -1.2524858744415139e+01 -6.2908930231709483e+00 1 4 3
1100 367 2 4.0999999999999998e-01 -1.0732624078277443e+01 -1.3220223654388606e+01 -6.0756862404713274e+00 1 4 3
2584 862 1 -8.1999999999999995e-01 -7.9796525259407840e+00 -1.3492914599073503e+01 -4.6288734465635812e+00 4 2 0
2364 788 2 4.0999999999999998e-01 -9.3153688682961153e+00 -9.9200421803217349e+00 -5.4016575631261361e+00 -2 -4 1
2107 703 1 -8.1999999999999995e-01 -1.4297588134319620e+01 -6.2040988955310752e+00 -7.4412815643452213e-01 5 3 2
739 247 1 -8.1999999999999995e-01 -9.8413634749805645e+00 -9.2768831163430505e+00 -2.4920569923644926e+00 0 -1 -1
740 247 2 4.0999999999999998e-01 -9.6662137395498036e+00 -9.0947208308173018e+00 -3.4596056676198010e+00 0 -1 -1
741 247 2 4.0999999999999998e-01 -9.1478884250779853e+00 -8.8189600109774098e+00 -1.9358108897447774e+00 0 -1 -1
895 299 1 -8.1999999999999995e-01 -1.1983652961452494e+01 -6.6021244768128966e+00 -7.0149646606148242e+00 3 6 0
896 299 2 4.0999999999999998e-01 -1.2292068181604535e+01 -7.5520491192493040e+00 -6.9646241275998877e+00 3 6 0
2491 831 1 -8.1999999999999995e-01 -9.1102554466617303e+00 -6.5689359747909801e+00 -6.6725000478645704e+00 8 -2 6
2214 738 2 4.0999999999999998e-01 -1.3002111053444679e+01 -9.8170209337667558e+00 -3.3532853964367959e-01 -1 -2 -4
2128 710 1 -8.1999999999999995e-01 -1.4018012871648004e+01 -1.2105894805587569e+01 -2.8730259803339688e+00 -2 0 -1
1413 471 2 4.0999999999999998e-01 -1.2234089150333929e+01 -1.4604005566038088e+01 -3.7380356876279048e+00 6 -2 -2
2130 710 2 4.0999999999999998e-01 -1.4888198897069000e+01 -1.2253885916983574e+01 -2.4030410903312589e+00 -2 0 -1
715 239 1 -8.1999999999999995e-01 -9.6464780721116945e+00 -5.1460128190613936e+00 -3.4804130962629234e+00 8 3 2
2255 752 2 4.0999999999999998e-01 -8.4379736690244620e+00 -7.4624744246153201e+00 -5.0984150945090434e-01 1 9 -2
2129 710 2 4.0999999999999998e-01 -1.3434539398102212e+01 -1.2909402001485843e+01 -2.7549334905277796e+00 -2 0 -1
885 295 2 4.0999999999999998e-01 -1.3249942198258401e+01 -1.4849649140128925e+01 -5.9134686867303170e+00 3 -4 6
469 157 1 -8.1999999999999995e-01 -1.1238288962141352e+01 -6.9524551517767943e+00 -1.1278811150533947e+00 2 -3 -2
287 96 2 4.0999999999999998e-01 -1.2169246261049590e+01 -1.1577645850902456e+01 -1.8211519102567113e+00 7 -3 -1
1773 591 2 4.0999999999999998e-01 -9.0249502189347410e+00 -1.4263506285403684e+01 -1.5366910478031333e+00 4 7 2
733 245 1 -8.1999999999999995e-01 -1.2466786283537740e+01 -9.3625902433359904e+00 -6.7380315242886155e+00 4 3 0
2362 788 1 -8.1999999999999995e-01 -9.1629681158738485e+00 -9.0154013549125125e+00 -5.0036502056288885e+00 -2 -4 1
1772 591 2 4.0999999999999998e-01 -8.2753717293029219e+00 -1.2880159321458098e+01 -1.0994966755862414e+00 4 7 2
2363 788 2 4.0999999999999998e-01 -9.2198341126591750e+00 -8.3215365303984612e+00 -5.7215142164840547e+00 -2 -4 1
2492 831 2 4.0999999999999998e-01 -1.0021517305172193e+01 -6.2103656972192347e+00 -6.4699165855565894e+00 8 -2 6
2585 862 2 4.0999999999999998e-01 -8.2759067377846467e+00 -1.3486199017115402e+01 -3.6737821852037555e+00 4 2 0
1771 591 1 -8.1999999999999995e-01 -8.4623177163391645e+00 -1.3502472686967657e+01 -1.8596205027066190e+00 4 7 2
2254 752 1 -8.1999999999999995e-01 -8.4921526443322080e+00 -8.3982402017291982e+00 -1.6139073198401555e-01 1 9 -2
2488 830 1 -8.1999999999999995e-01 -1.0555750652841693e+01 -1.4840119275470613e+01 -3.0673114393704637e-01 4 0 1
288 96 2 4.0999999999999998e-01 -1.1164292548845696e+01 -1.0334694142901135e+01 -1.4867946737814179e+00 7 -3 -1
2493 831 2 4.0999999999999998e-01 -8.6805605334363278e+00 -6.0071055354184626e+00 -7.3794086281116993e+00 8 -2 6
286 96 1 -8.1999999999999995e-01 -1.1882987820119936e+01 -1.0925120023071258e+01 -1.1195273017867180e+00 7 -3 -1
2146 716 1 -8.1999999999999995e-01 -1.4624385082534417e+01 -1.4111835853795876e+01 -6.8045975345043974e+00 0 1 0
734 245 2 4.0999999999999998e-01 -1.3444122854507702e+01 -9.4784274826211821e+00 -6.9152484669698762e+00 4 3 0
1411 471 1 -8.1999999999999995e-01 -1.2328463431194534e+01 -1.4427377262597137e+01 -2.7582873006419035e+00 6 -2 -2
2490 830 2 4.0999999999999998e-01 -1.0930723874070551e+01 -1.4816655684662539e+01 -1.2334756981810937e+00 4 0 1
471 157 2 4.0999999999999998e-01 -1.0787542501808229e+01 -6.0707144966478825e+00 -9.8869781723271188e-01 2 -3 -2
1450 484 1 -8.1999999999999995e-01 -7.4919222471501250e+00 -5.9968104457524110e+00 -1.4404907669998188e+00 5 1 2
1337 446 2 4.0999999999999998e-01 -1.3383538695826271e+01 -5.5091405612128792e+00 -6.0870222476425724e+00 8 2 10
470 157 2 4.0999999999999998e-01 -1.1730284129355175e+01 -6.9415536994361258e+00 -1.9984170805848898e+00 2 -3 -2
2109 703 2 4.0999999999999998e-01 -1.3491827511203969e+01 -6.7916777770083883e+00 -6.6988700038670146e-01 5 3 2
2148 716 2 4.0999999999999998e-01 -1.4889739435085250e+01 -1.3402777648247312e+01 -6.1512718335173471e+00 0 1 0
2339 780 2 4.0999999999999998e-01 -8.1126190448617415e+00 -1.0520502990836359e+01 -5.6501144661634584e-02 3 9 2
1985 662 2 4.0999999999999998e-01 -6.1721864388026653e+00 -5.6175673649742404e+00 -4.3323069478752654e+00 6 0 -3
2448 816 2 4.0999999999999998e-01 -5.0415389087316242e+00 -1.0999284962174698e+01 -7.1553704464163337e+00 4 0 7
1601 534 2 4.0999999999999998e-01 -6.0665852622443719e+00 -7.0959649621488214e+00 -6.2515006092420933e-01 2 3 0
1600 534 1 -8.1999999999999995e-01 -5.2290672269727345e+00 -7.5121476922258017e+00 -2.7107884949202798e-01 2 3 0
420 140 2 4.0999999999999998e-01 -3.5231853056356961e+00 -8.9349642613084566e+00 -7.0536221051154344e+00 2 3 3
182 61 2 4.0999999999999998e-01 -3.7507054658578713e+00 -7.0129377573226925e+00 -9.8367920499951467e-01 -2 -2 3
792 264 2 4.0999999999999998e-01 -1.9528138159256283e+00 -5.9940594689204012e+00 -6.9163633664121651e+00 2 6 6
1787 596 2 4.0999999999999998e-01 -5.1894903015712348e+00 -1.4467412825329973e+01 -3.4452898226141713e+00 7 0 -5
401 134 2 4.0999999999999998e-01 -2.4196776034597285e+00 -7.6618759482886594e+00 -2.9571136769057773e+00 1 -2 0
183 61 2 4.0999999999999998e-01 -3.1397267123562358e+00 -5.7094905928184758e+00 -1.7546436290092373e+00 -2 -2 3
161 54 2 4.0999999999999998e-01 -7.0025802502368517e+00 -1.0648315728809180e+01 -1.4465182950402191e+00 -1 -2 5
697 233 1 -8.1999999999999995e-01 -2.8121719808946661e+00 -1.3928893221829011e+01 -4.4242826678733138e-03 2 0 -7
596 199 2 4.0999999999999998e-01 -1.2910589065973017e+00 -1.1018927291846158e+01 -4.1457863138346696e-01 -1 1 -4
1696 566 1 -8.1999999999999995e-01 -3.1116763798093494e-01 -5.7241934915035113e+00 -3.9069379316004920e+00 3 4 3
674 225 2 4.0999999999999998e-01 -3.7483622183097154e-01 -1.3444612900405154e+01 -2.2383153976744889e+00 4 2 -1
2586 862 2 4.0999999999999998e-01 -7.0145038108678204e+00 -1.3236292543165797e+01 -4.6802935165327657e+00 4 2 0
2384 795 2 4.0999999999999998e-01 -3.6359632362242618e+00 -1.0905111752639439e+01 -2.3985823996952433e+00 4 2 -2
1788 596 2 4.0999999999999998e-01 -4.6658607019930596e+00 -1.2928243604319331e+01 -3.2922348180010239e+00 7 0 -5
595 199 1 -8.1999999999999995e-01 -1.8888294175223788e+00 -1.0600164789303783e+01 -1.0981862204931083e+00 -1 1 -4
2286 762 2 4.0999999999999998e-01 -3.9944430926498828e+00 -5.3502412341650150e+00 -5.2654463113866150e+00 9 -1 5
1757 586 2 4.0999999999999998e-01 -6.0822302891169446e+00 -1.3560794330881626e+01 -1.4597728435037425e+00 1 3 2
2152 718 1 -8.1999999999999995e-01 -5.7079377531653996e-01 -1.4329511832936221e+01 -3.7528898664066475e+00 2 1 -4
1045 349 1 -8.1999999999999995e-01 -4.9219126557706758e+00 -9.7285673194841884e+00 -5.8465727213489895e+00 3 4 6
1698 566 2 4.0999999999999998e-01 -1.0743922913640311e+00 -6.3600378160735538e+00 -3.7920420250015834e+00 3 4 3
181 61 1 -8.1999999999999995e-01 -2.9238404220350578e+00 -6.6091622841499298e+00 -1.3751770176476796e+00 -2 -2 3
673 225 1 -8.1999999999999995e-01 -4.0082876735305639e-01 -1.3033209487225394e+01 -1.3272267245764553e+00 4 2 -1
2284 762 1 -8.1999999999999995e-01 -3.2549673689002869e+00 -5.8007979925362942e+00 -5.7656314423652635e+00 9 -1 5
402 134 2 4.0999999999999998e-01 -2.2145474556728164e+00 -8.7785060697996187e+00 -4.1308745034830032e+00 1 -2 0
1047 349 2 4.0999999999999998e-01 -5.3691887721003084e+00 -8.8927175840424972e+00 -5.5282800441295095e+00 3 4 6
400 134 1 -8.1999999999999995e-01 -2.1381541433688902e+00 -7.8072035607414128e+00 -3.9056047837731658e+00 1 -2 0
597 199 2 4.0999999999999998e-01 -1.4822191623593532e+00 -1.0705293642732212e+01 -2.0057251799285591e+00 -1 1 -4
1466 489 2 4.0999999999999998e-01 -1.5038944596681816e+00 -1.2060168330800959e+01 -6.5633338420198459e+00 1 2 2
2499 833 2 4.0999999999999998e-01 -1.9228111394509462e+00 -1.1099744075196272e+01 -4.6259654606209502e+00 -5 3 1
2497 833 1 -8.1999999999999995e-01 -1.3509507481015426e+00 -1.0492986873083453e+01 -4.0738492277874538e+00 -5 3 1
675 225 2 4.0999999999999998e-01 -1.3079324466251272e+00 -1.3165358671746549e+01 -9.2758882051868774e-01 4 2 -1
1756 586 1 -8.1999999999999995e-01 -5.3480865144999044e+00 -1.3044570430804603e+01 -1.0186870654350351e+00 1 3 2
1046 349 2 4.0999999999999998e-01 -4.4593376226019341e+00 -1.0172133871536897e+01 -5.0789243886860813e+00 3 4 6
2447 816 2 4.0999999999999998e-01 -4.4651394002638618e+00 -1.2523268199257778e+01 -7.2644317308734578e+00 4 0 7
2285 762 2 4.0999999999999998e-01 -2.7369926269175924e+00 -6.3845697368696523e+00 -5.1403925678802658e+00 9 -1 5
1758 586 2 4.0999999999999998e-01 -5.7434862391992922e+00 -1.2355679213168433e+01 -4.1115199601079233e-01 1 3 2
162 54 2 4.0999999999999998e-01 -6.7292860223864928e+00 -9.0447339469379795e+00 -1.3033702453069065e+00 -1 -2 5
160 54 1 -8.1999999999999995e-01 -6.4304728348823819e+00 -9.8870915819269776e+00 -1.7518735660208282e+00 -1 -2 5
1914 638 2 4.0999999999999998e-01 -4.7401860635634794e+00 -1.4229885369398946e+01 -5.4683768379693287e+00 5 -4 2
62 21 2 4.0999999999999998e-01 -6.5352085693561985e+00 -8.0442595145244233e+00 -3.5149370110664222e+00 0 -2 3
61 21 1 -8.1999999999999995e-01 -6.5085114939059938e+00 -7.5750010896852231e+00 -4.3976004421564614e+00 0 -2 3
63 21 2 4.0999999999999998e-01 -7.4320234122748223e+00 -7.5282993574568478e+00 -4.7783308253390349e+00 0 -2 3
1912 638 1 -8.1999999999999995e-01 -4.3451979876459568e+00 -1.4225023988992303e+01 -6.3870561750908053e+00 5 -4 2
1786 596 1 -8.1999999999999995e-01 -5.3281618570578981e+00 -1.3524011556378451e+01 -3.7465790398919072e+00 7 0 -5
1451 484 2 4.0999999999999998e-01 -7.4109343700516863e+00 -5.2431044388227761e+00 -7.8827978666524068e-01 5 1 2
699 233 2 4.0999999999999998e-01 -3.6216520880698795e+00 -1.3502461436498464e+01 -4.0804392191644290e-01 2 0 -7
2383 795 1 -8.1999999999999995e-01 -4.2926324846551580e+00 -1.0704354504314054e+01 -3.1255576016272340e+00 4 2 -2
94 32 1 -8.1999999999999995e-01 -2.1301729364992017e+00 -1.2785604814131920e+01 -5.3067179744201205e+00 -3 -4 -3
96 32 2 4.0999999999999998e-01 -1.5208011550910072e+00 -1.3303210308347314e+01 -4.7060836986782899e+00 -3 -4 -3
2385 795 2 4.0999999999999998e-01 -5.1344683631414902e+00 -1.0343664366777496e+01 -2.7240280918568871e+00 4 2 -2
95 32 2 4.0999999999999998e-01 -2.9249035274895956e+00 -1.3346488414025146e+01 -5.5387175761252756e+00 -3 -4 -3
1697 566 2 4.0999999999999998e-01 -3.8056722564304479e-01 -4.9938795945966952e+00 -3.2273525713245874e+00 3 4 3
2498 833 2 4.0999999999999998e-01 -4.7916647908932042e-01 -1.0341387476558793e+01 -4.5397040897846797e+00 -5 3 1
1649 550 2 4.0999999999999998e-01 -1.4709583380543467e+00 -6.6173279682822095e+00 -2.8446067428108890e-01 5 -1 2
939 313 2 4.0999999999999998e-01 -3.1210964685302258e+00 -1.0269554021783152e+01 -5.1754210223316832e-02 6 -2 4
791 264 2 4.0999999999999998e-01 -5.0622978490347315e-01 -6.6331212725271218e+00 -7.3233649088278607e+00 2 6 6
1467 489 2 4.0999999999999998e-01 -1.7858843659725192e+00 -1.0678515844386109e+01 -7.3868468296194889e+00 1 2 2
1465 489 1 -8.1999999999999995e-01 -1.4151692549543817e+00 -1.1605159705902558e+01 -7.4493958581039648e+00 1 2 2
2033 678 2 4.0999999999999998e-01 -1.2231271119294528e+01 -1.1373850689894969e+01 2.8982380072108676e+00 6 -5 3
1057 353 1 -8.1999999999999995e-01 -1.1096174074712922e+01 -1.0968909047579416e+01 1.5001074371104970e+00 3 -7 -2
1059 353 2 4.0999999999999998e-01 -1.1093236759269933e+01 -1.0021712932994941e+01 1.1794490581773189e+00 3 -7 -2
2032 678 1 -8.1999999999999995e-01 -1.2618120015017736e+01 -1.1508789836094028e+01 3.8104607463590305e+00 6 -5 3
2034 678 2 4.0999999999999998e-01 -1.1891821395497189e+01 -1.1774008113951670e+01 4.4446220446851896e+00 6 -5 3
1313 438 2 4.0999999999999998e-01 -8.8569808872922593e+00 -1.4667191780879790e+01 2.8882494563677454e+00 2 2 0
474 158 2 4.0999999999999998e-01 -1.1265170684679035e+01 -1.3057155337251029e+01 6.4149935817179369e+00 0 -3 0
32 11 2 4.0999999999999998e-01 -1.4044514209915524e+01 -1.2935866799319175e+01 6.3716082947499970e+00 2 2 -1
782 261 2 4.0999999999999998e-01 -1.0208529055094665e+01 -1.2609620662585055e+01 2.3301002579541787e+00 3 0 6
783 261 2 4.0999999999999998e-01 -8.8307977204726633e+00 -1.2523333905825565e+01 3.2024915405453456e+00 3 0 6
781 261 1 -8.1999999999999995e-01 -9.4384133591759038e+00 -1.3133511876992225e+01 2.6940655148903403e+00 3 0 6
1455 485 2 4.0999999999999998e-01 -9.5062685885664919e+00 -1.1791595724745866e+01 5.6057431750594553e+00 6 1 -3
1454 485 2 4.0999999999999998e-01 -1.0746407398962782e+01 -1.0758033379856080e+01 5.8516298733020946e+00 6 1 -3
49 17 1 -8.1999999999999995e-01 -1.0394961214940903e+01 -9.0651850374216512e+00 5.8412554461769126e+00 4 0 -4
1453 485 1 -8.1999999999999995e-01 -1.0501764002457957e+01 -1.1705512954438209e+01 5.6456128130867569e+00 6 1 -3
33 11 2 4.0999999999999998e-01 -1.3626167361705752e+01 -1.2507864774022739e+01 4.8522479613042400e+00 2 2 -1
754 252 1 -8.1999999999999995e-01 -1.3125790262073389e+01 -8.5902492874920533e+00 5.6952568398173682e+00 8 4 0
1369 457 1 -8.1999999999999995e-01 -7.6479700595152229e+00 -6.3254721850815017e+00 4.0838285220230617e+00 2 1 -2
756 252 2 4.0999999999999998e-01 -1.2183381872680677e+01 -8.7415148165109642e+00 5.9935790083536133e+00 8 4 0
945 315 2 4.0999999999999998e-01 -1.1068068076153352e+01 -7.7756019228622097e+00 2.4391669179706632e-01 1 0 5
51 17 2 4.0999999999999998e-01 -1.0167744085266779e+01 -8.7640682572651993e+00 4.9151280203545866e+00 4 0 -4
1058 353 2 4.0999999999999998e-01 -1.1487092694784254e+01 -1.1558791350883167e+01 7.9354362017748592e-01 3 -7 -2
943 315 1 -8.1999999999999995e-01 -1.0833705323346171e+01 -8.2076847602893288e+00 1.1147722805954885e+00 1 0 5
1519 507 1 -8.1999999999999995e-01 -1.2522569382322184e+01 -7.4000611534899070e+00 3.2514524556356932e+00 4 2 1
1520 507 2 4.0999999999999998e-01 -1.2725394881168130e+01 -7.7269525588486081e+00 4.1744988758022004e+00 4 2 1
750 250 2 4.0999999999999998e-01 -9.9208729317564863e+00 -8.3383427710795655e+00 2.4385325823409190e+00 1 5 2
749 250 2 4.0999999999999998e-01 -8.7399755963755119e+00 -7.6393944170693810e+00 3.3237491475116698e+00 1 5 2
748 250 1 -8.1999999999999995e-01 -9.2737815354157718e+00 -8.4741633946840338e+00 3.1887568349104853e+00 1 5 2
1521 507 2 4.0999999999999998e-01 -1.3317774610534013e+01 -7.5476598259251979e+00 2.6633417388387848e+00 4 2 1
944 315 2 4.0999999999999998e-01 -1.1403244747008991e+01 -7.8234748941414187e+00 1.8414211232106545e+00 1 0 5
2213 738 2 4.0999999999999998e-01 -1.3661852819224682e+01 -9.2936159411364017e+00 1.0637582003722610e+00 -1 -2 -4
1234 412 1 -8.1999999999999995e-01 -1.4651175572977914e+01 -9.7051497936615654e+00 3.0706428053450665e+00 6 3 2
1371 457 2 4.0999999999999998e-01 -7.7877713712301970e+00 -5.5342517642489728e+00 3.4884825828588220e+00 2 1 -2
2212 738 1 -8.1999999999999995e-01 -1.3579515497331473e+01 -9.1159359335956083e+00 8.3114877688547750e-02 -1 -2 -4
31 11 1 -8.1999999999999995e-01 -1.4257705824273550e+01 -1.3054767856168780e+01 5.4018542991057892e+00 2 2 -1
1355 452 2 4.0999999999999998e-01 -8.6703130370347594e+00 -1.0163342887735455e+01 3.4848928845416687e+00 0 5 4
1354 452 1 -8.1999999999999995e-01 -8.1175535365108260e+00 -1.0833435844217407e+01 3.9803152460635474e+00 0 5 4
2256 752 2 4.0999999999999998e-01 -9.3550433967674387e+00 -8.5220121364369046e+00 3.2862049466963761e-01 1 9 -2
67 23 1 -8.1999999999999995e-01 -1.4238907809985815e+01 -5.0284087929549095e+00 6.9723326321264203e+00 1 3 3
2489 830 2 4.0999999999999998e-01 -1.1288806920236890e+01 -1.4677263326788760e+01 3.5366068714612986e-01 4 0 1
1236 412 2 4.0999999999999998e-01 -1.4021339652394238e+01 -1.0283029573062114e+01 3.5896540043297875e+00 6 3 2
243 81 2 4.0999999999999998e-01 -1.2028876218138617e+01 -1.4705124890293426e+01 4.9809735401763788e+00 6 3 -1