2611
Atoms. Timestep: 23000000
O -4.85441 -13.9069 -11.5297
H -4.87532 14.8837 -11.3429
H -5.06849 -13.7463 -12.4932
O 3.47038 0.0395079 3.70712
H 3.78259 0.588635 4.48234
H 3.26877 -0.889765 4.01661
O 11.331 10.4894 -2.38044
H 10.4936 10.0748 -2.73653
H 11.7929 9.84078 -1.77549
O -5.76591 2.50792 4.99558
H -5.28871 2.94423 4.23276
H -6.28659 1.72366 4.65822
O -11.8382 3.97151 4.65541
H -12.4016 4.78884 4.53527
H -11.6864 3.53776 3.76726
O -9.82829 -2.48513 5.79913
H -9.74312 -1.52777 6.07514
H -10.4257 -2.96531 6.44143
O -4.6965 8.74122 6.98985
H -4.40761 9.69845 6.97467
H -4.51482 8.35252 7.89312
O 4.05441 5.19095 -5.91277
H 4.50605 6.02221 -5.58872
H 3.1285 5.41235 -6.21881
O 10.9655 -8.67601 -12.1818
H 10.5104 -8.25066 -11.3996
H 11.918 -8.37375 -12.2181
O -2.98339 12.7209 9.76056
H -2.32248 13.2621 9.24059
H -2.68606 12.6572 10.7132
O -11.3614 -9.9902 5.06822
H -11.4872 -10.7834 4.47241
H -11.2667 -9.16583 4.51017
O 12.5845 0.201908 3.31375
H 13.2804 -0.403666 3.69975
H 13.0228 0.87925 2.72286
O 8.27378 1.76235 12.2511
H 8.9592 2.40452 11.9078
H 8.60232 0.826112 12.1266
O -12.6304 -8.5717 -2.67677
H -12.7719 -7.79156 -3.28615
H -12.1244 -9.28542 -3.16103
O 2.44437 -3.5381 5.32211
H 2.21019 -3.5925 6.29277
H 3.43847 -3.56478 5.21707
O 10.0846 -1.18822 1.6759
H 9.9926 -1.56859 2.59614
H 9.17669 -1.04775 1.281
O -8.50571 -8.0967 6.20498
H -8.61917 -8.49766 5.29595
H -9.10337 -7.30001 6.29483
O 3.70395 -4.38717 -12.5563
H 3.33825 -5.31788 -12.553
H 3.40156 -3.91314 -13.3832
O -8.38713 7.74507 13.5987
H -7.41186 7.96206 13.5568
H -8.64447 7.21019 12.7939
O 12.6501 3.95271 -12.1011
H 13.1583 3.09148 -12.1036
H 11.9294 3.91644 -12.7933
O -6.56893 -8.3255 -4.31251
H -6.37909 -8.86224 -3.49041
H -7.14078 -7.54074 -4.07353
O -9.43716 4.58025 -4.32463
H -10.3185 5.03767 -4.2063
H -8.99373 4.92047 -5.15384
O -13.597 -5.58329 9.94284
H -14.5476 -5.6894 10.2345
H -13.5514 -5.59615 8.94397
O 4.85332 7.89398 9.03628
H 4.81638 8.47972 8.22663
H 5.34441 7.05123 8.81586
O 2.39405 2.27177 -9.2556
H 1.68898 1.76566 -9.7523
H 3.23698 2.2839 -9.79347
O 4.4424 -11.0984 14.5072
H 3.7965 -11.7318 -14.8395
H 4.00568 -10.6525 13.7258
O -3.95019 -9.69645 -12.6223
H -3.82377 -10.6249 -12.9715
H -3.74058 -9.67653 -11.6447
O -5.13716 13.0712 13.0941
H -4.55211 13.0307 13.904
H -4.78704 13.7647 12.4644
O 8.06308 -6.88285 2.32565
H 7.36373 -6.957 1.61474
H 8.78287 -6.25893 2.02133
O 3.33534 -6.47093 2.6055
H 3.97534 -5.70543 2.53927
H 3.61774 -7.0782 3.34811
O 1.39519 1.5788 8.00148
H 0.514238 1.42501 8.44898
H 1.88776 0.71162 7.92833
O -1.90223 -13.4927 -4.99574
H -2.54798 -12.9883 -5.56897
H -1.95324 -14.4672 -5.21427
O 3.37613 -10.5461 3.44009
H 2.73321 -10.4467 4.19953
H 3.80796 -11.4469 3.4847
O 10.1665 12.5056 -12.865
H 9.74741 13.326 -13.254
H 10.9179 12.7699 -12.2604
O 9.9972 2.47476 -0.933714
H 10.7569 2.1033 -1.46739
H 9.91248 3.45506 -1.11209
O 4.18561 12.2007 -1.20499
H 4.86594 12.9332 -1.22822
H 3.27584 12.5948 -1.07456
O -7.16361 12.0586 11.2208
H -8.0856 11.8844 11.5666
H -6.5592 12.2876 11.9838
O 14.325 -1.93321 2.37115
H 13.9731 -1.76759 1.44992
H 14.1999 -2.89677 2.60755
O 3.42817 5.05027 9.10802
H 3.92992 5.20794 8.25751
H 2.52688 4.67141 8.89798
O -0.698084 5.7011 10.9882
H -0.502909 5.59109 10.0137
H -0.279547 4.95004 11.4988
O 13.3539 -8.55929 -4.63415
H 13.446 -9.53254 -4.42368
H 12.4377 -8.2487 -4.38094
O 7.27614 -0.961138 6.31649
H 7.54889 -0.944396 5.35456
H 7.95511 -0.472052 6.86402
O 3.88831 13.6736 -9.49498
H 4.39596 14.0096 -8.70164
H 4.03094 12.6883 -9.58913
O 0.191472 3.65015 12.4757
H -0.203591 2.82037 12.0815
H 1.17461 3.67007 12.294
O 7.05684 13.3003 -10.28
H 6.24054 13.5677 -10.792
H 6.79772 13.0477 -9.34776
O -14.4685 -4.8783 -3.4376
H -14.1458 -4.82711 -4.38272
H -13.7278 -4.61879 -2.81799
O -4.31051 -4.75048 8.54181
H -4.54122 -5.70332 8.3447
H -3.81538 -4.36002 7.76569
O 1.4639 -2.04658 3.1163
H 1.40148 -2.90457 3.62614
H 2.24478 -2.08539 2.49284
O -6.86914 -2.92333 -14.3431
H -6.69349 -3.87199 -14.6061
H -6.71363 -2.32524 14.6435
O 3.1489 -9.95333 -12.5343
H 3.61485 -9.50378 -11.7722
H 3.00794 -10.9189 -12.3159
O -14.8312 4.58565 13.6881
H 14.2347 5.02342 14.2436
H -14.7344 5.07804 12.8232
O -2.31635 2.8577 4.32951
H -3.03355 3.02826 3.65385
H -2.59716 2.11091 4.93237
O 6.68756 -7.03535 -11.8942
H 7.00284 -6.1738 -12.2921
H 6.28428 -7.60527 -12.6101
O -5.58327 -9.07259 -1.64178
H -6.13496 -9.46447 -0.905549
H -5.1689 -8.21791 -1.32906
O 3.77488 -9.00479 9.59614
H 2.85647 -9.17776 9.95192
H 4.38145 -8.74971 10.3491
O -5.94705 8.36567 10.8559
H -4.9958 8.32404 10.5503
H -6.49131 8.86794 10.1839
O 3.26422 10.9131 -7.99755
H 3.23567 9.94163 -7.76226
H 4.05968 11.0927 -8.57634
O -4.34473 -14.8271 10.8437
H -3.77722 -14.1318 10.4027
H -4.20052 14.0639 10.3946
O -0.841014 -7.46021 11.8287
H -1.68992 -7.59475 12.3398
H -1.05614 -7.23978 10.8773
O -1.28054 4.10806 -8.98923
H -0.944227 4.34203 -9.90145
H -1.72176 3.21109 -9.01658
O -5.78048 -4.12198 -2.92337
H -6.29405 -4.79862 -2.39576
H -5.50782 -3.36918 -2.32426
O -7.31062 -1.14983 -10.9453
H -7.09375 -0.769038 -10.0464
H -8.17524 -1.64979 -10.8957
O 11.0234 3.75467 -14.2212
H 11.2832 2.87479 -14.6191
H 10.0349 3.7738 -14.0712
O -11.4322 0.333263 -7.12875
H -10.5312 0.508053 -7.52576
H -11.4416 -0.574924 -6.71031
O -9.89976 -9.06775 8.81453
H -9.21983 -8.89394 8.10216
H -9.62431 -9.8657 9.35062
O 3.35401 -14.0067 -11.0432
H 4.22004 -13.8038 -11.5001
H 3.43875 -14.8627 -10.5332
O 9.17012 12.8121 -0.346752
H 8.21331 13.0785 -0.230458
H 9.763 13.5393 -0.000864768
O 14.5226 8.56861 -13.8516
H 13.9814 9.40241 -13.7429
H 13.912 7.77776 -13.8922
O -13.6203 7.16062 0.583132
H -14.0951 6.89425 -0.255682
H -12.7052 7.49415 0.356607
O 4.49198 13.2005 -12.4238
H 3.56036 13.0639 -12.0871
H 4.83816 14.0806 -12.0988
O 4.72027 9.00908 -13.6089
H 4.29255 9.65741 -14.2387
H 4.01834 8.59457 -13.0297
O 7.66353 -5.69358 -14.5237
H 7.7189 -6.38458 14.5284
H 7.13489 -4.91091 -14.8523
O 4.36892 -3.70321 -3.17975
H 3.65544 -3.36335 -2.56704
H 4.61915 -2.98603 -3.83016
O 11.8069 13.7859 -11.3288
H 11.8292 14.7811 -11.2336
H 12.636 13.3942 -10.9298
O -2.07714 3.51317 -5.40835
H -1.59213 2.63878 -5.42243
H -1.65984 4.11486 -4.72732
O 14.0875 -1.1032 5.40285
H 14.4649 -1.87896 4.89711
H 14.8287 -0.609345 5.85746
O 7.9529 -7.52527 -3.10273
H 7.46544 -6.77975 -2.64824
H 7.60094 -8.40212 -2.77525
O 2.74709 -1.44459 -6.67998
H 1.82234 -1.82387 -6.71095
H 3.32292 -1.91517 -7.34853
O 13.0684 -10.3651 4.96892
H 13.8199 -10.9174 4.60806
H 13.4196 -9.73807 5.66424
O 13.4637 9.0651 -0.523169
H 14.3902 9.20963 -0.870639
H 13.3559 8.10954 -0.248854
O 14.2053 14.7693 5.12783
H 14.6944 -14.7217 5.95325
H 13.4187 -14.4029 4.98505
O -8.21589 -3.74124 -5.32377
H -8.73486 -4.41464 -4.79729
H -7.3479 -3.55525 -4.86335
O 10.9849 -7.03388 -6.88292
H 10.244 -6.48615 -7.27141
H 11.1231 -7.8517 -7.44155
O 12.0581 9.49846 -6.12247
H 11.6055 9.40158 -7.00892
H 12.6045 10.3359 -6.11696
O -4.37692 1.00529 10.2217
H -4.30264 2.00013 10.1527
H -3.98125 0.58412 9.40555
O 3.66461 8.45065 -10.7417
H 3.02102 8.39424 -9.97842
H 4.02548 7.53968 -10.9414
O 3.49777 -4.38089 -9.93143
H 4.22308 -4.89777 -9.47674
H 3.69531 -4.31951 -10.9098
O 7.09154 -10.7452 11.3619
H 7.18126 -10.7511 12.3579
H 7.99704 -10.8252 10.9452
O 2.50305 -0.582125 10.7799
H 2.30627 -1.27721 10.0884
H 2.94872 0.201584 10.3473
O 2.45068 14.1676 5.23272
H 3.26623 14.2436 4.65905
H 2.40429 -14.8211 5.85164
O -11.3484 -3.19789 -8.61124
H -10.9328 -2.74943 -9.40257
H -12.3388 -3.24918 -8.73919
O 11.0695 13.5954 -7.42339
H 10.6065 13.7419 -8.29757
H 10.4896 13.039 -6.82826
O 0.513187 -2.67991 12.1333
H 1.38042 -2.19551 12.2484
H -0.0305211 -2.59297 12.9681
O 13.866 1.54514 -12.5912
H 14.4302 1.08454 -11.9061
H 14.2441 1.37761 -13.5017
O 2.03227 -11.5762 -10.4897
H 1.07392 -11.3856 -10.7024
H 2.24304 -12.5255 -10.7231
O -13.9576 -7.11068 -0.635572
H -13.2547 -7.59561 -1.15585
H -14.7107 -6.86167 -1.24453
O -6.54329 -13.0158 -13.9266
H -6.76259 -12.3218 -14.6123
H -7.36077 -13.5554 -13.7251
O 14.1277 -6.86109 -7.88428
H 14.6554 -7.26288 -7.13594
H 13.5986 -7.57648 -8.34064
O -0.610079 -6.72669 -11.8377
H -0.727673 -6.9273 -10.8651
H -1.44395 -6.30545 -12.1943
O -0.655396 -13.3081 -14.6143
H -0.593925 -14.1612 -14.0964
H -0.537363 -13.5004 14.1843
O 0.768377 2.56069 4.42898
H 0.98654 3.5158 4.62936
H -0.214052 2.47037 4.26571
O -14.5613 1.87649 9.41441
H 14.6337 1.50231 8.68908
H -14.137 2.72494 9.09816
O 1.06155 9.65444 -3.74739
H 1.94866 10.1125 -3.69124
H 0.777105 9.36564 -2.83324
O 5.39503 1.87622 -4.1893
H 4.53769 2.33088 -3.94801
H 5.19643 0.984789 -4.5966
O 10.5439 1.73906 1.90443
H 10.1851 2.00769 1.01055
H 10.5715 0.741374 1.96643
O 5.90622 5.10787 -0.0913489
H 5.97882 4.88276 -1.06296
H 5.0214 4.79871 0.25721
O 12.5665 14.0735 0.183408
H 12.4387 13.0826 0.140825
H 12.3337 14.4005 1.09931
O -4.7228 -6.08645 -9.38023
H -4.74685 -6.45453 -10.3097
H -4.34321 -6.77265 -8.75973
O -5.84903 -6.30155 7.02202
H -6.594 -6.96328 7.10639
H -6.06934 -5.48234 7.55148
O -12.213 10.0792 -14.7044
H -12.665 9.18943 -14.6421
H -12.8131 10.7257 14.5974
O 14.769 5.51317 -12.9609
H 13.9439 5.06345 -12.619
H -14.2966 4.82707 -13.1313
O -4.40324 3.32107 2.74617
H -4.2262 3.10843 1.78522
H -4.39169 4.31256 2.87575
O -1.34118 9.58144 10.3208
H -1.64137 10.1107 11.1144
H -0.7775 10.1581 9.72942
O -8.99004 1.4659 5.15227
H -9.37265 1.532 4.23074
H -9.29643 2.24643 5.69715
O 4.68289 -0.616314 -11.126
H 5.44174 -0.541958 -11.773
H 3.92864 -1.11524 -11.5528
O -2.68602 -0.984207 -7.29548
H -3.17999 -1.80768 -7.57455
H -1.86318 -0.883508 -7.85473
O -5.79875 7.00468 -13.7281
H -6.67463 6.78121 -13.3005
H -5.71475 7.99718 -13.8169
O -5.26493 -2.73131 -7.81396
H -4.87713 -3.26719 -7.064
H -4.94022 -3.09577 -8.68672
O 12.417 3.97393 1.0686
H 12.2521 2.98939 1.0099
H 13.3998 4.15099 1.01503
O 14.6222 0.962843 -3.05745
H -14.58 1.52383 -2.45771
H -14.5669 0.42775 -3.66809
O -3.31895 -14.5253 -7.87678
H -3.56264 14.3403 -8.21961
H -2.6863 -14.6184 -7.10797
O -9.4999 7.02572 -8.5456
H -10.3598 7.4709 -8.79528
H -8.93151 6.9175 -9.3612
O -0.718885 -12.6741 9.52878
H -0.743141 -13.6301 9.23621
H -0.662419 -12.6322 10.5263
O -8.27152 -5.09713 7.91865
H -7.7845 -4.59909 8.63611
H -9.18371 -4.70468 7.80086
O 1.85376 7.22811 6.08326
H 2.40289 8.04372 5.901
H 1.06519 7.47612 6.64596
O -1.15535 -6.16091 2.7739
H -0.55919 -6.96354 2.75478
H -1.20481 -5.76058 1.85888
O 8.78262 5.67839 -11.9008
H 8.88322 6.66266 -12.046
H 8.70553 5.21721 -12.7847
O -3.17151 -1.3093 -14.1694
H -3.00188 -0.380096 -13.8411
H -4.06464 -1.6199 -13.8441
O -12.5742 9.91632 -7.06062
H -11.5901 9.78688 -7.18231
H -12.7698 10.0987 -6.09704
O 11.6584 -6.86134 4.0096
H 12.5709 -6.54065 4.26364
H 11.7323 -7.51265 3.2544
O 4.84961 2.20048 -10.3814
H 5.59702 2.18925 -9.71714
H 4.96037 1.43952 -11.0207
O -9.23672 10.429 1.02456
H -8.48515 10.8279 0.499132
H -9.0897 10.5998 1.99883
O 10.9141 14.4047 2.40956
H 10.2864 14.4202 3.18788
H 10.6106 -14.7071 1.72337
O -1.61021 -6.26374 -5.24086
H -1.30854 -6.1926 -6.1916
H -2.2325 -7.04073 -5.14587
O 11.6695 -9.24533 -8.61767
H 11.7044 -10.2316 -8.77878
H 10.9505 -8.84054 -9.18254
O 12.671 5.6732 3.58085
H 12.4561 6.42766 2.96069
H 12.2436 4.83377 3.24519
O -12.3388 0.579242 -9.70346
H -11.9562 1.39836 -10.1308
H -12.0095 0.509844 -8.7618
O -3.45339 -12.7818 1.96662
H -3.73281 -12.9635 1.02381
H -2.76788 -12.0538 1.97668
O 9.63279 -3.89607 6.8009
H 8.95922 -4.58738 7.06238
H 9.2349 -2.98511 6.90963
O -3.32359 -8.31786 -7.84856
H -2.37775 -8.58088 -7.65828
H -3.8356 -8.27137 -6.99085
O -0.329685 12.3725 -3.98322
H 0.425749 12.9538 -3.68093
H -0.0132722 11.4268 -4.05802
O -3.38617 -8.80048 2.54238
H -3.07333 -8.46242 1.65479
H -3.87616 -8.0728 3.02235
O 3.04274 -9.76239 -5.7816
H 2.95777 -8.76928 -5.70104
H 2.3421 -10.1073 -6.4062
O 10.176 11.1209 1.49444
H 9.57012 10.3532 1.70308
H 9.77847 11.6688 0.758394
O 0.821184 -3.9317 -10.4471
H 0.432003 -3.98602 -11.3667
H 1.78939 -4.17969 -10.4798
O -14.8491 -11.6076 -6.75964
H 14.1986 -11.5348 -6.07487
H -14.0435 -12.0335 -6.348
O -8.07734 6.38153 10.8829
H -7.14237 6.73529 10.9087
H -8.07739 5.46936 10.4731
O -9.09499 14.3265 -5.63525
H -8.98036 14.1981 -6.62032
H -8.24501 14.6792 -5.24395
O 12.6283 -12.9153 2.77768
H 12.4493 -13.8883 2.63177
H 12.3716 -12.6656 3.71136
O -0.803812 0.961177 12.0231
H 0.0722932 0.48073 12.063
H -1.5501 0.295972 12.0462
O -14.5208 4.30843 1.66735
H -13.7091 4.8535 1.45754
H 14.795 4.68728 2.47207
O 13.1053 2.72613 -9.02021
H 12.4504 3.44462 -8.78616
H 12.8388 1.87309 -8.5716
O 4.52411 -11.7188 -4.73457
H 3.98224 -11.0352 -5.22353
H 5.49382 -11.4829 -4.79777
O -4.27244 -10.2862 11.8279
H -3.98558 -10.4407 10.8825
H -4.09114 -11.107 12.3696
O 14.3895 -9.8638 10.8134
H 13.5954 -9.57788 11.3498
H 14.0981 -10.0994 9.8863
O 2.11464 -6.67589 5.10107
H 2.02856 -5.82904 4.57626
H 2.95425 -6.64796 5.64352
O -13.2436 -4.22838 0.313744
H -13.8974 -3.7399 -0.264137
H -13.5906 -5.14604 0.507371
O -10.7833 -14.491 5.7609
H -11.59 -14.3047 6.32185
H -10.1087 -13.7653 5.89588
O -10.1494 -1.94785 2.93548
H -9.90147 -1.05784 2.55283
H -9.44222 -2.24308 3.57795
O -9.73707 -3.71622 -13.4878
H -10.0641 -4.37753 -14.1629
H -8.87822 -3.31363 -13.8044
O -9.15635 0.789438 13.9394
H -8.72098 0.513666 14.7963
H -8.81206 0.220601 13.1925
O 9.32092 14.0973 4.6306
H 8.7947 14.7018 5.22869
H 9.5722 13.2691 5.13146
O -5.55761 4.69311 -9.22568
H -5.0853 3.97906 -8.70893
H -5.80261 5.44276 -8.61088
O 11.456 11.7186 4.02263
H 11.027 11.7278 3.11937
H 12.3727 12.1131 3.96025
O 7.11981 -0.42243 3.69044
H 7.68893 0.390222 3.56521
H 6.2295 -0.275482 3.25946
O 10.0903 -11.2541 4.74562
H 9.64629 -11.0273 3.87878
H 10.8728 -10.6481 4.88795
O -5.24122 6.25833 -2.31878
H -4.34891 5.94242 -1.99633
H -5.75666 5.48364 -2.68505
O 7.79229 -14.6735 6.62178
H 7.5737 -13.8784 7.18748
H 6.96726 14.5512 6.4841
O -4.65417 -0.412145 -9.51876
H -5.08619 -1.07641 -8.90877
H -3.82527 -0.810294 -9.91167
O -3.18817 -9.93933 -9.95543
H -3.40968 -9.27561 -9.24101
H -3.58675 -10.8262 -9.72166
O 4.834 11.0768 -10.4155
H 5.13616 11.5029 -11.2682
H 4.57482 10.1271 -10.5911
O 5.67805 2.03889 0.22733
H 6.04423 2.2148 -0.686426
H 5.32307 2.89017 0.613717
O -1.55863 11.4781 -7.91279
H -1.88978 10.5783 -7.62871
H -0.612806 11.4009 -8.22812
O -12.9513 -3.92063 14.3339
H -12.4459 -3.10398 14.6124
H -12.6522 -4.20296 13.4224
O -10.6394 -6.58584 -14.635
H -11.3813 -6.53369 -13.9665
H -9.96855 -7.26452 -14.3361
O -2.63843 -0.839471 11.5957
H -2.68677 -1.82088 11.7814
H -3.49995 -0.534178 11.1901
O -13.3742 -1.61348 -2.16353
H -13.2398 -0.76158 -1.65739
H -13.3101 -1.43184 -3.1448
O 12.5713 -11.4481 -5.60236
H 11.7844 -11.1351 -5.07064
H 12.3178 -12.2618 -6.12547
O -0.59755 1.19605 -5.48593
H 0.208694 1.57557 -5.93971
H -0.364823 0.314504 -5.07521
O 14.474 -12.4159 -2.67723
H 13.5181 -12.7094 -2.67459
H -14.7042 -13.2162 -2.59962
O -8.2347 7.9808 -4.71726
H -9.19458 8.16525 -4.50612
H -8.15538 7.08343 -5.15134
O -1.10806 -10.4648 11.8051
H -1.93995 -10.8092 12.2403
H -0.925203 -9.53502 12.1244
O -3.24539 -7.94043 13.0588
H -2.82916 -8.17682 13.9368
H -3.75241 -8.72755 12.7076
O 9.76671 9.73088 11.1931
H 9.54414 8.95996 10.5963
H 9.53471 10.5873 10.7318
O -12.0736 -0.0199672 9.13777
H -12.1377 0.826748 9.66593
H -11.2238 -0.0204927 8.61063
O -5.30325 9.68499 2.37951
H -5.07709 9.99231 1.45518
H -5.79201 8.81393 2.3309
O -8.02731 3.45316 10.1587
H -7.56958 3.49503 9.27065
H -7.38533 3.11982 10.8492
O 8.42066 11.7966 -2.99404
H 7.7917 12.556 -3.16057
H 9.11233 12.0766 -2.32831
O -13.4995 1.09764 12.0629
H -13.3806 0.116101 12.2127
H -14.2775 1.24998 11.4535
O 2.94417 4.76627 11.8347
H 2.62384 5.68274 12.0744
H 3.16836 4.73569 10.8607
O -7.87592 5.63841 -6.26143
H -8.48371 5.92532 -7.00187
H -6.93256 5.87504 -6.49395
O 1.18583 9.16195 3.23516
H 1.49183 9.58089 4.09006
H 1.85717 8.48315 2.93763
O -1.99897 2.80707 7.91803
H -1.81497 3.54895 7.27326
H -2.92631 2.90229 8.27991
O -12.8168 10.3605 -4.13335
H -13.3642 10.5201 -3.31187
H -12.1728 11.1155 -4.25666
O -6.30411 3.86847 -3.35011
H -7.18675 3.7098 -3.79254
H -5.70414 3.08516 -3.51275
O 5.74776 13.0729 6.56954
H 5.12955 12.8533 5.81485
H 5.21862 13.1941 7.40936
O 8.61076 10.8926 -11.0887
H 9.27109 11.3915 -11.65
H 7.78262 11.4426 -10.9804
O 4.16005 -13.0271 8.07448
H 4.64893 -12.2703 8.50828
H 3.20435 -12.7691 7.93295
O 0.0573164 -7.20742 -0.537204
H 0.928613 -7.51735 -0.156727
H 0.124399 -7.16726 -1.53413
O -13.5717 -12.7982 0.519346
H -13.4254 -13.6105 1.08392
H -14.3144 -12.9713 -0.127476
O -5.34362 6.3612 -7.15578
H -5.13703 7.33703 -7.08469
H -4.49003 5.84133 -7.18884
O 12.8648 9.59442 11.031
H 13.2664 9.16117 11.8379
H 11.8797 9.4232 11.0163
O 1.44756 13.7438 9.72212
H 1.59233 14.1369 10.6301
H 2.20778 13.9975 9.12403
O 13.2316 2.49838 11.1817
H 13.9502 2.24498 10.5341
H 13.5391 3.27275 11.7346
O -4.61431 2.10364 -7.82395
H -4.43639 1.9861 -6.84696
H -4.96214 1.24694 -8.20483
O 14.3433 12.2937 -11.0458
H -14.5702 12.7629 -11.2496
H 14.4001 11.8725 -10.1406
O 11.1723 -8.45709 8.40646
H 10.805 -8.3428 7.48342
H 11.8223 -7.72223 8.59987
O 5.79565 4.02308 3.86457
H 6.45862 4.01826 4.61319
H 4.89398 3.77147 4.21623
O 1.54547 6.43736 1.31582
H 1.74288 5.60906 0.791478
H 0.605903 6.40037 1.65617
O 4.49764 -10.6368 -9.53161
H 3.71338 -11.1396 -9.89517
H 4.21277 -9.71218 -9.27894
O -8.62588 3.41358 13.8474
H -8.80794 2.47414 14.1377
H -9.4582 3.95943 13.9437
O -2.4973 1.23799 -13.0947
H -2.40755 1.69701 -12.2108
H -1.87722 1.66185 -13.7549
O 13.4453 -6.32974 9.18815
H 13.19 -5.84498 10.0247
H 13.4396 -5.69164 8.41824
O 5.45595 -8.28744 11.5406
H 6.13386 -8.97793 11.7929
H 4.93789 -8.01689 12.352
O -8.42215 -13.7299 9.23944
H -8.49081 -14.7137 9.07356
H -8.70898 -13.233 8.42043
O -6.79796 -4.7123 12.0763
H -6.19567 -5.36893 11.6224
H -7.73522 -5.06088 12.0713
O -11.1506 10.4538 -11.864
H -10.1971 10.2227 -12.057
H -11.7159 10.2256 -12.6568
O -12.5726 7.15541 14.8194
H -13.4113 6.89155 -14.477
H -12.7189 7.10028 13.8317
O 13.9374 -2.15036 -12.1902
H 14.4077 -1.63636 -11.4729
H 12.9962 -2.33361 -11.9065
O 6.56068 -13.7202 0.757467
H 7.12551 -14.4763 1.08817
H 6.17288 -13.2282 1.53687
O -1.59983 0.725334 6.04348
H -1.68279 1.29777 6.85922
H -0.728151 0.235847 6.06702
O 4.57254 0.167558 6.30439
H 3.86922 -0.453445 6.65034
H 5.45707 -0.0758205 6.70233
O -13.7368 -14.5275 2.86456
H -14.6286 14.8515 3.08717
H -13.0568 -14.8485 3.5237
O -1.59073 4.71577 6.15124
H -1.68838 4.05461 5.40739
H -1.69238 5.64233 5.7891
O 0.133452 -13.3249 -2.74457
H -0.28363 -13.2339 -3.64887
H -0.584382 -13.4029 -2.05276
O 9.6412 14.2285 -9.68944
H 10.0156 13.9192 -10.5636
H 8.66125 14.0317 -9.65821
O -7.48193 8.35083 6.12529
H -6.54316 8.42074 6.46263
H -8.00114 7.72857 6.71112
O -0.744358 -2.58338 9.63057
H -1.66518 -2.65949 10.013
H -0.070633 -2.66423 10.3651
O -6.29851 4.04991 12.506
H -7.23848 3.99273 12.8424
H -5.74097 4.56127 13.1599
O -14.0073 10.8411 -1.66786
H -13.2203 10.5359 -1.13176
H -14.252 11.7729 -1.39983
O -12.4057 12.4965 3.74647
H -11.8644 13.3028 3.98458
H -12.5666 12.4826 2.75961
O 3.14696 8.19969 -7.87773
H 4.10867 8.08658 -8.12736
H 2.77647 7.3225 -7.57237
O -2.02583 -13.1222 -1.0562
H -1.75744 -12.4109 -0.406514
H -2.80304 -13.633 -0.688878
O -7.2089 -0.193454 -4.90027
H -7.55429 -0.862439 -4.24212
H -7.71169 0.664884 -4.79808
O -0.415872 6.08799 -14.5552
H -0.547217 5.13288 -14.8208
H -1.16835 6.37576 -13.9628
O -7.94878 13.3807 8.986
H -7.71945 12.8812 9.82144
H -7.10776 13.6754 8.53234
O -9.66503 12.1654 12.038
H -9.78138 11.5074 12.782
H -10.487 12.7296 11.9605
O 13.5599 11.2539 -13.3392
H 12.6346 11.6309 -13.3799
H 13.9932 11.5262 -12.48
O -10.7515 -7.75629 -0.295485
H -11.3932 -8.41712 0.0937289
H -10.7669 -7.8245 -1.29303
O 7.93639 -3.69297 -0.27642
H 7.83595 -2.6981 -0.265567
H 8.6919 -3.95825 0.322582
O -13.0028 3.45867 -4.7382
H -13.1383 3.01251 -5.62282
H -12.4264 2.88225 -4.15902
O 11.4279 4.95509 -8.0856
H 10.6695 5.33275 -7.55428
H 11.731 5.62906 -8.75927
O 9.87193 8.10384 0.99838
H 9.2478 8.54982 1.63989
H 9.86549 7.11681 1.15874
O -7.50224 -5.75124 -9.70934
H -6.52809 -5.5631 -9.5844
H -8.02573 -5.28647 -8.99524
O -10.8045 -9.70145 -8.01209
H -11.4566 -9.64392 -8.76797
H -10.202 -8.90349 -8.03017
O -2.69384 5.54107 -7.01802
H -2.12436 5.4205 -7.83112
H -2.47936 4.82669 -6.35195
O -10.3944 -11.2327 -1.26229
H -9.5239 -11.6085 -0.944474
H -10.9607 -10.9911 -0.474296
O -6.3221 11.8922 6.55299
H -6.70309 11.4108 5.76363
H -6.68268 11.49 7.39455
O -9.55054 10.0462 9.00247
H -9.71247 10.8702 8.45951
H -10.2686 9.95523 9.69245
O -7.57843 -5.88596 2.11317
H -7.65755 -5.5262 3.04285
H -8.45189 -5.7778 1.63846
O 13.5715 -5.91896 -10.4609
H 12.7247 -5.38716 -10.4634
H 14.0586 -5.76579 -9.60107
O -12.714 -8.43169 7.2689
H -12.8008 -8.61778 8.24759
H -11.8457 -8.79888 6.93547
O 6.99833 9.92343 -1.39337
H 7.4114 9.95322 -0.48317
H 7.53478 10.4871 -2.02146
O -5.90242 12.2081 -5.13416
H -5.90366 11.3894 -4.55994
H -5.78286 11.9438 -6.09116
O -1.87754 12.1571 5.57482
H -2.37656 11.837 6.38012
H -2.52823 12.435 4.86816
O 2.41151 13.3915 14.4312
H 2.33293 13.0994 -14.3885
H 1.81201 12.8307 13.8602
O -3.32846 -3.68831 6.21421
H -2.42184 -3.94196 5.87703
H -4.01862 -3.93845 5.53518
O 5.39157 0.0595221 9.54071
H 5.83983 0.754463 10.1029
H 4.50173 0.399788 9.23676
O 9.21761 -7.37682 -10.2381
H 8.4834 -7.43886 -10.9141
H 8.8235 -7.23418 -9.33016
O -6.08993 11.965 -7.9937
H -6.64043 11.3492 -8.55732
H -6.5526 12.8481 -7.9153
O -8.93323 -11.9296 3.9346
H -8.85426 -10.9464 3.76961
H -8.08255 -12.2697 4.33542
O 5.86481 11.8641 -5.13141
H 6.35262 12.6459 -4.74312
H 4.89863 12.0963 -5.24348
O 12.2476 -3.7816 14.5479
H 11.5394 -4.44383 14.7926
H 13.095 -4.00693 -14.7442
O 0.0382662 -5.92435 -8.36255
H -0.817826 -5.40865 -8.32876
H 0.308704 -6.05925 -9.31578
O 13.6622 -3.89656 -7.81753
H 13.6709 -4.86383 -7.56398
H 12.8644 -3.45233 -7.40977
O 5.22336 8.93174 -3.37293
H 4.463 9.51218 -3.66435
H 5.74894 9.40197 -2.66396
O -12.7786 6.56874 4.91355
H -12.3392 7.13357 5.61202
H -13.4845 7.10291 4.44851
O 10.7609 -7.79659 -4.35796
H 9.80587 -7.58334 -4.15181
H 10.939 -7.62502 -5.32688
O -7.24922 8.12428 -2.15052
H -6.49649 7.4763 -2.03435
H -7.46642 8.21206 -3.12268
O -0.173772 -10.6359 -13.6555
H 0.18975 -11.4234 -14.1531
H -0.511782 -10.9329 -12.7625
O 2.59852 -9.85488 13.119
H 2.19052 -10.5991 12.5902
H 2.21704 -8.98194 12.815
O -0.873261 3.06152 -14.8162
H -0.743815 3.07141 13.9651
H -1.80551 3.35076 -14.5989
O -2.18861 1.55264 -9.66311
H -2.10841 0.655146 -10.0968
H -2.9163 1.5278 -8.97767
O 14.5072 -5.72433 14.1186
H 14.7392 -6.64903 13.8167
H -14.4267 -5.22154 14.327
O 0.571787 8.89772 -6.84997
H 0.410644 9.4526 -6.0338
H 1.53548 8.95908 -7.1098
O 4.2573 5.24737 -14.169
H 3.64541 5.78992 -14.7445
H 3.77163 4.96152 -13.343
O 6.07888 2.40462 10.9717
H 5.4456 2.82027 11.6245
H 6.95039 2.21823 11.4252
O 6.09919 -7.30639 0.222948
H 6.03279 -8.25821 0.522323
H 5.74993 -7.22547 -0.710567
O 7.69054 -14.4415 10.4205
H 6.76666 -14.8216 10.4648
H 7.85468 -14.07 9.50672
O 7.95841 3.74186 2.16229
H 7.21583 3.82654 2.82666
H 7.65206 3.18684 1.38893
O 8.89091 7.79893 14.0842
H 8.10863 7.58912 14.6707
H 9.53859 8.37299 14.5851
O 6.6707 12.7192 -7.70798
H 6.20723 12.6144 -6.82809
H 7.51026 12.1759 -7.70923
O 9.83311 10.4111 -8.7439
H 10.039 9.43376 -8.79204
H 9.54741 10.7364 -9.64533
O 13.8903 7.20182 -6.246
H 14.3597 7.61813 -7.02464
H 13.1584 7.80815 -5.93502
O 5.10291 -11.5372 5.63277
H 5.05394 -12.0645 6.481
H 5.93926 -10.989 5.62889
O 13.0659 13.8811 12.125
H 13.4275 13.0928 11.6272
H 13.3203 13.8114 13.0896
O 11.7873 -5.13961 -1.22397
H 12.0101 -5.97225 -1.73096
H 12.6262 -4.62828 -1.0376
O 9.60162 -14.5828 -3.31493
H 10.2591 14.4913 -3.59703
H 9.19556 -14.1606 -4.1254
O -4.8487 -7.17047 -11.8558
H -4.55378 -7.87386 -12.5026
H -5.79895 -6.92216 -12.0439
O 5.13834 -14.4204 -7.63453
H 5.93715 -14.8361 -7.19974
H 5.40189 -14.0388 -8.5205
O 10.5134 -0.149292 5.00172
H 9.87177 0.590222 4.79833
H 11.2882 -0.101112 4.37133
O -4.68131 -3.33485 12.8312
H -5.52875 -3.84538 12.6856
H -4.88314 -2.48644 13.3205
O -13.1151 7.01779 12.2522
H -12.29 7.06294 11.6891
H -13.863 6.62525 11.7169
O 6.71748 5.90691 8.48444
H 6.95221 4.95241 8.66832
H 6.2705 5.97435 7.59245
O -11.3354 -13.8887 -4.55718
H -12.0466 -13.9464 -5.25782
H -10.4401 -14.0339 -4.97828
O -3.77079 12.637 -8.97483
H -4.63468 12.5023 -8.4895
H -3.01609 12.3007 -8.41153
O -11.5951 -5.11481 4.01891
H -11.8702 -4.15343 4.01301
H -11.4672 -5.41912 4.96285
O -14.5266 7.64444 -11.2159
H -14.7325 8.14898 -12.0544
H -14.8102 6.69142 -11.3223
O -11.998 -6.42045 -6.40634
H -12.8133 -6.97008 -6.22432
H -11.2319 -7.02381 -6.62782
O 7.36603 -0.944394 -2.55444
H 7.85577 -1.7609 -2.86015
H 6.51158 -0.856945 -3.06655
O -9.05563 -14.2328 14.5322
H -8.33986 -14.268 13.8347
H -9.44413 14.6271 14.6575
O -13.3175 3.43039 -12.5605
H -12.5062 3.62369 -12.0088
H -13.1714 2.59215 -13.0859
O 9.17317 5.80647 -6.85727
H 8.41987 5.20493 -6.59143
H 9.16745 6.62289 -6.27985
O -14.0057 -2.89553 -9.33213
H -14.3423 -2.02358 -9.68762
H -14.7805 -3.49398 -9.12868
O -12.9829 -8.88782 9.95025
H -12.7603 -7.9849 10.3179
H -13.9453 -9.0923 10.1286
O 0.443 11.4174 8.97936
H 0.298359 11.5046 7.99373
H 0.725859 12.3004 9.35408
O 2.46275 -0.943719 7.53193
H 2.12749 -1.75912 8.00385
H 1.88861 -0.760763 6.73388
O 7.75142 -7.68139 4.80064
H 6.78116 -7.91122 4.72479
H 8.0603 -7.25465 3.95066
O 0.549507 11.7478 12.5026
H 1.25967 11.4281 11.8753
H -0.267415 11.1806 12.3981
O -6.73145 -8.10937 14.5315
H -6.6707 -8.02035 -14.2471
H -6.45155 -9.03067 14.2617
O -7.94151 4.28069 3.90072
H -8.48239 4.81383 4.55125
H -7.25213 3.75142 4.3953
O -5.1414 -4.02067 3.68929
H -6.0009 -3.5356 3.52822
H -4.44082 -3.67342 3.06593
O -2.54268 -8.37531 -0.0217599
H -3.13336 -7.82726 -0.61397
H -1.59085 -8.09726 -0.150996
O -1.50901 -6.82031 9.24286
H -2.47425 -6.87291 8.98688
H -0.94847 -6.75325 8.41746
O -10.3261 -5.30984 1.16973
H -11.0132 -5.25117 1.89389
H -10.6293 -5.96153 0.474526
O -12.6234 -0.691625 -4.63679
H -11.7755 -1.21967 -4.68525
H -13.1411 -0.813921 -5.48355
O 5.38868 -9.83511 1.04417
H 4.52268 -9.81999 1.54397
H 5.39015 -10.6025 0.403051
O 13.1826 12.4294 -6.38574
H 13.5521 13.0706 -5.71327
H 12.5258 12.9032 -6.97228
O 0.934398 -3.33813 7.69154
H 0.487607 -2.751 8.36655
H 0.343435 -4.11788 7.48484
O -1.33807 7.6733 13.1089
H -1.10784 6.98616 12.4198
H -1.06667 7.34281 14.0128
O 11.52 1.18236 14.4926
H 11.474 0.245358 14.8388
H 12.0409 1.19713 13.6391
O 13.4767 -2.0183 7.90021
H 12.8011 -1.33493 8.177
H 13.8013 -1.81136 6.97727
O 6.41143 -3.86174 -11.7049
H 7.09946 -3.46627 -12.3133
H 5.54914 -3.9666 -12.2003
O -6.06531 -7.1122 -6.65057
H -5.77185 -7.76561 -5.95278
H -6.25983 -7.59892 -7.50219
O 6.91493 14.4645 -4.8581
H 7.65322 -14.6343 -4.88365
H 6.24595 14.7291 -4.16352
O -9.59269 1.04321 2.63635
H -10.4473 1.51916 2.42871
H -8.91494 1.2523 1.93142
O -11.1057 1.91163 -3.69727
H -10.204 1.61535 -4.01214
H -11.623 1.11907 -3.37446
O 2.96997 2.98987 -4.8135
H 2.61113 2.26132 -5.39696
H 3.47695 3.64564 -5.37289
O 14.7367 -2.9529 10.3604
H 14.0567 -3.43816 10.9101
H 14.2926 -2.55037 9.55998
O 6.41433 7.81244 0.738161
H 7.40074 7.97081 0.781833
H 6.24038 6.86997 0.452724
O -10.9359 -1.6238 12.6415
H -10.9102 -1.26578 13.5749
H -11.827 -1.42575 12.2331
O 7.48201 13.9303 1.91489
H 6.90704 13.1466 2.14996
H 7.9692 14.2428 2.73035
O -9.66704 10.3014 13.9173
H -9.16323 9.45441 14.0868
H -10.5419 10.2714 14.4008
O 12.6229 0.0237896 -8.23169
H 12.0652 -0.774628 -8.45862
H 12.6578 0.134571 -7.23847
O 9.68707 -10.1853 13.5356
H 9.87958 -10.7317 12.7205
H 10.5021 -10.151 14.114
O -14.7254 -11.6375 3.65709
H 14.3404 -12.1515 3.17148
H -13.9099 -12.2072 3.75908
O -7.61879 10.5021 3.8868
H -6.84613 10.1131 3.38518
H -7.87274 9.88947 4.63523
O 2.71301 -13.4078 -1.42504
H 3.17785 -14.0823 -1.99852
H 1.77639 -13.2813 -1.75175
O 3.61416 7.76933 -0.991705
H 3.72104 7.99469 -1.96009
H 4.33283 7.13062 -0.716836
O -13.9897 -7.9818 -5.73443
H -14.7301 -8.2459 -5.11632
H -13.37 -8.75611 -5.86213
O -2.30498 13.0724 -2.12958
H -1.57392 13.0055 -2.8086
H -1.93901 13.4583 -1.28272
O 6.83007 7.54769 -13.9132
H 6.15071 8.25394 -13.7141
H 6.48175 6.65772 -13.6189
O 9.39844 -13.1994 -8.07963
H 9.19688 -12.5082 -8.77359
H 9.69481 -14.0436 -8.52626
O -14.2448 -8.55979 13.3377
H -14.7535 -8.82735 12.5193
H -13.3039 -8.3331 13.0861
O 1.92999 0.266865 13.3864
H 2.37394 0.275722 12.4904
H 2.05654 1.15417 13.8299
O -13.9717 -8.88534 -13.7371
H -13.3824 -8.22376 -13.2733
H -14.1419 -8.58067 -14.6742
O 0.550024 -0.708308 -14.2111
H -0.138433 -1.35162 -14.546
H 0.98262 -0.249219 14.7858
O -9.48035 -14.1365 -2.14692
H -8.8943 -13.3466 -2.32735
H -10.0301 -14.3359 -2.95808
O -3.84494 -8.74269 -5.11983
H -3.09323 -9.01858 -4.52083
H -4.67143 -8.6027 -4.57458
O -11.7975 9.44396 10.4528
H -12.7725 9.23932 10.5389
H -11.6625 10.4347 10.4647
O 11.4307 -11.8132 -9.14609
H 11.5592 -12.4036 -9.94289
H 10.9779 -12.3289 -8.41873
O 4.81992 14.6257 3.47026
H 5.17604 13.7113 3.27772
H 5.57961 -14.5297 3.67431
O -11.5948 -7.62669 2.87829
H -11.5747 -6.82758 3.47912
H -12.5358 -7.95333 2.78954
O 5.38256 5.98072 -10.6284
H 6.16568 5.97944 -10.0066
H 4.56662 5.6754 -10.1375
O 4.92983 -1.16905 -4.60108
H 4.06319 -1.17849 -5.09991
H 5.64309 -1.58637 -5.16419
O 5.40085 -4.99228 1.44387
H 6.09754 -4.34999 1.76335
H 5.84449 -5.80993 1.07697
O 5.95349 11.9997 3.38333
H 6.33945 11.3413 4.02947
H 5.79486 11.5502 2.50424
O -7.47379 -1.15105 -7.71913
H -7.65365 -0.911693 -6.76501
H -6.79899 -1.8881 -7.75636
O -3.21426 4.4466 -11.5883
H -3.47675 5.37007 -11.3085
H -3.86182 3.78635 -11.2079
O 12.3263 5.02062 -4.90146
H 12.0845 5.9807 -4.761
H 12.598 4.8812 -5.8537
O -9.58627 6.2745 4.96267
H -10.4947 6.10642 4.57991
H -9.62893 7.04792 5.59511
O 3.34791 3.72515 4.71261
H 2.50619 3.20533 4.56674
H 3.53243 3.79243 5.69312
O 9.04044 -4.47997 4.25519
H 9.5107 -5.28478 3.8931
H 9.44826 -4.22153 5.1309
O -5.53722 -14.488 2.96624
H -4.65366 -14.1452 2.6472
H -5.41689 14.8175 3.8421
O 12.2041 8.00267 2.41161
H 11.5272 8.11118 1.68356
H 11.8874 8.47486 3.23423