2611
Atoms. Timestep: 8000000
O -12.5828 -3.16666 -8.47824
H -13.5728 -3.18575 -8.33812
H -12.1876 -4.03653 -8.18303
O -2.21177 -0.232794 13.7519
H -1.39173 -0.624674 13.3347
H -3.00916 -0.780098 13.4975
O 6.8589 -13.3477 9.42567
H 7.82818 -13.327 9.18047
H 6.73667 -12.9508 10.3354
O 4.73301 14.7307 -0.789665
H 4.7637 14.7994 -1.78685
H 3.82094 14.9826 -0.466104
O 10.2291 6.59285 -8.47286
H 11.2223 6.67131 -8.38707
H 10.0072 5.99968 -9.24678
O 5.38795 0.484595 0.267193
H 6.25821 0.671529 -0.188602
H 5.55153 0.30536 1.23733
O -10.9035 12.8712 5.51272
H -11.4845 13.5504 5.06424
H -11.1522 11.9568 5.19325
O -7.88062 13.797 12.525
H -8.31031 14.6441 12.2123
H -8.52446 13.0388 12.4218
O -1.44115 4.08094 12.9955
H -0.790015 3.46675 13.4414
H -2.37374 3.79448 13.2152
O 3.94919 -13.0748 -3.54965
H 4.93209 -13.0303 -3.37083
H 3.47946 -12.3803 -3.00452
O -9.15551 -12.5274 2.12017
H -9.3735 -12.9528 2.99856
H -8.53835 -11.7546 2.26813
O -5.23858 14.8448 -9.22716
H -5.85928 14.0703 -9.34989
H -4.32895 14.5992 -9.56232
O -14.8871 3.91468 8.06467
H 14.859 3.7694 9.02531
H -14.6307 3.04206 7.64894
O -10.9071 2.90333 0.474516
H -11.196 3.60606 -0.175682
H -11.1037 1.99855 0.0966387
O 14.7041 -0.601843 -1.12127
H 13.866 -0.486565 -0.58796
H 14.6407 -1.43875 -1.66498
O 7.93775 -11.7103 -14.1451
H 7.62437 -11.4613 -13.2287
H 7.36043 -12.442 -14.5075
O -3.46162 -4.28778 -13.6795
H -3.02993 -4.88669 -13.0049
H -4.18275 -3.75379 -13.238
O 7.55541 6.83834 -8.44018
H 8.52778 6.67616 -8.27212
H 7.41237 7.80198 -8.66601
O -13.7027 13.8211 3.75101
H -14.7021 13.8482 3.7316
H -13.3953 12.8695 3.7645
O -12.0651 -10.9412 -11.6316
H -12.3657 -10.0026 -11.801
H -11.9028 -11.0677 -10.6529
O -12.7587 5.58232 4.17707
H -12.7029 5.08167 3.31319
H -13.6179 6.09279 4.2116
O -7.29797 8.20378 -1.56797
H -7.40312 8.98687 -2.18097
H -7.81764 7.42804 -1.92604
O -0.141497 8.18588 5.59084
H -0.539774 8.98059 6.04895
H 0.842869 8.32337 5.48052
O -1.09331 12.6631 -3.10242
H -0.178725 13.0273 -2.92653
H -1.02454 11.6989 -3.35851
O -6.46985 -8.37242 8.79601
H -7.07009 -8.94576 8.2383
H -6.26128 -8.84326 9.65325
O -4.13191 -4.42944 -9.45339
H -4.2179 -4.70555 -8.49609
H -3.54072 -5.07638 -9.93507
O -4.30198 1.14711 10.2759
H -5.1119 1.32035 9.71545
H -4.4169 1.57929 11.1703
O 1.84557 3.98963 -13.7869
H 2.6699 4.26877 -13.2943
H 2.09594 3.66657 -14.6996
O 0.120052 11.3183 12.593
H 0.769345 11.4502 11.8439
H -0.439927 12.1402 12.6974
O 10.899 -9.89574 -11.2732
H 10.0219 -9.41544 -11.2764
H 10.8404 -10.7008 -11.8635
O -1.93158 -12.1273 5.36033
H -1.64333 -13.0461 5.63021
H -2.89683 -12.0003 5.58878
O -5.32975 -12.8474 -11.683
H -4.83878 -13.7185 -11.6704
H -6.28028 -12.9965 -11.4105
O 0.526616 9.87937 1.58922
H -0.364344 10.2551 1.84426
H 0.39605 9.08891 0.990752
O 5.03656 14.3825 13.9217
H 5.24412 13.4059 13.8642
H 4.3348 14.6144 13.2481
O -2.63424 -12.4709 11.4489
H -3.18072 -13.1335 10.9367
H -3.19326 -12.0662 12.1726
O -13.5479 -1.03286 4.58213
H -14.5193 -1.02796 4.81982
H -13.3213 -1.89209 4.12339
O 3.71183 1.59693 -8.60382
H 3.83282 2.55406 -8.86708
H 4.20604 1.42033 -7.75258
O 7.59534 -7.94292 0.531918
H 7.28402 -7.03171 0.801767
H 8.51036 -7.87816 0.133671
O 5.58204 8.12525 10.5286
H 6.35411 8.63323 10.1466
H 4.73346 8.6222 10.3469
O 11.013 4.99929 1.19478
H 10.0927 4.61117 1.14565
H 11.688 4.27584 1.04982
O -4.13088 1.65781 -5.35182
H -4.51567 0.934379 -5.9251
H -3.58146 2.27376 -5.91644
O -3.10545 1.5722 -1.02685
H -4.02046 1.95221 -0.891234
H -2.82016 1.08699 -0.200272
O -2.20968 -12.7701 -13.2757
H -1.49439 -12.407 -12.6785
H -2.34408 -13.7419 -13.082
O 10.2324 -10.6457 -0.0624851
H 10.0816 -11.307 -0.79736
H 10.0604 -9.722 -0.404808
O 1.56386 6.77275 2.06032
H 0.704085 6.39809 2.4074
H 1.45765 7.75334 1.89534
O -13.339 -12.5492 13.3901
H -12.7724 -12.1992 12.6441
H -12.8178 -12.5266 14.2433
O 10.7794 -1.52545 6.18168
H 9.88135 -1.90841 6.39828
H 11.3959 -2.26047 5.89942
O -2.74039 -7.37559 9.33436
H -3.05995 -7.5299 10.2693
H -3.50046 -7.50282 8.69706
O 6.02365 -6.47082 -11.6868
H 5.13077 -6.65114 -12.0995
H 6.32626 -5.55079 -11.9359
O 13.7233 -11.8922 9.4522
H 12.7733 -11.8099 9.15101
H 14.1457 -10.9861 9.47442
O -0.399062 -5.47191 5.57797
H -0.964559 -4.93518 4.95172
H -0.721907 -5.33961 6.51515
O 12.2966 14.8605 13.5316
H 12.2964 13.8607 13.5534
H 13.134 -14.7989 13.0912
O 14.6355 -4.88518 7.17926
H -14.3792 -4.79981 6.94469
H 14.5481 -5.22508 8.11568
O -14.167 0.941508 7.17279
H -14.976 0.368711 7.30477
H -13.4505 0.658415 7.81043
O -10.1821 9.21879 2.80427
H -10.2995 9.85352 2.04048
H -9.21463 8.98257 2.8956
O -5.50679 -4.17516 -0.797326
H -5.39322 -4.48478 0.146752
H -5.44643 -4.95941 -1.41487
O 3.98963 -0.405004 12.5635
H 3.70817 -1.35008 12.3972
H 4.73205 -0.391278 13.2333
O 9.10118 11.0657 13.7882
H 8.57087 11.5743 13.1098
H 8.5519 10.3082 14.1411
O -3.26124 6.35756 -10.3812
H -4.14802 5.92543 -10.5453
H -2.5318 5.69189 -10.5389
O -2.33766 7.74327 -12.4245
H -3.02319 7.85124 -13.1446
H -2.72234 7.20249 -11.6764
O -12.5897 10.0031 -5.93187
H -11.6061 10.183 -5.95006
H -12.9752 10.3446 -5.07468
O 5.47043 11.7754 12.9471
H 5.73763 12.0292 12.0174
H 4.5017 11.5276 12.9596
O 5.37547 -12.623 -6.43754
H 5.43588 -13.4212 -7.03689
H 6.16884 -12.6022 -5.82912
O 10.3222 6.27734 -14.468
H 11.3103 6.20344 -14.3329
H 10.0178 5.56424 14.8835
O -8.65391 -13.3809 7.49162
H -9.41832 -14.019 7.58393
H -8.81582 -12.7776 6.71072
O 11.0493 -11.7053 -8.51286
H 11.2554 -12.6571 -8.74012
H 11.8519 -11.1376 -8.69646
O -14.0855 8.85429 5.2706
H -14.5587 8.1487 4.74306
H -13.7916 8.47394 6.14752
O -11.648 -8.98615 -3.40242
H -12.5666 -8.9173 -3.79157
H -11.2702 -8.06899 -3.27557
O -12.4869 8.5229 -13.9903
H -12.296 8.12119 -14.886
H -13.0218 9.3597 -14.1075
O -5.98139 -13.7413 -3.8936
H -5.12648 -13.2441 -3.74561
H -5.94829 -14.2051 -4.77899
O -4.01323 4.30556 6.49218
H -4.23057 4.67704 5.58951
H -3.13236 4.66688 6.79805
O -13.3056 -7.40119 -1.41461
H -13.4124 -6.95202 -0.527541
H -13.5395 -6.75833 -2.14405
O -14.2144 8.10149 0.955203
H -13.6664 7.29155 1.16435
H 14.8003 7.85261 0.934819
O -12.8685 -5.24903 -3.25653
H -12.732 -4.2586 -3.23474
H -13.1031 -5.5328 -4.1863
O 9.68889 -6.47279 6.28769
H 9.35943 -6.92625 5.45952
H 10.6802 -6.35372 6.23063
O -2.90963 7.94084 -3.28007
H -2.27625 7.34595 -3.77503
H -3.40274 7.40554 -2.59425
O -6.66799 1.6422 9.10628
H -6.95485 1.02051 9.83516
H -7.46607 2.12696 8.74834
O 9.78214 5.20874 5.20958
H 9.01118 5.46939 5.79072
H 9.75665 5.74111 4.36342
O 14.0912 -10.68 2.99618
H 14.3528 -11.375 3.66599
H 14.5654 -10.8539 2.13303
O -11.482 7.58163 -10.257
H -10.5344 7.4813 -9.95383
H -11.6691 8.54422 -10.4532
O 14.2507 -5.33019 9.77164
H 13.3048 -5.24438 10.0846
H 14.8597 -5.3877 10.5628
O -5.29755 1.02836 2.25347
H -4.51259 0.611833 1.79479
H -5.22715 0.875721 3.23927
O 7.11317 13.7901 3.9771
H 6.54649 14.5898 3.77877
H 7.23374 13.704 4.96609
O -10.8923 1.16792 -9.34262
H -10.4432 2.06106 -9.36801
H -11.7278 1.19918 -9.8914
O -6.15478 5.19876 0.356976
H -5.56978 4.59128 0.894366
H -6.91517 4.6752 -0.027387
O 11.7424 9.44794 -7.52389
H 12.4172 10.0118 -7.04761
H 11.9241 9.46979 -8.50703
O -0.875812 0.605318 -9.49274
H -0.0859418 1.07234 -9.89029
H -1.67775 1.20013 -9.54884
O 1.22045 11.0035 -13.2373
H 1.99583 11.5742 -13.5078
H 1.55665 10.133 -12.8779
O -4.11167 -9.25725 3.17108
H -3.90076 -8.82373 4.04723
H -3.45949 -9.99556 2.99896
O -1.09736 -8.62114 3.48155
H -0.966769 -9.26825 4.23271
H -0.891967 -9.07258 2.61318
O 5.95098 6.07125 0.447029
H 5.43907 6.40921 -0.342771
H 5.80659 5.08619 0.541135
O -9.69968 13.1495 -12.3915
H -9.15335 12.3429 -12.1659
H -10.5995 13.0734 -11.962
O 7.08716 0.642815 -10.0564
H 7.16326 1.34672 -9.35017
H 6.95419 1.07739 -10.9472
O -3.78956 14.3592 -12.23
H -4.49609 13.7315 -12.5568
H -2.91674 14.133 -12.6625
O 4.06602 -10.9167 6.05244
H 3.18284 -11.3547 5.88437
H 4.3768 -11.1372 6.97703
O -5.24688 -6.25827 -2.45164
H -5.98964 -6.17126 -3.11556
H -4.50524 -6.79801 -2.85001
O -14.5801 7.77768 -9.13656
H -13.9687 6.98706 -9.17105
H -14.0398 8.61853 -9.17007
O 4.02422 4.76172 -9.42508
H 3.47137 4.55501 -8.61781
H 4.98774 4.58597 -9.22314
O 0.766464 0.894297 6.92687
H 1.17239 0.330865 7.64647
H 0.374443 1.72045 7.33165
O 6.28089 -8.41955 -9.82674
H 6.39379 -7.62087 -10.4178
H 7.17992 -8.76132 -9.55291
O -14.8993 -3.50952 -1.61692
H 14.312 -3.5871 -2.24815
H -14.0924 -3.1911 -2.1145
O -1.33066 13.4436 12.7374
H -1.08479 14.3977 12.9085
H -2.24496 13.2647 13.1009
O 9.81892 -3.65783 3.67599
H 10.3315 -4.51645 3.66866
H 9.01913 -3.75215 4.26885
O 12.1118 7.13806 9.68917
H 12.0315 6.14474 9.60604
H 11.6641 7.57511 8.90903
O -9.98673 10.4217 -5.09262
H -9.44572 9.64929 -5.4253
H -9.59928 10.7543 -4.23276
O 5.32942 3.65361 10.5091
H 5.58242 3.99706 9.60463
H 4.33606 3.6965 10.6161
O -5.04155 0.540641 -9.9145
H -4.5414 -0.31221 -10.0646
H -5.9278 0.492873 -10.3753
O -14.5912 2.1967 -1.92068
H -14.7261 1.21833 -1.76381
H -13.7838 2.33401 -2.49462
O 7.30517 12.7733 6.89443
H 7.12435 11.8533 7.24231
H 8.13977 13.1303 7.31403
O -9.57869 0.221834 1.24793
H -9.48801 0.886382 1.98968
H -10.235 -0.48499 1.51203
O -13.6607 7.87796 7.81277
H -13.6123 6.8803 7.86155
H -12.7981 8.26954 8.1333
O -3.22988 -5.12573 13.5821
H -4.09301 -5.23909 13.0899
H -3.41734 -4.96547 14.5512
O -7.94956 12.0412 -6.83631
H -8.81176 11.8032 -6.38913
H -7.32168 11.2646 -6.78459
O -10.7182 -10.4525 14.4786
H -10.4626 -10.1413 -14.5891
H -10.1832 -11.2632 14.2406
O -5.54467 2.29281 6.30339
H -4.88613 3.04336 6.24815
H -5.50512 1.881 7.21383
O 6.86165 6.99582 12.8792
H 6.19219 6.65619 13.5399
H 6.42866 7.67275 12.2839
O -10.5009 -14.9627 3.5413
H -11.1124 -14.6144 2.83072
H -9.70244 14.5953 3.11497
O -9.31369 -2.46268 4.33276
H -8.33141 -2.5685 4.17788
H -9.80946 -2.68644 3.4936
O -13.973 4.23904 -6.35795
H -13.2273 4.70944 -6.82984
H -14.7054 4.89047 -6.15943
O -6.93713 -1.44025 9.55724
H -6.55209 -2.27907 9.17229
H -7.71198 -1.669 10.1466
O 1.11364 -0.00374505 12.7846
H 0.979549 -0.840993 12.2544
H 2.08774 0.220764 12.8124
O 14.6515 13.3803 -4.02627
H 13.8208 13.497 -4.57062
H 14.9715 12.4361 -4.10476
O -3.80674 -1.59904 6.91488
H -4.40094 -2.39503 6.7992
H -3.71754 -1.38834 7.88838
O 5.24573 -8.28493 -0.763924
H 6.13992 -8.26549 -0.316605
H 4.52627 -8.19974 -0.0745987
O -9.01277 -2.09394 11.3442
H -8.63297 -2.32646 12.2396
H -9.7426 -2.7378 11.1143
O 8.72149 -7.94253 12.9353
H 9.48429 -7.60579 12.3832
H 8.88979 -8.89458 13.1909
O -2.97056 2.30687 -9.53122
H -3.85305 1.93338 -9.81719
H -3.07685 2.78144 -8.65742
O -5.59235 -3.70773 8.5678
H -4.7311 -3.8094 9.06575
H -5.47668 -4.03782 7.63094
O 11.6139 -2.96593 -13.7715
H 11.0658 -2.52847 -14.4844
H 11.2806 -3.89632 -13.6186
O -2.55877 -1.07176 -7.66635
H -3.43346 -0.786687 -7.27431
H -2.37469 -0.539671 -8.49281
O -7.5228 -11.9221 -1.31621
H -7.69593 -11.8227 -2.29611
H -7.17313 -12.8405 -1.13094
O 13.2104 0.714695 -10.7176
H 13.4959 1.64783 -10.9363
H 12.4608 0.445099 -11.3222
O -4.82329 9.72971 -4.65744
H -4.25884 10.2931 -5.26078
H -4.26037 9.01074 -4.24971
O -12.7604 -10.9229 8.25513
H -13.0253 -9.96232 8.17096
H -13.3646 -11.486 7.69123
O 0.418772 -2.71864 7.45912
H 0.431324 -2.5759 6.46942
H 0.800131 -3.61849 7.67098
O -11.9934 -13.983 -5.616
H -11.2775 -14.0247 -6.313
H -11.9949 -14.8326 -5.08854
O -0.00508837 7.98849 -0.294338
H 0.310365 7.9175 -1.24065
H -0.716597 7.30573 -0.128061
O -5.40579 4.52079 -10.8026
H -6.32877 4.18748 -10.61
H -5.26747 4.56634 -11.7919
O -6.04541 5.43582 -13.5892
H -6.60689 6.11422 -14.063
H -5.09416 5.52561 -13.8843
O 5.55402 -0.914107 6.59395
H 5.12568 -1.58299 5.98635
H 5.42033 0.00548462 6.22445
O -7.12474 1.77871 -4.66922
H -7.16649 0.791388 -4.51592
H -7.46571 1.98845 -5.58562
O -2.50465 -2.62292 -4.1276
H -2.10863 -2.97408 -3.27912
H -2.97822 -1.7617 -3.94299
O 3.3311 8.78603 0.206998
H 3.85165 9.63901 0.24578
H 3.3106 8.45058 -0.734861
O 4.96683 -10.8451 -14.7887
H 5.34449 -11.771 -14.7918
H 4.7401 -10.5744 14.2587
O 2.37996 -11.6796 11.9883
H 2.05595 -10.7348 11.9399
H 2.37432 -12.0813 11.0726
O 13.7107 8.19843 13.5533
H 13.5908 9.00297 12.9716
H 13.9772 7.41643 12.9899
O 12.6516 3.12555 14.4477
H 11.9034 3.69604 14.1089
H 12.2981 2.22234 14.6913
O 2.75784 6.05029 5.17312
H 3.05265 6.7549 4.52763
H 2.427 6.48363 6.01145
O 6.6425 1.59576 -2.79004
H 7.03299 2.42408 -3.19186
H 5.80645 1.8285 -2.29316
O -0.521172 3.14842 7.80666
H -1.33027 2.97858 8.3693
H -0.575856 4.06588 7.41254
O 1.02968 12.8524 6.10869
H 1.90249 13.3053 5.92666
H 0.838044 12.1934 5.38133
O -8.67154 -10.1739 -10.9578
H -7.79853 -9.71093 -10.8042
H -9.25297 -10.065 -10.1515
O 2.42693 -3.3076 -9.29353
H 1.71305 -2.67646 -9.59698
H 2.23246 -4.22397 -9.64351
O -3.97904 -8.47545 -9.18317
H -3.0279 -8.39246 -9.48062
H -4.1429 -7.85759 -8.41411
O 8.97475 -7.96566 -11.5306
H 8.86876 -7.07303 -11.0924
H 8.58651 -7.93303 -12.4516
O 8.74372 13.2047 -14.0906
H 9.50688 12.5736 -13.9515
H 9.09861 14.1154 -14.302
O -3.53897 3.57663 -7.22469
H -4.40386 4.03708 -7.42471
H -2.89717 4.23158 -6.82572
O -10.4403 -4.0553 -14.7822
H -10.6684 -3.20935 14.7188
H -10.9444 -4.09352 -13.9193
O -12.8692 5.63656 0.895263
H -13.2125 4.69747 0.876921
H -11.8693 5.62607 0.891746
O 14.0628 -7.32029 -3.79961
H 14.7572 -7.02341 -4.45512
H 13.2616 -7.6588 -4.29315
O 6.56774 -13.7229 0.590626
H 7.3229 -14.2614 0.964584
H 6.16242 -14.2098 -0.183179
O -14.0632 13.9736 -7.19842
H -14.2052 14.0839 -6.2147
H -14.9093 14.1934 -7.68407
O -10.768 5.13572 8.56186
H -11.0433 4.65582 9.3949
H -11.5827 5.42525 8.0593
O -14.2505 -6.27248 4.45986
H -14.0448 -7.25102 4.47213
H -13.6651 -5.80046 5.11901
O -0.225433 3.58772 3.39787
H 0.616606 3.76406 3.9077
H -0.67604 4.45548 3.18815
O 11.3109 9.81378 -4.0777
H 11.1408 8.90062 -4.44818
H 10.7508 9.95169 -3.26077
O -14.029 -9.0677 -11.2931
H -14.8499 -9.62558 -11.4149
H -14.2564 -8.2514 -10.7621
O 3.37201 2.83507 13.7373
H 2.95143 3.13416 12.8808
H 4.23416 2.36829 13.5402
O -1.59524 -11.0429 9.37321
H -1.85014 -11.595 10.1671
H -2.42167 -10.7415 8.89756
O 1.31852 10.825 -6.89151
H 1.89188 10.9165 -6.07731
H 1.21041 11.7195 -7.32536
O -2.21037 12.9104 -0.251057
H -3.19399 13.0894 -0.273283
H -1.87659 12.7667 -1.18272
O -13.8354 -8.51152 7.20008
H -14.5762 -8.83855 7.78683
H -14.0087 -8.79296 6.25626
O 8.12468 2.20045 -6.91037
H 7.59622 1.35167 -6.92898
H 9.10118 1.98559 -6.92866
O -7.47273 -1.05514 -5.0536
H -6.83966 -1.65131 -4.55978
H -8.36282 -1.06367 -4.59784
O 3.70843 10.7946 -5.24286
H 4.36352 10.0459 -5.14133
H 3.61922 11.2797 -4.37293
O -7.4441 -5.99908 -4.08413
H -7.6541 -5.29065 -3.41028
H -8.16304 -6.02191 -4.77885
O -11.8243 -12.7339 -14.0201
H -12.028 -12.032 -13.3375
H -10.8357 -12.7839 -14.162
O -8.65179 3.37434 7.93651
H -9.32816 4.087 8.12276
H -8.73381 3.07741 6.98512
O 5.69714 10.344 1.50448
H 5.27598 9.44437 1.62019
H 6.36506 10.4955 2.23315
O 4.90063 -3.76555 -8.31943
H 5.3675 -2.88119 -8.3182
H 3.9305 -3.63003 -8.52076
O 14.5022 6.90704 11.1843
H 13.5866 6.85218 10.7857
H 14.9268 7.77472 10.9258
O 2.0386 1.08604 -4.17857
H 1.43671 0.331088 -4.439
H 2.13896 1.10438 -3.18376
O -9.94665 2.71568 3.13013
H -10.5707 2.15006 3.66929
H -10.3248 2.84887 2.21397
O 2.53978 -9.64923 -13.2681
H 3.40753 -9.90316 -13.6954
H 2.19826 -10.4167 -12.7255
O -9.16864 -0.028218 -1.51289
H -9.52254 0.676371 -2.128
H -9.49128 0.148462 -0.582975
O -2.72656 -11.1295 14.5481
H -2.94861 -11.6244 -14.5949
H -1.74191 -10.9586 14.5123
O 6.6241 -0.0249764 -6.0963
H 5.82518 0.50095 -5.80443
H 7.07479 -0.418758 -5.29513
O 13.5746 13.3724 3.84561
H 12.8615 14.068 3.93244
H 13.2039 12.4807 4.10549
O -12.0785 12.89 -10.918
H -13.0617 13.0324 -11.0322
H -11.8299 13.0335 -9.96006
O 11.8187 9.83437 0.0676621
H 12.2897 10.7004 -0.100395
H 10.8352 9.99881 0.14244
O -6.21692 4.732 -3.8319
H -5.53691 5.12018 -4.45395
H -6.01803 3.76331 -3.68311
O -10.8402 13.543 14.8484
H -10.7598 12.6503 14.4049
H -10.7235 13.4364 -14.1472
O 8.07136 2.37115 5.42865
H 8.73085 2.09698 4.72868
H 7.29693 2.83169 4.99482
O -9.03419 -0.00756102 6.11854
H -8.56648 0.788392 5.73414
H -8.77114 -0.826925 5.60913
O 5.86095 12.4685 10.2051
H 5.78849 11.622 9.67761
H 4.98897 12.957 10.1728
O -7.13495 -9.46931 -0.44531
H -7.3432 -10.426 -0.648767
H -7.66133 -8.87665 -1.05501
O 3.47911 11.7735 -2.58107
H 3.07902 12.6519 -2.84255
H 3.04813 11.4483 -1.73931
O -3.66839 12.3607 13.2165
H -3.01518 11.7061 13.5972
H -4.43371 12.4747 13.85
O -3.76262 -2.20131 0.81755
H -3.1078 -2.95216 0.904041
H -4.65977 -2.56815 0.571358
O -0.730022 7.1575 13.1941
H -0.385152 6.95997 14.1118
H -1.17662 6.34313 12.8234
O 5.20939 2.09309 8.20237
H 4.61736 2.42681 7.46877
H 4.65251 1.85681 8.99868
O -13.454 -14.9557 -14.3155
H -12.7653 14.352 -14.0517
H -13.07 -14.0365 -14.2281
O 2.81623 4.72081 1.13516
H 3.105 4.58154 0.187918
H 2.33324 5.59312 1.21156
O -9.94392 6.25262 0.898376
H -9.68595 7.13797 0.511501
H -9.19187 5.60451 0.778257
O 5.63018 -0.318418 14.6774
H 6.62901 -0.326563 14.7256
H 5.26621 -1.10877 -14.8128
O -7.50966 11.1633 -11.4559
H -6.64393 10.6632 -11.4768
H -8.26753 10.5149 -11.3835
O 2.68323 5.7324 -3.28865
H 2.60506 6.70598 -3.07395
H 1.78659 5.37599 -3.55144
O -14.2482 -14.2587 10.0821
H -14.7674 -14.1213 9.23854
H -13.273 -14.137 9.89678
O -11.5785 -7.32084 -12.8675
H -11.3145 -7.08569 -13.803
H -12.5333 -7.61822 -12.8554
O -0.642953 -5.237 -8.10049
H -0.938102 -6.15335 -7.82987
H -1.03333 -4.56245 -7.47388
O -11.9613 7.23394 13.6496
H -12.4745 6.42083 13.3748
H -11.1903 7.36773 13.0269
O 13.9466 -12.5283 -9.86951
H 14.608 -12.6465 -10.6101
H 13.3222 -13.3093 -9.8525
O -0.988984 9.42527 -6.47162
H -0.193356 9.64827 -7.03491
H -1.69387 9.00395 -7.04229
O 1.56335 -2.8526 14.3081
H 1.20983 -3.57964 14.8968
H 0.912723 -2.09341 14.2888
O 1.51665 -5.88178 -9.89889
H 0.826044 -5.78547 -9.18206
H 2.21171 -6.53842 -9.60604
O 3.79334 -12.1108 1.47652
H 2.83726 -12.2882 1.2431
H 4.31079 -11.9222 0.641806
O 12.9567 -4.70879 12.5466
H 12.743 -4.68114 13.5231
H 13.1989 -3.79086 12.2323
O 7.88452 -12.101 -4.87238
H 8.58977 -11.5225 -4.46255
H 7.30861 -12.486 -4.15117
O 1.69859 -5.30859 7.95134
H 1.84828 -5.89524 8.74725
H 0.971407 -5.69538 7.3842
O -9.90931 -8.29448 9.8499
H -10.2715 -8.42977 10.7721
H -10.0476 -9.12619 9.31214
O 13.4364 -9.66302 -12.4295
H 13.4289 -10.6503 -12.5886
H 12.6751 -9.41624 -11.8299
O 14.4457 -7.20273 -9.96252
H 13.5933 -6.84567 -10.3446
H 14.3889 -7.20343 -8.9641
O -13.5026 -9.70357 14.1318
H -12.5405 -9.96957 14.1926
H -14.0434 -10.4804 13.8091
O 2.26033 4.32358 -7.39763
H 1.7305 5.08301 -7.77526
H 1.64878 3.70047 -6.90999
O -8.53613 -4.03775 -11.4845
H -8.67585 -4.90604 -11.0085
H -8.81421 -3.28321 -10.89
O 7.16431 12.6715 -7.36838
H 7.67414 13.1115 -6.62906
H 6.41099 12.1388 -6.98273
O -4.52663 -12.5413 6.32002
H -5.24398 -12.063 5.81344
H -4.84445 -13.458 6.56243
O -12.6729 -4.92928 6.26012
H -12.376 -5.52036 7.01017
H -12.1625 -4.06986 6.291
O -13.7318 -5.86749 11.6488
H -13.712 -6.27887 12.5601
H -13.0511 -5.13657 11.5983
O -11.1201 -2.24727 1.91191
H -11.7756 -1.8991 2.58212
H -11.2524 -3.23177 1.79661
O -5.69668 -10.6911 10.4658
H -6.55308 -11.1891 10.3293
H -5.41483 -10.7686 11.4222
O 13.0006 6.44608 -8.48041
H 13.9326 6.80335 -8.54221
H 13.0242 5.51413 -8.11852
O 3.70516 -6.81911 10.2379
H 4.06489 -7.71472 9.9761
H 2.89779 -6.94004 10.8155
O -1.5395 4.18138 -10.9567
H -1.44865 3.89498 -11.9105
H -1.71074 3.38037 -10.383
O -13.3466 -13.7776 0.0682169
H -13.6513 -14.3558 -0.688658
H -12.4487 -13.3933 -0.146424
O -8.47345 -14.4513 -13.1008
H -8.99139 14.698 -12.9091
H -8.57237 -13.8142 -12.3364
O 14.295 -13.2964 12.5815
H -14.9576 -12.8542 13.1021
H 14.6035 -13.4556 11.6436
O -3.87651 14.522 -1.73778
H -3.32326 -14.697 -1.4059
H -3.60954 14.2998 -2.67554
O -12.9558 6.48284 -12.1211
H -12.3979 6.84357 -11.3737
H -12.8834 7.08853 -12.9135
O -12.8622 -2.19345 -2.77083
H -12.9419 -1.42932 -3.411
H -11.9943 -2.12682 -2.27854
O -5.53654 12.2046 -1.4328
H -4.86044 12.8917 -1.6989
H -5.48306 12.0489 -0.446424
O -14.2359 10.8549 -12.4482
H 14.9173 10.3053 -12.3526
H -14.356 11.7257 -11.9713
O -2.46463 3.28376 9.51109
H -3.08442 4.04023 9.72003
H -2.99598 2.45153 9.35266
O 1.76391 11.3142 -0.433866
H 1.13156 10.6003 -0.132818
H 1.27208 12.1806 -0.519649
O -7.08071 12.9894 2.82497
H -7.60482 12.4865 3.51234
H -6.6364 12.3423 2.20538
O -0.275271 -6.67222 -3.18103
H 0.152577 -7.08353 -3.9859
H 0.299199 -6.83431 -2.37868
O 12.3334 -5.93643 -1.8833
H 12.9315 -6.33366 -2.57946
H 12.7626 -6.02631 -0.984534
O 11.2131 -0.96386 -1.96987
H 10.7793 -0.50494 -2.7453
H 11.2856 -1.94296 -2.16
O 13.6283 10.1921 11.6671
H 14.4307 10.7327 11.9199
H 13.5512 10.1559 10.6707
O -4.08802 5.80165 -1.87693
H -3.82623 4.92154 -2.27308
H -5.07015 5.80349 -1.68861
O -10.8608 1.75625 14.9526
H -11.7062 1.50819 14.4795
H -10.1388 1.92108 14.2805
O -4.3647 -12.8872 -7.42124
H -4.40967 -13.1883 -8.37378
H -4.67731 -11.9395 -7.35617
O -5.99228 -2.39582 -3.09073
H -5.24914 -1.72931 -3.03103
H -6.18225 -2.76558 -2.1812
O -7.67533 8.42934 2.87288
H -7.3765 7.82719 3.61326
H -6.97954 8.44526 2.15478
O 9.4133 13.9386 -5.47038
H 9.08258 13.2776 -4.79679
H 9.4518 14.8473 -5.0546
O 13.4971 9.59617 -2.29774
H 13.3795 8.97665 -1.52159
H 12.6395 9.65733 -2.8084
O -5.88583 -4.80307 13.0602
H -6.27032 -5.07435 12.1778
H -6.42368 -5.21134 13.7979
O 11.1289 12.0365 -9.53767
H 11.9911 11.6517 -9.20798
H 10.6978 11.3938 -10.1711
O -5.7672 11.1426 1.19824
H -4.90365 10.8021 1.57018
H -6.39089 10.3756 1.04773
O -8.64264 -4.39521 -2.23671
H -8.14591 -4.46804 -1.37184
H -9.06825 -3.49262 -2.30167
O -7.81231 3.13884 -10.5286
H -7.58771 2.18827 -10.7431
H -8.80126 3.27105 -10.596
O -11.2637 -2.7 6.40482
H -11.3461 -1.70338 6.40123
H -10.4928 -2.97278 5.82922
O -3.53842 3.31307 -3.1122
H -3.33556 2.5985 -2.44266
H -3.87125 2.89367 -3.95682
O 1.52968 -4.87406 3.61225
H 0.862798 -5.3541 3.04227
H 1.18293 -4.809 4.54798
O 0.759322 -8.11298 -5.50212
H 0.091158 -8.36719 -6.20139
H 1.6531 -7.97598 -5.92925
O 5.37799 8.34388 5.98463
H 5.52229 7.83449 5.13625
H 4.42084 8.62729 6.04455
O 1.46338 -6.65095 12.1873
H 0.585699 -6.21255 12.3811
H 2.19884 -6.13081 12.6216
O -7.85001 -12.3335 9.80838
H -8.57157 -11.739 9.45362
H -7.58295 -12.9907 9.10345
O -1.01739 11.5072 -9.29481
H -0.328111 12.1944 -9.06535
H -0.574006 10.7216 -9.72639
O 1.07605 12.9408 8.70827
H 0.947868 13.8594 9.08231
H 0.987706 12.9711 7.71261
O 12.2686 13.7678 -5.52423
H 11.2718 13.7884 -5.6014
H 12.6642 14.4574 -6.1309
O 3.19997 13.1847 -10.2345
H 3.30576 12.2646 -10.6118
H 3.93808 13.7697 -10.5707
O 11.0845 1.60303 -6.50702
H 10.9272 2.12074 -7.34803
H 11.8799 1.97645 -6.02953
O 2.70539 -14.9161 12.376
H 2.22301 -14.3639 11.696
H 2.1509 -14.9824 13.2056
O 13.8537 -9.76233 -1.99136
H 13.3136 -9.47289 -1.20107
H 14.2871 -8.96389 -2.4094
O 8.78945 -3.51642 -5.662
H 9.28642 -3.1139 -4.89321
H 8.45077 -2.78824 -6.2579
O -11.8707 11.0222 -2.61
H -10.9619 11.2794 -2.93881
H -12.0539 11.4835 -1.7418
O -14.138 -9.13749 -6.57252
H -14.887 -8.48472 -6.68655
H -14.4789 -9.95961 -6.11651
O -6.32714 -8.62629 -10.6629
H -6.13915 -9.16384 -11.4849
H -5.51263 -8.60815 -10.083
O -4.31994 -2.39811 12.7612
H -3.65118 -2.72458 12.0932
H -4.89551 -3.16065 13.0566
O 8.43121 3.29696 0.278073
H 7.44067 3.25238 0.408084
H 8.8518 2.46165 0.632217
O 1.08895 13.1466 -8.33524
H 1.90082 13.1808 -8.91812
H 0.97357 14.0257 -7.8726
O -14.742 6.02746 -1.21835
H 14.6177 5.25291 -1.11067
H -14.2779 6.20497 -0.350512
O 12.2135 -12.0356 -2.85989
H 12.8284 -11.262 -2.7072
H 12.6353 -12.8712 -2.50789
O 4.84008 -2.18019 8.82416
H 5.15468 -1.53215 8.13053
H 5.63019 -2.59994 9.27091
O 8.93723 7.53772 7.93962
H 9.84533 7.54578 7.52089
H 8.52529 6.63374 7.82489
O 0.987694 -10.1023 -9.45012
H 1.90707 -9.71204 -9.40009
H 0.777229 -10.5706 -8.59198
O -2.62617 7.51567 4.59553
H -3.18877 7.88095 5.33721
H -1.66443 7.72484 4.77261
O 3.42345 6.30954 11.1682
H 4.33582 6.64935 10.9398
H 3.32224 5.37361 10.8308
O 5.77296 -13.4402 -14.5029
H 5.66894 -14.1804 14.8157
H 5.10143 -13.5529 -13.7706
O 10.4466 7.28842 2.73839
H 10.8274 6.53601 2.20084
H 11.1748 7.93245 2.97283
O 14.4304 -9.19432 9.2111
H 13.6444 -8.64944 9.5032
H -14.7602 -8.96625 9.77686
O 4.41471 -1.40938 -3.09709
H 4.04207 -1.97939 -2.36478
H 5.36315 -1.67227 -3.27429
O -0.232482 -0.302175 -4.85008
H -0.687525 -1.19252 -4.83378
H -0.131317 0.00316662 -5.79696
O -4.04136 12.1226 -8.47026
H -5.01774 12.1175 -8.68642
H -3.60831 12.9133 -8.90305
O -6.02359 1.62147 -1.69144
H -6.3285 0.822044 -1.17376
H -6.46653 1.62679 -2.58801
O 0.579998 -1.64602 4.8765
H 0.0450869 -0.801196 4.86283
H 0.255971 -2.25742 4.15453
O 11.3434 -3.91218 -0.256463
H 11.7412 -4.52977 -0.934989
H 12.0758 -3.45165 0.245025
O 10.7779 12.5657 1.47402
H 10.3902 13.395 1.07142
H 11.7465 12.5002 1.23432
O 14.8901 -11.4753 0.491682
H 14.2643 -11.2875 -0.265409
H -14.5737 -12.3074 0.296422
O 13.5363 -12.2095 -13.0485
H 12.8571 -12.8902 -12.7739
H 14.3934 -12.3787 -12.5619
O -3.23485 -8.34729 6.07948
H -2.24585 -8.21144 6.02067
H -3.42826 -9.14671 6.64831
O -4.06333 -11.9472 -2.58151
H -3.15611 -11.5609 -2.74806
H -4.3871 -11.661 -1.67969
O -9.2921 11.88 -2.79568
H -8.40736 11.501 -2.52432
H -9.37653 12.813 -2.44573
O -8.56432 6.55722 -10.2989
H -8.95656 7.1078 -11.0359
H -7.77964 7.03674 -9.906
O -12.6195 12.1436 -0.144185
H -13.135 11.9079 0.679716
H -12.0182 12.9189 0.0492253
O 9.64205 -3.14864 -3.12583
H 9.47029 -4.13373 -3.114
H 8.99839 -2.69067 -2.51263
O 11.9933 -8.48262 10.6336
H 11.2891 -8.66458 9.94729
H 11.7836 -7.62745 11.1077
O -2.58545 7.69513 7.92061
H -2.33886 8.62797 7.65784
H -2.38586 7.55836 8.89092
O -11.1688 5.2169 -2.86975
H -10.2169 4.95019 -2.71902
H -11.3 6.16401 -2.57678
O 11.0241 -12.6743 12.0245
H 11.2974 -12.6882 12.9863
H 11.8031 -12.9319 11.4529
O 9.617 -3.61015 10.7901
H 9.77297 -2.6701 11.0934
H 8.92001 -3.61769 10.073
O -2.32787 6.26523 0.311887
H -2.95749 6.30681 -0.463936
H -2.17744 5.31041 0.568281
O -14.3402 10.755 -3.93084
H 14.9467 10.1362 -3.56685
H -13.5132 10.692 -3.37211
O -9.54592 9.15049 -14.9627
H -9.17583 9.85009 14.4091
H -10.4634 8.89372 14.7163
O -14.0956 -12.6578 -11.9137
H -13.4662 -11.8913 -11.7858
H -13.7142 -13.4773 -11.486
O -9.02497 -12.9693 14.6894
H -8.90559 -13.345 13.7703
H -8.67382 -13.6192 -14.6196
O 5.5194 -4.35732 1.04969
H 4.89228 -4.99106 1.50262
H 5.4156 -3.44519 1.44629
O 13.2433 -5.33745 -5.92089
H 12.3665 -5.39411 -6.39839
H 13.084 -5.30393 -4.93421
O 5.24635 -11.0056 -9.06093
H 5.46531 -11.513 -8.22751
H 5.81547 -10.1848 -9.11066
O 5.47676 -2.06654 2.82271
H 5.92246 -1.19459 3.02546
H 4.66267 -2.16575 3.39496
O -12.2632 13.6381 -3.99753
H -12.744 13.8682 -3.15138
H -12.5683 12.7424 -4.32113
O -0.0928692 -10.5978 -14.9908
H 0.688491 -11.2035 14.8416
H 0.0692332 -10.041 -14.1761
O -5.11483 8.39664 -13.9053
H -5.95676 7.92159 -14.1613
H -4.54841 8.5325 -14.7181
O -0.934328 -6.79015 0.414536
H -0.0867875 -6.86985 -0.110224
H -1.41669 -7.66609 0.403704
O -11.5428 9.34947 -0.101785
H -12.0274 10.1995 -0.308471
H -11.8826 8.97319 0.760189
O -2.9207 -3.49684 -6.5326
H -2.71095 -2.60099 -6.9244
H -2.67975 -3.50086 -5.56204
O -11.1132 -6.70304 -10.0031
H -10.1362 -6.55055 -10.1517
H -11.6043 -6.58336 -10.866
O 13.5193 9.19218 -12.9196
H 12.6848 9.29689 -13.4605
H 13.8586 8.25564 -13.0081
O 0.6642 8.27461 -2.95614
H 0.394119 9.23652 -2.99903
H 0.350573 7.80327 -3.78047
O 8.86859 -5.23992 -0.595376
H 9.68236 -4.72557 -0.324673
H 8.26172 -5.34264 0.192785
O -9.96789 6.56862 4.54647
H -10.8417 6.20041 4.2289
H -9.75023 7.39931 4.034
O 13.5393 -2.174 11.7231
H 13.6596 -1.67885 12.5836
H 13.1149 -1.57065 11.0479
O 9.0747 9.81835 -6.49924
H 9.17371 10.2552 -5.60514
H 9.97332 9.73225 -6.9295
O -1.63677 -4.37642 -2.11914
H -1.94047 -4.61215 -1.19596
H -1.12359 -5.14214 -2.50691
O -14.2801 4.72189 12.0723
H -13.2876 4.80451 12.1624
H -14.6669 5.60894 11.8202
O 8.96228 -6.90773 -14.4285
H 8.31353 -6.15492 -14.5401
H 9.01704 -7.42954 14.7032
O -4.03055 -10.41 8.28999
H -4.61331 -10.4112 9.10267
H -4.43419 -10.9986 7.5895
O 3.47088 -8.39161 -9.79232
H 4.47063 -8.39484 -9.81556
H 3.15877 -8.54342 -8.85445
O 11.841 -14.0464 -9.43133
H 11.1352 -14.6771 -9.10868
H 11.8629 -14.0538 -10.4311
O -2.7276 14.3002 -9.84018
H -2.98355 14.1526 -10.7956
H -1.82968 14.7386 -9.79958
O 2.04932 8.46597 -12.6313
H 1.8888 7.50132 -12.4222
H 3.02205 8.61025 -12.813
O -13.084 -3.50022 3.76635
H -12.7077 -3.96139 2.96274
H -12.9016 -4.04957 4.58181
O -9.22195 4.87221 14.9015
H -8.93061 5.82655 14.8351
H -8.41952 4.28561 -14.9717
O 7.54523 13.8583 -11.9322
H 8.14957 14.6275 -11.7243
H 7.76812 13.4942 -12.8365
O 0.594439 -14.8629 10.4734
H 0.0615568 -14.7497 11.3121
H 0.853156 -13.9643 10.1191
O -1.14379 -13.4528 1.09552
H -1.76554 -12.7067 1.33407
H -1.23764 -14.1913 1.76323
O 1.53078 13.8133 -2.59191
H 1.77032 14.2715 -3.44791
H 1.46165 14.4906 -1.85936
O 5.20638 -10.1654 12.5864
H 5.54972 -9.22804 12.6455
H 4.60475 -10.2506 11.7921
O -13.9997 14.1212 -1.67233
H -13.6147 13.3337 -1.19089
H -14.5811 13.8025 -2.42098
O -13.5744 3.35587 -12.6633
H -13.8172 3.14029 -13.6091
H -12.6819 3.80657 -12.6427
O -1.60148 -8.29677 -10.3635
H -0.664415 -8.6344 -10.2743
H -2.05478 -8.76751 -11.1204
O -3.47079 -1.69954 -10.5933
H -2.97596 -1.71944 -11.4621
H -3.7073 -2.63282 -10.323
O 5.20227 -4.55897 10.6747
H 4.8393 -5.4695 10.4766
H 4.45254 -3.95078 10.9356
O 11.2069 14.4946 10.2842
H 12.0389 14.0539 10.6213
H 10.5866 14.6657 11.0498
O 10.1566 -14.2826 14.7921
H 10.9925 -14.5403 14.3073
H 9.40179 -14.2108 14.1401
O -6.72181 9.6993 6.30622
H -6.73579 8.72235 6.09306
H -6.46536 9.8278 7.26422
O 10.5368 -11.0399 7.66173
H 10.4387 -10.1867 8.17403
H 11.2182 -10.9188 6.93987
O 13.7956 5.71664 -4.62626
H 14.2831 6.13251 -3.85848
H 13.0243 6.29791 -4.88552
O -2.70052 8.58974 -8.57675
H -2.97398 9.51833 -8.82773
H -2.48529 8.07059 -9.40392
O 1.31804 6.70435 9.49587
H 2.01529 6.56315 10.1987
H 0.503025 6.17125 9.72304
O 2.39448 -14.912 -5.40142
H 2.94277 14.381 -5.87385
H 2.9982 -14.2184 -5.00832
O 7.81866 1.5884 7.94321
H 6.84735 1.51525 8.16964
H 7.91806 1.89337 6.99603
O -8.11999 3.27159 -0.574695
H -7.6161 2.47738 -0.914362
H -9.02307 2.98248 -0.257039