LAMMPS (15 May 2015)
Reading data file ...
  triclinic box = (-0.107635 -0.0404339 -0.357111) to (41.3876 35.9384 29.5551) with tilt (-0.0672341 -17.0362 -0.0417078)
  5 by 2 by 2 MPI processor grid
  reading atoms ...
  4560 atoms
  reading velocities ...
  4560 velocities
  scanning bonds ...
  3 = max bonds/atom
  scanning angles ...
  3 = max angles/atom
  scanning dihedrals ...
  8 = max dihedrals/atom
  scanning impropers ...
  1 = max impropers/atom
  reading bonds ...
  5040 bonds
  reading angles ...
  7200 angles
  reading dihedrals ...
  10560 dihedrals
  reading impropers ...
  2400 impropers
Finding 1-2 1-3 1-4 neighbors ...
 Special bond factors lj:   0          0          0         
 Special bond factors coul: 0          0          0         
  4 = max # of 1-2 neighbors
  8 = max # of 1-3 neighbors
  20 = max # of 1-4 neighbors
  16 = max # of special neighbors
4560 atoms in group all
720 atoms in group C
480 atoms in group S
1920 atoms in group H
720 atoms in group Si
240 atoms in group Na
240 atoms in group Ba
240 atoms in group O
4560 atoms in group naphthalene
2400 atoms in group carbon
960 atoms in group CO
Setting atom values ...
  720 settings made for charge
Setting atom values ...
  720 settings made for charge
Setting atom values ...
  1920 settings made for charge
Setting atom values ...
  480 settings made for charge
Setting atom values ...
  240 settings made for charge
Setting atom values ...
  240 settings made for charge
Setting atom values ...
  240 settings made for charge
Finding 1-2 1-3 1-4 neighbors ...
 Special bond factors lj:   0          0          0.5       
 Special bond factors coul: 0          0          0.5       
  4 = max # of 1-2 neighbors
  8 = max # of 1-3 neighbors
  20 = max # of 1-4 neighbors
  16 = max # of special neighbors
Neighbor list info ...
  4 neighbor list requests
  update every 1 steps, delay 0 steps, check yes
  master list distance cutoff = 12
Setting up run ...
Memory usage per processor = 13.4064 Mbytes
Step Temp Density PotEng E_vdwl E_tail E_coul E_long Press Volume Xy Xz Yz E_mol E_bond E_angle E_dihed 14[1] 14[2] 14[3] msd[4] msd2[4] msd3[4] msd4[4] naphthal Cella Cellb Cellc CellAlpha CellBeta CellGamma 2 3 27[1] 27[2] 27[3] 28[1] 28[2] 28[3] 
       0          298    1.2509986     3498.833            0            0            0            0   -15873.524    44657.537 -0.067234084   -17.036218 -0.041707817     3498.833    1521.0094     935.4334    889.67826    28.379601    18.846571    14.337846 7.7711016e-30 8.8746852e-30 6.8181724e-30 5.7534156e-30          298     41.49527    35.978931    34.423473    90.016431    119.66323    90.107069 6.885379e-28 4.9466509e-24    28.379557    18.849013    14.339638    28.379812    18.845474    14.337264 
   10000    293.67842    1.2509986    3667.1711            0            0            0            0    1763.4168    44657.537 -0.067234084   -17.036218 -0.041707817    3667.1711    1525.5559    1031.6179    948.03713    28.377849    18.849045    14.337661 0.00036674169 0.00036603129    1.4242912    1.4242704    293.67842     41.49527    35.978931    34.423473    90.016431    119.66323    90.107069    126.72317    220.04501    28.379423    18.848573    14.338932    28.376646    18.848618    14.336333 
   20000    297.12472    1.2509986    3563.1407            0            0            0            0   -796.19631    44657.537 -0.067234084   -17.036218 -0.041707817    3563.1407    1444.8053    995.97291    962.64116    28.379626     18.85389     14.33986 0.00036774982 0.00036718914    1.9556783    1.9555962    297.12472     41.49527    35.978931    34.423473    90.016431    119.66323    90.107069    174.00217    220.64989     28.37969    18.849057    14.340373    28.380638    18.854336    14.338944 
   30000     300.0522    1.2509986    3547.1649            0            0            0            0     1040.637    44657.537 -0.067234084   -17.036218 -0.041707817    3547.1649    1498.3625    983.95439     907.2077    28.378278    18.853797    14.336417 0.00036416175 0.0003639382    2.2829745    2.2829053     300.0522     41.49527    35.978931    34.423473    90.016431    119.66323    90.107069    203.12264    218.49705    28.379542    18.848544    14.339694    28.379079    18.853708    14.336289 
   40000     295.8143    1.2509986    3600.3481            0            0            0            0    434.59929    44657.537 -0.067234084   -17.036218 -0.041707817    3600.3481    1527.3621    954.12253    958.12851    28.379975    18.848916    14.333852 0.00039493717 0.00039392609    2.5162839    2.5162556     295.8143     41.49527    35.978931    34.423473    90.016431    119.66323    90.107069    223.88082     236.9623    28.378803    18.849492    14.340101    28.377868    18.849027    14.333811 
   50000    291.76582    1.2509986    3597.3228            0            0            0            0    -158.5191    44657.537 -0.067234084   -17.036218 -0.041707817    3597.3228    1529.7703    1023.5486    889.85033    28.380216     18.85093    14.343297 0.00038076448 0.00037932556    2.6990666    2.6989712    291.76582     41.49527    35.978931    34.423473    90.016431    119.66323    90.107069    240.14351    228.45869    28.379153    18.847888    14.339531    28.380709    18.851426    14.344959 
   60000    293.70935    1.2509986    3537.4212            0            0            0            0    3.3182788    44657.537 -0.067234084   -17.036218 -0.041707817    3537.4212    1429.6944    1025.3243    924.78562    28.377958    18.850226     14.33493 0.00035512325 0.00035462521    2.7713471    2.7713113    293.70935     41.49527    35.978931    34.423473    90.016431    119.66323    90.107069    246.57451    213.07395    28.379736    18.849525    14.339187    28.378403    18.850097    14.333742 
   70000    299.63998    1.2509986    3613.5837            0            0            0            0     -1401.15    44657.537 -0.067234084   -17.036218 -0.041707817    3613.5837     1539.011    997.19477    922.43391    28.383464    18.850944    14.343661 0.00037660545 0.00037521453    2.7906501    2.7905344    299.63998     41.49527    35.978931    34.423473    90.016431    119.66323    90.107069    248.29196    225.96327    28.378498    18.848804    14.339161    28.382517    18.852723    14.344737 
   80000     292.5464    1.2509986    3506.4263            0            0            0            0    111.81859    44657.537 -0.067234084   -17.036218 -0.041707817    3506.4263    1446.6353    999.39571    906.14543    28.381298    18.853635    14.341136 0.0003717132 0.00037045589     2.880984    2.8808987     292.5464     41.49527    35.978931    34.423473    90.016431    119.66323    90.107069    256.32922    223.02792    28.379533     18.85013     14.33955    28.381302    18.853698    14.341201 
   90000    298.34217    1.2509986    3629.3399            0            0            0            0    2423.4473    44657.537 -0.067234084   -17.036218 -0.041707817    3629.3399    1496.7388    1025.0646     949.2394    28.379953    18.849335    14.341811 0.0003326016 0.0003307073     3.074353    3.0743194    298.34217     41.49527    35.978931    34.423473    90.016431    119.66323    90.107069     273.5338    199.56096    28.379653     18.84896     14.34101    28.381139     18.84814    14.342238 
  100000    306.59753    1.2509986    3640.7874            0            0            0            0    520.81643    44657.537 -0.067234084   -17.036218 -0.041707817    3640.7874    1529.0485    1027.9323    928.28708    28.380783     18.85306    14.338019 0.00036008446 0.00035897025    2.9703366    2.9702382    306.59753     41.49527    35.978931    34.423473    90.016431    119.66323    90.107069    264.27917    216.05067    28.379646    18.848618    14.338663     28.38164    18.855134    14.338599 
  110000    296.28527    1.2509986    3566.0643            0            0            0            0    280.87068    44657.537 -0.067234084   -17.036218 -0.041707817    3566.0643    1472.8027    1012.8295    926.71755    28.382105    18.852583    14.336457 0.0003374338 0.00033564751    2.9355259     2.935453    296.28527     41.49527    35.978931    34.423473    90.016431    119.66323    90.107069    261.18196    202.46028     28.37975    18.850314    14.339876    28.381945     18.85358    14.335645 
  120000    305.18639    1.2509986    3573.1769            0            0            0            0    1901.8914    44657.537 -0.067234084   -17.036218 -0.041707817    3573.1769    1508.5226    999.56081    909.41522    28.376176    18.846106    14.343168 0.00034377172 0.00034358926    2.7923111    2.7922508    305.18639     41.49527    35.978931    34.423473    90.016431    119.66323    90.107069    248.43974    206.26303    28.379431     18.84941    14.339734    28.375347    18.846079     14.34359 
  130000    295.41835    1.2509986    3564.9104            0            0            0            0   -392.56889    44657.537 -0.067234084   -17.036218 -0.041707817    3564.9104    1450.2165    1026.6232     928.5811     28.37682    18.845775     14.34048 0.00032143833 0.00032086038    2.6484457    2.6484231    295.41835     41.49527    35.978931    34.423473    90.016431    119.66323    90.107069    235.63963      192.863    28.380103    18.848807    14.339152    28.376854    18.847134    14.340589 
  140000    295.40986    1.2509986    3601.8133            0            0            0            0   -1366.2482    44657.537 -0.067234084   -17.036218 -0.041707817    3601.8133    1510.7575    1040.2852    901.58227    28.376459    18.846599    14.337362 0.00035748046 0.0003564575    2.6976348    2.6976131    295.40986     41.49527    35.978931    34.423473    90.016431    119.66323    90.107069    240.01612    214.48827    28.378662    18.848608    14.339394    28.375582    18.846967    14.338522 
  150000    298.05064    1.2509986    3609.5191            0            0            0            0    886.71511    44657.537 -0.067234084   -17.036218 -0.041707817    3609.5191    1475.4501    1023.7254    950.20983    28.377285     18.85099      14.3413 0.0003509502 0.00034701873    2.7948327    2.7948005    298.05064     41.49527    35.978931    34.423473    90.016431    119.66323    90.107069    248.66409    210.57012    28.379119    18.847944     14.34125    28.377533    18.850284    14.339247 
  160000     299.6751    1.2509986    3570.3542            0            0            0            0   -265.75659    44657.537 -0.067234084   -17.036218 -0.041707817    3570.3542    1485.3788     1025.625    904.11125    28.384679    18.846373    14.345653 0.00035177107 0.00035089502    2.6534636    2.6533575     299.6751     41.49527    35.978931    34.423473    90.016431    119.66323    90.107069    236.08608    211.06264    28.378683    18.848685    14.339567    28.384417    18.846571    14.346414 
  170000    297.57361    1.2509986    3704.2739            0            0            0            0   -1250.9675    44657.537 -0.067234084   -17.036218 -0.041707817    3704.2739    1525.3582    1009.4952    997.20895    28.377077    18.853315    14.337162 0.00035942812 0.00035764712    2.8131367    2.8130642    297.57361     41.49527    35.978931    34.423473    90.016431    119.66323    90.107069    250.29265    215.65687    28.378735    18.849183      14.3386    28.376865    18.852937    14.334402 
  180000    294.05482    1.2509986    3544.4737            0            0            0            0   -1218.6508    44657.537 -0.067234084   -17.036218 -0.041707817    3544.4737    1467.6253    1014.7573    909.04681    28.377574    18.846837     14.33257 0.00037073769 0.00036931202    2.8630931    2.8630471    294.05482     41.49527    35.978931    34.423473    90.016431    119.66323    90.107069    254.73741    222.44262    28.379432    18.848913    14.338455    28.374817    18.847932    14.333391 
  190000    297.14475    1.2509986    3563.1265            0            0            0            0    194.93144    44657.537 -0.067234084   -17.036218 -0.041707817    3563.1265     1450.807    1039.5262    916.85899     28.37633    18.848145    14.334697 0.0003561941 0.00035613572    2.9020931    2.9020547    297.14475     41.49527    35.978931    34.423473    90.016431    119.66323    90.107069    258.20735    213.71646    28.379742    18.848909    14.339522    28.374811    18.848627    14.335408 
  200000    301.76472    1.2509986    3632.3705            0            0            0            0    1183.9206    44657.537 -0.067234084   -17.036218 -0.041707817    3632.3705    1517.5827    1037.3417    923.07125    28.378572     18.84517    14.338547 0.00039273582 0.00039133484    2.9949545    2.9949454    301.76472     41.49527    35.978931    34.423473    90.016431    119.66323    90.107069    266.46949    235.64149    28.379427    18.848014    14.339016    28.377035    18.845603    14.338442 
  210000    293.38416    1.2509986    3673.0646            0            0            0            0   -1533.5146    44657.537 -0.067234084   -17.036218 -0.041707817    3673.0646    1515.7928    1068.7559    929.64818    28.377801    18.851223    14.337875 0.00036154752 0.00035915456    2.9664904    2.9664479    293.38416     41.49527    35.978931    34.423473    90.016431    119.66323    90.107069    263.93696    216.92851    28.380951    18.848368    14.339453    28.377118    18.850713    14.340063 
  220000    295.12914    1.2509986    3593.2125            0            0            0            0     -1139.49    44657.537 -0.067234084   -17.036218 -0.041707817    3593.2125    1492.9175     1023.153    920.07388    28.378776    18.839333    14.340944  0.000355012 0.00035481994    2.9782317    2.9781655    295.12914     41.49527    35.978931    34.423473    90.016431    119.66323    90.107069    264.98161     213.0072    28.379938    18.848937    14.339436    28.380745    18.839713    14.342933 
  230000    300.36826    1.2509986     3586.981            0            0            0            0   -191.35062    44657.537 -0.067234084   -17.036218 -0.041707817     3586.981    1516.9715    984.34619    927.63842    28.381718    18.848949    14.338895 0.00034899394 0.00034678916    2.9261561      2.92614    300.36826     41.49527    35.978931    34.423473    90.016431    119.66323    90.107069     260.3483    209.39636     28.38059    18.848221    14.340351    28.381223    18.848684    14.339213 
  240000    299.08516    1.2509986    3578.2004            0            0            0            0   -1256.7559    44657.537 -0.067234084   -17.036218 -0.041707817    3578.2004    1504.7479    1003.8936    914.83246    28.381199    18.849422    14.341457 0.00035250926 0.00035232457    2.8337524    2.8336996    299.08516     41.49527    35.978931    34.423473    90.016431    119.66323    90.107069    252.12689    211.50556    28.379325    18.849117    14.339291    28.382625    18.848618    14.343185 
  250000    301.45703    1.2509986    3642.0938            0            0            0            0    682.37127    44657.537 -0.067234084   -17.036218 -0.041707817    3642.0938    1491.7254    1041.2997    947.25258     28.37822    18.849385     14.33687 0.00033093933 0.00032879676    2.9930647    2.9930316    301.45703     41.49527    35.978931    34.423473    90.016431    119.66323    90.107069    266.30135     198.5636    28.380345    18.849291    14.338436    28.377513    18.850731    14.336821 
  260000    296.11085    1.2509986    3617.5073            0            0            0            0    1282.7052    44657.537 -0.067234084   -17.036218 -0.041707817    3617.5073    1447.0871    1048.5819    957.92267    28.372944    18.853485     14.34063 0.00039093493 0.00038713148    2.9257731    2.9256057    296.11085     41.49527    35.978931    34.423473    90.016431    119.66323    90.107069    260.31422    234.56096    28.378141    18.848154    14.340669    28.372855    18.855553    14.341429 
  270000    296.46664    1.2509986     3580.116            0            0            0            0   -59.378118    44657.537 -0.067234084   -17.036218 -0.041707817     3580.116    1503.1475    1015.6545    907.41385    28.375682    18.844977    14.346945 0.00037104013 0.00036999114    2.8286701    2.8285531    296.46664     41.49527    35.978931    34.423473    90.016431    119.66323    90.107069     251.6747    222.62408    28.378806    18.849708    14.339697    28.375642    18.846103    14.347225 
  280000    289.55264    1.2509986    3559.8781            0            0            0            0    1025.2809    44657.537 -0.067234084   -17.036218 -0.041707817    3559.8781    1475.8633    1034.5665      894.403    28.376804    18.849078    14.335947 0.00036313698 0.00036234853     2.738951    2.7389411    289.55264     41.49527    35.978931    34.423473    90.016431    119.66323    90.107069    243.69214    217.88219     28.37882    18.849507    14.339672    28.378471    18.847909    14.335795 
  290000    296.89761    1.2509986    3602.1807            0            0            0            0     1215.942    44657.537 -0.067234084   -17.036218 -0.041707817    3602.1807    1488.9114    1018.6951    933.96716    28.377641    18.849395    14.338367 0.0003478133 0.00034699474    2.7525791    2.7525454    296.89761     41.49527    35.978931    34.423473    90.016431    119.66323    90.107069    244.90467    208.68798    28.379893    18.849605    14.339043    28.378055     18.85049    14.339597 
  300000    298.43468    1.2509986    3576.0588            0            0            0            0   -445.51917    44657.537 -0.067234084   -17.036218 -0.041707817    3576.0588    1494.0111    1019.9327    908.33073    28.373216     18.85219    14.334817 0.00034147928 0.00034053046    2.8285295    2.8284628    298.43468     41.49527    35.978931    34.423473    90.016431    119.66323    90.107069    251.66219    204.88757    28.379048    18.848575    14.340344    28.373999    18.850716    14.334923 
  310000    303.33704    1.2509986    3559.4291            0            0            0            0    606.85394    44657.537 -0.067234084   -17.036218 -0.041707817    3559.4291    1484.4125    1012.9857    904.53143    28.384076    18.851648    14.339987 0.00035810284 0.00035698507    3.1251246    3.1250472    303.33704     41.49527    35.978931    34.423473    90.016431    119.66323    90.107069    278.05109     214.8617    28.378832    18.849518    14.339057    28.383201    18.852071    14.342003 
  320000    296.73895    1.2509986    3659.9616            0            0            0            0   -641.38596    44657.537 -0.067234084   -17.036218 -0.041707817    3659.9616    1513.0869    1016.3569    970.46662    28.376891    18.851795    14.339426 0.00035312346 0.00035120494    3.0208788    3.0208069    296.73895     41.49527    35.978931    34.423473    90.016431    119.66323    90.107069    268.77604    211.87407     28.37935    18.848326    14.338453     28.37751    18.853116    14.340128 
  330000    297.23618    1.2509986    3626.0734            0            0            0            0    170.71584    44657.537 -0.067234084   -17.036218 -0.041707817    3626.0734    1495.3215    1054.3062    922.47091    28.376348    18.849174    14.337324 0.0003775326 0.00037699839    2.9217937    2.9217655    297.23618     41.49527    35.978931    34.423473    90.016431    119.66323    90.107069    259.96017    226.51956    28.378898    18.849329    14.339647    28.376195    18.849361    14.337105 
  340000    301.92903    1.2509986    3611.9147            0            0            0            0   -2268.5547    44657.537 -0.067234084   -17.036218 -0.041707817    3611.9147    1499.9515    1009.8358    940.33579    28.379835    18.847725    14.339857 0.00034469068 0.00034376438    2.8929203    2.8929096    301.92903     41.49527    35.978931    34.423473    90.016431    119.66323    90.107069    257.39122    206.81441    28.379604     18.84807     14.33945    28.377533    18.846106    14.339527 
  350000    300.40004    1.2509986    3624.8743            0            0            0            0   -1178.8111    44657.537 -0.067234084   -17.036218 -0.041707817    3624.8743    1519.4487     999.1988    943.17616    28.376675    18.845408    14.345287 0.00035556344 0.00034934345    2.8839183    2.8838173    300.40004     41.49527    35.978931    34.423473    90.016431    119.66323    90.107069    256.59029    213.33807    28.377462    18.848225    14.338538    28.375781    18.844305    14.346395 
  360000    292.28022    1.2509986    3594.3145            0            0            0            0   -974.95274    44657.537 -0.067234084   -17.036218 -0.041707817    3594.3145    1494.7521    1009.4357    931.89292    28.379019    18.848716    14.339588 0.00037583802 0.00037303444    2.8853855     2.885372    292.28022     41.49527    35.978931    34.423473    90.016431    119.66323    90.107069    256.72082    225.50281    28.379091    18.847516    14.339049     28.37806    18.847641    14.339654 
  370000    295.96971    1.2509986    3520.8985            0            0            0            0   -75.687474    44657.537 -0.067234084   -17.036218 -0.041707817    3520.8985     1447.905    1007.4916    912.16611    28.383297    18.846998    14.336739 0.00038443841 0.00038213412    2.9105684    2.9105358    295.96971     41.49527    35.978931    34.423473    90.016431    119.66323    90.107069    258.96142    230.66305    28.380788    18.849836    14.339304    28.384957    18.847626     14.33601 
  380000    302.40293    1.2509986    3618.3711            0            0            0            0   -1130.0472    44657.537 -0.067234084   -17.036218 -0.041707817    3618.3711    1514.9128    1010.3551    932.98555    28.386411    18.854702    14.343101 0.00038182739 0.00038037058    2.8044844    2.8043324    302.40293     41.49527    35.978931    34.423473    90.016431    119.66323    90.107069    249.52283    229.09643    28.380158    18.849367    14.340623    28.385827    18.853863    14.344007 
  390000    294.79448    1.2509986    3547.4004            0            0            0            0    902.29638    44657.537 -0.067234084   -17.036218 -0.041707817    3547.4004    1480.4311    975.34825    933.64265    28.378195    18.850462    14.339502 0.00037173477 0.0003696299    2.5862685    2.5862413    294.79448     41.49527    35.978931    34.423473    90.016431    119.66323    90.107069    230.10755    223.04086    28.379197    18.850409     14.33948     28.37864    18.849955    14.339651 
  400000    301.41085    1.2509986    3500.9273            0            0            0            0   -220.01802    44657.537 -0.067234084   -17.036218 -0.041707817    3500.9273    1436.3772    983.96407    924.47848    28.378773    18.845565     14.33925 0.00034982273 0.00034722803    2.4045647    2.4045597    301.41085     41.49527    35.978931    34.423473    90.016431    119.66323    90.107069    213.94085    209.89364    28.378979     18.85033    14.338912    28.379443    18.843482    14.338202 
  410000    299.76595    1.2509986    3609.2741            0            0            0            0   -217.89539    44657.537 -0.067234084   -17.036218 -0.041707817    3609.2741    1527.1862    1012.8782    917.43909    28.378016    18.848296    14.340721 0.00036409654 0.00036210166    2.5843804    2.5843519    299.76595     41.49527    35.978931    34.423473    90.016431    119.66323    90.107069    229.93956    218.45792    28.380825     18.84903    14.339016    28.378002    18.848607    14.341187 
  420000    290.10002    1.2509986    3509.0631            0            0            0            0   -1033.8822    44657.537 -0.067234084   -17.036218 -0.041707817    3509.0631    1475.1845    965.31449    916.18697    28.379872    18.847828    14.342754 0.00035963315 0.00035832925    2.6049569    2.6049378    290.10002     41.49527    35.978931    34.423473    90.016431    119.66323    90.107069    231.77031    215.77989    28.379451    18.849133    14.338508    28.379362    18.846772    14.341416 
  430000    301.70545    1.2509986     3612.431            0            0            0            0   -235.82522    44657.537 -0.067234084   -17.036218 -0.041707817     3612.431     1487.823    1057.1822    912.01176    28.382518    18.856193    14.343027 0.00036568179 0.00036218899    2.7257561    2.7255645    301.70545     41.49527    35.978931    34.423473    90.016431    119.66323    90.107069    242.51815    219.40907    28.380248    18.847865    14.340941    28.383396    18.856563    14.344732 
  440000    296.86973    1.2509986    3541.7951            0            0            0            0    108.35452    44657.537 -0.067234084   -17.036218 -0.041707817    3541.7951    1472.8319    1001.8289    907.53286     28.37942    18.846147    14.342845 0.00037073227 0.00036988934    2.6664184    2.6663701    296.86973     41.49527    35.978931    34.423473    90.016431    119.66323    90.107069    237.23871    222.43936    28.379859    18.849855    14.339432    28.377416    18.845519    14.343793 
  450000    297.14046    1.2509986    3630.4901            0            0            0            0   -1722.9747    44657.537 -0.067234084   -17.036218 -0.041707817    3630.4901    1523.0076    1022.4082    926.51715    28.375421    18.843747      14.3354 0.00036406075 0.00036014824    2.6666862    2.6666527    297.14046     41.49527    35.978931    34.423473    90.016431    119.66323    90.107069    237.26254    218.43645    28.378218    18.850084    14.340624    28.374723     18.84285     14.33643 
  460000     298.6759    1.2509986    3620.8957            0            0            0            0    1512.7605    44657.537 -0.067234084   -17.036218 -0.041707817    3620.8957    1501.4076    1012.2166    950.08202    28.376141    18.854378    14.340278 0.00035967748 0.00035555766    2.6757967    2.6756793     298.6759     41.49527    35.978931    34.423473    90.016431    119.66323    90.107069    238.07313    215.80649    28.378074    18.848343    14.340851    28.376951    18.855522    14.340145 
  470000    302.49302    1.2509986    3676.2518            0            0            0            0    1009.9078    44657.537 -0.067234084   -17.036218 -0.041707817    3676.2518    1537.9322    1055.9866     926.6974    28.384831    18.849855    14.343796 0.00036094039  0.000359239    2.7653734    2.7652776    302.49302     41.49527    35.978931    34.423473    90.016431    119.66323    90.107069    246.04301    216.56423    28.379257    18.849677     14.34072    28.383392    18.851657    14.343954 
  480000    299.70532    1.2509986    3600.5726            0            0            0            0    -104.9637    44657.537 -0.067234084   -17.036218 -0.041707817    3600.5726    1485.4495     1005.002    948.54881    28.379603    18.850806    14.339616 0.00035719418 0.00035301765    2.8110156    2.8109962    299.70532     41.49527    35.978931    34.423473    90.016431    119.66323    90.107069    250.10393    214.31651    28.379906    18.850485    14.338264    28.378507    18.849551    14.338303 
  490000     293.3897    1.2509986    3563.2908            0            0            0            0    1699.8871    44657.537 -0.067234084   -17.036218 -0.041707817    3563.2908    1468.6653    1032.4407    908.01816    28.380465    18.847362    14.335714 0.00035943096 0.0003579989    2.6698217    2.6698065     293.3897     41.49527    35.978931    34.423473    90.016431    119.66323    90.107069    237.54152    215.65857    28.380284    18.848648    14.340516    28.381734    18.847286    14.334395 
  500000    302.35198    1.2509986    3538.8816            0            0            0            0    149.89818    44657.537 -0.067234084   -17.036218 -0.041707817    3538.8816    1473.2805     1002.884    906.43115    28.378637    18.849022    14.337869 0.00036073379 0.0003606481    2.6691496    2.6691419    302.35198     41.49527    35.978931    34.423473    90.016431    119.66323    90.107069    237.48171    216.44027    28.379331    18.849088    14.339468    28.377724    18.846507    14.335753 
  510000    299.53759    1.2509986    3553.5117            0            0            0            0     204.4709    44657.537 -0.067234084   -17.036218 -0.041707817    3553.5117     1448.908    1001.5137    940.31326    28.380799    18.848983    14.341228 0.00036598091 0.00036252723    2.7356696    2.7356385    299.53759     41.49527    35.978931    34.423473    90.016431    119.66323    90.107069    243.40019    219.58855    28.377817    18.848527    14.339201    28.380392    18.846498    14.342723 
  520000    301.00378    1.2509986    3536.7121            0            0            0            0    862.87045    44657.537 -0.067234084   -17.036218 -0.041707817    3536.7121    1462.3405    1008.4045    913.56098    28.377219    18.852129    14.342935 0.00038799647 0.00038623658    2.8183541    2.8182758    301.00378     41.49527    35.978931    34.423473    90.016431    119.66323    90.107069    250.75686    232.79788    28.378745    18.847978    14.339464    28.375837    18.851606    14.342258 
  530000    292.09782    1.2509986    3643.9584            0            0            0            0    148.32572    44657.537 -0.067234084   -17.036218 -0.041707817    3643.9584    1496.1296    1034.3088    954.71793     28.37803    18.851895    14.337161 0.0003483367 0.0003476522    2.6831538    2.6830937    292.09782     41.49527    35.978931    34.423473    90.016431    119.66323    90.107069    238.72771    209.00202    28.379295    18.849736    14.339333    28.380259    18.853212    14.337435 
  540000    301.48261    1.2509986    3496.5479            0            0            0            0    884.80395    44657.537 -0.067234084   -17.036218 -0.041707817    3496.5479    1457.8504    999.74972     887.9849    28.382302    18.853145    14.340675 0.00035096515 0.00034847785    2.7305688    2.7304826    301.48261     41.49527    35.978931    34.423473    90.016431    119.66323    90.107069    242.94635    210.57909    28.381019    18.849195    14.340199    28.383924    18.853088    14.340633 
  550000    302.59862    1.2509986    3595.8825            0            0            0            0     942.9889    44657.537 -0.067234084   -17.036218 -0.041707817    3595.8825    1452.6807    1056.1462    928.16871    28.386514    18.849978     14.33557 0.00040731158 0.00040688594    2.6670672    2.6669884    302.59862     41.49527    35.978931    34.423473    90.016431    119.66323    90.107069    237.29643    244.38695    28.379359     18.84908     14.33902    28.387057    18.850507    14.336261 
  560000    298.39207    1.2509986    3564.9428            0            0            0            0    554.79613    44657.537 -0.067234084   -17.036218 -0.041707817    3564.9428    1431.2772    1036.6717     938.3968    28.380926    18.846648    14.336787 0.00035388504 0.0003528824    2.6504139    2.6504022    298.39207     41.49527    35.978931    34.423473    90.016431    119.66323    90.107069    235.81474    212.33103    28.378947    18.848934    14.338847    28.381527    18.847709    14.335324 
  570000    298.16865    1.2509986    3624.4457            0            0            0            0    897.08058    44657.537 -0.067234084   -17.036218 -0.041707817    3624.4457    1461.6125    1047.5007     956.5376    28.377478    18.854036    14.338105 0.0003889352 0.00038860406     2.711938    2.7118757    298.16865     41.49527    35.978931    34.423473    90.016431    119.66323    90.107069    241.28872    233.36112    28.379839    18.848603    14.339926    28.378339    18.853197    14.337969 
  580000    301.59495    1.2509986    3692.5934            0            0            0            0   -211.68538    44657.537 -0.067234084   -17.036218 -0.041707817    3692.5934    1526.1136    1054.9898    950.37581    28.380485    18.851821     14.33587 0.00035227425 0.00035105722    2.5822355    2.5821992    301.59495     41.49527    35.978931    34.423473    90.016431    119.66323    90.107069    229.74873    211.36455    28.379757    18.849468    14.340623    28.381152    18.851243     14.33614 
  590000    298.92637    1.2509986    3594.9652            0            0            0            0   -383.36908    44657.537 -0.067234084   -17.036218 -0.041707817    3594.9652    1509.5198    1006.3734    918.44949    28.380729     18.84738    14.341341 0.00038155409 0.00038116034    2.5037096    2.5036711    298.92637     41.49527    35.978931    34.423473    90.016431    119.66323    90.107069    222.76205    228.93246     28.37914    18.848827    14.339207    28.380825    18.848202    14.342741 
  600000     300.4535    1.2509986    3577.7759            0            0            0            0    113.70797    44657.537 -0.067234084   -17.036218 -0.041707817    3577.7759    1482.6766    999.53867    937.39948    28.384987    18.850712     14.34015 0.00036791535 0.00036704475    2.7371212     2.737071     300.4535     41.49527    35.978931    34.423473    90.016431    119.66323    90.107069    243.52934    220.74921    28.379053    18.849713    14.339994    28.384606    18.850077    14.339714 
  610000    299.91341    1.2509986    3538.6174            0            0            0            0    252.17653    44657.537 -0.067234084   -17.036218 -0.041707817    3538.6174     1490.948    999.51441    898.93781    28.375805    18.840476    14.337532 0.00040053818 0.00039780466    2.7619344     2.761912    299.91341     41.49527    35.978931    34.423473    90.016431    119.66323    90.107069    245.73703    240.32291    28.380372     18.84797    14.340628    28.376991    18.841692    14.337533 
  620000    294.37006    1.2509986    3533.1695            0            0            0            0    1260.1258    44657.537 -0.067234084   -17.036218 -0.041707817    3533.1695    1451.1743    991.89423    929.81777    28.379388    18.854448    14.334872 0.00035247106 0.00035234051    2.5974163    2.5973502    294.37006     41.49527    35.978931    34.423473    90.016431    119.66323    90.107069     231.0994    211.48264    28.379724    18.848704    14.339722    28.378929    18.852826    14.333902 
  630000    294.44471    1.2509986    3523.0857            0            0            0            0    237.02421    44657.537 -0.067234084   -17.036218 -0.041707817    3523.0857    1459.6811    995.00519    914.79969       28.385    18.849408    14.342365 0.00037376161 0.00037297778    2.5596506    2.5595884    294.44471     41.49527    35.978931    34.423473    90.016431    119.66323    90.107069    227.73928    224.25697    28.379671    18.849601     14.34029    28.384207     18.84966    14.342299 
  640000    298.14207    1.2509986    3615.1702            0            0            0            0     1291.924    44657.537 -0.067234084   -17.036218 -0.041707817    3615.1702    1481.3802    1007.3185    964.36282    28.383509    18.854611    14.339301 0.00037815042 0.00037803238    2.7511128     2.750979    298.14207     41.49527    35.978931    34.423473    90.016431    119.66323    90.107069    244.77421    226.89025     28.37934    18.848812    14.339814    28.384539    18.855827    14.339349 
  650000     298.0688    1.2509986    3605.9125            0            0            0            0   -584.25785    44657.537 -0.067234084   -17.036218 -0.041707817    3605.9125    1524.6378    1014.6077     909.2542    28.375428    18.853167    14.338027 0.00034905135 0.00034755786    2.6086664    2.6085904     298.0688     41.49527    35.978931    34.423473    90.016431    119.66323    90.107069    232.10036    209.43081    28.379876     18.84972    14.338694     28.37322    18.851067    14.338396 
  660000    297.44038    1.2509986    3621.1842            0            0            0            0   -884.21736    44657.537 -0.067234084   -17.036218 -0.041707817    3621.1842     1511.931    1024.3488     924.8282    28.384843    18.850248    14.339719 0.00035954884 0.00035707786    2.6737626    2.6736899    297.44038     41.49527    35.978931    34.423473    90.016431    119.66323    90.107069    237.89214     215.7293    28.378397    18.848597    14.340615    28.385948    18.851284    14.338372 
  670000      298.789    1.2509986    3633.6953            0            0            0            0   -2980.4207    44657.537 -0.067234084   -17.036218 -0.041707817    3633.6953     1499.177    1019.3441    958.67026    28.375448    18.848504    14.342599 0.00033930306 0.00033700827    2.7045932    2.7045503      298.789     41.49527    35.978931    34.423473    90.016431    119.66323    90.107069    240.63523    203.58184    28.378206    18.848341    14.339502    28.376522    18.849419    14.341331 
  680000    300.37213    1.2509986    3556.0434            0            0            0            0     345.4853    44657.537 -0.067234084   -17.036218 -0.041707817    3556.0434    1441.6353    1027.3451    931.23216    28.373552      18.8504    14.342341 0.00035223144 0.00035117989    2.6714639    2.6713238    300.37213     41.49527    35.978931    34.423473    90.016431    119.66323    90.107069    237.68762    211.33886    28.378943    18.849721    14.340055    28.372059    18.850472    14.344681 
  690000    295.85623    1.2509986    3550.2029            0            0            0            0    118.50649    44657.537 -0.067234084   -17.036218 -0.041707817    3550.2029    1448.1206     1032.183    910.76525    28.381145    18.854098    14.340044 0.00038395386 0.00038327298    2.7810904    2.7810256    295.85623     41.49527    35.978931    34.423473    90.016431    119.66323    90.107069     247.4414    230.37232    28.379153    18.848449    14.339191    28.381674    18.852503    14.340728 
  700000    291.99851    1.2509986    3541.1337            0            0            0            0    1784.1398    44657.537 -0.067234084   -17.036218 -0.041707817    3541.1337    1479.1439    1009.4689    898.89421    28.380929    18.852692    14.342887 0.00038882609 0.00038751892    2.7343156    2.7342414    291.99851     41.49527    35.978931    34.423473    90.016431    119.66323    90.107069    243.27971    233.29565    28.379045    18.850024    14.339792    28.380127    18.852111    14.342746 
  710000    299.82681    1.2509986     3584.213            0            0            0            0   -653.99183    44657.537 -0.067234084   -17.036218 -0.041707817     3584.213    1472.8521     1032.381    922.13369    28.383483    18.853072    14.338131 0.00034836859 0.00034585542    2.5944445    2.5943576    299.82681     41.49527    35.978931    34.423473    90.016431    119.66323    90.107069    230.83499    209.02115    28.380122    18.848008    14.340726    28.383154    18.854073    14.335907 
  720000    298.58596    1.2509986    3522.2259            0            0            0            0    853.74103    44657.537 -0.067234084   -17.036218 -0.041707817    3522.2259    1457.7746    1012.1859     902.8601    28.378074    18.852633    14.344476 0.00033313786 0.00033252207    2.9111324    2.9109845    298.58596     41.49527    35.978931    34.423473    90.016431    119.66323    90.107069     259.0116    199.88272    28.378969    18.848651    14.339264    28.377951    18.854405    14.345303 
  730000    300.63827    1.2509986    3547.1226            0            0            0            0   -379.35844    44657.537 -0.067234084   -17.036218 -0.041707817    3547.1226    1436.1136    999.58922    954.31844    28.381463     18.84559     14.33763 0.00037453617 0.00037432625    2.9057725    2.9057669    300.63827     41.49527    35.978931    34.423473    90.016431    119.66323    90.107069    258.53472     224.7217    28.379666     18.84882    14.340039    28.382167    18.845159    14.337288 
  740000     300.1205    1.2509986    3642.8789            0            0            0            0   -1042.9434    44657.537 -0.067234084   -17.036218 -0.041707817    3642.8789    1505.0862    1045.3168    936.34805    28.382116    18.855856    14.339474 0.00032304352 0.00032271491    2.6225969    2.6224911     300.1205     41.49527    35.978931    34.423473    90.016431    119.66323    90.107069    233.33979    193.82611    28.379106     18.84936    14.339709    28.383548    18.854677    14.339931 
  750000    300.58522    1.2509986    3580.3611            0            0            0            0    1217.8462    44657.537 -0.067234084   -17.036218 -0.041707817    3580.3611    1500.2238    1009.3606    915.44521    28.376012    18.843703     14.34331 0.00035342909 0.00035174474    2.7436053    2.7435508    300.58522     41.49527    35.978931    34.423473    90.016431    119.66323    90.107069    244.10625    212.05746    28.379067    18.848795     14.34082    28.377294    18.844086    14.344061 
  760000    299.01444    1.2509986    3640.0958            0            0            0            0   -1423.8982    44657.537 -0.067234084   -17.036218 -0.041707817    3640.0958    1518.3474    1022.1218    938.48853    28.386009    18.849036    14.336626 0.00036224245 0.00036203984    2.8227577    2.8227098    299.01444     41.49527    35.978931    34.423473    90.016431    119.66323    90.107069    251.14866    217.34547     28.37932     18.84863    14.339652    28.386243    18.847999    14.337691 
  770000    295.67616    1.2509986    3613.7999            0            0            0            0   -257.67759    44657.537 -0.067234084   -17.036218 -0.041707817    3613.7999    1510.5441    996.80478    948.77738    28.383336    18.841103    14.336461 0.00034600766 0.00034225175    2.6950765    2.6950397    295.67616     41.49527    35.978931    34.423473    90.016431    119.66323    90.107069     239.7885     207.6046    28.377898    18.848575    14.340541    28.383076    18.840693    14.335465 
  780000    295.80717    1.2509986    3560.4055            0            0            0            0    285.50074    44657.537 -0.067234084   -17.036218 -0.041707817    3560.4055    1500.6516    997.87495    913.05283    28.378084    18.847412    14.341824 0.00032477889 0.00032362357    2.5793475    2.5793264    295.80717     41.49527    35.978931    34.423473    90.016431    119.66323    90.107069    229.49177    194.86733    28.379398    18.847985    14.339369    28.378421    18.845961    14.341617 
  790000     293.4428    1.2509986     3743.302            0            0            0            0    958.49359    44657.537 -0.067234084   -17.036218 -0.041707817     3743.302    1490.3967    1063.0095    1011.5221    28.382187    18.854702    14.337768 0.00035239513 0.00035219695    2.7566607    2.7565582     293.4428     41.49527    35.978931    34.423473    90.016431    119.66323    90.107069    245.26782    211.43708    28.379475    18.849326    14.339943    28.381832    18.855273    14.338808 
  800000    296.98443    1.2509986    3579.1745            0            0            0            0    1263.1394    44657.537 -0.067234084   -17.036218 -0.041707817    3579.1745    1423.2552      1060.13    934.97707    28.374301    18.848418    14.338604 0.00034744266 0.00034573887    2.7836385     2.783595    296.98443     41.49527    35.978931    34.423473    90.016431    119.66323    90.107069    247.66811     208.4656    28.380126    18.849259    14.340786    28.373984    18.848066    14.338949 
  810000    295.47113    1.2509986    3600.4486            0            0            0            0    165.83643    44657.537 -0.067234084   -17.036218 -0.041707817    3600.4486    1485.6891    1036.8928    918.66842    28.382757    18.841972    14.338279 0.00035627994 0.00035477522    2.7790307    2.7789788    295.47113     41.49527    35.978931    34.423473    90.016431    119.66323    90.107069    247.25814    213.76796     28.37953    18.849769    14.338673    28.383599    18.839362    14.336895 
  820000    294.81248    1.2509986    3575.8272            0            0            0            0    261.30487    44657.537 -0.067234084   -17.036218 -0.041707817    3575.8272    1459.2574    1019.0103    935.58426    28.374311    18.851909    14.343334 0.00037180335 0.00036970771    2.6159598    2.6158458    294.81248     41.49527    35.978931    34.423473    90.016431    119.66323    90.107069    232.74927    223.08201    28.379165    18.850128    14.340474    28.374226    18.851682    14.343914 
  830000    303.19678    1.2509986    3636.6181            0            0            0            0    448.23571    44657.537 -0.067234084   -17.036218 -0.041707817    3636.6181    1527.7337    1014.1343    931.55733    28.373732    18.851116    14.338849 0.00037009062 0.00036763416     2.954564    2.9544741    303.19678     41.49527    35.978931    34.423473    90.016431    119.66323    90.107069    262.87584    222.05437    28.377995    18.849064     14.33976    28.373306    18.852038    14.339404 
  840000    300.76751    1.2509986    3627.2633            0            0            0            0     1316.105    44657.537 -0.067234084   -17.036218 -0.041707817    3627.2633    1468.7507    1066.4776    933.09622    28.374945    18.848763    14.343903 0.00036738752 0.00036482466    2.9306753     2.930574    300.76751     41.49527    35.978931    34.423473    90.016431    119.66323    90.107069    260.75039    220.43251    28.379594     18.85058    14.339312    28.374429    18.848244    14.345304 
  850000    296.49083    1.2509986    3566.1207            0            0            0            0   -1878.3303    44657.537 -0.067234084   -17.036218 -0.041707817    3566.1207    1504.2413    982.25239    918.24269    28.382583    18.847156    14.339284 0.00036140419 0.00036123925    2.8571093    2.8570729    296.49083     41.49527    35.978931    34.423473    90.016431    119.66323    90.107069    254.20501    216.84252    28.379349    18.848679    14.339538    28.385049    18.845882    14.340228 
  860000    296.85437    1.2509986    3613.9623            0            0            0            0     405.7891    44657.537 -0.067234084   -17.036218 -0.041707817    3613.9623    1511.0014    996.25906    946.86975    28.383596    18.846242    14.345122 0.00041065986 0.0004098176    2.8907298    2.8906158    296.85437     41.49527    35.978931    34.423473    90.016431    119.66323    90.107069    257.19632    246.39592    28.380249    18.848447    14.339843    28.381732    18.844636     14.34773 
  870000    293.18013    1.2509986    3639.7767            0            0            0            0    1804.2661    44657.537 -0.067234084   -17.036218 -0.041707817    3639.7767     1487.299    1041.1415    962.97779    28.378006    18.849642    14.337992 0.00035553053 0.00035225312    2.8760968    2.8760657    293.18013     41.49527    35.978931    34.423473    90.016431    119.66323    90.107069    255.89438    213.31832    28.377792    18.849105    14.339243    28.379532    18.851036    14.337555 
  880000    296.57003    1.2509986    3593.9581            0            0            0            0    1079.1357    44657.537 -0.067234084   -17.036218 -0.041707817    3593.9581    1459.1365    1017.4232    955.72824    28.374542    18.849086    14.338748 0.00035038813 0.0003495191    2.6879705    2.6879475    296.57003     41.49527    35.978931    34.423473    90.016431    119.66323    90.107069    239.15626    210.23288    28.379093    18.848385    14.339127    28.375519    18.847623    14.337345 
  890000    299.09415    1.2509986    3566.0486            0            0            0            0    50.164534    44657.537 -0.067234084   -17.036218 -0.041707817    3566.0486    1406.1464    1040.3881    955.96835    28.378157    18.849492    14.344853 0.00033017156 0.00032941252     2.730352    2.7302551    299.09415     41.49527    35.978931    34.423473    90.016431    119.66323    90.107069    242.92706    198.10294    28.379466    18.849821    14.339325    28.379872    18.849925    14.346039 
  900000    295.30033    1.2509986    3633.0489            0            0            0            0   -469.53908    44657.537 -0.067234084   -17.036218 -0.041707817    3633.0489    1498.7461    1025.2368    945.55352    28.373961    18.849566    14.342082 0.00034352585 0.00034150914    2.9402936    2.9402231    295.30033     41.49527    35.978931    34.423473    90.016431    119.66323    90.107069    261.60615    206.11551    28.379788    18.850182    14.338865    28.374018    18.849581    14.341741 
  910000    294.16004    1.2509986    3566.7385            0            0            0            0   -1503.0923    44657.537 -0.067234084   -17.036218 -0.041707817    3566.7385    1502.9127    1008.6649    907.16019    28.385566    18.855076    14.339721 0.00035090002 0.00034954282    2.8201444    2.8199762    294.16004     41.49527    35.978931    34.423473    90.016431    119.66323    90.107069    250.91615    210.54001    28.380631    18.849317    14.339306    28.387758    18.855198    14.340505 
  920000    298.19315    1.2509986    3556.0118            0            0            0            0    764.14696    44657.537 -0.067234084   -17.036218 -0.041707817    3556.0118    1453.0756    1007.6658    936.83231    28.380801    18.843742    14.341376 0.00036969955 0.00036624683    2.8145407    2.8145162    298.19315     41.49527    35.978931    34.423473    90.016431    119.66323    90.107069    250.41757    221.81973    28.379821      18.8503    14.340952     28.38113    18.844107    14.341838 
  930000    305.75542    1.2509986    3595.5076            0            0            0            0     181.3335    44657.537 -0.067234084   -17.036218 -0.041707817    3595.5076    1501.0104    992.21184    950.77785    28.386862    18.847946    14.344228 0.00035575456 0.00035512663    2.9419159    2.9418143    305.75542     41.49527    35.978931    34.423473    90.016431    119.66323    90.107069     261.7505    213.45273    28.380175    18.849066    14.339146    28.385496    18.848754    14.344916 
  940000    300.57943    1.2509986    3572.3116            0            0            0            0    1756.8811    44657.537 -0.067234084   -17.036218 -0.041707817    3572.3116    1466.6774    1023.2359    921.02323    28.380041    18.850653    14.341923 0.00033558995 0.00033548002    2.8305469    2.8305076    300.57943     41.49527    35.978931    34.423473    90.016431    119.66323    90.107069    251.84168    201.35397    28.379581    18.849096    14.339318    28.380387    18.849798    14.341762 
  950000    292.64624    1.2509986    3653.8394            0            0            0            0       272.45    44657.537 -0.067234084   -17.036218 -0.041707817    3653.8394     1508.907    1037.9154    942.19586     28.38254    18.850003    14.339929 0.00036910003 0.00036885734    2.8664649     2.866413    292.64624     41.49527    35.978931    34.423473    90.016431    119.66323    90.107069    255.03741    221.46002    28.379637    18.849374    14.339313    28.383694    18.849199    14.342053 
  960000    296.18561    1.2509986     3585.275            0            0            0            0     958.4029    44657.537 -0.067234084   -17.036218 -0.041707817     3585.275    1533.5669    1002.6005    896.31867    28.375918    18.851619    14.336652 0.00034026818 0.00033899188    2.7233813    2.7233251    296.18561     41.49527    35.978931    34.423473    90.016431    119.66323    90.107069    242.30686    204.16091    28.380333    18.848455    14.340239    28.375527     18.85133    14.335377 
  970000    299.48911    1.2509986    3708.0073            0            0            0            0   -360.98336    44657.537 -0.067234084   -17.036218 -0.041707817    3708.0073    1549.8374    1032.8138    957.36625      28.3775    18.846122    14.336491 0.0003716687 0.0003702051    2.8649135    2.8648923    299.48911     41.49527    35.978931    34.423473    90.016431    119.66323    90.107069    254.89938    223.00122    28.378996    18.848622    14.340636    28.375727     18.84724    14.336087 
  980000     294.4533    1.2509986    3654.7151            0            0            0            0    2079.8266    44657.537 -0.067234084   -17.036218 -0.041707817    3654.7151    1505.2255    1041.8067    940.81571     28.38506    18.845809    14.338373 0.00036330522 0.00036188328    2.6876179    2.6875895     294.4533     41.49527    35.978931    34.423473    90.016431    119.66323    90.107069    239.12489    217.98313    28.379363    18.849169    14.340804     28.38485    18.844891    14.338896 
  990000    297.46559    1.2509986    3676.5858            0            0            0            0    85.203218    44657.537 -0.067234084   -17.036218 -0.041707817    3676.5858    1532.9855    1065.3072    919.71249    28.386932    18.853402    14.341453 0.00035881805 0.00035853724    2.8033887    2.8032515    297.46559     41.49527    35.978931    34.423473    90.016431    119.66323    90.107069    249.42534    215.29083    28.379139    18.848714    14.339508    28.388347    18.852958    14.340145 
 1000000    299.43264    1.2509986    3687.5654            0            0            0            0    2117.9724    44657.537 -0.067234084   -17.036218 -0.041707817    3687.5654    1532.9462    1056.5486     936.5596     28.38469    18.852992    14.336017 0.00034209703 0.00033780198    2.8214056      2.82129    299.43264     41.49527    35.978931    34.423473    90.016431    119.66323    90.107069    251.02836    205.25822    28.379497    18.850554    14.338254    28.385875    18.854343    14.336825 
 1010000    293.80789    1.2509986    3620.2951            0            0            0            0    1499.9501    44657.537 -0.067234084   -17.036218 -0.041707817    3620.2951    1519.1367    1002.0342    936.15311    28.386158    18.850934    14.337723 0.00036204048 0.00036164976    2.7393562    2.7392895    293.80789     41.49527    35.978931    34.423473    90.016431    119.66323    90.107069    243.72819    217.22429    28.380053    18.849124    14.340001    28.384971    18.851734    14.338217 
 1020000    304.01418    1.2509986    3571.5401            0            0            0            0   -1160.3023    44657.537 -0.067234084   -17.036218 -0.041707817    3571.5401    1485.7758     1045.276    888.22105    28.379641    18.846541    14.335651 0.00034754213 0.00034624991    2.6800732    2.6800681    304.01418     41.49527    35.978931    34.423473    90.016431    119.66323    90.107069    238.45362    208.52528    28.379199    18.849916    14.340228     28.38024      18.8453    14.335042 
 1030000    295.58987    1.2509986    3566.4072            0            0            0            0   -381.27619    44657.537 -0.067234084   -17.036218 -0.041707817    3566.4072    1439.7008    1042.9167    924.26498    28.378925    18.853789    14.341877 0.00035048993 0.00034884157    2.7837056    2.7835815    295.58987     41.49527    35.978931    34.423473    90.016431    119.66323    90.107069    247.67408    210.29396    28.380414    18.849749    14.340247    28.376389    18.854563    14.342722 
 1040000    295.12346    1.2509986    3600.6669            0            0            0            0    1696.2567    44657.537 -0.067234084   -17.036218 -0.041707817    3600.6669      1480.01    1011.7235    945.91387    28.377841    18.851817    14.341268 0.00034555039 0.00034534327    2.7048521    2.7047624    295.12346     41.49527    35.978931    34.423473    90.016431    119.66323    90.107069    240.65826    207.33023    28.379262     18.84935    14.339556    28.375884    18.852148    14.342711 
 1050000    300.40822    1.2509986    3526.7637            0            0            0            0    1713.1746    44657.537 -0.067234084   -17.036218 -0.041707817    3526.7637    1462.8619    1035.2654    883.25977     28.37461    18.845476    14.343216 0.00036780903 0.00036750265    2.7478686    2.7478048    300.40822     41.49527    35.978931    34.423473    90.016431    119.66323    90.107069    244.48556    220.68542    28.379654    18.849466    14.339335    28.373496    18.844115     14.34196 
 1060000    299.89512    1.2509986    3552.3812            0            0            0            0   -931.94056    44657.537 -0.067234084   -17.036218 -0.041707817    3552.3812    1449.0434    1012.1144    924.78661    28.377652    18.844265    14.336419 0.00034325045 0.00034239025    2.7734904    2.7734745    299.89512     41.49527    35.978931    34.423473    90.016431    119.66323    90.107069    246.76521    205.95027    28.379708    18.848236    14.340122    28.376219    18.844356    14.335946 
 1070000     301.0789    1.2509986    3541.1477            0            0            0            0    1193.1423    44657.537 -0.067234084   -17.036218 -0.041707817    3541.1477    1478.3063    1013.5705    899.92589    28.377745    18.851623    14.343044 0.00037107911 0.00037002411    2.7434515    2.7433533     301.0789     41.49527    35.978931    34.423473    90.016431    119.66323    90.107069    244.09256    222.64747    28.379046    18.849897    14.339749    28.377102    18.851438    14.344699 
 1080000    299.50258    1.2509986    3572.7229            0            0            0            0    1938.7824    44657.537 -0.067234084   -17.036218 -0.041707817    3572.7229    1433.8653     1049.213    933.00787    28.377943    18.849688    14.344377 0.00036443259 0.00036398756    2.8205284    2.8204507    299.50258     41.49527    35.978931    34.423473    90.016431    119.66323    90.107069    250.95031    218.65955    28.379385    18.849283    14.340223    28.377311     18.84973    14.344567 
 1090000    289.08114    1.2509986    3631.1377            0            0            0            0    2096.6556    44657.537 -0.067234084   -17.036218 -0.041707817    3631.1377     1489.936    1024.3122    952.43601    28.375721    18.844631    14.335701 0.00034539802 0.0003451513     2.769885    2.7698619    289.08114     41.49527    35.978931    34.423473    90.016431    119.66323    90.107069    246.44442    207.23881    28.379204    18.849342     14.33952    28.375964    18.845264    14.334393 
 1100000     296.8944    1.2509986     3561.869            0            0            0            0    69.919267    44657.537 -0.067234084   -17.036218 -0.041707817     3561.869    1470.1264    988.62806    944.53337    28.380821    18.845521    14.337904 0.00037510782 0.00037431431    2.7836297    2.7836286     296.8944     41.49527    35.978931    34.423473    90.016431    119.66323    90.107069    247.66733    225.06469     28.37871    18.849289    14.339635    28.378801    18.845511    14.337163 
 1110000    298.24038    1.2509986    3612.9788            0            0            0            0   -373.77973    44657.537 -0.067234084   -17.036218 -0.041707817    3612.9788    1488.8996     1042.515    922.38349    28.372393    18.857754     14.34275 0.0003624348 0.00035911906    2.8894587    2.8892138    298.24038     41.49527    35.978931    34.423473    90.016431    119.66323    90.107069    257.08323    217.46088    28.379044    18.849379     14.33793     28.37317    18.858585    14.342635 
 1120000    298.56101    1.2509986    3560.5974            0            0            0            0   -152.43294    44657.537 -0.067234084   -17.036218 -0.041707817    3560.5974    1470.5547    1046.3957    892.27649    28.382328    18.850501    14.341468 0.00036337456 0.0003607105    2.8730493    2.8729998    298.56101     41.49527    35.978931    34.423473    90.016431    119.66323    90.107069    255.62324    218.02473    28.380246    18.849316     14.33819    28.383759    18.850046    14.340871 
 1130000    297.54373    1.2509986    3568.9055            0            0            0            0    2445.0297    44657.537 -0.067234084   -17.036218 -0.041707817    3568.9055    1480.9492    1030.5898    902.55611     28.37819    18.847286    14.338271 0.00035467506 0.00035364028    2.7170344    2.7170192    297.54373     41.49527    35.978931    34.423473    90.016431    119.66323    90.107069    241.74215    212.80503    28.380091    18.848553    14.338905    28.376381    18.847144    14.336521 
 1140000    298.48581    1.2509986    3584.1899            0            0            0            0    40.065562    44657.537 -0.067234084   -17.036218 -0.041707817    3584.1899    1464.6208    1035.0133    928.27249    28.382281    18.849796    14.343937 0.00039015937 0.00038743544    2.8008794    2.8008025    298.48581     41.49527    35.978931    34.423473    90.016431    119.66323    90.107069    249.20208    234.09562    28.378373    18.849966    14.338994     28.38319    18.848899    14.344598 
 1150000    297.65417    1.2509986    3589.5012            0            0            0            0    6.2653888    44657.537 -0.067234084   -17.036218 -0.041707817    3589.5012    1488.9607    1030.6805    909.64386    28.381339    18.850195    14.339526 0.00036651548 0.00036421419    2.9500653    2.9500409    297.65417     41.49527    35.978931    34.423473    90.016431    119.66323    90.107069    262.47557    219.90929    28.379267    18.850002    14.340751    28.379829    18.850168    14.338809 
 1160000    298.38713    1.2509986    3654.1871            0            0            0            0    42.038473    44657.537 -0.067234084   -17.036218 -0.041707817    3654.1871       1489.4    1049.8386    952.15214    28.383372     18.84898    14.344538 0.00033248788 0.00033087621    2.9616661    2.9615863    298.38713     41.49527    35.978931    34.423473    90.016431    119.66323    90.107069    263.50772    199.49273    28.379421    18.849183    14.340889    28.384795    18.847687    14.344337 
 1170000    297.58964    1.2509986    3654.9761            0            0            0            0   -1231.7545    44657.537 -0.067234084   -17.036218 -0.041707817    3654.9761    1500.0572    1022.3899    968.71215    28.379876    18.842359    14.336646 0.00033466097 0.00033285467    2.8948979    2.8948868    297.58964     41.49527    35.978931    34.423473    90.016431    119.66323    90.107069    257.56717    200.79658    28.378288    18.848825     14.34004    28.380994    18.842407    14.336755 
 1180000     297.5788    1.2509986    3606.8995            0            0            0            0    1320.8688    44657.537 -0.067234084   -17.036218 -0.041707817    3606.8995    1496.1074    1018.9621    929.80499    28.381514     18.84794     14.34603 0.00038346424 0.00038258137    2.9157673    2.9156757     297.5788     41.49527    35.978931    34.423473    90.016431    119.66323    90.107069    259.42398    230.07854    28.379514    18.849946    14.339534    28.383152    18.849639    14.345204 
 1190000    303.33839    1.2509986     3575.738            0            0            0            0    1322.4111    44657.537 -0.067234084   -17.036218 -0.041707817     3575.738    1470.3395    999.63559    943.10584    28.381861    18.850703     14.34589 0.00034616065 0.00034428912    2.8792622    2.8791396    303.33839     41.49527    35.978931    34.423473    90.016431    119.66323    90.107069    256.17602    207.69639    28.378388    18.848422    14.340035    28.381409    18.850599    14.346951 
 1200000    303.31399    1.2509986    3602.5924            0            0            0            0    2352.0422    44657.537 -0.067234084   -17.036218 -0.041707817    3602.5924    1500.3533    1029.9155    914.59688    28.381972    18.845832    14.337364 0.00034761953 0.00034580871     2.696296    2.6962927    303.31399     41.49527    35.978931    34.423473    90.016431    119.66323    90.107069      239.897    208.57172    28.380213    18.848463      14.3386    28.381252    18.844373    14.337437 
 1210000    299.51566    1.2509986    3613.3166            0            0            0            0   -1185.1293    44657.537 -0.067234084   -17.036218 -0.041707817    3613.3166    1463.8092     1041.389    944.29338    28.381146    18.850756     14.33219 0.0003504382 0.00034941874    2.8318154    2.8317636    299.51566     41.49527    35.978931    34.423473    90.016431    119.66323    90.107069    251.95455    210.26292    28.379822    18.848477    14.340452    28.379421    18.850042    14.331716 
 1220000    308.17515    1.2509986    3702.6784            0            0            0            0   -1576.0381    44657.537 -0.067234084   -17.036218 -0.041707817    3702.6784    1559.8895    1052.7987    933.89891     28.37927    18.850575    14.343223 0.00036955553 0.00036946612     2.755888    2.7558346    308.17515     41.49527    35.978931    34.423473    90.016431    119.66323    90.107069    245.19907    221.73332    28.379435    18.848911    14.339891    28.379111    18.850902    14.342109 
 1230000    298.46243    1.2509986    3638.9564            0            0            0            0    398.92664    44657.537 -0.067234084   -17.036218 -0.041707817    3638.9564     1493.219    1037.5266    947.42225    28.379252    18.845211    14.338694 0.00037851208 0.00037732228    2.8018183    2.8018052    298.46243     41.49527    35.978931    34.423473    90.016431    119.66323    90.107069    249.28562    227.10725    28.379042    18.849876    14.339214     28.37959    18.842964     14.33986 
 1240000    293.07178    1.2509986      3616.51            0            0            0            0    1168.1258    44657.537 -0.067234084   -17.036218 -0.041707817      3616.51    1463.8371     1050.642    938.79762    28.382156    18.854127    14.337749 0.00037855728 0.00037816526    2.7978794    2.7977747    293.07178     41.49527    35.978931    34.423473    90.016431    119.66323    90.107069    248.93517    227.13437     28.37962    18.849633    14.339585    28.381567    18.855541    14.337773 
 1250000    299.34958    1.2509986     3568.338            0            0            0            0    1100.0643    44657.537 -0.067234084   -17.036218 -0.041707817     3568.338    1483.3605    1010.5347    913.75468    28.382865    18.845344    14.337606 0.00039199809 0.0003893869    2.6843614    2.6843559    299.34958     41.49527    35.978931    34.423473    90.016431    119.66323    90.107069    238.83515    235.19886    28.381089     18.84941    14.339313    28.381974    18.845857    14.336481 
 1260000    308.31352    1.2509986    3549.1026            0            0            0            0   -1264.0134    44657.537 -0.067234084   -17.036218 -0.041707817    3549.1026    1482.9793    1022.5259     894.8073     28.38457    18.857412    14.334845 0.0003146033 0.00031336366    2.7762987    2.7761018    308.31352     41.49527    35.978931    34.423473    90.016431    119.66323    90.107069    247.01506    188.76198    28.379265    18.849983    14.339176    28.385487    18.857915    14.334127 
 1270000    305.09784    1.2509986    3597.7367            0            0            0            0    2044.5985    44657.537 -0.067234084   -17.036218 -0.041707817    3597.7367    1455.4149    1030.8187    947.21519    28.380583    18.852647    14.341022 0.00037847606 0.00037759247    2.7643402    2.7642903    305.09784     41.49527    35.978931    34.423473    90.016431    119.66323    90.107069    245.95109    227.08563    28.379553    18.849771    14.339082    28.381575    18.851389    14.340707 
 1280000    296.37836    1.2509986    3570.5505            0            0            0            0     1236.714    44657.537 -0.067234084   -17.036218 -0.041707817    3570.5505    1464.8036     1018.148    926.97124    28.381752    18.852295    14.337257 0.00037087125 0.00037075887    2.7024133    2.7023505    296.37836     41.49527    35.978931    34.423473    90.016431    119.66323    90.107069    240.44128    222.52275    28.379373    18.848909    14.339899    28.381437    18.853223    14.336867 
 1290000    301.11117    1.2509986    3586.5442            0            0            0            0    810.35182    44657.537 -0.067234084   -17.036218 -0.041707817    3586.5442    1454.7033    1042.8729    933.21266    28.380888    18.850339    14.340297 0.00037110567 0.00037099994    2.6415038    2.6414625    301.11117     41.49527    35.978931    34.423473    90.016431    119.66323    90.107069    235.02199     222.6634    28.379881    18.849022    14.339616    28.382867    18.850393    14.340056 
 1300000    300.13103    1.2509986    3612.3462            0            0            0            0    -396.6407    44657.537 -0.067234084   -17.036218 -0.041707817    3612.3462     1530.187    1026.6968     907.3628    28.384635    18.850617    14.339448 0.00034688127 0.0003456993    2.7674517    2.7673798    300.13103     41.49527    35.978931    34.423473    90.016431    119.66323    90.107069    246.22793    208.12876    28.380059    18.849647    14.340364    28.386771     18.85015    14.338526 
 1310000     301.5696    1.2509986    3676.4925            0            0            0            0    508.94487    44657.537 -0.067234084   -17.036218 -0.041707817    3676.4925      1528.64     1066.872    924.31036    28.377322    18.849226    14.335866 0.00034960012 0.00034915144    2.7779365    2.7779139     301.5696     41.49527    35.978931    34.423473    90.016431    119.66323    90.107069    247.16079    209.76007    28.380194    18.849015    14.339845    28.377499    18.849569    14.336563 
 1320000    298.53694    1.2509986    3626.9634            0            0            0            0    1211.2518    44657.537 -0.067234084   -17.036218 -0.041707817    3626.9634    1517.1234    1010.5856    937.58181    28.381292    18.845673    14.337742 0.00034976437 0.00034437533    2.9463776    2.9463728    298.53694     41.49527    35.978931    34.423473    90.016431    119.66323    90.107069    262.14746    209.85862    28.380474    18.846882    14.339717    28.381734    18.845726    14.338269 
 1330000     296.4123    1.2509986     3660.827            0            0            0            0    1458.9425    44657.537 -0.067234084   -17.036218 -0.041707817     3660.827    1554.8769    1032.5846    918.11236    28.378581    18.848597    14.342766 0.00036562247 0.00036302248    2.8205914    2.8205544     296.4123     41.49527    35.978931    34.423473    90.016431    119.66323    90.107069    250.95591    219.37348    28.380593    18.850243    14.339526    28.378756    18.846285    14.343198 
 1340000    289.70246    1.2509986    3551.8776            0            0            0            0    1202.9038    44657.537 -0.067234084   -17.036218 -0.041707817    3551.8776    1456.0564    1032.5912    914.70864    28.384267    18.853496    14.336052 0.00034005768 0.00033986262    2.7591523     2.759066    289.70246     41.49527    35.978931    34.423473    90.016431    119.66323    90.107069    245.48951    204.03461    28.379155    18.849121     14.33949    28.383622     18.85376    14.335482 
 1350000     288.6618    1.2509986     3634.118            0            0            0            0   -101.21291    44657.537 -0.067234084   -17.036218 -0.041707817     3634.118    1532.2682    1022.5768    917.76037    28.384673    18.844789    14.346241 0.00037564558 0.0003730952    2.5923656     2.592274     288.6618     41.49527    35.978931    34.423473    90.016431    119.66323    90.107069    230.65002    225.38735    28.379877    18.850116    14.340747     28.38442    18.843853    14.345494 
 1360000    298.57957    1.2509986    3727.6374            0            0            0            0    596.60682    44657.537 -0.067234084   -17.036218 -0.041707817    3727.6374     1508.726    1054.0257    989.99214    28.381911    18.854977    14.342692 0.00039665147 0.00039483391    2.6068197    2.6067185    298.57957     41.49527    35.978931    34.423473    90.016431    119.66323    90.107069    231.93605    237.99088    28.380016     18.85024    14.339321     28.38034    18.855003    14.340438 
 1370000    297.62627    1.2509986    3587.0835            0            0            0            0    92.457379    44657.537 -0.067234084   -17.036218 -0.041707817    3587.0835     1443.789    1016.4171    966.38959    28.378978    18.850262    14.337385 0.00037168337 0.00036863234    2.8907195    2.8907038    297.62627     41.49527    35.978931    34.423473    90.016431    119.66323    90.107069     257.1954    223.01002    28.379928    18.848012     14.34102    28.379125    18.849344    14.337723 
 1380000    292.18463    1.2509986    3621.1078            0            0            0            0   -484.29321    44657.537 -0.067234084   -17.036218 -0.041707817    3621.1078    1447.7056    1064.7286    946.92158    28.381868    18.849012    14.343867 0.00031586982 0.00031315196    2.7612065    2.7611366    292.18463     41.49527    35.978931    34.423473    90.016431    119.66323    90.107069    245.67227    189.52189    28.380209    18.847785    14.338752    28.382349    18.850022    14.343805 
 1390000    304.59366    1.2509986    3647.0552            0            0            0            0     1533.791    44657.537 -0.067234084   -17.036218 -0.041707817    3647.0552    1517.0913    1031.9013    934.22844    28.384367    18.848072    14.337273 0.00033888562 0.00033620656    2.7848027    2.7847479    304.59366     41.49527    35.978931    34.423473    90.016431    119.66323    90.107069    247.77169    203.33137    28.380179    18.849004    14.338124    28.386895     18.84622    14.335254 
 1400000    296.05286    1.2509986    3561.0266            0            0            0            0   -1557.7224    44657.537 -0.067234084   -17.036218 -0.041707817    3561.0266    1472.6777     1021.333    909.89148    28.379466      18.8437    14.342294 0.00039396195 0.00039217683    2.9048602    2.9048307    296.05286     41.49527    35.978931    34.423473    90.016431    119.66323    90.107069    258.45355    236.37717    28.379566     18.84771    14.339343    28.377066    18.844211    14.341782 
 1410000    298.06491    1.2509986    3549.0128            0            0            0            0   -325.44497    44657.537 -0.067234084   -17.036218 -0.041707817    3549.0128    1483.2392    1031.7741    883.65384    28.379182    18.843539     14.34296 0.00038322814 0.00038184267    2.9444059    2.9443445    298.06491     41.49527    35.978931    34.423473    90.016431    119.66323    90.107069    261.97204    229.93689    28.380175     18.84804    14.339399    28.379898    18.842616    14.344561 
 1420000    298.29631    1.2509986    3653.6765            0            0            0            0   -49.082939    44657.537 -0.067234084   -17.036218 -0.041707817    3653.6765    1519.7233    1009.8905    961.21201    28.384677    18.846869    14.341118 0.00034797233 0.00034735146    2.9616039    2.9615681    298.29631     41.49527    35.978931    34.423473    90.016431    119.66323    90.107069    263.50219     208.7834    28.379315    18.849109    14.340382    28.383989    18.844993    14.341526 
 1430000    293.57978    1.2509986    3663.0343            0            0            0            0   -304.58648    44657.537 -0.067234084   -17.036218 -0.041707817    3663.0343    1537.3673    1028.7656    936.40636    28.383121    18.849153    14.340106 0.00035132828 0.00034981463    3.0100305    3.0100059    293.57978     41.49527    35.978931    34.423473    90.016431    119.66323    90.107069    267.81084    210.79697    28.380188    18.848814    14.340675    28.382943    18.848952    14.338915 
 1440000    295.38796    1.2509986    3581.8716            0            0            0            0     760.7681    44657.537 -0.067234084   -17.036218 -0.041707817    3581.8716    1468.9129     1030.586    922.30417    28.377796    18.856942    14.338527 0.00034419825 0.00034253763    2.9921712    2.9919937    295.38796     41.49527    35.978931    34.423473    90.016431    119.66323    90.107069    266.22185    206.51895     28.37888    18.848599    14.338622    28.380269    18.858558    14.339723 
 1450000    292.30737    1.2509986    3637.4789            0            0            0            0     852.4875    44657.537 -0.067234084   -17.036218 -0.041707817    3637.4789    1519.6115    1006.4908    947.36152    28.375078    18.847414    14.340756 0.00037734495 0.0003765238    2.9045609    2.9045164    292.30737     41.49527    35.978931    34.423473    90.016431    119.66323    90.107069    258.42692    226.40697    28.379396    18.849877    14.339859    28.375374     18.84818    14.341441 
 1460000    293.70538    1.2509986    3632.9495            0            0            0            0   -1095.5791    44657.537 -0.067234084   -17.036218 -0.041707817    3632.9495    1504.8996      1029.76    941.41967    28.377082     18.85205    14.338738 0.00038712404 0.00038162817    2.8770146    2.8769798    293.70538     41.49527    35.978931    34.423473    90.016431    119.66323    90.107069    255.97604    232.27443    28.379865    18.851312    14.339979    28.375804    18.849445    14.338987 
 1470000    294.89786    1.2509986    3642.3778            0            0            0            0   -82.232626    44657.537 -0.067234084   -17.036218 -0.041707817    3642.3778    1489.5221    1044.9449    946.54637    28.377779    18.844633    14.338109 0.00034697453 0.00034669763     2.890505    2.8904952    294.89786     41.49527    35.978931    34.423473    90.016431    119.66323    90.107069    257.17633    208.18472    28.380015    18.849268    14.339594    28.377019    18.846838    14.336898 
 1480000    293.74408    1.2509986    3604.7945            0            0            0            0   -262.02668    44657.537 -0.067234084   -17.036218 -0.041707817    3604.7945    1514.5216    1001.5412    931.57759    28.375466    18.848256    14.341621 0.00037009487 0.00036986288    2.7211743    2.7211244    293.74408     41.49527    35.978931    34.423473    90.016431    119.66323    90.107069     242.1105    222.05692    28.379455    18.848687    14.339298    28.374853    18.848829    14.341019 
 1490000     291.9315    1.2509986    3671.1843            0            0            0            0   -338.64341    44657.537 -0.067234084   -17.036218 -0.041707817    3671.1843    1526.0023    1044.0843    940.08934    28.375185    18.851354    14.340785 0.00036648249 0.00036532607    2.5747386     2.574672     291.9315     41.49527    35.978931    34.423473    90.016431    119.66323    90.107069     229.0817     219.8895    28.379414    18.848532    14.338687    28.374433     18.85043    14.340883 
 1500000    298.76372    1.2509986    3611.7635            0            0            0            0    497.97114    44657.537 -0.067234084   -17.036218 -0.041707817    3611.7635    1472.5869    1043.0414    937.59704    28.382294    18.854096    14.338995 0.00033720283 0.00033617057    2.6982542    2.6981679    298.76372     41.49527    35.978931    34.423473    90.016431    119.66323    90.107069    240.07123     202.3217     28.38015    18.848834    14.338833    28.380803    18.854614    14.338594 
 1510000    290.73127    1.2509986     3549.096            0            0            0            0   -456.62908    44657.537 -0.067234084   -17.036218 -0.041707817     3549.096    1458.4041    1001.5267    930.85345    28.386817    18.851433    14.343434 0.00037569166 0.00037453579    2.9270275    2.9269174    290.73127     41.49527    35.978931    34.423473    90.016431    119.66323    90.107069    260.42583      225.415     28.37967    18.849548    14.340563     28.38729    18.850636    14.342517 
 1520000    295.08726    1.2509986    3546.1663            0            0            0            0   -275.19816    44657.537 -0.067234084   -17.036218 -0.041707817    3546.1663    1455.8845     1003.305    929.62568    28.373279    18.850544    14.342464 0.00038155051 0.00037887679    2.6806125    2.6804676    295.08726     41.49527    35.978931    34.423473    90.016431    119.66323    90.107069     238.5016    228.93031    28.378213    18.848548    14.340446    28.371524    18.850577    14.344351 
[...]
 1630000    294.45096    1.2509986    3583.1966            0            0            0            0    336.39156    44657.537 -0.067234084   -17.036218 -0.041707817    3583.1966    1520.5535    998.36785    909.23397    28.378123    18.850143    14.336399 0.00035960781 0.00035946993    2.8439788    2.8439512    294.45096     41.49527    35.978931    34.423473    90.016431    119.66323    90.107069    253.03676    215.76469    28.379545    18.849169    14.339301    28.379386     18.85022    14.335058 
 1640000    302.94627    1.2509986    3549.5635            0            0            0            0   -122.28024    44657.537 -0.067234084   -17.036218 -0.041707817    3549.5635    1504.7184    987.99102    901.60992    28.375835    18.852228    14.341858 0.00036395529 0.00035581701    2.7494049    2.7493227    302.94627     41.49527    35.978931    34.423473    90.016431    119.66323    90.107069    244.62225    218.37318    28.381074    18.846618    14.339324    28.375309    18.852255     14.34125 
 1650000    296.20222    1.2509986    3576.4442            0            0            0            0    1250.2476    44657.537 -0.067234084   -17.036218 -0.041707817    3576.4442    1469.4751    1020.8528    926.83821    28.376221    18.854182    14.347794 0.00038445581 0.0003809187    2.6103898    2.6101453    296.20222     41.49527    35.978931    34.423473    90.016431    119.66323    90.107069    232.25369    230.67349    28.379987    18.849757    14.341311    28.372464    18.854464    14.347738 
 1660000    306.64443    1.2509986    3591.5772            0            0            0            0    1061.2185    44657.537 -0.067234084   -17.036218 -0.041707817    3591.5772    1484.6295    1032.7012    919.86064    28.379246    18.847631    14.344049 0.00035355254 0.0003532083    3.0111202    3.0110608    306.64443     41.49527    35.978931    34.423473    90.016431    119.66323    90.107069     267.9078    212.13152    28.379939    18.848579    14.339537    28.381912    18.846816    14.344555 
 1670000    297.83256    1.2509986    3667.4507            0            0            0            0   -739.36335    44657.537 -0.067234084   -17.036218 -0.041707817    3667.4507    1531.8754    1036.4445    942.16447    28.375896    18.846491    14.333013 0.00035340078 0.0003526478    2.8623969    2.8623582    297.83256     41.49527    35.978931    34.423473    90.016431    119.66323    90.107069    254.67547    212.04047     28.37875    18.849126    14.339939     28.37713     18.84655    14.331751 
 1680000    298.47848    1.2509986    3548.4053            0            0            0            0    909.52997    44657.537 -0.067234084   -17.036218 -0.041707817    3548.4053    1465.6227    1015.5482    909.39134    28.386006    18.850024    14.337725 0.0003313424 0.00032990158    2.8202304    2.8201892    298.47848     41.49527    35.978931    34.423473    90.016431    119.66323    90.107069    250.92379    198.80544     28.38073    18.849228    14.339768    28.385532    18.848368    14.337603 
 1690000    296.18043    1.2509986    3631.1017            0            0            0            0    410.52354    44657.537 -0.067234084   -17.036218 -0.041707817    3631.1017    1506.0625    1023.3762    938.02249     28.38484    18.852468     14.33706 0.00037258013 0.00036812591    2.8450893    2.8449955    296.18043     41.49527    35.978931    34.423473    90.016431    119.66323    90.107069    253.13556    223.54808    28.379656    18.849431    14.341704    28.385901    18.852997     14.33756 
 1700000    296.19295    1.2509986    3535.1142            0            0            0            0    673.81171    44657.537 -0.067234084   -17.036218 -0.041707817    3535.1142    1465.5956    1002.4127    914.57617    28.374181    18.851033    14.342572 0.00031774573 0.00031668185    2.7993326    2.7992424    296.19295     41.49527    35.978931    34.423473    90.016431    119.66323    90.107069    249.06446    190.64744    28.379813    18.848894    14.338646    28.372377    18.849324    14.341745 
 1710000    297.63679    1.2509986    3532.2117            0            0            0            0     269.2675    44657.537 -0.067234084   -17.036218 -0.041707817    3532.2117    1436.3585    1028.6973    916.48867    28.381408    18.846127     14.34095 0.00035177544 0.00034991019    2.8183772    2.8183604    297.63679     41.49527    35.978931    34.423473    90.016431    119.66323    90.107069    250.75891    211.06526    28.380386    18.850059    14.339924    28.380668    18.844501    14.341158 
 1720000    299.78648    1.2509986    3642.4414            0            0            0            0   0.99608278    44657.537 -0.067234084   -17.036218 -0.041707817    3642.4414    1520.8739    1036.7221    927.85551    28.377582    18.845846     14.33833 0.00033763857 0.00033714031    2.8781235     2.878117    299.78648     41.49527    35.978931    34.423473    90.016431    119.66323    90.107069    256.07471    202.58314    28.380027    18.848649    14.340019    28.377443    18.845564    14.336344 
 1730000    301.45474    1.2509986    3571.2842            0            0            0            0   -261.98263    44657.537 -0.067234084   -17.036218 -0.041707817    3571.2842    1453.4815    1039.8443     919.0545    28.380304    18.855142    14.339804 0.00036261692 0.00036037659    3.1640003    3.1638632    301.45474     41.49527    35.978931    34.423473    90.016431    119.66323    90.107069    281.50997    217.57015    28.378488    18.849366    14.340625    28.380636    18.857128    14.338074 
 1740000    294.63248    1.2509986    3599.5021            0            0            0            0    220.97949    44657.537 -0.067234084   -17.036218 -0.041707817    3599.5021    1472.9764    1056.3196    910.56415    28.376504    18.848557    14.337113 0.00035524938 0.00035380658    3.0508023    3.0507822    294.63248     41.49527    35.978931    34.423473    90.016431    119.66323    90.107069    271.43842    213.14963    28.379409    18.850149    14.339999    28.378625    18.849236    14.335133 
 1750000    294.24459    1.2509986    3549.0486            0            0            0            0     147.4917    44657.537 -0.067234084   -17.036218 -0.041707817    3549.0486    1485.9453    980.88229    925.52153    28.376082    18.857334    14.336453 0.00038116462 0.00037908985    3.0427844    3.0426344    294.24459     41.49527    35.978931    34.423473    90.016431    119.66323    90.107069    270.72504    228.69877    28.378422     18.84986    14.339903    28.376303    18.857012    14.335144 
 1760000    302.84645    1.2509986    3641.5347            0            0            0            0    1325.7045    44657.537 -0.067234084   -17.036218 -0.041707817    3641.5347    1476.6395     1061.328    942.44715     28.37823    18.845482    14.336606 0.00034359078 0.00034259733    2.9160511     2.916037    302.84645     41.49527    35.978931    34.423473    90.016431    119.66323    90.107069    259.44923    206.15447    28.380275     18.84942    14.340196    28.378517    18.843782    14.334171 
 1770000    303.67236    1.2509986    3701.7431            0            0            0            0    962.15383    44657.537 -0.067234084   -17.036218 -0.041707817    3701.7431    1549.8311     1047.805    949.27411     28.38286    18.853603    14.339011 0.00039131434 0.00038998544    3.0109588    3.0108452    303.67236     41.49527    35.978931    34.423473    90.016431    119.66323    90.107069    267.89343     234.7886    28.378603    18.848367    14.339587    28.382284    18.855476    14.339981 
 1780000    300.43479    1.2509986    3540.9837            0            0            0            0     34.86474    44657.537 -0.067234084   -17.036218 -0.041707817    3540.9837    1429.5627    1061.3788    895.80046    28.377996    18.851052    14.338587 0.00038064592 0.00037877634    2.8663436    2.8663227    300.43479     41.49527    35.978931    34.423473    90.016431    119.66323    90.107069    255.02661    228.38755    28.380272    18.849875    14.338855    28.379585    18.849982    14.337999 
 1790000    294.77409    1.2509986    3657.1722            0            0            0            0   -7.3496606    44657.537 -0.067234084   -17.036218 -0.041707817    3657.1722    1498.4578     1073.669    932.50758    28.376015    18.854272    14.335631 0.00034379007 0.00034048768    2.8328903    2.8327994    294.77409     41.49527    35.978931    34.423473    90.016431    119.66323    90.107069    252.05018    206.27404    28.380937    18.850188    14.339503    28.377566     18.85462    14.335794 
 1800000    296.22396    1.2509986    3581.3016            0            0            0            0    1751.8726    44657.537 -0.067234084   -17.036218 -0.041707817    3581.3016    1498.8009    1011.8003    920.06608    28.377704     18.85239    14.342601 0.00034520014 0.00034305526    2.7189845    2.7188942    296.22396     41.49527    35.978931    34.423473    90.016431    119.66323    90.107069    241.91566    207.12008    28.378144    18.849164    14.339283    28.376324    18.852466     14.34267 
 1810000    294.81965    1.2509986    3531.4488            0            0            0            0    1393.5272    44657.537 -0.067234084   -17.036218 -0.041707817    3531.4488    1478.7638    997.43494    903.64537    28.375045    18.847849    14.343763 0.00033252053 0.0003309683    2.5999235    2.5998538    294.81965     41.49527    35.978931    34.423473    90.016431    119.66323    90.107069    231.32248    199.51232    28.379165    18.850066    14.340177    28.374712    18.847341    14.343611 
 1820000    302.08277    1.2509986    3624.8857            0            0            0            0    1294.5489    44657.537 -0.067234084   -17.036218 -0.041707817    3624.8857     1527.151    1027.0917    914.36432    28.379488    18.856387    14.336615 0.00037096209 0.00036972911     2.519094    2.5189964    302.08277     41.49527    35.978931    34.423473    90.016431    119.66323    90.107069    224.13085    222.57725    28.378513    18.849355      14.3398    28.379048    18.855289    14.336412 
 1830000    290.44839    1.2509986    3624.4124            0            0            0            0   -710.22903    44657.537 -0.067234084   -17.036218 -0.041707817    3624.4124     1489.122    1039.4103     936.6417    28.376538    18.849764     14.33613 0.00036205852 0.00035893606    2.4147901    2.4147821    290.44839     41.49527    35.978931    34.423473    90.016431    119.66323    90.107069    214.85064    217.23511    28.378319    18.849967    14.340463    28.378298    18.847765    14.336526 
 1840000    305.53525    1.2509986    3626.5981            0            0            0            0    729.32253    44657.537 -0.067234084   -17.036218 -0.041707817    3626.5981    1438.9549    1058.5753    968.83489    28.379963    18.847643    14.341966 0.00033743526 0.00033660321    2.7363089    2.7362733    305.53525     41.49527    35.978931    34.423473    90.016431    119.66323    90.107069    243.45706    202.46116    28.379499    18.849923     14.33961    28.379925    18.846105    14.343192 
 1850000    299.51295    1.2509986     3587.523            0            0            0            0   -686.03985    44657.537 -0.067234084   -17.036218 -0.041707817     3587.523    1492.4331    1021.2356    921.81872    28.377089    18.846874    14.344888 0.00035907243 0.00035790952    2.8997175    2.8996036    299.51295     41.49527    35.978931    34.423473    90.016431    119.66323    90.107069    257.99598    215.44346    28.378679    18.848784    14.339055      28.3748    18.847443    14.346477 
 1860000    304.68637    1.2509986    3636.3632            0            0            0            0    2069.4005    44657.537 -0.067234084   -17.036218 -0.041707817    3636.3632     1498.663    1013.8975    961.28501    28.380014    18.852854    14.346183 0.00037063023 0.00036969654    2.8518243    2.8516495    304.68637     41.49527    35.978931    34.423473    90.016431    119.66323    90.107069    253.73479    222.37814    28.378746    18.848674     14.34004    28.381007    18.854118    14.347198 
 1870000    301.13742    1.2509986    3570.4096            0            0            0            0    12.181071    44657.537 -0.067234084   -17.036218 -0.041707817    3570.4096    1516.1531    970.65028    928.21254    28.375694    18.851306     14.34059 0.00035655411 0.00035555309    2.6924262    2.6923859    301.13742     41.49527    35.978931    34.423473    90.016431    119.66323    90.107069     239.5527    213.93247    28.379024    18.849856    14.339721    28.377372    18.850554    14.340175 
 1880000    293.92296    1.2509986    3535.7721            0            0            0            0    956.91821    44657.537 -0.067234084   -17.036218 -0.041707817    3535.7721    1438.3243    1020.2379     918.1087    28.382441    18.839709     14.33932 0.00032721948 0.00032627288    2.6272505    2.6271812    293.92296     41.49527    35.978931    34.423473    90.016431    119.66323    90.107069    233.75383    196.33169    28.378954    18.849777    14.339647    28.382077    18.837591    14.338679 
 1890000    294.97251    1.2509986    3614.6153            0            0            0            0   -111.20654    44657.537 -0.067234084   -17.036218 -0.041707817    3614.6153    1481.6155    1026.6206    946.01692    28.372565    18.849082    14.340211 0.0003755177 0.00037369814    2.7109527    2.7108831    294.97251     41.49527    35.978931    34.423473    90.016431    119.66323    90.107069    241.20106    225.31062    28.378219    18.849042    14.339808    28.372088    18.848004    14.339155 
 1900000    298.06581    1.2509986    3542.2757            0            0            0            0   -632.58733    44657.537 -0.067234084   -17.036218 -0.041707817    3542.2757    1458.2733    1035.1994    897.36092    28.380061    18.851176    14.342614 0.00036109724 0.00035991705    2.8309189    2.8308588    298.06581     41.49527    35.978931    34.423473    90.016431    119.66323    90.107069    251.87479    216.65834    28.378492    18.848931    14.339841    28.382633    18.850735    14.342213 
 1910000    295.20711    1.2509986    3638.5898            0            0            0            0   -1203.9361    44657.537 -0.067234084   -17.036218 -0.041707817    3638.5898    1473.5498    1080.2838    924.93646    28.378355    18.849822    14.336601 0.00037124927 0.00036957088    2.6743433    2.6743157    295.20711     41.49527    35.978931    34.423473    90.016431    119.66323    90.107069    237.94382    222.74956    28.379147    18.849572    14.338544    28.377162     18.84999    14.336787 
 1920000    296.79573    1.2509986    3597.9938            0            0            0            0    1555.5366    44657.537 -0.067234084   -17.036218 -0.041707817    3597.9938    1454.6768    1057.9903    924.82775    28.383756    18.846392    14.337069 0.00036749499 0.00036723498     2.748157    2.7481376    296.79573     41.49527    35.978931    34.423473    90.016431    119.66323    90.107069    244.51122      220.497    28.379758    18.849146    14.340087    28.383605    18.847551    14.336459 
 1930000     301.3061    1.2509986    3653.0785            0            0            0            0   -838.88012    44657.537 -0.067234084   -17.036218 -0.041707817    3653.0785    1511.7253      1058.12    923.44496    28.378261    18.847741    14.341039 0.00032332789 0.00032150681    2.7946577    2.7946204     301.3061     41.49527    35.978931    34.423473    90.016431    119.66323    90.107069    248.64852    193.99673    28.380433    18.848037    14.339321    28.379865    18.848329    14.342663 
 1940000    294.77765    1.2509986    3622.7091            0            0            0            0   -198.00614    44657.537 -0.067234084   -17.036218 -0.041707817    3622.7091     1534.532     1014.426    919.95241    28.379336    18.845931    14.338221 0.00038772392 0.00038764679    2.7032824    2.7032774    294.77765     41.49527    35.978931    34.423473    90.016431    119.66323    90.107069     240.5186    232.63435    28.379525    18.849236    14.339476    28.378573    18.845048    14.339077 
 1950000    290.95948    1.2509986    3540.3645            0            0            0            0    53.402508    44657.537 -0.067234084   -17.036218 -0.041707817    3540.3645    1448.1853    1039.2376    903.07098    28.386614    18.852578    14.341399 0.00036392802 0.00036252409      2.69878    2.6986665    290.95948     41.49527    35.978931    34.423473    90.016431    119.66323    90.107069    240.11801    218.35681     28.37846    18.849117    14.340074    28.385192     18.85252    14.343171 
 1960000    300.62568    1.2509986    3587.1227            0            0            0            0    1211.1257    44657.537 -0.067234084   -17.036218 -0.041707817    3587.1227    1507.3023    1012.1168    915.76854    28.377806    18.852965    14.337093 0.00036769335 0.00036757291    2.7906407    2.7905695    300.62568     41.49527    35.978931    34.423473    90.016431    119.66323    90.107069    248.29111    220.61601     28.37973    18.849184    14.339391     28.37972    18.853706    14.335413 
 1970000    297.73698    1.2509986    3597.9854            0            0            0            0   -446.13049    44657.537 -0.067234084   -17.036218 -0.041707817    3597.9854    1524.0993    1013.2446    907.49622    28.375878    18.841699    14.341073 0.00036570986 0.00036469408    2.8230138    2.8229748    297.73698     41.49527    35.978931    34.423473    90.016431    119.66323    90.107069    251.17144    219.42592    28.378609    18.849177    14.339337    28.376267    18.842169    14.341201 
 1980000     291.5813    1.2509986    3599.9693            0            0            0            0   -248.88756    44657.537 -0.067234084   -17.036218 -0.041707817    3599.9693    1491.6777    1003.2029     945.8266    28.376705    18.852369    14.343117 0.00037829773 0.00037755146    2.9309021    2.9307703     291.5813     41.49527    35.978931    34.423473    90.016431    119.66323    90.107069    260.77057    226.97864    28.378972    18.849326    14.339085    28.376429    18.854065    14.344088 
 1990000    294.03721    1.2509986    3638.1205            0            0            0            0   -651.74522    44657.537 -0.067234084   -17.036218 -0.041707817    3638.1205    1478.1358    1035.0285    960.68437    28.386267    18.853042     14.33427 0.00034295394 0.00034247364    2.7168271    2.7167304    294.03721     41.49527    35.978931    34.423473    90.016431    119.66323    90.107069    241.72371    205.77236    28.379911    18.848776    14.340184    28.384735    18.853669    14.334957 
 2000000    297.88716    1.2509986    3637.3961            0            0            0            0   -2763.9155    44657.537 -0.067234084   -17.036218 -0.041707817    3637.3961    1524.5923     1052.977    908.85222    28.384623    18.847807    14.335432 0.00032760004 0.00032549475     2.806065    2.8060573    297.88716     41.49527    35.978931    34.423473    90.016431    119.66323    90.107069    249.66346    196.56003    28.378503    18.848486    14.338791    28.381595    18.847409    14.336367 
Loop time of 3929.13 on 20 procs for 2000000 steps with 4560 atoms

Pair  time (%) = 2856.95 (72.7121)
Bond  time (%) = 343.569 (8.74416)
Neigh time (%) = 77.1682 (1.964)
Comm  time (%) = 498.224 (12.6803)
Outpt time (%) = 0.534714 (0.013609)
Other time (%) = 152.679 (3.88582)

Nlocal:    228 ave 244 max 209 min
Histogram: 1 0 1 3 3 4 4 1 0 3
Nghost:    5940.35 ave 6002 max 5900 min
Histogram: 5 0 2 3 4 1 3 0 0 2
Neighs:    84104.4 ave 90768 max 74985 min
Histogram: 1 0 0 1 6 3 4 2 0 3

Total # of neighbors = 1682089
Ave neighs/atom = 368.879
Ave special neighs/atom = 10.6316
Neighbor list builds = 15460
Dangerous builds = 0
System init for write_data ...
