LAMMPS data file via write_data, version 20 Nov 2019, timestep = 50000

2560 atoms
71 atom types
2688 bonds
807 bond types
4096 angles
4248 angle types
5632 dihedrals
641 dihedral types
512 impropers
38 improper types

0.0000000000000000e+00 4.7000000000000000e+01 xlo xhi
0.0000000000000000e+00 4.7070000000000000e+01 ylo yhi
0.0000000000000000e+00 4.7000000000000000e+01 zlo zhi

Masses

1 12.01
2 12.01
3 12.01
4 12.01
5 12.01
6 12.01
7 12.01
8 12.01
9 12.01
10 12.01
11 12.01
12 12.01
13 12.01
14 12.01
15 12.01
16 12.01
17 12.01
18 12.01
19 1.008
20 1.008
21 1.008
22 1.008
23 1.008
24 1.008
25 1.008
26 1.008
27 1.008
28 1.008
29 1.008
30 1.008
31 1.008
32 19
33 35.45
34 79.9
35 126.9
36 14.01
37 14.01
38 14.01
39 14.01
40 14.01
41 14.01
42 14.01
43 14.01
44 14.01
45 14.01
46 14.01
47 14.01
48 14.01
49 16
50 16
51 16
52 16
53 30.97
54 30.97
55 30.97
56 30.97
57 30.97
58 30.97
59 30.97
60 30.97
61 30.97
62 30.97
63 30.97
64 32.06
65 32.06
66 32.06
67 32.06
68 32.06
69 32.06
70 32.06
71 32.06

Atoms # full

1576 79 22 8.4010000000000001e-02 2.1333756304628334e+01 8.9282911745262243e+00 4.9587358011561031e+00 0 0 1
1566 79 42 -2.6469999999999999e-01 2.0595561416858860e+01 1.0828600156665416e+01 5.4404696975864262e+00 0 0 1
1565 79 5 2.7340000000000000e-02 2.1330533743787122e+01 9.9881944352925274e+00 4.6661918999818033e+00 0 0 1
1563 79 5 -3.5940000000000000e-02 2.1943077230768473e+01 1.0448073958010269e+01 3.4960428012537421e+00 0 0 1
1561 79 6 -1.5240000000000000e-02 2.1744974259819006e+01 1.1799865820562959e+01 3.0317165239401134e+00 0 0 1
1567 79 6 -1.5240000000000000e-02 2.2201475243131085e+01 1.2295529329139347e+01 1.7001101225015529e+00 0 0 1
1574 79 24 6.4560000000000006e-02 2.2663861200607503e+01 9.7945968276372231e+00 3.0615837753810853e+00 0 0 1
1578 79 24 6.4560000000000006e-02 2.2137984448411803e+01 1.0368338401617683e+01 8.5335335723519912e-01 0 0 1
313 16 24 6.4560000000000006e-02 2.5420891367939415e+01 1.3698927127111775e+01 4.6461602680790515e+00 0 0 0
302 16 5 -3.5940000000000000e-02 2.5463056839943977e+01 1.4651476059793385e+01 4.0837159119329733e+00 0 0 0
301 16 6 -1.5240000000000000e-02 2.6005376470655936e+01 1.4693552302601212e+01 2.8321084332536759e+00 0 0 0
1569 79 5 -3.5940000000000000e-02 2.2440394393000428e+01 1.1363411050849898e+01 7.1663163582492062e-01 0 0 1
195 10 22 8.4010000000000001e-02 2.5341125722103651e+01 8.5837592426250513e+00 6.5964540304362607e-01 0 0 1
318 16 24 6.4560000000000006e-02 2.7101577580790877e+01 1.2372952071988111e+01 4.0301949077706061e+00 0 0 0
309 16 5 -3.5940000000000000e-02 2.7190311790989696e+01 1.2400561514378998e+01 2.9115320164362002e+00 0 0 0
307 16 6 -1.5240000000000000e-02 2.6604793665358788e+01 1.3464453065641784e+01 2.1821820443187705e+00 0 0 0
308 16 5 -3.5940000000000000e-02 2.6776217442835751e+01 1.3483557311899061e+01 8.1542881311822790e-01 0 0 0
320 16 22 8.4010000000000001e-02 2.8441715609075029e+01 1.0627667125508186e+01 2.7689774214741592e+00 0 0 0
311 16 5 2.7340000000000000e-02 2.7869991677783425e+01 1.1421413004066235e+01 2.2025526680536411e+00 0 0 0
2244 113 5 2.7340000000000000e-02 3.0227298905369096e+01 1.5354298174844848e+01 6.0383675473593481e+00 0 0 0
2245 113 5 2.7340000000000000e-02 3.0160796885231097e+01 1.4173568750310404e+01 4.0813120139463273e+00 0 0 0
2256 113 22 8.4010000000000001e-02 3.0287473645127992e+01 1.3227529346392442e+01 3.6012318149289513e+00 0 0 0
2246 113 42 -2.6469999999999999e-01 3.0290748060725583e+01 1.4165809157618133e+01 5.3992253657706026e+00 0 0 0
312 16 42 -2.6469999999999999e-01 2.8058085001712257e+01 1.1438769777498266e+01 8.3774099116329304e-01 0 0 0
2255 113 22 8.4010000000000001e-02 3.0383309898218155e+01 1.5266107912797837e+01 7.1179876582581194e+00 0 0 0
310 16 5 2.7340000000000000e-02 2.7447758180570791e+01 1.2444526146804433e+01 1.3547743343070057e-01 0 0 0
317 16 24 6.4560000000000006e-02 2.6341918976793494e+01 1.4215721805057122e+01 2.2202208092927678e-01 0 0 0
1198 60 24 6.4560000000000006e-02 1.9091687840760166e+01 1.6551374667829617e+01 6.8709211389281784e+00 0 0 0
1189 60 5 -3.5940000000000000e-02 1.9658803534409220e+01 1.7333699696788678e+01 6.4869052807758241e+00 0 0 0
1191 60 5 2.7340000000000000e-02 1.9078137596636086e+01 1.8234661944940857e+01 5.6348949743458903e+00 0 0 0
1200 60 22 8.4010000000000001e-02 1.8019303908517990e+01 1.8080632652107184e+01 5.2868601306688161e+00 0 0 0
1614 81 24 6.4560000000000006e-02 1.7043997749576523e+01 1.6246846654282937e+01 1.3091772735322477e-01 0 0 0
1603 81 5 -3.5940000000000000e-02 1.7342527226424302e+01 1.6592984415737725e+01 4.6117602626255305e+01 0 0 -1
1616 81 22 8.4010000000000001e-02 1.5358889494922201e+01 1.6227450492729123e+01 4.5105299011116323e+01 0 0 -1
1636 82 22 8.4010000000000001e-02 1.8016977585548315e+01 1.9714279877120799e+01 3.7423483977998673e-01 0 0 0
1192 60 42 -2.6469999999999999e-01 1.9712772436103759e+01 1.9341223932146804e+01 5.1187541208595446e+00 0 0 0
1575 79 22 8.4010000000000001e-02 1.9872232115249815e+01 1.2798219879924314e+01 5.8012320253032330e+00 0 0 1
1564 79 5 2.7340000000000000e-02 2.0481470730582210e+01 1.2146794400796825e+01 5.0763010934013009e+00 0 0 1
1573 79 24 6.4560000000000006e-02 2.0965530689595383e+01 1.3782939658139318e+01 3.6653650249180472e+00 0 0 1
1562 79 5 -3.5940000000000000e-02 2.1064223627051021e+01 1.2694431763739663e+01 3.9055887728843910e+00 0 0 1
1618 81 24 6.4560000000000006e-02 1.8656252843706564e+01 1.5972758148944315e+01 1.2887812680656199e+00 0 0 0
1609 81 5 -3.5940000000000000e-02 1.9544158973423482e+01 1.6653586269612227e+01 1.0730402968103536e+00 0 0 0
1568 79 5 -3.5940000000000000e-02 2.2714941054179665e+01 1.3572560510587376e+01 1.5084983048246823e+00 0 0 1
1577 79 24 6.4560000000000006e-02 2.2630582962354808e+01 1.4289373057682909e+01 2.2475823441182894e+00 0 0 1
1620 81 22 8.4010000000000001e-02 2.0549746770024147e+01 1.6237795299223649e+01 3.0078853349153065e+00 0 0 0
1611 81 5 2.7340000000000000e-02 2.0474077407303671e+01 1.6814062288644678e+01 2.1287904914100322e+00 0 0 0
1612 81 42 -2.6469999999999999e-01 2.1536932141005973e+01 1.7645466834464646e+01 2.0731169045587303e+00 0 0 0
1607 81 6 -1.5240000000000000e-02 1.9662016334805415e+01 1.7416182141341633e+01 4.6878172916641304e+01 0 0 -1
1610 81 5 2.7340000000000000e-02 2.1623962564668712e+01 1.8405114597994281e+01 9.7686490850141938e-01 0 0 0
1608 81 5 -3.5940000000000000e-02 2.0794921783299934e+01 1.8260600859573525e+01 4.6857725042844372e+01 0 0 -1
2173 109 24 6.4560000000000006e-02 2.6245393252130835e+01 1.8797945829231807e+01 5.6879779870941132e+00 0 0 0
1187 60 6 -1.5240000000000000e-02 2.1012702539823692e+01 1.7496008887035245e+01 6.7796130383001021e+00 0 0 0
315 16 22 8.4010000000000001e-02 2.4708939625619212e+01 1.5807305358786973e+01 5.6305502735359347e+00 0 0 0
306 16 42 -2.6469999999999999e-01 2.5086263900651812e+01 1.7002367264590905e+01 4.1298407786253444e+00 0 0 0
304 16 5 2.7340000000000000e-02 2.5145322865352774e+01 1.5789259545251578e+01 4.6930682555805321e+00 0 0 0
1190 60 5 2.7340000000000000e-02 2.0969282487357233e+01 1.9569868364121980e+01 5.6164441632771211e+00 0 0 0
316 16 22 8.4010000000000001e-02 2.5552423686602847e+01 1.8010896458339865e+01 2.3930153864196768e+00 0 0 0
303 16 5 -3.5940000000000000e-02 2.6111233479701966e+01 1.5940499110244360e+01 2.2258758508962408e+00 0 0 0
305 16 5 2.7340000000000000e-02 2.5521038089232906e+01 1.7055987940270199e+01 2.8625204390656891e+00 0 0 0
2178 109 24 6.4560000000000006e-02 2.5053097201453202e+01 2.0005553386491908e+01 4.0078739661959855e+00 0 0 0
1188 60 5 -3.5940000000000000e-02 2.1659575136649643e+01 1.8686089488580194e+01 6.4358743603338446e+00 0 0 0
1197 60 24 6.4560000000000006e-02 2.2656485649523351e+01 1.8954836645582638e+01 6.6940037282025679e+00 0 0 0
314 16 24 6.4560000000000006e-02 2.6600227156824719e+01 1.6102017444062369e+01 1.2742925903218985e+00 0 0 0
2247 113 6 -1.5240000000000000e-02 2.9229151669511925e+01 1.7725064294916582e+01 3.2112050946139714e+00 0 0 0
2248 113 5 -3.5940000000000000e-02 2.9067155459510420e+01 1.7713300086592621e+01 1.8488942461524684e+00 0 0 0
2257 113 24 6.4560000000000006e-02 2.9397750753938471e+01 1.6884772367228795e+01 1.2646705953823703e+00 0 0 0
2241 113 6 -1.5240000000000000e-02 2.9753418862142563e+01 1.6572901716521482e+01 3.9670003492644970e+00 0 0 0
2254 113 24 6.4560000000000006e-02 3.0146562742953495e+01 1.5229629284682826e+01 2.2569274188852018e+00 0 0 0
2243 113 5 -3.5940000000000000e-02 3.0025968460106494e+01 1.5312577469474784e+01 3.3278658243028589e+00 0 0 0
2249 113 5 -3.5940000000000000e-02 2.8802849305420306e+01 1.8896202323619651e+01 3.8549293267226097e+00 0 0 0
2242 113 5 -3.5940000000000000e-02 2.9932274564225871e+01 1.6586495671417087e+01 5.4187708472929765e+00 0 0 0
2263 114 5 -3.5940000000000000e-02 3.2570227730880141e+01 1.8209840071328379e+01 1.5382554189060831e+00 0 0 1
2274 114 24 6.4560000000000006e-02 3.2200959466770257e+01 1.8964974875635367e+01 8.5533928909650325e-01 0 0 1
2277 114 24 6.4560000000000006e-02 3.1666803096531840e+01 1.7920288434314415e+01 4.6241136469948415e+01 0 0 0
2262 114 5 -3.5940000000000000e-02 3.3569651757787994e+01 1.6059815474740009e+01 2.0990600524505187e+00 0 0 1
2269 114 5 -3.5940000000000000e-02 3.4482012138545670e+01 1.5862102223413736e+01 4.6173365308314111e+01 0 0 0
2267 114 6 -1.5240000000000000e-02 3.3457417337416757e+01 1.6735251864748843e+01 4.6685037129949407e+01 0 0 0
2261 114 6 -1.5240000000000000e-02 3.3211833135092235e+01 1.7015918613057977e+01 1.1492116640595400e+00 0 0 1
2268 114 5 -3.5940000000000000e-02 3.2497895679133002e+01 1.7302724385551929e+01 4.5838863918911500e+01 0 0 0
2251 113 5 2.7340000000000000e-02 2.8107678903714888e+01 1.9872250288328082e+01 3.1642243514534258e+00 0 0 0
2252 113 42 -2.6469999999999999e-01 2.7952078308027247e+01 1.9826829089450396e+01 1.8452489061348407e+00 0 0 0
2250 113 5 2.7340000000000000e-02 2.8371577192358640e+01 1.8739305520429902e+01 1.1881679428692036e+00 0 0 0
2259 113 22 8.4010000000000001e-02 2.8081815736094324e+01 1.8705972039441253e+01 1.1463675527652341e-01 0 0 0
2258 113 24 6.4560000000000006e-02 2.8954197155203353e+01 1.9153447083161581e+01 4.8920866737084170e+00 0 0 0
2265 114 5 2.7340000000000000e-02 3.2305744131831354e+01 1.8389983996477380e+01 2.8952274791900066e+00 0 0 1
2260 113 22 8.4010000000000001e-02 2.7895851578148541e+01 2.0771270606682030e+01 3.5966715252421677e+00 0 0 0
2264 114 5 2.7340000000000000e-02 3.3241151594917987e+01 1.6326229275063223e+01 3.3883648875391961e+00 0 0 1
2266 114 42 -2.6469999999999999e-01 3.2663243448322625e+01 1.7455526096542314e+01 3.8198224104321983e+00 0 0 1
2253 113 24 6.4560000000000006e-02 2.9700602760801459e+01 1.7520765072069391e+01 5.8840389845422347e+00 0 0 0
2219 111 22 8.4010000000000001e-02 3.0301838214357677e+01 1.9868120922230769e+01 6.1889285874288174e+00 0 0 0
2276 114 22 8.4010000000000001e-02 3.1804840705385722e+01 1.9266429749804470e+01 3.2268589592542876e+00 0 0 1
2273 114 24 6.4560000000000006e-02 3.4007138806860127e+01 1.5158436920899653e+01 1.7801650978809853e+00 0 0 1
2278 114 24 6.4560000000000006e-02 3.5120021233538452e+01 1.5255503478593553e+01 4.6804546303116837e+01 0 0 0
2275 114 22 8.4010000000000001e-02 3.3449219771721971e+01 1.5564636068866333e+01 4.1524059879815551e+00 0 0 1
816 41 22 8.4010000000000001e-02 1.3616325125605615e+01 2.2506662432190669e+01 4.4134615341901743e+01 1 -1 0
806 41 42 -2.6469999999999999e-01 1.3960868460802301e+01 2.3914167863316003e+01 4.5569976626944801e+01 1 -1 0
815 41 22 8.4010000000000001e-02 1.4556080154876671e+01 2.5532303721592278e+01 4.6779820764962601e+01 1 -1 0
1634 82 24 6.4560000000000006e-02 1.9520796322861727e+01 2.1820408461979238e+01 5.7727338983282994e-01 0 0 0
1625 82 5 2.7340000000000000e-02 1.7908277363425846e+01 2.0434722888287997e+01 1.1930942597304373e+00 0 0 0
1623 82 5 -3.5940000000000000e-02 1.8804232763081483e+01 2.1510430347801513e+01 1.3731023673238307e+00 0 0 0
1627 82 6 -1.5240000000000000e-02 1.9447471179605426e+01 2.3511359196437027e+01 2.9078470440460271e+00 0 0 0
1621 82 6 -1.5240000000000000e-02 1.8599213424357810e+01 2.2314465155169980e+01 2.5035051566397195e+00 0 0 0
1626 82 42 -2.6469999999999999e-01 1.6947115075117253e+01 2.0070732452517202e+01 2.0668228726012536e+00 0 0 0
1624 82 5 2.7340000000000000e-02 1.6698790373553269e+01 2.0846614983188310e+01 3.1478886626700406e+00 0 0 0
1635 82 22 8.4010000000000001e-02 1.5848126360047255e+01 2.0611344123645146e+01 3.7696496210458532e+00 0 0 0
1622 82 5 -3.5940000000000000e-02 1.7577805626722348e+01 2.1904235005674099e+01 3.4004431520330431e+00 0 0 0
1633 82 24 6.4560000000000006e-02 1.7399756498624473e+01 2.2439684137263633e+01 4.3520884516673854e+00 0 0 0
813 41 24 6.4560000000000006e-02 1.6931505123943893e+01 2.4991690535175330e+01 4.6608395889294954e+01 1 -1 0
817 41 24 6.4560000000000006e-02 1.9090866798053110e+01 2.4702128361218868e+01 4.6233998730138900e+01 1 -1 0
1638 82 24 6.4560000000000006e-02 1.7700459503676353e+01 2.4721738095775834e+01 3.4809782358115586e+00 0 0 0
804 41 5 2.7340000000000000e-02 1.4888778903061269e+01 2.4750273372735393e+01 4.6145745313973407e+01 1 -1 0
802 41 5 -3.5940000000000000e-02 1.6264436919816013e+01 2.4486952636709173e+01 4.6017514026080491e+01 1 -1 0
1629 82 5 -3.5940000000000000e-02 1.8771181840655917e+01 2.4674900047399351e+01 3.3421601173575159e+00 0 0 0
797 40 24 6.4560000000000006e-02 2.0517647345146116e+01 2.5860142431573561e+01 6.5762286619124453e+00 0 0 0
1631 82 5 2.7340000000000000e-02 1.9474834323445332e+01 2.5853821218955336e+01 3.6159941637374562e+00 0 0 0
805 41 5 2.7340000000000000e-02 1.4407268883101661e+01 2.2968319436696216e+01 4.4733679881776297e+01 1 -1 0
803 41 5 -3.5940000000000000e-02 1.5717310488449275e+01 2.2663411741836963e+01 4.4536365919995518e+01 1 -1 0
808 41 5 -3.5940000000000000e-02 1.9249528504672270e+01 2.3748818550071743e+01 4.5740770453197626e+01 1 -1 0
801 41 6 -1.5240000000000000e-02 1.6703474444503069e+01 2.3416410664957816e+01 4.5208897395460355e+01 1 -1 0
1619 81 22 8.4010000000000001e-02 2.2545914683499259e+01 1.9022740586280868e+01 9.5486994676211134e-01 0 0 0
1639 82 22 8.4010000000000001e-02 2.2531167783645635e+01 2.4893422556651768e+01 2.8750645858230692e+00 0 0 0
1199 60 22 8.4010000000000001e-02 2.1349933765568533e+01 2.0516323548464332e+01 5.2577786777472539e+00 0 0 0
1637 82 24 6.4560000000000006e-02 2.1383363324579275e+01 2.2880027086879558e+01 2.1003241256381080e+00 0 0 0
1628 82 5 -3.5940000000000000e-02 2.0815976574946887e+01 2.3657359893125651e+01 2.5598462801684412e+00 0 0 0
1630 82 5 2.7340000000000000e-02 2.1450107990160440e+01 2.4846431872534577e+01 2.9838726575253038e+00 0 0 0
2169 109 5 -3.5940000000000000e-02 2.5092315711893114e+01 2.1071291840041205e+01 4.2919485430191679e+00 0 0 0
1632 82 42 -2.6469999999999999e-01 2.0772316736024795e+01 2.5947060916039167e+01 3.4205022845074198e+00 0 0 0
2180 109 22 8.4010000000000001e-02 2.4739069941720331e+01 2.1781711183980629e+01 2.2506914007523076e+00 0 0 0
2171 109 5 2.7340000000000000e-02 2.4903737209798873e+01 2.2033354100255544e+01 3.2865658025044584e+00 0 0 0
790 40 5 2.7340000000000000e-02 2.1593834339552938e+01 2.4001964346251892e+01 6.3719821526172327e+00 0 0 0
2172 109 42 -2.6469999999999999e-01 2.4837760948077165e+01 2.3362660018789555e+01 3.6173232670031412e+00 0 0 0
799 40 22 8.4010000000000001e-02 2.2232601660379107e+01 2.4347079337765848e+01 5.5726082117878768e+00 0 0 0
2167 109 6 -1.5240000000000000e-02 2.5288808844049061e+01 2.1449716693794006e+01 5.5844961990587976e+00 0 0 0
2170 109 5 2.7340000000000000e-02 2.4956122968811915e+01 2.3769718274612760e+01 4.8756290595342993e+00 0 0 0
2179 109 22 8.4010000000000001e-02 2.4999835245751640e+01 2.4871929763224998e+01 5.0270056025126131e+00 0 0 0
2299 115 22 8.4010000000000001e-02 2.3287180591422821e+01 2.1241896268284314e+01 5.2220004379218465e-01 0 0 1
2290 115 5 2.7340000000000000e-02 2.3581731246322981e+01 2.2053713835861924e+01 4.6738934993378635e+01 0 0 0
2292 115 42 -2.6469999999999999e-01 2.3674300831568075e+01 2.3341466400968429e+01 1.3188801651100890e-01 0 0 1
870 44 5 2.7340000000000000e-02 2.8834968705442140e+01 2.5238787823792222e+01 4.5960559657377571e+00 0 0 0
877 44 24 6.4560000000000006e-02 2.7617213312781264e+01 2.4447660026401749e+01 2.9599270969974132e+00 0 0 0
873 44 24 6.4560000000000006e-02 2.7437020526080975e+01 2.3652630626771437e+01 1.1011995967545449e+00 0 0 0
867 44 6 -1.5240000000000000e-02 2.9796003575855210e+01 2.4390474933362785e+01 2.5194861929464865e+00 0 0 0
868 44 5 -3.5940000000000000e-02 2.8615566152988322e+01 2.4699136630814657e+01 3.3361616408962607e+00 0 0 0
861 44 6 -1.5240000000000000e-02 2.9635052852694972e+01 2.3573619431107730e+01 1.2451255274960857e+00 0 0 0
862 44 5 -3.5940000000000000e-02 2.8356787354955799e+01 2.3300568724328809e+01 7.0519315964532692e-01 0 0 0
869 44 5 -3.5940000000000000e-02 3.1060186611673938e+01 2.4808609798031718e+01 2.9955680213109024e+00 0 0 0
879 44 22 8.4010000000000001e-02 2.7987652446829973e+01 2.5332104482759895e+01 5.2566915850455036e+00 0 0 0
878 44 24 6.4560000000000006e-02 3.1984756273901045e+01 2.4604365317933880e+01 2.4900806140826584e+00 0 0 0
872 44 42 -2.6469999999999999e-01 3.0016803058749364e+01 2.5683635931723980e+01 5.0219432983870318e+00 0 0 0
1877 94 24 6.4560000000000006e-02 2.6177812479128495e+01 2.8293954060598722e+01 5.8874698910613423e+00 0 0 0
1870 94 5 2.7340000000000000e-02 2.6308581411070470e+01 2.7763660121454894e+01 3.7916039662371923e+00 0 0 0
1879 94 22 8.4010000000000001e-02 2.7366610065575209e+01 2.7679013069357559e+01 3.8033051356216947e+00 0 0 0
871 44 5 2.7340000000000000e-02 3.1111393555838799e+01 2.5481202888468765e+01 4.2616929011824656e+00 0 0 0
880 44 22 8.4010000000000001e-02 3.2083611268472453e+01 2.5798135626622845e+01 4.6878446273463839e+00 0 0 0
863 44 5 -3.5940000000000000e-02 3.0744107109778163e+01 2.2991109114136009e+01 5.3829648913220107e-01 0 0 0
874 44 24 6.4560000000000006e-02 3.1775045437764277e+01 2.3199289887479196e+01 8.1551197727042479e-01 0 0 0
865 44 5 2.7340000000000000e-02 3.0525303478690109e+01 2.2033723910089375e+01 4.6567158381665941e+01 0 0 -1
876 44 22 8.4010000000000001e-02 3.1361111246635112e+01 2.1571222631374468e+01 4.6055138401382997e+01 0 0 -1
1640 82 22 8.4010000000000001e-02 1.9061347504691529e+01 2.6718022334935558e+01 4.0591981107174853e+00 0 0 0
2233 112 24 6.4560000000000006e-02 1.5053756131844800e+01 2.8240564381505646e+01 1.3528876372179481e+00 0 0 0
2222 112 5 -3.5940000000000000e-02 1.6106650397107067e+01 2.8575157576133677e+01 1.5512218346071127e+00 0 0 0
2235 112 22 8.4010000000000001e-02 1.6003371233691190e+01 2.8813053559431349e+01 3.6459090834055425e+00 0 0 0
2224 112 5 2.7340000000000000e-02 1.6658683290961207e+01 2.8913880223926487e+01 2.8044995256193133e+00 0 0 0
2226 112 42 -2.6469999999999999e-01 1.7987420380280636e+01 2.9165290132702612e+01 3.0127399132472537e+00 0 0 0
2237 112 24 6.4560000000000006e-02 1.4427658067759133e+01 2.9381170709274770e+01 4.6446697660484446e+01 0 0 -1
2221 112 6 -1.5240000000000000e-02 1.6959523351151276e+01 2.8675089872801419e+01 3.8779370892644804e-01 0 0 0
2225 112 5 2.7340000000000000e-02 1.8766393014350118e+01 2.9188562337041763e+01 1.9220983058173025e+00 0 0 0
2223 112 5 -3.5940000000000000e-02 1.8341549620434428e+01 2.8844062836040418e+01 6.0235797144810932e-01 0 0 0
1867 94 6 -1.5240000000000000e-02 2.4201433303833504e+01 2.8246973236613773e+01 4.9578889022692341e+00 0 0 0
1869 94 5 -3.5940000000000000e-02 2.3600758735420666e+01 2.8070283839895620e+01 3.7435016544438624e+00 0 0 0
1878 94 24 6.4560000000000006e-02 2.2520690368270373e+01 2.7923993579926417e+01 3.7030223604684798e+00 0 0 0
1873 94 24 6.4560000000000006e-02 2.1664324878260480e+01 2.9342981468927508e+01 5.2114618901497582e+00 0 0 0
1871 94 5 2.7340000000000000e-02 2.4372523497975958e+01 2.7780166756944620e+01 2.6023058908695389e+00 0 0 0
1872 94 42 -2.6469999999999999e-01 2.5709986712301006e+01 2.7714503118305490e+01 2.5938965333061468e+00 0 0 0
1880 94 22 8.4010000000000001e-02 2.3882716256815723e+01 2.7477592003183872e+01 1.7245480884890767e+00 0 0 0
2234 112 24 6.4560000000000006e-02 1.9011364989826561e+01 2.8896119744320782e+01 4.6729319907779008e+01 0 0 -1
2236 112 22 8.4010000000000001e-02 1.9804568354165422e+01 2.9204131279804319e+01 2.1800690665422851e+00 0 0 0
1868 94 5 -3.5940000000000000e-02 2.5630169329964811e+01 2.8134616548696975e+01 4.9437555823913799e+00 0 0 0
2112 106 42 -2.6469999999999999e-01 2.3700475001923316e+01 6.0386817251630447e+00 1.1543917461472965e+01 0 0 0
2111 106 5 2.7340000000000000e-02 2.4233121435373373e+01 6.7527363764053101e+00 1.0610625412627682e+01 0 0 0
2119 106 22 8.4010000000000001e-02 2.4108947026792045e+01 4.8718589751766608e+00 1.3201763590199674e+01 0 0 0
2110 106 5 2.7340000000000000e-02 2.4530964372236674e+01 5.5405961337924357e+00 1.2492706639919618e+01 0 0 0
2117 106 24 6.4560000000000006e-02 2.6461390392070047e+01 5.2512867834808450e+00 1.3267002587827307e+01 0 0 0
2108 106 5 -3.5940000000000000e-02 2.5864851195749463e+01 5.8172604582277954e+00 1.2525129799372291e+01 0 0 0
2107 106 6 -1.5240000000000000e-02 2.6488894430485473e+01 6.3680053083869241e+00 1.1392639412539344e+01 0 0 0
2114 106 24 6.4560000000000006e-02 2.8446204914607158e+01 5.0850243007364639e+00 1.2830104732502914e+01 0 0 0
2103 106 5 -3.5940000000000000e-02 2.8841281188918458e+01 5.7759015948512946e+00 1.2127971089729728e+01 0 0 0
2120 106 22 8.4010000000000001e-02 2.3535591466770299e+01 7.2346677296522364e+00 9.9401626587996414e+00 0 0 0
2109 106 5 -3.5940000000000000e-02 2.5603978057898019e+01 6.9151047575160156e+00 1.0490176083691741e+01 0 0 0
376 19 22 8.4010000000000001e-02 2.3403663405896864e+01 1.0699396592095445e+01 1.0619949960819573e+01 0 0 0
365 19 5 2.7340000000000000e-02 2.2974347159682065e+01 1.0952455702668100e+01 1.1605412269745758e+01 0 0 0
366 19 42 -2.6469999999999999e-01 2.2725897817943057e+01 9.8959878326321391e+00 1.2388550197433696e+01 0 0 0
363 19 5 -3.5940000000000000e-02 2.2913681261854435e+01 1.2211496499083587e+01 1.2109347549258914e+01 0 0 0
374 19 24 6.4560000000000006e-02 2.3246660813251275e+01 1.3059107230974226e+01 1.1521711564983926e+01 0 0 0
1995 100 22 8.4010000000000001e-02 2.5736188813728138e+01 1.1115053978404349e+01 1.2740979805267660e+01 0 0 0
2118 106 24 6.4560000000000006e-02 2.6004334235897762e+01 7.4323907018792381e+00 9.6188617670295535e+00 0 0 0
2115 106 22 8.4010000000000001e-02 3.0320209844230064e+01 8.7678411555215288e+00 1.0167521425738020e+01 0 0 0
2106 106 42 -2.6469999999999999e-01 3.0738336670799310e+01 7.0980051459680134e+00 1.1479595439822509e+01 0 0 0
2105 106 5 2.7340000000000000e-02 3.0213097052084827e+01 6.0046443217622603e+00 1.2108851900228744e+01 0 0 0
2116 106 22 8.4010000000000001e-02 3.0967326505313430e+01 5.4307629199427305e+00 1.2620311602879786e+01 0 0 0
2104 106 5 2.7340000000000000e-02 2.9895240038619928e+01 7.8986862189664979e+00 1.0704738437750954e+01 0 0 0
2113 106 24 6.4560000000000006e-02 2.7928057973679191e+01 8.3121697602886861e+00 1.0114957707072779e+01 0 0 0
1726 87 42 -2.6469999999999999e-01 2.6969088827100116e+01 1.1221026507739280e+01 7.2382888715624558e+00 0 0 0
1735 87 22 8.4010000000000001e-02 2.5233033065752103e+01 1.0539714672871407e+01 8.2469907248934202e+00 0 0 0
1722 87 5 -3.5940000000000000e-02 2.6015628423716706e+01 1.2189939149239164e+01 9.2781563478717519e+00 0 0 0
1724 87 5 2.7340000000000000e-02 2.6077979822912297e+01 1.1261853539929749e+01 8.2812066999957548e+00 0 0 0
1733 87 24 6.4560000000000006e-02 2.5280197770270139e+01 1.2127275011711173e+01 1.0088652817953424e+01 0 0 0
2101 106 6 -1.5240000000000000e-02 2.7981182411606724e+01 6.5152794283596949e+00 1.1313739902727116e+01 0 0 0
2102 106 5 -3.5940000000000000e-02 2.8487323681120742e+01 7.6208503107075334e+00 1.0668974573259003e+01 0 0 0
755 38 22 8.4010000000000001e-02 2.9478516870798455e+01 1.4119373380627108e+01 1.3632705728145579e+01 0 0 0
744 38 5 2.7340000000000000e-02 2.9519404046939201e+01 1.5074049310588070e+01 1.4111204851897229e+01 0 0 0
246 13 42 -2.6469999999999999e-01 3.1184990608848135e+01 1.2250099052153237e+01 1.1737863175830944e+01 0 0 0
244 13 5 2.7340000000000000e-02 3.0539257075060554e+01 1.3005807872636387e+01 1.0830170773497050e+01 0 0 0
255 13 22 8.4010000000000001e-02 2.9501716736070946e+01 1.2713527023374937e+01 1.0585220602951399e+01 0 0 0
242 13 5 -3.5940000000000000e-02 3.1099378342760300e+01 1.4122733175617322e+01 1.0277171109071041e+01 0 0 0
245 13 5 2.7340000000000000e-02 3.2495308446144712e+01 1.2485947275680415e+01 1.2018989140662544e+01 0 0 0
1986 100 42 -2.6469999999999999e-01 2.7704788236131705e+01 1.0546764352139924e+01 1.3088394155456582e+01 0 0 0
1985 100 5 2.7340000000000000e-02 2.8551734305447518e+01 9.6920232549033507e+00 1.3705356713504157e+01 0 0 0
1996 100 22 8.4010000000000001e-02 2.9584018500702268e+01 9.7888202493483423e+00 1.3454157447436339e+01 0 0 0
256 13 22 8.4010000000000001e-02 3.2961718197393679e+01 1.1731311616166781e+01 1.2642899896091963e+01 0 0 0
243 13 5 -3.5940000000000000e-02 3.3133023973881542e+01 1.3592457394593213e+01 1.1495352780150599e+01 0 0 0
254 13 24 6.4560000000000006e-02 3.4185471945222858e+01 1.3764047503563383e+01 1.1823349356912477e+01 0 0 0
918 46 24 6.4560000000000006e-02 1.3502341134694520e+01 1.5693291942423937e+01 9.0450102587184062e+00 0 -1 0
920 46 22 8.4010000000000001e-02 1.4936188875597077e+01 1.7054129790132585e+01 7.6306740219137845e+00 0 -1 0
911 46 5 2.7340000000000000e-02 1.5436388612223970e+01 1.6330239023347215e+01 8.2658525943997123e+00 0 -1 0
902 46 5 -3.5940000000000000e-02 1.3111880765857743e+01 1.4256344611590126e+01 1.1370366892280302e+01 0 -1 0
913 46 24 6.4560000000000006e-02 1.2851981737680187e+01 1.5240528192054555e+01 1.1135283263597902e+01 0 -1 0
909 46 5 -3.5940000000000000e-02 1.4580784789785358e+01 1.5541115835084844e+01 9.0894818453443786e+00 0 -1 0
2034 102 24 6.4560000000000006e-02 1.1729341485672553e+01 1.7973316765051944e+01 1.1206064843123579e+01 0 0 0
2028 102 5 -3.5940000000000000e-02 1.4394087546192612e+01 1.7748234091403042e+01 1.2318692937010139e+01 0 0 0
2037 102 24 6.4560000000000006e-02 1.4065446012561242e+01 1.8732726834090258e+01 1.1921844502400612e+01 0 0 0
919 46 22 8.4010000000000001e-02 1.8381223012041801e+01 1.5434092123581928e+01 9.3519262802910106e+00 0 -1 0
1193 60 24 6.4560000000000006e-02 2.0633771331780071e+01 1.4641029100797649e+01 7.2828144335369327e+00 0 0 0
2030 102 5 2.7340000000000000e-02 1.5722306904808473e+01 1.7313136715249986e+01 1.2312422762219857e+01 0 0 0
910 46 5 2.7340000000000000e-02 1.7325111042840092e+01 1.5386752362746178e+01 9.1911120569773370e+00 0 -1 0
908 46 5 -3.5940000000000000e-02 1.6552366650903810e+01 1.4635079230737738e+01 1.0059070606928561e+01 0 -1 0
914 46 24 6.4560000000000006e-02 1.5764849222457757e+01 1.2176455369767293e+01 1.1109901853460391e+01 0 -1 0
917 46 24 6.4560000000000006e-02 1.7117612846389672e+01 1.4116710650346525e+01 1.0816014275208948e+01 0 -1 0
903 46 5 -3.5940000000000000e-02 1.4811662924475572e+01 1.2555613312815931e+01 1.1454985975184680e+01 0 -1 0
907 46 6 -1.5240000000000000e-02 1.5157504750202582e+01 1.4603074989377761e+01 9.9624564767652295e+00 0 -1 0
901 46 6 -1.5240000000000000e-02 1.4365121120309025e+01 1.3776346755749961e+01 1.0933386161278646e+01 0 -1 0
912 46 42 -2.6469999999999999e-01 1.6784565462989391e+01 1.6281582914664103e+01 8.3588495725500547e+00 0 -1 0
2039 102 22 8.4010000000000001e-02 1.6354842830108606e+01 1.7664904528394256e+01 1.1485999606200679e+01 0 0 0
514 26 24 6.4560000000000006e-02 1.7862540682757285e+01 1.8871398590129374e+01 8.6481550393136324e+00 0 0 0
1892 95 42 -2.6469999999999999e-01 1.8788463715601935e+01 1.2922774396141850e+01 1.3574527631960100e+01 0 0 1
1890 95 5 2.7340000000000000e-02 1.9120622018450216e+01 1.4238232256999842e+01 1.3761135494364279e+01 0 0 1
1899 95 22 8.4010000000000001e-02 1.9369016392570732e+01 1.4808748978974247e+01 1.2883800015393236e+01 0 0 1
508 26 5 -3.5940000000000000e-02 1.8851256432895404e+01 1.9950587574776996e+01 1.2513771201092318e+01 0 0 0
507 26 6 -1.5240000000000000e-02 1.8743238272230631e+01 1.9696709535813458e+01 1.1142529710405414e+01 0 0 0
501 26 6 -1.5240000000000000e-02 1.7556966761888305e+01 2.0235331389111689e+01 1.0315144240512831e+01 0 0 0
503 26 5 -3.5940000000000000e-02 1.7281509495810038e+01 1.9690001222614491e+01 9.0332211296626745e+00 0 0 0
2162 109 5 -3.5940000000000000e-02 2.5837612131552035e+01 1.9154692726522669e+01 6.6053957442420312e+00 0 0 0
1194 60 24 6.4560000000000006e-02 2.3015898358391564e+01 1.8111329417382308e+01 8.5291658400596049e+00 0 0 0
1195 60 22 8.4010000000000001e-02 2.2101311461278360e+01 1.3212765004719683e+01 8.5017052232198491e+00 0 0 0
1186 60 42 -2.6469999999999999e-01 2.3195369958053629e+01 1.4770458602483696e+01 9.3629232576483190e+00 0 0 0
377 19 24 6.4560000000000006e-02 2.3351877430003011e+01 1.5128368498115876e+01 1.2324439490053898e+01 0 0 0
510 26 5 2.7340000000000000e-02 1.9925424916817470e+01 1.9625245369672967e+01 1.3267743399193540e+01 0 0 0
1184 60 5 2.7340000000000000e-02 2.2268282503578913e+01 1.4265595405946417e+01 8.5542503295280934e+00 0 0 0
1182 60 5 -3.5940000000000000e-02 2.1420091722780882e+01 1.5155129668103633e+01 7.8133859205733067e+00 0 0 0
1181 60 6 -1.5240000000000000e-02 2.1760113347572894e+01 1.6478824421149127e+01 7.7078582836325884e+00 0 0 0
1185 60 5 2.7340000000000000e-02 2.3491804593023701e+01 1.6080142070721074e+01 9.3199150788778962e+00 0 0 0
1196 60 22 8.4010000000000001e-02 2.4214074078902932e+01 1.6465736642115488e+01 1.0033561022464120e+01 0 0 0
1183 60 5 -3.5940000000000000e-02 2.2750638149200558e+01 1.6978453717174478e+01 8.5436050109379877e+00 0 0 0
2164 109 5 2.7340000000000000e-02 2.5921261456727517e+01 1.8403870457202679e+01 7.7456911433202738e+00 0 0 0
512 26 42 -2.6469999999999999e-01 2.0897041147058612e+01 1.8912644596460208e+01 1.2743184528909094e+01 0 0 0