LAMMPS data file via write_data, version 20 Nov 2019, timestep = 1000

2560 atoms
71 atom types
2688 bonds
807 bond types
4096 angles
4248 angle types
5632 dihedrals
641 dihedral types
512 impropers
38 improper types

0.0000000000000000e+00 4.7000000000000000e+01 xlo xhi
0.0000000000000000e+00 4.7070000000000000e+01 ylo yhi
0.0000000000000000e+00 4.7000000000000000e+01 zlo zhi

Masses

1 12.01
2 12.01
3 12.01
4 12.01
5 12.01
6 12.01
7 12.01
8 12.01
9 12.01
10 12.01
11 12.01
12 12.01
13 12.01
14 12.01
15 12.01
16 12.01
17 12.01
18 12.01
19 1.008
20 1.008
21 1.008
22 1.008
23 1.008
24 1.008
25 1.008
26 1.008
27 1.008
28 1.008
29 1.008
30 1.008
31 1.008
32 19
33 35.45
34 79.9
35 126.9
36 14.01
37 14.01
38 14.01
39 14.01
40 14.01
41 14.01
42 14.01
43 14.01
44 14.01
45 14.01
46 14.01
47 14.01
48 14.01
49 16
50 16
51 16
52 16
53 30.97
54 30.97
55 30.97
56 30.97
57 30.97
58 30.97
59 30.97
60 30.97
61 30.97
62 30.97
63 30.97
64 32.06
65 32.06
66 32.06
67 32.06
68 32.06
69 32.06
70 32.06
71 32.06

Atoms # full

1441 73 6 -1.5240000000000000e-02 1.5442311459612494e+01 1.0082516331811968e+01 4.5805208402538511e+01 0 0 -1
1442 73 5 -3.5940000000000000e-02 1.4056187684631691e+01 1.0291746394009799e+01 4.5963022944146665e+01 0 0 -1
1443 73 5 -3.5940000000000000e-02 1.5839388979356462e+01 8.9085739891737497e+00 4.5129666895297881e+01 0 0 -1
1444 73 5 2.7340000000000000e-02 1.3159779783238079e+01 9.3449511405707160e+00 4.5471162748443248e+01 0 0 -1
1445 73 5 2.7340000000000000e-02 1.4869546916023330e+01 8.0208135038849431e+00 4.4667951049871590e+01 0 0 -1
1446 73 42 -2.6469999999999999e-01 1.3545590262424369e+01 8.2211651583349568e+00 4.4831593644635085e+01 0 0 -1
1447 73 6 -1.5240000000000000e-02 1.6452109125607741e+01 1.1062715231445805e+01 4.6343446635820875e+01 0 0 -1
1448 73 5 -3.5940000000000000e-02 1.7779194351816248e+01 1.0674600795935126e+01 4.6623938417308260e+01 0 0 -1
1453 73 24 6.4560000000000006e-02 1.3661676925109724e+01 1.1162854469627144e+01 4.6478005897566682e+01 0 0 -1
1455 73 22 8.4010000000000001e-02 1.2085960459286547e+01 9.4733107236293286e+00 4.5593725698095547e+01 0 0 -1
1456 73 22 8.4010000000000001e-02 1.5148067294766786e+01 7.1083395812427703e+00 4.4144358548068439e+01 0 0 -1
1457 73 24 6.4560000000000006e-02 1.8123465924426863e+01 9.6577933296512199e+00 4.6464711419243990e+01 0 0 -1
918 46 24 6.4560000000000006e-02 3.1514664318708984e+01 4.2940264867279607e+00 1.1572427464334366e+01 0 0 0
920 46 22 8.4010000000000001e-02 2.9697266650429320e+01 2.9183473135336149e+00 1.0619707946010012e+01 0 0 0
996 50 22 8.4010000000000001e-02 3.1795593204991814e+01 1.1309238169451177e+00 8.3878767322080012e+00 0 0 0
144 8 5 2.7340000000000000e-02 3.4238366671524510e+01 4.5968354941581119e+01 7.8001815620967125e+00 0 -1 0
145 8 5 2.7340000000000000e-02 3.5313869699241195e+01 4.6594342151060950e+01 5.8643255492532145e+00 0 -1 0
146 8 42 -2.6469999999999999e-01 3.4245410974863141e+01 4.6022090119113663e+01 6.4537399631974575e+00 0 -1 0
155 8 22 8.4010000000000001e-02 3.3360795161607570e+01 4.5508961539055989e+01 8.2510196492768220e+00 0 -1 0
156 8 22 8.4010000000000001e-02 3.5293628309482173e+01 4.6621854249172465e+01 4.7766120975174582e+00 0 -1 0
994 50 24 6.4560000000000006e-02 3.3459649079590186e+01 2.4480223759192303e+00 7.1396130961418782e+00 0 0 0
2304 116 5 2.7340000000000000e-02 7.4511489031016156e+00 1.0445533146776217e+01 7.5920861948114657e+00 0 0 0
2306 116 42 -2.6469999999999999e-01 6.4375388174230128e+00 1.1201297604678849e+01 8.0621402181114572e+00 0 0 0
2315 116 22 8.4010000000000001e-02 7.2660271569883061e+00 9.3732274448104178e+00 7.5677644542874898e+00 0 0 0
1121 57 6 -1.5240000000000000e-02 1.2829719374588729e+01 1.5395479590700678e+01 4.6287222050109676e+01 0 0 -1
1127 57 6 -1.5240000000000000e-02 1.2099228922384974e+01 1.4164609317811276e+01 4.5831630460396070e+01 0 0 -1
1129 57 5 -3.5940000000000000e-02 1.1099047125742027e+01 1.3576275020060878e+01 4.6631844424711147e+01 0 0 -1
1131 57 5 2.7340000000000000e-02 1.0483164830053601e+01 1.2401456788216187e+01 4.6206279339282233e+01 0 0 -1
1132 57 42 -2.6469999999999999e-01 1.0780478862975293e+01 1.1797218283958330e+01 4.5037684469711934e+01 0 0 -1
1138 57 24 6.4560000000000006e-02 1.0812743456108320e+01 1.4005405884702391e+01 5.8895406094427249e-01 0 0 0
1140 57 22 8.4010000000000001e-02 9.7286067106030529e+00 1.1910571381368046e+01 4.6817042343333156e+01 0 0 -1
1123 57 5 -3.5940000000000000e-02 1.4191372474197786e+01 1.5589679115647971e+01 4.5982309818759042e+01 0 0 -1
1128 57 5 -3.5940000000000000e-02 1.2406374673733785e+01 1.3531575372300720e+01 4.4610984812910587e+01 0 0 -1
1130 57 5 2.7340000000000000e-02 1.1725517208678188e+01 1.2366672855465200e+01 4.4258029069626431e+01 0 0 -1
1134 57 24 6.4560000000000006e-02 1.4747818391694807e+01 1.4863551876140150e+01 4.5395890922749565e+01 0 0 -1
1137 57 24 6.4560000000000006e-02 1.3151071346074025e+01 1.3937222951240495e+01 4.3934055555413494e+01 0 0 -1
1139 57 22 8.4010000000000001e-02 1.1940959941106795e+01 1.1849273284385967e+01 4.3323082586986473e+01 0 0 -1
1449 73 5 -3.5940000000000000e-02 1.6110711737149995e+01 1.2406138338289356e+01 4.6603482984627043e+01 0 0 -1
1450 73 5 2.7340000000000000e-02 1.8670541864823171e+01 1.1606631489895985e+01 1.5191570176810584e-01 0 0 0
1451 73 5 2.7340000000000000e-02 1.7076829085147992e+01 1.3273486887923365e+01 1.1013664942617997e-01 0 0 0
1452 73 42 -2.6469999999999999e-01 1.8338199924406346e+01 1.2889965697882101e+01 3.9845925612454053e-01 0 0 0
1458 73 24 6.4560000000000006e-02 1.5112425165890473e+01 1.2788708722754366e+01 4.6416066568617737e+01 0 0 -1
1460 73 22 8.4010000000000001e-02 1.6839452843204189e+01 1.4314206477849037e+01 3.2409802441861008e-01 0 0 0
872 44 42 -2.6469999999999999e-01 2.2514028907298425e+01 1.2841089355548821e+01 9.0697650149436679e+00 0 0 0
879 44 22 8.4010000000000001e-02 2.3325465542545576e+01 1.1233700097618906e+01 1.0084257765246399e+01 0 0 0
1459 73 22 8.4010000000000001e-02 1.9693184942630346e+01 1.1329140948916926e+01 3.9929774654917993e-01 0 0 0
2086 105 42 -2.6469999999999999e-01 3.2903484956715772e+01 1.0021136643685292e+01 8.3279650032260975e+00 0 0 0
2083 105 5 -3.5940000000000000e-02 3.4752458068911217e+01 1.0890512433679225e+01 9.6169398423722665e+00 0 0 0
2085 105 5 2.7340000000000000e-02 3.3663446374759005e+01 1.0039051179053935e+01 9.4431206521220599e+00 0 0 0
2094 105 24 6.4560000000000006e-02 3.5319742492817866e+01 1.0834465970033131e+01 1.0542116552841485e+01 0 0 0
2096 105 22 8.4010000000000001e-02 3.3380642457119492e+01 9.3338335095467073e+00 1.0219963658695479e+01 0 0 0
2301 116 6 -1.5240000000000000e-02 8.8654686772713518e+00 1.2374054374480410e+01 7.1752609141303827e+00 0 0 0
2302 116 5 -3.5940000000000000e-02 8.6611727680291057e+00 1.0975771064689603e+01 7.1439437285003482e+00 0 0 0
2303 116 5 -3.5940000000000000e-02 7.8003267658200972e+00 1.3153973681513156e+01 7.6781103694192607e+00 0 0 0
2305 116 5 2.7340000000000000e-02 6.6233172547888435e+00 1.2536124248932795e+01 8.0926990805300356e+00 0 0 0
2307 116 6 -1.5240000000000000e-02 1.0156323096881112e+01 1.3011916643039333e+01 6.7091462601982528e+00 0 0 0
2308 116 5 -3.5940000000000000e-02 1.0282740115711416e+01 1.4412231069042470e+01 6.5715091910204215e+00 0 0 0
2309 116 5 -3.5940000000000000e-02 1.1299706088548831e+01 1.2245874718786515e+01 6.3952618430024009e+00 0 0 0
2310 116 5 2.7340000000000000e-02 1.1496946159130918e+01 1.4963996685033100e+01 6.1695592147544724e+00 0 0 0
2311 116 5 2.7340000000000000e-02 1.2470046625761277e+01 1.2887475456754254e+01 5.9892768430375778e+00 0 0 0
2312 116 42 -2.6469999999999999e-01 1.2584236187953303e+01 1.4225111754819109e+01 5.8772353929410448e+00 0 0 0
2313 116 24 6.4560000000000006e-02 9.4130596985871087e+00 1.0287599673936747e+01 6.7712549405965641e+00 0 0 0
2314 116 24 6.4560000000000006e-02 7.8627228449662665e+00 1.4232531709761810e+01 7.7669987057997121e+00 0 0 0
2317 116 24 6.4560000000000006e-02 9.4591759450362822e+00 1.5090052457254265e+01 6.7625338815207785e+00 0 0 0
2318 116 24 6.4560000000000006e-02 1.1301471817866197e+01 1.1163676502034361e+01 6.4587141321179748e+00 0 0 0
2319 116 22 8.4010000000000001e-02 1.1615275621001302e+01 1.6040539083236318e+01 6.0663834591293178e+00 0 0 0
2320 116 22 8.4010000000000001e-02 1.3360876320360051e+01 1.2323458012997635e+01 5.7282611435450956e+00 0 0 0
1122 57 5 -3.5940000000000000e-02 1.2197136990361470e+01 1.6377959545977941e+01 7.3381019232552192e-02 0 0 0
1124 57 5 2.7340000000000000e-02 1.2931453026076824e+01 1.7480753279152356e+01 5.0743391785854897e-01 0 0 0
1327 67 6 -1.5240000000000000e-02 1.2410350418079153e+01 1.1460168819175857e+01 2.6055481935582105e+00 0 0 0
1328 67 5 -3.5940000000000000e-02 1.2607881635484118e+01 1.0125847997704959e+01 2.1967521963998768e+00 0 0 0
1329 67 5 -3.5940000000000000e-02 1.1098962407532756e+01 1.1838870664255866e+01 2.9578021283792637e+00 0 0 0
1330 67 5 2.7340000000000000e-02 1.1518073111356269e+01 9.2570573196089381e+00 2.1477397892388179e+00 0 0 0
1331 67 5 2.7340000000000000e-02 1.0074606094607764e+01 1.0895437427523561e+01 2.8961534606738799e+00 0 0 0
1332 67 42 -2.6469999999999999e-01 1.0265255612495894e+01 9.6215754311070913e+00 2.4947972847970386e+00 0 0 0
1337 67 24 6.4560000000000006e-02 1.3587956390326109e+01 9.7575258889677787e+00 1.9025907418897394e+00 0 0 0
1338 67 24 6.4560000000000006e-02 1.0869530953044071e+01 1.2842761658009071e+01 3.3026703634602921e+00 0 0 0
1339 67 22 8.4010000000000001e-02 1.1639552272662748e+01 8.2242076371616957e+00 1.8243029370220101e+00 0 0 0
1340 67 22 8.4010000000000001e-02 9.0573216304594446e+00 1.1152525866151068e+01 3.1820459290976157e+00 0 0 0
1125 57 5 2.7340000000000000e-02 1.4849526352361664e+01 1.6715322703216312e+01 4.6475927891726514e+01 0 0 -1
1126 57 42 -2.6469999999999999e-01 1.4240257809229712e+01 1.7656512409945840e+01 2.2617946469080169e-01 0 0 0
1136 57 22 8.4010000000000001e-02 1.5907606896229517e+01 1.6877630620548103e+01 4.6284733363606868e+01 0 0 -1
1321 67 6 -1.5240000000000000e-02 1.3552136459873655e+01 1.2437422740944656e+01 2.6697590633792494e+00 0 0 0
1322 67 5 -3.5940000000000000e-02 1.3343719934394505e+01 1.3821805947906668e+01 2.5065910033948633e+00 0 0 0
1323 67 5 -3.5940000000000000e-02 1.4873537248177781e+01 1.2009517620594847e+01 2.9128357046959836e+00 0 0 0
1324 67 5 2.7340000000000000e-02 1.4429026465166366e+01 1.4692244232729498e+01 2.5815988251258037e+00 0 0 0
1325 67 5 2.7340000000000000e-02 1.5894056562024080e+01 1.2956403010795240e+01 2.9928931755210209e+00 0 0 0
1326 67 42 -2.6469999999999999e-01 1.5689281925891716e+01 1.4280224115109421e+01 2.8265610002057806e+00 0 0 0
1333 67 24 6.4560000000000006e-02 1.2357770414987799e+01 1.4230621078130170e+01 2.3149588060360564e+00 0 0 0
1334 67 24 6.4560000000000006e-02 1.5116778231639801e+01 1.0960589762902902e+01 3.0582828298389302e+00 0 0 0
1335 67 22 8.4010000000000001e-02 1.4300856125061760e+01 1.5763265792153424e+01 2.4436156816741343e+00 0 0 0
1336 67 22 8.4010000000000001e-02 1.6925734680787507e+01 1.2657204610639118e+01 3.1710441061652483e+00 0 0 0
2548 128 5 -3.5940000000000000e-02 2.6058879648072292e+01 1.4512784199545687e+01 9.8368607594000430e+00 0 0 0
2549 128 5 -3.5940000000000000e-02 2.8386422375000929e+01 1.4499145578937760e+01 9.2276424030895914e+00 0 0 0
2550 128 5 2.7340000000000000e-02 2.5758190553454920e+01 1.4290720915491013e+01 8.4933412191706328e+00 0 0 0
2551 128 5 2.7340000000000000e-02 2.7990853887776286e+01 1.4273928884669772e+01 7.9097772130474979e+00 0 0 0
2552 128 42 -2.6469999999999999e-01 2.6699561524755772e+01 1.4168343393442690e+01 7.5338515406267179e+00 0 0 0
2557 128 24 6.4560000000000006e-02 2.5246756377613071e+01 1.4615495946302433e+01 1.0549477795423458e+01 0 0 0
2559 128 22 8.4010000000000001e-02 2.4727893539030923e+01 1.4207324562397199e+01 8.1548824416353973e+00 0 0 0
2560 128 22 8.4010000000000001e-02 2.8724478602428096e+01 1.4168675766406455e+01 7.1133439472307938e+00 0 0 0
1439 72 22 8.4010000000000001e-02 3.9970500171865865e+01 2.9886858257948138e+01 4.6091084849159373e+01 0 0 -1
1430 72 5 2.7340000000000000e-02 4.0969299967341030e+01 3.0128325506894541e+01 4.6450327277918362e+01 0 0 -1
1431 72 5 2.7340000000000000e-02 4.2627242062577594e+01 2.9695494540492948e+01 9.9606413246195791e-01 0 0 0
1432 72 42 -2.6469999999999999e-01 4.1395753130668254e+01 2.9420611613102761e+01 5.1727113415916381e-01 0 0 0
1440 72 22 8.4010000000000001e-02 4.2943346551094315e+01 2.9104771582871983e+01 1.8538325610152842e+00 0 0 0
559 28 22 8.4010000000000001e-02 9.3157098270897141e+00 2.5132773211502791e+01 1.1527572738336339e+01 0 0 0
553 28 24 6.4560000000000006e-02 1.4746715213549273e+01 2.7944474931285153e+01 1.2159376039805771e+01 0 0 0
557 28 24 6.4560000000000006e-02 1.1588855307476997e+01 2.4761734357400730e+01 1.0635424913955264e+01 0 0 0
516 26 22 8.4010000000000001e-02 2.0158275955781644e+01 3.1355081646932558e+01 6.3642524112124930e+00 0 0 0
555 28 22 8.4010000000000001e-02 1.7050734501134823e+01 2.7446137564305761e+01 1.1414712236750498e+01 0 0 0
501 26 6 -1.5240000000000000e-02 2.3522184633378810e+01 3.1605991500686503e+01 6.9208237754848883e+00 0 0 0
502 26 5 -3.5940000000000000e-02 2.3684530211192829e+01 3.0285377846451667e+01 7.3894150237109866e+00 0 0 0
503 26 5 -3.5940000000000000e-02 2.2220342115434178e+01 3.1996296070426610e+01 6.5420127231738414e+00 0 0 0
504 26 5 2.7340000000000000e-02 2.2578046835750392e+01 2.9440301575250441e+01 7.4582214121900874e+00 0 0 0
505 26 5 2.7340000000000000e-02 2.1172918120758471e+01 3.1081620498156550e+01 6.6470317108742814e+00 0 0 0
506 26 42 -2.6469999999999999e-01 2.1334034445881468e+01 2.9818768563471011e+01 7.0957305642466038e+00 0 0 0
507 26 6 -1.5240000000000000e-02 2.4692650029535915e+01 3.2547682893691686e+01 6.8166375289520555e+00 0 0 0
508 26 5 -3.5940000000000000e-02 2.4708281794888890e+01 3.3606310422929006e+01 5.8849402685389709e+00 0 0 0
509 26 5 -3.5940000000000000e-02 2.5829647439310886e+01 3.2400892096154372e+01 7.6385915731034775e+00 0 0 0
510 26 5 2.7340000000000000e-02 2.5825521865676496e+01 3.4436244201117972e+01 5.8102746845179594e+00 0 0 0
511 26 5 2.7340000000000000e-02 2.6899903795398039e+01 3.3282102713269005e+01 7.4942612893086524e+00 0 0 0
512 26 42 -2.6469999999999999e-01 2.6912640801834478e+01 3.4289470098815741e+01 6.5969588781798150e+00 0 0 0
513 26 24 6.4560000000000006e-02 2.4657141129286700e+01 2.9899653673677040e+01 7.6811962212459148e+00 0 0 0
514 26 24 6.4560000000000006e-02 2.2007572805151788e+01 3.2998686750795819e+01 6.1811972388580649e+00 0 0 0
515 26 22 8.4010000000000001e-02 2.2677192791323645e+01 2.8414501460884679e+01 7.8093657129100205e+00 0 0 0
517 26 24 6.4560000000000006e-02 2.3875310791752828e+01 3.3786078983996333e+01 5.2112552256907341e+00 0 0 0
518 26 24 6.4560000000000006e-02 2.5888973515851571e+01 3.1623434898654303e+01 8.3947304173922817e+00 0 0 0
519 26 22 8.4010000000000001e-02 2.5862726584877606e+01 3.5260045133853907e+01 5.1008195550558870e+00 0 0 0
1434 72 24 6.4560000000000006e-02 4.3011851004588237e+01 3.2309401392627059e+01 4.3690728777714170e+01 0 0 -1
1437 72 24 6.4560000000000006e-02 4.1316679489656494e+01 3.1650024229702193e+01 4.4984253758001522e+01 0 0 -1
1421 72 6 -1.5240000000000000e-02 4.3895214906831526e+01 3.2452095954508927e+01 4.5684892052699077e+01 0 0 -1
1422 72 5 -3.5940000000000000e-02 4.4895475870567594e+01 3.3130436021602144e+01 4.6412198349426454e+01 0 0 -1
1423 72 5 -3.5940000000000000e-02 4.3745618823326232e+01 3.2796613591772569e+01 4.4326260921656498e+01 0 0 -1
1424 72 5 2.7340000000000000e-02 4.5673955435411898e+01 3.4094794947207312e+01 4.5772225439833299e+01 0 0 -1
1425 72 5 2.7340000000000000e-02 4.4570696921391679e+01 3.3772495540096635e+01 4.3772190487650221e+01 0 0 -1
1426 72 42 -2.6469999999999999e-01 4.5525514932552660e+01 3.4422450173525071e+01 4.4471144030297374e+01 0 0 -1
1427 72 6 -1.5240000000000000e-02 4.3025138704098509e+01 3.1403454587109724e+01 4.6325825415415736e+01 0 0 -1
1428 72 5 -3.5940000000000000e-02 4.1736614610926907e+01 3.1113683287456080e+01 4.5830482090586187e+01 0 0 -1
1429 72 5 -3.5940000000000000e-02 4.3464385453156687e+01 3.0664087719980905e+01 4.4340220332883118e-01 0 0 0
1433 72 24 6.4560000000000006e-02 4.5065821752029251e+01 3.2933193075597146e+01 4.6668267330862201e-01 0 0 0
1435 72 22 8.4010000000000001e-02 4.6447523155954627e+01 3.4638089491268893e+01 4.6311832612511459e+01 0 0 -1
1436 72 22 8.4010000000000001e-02 4.4472659807138214e+01 3.4049873850433542e+01 4.2725999199723852e+01 0 0 -1
1438 72 24 6.4560000000000006e-02 4.4448857743693232e+01 3.0816351426603386e+01 8.7653006070366191e-01 0 0 0
227 12 6 -1.5240000000000000e-02 1.2393737621468377e+01 2.8774659899841101e+01 9.2354113044849058e+00 0 0 0
228 12 5 -3.5940000000000000e-02 1.2273847802018945e+01 2.7972981486387390e+01 8.0787360297848352e+00 0 0 0
229 12 5 -3.5940000000000000e-02 1.1245883012668589e+01 2.8874825306680705e+01 1.0052630674562732e+01 0 0 0
230 12 5 2.7340000000000000e-02 1.1067751644954537e+01 2.7328822506471745e+01 7.8046506755275118e+00 0 0 0
231 12 5 2.7340000000000000e-02 1.0080444780722704e+01 2.8197687631827272e+01 9.6954344368279202e+00 0 0 0
232 12 42 -2.6469999999999999e-01 9.9784268866262718e+00 2.7428087306746797e+01 8.5930109724143424e+00 0 0 0
237 12 24 6.4560000000000006e-02 1.3091918586236011e+01 2.7845473581045788e+01 7.3777287630182897e+00 0 0 0
238 12 24 6.4560000000000006e-02 1.1238929259910631e+01 2.9452347596163072e+01 1.0970869487992990e+01 0 0 0
239 12 22 8.4010000000000001e-02 1.0953401595611938e+01 2.6708889343681896e+01 6.9174220963889246e+00 0 0 0
240 12 22 8.4010000000000001e-02 9.1890609853123255e+00 2.8252515371280509e+01 1.0317826479276386e+01 0 0 0
794 40 24 6.4560000000000006e-02 1.5520356396562452e+01 3.7961364318085920e+01 8.1248352002727930e+00 0 0 0
520 26 22 8.4010000000000001e-02 2.7789229921285237e+01 3.3190102500642027e+01 8.1145767802768098e+00 0 0 0
1701 86 6 -1.5240000000000000e-02 2.5610814375536837e+01 3.8259513671235140e+01 6.8902081404726179e+00 0 0 0
1702 86 5 -3.5940000000000000e-02 2.6440042362228930e+01 3.9343774617393130e+01 7.2480105139776922e+00 0 0 0
1703 86 5 -3.5940000000000000e-02 2.5163492088364031e+01 3.8213121552555336e+01 5.5529612259247711e+00 0 0 0
1704 86 5 2.7340000000000000e-02 2.6767130690082414e+01 4.0304711455086505e+01 6.2917745979675752e+00 0 0 0
1705 86 5 2.7340000000000000e-02 2.5540505213119538e+01 3.9221480714395888e+01 4.6669323931615256e+00 0 0 0
1706 86 42 -2.6469999999999999e-01 2.6328299737104981e+01 4.0259690664975672e+01 5.0167686853218436e+00 0 0 0
1707 86 6 -1.5240000000000000e-02 2.5215332553634486e+01 3.7203383490075062e+01 7.8923058981933139e+00 0 0 0
1713 86 24 6.4560000000000006e-02 2.6818775010425888e+01 3.9464393292209621e+01 8.2583427597799890e+00 0 0 0
1714 86 24 6.4560000000000006e-02 2.4538534775507895e+01 3.7404564098646659e+01 5.1860354552251104e+00 0 0 0
1716 86 22 8.4010000000000001e-02 2.5210742981255503e+01 3.9206930006983747e+01 3.6299022523711284e+00 0 0 0
1717 86 24 6.4560000000000006e-02 2.3397605459166240e+01 3.6549289581615199e+01 6.8659664534920877e+00 0 0 0
461 24 6 -1.5240000000000000e-02 3.0077164332948612e+01 3.9570068486284100e+01 4.3641940061188871e+00 0 0 0
462 24 5 -3.5940000000000000e-02 3.1293675326360439e+01 3.9274456681044342e+01 5.0132365560949896e+00 0 0 0
467 24 6 -1.5240000000000000e-02 2.9163378979467637e+01 3.8475737415113535e+01 3.8811907575415416e+00 0 0 0
468 24 5 -3.5940000000000000e-02 2.8325558325062708e+01 3.8656342903792314e+01 2.7611201133222218e+00 0 0 0
469 24 5 -3.5940000000000000e-02 2.9134917052089804e+01 3.7213585790179152e+01 4.5063814977094037e+00 0 0 0
470 24 5 2.7340000000000000e-02 2.7524660201101224e+01 3.7600581626751691e+01 2.3260533650306718e+00 0 0 0
471 24 5 2.7340000000000000e-02 2.8304292489018927e+01 3.6217174397469215e+01 3.9979317897461679e+00 0 0 0
472 24 42 -2.6469999999999999e-01 2.7504548631847690e+01 3.6391950575011627e+01 2.9250173306036937e+00 0 0 0
473 24 24 6.4560000000000006e-02 3.1605411380884991e+01 3.8251642203396770e+01 5.2030120770066253e+00 0 0 0
474 24 24 6.4560000000000006e-02 2.8855045179095896e+01 4.1241741051700828e+01 3.6675461181411166e+00 0 0 0
477 24 24 6.4560000000000006e-02 2.8300641697585174e+01 3.9594832220665062e+01 2.2141321153788152e+00 0 0 0
478 24 24 6.4560000000000006e-02 2.9745705830254344e+01 3.6993219801443324e+01 5.3773379615402712e+00 0 0 0
479 24 22 8.4010000000000001e-02 2.6873894435621811e+01 3.7709074423704678e+01 1.4603181736114803e+00 0 0 0
480 24 22 8.4010000000000001e-02 2.8280208681116864e+01 3.5229205372127772e+01 4.4510245632171168e+00 0 0 0
1263 64 5 -3.5940000000000000e-02 3.2320804568042014e+01 3.9393059625761410e+01 1.8434001091123613e+00 0 0 0
1265 64 5 2.7340000000000000e-02 3.1201368131145887e+01 3.9634600545083600e+01 1.0509835028846419e+00 0 0 0
1274 64 24 6.4560000000000006e-02 3.2423142050053016e+01 3.8421069137875932e+01 2.3069456587170625e+00 0 0 0
1276 64 22 8.4010000000000001e-02 3.0458097326309428e+01 3.8860836028583584e+01 8.8355970834927944e-01 0 0 0
1715 86 22 8.4010000000000001e-02 2.7398843466467433e+01 4.1154100173075811e+01 6.5444328564619596e+00 0 0 0
524 27 5 2.7340000000000000e-02 3.4661845900481850e+01 3.9397032004010853e+01 8.3971115279485371e+00 0 0 0
533 27 24 6.4560000000000006e-02 3.6760632763589385e+01 3.9384051052374041e+01 7.9852359547473597e+00 0 0 0
535 27 22 8.4010000000000001e-02 3.4599568180908676e+01 3.8321718642629307e+01 8.5538192483116458e+00 0 0 0
1261 64 6 -1.5240000000000000e-02 3.3269933028086342e+01 4.0414214243039659e+01 2.0498975899341554e+00 0 0 0
1267 64 6 -1.5240000000000000e-02 3.4487992393926156e+01 4.0194055516243530e+01 2.9172179758468730e+00 0 0 0
1268 64 5 -3.5940000000000000e-02 3.4911685081017566e+01 3.8899367600501463e+01 3.2899338557726745e+00 0 0 0
1269 64 5 -3.5940000000000000e-02 3.5250513676227690e+01 4.1275087089124717e+01 3.4091529147832582e+00 0 0 0
1270 64 5 2.7340000000000000e-02 3.6039493221903207e+01 3.8745652880928702e+01 4.0938435850750405e+00 0 0 0
1271 64 5 2.7340000000000000e-02 3.6365584661981075e+01 4.1025024993796940e+01 4.2069651597396618e+00 0 0 0
1272 64 42 -2.6469999999999999e-01 3.6767231009649606e+01 3.9783975784027888e+01 4.5510917591811157e+00 0 0 0
1277 64 24 6.4560000000000006e-02 3.4397716924989020e+01 3.8004775914099987e+01 2.9570331894396800e+00 0 0 0
1279 64 22 8.4010000000000001e-02 3.6390578900122797e+01 3.7756783498514302e+01 4.3838419195182672e+00 0 0 0
1280 64 22 8.4010000000000001e-02 3.6969755577560434e+01 4.1843328739771863e+01 4.5923096328224196e+00 0 0 0
796 40 22 8.4010000000000001e-02 1.3967990167832864e+01 3.9848638515210062e+01 8.5373593670009367e+00 0 0 0
785 40 5 2.7340000000000000e-02 1.5042000168192748e+01 3.9979973847339437e+01 8.6534282000027147e+00 0 0 0
463 24 5 -3.5940000000000000e-02 2.9779533688004427e+01 4.0930966872596706e+01 4.1465742148055407e+00 0 0 0
464 24 5 2.7340000000000000e-02 3.2144315911161200e+01 4.0315748677207232e+01 5.3806179423033509e+00 0 0 0
465 24 5 2.7340000000000000e-02 3.0686340941186337e+01 4.1905582602011933e+01 4.5625062897407735e+00 0 0 0
466 24 42 -2.6469999999999999e-01 3.1859248917015332e+01 4.1617312882456133e+01 5.1649951516677017e+00 0 0 0
475 24 22 8.4010000000000001e-02 3.3105502404468588e+01 4.0112638485350836e+01 5.8474126848030430e+00 0 0 0
476 24 22 8.4010000000000001e-02 3.0482148572054840e+01 4.2963185674546992e+01 4.4083347190658468e+00 0 0 0
1264 64 5 2.7340000000000000e-02 3.1862440087915139e+01 4.1802228876352949e+01 6.4460324865236607e-01 0 0 0
1266 64 42 -2.6469999999999999e-01 3.0958098130982691e+01 4.0818881039496304e+01 4.5665244830245982e-01 0 0 0
1275 64 22 8.4010000000000001e-02 3.1642719862597282e+01 4.2745076018352023e+01 1.4744806839407859e-01 0 0 0
522 27 5 -3.5940000000000000e-02 3.5872936626559614e+01 4.0004247731070727e+01 8.0693169136180884e+00 0 0 0
537 27 24 6.4560000000000006e-02 3.6593085241311655e+01 4.4061519782106274e+01 8.3805917641454446e+00 0 0 0
1262 64 5 -3.5940000000000000e-02 3.3013911263396857e+01 4.1649217987401613e+01 1.4171517574790515e+00 0 0 0
1273 64 24 6.4560000000000006e-02 3.3689415552565009e+01 4.2492753185298177e+01 1.5071513009283142e+00 0 0 0
528 27 5 -3.5940000000000000e-02 3.7384036119866465e+01 4.3483982018520699e+01 7.9157306498361706e+00 0 0 0
530 27 5 2.7340000000000000e-02 3.8604434062289783e+01 4.4105202097097155e+01 7.6607205431655991e+00 0 0 0
539 27 22 8.4010000000000001e-02 3.8760427391430866e+01 4.5153876728156852e+01 7.9049588093700915e+00 0 0 0
1381 70 6 -1.5240000000000000e-02 1.2139378827905601e+01 9.0898825522621163e+00 9.7114429346094813e+00 0 0 0
1382 70 5 -3.5940000000000000e-02 1.1015499280607743e+01 8.4137953062640527e+00 1.0236534900819819e+01 0 0 0
1383 70 5 -3.5940000000000000e-02 1.2867548651612342e+01 9.8975393598334538e+00 1.0614977098323052e+01 0 0 0
1384 70 5 2.7340000000000000e-02 1.0686128993762100e+01 8.5589276141487041e+00 1.1581342676124867e+01 0 0 0
1385 70 5 2.7340000000000000e-02 1.2457432457373793e+01 9.9879017867676527e+00 1.1944780170886249e+01 0 0 0
1386 70 42 -2.6469999999999999e-01 1.1385734830665806e+01 9.3325172367077016e+00 1.2436697659481005e+01 0 0 0
1387 70 6 -1.5240000000000000e-02 1.2531228113630579e+01 8.9570944697592143e+00 8.2570609092765714e+00 0 0 0
1388 70 5 -3.5940000000000000e-02 1.3447815730659201e+01 9.8421135264341846e+00 7.6469648681277524e+00 0 0 0
1389 70 5 -3.5940000000000000e-02 1.1988947092557144e+01 7.9456677146677377e+00 7.4321624278754612e+00 0 0 0
1393 70 24 6.4560000000000006e-02 1.0382845233001527e+01 7.7806201954760938e+00 9.6231634412707567e+00 0 0 0
1394 70 24 6.4560000000000006e-02 1.3752470113780882e+01 1.0448886782808012e+01 1.0312190708544968e+01 0 0 0
1395 70 22 8.4010000000000001e-02 9.8280546812254013e+00 8.0385883048882008e+00 1.2001702316751118e+01 0 0 0
1396 70 22 8.4010000000000001e-02 1.3004392094073555e+01 1.0599949001665960e+01 1.2659892617359780e+01 0 0 0
1391 70 5 2.7340000000000000e-02 1.2346675290301745e+01 7.8826139629176932e+00 6.0868039857978653e+00 0 0 0
1398 70 24 6.4560000000000006e-02 1.1297362265398704e+01 7.2003796471862005e+00 7.8113560516362952e+00 0 0 0
1400 70 22 8.4010000000000001e-02 1.1928509701708565e+01 7.1201385523819107e+00 5.4317613725488156e+00 0 0 0
2224 112 5 2.7340000000000000e-02 2.3560847325639717e+01 3.5802993498769378e+00 7.7555480324374564e+00 0 0 0
2235 112 22 8.4010000000000001e-02 2.2570340278661114e+01 3.1938096938686131e+00 7.5235829540247510e+00 0 0 0
2221 112 6 -1.5240000000000000e-02 2.5206243085798878e+01 4.4046346252354756e+00 9.3295352549143633e+00 0 0 0
2222 112 5 -3.5940000000000000e-02 2.3906975398548301e+01 3.9281628587470299e+00 9.0602826875662164e+00 0 0 0
2223 112 5 -3.5940000000000000e-02 2.6090626232779332e+01 4.5127894422005417e+00 8.2354832365806043e+00 0 0 0
2225 112 5 2.7340000000000000e-02 2.5653761717876410e+01 4.1450238971289464e+00 6.9634072244058922e+00 0 0 0
2226 112 42 -2.6469999999999999e-01 2.4411260679993337e+01 3.6806096614972557e+00 6.7125385161238738e+00 0 0 0
2227 112 6 -1.5240000000000000e-02 2.5639354911674953e+01 4.7414875340009432e+00 1.0731216693763672e+01 0 0 0
2228 112 5 -3.5940000000000000e-02 2.6993982427317157e+01 4.6723792233743744e+00 1.1108337999652347e+01 0 0 0
2229 112 5 -3.5940000000000000e-02 2.4712862804529074e+01 5.0943993444452307e+00 1.1733461498245667e+01 0 0 0
2230 112 5 2.7340000000000000e-02 2.7357850155414376e+01 4.9490366275690452e+00 1.2423656334734975e+01 0 0 0
2231 112 5 2.7340000000000000e-02 2.5167556178981712e+01 5.3501235424313718e+00 1.3026484641740328e+01 0 0 0
2232 112 42 -2.6469999999999999e-01 2.6468533965340210e+01 5.2842786460768734e+00 1.3381005335927050e+01 0 0 0
2233 112 24 6.4560000000000006e-02 2.3172210439376308e+01 3.7971139352821708e+00 9.8494419954113752e+00 0 0 0
2234 112 24 6.4560000000000006e-02 2.7105391305525117e+01 4.8830483242863423e+00 8.3525864776816121e+00 0 0 0
2236 112 22 8.4010000000000001e-02 2.6315019834383840e+01 4.2155921249333321e+00 6.1020065603356981e+00 0 0 0
2237 112 24 6.4560000000000006e-02 2.7763010003508743e+01 4.3927188295084081e+00 1.0398877569998033e+01 0 0 0
2238 112 24 6.4560000000000006e-02 2.3649669829670316e+01 5.1715916003137794e+00 1.1526480579413919e+01 0 0 0
2239 112 22 8.4010000000000001e-02 2.8397830301717359e+01 4.8920366096767465e+00 1.2736883205902979e+01 0 0 0
901 46 6 -1.5240000000000000e-02 3.3173606977866648e+01 6.0451434009048937e+00 1.0169705379005954e+01 0 0 0
902 46 5 -3.5940000000000000e-02 3.3264672575204287e+01 6.4212802744876685e+00 1.1525892621712314e+01 0 0 0
903 46 5 -3.5940000000000000e-02 3.4220378097130713e+01 6.4567418189272425e+00 9.3187356068304368e+00 0 0 0
904 46 5 2.7340000000000000e-02 3.4364240093111817e+01 7.1582287782813241e+00 1.1960112137525563e+01 0 0 0
905 46 5 2.7340000000000000e-02 3.5284367410828445e+01 7.1866057121565587e+00 9.8438966102363388e+00 0 0 0
907 46 6 -1.5240000000000000e-02 3.2025557125959040e+01 5.2192496725291058e+00 9.6567085030524265e+00 0 0 0
908 46 5 -3.5940000000000000e-02 3.1659054138889761e+01 5.2262595136048944e+00 8.2940884667042383e+00 0 0 0
909 46 5 -3.5940000000000000e-02 3.1286655089716572e+01 4.3769077978855950e+00 1.0513216946586981e+01 0 0 0
910 46 5 2.7340000000000000e-02 3.0616917004848410e+01 4.4098944013998347e+00 7.8589978348007232e+00 0 0 0
911 46 5 2.7340000000000000e-02 3.0265721795921930e+01 3.5916695073023424e+00 9.9852409079074462e+00 0 0 0
912 46 42 -2.6469999999999999e-01 2.9922020463840344e+01 3.5955901533365018e+00 8.6803643866710676e+00 0 0 0
913 46 24 6.4560000000000006e-02 3.2491776657710119e+01 6.1625854421286244e+00 1.2243780920023305e+01 0 0 0
914 46 24 6.4560000000000006e-02 3.4235244616394731e+01 6.1973489258082726e+00 8.2640197200491343e+00 0 0 0
917 46 24 6.4560000000000006e-02 3.2163741554670700e+01 5.8599254412340347e+00 7.5709889345602219e+00 0 0 0
919 46 22 8.4010000000000001e-02 3.0318547626714974e+01 4.3912085088897355e+00 6.8125263813691728e+00 0 0 0