LAMMPS (20 Nov 2019)


# ----------------- Init Section -----------------

include "system.in.init"
    # Default styles and settings for AMBER based force-fields:
    units           real
    atom_style      full
    bond_style      hybrid harmonic
    angle_style     hybrid harmonic
    dihedral_style  hybrid fourier
    improper_style  hybrid cvff
    pair_style      hybrid lj/charmm/coul/long 9.0 10.0 10.0
    kspace_style    pppm 0.0001

    # NOTE: If you do not want to use long-range coulombic forces,
    #       comment out the two lines above and uncomment this line:
    # pair_style      hybrid lj/charmm/coul/charmm 9.0 10.0

    pair_modify     mix arithmetic
    special_bonds   amber


# ----------------- Atom Definition Section -----------------

read_data bpy-128_su.lmp
  orthogonal box = (0 0 0) to (47 47.07 47)
  1 by 1 by 1 MPI processor grid
  reading atoms ...
  2560 atoms
  reading velocities ...
  2560 velocities
  scanning bonds ...
  3 = max bonds/atom
  scanning angles ...
  3 = max angles/atom
  scanning dihedrals ...
  10 = max dihedrals/atom
  scanning impropers ...
  1 = max impropers/atom
  reading bonds ...
  2688 bonds
  reading angles ...
  4096 angles
  reading dihedrals ...
  5632 dihedrals
  reading impropers ...
  512 impropers
  3 = max # of 1-2 neighbors
  6 = max # of 1-3 neighbors
  14 = max # of 1-4 neighbors
  16 = max # of special neighbors
  special bonds CPU = 0.0097274 secs
  read_data CPU = 0.0720076 secs

# ----------------- Settings Section -----------------

include "system.in.settings"
pair_coeff 19 19 lj/charmm/coul/long 0.0157 2.47135304412   # Veenstra et al JCC,8,(1992),963
pair_coeff 20 20 lj/charmm/coul/long 0.0157 2.29317330049   # Veenstra et al JCC,8,(1992),963
pair_coeff 21 21 lj/charmm/coul/long 0.0157 2.11499355687   # Veenstra et al JCC,8,(1992),963
pair_coeff 22 22 lj/charmm/coul/long 0.0150 2.51055258772   # Spellmeyer, one electrowithdr. neighbor
pair_coeff 23 23 lj/charmm/coul/long 0.0150 2.42146271591   # Spellmeyer, two electrowithdr. neighbor
pair_coeff 24 24 lj/charmm/coul/long 0.0150 2.59964245953   # Spellmeyer
pair_coeff 25 25 lj/charmm/coul/long 0.0157 2.64953278775   # OPLS
pair_coeff 26 26 lj/charmm/coul/long 0.0157 1.06907846177   # !Ferguson base pair geom.
pair_coeff 27 27 lj/charmm/coul/long 0.0000 0.0   # OPLS Jorgensen, JACS,110,(1988),1657
pair_coeff 28 28 lj/charmm/coul/long 0.0157 1.06907846177   # same to hs (be careful !)
pair_coeff 29 29 lj/charmm/coul/long 0.0157 1.06907846177   # W. Cornell CH3SH --> CH3OH FEP
pair_coeff 30 30 lj/charmm/coul/long 0.0000 0.0   # OPLS Jorgensen, JACS,110,(1988),1657
pair_coeff 31 31 lj/charmm/coul/long 0.0157 1.95997717991   # Veenstra et al JCC,8,(1992),963
pair_coeff 49 49 lj/charmm/coul/long 0.2100 2.95992190115   # OPLS
pair_coeff 50 50 lj/charmm/coul/long 0.2104 3.06647338784   # OPLS
pair_coeff 51 51 lj/charmm/coul/long 0.1700 3.00001234347   # OPLS ether
pair_coeff 52 52 lj/charmm/coul/long 0.1520 3.15075240658   # TIP3P water model
pair_coeff 1 1 lj/charmm/coul/long 0.0860 3.39966950842   # OPLS
pair_coeff 2 2 lj/charmm/coul/long 0.2100 3.39966950842   # cp C DLM 11/2007 well depth from OPLS replacing 0.0860
pair_coeff 3 3 lj/charmm/coul/long 0.0860 3.39966950842   # sp2 atom in the middle of C=CD-CD=C
pair_coeff 4 4 lj/charmm/coul/long 0.1094 3.39966950842   # OPLS
pair_coeff 5 5 lj/charmm/coul/long 0.0860 3.39966950842   # OPLS
pair_coeff 8 8 lj/charmm/coul/long 0.0860 3.39966950842   # OPLS
pair_coeff 9 9 lj/charmm/coul/long 0.0860 3.39966950842   # OPLS
pair_coeff 10 10 lj/charmm/coul/long 0.0860 3.39966950842   # OPLS
pair_coeff 11 11 lj/charmm/coul/long 0.0860 3.39966950842   # OPLS
pair_coeff 12 12 lj/charmm/coul/long 0.2100 3.39966950842   # DLM 12/2007 as c1
pair_coeff 13 13 lj/charmm/coul/long 0.2100 3.39966950842   # DLM 12/2007 as c1
pair_coeff 6 6 lj/charmm/coul/long 0.0860 3.39966950842   # OPLS
pair_coeff 7 7 lj/charmm/coul/long 0.0860 3.39966950842   # OPLS
pair_coeff 16 16 lj/charmm/coul/long 0.0860 3.39966950842   # OPLS
pair_coeff 17 17 lj/charmm/coul/long 0.0860 3.39966950842   # OPLS
pair_coeff 14 14 lj/charmm/coul/long 0.0860 3.39966950842   # OPLS
pair_coeff 15 15 lj/charmm/coul/long 0.0860 3.39966950842   # OPLS
pair_coeff 18 18 lj/charmm/coul/long 0.0860 3.39966950842   # OPLS
pair_coeff 36 36 lj/charmm/coul/long 0.1700 3.24999852378   # OPLS
pair_coeff 37 37 lj/charmm/coul/long 0.1700 3.24999852378   # OPLS
pair_coeff 38 38 lj/charmm/coul/long 0.1700 3.24999852378   # OPLS
pair_coeff 39 39 lj/charmm/coul/long 0.1700 3.24999852378   # OPLS
pair_coeff 40 40 lj/charmm/coul/long 0.1700 3.24999852378   # OPLS
pair_coeff 41 41 lj/charmm/coul/long 0.1700 3.24999852378   # OPLS
pair_coeff 42 42 lj/charmm/coul/long 0.1700 3.24999852378   # OPLS
pair_coeff 43 43 lj/charmm/coul/long 0.1700 3.24999852378   # OPLS
pair_coeff 44 44 lj/charmm/coul/long 0.1700 3.24999852378   # OPLS
pair_coeff 45 45 lj/charmm/coul/long 0.1700 3.24999852378   # OPLS
pair_coeff 46 46 lj/charmm/coul/long 0.1700 3.24999852378   # OPLS
pair_coeff 47 47 lj/charmm/coul/long 0.1700 3.24999852378   # OPLS
pair_coeff 48 48 lj/charmm/coul/long 0.1700 3.24999852378   # OPLS
pair_coeff 64 64 lj/charmm/coul/long 0.2500 3.56359487256   # W. Cornell CH3SH and CH3SCH3 FEP's
pair_coeff 65 65 lj/charmm/coul/long 0.2500 3.56359487256   # W. Cornell CH3SH and CH3SCH3 FEP's
pair_coeff 66 66 lj/charmm/coul/long 0.2500 3.56359487256   # W. Cornell CH3SH and CH3SCH3 FEP's
pair_coeff 67 67 lj/charmm/coul/long 0.2500 3.56359487256   # W. Cornell CH3SH and CH3SCH3 FEP's
pair_coeff 70 70 lj/charmm/coul/long 0.2500 3.56359487256   # W. Cornell CH3SH and CH3SCH3 FEP's
pair_coeff 71 71 lj/charmm/coul/long 0.2500 3.56359487256   # W. Cornell CH3SH and CH3SCH3 FEP's
pair_coeff 68 68 lj/charmm/coul/long 0.2500 3.56359487256   # W. Cornell CH3SH and CH3SCH3 FEP's
pair_coeff 69 69 lj/charmm/coul/long 0.2500 3.56359487256   # W. Cornell CH3SH and CH3SCH3 FEP's
pair_coeff 53 53 lj/charmm/coul/long 0.2000 3.74177461619   # JCC,7,(1986),230;
pair_coeff 54 54 lj/charmm/coul/long 0.2000 3.74177461619   # JCC,7,(1986),230;
pair_coeff 55 55 lj/charmm/coul/long 0.2000 3.74177461619   # JCC,7,(1986),230;
pair_coeff 56 56 lj/charmm/coul/long 0.2000 3.74177461619   # JCC,7,(1986),230;
pair_coeff 57 57 lj/charmm/coul/long 0.2000 3.74177461619   # JCC,7,(1986),230;
pair_coeff 58 58 lj/charmm/coul/long 0.2000 3.74177461619   # JCC,7,(1986),230;
pair_coeff 59 59 lj/charmm/coul/long 0.2000 3.74177461619   # JCC,7,(1986),230;
pair_coeff 60 60 lj/charmm/coul/long 0.2000 3.74177461619   # JCC,7,(1986),230;
pair_coeff 61 61 lj/charmm/coul/long 0.2000 3.74177461619   # JCC,7,(1986),230;
pair_coeff 62 62 lj/charmm/coul/long 0.2000 3.74177461619   # JCC,7,(1986),230;
pair_coeff 63 63 lj/charmm/coul/long 0.2000 3.74177461619   # JCC,7,(1986),230;
pair_coeff 32 32 lj/charmm/coul/long 0.061 3.11814551349   # Gough et al. JCC 13,(1992),963.
pair_coeff 33 33 lj/charmm/coul/long 0.265 3.47094140587   # Fox, JPCB,102,8070,(98),flex.mdl CHCl3
pair_coeff 34 34 lj/charmm/coul/long 0.420 3.59923082129   # Junmei, 2010
pair_coeff 35 35 lj/charmm/coul/long 0.50 3.830864488   # Junmei, 2010
    bond_coeff 1 harmonic 553.0 0.9572   # TIP3P_Water 1
    bond_coeff 2 harmonic 553.0 1.5136   # TIP3P_Water 1
    bond_coeff 3 harmonic 123.2 2.5420   # SOURCE1 4 0.0000
    bond_coeff 4 harmonic 352.7 1.7870   # SOURCE2 4 0.0024
    bond_coeff 5 harmonic 278.7 1.8830   # SOURCE1 31 0.0000
    bond_coeff 6 harmonic 240.3 1.9460   # SOURCE2 2 0.0285
    bond_coeff 7 harmonic 229.5 1.9660   # SOURCE1 100 0.0000
    bond_coeff 8 harmonic 269.6 1.8970   # SOURCE1 127 0.0058
    bond_coeff 9 harmonic 277.6 1.8847   # SOURCE4 39 0.0068
    bond_coeff 10 harmonic 261.4 1.9100   # SOURCE1 8 0.0000
    bond_coeff 11 harmonic 142.4 2.6710   # SOURCE1 2 0.0245
    bond_coeff 12 harmonic 330.4 1.8600   # SOUECE3 1
    bond_coeff 13 harmonic 219.0 2.0380   # SOURCE3 5 0.1082
    bond_coeff 14 harmonic 320.2 1.8730   # SOURCE3 4 0.0046
    bond_coeff 15 harmonic 265.9 1.9520   # SOURCE3 2 0.0000
    bond_coeff 16 harmonic 282.4 1.9260   # SOURCE3 3 0.0013
    bond_coeff 17 harmonic 237.3 2.0020   # SOURCE3 7 0.2156
    bond_coeff 18 harmonic 270.9 1.9440   # SOURCE3 1 0.0000
    bond_coeff 19 harmonic 191.0 2.1010   # SOURCE3 1 0.0000
    bond_coeff 20 harmonic 278.9 1.8000   # SOUECE3 1
    bond_coeff 21 harmonic 237.2 1.8660   # SOURCE3 1 0.0000
    bond_coeff 22 harmonic 225.6 1.8870   # SOURCE3 2 0.0000
    bond_coeff 23 harmonic 174.3 2.2100   # SOURCE3 9 0.0510
    bond_coeff 24 harmonic 167.0 2.2310   # SOURCE3 3 0.0101
    bond_coeff 25 harmonic 188.8 2.1710   # SOUECE3 1
    bond_coeff 26 harmonic 179.3 2.1960   # SOURCE3 3 0.0099
    bond_coeff 27 harmonic 170.6 2.2200   # SOUECE3 1
    bond_coeff 28 harmonic 134.3 2.3410   # SOURCE3 1 0.0000
    bond_coeff 29 harmonic 172.7 2.2140   # SOURCE3 3 0.0443
    bond_coeff 30 harmonic 174.4 2.2090   # SOURCE3 1 0.0000
    bond_coeff 31 harmonic 176.6 2.2030   # SOURCE3 3 0.0035
    bond_coeff 32 harmonic 986.2 1.1810   # SOURCE1 265 0.0031
    bond_coeff 33 harmonic 625.0 1.3070   # SOURCE1 18 0.0000
    bond_coeff 34 harmonic 368.3 1.4700   # SOURCE1 215 0.0017
    bond_coeff 35 harmonic 404.1 1.4400   # SOUECE3 1
    bond_coeff 36 harmonic 607.4 1.3153   # SOURCE4 6 0.0086
    bond_coeff 37 harmonic 845.8 1.2220   # SOURCE3 22 0.0101
    bond_coeff 38 harmonic 845.8 1.2220   # SOURCE3 22 same_as_c1-cg
    bond_coeff 39 harmonic 419.7 1.6310   # SOURCE2 6 0.0050
    bond_coeff 40 harmonic 399.1 1.4440   # SOURCE1 38 0.0000
    bond_coeff 41 harmonic 469.4 1.2700   # SOURCE2 2 0.0085
    bond_coeff 42 harmonic 375.9 1.0660   # SOURCE3 63 0.0035
    bond_coeff 43 harmonic 385.6 1.0600   # SOUECE3 1
    bond_coeff 44 harmonic 318.8 1.9890   # SOURCE2 4 0.0032
    bond_coeff 45 harmonic 1014.5 1.1380   # SOURCE1 170 0.0055
    bond_coeff 46 harmonic 769.8 1.2100   # SOURCE3 5 0.0115
    bond_coeff 47 harmonic 409.8 1.3920   # SOURCE2 1 0.0000
    bond_coeff 48 harmonic 378.2 1.4170   # SOURCE3 3 0.0032
    bond_coeff 49 harmonic 503.0 1.3300   # SOUECE3 1
    bond_coeff 50 harmonic 452.0 1.3620   # SOURCE3 8 0.0034
    bond_coeff 51 harmonic 803.3 1.1986   # SOURCE4 10 0.0088
    bond_coeff 52 harmonic 803.3 1.1986   # SOURCE4 10 same_as_c1-ne
    bond_coeff 53 harmonic 485.0 1.3408   # SOURCE4 11 0.0037
    bond_coeff 54 harmonic 393.0 1.4050   # SOURCE3 3 0.0005
    bond_coeff 55 harmonic 777.0 1.1660   # SOURCE2 9 0.0052
    bond_coeff 56 harmonic 435.6 1.3260   # SOURCE3 1 0.0000
    bond_coeff 57 harmonic 437.1 1.3250   # SOURCE3 3 0.0148
    bond_coeff 58 harmonic 289.3 1.7700   # SOUECE3 1
    bond_coeff 59 harmonic 275.1 1.7900   # SOUECE3 1
    bond_coeff 60 harmonic 275.1 1.7900   # SOUECE3 1
    bond_coeff 61 harmonic 302.2 1.7530   # SOURCE3 2 0.0000
    bond_coeff 62 harmonic 410.0 1.5950   # SOURCE3 1 0.0000
    bond_coeff 63 harmonic 371.8 1.6300   # SOURCE1 14 0.0000
    bond_coeff 64 harmonic 272.9 1.7460   # SOURCE3 2 0.0000
    bond_coeff 65 harmonic 290.4 1.7220   # SOURCE3 2 0.0000
    bond_coeff 66 harmonic 324.5 1.6800   # SOUECE3 1
    bond_coeff 67 harmonic 325.4 1.6790   # SOURCE1 10 0.0000
    bond_coeff 68 harmonic 589.7 1.3240   # SOURCE1 974 0.0096
    bond_coeff 69 harmonic 328.3 1.5080   # SOURCE1 2536 0.0021
    bond_coeff 70 harmonic 357.2 1.4800   # SOUECE3 1
    bond_coeff 71 harmonic 522.6 1.3600   # SOURCE1 771 0.0185
    bond_coeff 72 harmonic 522.6 1.3600   # SOURCE1 771 0.0185
    bond_coeff 73 harmonic 560.5 1.3390   # SOURCE3 62 0.0128
    bond_coeff 74 harmonic 560.5 1.3390   # SOURCE3 62 same_as_c2-ce
    bond_coeff 75 harmonic 328.8 1.7220   # SOURCE1 163 0.0098
    bond_coeff 76 harmonic 573.9 1.3320   # SOURCE2 1 0.0000
    bond_coeff 77 harmonic 353.3 1.4836   # SOURCE4 26 0.0064
    bond_coeff 78 harmonic 331.7 1.5046   # SOURCE4 9 0.0053
    bond_coeff 79 harmonic 368.7 1.3400   # SOURCE1 34 0.0000
    bond_coeff 80 harmonic 348.6 1.0840   # SOURCE3 40 0.0058
    bond_coeff 81 harmonic 338.0 1.0915   # SOURCE4 42 0.0017
    bond_coeff 82 harmonic 344.3 1.0870   # SOURCE3 797 0.0046
    bond_coeff 83 harmonic 344.3 1.0870   # SOURCE3 789 0.0046
    bond_coeff 84 harmonic 350.1 1.0830   # SOURCE3 3 0.0008
    bond_coeff 85 harmonic 223.2 2.1530   # SOURCE3 2 0.0000
    bond_coeff 86 harmonic 546.0 1.3060   # SOURCE3 4 0.0161
    bond_coeff 87 harmonic 581.1 1.2880   # SOURCE1 103 0.0100
    bond_coeff 88 harmonic 486.3 1.3400   # SOUECE3 1
    bond_coeff 89 harmonic 390.5 1.4070   # SOURCE3 9 0.0124
    bond_coeff 90 harmonic 309.1 1.4820   # SOURCE3 5 0.0064
    bond_coeff 91 harmonic 411.1 1.3910   # SOURCE3 31 0.0289
    bond_coeff 92 harmonic 533.0 1.3130   # SOURCE1 99 0.0095
    bond_coeff 93 harmonic 533.0 1.3130   # SOURCE1 99 same_as_c2-nc
    bond_coeff 94 harmonic 597.7 1.2800   # SOURCE3 37 0.0110
    bond_coeff 95 harmonic 597.7 1.2800   # SOURCE3 37 same_as_c2-ne
    bond_coeff 96 harmonic 462.6 1.3550   # SOURCE3 38 0.0413
    bond_coeff 97 harmonic 345.6 1.4457   # SOURCE4 7 0.0087
    bond_coeff 98 harmonic 623.6 1.2244   # SOURCE4 15 0.0036
    bond_coeff 99 harmonic 425.4 1.3330   # SOURCE1 53 0.0000
    bond_coeff 100 harmonic 392.6 1.3570   # SOURCE1 315 0.0097
    bond_coeff 101 harmonic 375.9 1.6700   # SOURCE3 62 0.0147
    bond_coeff 102 harmonic 246.6 1.8340   # SOURCE3 5 0.0042
    bond_coeff 103 harmonic 254.0 1.8220   # SOUECE3 1
    bond_coeff 104 harmonic 228.2 1.8658   # SOURCE4 5 0.0025
    bond_coeff 105 harmonic 355.3 1.6910   # SOURCE3 52 0.0542
    bond_coeff 106 harmonic 355.3 1.6910   # SOURCE3 52 same_as_c2-pe
    bond_coeff 107 harmonic 393.1 1.6100   # SOURCE2 1 0.0000
    bond_coeff 108 harmonic 281.5 1.7340   # SOURCE3 4 0.0034
    bond_coeff 109 harmonic 263.2 1.7600   # SOUECE3 1
    bond_coeff 110 harmonic 263.2 1.7600   # SOUECE3 1
    bond_coeff 111 harmonic 252.0 1.7771   # SOURCE4 5 0.0037
    bond_coeff 112 harmonic 280.0 1.7360   # SOURCE1 209 0.0155
    bond_coeff 113 harmonic 303.1 1.5350   # SOURCE1 14664 0.0048
    bond_coeff 114 harmonic 323.5 1.5130   # SOURCE1 1813 0.0000
    bond_coeff 115 harmonic 337.3 1.4990   # SOURCE3 50 0.0096
    bond_coeff 116 harmonic 337.3 1.4990   # SOURCE3 50 0.0096
    bond_coeff 117 harmonic 331.3 1.5050   # SOURCE3 9 0.0024
    bond_coeff 118 harmonic 331.3 1.5050   # SOURCE3 9 same_as_c3-ce
    bond_coeff 119 harmonic 279.0 1.7860   # SOURCE1 267 0.0194
    bond_coeff 120 harmonic 359.4 1.4780   # SOURCE1 7 0.0000
    bond_coeff 121 harmonic 347.6 1.4890   # SOURCE1 11 0.0000
    bond_coeff 122 harmonic 322.5 1.5140   # SOURCE1 712 0.0045
    bond_coeff 123 harmonic 308.5 1.5290   # SOURCE1 376 0.0000
    bond_coeff 124 harmonic 363.8 1.3440   # SOURCE1 617 0.0281
    bond_coeff 125 harmonic 335.9 1.0930   # SOURCE3 2175 0.0082
    bond_coeff 126 harmonic 326.4 1.1000   # SOURCE3 66 0.0280
    bond_coeff 127 harmonic 333.4 1.0948   # SOURCE4 25 0.0026
    bond_coeff 128 harmonic 337.3 1.0920   # SOURCE3 2815 0.0059
    bond_coeff 129 harmonic 338.7 1.0910   # SOURCE3 146 0.0066
    bond_coeff 130 harmonic 219.1 2.1620   # SOURCE1 15 0.0000
    bond_coeff 131 harmonic 325.1 1.4700   # SOURCE3 0
    bond_coeff 132 harmonic 313.8 1.4770   # SOURCE1 129 0.0138
    bond_coeff 133 harmonic 330.6 1.4600   # SOURCE1 187 0.0079
    bond_coeff 134 harmonic 320.6 1.4700   # SOURCE1 1678 0.0017
    bond_coeff 135 harmonic 293.6 1.4990   # SOURCE1 1370 0.0000
    bond_coeff 136 harmonic 334.7 1.4560   # SOURCE3 23 0.0119
    bond_coeff 137 harmonic 334.7 1.4560   # SOURCE3 9 0.0109
    bond_coeff 138 harmonic 334.7 1.4560   # SOURCE3 9 same_as_c3-nc
    bond_coeff 139 harmonic 332.7 1.4580   # SOURCE3 27 0.0085
    bond_coeff 140 harmonic 265.4 1.5330   # SOURCE1 83 0.0212
    bond_coeff 141 harmonic 449.9 1.3165   # SOURCE4 8 0.0193
    bond_coeff 142 harmonic 314.1 1.4260   # SOURCE1 914 0.0129
    bond_coeff 143 harmonic 301.5 1.4390   # SOURCE1 3123 0.0126
    bond_coeff 144 harmonic 234.3 1.8550   # SOURCE3 9 0.0125
    bond_coeff 145 harmonic 240.6 1.8440   # SOURCE3 109 0.0107
    bond_coeff 146 harmonic 247.2 1.8330   # SOURCE3 29 0.0138
    bond_coeff 147 harmonic 259.7 1.8130   # SOURCE1 84 0.0000
    bond_coeff 148 harmonic 252.7 1.8240   # SOURCE3 28 0.0098
    bond_coeff 149 harmonic 259.7 1.8130   # SOURCE3 13 0.0163
    bond_coeff 150 harmonic 212.9 1.8450   # SOURCE3 4 0.0185
    bond_coeff 151 harmonic 233.8 1.8070   # SOURCE1 139 0.0023
    bond_coeff 152 harmonic 254.0 1.7740   # SOURCE1 118 0.0103
    bond_coeff 153 harmonic 225.3 1.8220   # SOURCE3 12 0.0051
    bond_coeff 154 harmonic 225.8 1.8210   # SOURCE1 358 0.0075
    bond_coeff 155 harmonic 232.6 1.8090   # SOURCE3 30 0.0067
    bond_coeff 156 harmonic 248.9 1.7820   # SOURCE3 31 0.0039
    bond_coeff 157 harmonic 478.4 1.3870   # SOURCE1 6228 0.0147
    bond_coeff 158 harmonic 411.7 1.4340   # SOURCE1 80 0.0000
    bond_coeff 159 harmonic 411.7 1.4340   # SOURCE1 80 0.0000
    bond_coeff 160 harmonic 366.0 1.4720   # SOURCE1 71 0.0030
    bond_coeff 161 harmonic 366.0 1.4720   # SOURCE1 71 0.0030
    bond_coeff 162 harmonic 406.6 1.4380   # SOURCE1 71 0.0045
    bond_coeff 163 harmonic 406.6 1.4380   # SOURCE1 71 0.0045
    bond_coeff 164 harmonic 322.8 1.7290   # SOURCE1 704 0.0095
    bond_coeff 165 harmonic 461.8 1.3980   # CORR 28
    bond_coeff 166 harmonic 461.8 1.3980   # CORR 28
    bond_coeff 167 harmonic 350.8 1.4860   # SOURCE1 98 0.0118
    bond_coeff 168 harmonic 323.0 1.5135   # SOURCE4 8 0.0043
    bond_coeff 169 harmonic 363.8 1.3440   # SOURCE1 205 0.0089
    bond_coeff 170 harmonic 342.9 1.0880   # SOURCE3 57 0.0026
    bond_coeff 171 harmonic 347.2 1.0850   # SOURCE3 15 0.0048
    bond_coeff 172 harmonic 344.3 1.0870   # SOURCE3 1496 0.0045
    bond_coeff 173 harmonic 252.4 2.0950   # SOURCE1 51 0.0000
    bond_coeff 174 harmonic 398.1 1.4000   # SOURCE3 0
    bond_coeff 175 harmonic 551.6 1.3030   # SOURCE4 7 0.0058
    bond_coeff 176 harmonic 372.3 1.4220   # SOURCE3 9 0.0098
    bond_coeff 177 harmonic 325.6 1.4650   # SOURCE1 23 0.0000
    bond_coeff 178 harmonic 470.3 1.3500   # SOURCE1 150 0.0103
    bond_coeff 179 harmonic 483.1 1.3420   # SOURCE3 104 0.0076
    bond_coeff 180 harmonic 492.9 1.3360   # SOURCE1 1826 0.0020
    bond_coeff 181 harmonic 492.9 1.3360   # SOURCE1 1826 0.0020
    bond_coeff 182 harmonic 361.8 1.4310   # SOURCE1 52 0.0000
    bond_coeff 183 harmonic 361.8 1.4310   # SOURCE1 52 0.0000
    bond_coeff 184 harmonic 449.0 1.3640   # SOURCE1 137 0.0085
    bond_coeff 185 harmonic 322.6 1.4680   # SOURCE1 556 0.0000
    bond_coeff 186 harmonic 610.0 1.2304   # SOURCE4 5 0.0026
    bond_coeff 187 harmonic 386.1 1.3620   # SOURCE1 551 0.0000
    bond_coeff 188 harmonic 372.4 1.3730   # SOURCE1 1092 0.0071
    bond_coeff 189 harmonic 243.0 1.8400   # SOUECE3 1
    bond_coeff 190 harmonic 252.7 1.8240   # SOURCE1 145 0.0187
    bond_coeff 191 harmonic 264.3 1.8060   # SOUECE3 1
    bond_coeff 192 harmonic 271.6 1.7950   # SOURCE1 571 0.0028
    bond_coeff 193 harmonic 249.6 1.8290   # SOURCE3 10 0.0042
    bond_coeff 194 harmonic 249.6 1.8290   # SOURCE3 10 0.0042
    bond_coeff 195 harmonic 252.1 1.8250   # SOURCE3 5 0.0168
    bond_coeff 196 harmonic 268.3 1.7999   # SOURCE4 5 0.0072
    bond_coeff 197 harmonic 277.9 1.7390   # SOURCE3 2 0.0000
    bond_coeff 198 harmonic 245.2 1.7880   # SOURCE1 51 0.0048
    bond_coeff 199 harmonic 263.9 1.7590   # SOURCE1 229 0.0036
    bond_coeff 200 harmonic 251.3 1.7783   # SOURCE4 12 0.0041
    bond_coeff 201 harmonic 256.6 1.7700   # SOURCE1 297 0.0041
    bond_coeff 202 harmonic 223.5 1.8252   # SOURCE4 24 0.0032
    bond_coeff 203 harmonic 247.7 1.7840   # SOURCE3 13 0.0094
    bond_coeff 204 harmonic 379.8 1.4600   # SOUECE3 1
    bond_coeff 205 harmonic 449.9 1.4060   # SOURCE3 2 0.0370
    bond_coeff 206 harmonic 290.1 1.5500   # SOURCE1 31 0.0100
    bond_coeff 207 harmonic 328.3 1.5080   # SOURCE1 2949 0.0060
    bond_coeff 208 harmonic 349.7 1.4870   # SOURCE1 480 0.0055
    bond_coeff 209 harmonic 377.4 1.4620   # SOURCE3 132 0.0210
    bond_coeff 210 harmonic 418.3 1.4290   # SOURCE1 740 0.0069
    bond_coeff 211 harmonic 504.0 1.3710   # SOURCE3 523 0.0217
    bond_coeff 212 harmonic 387.9 1.4532   # CORR 249
    bond_coeff 213 harmonic 511.3 1.3666   # CORR 70
    bond_coeff 214 harmonic 420.9 1.4270   # SOURCE1 560 0.0000
    bond_coeff 215 harmonic 420.9 1.4270   # SOURCE1 560 0.0000
    bond_coeff 216 harmonic 317.1 1.7359   # CORR 66
    bond_coeff 217 harmonic 366.6 1.4715   # CORR 24
    bond_coeff 218 harmonic 377.4 1.4620   # SOURCE3 132 0.0210
    bond_coeff 219 harmonic 363.8 1.4740   # SOURCE1 601 0.0105
    bond_coeff 220 harmonic 363.8 1.4740   # SOURCE1 601 0.0105
    bond_coeff 221 harmonic 368.6 1.3401   # SOURCE4 24 0.0034
    bond_coeff 222 harmonic 389.3 1.4520   # SOURCE3 2 0.0000
    bond_coeff 223 harmonic 389.3 1.4520   # SOURCE3 2 same_as_c-cg
    bond_coeff 224 harmonic 350.1 1.0830   # SOURCE3 599 0.0037
    bond_coeff 225 harmonic 356.0 1.0790   # SOURCE3 40 0.0051
    bond_coeff 226 harmonic 347.2 1.0850   # SOURCE3 740 0.0039
    bond_coeff 227 harmonic 293.5 1.7660   # SOURCE3 6 0.0250
    bond_coeff 228 harmonic 573.8 1.2917   # CORR 81
    bond_coeff 229 harmonic 426.0 1.3800   # SOURCE3 56 0.0109
    bond_coeff 230 harmonic 299.0 1.4930   # SOURCE4 7 0.0148
    bond_coeff 231 harmonic 438.8 1.3710   # SOURCE3 440 0.0144
    bond_coeff 232 harmonic 431.6 1.3760   # SOURCE1 88 0.0000
    bond_coeff 233 harmonic 494.6 1.3350   # SOURCE3 203 0.0239
    bond_coeff 234 harmonic 427.4 1.3790   # SOURCE4 30 0.0126
    bond_coeff 235 harmonic 565.4 1.2960   # CORR 23
    bond_coeff 236 harmonic 449.0 1.3640   # SOURCE3 6 0.0040
    bond_coeff 237 harmonic 367.4 1.4262   # SOURCE4 133 0.0061
    bond_coeff 238 harmonic 408.5 1.3451   # CORR 121
    bond_coeff 239 harmonic 376.1 1.3700   # SOURCE3 86 0.0192
    bond_coeff 240 harmonic 318.2 1.7330   # SOURCE3 84 0.0161
    bond_coeff 241 harmonic 257.9 1.7681   # SOURCE4 8 0.0027
    bond_coeff 242 harmonic 279.3 1.7370   # SOURCE3 52 0.0194
    bond_coeff 243 harmonic 231.3 1.8113   # SOURCE4 16 0.0050
    bond_coeff 244 harmonic 248.1 1.7834   # CORR 55
    bond_coeff 245 harmonic 441.4 1.4120   # SOURCE2 1 0.0000
    bond_coeff 246 harmonic 350.8 1.4860   # SOURCE1 105 0.0000
    bond_coeff 247 harmonic 308.5 1.5290   # SOURCE1 18 0.0000
    bond_coeff 248 harmonic 418.3 1.4290   # SOURCE1 740 0.0069
    bond_coeff 249 harmonic 511.3 1.3666   # CORR 70
    bond_coeff 250 harmonic 387.9 1.4532   # CORR 249
    bond_coeff 251 harmonic 420.9 1.4270   # SOURCE1 560 0.0000
    bond_coeff 252 harmonic 420.9 1.4270   # SOURCE1 560 0.0000
    bond_coeff 253 harmonic 317.1 1.7359   # CORR 66
    bond_coeff 254 harmonic 366.6 1.4715   # CORR 24
    bond_coeff 255 harmonic 330.9 1.5054   # SOURCE4 10 0.0008
    bond_coeff 256 harmonic 350.1 1.0830   # SOURCE3 599 0.0037
    bond_coeff 257 harmonic 356.0 1.0790   # SOURCE3 40 0.0051
    bond_coeff 258 harmonic 347.2 1.0850   # SOURCE3 740 0.0039
    bond_coeff 259 harmonic 573.8 1.2917   # CORR 81
    bond_coeff 260 harmonic 426.0 1.3800   # SOURCE3 56 0.0109
    bond_coeff 261 harmonic 438.8 1.3710   # SOURCE3 440 0.0144
    bond_coeff 262 harmonic 494.6 1.3350   # SOURCE3 203 0.0239
    bond_coeff 263 harmonic 431.6 1.3760   # SOURCE1 88 0.0000
    bond_coeff 264 harmonic 565.4 1.2960   # CORR 23
    bond_coeff 265 harmonic 449.0 1.3640   # SOURCE3 6 0.0040
    bond_coeff 266 harmonic 408.5 1.3451   # CORR 121
    bond_coeff 267 harmonic 376.1 1.3700   # SOURCE3 86 0.0192
    bond_coeff 268 harmonic 318.2 1.7330   # SOURCE3 84 same_as_cc-pd
    bond_coeff 269 harmonic 279.3 1.7370   # SOURCE3 52 0.0194
    bond_coeff 270 harmonic 248.1 1.7834   # CORR 55
    bond_coeff 271 harmonic 390.5 1.4510   # SOURCE1 66 0.0060
    bond_coeff 272 harmonic 562.4 1.3380   # SOURCE1 543 0.0045
    bond_coeff 273 harmonic 415.6 1.4310   # SOURCE1 22 0.0000
    bond_coeff 274 harmonic 415.6 1.4310   # SOURCE1 22 0.0000
    bond_coeff 275 harmonic 292.6 1.7671   # SOURCE4 24 0.0062
    bond_coeff 276 harmonic 337.0 1.4993   # SOURCE4 5 0.0066
    bond_coeff 277 harmonic 323.0 1.5135   # SOURCE4 17 0.0024
    bond_coeff 278 harmonic 337.4 1.0919   # CORR 144
    bond_coeff 279 harmonic 341.5 1.0890   # SOURCE3 55 0.0056
    bond_coeff 280 harmonic 536.1 1.3113   # CORR 13
    bond_coeff 281 harmonic 599.8 1.2790   # SOURCE1 75 0.0000
    bond_coeff 282 harmonic 368.9 1.4249   # CORR 136
    bond_coeff 283 harmonic 373.8 1.4207   # SOURCE4 5 0.0051
    bond_coeff 284 harmonic 381.8 1.4140   # SOURCE3 7 0.0103
    bond_coeff 285 harmonic 574.0 1.2916   # CORR 42
    bond_coeff 286 harmonic 412.3 1.3901   # CORR 168
    bond_coeff 287 harmonic 402.9 1.3493   # CORR 37
    bond_coeff 288 harmonic 372.8 1.3727   # CORR 45
    bond_coeff 289 harmonic 259.1 1.8140   # SOUECE3 1
    bond_coeff 290 harmonic 256.5 1.8180   # SOURCE3 8 0.0108
    bond_coeff 291 harmonic 254.6 1.8210   # SOURCE3 6 0.0046
    bond_coeff 292 harmonic 272.3 1.7940   # SOURCE3 5 0.0045
    bond_coeff 293 harmonic 324.5 1.6800   # SOUECE3 1
    bond_coeff 294 harmonic 243.6 1.7906   # SOURCE4 10 0.0064
    bond_coeff 295 harmonic 239.7 1.7970   # SOURCE3 5 0.0082
    bond_coeff 296 harmonic 248.9 1.7820   # SOURCE3 5 0.0114
    bond_coeff 297 harmonic 387.9 1.3250   # SOURCE2 6 0.0147
    bond_coeff 298 harmonic 390.5 1.4510   # SOURCE1 66 0.0060
    bond_coeff 299 harmonic 415.6 1.4310   # SOURCE1 22 0.0000
    bond_coeff 300 harmonic 415.6 1.4310   # SOURCE1 22 0.0000
    bond_coeff 301 harmonic 337.4 1.0919   # CORR 144
    bond_coeff 302 harmonic 341.5 1.0890   # SOURCE3 55 0.0056
    bond_coeff 303 harmonic 536.1 1.3113   # CORR 13
    bond_coeff 304 harmonic 599.8 1.2790   # SOURCE1 75 same_as_ce-n2
    bond_coeff 305 harmonic 368.9 1.4249   # CORR 136
    bond_coeff 306 harmonic 574.0 1.2916   # CORR 42
    bond_coeff 307 harmonic 381.8 1.4140   # SOURCE3 7 same_as_ce-ne
    bond_coeff 308 harmonic 412.3 1.3901   # CORR 168
    bond_coeff 309 harmonic 402.9 1.3493   # CORR 37
    bond_coeff 310 harmonic 372.8 1.3727   # CORR 45
    bond_coeff 311 harmonic 259.1 1.8140   # SOUECE3 1 same_as_ce-p2
    bond_coeff 312 harmonic 256.5 1.8180   # SOURCE3 8 same_as_ce-pe
    bond_coeff 313 harmonic 254.6 1.8210   # SOURCE3 6 same_as_ce-px
    bond_coeff 314 harmonic 272.3 1.7940   # SOURCE3 5 same_as_ce-py
    bond_coeff 315 harmonic 324.5 1.6800   # SOUECE3 1 same_as_ce-s
    bond_coeff 316 harmonic 239.7 1.7970   # SOURCE3 5 same_as_ce-sx
    bond_coeff 317 harmonic 248.9 1.7820   # SOURCE3 5 same_as_ce-sy
    bond_coeff 318 harmonic 494.2 1.3770   # SOURCE1 42 0.0000
    bond_coeff 319 harmonic 949.5 1.1910   # SOURCE1 80 0.0015
    bond_coeff 320 harmonic 994.7 1.1430   # SOURCE1 316 0.0018
    bond_coeff 321 harmonic 509.5 1.3262   # SOURCE4 17 0.0009
    bond_coeff 322 harmonic 429.8 1.6210   # SOURCE3 11 0.2008
    bond_coeff 323 harmonic 310.5 1.1123   # SOURCE4 125 0.0023
    bond_coeff 324 harmonic 319.4 1.1053   # SOURCE4 42 0.0028
    bond_coeff 325 harmonic 325.1 1.1010   # SOURCE3 53 0.0102
    bond_coeff 326 harmonic 494.2 1.3770   # SOURCE1 42 0.0000
    bond_coeff 327 harmonic 994.7 1.1430   # SOURCE1 316 0.0018
    bond_coeff 328 harmonic 509.5 1.3262   # SOURCE4 17 same_as_cg-ne
    bond_coeff 329 harmonic 429.8 1.6210   # SOURCE3 11 same_as_cg-pe
    bond_coeff 330 harmonic 198.9 2.2090   # SOURCE3 4 0.0365
    bond_coeff 331 harmonic 143.3 2.2670   # SOURCE1 2 0.0395
    bond_coeff 332 harmonic 301.8 1.7550   # SOURCE1 64 0.0000
    bond_coeff 333 harmonic 292.0 1.7680   # SOURCE2 2 0.0070
    bond_coeff 334 harmonic 298.6 1.6480   # SOURCE2 2 0.0500
    bond_coeff 335 harmonic 163.5 2.5500   # SOURCE1 6 0.0893
    bond_coeff 336 harmonic 431.6 1.6300   # SOUECE3 1
    bond_coeff 337 harmonic 263.4 1.8190   # SOURCE3 6 0.1020
    bond_coeff 338 harmonic 290.4 1.7800   # SOURCE4 5 0.0021
    bond_coeff 339 harmonic 344.2 1.7140   # SOURCE4 5 0.0005
    bond_coeff 340 harmonic 311.1 1.7530   # SOURCE3 4 0.0098
    bond_coeff 341 harmonic 253.2 1.8350   # SOURCE3 7 0.2083
    bond_coeff 342 harmonic 303.2 1.7630   # SOURCE3 1 0.0000
    bond_coeff 343 harmonic 250.1 1.8400   # SOURCE2 1 0.0000
    bond_coeff 344 harmonic 557.6 1.4830   # SOURCE3 4 0.0000
    bond_coeff 345 harmonic 309.7 1.6900   # SOURCE2 1 0.0000
    bond_coeff 346 harmonic 278.8 1.7300   # SOURCE3 4 0.0000
    bond_coeff 347 harmonic 217.5 2.0700   # SOURCE3 6 0.0108
    bond_coeff 348 harmonic 249.4 2.0080   # SOURCE1 111 0.0000
    bond_coeff 349 harmonic 249.4 2.0080   # SOURCE1 111 0.0000
    bond_coeff 350 harmonic 249.4 2.0080   # SOURCE1 111 0.0000
    bond_coeff 351 harmonic 255.6 1.9970   # SOURCE1 46 0.0000
    bond_coeff 352 harmonic 208.7 2.0720   # SOURCE1 6 0.0000
    bond_coeff 353 harmonic 172.7 2.1610   # SOURCE2 1 0.0000
    bond_coeff 354 harmonic 208.7 2.0720   # SOURCE1 6 0.0000
    bond_coeff 355 harmonic 208.7 2.0720   # SOURCE1 6 0.0000
    bond_coeff 356 harmonic 208.7 2.0720   # SOURCE1 6 0.0000
    bond_coeff 357 harmonic 208.7 2.0720   # SOURCE1 6 0.0000
    bond_coeff 358 harmonic 208.7 2.0720   # SOURCE1 6 0.0000
    bond_coeff 359 harmonic 208.7 2.0720   # SOURCE1 6 0.0000
    bond_coeff 360 harmonic 374.6 1.4200   # SOUECE3 1
    bond_coeff 361 harmonic 255.5 1.5460   # SOURCE3 4 0.0388
    bond_coeff 362 harmonic 478.2 1.3450   # SOURCE1 1235 0.0215
    bond_coeff 363 harmonic 412.1 1.3906   # CORR 124
    bond_coeff 364 harmonic 412.1 1.3906   # CORR 124
    bond_coeff 365 harmonic 408.2 1.3932   # CORR 52
    bond_coeff 366 harmonic 408.2 1.3932   # CORR 52
    bond_coeff 367 harmonic 260.1 1.5400   # SOUECE3 1
    bond_coeff 368 harmonic 648.0 1.2140   # SOURCE1 3682 0.0165
    bond_coeff 369 harmonic 466.4 1.3060   # SOURCE1 271 0.0041
    bond_coeff 370 harmonic 411.3 1.3430   # SOURCE1 1044 0.0171
    bond_coeff 371 harmonic 210.3 1.9000   # SOUECE3 1
    bond_coeff 372 harmonic 219.0 1.8830   # SOURCE3 6 0.0129
    bond_coeff 373 harmonic 220.6 1.8800   # SOUECE3 1
    bond_coeff 374 harmonic 219.8 1.8815   # SOURCE4 11 0.0078
    bond_coeff 375 harmonic 346.5 1.4900   # SOURCE1 242 0.0010
    bond_coeff 376 harmonic 419.3 1.4282   # SOURCE4 7 0.0034
    bond_coeff 377 harmonic 204.9 1.9110   # SOURCE3 3 0.0025
    bond_coeff 378 harmonic 204.9 1.9110   # SOURCE3 3 same_as_c-pe
    bond_coeff 379 harmonic 420.5 1.3840   # SOURCE4 7 0.0181
    bond_coeff 380 harmonic 486.7 1.3398   # SOURCE4 70 0.0062
    bond_coeff 381 harmonic 208.3 1.9040   # SOURCE3 1 0.0000
    bond_coeff 382 harmonic 227.6 1.8670   # SOURCE3 6 0.0199
    bond_coeff 383 harmonic 346.5 1.4900   # SOURCE1 242 0.0010
    bond_coeff 384 harmonic 328.9 1.6750   # SOURCE1 401 0.0128
    bond_coeff 385 harmonic 200.4 1.8700   # SOUECE3 1
    bond_coeff 386 harmonic 200.4 1.8700   # SOUECE3 1
    bond_coeff 387 harmonic 249.6 1.7810   # SOURCE3 6 0.0171
    bond_coeff 388 harmonic 261.9 1.7620   # SOURCE1 20 0.0000
    bond_coeff 389 harmonic 193.3 1.8850   # SOURCE3 5 0.0088
    bond_coeff 390 harmonic 202.8 1.8650   # SOURCE3 5 0.0085
    bond_coeff 391 harmonic 653.7 1.2940   # SOURCE1 10 0.0000
    bond_coeff 392 harmonic 327.3 1.5090   # SOURCE1 20 0.0000
    bond_coeff 393 harmonic 353.0 1.0810   # SOURCE2 3 0.0111
    bond_coeff 394 harmonic 568.1 1.3350   # SOURCE1 25 0.0000
    bond_coeff 395 harmonic 323.5 1.5130   # SOURCE1 50 0.0000
    bond_coeff 396 harmonic 344.3 1.0870   # SOURCE3 2 0.0000
    bond_coeff 397 harmonic 328.3 1.5080   # SOURCE1 2536 as
    bond_coeff 398 harmonic 337.3 1.4990   # SOURCE1 1204 0.0183
    bond_coeff 399 harmonic 321.5 1.5150   # SOURCE3 2 0.0000
    bond_coeff 400 harmonic 347.2 1.3580   # SOURCE2 3 0.0050
    bond_coeff 401 harmonic 344.3 1.0870   # SOURCE3 10 0.0017
    bond_coeff 402 harmonic 350.1 1.0830   # SOURCE3 2 0.0000
    bond_coeff 403 harmonic 345.8 1.0860   # SOURCE3 44 0.0011
    bond_coeff 404 harmonic 347.2 1.0850   # SOURCE4 5 0.0002
    bond_coeff 405 harmonic 309.1 1.4820   # SOURCE3 2 0.0000
    bond_coeff 406 harmonic 318.7 1.4720   # SOURCE1 134 0.0000
    bond_coeff 407 harmonic 350.6 1.4411   # SOURCE4 11 0.0092
    bond_coeff 408 harmonic 329.0 1.4616   # SOURCE4 11 0.0016
    bond_coeff 409 harmonic 336.7 1.4541   # SOURCE4 83 0.0076
    bond_coeff 410 harmonic 387.4 1.3610   # SOURCE3 3 0.0018
    bond_coeff 411 harmonic 320.1 1.4200   # SOURCE3 7 0.0222
    bond_coeff 412 harmonic 227.6 1.8670   # SOURCE2 1 0.0000
    bond_coeff 413 harmonic 225.3 1.8220   # SOURCE2 1 0.0000
    bond_coeff 414 harmonic 283.7 1.7310   # SOURCE2 1 0.0000
    bond_coeff 415 harmonic 229.2 1.8150   # SOURCE2 1 0.0000
    bond_coeff 416 harmonic 286.8 1.5540   # SOURCE1 742 0.0041
    bond_coeff 417 harmonic 355.5 1.3509   # SOURCE4 8 0.0047
    bond_coeff 418 harmonic 330.4 1.0970   # SOURCE3 17 0.0058
    bond_coeff 419 harmonic 335.8 1.0931   # SOURCE4 80 0.0019
    bond_coeff 420 harmonic 334.5 1.0940   # SOURCE3 63 0.0014
    bond_coeff 421 harmonic 321.3 1.4693   # SOURCE4 250 0.0102
    bond_coeff 422 harmonic 307.2 1.4840   # SOURCE1 21 0.0000
    bond_coeff 423 harmonic 325.2 1.4150   # SOURCE3 2 0.0000
    bond_coeff 424 harmonic 308.6 1.4316   # SOURCE4 23 0.0136
    bond_coeff 425 harmonic 209.6 1.8514   # SOURCE4 9 0.0166
    bond_coeff 426 harmonic 211.3 1.8481   # SOURCE4 78 0.0080
    bond_coeff 427 harmonic 487.8 1.3391   # SOURCE4 32 0.0045
    bond_coeff 428 harmonic 375.7 1.4100   # SOUECE3 1
    bond_coeff 429 harmonic 337.5 1.4440   # SOURCE3 5 0.0377
    bond_coeff 430 harmonic 380.6 1.4060   # SOURCE1 9 0.0000
    bond_coeff 431 harmonic 391.7 1.3970   # SOURCE3 3 0.0112
    bond_coeff 432 harmonic 526.8 1.3080   # SOURCE3 2 0.0000
    bond_coeff 433 harmonic 374.5 1.4110   # SOURCE3 7 0.0611
    bond_coeff 434 harmonic 357.1 1.4260   # SOURCE3 3 0.0085
    bond_coeff 435 harmonic 314.4 1.4670   # SOURCE2 1 0.0000
    bond_coeff 436 harmonic 442.2 1.3300   # SOUECE3 1
    bond_coeff 437 harmonic 305.4 1.4440   # SOURCE3 1 0.0000
    bond_coeff 438 harmonic 326.2 1.4230   # SOURCE3 2 0.0000
    bond_coeff 439 harmonic 287.3 1.5360   # SOURCE3 7 0.2054
    bond_coeff 440 harmonic 254.5 1.5780   # SOURCE2 8 0.0103
    bond_coeff 441 harmonic 246.0 1.5900   # SOUECE3 1
    bond_coeff 442 harmonic 253.8 1.5790   # SOURCE1 72 0.0000
    bond_coeff 443 harmonic 244.4 1.6430   # SOURCE2 1 0.0000
    bond_coeff 444 harmonic 233.3 1.6600   # SOUECE3 1
    bond_coeff 445 harmonic 282.4 1.5910   # SOURCE2 4 0.0065
    bond_coeff 446 harmonic 312.1 1.5560   # SOURCE2 5 0.0220
    bond_coeff 447 harmonic 240.4 1.6490   # SOURCE3 1 0.0000
    bond_coeff 448 harmonic 250.5 1.6340   # SOURCE3 3 0.0156
    bond_coeff 449 harmonic 455.1 0.9860   # SOURCE2 1 0.0000
    bond_coeff 450 harmonic 375.5 1.0290   # SOURCE3 108 0.0096
    bond_coeff 451 harmonic 394.1 1.0180   # SOURCE3 157 0.0086
    bond_coeff 452 harmonic 410.2 1.0090   # SOURCE3 149 0.0098
    bond_coeff 453 harmonic 369.0 1.0330   # SOURCE3 264 0.0082
    bond_coeff 454 harmonic 406.6 1.0110   # SOURCE3 46 0.0107
    bond_coeff 455 harmonic 401.2 1.0140   # SOURCE3 209 0.0091
    bond_coeff 456 harmonic 385.6 1.0230   # SOURCE3 1 0.0000
    bond_coeff 457 harmonic 357.9 0.9810   # SOURCE3 1 0.0000
    bond_coeff 458 harmonic 369.6 0.9740   # SOURCE3 367 0.0105
    bond_coeff 459 harmonic 385.1 1.3360   # SOURCE3 87 0.1706
    bond_coeff 460 harmonic 303.1 1.4090   # SOURCE3 101 0.0617
    bond_coeff 461 harmonic 368.7 1.3490   # SOURCE3 17 0.1577
    bond_coeff 462 harmonic 305.0 1.4070   # SOURCE3 7 0.0062
    bond_coeff 463 harmonic 286.4 1.3530   # SOURCE3 1 0.0000
    bond_coeff 464 harmonic 266.4 1.3750   # SOURCE3 5 0.0004
    bond_coeff 465 harmonic 280.8 1.3590   # SOURCE3 5 0.0015
    bond_coeff 466 harmonic 302.2 1.3370   # SOURCE3 98 0.0486
    bond_coeff 467 harmonic 109.2 2.9170   # SOURCE1 1 0.0000
    bond_coeff 468 harmonic 302.1 2.0600   # SOUECE3 1
    bond_coeff 469 harmonic 182.6 2.3040   # SOURCE3 6 0.1186
    bond_coeff 470 harmonic 278.3 2.0980   # SOURCE3 5 0.0156
    bond_coeff 471 harmonic 231.8 2.1850   # SOURCE3 3 0.0437
    bond_coeff 472 harmonic 246.6 2.1550   # SOURCE3 3 0.0168
    bond_coeff 473 harmonic 260.5 2.1290   # SOURCE3 8 0.1276
    bond_coeff 474 harmonic 249.2 2.1500   # SOURCE3 1 0.0000
    bond_coeff 475 harmonic 211.0 2.2310   # SOURCE3 1 0.0000
    bond_coeff 476 harmonic 323.8 1.9800   # SOUECE3 1
    bond_coeff 477 harmonic 247.9 2.1010   # SOURCE3 2 0.0000
    bond_coeff 478 harmonic 233.6 2.1290   # SOURCE3 3 0.0146
    bond_coeff 479 harmonic 108.2 2.6430   # SOURCE3 6 0.0297
    bond_coeff 480 harmonic 123.6 2.5660   # SOURCE3 3 0.0016
    bond_coeff 481 harmonic 183.0 2.3520   # SOURCE3 4 0.2600
    bond_coeff 482 harmonic 117.3 2.5960   # SOURCE3 3 0.0143
    bond_coeff 483 harmonic 175.1 2.4300   # SOUECE3 1
    bond_coeff 484 harmonic 82.8 2.8700   # SOUECE3 1
    bond_coeff 485 harmonic 82.8 2.8700   # SOURCE3 1 0.0000
    bond_coeff 486 harmonic 138.5 2.5600   # SOUECE3 1
    bond_coeff 487 harmonic 135.9 2.5710   # SOURCE3 3 0.0065
    bond_coeff 488 harmonic 1221.7 1.1240   # SOURCE1 19 0.0000
    bond_coeff 489 harmonic 857.4 1.2160   # SOURCE1 19 0.0000
    bond_coeff 490 harmonic 535.7 1.3500   # SOUECE3 1
    bond_coeff 491 harmonic 518.2 1.3600   # SOUECE3 1
    bond_coeff 492 harmonic 535.7 1.3500   # SOUECE3 1
    bond_coeff 493 harmonic 857.4 1.2160   # SOURCE1 38 0.0000
    bond_coeff 494 harmonic 857.4 1.2160   # SOURCE1 38 0.0000
    bond_coeff 495 harmonic 751.9 1.2520   # SOURCE2 1 0.0000
    bond_coeff 496 harmonic 751.9 1.2520   # SOURCE2 1 same_as_n1-ne
    bond_coeff 497 harmonic 553.9 1.3400   # SOUECE3 1
    bond_coeff 498 harmonic 454.8 1.4000   # SOUECE3 1
    bond_coeff 499 harmonic 617.5 1.2770   # SOURCE3 5 0.0438
    bond_coeff 500 harmonic 569.8 1.3000   # SOUECE3 1
    bond_coeff 501 harmonic 550.5 1.3100   # SOUECE3 1
    bond_coeff 502 harmonic 358.8 1.6780   # SOURCE3 2 0.0282
    bond_coeff 503 harmonic 376.7 1.6600   # SOUECE3 1
    bond_coeff 504 harmonic 353.0 1.6800   # SOURCE3 0
    bond_coeff 505 harmonic 482.7 1.5710   # SOURCE1 132 0.0000
    bond_coeff 506 harmonic 604.3 1.4490   # SOURCE2 2 0.0010
    bond_coeff 507 harmonic 328.7 1.6590   # SOURCE3 6 0.0789
    bond_coeff 508 harmonic 336.8 1.6500   # SOUECE3 1
    bond_coeff 509 harmonic 670.3 1.4160   # SOURCE2 2 0.0000
    bond_coeff 510 harmonic 376.1 1.6100   # SOUECE3 1
    bond_coeff 511 harmonic 376.1 1.6100   # SOUECE3 1
    bond_coeff 512 harmonic 702.7 1.2710   # SOURCE3 27 0.0347
    bond_coeff 513 harmonic 574.8 1.3290   # SOURCE2 1 0.0000
    bond_coeff 514 harmonic 200.8 1.6790   # SOURCE3 7 0.3138
    bond_coeff 515 harmonic 503.9 1.3685   # SOURCE4 18 0.0066
    bond_coeff 516 harmonic 743.9 1.2550   # SOURCE1 13 0.0000
    bond_coeff 517 harmonic 743.9 1.2550   # SOURCE1 13 same_as_n2_nc
    bond_coeff 518 harmonic 685.5 1.2780   # SOURCE3 30 0.0302
    bond_coeff 519 harmonic 685.5 1.2780   # SOURCE3 30 same_as_n2-ne
    bond_coeff 520 harmonic 525.1 1.3560   # SOURCE3 22 0.0300
    bond_coeff 521 harmonic 231.9 1.6260   # SOURCE3 4 0.1933
    bond_coeff 522 harmonic 789.9 1.2090   # SOURCE3 20 0.0344
    bond_coeff 523 harmonic 416.2 1.3940   # SOURCE1 67 0.0000
    bond_coeff 524 harmonic 400.5 1.4060   # SOURCE3 10 0.0147
    bond_coeff 525 harmonic 438.3 1.6050   # SOURCE3 35 0.0737
    bond_coeff 526 harmonic 286.5 1.7640   # SOURCE3 7 0.0374
    bond_coeff 527 harmonic 317.7 1.7240   # SOUECE3 1
    bond_coeff 528 harmonic 445.8 1.5990   # SOURCE1 7 0.0000
    bond_coeff 529 harmonic 527.9 1.5400   # SOURCE3 20 0.1392
    bond_coeff 530 harmonic 527.9 1.5400   # SOURCE3 20 same_as_n2-pe
    bond_coeff 531 harmonic 499.0 1.5120   # SOURCE2 1 0.0000
    bond_coeff 532 harmonic 376.1 1.6100   # SOUECE3 1
    bond_coeff 533 harmonic 458.1 1.5410   # SOURCE1 37 0.0000
    bond_coeff 534 harmonic 444.6 1.5513   # SOURCE4 5 0.0011
    bond_coeff 535 harmonic 266.6 1.7380   # SOURCE3 5 0.0511
    bond_coeff 536 harmonic 331.4 1.6560   # SOURCE1 36 0.0000
    bond_coeff 537 harmonic 383.6 1.4540   # SOURCE1 44 0.0000
    bond_coeff 538 harmonic 434.9 1.4140   # SOURCE1 13 0.0000
    bond_coeff 539 harmonic 426.7 1.4200   # SOURCE1 68 0.0000
    bond_coeff 540 harmonic 426.7 1.4200   # SOURCE1 68 0.0000
    bond_coeff 541 harmonic 394.5 1.4450   # SOURCE3 3 0.0208
    bond_coeff 542 harmonic 564.0 1.3030   # SOURCE3 4 0.1217
    bond_coeff 543 harmonic 413.5 1.3960   # SOURCE1 28 0.0000
    bond_coeff 544 harmonic 359.6 1.4400   # SOURCE1 34 0.0315
    bond_coeff 545 harmonic 366.6 1.6700   # SOUECE3 1
    bond_coeff 546 harmonic 312.8 1.7300   # SOURCE1 40 0.0000
    bond_coeff 547 harmonic 341.1 1.6970   # SOURCE1 88 0.0000
    bond_coeff 548 harmonic 373.6 1.6630   # SOURCE1 501 0.0086
    bond_coeff 549 harmonic 338.1 1.7003   # SOURCE4 6 0.0044
    bond_coeff 550 harmonic 232.3 1.7920   # SOURCE3 3 0.0178
    bond_coeff 551 harmonic 251.3 1.7610   # SOURCE3 6 0.0766
    bond_coeff 552 harmonic 353.8 1.6320   # SOURCE1 99 0.0136
    bond_coeff 553 harmonic 265.9 1.7390   # SOURCE3 3 0.0154
    bond_coeff 554 harmonic 277.9 1.7220   # SOURCE3 5 0.0207
    bond_coeff 555 harmonic 297.3 1.6964   # SOURCE4 226 0.0081
    bond_coeff 556 harmonic 349.9 1.4840   # SOURCE3 4 0.0089
    bond_coeff 557 harmonic 407.0 1.4350   # SOURCE3 9 0.0390
    bond_coeff 558 harmonic 369.7 1.4660   # SOURCE3 5 0.0108
    bond_coeff 559 harmonic 354.2 1.4800   # SOUECE3 1
    bond_coeff 560 harmonic 463.6 1.3610   # SOURCE3 3 0.0041
    bond_coeff 561 harmonic 408.2 1.4000   # SOURCE3 3 0.0115
    bond_coeff 562 harmonic 381.8 1.4210   # SOURCE3 5 0.0249
    bond_coeff 563 harmonic 185.9 1.9420   # SOURCE3 10 0.0643
    bond_coeff 564 harmonic 215.1 1.8800   # SOURCE3 5 0.0146
    bond_coeff 565 harmonic 187.6 1.9380   # SOURCE3 1 0.0000
    bond_coeff 566 harmonic 242.9 1.8300   # SOURCE3 5 0.0087
    bond_coeff 567 harmonic 204.2 1.9020   # SOURCE3 4 0.0000
    bond_coeff 568 harmonic 210.3 1.8320   # SOURCE3 3 0.0004
    bond_coeff 569 harmonic 151.0 1.9720   # SOURCE3 3 0.0198
    bond_coeff 570 harmonic 172.7 1.9140   # SOURCE3 5 0.0432
    bond_coeff 571 harmonic 221.5 1.8110   # SOURCE3 3 0.0027
    bond_coeff 572 harmonic 221.0 1.8120   # SOURCE3 5 0.0064
    bond_coeff 573 harmonic 453.3 1.4010   # SOURCE1 40 0.0000
    bond_coeff 574 harmonic 546.5 1.3440   # SOURCE4 5 0.0070
    bond_coeff 575 harmonic 535.7 1.3500   # SOURCE3 152 0.0180
    bond_coeff 576 harmonic 535.7 1.3500   # SOURCE3 152 0.0180
    bond_coeff 577 harmonic 453.3 1.4010   # SOURCE1 40 0.0000
    bond_coeff 578 harmonic 401.9 1.4390   # SOURCE3 9 0.0289
    bond_coeff 579 harmonic 644.3 1.2650   # SOURCE1 25 0.0347
    bond_coeff 580 harmonic 412.2 1.3970   # SOURCE3 9 0.0217
    bond_coeff 581 harmonic 355.2 1.4440   # SOURCE3 45 0.0423
    bond_coeff 582 harmonic 297.8 1.7490   # SOURCE3 11 0.0192
    bond_coeff 583 harmonic 288.0 1.7620   # SOURCE3 8 0.0113
    bond_coeff 584 harmonic 492.4 1.5640   # SOURCE3 5 0.2161
    bond_coeff 585 harmonic 325.3 1.7150   # SOURCE3 11 0.0238
    bond_coeff 586 harmonic 311.1 1.7320   # SOURCE3 81 0.0207
    bond_coeff 587 harmonic 311.1 1.7320   # SOURCE3 81 same_as_na-pc
    bond_coeff 588 harmonic 327.8 1.7120   # SOURCE3 2 0.0000
    bond_coeff 589 harmonic 248.7 1.7650   # SOURCE3 8 0.0095
    bond_coeff 590 harmonic 231.7 1.7930   # SOURCE3 10 0.0421
    bond_coeff 591 harmonic 274.3 1.7270   # SOURCE3 10 0.0201
    bond_coeff 592 harmonic 278.6 1.7210   # SOURCE3 9 0.0113
    bond_coeff 593 harmonic 270.1 1.7330   # SOURCE3 38 0.0412
    bond_coeff 594 harmonic 274.3 1.7270   # SOURCE3 1
    bond_coeff 595 harmonic 550.2 1.3420   # SOURCE1 15 0.0314
    bond_coeff 596 harmonic 461.1 1.5870   # SOURCE1 162 0.0091
    bond_coeff 597 harmonic 486.8 1.3790   # SOURCE3 9 0.0164
    bond_coeff 598 harmonic 602.9 1.3150   # SOURCE3 9 0.0221
    bond_coeff 599 harmonic 414.9 1.3950   # SOURCE1 46 0.0188
    bond_coeff 600 harmonic 433.5 1.5600   # SOURCE1 74 0.0000
    bond_coeff 601 harmonic 439.8 1.5550   # SOURCE3 2
    bond_coeff 602 harmonic 486.8 1.3790   # SOURCE3 9 0.0164
    bond_coeff 603 harmonic 414.9 1.3950   # SOURCE1 46 0.0188
    bond_coeff 604 harmonic 433.5 1.5600   # SOURCE1 74 0.0000
    bond_coeff 605 harmonic 439.8 1.5550   # SOURCE3 2
    bond_coeff 606 harmonic 355.3 1.4790   # SOURCE3 19 0.1705
    bond_coeff 607 harmonic 721.6 1.2635   # SOURCE4 25 0.0034
    bond_coeff 608 harmonic 736.4 1.2280   # SOURCE3 40 0.0255
    bond_coeff 609 harmonic 493.9 1.5630   # SOURCE3 14 0.1325
    bond_coeff 610 harmonic 327.8 1.7120   # SOURCE3 28 0.1076
    bond_coeff 611 harmonic 336.6 1.7020   # SOURCE3 11 0.0883
    bond_coeff 612 harmonic 425.4 1.6157   # SOURCE4 10 0.0094
    bond_coeff 613 harmonic 463.5 1.5370   # SOURCE3 22 0.1708
    bond_coeff 614 harmonic 207.3 1.8380   # SOURCE3 7 0.1060
    bond_coeff 615 harmonic 257.1 1.7520   # SOURCE3 7 0.0814
    bond_coeff 616 harmonic 355.3 1.4790   # SOURCE3 19 same_as_ne-ne
    bond_coeff 617 harmonic 736.4 1.2280   # SOURCE3 40 same_as_ne-o
    bond_coeff 618 harmonic 493.9 1.5630   # SOURCE3 14 same_as_ne-p2
    bond_coeff 619 harmonic 327.8 1.7120   # SOURCE3 28 same_as_ne-pe
    bond_coeff 620 harmonic 336.6 1.7020   # SOURCE3 11 same_as_ne-px
    bond_coeff 621 harmonic 425.4 1.6157   # SOURCE4 10 same_as_ne-py
    bond_coeff 622 harmonic 463.5 1.5370   # SOURCE3 22 same_as_ne-s
    bond_coeff 623 harmonic 207.3 1.8380   # SOURCE3 7 same_as_ne-sx
    bond_coeff 624 harmonic 257.1 1.7520   # SOURCE3 7 same_as_ne-sy
    bond_coeff 625 harmonic 453.3 1.4010   # SOURCE1 40 0.0000
    bond_coeff 626 harmonic 477.4 1.3850   # SOURCE4 7 0.0036
    bond_coeff 627 harmonic 596.2 1.2870   # SOURCE3 3 0.0450
    bond_coeff 628 harmonic 389.9 1.4144   # SOURCE4 19 0.0064
    bond_coeff 629 harmonic 387.8 1.4161   # SOURCE4 6 0.0039
    bond_coeff 630 harmonic 357.8 1.6790   # SOURCE3 17 0.0872
    bond_coeff 631 harmonic 312.8 1.7300   # SOURCE3 3 0.0016
    bond_coeff 632 harmonic 333.1 1.7060   # SOURCE3 3 0.0008
    bond_coeff 633 harmonic 365.6 1.6710   # SOURCE3 3 0.0007
    bond_coeff 634 harmonic 237.0 1.7840   # SOURCE3 3 0.0076
    bond_coeff 635 harmonic 259.1 1.7490   # SOURCE3 3 0.0203
    bond_coeff 636 harmonic 297.2 1.6965   # SOURCE4 33 0.0062
    bond_coeff 637 harmonic 288.3 1.7080   # SOURCE3 1 0.0000
    bond_coeff 638 harmonic 288.3 1.7080   # SOURCE1 52 0.0015
    bond_coeff 639 harmonic 283.5 1.7144   # SOURCE4 80 0.0066
    bond_coeff 640 harmonic 553.9 1.3400   # SOUECE3 1
    bond_coeff 641 harmonic 499.7 1.3710   # SOURCE3 9 0.0200
    bond_coeff 642 harmonic 443.3 1.4080   # SOURCE3 5 0.0087
    bond_coeff 643 harmonic 410.8 1.4320   # SOURCE3 5 0.0098
    bond_coeff 644 harmonic 469.7 1.3900   # SOURCE3 5 0.0038
    bond_coeff 645 harmonic 486.8 1.3790   # SOURCE3 11 0.0071
    bond_coeff 646 harmonic 523.7 1.3568   # CORR 76
    bond_coeff 647 harmonic 523.7 1.3568   # CORR 76
    bond_coeff 648 harmonic 451.2 1.4025   # SOURCE4 20 0.0074
    bond_coeff 649 harmonic 381.2 1.4560   # SOURCE3 4 0.0327
    bond_coeff 650 harmonic 646.6 1.2640   # SOURCE3 9 0.0381
    bond_coeff 651 harmonic 395.4 1.4100   # SOURCE3 6 0.0106
    bond_coeff 652 harmonic 138.3 1.8240   # SOURCE3 1 0.0000
    bond_coeff 653 harmonic 761.2 1.2190   # SOURCE1 1838 0.0049
    bond_coeff 654 harmonic 400.5 1.4060   # SOURCE2 1 0.0000
    bond_coeff 655 harmonic 379.5 1.4229   # SOURCE4 53 0.0076
    bond_coeff 656 harmonic 306.3 1.7380   # SOURCE3 10 0.2231
    bond_coeff 657 harmonic 234.7 1.8440   # SOURCE3 3 0.0005
    bond_coeff 658 harmonic 220.4 1.8700   # SOURCE3 3 0.0006
    bond_coeff 659 harmonic 240.5 1.8340   # SOURCE3 4 0.0020
    bond_coeff 660 harmonic 263.8 1.7420   # SOURCE3 2 0.0000
    bond_coeff 661 harmonic 395.0 1.4103   # SOURCE4 30 0.0112
    bond_coeff 662 harmonic 143.0 1.9960   # SOURCE3 3 0.0313
    bond_coeff 663 harmonic 149.6 1.9760   # SOURCE3 3 0.0520
    bond_coeff 664 harmonic 225.4 1.8040   # SOURCE3 1 0.0000
    bond_coeff 665 harmonic 212.4 1.8280   # SOURCE3 3 0.0244
    bond_coeff 666 harmonic 310.3 1.7330   # SOURCE3 8 0.0217
    bond_coeff 667 harmonic 282.2 1.7700   # SOURCE3 9 0.0118
    bond_coeff 668 harmonic 309.5 1.7340   # SOURCE3 1 0.0000
    bond_coeff 669 harmonic 331.3 1.7080   # SOURCE4 6 0.0022
    bond_coeff 670 harmonic 304.8 1.7400   # SOURCE3 3 0.0010
    bond_coeff 671 harmonic 304.8 1.7400   # SOURCE3 3 same_as_n-pc
    bond_coeff 672 harmonic 247.5 1.7670   # SOURCE3 3 0.0011
    bond_coeff 673 harmonic 238.2 1.7820   # SOURCE3 4 0.0214
    bond_coeff 674 harmonic 283.0 1.7151   # SOURCE4 13 0.0138
    bond_coeff 675 harmonic 273.6 1.7280   # SOURCE3 4 0.0128
    bond_coeff 676 harmonic 281.6 1.7170   # SOURCE3 7 0.0133
    bond_coeff 677 harmonic 282.9 1.7152   # SOURCE4 51 0.0079
    bond_coeff 678 harmonic 340.5 1.4690   # SOURCE3 1 0.0000
    bond_coeff 679 harmonic 355.8 1.4547   # SOURCE4 19 0.0050
    bond_coeff 680 harmonic 316.8 1.6300   # SOURCE3 8 0.0916
    bond_coeff 681 harmonic 278.8 1.6770   # SOURCE3 3 0.0148
    bond_coeff 682 harmonic 307.4 1.6410   # SOURCE3 4 0.0092
    bond_coeff 683 harmonic 321.2 1.6250   # SOURCE3 92 0.0451
    bond_coeff 684 harmonic 332.1 1.6130   # SOURCE3 79 0.0138
    bond_coeff 685 harmonic 190.0 1.8120   # SOURCE3 2 0.0000
    bond_coeff 686 harmonic 256.3 1.6954   # SOURCE4 10 0.0091
    bond_coeff 687 harmonic 344.1 1.5880   # SOURCE3 13 0.0091
    bond_coeff 688 harmonic 258.6 1.6920   # SOURCE3 2 0.0003
    bond_coeff 689 harmonic 265.6 1.6820   # SOURCE3 4 0.0131
    bond_coeff 690 harmonic 290.4 1.6490   # SOURCE4 33 0.0044
    bond_coeff 691 harmonic 384.3 1.4300   # SOURCE3 2 0.0500
    bond_coeff 692 harmonic 294.6 1.5170   # SOURCE3 2 0.0000
    bond_coeff 693 harmonic 306.3 1.5040   # SOURCE3 3 0.0117
    bond_coeff 694 harmonic 449.7 1.5080   # SOURCE3 17 0.0306
    bond_coeff 695 harmonic 440.4 1.5150   # SOURCE3 35 0.0297
    bond_coeff 696 harmonic 456.4 1.5030   # SOURCE3 42 0.0749
    bond_coeff 697 harmonic 487.7 1.4810   # SOURCE1 263 0.0205
    bond_coeff 698 harmonic 432.6 1.5210   # SOURCE3 20 0.0171
    bond_coeff 699 harmonic 432.6 1.5210   # SOURCE3 20 same_as_o-pe
    bond_coeff 700 harmonic 459.2 1.5010   # SOURCE3 37 0.0160
    bond_coeff 701 harmonic 477.5 1.4880   # SOURCE3 63 0.0091
    bond_coeff 702 harmonic 194.8 1.8020   # SOURCE3 2 0.0000
    bond_coeff 703 harmonic 333.6 1.5990   # SOURCE3 3 0.0707
    bond_coeff 704 harmonic 448.7 1.4970   # SOURCE1 90 0.0000
    bond_coeff 705 harmonic 541.1 1.4360   # SOURCE1 1038 0.0128
    bond_coeff 706 harmonic 328.0 1.6050   # SOURCE3 2 0.0000
    bond_coeff 707 harmonic 343.6 1.4660   # SOURCE1 20 0.0067
    bond_coeff 708 harmonic 371.9 1.5730   # SOURCE1 16 0.0000
    bond_coeff 709 harmonic 272.2 1.6860   # SOURCE3 6 0.0201
    bond_coeff 710 harmonic 311.6 1.6360   # SOURCE3 4 0.0057
    bond_coeff 711 harmonic 342.5 1.6020   # SOURCE1 248 0.0400
    bond_coeff 712 harmonic 328.5 1.6170   # SOURCE3 17 0.0139
    bond_coeff 713 harmonic 195.8 1.8000   # SOURCE3 3 0.0052
    bond_coeff 714 harmonic 398.5 1.5370   # SOURCE3 3 0.0501
    bond_coeff 715 harmonic 253.9 1.6990   # SOURCE3 8 0.0223
    bond_coeff 716 harmonic 355.0 1.5770   # SOURCE1 75 0.0030
    bond_coeff 717 harmonic 273.6 1.6710   # SOURCE3 3 0.0106
    bond_coeff 718 harmonic 250.5 1.7040   # SOURCE3 9 0.0277
    bond_coeff 719 harmonic 253.9 1.6990   # SOURCE3 1 0.0000
    bond_coeff 720 harmonic 434.2 1.5080   # SOURCE3 40 0.0130
    bond_coeff 721 harmonic 493.0 1.4660   # SOURCE3 92 0.0114
    bond_coeff 722 harmonic 490.3 1.7860   # SOURCE3 25 0.3488
    bond_coeff 723 harmonic 211.9 2.1520   # SOURCE3 9 0.1777
    bond_coeff 724 harmonic 200.4 2.1790   # SOUECE3 1
    bond_coeff 725 harmonic 199.9 2.1800   # SOUECE3 1
    bond_coeff 726 harmonic 401.6 1.8670   # SOURCE3 16 0.3571
    bond_coeff 727 harmonic 401.6 1.8670   # SOURCE3 16 same_as_p2-pe
    bond_coeff 728 harmonic 361.6 1.7720   # SOURCE3 26 0.3014
    bond_coeff 729 harmonic 139.4 2.1900   # SOUECE3 1
    bond_coeff 730 harmonic 142.3 2.1800   # SOUECE3 1
    bond_coeff 731 harmonic 224.0 1.9710   # SOURCE3 10 0.2829
    bond_coeff 732 harmonic 226.6 1.9660   # SOURCE3 10 0.2739
    bond_coeff 733 harmonic 186.5 2.2140   # SOURCE1 41 0.0000
    bond_coeff 734 harmonic 185.7 2.2160   # SOURCE3 3 0.0011
    bond_coeff 735 harmonic 186.9 2.2130   # SOURCE3 9 0.0265
    bond_coeff 736 harmonic 179.7 2.0700   # SOUECE3 1
    bond_coeff 737 harmonic 173.2 2.0870   # SOURCE3 8 0.2235
    bond_coeff 738 harmonic 176.9 2.0770   # SOURCE3 11 0.1420
    bond_coeff 739 harmonic 157.3 2.1320   # SOURCE3 3 0.0078
    bond_coeff 740 harmonic 161.0 2.1210   # SOURCE3 3 0.0059
    bond_coeff 741 harmonic 273.1 2.0340   # SOURCE1 1 0.0000
    bond_coeff 742 harmonic 178.0 2.2370   # SOUECE3 1
    bond_coeff 743 harmonic 152.7 2.1460   # SOURCE3 5 0.0601
    bond_coeff 744 harmonic 123.2 2.2510   # SOUECE3 1
    bond_coeff 745 harmonic 118.9 2.2690   # SOUECE3 1
    bond_coeff 746 harmonic 163.1 2.1150   # SOURCE3 4 0.0008
    bond_coeff 747 harmonic 167.0 2.1040   # SOURCE3 4 0.0044
    bond_coeff 748 harmonic 261.4 2.0540   # SOURCE1 1 0.0000
    bond_coeff 749 harmonic 250.8 1.9220   # SOURCE1 89 0.0140
    bond_coeff 750 harmonic 191.9 2.0400   # SOUECE3 1
    bond_coeff 751 harmonic 191.9 2.0400   # SOUECE3 1
    bond_coeff 752 harmonic 175.0 2.0820   # SOURCE3 3 0.0035
    bond_coeff 753 harmonic 163.1 2.1149   # SOURCE4 24 0.0106
    bond_coeff 754 harmonic 240.7 2.0920   # SOURCE3 7 0.1369
    bond_coeff 755 harmonic 260.8 2.0550   # SOURCE3 1 0.0000
    bond_coeff 756 harmonic 291.4 2.0050   # SOURCE3 12 0.2609
    bond_coeff 757 harmonic 278.6 2.0250   # SOURCE3 12 0.2617
    bond_coeff 758 harmonic 374.7 1.7580   # SOURCE3 31 0.3197
    bond_coeff 759 harmonic 145.9 2.1680   # SOURCE3 9 0.1743
    bond_coeff 760 harmonic 133.0 2.2130   # SOURCE3 6 0.0127
    bond_coeff 761 harmonic 240.7 2.0920   # SOURCE3 7 same_as_pe-pe
    bond_coeff 762 harmonic 291.4 2.0050   # SOURCE3 12 same_as_pe-px
    bond_coeff 763 harmonic 278.6 2.0250   # SOURCE3 12 same_as_pe-py
    bond_coeff 764 harmonic 374.7 1.7580   # SOURCE3 31 same_as_pe-s
    bond_coeff 765 harmonic 145.9 2.1680   # SOURCE3 9 same_as_pe-sx
    bond_coeff 766 harmonic 133.0 2.2130   # SOURCE3 6 same_as_pe-sy
    bond_coeff 767 harmonic 192.3 2.1990   # SOURCE3 5 0.0238
    bond_coeff 768 harmonic 125.4 2.2420   # SOURCE3 3 0.0119
    bond_coeff 769 harmonic 123.7 2.2490   # SOURCE3 3 0.0272
    bond_coeff 770 harmonic 197.5 2.1860   # SOURCE3 8 0.0132
    bond_coeff 771 harmonic 121.2 2.2590   # SOURCE3 7 0.0603
    bond_coeff 772 harmonic 141.7 2.1820   # SOURCE3 5 0.0047
    bond_coeff 773 harmonic 151.5 2.0800   # SOUECE3 1
    bond_coeff 774 harmonic 151.5 2.0800   # SOUECE3 1
    bond_coeff 775 harmonic 125.7 2.1680   # SOURCE3 3 0.0227
    bond_coeff 776 harmonic 126.2 2.1660   # SOURCE3 5 0.0247
    bond_coeff 777 harmonic 151.5 2.0800   # SOUECE3 1
    bond_coeff 778 harmonic 142.6 2.1080   # SOURCE3 3 0.0144
    bond_coeff 779 harmonic 139.6 2.1180   # SOURCE3 5 0.0209
    bond_coeff 780 harmonic 158.9 2.0580   # SOURCE2 1 0.0000
    bond_coeff 781 harmonic 155.8 2.0670   # SOURCE3 3 0.0029
    bond_coeff 782 harmonic 169.0 2.0300   # SOURCE3 1 0.0000
    bond_coeff 783 harmonic 229.2 1.8970   # SOURCE1 5 0.0000
    bond_coeff 784 harmonic 152.8 2.0760   # SOURCE3 4 0.0345
    bond_coeff 785 harmonic 166.0 2.0380   # SOURCE3 3 0.0311
    bond_coeff 786 harmonic 142.0 2.1100   # SOURCE3 2 0.0000
    bond_coeff 787 harmonic 148.5 2.0890   # SOURCE3 1 0.0000
    bond_coeff 788 harmonic 161.7 2.0500   # SOURCE1 225 0.0015
    bond_coeff 789 harmonic 80.9 2.3910   # SOURCE3 3 0.0185
    bond_coeff 790 harmonic 105.3 2.2550   # SOURCE3 5 0.0737
    bond_coeff 791 harmonic 106.4 2.2500   # SOURCE3 3 0.0289
    bond_coeff 792 harmonic 277.6 1.8847   # NEW 39
    bond_coeff 793 harmonic 607.4 1.3153   # NEW 6
    bond_coeff 794 harmonic 368.6 1.3401   # NEW 24
    bond_coeff 795 harmonic 299.0 1.4930   # NEW 7
    bond_coeff 796 harmonic 427.4 1.3790   # NEW 30
    bond_coeff 797 harmonic 367.4 1.4262   # NEW 133
    bond_coeff 798 harmonic 257.9 1.7681   # NEW 8
    bond_coeff 799 harmonic 231.3 1.8113   # NEW 16
    bond_coeff 800 harmonic 330.9 1.5054   # NEW 10
    bond_coeff 801 harmonic 292.6 1.7671   # NEW 24
    bond_coeff 802 harmonic 337.0 1.4993   # NEW 5
    bond_coeff 803 harmonic 323.0 1.5135   # NEW 17
    bond_coeff 804 harmonic 373.8 1.4207   # NEW 5
    bond_coeff 805 harmonic 243.6 1.7906   # NEW 10
    bond_coeff 806 harmonic 420.5 1.3840   # NEW 7
    bond_coeff 807 harmonic 486.7 1.3398   # NEW 70
    angle_coeff 1 harmonic 100.00 104.52   # AMBER 1 TIP3P_water
    angle_coeff 2 harmonic 0.00 127.74   # AMBER 1 (found_in_crystallographic_water_with_3_bonds)
    angle_coeff 3 harmonic 57.76 180.00   # Guess 0
    angle_coeff 4 harmonic 54.93 180.00   # SOURCE3 1 0.0000
    angle_coeff 5 harmonic 64.41 180.00   # SOURCE3 1 0.0000
    angle_coeff 6 harmonic 60.84 180.00   # SOURCE3 2 0.0000
    angle_coeff 7 harmonic 56.28 178.46   # SOURCE4 188 0.6631
    angle_coeff 8 harmonic 56.92 180.00   # SOURCE3 1
    angle_coeff 9 harmonic 51.40 180.00   # SOURCE3 1
    angle_coeff 10 harmonic 61.02 180.00   # SOURCE3 1
    angle_coeff 11 harmonic 44.84 178.38   # SOURCE3 41 2.0683
    angle_coeff 12 harmonic 44.73 180.00   # SOURCE3 1
    angle_coeff 13 harmonic 49.80 180.00   # SOURCE3 1 0.0000
    angle_coeff 14 harmonic 67.17 180.00   # SOURCE3 1
    angle_coeff 15 harmonic 65.17 180.00   # SOURCE3 1
    angle_coeff 16 harmonic 59.77 180.00   # SOURCE3 1
    angle_coeff 17 harmonic 59.09 179.56   # SOURCE3 3 0.3096
    angle_coeff 18 harmonic 62.13 177.18   # SOURCE3 1 0.0000
    angle_coeff 19 harmonic 61.23 176.75   # SOURCE3 8 2.9328
    angle_coeff 20 harmonic 61.44 179.27   # SOURCE3 3 0.2357
    angle_coeff 21 harmonic 59.38 180.00   # SOURCE3 3 0.0000
    angle_coeff 22 harmonic 66.79 180.00   # SOURCE3 1 0.0000
    angle_coeff 23 harmonic 62.70 176.65   # SOURCE3 1 0.0000
    angle_coeff 24 harmonic 62.77 176.42   # SOURCE3 2 0.0000
    angle_coeff 25 harmonic 65.19 180.00   # SOURCE3 1
    angle_coeff 26 harmonic 66.41 169.63   # SOURCE3 2 0.0000
    angle_coeff 27 harmonic 64.47 180.00   # SOURCE3 1
    angle_coeff 28 harmonic 66.52 176.17   # SOURCE3 2 0.0000
    angle_coeff 29 harmonic 54.12 167.47   # SOURCE3 2 0.0000
    angle_coeff 30 harmonic 53.74 174.38   # SOURCE3 2 0.0000
    angle_coeff 31 harmonic 55.65 179.97   # SOURCE3 1 0.0000
    angle_coeff 32 harmonic 54.14 180.00   # SOURCE3 1
    angle_coeff 33 harmonic 55.22 173.22   # SOURCE3 2 0.0000
    angle_coeff 34 harmonic 58.20 180.00   # SOURCE3 1 0.0000
    angle_coeff 35 harmonic 58.18 179.01   # SOURCE4 6 0.4656
angle_coeff 36 harmonic 63.14 180.00   # HF/6-31G* 1
    angle_coeff 37 harmonic 63.07 179.50   # SOURCE2 1 0.0000
    angle_coeff 38 harmonic 56.73 172.98   # SOURCE3 1 0.0000
    angle_coeff 39 harmonic 51.75 180.00   # Guess 0
    angle_coeff 40 harmonic 55.79 178.52   # SOURCE4 39 0.5063
    angle_coeff 41 harmonic 58.10 178.50   # SOURCE4 77 0.5443
    angle_coeff 42 harmonic 52.83 180.00   # Guess 0
    angle_coeff 43 harmonic 56.33 180.00   # SOURCE3 1
    angle_coeff 44 harmonic 43.98 177.41   # SOURCE3 22 2.4947
    angle_coeff 45 harmonic 43.98 177.41   # SOURCE3 22 same_as_cg-c1-ha
    angle_coeff 46 harmonic 46.64 180.00   # Guess 0
    angle_coeff 47 harmonic 58.19 180.00   # Guess 0
    angle_coeff 48 harmonic 53.41 180.00   # Guess 0
    angle_coeff 49 harmonic 93.20 102.01   # SOURCE3 1
    angle_coeff 50 harmonic 63.71 169.70   # SOURCE2 1 0.0000
    angle_coeff 51 harmonic 64.02 177.43   # SOURCE4 7 0.7877
    angle_coeff 52 harmonic 64.72 178.59   # SOURCE3 1 0.0000
    angle_coeff 53 harmonic 67.69 171.20   # SOURCE2 1 0.0000
    angle_coeff 54 harmonic 55.82 178.68   # SOURCE3 1 0.0000
    angle_coeff 55 harmonic 65.99 180.00   # Guess 0
    angle_coeff 56 harmonic 69.15 171.79   # SOURCE3 2 0.3594
    angle_coeff 57 harmonic 57.48 176.01   # SOURCE4 9 0.1123
    angle_coeff 58 harmonic 57.36 180.00   # Guess 0
    angle_coeff 59 harmonic 56.35 180.00   # Guess 0
    angle_coeff 60 harmonic 58.62 180.00   # Guess 0
    angle_coeff 61 harmonic 69.39 172.33   # SOURCE3 1 0.0000
    angle_coeff 62 harmonic 57.59 175.81   # SOURCE4 8 0.2356
    angle_coeff 63 harmonic 69.39 172.33   # SOURCE3 1 same_as_ne-c1-o
    angle_coeff 64 harmonic 59.55 180.00   # Guess 0
    angle_coeff 65 harmonic 60.03 180.00   # Guess 0
    angle_coeff 66 harmonic 56.83 180.00   # Guess 0
    angle_coeff 67 harmonic 60.91 180.00   # Guess 0
    angle_coeff 68 harmonic 69.27 180.00   # Guess 0
    angle_coeff 69 harmonic 60.96 180.00   # Guess 0
    angle_coeff 70 harmonic 80.59 180.00   # Guess 0
    angle_coeff 71 harmonic 79.69 180.00   # Guess 0
    angle_coeff 72 harmonic 79.69 180.00   # Guess 0
    angle_coeff 73 harmonic 81.37 180.00   # Guess 0
    angle_coeff 74 harmonic 55.83 180.00   # Guess 0
    angle_coeff 75 harmonic 51.00 180.00   # Guess 0
    angle_coeff 76 harmonic 51.72 180.00   # Guess 0
    angle_coeff 77 harmonic 53.01 180.00   # Guess 0
    angle_coeff 78 harmonic 54.63 180.00   # Guess 0
    angle_coeff 79 harmonic 53.04 180.00   # Guess 0
    angle_coeff 80 harmonic 68.56 115.06   # SOURCE3 1 0.0000
    angle_coeff 81 harmonic 63.97 118.96   # SOURCE4 6 0.4902
    angle_coeff 82 harmonic 63.71 115.33   # SOURCE4 6 0.5872
    angle_coeff 83 harmonic 63.21 121.59   # SOURCE4 7 0.7078
    angle_coeff 84 harmonic 43.04 113.94   # SOURCE4 6 0.4017
    angle_coeff 85 harmonic 43.18 113.28   # SOURCE3 1 0.0000
    angle_coeff 86 harmonic 72.26 116.77   # SOURCE3 1
    angle_coeff 87 harmonic 70.34 121.62   # SOURCE3 1
    angle_coeff 88 harmonic 64.22 124.92   # SOURCE4 17 0.7576
    angle_coeff 89 harmonic 67.99 124.90   # SOURCE2 1 0.0000
    angle_coeff 90 harmonic 50.43 121.37   # SOURCE3 8 0.0055
    angle_coeff 91 harmonic 69.84 121.81   # SOURCE3 10 0.3843
    angle_coeff 92 harmonic 64.33 123.42   # SOURCE3 41 2.6057
    angle_coeff 93 harmonic 66.88 117.00   # SOURCE3 1
    angle_coeff 94 harmonic 70.22 117.21   # SOURCE3 2 0.3418
    angle_coeff 95 harmonic 70.22 117.21   # SOURCE3 2 same_as_c2-c2-cc
    angle_coeff 96 harmonic 58.43 122.85   # SOURCE4 23 0.6711
    angle_coeff 97 harmonic 64.50 125.40   # SOURCE4 12 1.8494
    angle_coeff 98 harmonic 70.42 103.30   # SOURCE2 1 0.0000
    angle_coeff 99 harmonic 68.11 122.92   # SOURCE4 12 0.5301
    angle_coeff 100 harmonic 49.75 122.54   # SOURCE4 69 1.1900
    angle_coeff 101 harmonic 50.04 120.94   # SOURCE3 254 1.3150
    angle_coeff 102 harmonic 50.30 119.70   # SOURCE3 1
    angle_coeff 103 harmonic 48.98 126.45   # SOURCE3 3 0.0219
    angle_coeff 104 harmonic 56.28 121.03   # SOURCE3 2 0.0000
angle_coeff 105 harmonic 71.69 122.98   # HF/6-31G* 1
    angle_coeff 106 harmonic 71.29 126.01   # SOURCE3 1 0.0000
    angle_coeff 107 harmonic 70.33 124.55   # SOURCE3 1
    angle_coeff 108 harmonic 67.18 121.52   # SOURCE3 5 1.2656
    angle_coeff 109 harmonic 68.86 123.20   # SOURCE4 15 1.8657
    angle_coeff 110 harmonic 69.83 121.38   # SOURCE3 26 6.9463
    angle_coeff 111 harmonic 69.80 124.99   # SOURCE3 7 0.9929
    angle_coeff 112 harmonic 67.52 124.09   # SOURCE4 6 1.2772
    angle_coeff 113 harmonic 71.92 130.89   # SOURCE3 2 0.0201
    angle_coeff 114 harmonic 71.64 122.07   # SOURCE4 6 1.0883
    angle_coeff 115 harmonic 71.04 121.89   # SOURCE4 33 1.3457
    angle_coeff 116 harmonic 84.73 115.10   # SOURCE3 1
    angle_coeff 117 harmonic 75.19 124.83   # SOURCE3 5 2.1222
    angle_coeff 118 harmonic 77.22 119.76   # SOURCE3 1
    angle_coeff 119 harmonic 73.70 125.97   # SOURCE3 1
    angle_coeff 120 harmonic 62.85 119.84   # SOURCE3 1
    angle_coeff 121 harmonic 62.81 120.01   # SOURCE3 1
    angle_coeff 122 harmonic 61.25 129.37   # SOURCE3 2 0.0000
    angle_coeff 123 harmonic 60.87 125.70   # SOURCE3 3 1.3390
    angle_coeff 124 harmonic 62.79 122.86   # SOURCE4 13 1.7467
    angle_coeff 125 harmonic 62.70 116.52   # SOURCE3 15 3.1001
    angle_coeff 126 harmonic 63.22 125.39   # CORR 27
    angle_coeff 127 harmonic 63.22 125.39   # CORR 27
    angle_coeff 128 harmonic 64.17 123.08   # CORR 1288
    angle_coeff 129 harmonic 64.17 123.08   # CORR 1288
    angle_coeff 130 harmonic 45.30 119.25   # SOURCE4 22 2.1707
    angle_coeff 131 harmonic 45.66 117.30   # SOURCE3 33 1.7453
    angle_coeff 132 harmonic 45.15 120.00   # SOURCE3 1
    angle_coeff 133 harmonic 66.47 123.52   # SOURCE4 141 2.2935
    angle_coeff 134 harmonic 66.79 114.80   # SOURCE4 12 1.8112
    angle_coeff 135 harmonic 64.95 122.54   # SOURCE3 1 0.0000
    angle_coeff 136 harmonic 66.96 122.15   # SOURCE3 4 0.2197
    angle_coeff 137 harmonic 66.96 122.15   # SOURCE3 4 same_as_c3-c2-ne
    angle_coeff 138 harmonic 66.69 118.59   # SOURCE3 6 2.2622
    angle_coeff 139 harmonic 67.88 123.18   # SOURCE4 5 0.9226
    angle_coeff 140 harmonic 68.50 115.04   # SOURCE4 36 2.0110
    angle_coeff 141 harmonic 68.77 112.69   # SOURCE4 50 2.4254
    angle_coeff 142 harmonic 78.98 122.74   # SOURCE3 2 0.0000
    angle_coeff 143 harmonic 62.79 115.44   # SOURCE3 2 0.0115
    angle_coeff 144 harmonic 61.62 119.66   # SOURCE4 45 1.9732
    angle_coeff 145 harmonic 63.51 117.88   # SOURCE3 1
    angle_coeff 146 harmonic 45.28 123.30   # SOURCE3 1
    angle_coeff 147 harmonic 67.93 120.70   # SOURCE3 1
    angle_coeff 148 harmonic 63.87 119.70   # SOURCE3 1
    angle_coeff 149 harmonic 66.57 118.88   # SOURCE3 1
    angle_coeff 150 harmonic 49.19 120.33   # SOURCE4 7 0.0865
    angle_coeff 151 harmonic 49.07 120.76   # SOURCE3 11 1.4155
    angle_coeff 152 harmonic 69.46 122.96   # SOURCE4 10 0.7347
    angle_coeff 153 harmonic 72.80 123.59   # SOURCE4 6 0.0560
    angle_coeff 154 harmonic 49.07 120.76   # SOURCE3 11 1.4155
    angle_coeff 155 harmonic 58.06 123.90   # SOURCE4 11 0.3570
    angle_coeff 156 harmonic 49.38 122.29   # SOURCE4 75 1.4008
    angle_coeff 157 harmonic 49.57 121.19   # SOURCE3 122 0.5318
    angle_coeff 158 harmonic 68.82 123.71   # SOURCE4 6 2.0109
    angle_coeff 159 harmonic 70.64 120.72   # SOURCE4 93 2.2537
    angle_coeff 160 harmonic 68.45 119.65   # SOURCE4 5 0.9817
    angle_coeff 161 harmonic 73.66 123.08   # SOURCE4 5 0.2391
    angle_coeff 162 harmonic 70.90 123.27   # SOURCE4 42 1.8111
    angle_coeff 163 harmonic 70.47 122.52   # SOURCE4 51 2.4680
    angle_coeff 164 harmonic 49.57 121.19   # SOURCE3 122 same_as_ce-c2-ha
    angle_coeff 165 harmonic 47.67 121.33   # SOURCE3 4 0.2462
    angle_coeff 166 harmonic 48.00 119.70   # SOURCE3 1
    angle_coeff 167 harmonic 55.44 114.27   # SOURCE4 10 0.5850
    angle_coeff 168 harmonic 40.76 113.77   # SOURCE4 9 0.6228
    angle_coeff 169 harmonic 40.86 113.20   # SOURCE3 1 0.0000
    angle_coeff 170 harmonic 46.61 115.89   # SOURCE4 15 0.3682
    angle_coeff 171 harmonic 70.67 109.60   # SOURCE2 2 0.6000
    angle_coeff 172 harmonic 51.25 110.00   # SOURCE2 1 0.0000
    angle_coeff 173 harmonic 52.40 120.69   # SOURCE4 13 1.3105
    angle_coeff 174 harmonic 50.48 113.57   # SOURCE4 26 1.0283
    angle_coeff 175 harmonic 51.03 113.22   # SOURCE4 9 0.6345
    angle_coeff 176 harmonic 52.87 119.63   # SOURCE4 10 1.6786
    angle_coeff 177 harmonic 51.55 115.64   # SOURCE4 31 1.0081
    angle_coeff 178 harmonic 49.39 113.38   # SOURCE4 6 0.1240
    angle_coeff 179 harmonic 52.23 113.70   # SOURCE3 13 2.0464
    angle_coeff 180 harmonic 42.85 118.47   # SOURCE3 9 2.5335
    angle_coeff 181 harmonic 52.41 120.16   # SOURCE4 27 1.8999
    angle_coeff 182 harmonic 48.23 126.39   # SOURCE3 4 0.3299
    angle_coeff 183 harmonic 52.76 119.62   # SOURCE4 17 1.3235
    angle_coeff 184 harmonic 51.85 113.93   # SOURCE4 50 0.8394
    angle_coeff 185 harmonic 38.02 117.65   # SOURCE3 349 1.3426
    angle_coeff 186 harmonic 51.83 120.76   # SOURCE3 8 0.6632
    angle_coeff 187 harmonic 52.39 120.54   # SOURCE3 92 1.4571
    angle_coeff 188 harmonic 52.44 113.54   # SOURCE3 1
    angle_coeff 189 harmonic 50.49 113.40   # SOURCE3 4 1.2182
    angle_coeff 190 harmonic 51.18 112.42   # SOURCE3 8 0.6507
    angle_coeff 191 harmonic 52.48 121.18   # SOURCE3 68 0.6824
    angle_coeff 192 harmonic 52.48 121.18   # SOURCE3 68 same_as_ha-c2-ne
    angle_coeff 193 harmonic 51.29 116.68   # SOURCE3 13 2.5734
    angle_coeff 194 harmonic 49.64 112.14   # SOURCE3 2 0.0264
    angle_coeff 195 harmonic 55.30 117.23   # SOURCE3 2 0.0201
    angle_coeff 196 harmonic 52.34 116.18   # SOURCE3 2 0.0000
    angle_coeff 197 harmonic 52.43 112.69   # SOURCE3 13 2.5851
    angle_coeff 198 harmonic 55.74 121.48   # SOURCE3 122 0.4329
    angle_coeff 199 harmonic 52.04 114.31   # SOURCE3 3 0.0000
    angle_coeff 200 harmonic 51.62 117.86   # SOURCE3 1
    angle_coeff 201 harmonic 49.81 120.10   # SOURCE3 2 0.0000
    angle_coeff 202 harmonic 55.05 121.46   # SOURCE3 104 0.7821
    angle_coeff 203 harmonic 55.05 121.46   # SOURCE3 104 same_as_ha-c2-pe
    angle_coeff 204 harmonic 46.19 118.74   # SOURCE3 2 0.0000
    angle_coeff 205 harmonic 42.81 115.30   # SOURCE3 2 0.0000
    angle_coeff 206 harmonic 43.42 115.70   # SOURCE3 2 0.0000
    angle_coeff 207 harmonic 42.58 116.60   # SOURCE3 2 0.0000
    angle_coeff 208 harmonic 43.04 111.74   # SOURCE3 1 0.0000
    angle_coeff 209 harmonic 43.18 116.72   # SOURCE3 7 2.7543
    angle_coeff 210 harmonic 37.81 118.92   # SOURCE3 1
    angle_coeff 211 harmonic 52.42 120.40   # SOURCE3 1
    angle_coeff 212 harmonic 50.35 114.04   # SOURCE3 1
    angle_coeff 213 harmonic 49.73 119.10   # SOURCE3 1
    angle_coeff 214 harmonic 52.03 113.36   # SOURCE3 1
    angle_coeff 215 harmonic 49.64 112.12   # SOURCE3 1
    angle_coeff 216 harmonic 52.33 116.22   # SOURCE3 1
    angle_coeff 217 harmonic 51.65 116.11   # SOURCE3 1
    angle_coeff 218 harmonic 51.40 117.19   # SOURCE3 1
    angle_coeff 219 harmonic 49.92 119.58   # SOURCE3 1
    angle_coeff 220 harmonic 42.66 116.12   # SOURCE3 1
    angle_coeff 221 harmonic 42.79 115.45   # SOURCE3 1
    angle_coeff 222 harmonic 42.31 115.63   # SOURCE3 1
    angle_coeff 223 harmonic 43.38 115.62   # SOURCE3 1
    angle_coeff 224 harmonic 48.42 113.03   # SOURCE3 3 0.3873
    angle_coeff 225 harmonic 60.96 117.94   # SOURCE3 1 0.0000
angle_coeff 226 harmonic 73.61 124.15   # HF/6-31G* 1
    angle_coeff 227 harmonic 77.96 113.82   # SOURCE3 1 0.0000
    angle_coeff 228 harmonic 72.03 113.05   # SOURCE4 6 0.3318
    angle_coeff 229 harmonic 71.71 123.62   # SOURCE3 1 0.0000
    angle_coeff 230 harmonic 72.62 124.27   # SOURCE3 12 2.4114
    angle_coeff 231 harmonic 74.36 122.08   # SOURCE3 1 0.0000
    angle_coeff 232 harmonic 74.32 119.82   # SOURCE4 20 1.2664
    angle_coeff 233 harmonic 62.86 129.77   # SOURCE3 1 0.0000
    angle_coeff 234 harmonic 73.45 118.47   # SOURCE3 1
    angle_coeff 235 harmonic 67.72 113.93   # SOURCE3 1 0.0000
    angle_coeff 236 harmonic 64.40 116.26   # SOURCE4 7 2.4226
    angle_coeff 237 harmonic 73.65 109.33   # SOURCE3 3 3.0187
    angle_coeff 238 harmonic 73.03 123.56   # CORR 128
    angle_coeff 239 harmonic 74.86 118.76   # SOURCE4 5 0.3382
    angle_coeff 240 harmonic 65.41 120.06   # SOURCE4 9 1.3423
    angle_coeff 241 harmonic 73.03 123.56   # CORR 128
    angle_coeff 242 harmonic 74.46 112.72   # SOURCE4 257 1.8176
    angle_coeff 243 harmonic 74.05 117.16   # SOURCE4 7 0.8698
    angle_coeff 244 harmonic 74.32 114.29   # SOURCE4 18 1.0900
    angle_coeff 245 harmonic 67.23 111.55   # SOURCE4 37 1.1778
    angle_coeff 246 harmonic 70.56 125.95   # SOURCE3 2 5.0202
    angle_coeff 247 harmonic 71.55 113.23   # SOURCE3 1 0.0000
    angle_coeff 248 harmonic 74.57 105.42   # SOURCE3 1 0.0000
    angle_coeff 249 harmonic 70.89 125.38   # SOURCE4 10 1.6819
    angle_coeff 250 harmonic 74.20 109.14   # SOURCE4 22 1.5634
    angle_coeff 251 harmonic 69.43 113.90   # SOURCE3 1 0.0000
    angle_coeff 252 harmonic 66.83 111.06   # SOURCE4 9 0.5522
    angle_coeff 253 harmonic 76.03 114.33   # SOURCE3 1 0.0000
    angle_coeff 254 harmonic 80.23 121.69   # SOURCE3 1
    angle_coeff 255 harmonic 76.69 121.23   # SOURCE4 6 0.0958
    angle_coeff 256 harmonic 64.15 127.68   # SOURCE3 2 0.0547
    angle_coeff 257 harmonic 74.21 115.80   # SOURCE3 1 0.0000
    angle_coeff 258 harmonic 100.59 129.80   # SOURCE3 1
    angle_coeff 259 harmonic 97.08 115.54   # SOURCE3 1 0.0000
    angle_coeff 260 harmonic 92.92 121.85   # SOURCE3 1
    angle_coeff 261 harmonic 61.89 120.32   # SOURCE3 1
    angle_coeff 262 harmonic 61.98 119.95   # SOURCE3 1
    angle_coeff 263 harmonic 61.98 119.97   # SOURCE3 1
    angle_coeff 264 harmonic 63.96 110.48   # SOURCE3 1 0.0000
    angle_coeff 265 harmonic 62.65 117.82   # SOURCE3 1
    angle_coeff 266 harmonic 62.47 121.67   # SOURCE3 1
    angle_coeff 267 harmonic 62.77 120.24   # SOURCE3 1 0.0000
    angle_coeff 268 harmonic 67.46 109.03   # SOURCE4 6 0.5435
    angle_coeff 269 harmonic 62.77 111.80   # SOURCE2 3 0.2160
    angle_coeff 270 harmonic 63.03 109.25   # SOURCE3 10 0.5685
    angle_coeff 271 harmonic 62.92 110.37   # SOURCE4 13 2.4747
    angle_coeff 272 harmonic 43.12 103.04   # SOURCE3 5 0.3092
    angle_coeff 273 harmonic 42.34 107.10   # SOURCE4 7 0.2378
    angle_coeff 274 harmonic 42.40 106.50   # SOURCE3 1
    angle_coeff 275 harmonic 66.50 109.00   # SOURCE2 1 0.0000
    angle_coeff 276 harmonic 65.00 111.11   # SOURCE4 12 0.7366
    angle_coeff 277 harmonic 64.29 111.42   # SOURCE4 197 1.2106
    angle_coeff 278 harmonic 64.93 110.95   # SOURCE4 28 1.1203
    angle_coeff 279 harmonic 64.32 114.20   # CORR 13
    angle_coeff 280 harmonic 64.32 114.20   # CORR 13
    angle_coeff 281 harmonic 58.49 110.63   # SOURCE2 3 1.2257
    angle_coeff 282 harmonic 48.35 109.29   # SOURCE4 133 0.5701
    angle_coeff 283 harmonic 48.25 109.75   # SOURCE3 12 0.8436
    angle_coeff 284 harmonic 47.76 112.05   # SOURCE4 17 0.2587
    angle_coeff 285 harmonic 67.03 112.59   # SOURCE4 28 0.9555
    angle_coeff 286 harmonic 66.53 112.04   # SOURCE4 11 0.5701
    angle_coeff 287 harmonic 67.41 112.08   # SOURCE4 18 0.9568
    angle_coeff 288 harmonic 67.25 112.79   # SOURCE4 8 0.9453
    angle_coeff 289 harmonic 69.49 109.14   # SOURCE4 39 0.6500
    angle_coeff 290 harmonic 69.27 108.88   # SOURCE4 31 0.9597
    angle_coeff 291 harmonic 63.93 112.08   # SOURCE4 153 0.7742
    angle_coeff 292 harmonic 63.53 111.44   # SOURCE4 2891 1.7167
    angle_coeff 293 harmonic 63.71 112.45   # SOURCE4 141 1.6755
    angle_coeff 294 harmonic 64.24 111.64   # CORR 32
    angle_coeff 295 harmonic 64.24 111.64   # CORR 32
    angle_coeff 296 harmonic 64.05 111.87   # CORR 38
    angle_coeff 297 harmonic 64.05 111.87   # CORR 38
    angle_coeff 298 harmonic 57.71 112.07   # SOURCE4 6 0.9936
    angle_coeff 299 harmonic 63.65 112.62   # SOURCE4 17 1.3287
    angle_coeff 300 harmonic 66.76 101.33   # SOURCE4 58 0.9262
    angle_coeff 301 harmonic 66.52 110.96   # SOURCE4 25 0.2829
    angle_coeff 302 harmonic 47.03 110.46   # SOURCE3 17 1.1525
    angle_coeff 303 harmonic 46.84 111.19   # SOURCE4 17 0.8311
    angle_coeff 304 harmonic 47.03 110.49   # SOURCE3 159 0.7479
    angle_coeff 305 harmonic 46.83 111.45   # SOURCE4 20 0.9004
    angle_coeff 306 harmonic 67.09 108.99   # SOURCE4 10 1.2025
    angle_coeff 307 harmonic 66.47 111.52   # SOURCE4 158 1.4012
    angle_coeff 308 harmonic 66.73 111.38   # SOURCE4 67 1.7559
    angle_coeff 309 harmonic 66.24 113.30   # SOURCE4 27 1.2945
    angle_coeff 310 harmonic 67.10 110.27   # SOURCE4 56 1.8018
    angle_coeff 311 harmonic 68.18 110.21   # SOURCE4 220 1.4197
    angle_coeff 312 harmonic 68.45 108.48   # SOURCE4 204 1.6082
    angle_coeff 313 harmonic 62.57 109.73   # SOURCE4 6 0.1722
    angle_coeff 314 harmonic 63.62 104.97   # SOURCE3 2 2.2248
    angle_coeff 315 harmonic 63.21 110.63   # SOURCE3 507 2.7845
    angle_coeff 316 harmonic 63.25 112.09   # SOURCE4 3859 1.5523
    angle_coeff 317 harmonic 63.58 111.89   # CORR 700
    angle_coeff 318 harmonic 63.58 111.89   # CORR 700
    angle_coeff 319 harmonic 63.70 111.06   # CORR 490
    angle_coeff 320 harmonic 63.70 111.06   # CORR 490
    angle_coeff 321 harmonic 57.85 110.33   # SOURCE3 20 1.1495
    angle_coeff 322 harmonic 63.30 111.82   # SOURCE4 179 2.4814
    angle_coeff 323 harmonic 63.63 109.62   # SOURCE3 5 2.0747
    angle_coeff 324 harmonic 66.22 109.41   # SOURCE3 18 1.1878
    angle_coeff 325 harmonic 46.36 110.07   # SOURCE3 457 1.1542
    angle_coeff 326 harmonic 46.02 111.59   # SOURCE3 8 1.1217
    angle_coeff 327 harmonic 46.37 110.05   # SOURCE3 2092 0.6991
    angle_coeff 328 harmonic 46.02 111.74   # SOURCE3 15 1.2365
    angle_coeff 329 harmonic 58.48 110.96   # SOURCE3 2 0.0000
    angle_coeff 330 harmonic 66.64 108.86   # SOURCE4 9 0.8093
    angle_coeff 331 harmonic 66.40 109.16   # SOURCE3 8 1.4079
    angle_coeff 332 harmonic 66.18 110.38   # SOURCE3 69 2.9054
    angle_coeff 333 harmonic 64.45 114.32   # SOURCE4 567 2.4412
    angle_coeff 334 harmonic 65.85 112.13   # SOURCE3 31 2.0700
    angle_coeff 335 harmonic 65.73 112.81   # SOURCE4 595 1.5050
    angle_coeff 336 harmonic 66.39 110.45   # SOURCE4 1514 1.3881
    angle_coeff 337 harmonic 65.21 109.27   # SOURCE4 25 1.1817
    angle_coeff 338 harmonic 68.59 112.97   # SOURCE4 14 1.0277
    angle_coeff 339 harmonic 67.72 109.43   # SOURCE3 48 1.5023
    angle_coeff 340 harmonic 67.78 108.42   # SOURCE3 122 1.6759
    angle_coeff 341 harmonic 76.46 113.19   # SOURCE4 15 0.2974
    angle_coeff 342 harmonic 77.70 112.32   # SOURCE4 106 1.1753
    angle_coeff 343 harmonic 62.16 110.07   # SOURCE4 38 0.8510
    angle_coeff 344 harmonic 62.98 110.00   # SOURCE4 152 1.4278
    angle_coeff 345 harmonic 60.98 113.02   # SOURCE4 80 1.3442
    angle_coeff 346 harmonic 61.10 112.69   # SOURCE3 24 2.1842
    angle_coeff 347 harmonic 62.81 109.91   # SOURCE4 22 0.9248
    angle_coeff 348 harmonic 63.66 112.26   # SOURCE4 385 1.7047
    angle_coeff 349 harmonic 63.92 112.38   # CORR 69
    angle_coeff 350 harmonic 63.92 112.38   # CORR 69
    angle_coeff 351 harmonic 63.81 112.33   # SOURCE4 51 1.1929
    angle_coeff 352 harmonic 57.85 111.31   # SOURCE4 16 0.8077
    angle_coeff 353 harmonic 63.69 112.10   # SOURCE4 5 2.1117
    angle_coeff 354 harmonic 66.14 111.76   # SOURCE4 449 0.3492
    angle_coeff 355 harmonic 46.78 110.95   # SOURCE3 12 1.1170
    angle_coeff 356 harmonic 47.03 109.66   # SOURCE4 29 1.2184
    angle_coeff 357 harmonic 46.96 110.15   # SOURCE3 47 1.2602
    angle_coeff 358 harmonic 46.69 111.44   # SOURCE4 33 0.4691
    angle_coeff 359 harmonic 65.92 112.49   # SOURCE4 22 1.1043
    angle_coeff 360 harmonic 66.18 112.13   # SOURCE4 387 1.2309
    angle_coeff 361 harmonic 64.87 114.54   # SOURCE4 22 2.3986
    angle_coeff 362 harmonic 66.29 112.43   # SOURCE4 201 1.5133
    angle_coeff 363 harmonic 66.27 112.81   # SOURCE4 104 1.5807
    angle_coeff 364 harmonic 68.20 106.51   # SOURCE3 1 0.0000
    angle_coeff 365 harmonic 68.20 106.51   # SOURCE3 1 same_as_ca-c3-nc
    angle_coeff 366 harmonic 66.64 111.41   # SOURCE4 147 1.0074
    angle_coeff 367 harmonic 67.94 110.55   # SOURCE4 348 1.2310
    angle_coeff 368 harmonic 68.19 108.89   # SOURCE4 411 1.0102
    angle_coeff 369 harmonic 77.64 113.41   # SOURCE4 19 1.4444
    angle_coeff 370 harmonic 62.87 111.36   # SOURCE4 15 1.4775
    angle_coeff 371 harmonic 61.90 110.66   # SOURCE4 78 1.4797
    angle_coeff 372 harmonic 62.16 110.80   # SOURCE4 16 0.5396
    angle_coeff 373 harmonic 64.56 112.64   # SOURCE4 11 1.0678
    angle_coeff 374 harmonic 64.14 111.32   # SOURCE4 92 1.8522
    angle_coeff 375 harmonic 63.79 110.53   # SOURCE3 62 1.9636
    angle_coeff 376 harmonic 64.06 111.61   # SOURCE4 151 2.1872
[...]
   46260    3925.3989    294.24276   -704.49953 
   46270    3924.0947    305.45536   -727.19737 
   46280    3922.5815    299.62965    1501.6217 
   46290    3923.6706    303.00003    1648.6921 
   46300    3924.5957    300.19627    138.37903 
   46310    3925.9693    295.70501    326.93036 
   46320    3925.4253    299.60286    286.57761 
   46330    3925.6965    298.86183    -271.1218 
   46340    3927.0342     297.4121    1569.2479 
   46350    3928.3046    299.26519    942.97418 
   46360     3931.551     294.6075   -1155.8857 
   46370    3933.1012    295.85619    1043.9499 
   46380    3932.7219    297.70524    2620.6381 
   46390    3933.2788    300.33363    740.26876 
   46400    3935.2044    303.25303   -593.71699 
   46410    3937.9415    300.45439    258.24719 
   46420    3939.5288    292.18386    1074.6025 
   46430    3938.8726    301.77771   -550.14685 
   46440    3939.3977    301.79423   -734.94551 
   46450    3940.5643     302.8004   -768.53411 
   46460    3942.3095    300.45816   -893.64934 
   46470    3943.8602    298.33283    765.33829 
   46480    3943.4236    299.22834    1163.7267 
   46490    3942.1642    296.99007   -227.90306 
   46500    3942.5682    302.95194   -91.080584 
   46510    3942.9137    296.14584    1723.5393 
   46520    3941.2636    302.31641    950.50704 
   46530    3941.4282     298.5041   -1937.8074 
   46540    3941.4666    300.11696   -1430.5723 
   46550    3941.8365    302.07278    752.65024 
   46560     3942.873    301.47237   -107.08751 
   46570    3943.4482    298.52124   -988.60566 
   46580     3943.003    302.93555    396.72987 
   46590    3942.7664      297.192   -95.121767 
   46600    3944.6383    302.46588    705.93482 
   46610    3948.2354    294.70532    982.49545 
   46620    3951.9211    291.54081   -35.348013 
   46630    3953.8389    298.49855   -1690.3875 
   46640     3955.473    295.57548   -85.597105 
   46650    3956.9089    304.23685    1847.3063 
   46660    3958.9376     298.5974   -1363.0233 
   46670    3961.2503    299.23398   -1777.2177 
   46680    3963.0026    299.11404      1097.81 
   46690    3964.3055     297.9205    609.34389 
   46700    3966.4977    289.50565    -1327.661 
   46710    3968.3022    298.48869    452.58702 
   46720     3970.264      297.699   -17.555262 
   46730    3972.2554     299.0629   -795.23685 
   46740    3974.8402    298.21138    971.05249 
   46750     3976.514    296.18756    1195.2675 
   46760    3977.2205    300.76043   -727.91351 
   46770    3978.7192    301.29569   -355.00414 
   46780    3980.0942    298.83962    1816.6178 
   46790    3980.9987    300.27113    67.626992 
   46800    3982.2273    303.12396   -1873.9774 
   46810    3983.6097       302.43    698.38355 
   46820    3984.2499    302.79788    621.68062 
   46830    3985.2247    299.33586   -985.39868 
   46840     3985.402    305.08488    766.30444 
   46850    3985.8873    302.87258    449.45517 
   46860    3985.9163    296.86981   -1296.4957 
   46870     3985.676    302.21582   -351.75342 
   46880    3986.6635    289.77082    436.54718 
   46890    3986.4133    299.94926   -1036.7301 
   46900    3986.4192    295.28027   -1971.1692 
   46910    3985.6881    296.90352    345.78806 
   46920    3985.8104    305.06744     1739.177 
   46930    3987.0476    298.43833   -1081.1707 
   46940    3986.9667    300.13277   -1.2648118 
   46950    3985.4823    302.12838    1813.6907 
   46960    3984.9036    301.30041    76.585148 
   46970    3984.0306    308.49537   -246.24002 
   46980    3984.1574    299.62732    419.27766 
   46990     3984.499    301.26991   -570.85337 
   47000    3983.3786    303.73067   -2361.6964 
   47010    3981.9311     292.5957   -287.67316 
   47020    3981.5869    302.02849    1142.9936 
   47030    3982.1235    296.95206   -1571.7876 
   47040    3982.0297     298.1184   -330.38688 
   47050    3981.2749    298.38894    2631.9245 
   47060    3979.6923    296.20088    624.21473 
   47070    3981.2668    303.98248   -1128.9878 
   47080    3983.4912    301.62526     975.3134 
   47090    3984.9565    297.02113   -334.43009 
   47100    3983.9264    303.15112   -1407.4082 
   47110    3982.3594    306.78933   -297.10627 
   47120    3981.8663    308.09816    82.578168 
   47130    3982.9792    299.86755    -1101.052 
   47140    3983.5005    294.04192   -556.94766 
   47150    3981.4982    299.55351    2307.3428 
   47160    3978.6444    301.01776     3.480298 
   47170    3977.0899    304.55997   -1551.0382 
   47180    3978.9402    296.39122    511.04788 
   47190    3980.2868     298.8365    948.68709 
   47200    3979.5104    303.18559   -1388.4163 
   47210    3976.5863     305.7272   -1207.0351 
   47220    3975.0543    298.15306    183.45666 
   47230    3974.7456    306.11838    543.11465 
   47240    3975.9468    299.85187   -569.51086 
   47250    3974.7383    301.05874    108.98806 
   47260    3971.3558    300.64019     654.1251 
   47270     3969.632    300.47521   -788.44569 
   47280    3968.6408    303.21687    696.18758 
   47290    3969.1126    304.23155    1556.5956 
   47300    3968.7582    292.40499    -1865.334 
   47310    3965.8613     297.7988   -1061.1378 
   47320     3963.921    302.13663    1686.4716 
   47330    3962.4692    305.24213     21.28042 
   47340    3961.1341    303.98666   -2062.2538 
   47350    3960.1802    299.09475   -865.48245 
   47360    3959.0075     303.0364    637.03772 
   47370    3957.2908    302.80065   -736.67444 
   47380    3955.4866    299.14622   -335.04811 
   47390     3955.364    301.43413    1581.6579 
   47400    3955.3147    293.99761   -1179.8782 
   47410    3953.7936    300.24871    115.23225 
   47420    3952.7322    296.70579    2421.5292 
   47430    3951.9314     295.2772   -1436.7311 
   47440    3951.8818    295.79448   -2664.7941 
   47450    3950.0771    300.76523    1016.0845 
   47460    3948.8576    300.20953    1205.4687 
   47470    3949.4623    300.23473   -1590.5072 
   47480    3949.7715    296.03147   -738.22227 
   47490     3950.785    298.14505    2062.1707 
   47500    3950.8668    295.31399     1541.295 
   47510    3951.0745    295.03373    398.84921 
   47520    3951.6741    305.32166     1772.812 
   47530    3953.2535    297.96018   -276.94359 
   47540    3953.2084    300.91861   -1000.8022 
   47550    3952.7636    298.75358    1589.8018 
   47560    3951.2933    301.09311   -528.75492 
   47570    3950.4178    303.17404   -2694.4785 
   47580    3950.2776    299.20349   -340.35559 
   47590    3950.4231     305.4262    2395.8795 
   47600    3950.7517    303.29419    233.41696 
   47610    3949.7667    301.32655   -970.97585 
   47620    3948.4894    301.17912    1595.8003 
   47630    3947.0726    302.80704    1719.1158 
   47640    3947.1887     298.3981   -720.74492 
   47650    3946.7255      301.636   -222.68074 
   47660    3946.1066    301.03155   -746.13878 
   47670    3944.7576    303.86187   -2121.5305 
   47680    3944.1761    298.49153    320.96553 
   47690    3943.5471    302.73509    1516.1672 
   47700    3942.3718    300.55888   -1219.2847 
   47710     3942.883    293.73386   -245.01363 
   47720      3943.03    302.91899    3410.1994 
   47730    3941.2258    298.46474    2031.7652 
   47740    3940.0711    303.42899   -1312.7843 
   47750    3939.7588    299.33747    110.60866 
   47760    3941.8576    297.47817    1445.3305 
   47770    3944.3182    295.75901    -1625.434 
   47780    3944.8176    301.82974   -989.97726 
   47790    3944.2529    298.33558   -381.10614 
   47800    3944.3748    300.70856   -814.36034 
   47810     3947.212    297.45451     928.3095 
   47820    3951.0621    291.04353     2694.733 
   47830    3952.5689    295.24892    985.50426 
   47840    3951.6143    302.54256   -795.36958 
   47850    3951.7253    303.86849    1491.2287 
   47860    3953.9205    301.82231    1933.7396 
   47870    3957.9662    297.64006   -2603.4304 
   47880      3960.89    293.37558    -3254.565 
   47890    3960.7331    298.36262    227.22872 
   47900    3959.4348    303.02004   -729.66963 
   47910    3960.0574    301.37125    -1128.579 
   47920    3962.5745    299.25595    757.68236 
   47930    3964.2672    296.92904    560.19183 
   47940    3963.0003    303.85567    660.74012 
   47950     3961.464    301.01475    1544.6494 
   47960    3961.5875    305.68657    512.16478 
   47970    3963.2768    299.75292   -2371.4891 
   47980    3964.2328    294.72427   -2297.9314 
   47990    3963.0692     300.4231     1090.617 
   48000    3961.0731    299.76642   -1157.0563 
   48010    3960.6159    301.21761   -3347.3862 
   48020    3960.8071     305.4163    556.00813 
   48030    3959.9435    293.94533    1218.6089 
   48040    3957.5231    306.39028   -789.85399 
   48050    3955.3399    303.34732   -239.11263 
   48060    3953.9225    301.32101   -546.44518 
   48070    3952.9434    299.53557   -651.68017 
   48080    3952.5472    292.22346   -833.51558 
   48090    3950.2881    298.99036   -624.49808 
   48100    3947.3456    299.76205     -1260.52 
   48110    3946.0384    301.44389     -2015.66 
   48120    3945.0653    303.32468    1051.2058 
   48130    3946.1095    299.63484    1245.3038 
   48140    3945.4049    299.13988   -1802.6938 
   48150    3943.5447    306.92767    -469.5732 
   48160    3944.1767    299.58997    1587.0809 
   48170    3943.9744    306.12877   -150.88147 
   48180     3943.764    302.02201   -1322.5713 
   48190    3942.5129    302.80748   -850.89439 
   48200    3941.0974    297.18833   -619.23313 
   48210      3940.36    298.15694   -309.89334 
   48220    3940.9417     294.3926    582.91003 
   48230     3940.625    295.68086    1220.5792 
   48240    3939.9765    295.75756   -524.37095 
   48250    3939.5011    298.55837    694.54458 
   48260    3941.1126    301.78274    2424.3579 
   48270    3943.3376    298.65491   -246.89216 
   48280     3943.985    297.26802   -1162.4801 
   48290     3944.236     297.2655    980.26639 
   48300    3945.4044    305.18403    2076.0637 
   48310    3947.1648     299.2892   -572.80716 
   48320    3948.6844    305.49986    -455.5789 
   48330    3948.9664    302.35491    276.23629 
   48340    3948.9427    302.55567    253.98014 
   48350    3948.5456    304.44581   -232.63835 
   48360    3949.0304    301.83931    266.64009 
   48370    3949.5007    298.59008   -700.61522 
   48380    3949.1252    301.31721   -1118.8369 
   48390    3947.2702    298.90999    1643.7764 
   48400    3945.6238    301.00549    750.85185 
   48410    3944.6418    302.25899   -1018.6135 
   48420    3944.2266    302.31538   -346.44087 
   48430    3943.7904    302.13792    1435.7828 
   48440    3942.3133    298.28718    392.19045 
   48450    3941.8884    295.09761   -1710.7007 
   48460    3941.9459    300.07706   -526.86004 
   48470    3942.5027    295.53958    732.19912 
   48480    3943.0247    302.55271    282.99088 
   48490    3941.8639    300.02143    289.95416 
   48500     3941.224    295.35661    938.18281 
   48510    3941.1954    300.58631    177.30591 
   48520    3941.0975    300.43262     800.6263 
   48530    3940.7782    300.25981    1232.2332 
   48540    3940.7599    304.10736   -478.66097 
   48550    3939.9432    300.91576   -1870.4821 
   48560    3938.8697    302.87147   -557.79063 
   48570    3937.8307     299.0749    1249.7178 
   48580    3937.9304    296.39387   -749.81622 
   48590    3937.3163    299.54151   -1391.0073 
   48600    3935.2275    302.01293    1241.4884 
   48610    3933.5753    300.55971    1015.1292 
   48620    3931.2845    295.60205    74.706705 
   48630    3929.8694    303.34727     1136.944 
   48640    3929.5477    299.79741   -97.062906 
   48650     3927.784    298.55079   -658.99536 
   48660    3926.8877    296.33408    697.41036 
   48670    3926.7116    298.21114   -56.927639 
   48680    3926.8448    302.27272   -1264.1265 
   48690     3927.934    303.24323   -674.33185 
   48700    3928.6641    297.97165    1143.5688 
   48710    3928.6867    303.07706    1074.6114 
   48720    3928.7488    296.69579   -760.65885 
   48730    3927.6064    308.78648    941.32407 
   48740    3927.5238    305.27986     831.9096 
   48750    3927.6741    300.01626   -622.33851 
   48760    3927.9383    305.54161   -60.576086 
   48770    3926.6256    297.92404   -961.50281 
   48780    3927.3449    298.42631     -131.322 
   48790     3926.843    304.30958    6.9454163 
   48800    3926.2733    298.82211   -192.10366 
   48810    3925.0585    301.54172    198.51589 
   48820    3924.5907    300.67415   -438.19469 
   48830    3924.7135    294.64169    909.15306 
   48840    3924.9398    303.59282    707.35855 
   48850    3925.7194    300.04546   -1019.1952 
   48860     3925.365    301.21849    -590.1229 
   48870    3924.7643    297.65261    433.30655 
   48880    3925.2799    301.67339   -187.19563 
   48890    3926.4861    296.14624   -176.70601 
   48900    3925.6522    299.38457    624.37208 
   48910    3925.3846     304.9117   -478.91738 
   48920    3924.9291    301.74899   -654.32371 
   48930    3924.3064    303.61961    270.17688 
   48940    3924.4583    304.01151    975.91029 
   48950    3925.5008    299.29058   -646.52244 
   48960     3926.146    302.04888   -330.63392 
   48970    3925.7451    294.20403    932.26603 
   48980    3925.7106    295.35094    109.75482 
   48990    3926.4488    298.04348    105.26329 
   49000    3926.6436    301.31393   -74.513751 
   49010    3927.1418    294.60152    96.137477 
   49020    3927.2096    291.07832    295.67861 
   49030    3926.4785    302.40368    277.52977 
   49040     3926.778    300.18696   -571.29598 
   49050    3927.3401    296.92885   -835.41834 
   49060    3927.9707    297.55633    644.73094 
   49070    3929.3062    294.88271    153.79698 
   49080    3930.7309    301.97814   -307.46997 
   49090    3931.6916    304.94696   -270.49525 
   49100    3932.7334    300.60235   -184.09136 
   49110    3933.8668    305.12872    581.69587 
   49120    3935.9067    294.83058    501.75262 
   49130    3936.7545    298.21254   -79.806364 
   49140    3936.5724    293.41094   -772.84264 
   49150    3935.8553    305.61257    261.84393 
   49160    3936.6856    303.07123   -317.23431 
   49170     3937.177    298.44514   -935.46028 
   49180    3937.7705    294.27471   -671.41158 
   49190    3936.2267    297.81598   -335.26585 
   49200    3934.3874    306.38091    276.66464 
   49210    3933.1908    310.41779   -368.81404 
   49220    3933.2269    298.01697   -191.23487 
   49230    3932.4367    299.35128     91.92347 
   49240    3931.4372    302.78238    237.73608 
   49250    3929.5998    304.87409   -34.565374 
   49260     3927.936    297.41296   -337.25796 
   49270     3925.603    303.04963   -601.93828 
   49280    3924.7067    302.62035   -1094.9873 
   49290    3924.7164    296.10986   -369.13072 
   49300    3924.0391    300.23499    107.81392 
   49310    3922.0887    299.83739   -723.02399 
   49320    3919.7592    308.96227   -231.70711 
   49330    3919.7522    302.82235    1381.3543 
   49340    3921.4558     302.0309    918.63888 
   49350    3922.0473     299.5624   -296.08566 
   49360    3920.4223    301.51757    341.45534 
   49370    3917.3888    307.14848    -159.9635 
   49380    3916.0924    304.79049   -786.38561 
   49390    3917.0495    294.55989   -636.54837 
   49400    3917.6187    298.62424   -82.610593 
   49410    3917.0848    297.62073   -659.14949 
   49420     3915.215    305.70074   -278.18086 
   49430    3912.6544    305.05843    2075.2812 
   49440    3911.2929     302.0119    669.13627 
   49450    3910.6827    302.58053   -355.87745 
   49460    3909.4857    297.25886     176.7963 
   49470    3908.1435    299.05368    274.41666 
   49480    3905.3761    303.33827   -978.46392 
   49490    3903.9073    305.43183   -1321.7021 
   49500     3903.694     301.3824     181.1733 
   49510     3902.587    295.87866   -26.391667 
   49520    3902.0774    301.23407   -426.26532 
   49530    3901.0457    295.19258    939.38526 
   49540    3900.2259    300.67172    805.25727 
   49550    3899.9484    302.71194   -654.47059 
   49560    3900.3834    292.78152   -40.901158 
   49570    3899.8813     294.6133     61.49359 
   49580     3898.871    299.88088   -1443.4013 
   49590    3897.3234    300.41206   -1719.0129 
   49600    3896.6207    300.40033    166.75419 
   49610     3897.763    297.09362    313.99331 
   49620    3898.4797    297.54295    -1281.114 
   49630    3897.8591    300.72424    229.38218 
   49640    3898.7174     292.6885    1526.5876 
   49650    3897.5518    303.85404    343.15521 
   49660    3898.1394    298.83488    460.60791 
   49670    3898.7495    299.95019    1333.2133 
   49680    3900.1387     299.6535    -51.25399 
   49690    3901.8214    295.01369   -375.38006 
   49700    3902.0571     296.2121    548.73141 
   49710    3900.9331    305.41994   -127.81457 
   49720    3901.1661    304.68063   -1209.3758 
   49730    3902.9027    305.33868    988.32164 
   49740    3903.3975    301.33109    1198.6704 
   49750    3902.7664    298.82275    59.081773 
   49760    3900.6455    305.43669    415.92934 
   49770    3899.2957    298.29065    572.54332 
   49780     3898.163    300.74447    519.77727 
   49790     3897.413    301.54195   -519.70778 
   49800    3896.8691    296.88407    111.06162 
   49810    3894.4234    299.08508   -517.43639 
   49820    3893.2833    299.54575    24.963499 
   49830    3893.7271    299.40806    612.64477 
   49840    3894.6832    302.76689      728.987 
   49850    3894.2691    301.63321    374.78508 
   49860    3893.4468    297.75235     752.4027 
   49870    3893.0351    299.53216    1837.2968 
   49880    3894.2332    300.20829    423.31764 
   49890      3896.27    301.51242   -411.53913 
   49900    3897.3933    297.85438    347.85723 
   49910    3898.5256    302.74917    722.39217 
   49920    3899.5075    296.48245   -786.90889 
   49930    3900.7665    297.49222   -401.03436 
   49940    3903.1776    293.39052    822.12718 
   49950    3905.0234    292.25737    -604.2512 
   49960    3904.7105    302.57935    200.57533 
   49970     3904.084    302.39341    670.88749 
   49980    3905.0226    302.71299   -350.91453 
   49990    3907.1237    303.79014   -531.25182 
   50000    3908.8954    297.88465    671.07465 
Loop time of 798.202 on 1 procs for 50000 steps with 2560 atoms

Performance: 5.412 ns/day, 4.434 hours/ns, 62.641 timesteps/s
99.2% CPU use with 1 MPI tasks x no OpenMP threads

MPI task timing breakdown:
Section |  min time  |  avg time  |  max time  |%varavg| %total
---------------------------------------------------------------
Pair    | 652.41     | 652.41     | 652.41     |   0.0 | 81.74
Bond    | 46.217     | 46.217     | 46.217     |   0.0 |  5.79
Kspace  | 57.031     | 57.031     | 57.031     |   0.0 |  7.14
Neigh   | 21.283     | 21.283     | 21.283     |   0.0 |  2.67
Comm    | 2.9478     | 2.9478     | 2.9478     |   0.0 |  0.37
Output  | 4.0979     | 4.0979     | 4.0979     |   0.0 |  0.51
Modify  | 12.972     | 12.972     | 12.972     |   0.0 |  1.63
Other   |            | 1.242      |            |       |  0.16

Nlocal:    2560 ave 2560 max 2560 min
Histogram: 1 0 0 0 0 0 0 0 0 0
Nghost:    11649 ave 11649 max 11649 min
Histogram: 1 0 0 0 0 0 0 0 0 0
Neighs:    785884 ave 785884 max 785884 min
Histogram: 1 0 0 0 0 0 0 0 0 0

Total # of neighbors = 785884
Ave neighs/atom = 306.986
Ave special neighs/atom = 9.1
Neighbor list builds = 975
Dangerous builds = 0
#  ---- (end of examples) ----

write_data bpy-128_md.lmp
PPPM initialization ...
  using 12-bit tables for long-range coulomb (src/kspace.cpp:323)
  G vector (1/distance) = 0.199694
  grid = 8 8 8
  stencil order = 5
  estimated absolute RMS force accuracy = 0.015528
  estimated relative force accuracy = 4.6762e-05
  using double precision FFTW3
  3d grid and FFT values/proc = 2197 512
Total wall time: 0:13:18
