LAMMPS Description

2560  atoms
2688  bonds
4096  angles
5632  dihedrals
512  impropers

71  atom types
807  bond types
4248  angle types
641  dihedral types
38  improper types

0.0    47.00 xlo xhi
0.0    47.07 ylo yhi
0.0    47.00 zlo zhi

Masses

1 12.01  # c
2 12.01  # c1
3 12.01  # c2
4 12.01  # c3
5 12.01  # ca
6 12.01  # cp
7 12.01  # cq
8 12.01  # cc
9 12.01  # cd
10 12.01  # ce
11 12.01  # cf
12 12.01  # cg
13 12.01  # ch
14 12.01  # cx
15 12.01  # cy
16 12.01  # cu
17 12.01  # cv
18 12.01  # cz
19 1.008  # h1
20 1.008  # h2
21 1.008  # h3
22 1.008  # h4
23 1.008  # h5
24 1.008  # ha
25 1.008  # hc
26 1.008  # hn
27 1.008  # ho
28 1.008  # hp
29 1.008  # hs
30 1.008  # hw
31 1.008  # hx
32 19.00  # f
33 35.45  # cl
34 79.90  # br
35 126.9  # i
36 14.01  # n
37 14.01  # n1
38 14.01  # n2
39 14.01  # n3
40 14.01  # n4
41 14.01  # na
42 14.01  # nb
43 14.01  # nc
44 14.01  # nd
45 14.01  # ne
46 14.01  # nf
47 14.01  # nh
48 14.01  # no
49 16.00  # o
50 16.00  # oh
51 16.00  # os
52 16.00  # ow
53 30.97  # p2
54 30.97  # p3
55 30.97  # p4
56 30.97  # p5
57 30.97  # pb
58 30.97  # pc
59 30.97  # pd
60 30.97  # pe
61 30.97  # pf
62 30.97  # px
63 30.97  # py
64 32.06  # s
65 32.06  # s2
66 32.06  # s4
67 32.06  # s6
68 32.06  # sh
69 32.06  # ss
70 32.06  # sx
71 32.06  # sy

Atoms

1 1 6 -0.01524 43.855 32.927 42.225
2 1 5 -0.03594 44.440 32.312 43.250
3 1 5 -0.03594 43.418 32.231 41.178
4 1 5 0.02734 44.589 30.991 43.228
5 1 5 0.02734 43.565 30.911 41.155
6 1 42 -0.26470 44.151 30.297 42.181
7 1 6 -0.01524 43.696 34.334 42.249
8 1 5 -0.03594 44.351 35.087 41.366
9 1 5 -0.03594 42.893 34.891 43.152
10 1 5 0.02734 44.200 36.406 41.388
11 1 5 0.02734 42.743 36.211 43.174
12 1 42 -0.26470 43.398 36.961 42.291
13 1 24 0.06456 44.789 32.875 44.087
14 1 24 0.06456 42.949 32.730 40.359
15 1 22 0.08401 45.057 30.491 44.046
16 1 22 0.08401 43.217 30.345 40.320
17 1 24 0.06456 44.992 34.632 40.645
18 1 24 0.06456 42.372 34.282 43.856
19 1 22 0.08401 44.723 37.017 40.685
20 1 22 0.08401 42.101 36.666 43.895
21 2 6 -0.01524 30.620 31.718 17.119
22 2 5 -0.03594 31.898 31.803 17.479
23 2 5 -0.03594 30.014 32.746 16.527
24 2 5 0.02734 32.576 32.922 17.247
25 2 5 0.02734 30.691 33.865 16.294
26 2 42 -0.26470 31.969 33.948 16.655
27 2 6 -0.01524 29.898 30.526 17.366
28 2 5 -0.03594 28.883 30.536 18.229
29 2 5 -0.03594 30.238 29.406 16.733
30 2 5 0.02734 28.206 29.417 18.460
31 2 5 0.02734 29.560 28.287 16.963
32 2 42 -0.26470 28.547 28.299 17.826
33 2 24 0.06456 32.378 30.976 17.954
34 2 24 0.06456 28.989 32.673 16.240
35 2 22 0.08401 33.602 32.997 17.533
36 2 22 0.08401 30.213 34.693 15.820
37 2 24 0.06456 28.616 31.438 18.733
38 2 24 0.06456 31.052 29.405 16.043
39 2 22 0.08401 27.392 29.416 19.151
40 2 22 0.08401 29.827 27.384 16.460
41 3 6 -0.01524 25.979 31.599 14.732
42 3 5 -0.03594 27.294 31.744 14.589
43 3 5 -0.03594 25.136 32.410 14.096
44 3 5 0.02734 27.771 32.706 13.805
45 3 5 0.02734 25.611 33.371 13.311
46 3 42 -0.26470 26.927 33.515 13.170
47 3 6 -0.01524 25.472 30.574 15.566
48 3 5 -0.03594 24.809 30.895 16.676
49 3 5 -0.03594 25.662 29.299 15.235
50 3 5 0.02734 24.332 29.932 17.458
51 3 5 0.02734 25.186 28.337 16.017
52 3 42 -0.26470 24.524 28.660 17.125
53 3 24 0.06456 27.966 31.092 15.102
54 3 24 0.06456 24.082 32.289 14.213
55 3 22 0.08401 28.824 32.829 13.686
56 3 22 0.08401 24.942 34.025 12.797
57 3 24 0.06456 24.660 31.919 16.935
58 3 24 0.06456 26.196 29.050 14.344
59 3 22 0.08401 23.800 30.181 18.350
60 3 22 0.08401 25.335 27.312 15.758
61 4 6 -0.01524 29.844 7.973 35.468
62 4 5 -0.03594 29.807 9.303 35.455
63 4 5 -0.03594 31.002 7.328 35.344
64 4 5 0.02734 30.934 9.994 35.317
65 4 5 0.02734 32.130 8.017 35.206
66 4 42 -0.26470 32.090 9.347 35.193
67 4 6 -0.01524 28.644 7.238 35.617
68 4 5 -0.03594 28.209 6.475 34.615
69 4 5 -0.03594 27.960 7.314 36.756
70 4 5 0.02734 27.083 5.785 34.755
71 4 5 0.02734 26.834 6.624 36.896
72 4 42 -0.26470 26.402 5.863 35.894
73 4 24 0.06456 28.875 9.815 35.555
74 4 24 0.06456 31.027 6.261 35.355
75 4 22 0.08401 30.911 11.061 35.305
76 4 22 0.08401 33.062 7.507 35.106
77 4 24 0.06456 28.762 6.419 33.704
78 4 24 0.06456 28.314 7.928 37.555
79 4 22 0.08401 26.727 5.172 33.956
80 4 22 0.08401 26.280 6.680 37.807
81 5 6 -0.01524 20.788 38.151 37.384
82 5 5 -0.03594 20.897 37.522 38.552
83 5 5 -0.03594 20.819 37.466 36.242
84 5 5 0.02734 21.037 36.201 38.580
85 5 5 0.02734 20.958 36.145 36.268
86 5 42 -0.26470 21.067 35.519 37.438
87 5 6 -0.01524 20.637 39.558 37.355
88 5 5 -0.03594 21.600 40.314 36.829
89 5 5 -0.03594 19.535 40.114 37.853
90 5 5 0.02734 21.457 41.634 36.801
91 5 5 0.02734 19.393 41.434 37.825
92 5 42 -0.26470 20.356 42.187 37.299
93 5 24 0.06456 20.872 38.076 39.464
94 5 24 0.06456 20.730 37.976 35.308
95 5 22 0.08401 21.126 35.690 39.513
96 5 22 0.08401 20.983 35.590 35.357
97 5 24 0.06456 22.480 39.861 36.431
98 5 24 0.06456 18.768 39.502 38.274
99 5 22 0.08401 22.225 42.247 36.382
100 5 22 0.08401 18.512 41.888 38.223
101 6 6 -0.01524 11.454 15.844 40.751
102 6 5 -0.03594 10.463 16.627 40.332
103 6 5 -0.03594 11.394 15.260 41.946
104 6 5 0.02734 9.406 16.829 41.112
105 6 5 0.02734 10.338 15.460 42.726
106 6 42 -0.26470 9.349 16.243 42.305
107 6 6 -0.01524 12.579 15.629 39.920
108 6 5 -0.03594 13.774 16.084 40.296
109 6 5 -0.03594 12.435 14.974 38.771
110 6 5 0.02734 14.830 15.881 39.516
111 6 5 0.02734 13.491 14.772 37.990
112 6 42 -0.26470 14.683 15.227 38.368
113 6 24 0.06456 10.516 17.094 39.373
114 6 24 0.06456 12.192 14.632 42.277
115 6 22 0.08401 8.608 17.456 40.782
116 6 22 0.08401 10.283 14.994 43.686
117 6 24 0.06456 13.882 16.608 41.219
118 6 24 0.06456 11.475 14.613 38.475
119 6 22 0.08401 15.790 16.243 39.811
120 6 22 0.08401 13.384 14.248 37.067
121 7 6 -0.01524 42.781 11.218 29.661
122 7 5 -0.03594 43.429 10.473 30.553
123 7 5 -0.03594 43.173 11.245 28.389
124 7 5 0.02734 44.476 9.748 30.171
125 7 5 0.02734 44.218 10.520 28.006
126 7 42 -0.26470 44.865 9.775 28.899
127 7 6 -0.01524 41.666 11.990 30.068
128 7 5 -0.03594 41.733 13.319 30.027
129 7 5 -0.03594 40.560 11.380 30.488
130 7 5 0.02734 40.686 14.043 30.408
131 7 5 0.02734 39.513 12.103 30.869
132 7 42 -0.26470 39.582 13.431 30.827
133 7 24 0.06456 43.111 10.456 31.572
134 7 24 0.06456 42.649 11.844 27.678
135 7 22 0.08401 45.000 9.148 30.881
136 7 22 0.08401 44.538 10.535 26.987
137 7 24 0.06456 42.623 13.802 29.689
138 7 24 0.06456 40.513 10.314 30.519
139 7 22 0.08401 40.732 15.109 30.379
140 7 22 0.08401 38.622 11.621 31.207
141 8 6 -0.01524 43.108 1.335 8.243
142 8 5 -0.03594 41.958 0.867 7.765
143 8 5 -0.03594 44.107 1.644 7.420
144 8 5 0.02734 41.805 0.706 6.454
145 8 5 0.02734 43.956 1.484 6.110
146 8 42 -0.26470 42.806 1.016 5.633
147 8 6 -0.01524 43.269 1.507 9.639
148 8 5 -0.03594 44.155 0.762 10.298
149 8 5 -0.03594 42.535 2.413 10.281
150 8 5 0.02734 44.306 0.924 11.607
151 8 5 0.02734 42.686 2.575 11.591
152 8 42 -0.26470 43.572 1.829 12.247
153 8 24 0.06456 41.160 0.620 8.429
154 8 24 0.06456 45.028 2.020 7.810
155 8 22 0.08401 40.886 0.331 6.063
156 8 22 0.08401 44.753 1.730 5.444
157 8 24 0.06456 44.740 0.038 9.776
158 8 24 0.06456 41.827 3.007 9.747
159 8 22 0.08401 45.014 0.330 12.143
160 8 22 0.08401 42.102 3.299 12.113
161 9 6 -0.01524 1.917 42.313 41.332
162 9 5 -0.03594 3.218 42.561 41.453
163 9 5 -0.03594 1.044 42.858 42.177
164 9 5 0.02734 3.652 43.358 42.425
165 9 5 0.02734 1.475 43.655 43.148
166 9 42 -0.26470 2.777 43.901 43.267
167 9 6 -0.01524 1.456 41.465 40.297
168 9 5 -0.03594 0.893 40.297 40.603
169 9 5 -0.03594 1.588 41.841 39.028
170 9 5 0.02734 0.460 39.501 39.631
171 9 5 0.02734 1.155 41.046 38.056
172 9 42 -0.26470 0.594 39.880 38.364
173 9 24 0.06456 3.914 42.120 40.773
174 9 24 0.06456 -0.000 42.656 42.076
175 9 22 0.08401 4.694 43.560 42.527
176 9 22 0.08401 0.781 44.096 43.829
177 9 24 0.06456 0.790 40.001 41.623
178 9 24 0.06456 2.040 42.778 38.790
179 9 22 0.08401 0.009 38.563 39.868
180 9 22 0.08401 1.258 41.340 37.035
181 10 6 -0.01524 27.332 10.293 43.837
182 10 5 -0.03594 27.004 11.413 43.198
183 10 5 -0.03594 28.478 10.210 44.509
184 10 5 0.02734 27.826 12.457 43.230
185 10 5 0.02734 29.301 11.252 44.543
186 10 42 -0.26470 28.970 12.371 43.904
187 10 6 -0.01524 26.456 9.182 43.802
188 10 5 -0.03594 26.834 8.063 43.187
189 10 5 -0.03594 25.263 9.265 44.385
190 10 5 0.02734 26.012 7.020 43.155
191 10 5 0.02734 24.440 8.222 44.354
192 10 42 -0.26470 24.820 7.105 43.738
193 10 24 0.06456 26.084 11.475 42.660
194 10 24 0.06456 28.737 9.309 45.020
195 10 22 0.08401 27.569 13.359 42.720
196 10 22 0.08401 30.221 11.193 45.081
197 10 24 0.06456 27.792 8.004 42.722
198 10 24 0.06456 24.966 10.165 44.876
199 10 22 0.08401 26.307 6.120 42.663
200 10 22 0.08401 23.481 8.281 44.819
201 11 6 -0.01524 30.169 30.427 26.287
202 11 5 -0.03594 30.117 29.335 27.046
203 11 5 -0.03594 31.205 30.639 25.478
204 11 5 0.02734 31.107 28.449 26.998
205 11 5 0.02734 32.194 29.754 25.427
206 11 42 -0.26470 32.140 28.663 26.188
207 11 6 -0.01524 29.114 31.369 26.339
208 11 5 -0.03594 29.345 32.592 26.815
209 11 5 -0.03594 27.901 31.026 25.911
210 11 5 0.02734 28.355 33.476 26.863
211 11 5 0.02734 26.911 31.911 25.959
212 11 42 -0.26470 27.144 33.131 26.435
213 11 24 0.06456 29.284 29.170 27.694
214 11 24 0.06456 31.241 31.516 24.871
215 11 22 0.08401 31.072 27.572 27.604
216 11 22 0.08401 33.028 29.917 24.781
217 11 24 0.06456 30.319 32.860 27.156
218 11 24 0.06456 27.723 30.045 25.531
219 11 22 0.08401 28.531 34.458 27.244
220 11 22 0.08401 25.936 31.644 25.618
221 12 6 -0.01524 10.601 34.888 6.990
222 12 5 -0.03594 9.602 35.073 7.849
223 12 5 -0.03594 11.785 34.449 7.413
224 12 5 0.02734 9.786 34.818 9.141
225 12 5 0.02734 11.970 34.191 8.703
226 12 42 -0.26470 10.969 34.378 9.561
227 12 6 -0.01524 10.405 35.161 5.615
228 12 5 -0.03594 11.077 36.155 5.036
229 12 5 -0.03594 9.551 34.421 4.912
230 12 5 0.02734 10.892 36.409 3.746
231 12 5 0.02734 9.366 34.675 3.621
232 12 42 -0.26470 10.039 35.669 3.045
233 12 24 0.06456 8.656 35.427 7.504
234 12 24 0.06456 12.583 34.302 6.719
235 12 22 0.08401 8.989 34.964 9.835
236 12 22 0.08401 12.916 33.838 9.050
237 12 24 0.06456 11.760 36.743 5.606
238 12 24 0.06456 9.015 33.626 5.382
239 12 22 0.08401 11.427 37.205 3.275
240 12 22 0.08401 8.683 34.087 3.050
241 13 6 -0.01524 20.558 2.984 18.235
242 13 5 -0.03594 20.074 2.155 19.157
243 13 5 -0.03594 21.638 2.653 17.530
244 13 5 0.02734 20.672 0.989 19.376
245 13 5 0.02734 22.236 1.488 17.746
246 13 42 -0.26470 21.751 0.661 18.669
247 13 6 -0.01524 19.920 4.225 18.002
248 13 5 -0.03594 20.558 5.359 18.288
249 13 5 -0.03594 18.688 4.250 17.499
250 13 5 0.02734 19.959 6.524 18.068
251 13 5 0.02734 18.089 5.415 17.279
252 13 42 -0.26470 18.728 6.546 17.566
253 13 24 0.06456 19.208 2.425 19.720
254 13 24 0.06456 22.022 3.322 16.791
255 13 22 0.08401 20.290 0.319 20.114
256 13 22 0.08401 23.102 1.216 17.184
257 13 24 0.06456 21.546 5.332 18.691
258 13 24 0.06456 18.182 3.338 17.272
259 13 22 0.08401 20.464 7.437 18.296
260 13 22 0.08401 17.101 5.443 16.876
261 14 6 -0.01524 3.709 22.875 37.028
262 14 5 -0.03594 3.423 24.118 37.405
263 14 5 -0.03594 4.964 22.431 37.056
264 14 5 0.02734 4.398 24.925 37.813
265 14 5 0.02734 5.939 23.236 37.465
266 14 42 -0.26470 5.651 24.479 37.841
267 14 6 -0.01524 2.671 22.016 36.594
268 14 5 -0.03594 2.644 21.601 35.328
269 14 5 -0.03594 1.732 21.630 37.454
270 14 5 0.02734 1.669 20.795 34.922
271 14 5 0.02734 0.757 20.824 37.047
272 14 42 -0.26470 0.732 20.411 35.783
273 14 24 0.06456 2.415 24.469 37.379
274 14 24 0.06456 5.188 21.432 36.753
275 14 22 0.08401 4.176 25.924 38.116
276 14 22 0.08401 6.948 22.887 37.491
277 14 24 0.06456 3.400 21.915 34.644
278 14 24 0.06456 1.760 21.966 38.467
279 14 22 0.08401 1.640 20.459 33.909
280 14 22 0.08401 0.000 20.509 37.731
281 15 6 -0.01524 26.275 42.753 11.354
282 15 5 -0.03594 26.989 43.731 11.906
283 15 5 -0.03594 26.433 41.493 11.755
284 15 5 0.02734 27.865 43.449 12.865
285 15 5 0.02734 27.308 41.209 12.713
286 15 42 -0.26470 28.020 42.189 13.263
287 15 6 -0.01524 25.342 43.054 10.334
288 15 5 -0.03594 25.544 42.596 9.099
289 15 5 -0.03594 24.270 43.790 10.617
290 15 5 0.02734 24.666 42.878 8.142
291 15 5 0.02734 23.393 44.072 9.660
292 15 42 -0.26470 23.597 43.614 8.427
293 15 24 0.06456 26.859 44.740 11.580
294 15 24 0.06456 25.857 40.711 11.309
295 15 22 0.08401 28.441 44.229 13.311
296 15 22 0.08401 27.439 40.201 13.040
297 15 24 0.06456 26.405 42.006 8.879
298 15 24 0.06456 24.115 44.154 11.608
299 15 22 0.08401 24.822 42.516 7.150
300 15 22 0.08401 22.531 44.662 9.879
301 16 6 -0.01524 7.505 4.217 28.160
302 16 5 -0.03594 8.806 4.431 28.336
303 16 5 -0.03594 7.069 3.530 27.105
304 16 5 0.02734 9.679 3.955 27.453
305 16 5 0.02734 7.940 3.054 26.223
306 16 42 -0.26470 9.241 3.269 26.401
307 16 6 -0.01524 6.576 4.723 29.100
308 16 5 -0.03594 5.714 5.670 28.733
309 16 5 -0.03594 6.572 4.249 30.344
310 16 5 0.02734 4.842 6.144 29.616
311 16 5 0.02734 5.701 4.723 31.227
312 16 42 -0.26470 4.840 5.668 30.858
313 16 24 0.06456 9.150 4.983 29.182
314 16 24 0.06456 6.024 3.361 26.969
315 16 22 0.08401 10.724 4.123 27.588
316 16 22 0.08401 7.598 2.502 25.375
317 16 24 0.06456 5.723 6.045 27.734
318 16 24 0.06456 7.266 3.491 30.632
319 16 22 0.08401 4.149 6.903 29.330
320 16 22 0.08401 5.691 4.348 32.226
321 17 6 -0.01524 3.160 30.874 35.219
322 17 5 -0.03594 2.666 29.752 34.700
323 17 5 -0.03594 4.476 31.064 35.289
324 17 5 0.02734 3.493 28.814 34.249
325 17 5 0.02734 5.303 30.128 34.837
326 17 42 -0.26470 4.807 29.007 34.319
327 17 6 -0.01524 2.279 31.872 35.699
328 17 5 -0.03594 2.254 32.160 36.999
329 17 5 -0.03594 1.484 32.516 34.847
330 17 5 0.02734 1.428 33.098 37.449
331 17 5 0.02734 0.658 33.453 35.297
332 17 42 -0.26470 0.635 33.739 36.596
333 17 24 0.06456 1.610 29.604 34.647
334 17 24 0.06456 4.866 31.967 35.706
335 17 22 0.08401 3.104 27.912 33.832
336 17 22 0.08401 6.359 30.274 34.890
337 17 24 0.06456 2.894 31.641 37.676
338 17 24 0.06456 1.509 32.280 33.807
339 17 22 0.08401 1.401 33.334 38.490
340 17 22 0.08401 0.017 33.974 34.621
341 18 6 -0.01524 27.394 39.110 26.221
342 18 5 -0.03594 27.150 38.404 25.120
343 18 5 -0.03594 26.917 38.712 27.399
344 18 5 0.02734 26.423 37.293 25.195
345 18 5 0.02734 26.192 37.602 27.476
346 18 42 -0.26470 25.948 36.898 26.374
347 18 6 -0.01524 28.168 40.292 26.140
348 18 5 -0.03594 27.604 41.470 26.405
349 18 5 -0.03594 29.453 40.217 25.801
350 18 5 0.02734 28.332 42.579 26.330
351 18 5 0.02734 30.180 41.327 25.725
352 18 42 -0.26470 29.615 42.501 25.990
353 18 24 0.06456 27.534 38.728 24.178
354 18 24 0.06456 27.117 39.282 28.279
355 18 22 0.08401 26.223 36.723 24.316
356 18 22 0.08401 25.806 37.277 28.417
357 18 24 0.06456 26.574 41.522 26.677
358 18 24 0.06456 29.899 39.271 25.589
359 18 22 0.08401 27.887 43.526 26.540
360 18 22 0.08401 31.211 41.275 25.454
361 19 6 -0.01524 5.823 9.336 13.800
362 19 5 -0.03594 6.865 8.517 13.927
363 19 5 -0.03594 6.008 10.637 13.587
364 19 5 0.02734 8.100 9.002 13.842
365 19 5 0.02734 7.241 11.123 13.500
366 19 42 -0.26470 8.281 10.303 13.628
367 19 6 -0.01524 4.509 8.819 13.890
368 19 5 -0.03594 3.725 9.183 14.904
369 19 5 -0.03594 4.067 7.974 12.962
370 19 5 0.02734 2.491 8.698 14.988
371 19 5 0.02734 2.833 7.489 13.046
372 19 42 -0.26470 2.052 7.854 14.059
373 19 24 0.06456 6.711 7.475 14.099
374 19 24 0.06456 5.168 11.289 13.485
375 19 22 0.08401 8.939 8.352 13.943
376 19 22 0.08401 7.397 12.165 13.329
377 19 24 0.06456 4.086 9.861 15.645
378 19 24 0.06456 4.700 7.686 12.152
379 19 22 0.08401 1.857 8.984 15.798
380 19 22 0.08401 2.471 6.811 12.305
381 20 6 -0.01524 15.897 8.446 42.052
382 20 5 -0.03594 16.721 7.402 42.083
383 20 5 -0.03594 14.611 8.283 41.748
384 20 5 0.02734 16.258 6.186 41.809
385 20 5 0.02734 14.146 7.069 41.475
386 20 42 -0.26470 14.972 6.027 41.506
387 20 6 -0.01524 16.391 9.740 42.345
388 20 5 -0.03594 16.410 10.670 41.391
389 20 5 -0.03594 16.831 10.016 43.570
390 20 5 0.02734 16.873 11.884 41.667
391 20 5 0.02734 17.294 11.230 43.846
392 20 42 -0.26470 17.312 12.158 42.892
393 20 24 0.06456 17.752 7.538 42.327
394 20 24 0.06456 13.954 9.124 41.725
395 20 22 0.08401 16.914 5.345 41.831
396 20 22 0.08401 13.116 6.931 41.231
397 20 24 0.06456 16.056 10.441 40.412
398 20 24 0.06456 16.813 9.266 44.329
399 20 22 0.08401 16.893 12.635 40.908
400 20 22 0.08401 17.648 11.460 44.826
401 21 6 -0.01524 27.763 1.150 41.948
402 21 5 -0.03594 28.479 0.580 42.914
403 21 5 -0.03594 26.516 1.553 42.179
404 21 5 0.02734 27.945 0.411 44.119
405 21 5 0.02734 25.981 1.386 43.383
406 21 42 -0.26470 26.699 0.816 44.348
407 21 6 -0.01524 28.333 1.329 40.664
408 21 5 -0.03594 27.834 0.665 39.622
409 21 5 -0.03594 29.360 2.160 40.509
410 21 5 0.02734 28.369 0.835 38.418
411 21 5 0.02734 29.895 2.330 39.305
412 21 42 -0.26470 29.395 1.666 38.266
413 21 24 0.06456 29.479 0.257 42.723
414 21 24 0.06456 25.946 2.010 41.400
415 21 22 0.08401 28.514 -0.045 44.899
416 21 22 0.08401 24.981 1.707 43.576
417 21 24 0.06456 27.010 0.001 39.754
418 21 24 0.06456 29.755 2.689 41.348
419 21 22 0.08401 27.975 0.306 37.578
420 21 22 0.08401 30.719 2.995 39.172
421 22 6 -0.01524 33.196 22.677 39.027
422 22 5 -0.03594 34.079 21.849 38.474
423 22 5 -0.03594 33.537 23.431 40.070
424 22 5 0.02734 35.312 21.774 38.966
425 22 5 0.02734 34.769 23.358 40.563
426 22 42 -0.26470 35.650 22.529 40.008
427 22 6 -0.01524 31.884 22.757 38.503
428 22 5 -0.03594 30.852 22.352 39.241
429 22 5 -0.03594 31.692 23.236 37.276
430 22 5 0.02734 29.621 22.428 38.749
431 22 5 0.02734 30.461 23.312 36.783
432 22 42 -0.26470 29.432 22.907 37.523
433 22 24 0.06456 33.800 21.246 37.638
434 22 24 0.06456 32.825 24.094 40.510
435 22 22 0.08401 36.025 21.113 38.528
436 22 22 0.08401 35.050 23.960 41.398
437 22 24 0.06456 31.013 21.969 40.224
438 22 24 0.06456 32.523 23.559 36.689
439 22 22 0.08401 28.789 22.104 39.334
440 22 22 0.08401 30.299 23.695 35.800
441 23 6 -0.01524 20.972 12.192 18.694
442 23 5 -0.03594 20.829 11.601 17.510
443 23 5 -0.03594 21.595 11.566 19.691
444 23 5 0.02734 21.310 10.376 17.321
445 23 5 0.02734 22.077 10.343 19.504
446 23 42 -0.26470 21.932 9.754 18.319
447 23 6 -0.01524 20.460 13.496 18.895
448 23 5 -0.03594 19.459 13.687 19.753
449 23 5 -0.03594 20.983 14.520 18.225
450 23 5 0.02734 18.979 14.911 19.941
451 23 5 0.02734 20.503 15.744 18.413
452 23 42 -0.26470 19.504 15.933 19.271
453 23 24 0.06456 20.328 12.106 16.714
454 23 24 0.06456 21.707 12.045 20.639
455 23 22 0.08401 21.199 9.896 16.375
456 23 22 0.08401 22.578 9.835 20.298
457 23 24 0.06456 19.045 12.861 20.286
458 23 24 0.06456 21.785 14.360 17.538
459 23 22 0.08401 18.177 15.072 20.626
460 23 22 0.08401 20.917 16.571 17.880
461 24 6 -0.01524 30.909 39.437 3.835
462 24 5 -0.03594 32.033 39.725 4.487
463 24 5 -0.03594 29.971 40.366 3.662
464 24 5 0.02734 32.221 40.949 4.970
465 24 5 0.02734 30.158 41.591 4.143
466 24 42 -0.26470 31.283 41.876 4.795
467 24 6 -0.01524 30.710 38.134 3.321
468 24 5 -0.03594 29.740 37.369 3.819
469 24 5 -0.03594 31.493 37.684 2.343
470 24 5 0.02734 29.553 36.146 3.336
471 24 5 0.02734 31.305 36.461 1.860
472 24 42 -0.26470 30.336 35.699 2.359
473 24 24 0.06456 32.782 38.976 4.624
474 24 24 0.06456 29.072 40.130 3.138
475 24 22 0.08401 33.120 41.187 5.495
476 24 22 0.08401 29.411 42.341 4.008
477 24 24 0.06456 29.116 37.737 4.603
478 24 24 0.06456 32.268 38.302 1.949
479 24 22 0.08401 28.778 35.527 3.731
480 24 22 0.08401 31.929 36.092 1.076
481 25 6 -0.01524 32.991 24.407 31.980
482 25 5 -0.03594 32.870 25.174 30.900
483 25 5 -0.03594 33.896 24.692 32.914
484 25 5 0.02734 33.659 26.234 30.751
485 25 5 0.02734 34.684 25.751 32.768
486 25 42 -0.26470 34.562 26.516 31.687
487 25 6 -0.01524 32.150 23.279 32.138
488 25 5 -0.03594 32.677 22.056 32.122
489 25 5 -0.03594 30.840 23.451 32.302
490 25 5 0.02734 31.887 20.998 32.270
491 25 5 0.02734 30.051 22.393 32.450
492 25 42 -0.26470 30.579 21.172 32.434
493 25 24 0.06456 32.143 24.941 30.153
494 25 24 0.06456 33.987 24.073 33.779
495 25 22 0.08401 33.568 26.853 29.887
496 25 22 0.08401 35.412 25.986 33.513
497 25 24 0.06456 33.727 21.926 31.990
498 25 24 0.06456 30.425 24.434 32.313
499 25 22 0.08401 32.302 20.014 32.258
500 25 22 0.08401 28.999 22.522 32.582
501 26 6 -0.01524 21.789 29.518 4.402
502 26 5 -0.03594 21.883 28.853 5.551
503 26 5 -0.03594 21.108 29.006 3.379
504 26 5 0.02734 21.293 27.668 5.678
505 26 5 0.02734 20.517 27.824 3.505
506 26 42 -0.26470 20.613 27.160 4.654
507 26 6 -0.01524 22.417 30.779 4.267
508 26 5 -0.03594 23.428 30.925 3.412
509 26 5 -0.03594 21.993 31.809 4.996
510 26 5 0.02734 24.016 32.109 3.285
511 26 5 0.02734 22.581 32.993 4.870
512 26 42 -0.26470 23.590 33.136 4.014
513 26 24 0.06456 22.431 29.267 6.368
514 26 24 0.06456 21.036 29.545 2.460
515 26 22 0.08401 21.365 27.129 6.597
516 26 22 0.08401 19.969 27.407 2.689
517 26 24 0.06456 23.763 30.095 2.831
518 26 24 0.06456 21.183 31.685 5.680
519 26 22 0.08401 24.827 32.234 2.602
520 26 22 0.08401 22.247 33.823 5.450
521 27 6 -0.01524 39.158 41.661 6.833
522 27 5 -0.03594 39.210 40.383 6.465
523 27 5 -0.03594 37.999 42.220 7.175
524 27 5 0.02734 38.095 39.658 6.439
525 27 5 0.02734 36.885 41.497 7.150
526 27 42 -0.26470 36.939 40.219 6.782
527 27 6 -0.01524 40.345 42.432 6.861
528 27 5 -0.03594 40.490 43.451 6.015
529 27 5 -0.03594 41.306 42.132 7.731
530 27 5 0.02734 41.603 44.175 6.043
531 27 5 0.02734 42.419 42.856 7.759
532 27 42 -0.26470 42.561 43.873 6.913
533 27 24 0.06456 40.141 39.939 6.191
534 27 24 0.06456 37.964 43.245 7.469
535 27 22 0.08401 38.129 38.633 6.145
536 27 22 0.08401 35.952 41.938 7.424
537 27 24 0.06456 39.715 43.685 5.320
538 27 24 0.06456 41.183 41.314 8.406
539 27 22 0.08401 41.727 44.993 5.368
540 27 22 0.08401 43.195 42.622 8.454
541 28 6 -0.01524 10.653 28.157 7.410
542 28 5 -0.03594 11.705 28.700 6.802
543 28 5 -0.03594 10.755 26.973 8.009
544 28 5 0.02734 12.867 28.055 6.793
545 28 5 0.02734 11.916 26.327 8.002
546 28 42 -0.26470 12.967 26.872 7.393
547 28 6 -0.01524 9.416 28.845 7.419
548 28 5 -0.03594 8.371 28.331 6.772
549 28 5 -0.03594 9.307 29.998 8.075
550 28 5 0.02734 7.209 28.977 6.783
551 28 5 0.02734 8.146 30.643 8.085
552 28 42 -0.26470 7.103 30.128 7.438
553 28 24 0.06456 11.618 29.649 6.322
554 28 24 0.06456 9.908 26.543 8.496
555 28 22 0.08401 13.715 28.484 6.307
556 28 22 0.08401 12.006 25.378 8.481
557 28 24 0.06456 8.465 27.406 6.249
558 28 24 0.06456 10.149 30.403 8.591
559 28 22 0.08401 6.367 28.572 6.266
560 28 22 0.08401 8.050 31.568 8.609
561 29 6 -0.01524 39.180 39.520 10.617
562 29 5 -0.03594 39.670 38.469 9.964
563 29 5 -0.03594 38.019 39.433 11.264
564 29 5 0.02734 38.995 37.323 9.957
565 29 5 0.02734 37.345 38.289 11.259
566 29 42 -0.26470 37.836 37.239 10.605
567 29 6 -0.01524 39.899 40.739 10.625
568 29 5 -0.03594 39.386 41.811 10.023
569 29 5 -0.03594 41.080 40.804 11.234
570 29 5 0.02734 40.060 42.955 10.031
571 29 5 0.02734 41.755 41.949 11.242
572 29 42 -0.26470 41.241 43.018 10.640
573 29 24 0.06456 40.600 38.544 9.446
574 29 24 0.06456 37.632 40.280 11.787
575 29 22 0.08401 39.382 36.476 9.435
576 29 22 0.08401 36.414 38.212 11.776
577 29 24 0.06456 38.438 41.751 9.537
578 29 24 0.06456 41.486 39.941 11.714
579 29 22 0.08401 39.656 43.819 9.550
580 29 22 0.08401 42.703 42.009 11.728
581 30 6 -0.01524 11.290 30.741 41.868
582 30 5 -0.03594 11.719 29.664 41.216
583 30 5 -0.03594 10.035 30.811 42.307
584 30 5 0.02734 10.889 28.649 40.999
585 30 5 0.02734 9.203 29.797 42.092
586 30 42 -0.26470 9.635 28.721 41.438
587 30 6 -0.01524 12.175 31.821 42.100
588 30 5 -0.03594 11.947 32.998 41.517
589 30 5 -0.03594 13.227 31.653 42.897
590 30 5 0.02734 12.777 34.011 41.735
591 30 5 0.02734 14.057 32.667 43.115
592 30 42 -0.26470 13.827 33.841 42.532
593 30 24 0.06456 12.727 29.614 40.866
594 30 24 0.06456 9.696 31.677 42.830
595 30 22 0.08401 11.226 27.782 40.476
596 30 22 0.08401 8.196 29.845 42.440
597 30 24 0.06456 11.101 33.125 40.880
598 30 24 0.06456 13.404 30.708 43.360
599 30 22 0.08401 12.601 34.957 41.272
600 30 22 0.08401 14.904 32.540 43.753
601 31 6 -0.01524 9.977 36.705 22.319
602 31 5 -0.03594 8.968 36.444 23.146
603 31 5 -0.03594 10.805 35.736 21.937
604 31 5 0.02734 8.785 35.206 23.595
605 31 5 0.02734 10.624 34.498 22.382
606 31 42 -0.26470 9.614 34.239 23.210
607 31 6 -0.01524 10.171 38.024 21.842
608 31 5 -0.03594 11.262 38.700 22.197
609 31 5 -0.03594 9.261 38.576 21.043
610 31 5 0.02734 11.444 39.937 21.748
611 31 5 0.02734 9.443 39.813 20.594
612 31 42 -0.26470 10.534 40.487 20.950
613 31 24 0.06456 8.307 37.225 23.451
614 31 24 0.06456 11.613 35.951 21.272
615 31 22 0.08401 7.978 34.989 24.258
616 31 22 0.08401 11.284 33.716 22.079
617 31 24 0.06456 11.987 38.251 22.838
618 31 24 0.06456 8.389 38.029 20.763
619 31 22 0.08401 12.316 40.486 22.029
620 31 22 0.08401 8.718 40.264 19.953
621 32 6 -0.01524 14.384 41.622 13.657
622 32 5 -0.03594 15.372 41.000 14.295
623 32 5 -0.03594 14.608 42.770 13.020
624 32 5 0.02734 16.592 41.527 14.297
625 32 5 0.02734 15.827 43.297 13.020
626 32 42 -0.26470 16.813 42.673 13.659
627 32 6 -0.01524 13.085 41.060 13.655
628 32 5 -0.03594 12.090 41.696 14.272
629 32 5 -0.03594 12.868 39.902 13.037
630 32 5 0.02734 10.871 41.168 14.269
631 32 5 0.02734 11.649 39.374 13.034
632 32 42 -0.26470 10.657 40.011 13.651
633 32 24 0.06456 15.186 40.080 14.806
634 32 24 0.06456 13.812 43.264 12.509
635 32 22 0.08401 17.389 41.033 14.807
636 32 22 0.08401 16.014 44.216 12.510
637 32 24 0.06456 12.271 42.624 14.766
638 32 24 0.06456 13.670 39.398 12.545
639 32 22 0.08401 10.068 41.671 14.762
640 32 22 0.08401 11.467 38.446 12.540
641 33 6 -0.01524 23.005 4.613 27.684
642 33 5 -0.03594 22.779 4.121 26.469
643 33 5 -0.03594 23.345 5.890 27.844
644 33 5 0.02734 22.893 4.910 25.405
645 33 5 0.02734 23.458 6.681 26.782
646 33 42 -0.26470 23.231 6.186 25.568
647 33 6 -0.01524 22.884 3.772 28.816
648 33 5 -0.03594 23.962 3.483 29.542
649 33 5 -0.03594 21.693 3.278 29.145
650 33 5 0.02734 23.847 2.694 30.605
651 33 5 0.02734 21.578 2.489 30.208
652 33 42 -0.26470 22.657 2.202 30.932
653 33 24 0.06456 22.508 3.095 26.346
654 33 24 0.06456 23.525 6.280 28.821
655 33 22 0.08401 22.713 4.522 24.427
656 33 22 0.08401 23.729 7.706 26.902
657 33 24 0.06456 24.914 3.883 29.272
658 33 24 0.06456 20.832 3.513 28.559
659 33 22 0.08401 24.707 2.457 31.192
660 33 22 0.08401 20.626 2.088 30.479
661 34 6 -0.01524 27.806 24.163 28.097
662 34 5 -0.03594 28.635 23.165 28.392
663 34 5 -0.03594 28.016 25.383 28.588
664 34 5 0.02734 29.680 23.386 29.183
665 34 5 0.02734 29.060 25.606 29.378
666 34 42 -0.26470 29.887 24.606 29.671
667 34 6 -0.01524 26.694 23.927 27.254
668 34 5 -0.03594 25.460 24.034 27.745
669 34 5 -0.03594 26.890 23.601 25.979
670 34 5 0.02734 24.416 23.813 26.953
671 34 5 0.02734 25.847 23.380 25.187
672 34 42 -0.26470 24.615 23.487 25.679
673 34 24 0.06456 28.462 22.188 27.996
674 34 24 0.06456 27.348 26.180 28.348
675 34 22 0.08401 30.349 22.590 29.424
676 34 22 0.08401 29.235 26.581 29.775
677 34 24 0.06456 25.310 24.296 28.768
678 34 24 0.06456 27.882 23.516 25.592
679 34 22 0.08401 23.424 23.896 27.339
680 34 22 0.08401 25.995 23.117 24.163
681 35 6 -0.01524 28.691 11.919 11.267
682 35 5 -0.03594 29.364 11.860 10.121
683 35 5 -0.03594 27.363 11.821 11.277
684 35 5 0.02734 28.707 11.702 8.977
685 35 5 0.02734 26.705 11.663 10.134
686 35 42 -0.26470 27.380 11.604 8.989
687 35 6 -0.01524 29.392 12.086 12.486
688 35 5 -0.03594 29.229 13.204 13.192
689 35 5 -0.03594 30.206 11.125 12.916
690 35 5 0.02734 29.887 13.360 14.336
691 35 5 0.02734 30.863 11.282 14.059
692 35 42 -0.26470 30.699 12.399 14.763
693 35 24 0.06456 30.429 11.940 10.119
694 35 24 0.06456 26.828 11.869 12.200
695 35 22 0.08401 29.240 11.654 8.054
696 35 22 0.08401 25.640 11.583 10.134
697 35 24 0.06456 28.575 13.970 12.841
698 35 24 0.06456 30.332 10.232 12.345
699 35 22 0.08401 29.762 14.254 14.907
700 35 22 0.08401 31.518 10.516 14.411
701 36 6 -0.01524 8.443 20.640 32.990
702 36 5 -0.03594 8.124 21.819 33.519
703 36 5 -0.03594 7.520 19.901 32.378
704 36 5 0.02734 6.873 22.262 33.436
705 36 5 0.02734 6.270 20.344 32.293
706 36 42 -0.26470 5.953 21.522 32.823
707 36 6 -0.01524 9.775 20.169 33.078
708 36 5 -0.03594 10.043 19.082 33.799
709 36 5 -0.03594 10.747 20.814 32.438
710 36 5 0.02734 11.293 18.639 33.881
711 36 5 0.02734 11.997 20.372 32.519
712 36 42 -0.26470 12.263 19.286 33.241
713 36 24 0.06456 8.868 22.407 34.009
714 36 24 0.06456 7.782 18.957 31.955
715 36 22 0.08401 6.610 23.206 33.858
716 36 22 0.08401 5.525 19.757 31.804
717 36 24 0.06456 9.259 18.569 34.309
718 36 24 0.06456 10.524 21.685 31.862
719 36 22 0.08401 11.517 17.769 34.458
720 36 22 0.08401 12.782 20.884 32.010
721 37 6 -0.01524 33.392 30.293 12.048
722 37 5 -0.03594 32.526 30.891 11.234
723 37 5 -0.03594 33.799 30.895 13.163
724 37 5 0.02734 32.062 32.100 11.537
725 37 5 0.02734 33.336 32.102 13.468
726 37 42 -0.26470 32.470 32.699 12.653
727 37 6 -0.01524 33.885 29.006 11.725
728 37 5 -0.03594 35.177 28.846 11.442
729 37 5 -0.03594 33.054 27.967 11.707
730 37 5 0.02734 35.639 27.638 11.140
731 37 5 0.02734 33.516 26.759 11.405
732 37 42 -0.26470 34.807 26.601 11.123
733 37 24 0.06456 32.204 30.405 10.340
734 37 24 0.06456 34.494 30.410 13.813
735 37 22 0.08401 31.367 32.586 10.889
736 37 22 0.08401 33.657 32.591 14.361
737 37 24 0.06456 35.838 29.684 11.458
738 37 24 0.06456 32.020 28.102 11.935
739 37 22 0.08401 36.673 27.502 10.911
740 37 22 0.08401 32.856 25.920 11.389
741 38 6 -0.01524 20.925 13.105 31.014
742 38 5 -0.03594 20.176 12.298 31.760
743 38 5 -0.03594 21.950 13.764 31.550
744 38 5 0.02734 20.452 12.148 33.052
745 38 5 0.02734 22.229 13.615 32.840
746 38 42 -0.26470 21.477 12.807 33.585
747 38 6 -0.01524 20.631 13.264 29.638
748 38 5 -0.03594 20.219 14.447 29.184
749 38 5 -0.03594 20.769 12.231 28.811
750 38 5 0.02734 19.943 14.595 27.893
751 38 5 0.02734 20.493 12.380 27.520
752 38 42 -0.26470 20.082 13.562 27.068
753 38 24 0.06456 19.354 11.773 31.325
754 38 24 0.06456 22.549 14.410 30.946
755 38 22 0.08401 19.855 11.503 33.657
756 38 22 0.08401 23.049 14.139 33.277