LAMMPS data file via write_data, version 15 May 2015, timestep = 18500000

2593 atoms
6 atom types
1728 bonds
4 bond types
864 angles
3 angle types
0 dihedrals
3 dihedral types
0 impropers
1 improper types

-1.5038405738068869e+01 1.5038405738068869e+01 xlo xhi
-1.5038405738068869e+01 1.5038405738068869e+01 ylo yhi
-1.5038405738068869e+01 1.5038405738068869e+01 zlo zhi

Masses

1 15.9994
2 1.00794
3 12.0107
4 1.00794
5 12.0107
6 12.0107

Bond Coeffs # harmonic

1 1000 1
2 469 1.4
3 367 1.08
4 469 0.7

Angle Coeffs # harmonic

1 100 109.47
2 35 120
3 63 120

Dihedral Coeffs # opls

1 0 7.25 0 0
2 0 7.25 0 0
3 0 7.25 0 0

Improper Coeffs # cvff

1 2.5 -1 2

Atoms # full

476 159 2 4.0999999999999998e-01 -9.5461504906153749e+00 -1.0089642312713714e+01 -1.4864680465334516e+01 5 -3 2
177 59 2 4.0999999999999998e-01 -1.2187811830817493e+01 -1.2208365176306906e+01 -9.6975660285118082e+00 3 -3 0
175 59 1 -8.1999999999999995e-01 -1.1588783082012768e+01 -1.1496389537889740e+01 -9.3311147102753900e+00 3 -3 0
955 319 1 -8.1999999999999995e-01 -1.3656894479590431e+01 -1.3161537833170854e+01 -1.0123902262125688e+01 0 -9 5
957 319 2 4.0999999999999998e-01 -1.4316945508410159e+01 -1.3282108473730698e+01 -1.0865405223182293e+01 0 -9 5
996 332 2 4.0999999999999998e-01 -1.0906970494212963e+01 -1.2911422462378528e+01 -1.4412554028408261e+01 -1 0 4
1861 621 1 -8.1999999999999995e-01 -1.0501006486927704e+01 -8.9224172822470784e+00 -9.9336403467422443e+00 -5 -6 -2
2422 808 1 -8.1999999999999995e-01 -9.5756423859277398e+00 -1.0889715108535020e+01 -1.3181812689444186e+01 0 -5 9
2423 808 2 4.0999999999999998e-01 -1.0517446008079641e+01 -1.0559073864363647e+01 -1.3120873295066149e+01 0 -5 9
995 332 2 4.0999999999999998e-01 -1.2047254515341045e+01 -1.1760524440216312e+01 -1.4207868897227966e+01 -1 0 4
1862 621 2 4.0999999999999998e-01 -1.0809702597843916e+01 -9.8540368461766228e+00 -9.7417471638010902e+00 -5 -6 -2
1863 621 2 4.0999999999999998e-01 -1.0059430889874083e+01 -8.5434296705563799e+00 -9.1203687625548753e+00 -5 -6 -2
994 332 1 -8.1999999999999995e-01 -1.1886273628786414e+01 -1.2743200676193968e+01 -1.4299868161101717e+01 -1 0 4
176 59 2 4.0999999999999998e-01 -1.1682493491028312e+01 -1.1461502897032348e+01 -8.3361108913614466e+00 3 -3 0
2424 808 2 4.0999999999999998e-01 -9.4156063633545237e+00 -1.1573240104261842e+01 -1.2469623558612888e+01 0 -5 9
1466 489 2 4.0999999999999998e-01 -8.9246049494101420e+00 -1.4368044068102328e+01 -9.6170518291045006e+00 6 -8 2
81 27 2 4.0999999999999998e-01 -6.6682098695555698e+00 -1.0307086210234313e+01 -8.5327377760208183e+00 -4 -10 3
1576 526 1 -8.1999999999999995e-01 -1.2257463450839966e+01 -9.7867973301580609e+00 -1.3570970230436274e+01 -4 -4 2
770 257 2 4.0999999999999998e-01 -1.3730221709723947e+01 -8.8342090612310429e+00 -1.1004664304938906e+01 -1 -5 -2
79 27 1 -8.1999999999999995e-01 -7.5970913913728406e+00 -1.0484987229644730e+01 -8.2078352143406921e+00 -4 -10 3
1633 545 1 -8.1999999999999995e-01 -5.5529525119495950e+00 -7.8516347826137824e+00 -1.0093691461557995e+01 -1 -3 3
1234 412 1 -8.1999999999999995e-01 -6.9134889381025602e+00 -1.0026998633997660e+01 -1.3181708197421457e+01 0 -3 -1
1235 412 2 4.0999999999999998e-01 -7.3260242422994466e+00 -9.1165702239204087e+00 -1.3212790444282483e+01 0 -3 -1
1578 526 2 4.0999999999999998e-01 -1.3043910662680778e+01 -9.5094144144505730e+00 -1.3019072771951024e+01 -4 -4 2
1236 412 2 4.0999999999999998e-01 -7.6336100565656011e+00 -1.0720342230749335e+01 -1.3208754976240112e+01 0 -3 -1
147 49 2 4.0999999999999998e-01 -8.1282910129543140e+00 -1.2660993786286443e+01 -1.0482303765118171e+01 1 -8 -7
145 49 1 -8.1999999999999995e-01 -7.6191068936607955e+00 -1.2444193594132550e+01 -1.1315226640265941e+01 1 -8 -7
2149 717 1 -8.1999999999999995e-01 -7.5790953394354341e+00 -1.4001450258392252e+01 -1.3546559348211151e+01 -2 -11 3
146 49 2 4.0999999999999998e-01 -6.7525443146602413e+00 -1.2008261951247585e+01 -1.1072195359240515e+01 1 -8 -7
2545 849 1 -8.1999999999999995e-01 -1.4722087526499001e+01 -1.1703332716853652e+01 -1.4369952208166380e+01 -2 -3 -2
771 257 2 4.0999999999999998e-01 -1.2734375190839193e+01 -1.0056411410945719e+01 -1.0578963651523786e+01 -1 -5 -2
769 257 1 -8.1999999999999995e-01 -1.3653172811642072e+01 -9.8256664488829024e+00 -1.0899274431431692e+01 -1 -5 -2
956 319 2 4.0999999999999998e-01 -1.3799360963378383e+01 -1.3869749696271075e+01 -9.4324034994796282e+00 0 -9 5
1275 425 2 4.0999999999999998e-01 -8.5911256928549822e+00 -1.3763388328334790e+01 -1.4786998930819570e+01 1 -2 1
293 98 2 4.0999999999999998e-01 -5.3821192067812262e+00 -1.3959746930615321e+01 -1.1078147460385850e+01 6 -5 2
2042 681 2 4.0999999999999998e-01 -5.6986381103457244e+00 -1.1529727411858861e+01 -1.3320018384796542e+01 0 -4 0
1634 545 2 4.0999999999999998e-01 -5.6795006016839480e+00 -8.6043195777717276e+00 -1.0739820298869926e+01 -1 -3 3
2150 717 2 4.0999999999999998e-01 -7.3995698016390978e+00 -1.4930630526140769e+01 -1.3223409323229305e+01 -2 -11 3
2151 717 2 4.0999999999999998e-01 -7.6013147643257639e+00 -1.3375810476271671e+01 -1.2766743678378546e+01 -2 -11 3
497 166 2 4.0999999999999998e-01 -5.6618134524359025e+00 -1.3159897677802563e+01 -7.7616382942034683e+00 2 -8 4
105 35 2 4.0999999999999998e-01 -8.6676799624081333e+00 -1.1745419005237860e+01 -8.7882260200638562e+00 4 -4 2
498 166 2 4.0999999999999998e-01 -6.1592309031500658e+00 -1.4710980273049621e+01 -7.8775201483953508e+00 2 -8 4
1577 526 2 4.0999999999999998e-01 -1.1868103001912182e+01 -8.9844417157685221e+00 -1.4023358565561725e+01 -4 -4 2
103 35 1 -8.1999999999999995e-01 -9.2454364705579017e+00 -1.2467405062890641e+01 -9.1689685425180709e+00 4 -4 2
2043 681 2 4.0999999999999998e-01 -5.9885732686170847e+00 -1.2961657702699188e+01 -1.4049554651488952e+01 0 -4 0
2041 681 1 -8.1999999999999995e-01 -5.2836890549268603e+00 -1.2380278220520616e+01 -1.3643146695653996e+01 0 -4 0
14 5 2 4.0999999999999998e-01 -1.0566444888427380e+01 -8.0224097471153826e+00 -1.1299075394793510e+01 -4 -6 -1
2546 849 2 4.0999999999999998e-01 -1.3798340413682595e+01 -1.1997639831805618e+01 -1.4124787017450949e+01 -2 -3 -2
450 150 2 4.0999999999999998e-01 -1.2939147220171996e+01 -1.4260441043546768e+01 -1.4043479866145343e+01 5 -12 2
778 260 1 -8.1999999999999995e-01 -5.1888947045534266e+00 -1.1322072934934855e+01 -1.0343435412096650e+01 3 -4 -1
104 35 2 4.0999999999999998e-01 -1.0178174529764684e+01 -1.2124248297157187e+01 -9.2797588005691587e+00 4 -4 2
1638 546 2 4.0999999999999998e-01 -8.7927327442621852e+00 -8.4042419887778692e+00 -1.4531138358812926e+01 0 -2 -5
1636 546 1 -8.1999999999999995e-01 -8.5318547321498333e+00 -7.7742501321369488e+00 -1.3799643847052455e+01 0 -2 -5
2017 673 1 -8.1999999999999995e-01 -6.1888350177141422e+00 -2.7480471211207131e+00 -1.4650528868940334e+01 2 -8 1
101 34 2 4.0999999999999998e-01 -5.9438050968012313e+00 -6.5415427186278841e+00 -1.1176814868721326e+01 0 -3 0
100 34 1 -8.1999999999999995e-01 -6.1162400899632630e+00 -5.7193393324169968e+00 -1.1719289853941286e+01 0 -3 0
886 296 1 -8.1999999999999995e-01 -1.4756728539051373e+01 -3.0796171099201484e+00 -1.3734249425304760e+01 -6 -7 -2
174 58 2 4.0999999999999998e-01 -1.0733491120094136e+01 -1.3718947698313144e+00 -1.0193603149455949e+01 -5 -5 -2
2019 673 2 4.0999999999999998e-01 -7.0278059319690627e+00 -2.4951519068249066e+00 -1.4168654256001803e+01 2 -8 1
2320 774 1 -8.1999999999999995e-01 -7.1541426325761526e+00 -7.2141378532053757e-01 -7.5439978814625501e+00 -2 -5 5
983 328 2 4.0999999999999998e-01 -1.2760911583877512e+01 -2.9256823170370971e+00 -9.4417760640710924e+00 1 -9 5
639 213 2 4.0999999999999998e-01 -1.4278559691530312e+01 -4.8153209945516728e+00 -9.3344151796630896e+00 3 -1 -1
1415 472 2 4.0999999999999998e-01 -1.1404437787307597e+01 -5.0805201933079225e+00 -1.3323880988802275e+01 -4 -9 2
1407 469 2 4.0999999999999998e-01 -1.4198266849303909e+01 -5.9167449778407981e+00 -1.3784180253895920e+01 0 -4 8
2467 823 1 -8.1999999999999995e-01 -6.8671315969917774e+00 -6.8667775618369546e+00 -7.9048290430302437e+00 -2 -3 3
888 296 2 4.0999999999999998e-01 -1.4306744883759460e+01 -3.9674479794126967e+00 -1.3830698134720000e+01 -6 -7 -2
2469 823 2 4.0999999999999998e-01 -6.3849076685384709e+00 -5.9998570178144313e+00 -8.0310833411132485e+00 -2 -3 3
1414 472 1 -8.1999999999999995e-01 -1.1047641733304507e+01 -4.1594574623075697e+00 -1.3167767845284356e+01 -4 -9 2
1406 469 2 4.0999999999999998e-01 -1.2969555724697422e+01 -6.1008466558274037e+00 -1.4843937517711995e+01 0 -4 8
1262 421 2 4.0999999999999998e-01 -1.3325602120007582e+01 -2.2238487140886321e-01 -1.3373676249142807e+01 3 -9 6
102 34 2 4.0999999999999998e-01 -5.6352645652666151e+00 -4.9435571208484372e+00 -1.1310809990620745e+01 0 -3 0
453 151 2 4.0999999999999998e-01 -9.3022752572147276e+00 -3.3639299268848912e+00 -1.3041825503454138e+01 -1 -9 4
451 151 1 -8.1999999999999995e-01 -8.6809685069387079e+00 -2.5966185615589232e+00 -1.3200704388257186e+01 -1 -9 4
2127 709 2 4.0999999999999998e-01 -1.3988289862516725e+01 -6.6768039419305136e+00 -1.0546779919767282e+01 2 -4 -1
173 58 2 4.0999999999999998e-01 -1.0213594507843151e+01 -2.9199308580194074e+00 -1.0192299984816117e+01 -5 -5 -2
1857 619 2 4.0999999999999998e-01 -5.7229007547179158e+00 -1.6518557684476800e+00 -7.6895064630428909e+00 -1 -4 0
887 296 2 4.0999999999999998e-01 -1.4070505051106851e+01 -2.3767223038658329e+00 -1.3546986052960767e+01 -6 -7 -2
2108 703 2 4.0999999999999998e-01 -5.6999384777071231e+00 -1.7254904428028137e+00 -1.1987205975804896e+01 -2 -6 2
1349 450 2 4.0999999999999998e-01 -9.3921935620334374e+00 -5.9682899278344035e+00 -1.1478003966998472e+01 0 -8 5
1348 450 1 -8.1999999999999995e-01 -8.8330941586644212e+00 -5.1973852964994958e+00 -1.1172806962735631e+01 0 -8 5
1350 450 2 4.0999999999999998e-01 -7.9059532693379477e+00 -5.2940750747944918e+00 -1.1534873541756184e+01 0 -8 5
735 245 2 4.0999999999999998e-01 -1.1036849095777937e+01 -3.4868930272215604e+00 -1.4699431473592144e+01 5 -3 2
858 286 2 4.0999999999999998e-01 -6.3351698379203132e+00 -5.8496605913348567e+00 -1.3688790778493566e+01 3 -8 -1
951 317 2 4.0999999999999998e-01 -1.4099125757522000e+01 -7.3351023083043323e+00 -8.1946329488200416e+00 -1 -4 -2
15 5 2 4.0999999999999998e-01 -1.1902910224766309e+01 -7.4075371740010416e+00 -1.2007949175864148e+01 -4 -6 -1
2468 823 2 4.0999999999999998e-01 -6.7395525487100976e+00 -7.4401051610320588e+00 -8.7141808469100610e+00 -2 -3 3
857 286 2 4.0999999999999998e-01 -6.1641999847231812e+00 -4.4636393361092175e+00 -1.4535209354239470e+01 3 -8 -1
728 243 2 4.0999999999999998e-01 -9.6156583624943561e+00 -1.3200519058503613e+00 -1.4216009292663454e+01 -3 -3 4
2126 709 2 4.0999999999999998e-01 -1.3837266185158766e+01 -6.5013495255468783e+00 -1.2163293952791937e+01 2 -4 -1
856 286 1 -8.1999999999999995e-01 -6.3224668600895164e+00 -5.4485983207117137e+00 -1.4604770582070620e+01 3 -8 -1
2125 709 1 -8.1999999999999995e-01 -1.3574303639054106e+01 -7.0564352325049615e+00 -1.1374141278707919e+01 2 -4 -1
637 213 1 -8.1999999999999995e-01 -1.4686820559253899e+01 -5.7281945473647280e+00 -9.3384445705662387e+00 3 -1 -1
1405 469 1 -8.1999999999999995e-01 -1.3349379237455075e+01 -5.5151451701391814e+00 -1.4127893404459641e+01 0 -4 8
727 243 1 -8.1999999999999995e-01 -1.0135703017038779e+01 -4.7157679486416981e-01 -1.4314370211795126e+01 -3 -3 4
13 5 1 -8.1999999999999995e-01 -1.0908375699519176e+01 -7.4893784848384488e+00 -1.2073021312880599e+01 -4 -6 -1
1637 546 2 4.0999999999999998e-01 -9.3541322473636566e+00 -7.4365878358252413e+00 -1.3341522468330695e+01 0 -2 -5
172 58 1 -8.1999999999999995e-01 -1.1009980803021516e+01 -2.3259750116286675e+00 -1.0078209629219458e+01 -5 -5 -2
452 151 2 4.0999999999999998e-01 -8.1185198583981339e+00 -2.4491761524255899e+00 -1.2387105254387738e+01 -1 -9 4
879 293 2 4.0999999999999998e-01 -7.6589719043657514e+00 -5.7914779877467559e-01 -1.0465042010054244e+01 4 -7 -1
878 293 2 4.0999999999999998e-01 -7.0840104997499260e+00 -2.0988730532628797e+00 -1.0302055921794238e+01 4 -7 -1
877 293 1 -8.1999999999999995e-01 -7.2343028343553568e+00 -1.3472487708465497e+00 -1.0944321022307449e+01 4 -7 -1
982 328 1 -8.1999999999999995e-01 -1.3468893080149568e+01 -3.1539404239015738e+00 -8.7734260588244215e+00 1 -9 5
1261 421 1 -8.1999999999999995e-01 -1.3065815366725785e+01 -1.1853041425410620e+00 -1.3300678985815782e+01 3 -9 6
1263 421 2 4.0999999999999998e-01 -1.2083149246633315e+01 -1.2785052519875926e+00 -1.3461029017159451e+01 3 -9 6
2007 669 2 4.0999999999999998e-01 -8.0329284532237857e+00 -4.2791248812189497e+00 -9.7507416432861831e+00 4 -7 1
2005 669 1 -8.1999999999999995e-01 -7.2778131937281341e+00 -3.6867249411918319e+00 -9.4698598863311112e+00 4 -7 1
2006 669 2 4.0999999999999998e-01 -6.5270408392333277e+00 -4.2469839248813095e+00 -9.1198855344962801e+00 4 -7 1
1416 472 2 4.0999999999999998e-01 -1.1289460661092527e+01 -3.8603488839580962e+00 -1.2244681192888194e+01 -4 -9 2
984 328 2 4.0999999999999998e-01 -1.4038697222374676e+01 -2.3498629106429707e+00 -8.6036795364745942e+00 1 -9 5
1340 447 2 4.0999999999999998e-01 -1.3469677683191710e+01 -1.0956940065243673e+01 -4.7219388424773214e+00 -2 -5 -5
1339 447 1 -8.1999999999999995e-01 -1.3137379500231750e+01 -1.0483903822925495e+01 -3.9059450167871681e+00 -2 -5 -5
1639 547 1 -8.1999999999999995e-01 -1.0924576165810326e+01 -1.2906676768058309e+01 -1.5272990050839752e+00 -4 -2 1
1307 436 2 4.0999999999999998e-01 -8.3366822802787972e+00 -1.0034532983621737e+01 -1.1626388627060216e+00 0 -6 1
613 205 1 -8.1999999999999995e-01 -7.9781618855569123e+00 -1.3623465937775912e+01 -3.7809678922465189e+00 0 1 7
1308 436 2 4.0999999999999998e-01 -9.5418171116266990e+00 -9.1226978518681374e+00 -1.7814414718423883e+00 0 -6 1
1286 429 2 4.0999999999999998e-01 -1.1362360439653100e+01 -1.0409584344357160e+01 -3.4407378554054464e+00 -1 -4 2
1285 429 1 -8.1999999999999995e-01 -1.0469807539860000e+01 -1.0689497271297828e+01 -3.0871429352500943e+00 -1 -4 2
1341 447 2 4.0999999999999998e-01 -1.3709435329312701e+01 -1.0728134886082675e+01 -3.1229158998097404e+00 -2 -5 -5
1287 429 2 4.0999999999999998e-01 -1.0566796300711921e+01 -1.1543195202182090e+01 -2.5754552223263847e+00 -1 -4 2
1707 569 2 4.0999999999999998e-01 -1.3634895636721096e+01 -1.4068779975926788e+01 -2.0947432675578046e+00 3 0 2
1306 436 1 -8.1999999999999995e-01 -8.8673809386690365e+00 -9.1949307495574288e+00 -1.0466288721016070e+00 0 -6 1
1641 547 2 4.0999999999999998e-01 -1.1728440299973148e+01 -1.3388311711372580e+01 -1.1782122735724609e+00 -4 -2 1
195 65 2 4.0999999999999998e-01 -8.1828491352235986e+00 -1.3881670419524221e+01 -6.9657292990654920e+00 -3 -6 3
2009 670 2 4.0999999999999998e-01 -1.0865771046650377e+01 -8.7962993124948063e+00 -7.0629384873325751e+00 -2 -8 1
1705 569 1 -8.1999999999999995e-01 -1.3316062919039663e+01 -1.3998042873659259e+01 -1.1495590205462971e+00 3 0 2
2474 825 2 4.0999999999999998e-01 -7.0866116454013897e+00 -9.5832111214613178e+00 -4.8979089940371878e+00 8 -6 3
615 205 2 4.0999999999999998e-01 -8.2719084805144654e+00 -1.3468815970556367e+01 -4.7242746450621045e+00 0 1 7
614 205 2 4.0999999999999998e-01 -8.3657144402633818e+00 -1.4483039312850799e+01 -3.4478493955987428e+00 0 1 7
626 209 2 4.0999999999999998e-01 -1.4613226952036490e+01 -8.5613336901677179e+00 -3.2951485648255918e+00 -3 -3 7
1918 640 1 -8.1999999999999995e-01 -1.4226715929309250e+01 -1.0567817245424116e+01 -9.9094806692189685e-01 3 -1 5
2010 670 2 4.0999999999999998e-01 -1.2464307411262890e+01 -9.1245389359645408e+00 -7.1233550237598902e+00 -2 -8 1
2475 825 2 4.0999999999999998e-01 -7.8337165094303023e+00 -1.0921658972295926e+01 -4.3347912415884569e+00 8 -6 3
1646 549 2 4.0999999999999998e-01 -7.9788302430691909e+00 -1.2549058056804302e+01 -8.1307217686734568e-01 0 0 3
1647 549 2 4.0999999999999998e-01 -7.7092098884875657e+00 -1.2639824810246393e+01 -2.4211070935772767e+00 0 0 3
937 313 1 -8.1999999999999995e-01 -6.2668516649763681e+00 -7.9695116922291840e+00 -5.4136649386979112e+00 -3 -7 0
1645 549 1 -8.1999999999999995e-01 -7.4506874956288804e+00 -1.2173892454068859e+01 -1.5748774770053799e+00 0 0 3
2473 825 1 -8.1999999999999995e-01 -7.3444177685501497e+00 -1.0525465709052430e+01 -5.1117397193435945e+00 8 -6 3
55 19 1 -8.1999999999999995e-01 -1.4145451851040884e+01 -1.4794477236285125e+01 -3.7969052242719581e+00 6 -4 4
1695 565 2 4.0999999999999998e-01 -1.2583261692133766e+01 -1.2346383654881004e+01 -6.2658133683173354e+00 -4 1 5
2008 670 1 -8.1999999999999995e-01 -1.1570227641658102e+01 -9.4692466000371116e+00 -6.8372968392814979e+00 -2 -8 1
222 74 2 4.0999999999999998e-01 -1.0764132877474685e+01 -1.3759457146469433e+01 -3.2801662707245658e+00 7 -8 -2
56 19 2 4.0999999999999998e-01 -1.3176181753948191e+01 -1.4700601024412585e+01 -4.0243564755745211e+00 6 -4 4
949 317 1 -8.1999999999999995e-01 -1.3957103614396312e+01 -7.9040587205999415e+00 -7.3846023327206201e+00 -1 -4 -2
1640 547 2 4.0999999999999998e-01 -1.0272869887289236e+01 -1.2762587647777849e+01 -7.8261883246460506e-01 -4 -2 1
1112 371 2 4.0999999999999998e-01 -5.6504368602212072e+00 -1.2302120955642014e+01 -1.8633172070587154e+00 8 -5 -5
1694 565 2 4.0999999999999998e-01 -1.1487053049992596e+01 -1.1174004140776184e+01 -6.5667498931567980e+00 -4 1 5
1693 565 1 -8.1999999999999995e-01 -1.1639606564619056e+01 -1.2161970636620342e+01 -6.5406553845364446e+00 -4 1 5
220 74 1 -8.1999999999999995e-01 -1.0882567384940922e+01 -1.4408344247073979e+01 -4.0317978870468565e+00 7 -8 -2
194 65 2 4.0999999999999998e-01 -9.5495232399781322e+00 -1.3000940542985139e+01 -6.8133261376189616e+00 -3 -6 3
1919 640 2 4.0999999999999998e-01 -1.3260577440536125e+01 -1.0762822509965286e+01 -8.2188991017021173e-01 3 -1 5
938 313 2 4.0999999999999998e-01 -5.5521212257904828e+00 -8.6360701328065090e+00 -5.6255412116227816e+00 -3 -7 0
193 65 1 -8.1999999999999995e-01 -9.0919165523168211e+00 -1.3850296476518638e+01 -6.5502255121180486e+00 -3 -6 3
1264 422 1 -8.1999999999999995e-01 -1.4363923768886190e+01 -1.1543454464214269e+01 -6.2120358484398430e+00 2 -6 -1
80 27 2 4.0999999999999998e-01 -7.5772423124268062e+00 -1.0666705829699897e+01 -7.2246690738133577e+00 -4 -10 3
221 74 2 4.0999999999999998e-01 -1.0598236291505945e+01 -1.3980239259466259e+01 -4.8896517502665073e+00 7 -8 -2
1265 422 2 4.0999999999999998e-01 -1.4574979210175437e+01 -1.0791938631935956e+01 -6.8371045341541006e+00 2 -6 -1
848 283 2 4.0999999999999998e-01 -1.1370455553459218e+01 -1.4582036009722280e+01 -7.3183981371613864e+00 -3 -6 5
1798 600 1 -8.1999999999999995e-01 -7.6745586306126530e+00 -1.4838401400166115e+01 -1.3555956312984385e-01 1 -5 1
1800 600 2 4.0999999999999998e-01 -6.7025580344838716e+00 -1.4619921132000105e+01 -4.8884906499516489e-02 1 -5 1
2420 807 2 4.0999999999999998e-01 -5.5520327184363900e+00 -1.3682837196482394e+01 -5.3896128345823726e+00 -1 -4 0
496 166 1 -8.1999999999999995e-01 -6.3086824818250431e+00 -1.3838132725716836e+01 -7.4129421595866809e+00 2 -8 4
1920 640 2 4.0999999999999998e-01 -1.4768841633920134e+01 -1.0862040981335044e+01 -2.0382451989482675e-01 3 -1 5
1706 569 2 4.0999999999999998e-01 -1.3704433673705687e+01 -1.4745080106690654e+01 -6.0998990925179974e-01 3 0 2
950 317 2 4.0999999999999998e-01 -1.4745252645925429e+01 -8.5064088277669185e+00 -7.2580054855613652e+00 -1 -4 -2
1083 361 2 4.0999999999999998e-01 -1.0518675354971979e+01 -7.1486615963233211e+00 -4.4138093435256049e+00 3 -5 2
1849 617 1 -8.1999999999999995e-01 -1.0003859857827520e+01 -7.2240749184176654e+00 -7.5012140416502122e+00 -3 2 8
1698 566 2 4.0999999999999998e-01 -1.4370671347960402e+01 -4.7704747881305742e-01 -1.4734944947320106e+00 -2 -5 0
939 313 2 4.0999999999999998e-01 -6.4470697020812526e+00 -7.4063389063543301e+00 -6.2201320401659537e+00 -3 -7 0
627 209 2 4.0999999999999998e-01 -1.4791275528178295e+01 -7.4153362063514745e+00 -4.4447999954062229e+00 -3 -3 7
2332 778 1 -8.1999999999999995e-01 -1.3036392957368887e+01 -1.6969860070573368e+00 -4.2937013416524064e+00 2 -5 7
122 41 2 4.0999999999999998e-01 -1.1726519508258335e+01 -3.2001665484200004e+00 -2.3683431386814568e-01 -3 -8 -3
1988 663 2 4.0999999999999998e-01 -1.3876540756839818e+01 -5.3788821243959788e+00 -3.7150314504065065e+00 -1 -6 4
2321 774 2 4.0999999999999998e-01 -7.8867407885255405e+00 -1.1448596664621782e+00 -7.0110581005902990e+00 -2 -5 5
1081 361 1 -8.1999999999999995e-01 -1.0170317465584642e+01 -6.8547968668578569e+00 -3.5236848656572128e+00 3 -5 2
1697 566 2 4.0999999999999998e-01 -1.4813746405748782e+01 -1.8100209643380971e+00 -2.3063067576620693e+00 -2 -5 0
1959 653 2 4.0999999999999998e-01 -1.3698318969388108e+01 -1.2316744286096082e+00 -6.0638203963528170e+00 -4 -10 -3
1957 653 1 -8.1999999999999995e-01 -1.3771006343428809e+01 -6.1360703318313270e-01 -6.8465978558447489e+00 -4 -10 -3
1568 523 2 4.0999999999999998e-01 -6.3968858269339570e+00 -7.0383367061538316e-01 -3.1610228163284546e+00 4 -6 7
2333 778 2 4.0999999999999998e-01 -1.2356354495059559e+01 -2.4292115309898143e+00 -4.2559551997503853e+00 2 -5 7
1526 509 2 4.0999999999999998e-01 -1.4295587237265879e+01 -6.4622639479332715e+00 -6.2793095538000898e+00 1 -5 -3
422 141 2 4.0999999999999998e-01 -1.1823352413024633e+01 -4.3639281441204272e+00 -7.3088160870477141e+00 -4 -5 4
1696 566 1 -8.1999999999999995e-01 -1.4049986429044321e+01 -1.3401568776250237e+00 -1.8636671817244057e+00 -2 -5 0
1202 401 2 4.0999999999999998e-01 -1.0402177133431506e+01 -3.6022418854167544e+00 -2.1263361595272006e+00 -3 1 5
522 174 2 4.0999999999999998e-01 -7.4903323600489555e+00 -6.4907122689879770e-01 -4.2606139472308158e-01 -3 -10 1
421 141 1 -8.1999999999999995e-01 -1.1485608305663677e+01 -5.0799328874203340e+00 -6.6978353903706918e+00 -4 -5 4
1999 667 1 -8.1999999999999995e-01 -1.0049131827039469e+01 -3.7247946812948172e+00 -3.3990734338281570e-01 1 -4 -1
1201 401 1 -8.1999999999999995e-01 -1.0956170801855301e+01 -3.7820721339023766e+00 -2.9392220069010193e+00 -3 1 5
2280 760 2 4.0999999999999998e-01 -1.2695796573800571e+01 -6.1262880033440705e+00 -1.6167624229521298e+00 0 -8 5
1327 443 1 -8.1999999999999995e-01 -6.8248155324819066e+00 -3.6247752484463582e+00 -3.6040455955116908e+00 -2 -7 -3
1987 663 1 -8.1999999999999995e-01 -1.3576527136393604e+01 -4.9329090809991492e+00 -2.8717455195166952e+00 -1 -6 4
1569 523 2 4.0999999999999998e-01 -6.7527566263656578e+00 -2.1440425694819165e+00 -2.4784803502115977e+00 4 -6 7
1989 663 2 4.0999999999999998e-01 -1.2861803184259266e+01 -4.2662473354661952e+00 -3.0833183816877181e+00 -1 -6 4
1117 373 1 -8.1999999999999995e-01 -8.8116578524327558e+00 -2.4532689143403346e+00 -5.4604049085539579e+00 3 -9 3
2434 812 1 -8.1999999999999995e-01 -5.4724255862575273e+00 -1.0084289805165803e-01 -4.4015598952772415e+00 2 -5 5
1567 523 1 -8.1999999999999995e-01 -6.8391038523277441e+00 -1.1522303984233364e+00 -2.3842249613006601e+00 4 -6 7
2334 778 2 4.0999999999999998e-01 -1.3238035355753389e+01 -1.3812406564853497e+00 -3.3665138990058097e+00 2 -5 7
2278 760 1 -8.1999999999999995e-01 -1.2341988859295416e+01 -6.9406190605042823e+00 -1.1566359863241189e+00 0 -8 5
1203 401 2 4.0999999999999998e-01 -1.0478279630557918e+01 -4.4308703242704759e+00 -3.5314316288351737e+00 -3 1 5
1850 617 2 4.0999999999999998e-01 -1.0612813886763133e+01 -6.4514832774155373e+00 -7.3214685321018500e+00 -3 2 8
2000 667 2 4.0999999999999998e-01 -9.4893205689853346e+00 -4.5530307538392414e+00 -3.1406820391922885e-01 1 -4 -1
207 69 2 4.0999999999999998e-01 -9.3084017382009332e+00 -3.7519786968942448e-01 -5.0185370600096029e+00 -1 -2 0
1328 443 2 4.0999999999999998e-01 -7.0801250717993414e+00 -4.5845530735538809e+00 -3.4871059320589648e+00 -2 -7 -3
1119 373 2 4.0999999999999998e-01 -9.5368822597001959e+00 -2.9462535039148143e+00 -4.9797313587356857e+00 3 -9 3
1118 373 2 4.0999999999999998e-01 -8.0576196333110559e+00 -2.2710720735525207e+00 -4.8293248740045076e+00 3 -9 3
2279 760 2 4.0999999999999998e-01 -1.3101910248217893e+01 -7.4570313758681293e+00 -7.6183335951477993e-01 0 -8 5
1082 361 2 4.0999999999999998e-01 -1.0848450682262341e+01 -7.0569689099816690e+00 -2.8170781205019662e+00 3 -5 2
423 141 2 4.0999999999999998e-01 -1.2251399812567470e+01 -5.4710936502211940e+00 -6.1873572605783789e+00 -4 -5 4
2133 711 2 4.0999999999999998e-01 -8.6142734245964547e+00 -7.3038304487798920e+00 -5.1823667864716683e-01 -2 -6 0
1525 509 1 -8.1999999999999995e-01 -1.4232477847260387e+01 -5.7943705605550946e+00 -5.5377119944552664e+00 1 -5 -3
364 122 1 -8.1999999999999995e-01 -7.5949284053935733e+00 -6.1205358294573120e+00 -3.6056892469593667e+00 3 -7 2
2132 711 2 4.0999999999999998e-01 -8.3434221437219751e+00 -6.1155887865645635e+00 -1.6051733162209008e+00 -2 -6 0
365 122 2 4.0999999999999998e-01 -8.4483357205459271e+00 -6.5887797013121041e+00 -3.8347634645485744e+00 3 -7 2
2131 711 1 -8.1999999999999995e-01 -8.4263160278595350e+00 -6.3281945789807921e+00 -6.3154161684159327e-01 -2 -6 0
366 122 2 4.0999999999999998e-01 -6.8328528088800962e+00 -6.5692156926795473e+00 -4.0725494761712131e+00 3 -7 2
2134 712 1 -8.1999999999999995e-01 -5.2822402098745282e+00 -6.8469537627587176e+00 -1.7533726367480060e+00 -1 -4 -5
2135 712 2 4.0999999999999998e-01 -6.1711654024239184e+00 -6.3899392186871857e+00 -1.7220518979261250e+00 -1 -4 -5
1329 443 2 4.0999999999999998e-01 -6.0033551298602070e+00 -3.5651018567838726e+00 -4.1712079956483414e+00 -2 -7 -3
123 41 2 4.0999999999999998e-01 -1.2876331855424370e+01 -2.1577141880840056e+00 -7.4470691991556492e-01 -3 -8 -3
1958 653 2 4.0999999999999998e-01 -1.2876303980422220e+01 -2.0910243405123907e-01 -7.0361103862381373e+00 -4 -10 -3
1851 617 2 4.0999999999999998e-01 -9.0534697981595045e+00 -6.9301211085406482e+00 -7.3993259105985993e+00 -3 2 8
1007 336 2 4.0999999999999998e-01 -1.1419556839116897e+01 -1.1167456872926939e+01 1.7065182185441952e+00 -1 -10 -5
1389 463 2 4.0999999999999998e-01 -8.2403973438005771e+00 -9.1868107881244310e+00 4.9201207650370957e+00 0 -5 -1
1387 463 1 -8.1999999999999995e-01 -8.4546913284233369e+00 -8.5774682914262019e+00 4.1567000974826289e+00 0 -5 -1
1054 352 1 -8.1999999999999995e-01 -1.1779170882974668e+01 -1.3785631316132410e+01 5.0032725706564722e+00 -4 -6 5
1388 463 2 4.0999999999999998e-01 -8.3915625194463370e+00 -9.0849265409739619e+00 3.2973211436475385e+00 0 -5 -1
1185 395 2 4.0999999999999998e-01 -1.0630121355026038e+01 -8.9219034483554296e+00 3.8380261594756693e+00 0 -2 -1
1055 352 2 4.0999999999999998e-01 -1.1420150566005386e+01 -1.4401353395673233e+01 4.3018297379335539e+00 -4 -6 5
1183 395 1 -8.1999999999999995e-01 -1.1534120173204563e+01 -9.3478978815238793e+00 3.8747163119542574e+00 0 -2 -1
2200 734 1 -8.1999999999999995e-01 -9.3135220522013604e+00 -1.2905310256064734e+01 6.4531085574641249e+00 0 -5 -4
1184 395 2 4.0999999999999998e-01 -1.1505623921823531e+01 -1.0231144232149958e+01 3.4066402996316736e+00 0 -2 -1
1008 336 2 4.0999999999999998e-01 -1.1776247762399668e+01 -1.2696306660098099e+01 2.1560733942438173e+00 -1 -10 -5
1006 336 1 -8.1999999999999995e-01 -1.1208163384292238e+01 -1.1897950468760513e+01 2.3559204269758407e+00 -1 -10 -5
277 93 1 -8.1999999999999995e-01 -8.5012750475288783e+00 -9.9318145826151500e+00 1.6754283636509424e+00 -7 -1 1
1284 428 2 4.0999999999999998e-01 -1.2895012074407511e+01 -8.6752619240862892e+00 3.2482150408319601e+00 4 -7 1
1003 335 1 -8.1999999999999995e-01 -1.1886427081557068e+01 -9.7609771953781888e+00 7.7385729044593710e-01 5 -5 -5
1056 352 2 4.0999999999999998e-01 -1.1019312621326183e+01 -1.3379867647277203e+01 5.5112121075850293e+00 -4 -6 5
2231 744 2 4.0999999999999998e-01 -1.2180552654167837e+01 -9.0099310894830573e+00 5.6045060461306111e+00 -1 -5 2
2201 734 2 4.0999999999999998e-01 -8.3774149046462192e+00 -1.2629661636140916e+01 6.2345849377662521e+00 0 -5 -4
185 62 2 4.0999999999999998e-01 -1.3567418076068108e+01 -1.3317837868837174e+01 5.0860233177278165e+00 1 -9 5
399 133 2 4.0999999999999998e-01 -7.9881223517044537e+00 -8.8439204590118905e+00 7.1766526934532191e+00 2 -1 1
1282 428 1 -8.1999999999999995e-01 -1.3874952821367730e+01 -8.5037851650139462e+00 3.1465136588909868e+00 4 -7 1
279 93 2 4.0999999999999998e-01 -8.4903213942065197e+00 -1.0889796892851791e+01 1.3887557198591534e+00 -7 -1 1
398 133 2 4.0999999999999998e-01 -6.6436383306907292e+00 -9.7240082333440654e+00 7.4673728052545822e+00 2 -1 1
397 133 1 -8.1999999999999995e-01 -7.1990311350627954e+00 -9.2922131463917985e+00 6.7566526574083827e+00 2 -1 1
369 123 2 4.0999999999999998e-01 -1.3158829314712349e+01 -1.3729829370753460e+01 6.7861049970837684e-01 2 -7 4
368 123 2 4.0999999999999998e-01 -1.2085131095671660e+01 -1.4519048049582937e+01 1.6225469001840249e+00 2 -7 4
2230 744 1 -8.1999999999999995e-01 -1.2417975734990764e+01 -9.1005756626146805e+00 6.5716901717709479e+00 -1 -5 2
184 62 1 -8.1999999999999995e-01 -1.4511621778138213e+01 -1.3151873219925438e+01 5.3705693266943886e+00 1 -9 5
180 60 2 4.0999999999999998e-01 -8.4820100832402083e+00 -1.2961665606324917e+01 1.1125542201582714e+00 1 -1 -2
278 93 2 4.0999999999999998e-01 -8.8600091910300982e+00 -9.3658412196769003e+00 9.3312433032688880e-01 -7 -1 1
1913 638 2 4.0999999999999998e-01 -6.6335140167436553e+00 -1.0449274626388465e+01 2.5935011033876929e+00 4 -1 1
179 60 2 4.0999999999999998e-01 -9.9671143895739469e+00 -1.2292682193195834e+01 1.2293293482163765e+00 1 -1 -2
252 84 2 4.0999999999999998e-01 -5.3489058906675115e+00 -1.3367824372198163e+01 6.2635981633063178e+00 -2 -1 1
2232 744 2 4.0999999999999998e-01 -1.3327136477821581e+01 -9.5086620879645203e+00 6.6548978037892628e+00 -1 -5 2
186 62 2 4.0999999999999998e-01 -1.4641716886969771e+01 -1.3484840680920930e+01 6.3045068204706869e+00 1 -9 5
250 84 1 -8.1999999999999995e-01 -6.0249880082704514e+00 -1.3482682738403117e+01 6.9914386785064071e+00 -2 -1 1
1982 661 2 4.0999999999999998e-01 -1.4854863827239145e+01 -1.1138627713392276e+01 5.9603800592415137e+00 -6 -5 4
251 84 2 4.0999999999999998e-01 -6.1973809120585255e+00 -1.4457136772102771e+01 7.1354918153325233e+00 -2 -1 1