LAMMPS data file via write_data, version 15 May 2015, timestep = 1009000

2593 atoms
6 atom types
1728 bonds
4 bond types
864 angles
3 angle types
0 dihedrals
3 dihedral types
0 impropers
1 improper types

-1.5014838023394780e+01 1.5014838023394780e+01 xlo xhi
-1.5014838023394780e+01 1.5014838023394780e+01 ylo yhi
-1.5014838023394780e+01 1.5014838023394780e+01 zlo zhi

Masses

1 15.9994
2 1.00794
3 12.0107
4 1.00794
5 12.0107
6 12.0107

Bond Coeffs # harmonic

1 1000 1
2 469 1.4
3 367 1.08
4 469 0.7

Angle Coeffs # harmonic

1 100 109.47
2 35 120
3 63 120

Dihedral Coeffs # opls

1 0 7.25 0 0
2 0 7.25 0 0
3 0 7.25 0 0

Improper Coeffs # cvff

1 2.5 -1 2

Atoms # full

1600 534 1 -8.1999999999999995e-01 -9.4608915845569079e+00 -1.1239485979316667e+01 -1.2574814660466942e+01 1 0 2
1601 534 2 4.0999999999999998e-01 -9.3816874654595228e+00 -1.0561449422965483e+01 -1.3305521367429877e+01 1 0 2
903 301 2 4.0999999999999998e-01 -1.2192323637437516e+01 -1.0540761456947195e+01 -1.1209483194009279e+01 2 1 0
901 301 1 -8.1999999999999995e-01 -1.2150286797851409e+01 -1.1339985670440845e+01 -1.1808993595932538e+01 2 1 0
902 301 2 4.0999999999999998e-01 -1.2566667544727116e+01 -1.1117642673104921e+01 -1.2690543274589297e+01 2 1 0
1707 569 2 4.0999999999999998e-01 -1.4228585961489328e+01 -9.8342405389229306e+00 -9.5955941048574616e+00 -1 3 0
1771 591 1 -8.1999999999999995e-01 -7.6767965490870580e+00 -8.5063517337404591e+00 -9.9211529949831032e+00 1 1 -1
633 211 2 4.0999999999999998e-01 -9.7464570217255471e+00 -5.1484555942537060e+00 -8.6179041545450552e+00 0 1 1
588 196 2 4.0999999999999998e-01 -1.1556521914809597e+01 -8.5821413476525592e+00 -1.3894587535602618e+01 -1 -1 -1
47 16 2 4.0999999999999998e-01 -8.7211106382341086e+00 -1.3173136155239337e+01 -1.2437280831946108e+01 -1 2 1
2127 709 2 4.0999999999999998e-01 -8.2397636710063011e+00 -7.8598683866770038e+00 -1.3839849385122315e+01 0 2 0
2125 709 1 -8.1999999999999995e-01 -7.8786619398461513e+00 -7.1262694008994059e+00 -1.3264195622932206e+01 0 2 0
1179 393 2 4.0999999999999998e-01 -1.1643742728040767e+01 -8.8299185103911135e+00 -9.3109192222161710e+00 1 1 0
1730 577 2 4.0999999999999998e-01 -1.4344134035247961e+01 -1.4216938834267108e+01 -1.0862439452750154e+01 1 1 0
2126 709 2 4.0999999999999998e-01 -8.3751070931314011e+00 -6.2791078127866591e+00 -1.3453400891680474e+01 0 2 0
1602 534 2 4.0999999999999998e-01 -1.0423844815534693e+01 -1.1357250237495299e+01 -1.2332344414398744e+01 1 0 2
1773 591 2 4.0999999999999998e-01 -7.6288646378248206e+00 -8.1200311090439161e+00 -1.0842238258878275e+01 1 1 -1
1772 591 2 4.0999999999999998e-01 -6.8643327054805869e+00 -8.2371026502884916e+00 -9.4040972973372874e+00 1 1 -1
1729 577 1 -8.1999999999999995e-01 -1.4823888791345913e+01 -1.4810691218679350e+01 -1.1508374910997617e+01 1 1 0
1152 384 2 4.0999999999999998e-01 -1.1374187319159349e+01 -1.2171208534186373e+01 -1.0457194779879794e+01 -1 1 1
1381 461 1 -8.1999999999999995e-01 -1.1638938644890063e+01 -1.4109177859057015e+01 -1.4078096230064151e+01 -2 1 0
1151 384 2 4.0999999999999998e-01 -1.0815508799819781e+01 -1.2197956690570933e+01 -8.9230412540560344e+00 -1 1 1
48 16 2 4.0999999999999998e-01 -8.3036251893713278e+00 -1.4751602893262600e+01 -1.2412524638774062e+01 -1 2 1
1383 461 2 4.0999999999999998e-01 -1.1503115750602593e+01 -1.4252230462922681e+01 -1.3097776251433253e+01 -2 1 0
1150 384 1 -8.1999999999999995e-01 -1.1171965413410009e+01 -1.2756463681338868e+01 -9.6720057222229272e+00 -1 1 1
1917 639 2 4.0999999999999998e-01 -1.2731587661747483e+01 -1.3185087888638746e+01 -9.2546383768522631e+00 -1 0 1
647 216 2 4.0999999999999998e-01 -8.2716020242257002e+00 -1.1438464403509826e+01 -1.1353291117900453e+01 1 1 1
1068 356 2 4.0999999999999998e-01 -8.0323181625486857e+00 -9.9417764545563685e+00 -1.4688576374752145e+01 2 2 0
1177 393 1 -8.1999999999999995e-01 -1.2482709011051618e+01 -9.1294123037466441e+00 -9.7652078920792960e+00 1 1 0
1999 667 1 -8.1999999999999995e-01 -1.4352503080216675e+01 -7.1583434155096617e+00 -1.0000056954071711e+01 1 0 -1
1915 639 1 -8.1999999999999995e-01 -1.3694811291126747e+01 -1.3414245549196465e+01 -9.1145449573141164e+00 -1 0 1
586 196 1 -8.1999999999999995e-01 -1.1493644554703351e+01 -8.1134470392042175e+00 -1.3013502283963758e+01 -1 -1 -1
688 230 1 -8.1999999999999995e-01 -1.0014504297023418e+01 -8.5101925432526997e+00 -8.7187729995473457e+00 0 0 1
1178 393 2 4.0999999999999998e-01 -1.3051465331951935e+01 -8.3336548598675755e+00 -9.9731153472130423e+00 1 1 0
191 64 2 4.0999999999999998e-01 -7.1260340362344170e+00 -1.3979220549464213e+01 -1.3959845587679659e+01 1 0 0
587 196 2 4.0999999999999998e-01 -1.0533902736946718e+01 -7.9289255705055943e+00 -1.2801873765102236e+01 -1 -1 -1
2257 753 1 -8.1999999999999995e-01 -1.2556258578700117e+01 -1.1280943984248962e+01 -1.4394998526122860e+01 1 1 1
690 230 2 4.0999999999999998e-01 -9.2092856927559161e+00 -8.2978063480241495e+00 -9.2723561356021680e+00 0 0 1
2348 783 2 4.0999999999999998e-01 -6.8560073665732553e+00 -1.0638048811027158e+01 -7.7093480685640845e+00 1 2 2
46 16 1 -8.1999999999999995e-01 -7.9693473039290863e+00 -1.3820876354226774e+01 -1.2560664989604556e+01 -1 2 1
2414 805 2 4.0999999999999998e-01 -8.9943548943481986e+00 -1.4348414683223757e+01 -9.3233361916582105e+00 1 0 3
2259 753 2 4.0999999999999998e-01 -1.3447222024414634e+01 -1.0923054413415656e+01 -1.4674351962549446e+01 1 1 1
597 199 2 4.0999999999999998e-01 -3.0398966041295647e+00 -7.6403979260066626e+00 -7.9860182084119522e+00 0 0 0
1066 356 1 -8.1999999999999995e-01 -8.7320467348881845e+00 -9.2276983971662645e+00 -1.4708864549012747e+01 2 2 0
876 292 2 4.0999999999999998e-01 -1.0922939807922639e+01 -1.4219983908640639e+01 -1.0872318226945005e+01 -1 3 -2
1942 648 1 -8.1999999999999995e-01 -9.4508005511352700e+00 -5.0554451143210226e+00 -1.4291606551728059e+01 -1 1 -1
1584 528 2 4.0999999999999998e-01 -5.5493231628865622e+00 -8.5900198164202131e+00 -7.6911618674573541e+00 0 0 0
631 211 1 -8.1999999999999995e-01 -9.9220534090152697e+00 -5.6965855894520931e+00 -7.8001887005445365e+00 0 1 1
665 222 2 4.0999999999999998e-01 -3.3606734899881907e-01 -1.4089696097126462e+01 -1.3393394542570784e+01 0 2 -1
179 60 2 4.0999999999999998e-01 -2.4244392312333041e-01 -1.3772326946927780e+01 -9.4500240466159298e+00 -1 2 -1
1280 427 2 4.0999999999999998e-01 -1.3718638940234566e+01 -8.4486564407232478e+00 -1.3073161534869673e+01 1 0 1
689 230 2 4.0999999999999998e-01 -1.0069365919259386e+01 -7.8713687364309459e+00 -7.9514181271342403e+00 0 0 1
1279 427 1 -8.1999999999999995e-01 -1.4634917484881679e+01 -8.3514747707192960e+00 -1.3461656722414098e+01 1 0 1
1639 547 1 -8.1999999999999995e-01 -3.4556043780347103e+00 -1.4947528255784322e+01 -1.3491687292305679e+01 1 1 -1
2000 667 2 4.0999999999999998e-01 -1.4101598319317469e+01 -6.2864349803644188e+00 -9.5796266893939688e+00 1 0 -1
2506 836 1 -8.1999999999999995e-01 -3.8233871892192113e+00 -5.0876025402253724e+00 -1.3514469107153614e+01 0 2 0
1277 426 2 4.0999999999999998e-01 -1.2208518264118309e+01 -6.9917422323402931e+00 -1.4950812523589887e+01 0 0 1
190 64 1 -8.1999999999999995e-01 -6.9058388363734320e+00 -1.4186290790252158e+01 -1.4913037685120660e+01 1 0 0
801 267 2 4.0999999999999998e-01 -6.0568573512900183e+00 -1.4565874697379183e+01 -9.0107418454426593e+00 -2 2 -2
2243 748 2 4.0999999999999998e-01 -9.0991301784126666e+00 -1.1379684850082999e+01 -7.5961404496868550e+00 0 0 0
2242 748 1 -8.1999999999999995e-01 -1.0070758500873438e+01 -1.1164782087300333e+01 -7.6946003961763791e+00 0 0 0
2244 748 2 4.0999999999999998e-01 -1.0175131693766653e+01 -1.0341145687842697e+01 -8.2519768274228582e+00 0 0 0
2301 767 2 4.0999999999999998e-01 -1.1636233423824649e-01 -5.7463976831512866e+00 -1.1745078717636520e+01 1 0 4
270 90 2 4.0999999999999998e-01 -9.1634290540462437e-01 -7.8766066537126500e+00 -1.4841674728318663e+01 1 0 1
473 158 2 4.0999999999999998e-01 -6.5266040541938395e+00 -5.4724884372126379e+00 -9.1236106694797652e+00 -1 -1 1
1382 461 2 4.0999999999999998e-01 -1.2331822292774687e+01 -1.3402051800258183e+01 -1.4218894405997791e+01 -2 1 0
648 216 2 4.0999999999999998e-01 -7.2663221987172006e+00 -1.0406001382075262e+01 -1.0585243722899147e+01 1 1 1
874 292 1 -8.1999999999999995e-01 -1.1086310561352430e+01 -1.4911060688030583e+01 -1.1576350930536364e+01 -1 3 -2
1640 547 2 4.0999999999999998e-01 -2.5626982901612045e+00 -1.4852716628512351e+01 -1.3051609335449594e+01 1 1 -1
646 216 1 -8.1999999999999995e-01 -7.4537363192724033e+00 -1.1368296394176770e+01 -1.0782229563463190e+01 1 1 1
416 139 2 4.0999999999999998e-01 -5.9392477603037914e+00 -1.1032617611836942e+01 -1.4522004437271875e+01 -1 2 1
2115 705 2 4.0999999999999998e-01 -1.2569601473377091e+01 -6.1769878046997224e+00 -1.1398948179573489e+01 0 1 1
2349 783 2 4.0999999999999998e-01 -7.0484069141000587e+00 -1.1670353734104465e+01 -8.9598652133363679e+00 1 2 2
627 209 2 4.0999999999999998e-01 -3.8554023818902596e+00 -1.1341264171666102e+01 -1.4679649769040184e+01 -1 0 -1
180 60 2 4.0999999999999998e-01 -1.8066825346669226e+00 -1.3622133409579185e+01 -9.0061054376108736e+00 -1 2 -1
1241 414 2 4.0999999999999998e-01 -1.3908937561128694e+01 -9.8965350884124312e+00 -7.8246599298835875e+00 1 0 0
472 158 1 -8.1999999999999995e-01 -6.1060930576874082e+00 -5.9240213295603859e+00 -9.9105208950810013e+00 -1 -1 1
73 25 1 -8.1999999999999995e-01 -4.1555472330752252e-01 -9.5725459921255620e+00 -1.1343994216445214e+01 -1 -1 -1
383 128 2 4.0999999999999998e-01 -1.0760834912528683e+00 -1.4831164501973571e+01 -1.1058655647813657e+01 0 0 1
240 80 2 4.0999999999999998e-01 -6.0451380792299787e+00 -7.1341320148155418e+00 -1.3363915537208351e+01 1 1 0
178 60 1 -8.1999999999999995e-01 -1.0739148437128527e+00 -1.4272089614664267e+01 -9.2074698458232742e+00 -1 2 -1
1515 505 2 4.0999999999999998e-01 -4.8265102663006356e+00 -8.5949008668808027e+00 -1.1733687050505214e+01 0 2 -1
122 41 2 4.0999999999999998e-01 -4.6864417737982951e+00 -8.3918930606502968e+00 -9.5172166515781917e+00 0 0 0
377 126 2 4.0999999999999998e-01 -1.7909568821514004e+00 -1.0680766372212869e+01 -1.1045526065344703e+01 0 1 -1
1514 505 2 4.0999999999999998e-01 -3.9940603334551046e+00 -9.8516231519417214e+00 -1.1105880976225675e+01 0 2 -1
239 80 2 4.0999999999999998e-01 -4.7547052992936294e+00 -7.7537908175545569e+00 -1.4149581165561321e+01 1 1 0
1916 639 2 4.0999999999999998e-01 -1.3989880406631315e+01 -1.3080983358265433e+01 -8.2191066913627076e+00 -1 0 1
74 25 2 4.0999999999999998e-01 -1.0963646706814494e+00 -9.0154699221433710e+00 -1.1819497362611788e+01 -1 -1 -1
1842 614 2 4.0999999999999998e-01 -3.8753347084241767e+00 -1.2687556477482726e+01 -7.7180987519032334e+00 0 -1 0
1646 549 2 4.0999999999999998e-01 -6.0086919874476035e+00 -1.2687814512414228e+01 -1.0793377444384424e+01 0 1 0
55 19 1 -8.1999999999999995e-01 -4.5595777386678549e+00 -1.2188292914574770e+01 -1.3572715303794183e+01 0 0 0
2113 705 1 -8.1999999999999995e-01 -1.2145833834259559e+01 -5.2901608985350652e+00 -1.1214833580090460e+01 0 1 1
1835 612 2 4.0999999999999998e-01 -2.4357607485511394e+00 -7.8555567955407914e+00 -1.3698097301925849e+01 -1 1 0
121 41 1 -8.1999999999999995e-01 -4.5465982070196560e+00 -7.7130448433710184e+00 -8.7964198970562055e+00 0 0 0
2507 836 2 4.0999999999999998e-01 -4.4847416489299778e+00 -5.8289967470121429e+00 -1.3400961014459437e+01 0 2 0
474 158 2 4.0999999999999998e-01 -5.7885196416520923e+00 -5.2336495846622757e+00 -1.0560500234903401e+01 -1 -1 1
238 80 1 -8.1999999999999995e-01 -5.0845537137344081e+00 -7.3975314140266359e+00 -1.3275385281727884e+01 1 1 0
1834 612 1 -8.1999999999999995e-01 -1.9285586716513148e+00 -7.8019811650152375e+00 -1.2837972400652893e+01 -1 1 0
1836 612 2 4.0999999999999998e-01 -2.3620358963260735e+00 -7.1308088565148537e+00 -1.2236670165361568e+01 -1 1 0
56 19 2 4.0999999999999998e-01 -4.1292391346524457e+00 -1.1624123925999369e+01 -1.2868115287968337e+01 0 0 0
955 319 1 -8.1999999999999995e-01 -1.8605134145333171e+00 -6.5115061988269609e+00 -1.0080955618127984e+01 0 -1 0
378 126 2 4.0999999999999998e-01 -2.7802064521189145e+00 -1.1240709939296377e+01 -9.8732152177309374e+00 0 1 -1
1841 614 2 4.0999999999999998e-01 -4.0033866603998884e+00 -1.3018443998149650e+01 -9.3120185721604898e+00 0 -1 0
1513 505 1 -8.1999999999999995e-01 -4.7418309263100618e+00 -9.2069009814938099e+00 -1.0947414557828303e+01 0 2 -1
957 319 2 4.0999999999999998e-01 -2.7429056610482139e+00 -6.5285510324982674e+00 -9.6108146376348884e+00 0 -1 0
956 319 2 4.0999999999999998e-01 -1.1918521188705515e+00 -7.0359543398348636e+00 -9.5539021215942768e+00 0 -1 0
376 126 1 -8.1999999999999995e-01 -2.6927955052632875e+00 -1.1068138179978092e+01 -1.0854294953235090e+01 0 1 -1
123 41 2 4.0999999999999998e-01 -5.0607395814051852e+00 -6.8837710880352709e+00 -9.0152869802089377e+00 0 0 0
57 19 2 4.0999999999999998e-01 -3.9645827746772309e+00 -1.2962203157814573e+01 -1.3789471085286205e+01 0 0 0
1647 549 2 4.0999999999999998e-01 -5.2381133155607067e+00 -1.4124522280920921e+01 -1.0885808365730202e+01 0 1 0
1645 549 1 -8.1999999999999995e-01 -5.4164050617901847e+00 -1.3329466179872519e+01 -1.0306121381043262e+01 0 1 0
1840 614 1 -8.1999999999999995e-01 -3.3645128739639603e+00 -1.2890373092807645e+01 -8.5534822782274347e+00 0 -1 0
1868 623 2 4.0999999999999998e-01 -3.1077392311339658e-01 -8.8534687200476050e+00 -7.9758011967649569e+00 -1 2 2
2347 783 1 -8.1999999999999995e-01 -7.2547145332557932e+00 -1.1509564677657885e+01 -7.9947107171663276e+00 1 2 2
632 211 2 4.0999999999999998e-01 -1.0903335343487674e+01 -5.7034063560944386e+00 -7.6078910766654602e+00 0 1 1
75 25 2 4.0999999999999998e-01 -9.6186784429921346e-02 -9.0862980966756233e+00 -1.0530663873611729e+01 -1 -1 -1
1846 616 1 -8.1999999999999995e-01 -9.1197172359422147e+00 -1.3683340577946014e+01 -1.5004056330771043e+00 3 0 1
1202 401 2 4.0999999999999998e-01 -8.5663933529242051e+00 -1.2052298831307418e+01 -4.2113905639839722e+00 3 1 0
839 280 2 4.0999999999999998e-01 -1.3968834754519319e+01 -8.0063340962650784e+00 -4.9236928732828833e+00 0 4 0
1017 339 2 4.0999999999999998e-01 -1.1971965344097732e+01 -9.2420340519051756e+00 -3.8537188257448758e+00 -1 0 2
1244 415 2 4.0999999999999998e-01 -1.0310175238001989e+01 -1.1925649247574263e+01 -6.0722014517728287e+00 0 2 1
1245 415 2 4.0999999999999998e-01 -1.0420592166903448e+01 -1.3247653448311681e+01 -5.1200579515709759e+00 0 2 1
1243 415 1 -8.1999999999999995e-01 -1.0330821030039033e+01 -1.2251746628967634e+01 -5.1271229241510010e+00 0 2 1
2170 724 1 -8.1999999999999995e-01 -1.0233624823821380e+01 -9.3842213413073559e+00 -3.8123976443035534e+00 -1 1 0
2172 724 2 4.0999999999999998e-01 -9.4245533647330078e+00 -8.8599701958483195e+00 -3.5468731239829836e+00 -1 1 0
2171 724 2 4.0999999999999998e-01 -9.9718644955959199e+00 -1.0091205566768277e+01 -4.4693557730939091e+00 -1 1 0
1015 339 1 -8.1999999999999995e-01 -1.2922987819317324e+01 -9.1955695973390590e+00 -4.1592290352488739e+00 -1 0 2
1016 339 2 4.0999999999999998e-01 -1.3282550736983691e+01 -1.0121847279934194e+01 -4.2717604899534400e+00 -1 0 2
1979 660 2 4.0999999999999998e-01 -1.3891669872491278e+01 -1.3059830602722196e+01 -5.7469757511954764e+00 1 0 0
838 280 1 -8.1999999999999995e-01 -1.4197307009151716e+01 -7.3220036166599431e+00 -5.6161027115489048e+00 0 4 0
1256 419 2 4.0999999999999998e-01 -1.3276051872827717e+01 -6.2246116808891827e+00 -6.4895252525522462e+00 1 2 0
889 297 1 -8.1999999999999995e-01 -1.3832644219728060e+01 -1.1661076970739057e+01 -3.4547813411866830e+00 -1 -1 1
891 297 2 4.0999999999999998e-01 -1.3090706084196153e+01 -1.1766251437791848e+01 -2.7926595296316137e+00 -1 -1 1
1978 660 1 -8.1999999999999995e-01 -1.3975602434897018e+01 -1.2689973236018918e+01 -6.6722324706234257e+00 1 0 0
1166 389 2 4.0999999999999998e-01 -1.0451163285875605e+01 -5.9040261458998238e+00 -1.9077464896494867e+00 0 1 0
302 101 2 4.0999999999999998e-01 -7.5556060411938830e+00 -6.5619898879872913e+00 -5.9624726553692931e+00 -1 0 -1
966 322 2 4.0999999999999998e-01 -9.5755131011468890e+00 -8.2853284435496466e+00 -7.3456079460372692e-01 -2 -1 1
964 322 1 -8.1999999999999995e-01 -9.8157149504258001e+00 -7.8647823375878483e+00 -1.6094226043056477e+00 -2 -1 1
965 322 2 4.0999999999999998e-01 -1.0283205811962599e+01 -8.5359612993976128e+00 -2.1846705859448345e+00 -2 -1 1
1165 389 1 -8.1999999999999995e-01 -1.1425960151819668e+01 -5.6817455914210875e+00 -1.8903801519025851e+00 0 1 0
303 101 2 4.0999999999999998e-01 -8.5491258386653008e+00 -6.4928824445692452e+00 -7.2565386320939265e+00 -1 0 -1
301 101 1 -8.1999999999999995e-01 -7.8802842984771875e+00 -7.0547152014677463e+00 -6.7697798862946801e+00 -1 0 -1
1234 412 1 -8.1999999999999995e-01 -1.3772858908697298e+01 -7.5408047895358843e+00 -2.4371267026550125e+00 0 2 -1
2298 766 2 4.0999999999999998e-01 -8.0164712265980675e-01 -5.5534435106989370e+00 -4.7986516104829846e+00 0 0 2
890 297 2 4.0999999999999998e-01 -1.4479723709494419e+01 -1.2416646807478813e+01 -3.3530880754633650e+00 -1 -1 1
1235 412 2 4.0999999999999998e-01 -1.3687408382466467e+01 -8.3394399669140711e+00 -3.0327936717785224e+00 0 2 -1
1236 412 2 4.0999999999999998e-01 -1.2941432289942995e+01 -6.9886404418664583e+00 -2.4986358868103906e+00 0 2 -1
1980 660 2 4.0999999999999998e-01 -1.3565611443181997e+01 -1.1778516636572213e+01 -6.7052996266894294e+00 1 0 0
2219 740 2 4.0999999999999998e-01 -3.5695527030561429e+00 -1.1371647632510054e+01 -2.4617953948849909e+00 0 0 1
1847 616 2 4.0999999999999998e-01 -8.6121718318858917e+00 -1.2886301304191759e+01 -1.8276138444107577e+00 3 0 1
668 223 2 4.0999999999999998e-01 -1.1251571268389863e+01 -1.3194592669127305e+01 -1.6208842079297945e+00 -3 1 -3
669 223 2 4.0999999999999998e-01 -1.1390745068286678e+01 -1.1846832216864248e+01 -7.0949150079057510e-01 -3 1 -3
667 223 1 -8.1999999999999995e-01 -1.1894045543625957e+01 -1.2532083317512331e+01 -1.2358551989320130e+00 -3 1 -3
1201 401 1 -8.1999999999999995e-01 -7.6409550621183602e+00 -1.2325920466094489e+01 -3.9494090139388724e+00 3 1 0
284 95 2 4.0999999999999998e-01 -9.3822729852663933e-01 -1.4716693660212195e+01 -7.4835868126174123e+00 -2 1 0
439 147 1 -8.1999999999999995e-01 -4.3262071546878396e+00 -1.3648258495011518e+01 -5.1815623515874876e-02 1 0 -1
1242 414 2 4.0999999999999998e-01 -1.3438254115833557e+01 -9.1981662795636083e+00 -6.4256594561506191e+00 1 0 0
6 2 2 4.0999999999999998e-01 -1.3690221807276140e+01 -7.2626488575740131e+00 -7.6748836279130117e-01 -1 2 0
1255 419 1 -8.1999999999999995e-01 -1.2563568613009444e+01 -5.5544664498169105e+00 -6.6974004676059575e+00 1 2 0
2456 819 2 4.0999999999999998e-01 -7.2006080296235044e+00 -1.4821885907158800e+01 -1.3881204454612810e+00 2 0 -1
1185 395 2 4.0999999999999998e-01 -1.9574184640516812e-01 -1.4658653119255563e+01 -6.4255391777957449e-01 -1 2 -1
1583 528 2 4.0999999999999998e-01 -6.9268626102709341e+00 -8.6200332256988457e+00 -6.8148351467703563e+00 0 0 0
2547 849 2 4.0999999999999998e-01 -2.1784721764017903e+00 -9.0422684221312508e+00 -6.4497305188588232e+00 0 2 -1
2296 766 1 -8.1999999999999995e-01 -1.3323173991461417e+00 -6.3318423867168718e+00 -4.4633555831235068e+00 0 0 2
1482 494 2 4.0999999999999998e-01 -6.0664700227197343e-01 -7.1731068355255738e+00 -1.0034334690418554e+00 -2 -1 2
967 323 1 -8.1999999999999995e-01 -1.4533123281865864e+01 -1.3792576357830631e+01 -8.7083217674202906e-01 1 0 2
1240 414 1 -8.1999999999999995e-01 -1.3529457994047213e+01 -1.0065420394470671e+01 -6.9150379428898390e+00 1 0 0
1029 343 2 4.0999999999999998e-01 -8.0670967642745826e+00 -6.8812491306415833e+00 -1.5572276316325304e+00 1 2 -1
969 323 2 4.0999999999999998e-01 -1.3682453126616458e+01 -1.3277345938763510e+01 -7.6673104658975255e-01 1 0 2
283 95 1 -8.1999999999999995e-01 -9.0830407132509627e-01 -1.4900369800558057e+01 -6.5010865190621772e+00 -2 1 0
653 218 2 4.0999999999999998e-01 -4.2168889339286331e-01 -1.0475261189384266e+01 -6.5993937323377665e+00 -2 0 -1
2130 710 2 4.0999999999999998e-01 -4.6365214702116742e+00 -6.5694822410773526e+00 -1.9057005162883254e+00 1 1 -1
2128 710 1 -8.1999999999999995e-01 -4.9969188037530117e+00 -6.3857990993512832e+00 -9.9119878306117037e-01 1 1 -1
2218 740 1 -8.1999999999999995e-01 -3.0389919955393268e+00 -1.2028992684608523e+01 -1.9266860956067564e+00 0 0 1
573 191 2 4.0999999999999998e-01 -7.1987530669080133e+00 -5.9707222660272183e+00 -3.4446502979351958e+00 -1 0 0
250 84 1 -8.1999999999999995e-01 -1.0799299817025840e+00 -9.8033976536385357e+00 -3.1344134141564766e+00 -2 0 -1
2057 686 2 4.0999999999999998e-01 -2.2601339839110093e+00 -1.2390631032004574e+01 -4.7460263222907919e+00 0 2 3
596 199 2 4.0999999999999998e-01 -2.4573588457719016e+00 -6.7692085219775304e+00 -6.7337630499108592e+00 0 0 0
33 11 2 4.0999999999999998e-01 -4.9288349747887654e+00 -1.1782999773630921e+01 -6.1413488353402652e+00 0 0 1
2297 766 2 4.0999999999999998e-01 -8.4861536098638268e-01 -6.7612962992558927e+00 -3.7007673386502979e+00 0 0 2
440 147 2 4.0999999999999998e-01 -3.9614255644679002e+00 -1.2877571208563477e+01 -5.7422798317711887e-01 1 0 -1
485 162 2 4.0999999999999998e-01 -6.5906017271384982e+00 -1.2604089208441046e+01 -7.0676067928778110e+00 -1 0 1
2058 686 2 4.0999999999999998e-01 -1.3600825653750679e+00 -1.3752709900055422e+01 -4.7793855802379603e+00 0 2 3
251 84 2 4.0999999999999998e-01 -7.4255007063380774e-01 -8.9832395823383404e+00 -2.6724019101276788e+00 -2 0 -1
252 84 2 4.0999999999999998e-01 -1.4686934122318274e+00 -9.5507576147236275e+00 -4.0204016475885194e+00 -2 0 -1
2455 819 1 -8.1999999999999995e-01 -6.2082619722463761e+00 -1.4840294598807107e+01 -1.5099792497413347e+00 2 0 -1
1480 494 1 -8.1999999999999995e-01 -2.7871031153221537e-03 -6.8431606184650473e+00 -1.7289869631220771e+00 -2 -1 2
595 199 1 -8.1999999999999995e-01 -2.3351817844418630e+00 -7.5993159021625507e+00 -7.2777608828161817e+00 0 0 0
1073 358 2 4.0999999999999998e-01 -2.5009008847149055e+00 -1.0838293152221276e+01 -5.1937510891292682e-01 -1 1 0
1799 600 2 4.0999999999999998e-01 -4.6946740892279220e+00 -9.8450808486480454e+00 -4.3835901708549745e+00 -2 -1 0
1559 520 2 4.0999999999999998e-01 -4.5647310953648610e+00 -5.7564719842954659e+00 -4.6532051238331142e+00 0 2 1
1203 401 2 4.0999999999999998e-01 -7.3756578591226614e+00 -1.3140517313412669e+01 -4.4651497499559092e+00 3 1 0
1027 343 1 -8.1999999999999995e-01 -7.5414870113407444e+00 -6.1130302944085653e+00 -1.9226224393226374e+00 1 2 -1
441 147 2 4.0999999999999998e-01 -5.0329841289757500e+00 -1.4109657337886203e+01 -5.8802134434641928e-01 1 0 -1
1028 343 2 4.0999999999999998e-01 -6.6347066778216082e+00 -6.0992024388874704e+00 -1.5013180435633622e+00 1 2 -1
31 11 1 -8.1999999999999995e-01 -4.4607368695126297e+00 -1.0904117062550199e+01 -6.0497601325626587e+00 0 0 1
1338 446 2 4.0999999999999998e-01 -5.3694912607246259e+00 -1.0415346603482142e+01 -2.0614180298152256e+00 -2 1 -3
1798 600 1 -8.1999999999999995e-01 -4.3969122424235572e+00 -9.4602512985515030e+00 -3.5099865746915970e+00 -2 -1 0
1558 520 1 -8.1999999999999995e-01 -4.0712914111003009e+00 -6.4571268893620530e+00 -4.1379002168546855e+00 0 2 1
2220 740 2 4.0999999999999998e-01 -2.5105028966666278e+00 -1.2611867044769692e+01 -2.5438537259567848e+00 0 0 1
1848 616 2 4.0999999999999998e-01 -9.3646404904463942e+00 -1.4264208437632677e+01 -2.2766428934185203e+00 3 0 1
486 162 2 4.0999999999999998e-01 -6.4524840066775209e+00 -1.3796902508158841e+01 -5.9609974647372361e+00 -1 0 1
2129 710 2 4.0999999999999998e-01 -4.7494016821726621e+00 -7.1362841808941928e+00 -3.7846189213535730e-01 1 1 -1
1560 520 2 4.0999999999999998e-01 -3.0886402284000365e+00 -6.3540043226046468e+00 -4.2918533433236874e+00 0 2 1
1582 528 1 -8.1999999999999995e-01 -6.2070144811443839e+00 -9.1807942351303531e+00 -7.2238644270923160e+00 0 0 0
484 162 1 -8.1999999999999995e-01 -5.9743524387597802e+00 -1.3045259878112882e+01 -6.4152691103895787e+00 -1 0 1
1800 600 2 4.0999999999999998e-01 -4.0855223684772639e+00 -8.5201822014652677e+00 -3.6487146878471410e+00 -2 -1 0
908 303 2 4.0999999999999998e-01 -3.9930161429919409e-01 -1.2036709637545190e+01 -2.8077105795036950e+00 1 -2 -1
1337 446 2 4.0999999999999998e-01 -6.6330473211344287e+00 -1.1425546767373365e+01 -2.2836475710462310e+00 -2 1 -3
571 191 1 -8.1999999999999995e-01 -7.0622374952053981e+00 -5.6252842588144691e+00 -4.3730765259939819e+00 -1 0 0
32 11 2 4.0999999999999998e-01 -5.0468424700286292e+00 -1.0175753193594135e+01 -6.4045916013982911e+00 0 0 1
2056 686 1 -8.1999999999999995e-01 -1.6824048700034631e+00 -1.3000965528761448e+01 -4.2041222514985179e+00 0 2 3
2546 849 2 4.0999999999999998e-01 -2.9655271689543508e+00 -1.0305068155817233e+01 -5.7771641289322169e+00 0 2 -1
1336 446 1 -8.1999999999999995e-01 -6.0401625779990127e+00 -1.0997382030356118e+01 -1.6016638437143556e+00 -2 1 -3
2545 849 1 -8.1999999999999995e-01 -2.0674599599748635e+00 -9.9381863796283270e+00 -6.0196764612319456e+00 0 2 -1
1257 419 2 4.0999999999999998e-01 -1.2245462336688005e+01 -5.1320585883740186e+00 -5.8486843023619439e+00 1 2 0
2457 819 2 4.0999999999999998e-01 -5.9936718694285389e+00 -1.4968009680649324e+01 -2.4782659259755739e+00 2 0 -1
701 234 2 4.0999999999999998e-01 -1.0149395338258234e+01 -7.2749062578031243e+00 3.5787997486915799e+00 -2 3 0
1921 641 1 -8.1999999999999995e-01 -1.0893685809891810e+01 -5.9229838966235704e+00 6.7444132069261507e+00 1 1 1
4 2 1 -8.1999999999999995e-01 -1.3404108969841866e+01 -6.9202726964764718e+00 1.2741787662380055e-01 -1 2 0
1331 444 2 4.0999999999999998e-01 -1.4525559964754368e+01 -1.0401636145320900e+01 1.5142082847142291e+00 2 1 2
1500 500 2 4.0999999999999998e-01 -1.2429756778059399e+01 -1.0816533230180671e+01 2.6608240344290977e+00 3 1 0
1498 500 1 -8.1999999999999995e-01 -1.1472690649669786e+01 -1.0864477199263426e+01 2.9465948261118413e+00 3 1 0
1499 500 2 4.0999999999999998e-01 -1.1009870498038488e+01 -1.0011334012042436e+01 2.7060052412893292e+00 3 1 0
717 239 2 4.0999999999999998e-01 -7.7127415707969673e+00 -5.5432059099496147e+00 4.6693993544039394e+00 0 1 1
561 187 2 4.0999999999999998e-01 -1.2407233070184652e+01 -1.0592298265881469e+01 7.4022127151273196e+00 1 -2 0
1784 595 2 4.0999999999999998e-01 -1.1763788732659030e+01 -1.3311596901292829e+01 2.0052029828586591e+00 -1 3 1
952 318 1 -8.1999999999999995e-01 -9.4735129951749926e+00 -8.7561625287637828e+00 2.6126456929756365e+00 0 -1 -1
954 318 2 4.0999999999999998e-01 -9.0245204237886192e+00 -8.2108371414016759e+00 1.9048568362700387e+00 0 -1 -1
1838 613 2 4.0999999999999998e-01 -9.9501434270766005e+00 -1.1573726626944818e+01 6.9304908331087312e+00 -1 1 -1
953 318 2 4.0999999999999998e-01 -8.8591756407272424e+00 -8.8575889136812780e+00 3.3951043065728506e+00 0 -1 -1
1074 358 2 4.0999999999999998e-01 -1.2118890331625867e+00 -1.0035957772558106e+01 8.1599604620620880e-02 -1 1 0
422 141 2 4.0999999999999998e-01 -1.6587158875199641e+00 -8.7336767268381870e+00 4.9923132926591691e+00 -2 0 1
2282 761 2 4.0999999999999998e-01 -1.0765428111287090e+01 -1.1486897422954712e+01 4.4513981435402243e+00 1 0 -1
650 217 2 4.0999999999999998e-01 -1.2006139809209515e+01 -1.4402321228832664e+01 4.1138679064905048e+00 1 1 -1
649 217 1 -8.1999999999999995e-01 -1.2360757256360170e+01 -1.4624621348391104e+01 5.0220354443175275e+00 1 1 -1
773 258 2 4.0999999999999998e-01 -1.3708914428861757e+01 -1.0363646575667586e+01 5.6857155676171125e+00 0 3 0
1468 490 1 -8.1999999999999995e-01 -7.9009133858216494e+00 -8.0968261462022166e+00 6.2229803274220075e-01 1 2 1
1330 444 1 -8.1999999999999995e-01 -1.4115090779441820e+01 -1.0591665316147242e+01 2.4060284070037881e+00 2 1 2
233 78 2 4.0999999999999998e-01 -1.3620735600771440e+01 -7.6395163013737539e+00 3.8197957225563641e+00 1 2 -1
234 78 2 4.0999999999999998e-01 -1.3698465630475713e+01 -7.1663107289891448e+00 2.2588669002530395e+00 1 2 -1
232 78 1 -8.1999999999999995e-01 -1.3473100826195132e+01 -6.8775149087702001e+00 3.1893220814886867e+00 1 2 -1
2358 786 2 4.0999999999999998e-01 -8.9473237933001926e+00 -1.0611898258670429e+01 4.4016809228498808e+00 0 2 0
702 234 2 4.0999999999999998e-01 -1.1644319513957214e+01 -6.6179959817157794e+00 3.5904100287941603e+00 -2 3 0
1363 455 1 -8.1999999999999995e-01 -8.3799475829218153e+00 -1.3754991813775611e+01 3.8779148690642629e+00 -3 0 -1
700 234 1 -8.1999999999999995e-01 -1.0718583460692759e+01 -6.5474223784963854e+00 3.9618548872590686e+00 -2 3 0
2281 761 1 -8.1999999999999995e-01 -1.0175410449662433e+01 -1.1860342079985951e+01 5.1671896044965528e+00 1 0 -1
2283 761 2 4.0999999999999998e-01 -9.4797752741788308e+00 -1.2447369813867457e+01 4.7531493901975317e+00 1 0 -1
1031 344 2 4.0999999999999998e-01 -1.2476952699022927e+01 -1.2969163702024140e+01 6.1751885319378275e+00 1 1 1
1030 344 1 -8.1999999999999995e-01 -1.2866473851940917e+01 -1.2329912042077526e+01 6.8381890863331556e+00 1 1 1
715 239 1 -8.1999999999999995e-01 -7.0677680665541427e+00 -5.1446944037390132e+00 4.0173741275761685e+00 0 1 1
1470 490 2 4.0999999999999998e-01 -7.4021490116023783e+00 -8.8859776707893090e+00 9.8064580644900268e-01 1 2 1
2008 670 1 -8.1999999999999995e-01 -8.1725689763896234e+00 -6.2746864113180720e+00 6.6921766370744962e+00 0 2 1
1364 455 2 4.0999999999999998e-01 -8.3848396150528721e+00 -1.3954068769073139e+01 2.8979742627150102e+00 -3 0 -1
1922 641 2 4.0999999999999998e-01 -1.1345321377912889e+01 -6.1534016457946716e+00 5.8825129169913097e+00 1 1 1
2497 833 1 -8.1999999999999995e-01 -2.2639585449941801e+00 -5.6796798012316128e+00 4.2609899539379938e+00 -2 1 -1
2190 730 2 4.0999999999999998e-01 -4.3486087283151296e+00 -1.2410031622139972e+01 1.9032062875345837e+00 1 1 -2
1192 398 1 -8.1999999999999995e-01 -8.6911150864668922e+00 -8.8328139483882193e+00 7.2328676613947813e+00 0 1 0
2356 786 1 -8.1999999999999995e-01 -8.2565936555919883e+00 -9.9079610970024579e+00 4.5669186940648601e+00 0 2 0
1332 444 2 4.0999999999999998e-01 -1.4710713629036929e+01 -1.0240921132708452e+01 3.1286286282729243e+00 2 1 2
1193 398 2 4.0999999999999998e-01 -8.7460517807813467e+00 -9.0430112311527768e+00 6.2567845683070757e+00 0 1 0