2593
Atoms. Timestep: 1000000
O 12.309 6.08829 6.11414
H 11.3567 6.39144 6.07931
H 12.656 6.18584 7.04694
O -7.89064 -10.0197 1.0135
H -8.08559 -9.83827 1.97739
H -7.02104 -10.5073 0.93536
O 10.5329 6.48156 -1.33829
H 11.2894 5.82761 -1.33209
H 10.8518 7.35668 -1.70233
O 3.16758 12.1236 4.315
H 3.09545 12.9919 3.82433
H 2.29443 11.6387 4.26459
O 3.22499 2.84951 -2.15325
H 3.82551 3.26061 -1.4674
H 3.77724 2.37114 -2.83604
O 5.85714 -12.4743 -4.6771
H 5.20974 -12.618 -3.92861
H 6.64141 -13.0838 -4.56107
O -3.23367 0.277159 -14.0104
H -3.35504 -0.654872 -14.3518
H -4.1252 0.665353 -13.7769
O -14.2927 -3.09464 12.7953
H -14.1004 -2.45822 13.5423
H 15.0003 -3.73897 13.0808
O 12.2003 3.4549 -3.49385
H 12.4605 2.49143 -3.5572
H 11.9577 3.6732 -2.54858
O -0.24186 1.86473 -9.2661
H -0.342628 0.901718 -9.51604
H 0.14218 1.93166 -8.3452
O -2.76574 -11.7461 -5.98569
H -3.62578 -11.2368 -6.01732
H -2.6067 -12.1869 -6.86912
O 5.91733 0.478572 -4.16777
H 5.2624 -0.236939 -3.92461
H 6.18687 0.977606 -3.34417
O -0.871216 -14.1552 -5.80683
H -1.76352 -14.0826 -5.36127
H -0.909913 -13.7155 -6.70414
O -4.52527 5.46216 6.87137
H -4.40801 4.49303 7.08829
H -4.97728 5.92243 7.63548
O -13.574 5.54607 -6.50387
H -14.5363 5.68924 -6.73531
H -13.5019 4.83727 -5.80215
O -8.88453 -14.2041 -11.858
H -9.07305 -13.2412 -11.6649
H -7.97937 -14.4434 -11.5067
O 7.36086 -9.55133 -4.76885
H 7.67071 -8.93191 -4.04752
H 7.66483 -10.4815 -4.56279
O -10.1333 -13.8224 6.90253
H -10.4403 -14.7733 6.94266
H -9.72513 -13.5667 7.77891
O -5.2412 -13.0092 -13.1645
H -4.44289 -12.457 -12.9241
H -5.49267 -13.5873 -12.3882
O 11.0772 -0.381879 -0.39872
H 11.3749 -0.198432 0.538169
H 11.7987 -0.871978 -0.887779
O 10.853 9.1686 7.014
H 11.5793 9.5322 7.59736
H 11.2349 8.91481 6.12532
O 7.85769 -5.94104 0.0117685
H 7.91058 -5.80988 1.00173
H 8.32776 -5.18867 -0.44973
O 4.44636 11.5709 -4.84041
H 4.97715 10.7326 -4.96494
H 4.98456 12.3552 -5.14915
O 10.7748 9.09424 -2.27732
H 10.0322 9.22696 -2.9337
H 10.7942 9.86147 -1.63622
O -1.14061 -9.23294 -10.9773
H -0.721673 -9.99395 -10.4819
H -0.965508 -8.37927 -10.4867
O 1.56358 -4.06622 -8.42251
H 1.43286 -3.63576 -9.31561
H 1.54181 -5.06068 -8.52542
O 11.2447 -7.58364 -1.68097
H 11.597 -8.32065 -1.10415
H 11.2158 -7.8899 -2.63249
O 12.8737 -8.89819 -4.68846
H 12.4379 -9.5987 -4.12329
H 12.3258 -8.74511 -5.51091
O -7.64921 5.64499 4.6827
H -8.41133 5.75213 5.32123
H -7.0712 6.46043 4.71376
O 6.5177 13.3308 12.8333
H 7.30323 13.9359 12.9632
H 6.48777 12.6598 13.5741
O -0.525107 13.6298 5.02417
H -0.156244 12.726 5.24103
H -1.51908 13.5708 4.93173
O 1.72011 -8.88907 8.23729
H 2.45259 -8.2784 8.53826
H 1.56551 -9.59175 8.93181
O -10.356 9.14287 -2.99289
H -9.56662 9.00757 -2.39402
H -10.0423 9.42991 -3.89802
O 2.91044 -6.48303 -12.871
H 1.93842 -6.33355 -13.0523
H 3.07904 -6.4235 -11.8871
O 6.11595 -14.4252 10.4902
H 6.85294 14.9078 10.3972
H 5.56182 -14.6487 11.292
O 11.5774 3.84605 -0.803745
H 11.8378 4.14192 0.115307
H 11.0646 2.98948 -0.745377
O 1.60003 -12.8192 11.8657
H 1.6003 -12.0124 12.4565
H 1.31178 -13.6184 12.3931
O -8.63229 -3.68266 12.8163
H -9.47135 -3.94401 13.2935
H -8.83463 -3.52123 11.8504
O -10.7178 0.492334 8.16882
H -9.98327 0.32712 8.82696
H -11.3021 -0.317176 8.11128
O 9.47084 2.22449 1.06657
H 9.30596 1.86387 0.148532
H 8.59684 2.36165 1.53274
O -3.42667 -10.4151 -12.298
H -2.47735 -10.1209 -12.1872
H -4.02761 -9.61603 -12.2792
O -6.14558 -6.42856 2.44933
H -7.00099 -6.25311 1.96197
H -5.85629 -5.59764 2.92463
O 5.81675 -0.930906 -8.55168
H 5.97007 -1.64615 -9.23354
H 6.175 -0.0621349 -8.8936
O 12.2597 9.83607 14.087
H 11.8508 9.65536 13.1925
H 12.9518 10.5525 13.9985
O -13.2385 8.362 -12.164
H -12.4798 7.94067 -12.661
H -13.9733 8.58536 -12.8043
O 14.77 5.71772 -13.7099
H 14.732 6.68559 -13.9585
H 13.8405 5.36092 -13.6164
O 2.60713 3.63651 3.69909
H 1.98366 4.03156 4.3738
H 2.37691 2.67395 3.55593
O -12.4298 8.60644 9.28998
H -13.3257 8.22361 9.06477
H -12.4461 9.59668 9.15149
O 13.8075 1.59363 3.75134
H 13.7057 1.98155 4.6674
H 14.4298 2.16396 3.21512
O -8.17523 9.92014 -5.33779
H -8.80936 9.85322 -6.10812
H -7.29159 10.258 -5.66185
O -6.30543 7.10562 10.4068
H -5.51834 7.24406 11.0079
H -6.6191 7.98937 10.0595
O 9.99825 -5.90468 11.3527
H 10.747 -5.24231 11.3797
H 9.71219 -6.12262 12.2858
O 7.62858 13.627 4.34368
H 7.06373 14.4452 4.45115
H 7.15141 12.9663 3.76419
O -3.20253 3.28008 -14.6962
H -2.36204 3.79053 -14.8779
H -2.97189 2.35906 -14.3822
O -0.831566 6.32951 2.44499
H -0.986665 6.33751 3.43286
H -1.57128 6.82296 1.98744
O 14.1285 4.42136 10.1493
H 14.5421 3.5224 10.0048
H 13.8215 4.49843 11.0979
O 8.16362 -5.95245 9.50326
H 7.8366 -6.89694 9.53519
H 9.03086 -5.88314 9.99631
O 2.08132 7.51951 6.47485
H 2.2776 8.05932 5.65626
H 2.66179 7.83154 7.22699
O 7.13996 -8.50438 8.71466
H 6.26562 -8.77932 8.31471
H 7.88356 -8.99326 8.25852
O -1.56974 -13.1626 -8.26774
H -1.23197 -12.3821 -8.7939
H -2.09532 -13.7663 -8.86716
O 6.90322 -3.98645 -14.0542
H 6.45269 -4.87898 -14.0753
H 7.47319 -3.92001 -13.2352
O 12.3449 9.94876 -13.1908
H 12.1844 10.8181 -12.7232
H 12.0577 10.0258 -14.1455
O -14.3324 14.8092 13.0632
H -13.4221 14.9838 12.6879
H -14.5486 -14.499 13.7497
O -7.09501 -13.4334 14.6974
H -7.79947 -13.0477 -14.7093
H -6.23209 -13.4961 -14.8036
O 11.5325 -9.53983 13.4073
H 11.9717 -10.3002 12.9289
H 10.9794 -9.0142 12.7609
O 7.6071 -11.3971 7.15
H 8.54023 -11.4248 6.79151
H 7.04474 -10.8072 6.57053
O -7.31025 9.87555 9.75842
H -6.54678 10.4182 9.40823
H -7.9602 9.69875 9.01929
O -3.81455 10.9865 -4.56612
H -2.99086 10.8823 -5.12352
H -3.91348 10.1928 -3.96592
O -7.48696 -1.98599 -14.5368
H -6.81266 -2.52737 14.9635
H -8.3683 -2.45838 -14.5472
O -1.937 11.8377 8.71496
H -2.13842 11.2143 9.47052
H -2.7503 11.9412 8.14238
O -2.13375 14.7353 9.48951
H -2.06627 13.8648 9.97705
H -2.13545 -14.5152 10.1487
O 0.102168 -9.88289 6.49103
H 0.644415 -10.694 6.27161
H 0.634249 -9.2759 7.08134
O -12.3135 8.45476 1.05941
H -11.9058 7.90653 0.329162
H -11.7811 8.34132 1.89826
O 12.0423 -14.3201 -3.01641
H 11.3671 14.961 -2.86233
H 12.218 -13.839 -2.1575
O -2.46312 10.4099 10.7864
H -1.69934 10.0354 11.3122
H -3.19567 10.682 11.4103
O 3.69756 7.69456 -4.15456
H 3.96986 8.22915 -3.35451
H 2.84411 7.21181 -3.95814
O -6.72437 11.2139 -11.0358
H -7.56237 10.7476 -11.3192
H -5.99142 11.0051 -11.6832
O -13.9974 -7.4281 -0.951845
H -14.4669 -7.94139 -1.67028
H -13.0118 -7.44496 -1.11992
O 2.39974 13.9312 8.43272
H 2.06316 14.8496 8.22473
H 2.10673 13.6691 9.35222
O -5.37712 -7.88404 -12.3764
H -6.07723 -7.96211 -11.6667
H -5.807 -7.62618 -13.2417
O 9.72854 -3.17073 -8.27628
H 10.7145 -3.31399 -8.19056
H 9.28452 -4.03699 -8.50533
O -12.6896 5.51944 2.91184
H -13.2907 6.14166 2.41028
H -11.842 5.38816 2.39771
O 14.3125 -12.7363 9.73933
H 13.8423 -13.4702 10.2296
H -14.7632 -13.0312 9.50678
O 0.630259 -9.31155 -2.8161
H 0.117012 -9.54344 -1.98977
H 0.0252235 -9.3657 -3.61047
O -4.44151 3.45352 -1.22757
H -4.62664 3.2759 -2.19412
H -5.16668 4.02909 -0.849593
O -5.92337 -2.01179 -6.80425
H -5.5057 -1.75523 -7.67589
H -5.42735 -2.78657 -6.41222
O -11.1312 -6.84244 1.33448
H -11.2054 -7.01972 0.353116
H -11.3418 -7.67852 1.84109
O 6.41572 -6.39858 3.57916
H 6.9371 -5.55255 3.46779
H 6.98762 -7.17849 3.32482
O -6.3585 -4.43415 13.9548
H -5.60346 -4.07639 13.4053
H -7.20751 -3.97459 13.694
O 4.83646 -4.9728 12.5241
H 5.79714 -4.72063 12.6403
H 4.59509 -4.92807 11.5547
O -8.46142 9.27553 -0.928216
H -8.67115 9.29191 0.0494152
H -8.17078 10.1861 -1.22206
O 3.99196 -0.900388 11.0722
H 3.20189 -1.48561 11.2547
H 4.48557 -1.24613 10.2742
O -8.29812 -1.19357 3.68533
H -8.31886 -0.337092 3.16955
H -8.78793 -1.90125 3.17611
O -6.67465 -2.36406 -2.08749
H -6.56917 -1.3725 -2.16301
H -7.48394 -2.65308 -2.59889
O 1.05664 14.004 -6.15905
H 0.276398 14.6289 -6.13255
H 0.875536 13.2194 -5.56609
O 0.863598 0.19675 9.74517
H -0.0436859 0.616354 9.77319
H 1.44926 0.622678 10.4348
O 5.19835 4.64091 -0.775778
H 5.58231 5.55857 -0.878274
H 4.92179 4.49957 0.174776
O -7.01986 1.9073 -10.019
H -6.17488 1.5724 -9.60205
H -7.76745 1.27699 -9.8097
O 3.11088 14.493 -14.2467
H 2.76385 13.7812 -14.8574
H 3.18924 -14.6484 -14.749
O -7.12763 -7.04209 -14.3569
H -7.44968 -7.92756 -14.692
H -6.83406 -6.47989 14.8724
O -5.51439 -9.40737 -4.79049
H -5.27732 -9.67934 -3.85783
H -6.39995 -8.94284 -4.78731
O 0.115543 11.78 14.8883
H 1.09661 11.6304 14.7651
H -0.292177 10.9766 -14.6803
O 6.97572 3.21531 2.48207
H 7.63039 3.95124 2.65481
H 6.12754 3.60192 2.11994
O 7.35796 1.98425 4.98396
H 6.8786 2.77041 5.37409
H 7.35142 2.05141 3.98623
O -1.81275 -4.64146 6.16461
H -2.16976 -3.8638 5.64711
H -2.54917 -5.04859 6.70494
O 14.1618 1.57421 6.68776
H 13.4869 1.21436 7.33201
H -14.9961 1.04349 6.7587
O 5.44616 -5.20721 9.754
H 6.4443 -5.26787 9.76183
H 5.16171 -4.47246 9.13818
O 14.8255 8.10889 6.89029
H 14.3494 7.51878 6.23832
H 14.6127 7.81567 7.82236
O 3.36603 -9.10955 -13.268
H 3.18158 -8.14675 -13.0705
H 3.15236 -9.3001 -14.2262
O -1.11597 -4.38308 9.16519
H -1.20275 -4.46436 8.17227
H -1.59117 -3.55954 9.475
O 6.07402 12.2694 -14.7443
H 6.35935 12.7746 -13.9298
H 5.08051 12.328 -14.8418
O -13.9348 -2.54277 0.191279
H -13.8461 -2.05212 1.05812
H -14.6501 -2.11562 -0.361858
O 6.2087 -6.27785 -6.94827
H 5.91414 -6.34248 -5.99481
H 5.581 -5.68392 -7.45152
O -10.1979 6.99148 9.31751
H -9.38663 7.45052 8.95535
H -10.9961 7.58188 9.19811
O 4.74531 4.62715 2.08052
H 4.58965 5.59888 2.2581
H 4.08383 4.08371 2.59736
O -7.91072 13.0704 13.7883
H -6.96846 13.1379 13.4602
H -8.5381 13.1108 13.0106
O -2.77145 -4.72439 14.8032
H -2.72486 -5.56526 14.264
H -1.85417 -4.33732 14.897
O 9.24177 -8.36452 0.300177
H 9.9178 -8.32383 -0.435585
H 8.6308 -7.57551 0.235467
O 14.1966 7.69652 -8.02011
H 13.6967 7.20824 -8.73543
H 14.4677 8.59758 -8.35866
O -3.49599 -14.0196 13.8974
H -2.8049 -13.8012 13.2084
H -3.14305 -13.7962 14.806
O 11.6105 -4.8112 -1.22849
H 12.5969 -4.8071 -1.39283
H 11.3003 -5.75104 -1.08519
O 0.993875 11.8885 -4.31794
H 1.5045 11.4858 -5.07761
H 1.24792 11.431 -3.46583
O -8.91098 6.62331 -0.832613
H -8.48853 7.52067 -0.960228
H -9.90603 6.72203 -0.820498
O 4.47897 -4.57058 -8.73096
H 3.69897 -4.16149 -8.25738
H 5.0652 -3.84662 -9.0946
O -12.0205 1.9258 3.40399
H -11.9442 2.60175 4.137
H -12.8088 2.14501 2.82911
O -0.389371 -9.03747 -13.61
H -0.5645 -8.87084 -12.6397
H -0.211812 -10.011 -13.7543
O 2.92713 14.7487 2.88924
H 2.38572 -14.9797 2.09441
H 3.02351 -14.4765 3.511
O -0.132299 -12.1713 -12.0203
H 0.858178 -12.1409 -12.1546
H -0.345155 -11.9734 -11.0634
O -10.0058 4.37551 9.75499
H -10.1065 5.37037 9.74366
H -9.18805 4.12918 10.2752
O -8.35304 0.628103 -0.367753
H -8.77102 -0.0690246 0.214757
H -8.95849 0.824856 -1.13895
O 2.31685 -0.185256 -4.97383
H 2.71227 0.68447 -4.67847
H 2.6949 -0.43791 -5.86449
O 12.112 8.6838 -10.8331
H 11.9378 9.18156 -11.6827
H 13.0654 8.81292 -10.5605
O 4.0907 2.47792 -7.78964
H 3.86027 2.1614 -6.86946
H 3.26544 2.81554 -8.2424
O -6.89449 4.47011 -0.177257
H -7.46547 5.22111 -0.508922
H -7.47181 3.78027 0.259587
O 14.9153 6.87986 9.37355
H 14.3305 7.33816 10.0429
H 14.7856 5.8905 9.43972
O 14.5321 8.56875 -13.6771
H 13.6498 8.95702 -13.4109
H 14.8039 8.93742 -14.566
O 5.43932 -10.0156 -12.0767
H 5.94583 -9.21362 -11.7601
H 4.65874 -9.72069 -12.6278
O -5.17037 -0.220957 -4.47653
H -5.13901 -1.21441 -4.5865
H -5.49368 0.00257008 -3.55701
O -5.29225 -13.953 11.7866
H -6.24256 -13.8593 12.0835
H -4.68767 -13.896 12.5811
O 11.077 -12.2615 -8.08004
H 10.3548 -11.6973 -7.67982
H 10.7694 -12.621 -8.96105
O -1.59952 -11.4308 4.37173
H -1.1953 -10.5445 4.14592
H -1.07741 -11.8567 5.11066
O -10.3592 -0.547387 12.9368
H -10.2888 -0.408314 11.949
H -9.49027 -0.307975 13.3699
O 2.10927 9.95476 -6.22952
H 3.07925 9.76608 -6.07606
H 1.89973 9.85312 -7.20203
O 12.9857 12.1109 -8.81262
H 13.7473 12.2739 -8.18534
H 13.1615 12.5786 -9.67889
O -1.80728 9.5118 3.65433
H -2.46117 10.148 3.24483
H -2.2985 8.83946 4.20811
O 12.0669 -4.31612 11.6765
H 12.3628 -3.43367 11.3107
H 12.5902 -4.52716 12.502
O -6.42526 -14.8329 -0.993444
H -5.74336 14.4985 -0.702558
H -6.51388 -14.8578 -1.9892
O 13.646 -13.3757 6.11545
H 13.6185 -13.4499 5.11858
H 13.8547 -12.4325 6.37387
O 6.79426 -7.68097 -10.8694
H 7.48953 -7.05634 -10.5138
H 6.38607 -8.19121 -10.1124
O -12.7307 14.0818 -6.30973
H -12.9117 14.9453 -5.83877
H -11.9017 14.1707 -6.86184
O -0.325243 9.33051 -1.03582
H -0.937468 10.0906 -0.817812
H -0.849252 8.59115 -1.45863
O 8.41874 -11.6706 -3.55931
H 9.32701 -12.03 -3.77357
H 7.88451 -12.3734 -3.08951
O -0.659197 -9.88891 12.0272
H -0.244761 -9.1506 11.4951
H -1.6207 -9.98595 11.7701
O 0.530027 6.64449 -10.7885
H 0.169191 7.27263 -10.0992
H 1.29992 6.13472 -10.4046
O 1.59813 9.81012 9.18923
H 2.41749 9.39093 8.79817
H 1.27541 10.5384 8.58472
O -7.83019 -0.0848487 -5.66514
H -7.99707 -0.868585 -6.26341
H -6.85238 -0.0197963 -5.46597
O 11.112 4.45995 13.1179
H 11.7052 3.68959 12.8839
H 11.6702 5.27477 13.2746
O -8.80292 -6.89861 -8.87085
H -9.30413 -6.36496 -8.18966
H -8.52012 -6.30046 -9.62069
O -9.65217 4.5772 -3.56473
H -9.17217 3.81021 -3.99057
H -9.1359 4.89286 -2.7686
O -9.47204 -3.67693 10.2359
H -10.4377 -3.91833 10.3324
H -9.03823 -4.29399 9.57936
O 6.32815 -13.6591 14.3588
H 6.95857 -14.401 14.1305
H 6.82853 -12.7938 14.3885
O -4.6156 -14.1742 -6.71609
H -4.78166 -13.4862 -7.42252
H -5.45475 -14.6928 -6.55213
O -10.3725 5.14495 1.6613
H -10.1332 4.18042 1.54979
H -9.80072 5.702 1.059
O 1.21467 -12.3407 6.06873
H 1.89401 -12.831 5.52275
H 0.825335 -12.9598 6.75076
O 3.439 9.3007 -11.4389
H 3.49314 8.38176 -11.8296
H 4.3564 9.69524 -11.3866
O -12.8495 0.409131 0.90456
H -12.6429 0.54562 1.87342
H -13.8226 0.575182 0.744652
O 10.7798 -2.04693 13.1547
H 10.4016 -2.04216 14.0804
H 11.4153 -1.28187 13.0502
O -1.19575 4.59613 -11.9488
H -0.481377 5.25018 -11.7
H -0.787122 3.82727 -12.4406
O 8.05362 0.688642 13.5214
H 7.3539 -0.0142193 13.3934
H 8.9236 0.364486 13.1499
O 14.009 -4.45834 7.20804
H 14.0116 -3.46456 7.31947
H 13.2903 -4.85584 7.77853
O -8.40388 -0.127706 -12.337
H -8.04965 -0.902694 -12.8604
H -8.1596 0.725402 -12.7981
O 7.23501 -2.00547 7.33197
H 7.27973 -2.99831 7.22114
H 7.73692 -1.56411 6.58812
O -0.0376608 2.2365 -3.59934
H 0.184582 3.20418 -3.48009
H 0.600495 1.67993 -3.06736
O 12.5642 0.92064 -3.82696
H 11.581 0.748158 -3.76575
H 12.8734 0.757807 -4.7639
O 8.35415 -2.60774 11.5543
H 9.25804 -2.66965 11.9776
H 7.84396 -3.44898 11.7333
O 11.7041 2.6915 -10.1691
H 12.3602 3.43767 -10.282
H 10.7969 3.07024 -9.98555
O 10.3798 -1.68969 5.38149
H 11.297 -1.49316 5.03493
H 10.3719 -2.59311 5.81019
O 1.8033 -2.30658 11.021
H 1.169 -1.97355 10.3233
H 1.36571 -2.25969 11.919
O 13.6981 -13.8591 -9.64999
H 13.7755 -12.9358 -9.27353
H 14.1562 -14.5068 -9.04117
O -14.3323 3.26662 2.25729
H -14.089 4.13353 2.69235
H -14.2701 3.36321 1.2639
O 14.1095 -2.08287 10.9607
H 14.5112 -2.43992 10.1174
H 14.6371 -2.40881 11.7452
O -3.35594 4.74573 3.26787
H -3.50274 5.69054 2.97496
H -3.43486 4.13614 2.47908
O -5.32006 -10.3978 4.94612
H -5.06936 -9.63334 4.35217
H -5.05463 -11.2585 4.5116
O 13.2437 -5.61632 2.61986
H 13.7986 -5.15483 1.92766
H 12.8791 -4.94005 3.25997
O 8.07636 11.8155 -3.17814
H 8.18777 12.2448 -4.07442
H 8.85725 12.0474 -2.5981
O -10.1264 13.5872 -7.47263
H -10.0749 13.2094 -8.39709
H -9.3913 14.2528 -7.34319
O 14.4411 -10.7755 6.62152
H 13.5732 -10.5362 6.18629
H -14.8966 -10.0454 6.46303
O -12.353 -1.22033 14.6817
H -11.5161 -0.950792 14.2053
H -12.116 -1.67813 -14.4639
O 5.27627 10.8217 8.19809
H 5.73765 11.0405 9.0579
H 4.7182 11.6006 7.91172
O 7.45271 -14.1886 -3.044
H 7.80687 -14.3394 -3.96696
H 6.96098 14.9986 -2.73834
O -7.35441 -5.80667 -1.66479
H -6.42774 -5.70967 -1.30161
H -8.00023 -5.90711 -0.907924
O -12.0989 -2.38498 8.34907
H -12.1117 -2.45192 9.34675
H -11.6812 -3.20847 7.96508
O 11.5549 7.0255 13.7358
H 11.6576 7.60827 14.5419
H 10.6253 7.11252 13.3778
O 5.58379 -14.2887 7.18192
H 5.83311 -14.3016 8.15027
H 5.13346 14.8537 6.94225
O 9.35258 5.7317 5.76497
H 9.61016 4.96966 6.35908
H 8.88102 6.42978 6.30379
O -8.96033 -6.68593 13.2416
H -8.77135 -5.71247 13.3708
H -9.94712 -6.82593 13.16
O 3.55824 -13.1523 -6.56287
H 4.25887 -12.6546 -6.05156
H 3.43178 -12.7245 -7.45787
O 14.345 4.76699 4.4139
H 13.3918 4.87695 4.6954
H 14.9405 4.85293 5.21268
O -1.11127 -6.79659 -9.03306
H -1.05042 -5.89558 -8.60354
H -0.448013 -7.41339 -8.60919
O 0.222923 5.7774 -0.621173
H 0.0139423 4.94713 -0.104457
H 0.77244 6.39246 -0.0557087
O 12.7903 4.10495 1.68843
H 12.1549 3.64606 2.30947
H 13.7191 4.03921 2.05336
O 0.510474 -11.268 2.05077
H -0.109554 -10.8919 2.73934
H 1.40855 -10.8373 2.14012
O -6.82148 5.84138 13.6687
H -6.42245 6.73867 13.8575
H -7.78918 5.9483 13.4403
O 2.54283 -5.52522 6.67957
H 2.38579 -5.17071 7.60135
H 3.4611 -5.27046 6.37643
O 3.5963 -4.92745 -5.58412
H 2.79103 -4.51839 -5.15492
H 4.29108 -5.10568 -4.88732
O -12.6261 -5.67087 3.85045
H -12.2039 -5.89886 2.97304
H -12.3651 -4.74237 4.11463
O 10.1568 -9.36247 -9.83286
H 10.252 -9.8558 -10.6975
H 9.4119 -9.76422 -9.30015
O -10.1953 -3.26928 -1.01444
H -9.64079 -3.29519 -1.84624
H -11.147 -3.47566 -1.24171
O -2.3729 -9.00763 14.4559
H -1.56992 -8.96872 -14.9518
H -2.30464 -9.80436 13.8554
O -5.11148 -14.4589 5.47435
H -6.03291 -14.8366 5.38317
H -4.79997 -14.1218 4.58587
O -7.48158 -7.16419 -6.30553
H -8.14012 -6.99568 -7.03898
H -6.93069 -6.34293 -6.15701
O 7.32163 -13.021 -8.94442
H 6.63148 -12.7329 -9.60828
H 6.91633 -13.6735 -8.30416
O -11.7945 2.12085 -6.50929
H -12.5597 1.49463 -6.65868
H -11.2111 2.13403 -7.32142
O -1.01568 8.57839 -11.7137
H -0.552603 7.70484 -11.5637
H -1.68784 8.72813 -10.9886
O -10.7002 9.59623 -13.2765
H -10.886 10.4877 -13.6897
H -10.0718 9.08257 -13.8608
O -8.02641 -11.9891 -9.94297
H -7.83092 -12.6716 -9.23875
H -7.90707 -11.0726 -9.56113
O 13.1753 -14.8095 10.849
H 13.789 14.4087 10.9396
H 12.471 14.9883 10.1692
O 0.504281 -10.7646 -6.76544
H 0.0189765 -10.2305 -6.07316
H 1.02384 -11.4938 -6.32012
O -10.7648 13.7737 7.9249
H -11.0044 13.8096 8.89513
H -11.3772 13.1389 7.45364
O 1.37442 -12.8023 -5.04794
H 0.505385 -13.2826 -5.1667
H 2.07916 -13.2466 -5.601
O -10.3984 -9.29471 10.2257
H -9.70966 -10.0192 10.2528
H -10.8686 -9.2486 11.107
O 1.07262 -10.8352 13.7808
H 0.37286 -10.4012 13.2133
H 1.84943 -10.2141 13.8851
O -8.67936 -12.9549 1.86699
H -8.57097 -13.8875 1.52276
H -7.81288 -12.4637 1.7775
O -9.56233 7.82731 14.7567
H -8.75526 8.41127 14.8442
H -9.55953 7.38718 13.8588
O 3.59366 6.72762 -12.0604
H 2.80316 6.19356 -12.3603
H 4.40236 6.13997 -12.0341
O -10.4815 10.3004 10.9953
H -9.73763 10.9685 11.0141
H -11.1297 10.5435 10.2737
O 12.4119 -4.05939 -7.19336
H 11.9519 -3.80038 -6.34401
H 12.3595 -5.05098 -7.31178
O 3.92158 14.6705 -3.80208
H 3.41126 14.7245 -4.66039
H 3.60234 13.884 -3.27336
O 11.138 -8.64714 -6.76507
H 11.0169 -9.31916 -7.49565
H 10.3596 -8.01935 -6.75726
O -8.37309 -9.52446 -5.4588
H -7.95416 -8.63398 -5.63647
H -8.35185 -10.0752 -6.29319
O 14.3548 12.4315 13.3598
H 14.763 13.3095 13.11
H 13.5987 12.2266 12.7383
O -4.14493 -12.684 3.45611
H -3.89209 -13.2848 2.69778
H -3.35794 -12.1234 3.71392
O 10.9026 3.26607 3.55141
H 10.5361 2.40502 3.90391
H 10.644 4.0137 4.1631
O -8.80316 -5.72621 6.3992
H -8.78028 -5.37107 5.46465
H -8.41749 -6.64872 6.41474
O -4.62527 8.50221 -3.54069
H -5.47211 8.23011 -3.99769
H -3.9796 7.73869 -3.55318
O -12.5487 8.66617 12.1188
H -11.6694 9.0856 11.8931
H -12.8158 8.03816 11.3878
O 3.56837 9.18206 -14.8738
H 4.17434 8.39589 -14.9953
H 2.70509 8.87833 -14.4707
O 5.80612 4.25514 5.06053
H 4.92308 4.27164 4.59152
H 6.50675 4.64966 4.46597
O -6.692 -1.4769 8.4898
H -7.16064 -1.11824 7.68248
H -6.74567 -2.47547 8.49019
O 1.07353 7.8991 0.79936
H 0.431404 7.48714 1.44587
H 0.573836 8.48312 0.159635
O 0.107352 9.84734 11.5809
H 0.883752 9.66026 12.1828
H 0.411956 9.8295 10.6286
O -1.62791 1.03744 10.0592
H -2.02143 1.85099 9.63107
H -2.20056 0.755917 10.8292
O -3.56738 7.5489 4.78229
H -2.92833 7.32885 5.51931
H -4.49791 7.58275 5.14698
O -12.7284 -11.3098 7.90896
H -12.8572 -10.7098 7.11939
H -12.4368 -10.7666 8.6963
O -0.992612 11.8671 -0.527275
H -1.13018 12.6714 -1.10538
H -0.0189924 11.7664 -0.32248
O -10.6401 9.04953 5.44666
H -10.4857 10.0303 5.32726
H -11.5822 8.8274 5.19544
O 4.81346 -4.00454 -2.22068
H 5.47219 -4.74114 -2.37395
H 4.12085 -4.30762 -1.56612
O 5.46719 -9.47863 6.54074
H 4.85446 -10.0393 7.0977
H 4.99908 -9.20831 5.69943
O 2.9882 -0.706097 8.09278
H 2.44796 -1.37652 7.58416
H 2.457 -0.371331 8.87109
O 11.8373 -5.0272 8.7482
H 11.9557 -6.004 8.56975
H 11.9045 -4.85742 9.7314
O -5.15163 2.89914 -3.77001
H -4.33492 2.4332 -4.11046
H -5.96585 2.38664 -4.04277
O 14.0372 7.74906 -5.27414
H 13.9646 7.81279 -6.26947
H 14.9542 8.02736 -4.98831
O 4.52581 -1.71233 -3.54509
H 4.55951 -2.52562 -2.96419
H 3.57269 -1.48301 -3.74255
O -12.9244 4.33035 11.6475
H -13.0577 4.45888 10.6648
H -12.1867 3.67289 11.8006
O 11.3712 6.5169 1.57287
H 10.8461 6.60441 0.726324
H 12.1002 5.84442 1.44492
O -4.16702 12.4674 7.09885
H -3.77691 12.5847 6.18557
H -5.01664 12.9902 7.16805
O 3.10569 -6.80748 9.37597
H 4.06175 -6.53583 9.48637
H 2.52205 -5.99642 9.41546
O -14.2726 -7.62921 4.4572
H -14.5453 -7.98056 3.56153
H -13.8255 -6.74174 4.34511
O 0.779479 1.99479 -6.75977
H 0.991269 1.34184 -6.03256
H 1.02348 2.91735 -6.46083
O 0.785517 6.88041 14.3708
H 1.06282 7.59425 -14.9886
H 1.07685 7.13181 13.4478
O 1.63994 -4.71014 9.57849
H 1.82076 -3.81854 9.99366
H 0.65274 -4.8418 9.48836
O -13.9504 -10.299 10.2691
H -14.247 -9.37494 10.0279
H -14.4606 -10.9654 9.72527
O -12.7718 11.5436 9.63952
H -12.8014 11.8874 8.70093
H -13.482 11.9928 10.1816
O 9.2825 -14.6876 -1.26447
H 8.5673 -14.4903 -1.93498
H 9.68576 14.421 -1.46051
O -8.92845 7.50525 12.1693
H -8.04447 7.4611 11.7038
H -9.48349 8.23082 11.7625
O -10.3211 1.62498 -11.2785
H -10.0432 2.51354 -11.6434
H -9.76711 0.904912 -11.6963
O -2.30646 14.9932 -10.6157
H -2.83076 -14.1605 -10.5468
H -2.11186 14.7987 -11.5771
O -5.17465 2.50831 7.06037
H -5.41737 2.6584 6.10194
H -5.89388 2.87856 7.64827
O 6.10759 -8.73641 -8.33079
H 6.18519 -9.45089 -7.63545
H 5.98945 -7.84902 -7.88515
O 7.9784 -12.534 9.97196
H 7.84373 -12.4157 8.98814
H 7.41104 -13.2903 10.2975
O 4.04391 -6.24475 2.02277
H 4.88893 -6.26695 2.55707
H 3.97144 -5.36652 1.55003
O 13.0555 -5.39415 -11.8099
H 13.87 -5.22006 -11.2565
H 12.3833 -5.89568 -11.2652
O 11.3666 10.2686 -8.84602
H 12.1333 10.9015 -8.73882
H 11.5678 9.62311 -9.58285
O 13.5057 5.89676 -3.36744
H 13.5337 6.60352 -4.07435
H 13.0945 5.06605 -3.74277
O 9.93731 0.383056 10.7012
H 9.68366 -0.534159 10.3939
H 10.7938 0.337365 11.2154
O -11.2181 5.72138 -14.4483
H -11.9243 5.95666 14.8864
H -10.4885 6.40458 -14.48
O 0.289233 -6.13967 -1.24448
H -0.553545 -5.65423 -1.47705
H 0.903996 -6.13687 -2.0332
O 2.88774 -4.59662 14.6365
H 3.51841 -4.76315 13.8786
H 3.28018 -4.95823 -14.5202
O -11.4888 9.92555 -5.66075
H -11.9983 10.4935 -6.3072
H -10.6029 9.68308 -6.05633
O -14.5687 -8.25844 -5.84045
H -13.743 -8.77348 -5.61033
H 14.6288 -8.82881 -5.67709
O 5.80855 -14.7554 -6.91483
H 5.7178 14.3751 -7.39598
H 4.90052 -14.4071 -6.68208
O -5.84692 -5.08107 -5.99679
H -5.27553 -5.22018 -6.8056
H -5.30776 -4.6392 -5.2798
O -2.8057 6.48028 -4.29293
H -2.17228 6.78491 -5.00426
H -3.17286 5.58239 -4.53582
O -14.3652 -1.32923 2.89331
H -14.217 -2.11407 3.49505
H 14.7323 -1.39737 2.47335
O -9.602 1.15065 -2.63101
H -10.1356 0.452488 -3.10839
H -8.93199 1.54575 -3.2595
O -6.41064 -10.8445 12.0616
H -6.74325 -9.91072 11.9294
H -6.25775 -11.009 13.0361
O 5.48629 6.71069 14.5806
H 6.17764 7.38691 14.8352
H 5.70101 5.83525 -14.9888
O -6.8387 10.1155 12.426
H -7.15159 9.79979 11.5302
H -5.94313 10.5504 12.332
O -13.2404 8.50668 4.80614
H -13.6848 7.82878 4.22049
H -13.6989 8.53139 5.69454
O 6.55047 2.2689 -2.04137
H 6.9121 3.14583 -1.72477
H 7.04433 1.52349 -1.59361
O -6.78227 7.79478 -5.01285
H -7.31453 7.17603 -5.59066
H -7.3305 8.60248 -4.7959
O -11.6544 -14.4712 -10.2142
H -11.521 14.5768 -10.481
H -10.991 -13.8956 -10.6924
O 7.7875 -3.98097 -4.3428
H 7.09544 -3.56343 -4.93163
H 8.32121 -3.26345 -3.89521
O 6.12629 6.13701 8.85509
H 5.87479 5.17898 8.71743
H 6.43875 6.52735 7.98906
O 2.54013 1.46287 11.2523
H 2.83017 2.27458 10.7453
H 3.31168 0.833177 11.343
O 11.2192 3.87637 -5.9275
H 11.6447 3.2893 -6.61623
H 11.6972 3.7679 -5.05582
O -14.224 -11.3265 -1.93985
H -13.6745 -12.145 -1.77233
H -14.2842 -10.7877 -1.09955
O -4.71835 -1.83515 10.2078
H -5.50256 -1.37149 9.79545
H -3.88158 -1.5596 9.73462
O -7.84255 1.96568 3.83529
H -8.48772 1.94312 4.59901
H -7.16235 2.6812 3.99461
O 3.5797 -13.0767 14.5753
H 3.64124 -12.1749 14.1475
H 4.49992 -13.44 14.7209
O -11.4661 -11.9008 -11.728
H -11.4456 -10.9014 -11.7576
H -12.2806 -12.2317 -12.2046
O 9.90993 1.60475 -1.68237
H 9.77102 1.37844 -2.64648
H 10.196 0.785409 -1.18554
O 1.50878 -13.4775 1.15624
H 1.12992 -13.5093 0.231315
H 1.0965 -12.718 1.65943
O 2.77637 -10.3539 3.18132
H 2.95898 -10.0153 4.10437
H 3.46709 -9.99677 2.55255
O 6.12817 -1.2894 12.6999
H 5.25181 -1.10084 12.2567
H 6.68008 -1.87878 12.1099
O 10.1215 -3.97454 6.75666
H 10.755 -4.5264 7.29896
H 9.20596 -4.37388 6.80521
O -6.34261 -11.1248 7.44123
H -5.86684 -11.8984 7.85978
H -5.92713 -10.9176 6.55553
O 6.58981 -14.7905 2.07641
H 6.50739 -14.2827 2.93391
H 5.76921 -14.6463 1.52339
O 14.3937 9.763 -1.50428
H -14.6515 9.55354 -1.7039
H 14.1717 10.6732 -1.85404
O 3.82127 8.2841 8.5318
H 4.42243 7.48505 8.5431
H 4.35878 9.10278 8.32964
O 9.75431 12.6107 -12.2684
H 9.60699 12.5466 -11.2814
H 8.99443 12.172 -12.7481
O -12.307 11.9833 13.048
H -12.4088 12.7883 12.4635
H -11.549 11.4228 12.7143
O 10.1895 12.8535 -2.20988
H 10.1433 12.3288 -1.35986
H 11.0842 12.7197 -2.63606
O 11.0843 -12.4266 1.68942
H 11.7846 -12.5523 2.39217
H 10.4027 -13.1544 1.7642
O -6.64742 13.1404 -13.4895
H -7.23516 12.9902 -14.2845
H -6.28295 12.2643 -13.1741
O 14.7232 9.41041 -9.97301
H 14.7604 10.3129 -9.54387
H -14.4667 9.27751 -10.5406
O 7.96997 -8.51734 2.86967
H 8.58055 -8.95066 3.53257
H 8.23821 -8.78561 1.94442
O -8.1512 -9.09449 3.46638
H -7.28296 -9.12588 3.96156
H -8.58009 -8.20135 3.60189
O -3.97456 -7.65477 -8.37713
H -3.99976 -6.67265 -8.56375
H -3.31645 -8.09353 -8.98902
O -8.30229 -4.98787 -10.6865
H -7.41475 -4.59673 -10.93
H -8.88729 -4.2735 -10.3024
O 10.9385 -10.987 -12.207
H 11.6743 -11.6419 -12.3795
H 10.5646 -10.6686 -13.0781
O -8.52851 -8.62877 -1.30149
H -8.33023 -9.10951 -0.447329
H -7.87786 -7.87879 -1.42066
O -11.6643 -12.7689 0.676156
H -11.8702 -11.7982 0.552742
H -10.6738 -12.9051 0.653603
O 5.27366 0.586631 -14.3168
H 5.85328 1.05395 -14.9844
H 4.80911 1.26416 -13.7466
O 9.96942 1.19104 5.36312
H 9.00189 1.42152 5.46695
H 10.0764 0.19679 5.35671
O 1.19527 -7.08962 2.76873
H 2.14993 -6.88806 2.54961
H 0.884537 -6.47935 3.49746
O 8.56149 0.880807 -12.1761
H 9.01126 0.0865794 -12.5847
H 8.85078 1.71019 -12.6541
O -5.24996 4.53287 11.1083
H -4.58103 4.89146 11.7594
H -5.88979 5.2582 10.8542
O 5.42143 4.69051 -11.2681
H 4.7245 4.10969 -11.6888
H 5.67866 4.31183 -10.379
O -10.3839 -2.80687 -13.6777
H -9.94779 -3.70548 -13.6294
H -11.037 -2.71247 -12.9263
O -14.5558 3.30132 -12.9492
H -13.9304 3.28052 -12.1692
H -14.6513 4.24195 -13.275
O 8.65047 4.25891 -1.86003
H 9.19147 3.41792 -1.86859
H 9.11461 4.94816 -1.30368
O 0.705056 -1.37026 -9.41191
H 0.159295 -1.65016 -10.2017
H 1.60403 -1.05995 -9.72104
O 2.91523 14.2579 -8.24989
H 2.98523 -14.7707 -8.46573
H 2.20517 14.1197 -7.55943
O -0.654489 2.20717 4.07706
H -1.30327 2.89588 4.40075
H -0.451113 1.56671 4.81765
O 9.30101 3.54534 -14.5588
H 9.75094 3.99808 14.6739
H 8.31896 3.48251 -14.7367
O -6.86544 14.1829 -7.0142
H -6.47768 13.4181 -7.52874
H -7.40022 13.8308 -6.24605
O 4.60509 -11.5587 9.95273
H 5.23493 -12.324 9.81994
H 4.21717 -11.2895 9.07122
O -12.9054 -9.59663 -4.02646
H -13.4318 -9.6773 -3.18003
H -11.9305 -9.6852 -3.8224
O 12.8754 -11.1098 11.7177
H 13.7747 -11.4023 11.3928
H 12.1845 -11.3294 11.0289
O 10.4148 -13.0263 14.8269
H 10.6226 -13.5828 -14.3712
H 10.3083 -12.0706 -14.9012
O 3.07781 -5.07542 -0.583365
H 3.56836 -5.94593 -0.623039
H 2.12647 -5.24047 -0.323094
O -4.63302 -6.07997 -0.891013
H -4.09209 -6.23992 -1.71674
H -4.56637 -6.87603 -0.289474
O -12.8896 -9.47746 5.68311
H -11.9038 -9.42197 5.52433
H -13.3549 -8.78057 5.13734
O -8.19061 -13.6903 11.9967
H -8.65581 -12.8078 11.9276
H -7.89081 -13.8362 12.9395
O 3.57857 -11.0884 7.63511
H 2.73297 -11.1613 8.16393
H 3.4336 -11.4666 6.72083
O 6.66166 4.55746 -3.87328
H 7.50451 4.47981 -3.34075
H 5.94834 4.97381 -3.30951
O -11.9176 13.316 -0.476355
H -11.1682 13.7848 -0.943885
H -12.5766 12.9849 -1.15174
O -9.01026 -3.41257 -6.28981
H -8.01669 -3.41996 -6.40281
H -9.41145 -4.16042 -6.81876
O 8.10934 8.97287 0.996509
H 8.21767 8.45697 1.84629
H 8.04659 8.33771 0.226668
O -14.6543 5.93803 -10.7769
H -14.1256 6.73179 -11.0776
H -14.7995 5.32164 -11.5509
O 8.17263 -14.8463 -5.57224
H 7.35084 -14.6381 -6.10268
H 8.97341 -14.8096 -6.17009
O 13.6849 2.7016 -7.81499
H 14.5298 2.99329 -8.2633
H 12.946 2.66507 -8.48785
O -13.0168 6.24075 13.6238
H -13.0003 7.148 13.2035
H -12.6643 5.56637 12.975
O 8.01303 6.74322 11.0766
H 7.37559 6.69595 10.3076
H 8.56949 5.91266 11.0999
O -7.83208 -9.94022 14.7247
H -6.92205 -9.52567 14.7247
H -7.88019 -10.6387 -14.5638
O -11.5785 -5.2114 -3.9356
H -11.9363 -4.71116 -3.14709
H -10.593 -5.34248 -3.82795
O -2.98115 -14.1572 0.663173
H -2.54418 -13.7221 -0.124078
H -2.3212 -14.2337 1.41058
O -10.1622 7.69096 3.07115
H -9.97983 6.70825 3.1033
H -10.4578 8.00482 3.97346
O 12.2119 9.75772 0.686382
H 11.844 8.93916 1.12753
H 13.1569 9.58909 0.406031
O -14.1561 -6.26777 -10.3603
H -14.5268 -5.53836 -9.78535
H -13.5348 -5.87468 -11.0382
O 8.94084 -3.98036 -12.1272
H 9.75302 -4.04873 -12.7066
H 9.05216 -3.22161 -11.4854
O -4.02532 -4.97419 -8.1382
H -3.0506 -4.78847 -8.01395
H -4.45775 -4.1954 -8.59263
O 12.318 -3.01433 -3.90768
H 12.2871 -3.89437 -3.43377
H 13.2692 -2.72201 -4.00616
O 14.0208 -1.51286 -10.3109
H 13.1859 -1.05343 -10.6141
H 14.7889 -1.21733 -10.8789
O 2.80304 -13.1343 -9.58544
H 2.6884 -13.8311 -10.2935