2593
Atoms. Timestep: 18495000
O 0.77076 12.3274 -5.76542
H 1.54427 12.7126 -6.26869
H 0.938068 12.4097 -4.78295
O -4.70317 -4.39717 3.19563
H -4.7695 -4.64121 4.16313
H -3.89328 -4.82835 2.79788
O 5.67272 0.382507 -3.85789
H 4.77788 0.60388 -4.24555
H 6.35299 1.03214 -4.19736
O 9.85436 0.994225 9.2104
H 9.02445 0.811913 9.73769
H 9.6824 1.73842 8.56493
O -7.31902 -6.94432 -11.9709
H -6.82129 -6.94989 -11.1036
H -7.98719 -6.20031 -11.967
O 10.7252 5.25199 -12.1262
H 11.5839 4.85853 -12.4545
H 10.8939 5.765 -11.2845
O 10.8472 -8.44953 -5.44656
H 11.443 -7.65388 -5.33694
H 10.7812 -8.93884 -4.57694
O 13.6685 -6.21206 -3.73853
H 13.1173 -6.23146 -4.57265
H 13.9393 -7.14372 -3.49623
O 0.854012 -4.81665 1.33874
H 0.437389 -3.90848 1.29783
H 0.551345 -5.35787 0.554204
O -6.28498 7.03387 -8.89649
H -5.88649 7.83357 -9.34563
H -7.25591 6.97113 -9.1275
O -11.6916 -0.291021 4.62512
H -11.2076 -1.09631 4.96767
H -11.0279 0.404415 4.34942
O -12.7364 3.8325 -0.507812
H -12.2773 2.97779 -0.265513
H -13.666 3.63494 -0.818914
O -0.111086 -3.40511 -13.3323
H -0.532971 -3.02868 -14.1571
H 0.195539 -2.6571 -12.7436
O 2.35804 1.60036 5.64036
H 2.86781 2.46016 5.67018
H 1.53558 1.71961 5.08414
O -14.214 9.93633 -7.24853
H -14.3769 10.4755 -6.4222
H -14.4036 8.97262 -7.06049
O -7.06923 5.81209 2.04958
H -7.51866 6.09581 2.89665
H -7.54264 6.21931 1.26851
O -12.3532 0.0608844 11.6452
H -11.6972 -0.136013 10.9165
H -12.5656 -0.782231 12.1392
O 8.27553 13.5157 -10.6018
H 8.19764 14.1865 -11.3393
H 8.19641 13.9796 -9.71946
O -13.0801 14.0033 -2.49892
H -12.199 13.823 -2.93632
H -13.7073 14.4053 -3.16598
O 6.0311 2.35808 -7.87448
H 6.95223 1.98173 -7.77492
H 5.96336 3.21372 -7.36134
O 6.31102 4.08949 -1.59343
H 6.57105 4.67784 -0.827764
H 6.19628 3.15074 -1.26845
O 7.21284 -14.3545 7.24392
H 7.61315 14.8789 6.73475
H 7.9272 -13.8936 7.77047
O 13.8772 10.4163 -3.24587
H 14.5479 11.0753 -3.58639
H 14.2121 9.48757 -3.4048
O 5.09555 4.4996 -6.39851
H 4.14832 4.80962 -6.48023
H 5.5006 4.88107 -5.56759
O -4.56502 9.06144 2.75179
H -5.49983 8.98043 3.09761
H -4.57848 9.06284 1.75187
O -1.83444 12.7521 1.07439
H -1.29369 13.5143 0.718517
H -2.03534 12.1113 0.333387
O -7.66629 -10.0507 -10.1941
H -8.04137 -10.4963 -9.38117
H -8.4109 -9.65056 -10.7283
O 6.11092 11.9916 -7.92305
H 5.28548 11.7145 -8.4149
H 6.86604 11.3845 -8.17071
O 9.39583 3.75493 8.67022
H 10.2466 4.21598 8.41787
H 8.62726 4.38272 8.54698
O -2.00634 -7.93353 -9.62516
H -1.31344 -7.45933 -10.1683
H -1.58426 -8.7017 -9.14372
O -9.99619 4.82618 12.4635
H -9.30763 5.28518 11.902
H -10.8792 5.28059 12.3457
O -13.0539 -1.8746 2.56185
H -12.7542 -1.10764 3.12927
H -13.5357 -1.5261 1.75785
O 14.086 12.4633 13.5294
H 14.984 12.2266 13.9003
H 13.6788 11.6563 13.1016
O -4.96847 -4.9261 -10.4214
H -4.73907 -5.77869 -10.891
H -4.44512 -4.86232 -9.5717
O -11.4833 -11.0946 -8.98542
H -11.9681 -10.5193 -9.64426
H -11.5498 -10.687 -8.07467
O -4.72009 -8.78208 7.34005
H -4.62465 -8.12872 6.58903
H -3.99145 -9.4646 7.2827
O 10.3523 -4.20332 -4.2191
H 10.7387 -5.0128 -3.77701
H 9.57492 -3.87099 -3.68507
O 8.96519 14.5249 -2.11712
H 8.77903 -14.5667 -2.50262
H 8.52355 14.4463 -1.22336
O 12.8107 -3.87763 -8.38114
H 12.8783 -4.42022 -9.21843
H 11.9623 -4.10597 -7.90352
O -14.1675 -1.32254 -9.90848
H -13.5297 -1.58522 -9.18445
H 14.9279 -1.14327 -9.51101
O -11.5573 -4.01226 -1.79152
H -10.9311 -3.8996 -1.02009
H -11.4186 -3.26809 -2.44495
O 0.406176 0.12549 -12.0982
H 1.24892 0.614131 -11.8723
H 0.124681 0.359125 -13.0289
O -9.43497 9.44407 -3.38267
H -9.27178 10.2102 -4.00427
H -10.256 9.62357 -2.84077
O -14.2094 1.76386 11.09
H -13.4486 1.19128 11.3954
H 14.9223 1.29006 11.262
O -10.4171 5.24513 0.0487172
H -11.2099 4.70306 -0.230112
H -10.4468 5.39512 1.03697
O 6.64019 7.00329 -13.1058
H 7.13325 7.21799 -13.9489
H 6.1956 6.11223 -13.1974
O 7.66929 -12.9783 -10.0844
H 7.09615 -13.6158 -9.56948
H 7.88725 -12.1884 -9.51127
O 5.14269 4.36149 -12.8742
H 4.84615 4.32263 -11.9199
H 4.49594 3.8557 -13.445
O -6.05806 -12.2988 -10.7374
H -6.11329 -12.4886 -11.7176
H -6.58708 -11.4767 -10.5267
O -12.1366 4.73874 7.23499
H -12.3955 5.70414 7.20329
H -12.7359 4.25369 7.87189
O -4.99784 13.8508 -4.14918
H -4.27622 13.4329 -4.70109
H -4.92767 14.8466 -4.20761
O 10.5614 3.47935 -9.10826
H 10.9403 4.24544 -8.58905
H 9.80087 3.80221 -9.67165
O 12.7568 -10.8015 14.0157
H 12.3013 -11.1438 13.1939
H 12.102 -10.2878 14.5702
O 7.52143 14.812 -14.7284
H 7.0718 14.0053 -14.345
H 7.48095 14.7732 14.2685
O -3.63132 11.6593 -10.7344
H -2.85017 11.2851 -11.2342
H -3.33912 12.4586 -10.2092
O 14.6295 -4.31687 14.0334
H 14.4611 -4.56137 14.9883
H -14.5059 -3.81111 13.9655
O 6.19851 -3.81513 -5.88283
H 6.71545 -3.01747 -5.57211
H 5.28721 -3.5276 -6.17756
O -11.4262 0.370688 -12.6307
H -10.693 0.910146 -13.0446
H -11.1611 0.103354 -11.7043
O -12.6779 -7.88549 -8.9083
H -13.5269 -7.44915 -8.61027
H -12.8731 -8.51599 -9.65957
O -7.89046 -12.5487 -1.5303
H -8.06011 -12.2512 -0.590759
H -7.5943 -13.5039 -1.52914
O 1.88814 -3.49708 11.4948
H 1.96307 -3.7149 12.4679
H 1.17985 -4.06764 11.0791
O 14.6935 -11.8673 5.37272
H -14.8323 -12.034 4.5057
H -14.7751 -12.2719 6.12027
O 11.5448 4.20606 -0.771798
H 11.5729 3.2091 -0.698887
H 12.3583 4.52782 -1.25642
O -1.01864 4.11107 14.2765
H -1.81373 3.58058 13.9825
H -0.232043 3.87718 13.705
O -7.7489 -14.9739 -8.16391
H -7.6928 -14.9072 -9.16012
H -8.66577 14.721 -7.90107
O -1.77971 11.0477 -1.30107
H -1.60977 10.1206 -0.966771
H -2.01011 11.0143 -2.27361
O -2.15196 -14.6013 7.37249
H -1.67003 -14.5663 8.24801
H -1.54042 -14.9648 6.6697
O -3.50743 2.15248 -3.49846
H -3.38222 1.68553 -2.62307
H -3.74606 3.10966 -3.33453
O -9.88378 2.27876 -3.62754
H -10.7974 1.87642 -3.68592
H -9.22143 1.56853 -3.38899
O 8.95981 -0.679036 -10.4277
H 8.77259 -0.128739 -11.2414
H 9.77234 -1.24043 -10.5847
O 5.47719 -10.4184 12.7605
H 5.40449 -9.77748 13.5247
H 6.34308 -10.9147 12.823
O 8.54862 1.24234 -8.19561
H 9.27276 1.39131 -8.86899
H 8.66569 0.343325 -7.77361
O 11.5889 -13.6818 -8.95907
H 11.5285 -13.5041 -9.94131
H 12.3867 -14.2551 -8.77252
O -9.86477 14.3203 -3.07848
H -9.37697 13.8756 -2.32724
H -9.26946 14.3678 -3.88059
O 5.51387 11.5619 -11.9396
H 6.41176 11.5935 -11.5005
H 5.56107 12.0185 -12.828
O -12.855 6.96469 -9.41305
H -12.6786 7.92585 -9.62536
H -13.6726 6.89421 -8.84157
O 0.00996464 -1.27157 -7.12742
H -0.363994 -1.11216 -8.04107
H -0.734932 -1.28697 -6.4604
O 13.7617 12.7618 1.19961
H 13.4815 12.0594 1.85389
H 13.7233 13.6598 1.63785
O 8.3614 -8.8581 -1.42984
H 9.00404 -8.46673 -0.771154
H 8.38175 -8.32241 -2.27402
O 1.55922 -10.0412 11.1045
H 1.34125 -10.0089 12.08
H 2.15951 -9.27611 10.8716
O 13.5506 -5.93619 9.72737
H 14.3682 -5.3758 9.59489
H 13.5965 -6.73858 9.13231
O 5.78676 12.082 2.57739
H 5.76802 12.952 3.07014
H 6.10241 11.3582 3.19093
O -7.96015 6.17741 -0.759752
H -8.76688 5.6982 -0.413962
H -8.10847 6.43336 -1.71501
O -5.54072 -12.9763 6.70707
H -6.17978 -13.6593 6.35325
H -4.60827 -13.3339 6.65518
O 1.38264 14.7923 -7.15041
H 2.23794 14.4537 -6.75815
H 1.57435 -14.4206 -7.74283
O 6.91561 9.03699 3.01544
H 7.57272 8.56799 3.60559
H 6.03026 8.57518 3.06943
O -5.46379 8.95273 -3.58451
H -5.93455 9.05597 -2.7083
H -6.02053 8.39272 -4.19806
O -10.2578 5.00054 -5.87842
H -9.62628 4.27455 -6.15067
H -10.3282 5.02444 -4.88117
O 8.72689 10.8335 14.6597
H 9.22567 11.5901 14.2369
H 8.0721 10.458 14.0038
O 6.49405 -7.40621 4.51433
H 5.65519 -6.87928 4.65097
H 7.01771 -7.42597 5.36604
O -2.22629 0.519918 -5.70672
H -2.47552 0.702291 -6.65785
H -2.83441 1.03068 -5.09899
O 3.41516 5.07163 2.14498
H 3.25619 5.00749 1.15977
H 4.32609 4.71905 2.35927
O -8.30988 -8.92865 0.768319
H -8.38341 -8.49934 -0.131851
H -7.49471 -9.50723 0.79609
O 12.0831 12.0489 -9.72107
H 12.4307 12.6388 -10.4499
H 12.6639 11.2387 -9.64243
O 1.31038 -10.1834 6.40829
H 0.761774 -9.55079 5.8616
H 2.19475 -9.76481 6.61489
O 14.8272 13.983 -13.4594
H -14.7882 14.7815 -12.9924
H 14.2679 14.2834 -14.2319
O -0.614203 6.68259 -12.5706
H -0.855579 6.21958 -11.7178
H -1.44213 7.04382 -12.9997
O -3.71722 -13.7667 -10.4472
H -4.54276 -13.2332 -10.2631
H -3.00242 -13.1633 -10.8008
O 13.6591 -6.14303 12.4993
H 13.7925 -6.07119 11.5109
H 14.1644 -5.41203 12.9579
O 6.44953 3.61005 7.11732
H 5.65987 3.70905 6.5118
H 7.29044 3.64884 6.5775
O -3.20695 10.8056 -3.72857
H -4.10057 10.357 -3.71326
H -3.22059 11.5532 -4.39267
O -0.170282 10.1187 -6.75708
H -0.472389 9.63243 -5.93715
H 0.0107732 11.0755 -6.52945
O 4.65669 9.0283 -12.0452
H 5.38315 8.52295 -12.5109
H 4.92636 9.9864 -11.9485
O -3.03763 1.09286 -8.27974
H -3.5466 1.94425 -8.40666
H -2.34769 1.00667 -8.99847
O -6.90592 -1.62048 6.52851
H -6.59466 -2.34152 5.90943
H -7.39928 -0.9239 6.00756
O 14.6693 -9.33559 12.5867
H 14.1515 -8.89377 11.8541
H 14.0354 -9.72565 13.2546
O 1.44641 9.83191 -2.35719
H 1.6036 10.7057 -2.81749
H 0.786675 9.29312 -2.8811
O -2.72089 -4.83434 -0.896275
H -3.33613 -5.52091 -1.28374
H -2.1457 -4.45521 -1.62114
O 13.4037 14.9861 13.9223
H 12.4625 -14.7431 13.7143
H 13.5112 14.0022 13.7795
O 10.5417 -10.2876 8.71431
H 11.0254 -9.52646 9.1464
H 10.7791 -10.3253 7.74361
O 4.18371 -4.13072 8.29294
H 4.30101 -3.41229 8.97859
H 4.53865 -3.81336 7.41355
O 0.71987 3.58201 12.2898
H 1.55399 3.03041 12.2929
H 0.734748 4.20441 11.5072
O 11.5051 12.7375 3.88815
H 10.7087 12.1366 3.95604
H 12.3396 12.1864 3.89125
O -0.463823 -8.16069 1.18474
H -1.45788 -8.20921 1.28235
H -0.0727285 -9.07396 1.29879
O 3.0331 -3.9691 -2.83885
H 3.39788 -3.15621 -3.29291
H 2.17734 -4.24101 -3.27905
O 8.62733 3.63964 5.44031
H 8.92422 4.41698 4.88568
H 9.04712 2.80168 5.09155
O 13.0191 -5.24001 -10.6508
H 13.6075 -4.72734 -11.2761
H 12.4004 -5.82276 -11.1777
O 9.25952 -9.42994 -12.4292
H 8.8343 -10.3096 -12.2159
H 9.85574 -9.1562 -11.6745
O 8.43179 0.897963 -12.7115
H 8.81708 0.740645 -13.6208
H 8.09417 1.83728 -12.6505
O 5.8247 1.55495 -0.832997
H 4.90371 1.46072 -0.454931
H 6.00752 0.796323 -1.45836
O 10.5836 5.6484 -6.77894
H 11.1601 6.40459 -6.46934
H 9.80125 5.55205 -6.16353
O -7.60334 -5.97213 -5.09501
H -7.60948 -6.61727 -5.85906
H -6.70777 -5.9905 -4.65044
O -13.2005 -13.871 1.50957
H -12.3332 -13.6623 1.96155
H -13.0226 -14.3683 0.660415
O -11.0645 -9.59887 -1.2996
H -11.0785 -9.314 -0.341122
H -11.2303 -10.5834 -1.35718
O -3.95761 11.9745 10.7884
H -3.69766 11.102 11.2023
H -4.16271 12.6371 11.5087
O 2.9137 -9.4963 -13.5487
H 3.81499 -9.92841 -13.5799
H 2.99186 -8.59233 -13.1282
O 8.41089 12.815 6.34492
H 7.78483 12.0806 6.08261
H 8.6166 12.7448 7.32103
O -5.71346 3.50982 2.77455
H -6.5511 2.96948 2.85454
H -5.92583 4.39445 2.35939
O 13.1837 -10.2492 -10.5951
H 13.3289 -10.7571 -11.4442
H 12.9361 -10.8855 -9.86439
O 14.4188 -6.92304 -8.67416
H 13.8238 -7.71706 -8.79898
H 14.3239 -6.30897 -9.45771
O 4.28177 3.80879 5.62286
H 4.30111 4.80665 5.56024
H 4.74514 3.41592 4.82853
O -5.21155 2.43669 -10.1442
H -5.99187 2.04526 -10.6319
H -5.05658 3.37279 -10.4599
O -7.09752 -9.33995 5.67185
H -6.54766 -9.186 6.49281
H -8.06807 -9.27321 5.90336
O 1.75464 1.99697 -8.20827
H 1.65503 1.41501 -7.40116
H 2.41943 2.71946 -8.01825
O 11.6284 -1.40283 -7.52138
H 12.0535 -2.0828 -8.11888
H 11.7879 -0.487653 -7.89159
O 10.0307 -0.599883 2.4833
H 10.6159 -1.40312 2.59426
H 9.08703 -0.893564 2.33064
O 4.37797 -12.0976 -4.09697
H 4.88573 -11.6244 -3.377
H 4.03812 -12.9704 -3.74668
O -4.04344 4.53913 -2.29739
H -4.35491 4.09598 -1.45678
H -3.94626 5.52186 -2.13984
O -10.4688 -2.08889 6.09558
H -9.8615 -2.61457 5.49986
H -10.1753 -2.1927 7.0459
O 11.9369 -0.256861 11.6344
H 12.8578 -0.473268 11.3103
H 11.2625 -0.668146 11.0212
O -11.2809 -5.16063 -6.37894
H -12.2554 -5.31393 -6.54311
H -10.9703 -5.75515 -5.63728
O -13.1602 11.976 10.798
H -12.2458 12.0624 10.4025
H -13.0954 11.9983 11.7956
O 1.4159 0.47714 -5.52156
H 0.729128 0.456828 -4.79495
H 1.47829 -0.425907 -5.94657
O -12.7929 -0.162008 7.167
H -12.2764 -0.802811 7.73502
H -12.461 -0.209528 6.22485
O -14.754 0.0491255 -12.3039
H 14.64 0.707687 -11.8514
H -14.5369 -0.693784 -11.6707
O 14.3863 7.84001 -11.6127
H -14.6362 7.80736 -11.8421
H 14.1253 6.99478 -11.1464
O -10.0763 10.247 -7.23017
H -9.20471 10.5969 -7.57352
H -10.1119 9.25604 -7.35953
O 10.2059 13.1476 13.6247
H 10.2115 14.1358 13.7778
H 10.7477 12.6973 14.3345
O 11.346 -10.8025 11.7222
H 10.4365 -10.4098 11.5856
H 11.4213 -11.6562 11.2069
O -10.6517 -13.1695 -10.5096
H -9.69259 -13.4094 -10.3595
H -10.8608 -12.3167 -10.031
O -8.46507 -0.98036 14.8138
H -8.67527 -1.38163 -14.29
H -8.84627 -1.55647 14.0908
O 3.53182 14.0703 -13.4328
H 4.20974 14.6343 -13.9044
H 3.0318 13.5207 -14.1022
O 11.1576 -6.51996 -12.8489
H 10.1842 -6.74657 -12.8147
H 11.3548 -6.02384 -13.6945
O 4.98317 9.47191 -5.61392
H 5.46779 10.3463 -5.63939
H 5.49 8.79425 -6.14676
O 0.241751 -9.56673 -8.21944
H 1.00919 -9.09043 -8.64863
H -0.112435 -9.01527 -7.46415
O -2.62125 13.7062 -8.86903
H -2.71875 14.5092 -9.45699
H -1.72928 13.73 -8.41754
O 3.88199 -14.5821 12.3203
H 4.05188 -13.9027 11.6064
H 3.16672 14.7834 12.0175
O -1.24277 -13.2666 12.3947
H -1.05579 -12.5232 11.7525
H -2.15612 -13.1485 12.7844
O -10.1005 -6.76373 -14.345
H -10.1182 -7.58732 -14.9119
H -10.5629 -6.9464 -13.4773
O 13.5875 1.84625 -7.1927
H 13.017 1.26292 -6.61461
H 14.5485 1.72355 -6.94465
O 10.9847 9.88307 -7.43909
H 10.0891 10.2586 -7.67787
H 11.6928 10.563 -7.62977
O -13.4498 -2.27659 13.8819
H -12.5866 -2.26793 14.3867
H -14.0657 -1.5871 14.2631
O 11.8317 -4.02798 6.05139
H 12.5963 -3.61144 6.54321
H 11.9446 -3.87604 5.06945
O 8.10644 -11.2872 13.1
H 8.74018 -11.4712 13.8514
H 8.41736 -10.4847 12.5907
O 10.5563 12.4728 -2.68096
H 9.83259 13.0845 -2.36146
H 11.3604 12.5732 -2.09496
O -5.73181 -13.7238 -7.0963
H -6.61266 -14.0856 -7.40161
H -5.57111 -12.8337 -7.5229
O -3.62091 7.20955 -2.39125
H -4.30982 7.82434 -2.77525
H -3.35807 7.53028 -1.48126
O -2.06369 -12.2619 -14.3674
H -2.6439 -11.7214 -14.9767
H -2.4854 -13.1551 -14.2111
O -5.53489 6.09321 9.21469
H -5.5283 6.71531 8.43176
H -6.05373 6.50544 9.96361
O 1.56892 -9.59143 14.123
H 1.47954 -8.63327 13.851
H 2.10423 -9.65019 14.9656
O -7.08905 -14.1471 3.35654
H -6.09386 -14.2336 3.31025
H -7.51222 -14.8713 2.81201
O 5.27779 -0.720246 -13.7269
H 5.96314 -1.4355 -13.8637
H 5.52855 -0.165734 -12.9333
O -5.57398 -9.24561 -2.47304
H -6.48735 -9.1059 -2.09061
H -5.03557 -8.41 -2.36398
O -7.44378 1.16868 -0.465335
H -7.88768 0.374437 -0.0504234
H -7.79044 1.29667 -1.39457
O 2.34585 4.33369 -6.7399
H 2.14042 4.99791 -7.45867
H 1.66826 4.41347 -6.00878
O -5.39993 2.73024 -7.49351
H -5.20044 3.70099 -7.35985
H -5.41933 2.52561 -8.47217
O 1.56615 -10.2213 0.157204
H 2.13738 -9.7236 0.809859
H 2.0798 -10.9956 -0.212639
O -10.3249 14.1073 3.98536
H -9.86811 13.5317 4.66366
H -9.75993 14.1648 3.16224
O 2.03548 6.32606 13.6678
H 1.17103 6.67755 13.3083
H 1.8823 5.92433 14.5706
O 14.5329 -3.22383 -6.44727
H 13.8008 -3.29199 -7.125
H 14.135 -3.10779 -5.53722
O 10.3882 -4.63813 0.988496
H 10.0177 -4.90327 1.8787
H 11.1819 -4.04447 1.1212
O 13.3867 -2.46879 -4.25515
H 13.4845 -2.89451 -3.35558
H 12.4209 -2.27758 -4.43017
O -7.92056 -6.70169 2.27944
H -7.5207 -6.04614 1.63882
H -8.01775 -7.58983 1.83025
O -6.82377 -2.55317 3.76313
H -7.77335 -2.83872 3.8927
H -6.27406 -3.34054 3.48403
O 0.671891 6.87673 -1.99336
H 1.6085 6.95313 -1.65139
H 0.675249 6.39482 -2.86959
O 11.5776 -13.1986 -5.21384
H 11.8398 -12.5126 -4.53507
H 10.7168 -12.9286 -5.64521
O 14.1395 12.5373 9.07049
H 14.8604 12.0244 9.53664
H 14.2206 12.4034 8.0828
O 12.2235 12.3698 -14.3163
H 12.4429 11.5743 -13.7514
H 13.066 12.7501 -14.6981
O -4.49804 0.823166 12.1391
H -4.48612 -0.148937 11.9048
H -5.35447 1.04295 12.6063
O 11.5946 2.00689 -13.3498
H 10.6261 2.19985 -13.1927
H 12.1392 2.80647 -13.0964
O -6.58338 11.0633 0.998075
H -6.46514 10.0747 0.905318
H -5.82362 11.5335 0.548927
O -11.8877 -13.8395 11.4781
H -11.5029 -12.925 11.6032
H -11.9744 -14.2891 12.3672
O -5.27846 2.98544 -0.541652
H -5.81773 2.14343 -0.556671
H -5.18031 3.30161 0.401972
O -1.42483 -5.57772 -4.75698
H -1.3258 -4.90665 -5.49175
H -0.521188 -5.8244 -4.40684
O -6.55607 12.0224 -2.74267
H -6.09302 11.53 -2.00566
H -5.89064 12.5766 -3.24279
O -9.87627 1.51783 3.79979
H -10.1735 2.39438 4.17839
H -9.41941 1.67095 2.92352
O -9.16103 -8.32326 6.90078
H -9.89063 -7.73935 7.25682
H -9.30163 -9.26188 7.21583
O -7.71497 3.79109 5.72803
H -7.44673 2.84129 5.56696
H -8.64706 3.93515 5.39566
O 2.01386 12.7393 13.8754
H 1.65724 13.6723 13.8261
H 1.32684 12.1412 14.288
O 10.5671 -6.44511 4.28866
H 10.3876 -6.91665 5.15206
H 9.70286 -6.13546 3.89208
O -6.01347 8.54416 11.8233
H -6.32836 8.01465 12.611
H -5.04885 8.77883 11.9435
O 6.57613 5.21844 -4.29556
H 6.87978 6.17079 -4.26651
H 6.53193 4.85416 -3.36531
O 3.70819 -4.77756 2.34424
H 3.79378 -4.90304 1.35583
H 3.60794 -3.80393 2.54918
O -4.37289 14.8367 -1.27559
H -3.86135 -14.6757 -0.564911
H -3.97255 -14.9574 -2.16959
O -9.25785 -12.9506 -6.30104
H -9.89897 -13.6481 -6.62096
H -9.42592 -12.762 -5.33345
O 9.0456 -11.4726 -0.739336
H 8.68982 -11.941 -1.54804
H 8.75713 -10.5152 -0.754814
O -2.87862 7.3455 -14.3816
H -3.13196 6.52301 -14.8908
H -1.99744 7.68383 -14.7118
O -8.30018 6.33983 10.9295
H -8.88014 6.43624 10.1205
H -7.93987 7.23557 11.19
O 14.6713 -9.127 -3.53082
H -14.5682 -9.55405 -3.03461
H 14.9706 -8.89072 -4.45526
O -9.17969 -2.70568 12.5778
H -9.37212 -3.13387 11.6949
H -9.37579 -3.35478 13.3129
O -10.5294 4.9737 -3.04837
H -10.1004 4.12261 -3.3511
H -10.2939 5.14362 -2.09143
O -9.38879 -14.2942 6.51302
H -10.0208 -14.6759 7.18743
H -8.52409 -14.7955 6.54543
O -12.3674 -5.45995 -11.1135
H -13.0249 -6.21235 -11.0718
H -11.6632 -5.59367 -10.4163
O -12.7778 2.32301 14.7396
H -12.0191 2.06147 14.1429
H -12.781 1.73801 -14.4447
O 11.4815 -3.87739 12.6552
H 12.2267 -4.49254 12.9126
H 11.2746 -3.26637 13.4193
O 5.14274 -11.1218 -13.8728
H 4.99562 -11.9744 -14.3742
H 5.6146 -10.4658 -14.4619
O 12.7851 8.11544 -6.14022
H 12.2317 8.87977 -6.47122
H 13.5164 7.92522 -6.79519
O 9.03937 -8.80969 12.0124
H 8.45346 -8.65755 11.2165
H 8.80332 -8.15457 12.7302
O 2.11166 -3.58965 -10.3312
H 2.5258 -3.04548 -11.0608
H 2.6459 -4.42365 -10.1931
O -7.48219 12.2174 -10.0596
H -6.9014 12.1577 -9.24768
H -7.10971 12.9018 -10.6863
O -1.73624 -7.17667 9.1235
H -1.91248 -8.09836 8.77788
H -2.4561 -6.91908 9.76806
O -3.24973 9.47902 11.845
H -3.0422 8.51488 11.6796
H -2.39844 9.98278 11.9919
O -5.88417 -11.0034 8.47516
H -5.66902 -11.8105 7.92538
H -5.36476 -10.2198 8.13427
O -8.31777 2.6814 1.64449
H -7.86267 2.26705 0.856316
H -8.53309 3.63651 1.44096
O -7.6062 -6.60929 14.05
H -8.01321 -7.04017 13.2446
H -7.74865 -5.62042 14.0068
O 3.75724 -2.98542 -6.06028
H 3.06763 -3.70894 -6.02914
H 3.56991 -2.37945 -6.83341
O -0.0286538 -5.96139 4.07495
H 0.0454648 -5.23836 4.7618
H 0.746608 -5.90427 3.44588
O -8.78241 11.0211 7.91555
H -8.9473 10.071 7.65048
H -7.91938 11.0822 8.41702
O 10.4778 -6.5952 -2.768
H 9.90023 -6.18609 -2.06158
H 10.989 -7.36123 -2.37825
O 3.86941 -8.70632 10.9145
H 4.23187 -9.35935 11.5795
H 3.93868 -7.78009 11.2851
O 5.71847 3.51338 -10.1976
H 5.68065 4.4965 -10.0185
H 5.99513 3.03336 -9.36508
O -5.12352 8.30933 -13.1682
H -4.78111 8.5727 -12.2663
H -4.40117 7.83824 -13.6745
O 11.5389 12.6464 -7.06893
H 11.7121 12.6826 -8.05317
H 12.0251 13.3944 -6.61722
O 5.92278 6.18495 0.494332
H 6.61358 6.06458 1.2073
H 5.69072 7.15445 0.415341
O 3.4098 5.3866 -0.614712
H 4.36684 5.10722 -0.53697
H 3.35928 6.38115 -0.706086
O 12.5073 1.95369 -3.01123
H 12.3623 2.93685 -3.1226
H 11.8216 1.45363 -3.5402
O 13.4937 -0.332869 -1.68722
H 13.0755 0.325389 -2.31319
H 14.3957 -0.593587 -2.03147
O 0.920451 6.79974 2.92826
H 0.33847 6.0678 3.28264
H 1.81079 6.42323 2.67221
O -6.27749 -12.1093 10.9673
H -7.15648 -12.575 10.8648
H -6.14288 -11.4793 10.2025
O -5.03674 13.9782 -11.5474
H -4.55868 13.1029 -11.4753
H -4.45969 14.7049 -11.1746
O -12.7013 -7.88344 13.2422
H -11.9169 -8.39448 12.8906
H -13.5298 -8.43458 13.143
O 6.47816 -5.57485 8.67915
H 5.74672 -4.94829 8.40998
H 7.27617 -5.04887 8.97334
O -9.11934 1.58338 -14.1035
H -8.60636 0.72592 -14.1441
H -9.60801 1.72049 -14.9652
O -6.26831 5.18161 -4.55121
H -6.02464 4.7571 -3.67918
H -6.88166 5.95398 -4.38607
O -9.62921 -4.25644 14.8772
H -9.82764 -5.16674 -14.7548
H -10.2691 -3.59478 -14.7272
O -7.00852 12.442 -13.833
H -6.37594 13.0003 -13.2962
H -6.50248 11.7096 -14.2885
O 6.30198 -3.78383 1.1643
H 5.52313 -3.38831 1.65111
H 6.00133 -4.58856 0.652403
O -4.02015 11.7505 3.07882
H -4.0789 10.7647 2.92181
H -3.14839 12.0925 2.72798
O 5.84144 -9.76976 -2.41605
H 6.71997 -9.52511 -2.00573
H 5.6768 -9.19571 -3.21816
O 0.0432738 12.508 10.7354
H 1.0231 12.7079 10.7334
H -0.141263 11.7515 11.3629
O -4.07883 0.309831 -14.0423
H -3.94799 -0.510896 -13.4861
H -4.95773 0.254752 -14.5161
O -3.74622 13.3245 5.69764
H -4.57428 13.2357 5.14406
H -3.99375 13.6051 6.625
O -14.0937 11.8433 -4.85211
H -13.1493 12.168 -4.90371
H -14.6973 12.5003 -5.30374
O 5.65413 -5.24204 -3.59953
H 5.87588 -4.74529 -4.43863
H 5.01291 -4.70346 -3.05292
O 3.73871 8.09532 -9.672
H 3.23798 8.69 -9.04299
H 3.87783 8.57079 -10.5407
O -14.4402 -0.0484337 -14.983
H -14.0387 0.836643 14.7769
H -14.5591 -0.107407 -13.9918
O -13.9832 -7.46929 -11.9864
H -14.9624 -7.62569 -12.1156
H -13.5526 -7.30161 -12.8732
O -1.09278 0.350582 -14.2961
H -2.08386 0.469895 -14.2365
H -0.85616 -0.031534 14.8059
O -0.735283 5.99471 -9.84082
H 0.246142 5.82293 -9.75527
H -0.93784 6.92704 -9.54122
O -4.10743 -7.83656 -11.24
H -4.01295 -8.71234 -11.7134
H -3.33015 -7.70463 -10.6248
O 14.608 -12.6364 14.7889
H 14.2561 -13.452 14.3294
H 14.1562 -11.8245 14.4192
O 9.81687 13.0476 0.834355
H 9.14776 13.6584 1.2578
H 10.5049 13.59 0.352156
O 11.9021 6.83098 -3.71623
H 11.5664 7.4317 -2.99068
H 12.3146 7.38244 -4.44132
O -4.25037 -11.0997 3.89198
H -5.04575 -10.5663 3.60406
H -3.41629 -10.5787 3.71077
O -0.447955 7.14186 12.378
H -1.44567 7.08904 12.4204
H -0.128703 6.73441 11.5224
O -13.4033 13.4958 0.0613696
H -13.5549 13.4238 -0.924466
H -14.1525 13.0459 0.547511
O 5.47958 1.17025 -11.7521
H 6.01698 0.841434 -10.9755
H 5.32231 2.15316 -11.6563
O -9.1563 -3.70302 4.32739
H -9.28064 -4.62872 4.68466
H -9.73405 -3.57656 3.52101
O -14.0963 1.50265 -5.81635
H -14.0803 0.502774 -5.81892
H -13.8817 1.83709 -4.89868
O -4.35436 -13.7727 3.46658
H -4.20235 -12.814 3.70682
H -3.67201 -14.3431 3.9238
O -14.0451 -13.1082 7.42959
H -13.7272 -14.0555 7.38839
H -13.9396 -12.7615 8.3616
O 7.51945 7.88809 9.51198
H 7.7873 7.00728 9.90242
H 7.34674 7.78002 8.53294
O -7.46779 1.4427 -11.3146
H -7.1476 1.53424 -12.2576
H -7.95442 2.27389 -11.0457
O 9.66993 7.35386 -13.8659
H 10.0827 8.24954 -13.7004
H 10.1533 6.66024 -13.3319
O -6.55702 -11.0825 1.95179
H -6.90472 -12.0138 2.06046
H -5.91421 -11.054 1.18628
O -1.325 9.78983 -11.2598
H -0.620748 9.27925 -11.7531
H -1.46853 9.37605 -10.3608
O -0.70726 -12.0424 7.87293
H -1.531 -12.6008 7.77432
H 0.029319 -12.4348 7.32204
O -2.78946 6.73853 -7.14439
H -2.54449 6.81701 -6.17803
H -3.50536 6.04862 -7.25181
O -12.8364 1.46768 1.81489
H -12.8203 1.2655 2.79412
H -13.749 1.78294 1.55457
O -5.43767 8.702 7.77773
H -5.78566 9.139 8.60717
H -4.43831 8.73817 7.7761
O 8.72941 2.87152 13.6968
H 9.31899 2.47149 12.9951
H 8.86305 3.86231 13.7193
O -10.3918 -5.57492 1.89952
H -9.54007 -5.96303 2.25154
H -10.9625 -6.30662 1.52678
O -12.2356 -13.2159 -7.97281
H -11.8878 -12.4236 -8.47408
H -12.4105 -12.9585 -7.02245
O 1.25102 -1.84951 7.42618
H 0.777694 -0.969633 7.46857
H 2.13638 -1.77417 7.88497
O -13.0509 7.33087 7.41213
H -12.4593 7.63404 8.15922
H -13.892 6.94305 7.78932
O -4.87472 -2.87258 -13.5153
H -5.1634 -2.41158 -14.3544
H -5.5855 -2.77313 -12.8189
O 5.00616 -4.51567 -12.3408
H 4.34785 -3.7661 -12.2715
H 4.77113 -5.22788 -11.6793
O -12.4753 13.248 -14.113
H -11.8626 13.7008 -13.4652
H -13.4216 13.497 -13.9067
O -14.4309 10.414 -13.7637
H 14.7032 10.5637 -13.278
H -13.6649 10.573 -13.1407
O 8.85449 -12.924 -3.17735
H 9.74259 -12.4697 -3.24714
H 8.18955 -12.4461 -3.75132
O -11.586 12.8279 -9.50322
H -10.9425 13.1576 -10.1941
H -11.8064 11.8693 -9.68354
O -1.51918 14.7337 10.1149
H -1.18557 13.8026 10.2622
H -1.19713 -14.6712 10.855
O -8.6798 -1.82443 -12.4846
H -7.93347 -2.41148 -12.1709
H -9.11353 -1.38711 -11.6968
O 1.28436 12.154 6.89457
H 1.50292 13.1163 7.05631
H 0.306344 12.0052 7.04072
O -12.4217 5.87573 14.8473
H -11.8053 5.16158 -14.8164
H -12.3226 6.6922 -14.5792
O 14.3825 -4.77862 -13.301
H 14.766 -3.86265 -13.4194
H -14.8731 -5.43066 -13.1346
O -0.553624 9.95544 11.8086
H -0.111489 10.2377 10.9572
H -0.281439 9.01927 12.0311
O -14.0913 -14.9114 -5.08127
H -13.8705 -13.9964 -5.41906
H -14.9601 14.7839 -5.47525
O 4.31844 -5.15558 -0.504529
H 3.98256 -4.56256 -1.23633
H 4.19052 -6.11238 -0.76568
O 12.8987 -3.5419 1.17758
H 13.6791 -3.51141 1.80211
H 13.2247 -3.68872 0.243668
O 9.27647 4.42539 0.743049
H 8.73253 3.59502 0.864081
H 10.2343 4.17805 0.596761
O 2.75114 1.07959 -11.0423
H 3.68744 0.926028 -11.3582
H 2.68872 0.864644 -10.0677
O 7.7023 1.28712 11.2356
H 7.07474 1.32943 10.4581
H 7.76051 2.1877 11.6663
O 3.04143 -9.98946 -6.15303
H 3.77945 -10.3496 -5.5824
H 2.6352 -10.7345 -6.68206
O -8.97237 6.30634 -9.74708
H -9.07732 5.33148 -9.55047
H -8.86194 6.43768 -10.7323
O 3.18947 12.6194 -7.02238
H 3.42095 11.7322 -7.42152
H 3.59785 13.3487 -7.57142
O 9.39573 12.7235 -5.17728
H 10.0954 12.7174 -5.89176
H 9.80737 12.4582 -4.30538
O 3.67332 -8.74503 5.89914
H 3.55592 -7.97613 5.27063
H 4.08284 -8.41939 6.75136
O 0.535277 -5.86677 10.0194
H -0.210341 -6.47526 9.74772
H 1.1821 -5.77359 9.26248
O 6.48325 13.9535 -3.47964
H 6.90562 13.2947 -4.10219
H 7.03385 14.0266 -2.64806
O -4.66352 11.5763 -0.694305
H -3.93172 10.9586 -0.982339
H -4.36942 12.5236 -0.821366
O -7.39386 8.56174 -5.98541
H -8.28202 8.16156 -6.21134
H -7.50235 9.54196 -5.81981
O -7.39623 -9.67936 -5.76266
H -7.10848 -10.2915 -5.02608
H -6.61678 -9.12935 -6.06263
O -3.72202 -6.56215 11.2031
H -3.15156 -7.05228 11.8622
H -3.89072 -5.63364 11.5339
O 12.4478 -8.80768 -2.02339
H 13.3345 -8.89764 -2.47686
H 12.5816 -8.45829 -1.09601
O 9.65631 7.03746 0.414564
H 9.6435 6.04084 0.333252
H 9.08166 7.43755 -0.29939
O -14.7225 -8.54405 -6.03883
H 14.5685 -9.00587 -6.57791
H -14.5067 -7.66217 -6.45803
O -1.0578 -0.904992 -9.892
H -1.66663 -1.66664 -10.1139
H -0.592276 -0.597685 -10.722
O -12.6356 -9.65099 -11.1246
H -12.7485 -10.561 -11.5235
H -13.1647 -8.98727 -11.6533
O 14.4748 -2.97397 3.34655
H 14.3203 -2.72414 4.30244
H -14.6673 -2.56106 3.02786
O 10.4432 -14.1772 13.7807
H 10.0532 -13.5229 14.4286
H 10.2134 -13.8997 12.8478
O -12.3808 9.66059 1.80818
H -12.7419 8.79015 1.47363
H -11.8495 10.1012 1.08457
O -1.29422 8.36527 -8.82819
H -0.81264 8.96118 -8.18553
H -2.10222 7.97905 -8.38323
O 13.6748 -7.98251 7.89765
H 13.5058 -8.81839 8.41991
H 14.3828 -8.15486 7.21269
O -12.7796 -12.505 13.9269
H -12.349 -13.4049 13.8583
H -13.6835 -12.599 14.3442
O 2.0823 14.8901 7.27051
H 1.75144 -14.2525 6.86623
H 2.47404 -14.9171 8.17116
O 3.80265 14.025 -4.61429
H 4.55858 13.6255 -4.09565
H 3.52674 13.395 -5.34016
O -11.8246 -2.5312 -8.52343
H -11.5403 -2.2683 -7.60144
H -11.6842 -3.51343 -8.64815
O 14.4286 9.46386 12.3301
H 13.771 9.68128 11.6088
H -14.6482 9.7255 12.0336
O -11.5748 -6.81233 6.49664
H -12.5605 -6.95857 6.41258
H -11.2658 -6.19839 5.77027
O 13.349 -8.00945 -12.4503
H 12.5661 -7.41845 -12.645
H 13.1001 -8.66941 -11.7413
O -12.3733 -12.1319 -12.2409
H -11.7559 -11.8148 -12.9608
H -11.8963 -12.7907 -11.6591
O 0.288819 13.2754 -9.13855
H 0.727557 13.7171 -8.35596
H 0.474073 12.293 -9.1139
O 13.2175 4.35447 -12.8311
H 14.0205 4.39492 -13.4257
H 13.4109 4.83649 -11.9766
O -9.5138 -12.8306 0.90232
H -9.96144 -12.9811 1.7838
H -10.0264 -13.3004 0.183649
O -13.8693 -11.535 3.05848
H -14.0126 -10.9109 2.29044
H -13.5877 -12.43 2.71254
O -8.10528 13.7868 1.78085
H -7.99761 12.9171 1.29907
H -8.15257 14.5324 1.11616
O 7.47846 -8.39828 9.776
H 6.87537 -9.12657 9.45058
H 6.98047 -7.5311 9.78244
O 4.70093 -0.323827 13.6908
H 5.6533 -0.415123 13.3998
H 4.65717 -0.313595 14.6898
O 6.70848 0.116556 5.95306
H 7.48851 -0.494527 6.08775
H 6.9236 0.778302 5.23484
O 10.8754 1.26618 0.613127
H 10.7172 0.337423 0.94844
H 10.6252 1.31862 -0.353657
O 14.3277 12.3726 4.168
H 14.5716 11.7136 3.45652
H -14.9617 13.0786 4.22453
O 9.21213 0.534551 14.7724
H 9.09118 1.41787 14.3195
H 8.37757 -0.00753394 14.674
O 0.112301 -12.0525 -9.31305
H 0.0947447 -11.184 -8.81762
H -0.586703 -12.0425 -10.0281
O 8.88879 8.12509 -1.89384
H 7.89201 8.14673 -1.97115
H 9.29624 8.47259 -2.73838
O 10.085 12.1427 11.0652
H 9.89012 12.6082 11.9286
H 9.94399 11.1591 11.1776
O 3.72948 10.7598 10.0259
H 4.05395 11.2675 9.22786
H 4.08644 9.82617 9.99478
O -14.3581 11.6407 6.41338
H -13.4129 11.7874 6.12174
H -14.9649 11.703 5.62096
O 12.534 -6.25874 2.1973
H 12.0003 -6.56987 2.98367
H 12.3006 -5.3085 1.99095
O -2.10392 13.4351 -13.1346
H -2.29771 13.0884 -14.0524
H -1.24736 13.0397 -12.8029
O -11.856 4.76935 -7.94918
H -11.77 5.52663 -8.59661
H -11.358 4.98973 -7.11045
O -11.0359 -13.3066 3.05685
H -10.9213 -14.2027 3.48572
H -10.8115 -12.59 3.7172
O 11.0446 -9.2709 -14.5387
H 11.2643 -8.31317 -14.7245
H 10.4266 -9.32505 -13.7544
O 7.36332 4.99011 2.72549
H 8.21398 4.73826 2.26402
H 7.57509 5.48919 3.56579
O 14.6097 3.50325 4.33114
H 14.779 4.45079 4.60233
H 14.7941 2.89711 5.10485
O 1.45999 -5.88386 -13.1696
H 0.885117 -5.06574 -13.1548
H 0.954651 -6.65341 -12.7791
O 6.84883 7.15895 13.829
H 6.19311 6.69645 13.2322
H 6.87702 8.13247 13.6021
O -6.39297 12.7949 3.89565
H -5.46302 12.4918 3.68751
H -6.9325 12.8172 3.05397
O 4.47648 10.2424 14.262
H 4.33652 9.27696 14.0423
H 4.63832 10.756 13.4193
O 10.5679 6.22779 5.40455
H 11.1286 6.96704 5.77755
H 11.1501 5.44362 5.18983
O -11.0689 -6.83303 -4.35753
H -11.7664 -6.95492 -3.65131
H -10.74 -7.72794 -4.65909
O 9.10099 5.75063 11.1436
H 9.28929 4.81564 10.843
H 9.07593 5.7808 12.1428
O -8.14682 3.47352 -6.52078
H -7.15482 3.47656 -6.64708
H -8.41922 2.63936 -6.04119
O -13.902 -1.65572 -2.6572
H -14.1408 -1.54538 -3.62197
H -12.9068 -1.67639 -2.56047
O -10.2286 -8.93818 13.9133
H -9.75931 -9.06405 13.0392