LAMMPS data file via write_data, version 15 May 2015, timestep = 1009000

2593 atoms
6 atom types
1728 bonds
4 bond types
864 angles
3 angle types
0 dihedrals
3 dihedral types
0 impropers
1 improper types

-1.4932532300253689e+01 1.4932532300253689e+01 xlo xhi
-1.4932532300253689e+01 1.4932532300253689e+01 ylo yhi
-1.4932532300253689e+01 1.4932532300253689e+01 zlo zhi

Masses

1 15.9994
2 1.00794
3 12.0107
4 1.00794
5 12.0107
6 12.0107

Bond Coeffs # harmonic

1 1000 1
2 469 1.4
3 367 1.08
4 469 0.7

Angle Coeffs # harmonic

1 100 109.47
2 35 120
3 63 120

Dihedral Coeffs # opls

1 0 7.25 0 0
2 0 7.25 0 0
3 0 7.25 0 0

Improper Coeffs # cvff

1 2.5 -1 2

Atoms # full

2423 808 2 4.0999999999999998e-01 -1.0887682178894798e+01 -5.8635043073283768e+00 -1.1151893345597253e+01 2 1 1
195 65 2 4.0999999999999998e-01 -1.2162959224811118e+01 -9.9299768109010316e+00 -1.0392786038917432e+01 1 3 1
108 36 2 4.0999999999999998e-01 -1.0185598835887582e+01 -1.3166246498469492e+01 -1.0853217740921661e+01 2 3 2
580 194 1 -8.1999999999999995e-01 -1.0682519040498919e+01 -1.1070234361203651e+01 -1.2895943071736026e+01 0 1 -1
82 28 1 -8.1999999999999995e-01 -1.0364809684847629e+01 -9.3100039658217106e+00 -9.7308107533532073e+00 1 1 1
461 154 2 4.0999999999999998e-01 -4.2861350660795772e-01 -1.3892698143396990e+01 -9.4915907809607294e+00 0 -2 2
1144 382 1 -8.1999999999999995e-01 -1.2985960312956259e+01 -6.9428971367495107e+00 -1.0640825047331102e+01 1 0 4
83 28 2 4.0999999999999998e-01 -1.0236570405502430e+01 -8.9679615313922092e+00 -1.0661703468130067e+01 1 1 1
542 181 2 4.0999999999999998e-01 -6.5340754118303046e-01 -1.0067927434665542e+01 -1.4664514519854251e+01 1 1 1
2020 674 1 -8.1999999999999995e-01 -9.3291173978821096e+00 -1.2618855819898453e+01 -1.4771317932010030e+01 0 0 1
1145 382 2 4.0999999999999998e-01 -1.2635355315723162e+01 -7.8790808304139439e+00 -1.0615609734428586e+01 1 0 4
106 36 1 -8.1999999999999995e-01 -9.3521562021562001e+00 -1.2969311137782841e+01 -1.0336894775455402e+01 2 3 2
1907 636 2 4.0999999999999998e-01 -9.2447573075616081e+00 -8.0074328098689218e+00 -1.2691867899870001e+01 1 1 1
1758 586 2 4.0999999999999998e-01 -7.6225114652311827e+00 -1.3834547238144388e+01 -1.1013903211156393e+01 1 2 3
213 71 2 4.0999999999999998e-01 -1.4319695977634654e+01 -7.6845837756485373e+00 -1.2216819435421861e+01 2 2 1
1906 636 1 -8.1999999999999995e-01 -1.0140581846987736e+01 -8.3579473447695527e+00 -1.2418669293464319e+01 1 1 1
107 36 2 4.0999999999999998e-01 -9.5899999362314823e+00 -1.2500433531765522e+01 -9.4862575343137117e+00 2 3 2
194 65 2 4.0999999999999998e-01 -1.2390333256373367e+01 -1.0037131611652928e+01 -1.2006305209682974e+01 1 3 1
1409 470 2 4.0999999999999998e-01 -1.3616497541502568e+01 -1.2565433599021571e+01 -1.3697735862572015e+01 0 3 2
84 28 2 4.0999999999999998e-01 -1.0163310212005698e+01 -8.5806613087944363e+00 -9.0770088948852141e+00 1 1 1
581 194 2 4.0999999999999998e-01 -1.0403601280430621e+01 -1.0110115895610569e+01 -1.2876527652903205e+01 0 1 -1
1410 470 2 4.0999999999999998e-01 -1.2230168716655609e+01 -1.2472039385353209e+01 -1.2839834328422253e+01 0 3 2
1408 470 1 -8.1999999999999995e-01 -1.2995237703527307e+01 -1.3064036789327847e+01 -1.3093227324556581e+01 0 3 2
1981 661 1 -8.1999999999999995e-01 -9.4258866261729555e+00 -7.6121028479775372e+00 -7.8351728727173162e+00 2 3 3
2424 808 2 4.0999999999999998e-01 -9.9844565150232629e+00 -5.6149955351715466e+00 -1.2489448020001625e+01 2 1 1
2422 808 1 -8.1999999999999995e-01 -1.0207177716015117e+01 -5.2677553751195649e+00 -1.1578503700554434e+01 2 1 1
1908 636 2 4.0999999999999998e-01 -1.0857900527530226e+01 -7.8296945880696942e+00 -1.2872984669023388e+01 1 1 1
1461 487 2 4.0999999999999998e-01 -1.3050348569774787e+01 -1.3951704406981246e+01 -1.1134591745491786e+01 0 3 -1
322 108 1 -8.1999999999999995e-01 -7.2365266405018511e+00 -9.5543745988950519e+00 -1.4765825556662762e+01 1 2 2
1460 487 2 4.0999999999999998e-01 -1.2306440167561842e+01 -1.4843697314483311e+01 -9.9867354045637384e+00 0 3 -1
582 194 2 4.0999999999999998e-01 -1.0110564976650290e+01 -1.1570399924074408e+01 -1.3546098818879686e+01 0 1 -1
193 65 1 -8.1999999999999995e-01 -1.2779386942006248e+01 -9.7045234209855611e+00 -1.1147230977405552e+01 1 3 1
1459 487 1 -8.1999999999999995e-01 -1.2717896021085295e+01 -1.3955562585161671e+01 -1.0191479904556319e+01 0 3 -1
558 186 2 4.0999999999999998e-01 -1.3246489386500530e+01 -7.4594099546749675e+00 -1.4057609858260006e+01 -1 0 3
820 274 1 -8.1999999999999995e-01 -7.8663406779817358e-01 -9.8036860642307779e+00 -1.0936696872388559e+01 -1 2 2
2573 858 2 4.0999999999999998e-01 -1.4907363077520049e+01 -6.4407639178217391e+00 -7.9529953352976568e+00 1 3 0
556 186 1 -8.1999999999999995e-01 -1.2263105133192120e+01 -7.4426218083453239e+00 -1.4238367119221579e+01 -1 0 3
1443 481 2 4.0999999999999998e-01 -2.9402005121541386e-01 -7.0089276891303740e+00 -1.3811870034674943e+01 0 2 3
1453 485 1 -8.1999999999999995e-01 -1.3968069652472295e+00 -6.0335256875473586e+00 -1.0734667204392077e+01 1 0 0
1982 661 2 4.0999999999999998e-01 -8.7635512504019815e+00 -6.8734972567761705e+00 -7.9607642670422560e+00 2 3 3
1921 641 1 -8.1999999999999995e-01 -7.9320697939191600e+00 -7.0407506739346521e+00 -1.3775922227680633e+01 2 1 3
557 186 2 4.0999999999999998e-01 -1.1954310245364727e+01 -6.4945323845525067e+00 -1.4314338589294788e+01 -1 0 3
2022 674 2 4.0999999999999998e-01 -8.9007983709924119e+00 -1.3294006746680861e+01 -1.4170723593183634e+01 0 0 1
600 200 2 4.0999999999999998e-01 -3.8937905580637118e+00 -1.1190005871861128e+01 -1.2381661002763121e+01 0 1 -1
1146 382 2 4.0999999999999998e-01 -1.3448062370304269e+01 -6.7366913684075822e+00 -9.7783052538722508e+00 1 0 4
1580 527 2 4.0999999999999998e-01 -8.2066928532911341e+00 -1.1761389453015767e+01 -1.1954214991791090e+01 1 2 1
102 34 2 4.0999999999999998e-01 -7.2119055116915112e+00 -1.0094009543826377e+01 -1.1173017817631523e+01 0 2 1
1442 481 2 4.0999999999999998e-01 -1.6540654867067328e+00 -6.4728960480137250e+00 -1.4539586794761743e+01 0 2 3
1923 641 2 4.0999999999999998e-01 -7.5482748418102856e+00 -7.8505582757826442e+00 -1.4219670628474283e+01 2 1 3
546 182 2 4.0999999999999998e-01 -5.6579604882793770e+00 -9.5750820881454377e+00 -1.4167110944196653e+01 0 0 2
2014 672 1 -8.1999999999999995e-01 -1.4817927237555068e+01 -1.2226871572838412e+01 -9.6056984341369045e+00 2 1 2
904 302 1 -8.1999999999999995e-01 -7.9269607237671673e+00 -5.3511378248287702e+00 -9.6271686966636203e+00 0 2 2
2255 752 2 4.0999999999999998e-01 -1.0554333837940854e+01 -1.1307198383874509e+01 -7.6391738990215527e+00 4 0 0
2123 708 2 4.0999999999999998e-01 -7.4397338483511710e-01 -1.3009490630215703e+01 -7.9918613407210470e+00 1 1 -1
982 328 1 -8.1999999999999995e-01 -4.0324435827581961e+00 -1.2329397149097332e+01 -9.1343993100858540e+00 1 0 1
984 328 2 4.0999999999999998e-01 -3.8408803301303429e+00 -1.2440460044425857e+01 -1.0109575337932320e+01 1 0 1
2565 855 2 4.0999999999999998e-01 -4.2232289666000931e+00 -5.9918899386478426e+00 -1.4201492095780740e+01 -1 2 2
1441 481 1 -8.1999999999999995e-01 -8.4089413737983243e-01 -7.0446728486555070e+00 -1.4648321194842120e+01 0 2 3
64 22 1 -8.1999999999999995e-01 -2.0444790175543552e+00 -1.4050104349527166e+01 -1.3103763701985867e+01 1 1 1
2124 708 2 4.0999999999999998e-01 -2.1673261213057007e+00 -1.2209915345069867e+01 -8.0288963490376197e+00 1 1 -1
1581 527 2 4.0999999999999998e-01 -6.6151147513407409e+00 -1.2068918452040073e+01 -1.2151522445350256e+01 1 2 1
310 104 1 -8.1999999999999995e-01 -9.1402789241255533e-01 -1.1508120557674548e+01 -1.3532080296036479e+01 1 1 3
1756 586 1 -8.1999999999999995e-01 -6.8867015990939962e+00 -1.4501196358683581e+01 -1.1132908725599528e+01 1 2 3
403 135 1 -8.1999999999999995e-01 -1.7721349022923079e+00 -1.4532687776616809e+01 -1.0009627008064605e+01 4 2 0
311 104 2 4.0999999999999998e-01 -7.5707375174636660e-01 -1.1195508472211561e+01 -1.2595256605952647e+01 1 1 3
1663 555 1 -8.1999999999999995e-01 -5.2492008493350397e+00 -1.0216019596570597e+01 -8.2209359644254150e+00 1 2 1
2572 858 1 -8.1999999999999995e-01 -1.4176604982629470e+01 -7.0993411715765733e+00 -8.1326286522850353e+00 1 3 0
65 22 2 4.0999999999999998e-01 -2.8928459786203877e+00 -1.4562229658775724e+01 -1.2969596816148897e+01 1 1 1
2015 672 2 4.0999999999999998e-01 -1.4090356367428443e+01 -1.2910900649816782e+01 -9.6580852024952044e+00 2 1 2
2563 855 1 -8.1999999999999995e-01 -3.2562588603114992e+00 -5.8619223464142607e+00 -1.3982228022263612e+01 -1 2 2
66 22 2 4.0999999999999998e-01 -1.4494990273137880e+00 -1.4549804793782428e+01 -1.3733285587266685e+01 1 1 1
405 135 2 4.0999999999999998e-01 -2.1121920893722024e+00 -1.3999218485454740e+01 -1.0784075965468048e+01 4 2 0
1579 527 1 -8.1999999999999995e-01 -7.4028327829731166e+00 -1.1574397620713274e+01 -1.2518876437511388e+01 1 2 1
1664 555 2 4.0999999999999998e-01 -5.6576372009955005e+00 -9.7927949803347722e+00 -9.0296758482468462e+00 1 2 1
101 34 2 4.0999999999999998e-01 -7.8076978995929949e+00 -9.4828184914966123e+00 -9.7808604407166335e+00 0 2 1
1549 517 1 -8.1999999999999995e-01 -5.1639223367620080e+00 -1.4793423320972746e+01 -7.7715565893910554e+00 -1 1 1
2254 752 1 -8.1999999999999995e-01 -9.6426414583474145e+00 -1.1311897844530465e+01 -8.0500198984509872e+00 4 0 0
599 200 2 4.0999999999999998e-01 -3.1707162949893632e+00 -1.2652017402431714e+01 -1.2461103063010025e+01 0 1 -1
57 19 2 4.0999999999999998e-01 -6.1881990401502200e+00 -8.2864842515370558e+00 -1.1247642874099872e+01 1 0 1
100 34 1 -8.1999999999999995e-01 -7.0723412358642941e+00 -9.4122704392205296e+00 -1.0454858272097187e+01 0 2 1
983 328 2 4.0999999999999998e-01 -4.2147759480986533e+00 -1.3224045060815129e+01 -8.7265273151265319e+00 1 0 1
598 200 1 -8.1999999999999995e-01 -3.7398465452742293e+00 -1.2052076686317827e+01 -1.1898820754686842e+01 0 1 -1
1436 479 2 4.0999999999999998e-01 -5.0189636563536073e+00 -1.4032901383612693e+01 -1.4598803144452448e+01 -2 1 3
1454 485 2 4.0999999999999998e-01 -1.5301484708326107e+00 -5.7458842051402907e+00 -9.7862569851323684e+00 1 0 0
2256 752 2 4.0999999999999998e-01 -9.5686800118911570e+00 -1.0560555052975582e+01 -8.7057738936463096e+00 4 0 0
544 182 1 -8.1999999999999995e-01 -4.7134856698722736e+00 -9.5313161766667314e+00 -1.3841455444667677e+01 0 0 2
1922 641 2 4.0999999999999998e-01 -7.7529808336959167e+00 -6.2349637897103509e+00 -1.4340399204143631e+01 2 1 3
55 19 1 -8.1999999999999995e-01 -5.4353612456028646e+00 -7.7371628535080044e+00 -1.1610245719593674e+01 1 0 1
597 199 2 4.0999999999999998e-01 -3.7759993777269916e+00 -7.8972224423302659e+00 -1.1632097572836454e+01 1 1 2
596 199 2 4.0999999999999998e-01 -2.6171224767035142e+00 -7.7419771927363117e+00 -1.2772066208535726e+01 1 1 2
595 199 1 -8.1999999999999995e-01 -2.7920097648136348e+00 -7.9342479116224052e+00 -1.1806433776509913e+01 1 1 2
324 108 2 4.0999999999999998e-01 -7.5684646332765109e+00 -1.0141632822422290e+01 -1.4027621913394690e+01 1 2 2
477 159 2 4.0999999999999998e-01 -6.8413540848332843e-02 -6.3615871990764337e+00 -1.1842039261302247e+01 0 1 0
1777 593 1 -8.1999999999999995e-01 -1.4894630361689003e+01 -1.1675688942961751e+01 -1.4594885671794412e+01 3 2 1
545 182 2 4.0999999999999998e-01 -4.6954196862043087e+00 -9.1347337809103095e+00 -1.2923634335451665e+01 0 0 2
1455 485 2 4.0999999999999998e-01 -2.0349881157726823e+00 -6.7721522674367645e+00 -1.0951819516385534e+01 1 0 0
312 104 2 4.0999999999999998e-01 -1.4870535681024073e+00 -1.2327544051432252e+01 -1.3518430657862869e+01 1 1 3
1274 425 2 4.0999999999999998e-01 -1.3112014976787686e+01 -1.2129093836718607e+01 -7.9719712764549273e+00 0 2 2
746 249 2 4.0999999999999998e-01 -5.3491878137990891e+00 -1.4833903010880338e+01 -1.2078260662824697e+01 1 2 1
822 274 2 4.0999999999999998e-01 -1.4161720692409698e+00 -9.2379802429995017e+00 -1.1469292891571852e+01 -1 2 2
56 19 2 4.0999999999999998e-01 -5.7834356996872156e+00 -6.8465554716202011e+00 -1.1902927016276633e+01 1 0 1
2574 858 2 4.0999999999999998e-01 -1.4450393434762024e+01 -8.0007413169879893e+00 -7.7971928688725898e+00 1 3 0
1665 555 2 4.0999999999999998e-01 -4.6110429533456028e+00 -1.0931420215258250e+01 -8.5054637331645750e+00 1 2 1
906 302 2 4.0999999999999998e-01 -8.7958933277207372e+00 -5.6958130955145680e+00 -9.9823511530869347e+00 0 2 2
2564 855 2 4.0999999999999998e-01 -3.1543481701682001e+00 -5.0689605081797229e+00 -1.3381540723903994e+01 -1 2 2
1273 425 1 -8.1999999999999995e-01 -1.2708078930142474e+01 -1.2290396884747024e+01 -7.0715177651211079e+00 0 2 2
510 170 2 4.0999999999999998e-01 -1.2048599576412549e+01 -5.2107533302310376e+00 -3.3975879478255706e+00 0 0 2
1551 517 2 4.0999999999999998e-01 -4.5296978326094788e+00 -1.4644968235140640e+01 -7.0127945340956286e+00 -1 1 1
2554 852 1 -8.1999999999999995e-01 -1.1600846289325684e+01 -1.2718524373184911e+01 -3.4755431022650978e+00 1 2 2
2556 852 2 4.0999999999999998e-01 -1.1466187970751665e+01 -1.3628628813986639e+01 -3.8674316297415778e+00 1 2 2
1970 657 2 4.0999999999999998e-01 -9.5444407568074787e+00 -8.0617310565225093e+00 -4.8315778712267825e+00 2 1 1
2555 852 2 4.0999999999999998e-01 -1.0721906682314238e+01 -1.2355364394289154e+01 -3.1663835665997659e+00 1 2 2
2090 697 2 4.0999999999999998e-01 -1.1011097513369689e+01 -1.4682714663939329e+01 -5.7479655833311067e+00 1 1 1
508 170 1 -8.1999999999999995e-01 -1.1570440364474752e+01 -6.0817879357070836e+00 -3.2850613135251798e+00 0 0 2
1164 388 2 4.0999999999999998e-01 -5.3756648168994765e+00 -8.8261605485010755e+00 -6.7993779972376416e+00 -1 3 1
509 170 2 4.0999999999999998e-01 -1.1573759231401999e+01 -6.3415201824343281e+00 -2.3193865688368760e+00 0 0 2
874 292 1 -8.1999999999999995e-01 -9.5828292723589694e+00 -1.1420304484066236e+01 -1.8562939899505349e+00 -1 2 -1
2406 802 2 4.0999999999999998e-01 -1.3013301727213070e+01 -8.8391189076609251e+00 -3.6213819761980446e+00 3 0 2
2404 802 1 -8.1999999999999995e-01 -1.3959266889118734e+01 -9.0741183057937818e+00 -3.3979434762455281e+00 3 0 2
240 80 2 4.0999999999999998e-01 -9.2109988775890415e+00 -1.0093040119038346e+01 -3.3733728620246968e+00 2 0 1
875 292 2 4.0999999999999998e-01 -8.7468569644836425e+00 -1.1940976687776249e+01 -1.6829438738273872e+00 -1 2 -1
2485 829 1 -8.1999999999999995e-01 -2.0264920867620226e+00 -1.2256867573890629e+01 -2.0379776892424051e+00 -1 2 1
2089 697 1 -8.1999999999999995e-01 -1.0949412141710518e+01 -1.4496568779543017e+01 -6.7285492305714723e+00 1 1 1
1428 476 2 4.0999999999999998e-01 -1.4256164384275868e+01 -7.9778303613789454e+00 -1.6869878804542893e+00 3 1 0
1971 657 2 4.0999999999999998e-01 -1.0764375326586702e+01 -7.0371627135968344e+00 -4.4729071862191248e+00 2 1 1
1293 431 2 4.0999999999999998e-01 -9.6891394504275290e+00 -6.2475875865455563e+00 -4.3426323348358054e-01 1 2 1
298 100 1 -8.1999999999999995e-01 -4.5676992006260697e+00 -7.8005160241009373e+00 -3.0175141481140084e+00 0 4 3
1426 476 1 -8.1999999999999995e-01 -1.4361510927911926e+01 -7.5634379055169685e+00 -7.8300747498045631e-01 3 1 0
876 292 2 4.0999999999999998e-01 -9.7723200679572688e+00 -1.0824535037916185e+01 -1.0758123677550486e+00 -1 2 -1
949 317 1 -8.1999999999999995e-01 -4.9809907305371226e-01 -7.2961772386288386e+00 -1.1995032209472214e+00 0 1 1
238 80 1 -8.1999999999999995e-01 -8.9782298597499874e+00 -9.6027601752491698e+00 -4.2132798419858268e+00 2 0 1
1291 431 1 -8.1999999999999995e-01 -1.0507492466277846e+01 -6.7601132406155173e+00 -6.9429280792983761e-01 1 2 1
239 80 2 4.0999999999999998e-01 -8.2608031129592696e+00 -1.0099769302551424e+01 -4.7014197052802551e+00 2 0 1
1969 657 1 -8.1999999999999995e-01 -1.0055498714106205e+01 -7.2602131028034087e+00 -5.1420425978971185e+00 2 1 1
1292 431 2 4.0999999999999998e-01 -1.0397205302057792e+01 -7.7190721233859785e+00 -4.3307613081529617e-01 1 2 1
891 297 2 4.0999999999999998e-01 -1.3116160991669798e+01 -1.3485103351490034e+01 -2.4266776694366143e+00 0 0 2
1668 556 2 4.0999999999999998e-01 -1.2912683355575799e+01 -6.3238666340126635e+00 -7.2679081837905732e+00 1 4 0
376 126 1 -8.1999999999999995e-01 -2.8552107447443760e+00 -1.3837564660713262e+01 -5.4287555417848452e+00 1 2 0
2410 804 1 -8.1999999999999995e-01 -7.5436430077358612e+00 -1.0954546323546431e+01 -6.1202518743921548e+00 1 2 -1
1667 556 2 4.0999999999999998e-01 -1.1836293963437267e+01 -6.1104727770056773e+00 -6.0585801999483113e+00 1 4 0
889 297 1 -8.1999999999999995e-01 -1.3678572819257276e+01 -1.3725833281533440e+01 -1.6356393857748657e+00 0 0 2
2405 802 2 4.0999999999999998e-01 -1.4134686274665921e+01 -1.0025842349322465e+01 -3.6498343655995420e+00 3 0 2
1851 617 2 4.0999999999999998e-01 -1.3916490279704865e+01 -1.1218169044435697e+01 -5.3624314244063456e+00 0 2 2
1850 617 2 4.0999999999999998e-01 -1.3015177616903424e+01 -1.1893355090489067e+01 -4.1798983073132217e+00 0 2 2
1849 617 1 -8.1999999999999995e-01 -1.3913527873826380e+01 -1.1518260112414604e+01 -4.4085256238641115e+00 0 2 2
1303 435 1 -8.1999999999999995e-01 -5.3845780360038233e+00 -1.0478064338772857e+01 -1.7184615790547610e+00 1 1 -2
890 297 2 4.0999999999999998e-01 -1.4024385956454866e+01 -1.2891543789324601e+01 -1.2062516469376341e+00 0 0 2
329 110 2 4.0999999999999998e-01 -8.8928109655592458e+00 -5.7297299449593435e+00 -4.5241820021167509e+00 1 0 2
950 317 2 4.0999999999999998e-01 -9.3394124231145348e-01 -7.6220012741358705e+00 -3.6052773560591334e-01 0 1 1
2461 821 1 -8.1999999999999995e-01 -1.1942710026831449e-02 -1.0579878473567023e+01 -2.2642664225772062e+00 0 2 2
1163 388 2 4.0999999999999998e-01 -4.6672315783939098e+00 -8.5027760609403753e+00 -5.3640487230571932e+00 -1 3 1
299 100 2 4.0999999999999998e-01 -3.6224346710378263e+00 -7.4848931245352057e+00 -2.9347091031948747e+00 0 4 3
1983 661 2 4.0999999999999998e-01 -9.9045654166910992e+00 -7.4863736248890920e+00 -6.9662319634534651e+00 2 3 3
1666 556 1 -8.1999999999999995e-01 -1.2532856779590135e+01 -5.6636454590769389e+00 -6.6199580693232161e+00 1 4 0
1359 453 2 4.0999999999999998e-01 -1.7673184909425839e+00 -1.3317251113686309e+01 -6.1760812107384666e-01 1 2 0
1710 570 2 4.0999999999999998e-01 -1.7119156805627895e+00 -6.6587694661470938e+00 -2.0689196046666982e+00 -1 3 2
300 100 2 4.0999999999999998e-01 -5.1602073607013441e+00 -7.0249315177849994e+00 -3.2352347258939727e+00 0 4 3
2411 804 2 4.0999999999999998e-01 -8.2324829169078306e+00 -1.0815808429666298e+01 -6.8317650220487423e+00 1 2 -1
2078 693 2 4.0999999999999998e-01 -7.6197058816388576e+00 -1.2524512184239804e+01 -5.8167402908712909e+00 1 0 1
2450 817 2 4.0999999999999998e-01 -1.9897993299063579e+00 -1.4726647271243257e+01 -3.4649182145626796e+00 2 3 -1
2077 693 1 -8.1999999999999995e-01 -7.5809669344714097e+00 -1.3522641859427308e+01 -5.7694542367524626e+00 1 0 1
1708 570 1 -8.1999999999999995e-01 -2.4149887257144957e+00 -6.1413006082395274e+00 -2.5566836844369814e+00 -1 3 2
1790 597 2 4.0999999999999998e-01 -4.7991556919753382e+00 -6.5082417976902374e+00 -6.5248009353716405e+00 3 2 1
991 331 1 -8.1999999999999995e-01 -4.5015376071164201e+00 -1.2472094173657338e+01 -3.4207372025762002e+00 1 1 1
207 69 2 4.0999999999999998e-01 -7.7610470325732672e+00 -1.3754405850133962e+01 -5.6550293445726396e-01 1 3 2
205 69 1 -8.1999999999999995e-01 -7.5203030848940662e+00 -1.3152003251400476e+01 -1.3265239589844278e+00 1 3 2
2449 817 1 -8.1999999999999995e-01 -1.1115561490332357e+00 -1.4531789109048194e+01 -3.0282046277945920e+00 2 3 -1
2486 829 2 4.0999999999999998e-01 -3.0011551607761344e+00 -1.2183285886973755e+01 -2.2492056292870704e+00 -1 2 1
2462 821 2 4.0999999999999998e-01 -9.5668699671428925e-01 -1.0863999111864638e+01 -2.1007633018536023e+00 0 2 2
2091 697 2 4.0999999999999998e-01 -1.0010223630461166e+01 -1.4244246037695738e+01 -6.9614820005005669e+00 1 1 1
2122 708 1 -8.1999999999999995e-01 -1.4389364462798575e+00 -1.2553347686986401e+01 -7.4360201006193325e+00 1 1 -1
993 331 2 4.0999999999999998e-01 -4.8825302725508397e+00 -1.1751091171713336e+01 -2.8419463835188914e+00 1 1 1
1275 425 2 4.0999999999999998e-01 -1.2128428357647273e+01 -1.3104479496169175e+01 -7.1072138721094342e+00 0 2 2
498 166 2 4.0999999999999998e-01 -4.0986425347928090e-01 -1.1416343745536626e+01 -6.4925575481867845e+00 -1 2 0
206 69 2 4.0999999999999998e-01 -6.5990564594955590e+00 -1.2789305323553350e+01 -1.1859737554326504e+00 1 3 2
2079 693 2 4.0999999999999998e-01 -7.5821568374724571e+00 -1.3900488320453244e+01 -6.6953214728629451e+00 1 0 1
990 330 2 4.0999999999999998e-01 -7.7599846248629802e+00 -1.4814303495014659e+01 -4.3636955299920732e+00 0 2 1
2487 829 2 4.0999999999999998e-01 -1.6711467340781603e+00 -1.3118700300377135e+01 -2.3998804725726650e+00 -1 2 1
1789 597 1 -8.1999999999999995e-01 -4.6551286239531393e+00 -5.5193811477768708e+00 -6.5623558155412312e+00 3 2 1
1162 388 1 -8.1999999999999995e-01 -5.5105841359646348e+00 -8.4209878609472089e+00 -5.8951482307617731e+00 -1 3 1
1305 435 2 4.0999999999999998e-01 -5.0107228973895381e+00 -9.6979706362440314e+00 -2.2201444690113323e+00 1 1 -2
1709 570 2 4.0999999999999998e-01 -2.8745750342038665e+00 -5.5217709810142903e+00 -1.9203166820283215e+00 -1 3 2
989 330 2 4.0999999999999998e-01 -7.6814209698713594e+00 -1.4346351562764331e+01 -2.8011738084979836e+00 0 2 1
992 331 2 4.0999999999999998e-01 -5.0041940568218397e+00 -1.2506578326204746e+01 -4.2845351327123105e+00 1 1 1
2412 804 2 4.0999999999999998e-01 -6.6530863043697970e+00 -1.0645084920680244e+01 -6.4536313959398015e+00 1 2 -1
1304 435 2 4.0999999999999998e-01 -5.2787810618313156e+00 -1.0324241252985235e+01 -7.3604366104311225e-01 1 1 -2
378 126 2 4.0999999999999998e-01 -2.2101587271796834e+00 -1.3571994039865336e+01 -6.1452607133932577e+00 1 2 0
377 126 2 4.0999999999999998e-01 -3.1798142282605522e+00 -1.3020173359527538e+01 -4.9528315184798508e+00 1 2 0
1791 597 2 4.0999999999999998e-01 -5.4830646528771734e+00 -5.0747032507006455e+00 -6.9040911053422604e+00 3 2 1
1094 365 2 4.0999999999999998e-01 -1.4895466807601862e+01 -1.4700273973142346e+01 -1.4002796899431171e+00 1 0 2
698 233 2 4.0999999999999998e-01 -2.5939574216986596e+00 -5.0276281782145666e+00 -4.3055873051449591e+00 -1 4 1
1918 640 1 -8.1999999999999995e-01 -9.6431233868851454e+00 -1.0492304980186292e+01 3.2543482821382828e+00 1 3 3
399 133 2 4.0999999999999998e-01 -1.1482589579691505e+01 -6.0998630793780304e+00 6.4067773486808033e+00 0 2 0
920 307 2 4.0999999999999998e-01 -1.4070924961054020e+01 -1.0912302155395821e+01 2.0754190305850013e+00 2 0 3
1389 463 2 4.0999999999999998e-01 -1.1983939128709000e+01 -1.3153051063934964e+01 4.0849604907556785e+00 0 1 -1
1515 505 2 4.0999999999999998e-01 -9.8025426933079700e+00 -1.3196188816372301e+01 1.1624643978979972e+00 0 2 -2
1674 558 2 4.0999999999999998e-01 -2.6010627292818658e+00 -8.0183586537045546e+00 5.8494050682873517e+00 0 0 3
1387 463 1 -8.1999999999999995e-01 -1.1790972488508210e+01 -1.2176754802540177e+01 4.1829860410921729e+00 0 1 -1
1388 463 2 4.0999999999999998e-01 -1.2607825724708420e+01 -1.1650236521411927e+01 3.9473403351183460e+00 0 1 -1
1919 640 2 4.0999999999999998e-01 -1.0325097680874389e+01 -1.0927402358341400e+01 3.8422265765079029e+00 1 3 3
289 97 1 -8.1999999999999995e-01 -1.1897698251709683e+01 -1.3455257983655613e+01 1.1932847038507379e+00 1 2 0
1168 390 1 -8.1999999999999995e-01 -1.0764094356006566e+01 -7.4876600745554986e+00 5.5399182224124015e+00 0 1 0
1514 505 2 4.0999999999999998e-01 -9.3329976528561254e+00 -1.2064397254827812e+01 2.2419089243716908e+00 0 2 -2
397 133 1 -8.1999999999999995e-01 -1.2038554978865465e+01 -5.4019171811373248e+00 6.8581901568283126e+00 0 2 0
1920 640 2 4.0999999999999998e-01 -8.8453031002853280e+00 -1.0238101102516900e+01 3.8010316302826741e+00 1 3 3
1170 390 2 4.0999999999999998e-01 -1.0071979352778904e+01 -7.5807613642734815e+00 4.8241609251614808e+00 0 1 0
919 307 1 -8.1999999999999995e-01 -1.4219813700184812e+01 -1.0843482800442690e+01 3.0618751059596310e+00 2 0 3
916 306 1 -8.1999999999999995e-01 -1.3104864676203826e+01 -9.6087245867552546e+00 6.2493186135552694e+00 2 1 3
1945 649 1 -8.1999999999999995e-01 -8.7050860215992927e+00 -7.3299932156401884e+00 3.5863919361149303e+00 2 1 -1
1947 649 2 4.0999999999999998e-01 -7.8372127357464940e+00 -7.2825682866470256e+00 4.0809082618079646e+00 2 1 -1
2383 795 1 -8.1999999999999995e-01 -1.2445200889453266e+01 -8.0452575228615544e+00 3.4057472071319683e+00 2 2 1
1946 649 2 4.0999999999999998e-01 -8.5356589049625953e+00 -7.6120825387677353e+00 2.6420828822097970e+00 2 1 -1
2385 795 2 4.0999999999999998e-01 -1.1796891665996608e+01 -7.7175757148573805e+00 4.0930021437717823e+00 2 2 1
2244 748 2 4.0999999999999998e-01 -5.5705337368311163e+00 -1.3513581300654630e+01 1.5754311157812086e+00 0 0 -1
1169 390 2 4.0999999999999998e-01 -1.1060244772999516e+01 -8.3953289334858852e+00 5.8372928446861980e+00 0 1 0
1858 620 1 -8.1999999999999995e-01 -1.0599072612141773e+01 -5.5069307215207779e+00 2.6714176597420316e+00 0 2 2
345 115 2 4.0999999999999998e-01 -1.2262583003587048e+01 -8.5839808842669818e+00 1.9247098114588024e+00 -1 0 1
2384 795 2 4.0999999999999998e-01 -1.3199070544313717e+01 -8.5211077963475326e+00 3.8587887014247659e+00 2 2 1
1213 405 1 -8.1999999999999995e-01 -7.9656729840333522e+00 -1.3388493152400729e+01 4.3799141148515179e+00 0 1 0
1859 620 2 4.0999999999999998e-01 -1.1276538635696342e+01 -5.6496870417449969e+00 1.9498499285558584e+00 0 2 2
1513 505 1 -8.1999999999999995e-01 -9.1294681874612582e+00 -1.2968470919722625e+01 1.8661083365097912e+00 0 2 -2
1214 405 2 4.0999999999999998e-01 -8.5034371193339098e+00 -1.3195400458172898e+01 3.5592287465364958e+00 0 1 0
918 306 2 4.0999999999999998e-01 -1.3917933688053736e+01 -9.0295768866043957e+00 6.1901036121509723e+00 2 1 3
917 306 2 4.0999999999999998e-01 -1.3373184470175422e+01 -1.0533280826417297e+01 6.5198731731379791e+00 2 1 3
1860 620 2 4.0999999999999998e-01 -9.8605786031525930e+00 -6.1738096332198218e+00 2.5719255195077881e+00 0 2 2
196 66 1 -8.1999999999999995e-01 -1.7681474129868668e-01 -8.1241866914340690e+00 1.6389295325403541e+00 0 1 0
767 256 2 4.0999999999999998e-01 -9.2439894448184354e+00 -9.9152932065613086e+00 1.1896876609917957e+00 -1 3 0
921 307 2 4.0999999999999998e-01 -1.4700877698707206e+01 -1.1658828134913723e+01 3.3840381103998798e+00 2 0 3
1425 475 2 4.0999999999999998e-01 -1.3007528238009453e+01 -1.2113275098694634e+01 1.5732205586497905e-01 1 1 0
1558 520 1 -8.1999999999999995e-01 -5.3579019527672109e+00 -1.2289116574965410e+01 6.8680006299570824e+00 -1 3 1
361 121 1 -8.1999999999999995e-01 -1.0302629541541833e+01 -9.9249603065938103e+00 7.2931510989134463e+00 -1 1 0
343 115 1 -8.1999999999999995e-01 -1.2297409475217387e+01 -8.8348015898198771e+00 9.5730311477621299e-01 -1 0 1
1423 475 1 -8.1999999999999995e-01 -1.3620583467054921e+01 -1.1323836117101665e+01 1.8812678310608710e-01 1 1 0
766 256 1 -8.1999999999999995e-01 -9.7849654600510387e+00 -9.8889066217046953e+00 3.4906391901554379e-01 -1 3 0
1841 614 2 4.0999999999999998e-01 -1.3515168227843079e+01 -6.3584024582889747e+00 2.2202677338539498e+00 1 1 0
2480 827 2 4.0999999999999998e-01 -7.3174078505453535e+00 -1.1583398716372439e+01 4.8806412279050111e+00 3 0 0
1484 495 2 4.0999999999999998e-01 -1.4329331489070846e+01 -1.2712015896742182e+01 6.7066329967680058e+00 -1 1 3
1840 614 1 -8.1999999999999995e-01 -1.4354397065326999e+01 -6.1820947860492446e+00 2.7346704022294812e+00 1 1 0
2481 827 2 4.0999999999999998e-01 -7.3921615029286523e+00 -1.0115419302843733e+01 5.5920296898545470e+00 3 0 0
768 256 2 4.0999999999999998e-01 -1.0739354481113919e+01 -9.6913768645630736e+00 5.7294605649672548e-01 -1 3 0
987 329 2 4.0999999999999998e-01 -7.4248056666145379e+00 -5.0311521513995459e+00 6.3157824438374455e-01 1 2 1
290 97 2 4.0999999999999998e-01 -1.1969356618298290e+01 -1.3458328277757470e+01 2.1907090304012176e+00 1 2 0
198 66 2 4.0999999999999998e-01 -6.7566713182675464e-01 -8.6892125998642378e+00 2.2961140932707327e+00 0 1 0
344 115 2 4.0999999999999998e-01 -1.2783574046369594e+01 -8.1258133515447231e+00 4.4644188961288123e-01 -1 0 1
2073 691 2 4.0999999999999998e-01 -7.8276960095083448e+00 -1.4133126628049970e+01 1.5252864104107022e+00 1 3 1
943 315 1 -8.1999999999999995e-01 -1.2512677013910794e+01 -5.8786884335623668e+00 7.5554040859131177e-01 2 1 -1
421 141 1 -8.1999999999999995e-01 -1.2274297907858388e+01 -1.4833339336061504e+01 4.0883330992945677e+00 -2 3 2
1080 360 2 4.0999999999999998e-01 -2.5373236945158535e+00 -5.3771243200307204e+00 4.1069619644380406e+00 0 0 0
1483 495 1 -8.1999999999999995e-01 -1.3471978472692296e+01 -1.2266180049714501e+01 6.9638796694948883e+00 -1 1 3
1485 495 2 4.0999999999999998e-01 -1.2747031057132663e+01 -1.2550712386076027e+01 6.3365901659586807e+00 -1 1 3
945 315 2 4.0999999999999998e-01 -1.3369972682531554e+01 -5.9548431364078027e+00 2.4638018818439811e-01 2 1 -1
1864 622 1 -8.1999999999999995e-01 -8.7644975184346876e+00 -1.3649165503149447e+01 6.9112011530453774e+00 -1 2 2
261 87 2 4.0999999999999998e-01 -3.7737507585763161e+00 -1.1954706597821302e+01 4.7174236666443665e+00 0 2 0
2242 748 1 -8.1999999999999995e-01 -4.8793670389363228e+00 -1.2817475239561055e+01 1.7696590470654119e+00 0 0 -1
1215 405 2 4.0999999999999998e-01 -7.4495299615953074e+00 -1.4234885381086512e+01 4.2487039464126592e+00 0 1 0
1559 520 2 4.0999999999999998e-01 -5.4794399839117141e+00 -1.3261194259253694e+01 6.6672692372481119e+00 -1 3 1
430 144 1 -8.1999999999999995e-01 -7.8044012143941464e+00 -9.0970477045407208e+00 6.9359846053684873e+00 1 2 2
1358 453 2 4.0999999999999998e-01 -9.0840486513479313e-01 -1.3442089829673396e+01 7.6561561053898686e-01 1 2 0
1866 622 2 4.0999999999999998e-01 -8.7117276749480581e+00 -1.3200412122555313e+01 6.0191051158047255e+00 -1 2 2
1378 460 1 -8.1999999999999995e-01 -5.9071319871660588e+00 -1.4803351211319271e+01 6.4292705953272193e+00 -1 3 -1
857 286 2 4.0999999999999998e-01 -2.1551316201612440e+00 -9.3044186296037203e+00 3.7060088141401923e+00 0 2 2
2243 748 2 4.0999999999999998e-01 -3.9725955619237805e+00 -1.3177986692790057e+01 1.5510347728394063e+00 0 0 -1