LAMMPS data file via write_data, version 15 May 2015, timestep = 18500000

2593 atoms
6 atom types
1728 bonds
4 bond types
864 angles
3 angle types
0 dihedrals
3 dihedral types
0 impropers
1 improper types

-1.4956874314254902e+01 1.4956874314254902e+01 xlo xhi
-1.4956874314254902e+01 1.4956874314254902e+01 ylo yhi
-1.4956874314254902e+01 1.4956874314254902e+01 zlo zhi

Masses

1 15.9994
2 1.00794
3 12.0107
4 1.00794
5 12.0107
6 12.0107

Bond Coeffs # harmonic

1 1000 1
2 469 1.4
3 367 1.08
4 469 0.7

Angle Coeffs # harmonic

1 100 109.47
2 35 120
3 63 120

Dihedral Coeffs # opls

1 0 7.25 0 0
2 0 7.25 0 0
3 0 7.25 0 0

Improper Coeffs # cvff

1 2.5 -1 2

Atoms # full

2435 812 2 4.0999999999999998e-01 -9.6969380969903938e+00 -1.0155096697850487e+01 -8.3523285612802454e+00 -6 2 -1
1679 560 2 4.0999999999999998e-01 -1.3937727145808360e+01 -7.8476508598885815e+00 -1.0173582108043220e+01 -1 0 1
442 148 1 -8.1999999999999995e-01 -1.1295321931051383e+01 -1.2507180862439101e+01 -1.3457971249691662e+01 -2 1 1
651 217 2 4.0999999999999998e-01 -1.1157314194093154e+01 -8.1022636792498979e+00 -1.1813299857084690e+01 3 2 0
2361 787 2 4.0999999999999998e-01 -1.4648598014313139e+01 -8.5317307924633283e+00 -1.2698368255701373e+01 -3 -1 3
763 255 1 -8.1999999999999995e-01 -1.2504024249298755e+01 -5.2909233243226481e+00 -1.3466990552736865e+01 1 -2 3
649 217 1 -8.1999999999999995e-01 -1.1470257284289591e+01 -7.1629483967456498e+00 -1.1672773636363722e+01 3 2 0
1406 469 2 4.0999999999999998e-01 -1.2748811245918182e+01 -9.9831959431081057e+00 -9.6858492862981063e+00 5 2 1
1405 469 1 -8.1999999999999995e-01 -1.1920618796092931e+01 -1.0022170798859232e+01 -9.1267675165564661e+00 5 2 1
1407 469 2 4.0999999999999998e-01 -1.2069768780581533e+01 -1.0637230579943619e+01 -8.3525259880777405e+00 5 2 1
1680 560 2 4.0999999999999998e-01 -1.3017523499097374e+01 -6.7859550821147430e+00 -1.1005831062597091e+01 -1 0 1
499 167 1 -8.1999999999999995e-01 -1.3964638644824225e+01 -1.1315753395335351e+01 -1.3255184227896860e+01 -3 2 6
501 167 2 4.0999999999999998e-01 -1.3578881933062258e+01 -1.0857412234460162e+01 -1.4055877257612547e+01 -3 2 6
1347 449 2 4.0999999999999998e-01 -1.1266659980888047e+01 -9.9247813902201365e+00 -1.0629406783142366e+01 -2 10 1
1345 449 1 -8.1999999999999995e-01 -1.1178329923736991e+01 -9.9302189234833662e+00 -1.1625480303633747e+01 -2 10 1
1346 449 2 4.0999999999999998e-01 -1.0355628376374735e+01 -1.0436305535346897e+01 -1.1884387053485995e+01 -2 10 1
1678 560 1 -8.1999999999999995e-01 -1.3874826314234046e+01 -6.9063769645052737e+00 -1.0505306659759515e+01 -1 0 1
1451 484 2 4.0999999999999998e-01 -7.8604591655114024e+00 -1.2147865662598431e+01 -1.0899168838954333e+01 2 0 1
650 217 2 4.0999999999999998e-01 -1.0745089728879790e+01 -6.6321186187005505e+00 -1.1234200997609939e+01 3 2 0
419 140 2 4.0999999999999998e-01 -1.3130188526176907e+01 -1.2962088635538830e+01 -9.9559707580427173e+00 -4 0 2
500 167 2 4.0999999999999998e-01 -1.3227296665201241e+01 -1.1725986412637946e+01 -1.2718500090535413e+01 -3 2 6
1257 419 2 4.0999999999999998e-01 -1.3746777368847159e+01 -1.4425935259403380e+01 -1.4898795892679420e+01 3 0 -3
443 148 2 4.0999999999999998e-01 -1.1740592407319721e+01 -1.2632697241224733e+01 -1.2571419470463780e+01 -2 1 1
182 61 2 4.0999999999999998e-01 -1.1119978168264398e+01 -8.1454861332604178e+00 -1.3389569703765666e+01 2 2 -3
1975 659 1 -8.1999999999999995e-01 -1.3575851590003882e+01 -1.2711166426643089e+01 -8.2450170727495191e+00 1 4 2
1681 561 1 -8.1999999999999995e-01 -7.9229277350385958e+00 -8.8552307555595497e+00 -1.2037402728762130e+01 4 3 5
1256 419 2 4.0999999999999998e-01 -1.2494958330791983e+01 -1.3416344057732061e+01 -1.4615448608600110e+01 3 0 -3
181 61 1 -8.1999999999999995e-01 -1.0763692532704594e+01 -7.9819337547631726e+00 -1.4309518268131582e+01 2 2 -3
709 237 1 -8.1999999999999995e-01 -8.8942971327714027e+00 -1.3735516665407788e+01 -1.3191785725654848e+01 -4 3 1
1450 484 1 -8.1999999999999995e-01 -7.8919461615402753e+00 -1.1257439440418931e+01 -1.0445138095766495e+01 2 0 1
1452 484 2 4.0999999999999998e-01 -7.8544250744430757e+00 -1.0531577485411084e+01 -1.1131950153449612e+01 2 0 1
444 148 2 4.0999999999999998e-01 -1.0342782549561736e+01 -1.2805574128816790e+01 -1.3397768175971526e+01 -2 1 1
710 237 2 4.0999999999999998e-01 -7.9952923967655396e+00 -1.3601438756252367e+01 -1.2774883087545296e+01 -4 3 1
937 313 1 -8.1999999999999995e-01 -1.4572530606375187e+01 -9.5326803422733342e+00 -9.8915319849242493e+00 -1 -1 -2
418 140 1 -8.1999999999999995e-01 -1.2777729631203103e+01 -1.2974787801201462e+01 -1.0891708801441435e+01 -4 0 2
591 197 2 4.0999999999999998e-01 -8.0803797923909553e+00 -6.4469575414180813e+00 -1.4547658471344596e+01 -5 2 6
284 95 2 4.0999999999999998e-01 -7.6717644571465025e+00 -7.1224440939171831e+00 -8.1116393772559405e+00 -6 -1 -4
765 255 2 4.0999999999999998e-01 -1.2142002227319084e+01 -5.7687771102596876e+00 -1.2666621880549547e+01 1 -2 3
249 83 2 4.0999999999999998e-01 -9.9028352328682416e+00 -6.2414158404732270e+00 -1.4575756381858790e+01 2 6 0
764 255 2 4.0999999999999998e-01 -1.2691823906243020e+01 -5.9521587787234491e+00 -1.4193277792420204e+01 1 -2 3
420 140 2 4.0999999999999998e-01 -1.1952590977461005e+01 -1.3538450112661041e+01 -1.0929460600829767e+01 -4 0 2
711 237 2 4.0999999999999998e-01 -8.8087025067637477e+00 -1.4345230345862381e+01 -1.3979768583998274e+01 -4 3 1
589 197 1 -8.1999999999999995e-01 -7.4853137469191928e+00 -7.2066864003002982e+00 -1.4285546530973942e+01 -5 2 6
1861 621 1 -8.1999999999999995e-01 -9.2489059970208629e+00 -5.7652032481488096e+00 -7.9650177443061905e+00 1 3 8
247 83 1 -8.1999999999999995e-01 -9.4611151902006512e+00 -5.4177217333915308e+00 -1.4931292062867790e+01 2 6 0
236 79 2 4.0999999999999998e-01 -1.4281836861041160e+01 -1.3809160172791712e+01 -1.1817970852183068e+01 3 7 -5
1682 561 2 4.0999999999999998e-01 -7.7807898625150331e+00 -8.4561055635958553e+00 -1.2943211817179524e+01 4 3 5
303 101 2 4.0999999999999998e-01 -1.4292336284172368e+01 -5.3977353280018683e+00 -9.6094748927997298e+00 -2 6 -2
2533 845 1 -8.1999999999999995e-01 -1.1973119175146671e+01 -5.7587110961315151e+00 -7.5220587863427086e+00 0 3 -4
1072 358 1 -8.1999999999999995e-01 -9.9263840217395476e+00 -1.4659088923853226e+01 -7.4990067158049909e+00 -1 10 1
1977 659 2 4.0999999999999998e-01 -1.4080346244535596e+01 -1.1869032169897435e+01 -8.0545197232459884e+00 1 4 2
1655 552 2 4.0999999999999998e-01 -1.0926517483012201e+01 -1.1024504332836218e+01 -1.4668952340416601e+01 -4 -2 1
183 61 2 4.0999999999999998e-01 -1.0753952091055254e+01 -8.8412664184509264e+00 -1.4820836874015614e+01 2 2 -3
1863 621 2 4.0999999999999998e-01 -1.0204872546925845e+01 -5.9540668863866504e+00 -7.7404009925097021e+00 1 3 8
1862 621 2 4.0999999999999998e-01 -9.1988174080967191e+00 -5.3129815083071694e+00 -8.8555124561767542e+00 1 3 8
939 313 2 4.0999999999999998e-01 -1.4702963712403667e+01 -9.4943508375133199e+00 -8.9008189841771514e+00 -1 -1 -2
1874 625 2 4.0999999999999998e-01 -9.9326585183846596e+00 -1.4656315353065608e+01 -1.2001611099340167e+01 -3 4 -2
1255 419 1 -8.1999999999999995e-01 -1.2751428717334715e+01 -1.4332691524989810e+01 -1.4922896903420833e+01 3 0 -3
1873 625 1 -8.1999999999999995e-01 -1.0775095335650061e+01 -1.4855381980564260e+01 -1.1500944650036192e+01 -3 4 -2
285 95 2 4.0999999999999998e-01 -8.0283684094082162e+00 -8.6976677582806374e+00 -7.8705687312406178e+00 -6 -1 -4
2434 812 1 -8.1999999999999995e-01 -9.1140340406331291e+00 -9.9290454497368081e+00 -7.5718685170844706e+00 -6 2 -1
2535 845 2 4.0999999999999998e-01 -1.2087930351463479e+01 -5.0322204245968276e+00 -8.1995718024588271e+00 0 3 -4
1877 626 2 4.0999999999999998e-01 -8.0047254224556568e+00 -1.0577000203508591e+01 -1.4801007484486437e+01 3 4 -1
283 95 1 -8.1999999999999995e-01 -7.2866853721748761e+00 -8.0336176439151377e+00 -7.9651093602294551e+00 -6 -1 -4
1727 576 2 4.0999999999999998e-01 -4.3658366485882460e+00 -1.4260337238187777e+01 -1.4925860980814914e+01 -1 5 -2
1683 561 2 4.0999999999999998e-01 -7.1687055543088363e+00 -8.5928741728492213e+00 -1.1435479037191065e+01 4 3 5
2183 728 2 4.0999999999999998e-01 -3.7124492727935507e+00 -1.4708290631978160e+01 -1.3151671321176158e+01 2 9 2
2182 728 1 -8.1999999999999995e-01 -2.9340732740700446e+00 -1.4126902346623723e+01 -1.3388552426577887e+01 2 9 2
751 251 1 -8.1999999999999995e-01 -5.8399139697832876e+00 -8.1827199483355706e+00 -1.0476992088774658e+01 -4 5 6
752 251 2 4.0999999999999998e-01 -6.3224440248864084e+00 -8.0627160166583582e+00 -9.6093758119361663e+00 -4 5 6
1541 514 2 4.0999999999999998e-01 -5.4583128839474337e+00 -5.2890693156157784e+00 -1.4401936329205801e+01 4 0 -3
753 251 2 4.0999999999999998e-01 -5.1848642180930771e+00 -7.4372124048251766e+00 -1.0599965737474340e+01 -4 5 6
575 192 2 4.0999999999999998e-01 -2.3422865531474475e+00 -1.4908672699532190e+01 -9.6975359916243935e+00 -1 -2 2
2184 728 2 4.0999999999999998e-01 -2.4218585169170304e+00 -1.3901679320112210e+01 -1.2559755189150991e+01 2 9 2
1738 580 1 -8.1999999999999995e-01 -6.2171453656143676e+00 -1.3323488574961157e+01 -1.2413545848305787e+01 -1 1 -5
794 265 2 4.0999999999999998e-01 -1.8454775770325949e+00 -5.7703900922452238e+00 -9.6332766580239202e+00 0 5 1
514 172 1 -8.1999999999999995e-01 -4.2610639066048890e+00 -7.4683072504159380e+00 -7.8511795682549090e+00 0 1 -1
1001 334 2 4.0999999999999998e-01 -1.4318822203716266e+00 -9.0517392329492488e+00 -1.4228013527105089e+01 -3 4 3
1739 580 2 4.0999999999999998e-01 -5.9243302364832520e+00 -1.3844515681245189e+01 -1.3215284112443815e+01 -1 1 -5
2099 700 2 4.0999999999999998e-01 -6.7027574834003083e+00 -1.1711824903982924e+01 -9.0679153187917212e+00 -4 1 -6
2475 825 2 4.0999999999999998e-01 -1.2890313764990751e+00 -9.1178468328984277e+00 -1.1418374208411896e+01 3 -3 9
1916 639 2 4.0999999999999998e-01 -2.5366697621406011e+00 -1.2959117340468438e+01 -8.2030593949906958e+00 -2 2 0
1740 580 2 4.0999999999999998e-01 -5.8950716963950569e+00 -1.3779445033570038e+01 -1.1583867318810917e+01 -1 1 -5
1931 644 2 4.0999999999999998e-01 -2.2883490643467468e+00 -1.2905787896887784e+01 -1.4674853855568266e+01 1 1 5
2473 825 1 -8.1999999999999995e-01 -1.0411241187152172e+00 -9.3853181204298401e+00 -1.2349500029674971e+01 3 -3 9
458 153 2 4.0999999999999998e-01 -8.9173555192274634e-01 -8.1222801640178837e+00 -8.9361691117548681e+00 4 -5 2
576 192 2 4.0999999999999998e-01 -3.5883902355426933e+00 -1.3876683651618276e+01 -9.9185229079787582e+00 -1 -2 2
590 197 2 4.0999999999999998e-01 -6.6551673860991016e+00 -6.8479418829130836e+00 -1.3858751976872600e+01 -5 2 6
2263 755 1 -8.1999999999999995e-01 -4.3779900815510331e+00 -1.0303344187319743e+01 -9.8830884415474269e+00 -2 8 -1
2265 755 2 4.0999999999999998e-01 -5.0819659493136786e+00 -1.0884153235646171e+01 -9.4743427770957300e+00 -2 8 -1
2018 673 2 4.0999999999999998e-01 -2.7685560142158963e+00 -1.0696659938171987e+01 -1.0173944498896880e+01 2 -2 2
2100 700 2 4.0999999999999998e-01 -5.8946845913283958e+00 -1.1356216725785437e+01 -7.6941715221243436e+00 -4 1 -6
1363 455 1 -8.1999999999999995e-01 -1.2442123840606740e+00 -1.3594788553542871e+01 -1.1383080355449493e+01 3 1 6
1364 455 2 4.0999999999999998e-01 -1.4933675008229290e+00 -1.2728221866322155e+01 -1.0950670697727702e+01 3 1 6
1540 514 1 -8.1999999999999995e-01 -5.4380502648216229e+00 -5.5397788903415748e+00 -1.3434089059709933e+01 4 0 -3
459 153 2 4.0999999999999998e-01 -2.5116788033941457e+00 -7.9180817338354181e+00 -8.9625859983312530e+00 4 -5 2
2506 836 1 -8.1999999999999995e-01 -6.0398895430942972e+00 -1.4236662044511190e+01 -9.9491181083012208e+00 2 8 0
457 153 1 -8.1999999999999995e-01 -1.6417682642583511e+00 -7.5945411379025645e+00 -9.3348376934180095e+00 4 -5 2
574 192 1 -8.1999999999999995e-01 -2.9505057214211643e+00 -1.4254756043549614e+01 -9.2475841600081559e+00 -1 -2 2
2264 755 2 4.0999999999999998e-01 -4.7864453867381851e+00 -9.4372998135220101e+00 -1.0171403588898231e+01 -2 8 -1
2507 836 2 4.0999999999999998e-01 -5.8531593693170247e+00 -1.3484982119986913e+01 -9.3165808721986263e+00 2 8 0
1395 465 2 4.0999999999999998e-01 -5.9878718851607662e+00 -1.0597020347563234e+01 -1.3905903774381608e+01 1 3 -1
2474 825 2 4.0999999999999998e-01 -9.0505461263662568e-01 -1.0375309898285748e+01 -1.2386857283365821e+01 3 -3 9
1365 455 2 4.0999999999999998e-01 -4.2528364593165691e-01 -1.3963435547918682e+01 -1.0943251623744004e+01 3 1 6
1709 570 2 4.0999999999999998e-01 -3.1176082949785702e+00 -8.1351877023366033e+00 -1.2646435425193534e+01 -3 6 0
1394 465 2 4.0999999999999998e-01 -5.0046792105048823e+00 -1.1126291798765358e+01 -1.2714343903654314e+01 1 3 -1
2098 700 1 -8.1999999999999995e-01 -5.9593776587881102e+00 -1.1994136523576362e+01 -8.4615484535086409e+00 -4 1 -6
2019 673 2 4.0999999999999998e-01 -1.5936435107440019e+00 -1.1192058496784700e+01 -9.1537622275653021e+00 2 -2 2
1710 570 2 4.0999999999999998e-01 -4.5268427620238061e+00 -8.8607063785708995e+00 -1.3039235449696532e+01 -3 6 0
1393 465 1 -8.1999999999999995e-01 -5.2006297346731785e+00 -1.0366315123728814e+01 -1.3334047902223180e+01 1 3 -1
1708 570 1 -8.1999999999999995e-01 -4.0347785153459395e+00 -7.9904173192593291e+00 -1.3017696129782829e+01 -3 6 0
2017 673 1 -8.1999999999999995e-01 -1.8834031529448083e+00 -1.1157572090036401e+01 -1.0110237132115724e+01 2 -2 2
1542 514 2 4.0999999999999998e-01 -4.8551433869365681e+00 -6.3427697441115960e+00 -1.3309913906691184e+01 4 0 -3
1751 584 2 4.0999999999999998e-01 -4.3425830481631600e-01 -1.2057151348713649e+01 -1.4319200688467506e+01 -6 6 -3
516 172 2 4.0999999999999998e-01 -5.1715482321656214e+00 -7.6721132538493606e+00 -7.4913523941791462e+00 0 1 -1
488 163 2 4.0999999999999998e-01 -1.0016773039974703e+01 -9.7106851584239706e+00 -1.0203147289699768e+00 -4 -1 3
1195 399 1 -8.1999999999999995e-01 -1.4777620938492424e+01 -1.0372730070454796e+01 -7.2706378444409054e+00 1 5 2
2288 763 2 4.0999999999999998e-01 -1.0337638342201434e+01 -1.3941312874219836e+01 -3.0898310044473991e+00 -1 -2 -4
2287 763 1 -8.1999999999999995e-01 -1.0242670563701946e+01 -1.3281146054054028e+01 -2.3447436939594848e+00 -1 -2 -4
2289 763 2 4.0999999999999998e-01 -9.4325274320148296e+00 -1.2716189349201269e+01 -2.5012245222355052e+00 -1 -2 -4
2044 682 1 -8.1999999999999995e-01 -1.2196683142704302e+01 -8.5925781342115624e+00 -3.8665324136018686e+00 -2 -2 -3
2525 842 2 4.0999999999999998e-01 -1.3978375559154763e+01 -1.1628071546489499e+01 -3.7916624153224721e+00 1 3 1
2524 842 1 -8.1999999999999995e-01 -1.3315023899131399e+01 -1.1162110313460527e+01 -4.3771868757707360e+00 1 3 1
930 310 2 4.0999999999999998e-01 -1.1095510846792342e+01 -1.2235409201753114e+01 -9.4337171952244780e-01 4 -3 0
2046 682 2 4.0999999999999998e-01 -1.2794046356762998e+01 -9.3167685810469685e+00 -4.2110605004605208e+00 -2 -2 -3
1855 619 1 -8.1999999999999995e-01 -9.0603698837581881e+00 -5.8566372454180193e+00 -4.1829990928240228e+00 0 0 2
83 28 2 4.0999999999999998e-01 -9.8286223090494200e+00 -9.0429531528299414e+00 -3.4676607155735848e+00 -8 -2 3
82 28 1 -8.1999999999999995e-01 -9.0022354625685210e+00 -8.4806581961328540e+00 -3.4376050146133021e+00 -8 -2 3
2096 699 2 4.0999999999999998e-01 -8.0610039912219769e+00 -1.2721306138346479e+01 -5.3995564853840001e+00 1 7 7
2526 842 2 4.0999999999999998e-01 -1.3084286596367892e+01 -1.1749770165454244e+01 -5.1526934103242770e+00 1 3 1
2095 699 1 -8.1999999999999995e-01 -8.2563004673358975e+00 -1.2514309585716568e+01 -6.3582044382846981e+00 1 7 7
84 28 2 4.0999999999999998e-01 -9.2071943484160812e+00 -7.5677943969864563e+00 -3.7906853770679625e+00 -8 -2 3
1886 629 2 4.0999999999999998e-01 -1.1373756136720047e+01 -7.2326753204083554e+00 -6.7486552793099772e+00 2 2 0
2045 682 2 4.0999999999999998e-01 -1.1784772117325286e+01 -8.1056698347875411e+00 -4.6367556434271613e+00 -2 -2 -3
693 231 2 4.0999999999999998e-01 -1.2065941408055229e+01 -1.4205448874809344e+01 -2.0004658015034043e+00 0 8 0
1113 371 2 4.0999999999999998e-01 -1.2276822985587653e+01 -9.7436761305019441e+00 -4.8977750235270179e-01 -1 0 2
1856 619 2 4.0999999999999998e-01 -1.0024925320567970e+01 -5.8914765825425484e+00 -4.4445583140795897e+00 0 0 2
1822 608 1 -8.1999999999999995e-01 -8.5077288373257254e+00 -1.3921995244876697e+01 -1.2091660700080986e-01 3 1 0
1887 629 2 4.0999999999999998e-01 -1.0306882976553393e+01 -8.4673841206837235e+00 -6.6863108810157339e+00 2 2 0
1885 629 1 -8.1999999999999995e-01 -1.1060103631694375e+01 -8.0142881241066082e+00 -6.2094913654266843e+00 2 2 0
2373 791 2 4.0999999999999998e-01 -1.2906795100699274e+01 -5.1351136534675597e+00 -4.6015863149723639e+00 -1 1 -1
2097 699 2 4.0999999999999998e-01 -8.6000599955191568e+00 -1.3335754772005892e+01 -6.8132334236341574e+00 1 7 7
2279 760 2 4.0999999999999998e-01 -1.0988225849387382e+01 -7.1020333108747469e+00 -1.0501503249743251e+00 -1 1 -1
553 185 1 -8.1999999999999995e-01 -1.1355223001923678e+01 -1.2637343645537650e+01 -6.2389348737582679e+00 2 -2 -1
1112 371 2 4.0999999999999998e-01 -1.1963997469764935e+01 -8.8249079104813895e+00 -1.8030239228259202e+00 -1 0 2
52 18 1 -8.1999999999999995e-01 -1.4855239468621585e+01 -8.2208067106123330e+00 -5.3784061977177426e+00 2 2 3
1111 371 1 -8.1999999999999995e-01 -1.1834927187225620e+01 -8.9075814808629090e+00 -8.1484369976157645e-01 -1 0 2
53 18 2 4.0999999999999998e-01 -1.4091009995319967e+01 -7.5973508815623063e+00 -5.2133293950736910e+00 2 2 3
554 185 2 4.0999999999999998e-01 -1.1135102364021366e+01 -1.3544382426822487e+01 -6.5978523470786481e+00 2 -2 -1
1197 399 2 4.0999999999999998e-01 -1.4508028438363519e+01 -9.7991915864486732e+00 -6.4970955474914991e+00 1 5 2
691 231 1 -8.1999999999999995e-01 -1.2713002509851330e+01 -1.4697495443811725e+01 -2.5828714121176386e+00 0 8 0
1823 608 2 4.0999999999999998e-01 -9.0861645822039936e+00 -1.3780472667182419e+01 -9.2427060439374031e-01 3 1 0
2278 760 1 -8.1999999999999995e-01 -1.0744567708340202e+01 -6.1322190657028290e+00 -1.0593822762415535e+00 -1 1 -1
2534 845 2 4.0999999999999998e-01 -1.2665807713613383e+01 -5.6606172119703739e+00 -6.8075279010652725e+00 0 3 -4
1384 462 1 -8.1999999999999995e-01 -7.9298747844594528e+00 -1.2042805595127996e+01 -3.0406159514116577e+00 -4 2 -2
2088 696 2 4.0999999999999998e-01 -8.9160608514675843e+00 -6.2600721272960733e+00 -8.0916258569171795e-01 -7 1 4
2436 812 2 4.0999999999999998e-01 -8.7821447449299050e+00 -1.0772026758181774e+01 -7.1485173583474637e+00 -6 2 -1
555 185 2 4.0999999999999998e-01 -1.0508906426823989e+01 -1.2141175219441612e+01 -6.0451325458904837e+00 2 -2 -1
1703 568 2 4.0999999999999998e-01 -7.9870879896347589e+00 -5.0462234212962720e+00 -6.9240835117647688e+00 -2 3 1
2280 760 2 4.0999999999999998e-01 -1.1534176982179858e+01 -5.5874620083773507e+00 -7.7697984192255554e-01 -1 1 -1
487 163 1 -8.1999999999999995e-01 -9.0178900773634521e+00 -9.6671444156535316e+00 -1.0385140192445235e+00 -4 -1 3
1704 568 2 4.0999999999999998e-01 -8.1113337504138219e+00 -5.3469714300056506e+00 -5.3238570865937707e+00 -2 3 1
2371 791 1 -8.1999999999999995e-01 -1.3511012300690263e+01 -5.1993209508335880e+00 -5.3958112170721844e+00 -1 1 -1
1857 619 2 4.0999999999999998e-01 -8.9398223286865850e+00 -5.1970884702399296e+00 -3.4410705802150812e+00 0 0 2
2086 696 1 -8.1999999999999995e-01 -8.0160375286865566e+00 -5.9101070148796051e+00 -5.4939993435501755e-01 -7 1 4
1386 462 2 4.0999999999999998e-01 -7.5879150839874914e+00 -1.1169950362431599e+01 -3.3887273229649200e+00 -4 2 -2
1493 498 2 4.0999999999999998e-01 -1.1456337730890077e+01 -5.0468662821671941e+00 -2.5183141809025305e+00 4 -5 7
489 163 2 4.0999999999999998e-01 -8.7150792277303033e+00 -9.3317465974873368e+00 -1.9305947795407725e+00 -4 -1 3
928 310 1 -8.1999999999999995e-01 -1.1495313090336982e+01 -1.2068147755238801e+01 -4.2163661010818032e-02 4 -3 0
2267 756 2 4.0999999999999998e-01 -8.1813773594510035e+00 -1.0848785393782272e+01 -2.5774159741651204e-02 -3 0 3
1173 391 2 4.0999999999999998e-01 -1.3674238894688182e+01 -5.1044963080992289e+00 -1.5304479374522018e-01 -2 1 4
1976 659 2 4.0999999999999998e-01 -1.2974617170291639e+01 -1.2921181353686389e+01 -7.4740403582488470e+00 1 4 2
503 168 2 4.0999999999999998e-01 -3.4932263159819854e-01 -9.8473064573563143e+00 -6.1366486468709951e+00 -2 8 0
1901 634 2 4.0999999999999998e-01 -2.1955552949145485e-01 -6.8370945097207798e+00 -6.7187774291515971e+00 5 -2 1
2437 813 1 -8.1999999999999995e-01 -4.3673637924630899e+00 -5.9292778685145198e+00 -2.5148225909701871e+00 1 -2 -2
1477 493 1 -8.1999999999999995e-01 -1.9294093373775780e+00 -1.2830682041449460e+01 -8.8954621211699703e-01 -2 3 -3
269 90 2 4.0999999999999998e-01 -5.4202992928926328e+00 -1.3503169894768117e+01 -5.2089736948875824e+00 3 4 8
776 259 2 4.0999999999999998e-01 -1.0077710275349911e+00 -5.0235531157367621e+00 -4.1616492006192551e+00 2 3 4
502 168 1 -8.1999999999999995e-01 -4.5322725227027405e-02 -1.0700382366543792e+01 -6.5607238086862534e+00 -2 8 0
1915 639 1 -8.1999999999999995e-01 -2.2369085622766605e+00 -1.2421690163263552e+01 -7.4148275185560841e+00 -2 2 0
1479 493 2 4.0999999999999998e-01 -2.0090567516177824e+00 -1.2239502207666320e+01 -8.6952350005338630e-02 -2 3 -3
1333 445 1 -8.1999999999999995e-01 -8.1733688093241774e-01 -1.4240897833761796e+01 -5.6233006481968797e+00 1 4 1
1478 493 2 4.0999999999999998e-01 -1.2182118547678122e+00 -1.3515318406107305e+01 -7.2996743592279856e-01 -2 3 -3
2438 813 2 4.0999999999999998e-01 -4.3349110438743086e+00 -5.1652362405862249e+00 -3.1591683046239645e+00 1 -2 -2
980 327 2 4.0999999999999998e-01 -1.4188990193553490e+00 -5.9642030974407749e+00 -1.9578991026873958e+00 -2 4 0
979 327 1 -8.1999999999999995e-01 -1.7924059445214997e+00 -6.1668933684451215e+00 -1.0526900412987299e+00 -2 4 0
504 168 2 4.0999999999999998e-01 -8.3406407356139134e-01 -1.1295372126134676e+01 -6.7152180353942192e+00 -2 8 0
542 181 2 4.0999999999999998e-01 -6.4488787578689291e+00 -9.2641070745616094e+00 -7.0444527270963926e+00 -1 -3 5
2124 708 2 4.0999999999999998e-01 -7.4300178198527504e+00 -9.1253791702957123e+00 -3.8112596563649479e+00 3 7 -2
1379 460 2 4.0999999999999998e-01 -4.4901234501755560e+00 -1.0713795083069419e+01 -6.1278702435688714e-01 0 3 -1
2439 813 2 4.0999999999999998e-01 -3.5220398571693750e+00 -5.9512597495006876e+00 -1.9810263461260114e+00 1 -2 -2
506 169 2 4.0999999999999998e-01 -1.0085610982435735e+00 -7.6454781317394556e+00 -2.9908194559937051e+00 -3 1 -1
270 90 2 4.0999999999999998e-01 -5.2114157892667325e+00 -1.3417352220114983e+01 -3.5916876948930270e+00 3 4 8
515 172 2 4.0999999999999998e-01 -3.7974212502663214e+00 -6.8262234884427180e+00 -7.2406403619437487e+00 0 1 -1
1900 634 1 -8.1999999999999995e-01 -3.7411073922061533e-01 -7.7771665765014051e+00 -6.4148507784773763e+00 5 -2 1
268 90 1 -8.1999999999999995e-01 -5.8878636057170244e+00 -1.3429784580330130e+01 -4.3280693896696931e+00 3 4 8
505 169 1 -8.1999999999999995e-01 -7.4251963253954933e-01 -6.9047606663506986e+00 -3.6077098832064607e+00 -3 1 -1
541 181 1 -8.1999999999999995e-01 -6.0718215046150998e+00 -1.0028731791068674e+01 -6.5217950330776944e+00 -1 -3 5
830 277 2 4.0999999999999998e-01 -1.5953030724733228e+00 -9.2041782350533339e+00 -1.2663715227159802e+00 -4 5 0
2126 709 2 4.0999999999999998e-01 -2.0524442006953088e+00 -1.2066933093237420e+01 -4.3381688151245754e+00 5 1 5
2125 709 1 -8.1999999999999995e-01 -1.9379765766845356e+00 -1.1475172047613594e+01 -3.5402275824249614e+00 5 1 5
1572 524 2 4.0999999999999998e-01 -5.0905709681992448e+00 -1.1375675170983467e+01 -5.9308625228795453e+00 -4 8 2
1385 462 2 4.0999999999999998e-01 -7.2339695707991494e+00 -1.2749095925370915e+01 -3.1704778128799838e+00 -4 2 -2
1266 422 2 4.0999999999999998e-01 -4.8323371286536201e+00 -7.6126260582103713e+00 -2.7319038916772236e+00 -4 -1 -2
1368 456 2 4.0999999999999998e-01 -3.4244770493309691e+00 -1.2989202258085415e+01 -1.6813980546779081e+00 0 -2 -2
543 181 2 4.0999999999999998e-01 -6.2609366573940495e+00 -9.8931245282033657e+00 -5.5492518001219864e+00 -1 -3 5
1334 445 2 4.0999999999999998e-01 -9.2410203075311692e-01 -1.3535504356652210e+01 -6.3240255802044274e+00 1 4 1
1380 460 2 4.0999999999999998e-01 -5.3803685262330472e+00 -9.9159960427664053e+00 -1.7252578842325654e+00 0 3 -1
1366 456 1 -8.1999999999999995e-01 -4.3325792755297297e+00 -1.3098292348255594e+01 -2.0856800322788231e+00 0 -2 -2
507 169 2 4.0999999999999998e-01 -5.8127658330925591e-01 -7.2746914736040766e+00 -4.5226667718409530e+00 -3 1 -1
831 277 2 4.0999999999999998e-01 -1.7752860368075378e+00 -9.7539956402022838e+00 -2.7934334003698602e+00 -4 5 0
1378 460 1 -8.1999999999999995e-01 -5.4170483682167898e+00 -1.0542293583758683e+01 -9.4654088188697649e-01 0 3 -1
1917 639 2 4.0999999999999998e-01 -3.0332012478497532e+00 -1.2017762310613893e+01 -6.9645448766421882e+00 -2 2 0
2123 708 2 4.0999999999999998e-01 -5.8352447751021330e+00 -9.3449757791011017e+00 -3.5372390270839329e+00 3 7 -2
829 277 1 -8.1999999999999995e-01 -1.8769294900357707e+00 -8.9598544312559376e+00 -2.1942651793616790e+00 -4 5 0
2127 709 2 4.0999999999999998e-01 -1.6444848197534085e+00 -1.2024061264000643e+01 -2.7575543319261904e+00 5 1 5
1570 524 1 -8.1999999999999995e-01 -4.1603020766166114e+00 -1.1630851579901542e+01 -5.6672738513310321e+00 -4 8 2
1367 456 2 4.0999999999999998e-01 -4.9775284759406659e+00 -1.2487606427734216e+01 -1.6262266281613247e+00 0 -2 -2
981 327 2 4.0999999999999998e-01 -1.3818515455474447e+00 -7.0092978316434467e+00 -7.0369994003474368e-01 -2 4 0
2122 708 1 -8.1999999999999995e-01 -6.6790440943298943e+00 -9.7848625282892705e+00 -3.8446419982197888e+00 3 7 -2
1571 524 2 4.0999999999999998e-01 -4.0590153893849870e+00 -1.1544067526183312e+01 -4.6762119333249004e+00 -4 8 2
1265 422 2 4.0999999999999998e-01 -3.5606977535183901e+00 -8.6352230796068987e+00 -2.6699392381183564e+00 -4 -1 -2
1264 422 1 -8.1999999999999995e-01 -4.5403668407554569e+00 -8.5609287742709270e+00 -2.8562804502633821e+00 -4 -1 -2
1272 424 2 4.0999999999999998e-01 -4.3598742169177900e+00 -5.0349031017569565e+00 -5.4970615088891552e+00 1 2 -2
2121 707 2 4.0999999999999998e-01 -1.2040412695672110e+01 -8.2997484928883054e+00 4.3963442525009970e+00 -2 5 -4
2119 707 1 -8.1999999999999995e-01 -1.1174490166163192e+01 -7.8028751206559761e+00 4.3389924216387836e+00 -2 5 -4
2120 707 2 4.0999999999999998e-01 -1.1065046833463061e+01 -7.4291004404860326e+00 3.4179555792321015e+00 -2 5 -4
2130 710 2 4.0999999999999998e-01 -1.3451999681283908e+01 -1.4498043526970928e+01 1.7558240678789918e+00 -1 4 2
632 211 2 4.0999999999999998e-01 -1.1818760227116574e+01 -7.5672822481645685e+00 1.3093785314405100e+00 -6 6 2
70 24 1 -8.1999999999999995e-01 -1.0514966009760492e+01 -1.2628845345429330e+01 3.9341496687041424e+00 2 -2 -4
633 211 2 4.0999999999999998e-01 -1.2431282915978692e+01 -6.4601624928467771e+00 2.3417121962019340e+00 -6 6 2
982 328 1 -8.1999999999999995e-01 -1.3546240334506601e+01 -9.1825034846063716e+00 3.9490042135641037e+00 -2 2 -4
984 328 2 4.0999999999999998e-01 -1.3612153849915888e+01 -9.7386953834107821e+00 3.1205718310673074e+00 -2 2 -4
72 24 2 4.0999999999999998e-01 -9.6954021647916733e+00 -1.2244917646584462e+01 3.5088158897682273e+00 2 -2 -4
71 24 2 4.0999999999999998e-01 -1.0675144028402762e+01 -1.3549491198323441e+01 3.5781322232189634e+00 2 -2 -4
2266 756 1 -8.1999999999999995e-01 -7.6840848360282319e+00 -1.1378718834452672e+01 6.6115005521608339e-01 -3 0 3
631 211 1 -8.1999999999999995e-01 -1.1589991215174251e+01 -6.8454077198769649e+00 1.9624911520293988e+00 -6 6 2
2430 810 2 4.0999999999999998e-01 -1.4896146463179862e+01 -1.1864605618119784e+01 2.5016674438804660e+00 -3 1 1
1777 593 1 -8.1999999999999995e-01 -7.5837458829663502e+00 -1.4715967623192524e+01 4.4011417785599729e+00 -1 1 0
2047 683 1 -8.1999999999999995e-01 -1.3791004984583928e+01 -1.0676592965065272e+01 1.7797016828765333e+00 -7 3 -4
983 328 2 4.0999999999999998e-01 -1.3710266300483191e+01 -9.7575796815722491e+00 4.7504884950350945e+00 -2 2 -4
1047 349 2 4.0999999999999998e-01 -8.7659314043496863e+00 -9.4242389225256353e+00 6.3156058463947407e+00 4 4 1
1045 349 1 -8.1999999999999995e-01 -8.6480440445670617e+00 -9.5743998651988598e+00 7.2972108857532714e+00 4 4 1
2105 702 2 4.0999999999999998e-01 -9.0214976764338886e+00 -1.1525212684276427e+01 6.7806920005601103e+00 4 3 -3
1287 429 2 4.0999999999999998e-01 -1.2526185984921248e+01 -1.2055585290475769e+01 4.6515469172439250e+00 2 7 -1
2128 710 1 -8.1999999999999995e-01 -1.2523970917799724e+01 -1.4270157810432055e+01 1.4611633772071269e+00 -1 4 2
2048 683 2 4.0999999999999998e-01 -1.3029087736208968e+01 -1.1274272891756475e+01 1.5301921769313633e+00 -7 3 -4
809 270 2 4.0999999999999998e-01 -9.6939728907065490e+00 -6.3792346130500803e+00 7.2200056754713930e+00 2 1 8
1313 438 2 4.0999999999999998e-01 -9.5669616326486171e+00 -8.6669774675918276e+00 4.4119117140164636e+00 -2 -3 -3
1312 438 1 -8.1999999999999995e-01 -8.5865962698532776e+00 -8.7473697907134245e+00 4.5919535151617428e+00 -2 -3 -3
2087 696 2 4.0999999999999998e-01 -8.0988473111119159e+00 -5.3629799611148332e+00 2.8353987513258438e-01 -7 1 4
1052 351 2 4.0999999999999998e-01 -9.1210665530557549e+00 -1.4340998797511483e+01 1.5141029432495667e+00 1 2 -2
808 270 1 -8.1999999999999995e-01 -9.6983918315363269e+00 -6.1054557155449150e+00 6.2582261839463431e+00 2 1 8
929 310 2 4.0999999999999998e-01 -1.1739160613609180e+01 -1.2940561139199446e+01 3.8142514094313640e-01 4 -3 0
2049 683 2 4.0999999999999998e-01 -1.4363943128318240e+01 -1.0513948100068120e+01 9.7640677177023072e-01 -7 3 -4
1314 438 2 4.0999999999999998e-01 -8.2791772792477367e+00 -7.9571785326732245e+00 5.1221285238115986e+00 -2 -3 -3
1297 433 1 -8.1999999999999995e-01 -1.4509616763965450e+01 -9.4494257496498921e+00 6.8496561404097829e+00 -2 -1 0
810 270 2 4.0999999999999998e-01 -1.0482894220703271e+01 -6.5202040072689567e+00 5.7972120291838092e+00 2 1 8
1779 593 2 4.0999999999999998e-01 -8.1720433063839995e+00 -1.4398280609923242e+01 3.6575186940787798e+00 -1 1 0