2593
Atoms. Timestep: 1000000
O -3.58365 5.01481 -13.907
H -3.03264 4.37732 -14.4456
H -2.9831 5.57375 -13.3353
O 11.5714 -10.2709 -2.61905
H 12.0159 -10.9112 -3.24545
H 12.1793 -9.4955 -2.4481
O -10.4161 7.9961 11.3456
H -10.9854 7.23846 11.6646
H -9.47194 7.68305 11.2424
O 12.1968 5.00086 13.0409
H 12.125 4.00842 13.1404
H 13.1477 5.24946 12.8566
O 3.90213 -9.84559 -10.0928
H 3.04109 -9.34648 -9.99534
H 4.20779 -9.80036 -11.0439
O 10.4299 -14.6476 10.8315
H 10.672 14.612 10.1196
H 10.1917 -13.7731 10.4089
O -3.076 -7.89571 -3.12757
H -3.85555 -8.48289 -3.34558
H -3.39839 -6.96583 -2.95038
O 11.8251 -7.38175 -6.7444
H 12.6535 -7.80676 -6.37944
H 11.0238 -7.76516 -6.28529
O 4.86955 -4.75483 9.53437
H 5.85002 -4.90021 9.66684
H 4.4954 -4.26689 10.323
O 9.70057 13.3069 -14.7416
H 9.65829 12.5775 14.4944
H 9.50483 14.1846 14.7399
O 8.42997 9.31657 -6.95141
H 9.22373 8.9299 -6.4819
H 7.6889 8.64522 -6.96135
O -0.337717 11.0092 14.9212
H -0.0129911 11.4046 -14.1384
H -0.782973 11.7187 14.375
O 4.97189 -6.26113 -10.6457
H 4.69968 -6.78093 -9.83591
H 5.56965 -5.50741 -10.3725
O 11.9243 14.3009 -3.77143
H 11.5869 -14.687 -3.63198
H 11.6653 13.9857 -4.68444
O -8.86442 -12.5621 8.35491
H -8.45543 -11.945 9.02716
H -8.60074 -13.504 8.56323
O -5.40762 12.7727 5.33455
H -5.46044 13.716 5.00698
H -4.68976 12.2865 4.83624
O 5.5164 -11.4077 -1.32369
H 4.82614 -11.1207 -0.659475
H 6.30081 -11.798 -0.841691
O 7.04911 4.18346 6.24073
H 6.74926 4.55656 7.11873
H 6.71757 3.2447 6.14679
O -5.59037 -8.91798 -12.5711
H -5.50978 -7.98458 -12.9208
H -6.37014 -8.97415 -11.9476
O -8.22435 13.2095 -12.1769
H -8.86574 12.5464 -11.7909
H -7.80763 12.8285 -13.0023
O 9.49241 8.67547 5.28677
H 8.93376 8.80824 4.46806
H 10.3181 9.23574 5.22132
O -2.5509 14.5555 -14.774
H -1.63156 14.2565 -14.5182
H -3.21636 13.8634 -14.4942
O 3.04494 5.90215 6.26222
H 3.62089 5.1636 6.61267
H 3.15527 5.96895 5.27057
O 3.38188 -10.0787 0.793132
H 2.49677 -9.71061 1.07791
H 3.32198 -11.0745 0.723621
O 10.1428 3.19661 -3.75358
H 10.1674 2.32937 -4.25086
H 10.2269 3.02091 -2.77274
O 0.562235 8.10714 2.48236
H -0.223277 7.6622 2.91248
H 0.249905 8.66284 1.71187
O -12.1834 -3.25104 -3.8333
H -12.0969 -3.79479 -4.66808
H -11.5055 -2.51596 -3.84256
O -9.23395 -6.10957 -11.1089
H -9.75576 -5.35312 -10.7146
H -8.30798 -6.10829 -10.7313
O -5.41287 11.2621 7.60852
H -5.00036 10.3516 7.63661
H -5.16574 11.7137 6.75121
O -12.4361 2.12695 1.38937
H -12.9922 1.51645 0.82538
H -11.4672 1.94997 1.21664
O 13.6914 4.45671 8.56825
H 13.8323 4.15551 7.62516
H 14.4619 5.02597 8.85503
O -2.78497 -6.44593 3.99094
H -3.02247 -7.39956 3.80604
H -3.24129 -5.85396 3.3266
O 7.58315 6.72233 -9.08933
H 7.01035 7.39066 -9.56391
H 8.54371 6.98762 -9.17277
O -5.88622 -8.78201 -9.26505
H -6.75682 -9.09585 -9.64395
H -5.32818 -8.38695 -9.99478
O -3.55387 2.76781 5.59537
H -3.81589 1.90113 5.17087
H -4.01289 2.85828 6.47918
O -11.5144 -12.2601 -9.6583
H -11.9878 -11.4429 -9.32946
H -12.1741 -12.8779 -10.0863
O 7.16062 -11.6464 -3.84984
H 6.45978 -11.5409 -4.5553
H 6.81553 -12.2408 -3.12347
O 14.3261 10.3013 7.6231
H 14.8663 9.46005 7.59962
H 13.3527 10.0722 7.63096
O -0.305196 10.9993 -8.25041
H 0.122193 10.3171 -7.65726
H 0.337487 11.7477 -8.41465
O 11.6098 -13.8923 6.02737
H 10.6571 -13.8115 5.73431
H 11.8273 -13.1507 6.66194
O 3.615 -14.4335 12.8556
H 4.49625 -13.9971 12.6738
H 2.9491 -14.1377 12.1707
O 2.10373 4.472 10.5496
H 2.80332 4.72828 11.2166
H 1.19718 4.5958 10.9531
O 8.97239 10.1671 -13.5277
H 8.58863 11.0749 -13.6968
H 9.08373 10.0304 -12.5433
O -6.49252 1.36852 -13.4228
H -6.57908 2.31162 -13.1018
H -6.85611 1.29791 -14.3517
O 4.87864 -13.3983 -5.39937
H 5.11873 -14.2936 -5.02429
H 4.6945 -13.4855 -6.37839
O 13.5349 1.4834 -2.30625
H 14.2158 1.24843 -2.99988
H 12.7774 1.97488 -2.73588
O -0.218881 -9.25817 13.6151
H 0.530691 -9.22997 14.2765
H -1.04854 -9.58799 14.0656
O 8.64451 9.62097 9.41734
H 8.94174 8.69699 9.17666
H 7.96789 9.57266 10.1521
O 4.45961 12.8007 13.3472
H 4.64212 13.7292 13.0238
H 5.32116 12.2987 13.4228
O -1.00066 -6.82431 9.94197
H -1.48354 -6.91291 9.07078
H -1.63624 -6.9971 10.6944
O 1.06879 9.22966 -6.41084
H 1.32237 10.1229 -6.03964
H 1.7498 8.54997 -6.13838
O -6.15464 5.44539 8.79744
H -5.46856 5.7755 9.44575
H -5.98426 5.84794 7.89804
O -2.98716 -4.74917 -12.0123
H -2.39841 -5.15135 -12.7135
H -2.54114 -3.94214 -11.6254
O 5.92651 -1.1549 7.3779
H 6.18057 -1.97018 6.85753
H 6.71862 -0.828391 7.89361
O 3.10507 8.90016 4.56955
H 3.8875 9.46143 4.83932
H 2.66875 9.3016 3.76427
O 3.27677 12.0602 -14.2523
H 3.44169 12.4808 -13.3602
H 3.91334 12.4408 -14.9231
O 7.0008 -11.7491 3.95529
H 7.42063 -12.5512 3.53056
H 6.66452 -11.1325 3.24338
O -0.0638518 -10.7527 -4.09881
H -0.516463 -10.9469 -3.22851
H -0.751657 -10.6595 -4.81869
O -10.2915 -1.28142 -3.79391
H -9.80037 -1.40809 -2.93207
H -9.63604 -1.10441 -4.52813
O -14.4209 3.40708 -8.08435
H 14.7938 2.69804 -8.04488
H -13.5265 2.98137 -8.22113
O 10.6546 -6.51079 12.6746
H 10.8946 -7.11213 13.4367
H 10.9503 -6.92777 11.8151
O 7.85449 13.6603 -8.4684
H 7.89526 14.0277 -9.39759
H 8.65317 13.0816 -8.30344
O 3.08705 -1.24156 6.5204
H 4.02742 -1.41205 6.81472
H 3.03696 -1.28528 5.52261
O 9.38478 -5.22916 4.24852
H 9.07647 -4.99881 5.17149
H 8.97371 -6.09602 3.96642
O 14.5577 -10.5155 -10.9455
H 14.6512 -9.70273 -11.5205
H -14.5806 -10.5751 -10.3231
O -0.213098 -5.57477 4.43189
H 0.122677 -6.10572 5.20993
H -1.12303 -5.89986 4.17434
O -0.994897 -11.9501 2.54058
H -0.252785 -12.0104 3.20814
H -0.635901 -12.1342 1.62556
O -13.7247 -4.9172 -11.6277
H -14.443 -5.39698 -11.1237
H -12.8563 -5.39868 -11.5096
O -6.27544 -13.0875 -0.080795
H -6.55647 -13.11 0.87864
H -6.80743 -12.3948 -0.567743
O -2.44148 6.43585 9.01432
H -2.57503 5.92567 8.16468
H -1.4626 6.5379 9.19147
O -11.7648 -7.1775 -11.5599
H -10.8384 -6.8448 -11.7365
H -12.1367 -7.5861 -12.3935
O 6.63385 7.29372 -6.66407
H 5.71594 6.91256 -6.55378
H 7.01523 6.99648 -7.53939
O 5.76439 -11.5299 6.35199
H 5.27111 -10.7327 6.00397
H 6.47279 -11.7952 5.69793
O -1.96423 8.9186 -14.1067
H -2.0927 8.25305 -14.8419
H -1.34184 9.63853 -14.4138
O -3.3657 6.8526 -9.89976
H -3.09789 6.99909 -10.852
H -4.30409 6.50861 -9.86657
O -1.20903 1.51665 -7.86165
H -0.554495 2.2571 -8.01433
H -2.13995 1.87216 -7.94524
O 5.03329 -4.94506 -5.31312
H 4.22422 -4.38788 -5.12614
H 4.79943 -5.91313 -5.22286
O 2.97202 2.07453 -13.675
H 2.91673 3.07272 -13.6988
H 3.14905 1.72844 -14.5964
O -10.3329 -3.84152 10.7123
H -10.0205 -4.32036 9.89189
H -11.2536 -4.15185 10.949
O -7.22584 -8.78067 -4.9015
H -6.87941 -7.84682 -4.81255
H -7.91396 -8.81328 -5.62637
O -1.07105 4.1105 14.3959
H -0.57911 3.33877 13.9929
H -0.697997 4.30665 -14.616
O -2.40693 9.55758 -9.82388
H -1.53054 9.88735 -9.47288
H -2.47868 8.57231 -9.66867
O -11.4027 4.60181 -11.6558
H -10.9038 4.01683 -12.2952
H -12.3372 4.73528 -11.9857
O -0.918204 0.331181 11.1118
H -0.856161 -0.641294 10.8872
H -0.726404 0.874869 10.2947
O -3.54652 9.56098 0.552867
H -3.97371 8.68269 0.767597
H -4.11279 10.0545 -0.107252
O 4.08096 -4.47654 -0.765547
H 5.01493 -4.80061 -0.916135
H 3.48604 -5.2552 -0.566169
O -2.73885 -9.68359 3.78541
H -3.17381 -9.4264 4.64835
H -2.51777 -10.6587 3.80121
O -5.33558 -6.02253 -13.3471
H -4.71601 -5.9862 -12.563
H -5.59233 -5.09317 -13.6124
O 7.90556 -6.9682 -8.9232
H 8.0346 -7.33637 -9.84396
H 7.76997 -7.72108 -8.27916
O -4.24615 6.75135 1.09133
H -4.77181 6.6655 0.244984
H -4.53416 6.04311 1.73588
O -5.82107 0.782085 -1.96836
H -4.85911 0.839825 -2.2354
H -6.06358 1.58283 -1.42064
O 14.5137 -1.75399 5.6074
H 14.8489 -1.35871 4.75219
H 14.0213 -1.05569 6.12688
O 1.89995 -10.5508 -6.1795
H 2.81444 -10.6601 -5.78994
H 1.2619 -10.2761 -5.46018
O 13.6677 -12.0238 3.31187
H 14.0196 -11.318 3.92673
H 13.6819 -12.9087 3.77736
O 14.0069 6.38895 4.79183
H 13.0371 6.29163 5.01554
H 14.2126 5.86451 3.96561
O -4.33034 -10.816 12.2173
H -3.72079 -10.1321 12.6182
H -4.12922 -11.7132 12.6106
O -10.3543 -13.5913 -0.259514
H -9.80112 -13.2874 0.516159
H -10.4707 -14.5836 -0.217436
O -1.52845 -4.9053 -5.29906
H -1.03942 -5.74678 -5.06938
H -1.0556 -4.43834 -6.04629
O -1.3287 4.37312 -8.95596
H -1.53164 5.21775 -9.45136
H -2.18351 3.94592 -8.66134
O -5.37479 -9.92639 -3.53542
H -6.08581 -9.44445 -4.04747
H -5.65923 -10.8724 -3.3799
O -3.75255 -1.22037 5.89717
H -3.10568 -1.9803 5.83336
H -3.68445 -0.799747 6.80184
O 0.817612 11.4384 10.2038
H 1.3777 11.1039 10.9617
H -0.130979 11.152 10.3386
O 1.67756 -8.98928 -8.96713
H 1.41258 -9.10164 -8.00945
H 0.868054 -9.07021 -9.54865
O 1.11221 -11.721 -10.1198
H 1.21236 -12.3585 -9.35589
H 1.669 -10.9078 -9.95047
O 3.68653 -7.2812 -0.447551
H 3.32345 -7.98026 -1.06358
H 4.62244 -7.51929 -0.187925
O -8.86987 9.37753 -12.2825
H -9.14833 9.43596 -13.2412
H -9.65424 9.10903 -11.7234
O 10.0124 -6.59864 8.58368
H 9.69952 -6.20831 7.7178
H 10.239 -5.86072 9.21937
O -2.0066 -10.5335 -14.8434
H -2.98109 -10.7146 14.9429
H -1.48861 -11.3773 14.9348
O 12.0694 -2.66712 -0.503859
H 12.4041 -3.60858 -0.543722
H 12.3314 -2.25689 0.369666
O -8.34757 -2.97861 -7.75611
H -9.29257 -3.09658 -8.06116
H -8.22924 -3.4117 -6.86256
O -11.0423 10.8834 5.15447
H -11.3683 9.95612 4.97048
H -10.0424 10.8938 5.14186
O -7.96535 6.21992 -3.3165
H -8.9171 6.51683 -3.39404
H -7.37399 7.01975 -3.21377
O -6.7323 6.22576 13.9655
H -6.99018 5.45088 13.3884
H -7.24809 6.19004 14.8214
O 5.34318 -0.419393 -13.3284
H 4.57747 -0.732811 -13.8901
H 4.99927 -0.0944334 -12.4474
O -13.8562 -6.29144 -0.420307
H -13.2413 -5.64488 -0.871752
H -13.5263 -7.22383 -0.567865
O -7.06963 12.4209 -14.3643
H -6.75741 11.4938 -14.5716
H -7.28865 12.8972 14.7029
O -1.43069 5.74858 1.91499
H -1.62377 4.98903 2.53612
H -2.27845 6.24026 1.7161
O -3.65507 3.07894 -8.22561
H -3.99475 2.77172 -9.11456
H -4.41703 3.14104 -7.58097
O 13.3873 -4.97867 6.06457
H 13.1698 -5.12555 5.09962
H 13.6638 -4.02768 6.20293
O -8.09001 7.55524 0.262606
H -7.47623 8.08955 0.843799
H -8.23166 8.03562 -0.60294
O -10.5698 -8.59415 4.77754
H -10.037 -9.34914 5.15977
H -11.241 -8.95434 4.12961
O 4.43677 -7.61905 -12.8396
H 4.93914 -7.02902 -13.4717
H 4.52616 -7.26345 -11.9093
O 14.9137 2.24804 11.5492
H 14.7615 3.21226 11.3321
H -14.1591 1.93817 11.1152
O -4.98102 10.7995 -9.50179
H -4.21155 10.2076 -9.26166
H -5.40361 10.4706 -10.3463
O -11.5959 3.34856 -3.70547
H -11.7443 2.43263 -3.33257
H -10.8863 3.31108 -4.40903
O -5.32989 -13.615 -5.92171
H -4.88418 -13.6275 -6.8168
H -6.2496 -13.9993 -6.00192
O 1.65844 -1.42623 12.1204
H 1.92267 -1.14401 11.1982
H 0.819264 -0.951928 12.3866
O -3.7731 1.50282 -4.16996
H -3.50096 0.656237 -4.62738
H -4.46556 1.97068 -4.71915
O 8.80925 -6.15223 -13.3525
H 9.45589 -5.41014 -13.529
H 7.88435 -5.85047 -13.5838
O 5.95268 10.1431 -4.96778
H 6.64073 9.70216 -4.39146
H 6.2955 11.0303 -5.2766
O -9.36888 5.93456 -13.8749
H -9.45218 4.94311 -13.9753
H -9.47854 6.18245 -12.9123
O 5.75679 1.42084 5.85283
H 6.03049 0.610155 6.37039
H 5.39734 1.14209 4.96227
O -10.6525 -6.91128 6.81547
H -11.5849 -6.63678 7.05049
H -10.6824 -7.66565 6.1597
O 2.60748 9.22183 7.36106
H 2.94071 9.11021 6.42485
H 2.77753 8.38266 7.87766
O -0.24901 -14.9482 -10.8917
H -0.637263 -14.0382 -10.746
H -0.251508 14.7598 -11.8692
O -8.67196 -10.9326 12.8866
H -7.87834 -11.4483 13.2095
H -8.99312 -10.3254 13.6134
O 13.1474 13.6493 -1.47426
H 12.5955 13.619 -2.3076
H 14.0924 13.8778 -1.70846
O 6.76871 9.29297 11.4834
H 6.87105 9.59832 12.4301
H 5.91882 9.65966 11.1049
O 6.45661 4.85849 -0.839155
H 5.94073 4.62523 -0.014859
H 6.74804 4.01943 -1.29856
O 9.75601 0.766502 -4.98475
H 8.95946 1.23981 -5.36088
H 9.46332 -0.0857732 -4.55121
O -13.5843 -13.9005 5.02527
H -13.9871 -14.361 5.81624
H -13.4983 -14.5498 4.2696
O 5.41419 -1.86724 -0.375115
H 5.47448 -1.49718 -1.30217
H 4.86931 -2.70568 -0.385694
O -8.59161 4.0006 8.70617
H -7.61109 4.18045 8.78513
H -9.02274 4.7306 8.17587
O -5.66114 -8.14115 8.02674
H -5.33063 -8.13998 8.97054
H -6.66081 -8.1667 8.02368
O -0.271129 2.23153 1.96499
H -0.0771245 1.25155 1.92025
H 0.130801 2.68747 1.17091
O -13.1888 -12.8839 11.4823
H -14.1058 -13.1608 11.7694
H -12.726 -12.4259 12.2413
O -13.9128 11.6153 0.21124
H -14.4162 11.3006 1.01599
H -13.009 11.1877 0.19515
O -12.4121 -3.31795 6.45281
H -13.2389 -2.80201 6.2287
H -11.6505 -2.68437 6.58887
O 8.2047 12.662 -0.331015
H 7.2726 12.3204 -0.210597
H 8.78428 12.3165 0.40701
O -12.5177 7.62296 -0.5207
H -12.4413 7.81427 -1.49925
H -11.9354 6.84443 -0.286763
O -13.0565 8.93568 -13.2223
H -12.8899 9.84012 -12.8296
H -13.1742 9.01855 -14.2119
O -6.22517 -5.91081 6.0238
H -5.87161 -6.1869 6.91754
H -6.34526 -4.91822 6.00499
O -9.60966 14.1374 -4.05768
H -9.74533 13.399 -3.39707
H -10.3988 14.1861 -4.66993
O 1.37461 -12.8696 -7.66603
H 1.65118 -11.9655 -7.34044
H 0.402755 -13.0093 -7.47631
O -2.13972 -5.78131 6.51242
H -1.14974 -5.89828 6.59152
H -2.44727 -6.13269 5.62814
O 8.86424 -13.3476 5.90409
H 8.18798 -13.8146 6.4738
H 8.53589 -12.4296 5.68183
O 1.87965 3.50358 -4.72703
H 1.91839 3.85978 -5.66064
H 1.19167 2.77974 -4.67473
O 2.81801 -12.8571 -3.37112
H 3.29534 -13.1735 -4.19088
H 2.53577 -11.9059 -3.49608
O 1.54439 -5.65506 -14.0786
H 1.12154 -6.39624 -13.5572
H 1.03097 -5.50704 -14.9239
O -3.6596 10.5103 -6.05527
H -3.41334 10.9942 -6.89509
H -2.97129 9.81201 -5.85886
O -6.84715 -1.2636 -9.24734
H -7.28621 -1.84883 -8.56562
H -7.33528 -0.392596 -9.30292
O -3.57749 -14.2818 7.17483
H -3.62311 -13.9786 8.12667
H -2.95889 14.8545 7.10353
O 5.75216 10.3377 2.6924
H 5.98818 11.2766 2.44174
H 4.77035 10.1958 2.56621
O 8.34078 -4.70958 -10.7808
H 7.97722 -5.14331 -9.95634
H 7.7301 -3.97073 -11.0657
O 4.48894 -11.9833 10.0653
H 3.70286 -11.3769 9.94566
H 5.30791 -11.4368 10.2403
O 2.2362 -8.79829 -2.41194
H 1.76804 -9.67629 -2.31219
H 1.60066 -8.05575 -2.20046
O 5.70014 13.1964 2.08067
H 5.35206 14.0427 1.67742
H 6.29603 13.4157 2.8532
O 7.8508 -0.179922 -14.3346
H 7.86172 -0.830768 14.825
H 6.90523 0.000172586 -14.0636
O -14.3523 12.3987 14.4985
H -13.6178 11.758 14.7219
H -13.9578 13.2779 14.2312
O -10.1216 -7.67681 -5.34045
H -9.49928 -6.91277 -5.51051
H -10.8921 -7.36208 -4.78603
O 2.28383 13.0302 2.74947
H 2.91572 12.3311 2.41493
H 2.71582 13.5421 3.49199
O -6.03499 6.10666 -0.800903
H -6.07706 6.52916 -1.70629
H -6.9014 6.25393 -0.323778
O 4.24451 6.26081 9.09416
H 3.80183 5.48425 8.64584
H 3.56098 6.96135 9.29913
O 11.6548 -11.8961 1.39156
H 11.8448 -12.6602 0.774997
H 12.3886 -11.8223 2.06686
O 6.8396 -12.5312 -10.6588
H 6.20267 -12.0441 -10.0613
H 7.60068 -12.8863 -10.1159
O -10.577 6.81355 -3.69749
H -10.721 6.53918 -4.64826
H -11.0732 7.66275 -3.5168
O 10.4225 3.87415 -0.269955
H 10.7456 3.80308 0.673723
H 9.55562 4.37238 -0.288808
O -10.5632 13.6064 0.638572
H -11.2279 13.0987 1.1866
H -10.274 13.0464 -0.137768
O 2.65267 -3.32755 -4.61875
H 2.16448 -3.68446 -3.82233
H 2.02428 -2.79099 -5.18199
O -1.92898 3.66764 -4.49066
H -1.94689 4.60217 -4.84608
H -2.82375 3.24222 -4.62637
O -1.68303 -6.41479 -14.1677
H -2.44789 -6.61479 -14.7801
H -0.980063 -5.90818 -14.6669
O -3.94714 -6.38854 14.1102
H -4.37226 -6.14561 13.2383
H -4.48485 -6.00556 14.8614
O 7.31879 6.58672 13.8338
H 8.17654 6.07338 13.8611
H 7.03876 6.71759 12.8828
O 4.00415 -10.2622 -3.77825
H 3.31514 -9.7785 -3.23851
H 4.39762 -11.0011 -3.23132
O 12.1806 1.44415 -14.2572
H 13.1126 1.18903 -14.5147
H 12.2115 2.12366 -13.5242
O -12.8514 -4.81814 11.2134
H -12.8099 -5.79319 11.4315
H -13.4006 -4.68419 10.3885
O 4.19218 -13.8339 -7.93158
H 3.21431 -13.8026 -8.13843
H 4.54677 -14.7466 -8.13495
O -14.5587 -2.44425 -11.178
H -14.1837 -3.3511 -11.3704
H -14.8463 -2.39858 -10.2214
O 7.72379 -2.01578 10.1989
H 8.67323 -1.79552 10.4226
H 7.63301 -3.00275 10.0661
O -14.1935 9.89152 -7.93615
H -14.5955 9.96852 -7.02375
H -14.585 10.5918 -8.53307
O 10.4689 -9.3699 5.64264
H 10.2739 -9.558 4.68006
H 9.65111 -9.54873 6.1896
O 7.61956 5.19164 3.71026
H 7.21058 4.74009 4.50325
H 6.94059 5.78466 3.27745
O -11.9608 6.00344 11.9278
H -12.2572 6.02466 12.8826
H -11.6458 5.08284 11.697
O -11.0419 -10.1074 -14.0025
H -10.444 -9.33671 -14.2228
H -10.63 -10.6502 -13.2706
O -5.1828 -1.91635 11.4652
H -4.65849 -2.14861 10.646
H -4.64388 -1.30367 12.0433
O -10.5388 1.15395 11.6207
H -10.3241 0.180323 11.6978
H -11.4473 1.26403 11.2176
O -0.199206 -5.2782 -10.7243
H 0.378259 -4.73637 -11.335
H 0.357546 -5.9722 -10.2678
O -14.7482 7.09504 -8.24637
H -14.4369 8.00338 -7.96701
H 14.3722 6.83469 -7.70344
O -2.86883 -10.4782 -11.5844
H -3.73168 -10.0533 -11.3106
H -2.78214 -10.4451 -12.5801
O -1.17617 -12.8906 14.1016
H -1.65288 -13.6573 14.5316
H -0.206234 -13.1136 14.0041
O -0.499055 2.70677 -12.5508
H -1.29226 2.31451 -13.0166
H -0.3168 2.1927 -11.7127
O -9.9788 -1.47395 11.9313
H -9.91847 -1.45342 12.9293
H -10.0424 -2.42235 11.6207
O 2.99072 6.49211 3.48679
H 3.13329 7.36356 3.9561
H 2.19173 6.56201 2.88951
O 3.84677 9.12626 -3.46822
H 4.47515 9.30254 -4.22589
H 3.23969 8.36867 -3.70805
O 11.1621 11.9957 -10.7042
H 10.8065 11.061 -10.7085
H 11.4109 12.2619 -11.6355
O -4.15396 5.84774 13.2052
H -3.30243 6.24207 13.5508
H -4.92208 6.18336 13.7505
O -13.5897 5.37714 -13.1856
H -14.1992 4.58974 -13.0933
H -14.0834 6.21137 -12.94
O -2.05708 -13.7665 9.70335
H -1.89443 -12.8158 9.43947
H -1.28628 -14.331 9.40794
O -8.05699 0.560778 5.48823
H -8.41301 0.741431 6.40508
H -7.17444 1.01775 5.37735
O -8.37864 -0.0841664 -11.9181
H -9.17945 0.477264 -12.1267
H -7.54723 0.427884 -12.1339
O -4.17157 5.97403 -5.16077
H -4.89482 6.41152 -5.6951
H -4.1384 6.38158 -4.24819
O 3.29611 4.82382 -10.3542
H 4.18909 4.4144 -10.1672
H 2.57693 4.24471 -9.97027
O -8.42818 11.4939 2.72172
H -8.99797 12.2308 3.08559
H -7.59163 11.8803 2.33325
O 14.7742 7.77913 0.696373
H -14.8834 7.66227 1.65456
H -14.3314 7.71051 0.118465
O 0.47855 -13.8061 5.04011
H 0.157844 -14.6377 5.49357
H -0.168079 -13.0627 5.21104
O 4.74372 0.698177 9.39658
H 4.95719 -0.126146 8.87225
H 5.39608 1.41948 9.16387
O 0.235354 -6.70533 -4.06062
H 0.590055 -5.83104 -3.72926
H -0.186402 -7.20277 -3.30255
O 10.745 11.021 10.495
H 11.5363 10.4101 10.4683
H 9.93439 10.5307 10.1748
O 2.01427 -4.22811 5.11311
H 1.19007 -4.72447 4.84049
H 2.26367 -3.57701 4.39626
O -6.77483 -8.24372 1.30521
H -6.66657 -7.70782 2.14252
H -6.08249 -8.96482 1.27915
O 3.24254 -10.2112 12.5425
H 3.21451 -10.2883 11.5459
H 3.94368 -9.54861 12.806
O -2.52694 6.65745 -7.1648
H -2.76057 6.78362 -8.1289
H -3.36568 6.6013 -6.62318
O 11.6411 -1.59122 -14.3544
H 11.3916 -0.70491 -13.9643
H 12.2702 -1.45347 14.7994
O -1.82828 -3.40153 5.69209
H -1.87134 -4.32618 6.07048
H -1.52058 -3.44436 4.74157
O -12.0281 -2.54609 -9.94828
H -11.4753 -1.75012 -9.70168
H -12.8909 -2.24077 -10.3513
O -6.63921 -0.641245 2.08911
H -6.13887 -1.28064 2.67293
H -7.47644 -0.351574 2.55294
O 13.2705 -4.2678 8.94888
H 12.3254 -4.04986 8.70525
H 13.2782 -4.98687 9.64376
O 11.9357 12.5628 -13.3781
H 12.8544 12.9426 -13.2701
H 11.498 12.9718 -14.1788
O -10.0092 1.55691 0.479442
H -10.1137 0.835877 -0.205532
H -9.22536 2.13085 0.242279
O -3.77667 14.4792 0.900944
H -3.91534 -14.5134 1.25146
H -4.42021 14.305 0.155597
O -8.88106 -5.7175 4.95361
H -7.96429 -6.06678 5.14737
H -9.54759 -6.19522 5.52591
O 9.75873 -13.0186 -1.66113
H 10.0977 -12.1462 -2.01338
H 9.36845 -13.552 -2.41154
O 0.0599741 -8.00354 -6.5773
H 0.243749 -7.65844 -5.6569
H -0.615216 -8.73958 -6.52865
O 10.3657 -4.20619 9.68866
H 10.4066 -3.61945 8.87992
H 10.6271 -3.67847 10.4969
O 9.8207 1.38241 14.4154
H 10.7202 1.36279 14.8518
H 9.18287 0.819437 14.941
O 12.8134 -14.6984 -12.0508
H 11.8651 14.9212 -12.1575
H 13.2142 -14.5333 -12.9519
O -14.6646 5.21253 -10.5674
H -14.5413 4.23027 -10.7087
H -14.9099 5.38381 -9.61324
O -7.16542 7.96956 6.29393
H -7.61058 8.76025 5.87364
H -6.35805 7.71869 5.75987
O 1.72167 12.4535 -2.77365
H 1.61048 13.2698 -3.34042
H 1.48631 12.6708 -1.82635
O 0.678459 13.7965 -6.40546
H 0.553373 14.0905 -5.45787
H -0.17906 13.913 -6.90655
O -6.31317 10.2296 -5.45165
H -6.77819 10.9672 -5.94125
H -5.32441 10.3242 -5.56739
O -13.3931 -8.86253 3.36044
H -13.8688 -8.0486 3.69386
H -13.9934 -9.65776 3.44547
O -2.068 14.0842 -6.6099
H -2.70689 14.3289 -5.88054
H -2.45476 13.3415 -7.15653
O -0.0118862 5.40092 -6.79864
H -0.325134 4.70955 -7.4497
H -0.709628 6.11115 -6.70519
O 14.3373 -4.03232 -5.86791
H 14.753 -4.7368 -6.44316
H 13.8647 -3.36653 -6.44532
O 12.3666 -11.9846 7.85587
H 13.25 -12.1239 8.30329
H 12.3305 -11.0632 7.46893
O 13.9119 10.0452 -0.670908
H 13.9671 9.24893 -0.0685002
H 14.7232 10.6159 -0.5441
O 7.32488 7.32333 -4.11039
H 7.06998 7.49541 -5.06192
H 6.53259 6.9723 -3.61134
O -4.42339 14.3937 -10.7391
H -3.58028 14.8447 -10.4463
H -4.25803 13.8998 -11.5927
O 1.59083 -0.459054 -13.1218
H 1.84581 0.504882 -13.0455
H 1.97028 -0.838468 -13.9656
O -4.53055 6.45574 10.6371
H -3.68515 6.60347 10.1238
H -4.33022 6.45728 11.6168
O 11.0029 -3.94079 -9.95737
H 10.2345 -4.44286 -10.3542
H 11.1089 -4.19813 -8.99687
O 6.01086 -4.35193 12.8041
H 6.48199 -4.52731 11.9396
H 5.02252 -4.3565 12.652
O -13.0329 0.428895 -14.1441
H -12.2245 0.342985 -13.5618
H -13.776 -0.123605 -13.7664
O -12.8968 13.9452 -3.66083
H -13.1573 13.9574 -2.69544
H -12.9466 14.8728 -4.03119
O -8.72992 -7.85853 -2.34061
H -9.70161 -7.77836 -2.56285
H -8.27556 -8.42195 -3.03062
O -9.4025 6.7382 7.67334
H -10.2686 7.0179 8.0876
H -8.82879 7.54361 7.52444
O 3.21813 -6.73267 5.78559
H 2.88211 -5.7931 5.85117
H 2.74386 -7.2052 5.04277
O -9.42696 5.53557 3.25113
H -10.1013 5.49478 2.51384
H -9.1413 4.60832 3.49323
O -13.9644 0.202078 -0.000669368
H -14.1809 -0.160514 -0.907125
H -13.6338 -0.538523 0.584343
O 4.09495 10.9161 -8.21907
H 3.56532 11.5373 -7.64143
H 3.96954 9.97651 -7.90069
O 12.3783 -11.4547 -12.4269
H 12.1226 -12.4008 -12.6257
H 13.2762 -11.4374 -11.9872
O 3.67442 -3.11262 -10.6263
H 3.97041 -2.57149 -9.83917
H 4.01433 -4.04856 -10.5341
O -5.34173 10.3057 -1.70117
H -6.1886 10.4639 -1.19348
H -5.55099 9.84245 -2.56235
O 8.74713 1.65377 -8.97796
H 9.38606 2.38373 -8.73523
H 7.82174 1.9162 -8.70448
O -0.556725 -3.78935 -7.57724
H -0.159065 -4.60329 -8.00076
H 0.172983 -3.15148 -7.33096
O 10.1932 14.8656 -12.3547
H 10.2443 -14.2724 -12.9774
H 9.83248 14.0718 -12.8445
O -0.767459 -11.3025 8.9996
H 0.0373308 -11.6419 8.51262
H -0.508652 -11.0408 9.92941
O -13.3107 9.84768 10.9877
H -12.4368 9.53118 10.6188
H -13.7338 10.4842 10.3429
O -9.45983 13.9372 3.19685
H -9.78937 14.0227 2.25659
H -9.50083 14.8293 3.64686
O -3.16219 -5.11889 -2.56693
H -2.60887 -4.68272 -3.27657
H -4.03266 -4.63469 -2.47836
O 4.55282 -1.08109 -5.58649
H 5.4221 -1.47186 -5.88923
H 3.97488 -1.80526 -5.21024
O 12.0644 9.37862 4.20837
H 12.7743 9.97012 4.5906
H 12.3077 8.42149 4.36559
O -0.184551 -7.86878 -12.4783
H -0.830687 -7.2114 -12.8661
H -0.463103 -8.0997 -11.5461
O -11.7426 6.91724 -6.28348
H -12.4604 6.39767 -5.81993
H -12.0099 7.87931 -6.33804
O -8.63178 -1.69795 14.3538
H -8.90451 -2.25745 -14.7823
H -8.24146 -2.28482 13.6444
O -9.01028 -2.71078 -11.0523
H -8.35877 -3.16526 -10.4448
H -8.70439 -1.77529 -11.2292
O 0.295225 -11.4781 11.8129
H -0.514657 -11.9175 12.2015
H 0.981868 -11.352 12.5289
O 0.387817 13.4658 6.04895
H 0.246469 12.4776 5.99128
H 1.31574 13.6879 5.74949
O -6.14025 -1.35195 -0.497242
H -5.98567 -0.599845 -1.1379
H -6.13891 -0.998559 0.438231
O -7.05095 6.92745 3.50963
H -6.28497 6.2956 3.62817
H -7.8604 6.41869 3.21645
O -13.2866 -1.13337 10.16
H -13.4785 -2.02089 9.74102
H -12.3172 -1.08051 10.3997
O -0.141508 0.128537 4.4295
H -0.72883 0.0729807 5.23694
H 0.416536 -0.698817 4.36568
O -3.23091 10.426 -12.4846
H -2.78605 9.82153 -13.1454
H -2.99614 10.1359 -11.5568
O 12.5819 -4.33485 -3.72006
H 12.3204 -5.29468 -3.61849
H 13.3409 -4.26288 -4.3672
O -0.440435 -9.49216 5.5545
H -0.680769 -10.2284 6.18712
H -0.956619 -9.60092 4.70495
O 13.262 4.59547 -6.93527
H 12.98 4.40168 -5.99563
H 14.0458 4.02177 -7.17308
O -2.24324 10.9746 8.22219
H -2.74112 10.2025 8.61722
H -1.42819 10.639 7.74985
O 4.79014 -14.2489 -2.05421
H 4.06876 -13.6186 -2.34122
H 4.95802 -14.9161 -2.77994
O -3.88051 8.73193 7.8258
H -3.43749 8.11328 8.47465
H -4.36966 8.19749 7.13651
O 9.93458 -9.99404 2.71214
H 9.05958 -10.4019 2.45131
H 10.6795 -10.4882 2.26387
O -8.53214 -13.5037 -2.91799
H -9.24416 -13.2958 -2.24732
H -8.73684 -14.3762 -3.36183
O 3.19769 4.06053 -7.24392
H 3.43852 3.11835 -7.4769
H 2.41269 4.34919 -7.79205
O -13.7844 7.67076 3.18052
H -13.6448 6.69495 3.0123
H -13.093 8.00045 3.82341
O -5.52572 -2.12754 4.13614
H -4.86214 -2.02988 4.87784
H -6.2902 -2.69327 4.44519
O 5.93679 6.67503 11.211
H 6.34101 7.55058 10.9464
H 5.10766 6.51522 10.6753
O -14.0047 -10.8979 1.20536
H -13.3793 -10.453 1.84639
H -14.5409 -10.203 0.726264
O -13.4621 4.8598 2.97708
H -14.3832 4.55529 2.73474
H -12.7921 4.37597 2.41396
O 8.14326 -9.05894 0.231064
H 8.84839 -8.68741 -0.372885
H 8.39126 -9.98964 0.499948
O 7.46141 2.09563 -5.75783
H 7.35151 3.03234 -5.42544
H 6.87527 1.95411 -6.55559
O 3.46997 3.2006 -2.34209
H 4.43005 3.16749 -2.61986
H 2.89949 3.40311 -3.13804
O -4.06709 -6.75967 -10.5508
H -3.55758 -6.85277 -9.69536
H -3.67694 -6.01459 -11.0917
O 14.5204 -12.328 9.51776
H 14.2361 -12.9472 10.2497
H -14.4893 -12.5899 9.19382
O 13.4892 -14.3726 -14.7435
H 12.8319 -13.7134 14.81
H 13.5296 14.7479 14.5744
O 2.62856 9.97351 -0.881152
H 3.4002 10.0867 -1.50706
H 2.09153 10.8168 -0.858148
O -14.9048 -10.4773 5.1486
H -14.057 -10.6341 5.6552
H 14.4995 -9.73669 5.58086
O 13.2872 -8.47634 1.17191
H 13.1523 -8.09304 2.08563
H 12.9037 -9.39925 1.13765
O 12.2567 5.1866 -10.7921
H 13.2074 5.48811 -10.8634
H 11.8429 5.17048 -11.7024
O 1.00513 14.9222 -3.90174
H 0.200571 -14.548 -3.51256
H 1.8135 -14.4309 -3.73915
O 5.24824 6.67718 -2.66368
H 4.3392 7.00096 -2.40135
H 5.70077 6.27388 -1.86834
O -11.2042 14.2312 6.84438
H -10.7541 14.9377 6.29817
H -12.1874 14.4106 6.87638
O -1.73216 -2.81859 -10.615
H -0.759188 -2.92923 -10.4123
H -1.89953 -1.89132 -10.9499
O -9.69342 -8.46327 10.8288
H -10.5612 -7.99554 10.6608
H -9.86643 -9.32658 11.3029
O 10.8919 -6.41323 -0.163469
H 10.3914 -6.54748 -1.01874
H 10.2633 -6.50614 0.608682
O -8.23497 -4.4742 -3.00741
H -8.19256 -5.13118 -2.2547
H -8.20661 -3.54445 -2.64032
O -10.337 11.6788 -1.35452
H -10.7353 10.9349 -0.817798
H -10.7274 11.6716 -2.27516
O 2.40684 -7.20063 2.81289
H 1.7506 -6.47247 2.61503
H 2.2789 -7.95016 2.1634
O 8.30659 -0.164397 8.36798
H 9.24014 0.193939 8.35945
H 8.19538 -0.786376 9.14308
O -1.96238 9.01057 -3.03936
H -1.09162 8.92371 -2.5554
H -1.83025 8.78915 -4.00555
O -5.26471 7.14461 -13.4921
H -5.55094 6.84545 -12.5819
H -4.59318 6.50069 -13.8588
O -6.24842 9.20828 -11.7044
H -5.60637 9.26161 -12.4692
H -7.17986 9.1177 -12.0568
O -0.666454 1.37987 8.64603
H -0.62112 0.72347 7.89298
H 0.147494 1.96062 8.63144
O -8.18278 4.209 -5.22428
H -8.04036 4.8946 -4.51037
H -8.06537 3.29473 -4.83656
O 10.8133 8.73945 -5.72091
H 11.5061 9.14441 -6.31756
H 11.233 8.47954 -4.85128
O 10.4408 -13.129 -14.2818
H 9.54402 -12.6941 -14.3637
H 11.1045 -12.632 -14.8409
O 6.50823 0.590033 0.741572
H 6.66321 1.3165 0.0720783
H 6.11334 -0.206477 0.283721
O 8.63556 -7.77452 3.46918
H 7.65652 -7.97778 3.4825
H 9.1399 -8.58369 3.16771
O -1.41661 -12.4867 -10.326
H -2.05131 -11.8364 -10.7435
H -0.507735 -12.0739 -10.2664
O -7.19521 -4.94949 2.1352
H -7.22948 -5.65679 2.84128
H -7.73891 -4.16204 2.42556
O -7.88418 -14.7452 -6.2217
H -8.46309 14.6333 -5.61105
H -8.42921 -14.0201 -6.64265
O -7.29122 -11.6327 -6.21007
H -6.63688 -12.3847 -6.29056
H -7.09177 -11.1042 -5.38491
O 13.8087 -8.555 -5.09706
H 13.4582 -7.91599 -4.41235
H 14.0995 -9.3993 -4.64702
O 13.2885 5.98814 -14.1366
H 13.0575 6.46708 14.9353
H 13.6863 6.63484 -13.4858
O -2.1217 6.68941 -12.3923
H -1.94093 7.54751 -12.8729
H -1.32666 6.44421 -11.8375
O 2.70123 1.55877 6.69943
H 2.72747 0.562782 6.6139
H 2.28099 1.95256 5.88192
O 7.58027 8.91938 -0.976795
H 7.71869 8.66815 -1.93477
H 7.36317 9.89362 -0.915725
O 5.40284 -8.00429 -5.86056
H 6.34261 -7.99774 -6.20229
H 5.3953 -8.32071 -4.91197
O -7.63972 8.8513 8.77909
H -7.37659 8.72441 7.82271
H -7.22616 8.13169 9.33687
O 8.198 -14.5856 13.0232
H 7.43958 -14.0857 12.6049
H 8.93367 -14.6954 12.3548
O -12.9257 -9.89807 12.0583
H -12.7725 -10.3622 12.9307
H -12.9213 -10.5702 11.3179
O 2.36459 -12.7978 3.42263
H 1.58199 -13.2227 3.87767
H 3.07523 -12.5994 4.09761
O -10.1021 10.9133 11.126
H -9.35972 11.0574 10.4717
H -9.98412 10.0273 11.5743
O 13.7298 1.18677 -8.01762
H 14.1022 0.981901 -8.9228
H 12.9658 0.571236 -7.82442
O -11.3067 5.01858 0.344704
H -10.48 5.06944 -0.21558
H -11.4391 4.07849 0.658872
O -1.94959 4.77601 -1.78317
H -1.06324 5.14908 -1.50892
H -1.86059 4.3233 -2.67037
O 5.57543 6.60025 2.6017
H 4.65734 6.30166 2.86237
H 5.51761 7.19315 1.79851
O 14.8852 5.53186 12.4151
H 14.7309 6.45548 12.0642
H -14.1283 5.21482 12.1325
O -9.112 9.4731 14.8784
H -8.32874 9.33005 14.2734
H -9.57499 8.60088 -14.8826
O 11.8734 7.0737 10.7424
H 11.394 6.80365 11.5774
H 12.8338 7.2556 10.9535
O 12.2372 14.1174 12.7397
H 11.529 14.2888 12.0548
H 12.6405 13.2157 12.5836
O 10.7517 5.1198 7.7542
H 11.7316 4.9534 7.86461
H 10.376 4.47132 7.09214
O 9.42327 11.4787 13.1431
H 9.31461 10.4933 13.2741
H 10.0618 11.6466 12.392
O -4.51088 -5.78322 11.3246
H -4.75409 -5.53419 10.3872
H -4.31552 -6.76293 11.3693
O -9.96351 -13.827 5.12291
H -10.4617 -12.9813 4.9313
H -9.1003 -13.6093 5.57843
O 5.13629 12.3352 6.35998
H 5.31308 11.505 5.8313
H 5.07268 12.1048 7.33099
O -6.74131 -13.0422 12.344
H -5.87271 -12.8718 12.8093
H -6.60198 -13.7087 11.6116
O -3.34397 0.215367 8.3355
H -2.70574 0.972144 8.47677
H -4.2805 0.565899 8.32934
O -8.01604 10.6024 -0.5735
H -8.29137 10.4545 0.376395
H -8.77363 11.0144 -1.07982
O 8.24873 -2.28005 1.4018
H 8.31581 -3.27751 1.42573
H 7.39172 -2.01411 0.960431
O -4.03921 -5.46449 1.71311
H -3.69994 -4.53382 1.84999
H -5.03661 -5.4487 1.64284
O -1.79133 8.09216 4.98611
H -1.93354 8.89284 5.56809
H -2.55989 7.99948 4.35309
O -12.7051 1.4856 10.1168
H -13.2943 0.721826 9.85303
H -12.5357 2.0663 9.32045
O 6.91887 -10.8735 10.7171
H 6.52858 -9.98436 10.4782
H 7.39133 -10.8049 11.5958
O 14.0832 0.492215 -4.84379
H 13.7851 0.398583 -5.79372
H 13.5314 -0.104279 -4.26094