LAMMPS (15 May 2015)
Reading data file ...
  triclinic box = (-0.107635 -0.0404339 -0.357111) to (41.3876 35.9384 29.5551) with tilt (-0.0672341 -17.0362 -0.0417078)
  5 by 2 by 2 MPI processor grid
  reading atoms ...
  4560 atoms
  reading velocities ...
  4560 velocities
  scanning bonds ...
  3 = max bonds/atom
  scanning angles ...
  3 = max angles/atom
  scanning dihedrals ...
  8 = max dihedrals/atom
  scanning impropers ...
  1 = max impropers/atom
  reading bonds ...
  5040 bonds
  reading angles ...
  7200 angles
  reading dihedrals ...
  10560 dihedrals
  reading impropers ...
  2400 impropers
Finding 1-2 1-3 1-4 neighbors ...
 Special bond factors lj:   0          0          0         
 Special bond factors coul: 0          0          0         
  4 = max # of 1-2 neighbors
  8 = max # of 1-3 neighbors
  20 = max # of 1-4 neighbors
  16 = max # of special neighbors
4560 atoms in group all
720 atoms in group C
480 atoms in group S
1920 atoms in group H
720 atoms in group Si
240 atoms in group Na
240 atoms in group Ba
240 atoms in group O
4560 atoms in group naphthalene
2400 atoms in group carbon
960 atoms in group CO
Setting atom values ...
  720 settings made for charge
Setting atom values ...
  720 settings made for charge
Setting atom values ...
  1920 settings made for charge
Setting atom values ...
  480 settings made for charge
Setting atom values ...
  240 settings made for charge
Setting atom values ...
  240 settings made for charge
Setting atom values ...
  240 settings made for charge
Finding 1-2 1-3 1-4 neighbors ...
 Special bond factors lj:   0          0          0.5       
 Special bond factors coul: 0          0          0.5       
  4 = max # of 1-2 neighbors
  8 = max # of 1-3 neighbors
  20 = max # of 1-4 neighbors
  16 = max # of special neighbors
Neighbor list info ...
  4 neighbor list requests
  update every 1 steps, delay 0 steps, check yes
  master list distance cutoff = 12
Setting up run ...
Memory usage per processor = 13.4064 Mbytes
Step Temp Density PotEng E_vdwl E_tail E_coul E_long Press Volume Xy Xz Yz E_mol E_bond E_angle E_dihed 14[1] 14[2] 14[3] msd[4] msd2[4] msd3[4] msd4[4] naphthal Cella Cellb Cellc CellAlpha CellBeta CellGamma 2 3 27[1] 27[2] 27[3] 28[1] 28[2] 28[3] 
       0          298    1.2509986     3498.833            0            0            0            0   -15873.524    44657.537 -0.067234084   -17.036218 -0.041707817     3498.833    1521.0094     935.4334    889.67826    28.379601    18.846571    14.337846 7.7711016e-30 8.8746852e-30 6.8181724e-30 5.7534156e-30          298     41.49527    35.978931    34.423473    90.016431    119.66323    90.107069 7.9914807e-24 4.9466509e-24    28.379557    18.849013    14.339638    28.379812    18.845474    14.337264 
   10000    287.94677    1.2509986    3435.8697            0            0            0            0   -6920.1803    44657.537 -0.067234084   -17.036218 -0.041707817    3435.8697     1436.983    961.48219    883.48738    28.377558    18.845604    14.336266 0.00037051292 0.0003700392 0.00081943447 0.00081874091    287.94677     41.49527    35.978931    34.423473    90.016431    119.66323    90.107069    846.19585    222.30775    28.379993      18.8489    14.340158    28.380413    18.845242    14.336736 
   20000    296.16101    1.2509986    3452.3426            0            0            0            0   -6862.6394    44657.537 -0.067234084   -17.036218 -0.041707817    3452.3426    1408.6763    955.81233     923.6624    28.379498    18.845247    14.337327 0.00036883668 0.00036729998 0.00079500017 0.00079484052    296.16101     41.49527    35.978931    34.423473    90.016431    119.66323    90.107069    820.96356    221.30201    28.378435    18.848801    14.339155     28.37998    18.845149    14.337104 
   30000    293.93956    1.2509986    3387.9548            0            0            0            0   -6317.0102    44657.537 -0.067234084   -17.036218 -0.041707817    3387.9548    1412.2167    940.72468    882.38968    28.379028    18.843761    14.337154 0.00033997775 0.00033973874 0.00083094339 0.00083018751    293.93956     41.49527    35.978931    34.423473    90.016431    119.66323    90.107069    858.08063    203.98665     28.37998    18.848829    14.339798    28.379446    18.845914     14.33661 
   40000    297.78918    1.2509986    3524.2142            0            0            0            0   -7298.5615    44657.537 -0.067234084   -17.036218 -0.041707817    3524.2142     1493.747    960.44926    915.33966    28.381395    18.845293     14.33729 0.0003482435 0.00034807908 0.00079340638 0.00079117857    297.78918     41.49527    35.978931    34.423473    90.016431    119.66323    90.107069    819.31772     208.9461    28.379327    18.849343    14.339583    28.381187    18.845075    14.336842 
   50000    301.18582    1.2509986    3483.0864            0            0            0            0   -6302.7951    44657.537 -0.067234084   -17.036218 -0.041707817    3483.0864     1478.796    924.49214    923.99151    28.378912    18.846895    14.337043 0.00036659965 0.00036586907 0.00083744327 0.00083720145    301.18582     41.49527    35.978931    34.423473    90.016431    119.66323    90.107069    864.79278    219.95979    28.379773    18.849673     14.33914    28.380079    18.845855    14.337103 
   60000    297.41411    1.2509986    3481.4419            0            0            0            0   -5526.9968    44657.537 -0.067234084   -17.036218 -0.041707817    3481.4419    1478.5544    959.50021     892.5541    28.382084     18.84525    14.338216 0.00033831722 0.00033780273 0.00083155806 0.0008312648    297.41411     41.49527    35.978931    34.423473    90.016431    119.66323    90.107069    858.71538    202.99033    28.380244     18.84881    14.339655    28.379679    18.845489    14.337789 
   70000    290.18082    1.2509986    3443.7371            0            0            0            0   -6018.8234    44657.537 -0.067234084   -17.036218 -0.041707817    3443.7371    1406.6998    971.24953    908.95725    28.378738    18.846784    14.338021 0.00035621925 0.0003561777 0.00082284848 0.00082172223    290.18082     41.49527    35.978931    34.423473    90.016431    119.66323    90.107069    849.72136    213.73155    28.379412    18.848875    14.339681    28.379883    18.846388      14.3378 
   80000    292.30243    1.2509986    3505.7409            0            0            0            0   -5749.7208    44657.537 -0.067234084   -17.036218 -0.041707817    3505.7409    1460.1973     982.7298    906.31927     28.38097    18.845382    14.336975 0.00037971744 0.00037577215 0.00080631897 0.00080562026    292.30243     41.49527    35.978931    34.423473    90.016431    119.66323    90.107069    832.65201    227.83046    28.379979    18.849589    14.337785    28.379557    18.845087    14.336569 
   90000    297.13807    1.2509986    3488.3644            0            0            0            0   -6926.7514    44657.537 -0.067234084   -17.036218 -0.041707817    3488.3644    1479.1665    939.17025    908.54891    28.381704    18.846423    14.337613 0.00036771042 0.00036214153  0.000821022 0.00082050453    297.13807     41.49527    35.978931    34.423473    90.016431    119.66323    90.107069    847.83523    220.62625    28.378243    18.847279    14.340553    28.379516    18.846119    14.337147 
  100000     298.8566    1.2509986    3424.1752            0            0            0            0   -6567.8924    44657.537 -0.067234084   -17.036218 -0.041707817    3424.1752    1427.7411    958.92386     883.4474    28.378818    18.845981    14.337469 0.00034736312 0.00034686458 0.00083159342 0.00083068129     298.8566     41.49527    35.978931    34.423473    90.016431    119.66323    90.107069    858.75189    208.41787    28.379021     18.84864    14.339906     28.37991      18.8463    14.337734 
  110000    301.43711    1.2509986    3508.1952            0            0            0            0   -7185.3409    44657.537 -0.067234084   -17.036218 -0.041707817    3508.1952    1444.1579    993.37147    913.70736     28.37988    18.846217    14.337768 0.00038090165 0.00038012441 0.00082923464 0.00082857468    301.43711     41.49527    35.978931    34.423473    90.016431    119.66323    90.107069    856.31608    228.54099    28.378957    18.848769     14.33904    28.379568    18.844812    14.337667 
  120000    294.06336    1.2509986    3511.5514            0            0            0            0   -7523.9586    44657.537 -0.067234084   -17.036218 -0.041707817    3511.5514    1490.6145    961.51523    900.86445    28.379896    18.844672    14.338051 0.0003489023 0.00034699819 0.00081922045 0.00081850222    294.06336     41.49527    35.978931    34.423473    90.016431    119.66323    90.107069    845.97484    209.34138    28.378324    18.848534    14.339244    28.380447    18.845025    14.337601 
  130000    302.80747    1.2509986    3456.2981            0            0            0            0   -5995.1727    44657.537 -0.067234084   -17.036218 -0.041707817    3456.2981    1467.9436    930.15201    902.30564    28.379563    18.845346     14.33743 0.00034412117 0.00034370672 0.00080076509 0.00080030769    302.80747     41.49527    35.978931    34.423473    90.016431    119.66323    90.107069    826.91675     206.4727    28.379999    18.848952    14.340101    28.379211    18.845556    14.336965 
  140000    301.43774    1.2509986    3483.1636            0            0            0            0   -8440.0969    44657.537 -0.067234084   -17.036218 -0.041707817    3483.1636    1465.3712    949.82588    911.34863    28.379477    18.844418    14.337966 0.00036826473 0.00036607296 0.00083783207 0.00083623104    301.43774     41.49527    35.978931    34.423473    90.016431    119.66323    90.107069    865.19428    220.95884    28.380173    18.847691    14.339384    28.379188    18.844389    14.337449 
  150000    301.25501    1.2509986    3475.3228            0            0            0            0   -6444.4575    44657.537 -0.067234084   -17.036218 -0.041707817    3475.3228    1452.7125    947.51763    918.73202     28.37927      18.8463    14.337608  0.000357168 0.0003549516 0.0008347166 0.00083432934    301.25501     41.49527    35.978931    34.423473    90.016431    119.66323    90.107069    861.97706     214.3008    28.378204    18.848391      14.3396    28.380143    18.845866    14.336912 
  160000    299.21701    1.2509986    3397.9994            0            0            0            0   -5453.7637    44657.537 -0.067234084   -17.036218 -0.041707817    3397.9994    1446.8994    911.28756     884.5767    28.379377     18.84549    14.337443 0.00033617857 0.00033394697 0.00084024862 0.00083956999    299.21701     41.49527    35.978931    34.423473    90.016431    119.66323    90.107069    867.68975    201.70714    28.378087    18.848787    14.339788    28.379077    18.845828    14.337149 
  170000    294.53721    1.2509986    3418.5605            0            0            0            0   -7017.1406    44657.537 -0.067234084   -17.036218 -0.041707817    3418.5605    1443.7472    929.44385    887.04666    28.380668     18.84585    14.337418 0.00035013771 0.00034943428 0.00081453069 0.00081431584    294.53721     41.49527    35.978931    34.423473    90.016431    119.66323    90.107069    841.13192    210.08263     28.37927    18.849202    14.338873    28.380125    18.845745    14.337473 
  180000    299.81397    1.2509986    3452.8694            0            0            0            0   -5422.6561    44657.537 -0.067234084   -17.036218 -0.041707817    3452.8694    1466.8098    947.31149    886.01917    28.381347     18.84535    14.337503 0.00032579501 0.00032512149 0.00080198974 0.0008016848    299.81397     41.49527    35.978931    34.423473    90.016431    119.66323    90.107069     828.1814    195.47701    28.379871    18.848283    14.339432    28.379775     18.84599    14.337071 
  190000    294.00702    1.2509986    3469.2022            0            0            0            0   -8476.5486    44657.537 -0.067234084   -17.036218 -0.041707817    3469.2022     1464.739    933.29802    913.51508    28.379002    18.845455    14.337378 0.00036550177 0.00036282946 0.00080425842 0.00080405817    294.00702     41.49527    35.978931    34.423473    90.016431    119.66323    90.107069    830.52417    219.30106    28.379583    18.847393    14.339418    28.379508    18.845231    14.337044 
  200000    299.01302    1.2509986    3516.3438            0            0            0            0   -6638.7527    44657.537 -0.067234084   -17.036218 -0.041707817    3516.3438    1491.1615    934.99604    930.34201    28.377871    18.845289    14.336671 0.00036776967 0.00036614044 0.00079767469 0.00079710417    299.01302     41.49527    35.978931    34.423473    90.016431    119.66323    90.107069    823.72543     220.6618    28.378638    18.848195    14.339979    28.379526    18.846145    14.337066 
  210000    292.39749    1.2509986    3500.4707            0            0            0            0   -6606.7428    44657.537 -0.067234084   -17.036218 -0.041707817    3500.4707    1470.1784    962.52716    912.24335    28.380751     18.84475    14.336648 0.00035356876 0.00035195795 0.00082978744 0.00082936979    292.39749     41.49527    35.978931    34.423473    90.016431    119.66323    90.107069    856.88693    212.14125    28.380133    18.848801    14.338528    28.379192    18.845567    14.337105 
  220000    293.77096    1.2509986    3414.6266            0            0            0            0   -6453.2998    44657.537 -0.067234084   -17.036218 -0.041707817    3414.6266    1453.4808    945.34728    864.47943    28.378987    18.847161    14.338017 0.00037126908 0.00036811225 0.00079806376 0.00079772234    293.77096     41.49527    35.978931    34.423473    90.016431    119.66323    90.107069     824.1272    222.76145    28.379868      18.8478    14.340898    28.379656    18.846017    14.337113 
  230000    295.46676    1.2509986    3417.5201            0            0            0            0   -6352.6322    44657.537 -0.067234084   -17.036218 -0.041707817    3417.5201    1448.1732    935.04538    880.88157     28.37885    18.845686    14.337484 0.00035541507 0.00035332808 0.00080686991 0.00080644614    295.46676     41.49527    35.978931    34.423473    90.016431    119.66323    90.107069    833.22095    213.24904    28.380691    18.849805    14.340053    28.380405    18.845211    14.337212 
  240000    293.88997    1.2509986    3489.6389            0            0            0            0   -6740.5429    44657.537 -0.067234084   -17.036218 -0.041707817    3489.6389     1449.336    963.98339     917.6511    28.378115    18.844281    14.337288 0.00034953015 0.00034905496 0.00084807741 0.00084711065    293.88997     41.49527    35.978931    34.423473    90.016431    119.66323    90.107069    875.77422    209.71809    28.379969    18.848892    14.340177    28.379566    18.846163    14.337922 
  250000    297.46744    1.2509986    3433.3095            0            0            0            0   -7163.3592    44657.537 -0.067234084   -17.036218 -0.041707817    3433.3095    1470.7262    951.46672     864.3044    28.379612    18.847312    14.337293 0.00035261859 0.00035084941 0.00084011753 0.00084008388    297.46744     41.49527    35.978931    34.423473    90.016431    119.66323    90.107069    867.55438    211.57115    28.380387    18.849208    14.340658    28.379771    18.845533    14.337096 
  260000    301.32137    1.2509986    3419.3074            0            0            0            0   -5929.4461    44657.537 -0.067234084   -17.036218 -0.041707817    3419.3074    1427.1571    960.09333    879.45525    28.377598    18.845046    14.336439 0.00033175457 0.00032881797 0.0008344606 0.00083418381    301.32137     41.49527    35.978931    34.423473    90.016431    119.66323    90.107069    861.71271    199.05274    28.380847    18.848692    14.338557    28.379562    18.845861    14.337009 
  270000    299.83247    1.2509986    3509.4073            0            0            0            0   -6225.9603    44657.537 -0.067234084   -17.036218 -0.041707817    3509.4073    1499.3242    937.83161    915.75999    28.378676    18.845262    14.336963 0.00035363001 0.00035213473 0.00083098898 0.00083063251    299.83247     41.49527    35.978931    34.423473    90.016431    119.66323    90.107069    858.12771    212.17801    28.380538    18.848391    14.340018    28.380023    18.845245    14.336755 
  280000    303.57118    1.2509986    3482.1566            0            0            0            0   -6868.8976    44657.537 -0.067234084   -17.036218 -0.041707817    3482.1566    1456.6619    987.41003    887.81699     28.38097    18.846558    14.337732 0.00034717952 0.00034637169 0.00082889581 0.00082774191    303.57118     41.49527    35.978931    34.423473    90.016431    119.66323    90.107069    855.96618    208.30771     28.37953     18.84984    14.339988    28.380677    18.845575    14.336636 
  290000    299.75551    1.2509986    3531.7195            0            0            0            0    -6417.424    44657.537 -0.067234084   -17.036218 -0.041707817    3531.7195    1507.8785    933.85003    928.88308    28.378683    18.845713     14.33706 0.00034358012 0.00034251482 0.00078902816 0.00078848344    299.75551     41.49527    35.978931    34.423473    90.016431    119.66323    90.107069    814.79651    206.14807    28.380199    18.848234    14.339855    28.379434    18.845592    14.336641 
  300000    298.95489    1.2509986    3518.4662            0            0            0            0   -6393.1458    44657.537 -0.067234084   -17.036218 -0.041707817    3518.4662    1432.2219    991.55652    934.53225    28.377957    18.845332    14.337055 0.00034778088 0.00034658791 0.00077643567 0.00077577891    298.95489     41.49527    35.978931    34.423473    90.016431    119.66323    90.107069    801.79278    208.66853     28.37918    18.848275     14.34035    28.379081    18.845308    14.336957 
  310000    302.14924    1.2509986    3402.5302            0            0            0            0   -6373.6971    44657.537 -0.067234084   -17.036218 -0.041707817    3402.5302    1442.8569    934.47707    873.75794    28.379104     18.84606    14.336943 0.0003659545 0.0003639176 0.00084754751 0.00084655488    302.14924     41.49527    35.978931    34.423473    90.016431    119.66323    90.107069    875.22702     219.5727    28.378186     18.84929    14.339351    28.380702    18.845338    14.337691 
  320000    288.60294    1.2509986    3456.8972            0            0            0            0   -7000.3393    44657.537 -0.067234084   -17.036218 -0.041707817    3456.8972    1480.9058    936.51183    883.45122    28.378449    18.847097     14.33747 0.00038845943 0.00038740602 0.00085073696 0.00085041407    288.60294     41.49527    35.978931    34.423473    90.016431    119.66323    90.107069    878.52063    233.07566    28.379398    18.848045     14.33994    28.379963    18.845521    14.336719 
  330000    297.01827    1.2509986    3452.8102            0            0            0            0   -6472.2845    44657.537 -0.067234084   -17.036218 -0.041707817    3452.8102    1450.6338    934.68314    911.26611    28.381867    18.845361    14.338137 0.00037668657 0.00037379838 0.00081371217 0.00081214116    297.01827     41.49527    35.978931    34.423473    90.016431    119.66323    90.107069    840.28666    226.01194    28.380257    18.847519    14.339231    28.379804    18.844271    14.337613 
  340000    296.48728    1.2509986    3512.9618            0            0            0            0   -5936.6945    44657.537 -0.067234084   -17.036218 -0.041707817    3512.9618    1433.6558    990.35837    928.81516    28.380773     18.84541    14.337498 0.00034538081 0.00034443405 0.00078219425 0.00078157909    296.48728     41.49527    35.978931    34.423473    90.016431    119.66323    90.107069    807.73942    207.22848    28.379966    18.849141    14.340512    28.379384    18.845885    14.336751 
  350000    299.06047    1.2509986    3486.8762            0            0            0            0   -4746.9482    44657.537 -0.067234084   -17.036218 -0.041707817    3486.8762    1414.0315    939.79023    966.51058    28.381775    18.846051     14.33785 0.00035129784 0.00035092138 0.00080282664 0.00080244915    299.06047     41.49527    35.978931    34.423473    90.016431    119.66323    90.107069    829.04564     210.7787    28.379537    18.848426     14.33946    28.379587    18.844941     14.33747 
  360000    302.34377    1.2509986      3566.56            0            0            0            0    -6882.611    44657.537 -0.067234084   -17.036218 -0.041707817      3566.56    1499.1431    987.60597     916.5098    28.380113    18.845739     14.33806 0.00035580043 0.0003557381 0.00080579633 0.00080524283    302.34377     41.49527    35.978931    34.423473    90.016431    119.66323    90.107069    832.11231    213.48026    28.379352    18.848959     14.33977    28.379945    18.845008    14.337829 
  370000    298.68693    1.2509986     3443.589            0            0            0            0   -6848.5318    44657.537 -0.067234084   -17.036218 -0.041707817     3443.589     1446.212    946.84858    901.02612    28.382536    18.845971    14.337917 0.00035160077 0.00035154209 0.00083472992 0.00083291551    298.68693     41.49527    35.978931    34.423473    90.016431    119.66323    90.107069    861.99082    210.96046    28.379572    18.848788    14.339727    28.381146    18.845649    14.337332 
  380000    296.54358    1.2509986    3504.3127            0            0            0            0   -7383.2192    44657.537 -0.067234084   -17.036218 -0.041707817    3504.3127    1481.9481     928.6041    932.52798    28.380711    18.845711    14.338223 0.0003393031 0.00033853071 0.00079121457 0.00079031424    296.54358     41.49527    35.978931    34.423473    90.016431    119.66323    90.107069    817.05433    203.58186    28.380155     18.84907    14.338997    28.379992    18.845732     14.33816 
  390000    301.45095    1.2509986    3437.1332            0            0            0            0   -7696.2072    44657.537 -0.067234084   -17.036218 -0.041707817    3437.1332    1472.9492    965.58501    848.28856    28.379912    18.844915    14.338111 0.00040602947 0.00040565987 0.00084002513 0.00083927822    301.45095     41.49527    35.978931    34.423473    90.016431    119.66323    90.107069    867.45897    243.61768    28.379928    18.848533    14.339598    28.379647    18.845582    14.338106 
  400000    295.70371    1.2509986    3461.8327            0            0            0            0    -5495.733    44657.537 -0.067234084   -17.036218 -0.041707817    3461.8327    1406.2754    996.33849    906.71436     28.37808    18.845723    14.337132 0.0003845605 0.00038413826 0.00081137168 0.00081107973    295.70371     41.49527    35.978931    34.423473    90.016431    119.66323    90.107069    837.86974     230.7363    28.379204    18.848849    14.339118    28.380214    18.845405     14.33691 
  410000     295.3046    1.2509986    3462.6133            0            0            0            0   -6632.1157    44657.537 -0.067234084   -17.036218 -0.041707817    3462.6133    1465.7467    918.00386    923.55741    28.376538    18.846649     14.33666 0.00033171183 0.00032941835 0.00083064807 0.00082959598     295.3046     41.49527    35.978931    34.423473    90.016431    119.66323    90.107069    857.77566     199.0271      28.3786    18.850084    14.340118    28.379583    18.846445    14.337506 
  420000    304.56984    1.2509986    3472.3492            0            0            0            0   -7152.2396    44657.537 -0.067234084   -17.036218 -0.041707817    3472.3492    1472.0753    974.42319    873.70037    28.382444    18.844159    14.338503 0.00035870696 0.0003565808 0.0008211544 0.00082024853    304.56984     41.49527    35.978931    34.423473    90.016431    119.66323    90.107069    847.97195    215.22417    28.380671    18.848702    14.338751    28.380634    18.845235     14.33768 
  430000    297.24656    1.2509986    3490.0873            0            0            0            0   -7270.8672    44657.537 -0.067234084   -17.036218 -0.041707817    3490.0873    1466.5477    948.75359    917.62092    28.380463    18.846116    14.337411 0.00036292598 0.00036124894 0.00076983142 0.00076883583    297.24656     41.49527    35.978931    34.423473    90.016431    119.66323    90.107069    794.97284    217.75559    28.379008    18.848747     14.34078    28.380159    18.844695    14.336747 
  440000    290.10788    1.2509986    3444.8895            0            0            0            0   -6051.6318    44657.537 -0.067234084   -17.036218 -0.041707817    3444.8895    1447.0923     954.0001    892.36716    28.380532    18.845137    14.338475 0.00034625364 0.00034380479 0.00081944041 0.00081895088    290.10788     41.49527    35.978931    34.423473    90.016431    119.66323    90.107069    846.20198    207.75219    28.378613    18.849654    14.340709    28.379419    18.844947    14.337502 
  450000    297.29281    1.2509986    3509.1286            0            0            0            0   -6765.8429    44657.537 -0.067234084   -17.036218 -0.041707817    3509.1286    1516.5777    956.39057    884.63254    28.379265      18.8469    14.336935 0.00034318586 0.00034163238 0.00082265836 0.0008208182    297.29281     41.49527    35.978931    34.423473    90.016431    119.66323    90.107069    849.52502    205.91152    28.378341     18.84889    14.339883    28.380483    18.846522    14.336724 
  460000    298.01191    1.2509986    3538.4514            0            0            0            0   -6961.3346    44657.537 -0.067234084   -17.036218 -0.041707817    3538.4514     1491.769    961.51784     925.5465    28.380476     18.84675     14.33658 0.00038215473 0.00038013521 0.00085390594 0.00085302739    298.01191     41.49527    35.978931    34.423473    90.016431    119.66323    90.107069     881.7931    229.29284    28.380031    18.848073    14.340593    28.380434    18.845621    14.336579 
  470000    298.73491    1.2509986    3411.0266            0            0            0            0   -6352.5499    44657.537 -0.067234084   -17.036218 -0.041707817    3411.0266    1439.3165    937.87226     881.1398    28.378646    18.844591    14.336234 0.00035905887 0.00035661818 0.00081664574 0.00081582061    298.73491     41.49527    35.978931    34.423473    90.016431    119.66323    90.107069    843.31604    215.43532    28.379217    18.847589    14.339092    28.379985    18.844798    14.336684 
  480000    300.38537    1.2509986    3516.6046            0            0            0            0   -6135.3075    44657.537 -0.067234084   -17.036218 -0.041707817    3516.6046    1487.2287    966.23307    909.88685    28.380187    18.844869    14.338358 0.00033089556 0.00032965753 0.0007996291 0.00079886446    300.38537     41.49527    35.978931    34.423473    90.016431    119.66323    90.107069    825.74366    198.53734    28.380106    18.848184    14.340138    28.380097     18.84536    14.338083 
  490000    297.41545    1.2509986    3463.6128            0            0            0            0   -8005.5654    44657.537 -0.067234084   -17.036218 -0.041707817    3463.6128    1447.5745    982.33271    881.36204    28.378243    18.845966    14.336755 0.00034288798 0.00034147681 0.00076860963 0.00076792749    297.41545     41.49527    35.978931    34.423473    90.016431    119.66323    90.107069    793.71116    205.73279    28.378722    18.848181    14.339487    28.379084    18.845156    14.337489 
  500000    296.10663    1.2509986     3495.695            0            0            0            0   -7035.2799    44657.537 -0.067234084   -17.036218 -0.041707817     3495.695    1462.7501    950.45639    923.58872    28.381277    18.846316    14.337699 0.00036777429 0.0003672406 0.00083039704 0.00082999375    296.10663     41.49527    35.978931    34.423473    90.016431    119.66323    90.107069    857.51644    220.66457     28.37935    18.848926    14.340333    28.380405    18.845696    14.337209 
  510000     302.4732    1.2509986    3466.9101            0            0            0            0   -5413.0679    44657.537 -0.067234084   -17.036218 -0.041707817    3466.9101    1417.4967    989.94333    907.17699    28.379634    18.846848    14.336323 0.00035333749 0.00035142715 0.00079905197 0.00079842752     302.4732     41.49527    35.978931    34.423473    90.016431    119.66323    90.107069    825.14769    212.00249    28.380031    18.850048    14.338855    28.379646    18.845725    14.336534 
  520000    301.30577    1.2509986    3461.2566            0            0            0            0   -6602.6915    44657.537 -0.067234084   -17.036218 -0.041707817    3461.2566    1424.0747    951.67076    921.95912    28.375991    18.845495    14.337105 0.00036206961 0.00036162119 0.00077342832 0.00077338771    301.30577     41.49527    35.978931    34.423473    90.016431    119.66323    90.107069    798.68721    217.24177    28.379682    18.848465    14.340003    28.379807     18.84559    14.337429 
  530000    295.89778    1.2509986    3439.7146            0            0            0            0   -7510.0942    44657.537 -0.067234084   -17.036218 -0.041707817    3439.7146     1452.009    916.85179    912.21464     28.37769    18.845475    14.336714 0.00031606847 0.00031316812 0.00084012883 0.00083952906    295.89778     41.49527    35.978931    34.423473    90.016431    119.66323    90.107069    867.56605    189.64108     28.37991    18.848081    14.341019    28.379442    18.845896     14.33673 
  540000    297.40557    1.2509986    3432.3717            0            0            0            0    -5481.271    44657.537 -0.067234084   -17.036218 -0.041707817    3432.3717    1447.4712    962.23191    874.62912    28.379233    18.844546    14.337645 0.00036329819 0.00036308191 0.00085441726 0.00085395507    297.40557     41.49527    35.978931    34.423473    90.016431    119.66323    90.107069    882.32111    217.97891    28.379113    18.849113    14.339542    28.379551    18.845226    14.337841 
  550000    298.79059    1.2509986    3451.0462            0            0            0            0   -6787.4641    44657.537 -0.067234084   -17.036218 -0.041707817    3451.0462    1453.1542    919.76252    916.26501    28.379517    18.845472    14.337308 0.00030710457 0.00030629322 0.00081032922 0.00081026969    298.79059     41.49527    35.978931    34.423473    90.016431    119.66323    90.107069    836.79324    184.26274    28.380449    18.848903    14.339593    28.379721    18.845559    14.337474 
  560000     298.3201    1.2509986    3457.3794            0            0            0            0   -6830.7294    44657.537 -0.067234084   -17.036218 -0.041707817    3457.3794    1442.2869    928.08542    927.20579    28.380447    18.846037    14.337603 0.0003747613 0.00037268907 0.00083076594 0.00083060953     298.3201     41.49527    35.978931    34.423473    90.016431    119.66323    90.107069    857.89738    224.85678     28.37875    18.849379    14.338504    28.380122    18.845541    14.337501 
  570000    295.48385    1.2509986    3410.7256            0            0            0            0   -5566.8419    44657.537 -0.067234084   -17.036218 -0.041707817    3410.7256    1460.0232    931.92657    867.99615     28.37784    18.844404    14.336833 0.00035599948 0.00035560855 0.00080825673 0.00080650397    295.48385     41.49527    35.978931    34.423473    90.016431    119.66323    90.107069    834.65306    213.59969    28.379522     18.84856    14.339209    28.378747    18.845375    14.336485 
  580000    296.23269    1.2509986    3420.6296            0            0            0            0   -5609.2227    44657.537 -0.067234084   -17.036218 -0.041707817    3420.6296    1410.2175    966.91121    892.40709    28.379249    18.847561    14.336899 0.0003773494 0.00037638842 0.00082511097 0.0008226065    296.23269     41.49527    35.978931    34.423473    90.016431    119.66323    90.107069    852.05773    226.40964    28.379019    18.848659    14.338898    28.379086     18.84688    14.337216 
  590000    297.07335    1.2509986      3477.32            0            0            0            0   -6547.6749    44657.537 -0.067234084   -17.036218 -0.041707817      3477.32    1454.4054    969.37071    898.77116    28.377687     18.84584    14.336838 0.0003597623 0.00035924203 0.00084710437 0.0008463285    297.07335     41.49527    35.978931    34.423473    90.016431    119.66323    90.107069     874.7694    215.85738    28.379602    18.848365    14.339952    28.378973     18.84547    14.336995 
  600000    298.14187    1.2509986    3470.7258            0            0            0            0   -7337.3271    44657.537 -0.067234084   -17.036218 -0.041707817    3470.7258    1481.1869    941.59488    898.82045     28.37927    18.846372    14.336902 0.00034682968 0.00034636029 0.00083555966 0.00083478425    298.14187     41.49527    35.978931    34.423473    90.016431    119.66323    90.107069    862.84766    208.09781    28.379913    18.849324    14.339143    28.379613    18.846194    14.336797 
  610000    299.60333    1.2509986    3490.3313            0            0            0            0   -6128.8649    44657.537 -0.067234084   -17.036218 -0.041707817    3490.3313    1434.2554    972.44309     924.3276    28.380447    18.844814    14.337833 0.00036009913 0.0003568941 0.00079306937 0.00079252168    299.60333     41.49527    35.978931    34.423473    90.016431    119.66323    90.107069    818.96971    216.05948    28.378628    18.849041    14.341168    28.380381     18.84586    14.337538 
  620000     299.1414    1.2509986    3486.4771            0            0            0            0     -7214.98    44657.537 -0.067234084   -17.036218 -0.041707817    3486.4771    1477.9587    969.38527    887.39349    28.380583    18.845094    14.338051 0.00038457915 0.00038166684 0.00080345494 0.00080285886     299.1414     41.49527    35.978931    34.423473    90.016431    119.66323    90.107069    829.69445    230.74749    28.379256    18.849254    14.337975    28.379915    18.846177    14.337567 
  630000    294.59655    1.2509986    3436.6921            0            0            0            0   -6502.9985    44657.537 -0.067234084   -17.036218 -0.041707817    3436.6921    1440.3382    936.69378    899.85642    28.379532    18.845602    14.336728 0.00034422136 0.00034331471 0.00081383931 0.00081241532    294.59655     41.49527    35.978931    34.423473    90.016431    119.66323    90.107069    840.41796    206.53282    28.380418    18.849387     14.33948    28.380979    18.845451    14.337017 
  640000    302.44643    1.2509986    3498.4997            0            0            0            0   -6280.4896    44657.537 -0.067234084   -17.036218 -0.041707817    3498.4997    1417.7521    990.69284    931.64892    28.378876    18.844344    14.337314 0.00036581022 0.0003652738 0.00080028487 0.00079975457    302.44643     41.49527    35.978931    34.423473    90.016431    119.66323    90.107069    826.42086    219.48613    28.380245    18.848778    14.339727    28.379431    18.844907    14.337013 
  650000    298.23889    1.2509986    3479.6576            0            0            0            0   -5998.7481    44657.537 -0.067234084   -17.036218 -0.041707817    3479.6576    1446.1678    957.75178    913.91347    28.378831    18.844778    14.336803 0.00033509861 0.00033363178 0.00083215503 0.00082887952    298.23889     41.49527    35.978931    34.423473    90.016431    119.66323    90.107069    859.33184    201.05917    28.380683    18.849124    14.339208    28.379795    18.843705    14.336883 
  660000    298.53335    1.2509986    3462.9582            0            0            0            0   -7428.7374    44657.537 -0.067234084   -17.036218 -0.041707817    3462.9582    1460.8154    963.23548     884.5334    28.378949    18.845255    14.336868 0.00034047447 0.00033996867 0.00080325772 0.00080315994    298.53335     41.49527    35.978931    34.423473    90.016431    119.66323    90.107069    829.49079    204.28468    28.379669    18.849368    14.339032    28.379577    18.845648    14.337153 
  670000    299.78334    1.2509986    3397.5029            0            0            0            0    -6510.787    44657.537 -0.067234084   -17.036218 -0.041707817    3397.5029    1468.9443    902.28778    875.45621    28.378284     18.84658    14.337449 0.00035963569 0.00035886237 0.00082323731 0.00082307267    299.78334     41.49527    35.978931    34.423473    90.016431    119.66323    90.107069    850.12288    215.78142    28.379328    18.849609    14.340243    28.379667    18.845545    14.337637 
  680000     303.2314    1.2509986    3522.5246            0            0            0            0   -7500.9025    44657.537 -0.067234084   -17.036218 -0.041707817    3522.5246    1492.9109    912.51877      953.416    28.380124    18.846288    14.338273 0.00034002233 0.00033803858 0.00076921602 0.00076879498     303.2314     41.49527    35.978931    34.423473    90.016431    119.66323    90.107069    794.33734     204.0134    28.379063    18.847845    14.340251    28.379529    18.845934    14.336905 
  690000    304.03712    1.2509986    3435.9606            0            0            0            0   -8497.1943    44657.537 -0.067234084   -17.036218 -0.041707817    3435.9606    1472.0589    920.29449    887.57638    28.380704     18.84551    14.337356 0.00032931894 0.0003279376 0.00081576995 0.00081561114    304.03712     41.49527    35.978931    34.423473    90.016431    119.66323    90.107069    842.41164    197.59136    28.380258     18.84819    14.340099    28.380177    18.845597    14.337366 
  700000    299.41472    1.2509986    3436.6043            0            0            0            0   -5583.0101    44657.537 -0.067234084   -17.036218 -0.041707817    3436.6043    1419.2815    951.16321    908.31735     28.37912    18.847673    14.337187 0.00034418214 0.00034319637 0.00079591469 0.00079409716    299.41472     41.49527    35.978931    34.423473    90.016431    119.66323    90.107069    821.90795    206.50928    28.379142    18.849742    14.339106    28.380689    18.846498    14.337258 
  710000    299.99518    1.2509986      3533.85            0            0            0            0   -6609.8951    44657.537 -0.067234084   -17.036218 -0.041707817      3533.85    1432.6098    1038.2678    900.23256    28.380718    18.845617    14.337922 0.00034089035 0.0003391092 0.00080415271 0.00080412652    299.99518     41.49527    35.978931    34.423473    90.016431    119.66323    90.107069    830.41501    204.53421    28.378602    18.848762    14.340537    28.379683    18.845379    14.337246 
  720000     300.5654    1.2509986    3468.6446            0            0            0            0   -5994.8298    44657.537 -0.067234084   -17.036218 -0.041707817    3468.6446    1450.7308    942.67552     918.7278    28.380385    18.844997    14.336844 0.00037232962 0.0003716098 0.00085038163 0.0008492642     300.5654     41.49527    35.978931    34.423473    90.016431    119.66323    90.107069    878.15369    223.39777    28.379924    18.849004    14.340403    28.380315    18.845474    14.336334 
  730000    297.03086    1.2509986    3450.6319            0            0            0            0   -6741.7023    44657.537 -0.067234084   -17.036218 -0.041707817    3450.6319    1465.3692    950.31627    884.57903      28.3818    18.845266    14.338782 0.00035062478 0.00034708991 0.00083021804 0.00082805147    297.03086     41.49527    35.978931    34.423473    90.016431    119.66323    90.107069    857.33159    210.37487    28.380466    18.847383    14.339413    28.380962    18.845975    14.338035 
  740000    303.44852    1.2509986    3532.0772            0            0            0            0   -6661.0487    44657.537 -0.067234084   -17.036218 -0.041707817    3532.0772    1456.4081    995.66407    922.97055    28.378543    18.845448    14.337145 0.00033157558 0.00032994071 0.0007993171 0.00079898975    303.44852     41.49527    35.978931    34.423473    90.016431    119.66323    90.107069    825.42148    198.94535    28.379949    18.849761    14.340598    28.379332    18.845513    14.336955 
  750000    297.33736    1.2509986    3436.5289            0            0            0            0   -7459.6938    44657.537 -0.067234084   -17.036218 -0.041707817    3436.5289     1411.778    914.12849    951.48156    28.379158    18.846458    14.337333 0.00035234492 0.00035202772 0.00082728084 0.00082678754    297.33736     41.49527    35.978931    34.423473    90.016431    119.66323    90.107069    854.29846    211.40695    28.379029    18.848832    14.339563    28.379798    18.846176    14.337247 
  760000    294.96385    1.2509986    3486.9323            0            0            0            0   -7018.4474    44657.537 -0.067234084   -17.036218 -0.041707817    3486.9323     1457.903    970.54705    904.61574    28.381859    18.845885    14.337771 0.00035069481 0.00034897512 0.0008188885 0.00081834485    294.96385     41.49527    35.978931    34.423473    90.016431    119.66323    90.107069    845.63204    210.41688    28.378453    18.849346    14.339012    28.379675    18.844857    14.336885 
  770000    305.78758    1.2509986    3478.3165            0            0            0            0   -6082.4525    44657.537 -0.067234084   -17.036218 -0.041707817    3478.3165    1445.6051    970.13107    903.45177    28.380642     18.84442    14.338208 0.00035836682 0.00035738062 0.00079271614 0.00079149067    305.78758     41.49527    35.978931    34.423473    90.016431    119.66323    90.107069    818.60494    215.02009    28.379839    18.849193    14.338703    28.380036    18.845433    14.338348 
  780000    300.59921    1.2509986     3426.347            0            0            0            0   -5982.7968    44657.537 -0.067234084   -17.036218 -0.041707817     3426.347    1452.7358    938.37377     883.9966    28.383086    18.846111    14.338036 0.00035664672 0.00035517963 0.00081177571 0.00081048675    300.59921     41.49527    35.978931    34.423473    90.016431    119.66323    90.107069    838.28696    213.98803    28.378435    18.848596    14.339452    28.380922    18.845329    14.337075 
  790000    296.97464    1.2509986    3400.4315            0            0            0            0   -7209.5708    44657.537 -0.067234084   -17.036218 -0.041707817    3400.4315    1407.0141    963.85685    878.91205    28.377214    18.845975    14.337147 0.00036276506  0.000362228 0.00082547553 0.00082425071    296.97464     41.49527    35.978931    34.423473    90.016431    119.66323    90.107069     852.4342    217.65904    28.378828     18.84894     14.33961    28.378844    18.845062    14.337607 
  800000    292.33119    1.2509986    3410.4551            0            0            0            0   -6928.0348    44657.537 -0.067234084   -17.036218 -0.041707817    3410.4551    1449.1089    921.87071    881.30931    28.378588    18.846078    14.336969 0.00038410298 0.00038350857 0.00081361707 0.00081249128    292.33119     41.49527    35.978931    34.423473    90.016431    119.66323    90.107069    840.18846    230.46179    28.379371    18.849269    14.340341    28.379288    18.844825    14.336609 
  810000    299.85376    1.2509986    3489.6953            0            0            0            0   -6932.8075    44657.537 -0.067234084   -17.036218 -0.041707817    3489.6953     1426.254    995.83281    910.00649    28.379157    18.844394    14.337429 0.00038044761 0.00037719485 0.00082689385 0.00082656242    299.85376     41.49527    35.978931    34.423473    90.016431    119.66323    90.107069    853.89884    228.26856    28.379189    18.848326    14.338011    28.379319     18.84527    14.337481 
  820000    303.62497    1.2509986    3509.5413            0            0            0            0   -5797.5067    44657.537 -0.067234084   -17.036218 -0.041707817    3509.5413    1496.8861    946.95236     909.4751    28.379725    18.846471     14.33753 0.00032371407 0.00032228068 0.00083138253 0.00083066012    303.62497     41.49527    35.978931    34.423473    90.016431    119.66323    90.107069    858.53412    194.22844    28.379145    18.850132    14.339749    28.380624    18.845641    14.337451 
  830000    301.96364    1.2509986    3429.3234            0            0            0            0   -7043.6342    44657.537 -0.067234084   -17.036218 -0.041707817    3429.3234    1421.8579    955.54012     896.0264    28.378743    18.845804    14.337828 0.00031530215 0.00031389694 0.0008136391 0.00081263546    301.96364     41.49527    35.978931    34.423473    90.016431    119.66323    90.107069    840.21121    189.18129    28.379293    18.848813    14.340776    28.380315    18.845292    14.338111 
  840000    305.05006    1.2509986    3456.7528            0            0            0            0   -5596.2015    44657.537 -0.067234084   -17.036218 -0.041707817    3456.7528    1439.9079    962.54317    895.68416    28.379283     18.84549    14.336755 0.00039376854 0.00039152401 0.00083451679 0.00083397515    305.05006     41.49527    35.978931    34.423473    90.016431    119.66323    90.107069    861.77073    236.26113    28.379897    18.847641    14.340135    28.380527    18.845643    14.337309 
  850000    300.80848    1.2509986    3523.8229            0            0            0            0   -7287.5623    44657.537 -0.067234084   -17.036218 -0.041707817    3523.8229    1469.9111    955.76704    932.13699    28.381644     18.84527    14.337382 0.00034875394 0.00034706135 0.00081408292 0.00081374552    300.80848     41.49527    35.978931    34.423473    90.016431    119.66323    90.107069    840.66952    209.25236     28.37999     18.84779    14.339733     28.38028     18.84544    14.336923 
  860000    305.72522    1.2509986    3530.0728            0            0            0            0   -5285.3735    44657.537 -0.067234084   -17.036218 -0.041707817    3530.0728    1491.9047    959.74722    919.40591    28.381216     18.84611    14.337967 0.00035946378 0.0003578359 0.00083712407 0.00083543623    305.72522     41.49527    35.978931    34.423473    90.016431    119.66323    90.107069    864.46316    215.67827    28.380212    18.849213    14.340714    28.380541    18.846534     14.33745 
  870000    303.14889    1.2509986    3504.5815            0            0            0            0   -5517.7648    44657.537 -0.067234084   -17.036218 -0.041707817    3504.5815    1471.5228    973.41668      906.523    28.377395    18.845837    14.336615 0.00036540074 0.00036393723 0.00077157552 0.00077050405    303.14889     41.49527    35.978931    34.423473    90.016431    119.66323    90.107069     796.7739    219.24044    28.380224     18.84809     14.33923      28.3789     18.84499    14.337343 
  880000    298.74889    1.2509986    3444.8453            0            0            0            0   -6592.4449    44657.537 -0.067234084   -17.036218 -0.041707817    3444.8453    1409.0165    982.64201     897.5377    28.378878    18.844584    14.337741 0.00035703985 0.00035640882 0.00083413767 0.0008323676    298.74889     41.49527    35.978931    34.423473    90.016431    119.66323    90.107069    861.37923    214.22391     28.37917    18.849116    14.340324     28.37861     18.84512     14.33771 
  890000    295.24231    1.2509986    3437.2706            0            0            0            0   -7197.5871    44657.537 -0.067234084   -17.036218 -0.041707817    3437.2706    1427.6257    986.71348    873.83512    28.380579    18.846055    14.337382 0.00036487815 0.00036054002 0.00082032986 0.00081965481    295.24231     41.49527    35.978931    34.423473    90.016431    119.66323    90.107069    847.12047    218.92689    28.378474    18.847234    14.339621    28.379308    18.845152    14.336701 
  900000    298.70809    1.2509986    3445.4766            0            0            0            0   -6722.7207    44657.537 -0.067234084   -17.036218 -0.041707817    3445.4766    1423.8117    970.16924    898.17833    28.381154    18.846881    14.337993 0.00038562176 0.00038538708 0.00078052574 0.00078030747    298.70809     41.49527    35.978931    34.423473    90.016431    119.66323    90.107069    806.01642    231.37305    28.379961    18.849125     14.33988    28.380269    18.845553     14.33721 
  910000    293.27908    1.2509986    3438.1497            0            0            0            0   -6096.1238    44657.537 -0.067234084   -17.036218 -0.041707817    3438.1497    1439.2922    942.40755    898.10682    28.381104    18.847305    14.337872 0.00033486355 0.00033465146 0.00080130671 0.00080029176    293.27908     41.49527    35.978931    34.423473    90.016431    119.66323    90.107069    827.47606    200.91813    28.379227    18.848696     14.33958    28.380146    18.846416    14.337139 
  920000    293.42111    1.2509986    3517.5348            0            0            0            0   -6294.5065    44657.537 -0.067234084   -17.036218 -0.041707817    3517.5348    1474.8398    971.02666    916.55897    28.378392    18.846078    14.336963 0.00037450301 0.00037408299 0.00078054826 0.00078011582    293.42111     41.49527    35.978931    34.423473    90.016431    119.66323    90.107069    806.03968    224.70181    28.379827    18.848424    14.339622     28.37993    18.845929    14.337724 
  930000    296.91069    1.2509986    3374.3697            0            0            0            0   -5369.7805    44657.537 -0.067234084   -17.036218 -0.041707817    3374.3697     1399.396    935.68976    885.36506    28.381369     18.84566    14.337167 0.00032355071 0.00032083483 0.00080590393 0.00080583641    296.91069     41.49527    35.978931    34.423473    90.016431    119.66323    90.107069    832.22342    194.13042    28.380696    18.849178    14.338459    28.379954    18.845272    14.337185 
  940000    297.03515    1.2509986    3454.7779            0            0            0            0   -5559.4387    44657.537 -0.067234084   -17.036218 -0.041707817    3454.7779    1468.6622    930.19293    901.23376    28.379872    18.845432    14.337445 0.00035738937 0.00035513274 0.0008133978 0.00081288697    297.03515     41.49527    35.978931    34.423473    90.016431    119.66323    90.107069    839.96203    214.43362    28.380943    18.849249    14.340166    28.379994    18.844917    14.336856 
  950000    301.38133    1.2509986     3519.251            0            0            0            0   -7132.5695    44657.537 -0.067234084   -17.036218 -0.041707817     3519.251     1488.663    966.91646    908.07813    28.379984    18.846577    14.337374 0.00034833528 0.00034258757 0.00084466205   0.00084398    301.38133     41.49527    35.978931    34.423473    90.016431    119.66323    90.107069    872.24732    209.00117    28.381541     18.85033    14.339909    28.380258    18.846162    14.337162 
  960000    292.72494    1.2509986    3463.0539            0            0            0            0   -6433.7657    44657.537 -0.067234084   -17.036218 -0.041707817    3463.0539    1463.1969    922.79818    919.05601    28.379289    18.845312     14.33678 0.00035455469 0.00035449326 0.00082197666 0.00082118316    292.72494     41.49527    35.978931    34.423473    90.016431    119.66323    90.107069    848.82106    212.73281    28.379653    18.849122    14.339438     28.37916    18.844925    14.337006 
  970000    299.53541    1.2509986    3598.8124            0            0            0            0   -6501.6359    44657.537 -0.067234084   -17.036218 -0.041707817    3598.8124    1484.3586    1001.8906    951.51138    28.381183    18.845728    14.336763 0.00035562783 0.0003551415 0.00077640194 0.00077481445    299.53541     41.49527    35.978931    34.423473    90.016431    119.66323    90.107069    801.75795     213.3767    28.379487    18.849426    14.340196    28.380515     18.84474     14.33652 
  980000    293.29656    1.2509986    3470.6899            0            0            0            0   -6690.0525    44657.537 -0.067234084   -17.036218 -0.041707817    3470.6899    1461.6153    965.30436    890.82543    28.381262    18.844959    14.337907 0.00037932432 0.0003775533 0.00083406238 0.00083322116    293.29656     41.49527    35.978931    34.423473    90.016431    119.66323    90.107069    861.30148    227.59459    28.378545    18.848148    14.339612    28.380099    18.844753    14.336777 
  990000    290.27728    1.2509986    3520.3968            0            0            0            0   -5990.9037    44657.537 -0.067234084   -17.036218 -0.041707817    3520.3968    1472.5482    938.07501    944.26148     28.37981     18.84612    14.338068 0.00035057538 0.00035005979 0.00082072529 0.00081962783    290.27728     41.49527    35.978931    34.423473    90.016431    119.66323    90.107069    847.52882    210.34523    28.379723    18.848874    14.340323    28.380409    18.844942    14.337941 
 1000000    297.43167    1.2509986    3450.6839            0            0            0            0   -6378.6346    44657.537 -0.067234084   -17.036218 -0.041707817    3450.6839    1447.5914    953.55032    897.71832    28.378756    18.845833    14.337829 0.00035211368 0.00034944345 0.00077847387 0.00077822895    297.43167     41.49527    35.978931    34.423473    90.016431    119.66323    90.107069    803.89754    211.26821    28.380409    18.847714    14.340145    28.379839    18.845631    14.337733 
 1010000    300.72999    1.2509986    3465.6395            0            0            0            0   -7248.9223    44657.537 -0.067234084   -17.036218 -0.041707817    3465.6395    1469.2597    913.88322    923.20032    28.380491    18.845257     14.33801 0.00034108833 0.00034033514 0.00081593213 0.00081567148    300.72999     41.49527    35.978931    34.423473    90.016431    119.66323    90.107069    842.57912      204.653    28.380072    18.849701    14.339521     28.38004    18.845334    14.337699 
 1020000    297.29799    1.2509986    3441.1599            0            0            0            0   -4556.6146    44657.537 -0.067234084   -17.036218 -0.041707817    3441.1599    1422.3839    947.03434     909.9953    28.381762    18.847035    14.337827 0.00035082321 0.00035032172 0.00080553616 0.00080521124    297.29799     41.49527    35.978931    34.423473    90.016431    119.66323    90.107069    831.84364    210.49393    28.379991     18.84951    14.339893    28.379831    18.845952    14.336955 
 1030000    299.84158    1.2509986    3469.7689            0            0            0            0   -6084.8899    44657.537 -0.067234084   -17.036218 -0.041707817    3469.7689    1491.6756    931.39287    885.15021    28.378325    18.846313    14.337942 0.00032339695 0.00032220184 0.00079335499 0.00079232356    299.84158     41.49527    35.978931    34.423473    90.016431    119.66323    90.107069    819.26466    194.03817    28.379182    18.849709    14.340394    28.379395    18.846379     14.33746 
 1040000    300.04895    1.2509986    3503.1258            0            0            0            0   -6230.6366    44657.537 -0.067234084   -17.036218 -0.041707817    3503.1258    1472.7716    940.79429    933.18776    28.378742    18.846251    14.337299 0.00031021937 0.00030936735 0.00081901097 0.00081863866    300.04895     41.49527    35.978931    34.423473    90.016431    119.66323    90.107069    845.75851    186.13162    28.379466    18.849672    14.340278    28.379206    18.845536    14.337302 
 1050000    299.56855    1.2509986    3379.8365            0            0            0            0   -6609.5348    44657.537 -0.067234084   -17.036218 -0.041707817    3379.8365     1413.678    924.36456    887.95009    28.381126    18.846641    14.338218 0.00034669386 0.00034556268 0.00079271632 0.0007923318    299.56855     41.49527    35.978931    34.423473    90.016431    119.66323    90.107069    818.60512    208.01631    28.380303    18.849177    14.338899    28.380067    18.845514    14.337828 
 1060000    297.40052    1.2509986     3430.117            0            0            0            0   -6431.7542    44657.537 -0.067234084   -17.036218 -0.041707817     3430.117    1431.3948    973.64919    877.24483    28.379543    18.845203    14.337474 0.00036573008 0.00036400831 0.00081760665 0.00081739503    297.40052     41.49527    35.978931    34.423473    90.016431    119.66323    90.107069    844.30833    219.43805    28.379525    18.848288    14.340731    28.380117    18.845456    14.337608 
 1070000     291.7952    1.2509986    3508.0732            0            0            0            0   -5382.6206    44657.537 -0.067234084   -17.036218 -0.041707817    3508.0732    1463.9708    978.74148    909.18132    28.380117    18.847082    14.337838 0.00037462982 0.00037411488 0.00075294978 0.00075251772     291.7952     41.49527    35.978931    34.423473    90.016431    119.66323    90.107069    777.53988    224.77789    28.379738     18.84832    14.339679    28.380102     18.84495    14.337535 
 1080000    300.58071    1.2509986    3528.2948            0            0            0            0    -8560.864    44657.537 -0.067234084   -17.036218 -0.041707817    3528.2948    1467.3883    983.03618    918.95326    28.380636    18.845335    14.337063 0.00035503101 0.00035280536 0.00081623084 0.00081564713    300.58071     41.49527    35.978931    34.423473    90.016431    119.66323    90.107069    842.88759    213.01861    28.380651    18.848468    14.338783    28.379891    18.845573    14.336511 
 1090000     294.8345    1.2509986     3467.721            0            0            0            0   -6082.8525    44657.537 -0.067234084   -17.036218 -0.041707817     3467.721    1456.9217    955.63904    901.81575    28.378872    18.846696    14.336638 0.00035153851 0.0003494224 0.00083588053 0.00083461858     294.8345     41.49527    35.978931    34.423473    90.016431    119.66323    90.107069    863.17901    210.92311    28.378836     18.84982     14.34061    28.379655    18.846527    14.336904 
 1100000    302.06293    1.2509986    3538.3268            0            0            0            0   -5927.1641    44657.537 -0.067234084   -17.036218 -0.041707817    3538.3268      1469.69      969.311    937.58952    28.380863    18.845974    14.338241 0.00033493876 0.00033125228 0.00084175856 0.00084137974    302.06293     41.49527    35.978931    34.423473    90.016431    119.66323    90.107069      869.249    200.96326     28.38005    18.848725    14.341471    28.380167    18.845808    14.337641 
 1110000     300.4608    1.2509986    3478.1596            0            0            0            0   -5835.7968    44657.537 -0.067234084   -17.036218 -0.041707817    3478.1596    1490.9745    938.45276    897.01942    28.381425    18.846289    14.337849 0.00035251985 0.00035147812 0.00077388193 0.0007737976     300.4608     41.49527    35.978931    34.423473    90.016431    119.66323    90.107069    799.15564    211.51191    28.378937    18.849411    14.338932    28.379753    18.845289    14.337048 
 1120000     293.9698    1.2509986    3413.6706            0            0            0            0   -6101.8483    44657.537 -0.067234084   -17.036218 -0.041707817    3413.6706    1445.0364    954.95891    862.43365    28.378226     18.84529    14.337083 0.00032072943 0.0003201751 0.0008235201 0.00082326205     293.9698     41.49527    35.978931    34.423473    90.016431    119.66323    90.107069    850.41491    192.43766    28.380182    18.848855    14.339266    28.379358    18.845364    14.337464 
 1130000    283.65529    1.2509986    3397.3733            0            0            0            0    -6843.308    44657.537 -0.067234084   -17.036218 -0.041707817    3397.3733    1421.9624    957.22719    871.28844    28.379184    18.843673    14.336934 0.00033730507 0.00033572486 0.00081851469 0.00081842377    283.65529     41.49527    35.978931    34.423473    90.016431    119.66323    90.107069    845.24603    202.38304    28.379927    18.848997    14.340839    28.379819    18.845189    14.337362 
 1140000    291.92498    1.2509986    3506.7753            0            0            0            0   -6868.3973    44657.537 -0.067234084   -17.036218 -0.041707817    3506.7753    1436.7009    960.51655    943.49605    28.378389    18.846237    14.336768 0.00036751557 0.0003659761 0.0008422049 0.00084044183    291.92498     41.49527    35.978931    34.423473    90.016431    119.66323    90.107069    869.70992    220.50934    28.379056    18.848455    14.338649    28.379519    18.846759    14.337097 
 1150000    301.96311    1.2509986    3526.3762            0            0            0            0   -8268.2017    44657.537 -0.067234084   -17.036218 -0.041707817    3526.3762    1466.5224    980.40627    922.17578    28.378619    18.846232    14.337027 0.0003584885 0.00035577143 0.00081036319 0.00080989772    301.96311     41.49527    35.978931    34.423473    90.016431    119.66323    90.107069    836.82831     215.0931    28.380667      18.8478    14.339752    28.379851    18.846154    14.337307 
 1160000    295.24859    1.2509986    3380.1196            0            0            0            0   -6808.5091    44657.537 -0.067234084   -17.036218 -0.041707817    3380.1196    1422.3318    951.38862    861.27618    28.379509    18.845666    14.337492 0.00036623219 0.00036506037 0.00081247874  0.000812444    295.24859     41.49527    35.978931    34.423473    90.016431    119.66323    90.107069    839.01296    219.73931    28.379706     18.84907    14.338567    28.379955    18.845561    14.337347 
 1170000    297.11039    1.2509986    3384.5045            0            0            0            0   -5850.7257    44657.537 -0.067234084   -17.036218 -0.041707817    3384.5045    1410.0863    965.66391    856.81869     28.38087    18.846437    14.337052 0.00032424684 0.00032353429 0.00079019094 0.00078973215    297.11039     41.49527    35.978931    34.423473    90.016431    119.66323    90.107069    815.99727    194.54811    28.379636    18.848283    14.339222    28.380319    18.845454    14.336816 
 1180000    300.55969    1.2509986    3433.6254            0            0            0            0   -6215.2455    44657.537 -0.067234084   -17.036218 -0.041707817    3433.6254    1428.2812    924.44206    925.88034    28.381213    18.844909    14.338082 0.00036253895 0.00035964587 0.00079475857 0.00079345366    300.55969     41.49527    35.978931    34.423473    90.016431    119.66323    90.107069    820.71408    217.52337    28.378481    18.848107    14.340595    28.379612     18.84442    14.336872 
 1190000    301.27383    1.2509986     3425.692            0            0            0            0   -6686.8205    44657.537 -0.067234084   -17.036218 -0.041707817     3425.692    1476.7455    916.01833    883.08543    28.380255    18.845144    14.337716 0.00037720888 0.00037311917 0.00080096005 0.00080041669    301.27383     41.49527    35.978931    34.423473    90.016431    119.66323    90.107069    827.11808    226.32533    28.378265    18.847458    14.339598    28.379906     18.84475    14.337162 
 1200000    295.21407    1.2509986    3511.2321            0            0            0            0   -6772.5274    44657.537 -0.067234084   -17.036218 -0.041707817    3511.2321     1477.243    982.52424    901.04979    28.379775    18.846471    14.336802 0.0003544279 0.00035320494 0.00080224305 0.00080093894    295.21407     41.49527    35.978931    34.423473    90.016431    119.66323    90.107069    828.44298    212.65674    28.379809    18.847942    14.339754    28.380171    18.845825    14.336239 
 1210000    296.18953    1.2509986    3462.1885            0            0            0            0   -5833.8412    44657.537 -0.067234084   -17.036218 -0.041707817    3462.1885    1435.7586    961.41885    904.23083    28.380969    18.846936    14.337734 0.00034064259 0.00034030434 0.00082470055 0.00082369038    296.18953     41.49527    35.978931    34.423473    90.016431    119.66323    90.107069    851.63391    204.38555    28.379253     18.84857    14.339415    28.379636    18.846418    14.337561 
 1220000    294.97926    1.2509986     3518.801            0            0            0            0   -6100.8135    44657.537 -0.067234084   -17.036218 -0.041707817     3518.801    1463.0813    989.68749    911.26874    28.377923    18.845701    14.337553 0.00034890176 0.00034773903 0.00083551789 0.0008336825    294.97926     41.49527    35.978931    34.423473    90.016431    119.66323    90.107069    862.80452    209.34105    28.379154    18.848187    14.339073     28.38044    18.844531    14.338008 
 1230000    296.02141    1.2509986    3452.7181            0            0            0            0   -7002.3902    44657.537 -0.067234084   -17.036218 -0.041707817    3452.7181    1464.9856    923.70655    905.67025    28.379657    18.846797    14.337033 0.00034296505 0.00034288882 0.00078792421 0.0007860341    296.02141     41.49527    35.978931    34.423473    90.016431    119.66323    90.107069    813.65651    205.77903    28.379701    18.849215    14.339517    28.381111    18.845624    14.336839 
 1240000    302.58463    1.2509986    3478.5915            0            0            0            0   -6336.4791    44657.537 -0.067234084   -17.036218 -0.041707817    3478.5915    1455.8812    925.66571    936.81536    28.378144    18.845688    14.337662 0.00035950322 0.00035922865 0.00082299512 0.00082238137    302.58463     41.49527    35.978931    34.423473    90.016431    119.66323    90.107069    849.87278    215.70193     28.37997    18.849108    14.339945    28.379286    18.844971    14.337552 
 1250000    300.71078    1.2509986    3443.4893            0            0            0            0   -6903.8212    44657.537 -0.067234084   -17.036218 -0.041707817    3443.4893    1471.4594    935.61152     886.9359    28.380526    18.846013    14.337916 0.00033361698 0.00033273962 0.0008248349 0.00082457652    300.71078     41.49527    35.978931    34.423473    90.016431    119.66323    90.107069    851.77265    200.17019    28.379134    18.849339    14.340408     28.37957    18.845638     14.33768 
 1260000    297.27343    1.2509986    3457.4682            0            0            0            0   -6221.9781    44657.537 -0.067234084   -17.036218 -0.041707817    3457.4682    1434.8203     964.5216    907.27821    28.380365    18.846382    14.337526 0.00036168636 0.00036094894 0.00078340053 0.00078291266    297.27343     41.49527    35.978931    34.423473    90.016431    119.66323    90.107069     808.9851    217.01182    28.379348    18.848257    14.339287    28.379742    18.846156    14.337131 
 1270000    305.63282    1.2509986    3444.9774            0            0            0            0   -7872.7067    44657.537 -0.067234084   -17.036218 -0.041707817    3444.9774    1431.4423    956.03378    900.59883    28.380063    18.844127    14.336012 0.00037137043 0.00037111239 0.00080806079 0.00080619304    305.63282     41.49527    35.978931    34.423473    90.016431    119.66323    90.107069    834.45072    222.82226    28.379535    18.849285    14.340066    28.379803    18.844901    14.336024 
 1280000     292.8949    1.2509986    3473.0732            0            0            0            0   -6265.3764    44657.537 -0.067234084   -17.036218 -0.041707817    3473.0732    1459.6676    947.51743    906.76911     28.38043     18.84511    14.336704 0.0003571145 0.00035685531 0.00084050771 0.00083890866     292.8949     41.49527    35.978931    34.423473    90.016431    119.66323    90.107069     867.9573     214.2687    28.380023    18.849096    14.339453    28.379949    18.846167    14.336215 
 1290000    295.81504    1.2509986    3474.7559            0            0            0            0   -6072.1259    44657.537 -0.067234084   -17.036218 -0.041707817    3474.7559     1500.858    922.39466    891.04782    28.380807    18.845957    14.338098 0.00036627887 0.00036595107 0.0007868758 0.00078581064    295.81504     41.49527    35.978931    34.423473    90.016431    119.66323    90.107069    812.57386    219.76732    28.379592    18.848961    14.340207    28.379449    18.846343    14.337687 
 1300000    292.62578    1.2509986    3475.6158            0            0            0            0   -7044.9767    44657.537 -0.067234084   -17.036218 -0.041707817    3475.6158    1470.5885    927.57467    915.06633    28.378718     18.84485    14.337305 0.00036743921 0.00036698248 0.00076903765 0.00076867217    292.62578     41.49527    35.978931    34.423473    90.016431    119.66323    90.107069    794.15315    220.46352     28.37946    18.848359    14.339776    28.379379    18.845857    14.337441 
 1310000    298.67512    1.2509986     3473.042            0            0            0            0   -6722.8665    44657.537 -0.067234084   -17.036218 -0.041707817     3473.042    1499.9506    914.91165    902.98467    28.376893     18.84564    14.337058 0.00036444733 0.00036440316 0.0007671416 0.00076656692    298.67512     41.49527    35.978931    34.423473    90.016431    119.66323    90.107069    792.19518     218.6684     28.37945    18.849194    14.339649    28.379771    18.844725    14.337159 
 1320000    295.37106    1.2509986    3504.6083            0            0            0            0   -6256.4834    44657.537 -0.067234084   -17.036218 -0.041707817    3504.6083    1465.6617     975.1523    906.92867    28.380433    18.846333    14.337596 0.00035573983 0.00035287367 0.00083387517 0.00083348526    295.37106     41.49527    35.978931    34.423473    90.016431    119.66323    90.107069    861.10815     213.4439     28.38071    18.848069    14.340442    28.379719    18.845405    14.337878 
 1330000    300.34174    1.2509986    3504.1996            0            0            0            0   -6195.1658    44657.537 -0.067234084   -17.036218 -0.041707817    3504.1996    1486.6355    944.61366    912.54261    28.379482    18.846377     14.33733 0.00036231794 0.00036119299 0.00084141001 0.00084065346    300.34174     41.49527    35.978931    34.423473    90.016431    119.66323    90.107069    868.88907    217.39076    28.380606    18.849128    14.339541     28.37926    18.844896    14.337608 
 1340000    302.90604    1.2509986    3502.4049            0            0            0            0   -5983.0535    44657.537 -0.067234084   -17.036218 -0.041707817    3502.4049    1487.5502     963.0963    901.30045    28.378898    18.844534    14.337347 0.00034936106 0.00034882165 0.00078182055 0.00077998908    302.90604     41.49527    35.978931    34.423473    90.016431    119.66323    90.107069    807.35352    209.61663    28.380178    18.848631    14.339549    28.379155    18.844294    14.337188 
 1350000    300.62153    1.2509986     3472.695            0            0            0            0   -6518.9624    44657.537 -0.067234084   -17.036218 -0.041707817     3472.695    1464.9933    971.02081    880.25917    28.376932    18.845757    14.336985 0.00033255348 0.00032912215 0.00081136229 0.00081015506    300.62153     41.49527    35.978931    34.423473    90.016431    119.66323    90.107069    837.86004    199.53209    28.379829    18.847295    14.339001    28.380271    18.845108    14.338193 
 1360000    299.37425    1.2509986     3420.991            0            0            0            0   -7586.3207    44657.537 -0.067234084   -17.036218 -0.041707817     3420.991    1453.6727      929.554    884.90089     28.38098    18.846405    14.337512 0.00035314501 0.00035204706 0.00081336235 0.00081279938    299.37425     41.49527    35.978931    34.423473    90.016431    119.66323    90.107069    839.92542    211.88701     28.38007    18.848144    14.339921    28.379751    18.845445    14.336517 
 1370000     298.4646    1.2509986    3365.3022            0            0            0            0   -5678.4008    44657.537 -0.067234084   -17.036218 -0.041707817    3365.3022    1384.2443    976.58128    860.63248    28.379361     18.84673     14.33698 0.00036073784 0.00035896449 0.0008331588 0.00083284217     298.4646     41.49527    35.978931    34.423473    90.016431    119.66323    90.107069    860.36839     216.4427    28.379149    18.850277    14.339543    28.380336    18.845446    14.337062 
 1380000    300.30133    1.2509986    3500.6199            0            0            0            0   -6543.2554    44657.537 -0.067234084   -17.036218 -0.041707817    3500.6199    1469.3514    961.68571    904.26651    28.380753    18.847492    14.337606 0.00038328926 0.00038193108 0.00081532311 0.0008140652    300.30133     41.49527    35.978931    34.423473    90.016431    119.66323    90.107069    841.95022    229.97356    28.380177    18.848762    14.340592    28.379363    18.846501    14.337315 
 1390000    304.10028    1.2509986    3494.2189            0            0            0            0   -5352.5249    44657.537 -0.067234084   -17.036218 -0.041707817    3494.2189     1473.608    951.15867    909.09514     28.37924     18.84468    14.336675 0.00033382858 0.00033320079 0.00080389992 0.00080283382    304.10028     41.49527    35.978931    34.423473    90.016431    119.66323    90.107069    830.15396    200.29715    28.379019    18.849182    14.339081    28.379613    18.844462    14.337239 
 1400000     298.8893    1.2509986    3470.3763            0            0            0            0   -6926.2342    44657.537 -0.067234084   -17.036218 -0.041707817    3470.3763    1441.2823    952.71244    919.11039    28.382165    18.844858    14.338287 0.00034987125 0.00034815819 0.00083010977 0.00082812996     298.8893     41.49527    35.978931    34.423473    90.016431    119.66323    90.107069    857.21978    209.92275    28.380536    18.848162    14.339811    28.380867    18.844569    14.337482 
 1410000    298.29022    1.2509986    3506.6596            0            0            0            0   -6018.6298    44657.537 -0.067234084   -17.036218 -0.041707817    3506.6596     1499.739    954.33239    897.53095    28.379464     18.84427    14.337713 0.00034425904 0.00034276502 0.00083362161 0.00083286391    298.29022     41.49527    35.978931    34.423473    90.016431    119.66323    90.107069    860.84632    206.55542    28.379483    18.849316     14.34082    28.380594    18.845855    14.337286 
 1420000    297.79261    1.2509986     3402.772            0            0            0            0   -7212.7758    44657.537 -0.067234084   -17.036218 -0.041707817     3402.772    1429.6281    950.53284    871.91602    28.379926    18.846249    14.337308 0.00037551089 0.00037475411 0.00078124011 0.00078103622    297.79261     41.49527    35.978931    34.423473    90.016431    119.66323    90.107069    806.75412    225.30653    28.380329    18.849389    14.339503    28.379916    18.845217    14.336908 
 1430000    296.77313    1.2509986    3501.1889            0            0            0            0   -7218.9802    44657.537 -0.067234084   -17.036218 -0.041707817    3501.1889    1471.6862    971.64455    898.49972    28.380357    18.845264    14.338267 0.00037742917 0.00037693203 0.00084462319 0.00084386889    296.77313     41.49527    35.978931    34.423473    90.016431    119.66323    90.107069    872.20719     226.4575    28.379678      18.8491    14.340327     28.37899    18.845512    14.337541 
 1440000    301.75713    1.2509986    3455.2729            0            0            0            0   -5716.3365    44657.537 -0.067234084   -17.036218 -0.041707817    3455.2729    1502.2956     946.1031    859.16676    28.381317    18.846205    14.337604 0.00036051203 0.00035968433 0.00082065142 0.00082043968    301.75713     41.49527    35.978931    34.423473    90.016431    119.66323    90.107069    847.45254    216.30722    28.379691    18.849551    14.338917    28.380071    18.845309    14.336922 
 1450000    305.02306    1.2509986    3436.3586            0            0            0            0   -7266.8292    44657.537 -0.067234084   -17.036218 -0.041707817    3436.3586    1462.1824    953.26866    871.16483    28.378954    18.844734    14.336615 0.00032643818 0.00032358739 0.00081199713 0.00081123266    305.02306     41.49527    35.978931    34.423473    90.016431    119.66323    90.107069    838.51562    195.86291    28.379317     18.84735    14.339804    28.380042     18.84468    14.336981 
 1460000    303.71214    1.2509986    3453.4245            0            0            0            0   -6423.5036    44657.537 -0.067234084   -17.036218 -0.041707817    3453.4245    1453.1549    933.27948    906.67724    28.378017    18.846158    14.336875 0.00030917376 0.0003088945 0.00081319614 0.00081219169    303.71214     41.49527    35.978931    34.423473    90.016431    119.66323    90.107069    839.75378    185.50425    28.379512    18.848763    14.340102     28.37883    18.845417    14.337073 
 1470000    292.13381    1.2509986    3488.5304            0            0            0            0   -7461.2773    44657.537 -0.067234084   -17.036218 -0.041707817    3488.5304    1474.3143    916.85045    933.81967    28.379645    18.845027    14.336832  0.000345124 0.00034379107 0.00084426629 0.00084416625    292.13381     41.49527    35.978931    34.423473    90.016431    119.66323    90.107069    871.83863     207.0744    28.379654    18.849277    14.338518    28.379605    18.845238    14.337304 
 1480000    301.23416    1.2509986    3515.0412            0            0            0            0   -4635.1551    44657.537 -0.067234084   -17.036218 -0.041707817    3515.0412    1446.8415    994.35199    913.81146    28.379435    18.846109    14.336734 0.00035828119 0.00035723148 0.0007818471 0.00078172004    301.23416     41.49527    35.978931    34.423473    90.016431    119.66323    90.107069    807.38094    214.96871    28.379338     18.84805    14.339366    28.380023    18.845624    14.337018 
 1490000    299.34932    1.2509986    3389.6065            0            0            0            0   -6554.5589    44657.537 -0.067234084   -17.036218 -0.041707817    3389.6065    1426.1673    936.58926    873.63306    28.380631    18.844708    14.337988 0.00036405671 0.00036364127 0.00079570823 0.00079536816    299.34932     41.49527    35.978931    34.423473    90.016431    119.66323    90.107069    821.69474    218.43403    28.379795    18.849432    14.340066    28.380174    18.845889    14.337456 
 1500000    297.09404    1.2509986    3377.6395            0            0            0            0   -7778.9675    44657.537 -0.067234084   -17.036218 -0.041707817    3377.6395    1437.1003    918.07517    874.24146    28.377179    18.846141    14.337292 0.0003568237 0.00035656394 0.00083166323 0.0008313018    297.09404     41.49527    35.978931    34.423473    90.016431    119.66323    90.107069    858.82398    214.09422    28.380026    18.848973    14.339443    28.379338    18.845648    14.337591 
 1510000    296.35153    1.2509986     3483.883            0            0            0            0   -5441.7617    44657.537 -0.067234084   -17.036218 -0.041707817     3483.883         1466    956.74365    905.37199    28.378437    18.846507    14.337111 0.00034532251 0.00034477079 0.00081022473 0.00081009659    296.35153     41.49527    35.978931    34.423473    90.016431    119.66323    90.107069    836.68534     207.1935    28.379896    18.848724    14.339044    28.379827    18.845798    14.337113 
 1520000    296.99316    1.2509986    3413.8832            0            0            0            0   -5078.1779    44657.537 -0.067234084   -17.036218 -0.041707817    3413.8832    1395.1265    960.46291    903.06356    28.381128    18.844938    14.338253 0.00034774447 0.00034763397 0.00086176819 0.00086056513    296.99316     41.49527    35.978931    34.423473    90.016431    119.66323    90.107069    889.91212    208.64668    28.379625    18.848797    14.339882    28.379038    18.846181    14.337588 
[...]
 1630000    295.71504    1.2509986    3511.8252            0            0            0            0   -6242.2122    44657.537 -0.067234084   -17.036218 -0.041707817    3511.8252    1495.7998    976.31088    887.73405     28.37825    18.845888    14.337477 0.00035761926 0.00035521268 0.0007772594 0.0007762387    295.71504     41.49527    35.978931    34.423473    90.016431    119.66323    90.107069    802.64341    214.57156    28.379984    18.847728    14.340394    28.378886    18.845183    14.336985 
 1640000    297.57471    1.2509986    3501.2968            0            0            0            0    -6385.317    44657.537 -0.067234084   -17.036218 -0.041707817    3501.2968    1456.6388    972.43651    912.74691     28.38056    18.846107     14.33778 0.00036224501 0.00035777555 0.00080420693 0.00080359103    297.57471     41.49527    35.978931    34.423473    90.016431    119.66323    90.107069      830.471    217.34701    28.378871    18.850905    14.340286    28.379295    18.845337     14.33669 
 1650000    295.82101    1.2509986    3500.8039            0            0            0            0   -5554.7826    44657.537 -0.067234084   -17.036218 -0.041707817    3500.8039    1488.2433     967.1157     895.1871    28.380975    18.844019    14.337531 0.00036353178 0.00036296465 0.00078795708 0.00078707506    295.82101     41.49527    35.978931    34.423473    90.016431    119.66323    90.107069    813.69046    218.11907    28.379429    18.848436    14.339171    28.379629    18.844791    14.336647 
 1660000    298.56336    1.2509986    3481.7462            0            0            0            0   -6376.9939    44657.537 -0.067234084   -17.036218 -0.041707817    3481.7462    1476.7529    946.36423    900.99854    28.379219    18.844667    14.337577 0.00034702966 0.00034589131 0.00084163035 0.00084139142    298.56336     41.49527    35.978931    34.423473    90.016431    119.66323    90.107069    869.11661     208.2178    28.380199    18.848166    14.339726     28.38026    18.845298     14.33735 
 1670000    299.53099    1.2509986    3536.9612            0            0            0            0    -7237.587    44657.537 -0.067234084   -17.036218 -0.041707817    3536.9612    1494.1927     979.1975    906.70804    28.378338    18.846146    14.337086 0.00036563137 0.00036512092 0.00081065949 0.00081018293    299.53099     41.49527    35.978931    34.423473    90.016431    119.66323    90.107069    837.13429    219.37882    28.379159     18.84842     14.33967    28.379558    18.846104    14.337138 
 1680000    299.09502    1.2509986    3459.7511            0            0            0            0   -5748.2505    44657.537 -0.067234084   -17.036218 -0.041707817    3459.7511    1447.4733    964.96973     896.2026    28.378588    18.844912    14.337818 0.00035831817 0.00035656263 0.00086738318 0.00086646167    299.09502     41.49527    35.978931    34.423473    90.016431    119.66323    90.107069    895.71049     214.9909    28.380477    18.848285    14.339023    28.379493    18.845855    14.338086 
 1690000    301.36544    1.2509986    3385.9429            0            0            0            0    -6249.207    44657.537 -0.067234084   -17.036218 -0.041707817    3385.9429    1440.7471    937.97576    855.34571    28.379046    18.846652    14.336383 0.00034871979 0.00034667193 0.00077306281 0.00077163191    301.36544     41.49527    35.978931    34.423473    90.016431    119.66323    90.107069    798.30976    209.23187    28.379426    18.847589    14.339697     28.38037    18.845794    14.336256 
 1700000    299.19271    1.2509986    3440.8927            0            0            0            0   -5767.2575    44657.537 -0.067234084   -17.036218 -0.041707817    3440.8927    1464.5233    955.81857    871.84476    28.378692    18.847792      14.3376 0.00035332801 0.00035309612 0.00079422157 0.00079283586    299.19271     41.49527    35.978931    34.423473    90.016431    119.66323    90.107069    820.15954    211.99681     28.37973    18.849462    14.339629    28.380336    18.846514     14.33744 
 1710000    298.86525    1.2509986    3447.1237            0            0            0            0   -5755.5936    44657.537 -0.067234084   -17.036218 -0.041707817    3447.1237    1433.1697    967.94784    889.31096    28.377989    18.845916    14.337061 0.00035704431 0.00035477122 0.00081190445 0.00081136457    298.86525     41.49527    35.978931    34.423473    90.016431    119.66323    90.107069    838.41991    214.22659     28.37971    18.847518    14.339521    28.379453    18.845702    14.336665 
 1720000     298.9205    1.2509986    3431.9556            0            0            0            0   -7865.0152    44657.537 -0.067234084   -17.036218 -0.041707817    3431.9556    1453.2981    910.92468    910.40471     28.37948    18.846155    14.337128 0.00034298055 0.00034217335 0.00080003182 0.00079958341     298.9205     41.49527    35.978931    34.423473    90.016431    119.66323    90.107069    826.15954    205.78833    28.380155    18.849683    14.339627    28.380034    18.845129    14.336735 
 1730000    302.42402    1.2509986    3564.0526            0            0            0            0    -7140.842    44657.537 -0.067234084   -17.036218 -0.041707817    3564.0526    1538.7788    945.31262    919.96394    28.381987    18.845462    14.337054 0.00035859536 0.0003550081 0.0008192915 0.00081641461    302.42402     41.49527    35.978931    34.423473    90.016431    119.66323    90.107069    846.04821    215.15722    28.378253    18.848968    14.338265    28.381479    18.845783    14.337207 
 1740000     297.2701    1.2509986    3537.0529            0            0            0            0   -8133.2778    44657.537 -0.067234084   -17.036218 -0.041707817    3537.0529    1499.2934    938.40913    934.52453    28.380905    18.844811    14.338465 0.00035243609 0.00035065999 0.00080460904 0.00080404631     297.2701     41.49527    35.978931    34.423473    90.016431    119.66323    90.107069    830.88624    211.46165    28.380702    18.848602    14.340182    28.379174    18.845753    14.336986 
 1750000    301.93013    1.2509986    3435.5023            0            0            0            0   -4933.3803    44657.537 -0.067234084   -17.036218 -0.041707817    3435.5023    1422.3477    953.28574    904.62502    28.380044    18.844128    14.337186 0.00036469012 0.00036218069 0.00082582926 0.00082577107    301.93013     41.49527    35.978931    34.423473    90.016431    119.66323    90.107069    852.79948    218.81407     28.37922    18.847539    14.339166    28.379855    18.845485    14.337027 
 1760000     297.5941    1.2509986    3529.3823            0            0            0            0   -6736.1185    44657.537 -0.067234084   -17.036218 -0.041707817    3529.3823    1486.7574    942.93281    936.14713    28.378937    18.845107    14.337358 0.00033464826 0.00033280857 0.00082226889 0.00082199541     297.5941     41.49527    35.978931    34.423473    90.016431    119.66323    90.107069    849.12283    200.78896     28.37859    18.849915    14.339939    28.379537    18.845674    14.337662 
 1770000    301.41038    1.2509986    3485.7161            0            0            0            0   -6659.6502    44657.537 -0.067234084   -17.036218 -0.041707817    3485.7161    1455.9794    959.79072    910.22069     28.37942    18.845489     14.33683 0.0003650689 0.00036289641 0.00081199293 0.00081160529    301.41038     41.49527    35.978931    34.423473    90.016431    119.66323    90.107069    838.51127    219.04134    28.379745    18.850473    14.339569    28.380025    18.845233    14.336731 
 1780000    293.21704    1.2509986    3502.5597            0            0            0            0   -5139.0219    44657.537 -0.067234084   -17.036218 -0.041707817    3502.5597    1497.5579    975.57414    878.80825    28.381499    18.844823     14.33812 0.00034467502 0.0003435767 0.0008019898 0.00080143785    293.21704     41.49527    35.978931    34.423473    90.016431    119.66323    90.107069    828.18147    206.80501    28.380174    18.848299    14.340094     28.38019    18.846105    14.337368 
 1790000    302.91064    1.2509986    3459.8634            0            0            0            0   -7903.9512    44657.537 -0.067234084   -17.036218 -0.041707817    3459.8634    1476.1438    939.94435    890.19497    28.379459    18.846617    14.337355 0.00032923193 0.00032885354 0.00083670663 0.00083630105    302.91064     41.49527    35.978931    34.423473    90.016431    119.66323    90.107069    864.03209    197.53916    28.380125    18.848868    14.339824    28.379507    18.845245    14.337774 
 1800000    301.96514    1.2509986    3515.8437            0            0            0            0   -4879.1549    44657.537 -0.067234084   -17.036218 -0.041707817    3515.8437    1468.3428    996.81619    896.52045    28.380001    18.845615    14.337116 0.0003235695 0.00032127708 0.00080256029 0.00080139269    301.96514     41.49527    35.978931    34.423473    90.016431    119.66323    90.107069    828.77058     194.1417    28.380321    18.850139    14.338975     28.38051    18.846186    14.336847 
 1810000     301.6982    1.2509986    3507.3321            0            0            0            0   -5910.8318    44657.537 -0.067234084   -17.036218 -0.041707817    3507.3321     1512.756    946.23049    897.21534    28.380735    18.843927    14.336937 0.0003503215 0.00034956323  0.000830535 0.00082989311     301.6982     41.49527    35.978931    34.423473    90.016431    119.66323    90.107069     857.6589     210.1929    28.380289    18.849421    14.339873     28.38038    18.845331    14.336718 
 1820000    299.00025    1.2509986    3417.5153            0            0            0            0   -7183.6513    44657.537 -0.067234084   -17.036218 -0.041707817    3417.5153    1445.0231    946.65891    872.78472    28.379464    18.845561    14.337159 0.00032428695 0.00032337218 0.00084185803 0.00084055692    299.00025     41.49527    35.978931    34.423473    90.016431    119.66323    90.107069    869.35172    194.57217    28.380114    18.848236    14.339663    28.379287    18.845112    14.336319 
 1830000    298.50641    1.2509986    3437.6084            0            0            0            0   -7015.0877    44657.537 -0.067234084   -17.036218 -0.041707817    3437.6084    1432.5218    953.24777    893.64062    28.377495    18.846214    14.337183 0.0003507557 0.00034890993 0.00080498144 0.00080484147    298.50641     41.49527    35.978931    34.423473    90.016431    119.66323    90.107069    831.27081    210.45342     28.38028    18.848205     14.33882    28.379996    18.845794    14.337203 
 1840000    298.40284    1.2509986     3436.449            0            0            0            0   -6785.4883    44657.537 -0.067234084   -17.036218 -0.041707817     3436.449    1428.2726    953.77416    902.38462    28.379429    18.844805      14.3375 0.00035927814 0.0003584761  0.000777599 0.00077753018    298.40284     41.49527    35.978931    34.423473    90.016431    119.66323    90.107069     802.9941    215.56688     28.37911    18.848988    14.340414    28.379615    18.845397     14.33711 
 1850000     299.8353    1.2509986     3521.031            0            0            0            0   -6734.0798    44657.537 -0.067234084   -17.036218 -0.041707817     3521.031    1506.8299    962.03407    896.07231    28.378952    18.845578    14.337323 0.00036708829 0.00036503767 0.0008118148 0.00081158955     299.8353     41.49527    35.978931    34.423473    90.016431    119.66323    90.107069    838.32733    220.25297    28.378528    18.850001    14.339771    28.379432    18.845484     14.33698 
 1860000    294.94942    1.2509986    3491.5562            0            0            0            0   -6228.8148    44657.537 -0.067234084   -17.036218 -0.041707817    3491.5562    1449.0959    963.25954    920.62588    28.378147    18.845457    14.336798 0.00034144391 0.00034072401 0.00082269423 0.00082122544    294.94942     41.49527    35.978931    34.423473    90.016431    119.66323    90.107069    849.56207    204.86635    28.379312    18.848202    14.339584    28.380884    18.845565    14.337823 
 1870000    295.11411    1.2509986    3423.4186            0            0            0            0   -7344.4821    44657.537 -0.067234084   -17.036218 -0.041707817    3423.4186    1464.2773    936.58364    868.92347    28.380257    18.847033     14.33846 0.00035465424 0.00035423898 0.00081996896 0.00081893843    295.11411     41.49527    35.978931    34.423473    90.016431    119.66323    90.107069    846.74779    212.79254    28.379268    18.849494    14.339955    28.379147     18.84624    14.337215 
 1880000    298.03401    1.2509986    3471.3644            0            0            0            0   -7275.7155    44657.537 -0.067234084   -17.036218 -0.041707817    3471.3644    1468.0367    968.99999    879.95474    28.381497    18.846217    14.337457 0.00034945039 0.00034686886 0.0008116621 0.00081029421    298.03401     41.49527    35.978931    34.423473    90.016431    119.66323    90.107069    838.16964    209.67023    28.380188    18.850354    14.339019    28.380631    18.846232    14.336915 
 1890000    291.42653    1.2509986    3479.0304            0            0            0            0   -7516.6065    44657.537 -0.067234084   -17.036218 -0.041707817    3479.0304    1470.4313    986.09845     874.5515    28.379089    18.846564    14.336503 0.00038089812 0.00037837959 0.00083105753 0.00082828086    291.42653     41.49527    35.978931    34.423473    90.016431    119.66323    90.107069     858.1985    228.53887     28.37973    18.848254    14.341021     28.38022    18.846912    14.336528 
 1900000    297.56798    1.2509986    3462.3115            0            0            0            0   -6155.1084    44657.537 -0.067234084   -17.036218 -0.041707817    3462.3115    1408.2421    935.82062    950.24496    28.382654    18.847311    14.338834 0.0003695044 0.00036924046 0.00081863639 0.00081604387    297.56798     41.49527    35.978931    34.423473    90.016431    119.66323    90.107069     845.3717    221.70264    28.379794     18.84865    14.339913    28.380629     18.84664    14.338017 
 1910000    304.54494    1.2509986    3520.1348            0            0            0            0    -7089.992    44657.537 -0.067234084   -17.036218 -0.041707817    3520.1348    1461.2761    979.05721    921.71013     28.37833    18.847011    14.337738 0.00036731397 0.0003669026 0.00084218871 0.00084161879    304.54494     41.49527    35.978931    34.423473    90.016431    119.66323    90.107069    869.69321    220.38838     28.38009    18.849313    14.339831    28.380127    18.846157    14.337336 
 1920000    302.15708    1.2509986    3406.4876            0            0            0            0   -6153.7622    44657.537 -0.067234084   -17.036218 -0.041707817    3406.4876    1425.8047    930.09083    895.35796    28.378159    18.844752     14.33785 0.00033611805 0.00033554628 0.00080256977 0.0008018798    302.15708     41.49527    35.978931    34.423473    90.016431    119.66323    90.107069    828.78038    201.67083    28.379301    18.848576      14.3402    28.379488    18.844752    14.337516 
 1930000    297.91388    1.2509986    3474.4778            0            0            0            0   -7309.3657    44657.537 -0.067234084   -17.036218 -0.041707817    3474.4778    1468.6472    961.69329    894.87684    28.379406    18.847252    14.336787 0.00037308809 0.00037201008 0.00079257485 0.00079220438    297.91388     41.49527    35.978931    34.423473    90.016431    119.66323    90.107069    818.45904    223.85285    28.379878    18.849282    14.340588    28.379263    18.845599    14.337033 
 1940000    297.38269    1.2509986    3408.4276            0            0            0            0   -6984.3424    44657.537 -0.067234084   -17.036218 -0.041707817    3408.4276    1429.2435    931.97839    892.05243    28.379279    18.845623    14.337088 0.00037639344 0.00037496592 0.00082472708 0.0008237644    297.38269     41.49527    35.978931    34.423473    90.016431    119.66323    90.107069    851.66131    225.83607     28.37877    18.848225    14.340073    28.378863    18.845672     14.33711 
 1950000    302.52568    1.2509986    3453.3504            0            0            0            0   -7096.7964    44657.537 -0.067234084   -17.036218 -0.041707817    3453.3504    1463.0647    930.88236    906.73241    28.380754    18.844871    14.338276 0.00036391474 0.00036321254 0.00084348614 0.0008427464    302.52568     41.49527    35.978931    34.423473    90.016431    119.66323    90.107069    871.03301    218.34884    28.379352    18.848239    14.339389    28.379431    18.845598    14.338025 
 1960000      298.062    1.2509986    3439.8518            0            0            0            0   -6009.3068    44657.537 -0.067234084   -17.036218 -0.041707817    3439.8518    1453.8977    973.78963    864.10431    28.381713    18.845184    14.338341 0.00033219817 0.00033145288 0.00080877735 0.00080870817      298.062     41.49527    35.978931    34.423473    90.016431    119.66323    90.107069    835.19068     199.3189    28.379776    18.848559    14.340339    28.379577    18.845401    14.337357 
 1970000     300.5455    1.2509986    3484.4188            0            0            0            0   -6890.5928    44657.537 -0.067234084   -17.036218 -0.041707817    3484.4188    1483.9378    940.89285    902.36125    28.379627    18.846688    14.337463 0.00034262116 0.00034207048 0.00083425474 0.00083380121     300.5455     41.49527    35.978931    34.423473    90.016431    119.66323    90.107069    861.50012     205.5727     28.37993    18.848978    14.338998    28.379183    18.845716    14.337269 
 1980000    298.73632    1.2509986    3357.1899            0            0            0            0   -6070.5814    44657.537 -0.067234084   -17.036218 -0.041707817    3357.1899     1406.456    956.03829    845.77154    28.379886    18.846433    14.337202 0.00033037617 0.00032918115 0.00079293757 0.00079270546    298.73632     41.49527    35.978931    34.423473    90.016431    119.66323    90.107069     818.8336     198.2257    28.380033    18.849182    14.340607    28.380108    18.845799    14.337067 
 1990000    294.10067    1.2509986    3452.6917            0            0            0            0   -7009.5892    44657.537 -0.067234084   -17.036218 -0.041707817    3452.6917    1418.8242    988.18626    892.27442    28.378609    18.845745    14.336353 0.00038400234 0.00037949565 0.00079935528 0.00079839787    294.10067     41.49527    35.978931    34.423473    90.016431    119.66323    90.107069    825.46091     230.4014    28.378657    18.848208    14.337892    28.380102    18.846236    14.336723 
 2000000    294.74941    1.2509986    3404.9922            0            0            0            0   -6493.8594    44657.537 -0.067234084   -17.036218 -0.041707817    3404.9922    1458.6807    904.98822    888.89928    28.379809    18.846356    14.337236 0.0003454966 0.00034320068 0.00085005016 0.00084986483    294.74941     41.49527    35.978931    34.423473    90.016431    119.66323    90.107069     877.8114    207.29796     28.38087    18.848491    14.339092    28.379976    18.845166    14.337013 
Loop time of 3667.2 on 20 procs for 2000000 steps with 4560 atoms

Pair  time (%) = 2682.68 (73.1534)
Bond  time (%) = 343.94 (9.37882)
Neigh time (%) = 39.7158 (1.083)
Comm  time (%) = 449.507 (12.2575)
Outpt time (%) = 0.540377 (0.0147354)
Other time (%) = 150.816 (4.11257)

Nlocal:    228 ave 240 max 220 min
Histogram: 1 2 2 4 5 3 1 1 0 1
Nghost:    5783.8 ave 5838 max 5742 min
Histogram: 2 0 3 5 3 3 2 0 0 2
Neighs:    83664.1 ave 88439 max 80315 min
Histogram: 2 1 3 5 2 4 2 0 0 1

Total # of neighbors = 1673283
Ave neighs/atom = 366.948
Ave special neighs/atom = 10.6316
Neighbor list builds = 8358
Dangerous builds = 0
System init for write_data ...
