LAMMPS data file via write_data, version 15 May 2015, timestep = 1009000

2593 atoms
6 atom types
1728 bonds
4 bond types
864 angles
3 angle types
0 dihedrals
3 dihedral types
0 impropers
1 improper types

-1.5018970313337395e+01 1.5018970313337395e+01 xlo xhi
-1.5018970313337395e+01 1.5018970313337395e+01 ylo yhi
-1.5018970313337395e+01 1.5018970313337395e+01 zlo zhi

Masses

1 15.9994
2 1.00794
3 12.0107
4 1.00794
5 12.0107
6 12.0107

Bond Coeffs # harmonic

1 1000 1
2 469 1.4
3 367 1.08
4 469 0.7

Angle Coeffs # harmonic

1 100 109.47
2 35 120
3 63 120

Dihedral Coeffs # opls

1 0 7.25 0 0
2 0 7.25 0 0
3 0 7.25 0 0

Improper Coeffs # cvff

1 2.5 -1 2

Atoms # full

1224 408 2 4.0999999999999998e-01 -8.5057571347715495e+00 -1.1896652514585178e+01 -9.5538599839694207e+00 0 2 0
1426 476 1 -8.1999999999999995e-01 -8.1188149712211555e+00 -8.8373816618836027e+00 -8.8162082252035390e+00 1 -1 0
1427 476 2 4.0999999999999998e-01 -7.1223415580414455e+00 -8.7666955924342425e+00 -8.7720392747610489e+00 1 -1 0
703 235 1 -8.1999999999999995e-01 -9.6044533431214205e+00 -1.0479689185469901e+01 -1.4675441160407132e+01 0 1 1
867 289 2 4.0999999999999998e-01 -1.2679198250838791e+01 -1.0512531979335954e+01 -1.3818211099087092e+01 -1 1 3
2000 667 2 4.0999999999999998e-01 -6.0636291580626249e+00 -5.9942684601319254e+00 -1.3637707284962449e+01 2 0 -1
865 289 1 -8.1999999999999995e-01 -1.3163465706111488e+01 -9.6505740024207505e+00 -1.3668476996525921e+01 -1 1 3
1209 403 2 4.0999999999999998e-01 -1.2882380975513101e+01 -1.0144568458609927e+01 -1.0646780470393679e+01 -1 0 0
1951 651 1 -8.1999999999999995e-01 -8.4187710868250960e+00 -9.6556962657841900e+00 -1.1778758297743039e+01 -2 2 0
1326 442 2 4.0999999999999998e-01 -1.4374387914075053e+01 -1.3345201089736523e+01 -1.0173474722922119e+01 1 -1 3
1953 651 2 4.0999999999999998e-01 -7.4732783130649851e+00 -9.4390980434932885e+00 -1.2021730410147301e+01 -2 2 0
878 293 2 4.0999999999999998e-01 -1.0504820553305581e+01 -1.2899872842766049e+01 -1.2121770684311169e+01 0 1 0
877 293 1 -8.1999999999999995e-01 -1.1128608642801064e+01 -1.2188250305004901e+01 -1.2444862932469293e+01 0 1 0
879 293 2 4.0999999999999998e-01 -1.1434836270020153e+01 -1.1636240631875452e+01 -1.1669352280425798e+01 0 1 0
1666 556 1 -8.1999999999999995e-01 -1.2481602920801551e+01 -7.4121270205563921e+00 -1.4856645504460696e+01 -1 2 -1
1822 608 1 -8.1999999999999995e-01 -1.1874299148674998e+01 -7.1302522862475177e+00 -1.1342940072781234e+01 -1 -1 1
1823 608 2 4.0999999999999998e-01 -1.1890424759775875e+01 -8.1118966933429739e+00 -1.1532732214569293e+01 -1 -1 1
1824 608 2 4.0999999999999998e-01 -1.2808667418737317e+01 -6.7741334953610863e+00 -1.1349434513539805e+01 -1 -1 1
1097 366 2 4.0999999999999998e-01 -1.1249692972299194e+01 -7.8971872936325411e+00 -8.5438439031730269e+00 -1 0 1
1096 366 1 -8.1999999999999995e-01 -1.0792543069091380e+01 -8.7689117744030014e+00 -8.3677269263451528e+00 -1 0 1
2462 821 2 4.0999999999999998e-01 -1.2033597482390235e+01 -1.3051412062261512e+01 -9.4607711432359487e+00 0 2 1
1098 366 2 4.0999999999999998e-01 -9.8323476762908584e+00 -8.7024704095278551e+00 -8.6388674343461780e+00 -1 0 1
2439 813 2 4.0999999999999998e-01 -1.0403254944738585e+01 -6.4535819240028758e+00 -1.0015298708977525e+01 1 0 1
1503 501 2 4.0999999999999998e-01 -1.3340531896460112e+01 -6.1677277344540755e+00 -8.1251354184515421e+00 1 -1 0
1325 442 2 4.0999999999999998e-01 -1.3726348147256951e+01 -1.1864501299257075e+01 -1.0405746984829289e+01 1 -1 3
2463 821 2 4.0999999999999998e-01 -1.0477851388901264e+01 -1.2559740564082508e+01 -9.5262779355236802e+00 0 2 1
1207 403 1 -8.1999999999999995e-01 -1.1907420829670581e+01 -9.9252666308634687e+00 -1.0682364742066447e+01 -1 0 0
2461 821 1 -8.1999999999999995e-01 -1.1144732945061008e+01 -1.3091617391542659e+01 -9.0044706712619575e+00 0 2 1
1208 403 2 4.0999999999999998e-01 -1.1582789904977297e+01 -9.6997134665839315e+00 -9.7638619614662723e+00 -1 0 0
704 235 2 4.0999999999999998e-01 -1.0159495912149172e+01 -1.0743139732234795e+01 -1.3886499866427584e+01 0 1 1
890 297 2 4.0999999999999998e-01 -1.2135699127021015e+01 -1.2999528180528333e+01 -1.4311724445433990e+01 -1 -1 2
1223 408 2 4.0999999999999998e-01 -8.9544462841383634e+00 -1.1024350514078847e+01 -1.0859289112442848e+01 0 2 0
1222 408 1 -8.1999999999999995e-01 -9.2719281535388021e+00 -1.1650910857985544e+01 -1.0147576935921947e+01 0 2 0
866 289 2 4.0999999999999998e-01 -1.3729190654027709e+01 -9.7244120943718162e+00 -1.2847252333526693e+01 -1 1 3
1324 442 1 -8.1999999999999995e-01 -1.3536764186385788e+01 -1.2846266301733500e+01 -1.0395639350597829e+01 1 -1 3
1280 427 2 4.0999999999999998e-01 -3.5716778030421992e-01 -1.4782603428489455e+01 -9.5173026345301412e+00 1 1 3
2469 823 2 4.0999999999999998e-01 -9.8777355539408909e+00 -1.3998471614897474e+01 -8.7506392028754689e+00 -1 1 -1
296 99 2 4.0999999999999998e-01 -8.9075422120028698e+00 -5.9057745618453747e+00 -1.3728088341161337e+01 0 2 -2
930 310 2 4.0999999999999998e-01 -8.0426301447885358e+00 -5.2538653146625744e+00 -1.1270389627196167e+01 2 -1 1
463 155 1 -8.1999999999999995e-01 -2.7270730572795721e+00 -1.1116432489486556e+01 -1.0655865542679850e+01 0 1 0
1628 543 2 4.0999999999999998e-01 -1.2921575080412433e+01 -1.4430547777109382e+01 -1.1461050937475704e+01 0 2 -1
295 99 1 -8.1999999999999995e-01 -8.8461744063396708e+00 -6.0777748145730364e+00 -1.4711224513349444e+01 0 2 -2
2238 746 2 4.0999999999999998e-01 -6.5522447418995267e+00 -5.5703035946704311e+00 -8.2257200269549244e+00 -1 0 0
1210 404 1 -8.1999999999999995e-01 -1.4497359699984894e+01 -6.7739978166177384e+00 -1.1571275813421527e+01 0 1 2
928 310 1 -8.1999999999999995e-01 -7.9343294040072747e+00 -6.0307269838440885e+00 -1.1890602272615244e+01 2 -1 1
2468 823 2 4.0999999999999998e-01 -8.2989264496779178e+00 -1.3790179898007940e+01 -8.3895929030638907e+00 -1 1 -1
215 72 2 4.0999999999999998e-01 -2.8137555159309713e+00 -1.4998998112182058e+01 -9.9304632373297501e+00 -2 0 -1
2438 813 2 4.0999999999999998e-01 -8.9675739981711313e+00 -6.1598144909348136e+00 -9.2949523603396642e+00 1 0 1
1668 556 2 4.0999999999999998e-01 -1.2539366085997772e+01 -8.3931334893138683e+00 -1.4671722670083069e+01 -1 2 -1
1428 476 2 4.0999999999999998e-01 -8.4086415989915082e+00 -8.8689230083680997e+00 -9.7727187605590586e+00 1 -1 0
1211 404 2 4.0999999999999998e-01 -1.4995817158346499e+01 -5.9604169147524626e+00 -1.1870496448101028e+01 0 1 2
2467 823 1 -8.1999999999999995e-01 -9.0555173292672748e+00 -1.4443960568415401e+01 -8.3965154573531358e+00 -1 1 -1
1667 556 2 4.0999999999999998e-01 -1.2372148043385327e+01 -6.9164375330426910e+00 -1.3995124559419498e+01 -1 2 -1
2437 813 1 -8.1999999999999995e-01 -9.8898076191887974e+00 -5.8065292843586320e+00 -9.4517372618180282e+00 1 0 1
2131 711 1 -8.1999999999999995e-01 -2.5777181607731681e+00 -1.1933676002879892e+01 -7.9136362974771206e+00 0 0 2
2236 746 1 -8.1999999999999995e-01 -7.0834618058377092e+00 -5.6823102998568054e+00 -9.0654638892889032e+00 -1 0 0
1797 599 2 4.0999999999999998e-01 -8.4531960466869194e-01 -1.4626776458059437e+01 -1.3613126742284601e+01 0 1 1
625 209 1 -8.1999999999999995e-01 -9.0112092646166708e-01 -5.5482328145284328e+00 -1.4536765233319349e+01 -1 2 0
1229 410 2 4.0999999999999998e-01 -1.4850201726103718e+01 -1.2540088287789697e+01 -1.4641807364683704e+01 0 0 0
2137 713 1 -8.1999999999999995e-01 -1.7002587339921220e+00 -8.8841639846168619e+00 -1.3968969529716556e+01 0 3 0
1795 599 1 -8.1999999999999995e-01 -1.1059412510096926e+00 -1.3757731317135390e+01 -1.3192717865588399e+01 0 1 1
521 174 2 4.0999999999999998e-01 -3.6669459030227962e+00 -1.1725025448061235e+01 -1.3957414822784052e+01 1 2 -1
1986 662 2 4.0999999999999998e-01 -6.9262604872971067e+00 -1.1523097172891912e+01 -1.3699375948285356e+01 -1 0 3
522 174 2 4.0999999999999998e-01 -2.9287121052352898e+00 -1.0290882340235447e+01 -1.3703206076296269e+01 1 2 -1
2001 667 2 4.0999999999999998e-01 -5.4088457449893053e+00 -5.3930336660154250e+00 -1.2267979820318443e+01 2 0 -1
754 252 1 -8.1999999999999995e-01 -2.9144106055872729e+00 -7.0490950518802542e+00 -1.2033049228671606e+01 -2 2 1
756 252 2 4.0999999999999998e-01 -3.7369280589418032e+00 -6.7524050505397852e+00 -1.1547923567364222e+01 -2 2 1
647 216 2 4.0999999999999998e-01 -5.4830386031180609e+00 -1.5018350018577900e+01 -1.2027004909010159e+01 0 1 2
1071 357 2 4.0999999999999998e-01 -5.5051897007864206e+00 -6.0249005147129253e+00 -1.0283782542768741e+01 -2 1 1
132 44 2 4.0999999999999998e-01 -1.4851966337008399e+01 -9.5381847575835010e+00 -1.0559444301675899e+01 0 1 1
1186 396 1 -8.1999999999999995e-01 -6.9598001557347740e+00 -1.2662657171213619e+01 -8.6171831828853307e+00 0 2 1
1985 662 2 4.0999999999999998e-01 -7.8264735730011727e+00 -1.2870251842030981e+01 -1.3902276191750838e+01 -1 0 3
929 310 2 4.0999999999999998e-01 -7.4235482989031345e+00 -6.7564335183544610e+00 -1.1429777454695953e+01 2 -1 1
464 155 2 4.0999999999999998e-01 -3.0260672164661724e+00 -1.0978926939282902e+01 -1.1600112075468871e+01 0 1 0
1501 501 1 -8.1999999999999995e-01 -1.2813027656870224e+01 -6.8664290167678956e+00 -7.6419557868215842e+00 1 -1 0
1952 651 2 4.0999999999999998e-01 -9.0106092211402764e+00 -9.4974682070048804e+00 -1.2569073623154331e+01 -2 2 0
2101 701 1 -8.1999999999999995e-01 -1.6475384840898180e+00 -7.7555946187060885e+00 -9.6725257784170271e+00 0 2 1
2571 857 2 4.0999999999999998e-01 -5.6215708305349157e+00 -1.4609202991099796e+01 -7.9554227718396353e+00 0 1 2
1807 603 1 -8.1999999999999995e-01 -5.5749590784547642e+00 -1.2830777138946182e+01 -1.1019966224770481e+01 -1 1 0
1984 662 1 -8.1999999999999995e-01 -7.2841233525966063e+00 -1.2341340403143723e+01 -1.3249577380600718e+01 -1 0 3
1783 595 1 -8.1999999999999995e-01 -6.0485624249242687e+00 -8.0920581965520793e+00 -1.0706009513204592e+01 1 2 1
1809 603 2 4.0999999999999998e-01 -6.0144304448746908e+00 -1.2468051460462398e+01 -1.1841672846427905e+01 -1 1 0
1999 667 1 -8.1999999999999995e-01 -5.4142124076662768e+00 -5.3309505281923784e+00 -1.3265989671542805e+01 2 0 -1
2138 713 2 4.0999999999999998e-01 -2.0389596666307188e+00 -8.2992768170663087e+00 -1.3232019386505556e+01 0 3 0
1187 396 2 4.0999999999999998e-01 -6.3679608306741944e+00 -1.2823242977569635e+01 -9.4070219200101945e+00 0 2 1
404 135 2 4.0999999999999998e-01 -1.2997148252778068e+00 -1.3002038194706106e+01 -1.0106645804739916e+01 1 2 -1
142 48 1 -8.1999999999999995e-01 -9.5873891694103222e+00 -1.4191898796132811e+01 -1.4300924902072540e+01 0 1 -1
1495 499 1 -8.1999999999999995e-01 -4.9243115681015741e+00 -9.9840317341192186e+00 -9.1914706497872984e+00 2 0 2
2103 701 2 4.0999999999999998e-01 -2.3084592101258501e+00 -7.6527836955610500e+00 -1.0415842952673323e+01 0 2 1
405 135 2 4.0999999999999998e-01 -1.3574431058749870e+00 -1.3714119483176896e+01 -1.1574973235836950e+01 1 2 -1
403 135 1 -8.1999999999999995e-01 -1.4908791341447198e+00 -1.3854066424258329e+01 -1.0593894036808756e+01 1 2 -1
520 174 1 -8.1999999999999995e-01 -3.6148419297108454e+00 -1.0929148338710810e+01 -1.3354280309502492e+01 1 2 -1
465 155 2 4.0999999999999998e-01 -1.9491984903310993e+00 -1.0518686528151878e+01 -1.0462170743997174e+01 0 1 0
130 44 1 -8.1999999999999995e-01 -1.4487307055802283e+01 -1.0327249441736395e+01 -1.1053718747602005e+01 0 1 1
1785 595 2 4.0999999999999998e-01 -5.7318023637040696e+00 -8.4212317276524189e+00 -1.1595512020982461e+01 1 2 1
2085 695 2 4.0999999999999998e-01 -1.6758274118771705e+00 -7.0950562646715927e+00 -8.0344763334580627e+00 0 1 0
1784 595 2 4.0999999999999998e-01 -5.8439581509504848e+00 -8.7756606209071215e+00 -1.0005487089909931e+01 1 2 1
1497 499 2 4.0999999999999998e-01 -4.1490960593910202e+00 -1.0430196254097620e+01 -9.6385555638212530e+00 2 0 2
2139 713 2 4.0999999999999998e-01 -1.0602205256810695e+00 -8.3672244855317537e+00 -1.4537328097233898e+01 0 3 0
1496 499 2 4.0999999999999998e-01 -5.1245200311678758e+00 -1.0449012732726455e+01 -8.3291388808245870e+00 2 0 2
2133 711 2 4.0999999999999998e-01 -2.7204128901727511e+00 -1.1921364897396096e+01 -8.9032793924987779e+00 0 0 2
2112 704 2 4.0999999999999998e-01 -4.8813948793785524e+00 -9.6849206956988461e+00 -1.3098224400967229e+01 0 2 1
2110 704 1 -8.1999999999999995e-01 -5.5107599810869932e+00 -8.9079359598059575e+00 -1.3108280370252157e+01 0 2 1
1188 396 2 4.0999999999999998e-01 -6.4306020045593772e+00 -1.2231793184190341e+01 -7.8862848716313545e+00 0 2 1
755 252 2 4.0999999999999998e-01 -2.6801159528792500e+00 -6.3760082677397403e+00 -1.2734452823157945e+01 -2 2 1
2522 841 2 4.0999999999999998e-01 -4.5705375722235146e+00 -5.1745755970198637e+00 -1.4803099086414525e+01 -1 2 2
1566 522 2 4.0999999999999998e-01 -2.8155347174677559e-01 -1.0609137958000392e+01 -1.4348973699369761e+01 0 1 3
1796 599 2 4.0999999999999998e-01 -6.8597969058653696e-01 -1.3003879016733023e+01 -1.3697936337212381e+01 0 1 1
2102 701 2 4.0999999999999998e-01 -7.2365338128524570e-01 -7.6071390790581388e+00 -1.0025093614786012e+01 0 2 1
2111 704 2 4.0999999999999998e-01 -5.4071560233966860e+00 -8.4061867165378175e+00 -1.3967012436219607e+01 0 2 1
1808 603 2 4.0999999999999998e-01 -4.6336649507396555e+00 -1.2496980179190954e+01 -1.0970450880602378e+01 -1 1 0
1069 357 1 -8.1999999999999995e-01 -4.8852138816882622e+00 -5.3482649683328862e+00 -1.0680898570982629e+01 -2 1 1
2132 711 2 4.0999999999999998e-01 -1.8425841264831551e+00 -1.1299228520071035e+01 -7.6749712216756700e+00 0 0 2
1265 422 2 4.0999999999999998e-01 -1.1034927289783974e+01 -1.1981392015530552e+01 -7.5722307300118574e+00 -1 1 -1
143 48 2 4.0999999999999998e-01 -8.9131860539809722e+00 -1.4920898953453460e+01 -1.4182960361783604e+01 0 1 -1
2052 684 2 4.0999999999999998e-01 -3.0282305763828177e-02 -5.4937879536986287e+00 -1.0323413119935335e+01 -1 1 0
2202 734 2 4.0999999999999998e-01 -1.0034416645897721e+00 -9.2363754250723051e+00 -7.7250357126878946e+00 1 -1 0
1266 422 2 4.0999999999999998e-01 -1.0935286201456016e+01 -1.0388608994740636e+01 -7.9179063771299925e+00 -1 1 -1
297 99 2 4.0999999999999998e-01 -8.7139144881851998e+00 -7.0560088359609985e+00 -1.4870825171612569e+01 0 2 -2
970 324 1 -8.1999999999999995e-01 -1.0796098437410279e+01 -9.0510695295804879e+00 -5.2463392369614699e+00 1 1 -1
972 324 2 4.0999999999999998e-01 -1.1104200687075426e+01 -9.6205310722926143e+00 -6.0083715766171917e+00 1 1 -1
971 324 2 4.0999999999999998e-01 -1.1260030030823696e+01 -8.1660021879502533e+00 -5.2828092022297213e+00 1 1 -1
1603 535 1 -8.1999999999999995e-01 -6.9731941210260242e+00 -9.7257155039654783e+00 -1.4029290712247331e+00 -2 0 -1
1714 572 1 -8.1999999999999995e-01 -1.1653409857218032e+01 -1.1005502356974567e+01 -3.2859404455917112e+00 0 1 2
2083 695 1 -8.1999999999999995e-01 -1.5984121555044926e+00 -7.2795898588599846e+00 -7.0547513763043037e+00 0 1 0
2366 789 2 4.0999999999999998e-01 -1.2786040286031238e+01 -1.4184376505383986e+01 -6.6076567772993258e+00 1 2 0
1600 534 1 -8.1999999999999995e-01 -1.4969894525548440e+01 -1.4892700455873156e+01 -6.6939650598502638e+00 1 2 2
1466 489 2 4.0999999999999998e-01 -1.0834528049489904e+01 -1.1679650362387115e+01 -1.7810974942029123e+00 2 2 1
887 296 2 4.0999999999999998e-01 -4.3141367560706954e+00 -1.1845769205302201e+01 -7.0117473418988929e+00 -2 0 -1
1327 443 1 -8.1999999999999995e-01 -1.0018426408679140e+01 -1.2672990573556161e+01 -4.7681918590525871e+00 0 0 -1
1328 443 2 4.0999999999999998e-01 -1.0467599023562435e+01 -1.1985252118100121e+01 -4.1979581978069902e+00 0 0 -1
1502 501 2 4.0999999999999998e-01 -1.2803969564914818e+01 -6.6600085107444844e+00 -6.6635819664668272e+00 1 -1 0
1465 489 1 -8.1999999999999995e-01 -1.0118187261416576e+01 -1.1805891860122346e+01 -1.0949300489929339e+00 2 2 1
1715 572 2 4.0999999999999998e-01 -1.1401725751983083e+01 -1.0315245465513556e+01 -3.9642524229200156e+00 0 1 2
1329 443 2 4.0999999999999998e-01 -1.0710532793652220e+01 -1.3207650578266918e+01 -5.2529950057944301e+00 0 0 -1
2584 862 1 -8.1999999999999995e-01 -8.1748045242420968e+00 -9.3288851608578582e+00 -5.9539641032841537e+00 1 1 -1
1716 572 2 4.0999999999999998e-01 -1.2626362859951126e+01 -1.0922098028795480e+01 -3.0707361478435153e+00 0 1 2
2592 864 2 4.0999999999999998e-01 -1.2731990210194708e+01 -1.1685518646805692e+01 -6.1578354909450201e+00 2 2 1
2105 702 2 4.0999999999999998e-01 -1.3267315216152921e+01 -7.4269851682809200e+00 -4.1398458166555727e+00 -1 0 1
2365 789 1 -8.1999999999999995e-01 -1.1815460451676339e+01 -1.4356535603894848e+01 -6.4396009197388580e+00 1 2 0
1607 536 2 4.0999999999999998e-01 -1.0177102491118401e+01 -7.8089498815306753e+00 -2.1509689332033215e+00 -1 2 2
2084 695 2 4.0999999999999998e-01 -2.3378817070193278e+00 -7.8900363796234396e+00 -6.7711202052937978e+00 0 1 0
2106 702 2 4.0999999999999998e-01 -1.2609572551412217e+01 -5.9503498222357223e+00 -4.3707151618771416e+00 -1 0 1
1608 536 2 4.0999999999999998e-01 -9.9373798050783257e+00 -8.5413704960139647e+00 -3.5905768775817855e+00 -1 2 2
2205 735 2 4.0999999999999998e-01 -1.2337596192387714e+01 -8.3597618815459001e+00 -1.2200759194751569e+00 1 0 0
2104 702 1 -8.1999999999999995e-01 -1.2686203625185975e+01 -6.8767078855578365e+00 -4.7393548361336713e+00 -1 0 1
2203 735 1 -8.1999999999999995e-01 -1.1492221539697422e+01 -7.9811415622903228e+00 -8.4338629029813816e-01 1 0 0
1477 493 1 -8.1999999999999995e-01 -1.3592597949148786e+00 -1.0016101702677380e+01 -3.8565517455137837e+00 0 -2 2
1606 536 1 -8.1999999999999995e-01 -9.4899594054574408e+00 -8.0777595697303113e+00 -2.8258634075466329e+00 -1 2 2
1000 334 1 -8.1999999999999995e-01 -1.3671405475726141e+01 -8.4747234832616272e+00 -2.4802216398809467e+00 -1 3 1
2591 864 2 4.0999999999999998e-01 -1.3443676580159938e+01 -1.2372530960703942e+01 -4.8586454993651760e+00 2 2 1
2586 862 2 4.0999999999999998e-01 -8.5256700812976529e+00 -9.3347410688451085e+00 -6.8903217305058710e+00 1 1 -1
1002 334 2 4.0999999999999998e-01 -1.3813742917525895e+01 -7.5805849939225372e+00 -2.0557653476405697e+00 -1 3 1
1050 350 2 4.0999999999999998e-01 -1.6848975835575253e-01 -6.7918904130154409e+00 -5.9596344845346003e+00 -1 0 2
872 291 2 4.0999999999999998e-01 -8.7624655934609663e+00 -1.3775509612410014e+01 -4.2993777319937987e+00 -1 2 1
2585 862 2 4.0999999999999998e-01 -8.9035695155568781e+00 -9.0544629190921064e+00 -5.3266676558399535e+00 1 1 -1
2590 864 1 -8.1999999999999995e-01 -1.3586652443541299e+01 -1.1773172371807435e+01 -5.6461948726049549e+00 2 2 1
259 87 1 -8.1999999999999995e-01 -5.5012037270535732e+00 -1.1376372726273701e+01 -3.0985262173394830e+00 -1 2 1
2046 682 2 4.0999999999999998e-01 -1.3789989335924677e+01 -5.4639199541004366e+00 -2.1263980395242790e+00 0 0 -2
1001 334 2 4.0999999999999998e-01 -1.4526102431383928e+01 -8.9933481448575776e+00 -2.4595250175342276e+00 -1 3 1
1902 634 2 4.0999999999999998e-01 -8.9668727344795816e+00 -5.9599991080017656e+00 -3.8569668747716026e+00 0 0 0
1705 569 1 -8.1999999999999995e-01 -7.9104182114637647e+00 -6.4054202380628400e+00 -6.5596007574529303e-01 -2 4 1
1706 569 2 4.0999999999999998e-01 -8.4151783805097065e+00 -6.9104592554857209e+00 -1.3560026291927461e+00 -2 4 1
2310 770 2 4.0999999999999998e-01 -5.1892624832140548e+00 -5.6538149568826377e+00 -3.2904591912788614e+00 0 2 0
1745 582 2 4.0999999999999998e-01 -1.8687740508321511e+00 -1.2635971015240941e+01 -6.1079181578312145e+00 2 -2 0
2464 822 1 -8.1999999999999995e-01 -5.4776094649691576e+00 -6.9945433708608871e+00 -1.9521351367364232e+00 0 1 -1
873 291 2 4.0999999999999998e-01 -7.9157103539064417e+00 -1.4706721026842102e+01 -3.2590754236238091e+00 -1 2 1
871 291 1 -8.1999999999999995e-01 -7.9355411840603889e+00 -1.4325637876866260e+01 -4.1833530432936925e+00 -1 2 1
1264 422 1 -8.1999999999999995e-01 -1.1238916166564790e+01 -1.1059907698963279e+01 -7.2418341636767982e+00 -1 1 -1
1604 535 2 4.0999999999999998e-01 -6.4395384051393290e+00 -1.0342422828393541e+01 -1.9815398864483953e+00 -2 0 -1
2201 734 2 4.0999999999999998e-01 -1.8085175203907511e-01 -1.0024458412771363e+01 -6.5551429662064624e+00 1 -1 0
1467 489 2 4.0999999999999998e-01 -9.2521762064872473e+00 -1.1452183661841124e+01 -1.4482318035508559e+00 2 2 1
1746 582 2 4.0999999999999998e-01 -2.3229954150546561e+00 -1.2672933783852649e+01 -4.5398957567711271e+00 2 -2 0
2327 776 2 4.0999999999999998e-01 -7.8612611813358431e+00 -1.2572531581939902e+01 -5.3059952873486367e+00 0 0 -1
2328 776 2 4.0999999999999998e-01 -7.8588439339493341e+00 -1.0949099138904185e+01 -5.4816063391775938e+00 0 0 -1
2367 789 2 4.0999999999999998e-01 -1.1293642829403293e+01 -1.4161110586038204e+01 -7.2699154500146230e+00 1 2 0
1605 535 2 4.0999999999999998e-01 -7.3016004100269916e+00 -8.9559714269536492e+00 -1.9502408207496771e+00 -2 0 -1
1814 605 2 4.0999999999999998e-01 -1.8379329191102816e+00 -7.1026434426415985e+00 -1.4570394602791055e+00 -2 -1 1
1896 632 2 4.0999999999999998e-01 -4.5939010997290683e+00 -1.4720212352571595e+01 -2.4160397221062055e+00 0 1 2
1371 457 2 4.0999999999999998e-01 -1.3829761402327710e+01 -9.8854568157927574e+00 -6.4821905298519535e+00 1 -2 -1
1894 632 1 -8.1999999999999995e-01 -4.3703254577179660e+00 -1.3813434660502056e+01 -2.0587234101275040e+00 0 1 2
2466 822 2 4.0999999999999998e-01 -6.3293790315643381e+00 -6.8105872273935510e+00 -1.4616704992869689e+00 0 1 -1
870 290 2 4.0999999999999998e-01 -4.3774068021539101e+00 -8.9812396587041121e+00 -5.6868790676928427e+00 -2 0 0
1727 576 2 4.0999999999999998e-01 -3.0539937325969841e+00 -1.2791857787504492e+01 -2.6417557245907552e+00 0 0 1
2096 699 2 4.0999999999999998e-01 -4.4288294852749406e+00 -1.0008813690469209e+01 -4.6770839689651211e-01 0 1 1
260 87 2 4.0999999999999998e-01 -6.1472992485523452e+00 -1.1467212833578163e+01 -3.8562962944865262e+00 -1 2 1
868 290 1 -8.1999999999999995e-01 -3.4154698341312706e+00 -8.9425981680213553e+00 -5.9572321303462576e+00 -2 0 0
1479 493 2 4.0999999999999998e-01 -1.5545178150897225e+00 -9.1922457375001407e+00 -3.3245344129911238e+00 0 -2 2
1018 340 1 -8.1999999999999995e-01 -9.5992664826467688e-01 -1.2228041568790282e+01 -3.6378075776646490e-01 0 2 1
1813 605 1 -8.1999999999999995e-01 -1.8382103352200154e+00 -7.8875364035000084e+00 -2.0765955570662626e+00 -2 -1 1
1546 516 1 -8.1999999999999995e-01 -1.3809703422236954e+01 -1.3189602847385785e+01 -1.1154959049978075e-01 1 0 -1
2044 682 1 -8.1999999999999995e-01 -1.4318136592665383e+01 -5.9420130310370158e+00 -1.4246898807387325e+00 0 0 -2
1074 358 2 4.0999999999999998e-01 -4.3862580742910247e+00 -5.4240112719225877e+00 -1.1736688819108441e+00 -1 1 1
869 290 2 4.0999999999999998e-01 -2.8613698827826362e+00 -9.4396113910463821e+00 -5.2895062642775059e+00 -2 0 0
888 296 2 4.0999999999999998e-01 -5.6971452211286504e+00 -1.1622569094112666e+01 -6.1727914074679724e+00 -2 0 -1
1049 350 2 4.0999999999999998e-01 -5.4568047016829269e-01 -6.6699312828930193e+00 -4.3755792383976040e+00 -1 0 2
2095 699 1 -8.1999999999999995e-01 -3.9261459344426317e+00 -9.7322341058152197e+00 -1.2866832486006459e+00 0 1 1
2097 699 2 4.0999999999999998e-01 -3.9882782435737258e+00 -1.0454315828692856e+01 -1.9756276509588382e+00 0 1 1
1895 632 2 4.0999999999999998e-01 -4.4973822632530052e+00 -1.3805387459597645e+01 -1.0669076278789174e+00 0 1 2
1478 493 2 4.0999999999999998e-01 -1.8841302311599470e+00 -1.0783185051299391e+01 -3.4877688428948712e+00 0 -2 2
2063 688 2 4.0999999999999998e-01 -6.4164440818883346e+00 -8.8358034768399243e+00 -4.9066232014681841e+00 1 2 0
2287 763 1 -8.1999999999999995e-01 -1.2499609466797938e+00 -5.3391242346756069e+00 -1.3126353495892698e+00 1 -1 1
261 87 2 4.0999999999999998e-01 -5.2302533748347280e+00 -1.2284968442859016e+01 -2.7808054845400765e+00 -1 2 1
1728 576 2 4.0999999999999998e-01 -1.8272703756375304e+00 -1.2051205712209583e+01 -1.8588366654271962e+00 0 0 1
1650 550 2 4.0999999999999998e-01 -8.2139583041963995e+00 -1.4937208666832575e+01 -5.7123537724700313e-01 0 2 2
1815 605 2 4.0999999999999998e-01 -2.2290955401755159e+00 -8.6806474920428300e+00 -1.6095942486729484e+00 -2 -1 1
2064 688 2 4.0999999999999998e-01 -5.4390416624275844e+00 -9.4300325105906957e+00 -3.7413102425873923e+00 1 2 0
886 296 1 -8.1999999999999995e-01 -5.2537545020288761e+00 -1.1507336162209397e+01 -7.0616292863362782e+00 -2 0 -1
2062 688 1 -8.1999999999999995e-01 -5.5329543804330985e+00 -8.7310066161217250e+00 -4.4501472723864044e+00 1 2 0
1744 582 1 -8.1999999999999995e-01 -1.6670127937989321e+00 -1.3023276989977484e+01 -5.2083665163317647e+00 2 -2 0
2326 776 1 -8.1999999999999995e-01 -7.3071985249496088e+00 -1.1743741536564110e+01 -5.2283522753131653e+00 0 0 -1
2465 822 2 4.0999999999999998e-01 -5.2197858392717755e+00 -7.9522466454056104e+00 -1.8247059021314342e+00 0 1 -1
1726 576 1 -8.1999999999999995e-01 -2.3770591862536765e+00 -1.2057738719548647e+01 -2.6940590431290854e+00 0 0 1
1539 513 2 4.0999999999999998e-01 -5.4418381225874128e+00 -5.1077340498170170e+00 -5.7470275054266082e+00 -1 1 -1
2288 763 2 4.0999999999999998e-01 -4.2068235005703158e-01 -5.6228663393569072e+00 -8.3128909587460065e-01 1 -1 1
1073 358 2 4.0999999999999998e-01 -2.8534490843691049e+00 -5.0108803393161221e+00 -7.9131123500190270e-01 -1 1 1
2204 735 2 4.0999999999999998e-01 -1.1706704256247781e+01 -7.1853725356679963e+00 -2.7712177390437631e-01 1 0 0
1586 529 2 4.0999999999999998e-01 -1.4249437465969343e+01 -1.4690535602821322e+01 -2.7702743103798380e+00 2 0 -1
1585 529 1 -8.1999999999999995e-01 -1.4331781270299187e+01 -1.3800832481927351e+01 -3.2192226849022703e+00 2 0 -1
1072 358 1 -8.1999999999999995e-01 -3.7836666419439577e+00 -5.1127911392865588e+00 -4.3886794596680190e-01 -1 1 1
1019 340 2 4.0999999999999998e-01 -2.3005635904589461e-01 -1.2462752855536923e+01 -1.0057362169526751e+00 0 2 1
2196 732 2 4.0999999999999998e-01 -1.3836920342481610e+01 -1.4881297611118292e+01 -2.3067615869988778e-01 1 1 0
1369 457 1 -8.1999999999999995e-01 -1.4148877211501027e+01 -9.2143430802981641e+00 -7.1512781551202025e+00 1 -2 -1
1883 628 2 4.0999999999999998e-01 -1.0201059442399327e+01 -5.1744213157830536e+00 -7.2527354501955328e+00 0 0 -1
2200 734 1 -8.1999999999999995e-01 -8.5361178709898056e-01 -1.0123348428352536e+01 -7.2883015578930710e+00 1 -1 0
1370 457 2 4.0999999999999998e-01 -1.3475351393266930e+01 -8.4798791575942722e+00 -7.2339371592650110e+00 1 -2 -1
2348 783 2 4.0999999999999998e-01 -1.3854469490478222e+01 -1.4124790868986178e+01 2.4077536557750783e+00 1 3 1
2347 783 1 -8.1999999999999995e-01 -1.3197537547207759e+01 -1.3684236609331546e+01 3.0195209029780159e+00 1 3 1
1771 591 1 -8.1999999999999995e-01 -1.2475788367097824e+01 -7.9512461480912293e+00 5.5809337456626054e+00 1 1 -1
252 84 2 4.0999999999999998e-01 -1.1852877332052943e+01 -1.4288514463087314e+01 6.0186072409544238e+00 -3 1 0
1772 591 2 4.0999999999999998e-01 -1.2010273704552716e+01 -8.7016605990171065e+00 5.1118058339375629e+00 1 1 -1
1773 591 2 4.0999999999999998e-01 -1.2670050933561594e+01 -7.2193526233654648e+00 4.9278635639326325e+00 1 1 -1
251 84 2 4.0999999999999998e-01 -1.2613778993847914e+01 -1.3646895413159550e+01 4.7241067473940532e+00 -3 1 0
656 219 2 4.0999999999999998e-01 -1.0250880386319778e+01 -8.6648221407215615e+00 3.5562818988984866e+00 1 1 1
1153 385 1 -8.1999999999999995e-01 -1.0574467356388546e+01 -1.1183461288671703e+01 5.5466522385709247e+00 -1 2 0
655 219 1 -8.1999999999999995e-01 -1.0885745574169226e+01 -9.4284412761067049e+00 3.4390690650938396e+00 1 1 1
657 219 2 4.0999999999999998e-01 -1.0788790087868941e+01 -9.8040297656879343e+00 2.5174184937192550e+00 1 1 1
724 242 1 -8.1999999999999995e-01 -9.7159453291255815e+00 -1.4077936203887184e+01 3.3027533139616772e+00 0 3 -1
1155 385 2 4.0999999999999998e-01 -1.0648882577784114e+01 -1.0509251624652229e+01 4.8119343613992847e+00 -1 2 0
250 84 1 -8.1999999999999995e-01 -1.1768931709666866e+01 -1.3643624834140276e+01 5.2590171741624800e+00 -3 1 0
2349 783 2 4.0999999999999998e-01 -1.2675435223354466e+01 -1.2999781614104913e+01 2.5107604077413832e+00 1 3 1
1702 568 1 -8.1999999999999995e-01 -1.3504722822400469e+01 -5.8761380953204085e+00 3.1298781349108395e+00 -1 2 1
258 86 2 4.0999999999999998e-01 -9.6732189580830408e-02 -1.0956281363877984e+01 4.7847960165250853e+00 -1 2 0
1631 544 2 4.0999999999999998e-01 -1.2751061906105241e+01 -5.9653817305619068e+00 1.6770109842955847e+00 1 3 0
1630 544 1 -8.1999999999999995e-01 -1.2525533483062578e+01 -6.0105365459461506e+00 7.0386931851062862e-01 1 3 0
1154 385 2 4.0999999999999998e-01 -1.1100241668059494e+01 -1.1999019926177169e+01 5.3051314543199126e+00 -1 2 0
1455 485 2 4.0999999999999998e-01 -1.0550085099391403e+01 -5.1611313677284638e+00 1.1936948307110420e+00 -1 0 -2
2547 849 2 4.0999999999999998e-01 -8.4019918033502776e+00 -1.4164933552410396e+01 1.9473112319438997e+00 2 2 1
1454 485 2 4.0999999999999998e-01 -9.5787216741924261e+00 -5.9575088338682569e+00 2.2370614675955700e+00 -1 0 -2
1453 485 1 -8.1999999999999995e-01 -9.6081947177515019e+00 -5.4386050030644117e+00 1.3827916229416530e+00 -1 0 -2
1349 450 2 4.0999999999999998e-01 -1.4953846931416535e+01 -1.4957997256274654e+01 6.5392291737043244e+00 1 1 2
1028 343 2 4.0999999999999998e-01 -1.3868339387392687e+01 -8.8933140334699274e+00 6.5385305995935568e+00 1 1 -1
1657 553 1 -8.1999999999999995e-01 -1.0829446103619098e+00 -1.4807631648757328e+01 5.2006643460380531e-01 0 1 1
709 237 1 -8.1999999999999995e-01 -5.6431649018586860e+00 -1.4706252349125476e+01 2.9244412355769107e+00 -1 2 1
1547 516 2 4.0999999999999998e-01 -1.4649951240234207e+01 -1.2699485265719096e+01 1.2012949764682190e-01 1 0 -1
1057 353 1 -8.1999999999999995e-01 -9.2938144144341948e+00 -7.2036871599218761e+00 3.6837192038800772e+00 1 2 0
1632 544 2 4.0999999999999998e-01 -1.3338674083010041e+01 -5.7957315180369218e+00 1.6297377522700174e-01 1 3 0
1027 343 1 -8.1999999999999995e-01 -1.4519884842967947e+01 -9.3668419326415933e+00 7.1311237785277513e+00 1 1 -1
1059 353 2 4.0999999999999998e-01 -9.0416502823123945e+00 -7.1679570159391055e+00 4.6506956188332538e+00 1 2 0
2265 755 2 4.0999999999999998e-01 -1.0371629128924681e+01 -9.0408652572837163e+00 3.0703867243251182e-01 -1 1 -1