LAMMPS data file via write_data, version 15 May 2015, timestep = 18500000

2593 atoms
6 atom types
1728 bonds
4 bond types
864 angles
3 angle types
0 dihedrals
3 dihedral types
0 impropers
1 improper types

-1.4958929293575704e+01 1.4958929293575704e+01 xlo xhi
-1.4958929293575704e+01 1.4958929293575704e+01 ylo yhi
-1.4958929293575704e+01 1.4958929293575704e+01 zlo zhi

Masses

1 15.9994
2 1.00794
3 12.0107
4 1.00794
5 12.0107
6 12.0107

Bond Coeffs # harmonic

1 1000 1
2 469 1.4
3 367 1.08
4 469 0.7

Angle Coeffs # harmonic

1 100 109.47
2 35 120
3 63 120

Dihedral Coeffs # opls

1 0 7.25 0 0
2 0 7.25 0 0
3 0 7.25 0 0

Improper Coeffs # cvff

1 2.5 -1 2

Atoms # full

1287 429 2 4.0999999999999998e-01 -1.2388132256283210e+01 -1.1785157370445802e+01 -8.0117858235532982e+00 0 6 5
1286 429 2 4.0999999999999998e-01 -1.3064633945387143e+01 -1.2778847956166112e+01 -9.1170931924890564e+00 0 6 5
1285 429 1 -8.1999999999999995e-01 -1.2530847554385142e+01 -1.2740042891427501e+01 -8.2723306166213924e+00 0 6 5
1527 509 2 4.0999999999999998e-01 -1.3202122997698785e+01 -1.4029855144488334e+01 -1.1145868636513764e+01 -3 3 3
260 87 2 4.0999999999999998e-01 -1.1518312519124800e+01 -7.6632237063837056e+00 -1.4528492099830043e+01 5 4 3
1070 357 2 4.0999999999999998e-01 -1.1492557277331350e+01 -1.2774305371784923e+01 -1.2941838294191541e+01 4 5 5
1698 566 2 4.0999999999999998e-01 -1.0671741810413094e+01 -1.3502754800700510e+01 -1.0734513737197030e+01 4 2 0
1696 566 1 -8.1999999999999995e-01 -1.0860201618635703e+01 -1.4134314511062550e+01 -9.9824014755421402e+00 4 2 0
1697 566 2 4.0999999999999998e-01 -1.1399448198934705e+01 -1.3666900977495946e+01 -9.2818336670398942e+00 4 2 0
1525 509 1 -8.1999999999999995e-01 -1.4018205744151508e+01 -1.3645519632095889e+01 -1.0714182721727543e+01 -3 3 3
2514 838 2 4.0999999999999998e-01 -9.3914546948684823e+00 -6.9976144834523861e+00 -9.7740050888754197e+00 6 3 5
1526 509 2 4.0999999999999998e-01 -1.4802764529649654e+01 -1.3759492968225810e+01 -1.1323719555290031e+01 -3 3 3
2512 838 1 -8.1999999999999995e-01 -8.9160514799693029e+00 -7.6038726697982053e+00 -1.0411579025187777e+01 6 3 5
2513 838 2 4.0999999999999998e-01 -7.9482800028635312e+00 -7.6543840772182552e+00 -1.0164749494508520e+01 6 3 5
261 87 2 4.0999999999999998e-01 -1.0410386768103887e+01 -6.4933404155453882e+00 -1.4794300158799134e+01 5 4 3
1448 483 2 4.0999999999999998e-01 -1.1711974407273951e+01 -1.1167244590838257e+01 -1.1496246219233543e+01 4 3 0
1449 483 2 4.0999999999999998e-01 -1.0229521073036519e+01 -1.1613035089903892e+01 -1.2016229876589769e+01 4 3 0
1447 483 1 -8.1999999999999995e-01 -1.0999922199412689e+01 -1.1866385397021293e+01 -1.1431120195653133e+01 4 3 0
2058 686 2 4.0999999999999998e-01 -1.1806247608567016e+01 -7.4104799394260512e+00 -9.6816167130472639e+00 -6 -3 6
688 230 1 -8.1999999999999995e-01 -1.3056536545398945e+01 -1.0158077961275026e+01 -1.1704051994646228e+01 2 5 6
2057 686 2 4.0999999999999998e-01 -1.3292181067578127e+01 -7.2736830129393759e+00 -1.0344993119232022e+01 -6 -3 6
2056 686 1 -8.1999999999999995e-01 -1.2491708616572073e+01 -7.8655349805642745e+00 -1.0250058144794643e+01 -6 -3 6
521 174 2 4.0999999999999998e-01 -1.4184282518403467e+01 -8.0602980004693556e+00 -1.3598929380425721e+01 3 0 1
689 230 2 4.0999999999999998e-01 -1.2957873015106928e+01 -9.4649975935024351e+00 -1.0989935121820530e+01 2 5 6
1071 357 2 4.0999999999999998e-01 -1.1896662298834011e+01 -1.4208399719709151e+01 -1.3610308689951809e+01 4 5 5
1069 357 1 -8.1999999999999995e-01 -1.1750417129401516e+01 -1.3235718789504467e+01 -1.3790757474468206e+01 4 5 5
2082 694 2 4.0999999999999998e-01 -7.7405564358141916e+00 -6.6515066511607834e+00 -1.3429855324061707e+01 1 4 3
702 234 2 4.0999999999999998e-01 -1.0126390098147191e+01 -9.3401370385180069e+00 -9.8986134552669576e+00 1 -2 2
700 234 1 -8.1999999999999995e-01 -1.0294616316003413e+01 -1.0112939713065900e+01 -9.2866220347879818e+00 1 -2 2
701 234 2 4.0999999999999998e-01 -1.0478499144972336e+01 -1.0933201727559972e+01 -9.8282998685691609e+00 1 -2 2
2399 800 2 4.0999999999999998e-01 -1.2436959800790763e+01 -9.7189274540794752e+00 -7.5271976751335794e+00 5 -1 3
475 159 1 -8.1999999999999995e-01 -8.8632480594131859e+00 -1.1240768193722971e+01 -1.3047276725656232e+01 2 -4 2
665 222 2 4.0999999999999998e-01 -1.4938107510391585e+01 -5.9770082688780342e+00 -8.7659513673835434e+00 6 3 -2
477 159 2 4.0999999999999998e-01 -7.9396788934279590e+00 -1.1263124092136875e+01 -1.2664421925449261e+01 2 -4 2
2080 694 1 -8.1999999999999995e-01 -8.4209248219000408e+00 -6.1874947226297170e+00 -1.2862537609526429e+01 1 4 3
476 159 2 4.0999999999999998e-01 -8.8724056045804183e+00 -1.0660906943692162e+01 -1.3861975833355972e+01 2 -4 2
522 174 2 4.0999999999999998e-01 -1.2924182098101504e+01 -8.9353276288747221e+00 -1.3039241279361660e+01 3 0 1
2081 694 2 4.0999999999999998e-01 -8.7316586565152452e+00 -6.8065897784772247e+00 -1.2141272448033803e+01 1 4 3
520 174 1 -8.1999999999999995e-01 -1.3232902576287859e+01 -8.3200592439392871e+00 -1.3764633973615583e+01 3 0 1
2440 814 1 -8.1999999999999995e-01 -1.0784062967895231e+01 -6.1416179148113930e+00 -9.1342920595094341e+00 4 0 6
2442 814 2 4.0999999999999998e-01 -1.1020905136469537e+01 -5.4303587794132024e+00 -9.7961635298076679e+00 4 0 6
2441 814 2 4.0999999999999998e-01 -1.1303876925312821e+01 -5.9994540459694523e+00 -8.2918904435631582e+00 4 0 6
690 230 2 4.0999999999999998e-01 -1.3981149545169083e+01 -1.0537909284167609e+01 -1.1674439615157837e+01 2 5 6
2055 685 2 4.0999999999999998e-01 -1.4647437133456013e+01 -1.0539430029075497e+01 -1.3613553335146879e+01 6 4 5
275 92 2 4.0999999999999998e-01 -1.0092646917492837e+01 -1.4193752286485166e+01 -1.4868370195210803e+01 3 0 1
259 87 1 -8.1999999999999995e-01 -1.0611849575182198e+01 -7.4668792453851873e+00 -1.4902432471058702e+01 5 4 3
1556 519 2 4.0999999999999998e-01 -8.2037433473832486e+00 -1.0580066574025150e+01 -8.4639696697148565e+00 3 -2 2
1149 383 2 4.0999999999999998e-01 -9.2403608153556807e+00 -8.8927489325700950e+00 -1.4888538909692489e+01 -2 1 1
687 229 2 4.0999999999999998e-01 -1.2242104392169413e+00 -7.0971237523901962e+00 -1.1539619612092558e+01 3 -3 8
1059 353 2 4.0999999999999998e-01 -2.3645316757969734e+00 -1.1662683567131607e+01 -9.2558269873608445e+00 1 2 -1
1412 471 2 4.0999999999999998e-01 -6.5809522513224294e+00 -1.3579819199385918e+01 -7.7544134455277822e+00 0 1 1
1626 542 2 4.0999999999999998e-01 -1.7039370007232399e+00 -5.0208496722169080e+00 -1.0851962493015249e+01 0 3 3
2184 728 2 4.0999999999999998e-01 -3.8034148857893211e+00 -9.3933542683839377e+00 -1.3463471893692599e+01 6 4 2
454 152 1 -8.1999999999999995e-01 -3.7043658592421949e+00 -1.0386999056608085e+01 -1.1544164061026228e+01 -1 -2 0
686 229 2 4.0999999999999998e-01 -1.1261439501499275e+00 -8.6786015548670044e+00 -1.1934703162435980e+01 3 -3 8
179 60 2 4.0999999999999998e-01 -6.9138678358595609e+00 -1.2563863636274579e+01 -1.4880276257125340e+01 3 2 3
2177 726 2 4.0999999999999998e-01 -1.0751351290961786e-01 -6.4563701067657782e+00 -8.4088474893287888e+00 -3 -2 7
1035 345 2 4.0999999999999998e-01 -5.0722917412174766e+00 -6.0308995089932527e+00 -1.1508347068431132e+01 2 -1 1
1281 427 2 4.0999999999999998e-01 -1.4672403125575926e+00 -8.9885779763829561e+00 -9.7826824778225294e+00 3 -2 3
466 156 1 -8.1999999999999995e-01 -5.2024947368633967e-01 -1.0648203808684620e+01 -1.2844823402928597e+01 6 3 6
2245 749 1 -8.1999999999999995e-01 -5.3391514318960418e+00 -7.8397755832595637e+00 -7.7212550613000923e+00 -1 5 2
810 270 2 4.0999999999999998e-01 -5.8770276433566373e+00 -8.0572159648983153e+00 -9.2902893915122462e+00 -3 1 2
1413 471 2 4.0999999999999998e-01 -6.4623856906538926e+00 -1.1983434219136377e+01 -8.0773332299615390e+00 0 1 1
1033 345 1 -8.1999999999999995e-01 -4.4561187668710875e+00 -6.8032547375926793e+00 -1.1662800275131389e+01 2 -1 1
2183 728 2 4.0999999999999998e-01 -3.8726013671039041e+00 -7.8768104612425738e+00 -1.2861734412371533e+01 6 4 2
456 152 2 4.0999999999999998e-01 -3.2807618815388970e+00 -1.1214338627188017e+01 -1.1913118223427556e+01 -1 -2 0
1280 427 2 4.0999999999999998e-01 -2.4090473190622443e+00 -9.2675880748496056e+00 -8.4781005562096414e+00 3 -2 3
2182 728 1 -8.1999999999999995e-01 -3.4413270231524660e+00 -8.4648435906743735e+00 -1.3546042123264449e+01 6 4 2
467 156 2 4.0999999999999998e-01 -1.3574421769530360e+00 -1.1085983654156847e+01 -1.3172718118513668e+01 6 3 6
809 270 2 4.0999999999999998e-01 -5.6546975065659240e+00 -7.9136300743753347e+00 -1.0901727409399790e+01 -3 1 2
808 270 1 -8.1999999999999995e-01 -6.3179195216745452e+00 -8.1292221320823153e+00 -1.0184988824687338e+01 -3 1 2
2046 682 2 4.0999999999999998e-01 -2.4194674367018436e+00 -1.2064923772263430e+01 -1.4331246928635725e+01 0 1 -3
1058 353 2 4.0999999999999998e-01 -1.3916622466560948e+00 -1.2653595496638410e+01 -1.0115128324977276e+01 1 2 -1
813 271 2 4.0999999999999998e-01 -4.9104987692143869e+00 -1.4339842957945292e+01 -1.0880643994127265e+01 -4 5 5
812 271 2 4.0999999999999998e-01 -3.4670727475545551e+00 -1.3732173790459914e+01 -1.0417999935077624e+01 -4 5 5
2420 807 2 4.0999999999999998e-01 -5.5354991809000857e+00 -7.1762442841334124e+00 -1.4631880752464367e+01 2 4 8
811 271 1 -8.1999999999999995e-01 -3.9438486668874333e+00 -1.4551561051843416e+01 -1.0736350392014524e+01 -4 5 5
1555 519 1 -8.1999999999999995e-01 -7.4097743406904080e+00 -1.0482420795327531e+01 -7.8638562313773201e+00 3 -2 2
685 229 1 -8.1999999999999995e-01 -7.7756857776166299e-01 -7.9659588832729487e+00 -1.1325857396803851e+01 3 -3 8
455 152 2 4.0999999999999998e-01 -3.2084737655586490e+00 -1.0094911960849025e+01 -1.0726341148296655e+01 -1 -2 0
2044 682 1 -8.1999999999999995e-01 -2.5551443459940923e+00 -1.2200158162764978e+01 -1.3349737336766417e+01 0 1 -3
1165 389 1 -8.1999999999999995e-01 -6.4191491970594914e+00 -1.3638793308577764e+01 -1.0936774878968240e+01 6 3 3
1625 542 2 4.0999999999999998e-01 -1.4564520050938174e+00 -5.0138827380807669e+00 -1.2466113496965324e+01 0 3 3
1411 471 1 -8.1999999999999995e-01 -6.1279190824276331e+00 -1.2893253194216177e+01 -8.3231363421905513e+00 0 1 1
1166 389 2 4.0999999999999998e-01 -6.6209169128623362e+00 -1.2749385106044119e+01 -1.1347019198309368e+01 6 3 3
1034 345 2 4.0999999999999998e-01 -3.5739964984545622e+00 -6.4654337577507466e+00 -1.1991121833890837e+01 2 -1 1
1167 389 2 4.0999999999999998e-01 -6.1777255274159693e+00 -1.3514845903498580e+01 -9.9742733495222176e+00 6 3 3
1052 351 2 4.0999999999999998e-01 -1.8735149458171563e+00 -5.2793889898122988e+00 -7.8655813186431613e+00 3 -1 7
1624 542 1 -8.1999999999999995e-01 -1.7550497924175499e+00 -5.5668539178610139e+00 -1.1688218886038467e+01 0 3 3
2045 682 2 4.0999999999999998e-01 -3.0996502513640660e+00 -1.3025309524983525e+01 -1.3199085014718758e+01 0 1 -3
1057 353 1 -8.1999999999999995e-01 -2.0444402405475479e+00 -1.2604451263123773e+01 -9.3591364525068137e+00 1 2 -1
1279 427 1 -8.1999999999999995e-01 -2.2181003114981657e+00 -9.5411518964664666e+00 -9.4208412515437878e+00 3 -2 3
1444 482 1 -8.1999999999999995e-01 -6.4401739945590837e+00 -1.0921424272817415e+01 -1.1642396745207801e+01 5 -4 4
2419 807 1 -8.1999999999999995e-01 -6.4430051772648511e+00 -7.4590409679705854e+00 -1.4321209723151290e+01 2 4 8
1446 482 2 4.0999999999999998e-01 -7.0160991682323051e+00 -1.0140018685137946e+01 -1.1402036461055230e+01 5 -4 4
1445 482 2 4.0999999999999998e-01 -5.4910680337520716e+00 -1.0723999384468472e+01 -1.1396879092656251e+01 5 -4 4
1764 588 2 4.0999999999999998e-01 -1.9868021747332367e+00 -1.3683280076527065e+01 -7.6529052118248062e+00 2 -2 2
1577 526 2 4.0999999999999998e-01 -2.7563659443282180e+00 -7.3616290487536009e+00 -1.4904316535866190e+01 6 6 5
2421 807 2 4.0999999999999998e-01 -6.8161878664388151e+00 -8.1365342770300604e+00 -1.4955082764560647e+01 2 4 8
1368 456 2 4.0999999999999998e-01 -1.1652569266535250e+01 -1.3787035263974662e+01 -2.5996994751109952e+00 4 2 12
1366 456 1 -8.1999999999999995e-01 -1.2596064376913482e+01 -1.3618358786208081e+01 -2.3143527601995348e+00 4 2 12
1776 592 2 4.0999999999999998e-01 -1.4711751081393999e+01 -9.5881565129769335e+00 -7.2970744026608081e-01 1 5 2
324 108 2 4.0999999999999998e-01 -1.2468782391487169e+01 -7.7516368410892298e+00 -6.2153194731173755e-01 1 8 -4
535 179 1 -8.1999999999999995e-01 -9.9799075501318537e+00 -1.0161493087143882e+01 -5.1791985855090150e+00 3 1 5
537 179 2 4.0999999999999998e-01 -9.0471837571086002e+00 -1.0343512227839824e+01 -5.4905712032523848e+00 3 1 5
1288 430 1 -8.1999999999999995e-01 -9.5278006083993567e+00 -7.7732700036227884e+00 -3.1238689357567786e+00 5 -3 1
536 179 2 4.0999999999999998e-01 -1.0571016573287343e+01 -1.0005427994815550e+01 -5.9705843308819997e+00 3 1 5
852 284 2 4.0999999999999998e-01 -1.1204149577856287e+01 -1.1070369039840088e+01 -1.9502822776931641e+00 0 0 4
1290 430 2 4.0999999999999998e-01 -9.8576394781168286e+00 -8.6715398757091062e+00 -2.8333948548811030e+00 5 -3 1
851 284 2 4.0999999999999998e-01 -1.0835968329264983e+01 -1.0425015260070293e+01 -3.4044971852813539e+00 0 0 4
1367 456 2 4.0999999999999998e-01 -1.2598045005919277e+01 -1.3118576029579135e+01 -1.4481710240820433e+00 4 2 12
850 284 1 -8.1999999999999995e-01 -1.0824064890438827e+01 -1.0271418556042200e+01 -2.4164061244838848e+00 0 0 4
1558 520 1 -8.1999999999999995e-01 -1.3972228719541180e+01 -1.4889932171938229e+01 -4.6337069080144300e+00 1 7 2
1927 643 1 -8.1999999999999995e-01 -1.0002760214102121e+01 -1.3570401015158000e+01 -2.9139918780294281e+00 3 3 4
1365 455 2 4.0999999999999998e-01 -8.2644756625873921e+00 -5.6937186963369228e+00 -4.9335492355145441e+00 -4 3 9
2400 800 2 4.0999999999999998e-01 -1.2954891215841691e+01 -9.6321809128180860e+00 -5.9809111535036958e+00 5 -1 3
1169 390 2 4.0999999999999998e-01 -1.1281484855885282e+01 -8.1004398270323907e+00 -4.4401755583689297e+00 -1 0 1
1928 643 2 4.0999999999999998e-01 -9.4631922223084644e+00 -1.2728736401243282e+01 -2.8910828414226160e+00 3 3 4
1170 390 2 4.0999999999999998e-01 -1.2716234803438097e+01 -7.3238718984073286e+00 -4.3679611810045174e+00 -1 0 1
1168 390 1 -8.1999999999999995e-01 -1.2108038473110613e+01 -7.8630482209884649e+00 -4.9505792157105883e+00 -1 0 1
1929 643 2 4.0999999999999998e-01 -9.6151522924846446e+00 -1.4196508779190554e+01 -3.5906061664521740e+00 3 3 4
1559 520 2 4.0999999999999998e-01 -1.3560570211107581e+01 -1.4457618658700447e+01 -3.8313978479733315e+00 1 7 2
675 225 2 4.0999999999999998e-01 -1.2277850832027822e+01 -6.5029141983812817e+00 -6.2530633754082352e+00 4 2 -3
2372 791 2 4.0999999999999998e-01 -1.3762228075713619e+01 -5.2429971254303283e+00 -3.3096995497734127e+00 0 -1 4
2371 791 1 -8.1999999999999995e-01 -1.3521851794517726e+01 -6.2110908039062362e+00 -3.2384828349859944e+00 0 -1 4
2373 791 2 4.0999999999999998e-01 -1.3369986242651065e+01 -6.4470915188337372e+00 -2.2786399745970627e+00 0 -1 4
1844 615 2 4.0999999999999998e-01 -9.5271998351975711e+00 -1.4050946649195343e+01 -9.0251848264194123e-01 3 -2 3
322 108 1 -8.1999999999999995e-01 -1.3346850026793824e+01 -7.2897211376786819e+00 -7.4678679022767902e-01 1 8 -4
673 225 1 -8.1999999999999995e-01 -1.2486261216721477e+01 -5.6883654792027709e+00 -6.7944811481697869e+00 4 2 -3
2346 782 2 4.0999999999999998e-01 -1.4481751812783576e+01 -1.3310767729614222e+01 -2.4097794196197704e+00 -4 0 8
375 125 2 4.0999999999999998e-01 -1.0078222077477266e+01 -5.7696996919726438e+00 -3.6638401618524803e+00 -1 -2 1
2284 762 1 -8.1999999999999995e-01 -8.0419710003882141e+00 -1.1529366806818256e+01 -3.1946722647828292e+00 1 4 4
1843 615 1 -8.1999999999999995e-01 -1.0166532701762128e+01 -1.4469769491574226e+01 -2.5761655802005556e-01 3 -2 3
1145 382 2 4.0999999999999998e-01 -1.0274994053783136e+01 -6.6507575893905919e+00 -1.0014944674419191e+00 -5 -3 6
674 225 2 4.0999999999999998e-01 -1.3462543623893440e+01 -5.4830330049748621e+00 -6.7254248096285369e+00 4 2 -3
770 257 2 4.0999999999999998e-01 -1.4748320100987888e+01 -1.1175492050952361e+01 -6.6343084433438833e+00 1 0 0
1289 430 2 4.0999999999999998e-01 -8.5281961669238662e+00 -7.7607330197437960e+00 -3.0975752553274720e+00 5 -3 1
1710 570 2 4.0999999999999998e-01 -1.1317163195771084e+01 -9.4976900030734690e+00 -5.4727024834663140e-01 1 6 0
1146 382 2 4.0999999999999998e-01 -9.8111761275375642e+00 -5.3993834208109970e+00 -1.9426190733132316e+00 -5 -3 6
6 2 2 4.0999999999999998e-01 -1.2375217946145963e+01 -1.4333289360779759e+01 -7.3720160150594554e+00 2 1 8
944 315 2 4.0999999999999998e-01 -8.7144061474924897e+00 -1.0308910775791201e+01 -4.9314279580439901e-01 10 -4 1
945 315 2 4.0999999999999998e-01 -8.0134358442982290e+00 -8.8341330465584846e+00 -5.1438486225120528e-01 10 -4 1
1144 382 1 -8.1999999999999995e-01 -1.0400075329146972e+01 -5.6753135685969767e+00 -1.1829363578114531e+00 -5 -3 6
2398 800 1 -8.1999999999999995e-01 -1.3076803732698060e+01 -1.0096850487861200e+01 -6.8579955758127937e+00 5 -1 3
1363 455 1 -8.1999999999999995e-01 -7.6438761993986128e+00 -5.3175761322832340e+00 -5.6216123271255860e+00 -4 3 9
2286 762 2 4.0999999999999998e-01 -8.1869910125594725e+00 -1.0786048292893927e+01 -2.5415992488217523e+00 1 4 4
1172 391 2 4.0999999999999998e-01 -1.4677452005437665e+01 -1.4571392338657933e+01 -6.2310720265891888e+00 1 -2 5
2255 752 2 4.0999999999999998e-01 -7.4809025749481544e+00 -1.3507623366788877e+01 -1.9720279755247390e+00 6 0 2
943 315 1 -8.1999999999999995e-01 -8.1628394219875737e+00 -9.6747496520016405e+00 -1.0350573705584374e+00 10 -4 1
1349 450 2 4.0999999999999998e-01 -7.0610697196932151e+00 -6.0752118226140155e+00 -7.6525101064466128e-01 3 1 0
1053 351 2 4.0999999999999998e-01 -2.5950323002401312e+00 -6.6794654571577396e+00 -7.4343290888881395e+00 3 -1 7
1763 588 2 4.0999999999999998e-01 -1.4285831396318436e+00 -1.4496513735711144e+01 -6.3514358275641296e+00 2 -2 2
264 88 2 4.0999999999999998e-01 -2.8841582966277084e+00 -9.8902455483115954e+00 -6.0989725934074297e+00 1 8 6
1921 641 1 -8.1999999999999995e-01 -8.9332649560246224e-02 -1.0621478363213079e+01 -4.0132022493260706e+00 -3 2 0
383 128 2 4.0999999999999998e-01 -8.5057464796362403e-01 -9.7902229788754855e+00 -6.8835520292391816e+00 3 2 2
382 128 1 -8.1999999999999995e-01 -1.5008545978260379e-01 -1.0495194514638879e+01 -6.9948514726386710e+00 3 2 2
507 169 2 4.0999999999999998e-01 -6.8480587363086034e+00 -8.6012983991484866e+00 -2.2136754049804370e+00 0 -1 0
505 169 1 -8.1999999999999995e-01 -6.7816721867056913e+00 -7.9038787161179886e+00 -2.9272973059078353e+00 0 -1 0
263 88 2 4.0999999999999998e-01 -2.2958450763357714e+00 -8.3994792274468040e+00 -5.7854704126021357e+00 1 8 6
2254 752 1 -8.1999999999999995e-01 -7.2029741014258528e+00 -1.3951856932666439e+01 -1.1202827914491174e+00 6 0 2
1113 371 2 4.0999999999999998e-01 -1.7678707222787828e+00 -1.0357132874837728e+01 -4.0717587425479280e+00 4 3 3
657 219 2 4.0999999999999998e-01 -5.9418508520182058e+00 -5.6883970928427949e+00 -5.9982229460397143e+00 -3 -1 0
2246 749 2 4.0999999999999998e-01 -4.7450364824205025e+00 -8.5523865626522237e+00 -7.3480653513450234e+00 -1 5 2
1186 396 1 -8.1999999999999995e-01 -2.4578146866146486e+00 -1.4087441141576145e+01 -3.4327832864505758e+00 2 3 2
1505 502 2 4.0999999999999998e-01 -3.2271581863797767e+00 -1.2493857665435478e+01 -6.5222280570577116e+00 -2 -3 7
1922 641 2 4.0999999999999998e-01 -1.8778985308300022e-01 -1.0329312204837962e+01 -4.9645185405594834e+00 -3 2 0
262 88 1 -8.1999999999999995e-01 -2.5789247317697139e+00 -9.0302529567686598e+00 -6.5079993212223215e+00 1 8 6
2202 734 2 4.0999999999999998e-01 -8.1617375658880142e-01 -1.3643297852498295e+01 -3.5572960144556554e+00 6 5 0
1907 636 2 4.0999999999999998e-01 -6.1110492454551437e+00 -9.6324608879694846e+00 -3.8968934419645009e+00 1 -1 3
506 169 2 4.0999999999999998e-01 -5.8568706662452694e+00 -7.5234666438927746e+00 -2.9365895669989577e+00 0 -1 0
1111 371 1 -8.1999999999999995e-01 -2.7409960181230009e+00 -1.0340330594196967e+01 -3.8419710681711017e+00 4 3 3
1187 396 2 4.0999999999999998e-01 -3.3427907285521936e+00 -1.4473267929634636e+01 -3.1719906111922516e+00 2 3 2
1116 372 2 4.0999999999999998e-01 -4.6604134609687158e+00 -1.0796954527289046e+01 -2.3629780999180969e+00 -3 2 5
865 289 1 -8.1999999999999995e-01 -4.2995478578542379e+00 -8.1121626702346106e+00 -7.1214996394346564e-01 0 0 5
562 188 1 -8.1999999999999995e-01 -1.6233563438549545e+00 -7.2201134141242900e+00 -4.5030389165053375e+00 1 -1 0
1504 502 1 -8.1999999999999995e-01 -3.9238585108985298e+00 -1.1826331410679444e+01 -6.7850493025235554e+00 -2 -3 7
1762 588 1 -8.1999999999999995e-01 -1.9706251804003170e+00 -1.3712263093130986e+01 -6.6534273914667956e+00 2 -2 2
866 289 2 4.0999999999999998e-01 -4.4112124462545772e+00 -7.4759077948517456e+00 -1.4755426145452475e+00 0 0 5
1112 371 2 4.0999999999999998e-01 -2.8581487913608878e+00 -1.0553250764672478e+01 -2.8719206753210820e+00 4 3 3
2256 752 2 4.0999999999999998e-01 -6.7750740391058706e+00 -1.4831659174122986e+01 -1.3274232611158325e+00 6 0 2
2285 762 2 4.0999999999999998e-01 -7.1461753161562260e+00 -1.1423675782502398e+01 -3.6264558733962442e+00 1 4 4
253 85 1 -8.1999999999999995e-01 -1.2999566293650542e+00 -8.7823212728554658e+00 -4.8014432383793171e-01 5 3 4
563 188 2 4.0999999999999998e-01 -1.1235030009082489e+00 -7.5169920751266410e+00 -3.6893637683344913e+00 1 -1 0
564 188 2 4.0999999999999998e-01 -1.2217240943512575e+00 -6.3726379408318312e+00 -4.8502195487266846e+00 1 -1 0
2247 749 2 4.0999999999999998e-01 -5.0893731322283138e+00 -6.9562414550545828e+00 -7.3249775084622710e+00 -1 5 2
1188 396 2 4.0999999999999998e-01 -2.4849026604232503e+00 -1.3810651569265556e+01 -4.3933621261237032e+00 2 3 2
1114 372 1 -8.1999999999999995e-01 -4.1726321646044227e+00 -1.0701159897937401e+01 -1.4952509769429358e+00 -3 2 5
617 206 2 4.0999999999999998e-01 -3.3756790481256349e+00 -7.3573762337075603e+00 -3.7579704413114854e+00 -4 7 5
1906 636 1 -8.1999999999999995e-01 -5.5385418387370748e+00 -1.0450750029043835e+01 -3.8449700241193270e+00 1 -1 3
1908 636 2 4.0999999999999998e-01 -4.6216752438165578e+00 -1.0238068424274616e+01 -4.1828754561881194e+00 1 -1 3
1115 372 2 4.0999999999999998e-01 -4.1584741882610725e+00 -9.7383438895464849e+00 -1.2253575902457268e+00 -3 2 5
1348 450 1 -8.1999999999999995e-01 -6.2478420681686195e+00 -5.5177884529093344e+00 -5.9792588575482775e-01 3 1 0
616 206 1 -8.1999999999999995e-01 -4.1462445156634260e+00 -6.8931694806074084e+00 -3.3211653390213538e+00 -4 7 5
618 206 2 4.0999999999999998e-01 -4.2737727573882758e+00 -5.9936136576573169e+00 -3.7390092911110528e+00 -4 7 5
819 273 2 4.0999999999999998e-01 -6.2966766629644511e-02 -8.3573325403896099e+00 -1.5973895871325574e+00 -1 3 7
655 219 1 -8.1999999999999995e-01 -4.9885351483417590e+00 -5.6163736500589785e+00 -6.2915817673132661e+00 -3 -1 0
2543 848 2 4.0999999999999998e-01 -3.3027636844781636e+00 -1.1036612502088058e+01 -1.2890453217636555e-01 2 2 0
255 85 2 4.0999999999999998e-01 -1.5515087607126823e+00 -9.7403404652206333e+00 -3.4238264120511275e-01 5 3 4
1557 519 2 4.0999999999999998e-01 -7.4712332882875421e+00 -9.6161311790353992e+00 -7.3680510993035204e+00 3 -2 2
1506 502 2 4.0999999999999998e-01 -4.6420714390094275e+00 -1.2283227326862090e+01 -7.3099053491757262e+00 -2 -3 7
1051 351 1 -8.1999999999999995e-01 -1.7301561848232048e+00 -6.1776716208547882e+00 -7.4501366816495942e+00 3 -1 7
1611 537 2 4.0999999999999998e-01 -9.8714207409978361e+00 -1.2580455101040847e+01 5.5049092951068666e+00 -2 0 -2
1542 514 2 4.0999999999999998e-01 -1.0915744464491077e+01 -6.2801939715543025e+00 1.5925780047984546e+00 1 2 6
378 126 2 4.0999999999999998e-01 -1.2511406640665138e+01 -1.1862903120727351e+01 8.9986935605758411e-01 3 0 2
364 122 1 -8.1999999999999995e-01 -1.0741986971210210e+01 -1.4490752162719886e+01 2.4155996029077755e+00 3 2 0
365 122 2 4.0999999999999998e-01 -1.0135553713853955e+01 -1.3920781740674940e+01 2.9700633356195709e+00 3 2 0
2546 849 2 4.0999999999999998e-01 -9.2771576553841584e+00 -7.5220187623714478e+00 3.2690716357861653e+00 5 4 2
366 122 2 4.0999999999999998e-01 -1.0346977983028621e+01 -1.4609658297643186e+01 1.5046183288206549e+00 3 2 0
2545 849 1 -8.1999999999999995e-01 -8.5251284288613220e+00 -7.9062354412500531e+00 3.8046900966877821e+00 5 4 2
1709 570 2 4.0999999999999998e-01 -1.1938503448907586e+01 -9.6317390577967910e+00 9.5697280716909638e-01 1 6 0
376 126 1 -8.1999999999999995e-01 -1.2316800317693900e+01 -1.2467591979874777e+01 1.2751108228004782e-01 3 0 2
1540 514 1 -8.1999999999999995e-01 -1.0424910355499438e+01 -7.0914055133604688e+00 1.9105013891223379e+00 1 2 6
1647 549 2 4.0999999999999998e-01 -1.2355238590560358e+01 -1.3998038426367042e+01 3.0463572873373117e+00 7 5 4
2318 773 2 4.0999999999999998e-01 -1.2415296964441431e+01 -1.1316478189389231e+01 6.1725383811694172e+00 6 2 5
2317 773 1 -8.1999999999999995e-01 -1.1799542756654807e+01 -1.0529859287399148e+01 6.2187445444447214e+00 6 2 5
1968 656 2 4.0999999999999998e-01 -8.8202371193086755e+00 -8.4616831093639622e+00 5.2942179654931856e+00 -3 5 3
2319 773 2 4.0999999999999998e-01 -1.0851410567886365e+01 -1.0847623061066212e+01 6.2073833727031023e+00 6 2 5
1609 537 1 -8.1999999999999995e-01 -9.5469257886143311e+00 -1.1697888738291667e+01 5.1645606541789526e+00 -2 0 -2
1610 537 2 4.0999999999999998e-01 -8.8914515137075654e+00 -1.1311053780983201e+01 5.8132283488989316e+00 -2 0 -2
1966 656 1 -8.1999999999999995e-01 -9.1719219247659680e+00 -8.5627161394579794e+00 6.2248994004685443e+00 -3 5 3
559 187 1 -8.1999999999999995e-01 -1.4152625081639936e+01 -6.9385733815940540e+00 2.2327244330196692e+00 3 2 5
1646 549 2 4.0999999999999998e-01 -1.3267869085342834e+01 -1.3944661562820880e+01 4.3995152766601819e+00 7 5 4
2157 719 2 4.0999999999999998e-01 -8.7283463815438012e+00 -7.2236363839931172e+00 1.0204088643932749e+00 2 -4 9
1591 531 1 -8.1999999999999995e-01 -1.2625084329928264e+01 -7.8251802698508151e+00 4.4846266777677748e+00 2 2 5
2547 849 2 4.0999999999999998e-01 -7.6944667937559457e+00 -7.9238040585003393e+00 3.2481380438667387e+00 5 4 2
321 107 2 4.0999999999999998e-01 -1.2555032839667719e+01 -9.7217890063526724e+00 3.1599994234773590e+00 3 3 3
1593 531 2 4.0999999999999998e-01 -1.3290831652387007e+01 -7.9128275357512132e+00 5.2256773350702090e+00 2 2 5
1967 656 2 4.0999999999999998e-01 -9.8874095827863862e+00 -7.8829909387720818e+00 6.3864809382236416e+00 -3 5 3
560 187 2 4.0999999999999998e-01 -1.3532150342820286e+01 -7.3940102292594263e+00 2.8711960579298292e+00 3 2 5
319 107 1 -8.1999999999999995e-01 -1.2705992930229526e+01 -1.0475619161608444e+01 2.5204615114964568e+00 3 3 3
377 126 2 4.0999999999999998e-01 -1.1552193335227193e+01 -1.3068969768435842e+01 3.5941305055780504e-01 3 0 2
1708 570 1 -8.1999999999999995e-01 -1.1377648175798370e+01 -9.0657911402964615e+00 3.5265341141214535e-01 1 6 0
628 210 1 -8.1999999999999995e-01 -9.8765418729038572e+00 -1.1485953410128491e+01 2.5227823746318201e+00 -2 11 1
630 210 2 4.0999999999999998e-01 -9.5242876046315637e+00 -1.1389119546876259e+01 3.4536946961965782e+00 -2 11 1
629 210 2 4.0999999999999998e-01 -1.0855198437582281e+01 -1.1280512669083866e+01 2.5136621550934208e+00 -2 11 1
2471 824 2 4.0999999999999998e-01 -7.6939883539207417e+00 -1.2645358235159575e+01 2.0729889732594486e+00 4 6 3
805 269 1 -8.1999999999999995e-01 -1.0648228040131418e+01 -6.4453917958373701e+00 6.0093774698931917e+00 1 -1 -4
1592 531 2 4.0999999999999998e-01 -1.1748602227927647e+01 -7.5213630986432412e+00 4.8581664223533743e+00 2 2 5
1541 514 2 4.0999999999999998e-01 -1.0779235941250867e+01 -7.9004840399833789e+00 1.4415633547602305e+00 1 2 6
1122 374 2 4.0999999999999998e-01 -1.2080906443530425e+01 -1.3345517845300368e+01 6.1810609184517631e+00 -2 1 3
1645 549 1 -8.1999999999999995e-01 -1.3290328243757157e+01 -1.3978522642877877e+01 3.4003122993601558e+00 7 5 4
1121 374 2 4.0999999999999998e-01 -1.1201337355206546e+01 -1.4716078283488711e+01 6.0598069623400264e+00 -2 1 3
1120 374 1 -8.1999999999999995e-01 -1.1162046758928010e+01 -1.3716897143421082e+01 6.0475237633714798e+00 -2 1 3
320 107 2 4.0999999999999998e-01 -1.3523289419578258e+01 -1.0984133963250652e+01 2.7915644644724047e+00 3 3 3
1032 344 2 4.0999999999999998e-01 -8.5652520782762878e+00 -5.4249680277046775e+00 3.8016540410580717e+00 2 1 1
215 72 2 4.0999999999999998e-01 -1.4487722546083374e+01 -1.2819787611798791e+01 2.9733884158000876e+00 2 0 -1
1583 528 2 4.0999999999999998e-01 -1.4199685623179732e+01 -1.2974460635004858e+01 7.3671499495978736e+00 4 1 2
807 269 2 4.0999999999999998e-01 -1.1254403887739786e+01 -5.6646940186786399e+00 5.8573262693266877e+00 1 -1 -4
806 269 2 4.0999999999999998e-01 -9.9697267958942852e+00 -6.2099974484382905e+00 6.7052821168438008e+00 1 -1 -4
323 108 2 4.0999999999999998e-01 -1.3614184069730509e+01 -6.8445282207661400e+00 1.0784373049094320e-01 1 8 -4
2155 719 1 -8.1999999999999995e-01 -7.9704343619868325e+00 -7.3966139764617580e+00 3.9135744727691701e-01 2 -4 9
1517 506 2 4.0999999999999998e-01 -7.7958471338337931e+00 -1.4706567807455384e+01 7.2656311340687907e+00 3 -3 1
1839 613 2 4.0999999999999998e-01 -9.3219941767638677e+00 -9.8700625199992267e+00 7.3189573386762774e+00 -1 4 4
1584 528 2 4.0999999999999998e-01 -1.4485645059747597e+01 -1.1906209668209407e+01 6.1655481191832138e+00 4 1 2
1582 528 1 -8.1999999999999995e-01 -1.3869102819408077e+01 -1.2623068899730285e+01 6.4911953590009652e+00 4 1 2
1030 344 1 -8.1999999999999995e-01 -7.7668142527150295e+00 -4.9995943646009522e+00 3.3754945927370379e+00 2 1 1
1574 525 2 4.0999999999999998e-01 -9.5169583171954741e-01 -1.2421417257315081e+01 7.0669806518788931e+00 2 2 -1
2124 708 2 4.0999999999999998e-01 -7.3842597002527013e+00 -6.7421622339139180e+00 6.6585627915254939e+00 2 -3 0
1350 450 2 4.0999999999999998e-01 -5.8729724868837199e+00 -5.7370971226092955e+00 3.0287044779745287e-01 3 1 0
2470 824 1 -8.1999999999999995e-01 -7.4514224378075253e+00 -1.3586190708764835e+01 1.8362325438479843e+00 4 6 3
254 85 2 4.0999999999999998e-01 -1.8616238664066174e+00 -8.2020839894818351e+00 1.0969647700306950e-01 5 3 4