2593
Atoms. Timestep: 1000000
O 6.72201 9.08833 -2.25836
H 6.19622 8.2667 -2.03822
H 7.19393 9.41176 -1.43818
O 3.6485 -0.475867 12.7915
H 2.92233 -1.09103 13.0985
H 3.37284 0.471793 12.9526
O 12.3368 4.49676 -10.6776
H 12.5807 5.46604 -10.7095
H 13.1655 3.948 -10.5673
O 4.78392 -4.29057 8.88126
H 4.31417 -3.41155 8.96287
H 4.96595 -4.48295 7.91696
O 9.34164 -11.7163 12.1601
H 9.6771 -12.011 13.0549
H 9.99873 -11.9806 11.4542
O -10.3144 -2.24085 6.46764
H -9.69661 -2.65192 7.13801
H -9.78054 -1.85355 5.71596
O 1.35606 12.2383 7.45178
H 1.61239 11.5931 8.17153
H 1.70499 11.9131 6.57287
O 1.61522 6.97796 -14.3944
H 0.771946 7.50934 -14.4752
H 2.15824 7.3285 -13.6313
O 6.80412 -11.3206 13.4318
H 7.53271 -11.5668 12.7926
H 6.69749 -12.0466 14.1112
O -11.8184 -2.3528 -8.51553
H -12.6828 -2.58931 -8.07185
H -11.0618 -2.78065 -8.02092
O -13.632 8.6071 -12.1238
H -13.7039 9.60392 -12.0893
H -12.6871 8.33452 -11.9429
O 7.93328 1.81899 -14.7639
H 8.71136 2.43878 -14.8662
H 7.66975 1.77107 -13.8004
O 10.8159 4.09557 4.85465
H 9.883 4.06277 5.21341
H 11.4378 3.65558 5.50244
O -5.71703 6.84305 2.06488
H -5.48275 5.91028 1.79092
H -6.47294 6.81838 2.71911
O -7.65939 -5.13506 10.297
H -7.57036 -5.60417 11.1756
H -6.7997 -5.20827 9.79144
O 1.69752 -1.7422 13.9264
H 1.5942 -1.595 14.9101
H 0.906307 -2.24609 13.5799
O -1.61803 4.11846 -8.44787
H -2.11425 4.6418 -7.75513
H -1.464 4.69231 -9.25222
O -13.5466 8.67399 2.26024
H -12.7435 8.91926 1.71719
H -13.2763 8.04605 2.99009
O -6.93688 -1.39235 12.6128
H -7.92867 -1.36956 12.4869
H -6.62769 -0.516469 12.9832
O 8.19548 6.02488 12.8796
H 9.08313 5.56437 12.882
H 7.52853 5.46568 13.3721
O -7.79685 4.27118 10.858
H -8.01792 3.32665 11.1009
H -6.84578 4.46364 11.0998
O 6.83939 14.8846 4.13892
H 6.41528 14.8981 3.2334
H 6.13389 14.754 4.8355
O 0.636501 5.19374 7.16097
H 1.53509 5.51985 6.86737
H 0.0606762 5.03606 6.35874
O 5.70868 -2.25578 13.7962
H 5.82129 -2.71483 12.915
H 5.06983 -1.49306 13.6955
O 11.7762 9.09218 -1.42117
H 12.7314 8.79626 -1.42484
H 11.1812 8.29956 -1.55425
O -9.93777 7.95471 2.93586
H -10.3251 7.05757 2.72335
H -9.35863 8.2557 2.17822
O -4.68357 12.1131 -1.35551
H -4.48484 12.8034 -2.05127
H -3.8428 11.6257 -1.11984
O 12.2094 12.763 5.87727
H 11.7114 13.3986 6.46718
H 13.1895 12.8346 6.06255
O 13.2288 -2.63148 8.20298
H 13.1245 -2.37386 9.16359
H 13.1718 -1.81356 7.63046
O -6.94395 -2.47912 -10.173
H -7.85765 -2.12343 -9.97642
H -6.5272 -1.94076 -10.9055
O 14.8432 14.0944 6.61011
H 14.7646 -14.9731 6.56819
H -14.7234 13.7652 5.80725
O -12.5029 3.5814 -2.1053
H -13.4664 3.76235 -2.30268
H -12.4232 3.13657 -1.21323
O 13.1782 -2.94499 -7.1667
H 13.0465 -3.93628 -7.16493
H 12.7067 -2.54468 -6.38091
O 8.86568 -7.28263 5.64349
H 8.72937 -7.32727 4.65383
H 9.59211 -6.62737 5.85068
O 10.5374 4.95272 13.1303
H 11.4485 5.35177 13.2339
H 10.4046 4.24147 13.8206
O 8.02907 -8.79075 13.887
H 7.34819 -8.16171 13.5119
H 7.71507 -9.73248 13.7663
O 4.8416 10.8589 8.07255
H 4.48557 10.6917 7.15314
H 5.83207 10.9892 8.02785
O -9.53699 7.98985 14.6714
H -9.08647 8.63718 -14.7774
H -10.2789 8.45238 14.1858
O -12.7594 3.66094 2.39045
H -13.5917 4.19283 2.23435
H -12.8906 3.06059 3.17937
O 2.02893 1.71497 -12.2494
H 1.27465 2.35149 -12.0884
H 2.46668 1.48985 -11.3789
O -7.81805 -10.6854 11.092
H -8.77947 -10.9286 10.9634
H -7.42472 -10.4064 10.2159
O -11.1556 9.21217 -9.3321
H -10.6208 10.0531 -9.41371
H -11.2824 8.80852 -10.2382
O -14.8954 3.67287 -10.5398
H -14.5402 4.48878 -10.996
H -14.2772 3.40928 -9.79924
O 15.0195 -11.5938 -10.3791
H 14.7999 -10.8277 -9.77504
H 14.3423 -11.6442 -11.1132
O -2.76068 4.71566 -13.4325
H -3.69364 5.05667 -13.3171
H -2.21665 4.95457 -12.6282
O 14.9606 12.2616 -14.4627
H 15.0311 12.9005 14.8349
H 14.0128 11.9568 -14.369
O -1.21848 -8.32126 2.94998
H -0.760019 -7.51497 3.32377
H -0.950973 -9.12977 3.47416
O -9.34369 -13.9596 -13.5077
H -9.49662 -13.9342 -14.4956
H -8.38872 -13.7362 -13.3124
O 11.4343 -12.5874 10.2922
H 11.5577 -12.304 9.34117
H 12.2096 -13.1524 10.5748
O -11.5058 11.0673 -2.08044
H -12.1876 10.4982 -2.54021
H -11.5277 11.9901 -2.46527
O 2.56594 -7.9118 6.53615
H 1.59461 -8.14942 6.54488
H 3.05499 -8.48401 7.1945
O 2.91646 8.0059 -7.23427
H 2.4565 8.2047 -6.36886
H 2.87803 7.02293 -7.41403
O -11.5735 -1.5029 10.5036
H -12.043 -1.66811 9.63627
H -11.2015 -2.36387 10.8506
O 6.42215 -7.51945 7.18684
H 5.73568 -6.82595 7.40555
H 7.02696 -7.17495 6.46883
O 14.0155 7.96909 -0.479204
H 13.9626 8.36878 0.435926
H 14.0958 6.9751 -0.404664
O 10.7575 7.02266 -12.9584
H 10.5865 6.04528 -12.8338
H 11.3798 7.15656 -13.7296
O 0.76484 -2.78035 6.99733
H 0.438401 -2.78831 7.94252
H 1.19904 -3.65633 6.78727
O -7.20658 -10.0592 8.68806
H -7.20301 -10.4034 7.74917
H -6.28695 -9.75319 8.93439
O -10.035 -2.30464 -5.20439
H -9.07446 -2.25819 -4.93014
H -10.3754 -1.38164 -5.38395
O -13.0431 10.0088 -7.38517
H -12.1642 9.74542 -7.7827
H -13.7821 9.74174 -8.0037
O -10.6917 10.5168 4.15083
H -10.4833 9.63871 3.7201
H -11.526 10.895 3.74986
O 6.97849 -12.8097 -14.1038
H 7.24761 -12.7014 -13.1468
H 6.39881 -13.6191 -14.1975
O -12.4727 12.6117 -7.91116
H -12.1477 12.6937 -8.85332
H -12.8632 11.7017 -7.7713
O 3.17848 -7.89134 -12.4783
H 3.59452 -8.31071 -13.2852
H 2.84504 -6.97795 -12.7119
O -13.9415 1.98627 10.9122
H -12.9665 2.1383 10.7499
H -14.1531 1.01696 10.7869
O 2.48458 10.6288 9.58031
H 3.3622 10.4317 9.14333
H 2.52987 10.3778 10.5472
O 10.6764 -4.1466 -12.8375
H 10.5854 -3.75207 -13.7519
H 10.5564 -5.13805 -12.8889
O 6.21033 -0.375659 3.78354
H 5.84173 -1.30475 3.75298
H 5.45729 0.282225 3.772
O 2.90233 -10.2002 13.4937
H 2.8332 -11.0038 14.0849
H 2.05416 -10.0942 12.9747
O -1.38807 -8.84247 9.1635
H -0.865429 -9.31024 8.45072
H -1.38749 -7.85839 8.98574
O 11.1465 1.10005 0.222364
H 10.148 1.0673 0.178084
H 11.4555 0.693241 1.08202
O -1.90376 10.4174 -8.45082
H -1.88205 11.2433 -9.01416
H -2.84171 10.2429 -8.15113
O 14.0426 5.79497 -7.97388
H 13.2385 5.2253 -7.80377
H 14.3224 5.69985 -8.92921
O -12.658 -10.6433 13.0473
H -13.4517 -11.2511 13.0734
H -12.878 -9.78744 13.5154
O -13.1201 -4.41241 1.39385
H -12.335 -4.25141 1.99192
H -12.8084 -4.82727 0.539011
O 4.65732 -11.702 -1.2804
H 4.45595 -12.4396 -0.635868
H 3.80415 -11.3654 -1.67889
O -9.0465 -7.98613 8.6746
H -8.33295 -8.68649 8.69316
H -8.96954 -7.41022 9.48849
O -5.06418 11.683 8.84706
H -6.02744 11.8587 8.64386
H -4.54712 11.6325 7.9926
O -1.90157 -6.32894 7.38254
H -1.91681 -5.51229 6.80559
H -1.27454 -6.18457 8.14805
O 12.7282 -9.96612 12.1317
H 12.8486 -10.6189 11.3838
H 13.6074 -9.54175 12.3485
O 6.2473 -14.812 1.18347
H 6.60452 14.8833 0.32513
H 6.98686 -14.3673 1.68877
O -3.3513 6.4048 12.3699
H -3.16292 6.72914 13.2969
H -2.55009 6.56197 11.7925
O 10.2666 8.07253 7.31141
H 10.3678 8.87992 6.73012
H 9.66245 8.28782 8.07868
O -13.0254 -12.1412 3.8489
H -13.5074 -11.7875 3.04733
H -12.1535 -11.6624 3.95167
O -13.2833 9.9459 -14.8681
H -13.8264 9.25368 -14.3928
H -13.8073 10.7953 -14.931
O -3.45272 -13.8811 4.71532
H -2.837 -13.38 4.10716
H -3.27835 -13.6112 5.6623
O -2.87118 -13.7516 -2.20475
H -3.46277 -13.1874 -1.62874
H -1.97722 -13.3126 -2.29518
O 8.03279 -14.0994 7.38941
H 8.53286 -14.4043 6.57887
H 7.05133 -14.2201 7.24053
O 7.35763 7.19279 10.1667
H 7.48155 6.68445 11.0189
H 7.52806 6.58707 9.38949
O -2.40397 -7.59505 -12.3544
H -1.82248 -7.03299 -12.9426
H -2.89218 -7.00758 -11.709
O 9.8499 -8.83754 -13.9157
H 10.5831 -8.15749 -13.9165
H 9.17751 -8.60364 -14.618
O -14.7202 -1.30981 -0.0432309
H -13.7217 -1.25783 -0.0282194
H 15.0006 -0.894512 -0.885883
O 13.1424 -3.81696 -10.9868
H 13.8207 -3.09555 -11.1262
H 12.5502 -3.87744 -11.7904
O 10.3436 10.7524 6.21512
H 10.1137 11.0431 7.1439
H 11.0508 11.3537 5.84316
O -2.41012 -1.42169 -4.98037
H -3.30956 -0.993884 -4.89099
H -2.50997 -2.41634 -4.95365
O -10.1008 2.68722 -6.49163
H -10.5824 3.56299 -6.45813
H -9.91986 2.44258 -7.44421
O 11.5873 -0.00980879 13.0622
H 11.237 0.306505 13.9438
H 11.9177 0.772803 12.5346
O 8.99973 9.32579 -8.955
H 8.9728 8.79644 -8.10702
H 8.13893 9.82265 -9.06525
O -6.03097 -9.26994 -12.8747
H -6.09057 -8.92495 -11.938
H -6.75958 -9.93673 -13.0313
O 7.59421 2.4798 -12.1149
H 7.59229 3.4515 -11.8786
H 8.45941 2.06868 -11.8278
O 6.59999 -9.72781 -12.9599
H 6.47056 -10.6956 -12.744
H 7.22305 -9.6401 -13.7372
O 11.7456 5.07386 -0.131183
H 11.3389 4.49618 0.576551
H 12.5088 4.58948 -0.558946
O -0.401071 9.45197 7.06601
H -0.338357 10.437 7.22638
H 0.233961 9.19157 6.33873
O 4.22707 -2.8911 -13.7759
H 4.53199 -2.59576 -14.6813
H 5.01792 -2.97961 -13.1703
O -0.923722 2.26972 -11.4149
H -0.73623 3.18578 -11.0603
H -0.966805 1.6207 -10.6553
O 3.76705 -5.99637 13.3861
H 3.89703 -5.76852 12.4212
H 4.07485 -6.9333 13.5518
O -4.90356 8.95981 9.40246
H -5.09004 9.9088 9.1482
H -4.63928 8.91868 10.366
O 6.0015 -12.7403 -8.46495
H 5.67432 -13.3149 -7.71471
H 5.70694 -11.7965 -8.31493
O -1.15508 13.9449 -0.132388
H -1.9105 14.5284 -0.430365
H -1.3492 12.9958 -0.38046
O 1.86401 -14.8092 -4.14269
H 2.44187 -14.6471 -4.94259
H 2.43225 -14.8322 -3.32014
O 4.50047 5.29809 13.866
H 5.21996 4.60379 13.8487
H 3.6247 4.86529 14.0798
O -8.87473 6.60905 -11.6614
H -8.97464 6.00568 -12.4525
H -8.85127 6.0611 -10.8252
O -0.00294213 1.68205 -5.07249
H 0.205651 0.722345 -5.26079
H 0.52635 1.98922 -4.2816
O -14.8324 -1.93424 -11.3913
H -15.0262 -1.53381 -10.4957
H -14.5383 -1.21542 -12.0212
O 7.27701 0.999008 -2.935
H 6.64116 0.299589 -3.26138
H 7.30595 1.75463 -3.58938
O 7.66599 -14.7591 -6.48431
H 7.63418 -13.7672 -6.36087
H 6.75331 14.9214 -6.34185
O -1.90494 10.333 2.00918
H -2.32544 9.53926 2.44865
H -2.52581 11.1147 2.0685
O 10.0681 -8.88173 11.8824
H 9.36429 -8.71023 12.5717
H 10.6508 -9.63734 12.1817
O 6.63738 10.6385 -8.968
H 6.45644 10.8915 -8.01762
H 6.04724 9.87399 -9.22749
O 7.7349 12.4362 -10.6281
H 8.6543 12.6867 -10.3249
H 7.32806 11.8025 -9.97004
O -12.2535 -6.50106 5.832
H -12.6635 -6.87216 4.9988
H -11.9238 -7.25195 6.40426
O 12.6741 -7.60946 -1.54341
H 12.1984 -7.93548 -2.36035
H 12.0631 -7.02036 -1.01466
O -3.89607 11.2189 -4.22216
H -3.26863 11.8591 -4.6655
H -4.80955 11.3208 -4.61611
O 14.4608 -3.78419 2.08966
H -14.7522 -4.10395 1.67229
H 13.8626 -3.40876 1.38162
O -11.1614 1.28313 9.73023
H -11.3913 0.330837 9.93092
H -10.2918 1.51507 10.1662
O -3.70246 -1.88714 4.67359
H -3.75052 -1.51517 5.6006
H -3.81993 -1.14733 4.01109
O -8.03304 7.06379 -1.39748
H -8.33965 7.84209 -1.94543
H -8.8129 6.67198 -0.909311
O -2.90947 -4.3284 -5.86052
H -3.41266 -4.58507 -5.03533
H -3.54605 -3.95986 -6.53799
O -11.8254 3.15919 13.3867
H -11.0185 3.69893 13.1466
H -11.6276 2.18771 13.256
O -11.5722 -4.79985 -1.99592
H -11.747 -5.71525 -1.6333
H -11.3416 -4.86437 -2.96682
O 10.1964 13.3456 1.04711
H 9.9795 12.7205 0.297222
H 10.4909 12.8195 1.8449
O -12.1929 -3.06244 14.3898
H -12.6005 -2.25864 13.9565
H -12.755 -3.86653 14.1962
O -0.973369 9.16288 -2.14289
H -1.88797 8.97307 -2.49996
H -0.457006 8.30896 -2.07808
O 12.0589 -10.9822 -3.42669
H 11.1177 -11.2501 -3.6329
H 12.5394 -11.7511 -3.00475
O -2.33514 12.1236 -10.5333
H -2.61176 11.644 -11.3661
H -2.94747 12.8984 -10.3758
O 4.67849 -6.28388 10.7276
H 4.68796 -7.20527 10.3391
H 4.81294 -5.61316 9.99816
O 0.942357 -13.4505 7.28919
H 0.308065 -14.1957 7.08334
H 1.03152 -12.8579 6.48859
O 12.4848 -1.4627 -9.30754
H 12.3888 -2.17791 -9.99984
H 12.6275 -1.88314 -8.4115
O -0.988958 13.643 4.42353
H -0.667543 13.0174 3.71261
H -0.729721 14.5791 4.18587
O -6.11729 3.8052 0.377543
H -5.56425 2.9972 0.17434
H -7.08027 3.60364 0.198485
O -7.82187 12.1887 8.86607
H -7.90379 11.4122 9.49092
H -8.03543 13.0342 9.35535
O -0.454816 -8.63129 6.58029
H -1.13673 -9.3401 6.39978
H -0.807186 -7.74528 6.27889
O -6.95535 -13.2634 -2.62153
H -7.71531 -12.7624 -3.03563
H -6.0966 -12.7919 -2.82216
O -14.2323 -0.184967 -8.62946
H -14.3444 0.228993 -9.53283
H -13.4039 -0.745008 -8.61995
O 0.585148 4.75764 11.8927
H 1.25571 4.47015 12.5766
H 0.73708 4.25165 11.0437
O -3.81692 11.7023 6.55511
H -3.64893 10.7524 6.29147
H -2.95277 12.2056 6.55683
O 10.1639 -9.67818 6.71116
H 9.83151 -8.89004 6.19313
H 9.88471 -9.59034 7.66738
O -4.23067 3.90365 -3.06241
H -3.75357 4.31455 -2.28552
H -4.96657 4.51138 -3.36095
O 11.8886 -6.20013 -10.7081
H 12.5503 -6.73067 -11.2379
H 12.2391 -5.27404 -10.5685
O -0.285429 7.92617 0.918614
H -1.10017 7.56432 0.46553
H -0.532827 8.73345 1.45444
O 7.75716 -12.1904 -5.65357
H 7.17722 -12.2938 -4.84548
H 7.72964 -11.2403 -5.96428
O 11.4591 4.6569 -5.35589
H 12.0319 4.09893 -5.95635
H 11.6158 5.62509 -5.55099
O 3.5281 -2.96336 0.648981
H 2.85042 -3.63745 0.355112
H 3.49113 -2.16798 0.043984
O 5.17256 7.89135 14.3531
H 5.67268 8.29766 13.5884
H 4.80321 7.00429 14.0761
O -1.44317 -10.2638 -7.96257
H -2.43646 -10.3776 -7.94166
H -1.18363 -9.75059 -8.78066
O 14.3348 -0.307082 4.10583
H 15.0001 -1.02107 3.8877
H 14.4368 0.451436 3.4622
O 6.01411 9.08519 12.1492
H 6.42189 8.58225 11.3871
H 6.15517 10.066 12.0147
O -6.884 8.47449 5.2582
H -7.30303 8.91442 6.05249
H -6.81153 9.13505 4.51093
O -8.64489 3.49599 3.42188
H -7.86862 4.07124 3.67976
H -8.50005 3.13391 2.50105
O 7.95772 4.07199 9.8623
H 8.82473 4.55495 9.98498
H 8.13851 3.12133 9.61017
O 13.6157 -9.67764 -5.43125
H 12.9764 -10.3684 -5.09338
H 14.2117 -9.38164 -4.68482
O -9.03301 11.2495 -9.83795
H -8.93241 12.155 -9.42587
H -8.13011 10.8843 -10.0648
O -13.7532 -8.44262 14.8182
H -12.9164 -8.41695 -14.6983
H -14.4515 -8.97044 -14.7618
O -11.0457 0.406072 13.226
H -11.9087 -0.0979127 13.192
H -10.314 -0.205836 13.5263
O -10.1821 -3.51267 -11.1749
H -9.93195 -2.62864 -11.5698
H -11.1655 -3.53093 -10.9947
O 5.91097 11.114 -6.25623
H 6.74229 11.4413 -5.80702
H 5.35522 10.605 -5.59888
O -5.46801 0.989717 -13.6195
H -4.49772 1.23052 -13.5959
H -5.98328 1.62527 -13.0445
O -8.94146 -0.707819 0.347721
H -9.36406 0.133867 0.0115881
H -9.16543 -1.46254 -0.268912
O 2.33241 -0.385583 6.83262
H 1.5947 -1.05807 6.7729
H 2.0225 0.484141 6.4485
O -5.64508 1.28364 -0.558234
H -6.04626 1.37685 -1.46948
H -6.16858 0.614801 -0.0303916
O -6.16198 5.68479 -14.2223
H -6.75327 5.88841 -15.0026
H -5.90869 6.53711 -13.7647
O 12.1529 13.3657 -8.41941
H 11.2454 13.6284 -8.74717
H 12.4555 14.0139 -7.72067
O 11.4693 -14.0435 5.69324
H 10.7216 -13.8924 5.04662
H 12.3259 -13.7156 5.29483
O -3.43648 14.7 -9.68865
H -3.32957 14.8129 -10.6765
H -3.60297 -14.472 -9.26737
O -5.84803 -4.61378 0.877774
H -6.77881 -4.85559 0.603561
H -5.88181 -3.90955 1.58695
O -10.1085 -6.49842 14.0776
H -9.7499 -7.37571 14.3966
H -9.39188 -6.00463 13.585
O 2.43819 5.89634 -4.36272
H 2.9339 5.38812 -3.65844
H 1.90974 5.2592 -4.9238
O -0.525748 14.2348 7.14697
H -0.0114001 13.4659 7.52682
H -0.543977 14.1634 6.14968
O 9.56277 9.63099 -13.5048
H 9.98706 10.0013 -12.6784
H 9.8069 8.66604 -13.601
O 9.08369 -5.0853 12.6258
H 8.3149 -5.7242 12.6535
H 9.94269 -5.59525 12.6716
O -3.79138 -12.1666 -12.9721
H -3.48955 -11.2205 -13.0895
H -3.91113 -12.592 -13.8692
O 5.04804 14.3185 -6.45989
H 4.77081 13.5685 -7.06045
H 4.321 15.0043 -6.42567
O 8.05872 -0.653839 14.0568
H 7.95665 0.255616 14.4599
H 7.16757 -1.10647 14.0255
O 11.2043 2.41104 8.60469
H 11.2403 3.18169 9.24094
H 11.9431 2.49597 7.93616
O 14.1524 12.1877 -10.6594
H 13.5906 12.7344 -11.2802
H 14.3285 12.7079 -9.82371
O -13.5511 1.25389 -3.8433
H -14.1309 1.52428 -4.61187
H -13.3268 2.05975 -3.29531
O 5.91918 -5.10733 -4.22473
H 5.6264 -4.81421 -3.31458
H 5.7107 -6.07789 -4.34544
O 12.7365 2.64218 6.41731
H 13.5966 3.02224 6.75768
H 12.8652 1.67668 6.19088
O 9.97077 -8.87436 -8.34364
H 10.8404 -9.30001 -8.59387
H 9.70058 -9.18001 -7.43063
O -14.5203 13.5071 1.0706
H -14.598 12.6094 1.50434
H -13.6025 13.8732 1.22432
O -12.933 -14.6064 12.132
H -12.9848 -13.6521 12.4263
H -12.1853 -14.7129 11.4766
O -2.30309 8.2757 -10.9318
H -2.6759 8.11416 -10.0181
H -1.38024 8.65282 -10.8534
O 1.71962 11.5082 -5.98902
H 2.28897 12.026 -6.62762
H 2.27351 11.2177 -5.20875
O 8.68774 -5.13188 -2.3194
H 8.92665 -4.16098 -2.3361
H 7.73236 -5.23534 -2.04269
O 2.95622 5.46157 1.27064
H 3.63024 5.96378 1.81238
H 3.28116 4.52855 1.11603
O 11.241 10.517 9.18671
H 11.1595 9.79955 9.87855
H 12.1356 10.9568 9.26639
O 5.69902 -4.96492 -1.43693
H 5.94998 -5.50839 -0.635886
H 5.762 -3.99236 -1.21293
O -1.34562 -13.157 12.6085
H -2.03249 -13.8339 12.3438
H -0.433494 -13.5592 12.5294
O -9.66546 -1.70178 13.6341
H -10.3504 -2.22556 13.1277
H -9.307 -2.25866 14.3834
O 12.1727 -12.1787 -11.4075
H 11.9433 -11.8719 -12.3312
H 12.2104 -13.1778 -11.3879
O -0.383011 -3.76599 12.1375
H -1.20205 -3.79972 12.7103
H 0.0724442 -4.65609 12.1545
O -7.37777 -2.5023 -4.47213
H -6.7344 -1.99703 -3.897
H -7.65617 -3.34077 -4.00364
O 1.92979 10.6101 -1.44397
H 1.87539 10.7642 -2.43054
H 1.69037 9.66061 -1.24121
O -10.1712 12.4825 12.2677
H -10.3217 12.6308 13.2451
H -11.0072 12.1239 11.8523
O 1.02105 14.9 0.923826
H 1.75941 14.2269 0.881281
H 0.204612 14.5275 0.482614
O -5.37443 5.13089 -11.0443
H -5.37482 5.98848 -11.5587
H -5.60703 5.3149 -10.0893
O 10.3358 -6.2354 8.01028
H 10.9914 -6.49074 8.72089
H 9.46847 -6.70599 8.17237
O 3.3664 3.70652 10.2376
H 2.37505 3.57797 10.2108
H 3.57579 4.68436 10.239
O -1.09684 -6.33137 14.3337
H -0.867564 -5.99984 -14.8147
H -0.392421 -6.03877 13.687
O -6.29261 -1.8979 8.87387
H -7.06755 -2.51177 8.72341
H -5.69838 -2.2787 9.58231
O 4.5626 -0.463652 -7.77665
H 5.40936 0.0597201 -7.87204
H 4.70226 -1.39016 -8.12607
O 2.54671 -5.33505 -14.2683
H 2.91496 -4.42171 -14.0945
H 3.08302 -5.77969 -14.9857
O -3.07053 12.0156 10.9927
H -2.9527 13.0015 10.8743
H -3.7936 11.6907 10.3831
O 8.64867 1.76164 8.87051
H 8.49075 0.978044 9.47138
H 9.61559 1.79861 8.6181
O 5.58368 -12.4162 5.2275
H 6.55106 -12.1683 5.27973
H 5.19254 -12.0559 4.38059
O -5.82676 12.5458 -10.7778
H -5.716 13.2963 -11.4294
H -6.14778 12.9086 -9.90297
O -0.329383 13.1347 -4.9316
H 0.0440349 12.2869 -5.30826
H 0.420707 13.7437 -4.67382
O -6.09148 -12.2562 4.21208
H -5.31803 -12.8617 4.39941
H -5.75745 -11.4032 3.81102
O -10.4663 -11.0629 3.92296
H -10.7869 -10.2365 3.46021
H -9.46801 -11.0471 3.97971
O 1.57553 11.4198 -9.5776
H 1.62503 10.4361 -9.4048
H 1.57862 11.5856 -10.5638
O -7.7483 -11.5625 6.26915
H -8.54205 -12.1651 6.35137
H -7.27572 -11.7493 5.40789
O 14.9058 6.496 6.33831
H 14.1365 6.85137 6.86931
H -14.8524 7.19127 5.68763
O 0.172324 6.35402 -2.25187
H 0.299647 6.20715 -3.2328
H 1.02716 6.68269 -1.85033
O -0.74704 -12.8266 -4.58519
H -1.11647 -13.6852 -4.94078
H -0.0325634 -12.4915 -5.19935
O 4.06825 5.93739 -11.8135
H 4.66497 6.69543 -12.0768
H 4.35327 5.10703 -12.2924
O 0.649228 -10.2971 12.0517
H -0.107168 -10.1118 12.6791
H 0.372537 -10.9974 11.3936
O 8.11927 3.14423 -8.07531
H 7.28361 3.62515 -8.34062
H 8.91549 3.66197 -8.38835
O -11.231 10.9602 6.79495
H -10.7579 10.8019 5.92825
H -10.8975 11.8083 7.20661
O -1.04471 5.1773 -11.2346
H -0.161841 5.1836 -11.7042
H -1.21547 6.0774 -10.8337
O 14.4955 -5.76566 5.38987
H -14.767 -5.1712 5.4604
H 13.6869 -5.27543 5.71534
O -14.6835 13.8022 13.1867
H -14.1342 14.305 12.5193
H -14.8158 12.863 12.8698
O -0.500102 5.34438 4.71574
H -0.0548152 5.36093 3.8205
H -1.48263 5.49177 4.60208
O -3.83181 9.13573 -2.4872
H -4.82242 9.13564 -2.35044
H -3.58977 9.82433 -3.17078
O -10.6981 5.14591 2.7617
H -9.96627 4.57915 3.14023
H -11.5426 4.61239 2.71491
O -10.5446 -9.75784 -14.2762
H -11.4314 -9.90683 -13.8386
H -10.0455 -10.6232 -14.3213
O 1.88114 12.1626 0.881198
H 1.15361 12.2839 1.55649
H 1.75911 11.2873 0.413299
O -4.56126 13.7084 4.52909
H -4.21393 13.1005 5.24317
H -4.09756 14.5923 4.58921
O 3.96628 -7.76246 1.15145
H 3.77736 -8.66706 1.53359
H 3.13509 -7.39765 0.73188
O 14.9826 -6.88362 9.78097
H 14.604 -7.30909 8.95899
H -14.4461 -6.15714 9.51801
O 5.03565 3.69283 -13.3442
H 5.21532 2.71228 -13.2651
H 5.66955 4.09566 -14.0044
O 14.1381 -10.8808 7.4349
H 13.2411 -10.9884 7.86368
H 14.1984 -9.9775 7.01023
O -8.53557 14.0723 3.61224
H -8.86128 13.4856 2.87079
H -8.14849 13.506 4.33987
O 9.86064 14.7004 -10.8243
H 9.22245 -14.785 -10.3159
H 10.7378 -14.8916 -10.9152
O -6.9246 5.19219 -4.04815
H -7.84849 4.94721 -3.75418
H -6.58266 5.94239 -3.48221
O 5.25069 6.8496 -5.29834
H 5.22907 6.10394 -5.96432
H 4.54072 6.70215 -4.60971
O 3.95237 -13.1976 -12.2895
H 3.45705 -12.382 -11.9904
H 4.53318 -13.5265 -11.5448
O -0.559653 -13.6443 -8.21787
H -0.477613 -14.501 -8.72722
H -1.51708 -13.356 -8.20252
O -12.1819 11.9798 10.4162
H -12.1545 11.1823 9.81341
H -12.8385 12.6445 10.0598
O -2.56203 9.4699 5.44316
H -3.22777 8.7324 5.55672
H -1.71919 9.23563 5.92769
O 13.2868 14.987 -6.51328
H 13.1626 14.1973 -5.91248
H 12.7122 -14.3224 -6.19548
O 14.4178 10.5175 -1.50131
H 14.7592 9.74977 -0.959022
H 14.0137 11.2012 -0.893634
O -3.30353 -9.53537 -13.9196
H -2.8804 -8.70089 -13.5666
H -4.285 -9.51786 -13.7287
O -6.09951 -12.3144 12.3445
H -5.35192 -11.8712 12.8392
H -6.58825 -11.6334 11.7992
O 4.16887 -8.70441 -14.7608
H 4.89048 -9.17133 -14.2497
H 3.69648 -9.3625 14.7164
O -2.76152 2.0858 -4.88508
H -1.76841 2.11343 -4.999
H -3.01909 2.61464 -4.07637
O 5.68401 -5.79523 3.34969
H 6.6587 -5.9428 3.18172
H 5.15109 -6.2304 2.624
O -2.94884 -12.8749 7.29844
H -2.32204 -13.1105 8.04115
H -3.85937 -12.7006 7.67337
O 6.54607 -6.82965 0.380072
H 7.36093 -7.34984 0.63584
H 5.73688 -7.40935 0.475912
O 9.80768 -7.08362 0.721403
H 10.6537 -7.56726 0.945785
H 9.9975 -6.38014 0.0364934
O -5.5092 5.93959 -1.15003
H -6.20076 6.66179 -1.13628
H -5.7674 5.21857 -0.507
O -4.6254 14.9636 1.44099
H -5.16454 14.7177 2.24653
H -5.1379 -14.4469 0.883543
O 10.8888 11.9665 3.17225
H 11.7347 11.4412 3.07976
H 10.9744 12.6041 3.93781
O 7.36508 9.19269 8.35447
H 7.61965 10.1448 8.5237
H 7.36682 8.68866 9.21816
O 7.35829 -12.3357 -11.4507
H 8.00795 -11.5873 -11.3168
H 6.71466 -12.3592 -10.6857
O -6.60342 -14.1508 -14.3021
H -5.91794 -13.5768 -14.75
H -6.50463 14.9687 -14.6166
O 9.5778 -1.87619 4.17388
H 9.31159 -1.87712 3.20996
H 9.09513 -1.14259 4.65228
O -8.48173 -9.07952 13.5193
H -8.90065 -9.86698 13.9715
H -8.22505 -9.32894 12.5856
O 0.0607998 2.91735 -14.248
H -0.384533 3.04752 -13.3621
H -0.344858 2.13015 -14.7125
O 13.9363 -7.39861 -12.1372
H 14.6191 -7.35299 -11.408
H 14.0515 -6.61755 -12.751
O 6.00162 0.251075 -10.7654
H 6.44745 0.521427 -9.91208
H 6.63238 0.388568 -11.5291
O -9.68424 12.6044 1.36647
H -10.3668 13.3282 1.26578
H -10.1378 11.7526 1.62869
O 3.7375 -5.31643 -9.31044
H 4.40642 -5.65136 -9.97406
H 2.82925 -5.65898 -9.55079
O 0.17927 11.7511 3.02045
H -0.555352 11.1941 2.63313
H 0.39985 11.4206 3.9381
O 9.16303 14.472 14.2237
H 10.1416 14.3795 14.0398
H 8.92204 13.9278 15.0274
O 6.99253 -8.39272 -10.3408
H 7.03531 -9.0114 -11.1253
H 7.59373 -7.60976 -10.5006
O -3.64779 -3.12287 8.85408
H -3.62009 -2.41629 8.14698
H -3.94362 -2.71743 9.71901
O 13.8161 -5.0359 -14.0724
H 13.4654 -4.09995 -14.0404
H 14.8124 -5.02163 -13.9871
O 0.616054 -12.431 10.0728
H 0.768136 -12.7375 9.13313
H 1.1863 -12.9675 10.6948
O 4.93461 -14.1894 13.2168
H 5.38828 -13.8633 12.3875
H 5.62288 -14.4177 13.9054
O 12.2795 -0.591298 -2.54911
H 13.2759 -0.632588 -2.62317
H 12.0035 0.329912 -2.27483
O -7.05028 0.980673 -9.96803
H -7.3174 0.836502 -10.9209
H -6.09694 0.705477 -9.84384
O -12.7933 12.7485 4.73994
H -12.2865 13.6104 4.72351
H -12.5 12.2043 5.526
O 8.37357 -6.37155 3.01348
H 8.8955 -5.6899 3.52627
H 8.9339 -6.72665 2.26518
O 12.3325 -13.5534 -2.09987
H 11.6201 -13.254 -1.46521
H 12.5398 -14.5181 -1.9372
O -14.6057 9.74047 10.6604
H -14.5101 9.02069 11.348
H -13.7452 9.84037 10.1607
O 11.4487 -11.1273 -13.8153
H 11.0737 -11.8511 -14.3946
H 10.8242 -10.3463 -13.8114
O 3.44098 -10.9948 6.65006
H 3.21661 -11.352 7.55675
H 2.6651 -11.1355 6.03504
O 14.2239 -13.6156 9.22584
H 14.1254 -13.1555 8.34346
H 14.4838 -12.9475 9.923
O -12.4571 -11.0372 -12.7631
H -13.2797 -10.6668 -13.1944
H -12.3208 -10.5996 -11.8744
O -1.32792 -8.19595 -6.13346
H -1.98718 -8.06112 -5.39373
H -1.49836 -9.07665 -6.57543
O -4.84145 -11.6335 -1.80347
H -4.47637 -11.2409 -2.64764
H -5.7772 -11.31 -1.66289
O 6.70137 3.0419 3.72721
H 7.28465 3.77436 3.37606
H 7.02258 2.76524 4.63291
O -13.1419 -9.31271 -10.8038
H -13.0552 -8.39771 -10.4097
H -13.9697 -9.74994 -10.4524
O -14.1155 0.936171 -11.1084
H -13.1855 0.761139 -10.785
H -14.3005 1.91836 -11.0754
O 6.25645 11.9368 -0.0431439
H 6.95637 11.2445 -0.218878
H 6.57007 12.8223 -0.385851
O -6.40427 -12.9129 -7.29153
H -6.05128 -12.9604 -6.35711
H -7.2555 -12.3882 -7.30001
O -14.3711 -14.68 -12.2021
H -13.3822 -14.614 -12.3355
H -14.564 -14.9145 -11.2493
O -7.82075 -5.23004 5.69006
H -8.18216 -6.15006 5.53855
H -6.89364 -5.29279 6.05957
O 6.04665 -3.32095 -11.3592
H 5.88195 -4.3062 -11.4058
H 5.83727 -2.9912 -10.4386
O 3.6939 -14.893 -2.02919
H 3.76869 -14.3836 -1.17192
H 3.69137 14.1896 -1.83486
O 1.39489 12.6523 12.247
H 0.772439 12.747 11.4701
H 2.32494 12.88 11.9587
O -11.1329 5.59924 -3.10124
H -11.4999 4.8007 -2.62408
H -11.3177 6.4224 -2.56435
O 13.2666 8.65841 5.05929
H 12.6726 8.83762 5.84355
H 14.0822 9.2339 5.12045
O 12.9547 0.385156 -7.23968
H 13.5402 -0.0857697 -7.89962
H 12.4802 -0.28942 -6.67421
O 13.2947 9.69347 -11.2909
H 13.7084 10.5755 -11.0654
H 12.3487 9.67648 -10.967
O -10.2412 -3.85808 11.4802
H -9.39826 -4.33063 11.223
H -10.8244 -4.47853 12.0045
O 8.92377 -6.35401 -7.55104
H 9.13914 -7.12597 -8.14913
H 8.8611 -6.67253 -6.60519
O 4.57684 8.10744 5.23926
H 4.68912 7.49363 4.45782
H 5.06221 8.96378 5.0629
O 8.71353 -4.13931 -9.10862
H 8.99279 -4.70134 -9.88717
H 8.65841 -4.70929 -8.2888
O -6.88885 -4.78776 -8.41355
H -6.96316 -4.25117 -9.25413
H -7.80426 -5.01062 -8.07836
O -14.4307 8.45239 -5.59685
H -14.4066 7.46361 -5.74431
H -14.0336 8.91719 -6.38819
O 10.0071 4.41981 -12.2163
H 9.25467 4.65138 -11.5997
H 10.8512 4.32016 -11.6895
O -1.68778 -3.87752 5.60786
H -1.07805 -3.48494 6.29643
H -2.12948 -3.14128 5.09515
O 2.10597 4.42286 14.8016
H 1.32343 3.90205 -14.9207
H 2.04502 5.36687 -14.9377
O 5.97332 -10.1299 7.77338
H 6.19984 -9.15822 7.7064
H 5.2623 -10.3532 7.10658
O -7.88122 1.84681 11.7864
H -7.25226 1.49916 12.4818
H -7.74216 1.34707 10.9315
O 14.0315 3.45988 13.1194
H 14.4949 2.85727 12.4697
H 14.6584 3.6939 13.8626
O 10.0493 -12.8879 -0.557724
H 9.54985 -13.2919 -1.32412
H 9.66212 -13.2176 0.303313
O -6.66231 10.0086 -11.7927
H -6.23667 9.2366 -11.3207
H -6.06945 10.8108 -11.7214
O 6.61756 -6.73773 12.7878
H 6.01962 -6.72848 11.9863
H 6.29883 -6.05886 13.4492
O 13.424 6.05844 -2.99911
H 13.8906 6.71741 -2.40915
H 12.4557 6.29913 -3.06716
O 11.8833 13.5585 12.358
H 12.1499 13.7406 13.3045
H 11.8354 12.5708 12.2093
O 14.8642 -0.836403 -2.69103
H -14.9619 -0.142748 -3.37111
H -14.4062 -1.42111 -2.52044
O -11.5913 -9.06698 -4.53605
H -10.6244 -8.94523 -4.31168
H -11.6733 -9.59032 -5.38422
O 8.25996 11.7102 8.45706
H 7.53883 12.3897 8.5925
H 9.12141 12.0607 8.8246
O -0.431312 -3.27731 -9.36017
H -0.0662369 -2.9795 -10.2422
H 0.311248 -3.64107 -8.79777
O -3.85618 -13.1462 14.6211
H -3.72882 -13.968 14.0657
H -3.98207 -12.3554 14.0221
O 12.0606 8.24983 14.5755
H 11.2598 8.32783 13.9816
H 12.683 7.55935 14.2069
O 0.113429 -0.0664635 -9.49705
H 0.980492 -0.44705 -9.17554
H -0.553626 -0.0811184 -8.75218
O -10.632 12.1658 -5.80046
H -10.9696 12.6156 -4.97358
H -11.1812 12.4544 -6.58477
O -6.03672 0.277582 4.36084
H -6.44504 -0.159927 3.55966
H -6.73424 0.396339 5.06751
O 4.93327 6.96539 -1.44784
H 5.39755 6.21286 -0.980765
H 4.1561 6.60755 -1.96549
O 9.68084 3.52443 -3.93574
H 9.36032 4.18432 -3.25617
H 10.4029 3.93983 -4.48905
O -14.9296 -6.69211 -0.174263
H 14.8924 -6.61456 0.79303
H 14.3342 -6.99177 -0.694525
O 12.6494 3.08646 -7.50331
H 11.6639 3.11189 -7.67087
H 12.971 2.1407 -7.54922
O 5.20856 -9.66 -8.39173
H 5.79579 -9.16424 -9.03157
H 4.28921 -9.26697 -8.41002
O -5.76147 -12.8674 7.75894
H -6.03831 -13.7941 7.5049
H -6.42343 -12.2108 7.39732
O -12.5863 6.69021 -8.53532
H -12.1773 7.5528 -8.83296
H -13.3942 6.87951 -7.97722
O 6.34721 13.764 -3.55259
H 6.74341 13.1357 -4.22215
H 5.50971 13.3666 -3.17748
O 3.79677 -10.4633 -4.48075
H 3.18841 -11.1184 -4.03266
H 3.26758 -9.89244 -5.1085
O 4.73346 -10.7892 11.3519
H 4.16454 -10.3716 12.0604
H 5.65764 -10.9304 11.7069
O 6.41974 2.33432 -0.590325
H 6.70024 1.82735 -1.40538
H 6.91364 1.98493 0.20592
O 14.7923 -7.91212 6.95851
H -14.4918 -8.41959 6.59124
H 14.5652 -7.15805 6.3422
O -11.564 -14.8553 4.08973
H -10.7331 -14.7133 4.62773
H -12.1719 -14.0692 4.20151
O 14.6094 -13.2627 5.99776
H 14.2644 -13.1875 5.06218
H 14.6855 -12.3501 6.39936
O -7.38801 -4.72942 -13.7972
H -8.33551 -4.412 -13.7585
H -6.79656 -3.97824 -14.0903
O -8.39701 8.91144 0.975979
H -7.83312 9.73546 0.920794
H -8.26195 8.35941 0.153162
O 5.38936 -14.2409 7.25433
H 5.13555 -13.5046 6.62709
H 4.57632 -14.7735 7.48952
O -9.76556 7.17145 5.93817
H -9.0678 7.65912 6.46288
H -9.6913 7.42066 4.97256
O 3.16555 -5.61372 -6.32172
H 3.67703 -6.34849 -5.87617
H 3.38589 -5.59811 -7.29702
O 12.9606 -0.216783 6.38802
H 13.3593 -0.095702 5.47895
H 11.9816 -0.401282 6.30077
O 3.34878 0.8806 -9.9986
H 3.31585 0.857436 -8.9994
H 4.20347 0.467919 -10.3136
O -7.50128 -9.28294 3.97095
H -8.05337 -8.69606 4.56322
H -6.61918 -9.46116 4.40702
O 6.97945 -9.2691 3.21063
H 6.50971 -8.55491 3.72956
H 6.78879 -9.15295 2.23587
O -3.04664 5.23181 -6.35465
H -3.79203 5.07552 -7.00271
H -3.41671 5.60896 -5.50564
O 3.36409 9.66381 -10.9317
H 3.9457 10.0871 -11.6263
H 3.93373 9.16243 -10.2804
O -3.53283 -6.18714 -10.3836
H -3.95851 -5.28304 -10.4212
H -3.78182 -6.63729 -9.52601
O -4.80528 -6.9459 1.64529
H -4.95501 -7.42363 0.779629
H -5.44365 -6.17959 1.71784
O -6.77125 11.1536 0.718912
H -5.91262 10.9666 0.241653
H -7.07191 12.0845 0.511536
O 2.42304 -8.76187 -6.50558
H 2.47706 -9.02667 -7.46838
H 1.47525 -8.54433 -6.27239
O 2.93521 -13.4028 0.38093
H 2.82014 -12.4338 0.59948
H 2.15874 -13.9202 0.74076
O -9.99112 -3.14033 -0.292499
H -10.81 -3.44872 -0.776528
H -9.31957 -3.88091 -0.26819
O 7.40473 -3.58785 -14.577
H 6.68185 -3.33658 14.8428
H 8.24373 -3.09581 -14.8094
O -11.0097 0.17292 -5.6631
H -10.6913 0.923404 -6.24224
H -12.0062 0.109176 -5.71802
O -11.3895 4.67282 -10.1261
H -11.8521 5.38486 -9.59788
H -10.4034 4.72919 -9.96969
O -6.91699 -8.78637 -10.0414
H -6.80351 -7.84517 -10.3596