2593
Atoms. Timestep: 18495000
O -2.96812 14.7757 -1.66774
H -2.52351 13.9424 -1.99643
H -3.96073 14.669 -1.72603
O -14.2778 -13.716 -7.8519
H 14.5853 -13.9737 -7.82115
H -13.7854 -14.3406 -8.458
O 10.7109 8.69619 -8.58699
H 9.73759 8.6481 -8.3626
H 10.8608 9.41192 -9.26911
O 10.9934 -13.2058 -10.9841
H 10.5644 -13.9631 -10.4916
H 10.3168 -12.4872 -11.1452
O 12.3079 -8.95849 3.87867
H 12.0446 -9.84573 4.25751
H 12.9657 -9.09432 3.13779
O -5.89253 -8.33724 2.78057
H -6.00277 -7.47985 3.28332
H -5.00266 -8.34409 2.32438
O 0.596596 1.30159 -14.5591
H 1.14562 0.827196 14.5816
H 0.704842 0.847014 -13.675
O 13.3253 5.62922 -1.04686
H 14.2781 5.6343 -1.35034
H 13.2919 5.50318 -0.0553807
O 9.02898 7.27902 -3.7458
H 8.03432 7.22622 -3.83463
H 9.29666 6.9985 -2.82402
O -11.1841 11.064 -5.48036
H -11.2584 12.0609 -5.45644
H -10.511 10.7635 -4.80457
O 9.41355 -4.56974 3.00585
H 9.48139 -5.28867 2.31407
H 9.68281 -4.93727 3.89605
O -8.02945 1.0929 14.0588
H -8.04504 0.327431 14.7021
H -8.88011 1.61258 14.1384
O -3.69559 -1.21712 13.4294
H -3.17439 -0.898959 14.2213
H -3.21255 -1.97815 12.9963
O 0.182476 -13.8643 0.973558
H -0.712541 -13.6144 1.34303
H 0.557503 -14.6292 1.4973
O -2.69561 10.9923 5.31839
H -2.87556 11.8866 4.90868
H -2.86004 11.0379 6.30373
O 6.30803 -8.75347 -1.90957
H 6.22927 -8.69861 -2.90497
H 5.60313 -8.18338 -1.48751
O -0.57771 11.7062 10.3219
H -1.42134 12.2324 10.2151
H 0.169684 12.3218 10.572
O 13.9772 9.8485 5.04944
H 13.4585 10.1693 4.25688
H 13.3815 9.83045 5.8525
O 3.31501 -11.3859 -13.1941
H 2.75725 -11.1606 -12.3952
H 3.21818 -10.6664 -13.8819
O -10.8328 3.50254 11.8773
H -10.2108 3.00702 11.271
H -10.6648 3.2278 12.824
O -14.5136 12.4882 -1.68542
H -14.1808 12.8271 -2.56545
H -14.4439 13.2139 -1.00087
O 10.8698 -11.0176 -0.232506
H 11.0782 -11.7814 -0.843456
H 11.696 -10.4738 -0.0850649
O 7.67675 8.67568 -8.23526
H 7.65303 7.73618 -8.57702
H 7.37771 9.30041 -8.9566
O -4.22302 -13.7795 4.79662
H -5.02038 -13.2344 4.53767
H -3.46927 -13.1708 5.04434
O -13.8402 -1.27811 -2.50962
H -13.882 -1.79187 -3.36654
H -13.0726 -1.6082 -1.96021
O 3.89488 5.59903 -10.6596
H 2.98607 5.25015 -10.8885
H 4.49157 4.83636 -10.41
O -5.78568 -6.0376 -14.3087
H -6.10342 -5.95049 -13.3645
H -5.33994 -5.18781 -14.5901
O -2.59968 1.01577 12.0403
H -2.3434 1.90343 12.4229
H -3.56483 0.836633 12.2312
O 4.64676 -7.57117 -7.93708
H 3.93739 -8.10686 -8.39519
H 4.2236 -6.81347 -7.44024
O -8.67222 14.1618 -2.63837
H -9.02505 13.2261 -2.64604
H -7.81146 14.1976 -3.14614
O -5.35067 6.58568 4.52975
H -5.7383 7.13074 5.27317
H -4.36624 6.4812 4.67127
O -6.18748 -3.14477 -10.2499
H -5.93416 -2.73761 -9.37234
H -6.03557 -2.48049 -10.9818
O 0.972631 13.3674 -2.63402
H 0.564354 14.2094 -2.28125
H 1.92652 13.5377 -2.88128
O 0.410257 3.58004 -13.2293
H 0.607465 4.50994 -13.5398
H 0.646195 2.93027 -13.9519
O -11.7578 -2.08501 -7.50525
H -12.1195 -3.0158 -7.55854
H -12.4995 -1.43033 -7.65107
O 7.51703 -5.19637 6.01002
H 7.04131 -5.27728 5.13413
H 8.4991 -5.32128 5.86872
O -6.37713 -8.51634 13.4548
H -6.3754 -7.51634 13.4591
H -5.43516 -8.85119 13.4305
O 14.7277 9.31791 1.27207
H -14.4113 9.33132 1.99589
H 14.2749 10.2084 1.22669
O -9.91495 0.636644 -12.8679
H -9.87447 1.22848 -12.0629
H -9.09274 0.0686818 -12.9058
O -2.1881 -3.8344 9.59725
H -2.23508 -3.22483 8.8059
H -1.34804 -4.37504 9.55214
O 8.08004 -12.8836 6.01537
H 7.25419 -12.6165 6.51201
H 8.85227 -12.923 6.64952
O 14.6095 -14.197 0.0232704
H 13.7724 -14.2682 0.565683
H 14.3731 -14.1062 -0.94415
O 12.3435 -7.06492 -0.759346
H 12.7946 -7.87435 -0.383415
H 12.469 -6.29344 -0.135581
O 9.25666 7.69088 5.70027
H 10.1858 7.65397 6.06822
H 8.84059 6.78312 5.75396
O -7.62271 11.4343 -12.3293
H -7.34003 12.1556 -11.6971
H -8.26875 11.8085 -12.9946
O 1.13828 8.49123 -12.1546
H 0.549982 9.25354 -12.4244
H 2.00529 8.8467 -11.8053
O -10.586 3.02215 14.4589
H -10.7362 2.44055 -14.5705
H -10.1585 3.87939 14.7459
O -11.8949 6.81595 -6.35419
H -12.8918 6.89393 -6.3652
H -11.6149 6.22768 -5.59552
O -10.9224 -9.27126 11.7861
H -10.0834 -8.73795 11.678
H -10.9086 -10.046 11.1539
O -2.82453 11.7437 7.92524
H -2.51158 12.5042 8.49431
H -3.81904 11.6639 7.99313
O -13.4779 13.7025 0.682995
H -12.5184 13.8842 0.467582
H -14.0161 14.5318 0.532783
O 5.35577 -2.74198 -8.95637
H 4.81123 -1.91365 -9.0882
H 5.18943 -3.10802 -8.04074
O 11.437 3.99238 -2.79181
H 10.5748 3.78265 -2.33063
H 12.1129 4.2878 -2.11661
O -13.6449 13.4906 3.74056
H -13.4836 14.0392 2.92018
H -12.8025 13.4372 4.27678
O -11.2775 6.40353 12.08
H -12.0479 6.6123 11.4776
H -11.0545 5.43114 12.0111
O -8.48124 10.3703 11.9649
H -9.09526 9.78189 12.491
H -7.75878 10.7175 12.5629
O -10.4181 8.18542 7.65611
H -10.1383 7.69697 6.82957
H -11.412 8.13403 7.75329
O 11.4704 -7.29295 -10.9421
H 11.9986 -6.7002 -10.3341
H 10.7213 -7.71316 -10.43
O -14.4148 7.50402 4.50036
H 14.5841 6.94729 4.4641
H -14.6636 8.46669 4.60703
O -6.18601 -10.9058 10.0093
H -6.08368 -11.8304 9.64223
H -7.1542 -10.7182 10.1749
O 1.27808 11.1277 8.2844
H 0.860496 10.6325 7.52259
H 0.659361 11.1142 9.06992
O 2.27177 -3.26076 -12.0859
H 3.00036 -3.22666 -12.77
H 2.57819 -3.79647 -11.299
O -1.10823 -8.42331 7.55246
H -1.99726 -8.69546 7.92069
H -1.16254 -7.48566 7.20912
O 7.02892 -12.6213 11.8862
H 6.46015 -13.2479 12.419
H 7.54938 -13.1391 11.2072
O -9.89336 -14.4316 -6.17432
H -8.90194 -14.561 -6.19348
H -10.1157 -13.5111 -6.49555
O 6.01073 -10.2631 13.5427
H 5.60404 -10.5521 12.6761
H 6.90348 -9.84706 13.3697
O 7.11436 -7.48974 10.3697
H 7.84449 -7.38122 9.69501
H 7.5152 -7.64567 11.2725
O 12.3091 0.538128 4.82286
H 11.7017 0.374768 4.0454
H 13.057 -0.125466 4.80673
O 4.44155 -5.52983 0.502862
H 4.42956 -6.30012 -0.134747
H 5.38396 -5.22411 0.638579
O 12.5056 -4.63369 0.640565
H 12.0445 -3.95121 0.0733952
H 12.203 -4.53839 1.58892
O 12.2057 -4.93797 6.5529
H 12.7688 -4.11967 6.4376
H 12.0678 -5.11307 7.52777
O 13.2984 -13.713 3.75254
H 12.9518 -13.9499 4.66017
H 13.3616 -14.5399 3.19366
O 12.28 -3.35944 -5.37376
H 12.9503 -3.01932 -6.03335
H 12.7451 -3.60841 -4.5242
O -3.0976 8.39316 -2.98166
H -2.484 8.31376 -3.7673
H -2.68953 9.00056 -2.30007
O 7.14761 -11.7577 -5.95569
H 6.71926 -12.5612 -5.54221
H 7.68575 -11.2744 -5.26516
O -6.8072 9.49637 -10.2096
H -5.9 9.80643 -9.92524
H -7.09261 10.0028 -11.0233
O 9.0423 -6.83702 8.51089
H 10.0315 -6.81837 8.6563
H 8.8287 -7.4502 7.75037
O -14.8516 9.57479 -7.99124
H -14.7497 9.67174 -8.98131
H -14.8709 8.6041 -7.75161
O 4.51514 -9.76535 -5.03753
H 5.08072 -8.94956 -4.91651
H 4.34861 -10.1905 -4.14783
O -13.7488 1.29184 9.43998
H -13.8575 0.723707 10.2557
H -13.9165 0.73876 8.62387
O 7.71072 11.1549 -1.02468
H 7.03107 10.7963 -1.66461
H 8.50237 10.5443 -1.00242
O 12.5736 13.9523 14.6728
H 12.9851 14.8627 14.7173
H 13.1447 13.3556 14.1091
O 11.6704 1.47154 -12.8165
H 12.6468 1.35499 -12.6349
H 11.3623 2.34348 -12.4359
O -7.01776 -3.6685 5.93869
H -7.99797 -3.85264 5.86581
H -6.76497 -2.94827 5.29262
O -0.025542 -9.5894 2.41937
H -0.455791 -9.44963 3.31121
H 0.470871 -10.4575 2.42117
O -1.82463 9.14686 7.86518
H -1.88877 10.1223 7.65428
H -0.951857 8.79041 7.53166
O -8.79185 -7.7684 10.6164
H -7.99424 -7.66937 11.2114
H -9.28011 -6.89717 10.5657
O -2.9979 -7.89359 -6.30976
H -3.27583 -7.92688 -5.34972
H -2.64971 -8.78903 -6.58721
O 8.58647 -10.6091 -3.9488
H 8.60256 -11.1725 -3.12276
H 9.01328 -9.72515 -3.75774
O 8.49407 -6.19043 -9.4888
H 8.4277 -5.29812 -9.93534
H 7.6532 -6.37123 -8.97863
O -7.5988 -0.746516 -13.808
H -6.70378 -0.709805 -13.3634
H -7.59654 -1.46556 -14.5029
O -9.86259 12.7119 -14.0525
H -10.1505 13.2773 -13.2794
H -10.668 12.3181 -14.4955
O 0.471917 8.46859 -3.94134
H 1.00357 8.51621 -4.78698
H 0.397961 9.38251 -3.54221
O 11.41 -11.6245 4.929
H 11.7885 -12.478 5.28718
H 11.1959 -11.7362 3.95859
O -0.471858 4.18455 2.83343
H -0.196222 4.4686 1.91508
H 0.341892 3.97816 3.3768
O -1.507 3.21932 -7.05448
H -2.0975 3.21361 -6.24745
H -0.759466 3.86895 -6.91593
O -13.7031 6.54995 9.98309
H -13.5149 7.01081 9.11579
H -13.6931 5.55978 9.84343
O -12.5535 3.5165 -5.44142
H -12.2897 2.76001 -4.84296
H -12.8232 4.30284 -4.88555
O 6.44695 -1.75559 -4.65312
H 7.17758 -1.10175 -4.84984
H 6.63365 -2.21231 -3.7833
O -13.9369 8.4453 -3.68892
H -14.169 8.71424 -2.75413
H -13.9343 9.25379 -4.27745
O -12.5137 11.6683 14.3348
H -13.0993 10.9862 14.7728
H -11.9949 11.2374 13.5964
O -2.6162 0.454764 -10.8185
H -3.48868 0.26702 -10.3673
H -1.95354 -0.251672 -10.5698
O -0.755498 10.0034 -8.3979
H -0.786263 10.7185 -9.09621
H -1.0792 10.3736 -7.52716
O -7.78891 -13.0056 7.04438
H -7.94634 -12.0181 7.05933
H -7.29673 -13.2772 7.87143
O -8.388 14.0953 1.59498
H -9.30805 14.4358 1.78874
H -7.77571 14.8674 1.4249
O -7.54164 6.59598 11.2425
H -8.29863 6.40768 10.6168
H -7.0487 5.74729 11.4342
O -14.3339 -12.4224 3.64718
H 14.6689 -12.9728 3.76895
H -14.2263 -11.8057 4.42699
O -12.8528 -9.20581 0.0257965
H -13.4763 -8.49766 -0.305405
H -13.0814 -10.0791 -0.404505
O -1.83584 12.2122 -10.728
H -2.16604 11.6187 -11.4621
H -2.41346 13.0266 -10.6726
O 13.9911 4.95008 7.58449
H -14.866 4.95911 7.3486
H 13.6194 5.87472 7.50155
O 1.58386 2.5652 -8.75311
H 1.23443 3.47958 -8.95761
H 1.26811 1.92364 -9.4522
O -13.3117 9.95224 5.77224
H -12.8388 10.0109 4.89309
H -14.2858 10.1354 5.6396
O 3.25861 -10.7778 -7.28526
H 3.93679 -11.2855 -7.8166
H 3.62636 -10.5813 -6.37632
O 4.64183 -10.4336 11.081
H 4.28587 -9.84371 10.3562
H 4.57551 -11.3896 10.7954
O 9.30818 -0.175977 6.61877
H 8.85641 -1.06266 6.52015
H 9.26348 0.319219 5.75112
O -4.38432 8.77147 -11.7958
H -4.35475 7.88808 -11.3281
H -5.27569 8.88686 -12.2342
O -4.22123 10.2235 -9.36293
H -4.35218 11.177 -9.63461
H -3.86985 9.70085 -10.1397
O 5.64136 1.68014 -2.80936
H 5.08565 0.87315 -3.00931
H 5.12248 2.3063 -2.22737
O 12.7785 7.61703 -13.2917
H 13.254 8.49671 -13.2832
H 12.1917 7.56314 -14.0996
O 14.5319 -4.52174 2.37676
H 13.9694 -4.68237 1.5657
H 14.1482 -5.02207 3.15295
O -6.56586 11.3573 13.9938
H -5.72036 11.1372 14.4803
H -7.01368 12.1333 14.438
O -11.761 -12.4782 3.05736
H -11.3986 -12.4088 3.98685
H -12.7558 -12.3788 3.07909
O 7.60197 0.487813 -11.9256
H 8.38543 -0.129992 -11.993
H 7.60786 1.11936 -12.701
O -14.1354 10.1652 -10.6642
H -14.5604 11.0643 -10.7688
H -13.395 10.0671 -11.3293
O -9.25184 -2.7227 -0.447865
H -10.1899 -2.64463 -0.785573
H -8.80895 -3.51185 -0.873459
O -13.0373 -12.0148 -0.7695
H -12.2056 -12.124 -0.225009
H -13.7832 -12.5281 -0.345179
O 5.86314 14.2059 -7.6279
H 6.57166 14.9044 -7.52773
H 6.2328 13.3156 -7.36175
O 0.622614 -10.8729 -6.29104
H 0.621625 -11.7484 -5.80793
H 1.4294 -10.8177 -6.87932
O 5.74505 10.4449 -12.997
H 5.72161 11.4006 -13.2904
H 6.3872 10.3452 -12.2369
O 3.54247 -5.58132 -6.51633
H 3.92831 -4.73527 -6.88422
H 3.95923 -5.77959 -5.62918
O 1.4159 -2.64566 9.29523
H 1.77925 -1.9787 9.94574
H 1.93484 -3.49752 9.36638
O 10.4302 -13.8785 -13.8616
H 10.9328 -13.7505 -13.0066
H 10.4128 -14.8505 -14.0957
O -14.4249 -14.3227 -14.3273
H -14.5459 -13.4206 -14.7414
H -13.5634 -14.7212 -14.6422
O 0.912353 1.89621 9.96143
H 0.486334 2.04782 10.8534
H 1.19966 0.941227 9.88727
O 7.1045 13.6315 -3.3317
H 7.49303 13.7625 -2.41961
H 6.89633 12.6631 -3.46935
O -4.03133 13.6217 12.2803
H -4.65895 14.3134 12.6375
H -4.13039 12.7777 12.8074
O 7.63686 -4.47928 9.85922
H 7.53562 -5.34918 9.37646
H 8.54713 -4.10444 9.68336
O -11.9795 13.0982 -8.55572
H -11.3417 13.5497 -9.17971
H -11.5723 13.045 -7.64389
O -13.0265 -3.21328 1.75114
H -13.8063 -3.78732 2.00109
H -12.4525 -3.06202 2.55588
O 3.92496 10.9625 8.88115
H 2.9946 11.3261 8.83351
H 4.00809 10.3627 9.67697
O 6.37107 11.9701 9.93201
H 5.54674 11.8377 9.38157
H 6.13869 12.4727 10.7647
O -10.7317 -5.54614 10.5902
H -11.1447 -4.77855 11.0804
H -11.4515 -6.10263 10.1751
O 13.1172 -8.84222 9.01401
H 13.3872 -8.04589 9.55528
H 12.6309 -9.49258 9.5976
O 3.41636 13.3162 -3.54162
H 3.93109 14.1425 -3.7705
H 3.78376 12.5414 -4.05611
O -4.12124 -6.36463 9.85968
H -4.81097 -5.88404 9.31806
H -3.21275 -6.0188 9.62502
O -9.44041 -14.1812 10.6656
H -9.71077 -14.2642 9.7064
H -9.12762 14.7594 11.0019
O 6.82262 5.25581 8.75104
H 6.49733 6.18312 8.93623
H 7.2982 4.90231 9.55658
O 12.8059 2.33173 6.80164
H 13.3307 3.17265 6.6698
H 12.7184 1.853 5.92804
O -2.38103 -3.19098 12.1999
H -2.63226 -3.38162 11.2509
H -1.8555 -3.95885 12.5662
O 6.98762 1.3898 -6.59949
H 6.06754 1.57525 -6.94459
H 7.42293 2.24951 -6.33223
O -14.3328 4.92703 1.03137
H -14.8101 5.76441 1.29778
H -14.0659 4.98711 0.0694968
O -2.81164 -12.433 -11.5489
H -2.42125 -11.9283 -10.7789
H -2.07427 -12.7756 -12.1311
O 4.51787 8.15703 -10.0819
H 3.86485 8.67663 -9.53088
H 4.1777 7.22565 -10.2117
O 1.56066 -5.2015 -3.09479
H 2.19296 -4.45633 -2.88278
H 1.03027 -5.43097 -2.27867
O 6.10376 7.64093 -1.01722
H 6.59446 6.77973 -0.884605
H 5.20677 7.5844 -0.578783
O -0.783243 -11.2272 -13.0838
H -1.0324 -12.108 -13.4864
H -0.262386 -10.6921 -13.749
O -5.43044 6.65391 -2.59761
H -4.6865 6.00859 -2.77124
H -5.07446 7.58803 -2.62442
O -6.03629 -0.588044 -3.37526
H -6.16037 0.219633 -2.79882
H -6.55379 -1.35338 -2.99255
O -8.95277 -11.1575 -14.5848
H -9.89322 -11.2795 -14.9022
H -8.78419 -11.758 -13.8032
O -0.364801 10.5132 -13.4894
H -0.294427 10.9582 -14.3822
H -1.24221 10.7453 -13.0695
O -4.27707 9.19788 0.749388
H -3.72918 8.37675 0.909389
H -5.2344 8.93972 0.619384
O 3.89703 -14.4535 -13.4749
H 3.8617 -14.6141 -12.4885
H 3.78303 -13.477 -13.6579
O 11.8182 -10.5865 10.6721
H 11.5784 -11.2536 11.3774
H 10.9833 -10.2289 10.2539
O -9.70552 6.69115 5.52024
H -9.64151 5.7448 5.83704
H -9.92894 6.70197 4.54556
O 0.910261 4.04689 -4.12522
H 0.925491 4.89015 -3.58791
H 1.02322 4.26695 -5.09415
O 6.37114 7.21728 -3.89893
H 5.95908 7.72769 -3.14414
H 6.15009 7.66616 -4.76476
O 8.18004 -10.6041 4.68057
H 8.46868 -11.4359 5.15482
H 8.83149 -10.3928 3.95189
O 0.121539 10.8535 -2.26042
H -0.853898 10.9609 -2.06803
H 0.552577 11.7545 -2.31049
O -7.08836 -6.78465 -3.99374
H -6.65663 -5.91773 -3.74457
H -6.43122 -7.52956 -3.87837
O 6.91955 -9.76202 8.76452
H 7.00303 -9.38869 7.84057
H 6.87612 -9.01192 9.42444
O -6.58162 -5.86695 12.4549
H -6.74173 -4.96783 12.8623
H -6.11266 -5.75707 11.5785
O 11.3668 6.87637 9.08053
H 11.2935 5.93437 9.40807
H 12.3098 7.1928 9.18395
O -10.0424 -14.6287 7.83596
H -10.9578 -14.2388 7.93664
H -9.51973 -14.0865 7.17807
O -10.7936 -6.90546 -14.1725
H -10.0269 -7.4596 -14.4967
H -10.7023 -6.75319 -13.1884
O -9.72317 1.00308 2.8384
H -10.3305 0.672849 2.11579
H -9.60421 0.287478 3.52672
O 10.5011 1.78544 8.12249
H 11.3294 2.19198 7.73683
H 10.1629 1.07226 7.5085
O -14.4452 -5.8892 -5.88031
H -13.954 -6.7133 -5.59826
H 14.4521 -6.13254 -6.1505
O -1.68432 2.8688 -11.765
H -1.75813 1.94967 -11.378
H -0.839597 2.94026 -12.2955
O -12.4148 -10.3662 -5.32168
H -12.7711 -10.9732 -4.61132
H -11.4414 -10.5495 -5.45935
O 3.15384 -5.80871 3.06771
H 2.85158 -6.75904 2.99327
H 3.65444 -5.55241 2.24083
O 1.32442 13.7008 2.35245
H 2.19165 13.2158 2.4655
H 0.575903 13.0391 2.30792
O -9.65919 5.99375 -4.69285
H -9.99574 6.81829 -4.23799
H -9.36294 5.331 -4.00507
O 10.4072 -14.6533 -6.93935
H 10.1505 -14.667 -7.90578
H 11.0379 14.4227 -6.75128
O 13.3356 6.86364 1.47305
H 13.0463 6.70466 2.417
H 13.6522 7.80725 1.37588
O 9.04751 3.66575 -1.8644
H 8.39101 4.0731 -2.4993
H 8.6525 2.8407 -1.46031
O -1.79059 3.72404 13.0875
H -2.5442 4.13706 12.5761
H -1.00097 4.33745 13.0711
O 14.8006 -9.67063 2.8454
H -14.1859 -9.54236 3.36883
H 14.6047 -10.6478 2.76334
O -2.41267 -8.07832 -3.49092
H -2.55651 -7.5544 -2.65137
H -1.5785 -7.76178 -3.94256
O -11.1678 -0.521237 14.2398
H -10.4349 -1.20154 14.2325
H -11.4381 -0.332542 -14.645
O -14.0416 -2.73602 8.27066
H -14.7925 -2.60854 7.62263
H -14.2418 -2.23868 9.11482
O 7.49362 7.28695 -12.9865
H 6.51581 7.49558 -13.0063
H 7.62239 6.29576 -12.9549
O -7.58865 7.73171 13.8213
H -6.74545 7.39738 14.2423
H -7.62444 7.43617 12.8666
O 4.55846 9.26035 10.8665
H 4.89575 9.82608 11.619
H 4.11985 8.44114 11.2361
O 6.95821 9.22886 -10.8755
H 6.00794 8.91872 -10.8469
H 7.49571 8.60454 -11.4423
O -14.0921 9.66031 -1.38038
H -14.4551 9.47346 -0.467506
H -14.4902 10.5083 -1.73028
O 6.3372 -5.24842 12.7003
H 6.7058 -6.16577 12.8507
H 6.83994 -4.8047 11.9584
O 14.6141 -2.82904 5.4419
H 13.9779 -2.97331 4.68393
H -14.5295 -2.15053 5.17734
O 10.8111 -13.2252 -1.8339
H 10.9297 -14.1227 -1.409
H 10.2795 -13.3225 -2.67533
O -10.0194 -11.4729 10.5651
H -9.77382 -12.4291 10.7244
H -9.56611 -10.8948 11.2435
O -1.83187 7.13039 -14.8311
H -2.38534 7.55413 -14.114
H -2.32823 7.16343 14.1303
O 8.26583 -3.85448 -11.0375
H 7.3751 -4.16866 -11.366
H 8.17151 -2.94166 -10.6401
O -2.67838 12.2981 -3.68383
H -2.08737 11.8516 -4.35567
H -3.6079 12.3611 -4.04724
O 7.08973 10.017 1.8408
H 7.6388 9.24636 2.1644
H 7.13777 10.0648 0.843087
O -4.30391 -14.8303 7.24614
H -4.49258 -14.516 6.31572
H -3.38904 -14.5329 7.5193
O -5.19082 -1.6088 -5.58201
H -5.57685 -1.24749 -4.73321
H -4.1966 -1.67247 -5.49544
O -3.02776 -6.75334 -1.03208
H -3.54084 -5.94434 -0.745177
H -2.04791 -6.55692 -0.99542
O 5.82608 8.25371 -6.38737
H 5.8045 7.37658 -6.86717
H 6.74462 8.64438 -6.44816
O 0.0278806 -7.09711 -4.39958
H 0.522469 -7.96521 -4.44228
H 0.522292 -6.46058 -3.80763
O 9.62251 -8.154 -4.56553
H 9.36863 -7.71833 -5.42911
H 10.5898 -7.98327 -4.37779
O -6.62459 -12.5354 4.24405
H -6.70941 -11.5748 3.97929
H -7.34761 -12.7668 4.89498
O 7.13354 -3.6094 0.57333
H 7.89537 -4.24373 0.441945
H 7.23951 -3.13801 1.44888
O 10.2768 13.0037 -14.2238
H 11.2296 13.1164 -14.5058
H 10.2442 12.7193 -13.2656
O 10.6535 7.04326 0.950916
H 11.6486 7.14051 0.969895
H 10.2358 7.78826 1.47104
O -3.50655 6.31029 -10.9406
H -2.97308 5.56486 -10.5408
H -4.44078 5.9972 -11.1115
O 5.0261 -14.1424 -0.981252
H 4.13302 -13.78 -1.24785
H 4.96583 14.6935 -0.87895
O 1.15684 7.61126 13.371
H 1.87364 8.02038 13.9356
H 0.61736 8.3352 12.941
O -9.94613 11.8657 0.746231
H -9.38517 12.5927 1.14216
H -9.37007 11.0744 0.54124
O 10.6036 14.0664 -0.480847
H 9.61917 13.9263 -0.374514
H 10.9656 13.4038 -1.13659
O -4.87848 -4.52008 -5.35035
H -4.37484 -4.85203 -6.14796
H -5.25312 -3.61381 -5.54617
O -5.48219 5.08125 7.93057
H -4.73858 4.89598 8.57303
H -5.62996 6.06826 7.86741
O 2.55312 6.76717 0.240045
H 2.913 5.88232 0.535921
H 3.19093 7.49116 0.502864
O -12.5829 -8.74181 -9.06535
H -13.226 -8.35392 -9.72557
H -12.8842 -9.6594 -8.80603
O 4.23273 6.77455 -13.4269
H 4.36933 6.13732 -12.6684
H 3.27032 6.76806 -13.6985
O -3.73077 5.44527 12.3194
H -3.32914 5.97439 11.5719
H -4.42052 4.8209 11.9527
O -10.4261 -7.36302 -7.52124
H -11.1482 -7.97291 -7.84768
H -10.5345 -7.21423 -6.53832
O -13.0088 4.87916 6.59886
H -13.3706 4.20095 5.95921
H -12.5277 4.41347 7.34162
O -0.316318 -5.78782 2.25994
H 0.540671 -5.98215 1.78262
H -0.698378 -4.92763 1.92209
O -6.06234 11.0235 -1.76103
H -6.5419 10.3204 -1.23598
H -5.88205 10.685 -2.68456
O -0.783345 -9.22243 -11.3409
H -1.01752 -9.93778 -11.9993
H -1.06648 -8.33316 -11.7002
O -11.1163 -7.37611 -11.4695
H -10.4896 -6.73228 -11.0305
H -11.6192 -7.88217 -10.7688
O 4.24576 12.9845 -0.985974
H 3.93716 13.2028 -1.91178
H 4.74362 12.1173 -0.996408
O 0.662009 0.17944 6.512
H 0.684305 -0.820032 6.53621
H -0.244153 0.485657 6.22023
O -9.60102 3.76453 2.39534
H -9.87356 2.82235 2.5904
H -8.9167 4.05852 3.06266
O -6.2292 -12.4172 -6.60047
H -6.45322 -13.3535 -6.87093
H -6.66686 -11.7748 -7.22958
O -9.43042 -0.981896 4.91488
H -8.46961 -1.09713 4.66268
H -9.5107 -0.938217 5.91071
O -2.25294 -10.907 13.1936
H -1.66403 -10.3603 13.789
H -1.79105 -11.7635 12.9633
O 3.73965 1.23203 5.35334
H 3.27274 0.447646 4.94496
H 3.06965 1.94077 5.57427
O 3.15842 8.89012 14.683
H 4.05592 8.5881 -14.8245
H 2.98417 9.82018 -14.8224
O 13.2405 -2.31781 10.1305
H 12.7067 -2.98862 10.6453
H 12.6346 -1.80645 9.52105
O 3.9986 -7.30114 -1.62832
H 3.16889 -7.85612 -1.56817
H 4.03774 -6.85601 -2.52294
O -3.82202 -5.78475 -9.98077
H -3.8581 -4.97283 -10.5635
H -4.72028 -6.22397 -9.96513
O -2.41836 4.25043 -9.64896
H -2.29404 3.63849 -8.86787
H -2.22116 3.75521 -10.4951
O -6.61536 -1.29448 4.01054
H -6.58449 -0.298567 3.92547
H -7.16699 -1.67545 3.26852
O 13.204 2.22606 -9.3604
H 14.025 2.22247 -8.78935
H 13.3167 2.88747 -10.1019
O 1.19199 -13.343 -10.0941
H 1.29513 -12.4258 -10.4792
H 2.08113 -13.8004 -10.0799
O -5.02152 9.95333 -4.08023
H -4.23884 9.43782 -3.73142
H -5.44592 9.44743 -4.83121
O 7.00481 -3.27242 -2.38842
H 7.6783 -3.97673 -2.61286
H 6.83972 -3.27132 -1.40212
O -3.76087 -4.43406 2.57423
H -4.10693 -4.99862 1.82487
H -4.29834 -4.60913 3.39916
O -8.30624 -2.43892 2.12813
H -8.58349 -2.42338 1.16744
H -8.31597 -3.38127 2.46265
O 13.495 3.31348 3.67897
H 14.3301 3.07519 4.17481
H 13.3532 2.66293 2.93284
O 14.274 0.843964 13.6828
H -14.7151 0.938589 13.1483
H 14.4841 0.412468 14.5601
O -2.93552 13.6669 4.33009
H -3.62454 14.368 4.14633
H -2.23593 14.0389 4.94017
O -4.57634 9.18041 13.0238
H -4.89496 8.3106 13.4005
H -4.97265 9.31547 12.1157
O -1.17838 -3.50231 -6.49456
H -1.80004 -4.206 -6.83864
H -0.251795 -3.87431 -6.43912
O -9.20169 -1.89932 -6.19112
H -10.1571 -1.78113 -6.46159
H -8.73944 -1.01265 -6.2042
O -6.08985 3.04825 -3.23542
H -5.22629 3.5525 -3.24002
H -6.64639 3.3332 -4.01587
O 12.6317 -9.02585 -5.80593
H 13.2675 -9.43206 -6.46235
H 12.2007 -9.74994 -5.26749
O -12.1352 7.84146 -0.425501
H -12.7373 8.46777 -0.920707
H -12.5223 7.65029 0.476506
O 3.18257 10.45 -11.4332
H 4.15814 10.3624 -11.6348
H 3.04735 11.1607 -10.7428
O -6.85007 -1.83639 -7.87514
H -6.27336 -1.54416 -7.11223
H -7.74917 -2.10505 -7.52948
O 5.59835 -7.39151 -10.9924
H 5.14956 -7.74443 -10.1714
H 5.25915 -6.4714 -11.1883
O 11.7807 10.1728 -3.66968
H 11.9667 9.30933 -3.20083
H 12.1045 10.1158 -4.61408
O 2.52623 -7.34749 12.0317
H 2.00269 -8.19836 12.0759
H 3.28663 -7.45691 11.3915
O -4.79965 13.1304 -8.74632
H -4.69564 13.9376 -9.32733
H -5.77044 12.9729 -8.56519
O -9.51281 9.2318 -0.215947
H -10.2793 8.59024 -0.24704
H -8.92444 9.01074 0.56186
O 0.593555 5.1867 -6.71917
H 1.38907 5.59249 -7.1692
H -0.128919 5.87317 -6.63663
O 10.5692 4.34677 -14.3335
H 10.6596 5.19348 -14.8578
H 9.68088 4.33225 -13.8744
O 6.92488 -8.00241 -4.51353
H 7.88952 -8.10428 -4.27039
H 6.82978 -7.28968 -5.20851
O -9.46107 -4.60046 6.0613
H -9.15625 -4.98849 6.9311
H -10.297 -4.07133 6.20708
O -6.1932 -7.44452 -10.3294
H -6.73757 -7.68738 -9.52651
H -6.39907 -8.07763 -11.0756
O -4.13192 14.4919 -10.9951
H -3.76581 -14.5543 -11.4985
H -4.95814 14.1598 -11.4502
O 5.79687 13.1998 -13.1487
H 6.22331 14.1042 -13.1342
H 4.8055 13.3 -13.2333
O -0.504028 -8.52132 -0.22075
H -0.888555 -9.33529 -0.656212
H -0.53024 -8.63102 0.772884
O 5.88285 -12.2098 7.57653
H 5.07066 -11.9678 7.04569
H 5.91905 -11.6499 8.40431
O -9.12983 -4.3877 -12.2519
H -8.16226 -4.63139 -12.3186
H -9.51067 -4.76323 -11.407
O 1.27689 -14.323 13.0291
H 1.73761 14.7666 13.5204
H 1.84146 -13.4983 13.0622
O 3.17372 12.1846 -9.321
H 3.75828 11.839 -8.58693
H 2.38398 12.6535 -8.9254
O 1.98826 -9.14817 -1.43817
H 1.80515 -9.49894 -2.35657
H 1.19193 -8.63961 -1.1107
O 0.430868 5.15598 12.1635
H 0.770837 5.93515 12.6902
H 0.559754 5.33163 11.1875
O 5.93015 -4.6018 3.49574
H 4.94458 -4.47233 3.6049
H 6.35756 -3.7278 3.26451
O 13.1111 14.3201 -9.73688
H 13.8432 13.8164 -9.27836
H 13.4376 14.6501 -10.6226
O -3.31711 5.9139 -5.26577
H -3.42015 6.89802 -5.12116
H -3.05418 5.74224 -6.21521
O 12.7923 -6.46813 -6.359
H 12.0938 -6.04305 -5.7833
H 12.845 -7.4452 -6.15264
O -9.10037 -10.2861 -2.29468
H -9.16678 -11.0843 -1.69588
H -8.41577 -10.4571 -3.00329
O -11.5181 1.35774 5.27237
H -10.9575 0.533984 5.18704
H -11 2.06509 5.75328
O -0.391515 -3.84277 -10.985
H 0.117026 -2.99189 -11.117
H 0.0905602 -4.42046 -10.3263
O 11.0566 0.49698 -1.75577
H 10.9117 -0.405997 -2.16032
H 10.4714 1.16559 -2.21458
O 2.18639 9.22339 -0.720047
H 1.37839 9.79927 -0.844643
H 1.96963 8.47645 -0.0914557
O -3.46372 -8.12063 1.57175
H -3.42616 -7.75893 0.640198
H -2.76536 -7.67404 2.13112
O -11.1451 10.4501 -11.4608
H -10.2782 10.2163 -11.9009
H -11.1095 10.191 -10.4956
O 8.10306 3.73041 -10.6741
H 7.58428 3.57299 -11.5144
H 8.51586 2.87136 -10.3713
O -2.97066 2.33587 -4.69741
H -2.96126 3.06632 -4.01449
H -3.91648 2.08956 -4.90902
O 14.3836 -6.57484 10.4973
H 14.7981 -6.17019 9.68214
H -14.8738 -7.32807 10.8229
O -9.87513 3.84479 -6.6957
H -10.6248 3.22061 -6.47563
H -9.85532 4.59002 -6.02917
O 10.3052 3.68826 3.95796
H 10.2704 3.69014 2.95855
H 11.258 3.73309 4.25834
O 1.42378 4.71758 -10.851
H 0.98819 3.98505 -11.3742
H 0.753052 5.43384 -10.6583
O -11.6509 -11.0001 14.3497
H -11.6783 -10.5036 -14.6115
H -11.5284 -10.3517 13.5984
O -12.1562 9.96127 12.0254
H -11.7753 9.31752 12.6891
H -13.1548 9.91274 12.0491
O -9.55414 6.56894 9.45188
H -9.73166 7.25289 8.74426
H -10.353 6.49147 10.0485
O 13.4727 -5.6666 13.042
H 12.6423 -5.11108 12.9999
H 13.7264 -5.95736 12.1194
O -14.2751 2.4215 -7.63924
H -13.4633 2.66069 -7.10652
H 14.7605 2.90939 -7.27506
O 8.27961 -8.12574 -11.8621
H 7.33837 -8.22182 -11.5383
H 8.80002 -7.56985 -11.2139
O 1.93416 -7.79357 -13.9777
H 1.78361 -7.0796 -14.6615
H 1.34751 -8.57778 -14.1799
O -0.642241 -0.739517 11.4982
H -0.7832 -1.58324 12.0162
H -1.3732 -0.0913112 11.7116
O -11.1001 -2.90308 -11.2441
H -11.6519 -3.52256 -10.6858
H -10.2332 -3.34513 -11.4748
O -13.3967 7.01867 14.7927
H -13.856 6.35055 14.2073
H -12.8662 6.53992 -14.3367
O -11.5633 -4.80366 -3.62384
H -11.9413 -5.46501 -4.27175
H -10.6298 -4.56819 -3.89429
O 4.53612 4.35054 -1.87555
H 4.27698 4.31821 -0.91024
H 4.22907 5.21467 -2.27434
O -13.8883 -11.6924 -12.2762
H -14.861 -11.7866 -12.488
H -13.5461 -10.8331 -12.6564
O -9.05112 9.5056 4.47453
H -9.80954 9.03455 4.92502
H -8.36417 9.75868 5.15577
O 11.2898 12.4301 4.74584
H 10.6607 11.7432 4.38203
H 11.4634 13.1256 4.04863
O 8.25371 -13.5349 2.41803
H 7.62802 -14.1788 2.85839
H 7.81539 -13.1453 1.60803
O 11.4209 -13.2904 11.8904
H 12.4045 -13.4648 11.9356
H 10.9472 -13.8808 12.5439
O 13.6156 -3.58417 -10.5657
H 13.2763 -3.03002 -9.80555
H 14.3701 -3.10645 -11.0157
O -5.6351 -9.66864 -0.624617
H -4.84449 -9.43397 -0.0590348
H -6.45882 -9.25913 -0.232423
O 13.2442 -6.20717 -9.40055
H 13.4219 -5.29226 -9.76304
H 13.2835 -6.18332 -8.40159
O -12.0447 2.97381 -10.5772
H -12.5601 2.29783 -11.1039
H -11.0651 2.80728 -10.6892
O 0.829476 6.33457 -2.29702
H 1.09669 6.67257 -1.39459
H 0.476102 7.09236 -2.84557
O 8.27577 0.502172 -2.70161
H 8.79851 0.98937 -3.40119
H 7.41382 0.98123 -2.53559
O 10.3565 -4.39977 -13.137
H 9.83855 -4.2874 -12.289
H 10.0841 -3.69307 -13.79
O 10.3389 -2.33852 -14.6802
H 10.0418 -2.06568 14.2337
H 11.3342 -2.43468 -14.6678
O 4.04428 4.28731 0.802682
H 4.21332 4.93502 1.5456
H 4.2668 3.36209 1.11004
O 9.27534 -0.0281153 -6.27052
H 9.72655 0.291378 -7.1038
H 8.33577 0.313561 -6.24827
O 13.1464 11.7357 10.1958
H 13.9126 11.1307 9.97909
H 12.9107 12.2772 9.38875
O 5.91301 5.58989 14.5253
H 5.25552 6.11357 -14.7618
H 6.50639 6.21851 14.0226
O -6.46744 13.0274 3.24549
H -7.3918 13.2497 2.93543
H -5.80611 13.597 2.75743
O 0.838176 5.6747 9.00647
H 0.479386 4.81085 8.65282
H 1.80961 5.74933 8.78113
O -12.4995 4.10434 2.89584
H -11.5415 4.00414 2.62711
H -13.0183 4.50164 2.13882
O -14.555 6.89071 -7.8205
H -13.8811 6.33971 -8.31269
H 14.3566 6.66977 -8.15191
O -10.9335 12.9702 4.61056
H -10.4283 12.7112 5.43381
H -11.341 12.1548 4.1992
O 9.86327 9.40703 -1.28592
H 9.63969 8.43383 -1.23194
H 10.4142 9.57766 -2.10287
O 9.52468 14.8568 -9.5248
H 8.66097 -14.4704 -9.57322
H 9.39389 13.9326 -9.8837
O 2.57365 -5.31669 9.45571
H 3.16923 -4.85774 10.115
H 2.97164 -6.19914 9.20489
O 11.6252 2.64884 0.227776
H 11.4401 1.79499 -0.258726
H 12.3981 2.51784 0.848658
O -6.49305 -5.29581 -11.8013
H -6.37537 -4.36514 -11.4548
H -6.31092 -5.9502 -11.0674
O -5.53914 -3.51513 13.6711
H -5.37432 -3.45774 14.6558
H -4.92141 -2.89089 13.1928
O 6.14568 11.8555 3.64884
H 6.41523 11.0456 3.1278
H 6.11981 11.6316 4.62313
O -5.58125 -14.3221 12.9942
H -5.31526 -13.3586 12.9607
H -6.41418 -14.4191 13.539
O -2.73911 10.6472 -1.2819
H -3.1294 11.297 -1.93413
H -3.41919 10.428 -0.582272
O -6.18115 -13.4492 9.18263
H -6.22217 -14.2362 9.79829
H -5.36905 -13.521 8.60352
O -10.3777 10.001 -8.67954
H -9.82856 9.56494 -7.9665
H -10.8159 10.8198 -8.30879
O 14.206 5.92271 -10.4496
H -14.7225 5.57442 -10.1886
H 14.071 5.79456 -11.4322
O -5.04759 6.63013 14.3191
H -5.05213 6.07366 -14.6789
H -4.65988 6.10001 13.565
O -8.37848 -4.93583 3.28838
H -8.32871 -5.86877 3.64499
H -9.11687 -4.44227 3.74796
O -3.90612 -8.02875 -13.907
H -3.60358 -7.51806 -13.1022
H -4.66525 -7.54509 -14.3427
O 1.05234 -5.29809 -9.2918
H 1.72411 -5.58884 -9.97313
H 0.940983 -6.01696 -8.60561
O 10.4085 3.87933 -7.7772
H 10.0423 4.43381 -7.02986
H 10.9428 4.45954 -8.39189
O -14.6758 0.127856 7.03395
H 14.4001 -0.353721 7.4823
H 14.8343 1.01962 6.71282
O -9.21128 -4.32919 -4.95348
H -9.17701 -3.5227 -5.54375
H -9.13132 -5.15476 -5.51211
O -9.19968 4.41298 -2.40031
H -8.65844 4.58002 -1.57618
H -9.88674 3.71136 -2.21134
O -2.93044 -5.37516 -7.46074
H -3.25271 -5.41774 -8.40644
H -2.81438 -6.30292 -7.10605
O 7.83932 -13.7252 -7.52125
H 7.58098 -12.8549 -7.10182
H 8.71198 -14.0322 -7.14147
O -1.3412 -14.2556 -8.92289
H -0.620926 -13.5624 -8.94837
H -2.03753 -14.0381 -9.60687
O 6.98986 4.75212 -3.32682
H 6.23147 4.50819 -2.72236
H 6.88098 5.69778 -3.63324
O 12.7077 -9.61779 -11.2527
H 12.244 -8.73188 -11.2409
H 12.473 -10.128 -10.4253
O 6.73825 14.8388 -10.4547
H 6.58127 -14.5256 -11.3262
H 6.1939 -14.5508 -9.74004
O -10.138 14.4123 -12.3313
H -10.3576 -14.5297 -12.7379
H -10.1861 14.4814 -11.3348
O -12.0768 13.8437 -5.70918
H -11.2662 14.3827 -5.93807
H -12.4242 14.1274 -4.81537
O 1.81979 -6.46908 0.433645
H 1.94543 -7.23523 1.06394
H 2.69578 -6.00866 0.289849
O 5.22499 -4.44679 -11.3646
H 5.21562 -3.79924 -10.6027
H 4.91749 -3.98618 -12.1973
O -13.0436 12.9693 -12.2111
H -12.7382 13.659 -12.8676
H -12.2878 12.3479 -12.0046
O -0.103234 3.2804 7.80908
H 0.307328 2.63569 8.45392
H -0.930643 2.87832 7.41697
O 10.095 10.4487 -10.5398
H 9.22616 10.9421 -10.4989
H 10.8043 11.0523 -10.904
O 12.8514 5.29231 -4.6016
H 12.1551 4.92559 -3.98462
H 12.9621 4.67737 -5.38238
O -11.0819 -13.3894 -14.0957
H -11.3401 -14.3132 -14.3785