LAMMPS data file via write_data, version 15 May 2015, timestep = 1009000

2593 atoms
6 atom types
1728 bonds
4 bond types
864 angles
3 angle types
0 dihedrals
3 dihedral types
0 impropers
1 improper types

-1.5107854956378194e+01 1.5107854956378194e+01 xlo xhi
-1.5107854956378194e+01 1.5107854956378194e+01 ylo yhi
-1.5107854956378194e+01 1.5107854956378194e+01 zlo zhi

Masses

1 15.9994
2 1.00794
3 12.0107
4 1.00794
5 12.0107
6 12.0107

Bond Coeffs # harmonic

1 1000 1
2 469 1.4
3 367 1.08
4 469 0.7

Angle Coeffs # harmonic

1 100 109.47
2 35 120
3 63 120

Dihedral Coeffs # opls

1 0 7.25 0 0
2 0 7.25 0 0
3 0 7.25 0 0

Improper Coeffs # cvff

1 2.5 -1 2

Atoms # full

407 136 2 4.0999999999999998e-01 -1.1999655018651110e+01 -1.2167645414327154e+01 -1.2600365382607730e+01 -1 4 3
1604 535 2 4.0999999999999998e-01 -1.1176559037131003e+01 -1.0057735661686559e+01 -1.1849960644316498e+01 -1 1 0
27 9 2 4.0999999999999998e-01 -1.0678086057001142e+01 -8.1884613345196691e+00 -1.3068645760871849e+01 1 1 0
852 284 2 4.0999999999999998e-01 -1.2540925398502475e+01 -9.8319070952852492e+00 -1.0226238169608818e+01 -1 2 1
1509 503 2 4.0999999999999998e-01 -1.4065889320946036e+01 -1.3483825251922591e+01 -1.2251252153764632e+01 1 2 3
511 171 1 -8.1999999999999995e-01 -8.3141121219739897e+00 -6.8688671961758825e+00 -1.1783037122528761e+01 -1 -1 0
1605 535 2 4.0999999999999998e-01 -1.2619624019482023e+01 -9.5427056643598291e+00 -1.2414764104132441e+01 -1 1 0
1603 535 1 -8.1999999999999995e-01 -1.1811652924459825e+01 -9.2860499701041785e+00 -1.1884352559590667e+01 -1 1 0
512 171 2 4.0999999999999998e-01 -8.9751067934261464e+00 -6.9172173397711063e+00 -1.2531885703351039e+01 -1 -1 0
513 171 2 4.0999999999999998e-01 -7.6476009210164602e+00 -6.1479080301541753e+00 -1.1972791140565704e+01 -1 -1 0
26 9 2 4.0999999999999998e-01 -9.1744742673850688e+00 -8.5232787014290636e+00 -1.3610627605632583e+01 1 1 0
981 327 2 4.0999999999999998e-01 -1.0033444219138548e+01 -6.9414743388100355e+00 -1.0290846078792168e+01 -1 2 1
25 9 1 -8.1999999999999995e-01 -9.9716954249590408e+00 -7.9310976644192452e+00 -1.3728040981071590e+01 1 1 0
979 327 1 -8.1999999999999995e-01 -1.1026924923906620e+01 -6.8533856017259271e+00 -1.0363388462422531e+01 -1 2 1
1488 496 2 4.0999999999999998e-01 -9.8439667116905962e+00 -1.1856034343115514e+01 -1.2463724456456049e+01 0 2 0
980 327 2 4.0999999999999998e-01 -1.1423338109527579e+01 -7.7391424993765012e+00 -1.0604878076449438e+01 -1 2 1
1693 565 1 -8.1999999999999995e-01 -1.3476508752643676e+01 -9.6835098874938055e+00 -1.4281464948930013e+01 -1 3 1
1712 571 2 4.0999999999999998e-01 -1.3018057339018824e+01 -6.5571074103694063e+00 -1.1222633438176405e+01 1 3 2
1487 496 2 4.0999999999999998e-01 -1.0125514181178541e+01 -1.2151494967310658e+01 -1.0882544677359547e+01 0 2 0
1570 524 1 -8.1999999999999995e-01 -3.4063495379073370e+00 -1.4334551744012437e+01 -9.0755405318766584e+00 -1 2 1
997 333 1 -8.1999999999999995e-01 -9.9033446690400346e+00 -1.3033615427612464e+01 -9.4514158171850564e+00 -1 1 2
850 284 1 -8.1999999999999995e-01 -1.3098555927520447e+01 -1.0056643267129070e+01 -9.4271337364348771e+00 -1 2 1
1486 496 1 -8.1999999999999995e-01 -1.0434700039211407e+01 -1.1642197693143412e+01 -1.1685692387693265e+01 0 2 0
999 333 2 4.0999999999999998e-01 -1.0346785901614101e+01 -1.3905310202754970e+01 -9.6600637146779498e+00 -1 1 2
851 284 2 4.0999999999999998e-01 -1.2529351041719897e+01 -1.0507635215000185e+01 -8.7396470625085723e+00 -1 2 1
1266 422 2 4.0999999999999998e-01 -8.3441940821272844e+00 -1.3346771073736095e+01 -1.2997304274901904e+01 -1 2 0
2002 668 1 -8.1999999999999995e-01 -6.7730612809941046e+00 -8.0608463768910390e+00 -9.5956786688398275e+00 -1 1 2
1443 481 2 4.0999999999999998e-01 -7.3344258642933546e+00 -1.0488956103139657e+01 -1.0662368538929400e+01 1 1 3
406 136 1 -8.1999999999999995e-01 -1.2718333590833344e+01 -1.2673399119936610e+01 -1.3077586653404159e+01 -1 4 3
408 136 2 4.0999999999999998e-01 -1.2488463998033200e+01 -1.2743136045137284e+01 -1.4048319713041799e+01 -1 4 3
2003 668 2 4.0999999999999998e-01 -7.0237584873172274e+00 -7.7195248916715578e+00 -1.0501590645300308e+01 -1 1 2
1442 481 2 4.0999999999999998e-01 -6.7396640951044553e+00 -1.1684223458819146e+01 -9.7220016825361277e+00 1 1 3
290 97 2 4.0999999999999998e-01 -6.9409006447919950e+00 -5.9166172048907804e+00 -1.4594643725511506e+01 0 1 1
680 227 2 4.0999999999999998e-01 -1.4845301816729844e+01 -7.7164946970510915e+00 -9.7970142515373979e+00 1 2 2
1237 413 1 -8.1999999999999995e-01 -7.7881010394493373e+00 -9.9782050681002445e+00 -1.2881159489476303e+01 0 2 1
1238 413 2 4.0999999999999998e-01 -8.1426024223591291e+00 -1.0866285629870402e+01 -1.3173849751933124e+01 0 2 1
1264 422 1 -8.1999999999999995e-01 -8.5891169454073584e+00 -1.2518824225261294e+01 -1.3501826501881558e+01 -1 2 0
1694 565 2 4.0999999999999998e-01 -1.2909578992058179e+01 -1.0364199508723029e+01 -1.4745445838159327e+01 -1 3 1
1538 513 2 4.0999999999999998e-01 -5.6014184033011087e+00 -8.5675964170390095e+00 -1.4714826412502326e+01 0 1 1
1265 422 2 4.0999999999999998e-01 -8.8948871642221601e+00 -1.2766846123135835e+01 -1.4421073784008859e+01 -1 2 0
289 97 1 -8.1999999999999995e-01 -6.5971163853893682e+00 -6.8193778689899354e+00 -1.4853219580058639e+01 0 1 1
1866 622 2 4.0999999999999998e-01 -1.1130906207448763e+01 -1.2087843829331717e+01 -8.3261737250672727e+00 -1 2 1
1441 481 1 -8.1999999999999995e-01 -7.0904197670111522e+00 -1.0747760287044574e+01 -9.7277524129274759e+00 1 1 3
1800 600 2 4.0999999999999998e-01 -1.2081494829181644e+01 -5.5449680627001356e+00 -8.0098506011045103e+00 -1 0 2
2336 779 2 4.0999999999999998e-01 -3.3536033665017584e+00 -8.1736587224487600e+00 -1.0947882279709505e+01 0 2 0
998 333 2 4.0999999999999998e-01 -8.9110376327156118e+00 -1.3141402315711094e+01 -9.5125271064673704e+00 -1 1 2
2243 748 2 4.0999999999999998e-01 -2.9603371264309821e+00 -1.2147133051053792e+01 -1.1720963146288248e+01 0 0 1
1507 503 1 -8.1999999999999995e-01 -1.4721277678918698e+01 -1.4073244084794183e+01 -1.1778941454546574e+01 1 2 3
1711 571 1 -8.1999999999999995e-01 -1.4003538267226665e+01 -6.4007783393476192e+00 -1.1289074412622078e+01 1 3 2
1239 413 2 4.0999999999999998e-01 -6.8919903904038229e+00 -9.8234742453748751e+00 -1.3297176304147978e+01 0 2 1
1695 565 2 4.0999999999999998e-01 -1.3711742224140682e+01 -8.9528493103562692e+00 -1.4922422301835468e+01 -1 3 1
1864 622 1 -8.1999999999999995e-01 -1.1554956835673597e+01 -1.1393171197430133e+01 -7.7451083975117303e+00 -1 2 1
1961 654 2 4.0999999999999998e-01 -6.0958127973447773e-01 -1.2184077812760085e+01 -8.9609095105615584e+00 0 1 1
1572 524 2 4.0999999999999998e-01 -2.6250967035422974e+00 -1.4827141030214474e+01 -8.6921012810442022e+00 -1 2 1
2030 677 2 4.0999999999999998e-01 -3.4270325161409740e+00 -1.3948842679371952e+01 -1.0724203713722130e+01 0 1 2
2004 668 2 4.0999999999999998e-01 -7.2015759362687177e+00 -8.9517101804733876e+00 -9.4448050623910991e+00 -1 1 2
1202 401 2 4.0999999999999998e-01 -6.8539143233256183e+00 -7.0287516005073289e+00 -8.0304693373304090e+00 3 -1 1
230 77 2 4.0999999999999998e-01 -5.5484316543103063e+00 -6.2956742019241698e+00 -1.2635300227513063e+01 0 0 0
229 77 1 -8.1999999999999995e-01 -5.7532506422943381e+00 -5.5776864120271483e+00 -1.1970041953154668e+01 0 0 0
90 30 2 4.0999999999999998e-01 -4.0417741684912478e-01 -7.0859701349270168e+00 -8.4965362828384805e+00 0 1 3
2492 831 2 4.0999999999999998e-01 -1.3153479637636938e+01 -1.4758157127894933e+01 -7.7758870525107211e+00 1 3 -1
1814 605 2 4.0999999999999998e-01 -1.4581121371153595e+01 -1.3288894285639463e+01 -8.8176877740287569e+00 -2 -1 2
1713 571 2 4.0999999999999998e-01 -1.4245847302809622e+01 -5.5777441808068176e+00 -1.0775336148421204e+01 1 3 2
681 227 2 4.0999999999999998e-01 -1.4979165730292213e+01 -8.3505351515998782e+00 -8.2980917481096803e+00 1 2 2
2029 677 1 -8.1999999999999995e-01 -3.4313384613423441e+00 -1.3804612796204363e+01 -1.1713751674580886e+01 0 1 2
88 30 1 -8.1999999999999995e-01 -1.2549156204632261e-01 -6.1274123797646372e+00 -8.5559256356349422e+00 0 1 3
1273 425 1 -8.1999999999999995e-01 -6.2640470855789925e+00 -1.3296294733011827e+01 -9.8928348890794418e+00 0 2 2
2154 718 2 4.0999999999999998e-01 -2.8679921473491046e+00 -7.3011028545011341e+00 -1.3130982913173824e+01 -1 3 3
2153 718 2 4.0999999999999998e-01 -1.6261432712323387e+00 -6.2703273863406643e+00 -1.3379998461778836e+01 -1 3 3
1571 524 2 4.0999999999999998e-01 -4.2415218668405519e+00 -1.4613468906276486e+01 -8.6014959149291457e+00 -1 2 1
1537 513 1 -8.1999999999999995e-01 -5.5772555156976278e+00 -9.5513802183239029e+00 -1.4537030219393955e+01 0 1 1
2335 779 1 -8.1999999999999995e-01 -3.6303086271945322e+00 -8.0291628096309111e+00 -9.9978396615947780e+00 0 2 0
89 30 2 4.0999999999999998e-01 -8.6836469944611672e-01 -5.5434226688139816e+00 -8.2286315968547434e+00 0 1 3
2337 779 2 4.0999999999999998e-01 -4.4410911560796844e+00 -7.4443602964006503e+00 -9.9720802964563617e+00 0 2 0
1960 654 1 -8.1999999999999995e-01 -8.4767679583503686e-01 -1.1703161460452232e+01 -9.8047435165950265e+00 0 1 1
1721 574 2 4.0999999999999998e-01 -8.3576700831641393e+00 -1.0581487004662353e+01 -7.9201098640811285e+00 0 2 1
174 58 2 4.0999999999999998e-01 -2.9518558793219167e+00 -1.1201757587818980e+01 -9.2336706337719416e+00 -1 2 0
2226 742 2 4.0999999999999998e-01 -5.8466508041852396e+00 -5.0543399682264987e+00 -8.1951047280150195e+00 -2 2 0
1451 484 2 4.0999999999999998e-01 -1.2441531275492643e+01 -1.4886152019072822e+01 -1.2600732234346182e+01 3 1 0
1934 645 2 4.0999999999999998e-01 -1.1018110746926133e+01 -5.3796203378882375e+00 -1.2580361923348697e+01 -2 0 3
173 58 2 4.0999999999999998e-01 -3.3382133569958867e+00 -1.2599977852299556e+01 -8.4837350603308206e+00 -1 2 0
2478 826 2 4.0999999999999998e-01 -3.5007944527744357e+00 -5.0799502052423495e+00 -7.6543990170404621e+00 3 2 2
126 42 2 4.0999999999999998e-01 -4.5784287414589979e+00 -1.3923803927902252e+01 -1.3719252236895940e+01 -2 -1 2
2152 718 1 -8.1999999999999995e-01 -2.6215968180913407e+00 -6.3656137484080908e+00 -1.3384311434077100e+01 -1 3 3
124 42 1 -8.1999999999999995e-01 -5.0978974317283612e+00 -1.4088581394210195e+01 -1.4557719017567649e+01 -2 -1 2
2231 744 2 4.0999999999999998e-01 -2.4311299719671755e+00 -8.4969317801778139e+00 -8.4016125857063173e+00 -1 3 2
2341 781 1 -8.1999999999999995e-01 -3.5420107716131284e+00 -8.9512386061494542e+00 -1.2562484966388721e+01 1 1 -1
2242 748 1 -8.1999999999999995e-01 -2.5420476324343682e+00 -1.1240617331394359e+01 -1.1663613266808099e+01 0 0 1
2342 781 2 4.0999999999999998e-01 -4.3614977470679879e+00 -9.2093271110814872e+00 -1.3074204894046987e+01 1 1 -1
1274 425 2 4.0999999999999998e-01 -6.5881552111532340e+00 -1.4130521012004474e+01 -9.4466888038414556e+00 0 2 2
172 58 1 -8.1999999999999995e-01 -3.2817131521329781e+00 -1.1606865658156405e+01 -8.3809646633560515e+00 -1 2 0
2343 781 2 4.0999999999999998e-01 -3.0358254741678916e+00 -9.7747747213711982e+00 -1.2306378461487700e+01 1 1 -1
2244 748 2 4.0999999999999998e-01 -1.7754852682900584e+00 -1.1267225838619009e+01 -1.1021974690146145e+01 0 0 1
2031 677 2 4.0999999999999998e-01 -2.9312225812428920e+00 -1.4546232981731084e+01 -1.2160864033047657e+01 0 1 2
1962 654 2 4.0999999999999998e-01 -2.9255223647844097e-01 -1.2056487799212828e+01 -1.0557752894492499e+01 0 1 1
1275 425 2 4.0999999999999998e-01 -5.5856445783970603e+00 -1.3532388969037948e+01 -1.0588575790424763e+01 0 2 2
2230 744 1 -8.1999999999999995e-01 -1.8666599823804138e+00 -8.1799243464221476e+00 -7.6394408352613974e+00 -1 3 2
23 8 2 4.0999999999999998e-01 -5.2619128153824377e+00 -9.3398903557353954e+00 -8.3195574118293258e+00 -3 -1 0
2588 863 2 4.0999999999999998e-01 -6.6760592349306886e+00 -1.5024026260629142e+01 -1.3968429841616253e+01 2 2 2
24 8 2 4.0999999999999998e-01 -4.5721331850217801e+00 -1.0643210465501113e+01 -7.6179477393092974e+00 -3 -1 0
2034 678 2 4.0999999999999998e-01 -1.0335114749631549e+01 -8.0051513884484802e+00 -2.1379813119075539e+00 0 1 2
2261 754 2 4.0999999999999998e-01 -3.8551205268400874e+00 -5.1948117438568531e+00 -3.3236882105564742e+00 0 2 -1
1798 600 1 -8.1999999999999995e-01 -1.2850880248827739e+01 -5.4282323675675404e+00 -7.3818022849254321e+00 -1 0 2
2142 714 2 4.0999999999999998e-01 -1.2435616363314335e+01 -9.4861950623577052e+00 -2.1564387920378270e+00 1 1 2
2258 753 2 4.0999999999999998e-01 -1.1133151161282878e+01 -1.2578781323288409e+01 -6.0015276548591068e-01 1 2 1
154 52 1 -8.1999999999999995e-01 -1.0781997131744937e+01 -1.0232836777737228e+01 -5.0587573315133216e+00 -1 2 2
2110 704 1 -8.1999999999999995e-01 -1.2065373997863883e+01 -7.7495346504066651e+00 -5.1912707890028145e+00 0 1 0
611 204 2 4.0999999999999998e-01 -1.4730715492125185e+01 -1.3211346776535970e+01 -3.7574057441065403e+00 0 -1 1
2140 714 1 -8.1999999999999995e-01 -1.2972828438088294e+01 -1.0258284367838911e+01 -1.8168697588530875e+00 1 1 2
2141 714 2 4.0999999999999998e-01 -1.2419200885793412e+01 -1.0795251400650836e+01 -1.1803253550336716e+00 1 1 2
612 204 2 4.0999999999999998e-01 -1.4270845344811145e+01 -1.2321759340962380e+01 -2.4675030299302030e+00 0 -1 1
2111 704 2 4.0999999999999998e-01 -1.2425875095816052e+01 -6.9395053057875966e+00 -4.7287588188086218e+00 0 1 0
155 52 2 4.0999999999999998e-01 -1.1122055422243967e+01 -1.0549069327699977e+01 -4.1731032044392986e+00 -1 2 2
610 204 1 -8.1999999999999995e-01 -1.4105622056190676e+01 -1.3165518954052507e+01 -2.9781857211475753e+00 0 -1 1
2530 844 1 -8.1999999999999995e-01 -1.0191254881475054e+01 -1.4478392005896394e+01 -1.6908798033337149e+00 -1 2 3
2531 844 2 4.0999999999999998e-01 -9.4833147214178020e+00 -1.4297982058477837e+01 -2.3737405833899885e+00 -1 2 3
2232 744 2 4.0999999999999998e-01 -2.2960909002109453e+00 -7.3823338099082623e+00 -7.2158084698696436e+00 -1 3 2
2032 678 1 -8.1999999999999995e-01 -1.1073100588880166e+01 -8.4297619749747579e+00 -2.6624893013625091e+00 0 1 2
2033 678 2 4.0999999999999998e-01 -1.1011685691035028e+01 -8.1412045887888205e+00 -3.6179937421873181e+00 0 1 2
2112 704 2 4.0999999999999998e-01 -1.2803926813235943e+01 -8.2068508640608560e+00 -5.6866772027904080e+00 0 1 0
1376 459 2 4.0999999999999998e-01 -6.0486751434750747e+00 -7.1751699825900044e+00 -4.0074381385077018e+00 -1 0 0
2257 753 1 -8.1999999999999995e-01 -1.1534610082054051e+01 -1.1710392854092401e+01 -3.0902028566632289e-01 1 2 1
1865 622 2 4.0999999999999998e-01 -1.1035419423918945e+01 -1.1307308587010972e+01 -6.8949705645284336e+00 -1 2 1
1375 459 1 -8.1999999999999995e-01 -6.4031560930049913e+00 -6.9112695799152579e+00 -3.1103730786424979e+00 -1 0 0
156 52 2 4.0999999999999998e-01 -1.1240122613814373e+01 -9.3790595267482217e+00 -5.3061665885332214e+00 -1 2 2
2493 831 2 4.0999999999999998e-01 -1.3559914011204699e+01 -1.3678661036859301e+01 -6.6199481438068108e+00 1 3 -1
1377 459 2 4.0999999999999998e-01 -7.2959434245193755e+00 -7.3380330954091999e+00 -2.9660482437949387e+00 -1 0 0
2532 844 2 4.0999999999999998e-01 -1.1083610239249115e+01 -1.4523998028004014e+01 -2.1399319822519463e+00 -1 2 3
2470 824 1 -8.1999999999999995e-01 -8.2593384364853168e+00 -8.5777081606001886e+00 -4.7002885624359134e+00 0 3 0
2471 824 2 4.0999999999999998e-01 -8.1457608444814333e+00 -8.6840496247135235e+00 -5.6881233234876003e+00 0 3 0
1600 534 1 -8.1999999999999995e-01 -1.2211611370262736e+01 -1.4557655860344568e+01 -4.2174763734344012e+00 1 2 1
460 154 1 -8.1999999999999995e-01 -1.4277054999727312e-01 -7.1045184458531860e+00 -2.1746088041922800e+00 1 -2 2
1601 534 2 4.0999999999999998e-01 -1.2977338300076690e+01 -1.4090723907918425e+01 -3.7751385921172425e+00 1 2 1
1827 609 2 4.0999999999999998e-01 -8.1910439028629867e-01 -1.4925281574949238e+01 -7.3419220202483464e+00 1 1 0
390 130 2 4.0999999999999998e-01 -9.8553674571715995e+00 -5.6542921763231782e+00 -8.5923119160945660e-01 -2 2 1
1078 360 1 -8.1999999999999995e-01 -1.4222403125977056e+01 -9.0509962853570336e+00 -6.5878456159151622e+00 0 0 0
2491 831 1 -8.1999999999999995e-01 -1.2948850298739064e+01 -1.4435569277522225e+01 -6.8517172644243107e+00 1 3 -1
1080 360 2 4.0999999999999998e-01 -1.4934766806676917e+01 -9.3562260413836800e+00 -5.9558656975462938e+00 0 0 0
2472 824 2 4.0999999999999998e-01 -8.8664997658604570e+00 -9.2936482820551145e+00 -4.3555992805177475e+00 0 3 0
2476 826 1 -8.1999999999999995e-01 -2.8127318071134830e+00 -5.5654283175508237e+00 -7.1150414053215947e+00 3 2 2
1079 360 2 4.0999999999999998e-01 -1.3839575749294175e+01 -9.8416853916832583e+00 -7.0656319518112500e+00 0 0 0
22 8 1 -8.1999999999999995e-01 -5.0952602568492349e+00 -9.8073737901363671e+00 -7.4513915197322893e+00 -3 -1 0
1602 534 2 4.0999999999999998e-01 -1.2170624160356638e+01 -1.4291857332629734e+01 -5.1806467603559518e+00 1 2 1
2288 763 2 4.0999999999999998e-01 -3.9423232240499271e+00 -8.8365568971292401e+00 -2.2154601112569594e-01 0 -1 0
816 272 2 4.0999999999999998e-01 -1.3539876978889133e+01 -1.4004145678410001e+01 -1.1598520613291097e+00 -1 2 1
737 246 2 4.0999999999999998e-01 -4.2171291560583590e-01 -1.0711765439378619e+01 -1.1444867997116912e+00 0 2 0
814 272 1 -8.1999999999999995e-01 -1.4027858972043436e+01 -1.4391123102003448e+01 -3.7745326049239836e-01 -1 2 1
2285 762 2 4.0999999999999998e-01 -7.3156804780035687e+00 -1.1231456352445578e+01 -4.6651290202044216e-01 0 2 3
551 184 2 4.0999999999999998e-01 -1.0654339088457755e+01 -1.0021271908373778e+01 -3.1800878890031470e-01 -2 3 2
1624 542 1 -8.1999999999999995e-01 -4.0988953952556635e+00 -1.4488853319133499e+01 -2.1175993554583954e+00 1 1 1
1901 634 2 4.0999999999999998e-01 -8.4340651590464546e+00 -5.4903459273886384e+00 -5.3431392334317529e+00 0 0 1
1099 367 1 -8.1999999999999995e-01 -3.9141213796706129e+00 -1.4058049831215474e+01 -5.0557029688611710e+00 1 1 1
1269 423 2 4.0999999999999998e-01 -1.3747691258939964e+01 -5.1379804164546030e+00 -2.0827604297136855e+00 -1 2 2
1626 542 2 4.0999999999999998e-01 -5.0266520551651883e+00 -1.4283076857237475e+01 -1.8062322586492705e+00 1 1 1
1150 384 1 -8.1999999999999995e-01 -7.6580305389230965e+00 -1.3702149232278130e+01 -3.0442042841998163e+00 0 1 2
1963 655 1 -8.1999999999999995e-01 -2.3103483213825662e+00 -5.9928406484728605e+00 -3.3267253678589164e+00 -2 -1 -1
1569 523 2 4.0999999999999998e-01 -5.8828804807049497e+00 -9.4068082281691083e+00 -1.1550511955034182e+00 0 2 1
736 246 1 -8.1999999999999995e-01 -1.5629767276545614e-01 -9.9001210495493766e+00 -1.6648847693942805e+00 0 2 0
2462 821 2 4.0999999999999998e-01 -1.4639304820183778e+01 -6.8223849029246662e+00 -3.6333027885915978e+00 0 2 1
2062 688 1 -8.1999999999999995e-01 -4.8727437806162399e-02 -1.3984060093621036e+01 -2.1796395963416497e+00 0 1 0
2575 859 1 -8.1999999999999995e-01 -6.4635486748833628e+00 -1.1524979726962638e+01 -4.0626273168614659e+00 -1 4 3
61 21 1 -8.1999999999999995e-01 -6.3762013125724408e+00 -1.4294235906984266e+01 -5.8776628350557125e-01 1 1 2
2284 762 1 -8.1999999999999995e-01 -7.0072799270127710e+00 -1.0611097657115542e+01 -1.1876717234113343e+00 0 2 3
1201 401 1 -8.1999999999999995e-01 -6.5886618952521925e+00 -6.4373450403136374e+00 -7.2689541733430856e+00 3 -1 1
1625 542 2 4.0999999999999998e-01 -4.1046514372150682e+00 -1.4638553467292100e+01 -3.1063271072942680e+00 1 1 1
965 322 2 4.0999999999999998e-01 -4.7834844305318764e+00 -8.3753548202381083e+00 -4.6605551725906107e+00 1 -1 1
1134 378 2 4.0999999999999998e-01 -1.5101510731324073e+00 -1.2840171324393321e+01 -1.8852294760620989e+00 0 3 1
1965 655 2 4.0999999999999998e-01 -2.6763978192794493e+00 -6.8672163445077103e+00 -3.6453171740785990e+00 -2 -1 -1
1132 378 1 -8.1999999999999995e-01 -2.3661643462269648e+00 -1.2554923117190864e+01 -1.4540675736258510e+00 0 3 1
1568 523 2 4.0999999999999998e-01 -5.5475664684050265e+00 -8.0151171299389965e+00 -1.9408348031081264e+00 0 2 1
437 146 2 4.0999999999999998e-01 -1.8661426754600487e+00 -1.1314957333757992e+01 -6.6625757093875428e+00 2 2 -1
1203 401 2 4.0999999999999998e-01 -5.9481161637823021e+00 -6.9249460669071041e+00 -6.6756816781162769e+00 3 -1 1
2576 859 2 4.0999999999999998e-01 -5.5142030755256464e+00 -1.1443281484664082e+01 -4.3660976067760799e+00 -1 4 3
2286 762 2 4.0999999999999998e-01 -6.7725683326835817e+00 -1.1139199286612140e+01 -2.0037875065339978e+00 0 2 3
800 267 2 4.0999999999999998e-01 -3.1010989307913981e+00 -9.6823793418352100e+00 -3.6729000620256649e+00 -1 1 -1
373 125 1 -8.1999999999999995e-01 -8.9915857980494813e+00 -7.1420847624268200e+00 -1.0017000926585045e+00 1 1 0
461 154 2 4.0999999999999998e-01 -2.3432428606444589e-01 -8.1003209516014554e+00 -2.1792071470285830e+00 1 -2 2
2463 821 2 4.0999999999999998e-01 -1.4593618548873794e+01 -5.2983899334841578e+00 -4.2181511031814320e+00 0 2 1
1101 367 2 4.0999999999999998e-01 -2.9464290489319769e+00 -1.4296405530548318e+01 -5.1380679765805315e+00 1 1 1
2577 859 2 4.0999999999999998e-01 -6.9333879825609266e+00 -1.0652852526053554e+01 -4.1992692482298430e+00 -1 4 3
1490 497 2 4.0999999999999998e-01 -3.0711436033579886e-01 -1.2591067744541816e+01 -4.3858123864844423e-01 1 0 0
1964 655 2 4.0999999999999998e-01 -1.4002484077696611e+00 -6.1345343619097168e+00 -2.9372810189448284e+00 -2 -1 -1
1044 348 2 4.0999999999999998e-01 -8.9677312173192369e-01 -1.3219484766525049e+01 -5.7668093200656276e+00 0 1 0
964 322 1 -8.1999999999999995e-01 -5.3722125745227025e+00 -8.0123445254674799e+00 -5.3828076017285422e+00 1 -1 1
2262 754 2 4.0999999999999998e-01 -5.4749733554816853e+00 -5.3544951769117919e+00 -3.1922589970444122e+00 0 2 -1
438 146 2 4.0999999999999998e-01 -1.7098013653966149e+00 -9.6899877766585583e+00 -6.6210220350106344e+00 2 2 -1
374 125 2 4.0999999999999998e-01 -9.3712781824164662e+00 -7.9705045315505787e+00 -5.8989888826990011e-01 1 1 0
1862 621 2 4.0999999999999998e-01 -3.0068004616141302e+00 -1.0983167319346041e+01 -5.2645225527585868e+00 -1 0 2
1133 378 2 4.0999999999999998e-01 -3.0689913048084581e+00 -1.3247046498466105e+01 -1.6184614924339265e+00 0 3 1
436 146 1 -8.1999999999999995e-01 -1.5685976775507076e+00 -1.0537207182806601e+01 -6.1088632204232471e+00 2 2 -1
1043 348 2 4.0999999999999998e-01 -9.7726597748014044e-01 -1.3834653214326989e+01 -4.2562517648725535e+00 0 1 0
1151 384 2 4.0999999999999998e-01 -7.3659924797177103e+00 -1.2940754442855411e+01 -3.6230113440514184e+00 0 1 2
1722 574 2 4.0999999999999998e-01 -7.1718230812634021e+00 -1.0371792891611845e+01 -6.8171635072444854e+00 0 2 1
1861 621 1 -8.1999999999999995e-01 -3.7171837503964955e+00 -1.1291506267924195e+01 -4.6318230663099662e+00 -1 0 2
799 267 1 -8.1999999999999995e-01 -3.4348224805614969e+00 -8.8137039193292903e+00 -3.3067611150155951e+00 -1 1 -1
801 267 2 4.0999999999999998e-01 -3.8610421218355100e+00 -8.9693437037943440e+00 -2.4156163466197977e+00 -1 1 -1
2461 821 1 -8.1999999999999995e-01 -1.4045923635074322e+01 -6.1064957886372628e+00 -4.0013075947407302e+00 0 2 1
1152 384 2 4.0999999999999998e-01 -7.2313674693723886e+00 -1.3618954064013455e+01 -2.1436139071908649e+00 0 1 2
1042 348 1 -8.1999999999999995e-01 -1.1361186839043533e+00 -1.4025206067485261e+01 -5.2250042134479866e+00 0 1 0
1863 621 2 4.0999999999999998e-01 -3.7637509221762429e+00 -1.2290359412452592e+01 -4.6440625754752389e+00 -1 0 2
966 322 2 4.0999999999999998e-01 -5.3625402388641508e+00 -8.6350873764270180e+00 -6.1651909355032082e+00 1 -1 1
1567 523 1 -8.1999999999999995e-01 -5.1759859997220126e+00 -8.7246397124386732e+00 -1.3420597739072857e+00 0 2 1
1720 574 1 -8.1999999999999995e-01 -8.1450302064471032e+00 -1.0239012185192685e+01 -7.0049480490609195e+00 0 2 1
1100 367 2 4.0999999999999998e-01 -4.4660986110854370e+00 -1.4891511323485808e+01 -5.0819515245065574e+00 1 1 1
818 273 2 4.0999999999999998e-01 -1.4713789447675900e+01 -1.0411395979413090e+01 -1.1278906467245360e+00 -1 0 2
1799 600 2 4.0999999999999998e-01 -1.2817286655640579e+01 -6.1378726146284954e+00 -6.6780210517068568e+00 -1 0 2
2405 802 2 4.0999999999999998e-01 -3.3962915956954909e-01 -1.0381826166429803e+01 -4.8394207788349259e+00 1 0 2
375 125 2 4.0999999999999998e-01 -8.3188947203659183e+00 -6.7394468304497472e+00 -3.8089795305303475e-01 1 1 0
2064 688 2 4.0999999999999998e-01 -1.6330307778210873e-01 -1.4975905266523876e+01 -2.1235905978393852e+00 0 1 0
62 21 2 4.0999999999999998e-01 -7.1558049248630740e+00 -1.3846403442888681e+01 -1.4994195271018640e-01 1 1 2
1672 558 1 -8.1999999999999995e-01 -8.4366432565241141e+00 -8.8245915104848542e+00 4.4061038389224620e+00 -1 -1 2
1674 558 2 4.0999999999999998e-01 -8.4100097617616356e+00 -9.3523649726004052e+00 3.5571211109379846e+00 -1 -1 2
1062 354 2 4.0999999999999998e-01 -1.4777112259405772e+01 -9.0349584550459419e+00 2.2356017731049249e+00 -1 1 1
1906 636 1 -8.1999999999999995e-01 -7.2738393550655305e+00 -1.4916417097534875e+01 4.3827387765482833e+00 0 -1 0
1673 558 2 4.0999999999999998e-01 -8.4915702819541394e+00 -9.4490877250486776e+00 5.1852144779475857e+00 -1 -1 2
1467 489 2 4.0999999999999998e-01 -1.3074092452033891e+01 -7.9747597332002726e+00 1.0508461930209805e+00 1 2 1
1465 489 1 -8.1999999999999995e-01 -1.2213029428223322e+01 -7.5133743185313486e+00 8.3702404597938163e-01 1 2 1
2583 861 2 4.0999999999999998e-01 -1.1639945362535265e+01 -9.1203696055072641e+00 5.8307461120914610e+00 0 3 1
1035 345 2 4.0999999999999998e-01 -1.4782717033489947e+01 -1.0339361893763469e+01 4.6811234553434815e+00 -1 0 0
552 184 2 4.0999999999999998e-01 -1.0929367567466002e+01 -8.6065707121203960e+00 4.4989441049615309e-01 -2 3 2
1122 374 2 4.0999999999999998e-01 -6.3172391328165034e-01 -1.0685877543207020e+01 1.1068976529563876e+00 -2 1 3
2582 861 2 4.0999999999999998e-01 -1.0640478648868086e+01 -1.0335661269571236e+01 6.2675846073580281e+00 0 3 1
1060 354 1 -8.1999999999999995e-01 -1.4652002029552936e+01 -8.6105471179406070e+00 1.3388028327390558e+00 -1 1 1
2581 861 1 -8.1999999999999995e-01 -1.1506282188695273e+01 -9.8779002439728316e+00 6.4697354610545403e+00 0 3 1
167 56 2 4.0999999999999998e-01 -1.3641990406228649e+01 -5.7197632349918948e+00 3.7556523183962902e+00 -1 0 0
774 258 2 4.0999999999999998e-01 -9.0193753427316707e+00 -9.7554212736843517e+00 1.3803271885842996e+00 -1 1 2
1036 346 1 -8.1999999999999995e-01 -8.6179594671623239e+00 -1.0891273016810699e+01 6.1781242070425009e+00 0 1 2
2015 672 2 4.0999999999999998e-01 -1.0387992676256001e+01 -6.0193117483187404e+00 1.6550450410949615e+00 0 0 1
2014 672 1 -8.1999999999999995e-01 -1.0199483938030582e+01 -5.5254487338367966e+00 2.5039205597223173e+00 0 0 1
1129 377 1 -8.1999999999999995e-01 -1.1304604586644137e+01 -1.1601611294832397e+01 2.4698286722212899e+00 2 3 1
1130 377 2 4.0999999999999998e-01 -1.1720165631518011e+01 -1.0855429940858198e+01 2.9899713122670235e+00 2 3 1
1092 364 2 4.0999999999999998e-01 -1.0475279353771985e+01 -8.3368706388509217e+00 3.9640238256879172e+00 -1 2 -1
2303 768 2 4.0999999999999998e-01 -1.3368399674089634e+01 -1.0670860500283425e+01 6.0555603064811798e+00 1 2 1
1057 353 1 -8.1999999999999995e-01 -1.0092806308982984e+01 -1.3277575473508325e+01 6.0858416171137435e+00 2 3 1
2016 672 2 4.0999999999999998e-01 -9.2170738929695659e+00 -5.3543383982529953e+00 2.5788713853730947e+00 0 0 1
444 148 2 4.0999999999999998e-01 -1.1749381538836037e+01 -1.4806731105207437e+01 3.4942284002740038e+00 -1 1 0
1090 364 1 -8.1999999999999995e-01 -1.1436350853970191e+01 -8.6132072163247315e+00 3.9616655026128669e+00 -1 2 -1
2268 756 2 4.0999999999999998e-01 -6.9901982678315271e+00 -7.3410516442930591e+00 6.1427482702323637e+00 0 0 1
1033 345 1 -8.1999999999999995e-01 -1.4719670804486290e+01 -9.7382572997042836e+00 3.8844275747282282e+00 -1 0 0
1034 345 2 4.0999999999999998e-01 -1.4273937362268720e+01 -8.8824573997558822e+00 4.1470186296948484e+00 -1 0 0
225 75 2 4.0999999999999998e-01 -8.9408764589362768e+00 -1.3190692238962098e+01 5.9433782949137637e-01 0 3 3
550 184 1 -8.1999999999999995e-01 -1.0233510326430936e+01 -9.1767328264758987e+00 1.3175130333280549e-02 -2 3 2
1131 377 2 4.0999999999999998e-01 -1.1042618483594723e+01 -1.2337583743428812e+01 3.0941153812340580e+00 2 3 1
2302 768 1 -8.1999999999999995e-01 -1.4187686899519850e+01 -1.1244065148009488e+01 6.0707500104020653e+00 1 2 1
223 75 1 -8.1999999999999995e-01 -8.3935585175048910e+00 -1.2359892574261231e+01 4.9314081753026251e-01 0 3 3
224 75 2 4.0999999999999998e-01 -8.5869509126447134e+00 -1.1738770958392120e+01 1.2526361572687321e+00 0 3 3
772 258 1 -8.1999999999999995e-01 -8.2436045477581370e+00 -1.0031338713155979e+01 1.9478438088662031e+00 -1 1 2
1091 364 2 4.0999999999999998e-01 -1.2012239994678248e+01 -7.8150287147365489e+00 3.7847793623078267e+00 -1 2 -1
362 121 2 4.0999999999999998e-01 -1.0872388226166519e+01 -6.1437637411101758e+00 5.6038335729257476e+00 -2 1 0
2304 768 2 4.0999999999999998e-01 -1.4362557814215171e+01 -1.1550833284982559e+01 7.0063457215755669e+00 1 2 1
2459 820 2 4.0999999999999998e-01 -2.9096734203487884e-01 -9.2280629037520718e+00 3.3045687799258232e+00 1 3 0
166 56 1 -8.1999999999999995e-01 -1.4008094611974999e+01 -6.5539978541468855e+00 4.1680188831181759e+00 -1 0 0
1889 630 2 4.0999999999999998e-01 -3.5434388687987006e+00 -1.2170563852602621e+01 3.7218537225873938e-01 -2 1 0
1466 489 2 4.0999999999999998e-01 -1.2401503695593314e+01 -6.6799998141916195e+00 3.1741821647584523e-01 1 2 1
1058 353 2 4.0999999999999998e-01 -1.0378487326392289e+01 -1.3490192493834149e+01 5.1513865464315067e+00 2 3 1
670 224 1 -8.1999999999999995e-01 -3.3888202146231006e+00 -1.0300032965035943e+01 2.6903868397150639e+00 -1 3 -1
2259 753 2 4.0999999999999998e-01 -1.1502627533967688e+01 -1.1646164000025681e+01 6.8841528470646729e-01 1 2 1
753 251 2 4.0999999999999998e-01 -1.4767726839211122e+01 -6.5485021276067688e+00 1.1625962851514409e+00 1 0 3
1725 575 2 4.0999999999999998e-01 -1.3957738619937636e+01 -5.1666822032647701e+00 7.5397221152764615e+00 0 -2 1
1038 346 2 4.0999999999999998e-01 -9.1073278073972403e+00 -1.1762610346920667e+01 6.1418506974724281e+00 0 1 2
1059 353 2 4.0999999999999998e-01 -1.0019771533583111e+01 -1.4124294542060721e+01 6.6128697910060019e+00 2 3 1