2593
Atoms. Timestep: 18495000
O -14.9538 6.15098 -1.65697
H 14.8577 7.01997 -1.33903
H -14.2261 6.32744 -2.31973
O -13.1488 -14.4793 -11.3056
H -13.7758 14.9948 -11.0002
H -13.2232 -13.6896 -10.6966
O 12.3254 6.14206 10.8216
H 12.7551 6.79031 10.193
H 12.0695 6.61505 11.6647
O -0.833727 -11.9721 14.5053
H -0.502075 -11.4882 13.6955
H -0.393403 -11.5974 -14.8695
O -1.95323 -0.910937 -13.9703
H -1.67692 0.0406286 -14.1051
H -1.66211 -1.45702 -14.7558
O -10.1578 5.40468 1.12553
H -9.1905 5.30013 1.35654
H -10.2414 5.77497 0.200389
O 7.51488 -7.9099 3.69361
H 7.24309 -7.77004 4.64575
H 7.12336 -7.18609 3.12546
O 4.23403 -15.0456 -9.22902
H 5.07681 -14.5671 -9.47555
H 3.61093 -14.4099 -8.77333
O 11.0446 -4.89557 -1.3305
H 11.8625 -4.37212 -1.09185
H 10.2718 -4.27168 -1.447
O 10.2566 5.87673 14.6925
H 10.9108 5.95921 -14.7464
H 9.3675 5.5955 15.0536
O -4.55123 14.6452 -5.76951
H -3.88231 -15.0828 -6.35134
H -4.90552 -14.9012 -5.09172
O -1.74903 13.854 13.5954
H -1.17014 13.3125 12.9859
H -2.58375 14.12 13.1133
O -4.72206 12.3876 12.1676
H -4.75252 13.325 12.5145
H -4.03131 12.3209 11.4476
O 11.8509 0.476943 -4.6108
H 12.5106 1.0137 -4.08472
H 11.3956 -0.176858 -4.00643
O 9.3339 -6.34671 7.4499
H 10.19 -6.60951 7.00482
H 9.08278 -5.42046 7.16886
O -7.29258 -0.678664 8.28349
H -7.32635 -1.46073 8.90577
H -6.9818 0.130669 8.78188
O 7.16815 9.17837 5.60981
H 7.88709 9.58386 6.17435
H 6.71062 8.45252 6.12342
O -13.681 -9.31663 7.39467
H -13.2668 -10.2253 7.34155
H -14.4445 -9.26021 6.75138
O 10.3218 1.14826 5.1278
H 10.4631 0.324612 5.67701
H 10.4799 1.95741 5.6937
O -3.40113 0.043898 7.34996
H -3.24283 -0.853665 7.76144
H -2.55974 0.582725 7.3916
O 1.43958 -0.714688 7.02122
H 1.84201 -1.56305 7.3652
H 2.16836 -0.0730228 6.78218
O -4.28133 -3.72441 11.8328
H -4.25676 -2.84732 12.3125
H -4.62603 -4.43208 12.4496
O 2.49799 1.80519 13.1645
H 3.30215 1.22727 13.0256
H 2.03364 1.53313 14.0074
O 0.329964 -8.17884 -4.80463
H 1.01079 -8.82362 -4.45715
H -0.127533 -7.73099 -4.03643
O 9.00896 6.52756 -0.174701
H 9.60177 6.23846 0.576959
H 9.3085 6.09016 -1.02261
O -4.59908 -4.20592 7.06408
H -4.26809 -5.14193 6.94434
H -5.40719 -4.21093 7.65307
O 1.00435 14.7132 -2.93652
H 1.031 14.317 -3.85432
H 1.45875 -14.5868 -2.94465
O -7.73179 9.94526 -6.82415
H -7.06709 10.1349 -7.54678
H -8.03488 8.99467 -6.89122
O 12.2082 1.09184 3.17643
H 11.5523 1.23384 3.91777
H 13.0543 0.710027 3.54852
O -11.1743 -3.63899 13.9676
H -10.2783 -3.84285 14.3619
H -11.1384 -3.76403 12.9761
O 14.6179 -8.80587 12.1972
H 14.1218 -9.62875 12.4743
H 14.784 -8.83292 11.2114
O 3.24385 -13.8706 11.449
H 3.54538 -14.5915 12.073
H 3.00219 -14.2734 10.5662
O -13.5708 -6.94223 12.8892
H -13.7533 -6.05835 12.4586
H -14.1436 -7.64397 12.4656
O 8.7353 3.43638 1.9425
H 7.80852 3.79402 1.82775
H 9.321 4.14716 2.33203
O -2.62065 14.7557 -10.8284
H -2.23893 -14.5114 -10.7939
H -2.24913 14.2131 -10.0751
O 11.473 14.9188 13.1566
H 10.8507 -14.5319 13.412
H 11.7865 14.4475 13.9809
O 13.1192 -9.65582 2.60401
H 13.9305 -9.70558 2.02151
H 12.7639 -10.5775 2.76014
O 3.52382 -9.17972 -6.80484
H 3.19621 -8.27349 -7.07207
H 3.17856 -9.40358 -5.89343
O -7.75575 -10.0498 -1.0767
H -8.05956 -10.4048 -1.96082
H -7.70324 -9.05201 -1.11837
O 3.99144 3.6045 -1.7901
H 4.66734 3.59801 -2.52707
H 4.27133 2.96342 -1.07549
O 4.45812 -1.3129 -4.19003
H 3.97004 -2.00581 -3.65932
H 4.35673 -1.50767 -5.16562
O -7.25964 3.76808 -12.6329
H -8.25064 3.83023 -12.5143
H -7.05289 3.4925 -13.5716
O -10.9245 11.5113 10.5931
H -10.1139 11.2038 11.0914
H -11.7468 11.2172 11.0802
O 1.08932 -3.59181 13.4872
H 1.17458 -2.83235 14.1322
H 1.85095 -3.56632 12.8397
O -12.1033 -7.46018 3.40068
H -11.5217 -8.03238 3.97889
H -12.6129 -6.81747 3.97277
O 6.23262 1.26858 -11.9676
H 5.23386 1.31491 -11.9493
H 6.52118 0.312094 -12.0107
O 3.17441 12.4316 3.31437
H 3.19218 12.5587 4.30609
H 4.05937 12.0815 3.00729
O 8.99653 -8.09667 -11.2413
H 8.47418 -7.60474 -11.9379
H 9.67763 -7.4838 -10.8407
O 3.45247 8.78559 -11.4693
H 2.99899 9.67591 -11.5101
H 3.77082 8.61611 -10.5366
O -13.0482 2.31548 -14.5207
H -13.042 2.41683 -13.5259
H -13.5347 3.08668 -14.9313
O -3.09278 -2.35736 8.53052
H -3.7129 -2.84905 7.91923
H -2.1502 -2.4841 8.22152
O -1.08665 -5.02898 -7.48089
H -0.928523 -6.00111 -7.65393
H -2.03296 -4.79952 -7.70856
O -13.0783 8.99833 14.5192
H -12.5186 9.75058 14.1715
H -13.0589 8.23979 13.8679
O -2.66642 10.8036 -14.5629
H -2.91469 9.83488 -14.5641
H -2.68214 11.1506 -13.6252
O -9.31125 1.59243 -9.67918
H -9.9186 2.37737 -9.80155
H -8.75897 1.72348 -8.85589
O -12.4146 1.03956 1.47314
H -12.8727 0.210138 1.1535
H -12.3329 1.68799 0.716268
O -0.0909745 12.9347 11.0911
H 0.807903 12.7423 11.4848
H -0.386355 12.1555 10.5383
O -12.5042 -5.03766 5.01892
H -11.6878 -4.64932 5.44648
H -13.2146 -4.33644 4.95879
O -11.0735 -8.00901 0.783112
H -11.6604 -7.53515 1.43961
H -10.1407 -7.65585 0.854423
O -6.39108 -13.7656 -1.43679
H -5.98725 -14.6642 -1.2653
H -6.43442 -13.2508 -0.580595
O -8.21339 -6.01453 -11.5725
H -7.32332 -6.35403 -11.2683
H -8.6493 -5.50868 -10.8281
O -4.97079 1.45902 8.96122
H -4.3666 0.80328 8.5085
H -5.12146 2.24366 8.35987
O 13.3118 -10.5182 -13.8344
H 13.2322 -10.4403 -14.8281
H 13.5301 -11.4632 -13.5906
O -6.14928 12.6238 -5.39307
H -5.64144 13.43 -5.69653
H -7.12672 12.768 -5.5473
O -6.03761 2.74866 -0.197819
H -6.70723 2.07787 0.120976
H -5.6734 2.46101 -1.0836
O 8.78479 -3.11733 -1.99218
H 9.20665 -3.28852 -2.88253
H 8.53516 -2.15155 -1.9218
O 0.126875 0.885032 -7.09349
H 1.03767 1.09476 -6.73788
H -0.562655 1.14224 -6.41645
O 6.59741 2.66093 -4.2205
H 7.38413 2.52482 -4.82262
H 6.17027 3.54188 -4.42418
O -13.064 15.005 13.4699
H -13.2391 14.2955 14.1525
H -13.6878 14.8855 12.6975
O 10.7572 -6.46976 -9.40787
H 10.8024 -5.85138 -10.1924
H 11.6308 -6.94619 -9.30831
O -3.0307 -2.5005 -10.6988
H -3.60301 -3.20365 -10.2768
H -3.45151 -2.19694 -11.5536
O -2.25516 -5.24343 10.705
H -2.46559 -6.1558 10.3538
H -3.09571 -4.80856 11.028
O 13.7529 -5.30552 8.01314
H 13.8202 -5.59173 8.96894
H 13.8031 -4.30823 7.95951
O -14.3112 -1.1979 0.989685
H 15.0145 -1.2931 0.49707
H -13.7603 -2.02204 0.858193
O 12.6942 13.6923 -14.9639
H 13.3987 14.2769 -14.5616
H 12.1849 13.2346 -14.2352
O 0.653144 -5.38773 5.64362
H 1.38685 -5.48448 4.97108
H 0.895625 -5.88682 6.47555
O 12.9603 9.99847 3.74764
H 12.5154 10.8839 3.61372
H 13.4537 10.0015 4.61741
O 11.2862 -4.95198 14.8667
H 11.7777 -5.74009 -14.9535
H 11.6556 -4.1119 -14.9268
O 1.93701 5.95645 3.11542
H 1.42032 5.59498 2.3393
H 1.57741 5.56947 3.9645
O -1.27252 -14.5985 9.95964
H -0.70704 -14.4406 9.15012
H -0.694076 -14.9045 10.7158
O 1.80228 -6.49419 -6.09574
H 1.35694 -7.03532 -5.38241
H 2.39772 -5.811 -5.67301
O 8.965 -12.6813 1.85661
H 8.13486 -13.2359 1.79986
H 8.88041 -11.8916 1.24899
O 13.6708 2.25498 -3.2309
H 13.5601 3.2355 -3.06866
H 14.0295 1.81897 -2.40556
O 6.24753 7.41048 7.23504
H 7.05455 6.94666 7.60054
H 5.68016 6.75213 6.74042
O 13.6683 -2.85553 14.8176
H 14.142 -2.04376 -15.0317
H 14.3273 -3.59641 14.6884
O -2.82886 8.18872 14.534
H -3.60229 7.55486 14.538
H -2.61774 8.45104 13.5924
O -1.61258 3.45852 7.11021
H -2.25483 3.2215 6.38129
H -1.20279 2.62371 7.47785
O -2.64848 6.85808 -5.80934
H -2.96752 6.13552 -6.42261
H -1.73294 6.63251 -5.47635
O -8.11453 10.9734 -10.5299
H -8.07348 11.769 -9.92543
H -9.04568 10.6088 -10.5383
O -11.0396 14.8797 4.41944
H -11.4324 13.9601 4.41261
H -10.5452 15.0246 5.27654
O 1.70384 10.718 12.9449
H 0.820682 10.9551 13.3497
H 1.99459 11.4492 12.3278
O 6.05079 -6.17344 2.08011
H 5.73906 -6.69433 1.28545
H 6.46091 -5.31388 1.77523
O -13.2341 13.9026 7.97289
H -12.947 13.8484 7.01652
H -13.3588 14.861 8.22962
O -6.61675 1.44979 4.50626
H -6.78437 1.14354 3.56918
H -6.13537 0.732647 5.01021
O 8.83629 -5.91806 -7.63034
H 9.63131 -6.01997 -8.22829
H 8.11086 -5.43424 -8.1199
O -8.40218 -8.48485 3.65075
H -9.34888 -8.6328 3.93687
H -7.87369 -8.12591 4.42007
O -9.30418 12.7925 14.9123
H -9.99195 13.3789 -14.8505
H -8.63375 13.3595 14.4338
O 10.9208 3.22379 -11.7634
H 9.93534 3.23039 -11.5939
H 11.3798 3.79583 -11.0837
O 13.4279 -9.73372 -1.78386
H 14.0578 -9.24274 -1.18214
H 13.0521 -9.10084 -2.46082
O -4.46302 5.52624 9.44554
H -5.08224 6.31068 9.41059
H -3.76256 5.62276 8.73842
O 4.9939 -14.8118 7.67361
H 5.21606 15.0523 8.59231
H 5.61531 -14.069 7.4246
O 6.94789 -6.79086 13.9104
H 6.01846 -6.4341 14.0046
H 7.17072 -7.35452 14.7058
O -3.78751 -0.2637 -7.15309
H -3.93676 -0.518248 -8.10856
H -2.86932 -0.54385 -6.87304
O 5.95599 5.54508 -3.77921
H 6.14298 6.50049 -3.55069
H 5.71394 5.47506 -4.74695
O 14.3919 9.86568 6.03549
H 13.8073 10.4643 6.58313
H -14.8534 9.94239 6.35216
O 11.1678 -6.17262 -3.90186
H 11.111 -5.85176 -2.95645
H 11.5076 -5.43436 -4.48456
O 8.88199 12.8477 -7.06572
H 8.96297 13.5709 -6.37984
H 8.22769 12.1606 -6.74992
O -11.4051 -4.72815 7.97127
H -11.8229 -3.9012 8.34764
H -10.787 -4.47956 7.22557
O 14.4405 0.288639 13.0802
H -14.8939 0.119749 13.5684
H 14.5561 1.06795 12.4643
O 2.72261 -9.71364 -10.3127
H 2.32634 -10.6309 -10.2736
H 2.38279 -9.17074 -9.54472
O -9.55236 -5.08276 -9.44266
H -10.0395 -5.6294 -8.76156
H -9.8209 -4.12356 -9.35425
O 12.428 10.8564 0.528774
H 11.5983 10.5953 1.02212
H 12.4484 10.3936 -0.357444
O -14.4921 -11.7836 3.62139
H -14.6951 -11.6634 4.59315
H -14.6968 -12.7247 3.35211
O 0.226217 -9.40314 5.43709
H -0.171039 -8.8833 4.68082
H 1.14558 -9.06051 5.63041
O 12.7389 -13.1214 12.3403
H 13.343 -12.9716 11.5576
H 12.6429 -14.1032 12.504
O 11.5601 -9.47015 13.9355
H 10.7251 -8.94823 13.7611
H 11.9159 -9.82812 13.0722
O -6.81293 4.23152 11.1204
H -5.97657 4.55282 10.6763
H -6.80375 3.23258 11.1655
O 11.3864 4.71676 -4.72583
H 11.5989 4.22017 -5.5674
H 12.0993 4.54217 -4.04672
O -10.5487 -6.67905 -7.40906
H -9.97846 -7.33634 -6.91633
H -11.5003 -6.77976 -7.11861
O 3.11198 -11.6004 5.30238
H 2.20489 -11.9172 5.02527
H 3.06532 -10.6332 5.55207
O 5.15188 3.04057 12.2681
H 5.06213 2.39069 13.0229
H 4.33466 3.6152 12.2241
O 0.438583 -13.7787 7.87511
H 1.33916 -13.3484 7.81348
H -0.2372 -13.2053 7.41195
O 12.8133 7.07526 13.8512
H 12.5063 8.02538 13.7965
H 12.0201 6.4735 13.9446
O 11.9636 14.6793 2.26543
H 12.0323 -14.6885 1.70136
H 12.7984 14.5752 2.80604
O -11.0746 13.2807 0.473011
H -10.6548 13.0475 -0.404159
H -10.359 13.4399 1.1531
O -10.5745 -8.81734 5.13616
H -10.7719 -8.39942 6.02293
H -10.6605 -9.81093 5.20939
O 3.09151 -2.72502 7.08365
H 3.28449 -3.24381 6.25082
H 3.95162 -2.42576 7.49674
O 11.6958 -11.7169 8.50077
H 12.6218 -11.8708 8.84556
H 11.7347 -11.1327 7.69011
O 7.30408 7.45834 1.66664
H 6.36578 7.71498 1.43488
H 7.7434 7.04537 0.868859
O -4.25781 2.15146 14.1378
H -4.16729 3.10459 14.4265
H -4.13903 2.09065 13.1468
O 6.37663 -13.5887 -9.7675
H 6.70161 -13.2987 -8.86735
H 7.1567 -13.7024 -10.3828
O -13.1226 11.9826 12.2543
H -13.935 12.3359 12.7182
H -12.4048 11.8056 12.9277
O -10.0925 2.92844 5.22781
H -9.83281 2.00496 5.51023
H -10.1846 2.95909 4.23254
O -12.3312 -12.5059 -1.42679
H -11.8036 -11.7868 -0.974559
H -13.2186 -12.1411 -1.70849
O 0.238636 -8.21619 -12.2441
H 0.072987 -7.41782 -11.6652
H 1.20927 -8.26089 -12.4805
O 7.29945 -10.3199 -14.985
H 7.50123 -10.4132 -14.01
H 8.12387 -10.5153 14.6745
O -6.56252 13.1148 -13.7119
H -7.42254 13.3968 -14.1372
H -6.57645 13.3544 -12.7412
O 11.0746 -11.7998 -1.17273
H 11.7915 -11.104 -1.13056
H 10.6748 -11.8114 -2.08926
O -14.2029 -11.5554 -4.92132
H -14.3611 -11.7976 -5.87856
H -13.6112 -12.2412 -4.4974
O 3.82117 -1.79242 -6.64748
H 4.27034 -1.10002 -7.21213
H 2.83995 -1.60396 -6.60663
O -12.4451 6.81702 13.0971
H -11.5635 6.51196 12.737
H -13.1809 6.30218 12.6573
O -15.0127 9.48879 -9.74235
H 14.6989 10.3654 -9.78648
H 14.81 8.8724 -10.4385
O -1.88888 -7.20793 -3.1198
H -2.12947 -7.14544 -4.08841
H -2.70989 -7.40663 -2.58458
O -14.9646 1.04931 -1.2604
H -14.5566 1.96152 -1.22292
H 14.9525 0.768497 -0.340462
O 12.5157 3.83641 -15.0055
H 12.7778 2.89177 -14.8081
H 12.0086 3.86859 14.324
O -0.952364 13.0517 -1.94515
H -0.816809 12.1238 -2.29234
H -0.190618 13.6308 -2.23557
O 1.46836 5.73908 -10.617
H 1.22338 6.54826 -10.0829
H 0.701493 5.09729 -10.6205
O -13.2519 -6.82668 -7.25379
H -13.6315 -6.92687 -6.33408
H -13.3839 -7.67695 -7.7633
O 10.4269 -1.48546 -10.5164
H 11.0579 -0.982606 -9.92564
H 10.7321 -1.4154 -11.4661
O 4.46199 10.7071 -2.54039
H 4.26479 10.8275 -3.51333
H 4.02866 11.4422 -2.01903
O 8.76121 -3.55046 6.63324
H 9.10871 -3.30646 5.72787
H 8.82225 -2.75691 7.23867
O -8.05218 -13.751 -13.0559
H -8.28554 -12.8924 -13.5124
H -7.32943 -14.2151 -13.5681
O -0.427559 13.731 -12.3356
H -1.07625 14.1179 -11.6802
H -0.360258 14.3317 -13.1322
O -9.96461 -12.8982 -8.08769
H -9.60763 -13.0465 -9.00995
H -9.31757 -13.2615 -7.4174
O -0.393607 -5.53258 -1.54566
H -0.769322 -5.2864 -0.652227
H -0.995108 -6.1975 -1.98846
O 0.173375 -14.7952 1.2653
H -0.287293 -14.9126 2.14507
H 1.00018 -14.2473 1.39246
O 0.268302 -4.05452 9.90107
H -0.573068 -4.53136 10.1555
H 0.13193 -3.06781 9.98934
O -12.5702 3.11797 -7.43437
H -13.1713 2.43237 -7.84495
H -12.2287 2.77959 -6.55751
O -12.4597 6.09042 2.67744
H -12.3289 7.07386 2.80282
H -11.8306 5.75732 1.97514
O -4.3198 6.6169 -10.6857
H -4.32558 5.74211 -11.1701
H -4.78722 7.30699 -11.2382
O -4.12094 -4.75331 1.98615
H -5.10061 -4.90715 2.11492
H -3.76272 -4.22405 2.75527
O -0.340608 6.43846 0.454176
H -1.21787 6.47688 0.932649
H -0.0999285 7.35172 0.125513
O -3.95836 -13.5458 8.01736
H -4.41318 -13.2282 8.84937
H -3.35088 -12.829 7.67516
O 5.54824 8.29706 -3.35741
H 5.06304 8.95385 -2.78017
H 6.05377 8.78713 -4.06752
O -5.8709 1.78762 -3.2829
H -6.09201 0.836229 -3.06851
H -6.70497 2.27252 -3.54597
O 14.2267 12.391 13.1009
H 13.559 12.8032 13.7209
H 13.9756 12.598 12.1553
O -2.1189 -8.57416 -14.7763
H -2.03188 -9.06032 -13.9068
H -1.27531 -8.67938 14.8878
O -11.6095 -5.21293 -3.09334
H -11.8434 -4.50191 -2.43021
H -10.6337 -5.42162 -3.02805
O 3.50131 14.2874 5.86566
H 3.99431 14.6868 6.6386
H 4.08133 14.3127 5.05145
O -5.45826 -8.98295 -13.6364
H -6.43415 -9.15325 -13.4999
H -4.98146 -9.85379 -13.7559
O 4.3244 -1.91688 10.9194
H 3.42139 -1.88106 10.4913
H 4.53856 -2.86173 11.1672
O -14.4565 -4.94484 -9.61533
H -14.6655 -4.70416 -10.5631
H -14.0896 -4.1444 -9.14132
O -11.0813 -7.26919 10.917
H -11.4299 -6.47518 11.415
H -10.8535 -7.99563 11.5653
O -7.4218 13.9075 -11.2986
H -7.21985 14.8256 -10.9577
H -8.40936 13.8063 -11.419
O 5.70763 -8.48171 9.8759
H 6.52464 -9.05127 9.96581
H 5.55292 -8.27077 8.91073
O -0.812231 -13.7357 -8.22224
H -1.04987 -13.3651 -9.1201
H -0.141176 -14.4691 -8.33136
O 11.6951 -12.3706 2.88496
H 10.705 -12.4612 2.7778
H 11.9744 -12.7745 3.75605
O 12.1724 -4.58442 -5.93398
H 12.3047 -5.31229 -6.60681
H 12.7971 -3.82929 -6.1327
O -4.154 -11.578 3.96231
H -4.4365 -10.9891 4.71953
H -4.68369 -12.4259 3.98395
O 12.9998 -0.763225 8.4224
H 13.3702 0.107072 8.09774
H 13.0435 -0.792277 9.42102
O -5.17305 -10.9687 6.4753
H -4.33287 -10.8045 6.99216
H -5.96378 -10.8274 7.07092
O 6.35963 -10.207 2.84295
H 6.69088 -9.38613 3.30824
H 6.27409 -10.0234 1.86367
O 2.19715 8.0719 12.7335
H 2.17597 7.60281 11.8506
H 1.63239 8.89582 12.6868
O -9.32978 -0.566378 14.7005
H -8.48891 -0.188924 15.0884
H -9.41103 -1.53001 14.9551
O 14.1185 8.16872 -11.8804
H 13.8467 9.04707 -12.2737
H 14.2065 7.49005 -12.6096
O -4.79361 -10.5927 -0.729243
H -5.7818 -10.7329 -0.79107
H -4.55178 -9.7267 -1.16698
O 13.4857 -14.919 7.10874
H 12.8361 14.7295 7.6417
H 14.1885 14.6705 6.72834
O -5.78676 10.6158 -8.36923
H -5.47102 11.1259 -9.16931
H -5.21022 9.80909 -8.23941
O -13.5265 13.0962 -14.9419
H -14.216 13.584 -14.4066
H -12.7818 12.806 -14.3409
O 12.3678 13.8655 -0.95491
H 12.9999 14.3326 -0.336626
H 12.3876 12.8827 -0.771689
O -10.4532 10.5053 13.735
H -10.0779 11.3509 14.1146
H -9.73126 10.0057 13.2562
O 2.29361 -5.27318 8.54148
H 1.44247 -5.00035 8.98992
H 2.72604 -4.47055 8.13065
O 8.81502 4.64121 -5.19696
H 9.75046 4.81594 -4.88967
H 8.33442 5.51045 -5.31286
O 1.70923 6.90023 10.0391
H 1.74516 7.3878 9.16677
H 2.6393 6.70583 10.3508
O -5.20318 -13.4963 10.7158
H -5.73031 -12.7069 11.0302
H -5.82579 -14.1899 10.3534
O -2.29573 -6.14127 4.32392
H -2.6066 -5.23411 4.60747
H -1.30816 -6.21384 4.4633
O -8.75304 -4.63895 -5.52172
H -8.92109 -3.65619 -5.44467
H -9.34424 -5.02362 -6.2306
O 8.79089 7.13079 -10.4186
H 8.15463 6.72121 -11.0723
H 9.38733 7.7773 -10.8942
O -12.8973 -9.513 -6.2332
H -13.2163 -10.1972 -5.57734
H -12.5006 -8.73846 -5.74052
O -0.866856 10.7501 13.6067
H -1.31183 10.7179 14.5017
H -1.50207 10.4239 12.9067
O 5.41166 -0.110811 -8.13012
H 6.03876 -0.659075 -7.57682
H 5.78251 -0.0104243 -9.05336
O 10.9084 -6.19334 1.2149
H 10.9315 -5.92969 0.250564
H 10.2196 -5.64838 1.69299
O -6.58538 10.4914 -3.89619
H -6.2816 11.4102 -4.14832
H -6.94209 10.0245 -4.70536
O -7.35432 12.9466 11.9648
H -6.4014 12.6437 11.9516
H -7.43616 13.7646 12.5343
O 0.149805 -1.24214 9.7114
H 0.86078 -0.555007 9.56188
H -0.580639 -0.849788 10.2704
O -13.8966 0.643182 -5.49302
H -13.9166 0.350607 -6.44904
H -14.3638 -0.0358536 -4.92679
O -10.0067 6.99991 -1.16457
H -10.5067 7.85528 -1.30011
H -9.4309 6.82039 -1.9622
O -6.17313 -7.01751 14.8913
H -5.83403 -7.56926 -14.5375
H -5.42273 -6.82582 14.2587
O -6.09463 10.693 5.70486
H -5.77551 11.2002 4.90431
H -5.54325 10.9444 6.50032
O 8.23645 -13.1727 -2.01836
H 7.63218 -12.9865 -1.24366
H 8.46443 -14.1462 -2.03668
O -8.66086 -9.90317 -10.8842
H -9.63368 -9.68167 -10.9517
H -8.24723 -9.36722 -10.1483
O -7.56902 2.5098 14.4488
H -8.54654 2.33942 14.5729
H -7.08317 1.63758 14.3925
O -1.30249 6.39795 -14.3023
H -1.80484 7.10297 -14.8029
H -0.4381 6.77626 -13.9711
O -9.92107 4.02724 -12.2581
H -10.3791 3.96273 -11.3716
H -10.1217 4.91464 -12.6732
O -14.7643 13.1672 -11.2838
H -14.1319 12.8122 -10.5953
H 14.5024 13.1993 -10.9028
O -8.85854 -0.451793 3.48653
H -9.67991 -0.925268 3.16847
H -8.99051 -0.154001 4.43199
O -2.8567 5.4566 -2.24261
H -2.92529 5.48589 -1.2454
H -3.73439 5.71706 -2.64488
O -5.25822 6.09619 6.48803
H -4.63326 6.82225 6.20126
H -5.63918 6.31941 7.38527
O -1.93412 10.1113 4.07396
H -2.14118 10.3685 5.0179
H -0.943031 10.0535 3.95403
O 5.80929 -7.78061 -0.0534477
H 5.32099 -8.22773 -0.802879
H 6.58601 -7.2686 -0.420244
O -13.4393 13.3047 -8.4536
H -14.2577 13.1613 -7.89715
H -13.0486 14.2017 -8.24686
O -0.502243 3.46761 -10.7451
H -1.36559 3.41979 -10.2427
H -0.339018 2.59791 -11.2108
O -8.07646 6.30514 -10.3821
H -7.84699 7.15778 -9.91273
H -9.06982 6.22911 -10.4685
O 0.967652 14.4916 -9.1808
H 1.57261 13.9182 -9.73327
H 1.43481 14.7515 -8.3357
O -8.63761 10.6422 -2.05253
H -8.46887 9.77572 -1.58264
H -7.96722 10.7601 -2.7851
O 7.81928 -10.26 -5.12651
H 8.27129 -9.43901 -4.77778
H 6.98647 -9.99995 -5.61515
O -2.48959 8.92343 12.0065
H -1.94869 8.78069 11.1776
H -3.35622 9.36149 11.7677
O 0.976702 7.2683 -13.0292
H 1.71267 6.92881 -12.4435
H 0.572511 8.08488 -12.6171
O 9.83998 13.3706 0.116034
H 10.0185 12.503 -0.348133
H 10.6661 13.9338 0.0991368
O 6.68817 4.19065 0.209838
H 6.0743 3.45903 -0.0866162
H 6.18348 4.83846 0.780478
O -11.5434 0.147684 -13.1707
H -12.3616 -0.00736228 -13.7244
H -10.9114 0.74139 -13.6689
O -10.584 -10.2243 -7.5899
H -11.4025 -9.92071 -7.10218
H -10.6574 -11.2016 -7.78821
O -9.83844 8.8403 -11.6533
H -9.29701 8.17575 -12.1683
H -10.063 9.61596 -12.2431
O 14.7085 8.77011 1.86451
H 14.2001 9.52491 2.27897
H -14.5257 8.81452 2.1528
O -13.6782 -9.16577 -9.41774
H -14.0589 -8.5691 -10.1242
H -14.312 -9.21471 -8.64578
O -11.6721 0.0393789 -10.511
H -11.8794 0.257987 -11.4645
H -10.8559 0.540703 -10.2239
O -11.8239 8.2254 -9.98684
H -12.5077 8.76712 -10.4756
H -10.9573 8.25448 -10.485
O -12.3051 -11.6339 7.30004
H -11.8721 -11.4563 6.41635
H -11.6299 -12.015 7.93156
O 3.5857 -6.87746 3.62948
H 4.29214 -6.31153 3.20445
H 3.11966 -7.41339 2.9255
O 4.14536 11.4125 15.0543
H 3.39673 11.9027 14.6078
H 4.26087 10.5172 14.6241
O -11.4616 -7.77516 7.56856
H -11.5177 -6.79848 7.7758
H -12.3791 -8.1726 7.58475
O 1.32158 -10.3055 -14.9484
H 2.0205 -10.973 14.9855
H 1.70829 -9.38433 -14.9923
O -9.27488 -9.74474 11.6962
H -9.2229 -9.23154 12.5529
H -9.90025 -10.5171 11.8078
O -7.58502 8.4228 15.0507
H -6.90586 7.8216 14.6297
H -7.11958 9.16002 -14.6502
O -6.73209 -0.162914 -14.2659
H -6.51071 -1.12566 -14.4211
H -5.94333 0.29935 -13.8607
O -9.80959 -1.77426 -5.65683
H -10.6991 -2.18424 -5.85838
H -9.88833 -1.18612 -4.85192
O 6.33604 -5.77339 -5.07302
H 7.04686 -6.45212 -4.88849
H 6.62915 -5.17891 -5.8218
O -7.20493 -9.80403 7.94058
H -6.82247 -8.98626 7.5105
H -8.16376 -9.64094 8.17303
O -5.75246 -6.77563 -10.8719
H -5.08718 -6.89753 -11.6084
H -5.68547 -7.54129 -10.2321
O 7.5192 -12.5507 -7.50562
H 7.0074 -11.699 -7.39324
H 7.36918 -13.1372 -6.7097
O 4.042 0.909659 6.69017
H 4.09808 1.90746 6.72526
H 4.54123 0.520332 7.46424
O -12.7793 8.97686 2.5309
H -12.5566 8.7588 3.48108
H -12.2806 9.79737 2.25152
O -2.5687 11.3553 9.21841
H -2.88539 12.2481 9.53877
H -1.96739 11.4786 8.42896
O 6.60004 -1.42298 -11.893
H 7.05632 -2.09145 -12.4803
H 5.77974 -1.83385 -11.4952
O 2.23163 -14.3493 -13.9848
H 1.23889 -14.4678 -13.9642
H 2.44916 -13.3836 -14.1266
O -13.7024 -7.37848 9.54028
H -13.7003 -7.77238 8.62113
H -12.7647 -7.33001 9.88428
O -6.5252 7.5633 9.3426
H -6.59683 8.09303 10.1877
H -7.44143 7.33159 9.01578
O -7.69176 -10.6606 -13.2676
H -8.45446 -10.9343 -13.8536
H -8.04442 -10.3496 -12.385
O 14.4798 12.9867 6.2714
H 13.5497 12.6321 6.36752
H -15.0571 12.295 6.57815
O 5.41124 -12.7093 -3.52399
H 5.60008 -12.0805 -2.76972
H 5.1704 -13.6076 -3.15665
O 10.2676 10.0172 1.95448
H 9.29461 9.91887 2.16314
H 10.809 9.60316 2.68627
O -1.82868 7.53531 -10.2906
H -1.41447 8.21155 -10.8998
H -2.67959 7.19962 -10.6947
O 11.17 2.18998 0.811771
H 10.2342 2.49016 0.996774
H 11.5272 1.7022 1.60831
O 11.2726 10.3367 -14.2011
H 11.7951 10.3377 -15.0538
H 11.8794 10.5593 -13.4381
O 5.98242 14.1416 9.92882
H 5.65401 13.6162 10.7137
H 6.79715 14.6587 10.1912
O -0.417875 -8.38539 -7.36938
H -0.247367 -8.18894 -6.40381
H 0.321557 -8.00242 -7.92307
O -6.24623 -10.9186 13.7008
H -6.63671 -10.9023 12.7804
H -5.96746 -9.99419 13.9611
O -8.72705 -14.8836 -2.43894
H -9.20123 -14.2561 -3.05652
H -7.8066 -14.5386 -2.25535
O 4.31236 -12.7066 -6.27332
H 4.83029 -12.5252 -5.43736
H 4.60918 -12.0781 -6.9923
O -14.2567 -2.66183 5.0065
H -14.0873 -1.77213 4.58255
H -15.0895 -2.61505 5.55806
O -7.14589 -1.51216 -9.41201
H -7.34148 -0.821659 -8.71562
H -7.18132 -1.09092 -10.3183
O 7.18969 11.5685 -1.93319
H 7.85401 10.8515 -2.1443
H 6.26527 11.2266 -2.10215
O 8.51831 -10.2376 -0.513453
H 9.33945 -9.82425 -0.119921
H 8.7671 -10.7644 -1.32618
O 14.1251 -8.89303 5.84462
H 13.8654 -8.9185 4.8793
H 14.7064 -8.09682 6.01247
O -11.2826 3.71849 -9.92644
H -11.5111 3.47331 -8.98426
H -11.8995 4.43939 -10.2422
O -4.93874 8.80009 0.685256
H -4.91576 9.44396 -0.0795285
H -4.902 9.30526 1.54749
O 13.73 4.0495 1.37895
H 13.5777 4.88527 1.90647
H 13.2746 3.28245 1.8309
O -9.45031 0.373769 6.25124
H -8.63397 0.264033 6.81829
H -10.2394 -0.0190779 6.72344
O -14.1297 11.8201 9.34694
H -13.9415 11.7089 10.3227
H -13.7757 12.7027 9.03766
O -7.59017 -12.1885 0.463321
H -7.42521 -11.3602 -0.0721501
H -8.45472 -12.6027 0.178747
O -5.66301 -14.5931 2.06597
H -6.23322 -13.7909 2.24281
H -5.80144 14.9237 2.79173
O -13.459 -2.24376 -9.8832
H -13.0085 -2.12607 -8.99823
H -12.7906 -2.11946 -10.6166
O -0.73776 -3.1046 -12.0279
H -1.55284 -3.22395 -11.461
H -0.980747 -2.60668 -12.8604
O 14.3775 2.99659 -8.79867
H 13.9008 3.82412 -9.09533
H 14.5366 3.03907 -7.81233
O 8.39831 4.37883 -1.91965
H 7.87002 4.53019 -2.75511
H 7.77685 4.16007 -1.16736
O 12.0084 1.47998 14.0032
H 11.3481 0.754824 14.1986
H 12.881 1.07253 13.7339
O -1.18557 -1.85453 13.5875
H -1.72593 -1.45078 12.8493
H -0.382178 -2.30878 13.2025
O 8.68682 -0.408683 -2.05322
H 9.23912 0.413482 -2.19106
H 7.72291 -0.192646 -2.20876
O -8.36687 6.78714 -3.20149
H -7.41891 7.00416 -2.96855
H -8.38897 5.97785 -3.78848
O 8.09485 -0.258193 -9.80939
H 9.00555 -0.668488 -9.85716
H 7.55757 -0.546086 -10.6021
O -13.3895 -3.85166 1.01876
H -13.9875 -4.57409 0.671653
H -13.4282 -3.83834 2.01792
O -5.83743 -8.78344 -9.11875
H -6.02754 -9.72667 -9.39107
H -6.50236 -8.49495 -8.42981
O 14.4068 -3.11027 -6.47895
H -14.7958 -3.12117 -6.63265
H 13.9796 -2.4562 -7.10318
O 13.9675 1.57224 7.54736
H 13.0944 1.97614 7.27443
H 14.7168 2.07781 7.11963
O 8.18341 -4.51099 13.9243
H 7.66642 -5.34076 13.714
H 8.88939 -4.72056 14.6008
O 8.45073 -1.74078 10.2553
H 9.11019 -2.43116 9.95783
H 7.87039 -1.47993 9.48381
O -9.33928 11.2664 7.95778
H -8.38446 11.5388 8.07637
H -9.81995 11.3475 8.83092
O 1.67189 1.0553 10.3853
H 2.29368 1.19945 11.1551
H 0.746239 1.32642 10.6492
O 6.97868 6.70552 -8.41564
H 7.41479 6.88014 -7.53286
H 7.42276 7.25714 -9.1217
O -12.7908 -14.8851 0.698073
H -12.2536 14.4925 0.473791
H -12.3806 -14.084 0.262147
O 2.29559 -5.42683 -13.1431
H 2.03266 -5.33748 -12.1825
H 1.52305 -5.17302 -13.7251
O 14.2761 -11.384 13.8808
H -14.9906 -11.7328 13.724
H 13.6109 -12.0032 13.4637
O -14.8173 -5.15384 -14.7842
H -15.093 -6.05458 15.0708
H -13.8651 -5.18828 -14.4808
O 6.3242 -5.37415 8.48701
H 7.03405 -6.03822 8.25221
H 5.88764 -5.04311 7.65047
O -7.64404 2.38282 -7.36702
H -8.04774 3.29699 -7.40331
H -6.64697 2.45883 -7.35937
O -3.19679 11.8509 -4.545
H -3.92861 12.1227 -5.16994
H -3.49325 11.9966 -3.60113
O 9.79734 -7.13554 9.95201
H 9.04991 -6.92578 10.5824
H 9.63907 -6.6707 9.08088
O -14.8607 -7.09946 -4.64841
H 14.7032 -7.81352 -4.33645
H 15.0807 -6.22873 -4.22451
O -10.335 -11.9838 2.33843
H -10.5476 -11.2745 1.66634
H -10.0533 -12.8182 1.8647
O -13.2011 6.67788 5.24506
H -12.5246 7.40483 5.36282
H -13.1707 6.3437 4.30305
O -5.44439 -2.9327 -14.7047
H -6.23539 -3.46104 -14.3962
H -4.77964 -3.54607 15.0595
O 14.8707 -12.3011 -1.27907
H 14.7049 -11.4264 -1.73455
H 14.1372 -12.4797 -0.623285
O 14.742 11.9828 1.14888
H 14.0959 11.2719 0.871157
H 14.352 12.8826 0.953207
O 12.009 -13.4795 -5.18473
H 12.4024 -14.0084 -4.43277
H 11.1437 -13.0741 -4.89012
O 3.01517 -12.8227 7.98108
H 2.91544 -12.5897 7.01374
H 3.613 -13.6191 8.07214
O 9.5778 -13.2633 8.4056
H 8.94818 -12.8861 7.72641
H 10.3977 -12.6927 8.45316
O -5.32653 8.86119 -11.9791
H -6.25922 8.98272 -11.6396
H -5.10823 9.59417 -12.6234
O 1.23093 -10.5729 -7.82454
H 2.1606 -10.2574 -7.63439
H 0.573787 -9.93484 -7.42318
O 6.6358 -0.427025 14.7517
H 7.29888 0.30354 14.9148
H 7.10436 -1.22297 14.3684
O 10.1327 -3.09912 -4.8871
H 9.78423 -2.41152 -5.52407
H 10.9103 -3.57288 -5.30064
O 8.03923 7.18146 -5.90172
H 8.98343 7.2496 -5.57948
H 7.69479 8.09455 -6.11993
O 4.63634 -6.81303 -12.1629
H 4.54757 -6.67931 -11.1758
H 4.18052 -6.06362 -12.6431
O -3.62253 13.7152 4.87201
H -3.19986 14.045 4.02787
H -2.9145 13.3614 5.48313
O -14.9734 9.46765 -4.06331
H 14.334 9.00001 -4.09811
H -14.5823 9.51009 -4.98265
O -13.2096 -3.23514 -1.69811
H -14.0298 -3.72171 -1.99898
H -12.952 -3.54944 -0.784423
O -13.7106 -2.45456 13.69
H -13.8432 -1.49817 13.9502
H -12.748 -2.70065 13.804
O -9.29328 14.3549 2.35444
H -8.72877 13.638 2.76353
H -9.89333 14.7456 3.05247
O 6.00214 6.80597 12.9096
H 6.88835 6.45288 12.6096
H 5.83168 6.52092 13.8528
O 13.5198 7.75231 -7.35534
H 14.201 7.87823 -8.07656
H 12.6428 7.5017 -7.76526
O -1.29919 9.52897 -5.56229
H -1.9927 10.1733 -5.23994
H -1.68962 8.60901 -5.59747
O 3.2728 12.9868 -1.51764
H 2.548 13.3683 -2.09128
H 3.05927 13.1545 -0.555217
O -6.84805 -3.97286 2.56604
H -7.06822 -3.29434 3.26683
H -7.6936 -4.31623 2.15722
O 0.802679 9.25003 5.77074
H 1.10714 9.31273 6.7212
H 1.59858 9.17388 5.17013
O -7.5764 -1.57899 0.653111
H -7.31285 -2.16085 1.42251
H -6.75718 -1.29036 0.157563
O -2.87202 -3.43852 4.69847
H -3.78128 -3.54452 5.10095
H -2.35749 -2.75281 5.21332
O -0.0777049 0.817992 -11.922
H 0.708937 0.21052 -11.8117
H -0.899025 0.366394 -11.5735
O 6.6311 -8.00719 -9.77243
H 6.08662 -8.77973 -10.0991
H 7.59384 -8.1599 -9.99561
O -5.69592 -7.62789 -4.0215
H -6.53834 -7.905 -4.48359
H -5.41267 -6.72894 -4.35566
O 4.26823 -3.21792 -2.24716
H 4.00711 -3.03954 -1.29848
H 5.22496 -2.96088 -2.38349
O -10.5906 -6.85843 -12.7696
H -11.1566 -6.09509 -13.081
H -9.80439 -6.50528 -12.2625
O 4.58332 -12.9681 -11.8822
H 5.4555 -13.4564 -11.8534
H 4.39686 -12.6738 -12.8195
O -2.18146 -0.756645 10.9043
H -2.80695 0.0235351 10.8959
H -2.61762 -1.53839 10.4587
O -0.2443 -5.62949 -11.0423
H -0.619314 -5.12212 -11.8181
H 0.485169 -5.09484 -10.6157
O -7.74022 1.21002 1.13909
H -7.86463 0.219712 1.20082
H -8.54038 1.67102 1.52278
O 5.69381 -1.47353 0.111455
H 5.52129 -0.917788 -0.701799
H 5.77198 -0.878497 0.91134
O -11.2566 -2.60759 -12.5379
H -11.1934 -1.61352 -12.6264
H -11.1128 -2.86696 -11.5828
O 7.88602 5.00144 -14.0619
H 8.0125 4.24969 -13.4147
H 7.29566 4.70065 -14.8109
O 1.23252 1.23612 -14.821
H 0.266114 1.37805 -15.0353
H 1.41657 1.54819 -13.889
O 6.98906 9.54437 -14.1044
H 7.34397 9.29352 -13.2038
H 5.98972 9.51111 -14.09
O 10.7883 -9.56108 1.24116
H 11.6761 -9.58873 1.70061
H 10.4319 -8.62696 1.26065
O 9.86666 -0.464979 14.4978
H 9.2618 0.267419 14.8104
H 9.35003 -1.10302 13.9269
O -11.8825 11.9052 -10.4313
H -12.4853 11.1076 -10.4534
H -12.0668 12.4395 -9.6063
O -8.0483 10.0637 1.9153
H -8.62164 9.49407 1.32639
H -7.47246 9.47872 2.48646
O 5.70574 -12.9281 14.671
H 6.27936 -12.1182 14.5484
H 6.24121 -13.6534 -15.087
O -14.6049 3.74716 -0.758663
H -14.4771 4.62234 -1.22529
H 14.8067 3.81246 -0.135193
O 13.1 -3.11444 12.2114
H 13.3455 -3.07321 13.1799
H 12.2912 -3.69112 12.0967
O -4.47819 -0.921723 13.3949
H -4.32013 -0.0608066 13.8785
H -5.46151 -1.09113 13.3286
O 2.60907 6.72925 -7.71031
H 1.75739 6.60115 -8.21846
H 2.96125 5.83938 -7.42033
O -13.9781 11.8903 -3.51706
H -14.1704 10.9493 -3.79536
H -13.577 11.8917 -2.601
O -14.9559 -7.83606 -11.4268
H -15.0912 -6.8922 -11.7282
H -14.763 -8.41461 -12.2193
O 5.43452 -10.0889 -10.5893
H 4.44694 -10.2356 -10.533
H 5.89187 -10.9616 -10.7606
O -13.6111 6.68058 -13.902
H -13.5197 7.61473 -14.247
H -12.748 6.19202 -14.03
O -13.1167 11.9722 2.55026
H -14.0302 11.9848 2.14364
H -12.5692 12.7139 2.16285
O -4.58888 9.84754 3.19321
H -4.81538 10.7929 2.9588
H -3.60947 9.77648 3.38219