2593
Atoms. Timestep: 1000000
O 12.6028 -12.8807 13.0101
H 12.5848 -11.8898 13.1436
H 12.9266 -13.3237 13.8461
O -2.43114 0.376066 9.08592
H -3.31443 0.1046 9.46809
H -2.54722 1.19932 8.53028
O -10.5072 -4.60703 -14.8627
H -10.1325 -5.42608 -14.4283
H -11.2636 -4.86496 14.8185
O 13.8877 13.8773 -2.38047
H 14.4075 14.2074 -3.1684
H 13.5667 12.9473 -2.55888
O -2.56275 0.483382 -8.72802
H -2.29559 -0.292994 -8.15721
H -1.74328 0.947477 -9.06423
O 3.29619 0.281919 13.6225
H 2.52932 -0.191081 14.0562
H 3.77469 0.835658 14.3039
O 13.9564 -1.6986 7.15146
H 13.8898 -2.66711 7.39128
H 14.8647 -1.5093 6.77842
O -6.73334 -9.7341 -7.72485
H -6.6806 -10.5192 -7.10777
H -7.61982 -9.7328 -8.18755
O -12.9076 -11.761 -11.1773
H -12.8465 -12.0306 -12.1383
H -13.5125 -10.9694 -11.0911
O 6.65744 -6.82567 7.17088
H 6.74083 -5.8525 7.38522
H 5.84014 -6.9756 6.61457
O -3.76424 -9.98292 14.126
H -3.4391 -10.5308 13.3552
H -3.46164 -10.4004 14.9828
O 1.99015 12.3608 9.06901
H 1.38244 11.954 8.38699
H 2.23138 11.6726 9.75324
O 6.43162 -12.4826 13.1257
H 6.85837 -12.4321 14.0286
H 6.37942 -11.5657 12.73
O -11.3935 -4.83884 0.381816
H -10.8938 -5.66394 0.645312
H -12.1989 -4.73625 0.965589
O -5.0227 2.4427 14.791
H -5.23534 1.88646 -14.6881
H -5.84613 2.55284 14.2344
O -8.91628 -3.32359 -12.0826
H -9.32982 -2.94958 -11.2526
H -8.81365 -2.59598 -12.7609
O -2.45312 11.2143 -7.20478
H -1.62861 11.1691 -7.76877
H -2.38905 10.5432 -6.46627
O -5.1124 -0.187242 5.55886
H -5.64091 -0.285035 6.40212
H -5.19988 0.748515 5.21731
O -4.28072 -3.00013 13.684
H -3.91963 -2.36349 13.0027
H -3.58143 -3.67822 13.9102
O -5.94183 -2.03287 3.73825
H -6.65901 -1.55725 3.22895
H -5.50483 -1.39533 4.37269
O -7.95712 -14.8285 0.153365
H -8.87398 15.0549 0.141771
H -7.64179 -14.6905 -0.785501
O 6.30247 6.51358 -5.26294
H 6.60179 6.5352 -6.21682
H 5.95844 5.60097 -5.04217
O 6.33072 -9.87409 6.88928
H 7.32931 -9.82145 6.88822
H 5.95857 -9.15784 6.299
O 5.54779 4.79461 -11.7501
H 6.35678 4.30662 -12.0777
H 5.6092 5.75702 -12.0146
O -14.6624 4.91948 12.3291
H 14.9115 4.7158 13.0048
H -14.4307 4.08602 11.8275
O 8.45562 -3.08353 0.700127
H 8.03118 -2.64512 1.49234
H 9.12081 -2.45937 0.290384
O -0.375346 4.61223 11.0179
H 0.149488 4.80981 11.8459
H -1.07433 3.92687 11.222
O -12.1593 8.07908 0.939177
H -12.5649 7.33498 0.408391
H -11.8358 8.79334 0.318583
O -2.07189 9.65969 -4.92302
H -2.20522 8.68855 -5.12068
H -1.32617 9.76668 -4.26544
O -2.0532 -8.8667 -9.90109
H -1.85372 -8.93133 -8.92335
H -2.80188 -9.48868 -10.1304
O 4.73973 5.08347 -8.84523
H 4.68123 5.71058 -9.62194
H 5.69834 4.95763 -8.58992
O 4.90096 -1.12452 -1.15746
H 5.89798 -1.07746 -1.09672
H 4.52808 -0.200358 -1.24011
O 2.24035 -10.4912 -1.23873
H 2.32865 -10.2853 -2.21328
H 1.28061 -10.6688 -1.02122
O -7.56041 8.90956 -10.0718
H -8.51771 9.03056 -9.80934
H -6.99484 9.57607 -9.58619
O 3.7153 12.9671 1.06796
H 4.27509 12.3413 1.61103
H 2.7527 12.7085 1.14846
O 0.744818 -6.79275 -3.49776
H 0.859225 -6.028 -4.13182
H 1.5112 -6.81087 -2.85567
O 9.3839 2.72642 11.9862
H 9.72107 3.50854 11.4622
H 8.67779 3.03244 12.6247
O -8.58549 0.969201 -3.11892
H -9.26196 1.12884 -2.39999
H -7.86549 0.368411 -2.77164
O 15.0064 -15.0014 2.88114
H 14.9267 14.4878 2.27733
H 14.5736 15.0763 3.75907
O -4.53312 -6.46208 5.07889
H -5.0592 -5.63723 5.28585
H -3.93597 -6.67903 5.85108
O 6.81103 -5.34084 11.8338
H 6.69427 -5.51783 12.8111
H 7.77732 -5.42938 11.5922
O -5.93025 -12.1793 -13.8574
H -6.5317 -12.5563 -14.5617
H -4.97689 -12.3451 -14.1095
O -6.74174 13.9448 7.72795
H -6.63032 13.6304 8.67064
H -5.87162 14.3051 7.39172
O 1.77608 13.0804 14.8215
H 1.41046 13.8029 14.2348
H 1.21315 12.2591 14.729
O 11.3568 5.43097 13.3119
H 10.5947 5.385 13.9577
H 11.0242 5.75546 12.4265
O -15.0894 -5.36157 -15.1117
H 14.2055 -5.46641 -14.993
H -14.6933 -4.97164 -14.2805
O 8.83062 8.11468 7.18919
H 8.11649 7.55905 7.61492
H 8.95956 7.8227 6.24152
O 7.74426 2.37577 -0.5936
H 7.04272 3.0382 -0.330958
H 8.00571 2.52745 -1.5468
O 1.08796 14.1579 4.80917
H 1.97993 14.4579 4.47099
H 1.20074 13.3289 5.35679
O 10.7735 -4.34819 7.40304
H 10.6548 -3.38171 7.6306
H 11.4433 -4.43724 6.66589
O -4.90776 14.3837 10.0179
H -5.34935 13.4981 10.1617
H -4.13355 14.2728 9.39483
O -10.5594 -9.10355 -6.62958
H -9.97744 -8.35644 -6.3084
H -11.52 -8.84995 -6.51666
O -12.694 13.5547 8.39633
H -12.4793 12.7263 7.87905
H -13.5461 13.9502 8.05359
O -13.6297 1.05361 13.4121
H -14.4733 0.821691 12.928
H -13.0685 1.6491 12.8373
O -5.92738 8.71914 -6.50338
H -5.55476 8.78974 -5.57811
H -6.30598 7.80394 -6.6413
O -13.5664 -1.84033 6.65201
H -13.1419 -2.25739 5.84843
H -13.5074 -2.47137 7.42548
O 12.5528 -10.3137 13.7406
H 12.2534 -9.52621 13.202
H 11.8377 -10.562 14.394
O -3.47012 -11.4495 -7.4928
H -4.18 -12.0038 -7.0583
H -2.69848 -12.0337 -7.74438
O -7.06758 -4.2271 10.3932
H -6.69072 -4.87229 11.0578
H -7.96635 -4.54568 10.0921
O 8.94187 -9.62903 6.84804
H 9.61571 -10.0715 6.25635
H 9.09362 -8.64064 6.84499
O -9.64031 4.6697 6.73323
H -10.344 5.37936 6.76774
H -9.22524 4.56764 7.63725
O 0.143257 -8.24384 -11.2605
H 0.41476 -7.28303 -11.205
H -0.667966 -8.39418 -10.6955
O -13.3015 -7.9736 -6.02999
H -14.1355 -7.94101 -6.58087
H -13.3691 -8.71896 -5.36679
O -2.07637 2.55194 12.2012
H -1.78865 1.59794 12.1171
H -3.07246 2.60694 12.1325
O -8.39084 -9.38796 6.84075
H -8.56784 -9.20358 5.87398
H -9.24765 -9.33118 7.3532
O 2.24685 -10.3876 -11.7346
H 1.96704 -10.8531 -12.5742
H 1.5971 -9.6566 -11.5264
O 8.10022 12.6833 -11.4714
H 7.82486 13.181 -10.6489
H 7.53696 12.9778 -12.2434
O -8.46653 -14.6865 -3.96349
H -8.34792 -15.0944 -4.86874
H -8.80609 14.9028 -3.32754
O -11.7668 -2.16424 10.3653
H -11.5089 -1.89397 11.2929
H -12.1218 -1.36947 9.87313
O 4.66011 -9.20662 -3.63506
H 4.1774 -10.0684 -3.79111
H 4.06604 -8.4419 -3.8845
O 11.5972 4.97213 1.93862
H 12.2759 4.817 2.65647
H 10.7809 4.42651 2.12813
O -0.543561 -12.5473 12.8912
H -0.599526 -11.63 12.4972
H -0.738598 -13.2265 12.1837
O -1.16879 -0.692394 -13.0981
H -1.80707 -1.10088 -12.4456
H -1.68114 -0.271186 -13.8464
O -7.22728 -8.60854 11.8124
H -7.3689 -7.78333 12.3592
H -6.63796 -8.39507 11.0333
O -9.32291 13.7457 -2.2445
H -9.16753 12.8321 -2.62009
H -10.1595 13.743 -1.69665
O 10.9221 -1.425 0.363019
H 11.6235 -2.13402 0.290398
H 10.842 -1.13174 1.31566
O -10.5578 -7.88026 -12.036
H -10.5818 -8.7101 -12.5935
H -10.0626 -7.16331 -12.5266
O 13.8728 -14.0969 -15.129
H 14.109 -15.0248 14.8647
H 13.1616 -14.1371 -14.4272
O 12.6228 2.93512 -13.7364
H 12.5063 2.81416 -12.7506
H 13.1878 2.19379 -14.0987
O 11.2153 13.6779 -13.2264
H 11.5074 13.2718 -14.0923
H 11.306 13.0029 -12.4943
O -11.6077 10.2974 9.7746
H -12.1896 10.7684 10.4375
H -11.8688 10.5703 8.84872
O 13.9338 -2.12014 -2.02084
H 13.875 -2.69768 -2.83505
H 13.6022 -2.62908 -1.22653
O -8.45541 0.441211 -9.22354
H -8.54266 1.43233 -9.12345
H -9.3205 0.00395448 -8.97784
O 7.16007 -12.7463 2.38679
H 6.68811 -12.9165 3.25181
H 6.75709 -11.9484 1.93856
O -1.65327 14.8473 11.9777
H -2.0737 13.9499 11.8437
H -1.76591 15.1293 12.9304
O 12.8537 -9.85208 -11.7092
H 13.709 -10.0217 -12.1987
H 12.0968 -9.81971 -12.362
O 7.51346 -7.60175 -1.51907
H 7.43895 -6.83313 -2.15439
H 6.69793 -8.17565 -1.59314
O 5.79489 -9.86357 -1.33243
H 5.37474 -9.59293 -2.19856
H 5.47613 -10.7767 -1.07832
O 9.87719 1.35359 7.27324
H 9.42916 1.4388 6.38332
H 9.32208 1.80686 7.97064
O 4.97035 12.0948 -9.11562
H 5.13961 12.9547 -9.59708
H 5.30953 12.1656 -8.17759
O 12.3533 -10.1766 -6.8211
H 13.1117 -10.1851 -7.47271
H 12.5134 -9.46942 -6.13245
O 3.61041 -14.8769 -0.261816
H 3.24531 15.1152 -1.14636
H 4.04557 14.6271 0.190739
O -9.93477 9.83865 -9.01358
H -9.50831 10.7178 -8.80117
H -10.7977 9.99427 -9.49427
O -14.1622 -4.08838 12.7748
H -14.4736 -3.14528 12.8911
H -14.3818 -4.61555 13.5956
O 12.7922 -6.10683 1.80894
H 11.9723 -6.63898 1.59791
H 13.121 -6.34907 2.72172
O 14.3292 2.77575 -1.89115
H 14.3821 1.80642 -1.65124
H 14.3641 2.87539 -2.88554
O -10.2118 -10.3342 -13.2936
H -10.2198 -10.4317 -14.2887
H -9.82009 -11.1567 -12.8813
O 8.58614 3.60424 4.46339
H 8.27144 3.81869 3.53877
H 9.54826 3.33333 4.43356
O 10.8141 -3.60898 -9.07154
H 11.5447 -4.06863 -8.56666
H 10.8092 -2.63637 -8.83923
O -13.9971 -3.56424 -9.87439
H -14.6846 -2.96932 -9.45796
H -13.1192 -3.43211 -9.41422
O 15.0168 -2.81412 2.37542
H -14.8488 -1.93743 2.61548
H 14.1528 -2.91839 2.86796
O 5.71632 -13.2728 4.91
H 4.86886 -13.7858 4.77353
H 5.60662 -12.6474 5.68248
O -7.45942 11.0293 -4.97053
H -7.94086 10.3539 -5.52909
H -6.56138 10.6713 -4.71498
O -14.2499 -8.14496 15.1301
H -14.7346 -7.3631 14.7381
H -14.3823 -8.94602 14.5464
O 6.94802 4.59756 2.49102
H 6.55508 4.48296 1.57865
H 7.27182 5.5375 2.59882
O 11.7649 8.64406 5.07516
H 11.1917 7.87264 5.35148
H 12.3072 8.3867 4.27545
O -10.7539 0.346184 -15.0858
H -9.97312 0.337577 -14.4612
H -10.8334 1.24938 14.7748
O 9.67715 10.9497 1.67726
H 9.93095 10.0073 1.45968
H 10.2058 11.5776 1.10609
O 6.86358 -11.754 -7.40553
H 6.43711 -11.0095 -6.89193
H 6.93418 -11.4964 -8.36919
O -6.68933 -10.3698 13.804
H -7.03956 -10.0559 12.9215
H -5.71825 -10.1426 13.8771
O -14.5389 12.9119 -12.8791
H -14.5213 12.3651 -12.0421
H -13.6062 13.0303 -13.2196
O -1.24612 0.0199206 11.9192
H -1.73204 0.153127 11.0555
H -0.277616 -0.14692 11.7345
O 14.5323 -6.51197 -0.465876
H 13.9284 -6.07608 -1.1331
H 14.0146 -6.72603 0.362438
O -4.67296 8.83507 -10.3017
H -4.23551 9.58599 -10.7964
H -4.94123 8.12133 -10.9487
O 6.59344 9.75101 7.5685
H 6.20919 10.1696 8.39136
H 7.43359 9.26261 7.80422
O 6.57816 8.19774 14.6611
H 5.80057 8.65404 14.2286
H 7.38262 8.78948 14.6097
O 6.76347 -3.94668 4.79375
H 5.77496 -4.06942 4.7058
H 7.05387 -4.22584 5.70901
O 1.49445 -1.20938 -12.3796
H 1.67557 -2.19271 -12.3939
H 0.564192 -1.04657 -12.0508
O 1.88399 -11.3914 2.06834
H 1.89084 -12.3068 2.47067
H 1.77792 -11.4639 1.07666
O -7.99229 5.06956 -0.873166
H -7.48451 4.38317 -0.352607
H -8.78602 5.36932 -0.343938
O -9.94287 -4.59361 9.64773
H -10.251 -5.39298 10.1635
H -10.4852 -3.79647 9.91298
O 10.9846 -8.10744 -10.2975
H 10.48 -8.07912 -11.1604
H 11.8786 -8.52936 -10.4479
O 13.3064 -5.28594 11.884
H 13.0612 -4.65238 11.1503
H 12.6611 -5.18484 12.6412
O -13.4413 -0.175767 -14.4887
H -12.4675 -0.381447 -14.3917
H -13.6267 0.125943 14.8585
O -6.20585 -8.65537 -0.000575604
H -6.65658 -9.51189 -0.251882
H -6.52107 -8.36548 0.903056
O -5.43125 0.830606 -13.3389
H -5.46428 -0.0572616 -12.8801
H -5.37949 1.5578 -12.6545
O 2.64006 6.53502 -2.25563
H 2.36939 5.73705 -1.71718
H 2.18703 6.50516 -3.1466
O 14.2649 10.4783 9.97235
H 13.5489 10.5019 10.67
H 15.1089 10.8614 10.3478
O 7.3107 -9.96935 11.9302
H 7.32964 -9.22081 12.593
H 6.65652 -9.7557 11.2048
O -6.50968 -5.76421 -1.9743
H -5.54018 -5.98571 -2.07893
H -7.04568 -6.60837 -1.96828
O -10.6951 -10.3702 8.54949
H -11.5626 -10.8654 8.50199
H -10.0659 -10.8575 9.15502
O 2.88882 -10.884 -14.5149
H 3.25967 -9.961 -14.6176
H 3.60999 -11.4995 -14.1971
O -4.74689 6.22179 9.23748
H -5.2347 6.1999 10.1101
H -4.60536 5.28719 8.91122
O -8.94826 3.08517 -9.23071
H -9.21936 3.67967 -8.47373
H -9.19471 3.51692 -10.0984
O 10.6653 -13.6646 11.4939
H 11.4568 -13.3786 12.0339
H 10.115 -12.8634 11.259
O -12.1376 13.6596 -13.855
H -11.3987 13.2276 -13.338
H -11.819 14.5317 -14.2263
O -1.00516 13.404 -4.58481
H -0.666686 12.4717 -4.71223
H -0.394351 14.0465 -5.04747
O -8.22086 0.929282 -13.8938
H -7.22769 0.872189 -13.9954
H -8.45237 1.01692 -12.925
O 2.83254 -13.7757 -4.5773
H 2.58345 -14.3927 -3.83089
H 3.82859 -13.727 -4.65122
O 14.0217 -10.5169 1.11176
H 14.0928 -10.9742 1.99821
H 14.7431 -10.8515 0.505392
O 3.29914 -7.87887 -5.89668
H 2.52467 -8.39399 -5.52952
H 3.06649 -7.52879 -6.80403
O 14.648 1.67043 4.17713
H 14.1954 1.94896 3.33008
H 13.9658 1.32507 4.82158
O 11.3978 -7.39676 4.87967
H 11.4054 -7.41409 5.87947
H 12.0589 -8.06043 4.52973
O -7.04949 -7.02076 7.40215
H -7.73602 -7.65476 7.75807
H -6.2251 -7.52833 7.15173
O -5.97821 14.3846 -11.701
H -6.33308 14.2163 -10.7814
H -5.35244 -15.118 -11.6793
O 0.432694 -9.22421 -4.39135
H 0.568394 -8.34293 -3.93872
H -0.330296 -9.70615 -3.96062
O 8.83814 10.6747 -4.3062
H 8.39794 9.80858 -4.06968
H 8.28156 11.4343 -3.9697
O -12.0385 13.5987 0.488187
H -11.5447 12.8204 0.875834
H -12.7713 13.2664 -0.105488
O -15.114 -2.54823 -6.8728
H 14.2173 -2.44178 -7.16286
H -15.08 -2.67427 -5.88138
O 5.74478 3.45074 -4.90963
H 4.76641 3.26687 -4.81504
H 6.25777 2.60298 -4.77511
O 0.25828 -14.859 10.1996
H -0.417955 14.9948 10.7988
H 0.193143 15.0249 9.28479
O 2.2066 10.8701 -1.35599
H 2.38728 10.9761 -0.378195
H 2.75043 10.1117 -1.71516
O -7.61309 -14.9684 10.678
H -7.29052 -14.039 10.499
H -6.82877 14.7121 10.8281
O -0.807661 -8.20826 -1.58334
H -0.740608 -7.42329 -2.1992
H -1.76047 -8.33518 -1.30767
O 3.74408 -5.29423 -12.9412
H 4.26591 -5.24856 -12.0894
H 4.3433 -5.07552 -13.7113
O 3.33911 4.70901 6.74287
H 2.60121 4.5825 7.40578
H 3.80268 3.83634 6.58956
O 5.29706 10.8096 2.84514
H 5.95302 10.6449 3.5817
H 4.76886 9.97736 2.67688
O 9.87427 -9.47679 -8.0966
H 9.90389 -8.72429 -8.75449
H 10.8024 -9.8082 -7.92727
O 9.45416 14.6327 3.62338
H 10.0037 -14.9188 4.02813
H 9.25413 14.8555 2.66927
O 12.9448 -5.00458 -8.0932
H 13.5584 -5.01861 -8.88271
H 13.1213 -5.80454 -7.51972
O 9.02197 -3.51166 10.2646
H 9.17079 -3.07451 11.1516
H 9.15897 -2.84125 9.53541
O 2.94092 3.73004 -5.42916
H 2.57438 4.01226 -6.31569
H 2.65988 2.78995 -5.23628
O -13.475 2.19563 -13.3788
H -13.7848 2.89435 -14.0236
H -13.5951 1.29003 -13.7855
O -10.6756 -14.8022 8.62242
H -10.6493 -14.2025 9.42218
H -11.4965 14.9103 8.66003
O 1.15041 -14.4044 13.9792
H 2.11118 -14.1964 14.1626
H 0.68761 -13.5806 13.652
O 9.46766 -11.0712 10.773
H 9.09461 -11.6256 10.0291
H 8.72404 -10.7717 11.3707
O 10.3799 2.86923 -10.8286
H 11.2849 2.44402 -10.8374
H 10.4505 3.81017 -11.1597
O -0.333162 10.2661 -8.79492
H -0.353191 9.36953 -9.23721
H 0.278993 10.2345 -8.00485
O 8.61109 -3.93789 -4.98783
H 8.35297 -3.09015 -5.45114
H 9.60782 -4.01512 -4.96507
O 2.99772 8.01363 9.38375
H 3.44569 7.98725 8.49011
H 3.0621 7.11398 9.81554
O -12.3336 -8.74968 -10.2464
H -11.6902 -8.3979 -10.9263
H -11.9803 -9.60319 -9.86348
O -12.9018 0.795753 7.30155
H -12.9751 1.35378 6.475
H -12.9 -0.172336 7.05105
O -9.69821 -2.84358 5.47934
H -10.6575 -2.58671 5.59625
H -9.49958 -3.65169 6.03383
O -1.92816 14.5511 -12.9721
H -1.23069 -15.0853 -13.2824
H -2.37527 14.9112 -12.1533
O -3.0811 -7.42859 7.04697
H -2.59013 -6.81728 7.66762
H -2.50542 -8.21731 6.83142
O 1.40554 11.1501 1.75763
H 0.686064 10.4914 1.53765
H 0.991175 11.9997 2.08388
O 9.83299 -1.64657 8.13546
H 8.89133 -1.48755 7.83892
H 10.2709 -0.770802 8.33859
O -0.0282271 7.36953 -13.6577
H 0.588655 6.59648 -13.8054
H 0.504075 8.21389 -13.5973
O -11.0639 -0.243064 -8.22657
H -11.3804 -0.972852 -7.62061
H -11.5437 -0.304949 -9.10173
O 11.1005 -12.4656 -7.38609
H 11.5491 -11.6 -7.60829
H 10.5829 -12.3643 -6.53646
O 4.12535 8.94404 -2.05584
H 5.00698 8.91911 -1.58461
H 3.70844 8.03545 -2.0312
O 3.6982 14.9522 4.18102
H 4.29364 14.1526 4.25947
H 3.38288 15.0415 3.23627
O 3.95073 -3.09964 9.23143
H 3.5626 -3.10459 10.153
H 3.30662 -2.66674 8.60082
O -8.34019 -11.1486 0.619139
H -8.83385 -11.587 -0.131853
H -8.98606 -10.6471 1.19472
O 8.82972 1.979 -3.60805
H 9.14728 2.21278 -4.527
H 9.31959 1.17061 -3.28172
O -5.03208 3.33423 0.793911
H -4.51422 3.78055 1.52368
H -4.43804 3.19307 0.00198941
O -9.95651 8.37729 8.85521
H -10.3203 7.47384 8.62854
H -10.6835 8.94042 9.24797
O -11.8442 3.0254 -11.4152
H -10.8976 2.70993 -11.3487
H -12.3435 2.44778 -12.0609
O -2.52379 7.07465 -14.0583
H -1.5665 7.3097 -14.2265
H -2.61127 6.08338 -13.9599
O -7.39896 -3.47362 -0.75762
H -6.85568 -3.0628 -0.0254842
H -6.97442 -4.33172 -1.04639
O 12.0737 -5.22863 -2.15372
H 11.402 -4.50068 -2.29103
H 11.6438 -5.99231 -1.67212
O -4.87123 -2.44734 -6.97072
H -4.93573 -3.35994 -6.56703
H -5.50519 -1.83081 -6.50389
O 12.4901 9.09906 0.117057
H 13.3183 9.61194 0.342545
H 12.6979 8.42531 -0.592034
O -13.6637 6.48423 -10.2612
H -14.1499 7.29403 -10.5896
H -12.7324 6.48419 -10.6252
O 6.66219 10.4719 12.2216
H 7.65418 10.5792 12.1553
H 6.2662 10.4593 11.3035
O -2.48604 -13.8923 7.16621
H -2.3235 -12.9469 7.44837
H -1.89097 -14.1169 6.39457
O 5.76632 1.40899 -12.2899
H 4.92333 1.83398 -11.9602
H 6.53596 2.02697 -12.1295
O 12.1285 1.21954 10.3197
H 11.7228 1.8988 9.70816
H 11.6036 1.1807 11.1699
O 6.90464 0.376794 -9.81972
H 6.86238 1.28054 -9.3938
H 6.25185 0.333902 -10.576
O -8.54596 -4.72469 7.04658
H -9.0881 -4.60305 7.87798
H -8.05864 -5.59675 7.09106
O -0.965266 -14.5236 4.9679
H -0.00661532 -14.7929 4.87606
H -1.51343 -15.0039 4.28321
O -1.96949 11.8346 3.98615
H -2.71351 12.3824 4.36861
H -1.20132 11.8226 4.62625
O -10.3922 6.61534 -3.82527
H -10.7276 5.6736 -3.85048
H -10.3069 6.96387 -4.75865
O -12.3531 -10.3822 -1.65492
H -12.4604 -10.1758 -2.62746
H -11.4862 -10.8587 -1.50892
O -8.83747 -2.54536 14.4172
H -9.51467 -2.99526 14.9993
H -7.93993 -2.58768 14.856
O 3.8171 -2.16808 12.0157
H 4.77292 -2.24771 12.2986
H 3.6272 -1.22443 11.7448
O 14.6238 -1.55334 10.2291
H 15.0598 -2.36389 9.83805
H 13.7848 -1.35006 9.72446
O 7.45995 -2.02898 3.13615
H 7.94618 -1.31271 3.63663
H 7.27988 -2.79939 3.74771
O 9.87142 -3.58672 -2.18906
H 9.0094 -3.7768 -2.6589
H 9.76689 -3.77361 -1.21228
O 10.1891 -0.16137 -2.64477
H 10.6318 -0.295054 -1.75814
H 10.8195 -0.42441 -3.3751
O 6.91776 8.11686 -7.79248
H 7.32259 8.98785 -7.51421
H 7.20908 7.89617 -8.72328
O -2.33368 -14.5759 14.3911
H -2.23557 14.9269 15.0096
H -1.70808 -13.8476 14.6708
O 7.57799 -10.9563 -10.21
H 7.32163 -10.861 -11.1718
H 8.57274 -10.9025 -10.1232
O 10.0572 -4.8763 4.55218
H 9.07608 -4.71875 4.44047
H 10.2386 -5.85969 4.5561
O 11.6404 13.0736 -7.37641
H 11.224 13.3875 -6.52311
H 10.9283 12.7266 -7.98679
O 1.20785 6.59279 -4.71917
H 0.283959 6.43339 -5.06697
H 1.75235 5.76089 -4.82598
O 5.98366 -9.23632 -6.15101
H 5.00541 -9.03686 -6.0945
H 6.47018 -8.42756 -6.48139
O 6.20658 14.5402 -14.3159
H 7.16948 14.8087 -14.2894
H 6.0732 13.8468 -15.024
O 10.8556 -4.49579 -11.8122
H 11.5843 -5.1758 -11.8932
H 10.7141 -4.27215 -10.8478
O 0.156779 -0.651556 9.32368
H 0.2945 -1.21294 8.5077
H -0.772122 -0.281305 9.32064
O -9.0512 -14.8858 4.0167
H -8.55833 -14.7978 3.15108
H -9.12944 -13.9872 4.44848
O -1.34405 9.98861 1.19131
H -1.63198 9.30735 0.518304
H -1.76889 9.78586 2.07355
O -9.56551 4.46419 -11.7859
H -10.5595 4.49034 -11.8917
H -9.174 5.32905 -12.1
O -5.79171 -9.56434 7.37792
H -5.41962 -9.78607 6.47662
H -6.79079 -9.58272 7.33978
O -14.6196 6.06731 2.81202
H -14.5704 5.14509 2.42858
H 14.9272 6.10827 3.48827
O -5.22478 -14.2234 6.93502
H -5.46108 -13.8852 6.02412
H -4.26413 -14.0222 7.12641
O 14.8922 -7.75595 -7.99399
H 14.8932 -7.10494 -8.75303
H 14.3302 -8.54734 -8.23442
O 7.39356 -10.3013 -3.94244
H 6.60624 -9.89513 -4.4062
H 7.17176 -10.4519 -2.97906
O 14.6241 15.1097 10.6308
H -15.091 15.1356 9.80773
H 13.6609 -15.0917 10.3746
O 9.6774 -2.42387 13.1147
H 10.4301 -2.06839 12.5606
H 9.78216 -2.11158 14.0588
O 9.63376 -13.8166 -3.92031
H 10.6232 -13.804 -3.77614
H 9.32036 -12.8982 -4.16148
O 4.20272 -4.72626 5.30854
H 3.54436 -5.22426 4.74417
H 4.16719 -5.07244 6.24601
O -6.47547 4.37844 -4.86661
H -5.84088 3.62114 -4.71256
H -6.43201 5.01208 -4.09424
O 6.47122 10.1156 -10.9366
H 7.17901 10.8056 -11.0878
H 5.7732 10.4832 -10.3221
O -6.28116 -4.06534 5.48401
H -7.1986 -4.43267 5.63676
H -6.30806 -3.40163 4.73655
O -10.2218 13.0352 -9.43453
H -9.52808 12.7346 -8.78008
H -11.1279 12.7696 -9.10531
O 7.7237 3.11757 14.323
H 6.90324 3.68422 14.3985
H 7.46981 2.20414 14.005
O -2.34911 6.3581 3.10793
H -2.25396 7.34954 3.19703
H -2.70335 5.9791 3.96281
O 9.09318 -14.6648 -10.8061
H 8.91959 -14.6908 -9.82169
H 10.0626 -14.4815 -10.9689
O -10.0765 2.60557 1.87264
H -9.32783 2.48178 1.22134
H -9.96435 3.47852 2.34733
O 11.9804 -8.12912 12.2818
H 12.7576 -7.54596 12.0453
H 11.3115 -8.11054 11.5387
O 4.47352 -6.29129 10.6283
H 5.21055 -5.90245 11.1811
H 3.63661 -6.33736 11.1736
O -7.82994 -0.180178 2.19698
H -8.44628 -0.79771 1.70837
H -8.05427 0.76646 1.96567
O -13.8583 -4.76491 -2.12834
H -13.8995 -5.75603 -2.25464
H -13.2763 -4.55284 -1.34332
O 1.65924 5.32708 4.36189
H 2.24554 5.82346 5.00206
H 1.88727 4.35378 4.38709
O -0.278087 -11.7008 -0.242311
H -0.864783 -11.6698 0.566874
H -0.440306 -12.5533 -0.739176
O -10.047 10.5825 14.3017
H -9.79925 11.551 14.2765
H -9.22051 10.0297 14.4083
O -2.7853 9.59536 -12.4782
H -3.32691 10.1552 -13.1052
H -2.5018 8.75565 -12.9413
O -6.57513 5.18081 13.724
H -5.64504 5.32334 13.3855
H -6.5709 5.18947 14.7239
O -9.64482 13.4075 11.5519
H -10.3652 13.1912 10.8929
H -8.92809 13.9385 11.0999
O -13.9407 -5.07652 1.41466
H -14.5869 -4.37852 1.72317
H -14.4112 -5.72526 0.81657
O 7.34504 3.00371 6.80401
H 8.06815 3.32506 7.41539
H 7.49715 3.37041 5.88621
O 0.837641 -7.68367 4.5036
H 0.718119 -7.02006 5.24203
H -0.0564469 -7.93298 4.13157
O -3.63367 -2.45385 5.88062
H -4.26793 -3.20633 5.70328
H -4.14233 -1.59449 5.93288
O -4.24111 -14.1168 11.8544
H -4.49372 -14.7701 11.1407
H -3.28534 -14.258 12.1123
O -9.65793 3.06354 11.6566
H -9.19762 3.29257 10.7989
H -8.99722 3.08956 12.4068
O 9.47685 -0.950023 -9.51385
H 8.47973 -0.876084 -9.52927
H 9.86206 -0.162528 -9.0328
O -9.15099 -8.45772 4.3921
H -9.40926 -7.49313 4.33904
H -9.30195 -8.8925 3.50433
O 10.7358 8.18041 -6.59429
H 10.277 7.33296 -6.32718
H 11.3238 8.4908 -5.84741
O 6.27689 -2.88411 13.1588
H 6.27702 -3.61094 12.472
H 7.21178 -2.7252 13.4761
O 2.24368 0.481935 -10.464
H 2.63606 1.37584 -10.6806
H 1.9924 0.0140728 -11.3113
O 11.0267 11.302 9.99242
H 11.9016 11.2535 10.4742
H 10.7285 12.2549 9.93802
O -7.28623 2.38868 8.21642
H -7.71086 2.23715 7.32385
H -6.81286 1.55676 8.50586
O 13.5511 4.31062 14.2333
H 12.9786 5.02216 13.826
H 13.2733 4.16189 -15.1
O -10.0479 5.3271 -6.76542
H -10.7851 5.01762 -7.36594
H -9.94011 4.68109 -6.00977
O -8.38821 6.79276 -12.7487
H -7.88354 7.64483 -12.61
H -9.28762 6.99719 -13.135
O -1.05549 -11.0115 -3.12315
H -0.954489 -11.0223 -2.12834
H -1.39694 -11.8988 -3.43317
O 13.9748 -11.791 10.9986
H 13.288 -11.2872 10.4746
H 13.52 -12.4526 11.5946
O 6.69414 -6.28541 -12.3399
H 6.33608 -7.05224 -12.8726
H 7.21943 -6.63492 -11.5641
O -12.2974 2.76316 0.0372458
H -11.6512 2.79382 0.799808
H -12.5994 3.69106 -0.181202
O 3.98144 11.527 -14.8649
H 3.87146 11.0611 -13.987
H 3.12722 11.9867 -15.1076
O -13.6558 -13.6909 -2.06246
H -14.0562 -12.8953 -1.60794
H -12.7312 -13.8438 -1.71347
O -12.8065 -8.22537 0.152021
H -12.3515 -7.46569 -0.312469
H -12.6305 -9.07426 -0.346339
O -1.06983 -4.40725 12.6457
H -0.127004 -4.14106 12.4453
H -1.18759 -4.49758 13.6346
O -3.70522 6.89448 -8.73451
H -3.74371 7.73434 -9.2759
H -4.63149 6.54343 -8.5976
O -1.38963 -1.77455 14.0778
H -1.2799 -1.20713 13.2617
H -1.85608 -1.24877 14.7891
O 8.00309 -6.34485 1.08736
H 8.08855 -6.74077 0.173086
H 8.25464 -5.37752 1.05653
O 8.61756 -13.7498 -8.39114
H 7.96963 -13.3607 -7.73636
H 9.53651 -13.4086 -8.19364
O -6.57 0.900905 12.0436
H -6.91327 -0.0288615 11.9107
H -7.16431 1.38726 12.684
O -5.34745 -3.51043 8.37748
H -6.08932 -3.73309 9.00995
H -5.72983 -3.28427 7.4816
O 3.40619 -10.9759 12.5579
H 3.14625 -11.1315 11.605
H 3.55117 -11.8552 13.0117
O -3.82362 13.2221 5.52334
H -3.79126 13.2856 6.52077
H -4.71063 12.8566 5.24122
O 12.3922 -13.4039 7.48418
H 12.5802 -14.1478 8.12539
H 12.1644 -12.5742 7.99379
O -13.6395 -14.0588 -9.40667
H -14.1088 -14.6652 -10.0486
H -13.3965 -13.2066 -9.87007
O -7.46122 2.18739 0.618068
H -7.28272 1.27167 0.258144
H -6.59349 2.65968 0.772835
O -13.291 6.43542 -3.02169
H -13.8135 7.15701 -3.47595
H -12.3181 6.55262 -3.22072
O 11.3124 7.67728 8.16871
H 11.8661 8.3529 7.68198
H 10.3464 7.82023 7.95307
O -14.2383 7.72968 -6.52425
H -14.0825 6.75611 -6.69099
H -14.4506 8.18603 -7.38832
O 10.7858 13.9775 7.75654
H 10.9452 13.2457 7.09394
H 9.80232 14.1285 7.85618
O 0.410205 4.35764 14.3719
H -0.140294 3.52836 14.4678
H -0.173963 5.113 14.075
O -0.712396 7.54376 10.1858
H -0.585815 8.29985 10.8279
H -0.748291 6.68088 10.6899
O -8.52281 -0.326049 6.80038
H -8.80244 -1.19295 6.38777
H -8.67775 -0.3615 7.78764
O 1.92553 -14.4765 1.81092
H 2.38786 -14.5715 0.929342
H 1.44634 14.9557 2.02925
O 7.70839 10.4444 -7.00852
H 6.9486 11.0825 -6.88376
H 8.30879 10.4808 -6.20968
O -4.73124 2.14613 -7.50438
H -3.92515 1.64784 -7.82353
H -5.28466 2.42288 -8.28993
O 12.6955 -14.6588 -7.50854
H 12.4491 14.6614 -7.39248
H 11.8968 -14.0857 -7.32509
O 11.527 -0.013435 -5.58844
H 12.4018 -0.0287267 -5.10426
H 11.4327 0.852756 -6.07913
O 3.01386 5.53252 13.909
H 2.98695 5.45255 12.9126
H 2.20014 5.10248 14.3
O -11.0343 7.24363 -13.9643
H -11.3247 8.10992 -14.3707
H -11.8012 6.83327 -13.4709
O 9.05776 6.88038 -1.49469
H 9.52413 7.23778 -0.685548
H 9.38772 5.95657 -1.68873
O -13.1166 7.12083 13.172
H -12.2532 6.86784 12.7356
H -13.8775 6.71559 12.6653
O 4.46299 0.85814 -5.32395
H 4.63013 1.36002 -6.17256
H 3.5269 0.506453 -5.32356
O -2.46411 7.55414 8.04941
H -3.33325 7.22751 8.42071
H -1.72328 7.31808 8.67821
O -1.15122 7.7618 -10.8905
H -0.745179 7.21082 -11.6196
H -1.48723 8.62315 -11.2715
O -2.32398 12.7904 -15.0829
H -3.26681 12.4755 -14.9738
H -1.99889 13.1749 -14.2189
O -12.2468 2.63597 11.5577
H -12.5936 3.03596 10.7093
H -11.2625 2.48058 11.4749
O 8.20103 -6.32348 14.7792
H 7.39979 -6.6267 -14.9874
H 8.67638 -5.60846 -14.9906
O -9.45804 -3.32721 2.81606
H -10.2767 -3.03748 2.32024
H -9.54742 -3.07932 3.78069
O 13.5438 6.34802 4.63165
H 14.1904 7.01238 5.00646
H 12.9003 6.07026 5.34488
O 2.25932 11.2656 5.73813
H 3.15434 11.6615 5.94348
H 2.37605 10.4637 5.15223
O 10.2846 -6.90716 -7.16622
H 10.4063 -6.75368 -8.14682
H 10.059 -7.86787 -7.00469
O -10.1 -3.23231 -1.43575
H -9.11203 -3.30889 -1.30191
H -10.5737 -3.7635 -0.733302
O -15.1073 8.33281 5.72897
H -14.5414 8.79527 5.04641
H 14.7142 9.01455 6.29709
O 13.7745 10.1123 7.37376
H 13.9059 10.3761 8.32931
H 12.8634 10.3935 7.07257
O 10.1139 10.3292 -8.36309
H 9.19621 10.5566 -8.03738
H 10.4554 9.53102 -7.8669
O -8.16586 -5.77645 13.4927
H -8.29002 -6.49587 14.176
H -8.16156 -4.88451 13.9447
O -12.449 11.1396 7.32499
H -13.0511 11.0629 6.53029
H -11.5123 10.9155 7.05628
O 3.5619 -2.52282 -10.2041
H 3.85688 -2.6874 -9.26294
H 3.25525 -1.57551 -10.2965
O -11.3416 -3.53111 -9.271
H -10.4829 -3.45185 -8.76467
H -11.6043 -4.49397 -9.33298
O 3.62862 -13.3983 14.0616
H 3.80972 -13.1082 15.0013
H 4.41932 -13.8988 13.709
O 9.81396 9.25712 11.7412
H 10.4933 9.88508 11.3616
H 10.082 8.31493 11.5403
O -3.16028 -8.8079 -3.496
H -2.31953 -9.34589 -3.43546
H -3.94409 -9.42293 -3.58175
O -7.50593 -11.631 -11.1882
H -6.86229 -12.18 -11.7214
H -8.44187 -11.8955 -11.4205
O 1.95798 4.5389 -8.09824
H 2.71817 4.74361 -8.71481
H 1.27591 5.26782 -8.15661
O -4.68222 11.136 -13.9265
H -4.46569 10.7215 -14.8104
H -5.43947 11.7797 -14.0367
O -1.97137 -5.79141 -10.0666
H -1.72073 -5.65253 -11.0246
H -2.26876 -6.73683 -9.93355
O -13.478 -6.93013 -12.7491
H -13.8942 -7.36541 -13.5473
H -12.5468 -7.27437 -12.6294
O -14.8198 -10.0286 -12.5705
H -14.7843 -10.9587 -12.9361
H -14.3102 -9.41406 -13.1727
O 9.32513 -12.5606 -0.618376
H 10.2684 -12.3194 -0.846547
H 9.31856 -13.394 -0.0658932
O -3.81182 3.73015 -1.66251
H -3.43637 4.6322 -1.87537
H -3.71784 3.13349 -2.45946
O 9.76534 -8.05267 -12.6234
H 10.0014 -7.12747 -12.9205
H 9.28936 -8.52891 -13.3627
O -4.42626 -7.11497 14.0765
H -3.67271 -6.63134 14.5217
H -4.1476 -8.0543 13.8766
O -8.98794 12.7019 -12.8368
H -8.3262 13.2739 -12.3522
H -8.61511 12.4428 -13.7278
O -3.59444 14.2918 0.118202
H -3.58214 14.5378 1.08738
H -3.6275 15.1233 -0.436297
O -8.93951 7.92907 1.277
H -9.40448 8.18993 0.430999
H -8.28194 8.6392 1.52853
O 4.8674 -9.3355 -11.6453
H 3.92793 -9.6266 -11.4647
H 5.31446 -9.09837 -10.7828
O -0.237584 11.8464 6.35364
H 0.6652 11.5021 6.09602
H -0.834654 11.0776 6.58263
O 4.07228 8.1702 -7.66829
H 3.64911 7.94896 -6.78969
H 5.06535 8.08142 -7.5917
O 13.5343 14.6692 5.13052
H 14.1086 13.9983 5.59954
H 13.2115 -14.9327 5.7884
O 1.19701 -14.6761 -8.66607
H 0.821175 -15.1365 -9.47026
H 2.15661 -14.448 -8.83068
O 11.108 -8.11614 1.60285
H 10.319 -8.13458 2.21697
H 11.9216 -8.42393 2.09611
O -0.922276 -4.48019 -12.2729
H -1.37497 -3.66656 -11.9082
H 0.0547328 -4.29726 -12.3822
O -6.43027 6.38511 -9.08574
H -6.96632 6.453 -8.24432
H -6.8051 7.00948 -9.77103
O 3.79183 1.74306 10.8735
H 2.97454 1.68294 10.3004
H 3.53712 1.61436 11.8319
O 14.8136 -9.36437 6.12729
H -14.4946 -9.16671 6.01876
H 14.7003 -10.278 6.51778
O -9.36756 -12.5961 5.5807
H -8.8755 -11.7789 5.28071
H -8.83045 -13.0716 6.27738
O -11.0717 -14.3934 -15.0494
H -10.2871 -13.8091 15.0258
H -11.874 -14.0627 14.736
O 0.660643 -14.9342 -6.10049
H 1.04552 -14.7721 -7.00909
H 1.26611 -14.543 -5.40742
O 14.3885 10.9467 1.25308
H 13.9265 11.6389 1.80756
H 14.8857 10.3181 1.85099
O 12.7608 -6.49383 -12.5645
H 13.2823 -6.62432 -11.7212
H 12.8301 -7.3158 -13.1297
O -12.3905 10.407 -10.1644
H -13.2873 10.8489 -10.1825
H -11.8702 10.6755 -10.9751
O 6.8266 -1.07558 6.1065
H 6.58521 -1.37098 7.03086
H 6.10336 -1.34539 5.47084
O -11.1105 14.7206 5.64454
H -10.864 14.8479 6.60525
H -10.4184 -15.1339 5.0633
O -12.8323 -9.88768 3.20332
H -13.5624 -9.46639 2.66531
H -12.7019 -9.37174 4.04994
O 3.89237 5.66146 10.6423
H 4.61297 6.2602 10.9918
H 4.29352 4.97812 10.0323
O 12.2088 -13.7405 -12.9176
H 12.3973 -13.447 -11.9805
H 11.8117 -14.6582 -12.906
O 4.5226 8.10524 2.76355
H 5.11195 7.60596 3.39864
H 4.19108 7.48132 2.0559
O 13.608 -2.1936 -9.50991
H 12.9784 -2.30194 -8.7406
H 13.1915 -1.60256 -10.2007
O -13.7273 -9.95845 -4.08129
H -14.4849 -9.59686 -3.53793
H -13.949 -10.8841 -4.38784
O -11.8511 -5.24044 -6.31708
H -11.9863 -4.25284 -6.23746
H -12.6624 -5.71633 -5.97747
O 3.27747 -5.95008 13.5589
H 3.25683 -6.94729 13.6303
H 3.98379 -5.58693 14.1665
O -2.20678 -11.0202 8.64124
H -2.68052 -10.4323 9.29687
H -1.5029 -11.5489 9.11559
O -2.66395 0.508513 -14.8736
H -3.59809 0.636371 -14.5405
H -2.52227 1.06679 14.5913
O -12.7388 -8.32449 5.75437
H -12.3513 -7.53086 6.22339
H -12.3403 -9.16111 6.1302
O 14.1436 4.07616 -5.20579
H 14.8602 4.68668 -5.54289
H 14.236 3.18102 -5.64183