LAMMPS data file via write_data, version 15 May 2015, timestep = 4999000

2611 atoms
6 atom types
1749 bonds
4 bond types
894 angles
3 angle types
44 dihedrals
3 dihedral types
10 impropers
1 improper types

-1.5039494781785926e+01 1.5039494781785926e+01 xlo xhi
-1.5039494781785926e+01 1.5039494781785926e+01 ylo yhi
-1.5039494781785926e+01 1.5039494781785926e+01 zlo zhi

Masses

1 15.9994
2 1.00794
3 12.0107
4 1.00794
5 12.0107
6 12.0107

Bond Coeffs # harmonic

1 1000 1
2 469 1.4
3 367 1.08
4 469 0.7

Angle Coeffs # harmonic

1 100 109.47
2 35 120
3 63 120

Dihedral Coeffs # opls

1 0 7.25 0 0
2 0 7.25 0 0
3 0 7.25 0 0

Improper Coeffs # cvff

1 2.5 -1 2

Atoms # full

2451 817 2 4.0999999999999998e-01 -9.4300554371561045e+00 -1.2055097886774684e+01 -1.0095594339610956e+01 -4 3 0
1729 577 1 -8.1999999999999995e-01 -1.2858858623090752e+01 -1.2475116660726929e+01 -1.1750014747881854e+01 1 -1 1
1731 577 2 4.0999999999999998e-01 -1.2220024629399081e+01 -1.2305571355950761e+01 -1.2500449518535882e+01 1 -1 1
1730 577 2 4.0999999999999998e-01 -1.2562048634789004e+01 -1.3279173537383436e+01 -1.1234841805459787e+01 1 -1 1
2449 817 1 -8.1999999999999995e-01 -9.2253475465884698e+00 -1.2873757627627922e+01 -1.0632155386431261e+01 -4 3 0
2490 830 2 4.0999999999999998e-01 -8.9230961912425926e+00 -9.9457216185437076e+00 -1.2635499306052610e+01 -2 2 3
1337 446 2 4.0999999999999998e-01 -8.1816862440152072e+00 -1.3101853441908764e+01 -1.2433453795019680e+01 -2 0 1
1859 620 2 4.0999999999999998e-01 -1.1109632481880528e+01 -9.2027916913856558e+00 -1.4647422458274557e+01 -1 0 2
1028 343 2 4.0999999999999998e-01 -1.0300379213056157e+01 -1.0019861213725960e+01 -9.7465170097661282e+00 0 2 -1
1029 343 2 4.0999999999999998e-01 -9.1078482570156076e+00 -9.6787725566188065e+00 -8.6843624245311268e+00 0 2 -1
1027 343 1 -8.1999999999999995e-01 -9.3740064355273169e+00 -1.0258070531489572e+01 -9.4548039783566775e+00 0 2 -1
1066 356 1 -8.1999999999999995e-01 -1.2017194839032491e+01 -1.0240577685331615e+01 -1.0199845731102357e+01 -1 2 0
1067 356 2 4.0999999999999998e-01 -1.2726061388442753e+01 -9.9601017436749046e+00 -9.5526608523444931e+00 -1 2 0
1068 356 2 4.0999999999999998e-01 -1.2308129713043829e+01 -1.1072019956470740e+01 -1.0673203429358402e+01 -1 2 0
541 181 1 -8.1999999999999995e-01 -8.6635706675652386e+00 -8.2233761732290418e+00 -7.7687124059574568e+00 1 2 2
1124 375 2 4.0999999999999998e-01 -7.9824188135827878e+00 -1.0124819315034328e+01 -1.0666277176998676e+01 0 0 3
708 236 2 4.0999999999999998e-01 -1.3458695289890199e+01 -1.4496336488632842e+01 -1.4582402014425131e+01 -1 -1 3
2488 830 1 -8.1999999999999995e-01 -9.4705825003601376e+00 -9.9691916002497400e+00 -1.3471988678377885e+01 -2 2 3
1792 598 1 -8.1999999999999995e-01 -1.1435479222559088e+01 -8.0984441002764758e+00 -6.9908189151716940e+00 0 1 1
707 236 2 4.0999999999999998e-01 -1.2262687989167132e+01 -1.3506974541803839e+01 -1.4075081497098022e+01 -1 -1 3
1299 433 2 4.0999999999999998e-01 -1.0292211368833739e+01 -1.1549858124086903e+01 -1.3506061627070933e+01 1 1 0
2489 830 2 4.0999999999999998e-01 -8.8789132861777276e+00 -9.8094562447317379e+00 -1.4262190472985999e+01 -2 2 3
1298 433 2 4.0999999999999998e-01 -1.0228195005558312e+01 -1.3163616431516916e+01 -1.3747579020559703e+01 1 1 0
1297 433 1 -8.1999999999999995e-01 -1.0808462629904456e+01 -1.2404608721270575e+01 -1.3452276468732180e+01 1 1 0
2037 679 2 4.0999999999999998e-01 -7.9436070055401773e+00 -1.4099403179255559e+01 -8.4694366309443225e+00 -1 2 0
669 223 2 4.0999999999999998e-01 -1.0303144068632065e+01 -1.2741494178423707e+01 -7.6911106000656808e+00 0 3 4
1972 658 1 -8.1999999999999995e-01 -1.4484808447637066e+01 -9.0502427623855013e+00 -9.7531529266506354e+00 0 0 -2
667 223 1 -8.1999999999999995e-01 -9.4298267083077221e+00 -1.2671436798094732e+01 -7.2090155899694919e+00 0 3 4
1794 598 2 4.0999999999999998e-01 -1.2120005129226403e+01 -8.5959026227177109e+00 -6.4579343534041378e+00 0 1 1
1175 392 2 4.0999999999999998e-01 -1.1100724171882552e+01 -7.5831876123451476e+00 -5.3402541423934657e+00 -1 -1 1
668 223 2 4.0999999999999998e-01 -8.9470560501328080e+00 -1.1849617869781483e+01 -7.5115927992299909e+00 0 3 4
2491 831 1 -8.1999999999999995e-01 -9.6004101648148463e+00 -1.4668794798967602e+01 -1.4953047992065324e+01 1 2 1
542 181 2 4.0999999999999998e-01 -9.5664499860226275e+00 -7.9338118420126191e+00 -7.4509573216998124e+00 1 2 2
2394 798 2 4.0999999999999998e-01 -9.4995448954750117e+00 -1.1498229670628906e+01 -5.3588340218706776e+00 3 2 0
133 45 1 -8.1999999999999995e-01 -1.4830234709023626e+01 -1.2889550983912212e+01 -8.6633794635715269e+00 -2 4 1
1493 498 2 4.0999999999999998e-01 -7.6328568301359816e+00 -9.6524453133859609e+00 -7.3510385598511814e+00 1 0 1
2280 760 2 4.0999999999999998e-01 -1.2474008539387855e+01 -1.3443328151262497e+01 -6.3747445393332036e+00 2 1 2
2279 760 2 4.0999999999999998e-01 -1.2809330898303674e+01 -1.2582147535189169e+01 -7.7210622847552024e+00 2 1 2
2278 760 1 -8.1999999999999995e-01 -1.2129442240752649e+01 -1.2749483384952223e+01 -7.0070896568914023e+00 2 1 2
312 104 2 4.0999999999999998e-01 -9.6844767948733903e+00 -1.4398999388145402e+01 -6.5125554222873259e+00 0 0 0
230 77 2 4.0999999999999998e-01 -1.3409324973810445e+01 -7.5490982263207362e+00 -9.6833575191360168e+00 1 0 3
2450 817 2 4.0999999999999998e-01 -1.0019811030945306e+01 -1.3481070735801850e+01 -1.0629854888850495e+01 -4 3 0
741 247 2 4.0999999999999998e-01 -1.3259844623184835e+01 -7.5392669949416211e+00 -1.4420022607922117e+01 -2 3 -1
1912 638 1 -8.1999999999999995e-01 -1.3201455894553330e+01 -1.4711928759379601e+01 -5.4182532083547024e+00 0 2 -1
557 186 2 4.0999999999999998e-01 -1.1106869883207532e+01 -7.6559865746870708e+00 -1.0341623908496132e+01 1 2 2
558 186 2 4.0999999999999998e-01 -1.0833379527165157e+01 -8.1784259208814838e+00 -1.1864418988138075e+01 1 2 2
932 311 2 4.0999999999999998e-01 -1.5005834537274852e+01 -1.0726799360529654e+01 -5.3553206605538257e+00 -1 1 0
1973 658 2 4.0999999999999998e-01 -1.4881023645917528e+01 -8.8917874267437398e+00 -1.0657537963629721e+01 0 0 -2
706 236 1 -8.1999999999999995e-01 -1.3116491465272297e+01 -1.3556770309309421e+01 -1.4593296513343450e+01 -1 -1 3
881 294 2 4.0999999999999998e-01 -1.4489981852940591e+01 -1.2267311650063306e+01 -1.2054976766318070e+01 1 3 0
1076 359 2 4.0999999999999998e-01 -1.1988299014648387e+01 -1.4464831480346788e+01 -9.3045729732173079e+00 -2 3 3
1075 359 1 -8.1999999999999995e-01 -1.1627814111323422e+01 -1.4514302399064016e+01 -1.0236028848475737e+01 -2 3 3
112 38 1 -8.1999999999999995e-01 -1.3163084183957865e+01 -9.0449676547475875e+00 -5.0356140306294481e+00 1 4 0
2251 751 1 -8.1999999999999995e-01 -1.4267143297819079e+01 -1.8277178749382301e+00 -7.4522213012810887e+00 2 3 0
627 209 2 4.0999999999999998e-01 -1.0402156848396491e+01 -5.3982683384147485e+00 -8.2152339975096229e+00 -1 0 -1
1627 543 1 -8.1999999999999995e-01 -1.2930643588549836e+01 -3.9487515616304183e+00 -5.8449730853001949e+00 1 1 1
1793 598 2 4.0999999999999998e-01 -1.1894378622500454e+01 -7.4739646276014797e+00 -7.6228343356717172e+00 0 1 1
903 301 2 4.0999999999999998e-01 -1.4464381884925892e+01 -3.9397049438638199e+00 -1.1117012478348528e+01 0 2 2
1013 338 2 4.0999999999999998e-01 -8.8150880013667550e+00 -2.1105654551405628e-01 -1.0457104618101432e+01 -2 1 -1
2163 721 2 4.0999999999999998e-01 -1.0035808574446378e+01 -8.4572739303824562e-01 -8.0975009844943848e+00 -1 1 -2
1629 543 2 4.0999999999999998e-01 -1.3242718369293078e+01 -3.0226134959921360e+00 -6.0568316258587345e+00 1 1 1
1753 585 1 -8.1999999999999995e-01 -1.4440954700721175e+01 -4.9629547894346260e-02 -1.3657404199020039e+01 1 3 -2
71 24 2 4.0999999999999998e-01 -1.0969275592009577e+01 -2.1463091505988867e+00 -1.4329610233421075e+01 0 2 3
281 94 2 4.0999999999999998e-01 -1.2772427587894610e+01 -4.9921991546763067e-01 -1.2454791201409455e+01 0 2 1
2005 669 1 -8.1999999999999995e-01 -1.0472487200808457e+01 -3.1563418603874034e+00 -5.1146872099693326e+00 0 0 0
2162 721 2 4.0999999999999998e-01 -1.0495216533123456e+01 -1.4641344120056932e+00 -6.6576531515588240e+00 -1 1 -2
543 181 2 4.0999999999999998e-01 -8.0602966578681148e+00 -7.4280649960973957e+00 -7.8282728847821810e+00 1 2 2
795 265 2 4.0999999999999998e-01 -1.3981122823904151e+01 -5.1349461454447614e+00 -6.9058117762819915e+00 -1 3 1
419 140 2 4.0999999999999998e-01 -9.3850011149803425e+00 -5.9662861296513388e+00 -1.3545884413509704e+01 0 4 0
2250 750 2 4.0999999999999998e-01 -7.9069528820813328e+00 -5.5472957351446031e+00 -5.9012614203897122e+00 1 4 0
420 140 2 4.0999999999999998e-01 -1.0038861441794992e+01 -6.1233513596481952e+00 -1.2057784299039684e+01 0 4 0
740 247 2 4.0999999999999998e-01 -1.4388923285685623e+01 -6.3934277594046112e+00 -1.4700875952335860e+01 -2 3 -1
739 247 1 -8.1999999999999995e-01 -1.3614241734938773e+01 -6.6522846119945136e+00 -1.4123928383498631e+01 -2 3 -1
229 77 1 -8.1999999999999995e-01 -1.2948241996991239e+01 -6.7044326162444907e+00 -9.4114213005226297e+00 1 0 3
556 186 1 -8.1999999999999995e-01 -1.0705328932484839e+01 -7.4191851809435310e+00 -1.1226325421033192e+01 1 2 2
2112 704 2 4.0999999999999998e-01 -1.3188844004891561e+01 -5.6614479015241237e+00 -1.2922110651004777e+01 2 0 -2
231 77 2 4.0999999999999998e-01 -1.3517643559982647e+01 -6.2105755272358003e+00 -8.7542349793288103e+00 1 0 3
2248 750 1 -8.1999999999999995e-01 -8.6835086222083007e+00 -5.6588640767416560e+00 -6.5213585871783035e+00 1 4 0
280 94 1 -8.1999999999999995e-01 -1.2470754027675254e+01 -5.0037971908872514e-01 -1.1501377042920092e+01 0 2 1
2249 750 2 4.0999999999999998e-01 -9.5361980349278248e+00 -5.5441145483102634e+00 -6.0116919291992748e+00 1 4 0
1617 539 2 4.0999999999999998e-01 -9.7397898753167205e+00 -3.4712337725052258e+00 -1.2094097836840062e+01 1 2 1
362 121 2 4.0999999999999998e-01 -9.0913549480251596e+00 -3.6928369166764075e+00 -8.6552172403653884e+00 1 3 1
72 24 2 4.0999999999999998e-01 -9.4369581955717372e+00 -2.0963220312719972e+00 -1.4891881879449192e+01 0 2 3
1616 539 2 4.0999999999999998e-01 -1.0815638314981834e+01 -2.2796884752827431e+00 -1.2393120270272062e+01 1 2 1
899 300 2 4.0999999999999998e-01 -1.2439496771335431e+01 -3.6211736071817242e+00 -1.2947713530622789e+01 0 -1 2
1012 338 1 -8.1999999999999995e-01 -9.4187618194081200e+00 -6.3984606851135695e-01 -9.7850003056979471e+00 -2 1 -1
1014 338 2 4.0999999999999998e-01 -1.0096295595043323e+01 -1.2036472947335284e+00 -1.0257316882379090e+01 -2 1 -1
1615 539 1 -8.1999999999999995e-01 -9.9827527571245014e+00 -2.5217596577093708e+00 -1.1895415525555222e+01 1 2 1
626 209 2 4.0999999999999998e-01 -9.7253164395419365e+00 -5.6827071921957106e+00 -9.6738725020541310e+00 -1 0 -1
2110 704 1 -8.1999999999999995e-01 -1.2926729213964858e+01 -5.0818581679485337e+00 -1.2150502931737829e+01 2 0 -2
898 300 1 -8.1999999999999995e-01 -1.2527807748846589e+01 -2.7520756220705103e+00 -1.3434413400206633e+01 0 -1 2
2161 721 1 -8.1999999999999995e-01 -1.0064700876291599e+01 -6.8373505808706092e-01 -7.1111285579300967e+00 -1 1 -2
1045 349 1 -8.1999999999999995e-01 -7.7948487293120401e+00 -1.5110187606616670e+00 -1.3828499798391485e+01 1 1 3
361 121 1 -8.1999999999999995e-01 -8.3840235666480112e+00 -3.0053014504152387e+00 -8.8194855323346708e+00 1 3 1
363 121 2 4.0999999999999998e-01 -8.7872986966675768e+00 -2.2164073562507216e+00 -9.2831902369155745e+00 1 3 1
1485 495 2 4.0999999999999998e-01 -7.8517162353494259e+00 -6.3667163842669456e+00 -1.1428067504037951e+01 0 -3 0
625 209 1 -8.1999999999999995e-01 -1.0230838877388386e+01 -5.0177889244381326e+00 -9.1240201915854762e+00 -1 0 -1
980 327 2 4.0999999999999998e-01 -1.2554657668977901e+01 -1.8347848803351514e+00 -1.0075294979534371e+01 -2 2 2
418 140 1 -8.1999999999999995e-01 -9.5189651320838351e+00 -5.5190517805162500e+00 -1.2661553071627697e+01 0 4 0
979 327 1 -8.1999999999999995e-01 -1.2526825362903132e+01 -2.4947960696424119e+00 -9.3245503744580347e+00 -2 2 2
2252 751 2 4.0999999999999998e-01 -1.3591626629576893e+01 -2.0631350984598864e+00 -8.1509792640817302e+00 2 3 0
1283 428 2 4.0999999999999998e-01 -8.2515039480422736e+00 -1.6567362661681351e-01 -1.2725706281635944e+01 0 -1 1
981 327 2 4.0999999999999998e-01 -1.1917644753875965e+01 -3.2498705266880634e+00 -9.5669723088611320e+00 -2 2 2
1628 543 2 4.0999999999999998e-01 -1.1942621354201414e+01 -3.9404693325255344e+00 -5.6908628191497641e+00 1 1 1
2111 704 2 4.0999999999999998e-01 -1.2475017330231672e+01 -5.6388677742312527e+00 -1.1453578598135447e+01 2 0 -2
900 300 2 4.0999999999999998e-01 -1.3481565839911241e+01 -2.6153898502853625e+00 -1.3702124348789706e+01 0 -1 2
793 265 1 -8.1999999999999995e-01 -1.4597750189292093e+01 -5.7546986074586748e+00 -7.3912851829466462e+00 -1 3 1
2570 857 2 4.0999999999999998e-01 -7.5797286146137175e+00 -5.6652599968152106e+00 -7.7183933111489038e+00 1 0 0
1047 349 2 4.0999999999999998e-01 -7.6377731677144798e+00 -1.7582843681820854e+00 -1.4784634620482263e+01 1 1 3
485 162 2 4.0999999999999998e-01 -7.9934817084368639e+00 -1.4730019932502140e+01 -2.0361188269911779e-01 1 2 -3
1207 403 1 -8.1999999999999995e-01 -8.7428717156304359e+00 -9.0281783294863303e+00 -3.0315995480416138e+00 -2 1 1
1209 403 2 4.0999999999999998e-01 -8.2790649513317387e+00 -9.6324386649158811e+00 -2.3837110228070575e+00 -2 1 1
2393 798 2 4.0999999999999998e-01 -8.9296311316479304e+00 -1.0539264917180049e+01 -4.1662614984010595e+00 3 2 0
989 330 2 4.0999999999999998e-01 -9.8184385244440406e+00 -1.4359877556996709e+01 -1.7826981888573705e+00 -1 0 1
1208 403 2 4.0999999999999998e-01 -9.4090467856256872e+00 -8.4644068851756362e+00 -2.5433586872683680e+00 -2 1 1
180 60 2 4.0999999999999998e-01 -1.0392005774125398e+01 -9.2855551422841955e+00 -6.1514289543727507e-01 1 3 0
941 314 2 4.0999999999999998e-01 -1.4308890408558550e+01 -1.3927190971438632e+01 -2.9167811814409514e+00 0 2 -2
1169 390 2 4.0999999999999998e-01 -1.1380460398293799e+01 -1.0737760355833053e+01 -2.7640477062973954e+00 3 3 -1
588 196 2 4.0999999999999998e-01 -1.4587271824061315e+01 -1.2278133583348284e+01 -7.4193594265869756e-01 -1 1 0
2520 840 2 4.0999999999999998e-01 -9.9885544210256576e+00 -1.2965315133365877e+01 -3.5899678457531579e+00 1 3 0
2518 840 1 -8.1999999999999995e-01 -1.0179423485103083e+01 -1.3932904079143103e+01 -3.4245973922776312e+00 1 3 0
2519 840 2 4.0999999999999998e-01 -1.0263399253781138e+01 -1.4410308218145111e+01 -4.2992631604605176e+00 1 3 0
1170 390 2 4.0999999999999998e-01 -1.2610406936595467e+01 -1.1733577717929393e+01 -3.1668179762324833e+00 3 3 -1
2392 798 1 -8.1999999999999995e-01 -9.2957601739338465e+00 -1.1444650124995780e+01 -4.3812821205311838e+00 3 2 0
1168 390 1 -8.1999999999999995e-01 -1.2375164640721522e+01 -1.0828756659871837e+01 -2.8118999688251574e+00 3 3 -1
940 314 1 -8.1999999999999995e-01 -1.3601580519128545e+01 -1.3282191712895600e+01 -3.2060829662362664e+00 0 2 -2
1669 557 1 -8.1999999999999995e-01 -1.3681656633108163e+01 -8.6705332680078335e+00 -1.6479728000363298e+00 1 2 0
988 330 1 -8.1999999999999995e-01 -9.6890851776147322e+00 -1.4512128714301724e+01 -8.0285424408084083e-01 -1 0 1
1671 557 2 4.0999999999999998e-01 -1.3030923838356323e+01 -9.2859438568869770e+00 -2.0927463009619345e+00 1 2 0
587 196 2 4.0999999999999998e-01 -1.3255972624123521e+01 -1.1399345372918555e+01 -1.0912469446545607e+00 -1 1 0
1670 557 2 4.0999999999999998e-01 -1.3532857366863428e+01 -8.6861723521417495e+00 -6.5922559454827301e-01 1 2 0
586 196 1 -8.1999999999999995e-01 -1.3773394754144036e+01 -1.1841491739489463e+01 -3.5858902876624654e-01 -1 1 0
990 330 2 4.0999999999999998e-01 -9.6996615383452891e+00 -1.3633849326057454e+01 -3.2481623777867163e-01 -1 0 1
942 314 2 4.0999999999999998e-01 -1.3776698394084686e+01 -1.2995907519647947e+01 -4.1480924989088770e+00 0 2 -2
1938 646 2 4.0999999999999998e-01 -9.1280605308033120e+00 -1.0714784139775315e+01 4.0236640393930720e+00 0 4 4
1936 646 1 -8.1999999999999995e-01 -8.7209240108220705e+00 -9.8746657570138758e+00 4.3820602292614907e+00 0 4 4
1592 531 2 4.0999999999999998e-01 -1.3072893083801908e+01 -1.0050684699437163e+01 4.4951578363979898e+00 0 4 -1
270 90 2 4.0999999999999998e-01 -8.9616981178528583e+00 -9.6924526317125306e+00 1.3998563247142428e+00 -1 2 0
268 90 1 -8.1999999999999995e-01 -8.1666830035805962e+00 -9.3384052568219218e+00 1.8924091144772746e+00 -1 2 0
2015 672 2 4.0999999999999998e-01 -9.3934658733340015e+00 -1.1649840505142535e+01 3.3176106689775153e-01 -1 1 -1
269 90 2 4.0999999999999998e-01 -8.3146062568520307e+00 -9.4342316263631325e+00 2.8767580479392407e+00 -1 2 0
247 83 1 -8.1999999999999995e-01 -1.2716635227826039e+01 -9.7899964004679738e+00 1.0810684915487698e+00 0 2 1
1901 634 2 4.0999999999999998e-01 -1.0050545119047257e+01 -1.2989063833191674e+01 3.7817899677634408e+00 0 3 2
2014 672 1 -8.1999999999999995e-01 -9.6013205246867415e+00 -1.2507889628442308e+01 8.0139387960383068e-01 -1 1 -1
2016 672 2 4.0999999999999998e-01 -9.9096256771075915e+00 -1.2312138781517033e+01 1.7323269568073023e+00 -1 1 -1
249 83 2 4.0999999999999998e-01 -1.3349832070741947e+01 -9.3612535090543041e+00 1.7254659819878206e+00 0 2 1
178 60 1 -8.1999999999999995e-01 -1.0245567322914024e+01 -9.8443033970753433e+00 2.0116764791200481e-01 1 3 0
1900 634 1 -8.1999999999999995e-01 -1.0250723571330337e+01 -1.2037721222462375e+01 3.5475194285644314e+00 0 3 2
113 38 2 4.0999999999999998e-01 -1.2949255954238161e+01 -9.8290953247650847e+00 -4.4530094175720674e+00 1 4 0
1902 634 2 4.0999999999999998e-01 -1.1031655509465470e+01 -1.1719345245395862e+01 4.0849102541442441e+00 0 3 2
248 83 2 4.0999999999999998e-01 -1.3127682045209664e+01 -1.0625133442744010e+01 7.1556417391513705e-01 0 2 1
859 287 1 -8.1999999999999995e-01 -1.4537939764945257e+01 -9.7432839518129057e+00 3.3314554878128000e+00 -2 1 3
179 60 2 4.0999999999999998e-01 -1.1069319921440544e+01 -9.8287456566586897e+00 7.6790953377865101e-01 1 3 0
1914 638 2 4.0999999999999998e-01 -1.3150917110284510e+01 -1.4658893460759337e+01 -4.4209368464290737e+00 0 2 -1
17 6 2 4.0999999999999998e-01 -7.9928920053859622e+00 -7.8185087494706700e+00 1.1425448184436853e+00 -2 -1 0
114 38 2 4.0999999999999998e-01 -1.3225644132258516e+01 -8.2198079062461407e+00 -4.4741832760033393e+00 1 4 0
524 175 2 4.0999999999999998e-01 -1.4920759156610359e+01 -1.4076076668059850e+01 1.7631016297425788e+00 1 1 1
435 145 2 4.0999999999999998e-01 -7.5893650014747092e+00 -1.2557708128029763e+01 4.5910081136374856e+00 -2 1 0
1332 444 2 4.0999999999999998e-01 -7.8571596547958951e+00 -1.2139153518994554e+01 1.9655301928059465e+00 -4 2 0
861 287 2 4.0999999999999998e-01 -1.5008000046974029e+01 -9.3920627332649502e+00 4.1412046638830660e+00 -2 1 3
1041 347 2 4.0999999999999998e-01 -1.5018848228568380e+01 -1.2549066545679203e+01 3.7978492812540203e+00 0 -1 1
772 258 1 -8.1999999999999995e-01 -1.4881142812656476e+01 -4.3724615915640914e+00 -3.8146728031505877e+00 -2 1 2
1547 516 2 4.0999999999999998e-01 -1.3712564138311814e+01 -7.1091787741346986e+00 -2.9663419044025297e+00 -1 1 3
2143 715 1 -8.1999999999999995e-01 -8.9564505627527993e+00 -5.9025763417136901e-01 1.6061999210404601e+00 -2 3 4
1176 392 2 4.0999999999999998e-01 -1.1497588835867404e+01 -6.5451913555112249e+00 -4.1437145852429733e+00 -1 -1 1
2422 808 1 -8.1999999999999995e-01 -9.7612398090461525e+00 -2.8836926832382090e+00 1.5755372965660541e-01 0 1 0
2535 845 2 4.0999999999999998e-01 -1.2437814429916925e+01 -8.6697447077751022e-01 1.9965267673077740e+00 0 2 2
2533 845 1 -8.1999999999999995e-01 -1.2251712757518021e+01 -6.5428022325420443e-02 2.5647662842975016e+00 0 2 2
1211 404 2 4.0999999999999998e-01 -1.0142424019705482e+01 -6.2931861199081762e+00 1.7080378750593717e+00 0 3 1
1716 572 2 4.0999999999999998e-01 -8.4111493020462795e+00 -1.4521925528713275e-01 -1.7960832872934240e+00 -1 -1 2
2527 843 1 -8.1999999999999995e-01 -7.8369779567485907e+00 -7.3099958647924801e-01 -4.2328153146781418e+00 2 1 0
1377 459 2 4.0999999999999998e-01 -1.4745471147939236e+01 -2.9488494279183346e+00 -7.3649044522119489e-01 0 3 -1
1546 516 1 -8.1999999999999995e-01 -1.3320359764688586e+01 -6.5398599032413092e+00 -3.6888781464516853e+00 -1 1 3
2095 699 1 -8.1999999999999995e-01 -1.0216476756261629e+01 -7.3070367828739000e+00 -1.1482152130345522e+00 0 2 1
615 205 2 4.0999999999999998e-01 -8.9107212960150193e+00 -6.5615189956735378e+00 -4.3594758889261147e+00 -1 1 0
2096 699 2 4.0999999999999998e-01 -9.4169429609102515e+00 -7.0139750814365467e+00 -6.2393729813633669e-01 0 2 1
2097 699 2 4.0999999999999998e-01 -1.0796707763194942e+01 -6.5158206975560091e+00 -1.3413883299635501e+00 0 2 1
1548 516 2 4.0999999999999998e-01 -1.3950701468034614e+01 -5.7941652074962455e+00 -3.9047846052495014e+00 -1 1 3
340 114 1 -8.1999999999999995e-01 -1.4519225555378844e+01 -2.8566138056772417e-01 -1.9453941214043589e+00 -1 0 1
613 205 1 -8.1999999999999995e-01 -8.0971313041446322e+00 -6.2716852407555734e+00 -3.8554177609396660e+00 -1 1 0
16 6 1 -8.1999999999999995e-01 -8.1363339016368421e+00 -6.9474298960544374e+00 6.7280788937251046e-01 -2 -1 0
1269 423 2 4.0999999999999998e-01 -1.2914467204168918e+01 -5.5635289576300853e+00 4.9252200843936649e+00 -5 2 -1
1268 423 2 4.0999999999999998e-01 -1.1754956380265817e+01 -6.7053118582710596e+00 4.7891644242094671e+00 -5 2 -1
1210 404 1 -8.1999999999999995e-01 -1.0840704111290822e+01 -6.0072469512672804e+00 2.3642775731148689e+00 0 3 1
951 317 2 4.0999999999999998e-01 -1.4738785058777642e+01 -5.6763214367102179e+00 -7.9197159149709329e-01 -1 1 -1
1212 404 2 4.0999999999999998e-01 -1.1710312081782092e+01 -5.8740397663296910e+00 1.8888360936597408e+00 0 3 1
2553 851 2 4.0999999999999998e-01 -1.0632599961298375e+01 -5.3542889285643813e+00 3.8530318608185219e+00 1 0 0
142 48 1 -8.1999999999999995e-01 -1.4038328302096900e+01 -5.7211535728162382e+00 1.3812102184294837e+00 -2 0 0
143 48 2 4.0999999999999998e-01 -1.4499287881123808e+01 -5.6060667550187162e+00 2.2611409715390032e+00 -2 0 0
773 258 2 4.0999999999999998e-01 -1.4203278481823675e+01 -3.9003900859983442e+00 -4.3782819823839834e+00 -2 1 2
2007 669 2 4.0999999999999998e-01 -9.5967689649710479e+00 -3.3665412475206704e+00 -4.6800142843907242e+00 0 0 0
1764 588 2 4.0999999999999998e-01 -1.1678955999692949e+01 -2.9182211975132866e+00 -2.0821646642345222e+00 2 3 0
907 303 1 -8.1999999999999995e-01 -1.3473363167563779e+01 -4.0525766381622734e+00 4.2325064206894289e+00 1 -3 0
1763 588 2 4.0999999999999998e-01 -1.1113670255092270e+01 -3.3380293620616861e+00 -6.0878150868873959e-01 2 3 0
1687 563 1 -8.1999999999999995e-01 -1.1908042288188307e+01 -1.5759711495268238e+00 -3.4811731976147797e+00 0 2 1
1688 563 2 4.0999999999999998e-01 -1.2713193646655983e+01 -1.3490060871820919e+00 -2.9332453578187341e+00 0 2 1
1805 602 2 4.0999999999999998e-01 -9.3252817304717794e+00 -1.5197266727284955e+00 4.3337760188670842e+00 3 1 3
2006 669 2 4.0999999999999998e-01 -1.1034603710433309e+01 -2.6165976944202356e+00 -4.4880231135448891e+00 0 0 0
1174 392 1 -8.1999999999999995e-01 -1.0795399348157272e+01 -6.7909177391948319e+00 -4.8119625231470238e+00 -1 -1 1
1689 563 2 4.0999999999999998e-01 -1.1268187399313604e+01 -8.0759185253293708e-01 -3.4675414102369562e+00 0 2 1
1376 459 2 4.0999999999999998e-01 -1.3498149803276322e+01 -3.0294021319374131e+00 3.1438800940962075e-01 0 3 -1
2145 715 2 4.0999999999999998e-01 -8.3741453253226421e+00 -2.4950264501306663e-01 8.6808521832214147e-01 -2 3 4
614 205 2 4.0999999999999998e-01 -7.7101721301956143e+00 -7.0547333855452852e+00 -3.3684834647575368e+00 -1 1 0
1762 588 1 -8.1999999999999995e-01 -1.1825687470658913e+01 -3.5100367148224088e+00 -1.2895543839123480e+00 2 3 0
1952 651 2 4.0999999999999998e-01 -1.4814316318819493e+01 -7.2237915084327708e+00 1.2990555579509540e+00 1 3 0
2529 843 2 4.0999999999999998e-01 -7.5656978853569425e+00 -1.5065463900600715e+00 -4.8028514111406349e+00 2 1 0
909 303 2 4.0999999999999998e-01 -1.4455251379328137e+01 -3.9069550057841500e+00 4.1112766073807663e+00 1 -3 0
2423 808 2 4.0999999999999998e-01 -9.5644638023201534e+00 -2.0248511287265281e+00 6.3049900255610858e-01 0 1 0
2552 851 2 4.0999999999999998e-01 -9.9376558889905340e+00 -3.8979280082274563e+00 4.1034522080989646e+00 1 0 0
2551 851 1 -8.1999999999999995e-01 -1.0354509360537705e+01 -4.6909263607228535e+00 4.5477422618310115e+00 1 0 0
1568 523 2 4.0999999999999998e-01 -8.6627272243987736e+00 -2.4136559721663851e+00 2.3966173952669436e+00 -2 0 -3
1714 572 1 -8.1999999999999995e-01 -7.9395702423764183e+00 -4.3056909273797572e-02 -9.2019352520769360e-01 -1 -1 2
1569 523 2 4.0999999999999998e-01 -7.9443490465285400e+00 -3.4066902375507038e+00 3.4757190496651518e+00 -2 0 -3
1567 523 1 -8.1999999999999995e-01 -8.7777566667121256e+00 -2.8956965654991755e+00 3.2651862682337480e+00 -2 0 -3
193 65 1 -8.1999999999999995e-01 -1.2368693595173164e+01 -3.0075350167222243e+00 1.9448573089474728e+00 0 2 -1
195 65 2 4.0999999999999998e-01 -1.1432422387975819e+01 -3.3578172645986228e+00 1.9182976662534372e+00 0 2 -1
194 65 2 4.0999999999999998e-01 -1.2911156336201792e+01 -3.5542849659166631e+00 2.5826700060604075e+00 0 2 -1
144 48 2 4.0999999999999998e-01 -1.4185350883023137e+01 -4.9073585813666032e+00 8.1895677436589942e-01 -2 0 0
2424 808 2 4.0999999999999998e-01 -8.9024423853426171e+00 -3.3320066746602013e+00 -9.0414832926450472e-02 0 1 0
1375 459 1 -8.1999999999999995e-01 -1.4323816045820550e+01 -3.4911451775216484e+00 -9.7654916775145040e-03 0 3 -1
2171 724 2 4.0999999999999998e-01 -1.3434243492350378e+01 -1.1841821005026544e+01 5.5562690526020475e+00 0 -4 -2
317 106 2 4.0999999999999998e-01 -1.0661257042988160e+01 -8.8600125081024217e+00 7.0716024663721768e+00 0 2 -1
318 106 2 4.0999999999999998e-01 -9.6202249614714699e+00 -7.6472785549940996e+00 6.7366797127166684e+00 0 2 -1
316 106 1 -8.1999999999999995e-01 -9.9443618809268379e+00 -8.5481830899888998e+00 6.4480396404857814e+00 0 2 -1
434 145 2 4.0999999999999998e-01 -7.9291371750504425e+00 -1.2579365726654123e+01 6.1881087311260679e+00 -2 1 0
2400 800 2 4.0999999999999998e-01 -1.4337383800513939e+01 -9.4406561556152884e+00 1.2663571124393648e+01 1 3 -2
2266 756 1 -8.1999999999999995e-01 -8.7824362379519307e+00 -1.1289707160294117e+01 7.1842386062172103e+00 0 2 1
2267 756 2 4.0999999999999998e-01 -8.7829550985760179e+00 -1.0550093518223530e+01 6.5112020269683875e+00 0 2 1
210 70 2 4.0999999999999998e-01 -1.4153271820204006e+01 -1.4294029660400282e+01 1.1058058856148804e+01 1 2 -1
2505 835 2 4.0999999999999998e-01 -1.1171458455234230e+01 -1.3062288608685144e+01 1.4085173510081415e+01 -1 -1 -1
2377 793 1 -8.1999999999999995e-01 -1.0441847590586363e+01 -1.4762689361994257e+01 1.1186834057487371e+01 2 1 -3
1131 377 2 4.0999999999999998e-01 -1.2051638072553480e+01 -1.0844472911413874e+01 1.0838980440937860e+01 -2 1 0
1130 377 2 4.0999999999999998e-01 -1.1054311478919656e+01 -1.1567528241851027e+01 1.1910976143056860e+01 -2 1 0
1129 377 1 -8.1999999999999995e-01 -1.1127630858255033e+01 -1.0847074285072832e+01 1.1221355478188595e+01 -2 1 0
2504 835 2 4.0999999999999998e-01 -1.0802504941630509e+01 -1.3471812000812994e+01 1.2548030556433279e+01 -1 -1 -1
2503 835 1 -8.1999999999999995e-01 -1.0888415510016905e+01 -1.2711898443865497e+01 1.3192357649433600e+01 -1 -1 -1
1489 497 1 -8.1999999999999995e-01 -1.1154697510161963e+01 -8.4328588642509885e+00 1.2214268769668330e+01 0 2 0
2246 749 2 4.0999999999999998e-01 -1.1873911453157607e+01 -8.7480507878528329e+00 8.5468135943834405e+00 1 3 0
1490 497 2 4.0999999999999998e-01 -1.0452466102809169e+01 -7.7717760166621401e+00 1.1949982197817299e+01 0 2 0
533 178 2 4.0999999999999998e-01 -9.5842978304645872e+00 -1.0606576064093874e+01 1.0490822458936094e+01 -3 1 0
262 88 1 -8.1999999999999995e-01 -1.3742632412982177e+01 -1.1066228923546690e+01 1.0607979091544138e+01 -2 4 0
1452 484 2 4.0999999999999998e-01 -1.4171176828505610e+01 -1.1475856831018167e+01 1.5034573900301186e+01 -3 -1 -1
2288 763 2 4.0999999999999998e-01 -8.5385969721906250e+00 -8.8489315317377830e+00 9.1506672143148613e+00 0 2 -2
1398 466 2 4.0999999999999998e-01 -1.3192354704783217e+01 -8.4729636177679346e+00 1.0324241646905829e+01 2 0 -2
1491 497 2 4.0999999999999998e-01 -1.0993353806019257e+01 -9.2981655189459289e+00 1.1739695904569682e+01 0 2 0
532 178 1 -8.1999999999999995e-01 -8.8547418542808884e+00 -1.0413886553554846e+01 9.8346017488994733e+00 -3 1 0
2399 800 2 4.0999999999999998e-01 -1.3123823449939501e+01 -8.3550374828850824e+00 1.2539685224635090e+01 1 3 -2
534 178 2 4.0999999999999998e-01 -8.0013335675971966e+00 -1.0825320328427217e+01 1.0154638334424927e+01 -3 1 0
2398 800 1 -8.1999999999999995e-01 -1.4115728537413631e+01 -8.4780220102075976e+00 1.2507971464901985e+01 1 3 -2
2247 749 2 4.0999999999999998e-01 -1.1989513720394967e+01 -1.0376640950109735e+01 8.5780359828008486e+00 1 3 0
1860 620 2 4.0999999999999998e-01 -1.1757336157105783e+01 -8.7095602781513968e+00 1.4015993914160781e+01 -1 0 1
2379 793 2 4.0999999999999998e-01 -1.0204217575486258e+01 -1.4356104862053115e+01 1.0304661965029194e+01 2 1 -3
1429 477 1 -8.1999999999999995e-01 -9.3116688161731531e+00 -1.3468881838715696e+01 9.1229329946197950e+00 1 1 3
2227 743 1 -8.1999999999999995e-01 -7.9136682617948946e+00 -8.8606743849458489e+00 1.3775513135010382e+01 1 2 1
1672 558 1 -8.1999999999999995e-01 -1.0586917376559924e+01 -1.4525332377272571e+01 6.9979795717946551e+00 0 -1 0
1674 558 2 4.0999999999999998e-01 -1.0466522920688558e+01 -1.4417744316755925e+01 6.0110972171284907e+00 0 -1 0
472 158 1 -8.1999999999999995e-01 -8.6348041487037790e+00 -1.1706330116288708e+01 1.4143933589218339e+01 2 1 -3
474 158 2 4.0999999999999998e-01 -9.4709975183760235e+00 -1.2150588036491664e+01 1.3822340033857003e+01 2 1 -3
1431 477 2 4.0999999999999998e-01 -9.1129861325798789e+00 -1.2528380717287749e+01 8.8472706957636653e+00 1 1 3
1450 484 1 -8.1999999999999995e-01 -1.4331388090906488e+01 -1.0496796689588592e+01 1.4908954389687928e+01 -3 -1 -1
264 88 2 4.0999999999999998e-01 -1.3914583507744988e+01 -1.1980877003063002e+01 1.0973845932171056e+01 -2 4 0