LAMMPS data file via write_data, version 15 May 2015, timestep = 2000000

2611 atoms
6 atom types
1749 bonds
4 bond types
894 angles
3 angle types
44 dihedrals
3 dihedral types
10 impropers
1 improper types

-1.5155359394834855e+01 1.5155359394834855e+01 xlo xhi
-1.5155359394834855e+01 1.5155359394834855e+01 ylo yhi
-1.5155359394834855e+01 1.5155359394834855e+01 zlo zhi

Masses

1 15.9994
2 1.00794
3 12.0107
4 1.00794
5 12.0107
6 12.0107

Bond Coeffs # harmonic

1 1000 1
2 469 1.4
3 367 1.08
4 469 0.7

Angle Coeffs # harmonic

1 100 109.47
2 35 120
3 63 120

Dihedral Coeffs # opls

1 0 7.25 0 0
2 0 7.25 0 0
3 0 7.25 0 0

Improper Coeffs # cvff

1 2.5 -1 2

Atoms # full

1677 559 2 4.0999999999999998e-01 -1.1680073791174168e+01 -1.2188193864353124e+01 -1.2804249777360843e+01 0 0 1
1264 422 1 -8.1999999999999995e-01 -1.0781769122837915e+01 -6.3800865277722050e+00 -1.1370394047376823e+01 0 0 1
779 260 2 4.0999999999999998e-01 -1.2001095563458051e+01 -1.1800739589787410e+01 -1.0190777448389639e+01 1 1 1
2363 788 2 4.0999999999999998e-01 -9.3331083913263821e+00 -7.7946051830030427e+00 -1.2357208059225965e+01 -1 1 2
1675 559 1 -8.1999999999999995e-01 -1.2362623219523954e+01 -1.2707765631254880e+01 -1.3318151077607970e+01 0 0 1
2364 788 2 4.0999999999999998e-01 -9.5374936710818456e+00 -8.5242371725891033e+00 -1.3803681423212618e+01 -1 1 2
1676 559 2 4.0999999999999998e-01 -1.2894621426588078e+01 -1.3273467968220697e+01 -1.2688165464475517e+01 0 0 1
1962 654 2 4.0999999999999998e-01 -1.1580717923108901e+01 -5.7863952611809903e+00 -8.7607512930461588e+00 -1 1 1
1266 422 2 4.0999999999999998e-01 -1.1684829446646503e+01 -6.3043126762589381e+00 -1.1793080059314606e+01 0 0 1
203 68 2 4.0999999999999998e-01 -9.6512243618728615e+00 -1.0716057593849463e+01 -1.2488540032349260e+01 0 1 1
2362 788 1 -8.1999999999999995e-01 -9.0704802176367814e+00 -8.5775448190605186e+00 -1.2921083089239453e+01 -1 1 2
803 268 2 4.0999999999999998e-01 -1.0666204380968454e+01 -7.4803333637375635e+00 -9.6389704952057649e+00 0 1 0
2401 801 1 -8.1999999999999995e-01 -1.3257367323869357e+01 -6.3413026503551748e+00 -1.2483025146535438e+01 1 1 -1
1265 422 2 4.0999999999999998e-01 -1.0183813220088366e+01 -5.6643662442543583e+00 -1.1731110414125610e+01 0 0 1
2402 801 2 4.0999999999999998e-01 -1.4140486830289667e+01 -6.8099153886582648e+00 -1.2462406523346543e+01 1 1 -1
802 268 1 -8.1999999999999995e-01 -1.0926715294286048e+01 -7.5318392141962445e+00 -8.6749143230980117e+00 0 1 0
202 68 1 -8.1999999999999995e-01 -1.0001129668614954e+01 -1.1641542284190118e+01 -1.2343738601368658e+01 0 1 1
231 77 2 4.0999999999999998e-01 -1.0107925733557277e+01 -1.3846434266634434e+01 -1.2926620263415755e+01 0 1 0
2292 764 2 4.0999999999999998e-01 -1.4665405706698927e+01 -7.2441272315889496e+00 -9.7767648597446755e+00 1 0 2
780 260 2 4.0999999999999998e-01 -1.1481987454532877e+01 -1.3344021158773650e+01 -1.0067366933228778e+01 1 1 1
367 123 1 -8.1999999999999995e-01 -8.4673145945055666e+00 -5.8579004930730960e+00 -1.5029127926725909e+01 1 2 0
204 68 2 4.0999999999999998e-01 -9.9865315378874904e+00 -1.1854330030343455e+01 -1.1366788574907872e+01 0 1 1
1236 412 2 4.0999999999999998e-01 -1.3080823619636988e+01 -9.5163206611931734e+00 -1.0479919025410419e+01 -1 3 0
1234 412 1 -8.1999999999999995e-01 -1.3165924344931449e+01 -1.0512647972518250e+01 -1.0476334496114401e+01 -1 3 0
804 268 2 4.0999999999999998e-01 -1.0705777460563315e+01 -8.4394251256956956e+00 -8.3179866323093812e+00 0 1 0
2507 836 2 4.0999999999999998e-01 -9.0463854465518825e+00 -1.2217854938320585e+01 -1.3745930501400695e+01 0 1 0
691 231 1 -8.1999999999999995e-01 -1.3312957253609733e+01 -1.4024627524176809e+01 -1.0990926972997013e+01 -1 0 1
229 77 1 -8.1999999999999995e-01 -1.0080650441779856e+01 -1.4836921319049070e+01 -1.2792029939096000e+01 0 1 0
1235 412 2 4.0999999999999998e-01 -1.3842365650067871e+01 -1.0791838051207652e+01 -1.1157805838301639e+01 -1 3 0
2403 801 2 4.0999999999999998e-01 -1.3180441910941019e+01 -5.8122309059173674e+00 -1.3328062812999345e+01 1 1 -1
230 77 2 4.0999999999999998e-01 -9.8329028532328895e+00 -1.5037807501962416e+01 -1.1844301613375674e+01 0 1 0
778 260 1 -8.1999999999999995e-01 -1.1282892519188159e+01 -1.2393966582645534e+01 -9.8271990709532666e+00 1 1 1
693 231 2 4.0999999999999998e-01 -1.4005371260072987e+01 -1.3497801984406003e+01 -1.0498036749056496e+01 -1 0 1
692 231 2 4.0999999999999998e-01 -1.3496797773586415e+01 -1.5001416040950268e+01 -1.0881337087899798e+01 -1 0 1
1807 603 1 -8.1999999999999995e-01 -9.3489809825729555e+00 -1.3186215746829614e+01 -8.0013469733589702e+00 0 2 0
1192 398 1 -8.1999999999999995e-01 -8.0360807792866709e+00 -9.1311415792731232e+00 -7.6838389619582470e+00 0 2 -1
890 297 2 4.0999999999999998e-01 -9.2725665547539009e+00 -1.4117706720782802e+01 -9.6571492723016625e+00 0 2 0
465 155 2 4.0999999999999998e-01 -1.3866282455463418e+01 -1.2279256072639914e+01 -1.4706740540435723e+01 0 3 2
2506 836 1 -8.1999999999999995e-01 -8.3858081283842409e+00 -1.2353553924843041e+01 -1.4484270854393857e+01 0 1 0
369 123 2 4.0999999999999998e-01 -8.6498782714540390e+00 -5.1317630505577601e+00 -1.4366317232583928e+01 1 2 0
2566 856 1 -8.1999999999999995e-01 -1.4136238118916642e+01 -7.0645764929640293e+00 -7.7846218620362277e+00 0 2 2
306 102 2 4.0999999999999998e-01 -1.3762809140338993e+01 -1.0510736372261253e+01 -8.6496360214545760e+00 0 3 1
891 297 2 4.0999999999999998e-01 -7.7262202344489088e+00 -1.4346504790075898e+01 -1.0129257176500623e+01 0 2 0
1809 603 2 4.0999999999999998e-01 -1.0173157660947943e+01 -1.2919395960002248e+01 -8.5008097821955602e+00 0 2 0
1841 614 2 4.0999999999999998e-01 -7.7543001018173863e+00 -8.5455595513330955e+00 -9.4118211501748910e+00 1 2 0
2235 745 2 4.0999999999999998e-01 -1.0630528218143848e+01 -1.0977161051163069e+01 -8.3746310958664321e+00 1 1 1
720 240 2 4.0999999999999998e-01 -1.3982078739357968e+01 -1.4973162317594737e+01 -1.4001675024489945e+01 1 2 1
2508 836 2 4.0999999999999998e-01 -7.6241369341126122e+00 -1.2909766892547117e+01 -1.4151995034807632e+01 0 1 0
2567 856 2 4.0999999999999998e-01 -1.3598220089567084e+01 -6.2391349653647410e+00 -7.9552266248782866e+00 0 2 2
305 102 2 4.0999999999999998e-01 -1.3788776515290850e+01 -9.1568904482024713e+00 -7.7370307875066509e+00 0 3 1
889 297 1 -8.1999999999999995e-01 -8.6848007337663411e+00 -1.4455102282041626e+01 -1.0392417016935390e+01 0 2 0
1980 660 2 4.0999999999999998e-01 -1.4450776440850468e+01 -8.7126018997892629e+00 -1.4940230641155525e+01 1 2 0
1960 654 1 -8.1999999999999995e-01 -1.2295675113646057e+01 -5.1216982920244227e+00 -8.5441012287563023e+00 -1 1 1
719 240 2 4.0999999999999998e-01 -1.2405695413794721e+01 -1.4848790042579550e+01 -1.3594282684220405e+01 1 2 1
2064 688 2 4.0999999999999998e-01 -1.4802333241733372e+01 -1.4673545599715604e+01 -8.0676419835286985e+00 -1 1 0
2442 814 2 4.0999999999999998e-01 -7.8962237682491327e+00 -1.2223865469227752e+01 -8.0639146047812105e+00 0 -1 -1
304 102 1 -8.1999999999999995e-01 -1.3994442077804905e+01 -1.0135355631270990e+01 -7.7522182926725121e+00 0 3 1
2290 764 1 -8.1999999999999995e-01 -1.5124483941158418e+01 -6.8416616559226231e+00 -1.0568719225793821e+01 1 0 2
2233 745 1 -8.1999999999999995e-01 -1.0569878287756948e+01 -1.0174067411545462e+01 -7.7819378573072102e+00 1 1 1
1808 603 2 4.0999999999999998e-01 -9.4404801793888069e+00 -1.4131394394178786e+01 -7.6879968385630413e+00 0 2 0
979 327 1 -8.1999999999999995e-01 -5.2942690710569451e-02 -8.1523271575890099e+00 -1.3516728526572980e+01 -2 1 2
1724 575 2 4.0999999999999998e-01 -3.8373574825406962e+00 -9.0378943076401779e+00 -1.4816275710783851e+01 1 1 2
2441 814 2 4.0999999999999998e-01 -7.3746782462678917e+00 -1.0676587427959936e+01 -8.0824163577843073e+00 0 -1 -1
981 327 2 4.0999999999999998e-01 -6.6691484792473688e-01 -8.9343931324137671e+00 -1.3623190180010342e+01 -2 1 2
1749 583 2 4.0999999999999998e-01 -1.1069095086942404e-01 -5.5147671619830749e+00 -1.1803904592689182e+01 1 2 1
1955 652 2 4.0999999999999998e-01 -5.9729155831770875e-01 -1.4753908982198270e+01 -1.3038160068052555e+01 0 2 -1
1412 471 2 4.0999999999999998e-01 -6.1337633175416340e+00 -1.4999536732125827e+01 -1.4149624043048902e+01 0 2 1
914 305 2 4.0999999999999998e-01 -1.8835424902013269e+00 -5.5067438169113316e+00 -1.4927792547931320e+01 0 1 2
2390 797 2 4.0999999999999998e-01 -7.0268243796059071e+00 -8.7378134046823082e+00 -1.3113210137679969e+01 -1 0 0
2183 728 2 4.0999999999999998e-01 -5.6516474316135401e+00 -5.1548840580040185e+00 -1.4464445476684569e+01 0 -1 1
178 60 1 -8.1999999999999995e-01 -5.8180798615622802e+00 -1.4553560465430484e+01 -9.8598737830873429e+00 -1 2 2
495 165 2 4.0999999999999998e-01 -1.6129767006248485e+00 -1.1581123292375992e+01 -1.3598799023673497e+01 1 1 1
2339 780 2 4.0999999999999998e-01 -1.7333331648492276e+00 -6.4415517632817814e+00 -9.3030367757303267e+00 1 2 2
1321 441 1 -8.1999999999999995e-01 -3.6678196200979318e+00 -1.0100097848422624e+01 -1.1690152468252789e+01 2 0 1
1263 421 2 4.0999999999999998e-01 -2.4531827670148232e-01 -1.3399970140525118e+01 -1.0292595602542896e+01 0 2 0
493 165 1 -8.1999999999999995e-01 -1.2818850133260931e+00 -1.0651624417364808e+01 -1.3761074178946696e+01 1 1 1
2031 677 2 4.0999999999999998e-01 -1.7765007824362247e+00 -1.4004367325657224e+01 -1.4884662112549515e+01 2 1 0
2340 780 2 4.0999999999999998e-01 -1.7488785805309117e+00 -8.0699034228758926e+00 -9.1819971700595531e+00 1 2 2
2391 797 2 4.0999999999999998e-01 -5.7907353748561938e+00 -7.6771112829862069e+00 -1.3229039155590067e+01 -1 0 0
2549 850 2 4.0999999999999998e-01 -5.5202169210931142e+00 -1.3436171148325453e+01 -1.2264826108299189e+01 1 0 1
2184 728 2 4.0999999999999998e-01 -6.8906972523158938e+00 -6.1814790610881420e+00 -1.4186453355665432e+01 0 -1 1
2019 673 2 4.0999999999999998e-01 -4.3174275764866739e+00 -1.1791533484668598e+01 -1.1767192456860895e+01 3 0 -1
2182 728 1 -8.1999999999999995e-01 -5.9101644654012109e+00 -6.0318978240991399e+00 -1.4059551805139034e+01 0 -1 1
1045 349 1 -8.1999999999999995e-01 -2.0344706402337689e+00 -1.2820137018529589e+01 -9.7636982883305095e+00 0 2 3
1840 614 1 -8.1999999999999995e-01 -7.4623034888739292e+00 -7.8838936751560631e+00 -1.0102371175658359e+01 1 2 0
180 60 2 4.0999999999999998e-01 -5.2577448601949008e+00 -1.4044189537288405e+01 -1.0512935057822133e+01 -1 2 2
494 165 2 4.0999999999999998e-01 -2.0104054580543629e+00 -1.0105804391225831e+01 -1.4174911769529364e+01 1 1 1
2029 677 1 -8.1999999999999995e-01 -8.5847712608254945e-01 -1.3812149256402042e+01 -1.4537952030834218e+01 2 1 0
1137 379 2 4.0999999999999998e-01 -6.1461882298573851e+00 -5.4751929841088316e+00 -8.5087236412381344e+00 0 0 0
1322 441 2 4.0999999999999998e-01 -4.6141613449146224e+00 -9.8064869060770619e+00 -1.1824885733474879e+01 2 0 1
1136 379 2 4.0999999999999998e-01 -7.3444627176501225e+00 -6.2380186259712165e+00 -9.3141158938135504e+00 0 0 0
2389 797 1 -8.1999999999999995e-01 -6.1503501928091442e+00 -8.4594163708117023e+00 -1.2720512832389058e+01 -1 0 0
109 37 1 -8.1999999999999995e-01 -2.6589469630894484e+00 -9.9172275603945543e+00 -9.0527412601763952e+00 1 1 1
1747 583 1 -8.1999999999999995e-01 -9.6386325682424179e-01 -6.0357275089064650e+00 -1.1828813117871830e+01 1 2 1
1649 550 2 4.0999999999999998e-01 -5.4749226362768990e+00 -5.4210778016822143e+00 -1.2251310963318394e+01 1 1 1
2548 850 1 -8.1999999999999995e-01 -6.3260847726660145e+00 -1.3725921899306927e+01 -1.2781105688543096e+01 1 0 1
980 327 2 4.0999999999999998e-01 -3.7239147545496465e-01 -7.5779697579762013e+00 -1.2763077984857135e+01 -2 1 2
1725 575 2 4.0999999999999998e-01 -2.9615615263099180e+00 -7.7167395633743183e+00 -1.4423907299900614e+01 1 1 2
2550 850 2 4.0999999999999998e-01 -7.1017312080321329e+00 -1.3828478130556762e+01 -1.2158387529355252e+01 1 0 1
2338 780 1 -8.1999999999999995e-01 -1.5042386679590223e+00 -7.2189477286427044e+00 -8.7172942532207749e+00 1 2 2
2017 673 1 -8.1999999999999995e-01 -4.1936742096081687e+00 -1.2733648851380133e+01 -1.1455701131487368e+01 3 0 -1
1723 575 1 -8.1999999999999995e-01 -3.1461695588141314e+00 -8.6720297260133048e+00 -1.4193118069785760e+01 1 1 2
1047 349 2 4.0999999999999998e-01 -1.8748394198304705e+00 -1.1875027135563988e+01 -9.4787276364645585e+00 0 2 3
2018 673 2 4.0999999999999998e-01 -3.3680245689673178e+00 -1.2793498698953991e+01 -1.0894769953303960e+01 3 0 -1
1323 441 2 4.0999999999999998e-01 -3.0604419353210695e+00 -9.5326953514932242e+00 -1.2246093010199345e+01 2 0 1
1046 349 2 4.0999999999999998e-01 -1.9509171865452970e+00 -1.3425539584678656e+01 -8.9722251809700886e+00 0 2 3
1842 614 2 4.0999999999999998e-01 -6.8769451326108690e+00 -8.3388429298403697e+00 -1.0773415028933817e+01 1 2 0
1898 633 2 4.0999999999999998e-01 -8.9589082032685674e-01 -1.0293568107878215e+01 -8.0179413733628166e+00 1 1 -1
111 37 2 4.0999999999999998e-01 -3.3911288471644045e+00 -1.0248793166814945e+01 -8.4578487995111011e+00 1 1 1
110 37 2 4.0999999999999998e-01 -2.9350357639166536e+00 -1.0017359046090032e+01 -1.0008603044857615e+01 1 1 1
1748 583 2 4.0999999999999998e-01 -1.7385010081938397e+00 -5.4048252717273808e+00 -1.1871495819556614e+01 1 2 1
1135 379 1 -8.1999999999999995e-01 -7.0138350492482129e+00 -5.3516202746304558e+00 -8.9902232592249156e+00 0 0 0
2440 814 1 -8.1999999999999995e-01 -7.1011972024154648e+00 -1.1631770142142658e+01 -8.1953641388616116e+00 0 -1 -1
768 256 2 4.0999999999999998e-01 -4.1236911860803662e+00 -1.4903423952738491e+01 -1.4963708919602333e+01 1 2 1
1674 558 2 4.0999999999999998e-01 -1.9869125268785481e-02 -6.1560188037622705e+00 -1.4530708636401251e+01 0 1 0
1650 550 2 4.0999999999999998e-01 -6.1073827806357599e+00 -5.1202992877356266e+00 -1.0776201535713268e+01 1 1 1
2281 761 1 -8.1999999999999995e-01 -1.2197285696159220e+01 -1.0346449058842159e+01 -5.0421711947962784e+00 0 1 2
454 152 1 -8.1999999999999995e-01 -1.3188777976882401e+01 -7.2304105114655304e+00 -2.8033386790810084e+00 -2 1 -2
1194 398 2 4.0999999999999998e-01 -7.6439140667786960e+00 -8.6041091363976285e+00 -6.9299389958639779e+00 0 2 -1
455 152 2 4.0999999999999998e-01 -1.2876580666624992e+01 -7.2110493229695907e+00 -3.7531181677845566e+00 -2 1 -2
189 63 2 4.0999999999999998e-01 -1.0486726639126477e+01 -9.9234980287678418e+00 -4.1258663885249423e+00 -1 3 -1
456 152 2 4.0999999999999998e-01 -1.4130387132045644e+01 -7.5652238479375837e+00 -2.7687650140230105e+00 -2 1 -2
615 205 2 4.0999999999999998e-01 -1.4310083866504828e+01 -1.0970356941425578e+01 -2.2658796012723652e+00 0 1 1
613 205 1 -8.1999999999999995e-01 -1.4363559911890020e+01 -1.0777344324207785e+01 -3.2455783065499197e+00 0 1 1
1541 514 2 4.0999999999999998e-01 -8.7544963873031083e+00 -1.4585650319986012e+01 -3.5366850864172985e+00 0 1 0
574 192 1 -8.1999999999999995e-01 -8.0416444883804807e+00 -1.1635780521669300e+01 -4.8501554899209829e+00 1 1 0
1540 514 1 -8.1999999999999995e-01 -9.2562175271170091e+00 -1.4837407950036225e+01 -4.3642218461328088e+00 0 1 0
880 294 1 -8.1999999999999995e-01 -1.1448752078442304e+01 -6.8222618052190587e+00 -5.8788865079443315e+00 1 1 -1
188 63 2 4.0999999999999998e-01 -9.0766469242629704e+00 -1.0745451071410502e+01 -4.0759686672857214e+00 -1 3 -1
187 63 1 -8.1999999999999995e-01 -9.6380417295123113e+00 -1.0058523655724141e+01 -3.6145689318650600e+00 -1 3 -1
1120 374 1 -8.1999999999999995e-01 -1.1396575697456278e+01 -7.6660019272351692e+00 -9.5278255732291228e-01 1 1 1
1122 374 2 4.0999999999999998e-01 -1.1994317718663732e+01 -7.3598581198890027e+00 -1.6936628220438923e+00 1 1 1
1709 570 2 4.0999999999999998e-01 -1.0140826811943288e+01 -7.4468165097264905e+00 -2.7838517041961897e+00 1 2 0
1969 657 1 -8.1999999999999995e-01 -1.3856866120427755e+01 -1.3523732472695366e+01 -2.3587087270215488e+00 0 2 -1
1121 374 2 4.0999999999999998e-01 -1.1378174963893528e+01 -6.9735239726914067e+00 -2.3163154632009153e-01 1 1 1
881 294 2 4.0999999999999998e-01 -1.1180285419223853e+01 -6.9216186759901870e+00 -6.8369976433519621e+00 1 1 -1
1971 657 2 4.0999999999999998e-01 -1.3857619935461139e+01 -1.3031957026221505e+01 -1.4880311614978812e+00 0 2 -1
882 294 2 4.0999999999999998e-01 -1.0631321235834545e+01 -6.7138406981997374e+00 -5.3132233738436412e+00 1 1 -1
1743 581 2 4.0999999999999998e-01 -1.3129946578418785e+01 -1.4281654186327149e+01 -5.0340976731725817e+00 2 4 0
1741 581 1 -8.1999999999999995e-01 -1.3882048171522207e+01 -1.4613988786586731e+01 -5.6031495046769528e+00 2 4 0
2283 761 2 4.0999999999999998e-01 -1.2698532129303491e+01 -1.0751937582562658e+01 -4.2778059959655064e+00 0 1 2
1708 570 1 -8.1999999999999995e-01 -9.6798666959088830e+00 -6.9446971866518439e+00 -3.5155039706973135e+00 1 2 0
2274 758 2 4.0999999999999998e-01 -1.0439077100827170e+01 -9.2075389686085849e+00 -6.7506654513941555e-01 -1 0 0
1970 657 2 4.0999999999999998e-01 -1.4444908954432506e+01 -1.4329328854033484e+01 -2.2869925826912407e+00 0 2 -1
2282 761 2 4.0999999999999998e-01 -1.2845421784915917e+01 -1.0021194041293459e+01 -5.7306854397564351e+00 0 1 2
2273 758 2 4.0999999999999998e-01 -1.0189189656906873e+01 -1.0538114110335153e+01 -1.5880547338484838e+00 -1 0 0
705 235 2 4.0999999999999998e-01 -8.3905831702953044e+00 -1.0394046303006483e+01 -2.8532314388728253e-01 -1 1 2
2272 758 1 -8.1999999999999995e-01 -1.0230731561876123e+01 -1.0185313139332333e+01 -6.5332009451603845e-01 -1 0 0
2234 745 2 4.0999999999999998e-01 -1.1270887819091866e+01 -1.0230733312379222e+01 -7.0710949103111318e+00 1 1 1
1742 581 2 4.0999999999999998e-01 -1.4720150164107819e+01 -1.4121464873820491e+01 -5.3687815724376300e+00 2 4 0
575 192 2 4.0999999999999998e-01 -8.3389212333917175e+00 -1.2039180360720495e+01 -5.7154983046284187e+00 1 1 0
1710 570 2 4.0999999999999998e-01 -9.5515850916106171e+00 -5.9929043509765609e+00 -3.2370128381564083e+00 1 2 0
1149 383 2 4.0999999999999998e-01 -8.1213774771842928e+00 -7.7937791318608438e+00 -3.9694199249141171e+00 2 1 1
1542 514 2 4.0999999999999998e-01 -8.6107052514069053e+00 -1.4984129761057295e+01 -5.1136947988842074e+00 0 1 0
1193 398 2 4.0999999999999998e-01 -9.0038485567944786e+00 -9.3044680378994933e+00 -7.5013381304282216e+00 0 2 -1
2034 678 2 4.0999999999999998e-01 -1.3656917687221242e+01 -5.6439082569101391e+00 -2.0257489933351174e+00 1 0 0
1159 387 1 -8.1999999999999995e-01 -1.4352061362219986e+01 -1.1380234874369311e+01 -4.5475606283925885e-01 1 1 1
2445 815 2 4.0999999999999998e-01 -1.5106941472303951e+01 -9.2678822375106158e+00 -3.0532977652547402e+00 2 1 2
785 262 2 4.0999999999999998e-01 -1.1715333316877739e+01 -5.2392016456012112e+00 -4.7700732782351167e+00 2 0 0
2568 856 2 4.0999999999999998e-01 -1.4511464173937298e+01 -7.0323184225200883e+00 -6.8582915081722469e+00 0 2 2
614 205 2 4.0999999999999998e-01 -1.4795840005496299e+01 -1.1547839540930031e+01 -3.7139735982928279e+00 0 1 1
472 158 1 -8.1999999999999995e-01 -1.0876838001711887e+01 -1.5078581253402064e+01 -2.7361976073240335e-01 0 1 -1
1160 387 2 4.0999999999999998e-01 -1.3804454507679823e+01 -1.0572383395434070e+01 -2.3698134811442984e-01 1 1 1
1580 527 2 4.0999999999999998e-01 -1.2586585400874910e+01 -8.8693543184743575e+00 -2.8675750351725959e-01 1 0 -1
473 158 2 4.0999999999999998e-01 -1.1496786178077809e+01 -1.4302387315895096e+01 -3.8812009796335012e-01 0 1 -1
576 192 2 4.0999999999999998e-01 -7.0562437516908165e+00 -1.1767189688793341e+01 -4.7422660947756263e+00 1 1 0
1367 456 2 4.0999999999999998e-01 -5.4711890008118083e+00 -1.1154810728640957e+01 -7.3618016899359988e+00 -1 0 0
703 235 1 -8.1999999999999995e-01 -7.4183405603596242e+00 -1.0497357515937013e+01 -4.9507107688608798e-01 -1 1 2
2178 726 2 4.0999999999999998e-01 -9.4541532780415771e-01 -1.3920764895341897e+01 -2.6516217595765994e+00 1 2 1
1647 549 2 4.0999999999999998e-01 -4.7245102429977610e+00 -6.7890180880404056e+00 -7.1973637545959441e+00 0 0 2
1815 605 2 4.0999999999999998e-01 -3.1545500783437035e+00 -1.5057137500551535e+01 -7.5844548277963675e-01 0 1 -1
885 295 2 4.0999999999999998e-01 -6.9354209668062072e+00 -1.4949129196841636e+01 -6.9221498405144928e+00 0 0 0
918 306 2 4.0999999999999998e-01 -1.7878239157854026e+00 -1.3068928523745067e+01 -6.7972960705992183e+00 1 3 -2
1645 549 1 -8.1999999999999995e-01 -4.6498073673753897e+00 -5.8121483428948899e+00 -7.3975339626337622e+00 0 0 2
1838 613 2 4.0999999999999998e-01 -4.7675551342994726e+00 -1.4931573637746839e+01 -5.2997118829726730e+00 1 2 -1
380 127 2 4.0999999999999998e-01 -1.6502723257266272e+00 -1.0822723584216643e+01 -5.9850928936334356e+00 2 2 0
2148 716 2 4.0999999999999998e-01 -5.7854905832492989e+00 -1.1502036399757284e+01 -1.6271945411138091e+00 1 2 1
148 50 1 -8.1999999999999995e-01 -6.5688060849765808e+00 -5.3319853127848980e+00 -5.3091590387390362e+00 1 1 1
1492 498 1 -8.1999999999999995e-01 -1.2906978745982887e+00 -1.4777325332524171e+01 -9.2551572214678046e-01 2 0 0
1535 512 2 4.0999999999999998e-01 -5.6511399920816743e+00 -1.4608908388031944e+01 -1.7933205325705046e+00 0 1 -2
1148 383 2 4.0999999999999998e-01 -6.9482908896044524e+00 -8.9296685979550823e+00 -3.9627590393237320e+00 2 1 1
2455 819 1 -8.1999999999999995e-01 -1.7861439860064348e+00 -1.0921874445313822e+01 -2.7055107752431731e+00 0 2 -1
1147 383 1 -8.1999999999999995e-01 -7.2337179351745560e+00 -8.0529978010055387e+00 -4.3499318790911854e+00 2 1 1
656 219 2 4.0999999999999998e-01 -6.6051547029457272e+00 -7.8166335198560537e+00 -5.8546364579150278e-01 0 1 1
2146 716 1 -8.1999999999999995e-01 -5.1576316241377356e+00 -1.2241063178970244e+01 -1.8712347749854263e+00 1 2 1
1536 512 2 4.0999999999999998e-01 -6.6433421460067521e+00 -1.3675574474111396e+01 -2.6937893379753461e+00 0 1 -2
2252 751 2 4.0999999999999998e-01 -5.6538453531411115e+00 -8.1620261663248499e+00 -5.4375224071538462e+00 1 2 0
2251 751 1 -8.1999999999999995e-01 -5.0813573342823286e+00 -8.2330069241846147e+00 -6.2543101942783821e+00 1 2 0
704 235 2 4.0999999999999998e-01 -7.0814055896284742e+00 -9.6638289895260527e+00 -9.3282459464452216e-01 -1 1 2
244 82 1 -8.1999999999999995e-01 -5.4238691459126986e+00 -1.2028773004538429e+01 -4.6567781631599683e+00 0 1 -2
245 82 2 4.0999999999999998e-01 -4.9641316255162913e+00 -1.2171780441179923e+01 -3.7803573901075982e+00 0 1 -2
2449 817 1 -8.1999999999999995e-01 -6.6141940889680679e+00 -5.2743122847652888e+00 -2.4552508582080197e+00 0 3 0
916 306 1 -8.1999999999999995e-01 -1.6525782727920717e+00 -1.3890883591007176e+01 -7.3504882295065279e+00 1 3 -2
2457 819 2 4.0999999999999998e-01 -2.5105183603847934e+00 -1.0852547574249504e+01 -3.3913669111489479e+00 0 2 -1
176 59 2 4.0999999999999998e-01 -2.6238938662517164e-01 -9.8929382641364256e+00 -3.9302464971460740e+00 -1 0 0
246 82 2 4.0999999999999998e-01 -5.0518477406632947e+00 -1.2661890336383834e+01 -5.3355164023444370e+00 0 1 -2
149 50 2 4.0999999999999998e-01 -6.7051498002056125e+00 -6.2948416874664215e+00 -5.0762618983049421e+00 1 1 1
2147 716 2 4.0999999999999998e-01 -4.5240633527709857e+00 -1.2403551755603807e+01 -1.1148540480510061e+00 1 2 1
2456 819 2 4.0999999999999998e-01 -2.0121066308426308e+00 -1.0342614662965282e+01 -1.9223619505536540e+00 0 2 -1
175 59 1 -8.1999999999999995e-01 -2.8001297916729762e-01 -9.5709544424981718e+00 -4.8767869952706455e+00 -1 0 0
381 127 2 4.0999999999999998e-01 -3.0854498553833860e+00 -1.1456495931208456e+01 -6.4378836417637633e+00 2 2 0
657 219 2 4.0999999999999998e-01 -6.3508379855299850e+00 -7.3782888735656575e+00 -2.1377517497965997e+00 0 1 1
2253 751 2 4.0999999999999998e-01 -4.1216973150144121e+00 -8.1130973150838770e+00 -6.0001499477458253e+00 1 2 0
1534 512 1 -8.1999999999999995e-01 -6.3218660900284753e+00 -1.4609037847124135e+01 -2.5349738107460453e+00 0 1 -2
588 196 2 4.0999999999999998e-01 -1.9180231390793896e+00 -7.4310843136194613e+00 -6.8021938249625258e+00 -1 0 1
655 219 1 -8.1999999999999995e-01 -6.6022276433733342e+00 -8.1344041428766793e+00 -1.5335861881091688e+00 0 1 1
587 196 2 4.0999999999999998e-01 -1.4996863422809739e+00 -8.3517033528227174e+00 -5.5200564352026067e+00 -1 0 1
586 196 1 -8.1999999999999995e-01 -2.2350435174292667e+00 -7.8164977424369582e+00 -5.9356618539565336e+00 -1 0 1
1366 456 1 -8.1999999999999995e-01 -4.5823249469756338e+00 -1.0699141733479355e+01 -7.3147958089961582e+00 -1 0 0
157 53 1 -8.1999999999999995e-01 -1.8678093186181197e+00 -9.1439775188769055e+00 -6.4740011174659173e-01 0 0 1
159 53 2 4.0999999999999998e-01 -1.2946017785792225e+00 -8.5412526831754541e+00 -1.2024487514366786e+00 0 0 1
2177 726 2 4.0999999999999998e-01 -8.1154831254866266e-01 -1.2421469291223467e+01 -3.2845622674010038e+00 1 2 1
379 127 1 -8.1999999999999995e-01 -2.1492631912676909e+00 -1.1671468071188958e+01 -6.1599185469565025e+00 2 2 0
2176 726 1 -8.1999999999999995e-01 -4.1430717071869694e-01 -1.3338984112307987e+01 -3.2675587351419075e+00 1 2 1
917 306 2 4.0999999999999998e-01 -1.0505368190970348e+00 -1.4524370010850651e+01 -6.8645210240985222e+00 1 3 -2
1028 343 2 4.0999999999999998e-01 -4.1254894306339054e+00 -1.4086386457850926e+01 -7.1224762315475907e+00 -1 3 -2
98 33 2 4.0999999999999998e-01 -1.9872491104237788e-01 -6.7897011498481206e+00 -9.1976318119884226e-01 0 -1 -1
1646 549 2 4.0999999999999998e-01 -5.2266217931782517e+00 -5.2969714544711870e+00 -6.7636562258237483e+00 0 0 2
1029 343 2 4.0999999999999998e-01 -5.5735293115736084e+00 -1.3375680758024782e+01 -7.3764433543662680e+00 -1 3 -2
1027 343 1 -8.1999999999999995e-01 -5.0272181367872619e+00 -1.3907184166567646e+01 -6.7291634105914842e+00 -1 3 -2
1368 456 2 4.0999999999999998e-01 -4.6853732245636941e+00 -9.8133785428910443e+00 -6.8623273283005304e+00 -1 0 0
1494 498 2 4.0999999999999998e-01 -9.7343931304231113e-01 -1.4000235677508606e+01 -3.8200697128328009e-01 2 0 0
1813 605 1 -8.1999999999999995e-01 -4.1536555860589015e+00 -1.5095385892297225e+01 -7.4268636801605936e-01 0 1 -1
2450 817 2 4.0999999999999998e-01 -6.6108627191518163e+00 -5.3467742370329798e+00 -3.4525779222535977e+00 0 3 0
1390 464 1 -8.1999999999999995e-01 -1.2943287673854705e+01 -1.3252536150525625e+01 1.0953602043984620e+00 0 1 -1
2489 830 2 4.0999999999999998e-01 -8.0901674119409357e+00 -6.9190839848700350e+00 1.6972614671746609e+00 1 4 0
2123 708 2 4.0999999999999998e-01 -1.0756881777958545e+01 -6.2204326612181315e+00 1.9868831472106354e+00 1 2 0
1179 393 2 4.0999999999999998e-01 -1.0543544983321773e+01 -9.5059937705516191e+00 2.9028028041200411e+00 0 0 -1
1972 658 1 -8.1999999999999995e-01 -1.0927869905842918e+01 -1.0769434302036604e+01 7.3321358451212024e+00 0 0 -1
1391 464 2 4.0999999999999998e-01 -1.3498997517543636e+01 -1.2827247398209636e+01 3.8104995164474786e-01 0 1 -1
1392 464 2 4.0999999999999998e-01 -1.2559579547274598e+01 -1.2542747964335154e+01 1.6860309208068482e+00 0 1 -1
1581 527 2 4.0999999999999998e-01 -1.3727060693566148e+01 -8.3475946172022724e+00 7.5895005680335537e-01 1 0 -1
1178 393 2 4.0999999999999998e-01 -8.9437262984193193e+00 -9.4161426320165234e+00 3.2173315466966539e+00 0 0 -1
1177 393 1 -8.1999999999999995e-01 -9.8420960415826038e+00 -9.0375654753103909e+00 3.4398944271281433e+00 0 0 -1
372 124 2 4.0999999999999998e-01 -1.3622281467163301e+01 -9.6990035544776365e+00 4.8079654374847092e+00 0 4 0
2471 824 2 4.0999999999999998e-01 -1.2109063831600768e+01 -1.4702066216735009e+01 2.4729028530197414e+00 1 1 0
1088 363 2 4.0999999999999998e-01 -9.1129372815706340e+00 -1.3910609435017083e+01 3.8762670908756984e+00 0 1 -1
2020 674 1 -8.1999999999999995e-01 -1.1474588319478043e+01 -1.0797283193897954e+01 1.7709098889764956e+00 0 1 -1
2488 830 1 -8.1999999999999995e-01 -9.0590144491943541e+00 -6.7791519953536277e+00 1.9014122983808459e+00 1 4 0
2490 830 2 4.0999999999999998e-01 -9.3381411487295125e+00 -7.3993858111349535e+00 2.6344343961249042e+00 1 4 0
7 3 1 -8.1999999999999995e-01 -1.0830802686946257e+01 -8.3482657001996881e+00 6.0215012102942698e+00 1 0 0
9 3 2 4.0999999999999998e-01 -1.0870541093222865e+01 -9.2096329180680545e+00 6.5278513926152808e+00 1 0 0
370 124 1 -8.1999999999999995e-01 -1.3842352363634831e+01 -1.0544854159431836e+01 4.3221376376239018e+00 0 4 0
8 3 2 4.0999999999999998e-01 -1.0501311874006817e+01 -8.5220495885196748e+00 5.0935151827758798e+00 1 0 0
565 189 1 -8.1999999999999995e-01 -7.9318601583412143e+00 -7.2385612588940447e+00 5.9063654862532520e+00 0 1 0
566 189 2 4.0999999999999998e-01 -8.4545408373362250e+00 -7.9134182981651531e+00 5.3855046873497958e+00 0 1 0
1579 527 1 -8.1999999999999995e-01 -1.3181189385900783e+01 -9.1347935867831787e+00 4.7213062427687014e-01 1 0 -1
24 8 2 4.0999999999999998e-01 -1.2513000216947608e+01 -1.4895812989601255e+01 6.8100489989913466e+00 2 -1 2
567 189 2 4.0999999999999998e-01 -7.9360750068500288e+00 -7.4886736274948085e+00 6.8745334113168699e+00 0 1 0
985 329 1 -8.1999999999999995e-01 -7.7024897032519020e+00 -1.0998549860731558e+01 3.6243148547954593e+00 0 2 0
986 329 2 4.0999999999999998e-01 -8.3436605275175708e+00 -1.1662470956347482e+01 4.0090639193899644e+00 0 2 0
371 124 2 4.0999999999999998e-01 -1.3105063876467471e+01 -1.1207138474000361e+01 4.4552099890025563e+00 0 4 0
2590 864 1 -8.1999999999999995e-01 -1.3447305310964889e+01 -7.8913549093086139e+00 4.9929086246523777e+00 3 1 0
2592 864 2 4.0999999999999998e-01 -1.2456910438272281e+01 -7.7854221687907952e+00 5.0813356683929616e+00 3 1 0
2591 864 2 4.0999999999999998e-01 -1.3887405858956866e+01 -7.6433072502739927e+00 5.8558726810839890e+00 3 1 0
640 214 1 -8.1999999999999995e-01 -1.4601352971961211e+01 -7.5948470134677963e+00 7.4907395576514961e+00 0 1 0
793 265 1 -8.1999999999999995e-01 -1.4224697975629246e+01 -6.1844473433164673e+00 9.9994857528243308e-01 0 3 1
1473 491 2 4.0999999999999998e-01 -1.0643320796006210e+01 -7.0798988762816375e+00 7.2044663679904151e+00 -1 1 0
678 226 2 4.0999999999999998e-01 -1.4733030456073276e+01 -7.6906539722202325e+00 3.7154522095167106e+00 1 2 -1
2022 674 2 4.0999999999999998e-01 -1.0918222470839041e+01 -1.1127930265764174e+01 1.0086417912439831e+00 0 1 -1
2021 674 2 4.0999999999999998e-01 -1.2104732045018135e+01 -1.0093522437243839e+01 1.4429422290459062e+00 0 1 -1