2611
Atoms. Timestep: 4998000
O 11.9925 11.524 9.92871
H 12.8016 11.0923 9.52995
H 11.6464 12.2242 9.30433
O 11.2762 -3.64443 14.6918
H 10.6059 -2.98461 15.0314
H 11.5012 -3.43153 13.7409
O 6.20126 8.68692 -5.12426
H 6.04968 9.63721 -4.8523
H 7.12255 8.40614 -4.85521
O -7.24805 10.4476 -4.66637
H -7.8182 10.2268 -5.45768
H -7.77981 10.3264 -3.8282
O 0.923421 12.9324 -9.06626
H 1.50982 12.2847 -9.55272
H -0.00522476 12.8823 -9.43382
O -8.21024 -6.31574 -0.055851
H -8.45011 -6.92356 0.70112
H -7.74123 -5.5079 0.301115
O 5.06602 -3.34289 -2.12477
H 5.91737 -3.85704 -2.02067
H 4.30107 -3.98016 -2.21819
O 0.126648 -13.2979 -1.47951
H 0.179726 -13.5756 -2.43868
H 0.92705 -13.6414 -0.988233
O -5.48955 14.8575 12.6096
H -5.00684 14.2728 11.9576
H -5.32529 14.5268 13.5389
O 7.23673 -1.2628 -12.8473
H 7.39248 -2.22415 -13.0743
H 7.36614 -1.12705 -11.8651
O 3.46718 12.6609 1.51641
H 3.70854 13.031 2.41353
H 3.81542 11.727 1.43643
O 7.24145 -5.44608 -2.28435
H 7.96381 -5.28399 -2.9566
H 6.64232 -6.17804 -2.60881
O 6.04034 -8.3613 0.24671
H 5.98546 -7.38055 0.0593377
H 5.28021 -8.63073 0.837976
O -5.91794 13.14 -2.20747
H -5.31728 12.4142 -1.87201
H -6.23934 13.6896 -1.43641
O -2.38781 6.73017 3.84958
H -1.3971 6.59422 3.85155
H -2.68862 6.97642 2.92824
O 13.1613 -11.8971 -0.138708
H 13.2546 -12.8812 0.0127371
H 12.1948 -11.6679 -0.254275
O 1.91646 -14.0442 0.630415
H 2.62289 -14.1439 1.33113
H 1.05919 -14.4371 0.963072
O -6.86939 12.6587 7.23719
H -6.24931 12.2551 7.90989
H -6.41762 13.4294 6.78771
O 12.1886 -13.5383 3.59423
H 13.1239 -13.207 3.46985
H 12.1675 -14.2049 4.33935
O 5.88725 -4.5934 6.93307
H 6.46877 -4.16892 6.23906
H 5.7776 -3.96685 7.70469
O 9.11272 -13.9898 -11.2438
H 9.80987 -14.6688 -11.4738
H 8.41937 -14.4092 -10.6579
O -3.8198 -5.18203 -4.34087
H -3.1504 -4.44356 -4.42195
H -3.6564 -5.86017 -5.05739
O -0.250168 4.80831 4.51223
H 0.508627 4.25056 4.8486
H -0.844864 5.05776 5.2765
O -10.8655 -2.37992 14.9325
H -11.8105 -2.707 14.9337
H -10.5352 -2.3116 -14.2369
O -7.54676 7.04486 1.57787
H -7.17671 6.82251 2.47988
H -6.7956 7.25354 0.951618
O 9.00582 14.0056 9.73671
H 8.31744 14.6136 9.3411
H 8.79885 13.06 9.48605
O 8.23059 -7.41888 7.9146
H 7.52187 -7.97856 8.34409
H 9.09779 -7.91679 7.92069
O 11.2002 -12.1003 8.66698
H 11.0317 -11.115 8.63874
H 10.3703 -12.5883 8.39623
O 6.10992 -0.315702 -10.1003
H 6.85536 0.306857 -9.86208
H 5.27444 0.210229 -10.2595
O 6.18418 1.14082 -13.4728
H 5.57264 1.32134 -12.7024
H 6.64531 0.264403 -13.334
O -1.74902 -5.66154 4.62475
H -1.76598 -4.68913 4.39209
H -2.6854 -5.99308 4.73995
O -8.83149 4.48694 7.90735
H -8.77995 5.36353 8.38581
H -9.01529 3.75774 8.56649
O 6.20142 5.94524 12.337
H 6.69717 5.83116 13.1979
H 6.38676 5.16491 11.7397
O 10.1831 -13.23 1.74726
H 10.6489 -13.4223 2.61097
H 9.52673 -12.4874 1.88067
O 1.48766 9.92825 9.26163
H 0.498129 9.865 9.13191
H 1.75537 9.38197 10.0553
O 5.83927 12.107 -11.0173
H 4.94149 12.5455 -10.9763
H 6.28932 12.1852 -10.1277
O -4.45794 -4.78532 -12.8433
H -3.97771 -5.3492 -12.1714
H -3.79933 -4.41131 -13.4962
O -13.7962 -8.34109 -7.03037
H -13.7054 -7.75115 -6.22805
H -14.5173 -7.98596 -7.62529
O -5.31427 -11.3868 12.4849
H -5.61456 -11.9577 13.249
H -4.94361 -11.9678 11.7603
O 3.19038 -13.0806 6.93168
H 3.19822 -14.0258 6.60532
H 3.38422 -12.4632 6.16934
O 9.22641 11.9985 -5.45624
H 8.23047 12.081 -5.49188
H 9.59424 12.6742 -4.81742
O -1.65478 -14.4795 -8.00649
H -1.54647 -14.9067 -8.90415
H -2.51321 -14.7841 -7.5938
O 13.7183 -2.23188 13.3935
H 13.9644 -3.17256 13.6271
H 13.2268 -1.81609 14.1587
O 6.40615 -3.83541 -7.11809
H 5.63778 -3.22273 -7.3031
H 6.92261 -3.98627 -7.961
O -14.8274 -11.2611 -6.92085
H 14.7756 -10.7515 -7.61547
H -14.2061 -10.6417 -6.44093
O 2.5187 -5.79044 3.64266
H 2.91202 -5.55181 2.75478
H 3.21241 -6.2416 4.2041
O 8.63613 -0.486309 -0.212096
H 8.40289 -1.30582 -0.735543
H 9.62044 -0.320762 -0.2731
O -13.9545 -5.1934 2.05687
H -14.7813 -5.25563 2.61593
H -13.7503 -4.23255 1.86967
O 6.5037 -8.97023 5.42981
H 7.10415 -8.79343 4.64994
H 6.98565 -9.53415 6.10043
O 11.2748 3.22924 1.53479
H 10.5153 2.59594 1.68352
H 12.0601 2.94264 2.08354
O -12.2905 0.231581 8.16466
H -13.0705 0.848413 8.26991
H -11.5167 0.579313 8.69418
O 13.9358 -6.79 10.3165
H 13.9782 -7.49748 11.0219
H 14.7572 -6.22167 10.3645
O 13.0528 0.197792 -3.00448
H 13.8536 -0.0353546 -2.4529
H 12.8109 1.15614 -2.85256
O 14.8717 -0.160068 2.79028
H 14.7683 -1.10252 2.47236
H -14.5338 -0.122625 3.49821
O 14.0854 -4.74414 3.65529
H 13.9397 -4.02557 4.3353
H 13.3368 -5.40543 3.70355
O 4.36112 2.09859 -6.56264
H 4.08376 1.15169 -6.72528
H 5.04276 2.3678 -7.243
O -3.1017 -1.2164 14.3896
H -2.9806 -1.56338 13.4596
H -2.99111 -1.96608 15.0421
O 8.98401 9.0974 1.19741
H 9.49767 8.36591 1.64582
H 8.96933 9.90453 1.78759
O 2.11118 -9.18812 -7.45343
H 3.10771 -9.22261 -7.52921
H 1.7312 -8.73336 -8.25891
O -9.91999 -9.45304 0.120736
H -10.8595 -9.78301 0.212686
H -9.84103 -8.89862 -0.707746
O 13.6994 -7.96799 -2.945
H 14.5766 -8.44414 -3.00696
H 13.1513 -8.37294 -2.21315
O 11.3293 4.68332 -0.713615
H 11.3434 4.13793 0.124445
H 12.1173 5.29887 -0.723981
O -6.83966 -3.8071 7.24211
H -7.74087 -4.22525 7.12821
H -6.38749 -3.7422 6.35254
O 11.9401 -11.8395 -9.76551
H 11.2585 -11.3756 -10.3313
H 11.5892 -11.9377 -8.83424
O -11.1456 -1.81268 3.43809
H -11.6435 -1.42943 4.21604
H -10.5218 -2.52495 3.7598
O -4.86216 4.55697 11.5695
H -4.18856 3.82926 11.4403
H -5.67552 4.35925 11.0224
O 7.60359 -11.8339 2.3289
H 7.00375 -12.4756 1.85096
H 7.83767 -11.0779 1.71755
O -5.50478 0.362641 -8.90208
H -6.41651 0.127649 -8.56517
H -5.23686 1.2566 -8.54285
O 4.98372 -1.7645 11.376
H 4.07043 -1.38045 11.5117
H 5.35284 -1.44616 10.5029
O 14.9487 -13.9995 10.9203
H 14.0962 -14.4271 10.6195
H -14.3949 -14.3938 10.4144
O 12.0941 2.71203 -14.9783
H 13.0638 2.9519 -14.9326
H 11.8489 2.49343 14.188
O 12.0298 -5.92916 -11.0267
H 12.3851 -5.21843 -10.4196
H 12.6036 -6.7451 -10.9563
O 14.882 11.5473 0.0173486
H 14.2168 10.8041 0.0892594
H 14.4651 12.3995 0.333298
O 10.4998 2.88484 -3.79846
H 10.0725 3.15277 -2.93496
H 9.9653 3.24802 -4.56163
O -1.49218 -11.2439 -1.39227
H -1.91741 -11.0964 -2.28526
H -0.872286 -12.0269 -1.44347
O 14.3378 -12.499 13.0846
H 14.5905 -13.0404 12.2826
H 15.0107 -12.6439 13.81
O -13.727 -6.3319 -9.77059
H -13.964 -7.28741 -9.94613
H -14.4024 -5.92902 -9.15292
O 5.17456 -8.2938 14.9672
H 4.89753 -8.08387 14.0296
H 6.11354 -7.98313 -14.9959
O -1.77174 5.24629 -13.4416
H -0.951517 4.67918 -13.5166
H -2.23308 5.05232 -12.5759
O -11.301 3.4317 10.2223
H -10.8445 2.54208 10.2368
H -11.9478 3.48684 10.983
O -5.63621 -3.03058 4.75749
H -5.60707 -2.06656 5.02168
H -6.20137 -3.13498 3.93914
O -3.26942 10.7293 -11.266
H -2.52952 10.0702 -11.4007
H -3.66725 10.6026 -10.3573
O -12.5954 -9.27968 0.865016
H -13.191 -9.72857 0.198854
H -12.7206 -9.70271 1.76242
O 2.15465 -3.90743 -5.10815
H 1.80652 -4.80336 -5.38403
H 1.64935 -3.19096 -5.58912
O -10.8672 9.70175 -1.5623
H -11.2145 10.084 -2.41859
H -11.2151 10.2374 -0.792838
O 13.3103 15.0453 -11.3855
H 13.1441 14.0823 -11.5977
H 12.6278 -14.4997 -11.8481
O 1.5501 6.40531 7.08491
H 1.73739 5.67005 7.7363
H 0.637121 6.77637 7.25455
O -14.623 -11.3866 10.1987
H 14.9124 -10.9855 9.48594
H -14.9187 -12.3251 10.3769
O -3.78197 -6.51895 -10.8456
H -3.17153 -7.23168 -10.5001
H -4.73174 -6.78449 -10.68
O -8.45344 -8.28555 2.29797
H -8.63716 -8.68151 3.19766
H -9.15179 -8.59077 1.65056
O 4.19875 -14.1586 2.18507
H 4.98911 -14.4919 1.67103
H 4.31042 -14.3858 3.15249
O -1.38875 10.3631 9.57427
H -1.38202 11.252 10.0323
H -1.80786 10.4567 8.67118
O 8.71023 13.2271 -14.8828
H 7.91668 13.8257 -14.992
H 9.466 13.5704 14.6705
O -13.5471 -0.108408 -10.6384
H -13.6574 -0.346828 -11.6033
H -13.9387 0.7965 -10.4718
O 2.2585 10.5176 -0.408438
H 3.13465 10.315 0.0289937
H 2.33527 11.3667 -0.931018
O -13.7293 0.630745 4.94592
H -13.0869 -0.0755864 5.24312
H -14.2478 0.962602 5.73396
O -3.59895 7.15262 11.4369
H -4.11899 6.29859 11.4235
H -2.72647 7.01897 10.9669
O -3.2549 7.57921 1.16227
H -2.46279 7.88695 0.635145
H -3.91399 7.1431 0.549575
O -10.492 8.25791 11.5829
H -11.1669 8.0163 10.8857
H -10.9316 8.27371 12.481
O -2.1597 -10.4804 1.27674
H -1.83182 -10.8915 0.426178
H -1.52626 -10.6997 2.0188
O 6.55886 -2.24255 -0.252253
H 5.83308 -2.27922 -0.939191
H 6.6862 -1.29722 0.0479572
O 3.2833 3.1363 14.236
H 3.91229 3.31513 14.9926
H 3.73878 2.5674 13.5513
O 6.95691 5.38955 -12.8733
H 7.86107 5.10884 -12.5513
H 6.34727 5.51169 -12.0901
O -10.2499 14.3736 -6.43807
H -11.0553 13.9717 -6.87366
H -9.87455 -15.0216 -7.02723
O 7.29671 -8.24238 -11.6794
H 7.65129 -7.76661 -12.4843
H 6.43728 -7.8186 -11.3934
O -11.2008 -8.72055 5.76226
H -11.548 -8.637 6.69632
H -11.6611 -8.05497 5.17479
O -0.00517888 13.7295 8.59868
H 0.405866 12.9797 8.08017
H -0.644988 14.2279 8.01364
O 8.13404 1.22429 10.4255
H 7.1598 1.26972 10.2047
H 8.66729 1.21038 9.57971
O 11.7546 3.26986 5.33169
H 12.5885 3.57418 5.7921
H 11.997 2.73288 4.52367
O 1.87624 -5.1854 -11.4688
H 1.54216 -4.72403 -12.2906
H 2.2304 -6.08791 -11.7138
O 9.2107 1.40625 2.43994
H 8.94049 0.943415 3.2842
H 8.62674 1.09771 1.68909
O -1.32439 7.43754 10.0434
H -1.43351 8.431 10.0771
H -1.65001 7.09616 9.16172
O 2.24018 -14.5162 14.0902
H 1.30915 -14.3112 13.7883
H 2.87417 -13.8561 13.6873
O -13.4767 0.249945 -2.86393
H -13.3987 0.982442 -2.18764
H -13.0686 0.54816 -3.72681
O 1.75001 -1.6726 -11.2378
H 1.96113 -1.60673 -12.213
H 2.56819 -1.95699 -10.7381
O 8.15457 7.93606 -8.11658
H 8.56508 7.23358 -8.69796
H 8.61313 7.94307 -7.22795
O -2.79576 -2.89006 5.45819
H -3.72985 -3.03934 5.13387
H -2.54745 -1.93006 5.32886
O -11.67 5.25125 8.38159
H -11.4282 4.62615 9.12372
H -10.8777 5.38391 7.78604
O -0.829782 -3.5483 -10.8718
H 0.167888 -3.595 -10.9215
H -1.12379 -3.69623 -9.92756
O -13.2019 7.82779 -3.13925
H -12.2484 8.12711 -3.10431
H -13.6775 8.31474 -3.87184
O -8.12223 -1.68571 -8.70882
H -8.7036 -2.28655 -8.16019
H -8.6263 -1.38118 -9.517
O 13.7597 10.0937 -4.14009
H 13.6732 9.89767 -3.16332
H 13.7636 11.0835 -4.28231
O 8.14155 -10.8221 9.20583
H 8.1045 -11.7229 9.6385
H 7.26032 -10.3626 9.31664
O 5.36882 14.6478 4.37403
H 6.22701 15.0386 4.70685
H 5.40688 13.651 4.44483
O -3.26931 -7.96076 -5.24293
H -2.49214 -7.33149 -5.24721
H -3.46955 -8.23674 -4.30286
O 0.150937 -4.65251 -14.8281
H 0.0591919 -3.77306 14.8157
H 0.985244 -5.10879 14.9733
O -1.16786 1.61666 7.54933
H -1.58721 2.51689 7.43216
H -1.70361 1.0819 8.20278
O -0.0812839 2.983 -8.42574
H 0.303241 3.38534 -7.59492
H 0.431985 2.15892 -8.66541
O 2.74228 6.09279 9.5546
H 2.7459 7.08767 9.65555
H 3.63173 5.78919 9.21301
O 1.71983 -3.12251 12.001
H 2.13809 -4.01853 12.15
H 1.14133 -3.15607 11.186
O 2.74134 -5.34724 14.2923
H 3.52476 -5.09499 13.7243
H 2.23805 -6.09204 13.8542
O -7.68969 9.06513 12.1167
H -7.67861 10.0649 12.135
H -8.63361 8.74356 12.0419
O -1.6982 -11.3264 11.007
H -1.90834 -10.4531 11.4464
H -2.54529 -11.8361 10.8563
O -2.88739 1.29138 -12.1549
H -2.82555 1.89616 -12.9488
H -2.68164 0.353305 -12.4336
O -12.2001 11.4167 0.404898
H -11.982 11.2796 1.37112
H -13.1797 11.276 0.26112
O -3.88876 3.91907 3.75158
H -2.97203 4.13552 3.41582
H -4.45555 4.74258 3.72768
O 12.2957 -6.66666 3.65688
H 12.6989 -7.47625 4.08355
H 11.9254 -6.91159 2.76087
O 9.21807 -13.2326 -5.20622
H 8.89279 -13.0432 -4.27976
H 8.43859 -13.2734 -5.83131
O -1.60568 -14.2642 7.65264
H -2.47301 -13.8884 7.979
H -0.863085 -13.6339 7.87904
O -9.57218 -4.73027 -11.8364
H -9.2307 -5.37647 -12.5189
H -9.79298 -5.22123 -10.9937
O -9.55263 -0.0311414 13.6026
H -10.0171 -0.476648 14.368
H -9.55577 0.959138 13.7416
O 2.63771 -3.30651 4.66769
H 2.52116 -4.14851 4.14097
H 1.93699 -3.25896 5.37954
O -11.7046 -0.973856 5.89447
H -11.9941 -0.52943 6.74223
H -10.7703 -1.3145 5.9989
O 0.154403 -8.53426 -12.0227
H -0.140463 -7.64969 -12.3841
H -0.640281 -9.13138 -11.9136
O -8.24176 -13.1322 6.28291
H -8.75614 -12.5371 6.90041
H -8.58833 -13.0249 5.35104
O 11.4585 1.81425 12.3891
H 12.0386 1.06173 12.0773
H 10.5459 1.46538 12.6023
O 5.59021 -6.52986 -6.46812
H 5.63077 -5.56375 -6.72303
H 6.08038 -6.66839 -5.60758
O -8.23923 4.54884 -1.59825
H -9.17842 4.89156 -1.57691
H -7.76999 4.91234 -2.40304
O 13.7025 -13.7829 -8.98963
H 13.9051 -14.4055 -9.74552
H 13.1101 -13.0458 -9.3146
O 3.60512 14.3126 -11.1033
H 3.2424 14.765 -11.918
H 3.30054 14.8025 -10.2865
O 4.50861 1.96052 -11.1584
H 4.09582 2.31495 -10.3194
H 4.5196 2.67908 -11.8538
O -5.67983 2.00172 -2.59899
H -6.47469 1.75577 -2.04428
H -5.88457 1.841 -3.56451
O -4.73309 -14.0004 -1.79734
H -5.40701 -14.281 -2.48078
H -3.84604 -14.406 -2.01782
O -6.09063 -14.8158 5.89642
H -6.68873 -14.015 5.86595
H -5.64364 -14.932 5.00946
O 13.8499 -0.243716 8.50606
H 14.207 -1.158 8.31498
H 13.053 -0.0695365 7.92756
O 8.70526 11.3077 8.53325
H 9.35504 10.6198 8.2097
H 7.87492 10.855 8.85822
O 11.2604 6.77486 13.2853
H 11.1256 6.07364 12.5853
H 11.7071 7.57128 12.8777
O -8.23955 -10.8588 14.4807
H -7.49399 -11.5217 14.5493
H -8.91982 -11.1888 13.8263
O 12.9368 5.49163 1.55306
H 12.6367 4.53778 1.56326
H 13.7906 5.56693 1.03799
O -3.97217 -13.1609 0.632182
H -4.39996 -13.5386 -0.189006
H -4.47494 -12.348 0.926114
O -12.2276 10.7821 -3.65934
H -12.1092 10.4663 -4.60075
H -11.867 11.7107 -3.5715
O -7.38843 14.0306 0.190276
H -7.68087 14.8902 -0.228603
H -7.09054 14.2018 1.1294
O 11.2754 -1.03746 -0.749532
H 11.641 -0.86693 -1.66456
H 12.0256 -1.26084 -0.127196
O -0.099894 -6.52085 2.71856
H 0.769021 -6.03867 2.83028
H -0.729918 -6.24496 3.44447
O -6.85974 -8.56104 -2.04535
H -6.58659 -7.89209 -1.35405
H -6.36613 -9.41742 -1.89385
O 1.14411 6.15489 -14.3237
H 1.27849 5.98411 14.811
H 0.906763 7.11608 -14.183
O -4.90329 -11.889 -7.56221
H -4.94021 -12.7627 -7.07711
H -5.0255 -12.0465 -8.54214
O 14.8336 -14.5723 7.24733
H 14.384 14.6456 7.22286
H -14.4273 -14.6413 7.7698
O 10.8193 -2.25282 -12.4002
H 10.3458 -1.87106 -13.194
H 11.6343 -1.70755 -12.2041
O 4.00165 -3.04399 -8.19413
H 3.48298 -3.88685 -8.05072
H 3.96424 -2.78996 -9.16059
O 8.46622 6.9812 6.15201
H 8.99283 6.31025 5.62999
H 7.51018 6.95484 5.85996
O 5.21444 -7.16864 -2.86026
H 4.92343 -8.12507 -2.83667
H 4.41258 -6.57846 -2.95349
O -9.46315 13.5106 -13.1913
H -10.3802 13.4394 -13.5838
H -9.30828 12.7463 -12.5653
O 10.4145 -1.25493 -3.59994
H 11.2332 -0.680919 -3.61745
H 9.60416 -0.676905 -3.50416
O 14.7476 15.0198 1.91503
H 15.034 -14.2359 2.34713
H -14.7002 14.7633 1.21179
O 13.8382 5.69954 -1.73247
H 13.4996 4.8455 -2.12744
H 14.6088 5.50384 -1.12604
O 1.73085 11.9888 7.40188
H 1.6011 11.345 6.6478
H 1.70915 11.4937 8.2704
O -9.68348 -9.79946 9.64912
H -10.3395 -9.98676 10.3802
H -8.76929 -10.0799 9.94165
O -14.2834 5.01768 0.109399
H -13.4577 4.89631 0.660268
H -14.3374 5.96507 -0.206081
O -11.6223 10.0412 -14.7274
H -11.8838 10.5627 14.5712
H -10.8164 9.48598 -14.9329
O -8.92458 -8.39096 -7.59533
H -9.81488 -8.7998 -7.39482
H -8.79929 -7.57311 -7.03371
O 1.05022 -7.18049 6.17945
H 1.44293 -6.75829 5.36243
H 0.05577 -7.2273 6.08522
O -14.8118 -7.52917 6.6446
H -14.446 -7.53961 7.57524
H -14.2334 -6.95458 6.06556
O 5.06832 -7.57475 -9.98583
H 5.47154 -7.92585 -9.14076
H 4.27125 -8.12729 -10.2295
O -4.0514 13.4943 10.4047
H -3.09915 13.2307 10.5589
H -4.52552 12.7609 9.91746
O -10.8277 -5.68404 -9.25749
H -11.762 -6.03105 -9.33954
H -10.1967 -6.45063 -9.13874
O 6.35326 9.51895 7.2661
H 5.81191 9.15027 6.51045
H 6.6087 8.77712 7.88613
O -5.30977 -12.8275 -10.3282
H -6.15443 -12.6403 -10.8297
H -4.53126 -12.7695 -10.9532
O 13.2688 9.3291 1.38099
H 12.3982 9.23719 0.897588
H 13.471 8.47937 1.86788
O 6.08147 3.25845 7.80625
H 5.55584 2.44415 8.05249
H 6.51001 3.63896 8.62574
O -1.24956 10.5803 -8.27374
H -0.460274 9.96897 -8.33106
H -1.02018 11.4606 -8.68901
O 13.0646 -2.38092 1.24707
H 12.457 -2.23385 2.02756
H 13.6736 -3.15044 1.43916
O 7.98587 -2.08922 -10.2104
H 7.61619 -2.97368 -9.92567
H 7.32443 -1.36879 -10.0019
O 9.81541 -3.53329 -0.559898
H 10.2508 -2.65788 -0.769829
H 8.83108 -3.46327 -0.72172
O 8.09241 1.34727 -9.22496
H 8.78637 1.4726 -9.93397
H 8.51672 1.4362 -8.32382
O -14.1316 -10.6783 -0.76587
H -14.1649 -11.5222 -1.30127
H -14.9472 -10.6162 -0.1906
O -10.2837 1.94319 -14.2534
H -9.74097 1.74224 -13.4379
H -11.2533 1.8067 -14.0504
O -3.64326 -11.8445 5.42808
H -2.78581 -11.333 5.3717
H -3.64514 -12.4015 6.25858
O -8.21151 13.0593 -3.78848
H -7.5335 13.431 -3.15434
H -7.74465 12.6297 -4.56142
O -6.66855 -12.4668 -4.33225
H -7.30983 -11.6996 -4.34533
H -7.10064 -13.2694 -4.74339
O 12.4994 12.4204 -12.5292
H 11.7528 12.4118 -11.864
H 12.8527 11.4922 -12.6458
O 10.1847 3.60689 -7.76679
H 10.3601 2.73523 -7.30917
H 9.45074 4.09144 -7.29084
O 11.653 -11.9406 -6.38044
H 12.2057 -12.7711 -6.4492
H 10.7443 -12.1727 -6.03338
O 13.8521 12.9778 6.98182
H 13.0389 13.2796 7.47946
H 13.5891 12.3045 6.29071
O -8.63212 -5.19553 -2.69407
H -8.51618 -5.53189 -1.75951
H -9.46552 -5.58401 -3.08715
O 3.36753 -9.39909 -10.7275
H 3.58649 -10.3747 -10.7457
H 2.56041 -9.24927 -10.1564
O 14.3902 14.0562 -3.23167
H 14.9389 13.3405 -2.79969
H 13.8895 13.6704 -4.00653
O -0.952348 8.72421 0.313427
H -0.147324 8.30751 -0.108822
H -1.349 9.39394 -0.314359
O -10.0802 -3.17162 -7.61299
H -10.259 -4.00376 -8.13792
H -10.3931 -3.29764 -6.67162
O 14.0975 7.4406 3.55603
H 13.7231 6.52498 3.40963
H 14.1228 7.63759 4.53611
O 4.83118 -13.8033 12.9288
H 5.53443 -14.5116 12.8676
H 5.18625 -13.0249 13.4465
O 9.70496 -8.88121 12.6766
H 9.305 -8.11412 12.175
H 10.5051 -9.22154 12.1826
O -7.13335 7.12685 -1.40981
H -7.92101 6.61011 -1.07431
H -7.38953 8.08636 -1.5269
O 3.90064 -10.5449 7.81978
H 3.66229 -10.2087 6.90865
H 3.79682 -11.5392 7.84589
O 10.9414 5.21204 -14.5533
H 11.3886 5.9156 15.0052
H 11.354 4.32241 -14.749
O -4.9546 -11.1012 8.61723
H -5.47303 -11.2821 9.45299
H -5.51023 -10.5526 7.99252
O 11.606 -7.34503 -6.62536
H 11.0119 -7.60972 -7.38492
H 11.9749 -8.16575 -6.18906
O 13.4451 -2.91217 5.90013
H 12.4663 -2.7077 5.89906
H 13.8471 -2.61342 6.76567
O 13.6079 10.2346 5.62611
H 12.7035 10.1556 5.2068
H 14.3072 10.2408 4.91138
O -14.9542 3.67238 4.46548
H -14.6382 2.85484 4.9469
H -14.218 4.34857 4.43816
O 10.4922 12.481 2.02888
H 10.359 12.7141 1.06558
H 11.466 12.5277 2.25151
O -4.19411 -14.8206 3.21756
H -4.0435 -14.56 2.26395
H -3.38312 14.8209 3.5669
O -10.0567 -13.0398 -8.03604
H -9.56059 -12.2364 -7.70668
H -11.0211 -12.9629 -7.78312
O -8.22899 6.6208 10.1112
H -8.48779 6.59845 11.0769
H -8.46476 7.51191 9.72348
O -0.128102 13.649 -12.5888
H 0.686881 14.0805 -12.9756
H 0.0375949 12.67 -12.4702
O 9.66705 -0.955477 4.68122
H 9.01602 -1.66599 4.41414
H 10.2888 -1.31722 5.37585
O 13.7785 -10.4059 8.27682
H 13.1556 -11.1717 8.11697
H 13.415 -9.58359 7.839
O 0.793557 -4.42264 6.65332
H 0.0632427 -5.10433 6.6094
H 0.861939 -4.067 7.58543
O 6.98691 -10.7589 -7.12414
H 7.54105 -10.6051 -6.30605
H 7.54753 -10.6116 -7.939
O 11.0208 -12.7423 11.4003
H 11.2771 -12.0085 12.0295
H 11.0566 -12.403 10.4603
O 6.00241 10.1016 9.9579
H 5.83109 9.87284 8.99961
H 6.32673 9.28877 10.4418
O -2.3272 -0.352204 5.27293
H -3.31013 -0.178909 5.33459
H -1.8279 0.409578 5.6857
O -14.7897 12.698 -8.84678
H -14.4794 13.0675 -9.72272
H 14.4236 12.2728 -8.96349
O 9.63461 -7.79467 -10.0304
H 10.133 -7.06059 -10.4916
H 8.72863 -7.89238 -10.4423
O -2.27754 -3.43456 -14.2171
H -1.90044 -2.61836 -13.7793
H -1.54206 -3.94189 -14.6662
O -13.9249 -12.5644 15.0502
H -12.9584 -12.5354 -14.8056
H -14.4863 -12.3302 -14.2668
O 6.12057 14.9193 -14.2246
H 5.46975 -14.8382 -13.5525
H 6.93069 -14.6056 -14.244
O -3.25943 -8.85039 -2.65559
H -3.69075 -8.40268 -1.87231
H -3.74153 -9.70243 -2.85957
O -0.57864 13.0038 13.5357
H 0.330419 12.8489 13.9225
H -0.759898 13.9864 13.4934
O -2.75331 10.7248 -4.18419
H -3.25232 10.1853 -3.50603
H -3.39821 11.2834 -4.70586
O 9.56573 3.83843 6.97201
H 8.80906 4.3583 6.57558
H 10.3113 3.77638 6.30843
O -11.4033 4.19447 -1.33781
H -11.1084 5.08556 -0.992913
H -10.9468 3.46962 -0.821855
O 12.9973 -8.25263 -12.4659
H 13.4613 -7.57128 -13.0319
H 12.9432 -9.11836 -12.9634
O 4.72568 -4.2512 12.3166
H 4.97549 -3.3313 12.0144
H 5.32323 -4.92076 11.8755
O 6.94029 -14.1272 0.700829
H 7.82017 -13.8946 0.286443
H 6.67319 -15.0492 0.42058
O -2.33362 -14.7999 -14.1028
H -2.0114 -14.0215 -14.6414
H -1.55044 14.8375 -13.6996
O -13.4419 -6.70104 -13.736
H -14.2538 -6.83458 -14.3043
H -12.8643 -7.51598 -13.7832
O 7.29066 2.85596 -2.71437
H 7.69746 3.75256 -2.53936
H 6.53855 2.9527 -3.36626
O -14.1663 3.61778 -12.2924
H -13.1873 3.82081 -12.3116
H -14.6485 4.24289 -12.9062
O 6.08055 7.35854 4.82493
H 5.96965 6.58451 4.20157
H 5.52094 8.12439 4.50822
O 12.961 -3.79054 -9.29532
H 13.6399 -4.03908 -8.60445
H 12.1653 -3.38151 -8.84866
O 0.259317 -10.828 4.1514
H -0.0177581 -11.6975 3.74264
H 0.154971 -10.8783 5.14466
O 2.05571 -8.01254 13.6604
H 2.39152 -8.82699 14.1336
H 2.36549 -8.02789 12.7098
O -9.18081 11.157 14.5786
H -10.1001 11.4961 14.7782
H -8.50542 11.7368 15.0343
O -1.84325 6.9652 14.465
H -1.20313 7.69051 14.7183
H -1.92559 6.31466 -14.8908
O 10.8018 12.7757 12.3112
H 11.6275 12.5857 11.78
H 10.2184 13.4106 11.8047
O 13.1841 5.73732 -11.2008
H 12.6364 6.4591 -11.624
H 12.5873 4.98292 -10.9275
O 14.9058 -4.36237 -2.93454
H -14.9506 -3.45661 -3.27349
H 14.0682 -4.66527 -3.38919
O 6.1753 3.09167 -8.35535
H 6.74732 3.69769 -7.80259
H 6.75669 2.52837 -8.94243
O -14.0689 8.70096 -13.5638
H -14.1771 8.97544 -12.6083
H -13.2787 9.17016 -13.9579
O 12.4109 13.1001 14.6378
H 11.7114 12.8741 13.9599
H 12.1378 12.7421 -14.5801
O -6.52219 3.45301 0.432157
H -5.66149 3.08217 0.0833436
H -7.048 3.84264 -0.323954
O -1.74009 -8.30123 -9.07154
H -1.68776 -8.87065 -9.89192
H -2.34849 -8.73204 -8.40503
O -5.78708 13.0205 -7.86484
H -6.60136 12.454 -7.99167
H -5.17806 12.585 -7.20193
O 14.7474 -5.05891 -7.45844
H 14.3395 -5.22881 -6.56138
H -14.4921 -4.58181 -7.34343
O -9.93895 14.9352 3.11307
H -10.1672 14.4826 2.25111
H -8.98116 -14.8886 3.0954
O -0.190929 -13.1609 2.96918
H -0.601217 -13.3518 2.07744
H -0.303418 -13.9561 3.56497
O 14.0667 -6.53831 -14.6737
H 13.9359 -5.54693 -14.679
H 13.8938 -6.90221 14.5218
O -12.7164 4.61857 -6.04964
H -12.2952 3.72725 -6.21742
H -12.9307 4.70816 -5.077
O 3.91186 3.79734 5.80846
H 4.05273 4.76743 5.6108
H 3.24586 3.70119 6.54819
O 4.32492 -2.73796 -10.9277
H 4.75501 -3.61993 -11.1204
H 5.02603 -2.02576 -10.8929
O -1.20621 -5.09087 -8.31637
H -1.99875 -4.55173 -8.0314
H -1.51518 -5.96408 -8.69324
O 2.33966 -0.795058 -14.906
H 3.00104 -1.47544 14.8891
H 1.41509 -1.09477 14.9695
O 3.90204 13.3846 14.9665
H 4.62718 13.9096 -14.6987
H 3.32688 14.0009 14.4285
O 7.18568 -11.1899 -11.1333
H 6.40955 -11.532 -10.6037
H 6.93142 -10.3329 -11.5816
O -4.13066 11.758 -13.6305
H -4.66812 10.9867 -13.9714
H -3.56299 11.4561 -12.8646
O -4.56822 -5.14921 13.9475
H -3.73703 -4.80497 13.5109
H -4.3668 -6.00924 14.4163
O 0.729231 -2.06208 -8.00403
H 0.854806 -1.22817 -8.54145
H 1.00993 -2.85375 -8.54666
O 2.93226 -5.46399 -2.97203
H 2.17447 -5.87032 -2.46149
H 2.57121 -4.83231 -3.65805
O 6.41961 0.0335958 14.0725
H 6.36512 -0.958961 14.1814
H 6.37613 0.470358 14.971
O 5.55924 5.36796 -10.4002
H 5.5275 6.17927 -9.81649
H 5.74931 4.56161 -9.84019
O 5.34873 -12.9864 -1.98638
H 5.33749 -11.9896 -1.90804
H 5.33073 -13.2451 -2.95217
O 0.974482 4.10532 10.3035
H 1.62118 4.86109 10.2006
H 0.393799 4.26979 11.1009
O 9.57602 8.43959 14.9573
H 9.51471 7.64 14.3599
H 10.5371 8.6429 -14.9663
O 6.51557 -1.33637 8.96651
H 6.82722 -1.47262 8.02614
H 6.41948 -0.357549 9.14729
O -7.65689 2.20591 14.6047
H -7.13355 2.77079 -14.8682
H -8.56031 2.01775 14.9899
O -14.6727 -9.9428 2.94062
H -14.8725 -9.58207 2.02962
H 14.7595 -9.60103 3.59071
O 8.0678 -4.79734 -9.39324
H 8.69763 -4.6933 -10.163
H 8.58998 -4.93303 -8.55128
O -7.88083 -1.6101 -0.989181
H -8.79364 -1.38362 -1.32898
H -7.19765 -1.07686 -1.48809
O -4.08038 -8.07687 -0.354178
H -3.19973 -7.78742 0.020888
H -4.39119 -8.89955 0.121837
O -9.30017 -6.71343 -13.5817
H -10.161 -6.61913 -14.0818
H -8.60191 -7.09268 -14.1889
O -13.0966 4.03025 11.9986
H -13.4939 4.93712 11.8581
H -13.6744 3.34168 11.5604
O 7.37311 -3.8732 -13.7411
H 6.63411 -4.53546 -13.8647
H 8.15331 -4.32187 -13.3052
O 14.3793 -12.6872 -12.9561
H -15.0082 -12.957 -12.3205
H 13.5132 -13.096 -12.6685
O -7.58569 10.7163 5.3912
H -7.51187 9.84181 5.87065
H -7.40301 11.4633 6.03038
O 6.63942 11.2491 -3.74816
H 6.98746 11.2842 -2.81134
H 5.99165 11.9973 -3.89135
O 12.7936 -0.193061 11.443
H 12.0373 -0.824073 11.2701
H 13.6408 -0.580832 11.08
O 12.3399 12.8665 -5.22141
H 11.9061 12.216 -5.84479
H 11.6595 13.2148 -4.57663
O 8.85124 -1.69279 -6.107
H 9.56478 -1.88215 -5.43246
H 8.03626 -2.23003 -5.88984
O -13.3027 -3.7363 -15.0498
H -12.8766 -4.55418 -14.6632
H -14.275 -3.72487 -14.8161
O 14.3318 -3.44783 -11.7496
H 13.891 -3.39301 -10.8537
H -14.9552 -4.01068 -11.6818
O 7.31058 -10.6486 12.5681
H 7.54177 -11.497 12.092
H 8.14968 -10.1531 12.7928
O -12.9561 -3.69742 4.91358
H -12.9319 -3.46111 5.88495
H -13.7221 -3.2274 4.47518
O 8.00712 11.5307 2.54787
H 8.95343 11.8422 2.4616
H 7.92468 10.9318 3.34442
O 12.3963 -14.5783 0.576546
H 11.5933 -14.305 1.10609
H 13.1297 -14.8502 1.19962
O -5.7713 -8.67815 2.63999
H -5.66867 -9.67275 2.65556
H -6.73937 -8.44433 2.54974
O -6.4731 -1.71341 14.2255
H -6.87311 -2.31229 13.5317
H -5.80815 -2.22805 14.7668
O 4.90406 -10.5562 -13.5037
H 5.02824 -9.58177 -13.6911
H 4.60929 -10.6784 -12.556
O -1.94216 4.21147 7.94744
H -2.61873 3.81148 8.56571
H -2.11809 5.19099 7.84953
O 7.11231 -14.7233 -9.61345
H 6.16218 -14.464 -9.78676
H 7.14061 14.4687 -9.21969
O 14.4652 -12.9825 -4.95988
H 13.7944 -13.6895 -5.18366
H 14.6273 -12.4104 -5.7639
O 9.77236 7.8113 10.002
H 9.89462 8.5634 10.6496
H 10.626 7.65789 9.50433
O 2.16496 -14.8785 -13.1655
H 2.17971 -14.9428 -14.1633
H 1.75424 -14.0082 -12.8936
O -14.121 -13.0848 -2.40483
H -13.4792 -13.5124 -1.7682
H -14.7578 -13.7744 -2.74971
O -5.04424 -11.2566 -2.32887
H -4.5543 -11.9967 -1.8682
H -5.5691 -11.6299 -3.09385
O -2.49744 -1.63108 -11.8413
H -2.50026 -1.16639 -10.9558
H -2.00977 -2.50031 -11.76
O 14.6083 -5.80377 -0.238938
H 14.6832 -5.48945 -1.18529
H -14.5896 -5.8675 0.164322
O 0.60346 3.96007 -12.5839
H 0.919495 4.68243 -13.1989
H 0.787293 3.06755 -12.9957
O 5.39898 13.173 9.88905
H 6.01735 12.7883 10.5743
H 5.76196 14.0469 9.56579
O 4.03822 -8.92315 2.44907
H 3.10698 -8.55997 2.4192
H 4.16013 -9.45962 3.28413
O 4.7196 -2.22147 -4.61519
H 4.97316 -2.34722 -3.65608
H 4.16712 -2.99786 -4.91845
O 10.4802 -1.75788 -8.79849
H 9.87426 -1.83632 -8.0069
H 9.94209 -1.8276 -9.63844
O 0.843588 -13.1632 8.28052
H 1.57001 -13.3028 7.60759
H 1.21292 -13.2908 9.201
O 5.7952 -6.02522 2.65816
H 5.14964 -6.50755 2.06605
H 5.45148 -6.02693 3.59723
O -2.1456 -8.71262 11.5783
H -3.0428 -8.27556 11.5149
H -1.48889 -8.20847 11.0175
O 11.1909 -7.52989 1.28436
H 10.2012 -7.53775 1.14165
H 11.584 -6.71983 0.84929
O -12.2245 -1.52242 -8.78804
H -12.5544 -1.11922 -9.64163
H -11.3952 -2.05151 -8.96794
O 5.08353 5.907 8.17668
H 5.29983 5.01852 7.77195
H 5.87343 6.23981 8.69175
O -9.46967 9.46682 -6.16833
H -9.38323 8.71233 -5.51773
H -10.4376 9.64346 -6.34719
O -8.31937 -13.7916 -0.658054
H -8.88046 -13.7034 -1.48109
H -8.36286 -12.942 -0.132423
O -12.9019 -4.34389 7.82467
H -13.5062 -4.82996 8.45603
H -11.9529 -4.60051 8.00749
O 8.45117 -1.49879 12.5134
H 7.50083 -1.80401 12.4526
H 8.47578 -0.505015 12.622
O -11.9894 -14.9568 -1.77308
H -11.6882 14.3557 -2.29457
H -11.2111 -14.3494 -1.61426
O 13.11 -11.1099 -3.07173
H 12.989 -11.6774 -2.25726
H 13.4421 -11.6761 -3.82613
O 2.08355 5.5267 13.1913
H 2.36453 4.57224 13.2915
H 1.24337 5.57184 12.6508
O -4.33219 -10.4331 -12.8751
H -5.17558 -10.0914 -12.4605
H -4.24379 -10.0666 -13.8013
O 5.61389 3.86974 -4.6588
H 5.38927 4.82262 -4.4549
H 4.84681 3.44131 -5.13631
O -9.81123 -0.46292 -11.0739
H -8.9286 -0.158032 -11.4317
H -10.2588 -1.05099 -11.7476
O -14.0298 1.04679 -5.82083
H -14.4524 0.366201 -6.41936
H -13.3518 1.56981 -6.33733
O -6.99018 9.66924 -11.917
H -6.97881 8.76551 -11.4891
H -6.20402 10.1988 -11.5984
O -9.70287 8.19749 14.3271
H -9.24895 7.49004 13.7854
H -9.05131 8.92676 14.536
O -6.13381 6.18095 -11.059
H -5.13486 6.22026 -11.0821
H -6.42513 5.26245 -10.7916
O -9.56475 -9.29514 -10.5876
H -10.4484 -9.55412 -10.9776
H -9.65326 -9.19909 -9.59616
O -4.71225 -5.18704 -0.420727
H -4.67188 -6.14971 -0.153059
H -4.29413 -5.07388 -1.32204
O -9.75594 7.11601 4.27269
H -10.1278 6.31562 4.7429
H -10.131 7.16282 3.34689
O -4.53375 9.39145 -8.81811
H -5.47091 9.09292 -8.63754
H -4.08178 9.61191 -7.95375
O 14.7346 -12.7599 3.01025
H 14.9615 -11.8876 2.5772
H 14.9359 -12.7088 3.98844
O 13.2934 12.665 2.78162
H 14.0862 12.0987 3.0071
H 13.6018 13.5741 2.50184
O -8.09805 -1.28499 -13.7901
H -7.34693 -1.49688 -13.1649
H -7.75533 -1.26864 -14.7294
O -6.45972 5.90633 7.1683
H -7.28122 5.37252 7.36875
H -6.71809 6.75513 6.70702
O 12.9378 4.86853 -5.39928
H 12.4794 4.4369 -6.17613
H 13.4964 4.18967 -4.92268
O 9.65112 -14.7496 13.6971
H 9.17179 -14.2421 14.4131
H 10.6369 -14.6128 13.7945
O -11.4487 1.68199 -9.84781
H -12.4141 1.78008 -9.60618
H -11.3171 0.830659 -10.3556
O 0.944471 -11.597 11.8727
H 0.0843199 -11.2362 11.5122
H 0.815269 -12.548 12.1536
O -9.1335 3.28256 -5.17287
H -9.57291 3.75801 -5.93501
H -8.29132 3.76037 -4.92302
O -12.2599 -10.5085 -10.5333
H -13.0792 -9.94157 -10.6186
H -12.39 -11.3607 -11.0402
O -4.6631 6.45705 -1.2014
H -4.36618 5.85182 -1.94
H -5.64428 6.63032 -1.28654
O -11.6951 1.95718 -7.16893
H -11.4243 1.83373 -8.12361
H -11.5159 1.11518 -6.66009
O -11.9284 14.8482 -10.4889
H -12.1262 14.7689 -9.51192
H -12.4876 14.1928 -10.9965
O -2.3021 -7.52934 -14.2855
H -1.92064 -6.94927 -13.5658
H -1.68088 -7.54028 15.0418
O -10.728 10.04 5.09576
H -10.5848 9.08627 4.83135
H -9.84389 10.5006 5.17394
O 2.58578 11.0765 12.8997
H 3.3456 11.6008 12.5152
H 2.81203 10.7972 13.8329
O 1.24962 0.514364 -9.4961
H 1.45456 -0.153213 -10.2119
H 2.06797 1.05459 -9.29998
O -1.53967 10.7487 14.5256
H -2.19721 11.0178 -14.8815
H -1.19062 11.5653 14.0659
O -12.382 11.04 13.0761
H -12.2787 12.0342 13.0469
H -12.83 10.7267 12.2387
O 10.7037 -11.4689 -1.73044