Created on Wed Jul 07 11:19:36 2021

          32 atoms
          34 bonds
          56 angles
          80 dihedrals
          42 impropers

          9 atom types
         13 bond types
         25 angle types
          7 dihedral types
          2 improper types
           0.000000  20.000000 xlo xhi
           0.000000  20.000000 ylo yhi
           0.000000  20.000000 zlo zhi
           0.000000   0.000000   0.000000 xy xz yz

Masses

   1    12.010700000 # C_R
   2     1.007940000 # H_
   3    15.999400000 # O_R
   4    15.999400000 # O_3
   5    65.380000000 # Zn3+2
   6    14.006700000 # N_R
   7    12.010700000 # C_3
   8    65.380000000 # Zn_x
   9    14.006700000 # N_x

Bond Coeffs

   1      391.669513        1.458000  # C_R C_R
   2      646.680887        1.311940  # C_R O_R
   3      462.655054        1.379256  # C_R C_R
   4      357.440381        1.081418  # C_R H_
   5      160.291409        1.840266  # O_R Zn3+2
   6      166.031136        1.818811  # O_3 Zn3+2
   7      559.995206        0.990254  # O_3 H_
   8       41.823535        2.386000  # Zn3+2 Zn3+2
   9      165.837318        1.881712  # Zn3+2 N_R
   10      663.718927        1.345073  # C_R N_R
   11      529.724731        1.450075  # N_R C_3
   12      331.069389        1.109401  # C_3 H_
   13      369.943935        1.486000  # C_3 C_R

Angle Coeffs

   1              cosine/periodic      131.755710              -1               3 # C_R C_R O_R
   2              cosine/periodic      187.136328              -1               3 # O_R C_R O_R
   3              cosine/periodic      102.183280              -1               3 # C_R C_R C_R
   4              cosine/periodic      111.297508              -1               3 # C_R C_R C_R
   5              cosine/periodic       57.289016              -1               3 # C_R C_R H_
   6              cosine/periodic       60.877639              -1               3 # C_R O_R Zn3+2
   7                      fourier       64.112792        0.300235        0.267331        0.266745 # Zn3+2 O_3 H_
   8                      fourier      120.499822        0.300235        0.267331        0.266745 # H_ O_3 H_
   9                      fourier      172.607259        0.343737        0.374972        0.281246 # O_R Zn3+2 O_R
  10                      fourier      175.650062        0.343737        0.374972        0.281246 # O_R Zn3+2 O_3
  11                      fourier       62.839919        0.343737        0.374972        0.281246 # O_R Zn3+2 Zn3+2
  12                      fourier       63.625415        0.343737        0.374972        0.281246 # O_3 Zn3+2 Zn3+2
  13                      fourier      184.568655        0.343737        0.374972        0.281246 # O_R Zn3+2 N_R
  14                      fourier       67.844457        0.343737        0.374972        0.281246 # Zn3+2 Zn3+2 N_R
  15              cosine/periodic       79.786967              -1               3 # H_ C_R N_R
  16              cosine/periodic      153.699352              -1               3 # N_R C_R C_R
  17              cosine/periodic      212.442573              -1               3 # N_R C_R N_R
  18              cosine/periodic      120.000516              -1               3 # C_R N_R C_R
  19              cosine/periodic      106.782348              -1               3 # C_R N_R C_3
  20                      fourier      170.007371        0.343737        0.374972        0.281246 # N_R C_3 H_
  21                      fourier      312.548166        0.343737        0.374972        0.281246 # N_R C_3 C_R
  22                      fourier       75.498766        0.343737        0.374972        0.281246 # H_ C_3 H_
  23                      fourier      121.777217        0.343737        0.374972        0.281246 # H_ C_3 C_R
  24              cosine/periodic       99.137149              -1               3 # C_3 C_R C_R
  25              cosine/periodic       45.889625              -1               3 # Zn3+2 N_R C_R

Dihedral Coeffs

   1        1.250000              -1               2 # O_R C_R C_R C_R
   2        6.737110              -1               2 # C_R C_R O_R Zn3+2
   3        3.368555              -1               2 # C_R C_R C_R H_
   4        0.166667               1               3 # C_R N_R C_3 H_
   5        0.833333              -1               2 # N_R C_3 C_R C_R
   6        3.368555              -1               2 # H_ C_R N_R C_R
   7        6.737110              -1               2 # N_R C_R N_R C_R

Improper Coeffs

   1        2.000000        1.000000       -1.000000        0.000000               0 # C_R C_R O_R O_R
   2        2.000000        1.000000       -1.000000        0.000000               0 # H_ C_R N_R C_R

Pair Coeffs

   1        0.105000        3.430851 # C_R C_R
   2        0.044000        2.571134 # H_ H_
   3        0.060000        3.118146 # O_R O_R
   4        0.060000        3.118146 # O_3 O_3
   5        0.124000        2.461553 # Zn3+2 Zn3+2
   6        0.069000        3.260689 # N_R N_R
   7        0.105000        3.430851 # C_3 C_3
   8        0.124000        2.461553 # Zn_x Zn_x
   9        0.069000        3.260689 # N_x N_x

BondBond Coeffs #Dummy Section

   1         0.0    0.0    0.0
   2         0.0    0.0    0.0
   3         0.0    0.0    0.0
   4         0.0    0.0    0.0
   5         0.0    0.0    0.0
   6         0.0    0.0    0.0
   7         0.0    0.0    0.0
   8         0.0    0.0    0.0
   9         0.0    0.0    0.0
   10         0.0    0.0    0.0
   11         0.0    0.0    0.0
   12         0.0    0.0    0.0
   13         0.0    0.0    0.0
   14         0.0    0.0    0.0
   15         0.0    0.0    0.0
   16         0.0    0.0    0.0
   17         0.0    0.0    0.0
   18         0.0    0.0    0.0
   19         0.0    0.0    0.0
   20         0.0    0.0    0.0
   21         0.0    0.0    0.0
   22         0.0    0.0    0.0
   23         0.0    0.0    0.0
   24         0.0    0.0    0.0
   25         0.0    0.0    0.0

BondAngle Coeffs #Dummy Section

   1         0.0    0.0    0.0
   2         0.0    0.0    0.0
   3         0.0    0.0    0.0
   4         0.0    0.0    0.0
   5         0.0    0.0    0.0
   6         0.0    0.0    0.0
   7         0.0    0.0    0.0
   8         0.0    0.0    0.0
   9         0.0    0.0    0.0
   10         0.0    0.0    0.0
   11         0.0    0.0    0.0
   12         0.0    0.0    0.0
   13         0.0    0.0    0.0
   14         0.0    0.0    0.0
   15         0.0    0.0    0.0
   16         0.0    0.0    0.0
   17         0.0    0.0    0.0
   18         0.0    0.0    0.0
   19         0.0    0.0    0.0
   20         0.0    0.0    0.0
   21         0.0    0.0    0.0
   22         0.0    0.0    0.0
   23         0.0    0.0    0.0
   24         0.0    0.0    0.0
   25         0.0    0.0    0.0

MiddleBondTorsion Coeffs #Dummy Section

   1         0.0    0.0    0.0    0.0
   2         0.0    0.0    0.0    0.0
   3         0.0    0.0    0.0    0.0
   4         0.0    0.0    0.0    0.0
   5         0.0    0.0    0.0    0.0
   6         0.0    0.0    0.0    0.0
   7         0.0    0.0    0.0    0.0

EndBondTorsion Coeffs #Dummy Section

   1         0.0    0.0    0.0    0.0    0.0    0.0    0.0    0.0
   2         0.0    0.0    0.0    0.0    0.0    0.0    0.0    0.0
   3         0.0    0.0    0.0    0.0    0.0    0.0    0.0    0.0
   4         0.0    0.0    0.0    0.0    0.0    0.0    0.0    0.0
   5         0.0    0.0    0.0    0.0    0.0    0.0    0.0    0.0
   6         0.0    0.0    0.0    0.0    0.0    0.0    0.0    0.0
   7         0.0    0.0    0.0    0.0    0.0    0.0    0.0    0.0

AngleTorsion Coeffs #Dummy Section

   1          0.0    0.0    0.0    0.0    0.0    0.0  0.0  0.0
   2          0.0    0.0    0.0    0.0    0.0    0.0  0.0  0.0
   3          0.0    0.0    0.0    0.0    0.0    0.0  0.0  0.0
   4          0.0    0.0    0.0    0.0    0.0    0.0  0.0  0.0
   5          0.0    0.0    0.0    0.0    0.0    0.0  0.0  0.0
   6          0.0    0.0    0.0    0.0    0.0    0.0  0.0  0.0
   7          0.0    0.0    0.0    0.0    0.0    0.0  0.0  0.0

AngleAngleTorsion Coeffs #Dummy Section

   1         0.0    0.0    0.0
   2         0.0    0.0    0.0
   3         0.0    0.0    0.0
   4         0.0    0.0    0.0
   5         0.0    0.0    0.0
   6         0.0    0.0    0.0
   7         0.0    0.0    0.0

BondBond13 Coeffs #Dummy Section

   1         0.0    0.0    0.0
   2         0.0    0.0    0.0
   3         0.0    0.0    0.0
   4         0.0    0.0    0.0
   5         0.0    0.0    0.0
   6         0.0    0.0    0.0
   7         0.0    0.0    0.0

AngleAngle Coeffs #Dummy Section

   1          0.0    0.0    0.0  0.0  0.0  0.0
   2          0.0    0.0    0.0  0.0  0.0  0.0


Atoms

       1      444        1     0.00000    7.67220    7.24420    6.33120
       2      444        2     0.00000    8.71220    7.30420    6.05120
       3      444        1     0.00000    5.87220    6.99420    7.48120
       4      444        6     0.00000    7.21220    7.10420    7.58120
       5      444        7     0.00000    8.00220    6.93420    8.79120
       6      444        2     0.00000    7.31220    6.73420    9.64120
       7      444        2     0.00000    8.65220    6.04420    8.67120
       8      444        1     0.00000    8.81220    8.13420    9.08120
       9      444        1     0.00000   10.18220    8.02420    9.24120
      10      444        1     0.00000    8.21220    9.36420    9.28120
      11      444        1     0.00000   10.93220    9.13420    9.58120
      12      444        2     0.00000   10.67220    7.07420    9.11120
      13      444        1     0.00000    8.96220   10.46420    9.62120
      14      444        2     0.00000    7.14220    9.45420    9.18120
      15      444        1     0.00000   10.33220   10.35420    9.78120
      16      444        2     0.00000   12.01220    9.03420    9.68120
      17      444        2     0.00000    8.47220   11.42420    9.75120
      18      444        7     0.00000   11.14220   11.56420   10.07120
      19      444        2     0.00000   11.83220   11.75420    9.23120
      20      444        2     0.00000   10.49220   12.44420   10.19120
      21      444        6     0.00000   11.92220   11.39420   11.28120
      22      444        1     0.00000   13.26220   11.46420   11.39120
      23      444        9     0.00000   13.67220   11.37420   12.67120
      24      444        1     0.00000   12.54220   11.24420   13.39120
      25      444        2     0.00000   12.52220   11.15420   14.47120
      26      444        1     0.00000   11.46220   11.26420   12.54120
      27      444        2     0.00000   10.41220   11.23420   12.82120
      28      444        9     0.00000    5.46220    7.09420    6.21120
      29      444        1     0.00000    6.58220    7.24420    5.48120
      30      444        2     0.00000    6.60220    7.35420    4.40120
      31      444        2     0.00000    5.21220    6.82420    8.32120
      32      444        2     0.00000   13.93220   11.61420   10.55120

Bonds

       1        4        1        2
       2        10        1        4
       3        3        1       29
       4        10        3        4
       5        10        3       28
       6        4        3       31
       7        11        4        5
       8        12        5        6
       9        12        5        7
      10        13        5        8
      11        3        8        9
      12        3        8       10
      13        3        9       11
      14        4        9       12
      15        3       10       13
      16        4       10       14
      17        3       11       15
      18        4       11       16
      19        3       13       15
      20        4       13       17
      21        13       15       18
      22        12       18       19
      23        12       18       20
      24        11       18       21
      25        10       21       22
      26        10       21       26
      27        10       22       23
      28        4       22       32
      29        10       23       24
      30        4       24       25
      31        3       24       26
      32        4       26       27
      33        10       28       29
      34        4       29       30

Angles

       1        15        2        1        4
       2        5        2        1       29
       3        16        4        1       29
       4        17        4        3       28
       5        15        4        3       31
       6        15       28        3       31
       7        18        1        4        3
       8        19        1        4        5
       9        19        3        4        5
      10        20        4        5        6
      11        20        4        5        7
      12        21        4        5        8
      13        22        6        5        7
      14       23        6        5        8
      15       23        7        5        8
      16       24        5        8        9
      17       24        5        8       10
      18       4        9        8       10
      19       4        8        9       11
      20        5        8        9       12
      21        5       11        9       12
      22       4        8       10       13
      23        5        8       10       14
      24        5       13       10       14
      25       4        9       11       15
      26        5        9       11       16
      27        5       15       11       16
      28       4       10       13       15
      29        5       10       13       17
      30        5       15       13       17
      31       4       11       15       13
      32       24       11       15       18
      33       24       13       15       18
      34       23       15       18       19
      35       23       15       18       20
      36       21       15       18       21
      37        22       19       18       20
      38        20       19       18       21
      39        20       20       18       21
      40        19       18       21       22
      41        19       18       21       26
      42        18       22       21       26
      43        17       21       22       23
      44        15       21       22       32
      45        15       23       22       32
      46        18       22       23       24
      47        15       23       24       25
      48        16       23       24       26
      49        5       25       24       26
      50        16       21       26       24
      51        15       21       26       27
      52        5       24       26       27
      53        18        3       28       29
      54        16        1       29       28
      55        5        1       29       30
      56        15       28       29       30

Dihedrals

       1        6        2        1        4        3
       2        6        2        1        4        5
       3        6       29        1        4        3
       4        6       29        1        4        5
       5        6        2        1       29       28
       6        6        2        1       29       30
       7        6        4        1       29       28
       8        6        4        1       29       30
       9        6       28        3        4        1
      10        6       28        3        4        5
      11        6       31        3        4        1
      12        6       31        3        4        5
      13        7        4        3       28       29
      14        7       31        3       28       29
      15        4        1        4        5        6
      16        4        1        4        5        7
      17        4        1        4        5        8
      18        4        3        4        5        6
      19        4        3        4        5        7
      20        4        3        4        5        8
      21        5        4        5        8        9
      22        5        4        5        8       10
      23        5        6        5        8        9
      24        5        6        5        8       10
      25        5        7        5        8        9
      26        5        7        5        8       10
      27        6        5        8        9       11
      28        6        5        8        9       12
      29        6       10        8        9       11
      30        6       10        8        9       12
      31        6        5        8       10       13
      32        6        5        8       10       14
      33        6        9        8       10       13
      34        6        9        8       10       14
      35        6        8        9       11       15
      36        6        8        9       11       16
      37        6       12        9       11       15
      38        6       12        9       11       16
      39        6        8       10       13       15
      40        6        8       10       13       17
      41        6       14       10       13       15
      42        6       14       10       13       17
      43        6        9       11       15       13
      44        6        9       11       15       18
      45        6       16       11       15       13
      46        6       16       11       15       18
      47        6       10       13       15       11
      48        6       10       13       15       18
      49        6       17       13       15       11
      50        6       17       13       15       18
      51        4       11       15       18       19
      52        4       11       15       18       20
      53        4       11       15       18       21
      54        4       13       15       18       19
      55        4       13       15       18       20
      56        4       13       15       18       21
      57        5       15       18       21       22
      58        5       15       18       21       26
      59        5       19       18       21       22
      60        5       19       18       21       26
      61        5       20       18       21       22
      62        5       20       18       21       26
      63        6       18       21       22       23
      64        6       18       21       22       32
      65        6       26       21       22       23
      66        6       26       21       22       32
      67        6       18       21       26       24
      68        6       18       21       26       27
      69        6       22       21       26       24
      70        6       22       21       26       27
      71        7       21       22       23       24
      72        7       32       22       23       24
      73        7       22       23       24       25
      74        7       22       23       24       26
      75        6       23       24       26       21
      76        6       23       24       26       27
      77        6       25       24       26       21
      78        6       25       24       26       27
      79        7        3       28       29        1
      80        7        3       28       29       30

Impropers

       1        2        1        2        4       29
       2        2        1        4        2       29
       3        2        1       29        2        4
       4        2        3        4       28       31
       5        2        3       28        4       31
       6        2        3       31        4       28
       7        2        4        1        3        5
       8        2        4        3        1        5
       9        2        4        5        1        3
      10        2        8        5        9       10
      11        2        8        9        5       10
      12        2        8       10        5        9
      13        2        9        8       11       12
      14        2        9       11        8       12
      15        2        9       12        8       11
      16        2       10        8       13       14
      17        2       10       13        8       14
      18        2       10       14        8       13
      19        2       11        9       15       16
      20        2       11       15        9       16
      21        2       11       16        9       15
      22        2       13       10       15       17
      23        2       13       15       10       17
      24        2       13       17       10       15
      25        2       15       11       13       18
      26        2       15       13       11       18
      27        2       15       18       11       13
      28        2       21       18       22       26
      29        2       21       22       18       26
      30        2       21       26       18       22
      31        2       22       21       23       32
      32        2       22       23       21       32
      33        2       22       32       21       23
      34        2       24       23       25       26
      35        2       24       25       23       26
      36        2       24       26       23       25
      37        2       26       21       24       27
      38        2       26       24       21       27
      39        2       26       27       21       24
      40        2       29        1       28       30
      41        2       29       28        1       30
      42        2       29       30        1       28
