metadise-generated
  
      8122 atoms
         4 atom types
  
 0.0         46.6143289020 xlo xhi
 0.0         46.6143289020 ylo yhi
 0.0         46.6143289020 zlo zhi
  
Masses
  
         1   87.62000
         2  138.91000
         3   47.88000
         4   16.00000
  
Atoms
  
         1         1         1        1.2000000000      -22.5302589693      -22.5302589693        4.6614328902
         2         1         1        1.2000000000      -22.5302589693      -18.6457315608      -18.6457315608
         3         1         1        1.2000000000      -22.5302589693      -18.6457315608       12.4304877072
         4         1         1        1.2000000000      -22.5302589693      -14.7612041523        4.6614328902
         5         1         1        1.2000000000      -22.5302589693      -14.7612041523       12.4304877072
         6         1         1        1.2000000000      -22.5302589693      -10.8766767438       12.4304877072
         7         1         1        1.2000000000      -22.5302589693       -3.1076219268      -18.6457315608
         8         1         1        1.2000000000      -22.5302589693       -3.1076219268        4.6614328902
         9         1         1        1.2000000000      -22.5302589693        0.7769054817       -3.1076219268
        10         1         1        1.2000000000      -22.5302589693        8.5459602987      -10.8766767438
        11         1         1        1.2000000000      -22.5302589693        8.5459602987       -3.1076219268
        12         1         1        1.2000000000      -22.5302589693        8.5459602987       20.1995425242
        13         1         1        1.2000000000      -18.6457315608      -18.6457315608      -10.8766767438
        14         1         1        1.2000000000      -18.6457315608      -18.6457315608       -3.1076219268
        15         1         1        1.2000000000      -18.6457315608      -10.8766767438      -10.8766767438
        16         1         1        1.2000000000      -18.6457315608       -6.9921493353        4.6614328902
        17         1         1        1.2000000000      -18.6457315608       -6.9921493353       12.4304877072
        18         1         1        1.2000000000      -18.6457315608        0.7769054817      -18.6457315608
        19         1         1        1.2000000000      -18.6457315608        0.7769054817        4.6614328902
        20         1         1        1.2000000000      -18.6457315608        4.6614328902      -18.6457315608
        21         1         1        1.2000000000      -18.6457315608        8.5459602987      -18.6457315608
        22         1         1        1.2000000000      -18.6457315608        8.5459602987        4.6614328902
        23         1         1        1.2000000000      -18.6457315608        8.5459602987       12.4304877072
        24         1         1        1.2000000000      -18.6457315608       12.4304877072      -10.8766767438
        25         1         1        1.2000000000      -18.6457315608       12.4304877072        4.6614328902
        26         1         1        1.2000000000      -18.6457315608       16.3150151157      -18.6457315608
        27         1         1        1.2000000000      -18.6457315608       16.3150151157      -10.8766767438
        28         1         1        1.2000000000      -18.6457315608       16.3150151157       -3.1076219268
        29         1         1        1.2000000000      -18.6457315608       16.3150151157       20.1995425242
        30         1         1        1.2000000000      -18.6457315608       20.1995425242      -10.8766767438
        31         1         1        1.2000000000      -18.6457315608       20.1995425242       12.4304877072
        32         1         1        1.2000000000      -14.7612041523      -22.5302589693      -18.6457315608
        33         1         1        1.2000000000      -14.7612041523      -18.6457315608      -10.8766767438
        34         1         1        1.2000000000      -14.7612041523      -14.7612041523       -3.1076219268
        35         1         1        1.2000000000      -14.7612041523      -10.8766767438        4.6614328902
        36         1         1        1.2000000000      -14.7612041523      -10.8766767438       20.1995425242
        37         1         1        1.2000000000      -14.7612041523       -6.9921493353      -18.6457315608
        38         1         1        1.2000000000      -14.7612041523       -6.9921493353       20.1995425242
        39         1         1        1.2000000000      -14.7612041523       -3.1076219268      -18.6457315608
        40         1         1        1.2000000000      -14.7612041523        0.7769054817       12.4304877072
        41         1         1        1.2000000000      -14.7612041523        4.6614328902       20.1995425242
        42         1         1        1.2000000000      -14.7612041523        8.5459602987      -18.6457315608
        43         1         1        1.2000000000      -14.7612041523       16.3150151157      -10.8766767438
        44         1         1        1.2000000000      -14.7612041523       16.3150151157       20.1995425242
        45         1         1        1.2000000000      -14.7612041523       20.1995425242       12.4304877072
        46         1         1        1.2000000000      -10.8766767438      -22.5302589693       -3.1076219268
        47         1         1        1.2000000000      -10.8766767438      -22.5302589693        4.6614328902
        48         1         1        1.2000000000      -10.8766767438      -14.7612041523      -18.6457315608
        49         1         1        1.2000000000      -10.8766767438       -3.1076219268       -3.1076219268
        50         1         1        1.2000000000      -10.8766767438       -3.1076219268       12.4304877072
        51         1         1        1.2000000000      -10.8766767438        0.7769054817       -3.1076219268
        52         1         1        1.2000000000      -10.8766767438        0.7769054817        4.6614328902
        53         1         1        1.2000000000      -10.8766767438        0.7769054817       20.1995425242
        54         1         1        1.2000000000      -10.8766767438        4.6614328902      -18.6457315608
        55         1         1        1.2000000000      -10.8766767438        4.6614328902       20.1995425242
        56         1         1        1.2000000000      -10.8766767438        8.5459602987       12.4304877072
        57         1         1        1.2000000000      -10.8766767438       16.3150151157      -10.8766767438
        58         1         1        1.2000000000      -10.8766767438       16.3150151157       -3.1076219268
        59         1         1        1.2000000000      -10.8766767438       16.3150151157        4.6614328902
        60         1         1        1.2000000000       -6.9921493353      -22.5302589693      -18.6457315608
        61         1         1        1.2000000000       -6.9921493353      -22.5302589693       12.4304877072
        62         1         1        1.2000000000       -6.9921493353      -18.6457315608        4.6614328902
        63         1         1        1.2000000000       -6.9921493353      -14.7612041523      -18.6457315608
        64         1         1        1.2000000000       -6.9921493353      -14.7612041523       20.1995425242
        65         1         1        1.2000000000       -6.9921493353      -10.8766767438      -18.6457315608
        66         1         1        1.2000000000       -6.9921493353      -10.8766767438        4.6614328902
        67         1         1        1.2000000000       -6.9921493353       -6.9921493353       20.1995425242
        68         1         1        1.2000000000       -6.9921493353       -3.1076219268       12.4304877072
        69         1         1        1.2000000000       -6.9921493353        0.7769054817        4.6614328902
        70         1         1        1.2000000000       -6.9921493353        4.6614328902      -18.6457315608
        71         1         1        1.2000000000       -6.9921493353        4.6614328902      -10.8766767438
        72         1         1        1.2000000000       -6.9921493353        8.5459602987      -18.6457315608
        73         1         1        1.2000000000       -6.9921493353        8.5459602987        4.6614328902
        74         1         1        1.2000000000       -6.9921493353       16.3150151157       -3.1076219268
        75         1         1        1.2000000000       -3.1076219268      -22.5302589693        4.6614328902
        76         1         1        1.2000000000       -3.1076219268      -22.5302589693       12.4304877072
        77         1         1        1.2000000000       -3.1076219268      -14.7612041523       20.1995425242
        78         1         1        1.2000000000       -3.1076219268       -6.9921493353       12.4304877072
        79         1         1        1.2000000000       -3.1076219268       -3.1076219268       -3.1076219268
        80         1         1        1.2000000000       -3.1076219268        0.7769054817        4.6614328902
        81         1         1        1.2000000000       -3.1076219268        0.7769054817       20.1995425242
        82         1         1        1.2000000000       -3.1076219268       12.4304877072       12.4304877072
        83         1         1        1.2000000000       -3.1076219268       16.3150151157      -10.8766767438
        84         1         1        1.2000000000       -3.1076219268       20.1995425242       12.4304877072
        85         1         1        1.2000000000       -3.1076219268       20.1995425242       20.1995425242
        86         1         1        1.2000000000        0.7769054817      -22.5302589693      -10.8766767438
        87         1         1        1.2000000000        0.7769054817      -22.5302589693       20.1995425242
        88         1         1        1.2000000000        0.7769054817      -18.6457315608       -3.1076219268
        89         1         1        1.2000000000        0.7769054817      -18.6457315608       20.1995425242
        90         1         1        1.2000000000        0.7769054817      -14.7612041523      -10.8766767438
        91         1         1        1.2000000000        0.7769054817      -14.7612041523       -3.1076219268
        92         1         1        1.2000000000        0.7769054817      -10.8766767438      -18.6457315608
        93         1         1        1.2000000000        0.7769054817      -10.8766767438      -10.8766767438
        94         1         1        1.2000000000        0.7769054817       -6.9921493353        4.6614328902
        95         1         1        1.2000000000        0.7769054817        0.7769054817      -10.8766767438
        96         1         1        1.2000000000        0.7769054817        0.7769054817        4.6614328902
        97         1         1        1.2000000000        0.7769054817        4.6614328902      -10.8766767438
        98         1         1        1.2000000000        0.7769054817        4.6614328902        4.6614328902
        99         1         1        1.2000000000        0.7769054817        8.5459602987       -3.1076219268
       100         1         1        1.2000000000        0.7769054817        8.5459602987        4.6614328902
       101         1         1        1.2000000000        0.7769054817        8.5459602987       12.4304877072
       102         1         1        1.2000000000        0.7769054817       12.4304877072      -10.8766767438
       103         1         1        1.2000000000        0.7769054817       12.4304877072       -3.1076219268
       104         1         1        1.2000000000        4.6614328902      -18.6457315608      -18.6457315608
       105         1         1        1.2000000000        4.6614328902      -18.6457315608      -10.8766767438
       106         1         1        1.2000000000        4.6614328902      -14.7612041523       -3.1076219268
       107         1         1        1.2000000000        4.6614328902      -10.8766767438       20.1995425242
       108         1         1        1.2000000000        4.6614328902       -6.9921493353      -10.8766767438
       109         1         1        1.2000000000        4.6614328902       -6.9921493353       -3.1076219268
       110         1         1        1.2000000000        4.6614328902       -3.1076219268      -18.6457315608
       111         1         1        1.2000000000        4.6614328902       -3.1076219268       -3.1076219268
       112         1         1        1.2000000000        4.6614328902       -3.1076219268       20.1995425242
       113         1         1        1.2000000000        4.6614328902        0.7769054817      -18.6457315608
       114         1         1        1.2000000000        4.6614328902        4.6614328902        4.6614328902
       115         1         1        1.2000000000        4.6614328902        8.5459602987      -10.8766767438
       116         1         1        1.2000000000        4.6614328902        8.5459602987        4.6614328902
       117         1         1        1.2000000000        4.6614328902       16.3150151157       12.4304877072
       118         1         1        1.2000000000        4.6614328902       16.3150151157       20.1995425242
       119         1         1        1.2000000000        8.5459602987      -22.5302589693      -18.6457315608
       120         1         1        1.2000000000        8.5459602987      -22.5302589693      -10.8766767438
       121         1         1        1.2000000000        8.5459602987      -22.5302589693       20.1995425242
       122         1         1        1.2000000000        8.5459602987      -18.6457315608       -3.1076219268
       123         1         1        1.2000000000        8.5459602987      -18.6457315608       12.4304877072
       124         1         1        1.2000000000        8.5459602987      -14.7612041523      -18.6457315608
       125         1         1        1.2000000000        8.5459602987      -10.8766767438       20.1995425242
       126         1         1        1.2000000000        8.5459602987       -6.9921493353      -10.8766767438
       127         1         1        1.2000000000        8.5459602987       -3.1076219268       20.1995425242
       128         1         1        1.2000000000        8.5459602987        0.7769054817       20.1995425242
       129         1         1        1.2000000000        8.5459602987       12.4304877072      -18.6457315608
       130         1         1        1.2000000000        8.5459602987       20.1995425242       12.4304877072
       131         1         1        1.2000000000       12.4304877072      -22.5302589693      -10.8766767438
       132         1         1        1.2000000000       12.4304877072      -22.5302589693        4.6614328902
       133         1         1        1.2000000000       12.4304877072      -18.6457315608       12.4304877072
       134         1         1        1.2000000000       12.4304877072      -14.7612041523      -10.8766767438
       135         1         1        1.2000000000       12.4304877072      -14.7612041523        4.6614328902
       136         1         1        1.2000000000       12.4304877072      -14.7612041523       20.1995425242
       137         1         1        1.2000000000       12.4304877072      -10.8766767438      -10.8766767438
       138         1         1        1.2000000000       12.4304877072      -10.8766767438       20.1995425242
       139         1         1        1.2000000000       12.4304877072       -6.9921493353      -10.8766767438
       140         1         1        1.2000000000       12.4304877072       -3.1076219268      -18.6457315608
       141         1         1        1.2000000000       12.4304877072       -3.1076219268        4.6614328902
       142         1         1        1.2000000000       12.4304877072       -3.1076219268       20.1995425242
       143         1         1        1.2000000000       12.4304877072        0.7769054817      -10.8766767438
       144         1         1        1.2000000000       12.4304877072        8.5459602987       12.4304877072
       145         1         1        1.2000000000       12.4304877072       12.4304877072      -18.6457315608
       146         1         1        1.2000000000       12.4304877072       12.4304877072      -10.8766767438
       147         1         1        1.2000000000       12.4304877072       12.4304877072       12.4304877072
       148         1         1        1.2000000000       12.4304877072       16.3150151157       -3.1076219268
       149         1         1        1.2000000000       12.4304877072       16.3150151157       12.4304877072
       150         1         1        1.2000000000       12.4304877072       20.1995425242       -3.1076219268
       151         1         1        1.2000000000       12.4304877072       20.1995425242        4.6614328902
       152         1         1        1.2000000000       16.3150151157      -22.5302589693       20.1995425242
       153         1         1        1.2000000000       16.3150151157      -14.7612041523      -18.6457315608
       154         1         1        1.2000000000       16.3150151157      -10.8766767438      -18.6457315608
       155         1         1        1.2000000000       16.3150151157      -10.8766767438      -10.8766767438
       156         1         1        1.2000000000       16.3150151157      -10.8766767438       20.1995425242
       157         1         1        1.2000000000       16.3150151157       -3.1076219268      -10.8766767438
       158         1         1        1.2000000000       16.3150151157        0.7769054817       -3.1076219268
       159         1         1        1.2000000000       16.3150151157        8.5459602987      -18.6457315608
       160         1         1        1.2000000000       16.3150151157        8.5459602987       20.1995425242
       161         1         1        1.2000000000       16.3150151157       12.4304877072       12.4304877072
       162         1         1        1.2000000000       16.3150151157       16.3150151157      -18.6457315608
       163         1         1        1.2000000000       16.3150151157       16.3150151157       -3.1076219268
       164         1         1        1.2000000000       20.1995425242      -18.6457315608      -10.8766767438
       165         1         1        1.2000000000       20.1995425242      -18.6457315608        4.6614328902
       166         1         1        1.2000000000       20.1995425242      -14.7612041523       20.1995425242
       167         1         1        1.2000000000       20.1995425242       -3.1076219268      -18.6457315608
       168         1         1        1.2000000000       20.1995425242        8.5459602987       12.4304877072
       169         1         1        1.2000000000       20.1995425242       12.4304877072      -10.8766767438
       170         1         1        1.2000000000       20.1995425242       12.4304877072       12.4304877072
       171         1         1        1.2000000000       20.1995425242       16.3150151157      -18.6457315608
       172         1         1        1.2000000000       20.1995425242       16.3150151157       20.1995425242
       173         1         1        1.2000000000       20.1995425242       20.1995425242        4.6614328902
       174         1         1        1.2000000000       20.1995425242       20.1995425242       20.1995425242
       175         1         3        2.4000000000       -5.0498856310      -20.5879952650      -20.5879952650
       176         1         3        2.4000000000      -16.7034678565       -5.0498856310      -20.5879952650
       177         1         3        2.4000000000       -5.0498856310      -20.5879952650      -16.7034678565
       178         1         3        2.4000000000       -5.0498856310      -20.5879952650      -12.8189404480
       179         1         3        2.4000000000      -20.5879952650       -1.1653582225       -5.0498856310
       180         1         3        2.4000000000       -5.0498856310      -20.5879952650       -8.9344130395
       181         1         3        2.4000000000       -5.0498856310      -20.5879952650       -5.0498856310
       182         1         3        2.4000000000      -16.7034678565       -5.0498856310      -16.7034678565
       183         1         3        2.4000000000       -5.0498856310      -20.5879952650       -1.1653582225
       184         1         3        2.4000000000       -5.0498856310      -20.5879952650        2.7191691860
       185         1         3        2.4000000000      -16.7034678565       -5.0498856310      -12.8189404480
       186         1         3        2.4000000000       -5.0498856310      -20.5879952650        6.6036965945
       187         1         3        2.4000000000       -5.0498856310      -20.5879952650       10.4882240030
       188         1         3        2.4000000000      -20.5879952650      -16.7034678565       14.3727514115
       189         1         3        2.4000000000       -5.0498856310      -20.5879952650       14.3727514115
       190         1         3        2.4000000000       -5.0498856310      -20.5879952650       18.2572788200
       191         1         3        2.4000000000      -16.7034678565       -5.0498856310       -8.9344130395
       192         1         3        2.4000000000       -5.0498856310      -20.5879952650       22.1418062285
       193         1         3        2.4000000000       -5.0498856310      -16.7034678565      -20.5879952650
       194         1         3        2.4000000000      -16.7034678565       -5.0498856310       -5.0498856310
       195         1         3        2.4000000000       -5.0498856310      -16.7034678565      -16.7034678565
       196         1         3        2.4000000000       -5.0498856310      -16.7034678565      -12.8189404480
       197         1         3        2.4000000000      -20.5879952650       -1.1653582225       -1.1653582225
       198         1         3        2.4000000000       -5.0498856310      -16.7034678565       -8.9344130395
       199         1         3        2.4000000000       -5.0498856310      -16.7034678565       -5.0498856310
       200         1         3        2.4000000000      -16.7034678565       -5.0498856310       -1.1653582225
       201         1         3        2.4000000000       -5.0498856310      -16.7034678565       -1.1653582225
       202         1         3        2.4000000000       -5.0498856310      -16.7034678565        2.7191691860
       203         1         3        2.4000000000      -16.7034678565       -5.0498856310        2.7191691860
       204         1         3        2.4000000000       -5.0498856310      -16.7034678565        6.6036965945
       205         1         3        2.4000000000       -5.0498856310      -16.7034678565       10.4882240030
       206         1         3        2.4000000000      -20.5879952650       -1.1653582225        2.7191691860
       207         1         3        2.4000000000       -5.0498856310      -16.7034678565       14.3727514115
       208         1         3        2.4000000000       -5.0498856310      -16.7034678565       18.2572788200
       209         1         3        2.4000000000      -16.7034678565       -5.0498856310        6.6036965945
       210         1         3        2.4000000000       -5.0498856310      -16.7034678565       22.1418062285
       211         1         3        2.4000000000       -5.0498856310      -12.8189404480      -20.5879952650
       212         1         3        2.4000000000      -16.7034678565       -5.0498856310       10.4882240030
       213         1         3        2.4000000000       -5.0498856310      -12.8189404480      -16.7034678565
       214         1         3        2.4000000000       -5.0498856310      -12.8189404480      -12.8189404480
       215         1         3        2.4000000000      -20.5879952650      -16.7034678565       18.2572788200
       216         1         3        2.4000000000       -5.0498856310      -12.8189404480       -8.9344130395
       217         1         3        2.4000000000       -5.0498856310      -12.8189404480       -5.0498856310
       218         1         3        2.4000000000      -16.7034678565       -5.0498856310       14.3727514115
       219         1         3        2.4000000000       -5.0498856310      -12.8189404480       -1.1653582225
       220         1         3        2.4000000000       -5.0498856310      -12.8189404480        2.7191691860
       221         1         3        2.4000000000      -16.7034678565       -5.0498856310       18.2572788200
       222         1         3        2.4000000000       -5.0498856310      -12.8189404480        6.6036965945
       223         1         3        2.4000000000       -5.0498856310      -12.8189404480       10.4882240030
       224         1         3        2.4000000000      -20.5879952650       -1.1653582225        6.6036965945
       225         1         3        2.4000000000       -5.0498856310      -12.8189404480       14.3727514115
       226         1         3        2.4000000000       -5.0498856310      -12.8189404480       18.2572788200
       227         1         3        2.4000000000      -16.7034678565       -5.0498856310       22.1418062285
       228         1         3        2.4000000000       -5.0498856310      -12.8189404480       22.1418062285
       229         1         3        2.4000000000       -5.0498856310       -8.9344130395      -20.5879952650
       230         1         3        2.4000000000      -16.7034678565       -1.1653582225      -20.5879952650
       231         1         3        2.4000000000       -5.0498856310       -8.9344130395      -16.7034678565
       232         1         3        2.4000000000       -5.0498856310       -8.9344130395      -12.8189404480
       233         1         3        2.4000000000      -20.5879952650       -1.1653582225       10.4882240030
       234         1         3        2.4000000000       -5.0498856310       -8.9344130395       -8.9344130395
       235         1         3        2.4000000000       -5.0498856310       -8.9344130395       -5.0498856310
       236         1         3        2.4000000000      -16.7034678565       -1.1653582225      -16.7034678565
       237         1         3        2.4000000000       -5.0498856310       -8.9344130395       -1.1653582225
       238         1         3        2.4000000000       -5.0498856310       -8.9344130395        2.7191691860
       239         1         3        2.4000000000      -16.7034678565       -1.1653582225      -12.8189404480
       240         1         3        2.4000000000       -5.0498856310       -8.9344130395        6.6036965945
       241         1         3        2.4000000000       -5.0498856310       -8.9344130395       10.4882240030
       242         1         3        2.4000000000      -20.5879952650      -20.5879952650        6.6036965945
       243         1         3        2.4000000000       -5.0498856310       -8.9344130395       14.3727514115
       244         1         3        2.4000000000       -5.0498856310       -8.9344130395       18.2572788200
       245         1         3        2.4000000000      -16.7034678565       -1.1653582225       -8.9344130395
       246         1         3        2.4000000000       -5.0498856310       -8.9344130395       22.1418062285
       247         1         3        2.4000000000       -5.0498856310       -5.0498856310      -20.5879952650
       248         1         3        2.4000000000      -16.7034678565       -1.1653582225       -5.0498856310
       249         1         3        2.4000000000       -5.0498856310       -5.0498856310      -16.7034678565
       250         1         3        2.4000000000       -5.0498856310       -5.0498856310      -12.8189404480
       251         1         3        2.4000000000      -20.5879952650       -1.1653582225       14.3727514115
       252         1         3        2.4000000000       -5.0498856310       -5.0498856310       -8.9344130395
       253         1         3        2.4000000000       -5.0498856310       -5.0498856310       -5.0498856310
       254         1         3        2.4000000000      -16.7034678565       -1.1653582225       -1.1653582225
       255         1         3        2.4000000000       -5.0498856310       -5.0498856310       -1.1653582225
       256         1         3        2.4000000000       -5.0498856310       -5.0498856310        2.7191691860
       257         1         3        2.4000000000      -16.7034678565       -1.1653582225        2.7191691860
       258         1         3        2.4000000000       -5.0498856310       -5.0498856310        6.6036965945
       259         1         3        2.4000000000       -5.0498856310       -5.0498856310       10.4882240030
       260         1         3        2.4000000000      -20.5879952650       -1.1653582225       18.2572788200
       261         1         3        2.4000000000       -5.0498856310       -5.0498856310       14.3727514115
       262         1         3        2.4000000000       -5.0498856310       -5.0498856310       18.2572788200
       263         1         3        2.4000000000      -16.7034678565       -1.1653582225        6.6036965945
       264         1         3        2.4000000000       -5.0498856310       -5.0498856310       22.1418062285
       265         1         3        2.4000000000       -5.0498856310       -1.1653582225      -20.5879952650
       266         1         3        2.4000000000      -16.7034678565       -1.1653582225       10.4882240030
       267         1         3        2.4000000000       -5.0498856310       -1.1653582225      -16.7034678565