LAMMPS data file via write_data, version 15 May 2015, timestep = 590000

4560 atoms
7 atom types
5040 bonds
3 bond types
7200 angles
2 angle types
10560 dihedrals
3 dihedral types
2400 impropers
1 improper types

-1.0763502675555259e-01 4.1387635026745990e+01 xlo xhi
-4.0433884491974936e-02 3.5938433884472119e+01 ylo yhi
-3.5711112484589691e-01 2.9555111124838550e+01 zlo zhi
-6.7234083837551181e-02 -1.7036217651000683e+01 -4.1707816797290791e-02 xy xz yz

Masses

1 12.0107
2 1.008
3 12.0107
4 12.0107
5 12.0107
6 12.0107
7 12.0107

Pair Coeffs # lj/cut/coul/long

1 0.06958 3.55
2 0.02982 2.42
3 0.06958 3.55
4 0.06958 3.55
5 0.06958 3.55
6 0 0
7 0.06958 3.55

Bond Coeffs # harmonic

1 469 1.4
2 367 1.08
3 469 0.7

Angle Coeffs # harmonic

1 35 120
2 63 120

Dihedral Coeffs # opls

1 0 7.25 0 0
2 0 7.25 0 0
3 0 7.25 0 0

Improper Coeffs # cvff

1 2.5 -1 2

Atoms # full

219 13 3 0.0000000000000000e+00 -2.7512921750629782e-01 3.0792066509203124e+00 3.1471394018817835e+00 1 0 0
220 13 4 -1.1500000000000000e-01 2.9775992452640088e-01 4.1205025158020110e+00 2.3497077732405773e+00 1 0 0
224 13 2 1.1500000000000000e-01 5.2997501841591643e-01 5.0789227100623773e+00 2.7538215186403181e+00 1 0 0
580 33 4 -1.1500000000000000e-01 2.6682069897264404e+00 6.7380209488557536e+00 3.9722204738723583e+00 1 0 0
228 13 3 0.0000000000000000e+00 -5.0942271135928130e-01 1.8378802814281223e+00 2.5791364867276170e+00 1 0 0
989 53 4 -1.1500000000000000e-01 -1.3595358770467465e+00 7.0379778063148697e+00 3.5261043632054068e+00 1 0 0
600 34 2 1.1500000000000000e-01 2.8848870414444505e-02 5.8707373253770339e+00 6.8781049490127879e+00 1 0 0
245 14 4 -1.1500000000000000e-01 -4.9189224094074495e+00 1.4411901122009176e+00 9.0716107517057960e+00 1 0 0
227 13 4 -1.1500000000000000e-01 -1.9544363333526471e-01 1.5472404016989187e+00 1.2651895561409010e+00 1 0 0
4390 233 1 -1.1500000000000000e-01 2.2857570431608973e+00 7.4824297730924627e-01 5.5193316952737819e+00 1 1 0
733 13 6 0.0000000000000000e+00 -4.2311591027125450e-01 2.4316343136164624e+00 2.9403673649533988e+00 1 0 0
4382 233 2 1.1500000000000000e-01 4.3669590082306939e+00 1.2872566077412937e-02 8.3786273461791516e-02 1 1 0
230 13 1 -1.1500000000000000e-01 6.9210005691988052e-01 3.8502421395473787e+00 1.0013741776789886e+00 1 0 0
217 13 7 -1.1500000000000000e-01 -1.2145288155674099e+00 2.3925896840177914e+00 5.2739377869449431e+00 1 0 0
218 13 5 -1.1500000000000000e-01 -5.7516163526507258e-01 3.3791187848927269e+00 4.4787937444781356e+00 1 0 0
221 13 1 -1.1500000000000000e-01 -1.5692390634514410e+00 1.1539788128163500e+00 4.6743124183196043e+00 1 0 0
222 13 2 1.1500000000000000e-01 -1.5816227644745156e+00 2.6358787181270023e+00 6.2891361743216345e+00 1 0 0
223 13 2 1.1500000000000000e-01 -2.4213562577324232e-01 4.2946268139893782e+00 4.9876847680904790e+00 1 0 0
248 14 1 -1.1500000000000000e-01 -3.4493786721330872e+00 3.2679237473197120e+00 8.7087133557288148e+00 1 0 0
4380 233 4 -1.1500000000000000e-01 2.5643356151352821e+00 1.1172624068753805e+00 4.1525688743427382e+00 1 1 0
244 14 1 -1.1500000000000000e-01 -4.0685224820935320e+00 2.0825879223552852e+00 8.2114587729637201e+00 1 0 0
603 34 2 1.1500000000000000e-01 9.9788084701947444e-01 3.6931415571808910e+00 7.4992893520054738e+00 1 0 0
4396 234 5 -1.1500000000000000e-01 -7.5558948319226982e-01 2.0628748853791828e-01 9.2389816804304896e+00 1 1 0
4394 233 2 1.1500000000000000e-01 1.6483475938979666e+00 1.3876600273655164e+00 6.1032209060916278e+00 1 1 0
579 33 3 0.0000000000000000e+00 3.3578926413838754e+00 5.8414846524474537e+00 3.1387002841860077e+00 1 0 0
252 14 2 1.1500000000000000e-01 -2.8599067375165594e+00 3.8690578924610621e+00 7.9659684707867555e+00 1 0 0
581 33 1 -1.1500000000000000e-01 4.4150422579186621e+00 3.9456129227837877e+00 1.5070267631280274e+00 1 0 0
596 34 5 -1.1500000000000000e-01 -5.2629037441581517e-01 6.3404659082704562e+00 8.8932558518230955e+00 1 0 0
577 33 7 -1.1500000000000000e-01 4.0384445934496744e+00 5.1570601961051263e+00 9.6611467426781727e-01 1 0 0
588 33 3 0.0000000000000000e+00 3.8483497464196210e+00 4.6112751867425503e+00 3.7347310208888445e+00 1 0 0
589 33 4 -1.1500000000000000e-01 4.5146643141903535e+00 3.7242159066662111e+00 2.8579319660828340e+00 1 0 0
593 33 2 1.1500000000000000e-01 4.8144595734205140e+00 2.7338635966106266e+00 3.3090628111150417e+00 1 0 0
753 33 6 0.0000000000000000e+00 3.6155680899073621e+00 5.1882490762888143e+00 3.3037373498210711e+00 1 0 0
4383 233 2 1.1500000000000000e-01 3.0674292764308859e+00 1.4439152189332702e+00 1.4785277807200461e+00 1 1 0
4379 233 3 0.0000000000000000e+00 3.2122880457714222e+00 2.0548418577096053e-01 3.2749074909645697e+00 1 1 0
578 33 5 -1.1500000000000000e-01 3.4884459585380236e+00 6.1168530496669149e+00 1.8128000886867106e+00 1 0 0
226 13 1 -1.1500000000000000e-01 4.6699026333523053e-01 2.5122858157510630e+00 4.8168390560932406e-01 1 0 0
4384 233 2 1.1500000000000000e-01 2.2350466375572831e+00 2.0282961010650524e+00 3.6290497712986944e+00 1 1 0
586 33 1 -1.1500000000000000e-01 3.0707516981384302e+00 5.3473359955653974e+00 5.9629851891710954e+00 1 0 0
587 33 4 -1.1500000000000000e-01 3.7929475174000933e+00 4.4364710266808975e+00 5.1856462208879304e+00 1 0 0
585 33 2 1.1500000000000000e-01 4.8407093019120344e+00 3.1692011420557824e+00 8.5873494094054004e-01 1 0 0
591 33 2 1.1500000000000000e-01 2.8955910567261789e+00 5.2320758208770313e+00 7.0553559952040352e+00 1 0 0
592 33 2 1.1500000000000000e-01 4.2336552273924211e+00 3.5577285228916766e+00 5.5656945220184513e+00 1 0 0
590 33 1 -1.1500000000000000e-01 2.4882279547932407e+00 6.4804668968919845e+00 5.3691326496243690e+00 1 0 0
1753 93 2 1.1500000000000000e-01 -1.8485611088106981e+00 1.2024556658782156e+01 3.3943271532676516e+00 1 0 0
234 13 2 1.1500000000000000e-01 1.0893617552468124e+00 4.6566478711352408e+00 4.2645094226370306e-01 1 0 0
229 13 4 -1.1500000000000000e-01 -1.2326449503963248e+00 8.7647611428321492e-01 3.3257085715119858e+00 1 0 0
2129 114 2 1.1500000000000000e-01 -4.6421272021584681e-01 1.6740630802960478e+01 1.3699645847419434e+01 1 0 0
985 53 2 1.1500000000000000e-01 -1.6874569490847651e+00 6.3252957046654696e+00 5.4979286074456839e+00 1 0 0
599 34 1 -1.1500000000000000e-01 4.9957006276436378e-01 4.2693612789851336e+00 8.2987959798460107e+00 1 0 0
4401 234 2 1.1500000000000000e-01 -1.0122062991611847e+00 1.1871675833715891e+00 8.9989663012688297e+00 1 1 0
225 13 2 1.1500000000000000e-01 -2.0061105197899822e+00 3.2582866704278746e-01 5.1891836564748592e+00 1 0 0
595 34 7 -1.1500000000000000e-01 5.4161069581711629e-02 5.5337371531346120e+00 7.9062581591090098e+00 1 0 0
981 53 1 -1.1500000000000000e-01 -1.3319264810097451e+00 7.0858895519841241e+00 4.9306787385415713e+00 1 0 0
4378 233 5 -1.1500000000000000e-01 3.4383310639906619e+00 5.0792377331819638e-01 1.9265530609946762e+00 1 1 0
582 33 2 1.1500000000000000e-01 4.0370822961776405e+00 5.2558447420090264e+00 -1.2454347376185762e-01 1 0 0
583 33 2 1.1500000000000000e-01 3.1507536031701182e+00 7.0760467856608731e+00 1.5183956188033889e+00 1 0 0
2513 133 2 1.1500000000000000e-01 -1.6196375353658288e+00 1.7845660309619081e+01 3.1236288929581555e+00 1 0 0
232 13 2 1.1500000000000000e-01 -4.1316956680644956e-01 6.2626465646740193e-01 8.8323787643017537e-01 1 0 0
235 14 7 -1.1500000000000000e-01 -5.2722569057950670e+00 2.3055749854431409e+00 1.3186878568106064e+01 1 0 0
236 14 5 -1.1500000000000000e-01 -4.5620701525878271e+00 3.1497835898409443e+00 1.2348539745695721e+01 1 0 0
597 34 3 0.0000000000000000e+00 -6.0779878913361340e-01 5.9048845388244819e+00 1.0262939798870844e+01 1 0 0
734 14 6 0.0000000000000000e+00 -4.6238930202800494e+00 2.3460478276995502e+00 1.0490958105732547e+01 1 0 0
239 14 1 -1.1500000000000000e-01 -5.8801349239877112e+00 1.1444228778858268e+00 1.2609133736630859e+01 1 0 0
240 14 2 1.1500000000000000e-01 -5.2936301991416563e+00 2.4396338432077465e+00 1.4254947206321603e+01 1 0 0
243 14 2 1.1500000000000000e-01 -6.4971431860384392e+00 5.0274050731874931e-01 1.3207075501424020e+01 1 0 0
237 14 3 0.0000000000000000e+00 -4.4166486915089997e+00 2.9218971981235251e+00 1.0907408936187762e+01 1 0 0
4402 234 2 1.1500000000000000e-01 -1.8144919136495981e+00 1.7260806557388906e+00 1.1006849696422460e+01 1 1 0
2131 114 2 1.1500000000000000e-01 1.2227254972461887e+00 1.4635280166294008e+01 9.8833746002558858e+00 1 0 0
242 14 2 1.1500000000000000e-01 -3.2824277416961443e+00 4.7109727711583895e+00 1.0416181669698881e+01 1 0 0
4408 234 1 -1.1500000000000000e-01 -1.9096275889970622e+00 2.5112371815141649e-01 1.2680882924878613e+01 1 1 0
238 14 4 -1.1500000000000000e-01 -3.6787453026672110e+00 3.7351113226265666e+00 1.0027949593908344e+01 1 0 0
246 14 3 0.0000000000000000e+00 -5.0587630797131480e+00 1.7983834380693777e+00 1.0415159333944981e+01 1 0 0
604 34 1 -1.1500000000000000e-01 -9.9697005999144039e-01 4.9664957282714655e+00 1.2819168339772517e+01 1 0 0
605 34 4 -1.1500000000000000e-01 -4.0828603633741789e-01 4.1056240091206417e+00 1.1879637879954528e+01 1 0 0
606 34 3 0.0000000000000000e+00 -1.7937401759414229e-01 4.5964022571345904e+00 1.0560790858449293e+01 1 0 0
607 34 4 -1.1500000000000000e-01 4.2339588875718803e-01 3.7496497011623480e+00 9.6102360367794262e+00 1 0 0
611 34 2 1.1500000000000000e-01 8.2902338593662250e-01 2.7813505929208100e+00 9.8303399559655844e+00 1 0 0
610 34 2 1.1500000000000000e-01 -8.9226839420247117e-02 3.0748341975394764e+00 1.2062485910456179e+01 1 0 0
241 14 2 1.1500000000000000e-01 -4.0045789971878101e+00 3.9392729404564322e+00 1.2862039836958532e+01 1 0 0
993 53 2 1.1500000000000000e-01 -1.8225549833539079e+00 6.2234298456988721e+00 3.0779363165586733e+00 1 0 0
598 34 4 -1.1500000000000000e-01 -1.1692782356354865e+00 6.7900225225041027e+00 1.1215895092993136e+01 1 0 0
754 34 6 0.0000000000000000e+00 -4.2920977026612395e-01 5.2776278553709099e+00 1.0503380271525831e+01 1 0 0
609 34 2 1.1500000000000000e-01 -1.1966997285890137e+00 4.6035462819579411e+00 1.3844813318689706e+01 1 0 0
4398 234 4 -1.1500000000000000e-01 -1.6126170089322605e+00 7.5925720713531131e-01 1.1401909178244953e+01 1 1 0
4412 234 2 1.1500000000000000e-01 -2.3997052365667191e+00 9.5026007281097313e-01 1.3425790475436971e+01 1 1 0
247 14 4 -1.1500000000000000e-01 -5.7584902292359441e+00 8.7759211559827943e-01 1.1242088489192161e+01 1 0 0
608 34 1 -1.1500000000000000e-01 -1.3661956549448817e+00 6.2619965544504872e+00 1.2465695904885807e+01 1 0 0
612 34 2 1.1500000000000000e-01 -1.9595601662679423e+00 6.8482308903212115e+00 1.3149970960359154e+01 1 0 0
979 53 3 0.0000000000000000e+00 -2.1574270690469888e-01 9.1754193616220139e+00 3.3509615836559004e+00 1 0 0
980 53 4 -1.1500000000000000e-01 5.7627945534880265e-01 1.0028105413960175e+01 2.5241086115760636e+00 1 0 0
984 53 2 1.1500000000000000e-01 1.2147094228556816e+00 1.0853671978975342e+01 2.9662065294613367e+00 1 0 0
1361 74 2 1.1500000000000000e-01 -1.2014690431421231e+00 1.3200583369865441e+01 8.4238442740394284e+00 1 0 0
990 53 1 -1.1500000000000000e-01 5.9153728968235864e-01 9.8952766881221574e+00 1.0978148090877637e+00 1 0 0
2253 93 6 0.0000000000000000e+00 -3.7404948461312859e-01 1.4269192455397903e+01 3.0087930373682261e+00 1 0 0
1493 53 6 0.0000000000000000e+00 -5.5683744740500662e-01 8.6639260729576968e+00 2.9804307417243745e+00 1 0 0
986 53 1 -1.1500000000000000e-01 -1.2866957291964559e-01 8.8604157107589963e+00 4.7023609203587990e-01 1 0 0
1005 54 4 -1.1500000000000000e-01 -4.5237555898857353e+00 7.1975833573304282e+00 8.9027485945814391e+00 1 0 0
994 53 2 1.1500000000000000e-01 1.2658668990249125e+00 1.0549170545007220e+01 5.1284132639474400e-01 1 0 0
594 33 2 1.1500000000000000e-01 1.8702882256419171e+00 7.1657959900202837e+00 5.9157771919936204e+00 1 0 0
1741 93 1 -1.1500000000000000e-01 -1.6674107769641902e+00 1.3625028416214143e+01 4.8323750041540015e+00 1 0 0
977 53 7 -1.1500000000000000e-01 -7.6565077194331943e-01 8.2624818721320548e+00 5.5313777796741892e+00 1 0 0
978 53 5 -1.1500000000000000e-01 -1.5805303383148983e-01 9.2796930376951163e+00 4.7326360481792253e+00 1 0 0
982 53 2 1.1500000000000000e-01 -7.2730035653653768e-01 8.2899718311357216e+00 6.6092872569964474e+00 1 0 0
983 53 2 1.1500000000000000e-01 3.8988561794937526e-01 1.0133517062876775e+01 5.2090753320366385e+00 1 0 0
1012 54 2 1.1500000000000000e-01 -2.3764779848844144e+00 9.5276739418616607e+00 7.6541884535046325e+00 1 0 0
1004 54 1 -1.1500000000000000e-01 -3.7152394078255004e+00 7.8234296401547647e+00 7.9318872244914438e+00 1 0 0
1363 74 2 1.1500000000000000e-01 1.1542605137184063e+00 9.8196575824895156e+00 7.7975734321388401e+00 1 0 0
1745 93 2 1.1500000000000000e-01 -2.4423950823931730e+00 1.3257386658399289e+01 5.4494063655257179e+00 1 0 0
1008 54 1 -1.1500000000000000e-01 -3.0396428291306563e+00 9.0100338447267259e+00 8.3123777262722225e+00 1 0 0
1338 73 5 -1.1500000000000000e-01 3.6646588030675220e+00 1.2282163312534665e+01 1.6839964710545150e+00 1 0 0
1339 73 3 0.0000000000000000e+00 3.5023014922367537e+00 1.1932781033306339e+01 3.0343320265508180e+00 1 0 0
1340 73 4 -1.1500000000000000e-01 2.8053417818665056e+00 1.2792170614757527e+01 3.9217240963897186e+00 1 0 0
1341 73 1 -1.1500000000000000e-01 4.8102631541121355e+00 1.0174197062316486e+01 1.2342597244451543e+00 1 0 0
1337 73 7 -1.1500000000000000e-01 4.3651335507002482e+00 1.1435999966892700e+01 8.0354441473152605e-01 1 0 0
1343 73 2 1.1500000000000000e-01 3.4181518986826216e+00 1.3213311342156242e+01 1.2163155407188166e+00 1 0 0
988 53 3 0.0000000000000000e+00 -8.1951718244239546e-01 8.0410846375287086e+00 2.7662929773081437e+00 1 0 0
1348 73 3 0.0000000000000000e+00 3.9708799507910228e+00 1.0667733060412431e+01 3.4648708483691015e+00 1 0 0
1349 73 4 -1.1500000000000000e-01 4.6415484659421011e+00 9.7919527734934633e+00 2.5884839147339380e+00 1 0 0
1353 73 2 1.1500000000000000e-01 4.9671310315734152e+00 8.7796081224749241e+00 2.9293524469973162e+00 1 0 0
1513 73 6 0.0000000000000000e+00 3.6994485619643047e+00 1.1264948384888248e+01 3.2591799941544317e+00 1 0 0
1356 74 5 -1.1500000000000000e-01 -6.6060540067034701e-01 1.2344633599769669e+01 8.8312141036237541e+00 1 0 0
1354 73 2 1.1500000000000000e-01 1.9770982962089052e+00 1.2973299536837706e+01 5.8577129978774556e+00 1 0 0
1346 73 1 -1.1500000000000000e-01 2.9096207941584935e+00 1.1029314842895191e+01 5.6371648938703780e+00 1 0 0
1347 73 4 -1.1500000000000000e-01 3.6600503515382430e+00 1.0240636583041233e+01 4.7832816760127379e+00 1 0 0
1350 73 1 -1.1500000000000000e-01 2.5107473432518850e+00 1.2344174122385660e+01 5.2400004782373575e+00 1 0 0
1351 73 2 1.1500000000000000e-01 2.6417138113707153e+00 1.0721723323324630e+01 6.6301751202413062e+00 1 0 0
1352 73 2 1.1500000000000000e-01 3.9827379783542241e+00 9.2514641354412390e+00 5.1333079079334221e+00 1 0 0
1345 73 2 1.1500000000000000e-01 5.3304489945604079e+00 9.4795089162382471e+00 5.7374063156818955e-01 1 0 0
1355 74 7 -1.1500000000000000e-01 -2.4916027607934765e-02 1.1533064093728385e+01 7.9454078490324136e+00 1 0 0
1359 74 1 -1.1500000000000000e-01 6.4204276095666835e-01 1.0428355518046786e+01 8.4549728460110103e+00 1 0 0
1360 74 2 1.1500000000000000e-01 -1.5468850265906475e-01 1.1665687579485622e+01 6.8380696210258094e+00 1 0 0
1747 93 4 -1.1500000000000000e-01 -6.0959393601443845e-01 1.3212199776774627e+01 1.3003772674255143e+00 1 0 0
1748 93 3 0.0000000000000000e+00 -7.1163395647168426e-01 1.3710653899055421e+01 2.6343171239859067e+00 1 0 0
601 34 2 1.1500000000000000e-01 -7.2583367046598202e-01 7.3874344612177616e+00 8.6052055700332541e+00 1 0 0
1010 54 2 1.1500000000000000e-01 -5.0388117023665711e+00 6.2436857623183117e+00 8.7370810537344674e+00 1 0 0
1746 93 1 -1.1500000000000000e-01 2.1350131025978236e-01 1.3901007701990856e+01 3.2055435393151788e-01 1 0 0
584 33 2 1.1500000000000000e-01 2.2229676126701814e+00 7.6620397584984232e+00 3.6027766580685392e+00 1 0 0
1765 94 4 -1.1500000000000000e-01 -5.1995230443280427e+00 1.3760880585450757e+01 8.6285427424332024e+00 1 0 0
1749 93 4 -1.1500000000000000e-01 -1.4868590438351683e+00 1.3018255088158552e+01 3.5757394437213610e+00 1 0 0
1342 73 2 1.1500000000000000e-01 4.4863612718928030e+00 1.1823556521864235e+01 -1.4897551985705657e-01 1 0 0
1344 73 2 1.1500000000000000e-01 2.3148544935296234e+00 1.3670872465238006e+01 3.4870979011251699e+00 1 0 0
1009 54 2 1.1500000000000000e-01 -3.5482497822474106e+00 7.3877542390153437e+00 6.9077860836320282e+00 1 0 0
987 53 4 -1.1500000000000000e-01 -7.9546757237052801e-01 7.9734046886702856e+00 1.3282039745390619e+00 1 0 0
995 54 7 -1.1500000000000000e-01 -5.5812185530677070e+00 8.9615204930953762e+00 1.2565677971119984e+01 1 0 0
996 54 5 -1.1500000000000000e-01 -4.5378832368222364e+00 9.5401247525782313e+00 1.1773128113853565e+01 1 0 0
997 54 3 0.0000000000000000e+00 -4.1839415446296488e+00 8.9636425227226635e+00 1.0516796353853682e+01 1 0 0
1001 54 2 1.1500000000000000e-01 -4.0681643144945614e+00 1.0381505640233863e+01 1.2067046773053244e+01 1 0 0
1371 74 2 1.1500000000000000e-01 9.1920726319101576e-01 9.0649767917682187e+00 1.0058157488833054e+01 1 0 0
1357 74 3 0.0000000000000000e+00 -6.1847561270576623e-01 1.2163971181435777e+01 1.0247776213535243e+01 1 0 0
1767 94 4 -1.1500000000000000e-01 -6.0061809816381668e+00 1.3062741404389856e+01 1.0871034360661495e+01 1 0 0
998 54 4 -1.1500000000000000e-01 -3.2554822228756932e+00 9.5967168781970233e+00 9.6117884273648659e+00 1 0 0
1494 54 6 0.0000000000000000e+00 -4.5498973325342877e+00 8.4028673542153474e+00 1.0289958308237859e+01 1 0 0
1362 74 2 1.1500000000000000e-01 -1.8094511774757871e+00 1.3862678523828910e+01 1.0839599076159336e+01 1 0 0
1003 54 2 1.1500000000000000e-01 -6.7324567656596006e+00 7.2295639475510924e+00 1.2999616179709850e+01 1 0 0
999 54 1 -1.1500000000000000e-01 -6.1195700416343852e+00 7.7287521200039180e+00 1.2272129040989428e+01 1 0 0
1372 74 2 1.1500000000000000e-01 -1.8562652970908289e+00 1.3221806662450053e+01 1.3135048769176672e+01 1 0 0
1514 74 6 0.0000000000000000e+00 -2.7332063338518076e-01 1.1657960850259194e+01 1.0553104598426239e+01 1 0 0
602 34 2 1.1500000000000000e-01 -1.5145017460954007e+00 7.7872685581856391e+00 1.0984698084866274e+01 1 0 0
1358 74 4 -1.1500000000000000e-01 -1.2643426151823300e+00 1.3047766268870198e+01 1.1128547377467063e+01 1 0 0
1364 74 1 -1.1500000000000000e-01 -7.0531328369741964e-01 1.1501576130317673e+01 1.2963136849360239e+01 1 0 0
1365 74 4 -1.1500000000000000e-01 -1.1268300432843326e-01 1.0592103322859508e+01 1.2035964699681097e+01 1 0 0
1366 74 3 0.0000000000000000e+00 -2.0105439319634932e-02 1.0936912804478403e+01 1.0646958826209618e+01 1 0 0
1759 94 1 -1.1500000000000000e-01 -6.0776781966881597e+00 1.3251474051186452e+01 1.2296191814446075e+01 1 0 0
1368 74 1 -1.1500000000000000e-01 -1.3251968887388665e+00 1.2661643965056838e+01 1.2499596008028441e+01 1 0 0
1369 74 2 1.1500000000000000e-01 -7.4783533489385068e-01 1.1254537103749451e+01 1.3995492715205815e+01 1 0 0
1370 74 2 1.1500000000000000e-01 3.2838837949323363e-01 9.6385483335100872e+00 1.2461907890639733e+01 1 0 0
1378 75 2 1.1500000000000000e-01 -3.8504623060336813e+00 1.1846982358369326e+01 1.3999873323886145e+01 1 0 0
1000 54 2 1.1500000000000000e-01 -5.8197212748768301e+00 9.3693103390371686e+00 1.3550638804069409e+01 1 0 0
1766 94 3 0.0000000000000000e+00 -5.2694036129278627e+00 1.3952515025675583e+01 1.0030315643223739e+01 1 0 0
1006 54 3 0.0000000000000000e+00 -4.8242814832422347e+00 7.7645006623479826e+00 1.0152564108273253e+01 1 0 0
1763 94 2 1.1500000000000000e-01 -6.5778077216984965e+00 1.2474644614579461e+01 1.2902775567060340e+01 1 0 0
1367 74 4 -1.1500000000000000e-01 5.5500320537069747e-01 1.0062829670831087e+01 9.7695305765018414e+00 1 0 0
1002 54 2 1.1500000000000000e-01 -2.7969573702996162e+00 1.0530534838066124e+01 9.9895797413856418e+00 1 0 0
1755 94 7 -1.1500000000000000e-01 -5.3870914192372972e+00 1.4361882500970944e+01 1.2841188539654034e+01 1 0 0
1007 54 4 -1.1500000000000000e-01 -5.7277025364111251e+00 7.1449508891733835e+00 1.1051323984530244e+01 1 0 0
1737 93 7 -1.1500000000000000e-01 -9.5586210488774892e-01 1.4744509724746605e+01 5.2433222655781719e+00 1 0 0
1740 93 4 -1.1500000000000000e-01 6.8455195292016424e-01 1.5610228018171757e+01 2.0248856279859169e+00 1 0 0
1744 93 2 1.1500000000000000e-01 1.1348996981091861e+00 1.6551558582624263e+01 2.4234087584285184e+00 1 0 0
1768 94 1 -1.1500000000000000e-01 -3.7359818880280633e+00 1.5706595186783689e+01 8.3965939563128149e+00 1 0 0
1750 93 1 -1.1500000000000000e-01 8.5444416633897835e-01 1.5083550147543576e+01 7.0301995195585665e-01 1 0 0
2112 113 2 1.1500000000000000e-01 4.1549672184949600e+00 1.5577099164293244e+01 5.5610917714293082e+00 1 0 0
2119 114 1 -1.1500000000000000e-01 5.1185838674430517e-01 1.5812175439199809e+01 8.1850471273997716e+00 1 0 0
249 14 2 1.1500000000000000e-01 -3.9582903367821323e+00 1.8342659612519872e+00 7.1314462295227674e+00 1 0 0
1743 93 2 1.1500000000000000e-01 3.5420509026080582e-01 1.6262670943105444e+01 4.5308634255111517e+00 1 0 0
2127 114 4 -1.1500000000000000e-01 6.1500538958838824e-01 1.5507110543492766e+01 9.5402277504542710e+00 1 0 0
1772 94 2 1.1500000000000000e-01 -3.2546374989160975e+00 1.6389736341342367e+01 7.7787508938861016e+00 1 0 0
1739 93 3 0.0000000000000000e+00 -6.1022229211667556e-02 1.4908111413940622e+01 2.9985591018582514e+00 1 0 0
1754 93 2 1.1500000000000000e-01 1.6103143432553799e+00 1.5471505226738646e+01 -6.1747980416033410e-02 1 0 0
2097 113 7 -1.1500000000000000e-01 4.3180134362077141e+00 1.7208202211548894e+01 1.0912214072427620e+00 1 0 0
1760 94 2 1.1500000000000000e-01 -5.3424228308426205e+00 1.4490495491370270e+01 1.3886152247074833e+01 1 0 0
2101 113 1 -1.1500000000000000e-01 4.8275057307572267e+00 1.6032813673754667e+01 1.6805528791346021e+00 1 0 0
2113 113 2 1.1500000000000000e-01 4.8814276650942965e+00 1.4937225573676944e+01 3.5505374142713659e+00 1 0 0
1738 93 5 -1.1500000000000000e-01 -1.3483874199761647e-01 1.5346804718245155e+01 4.3182468059802614e+00 1 0 0
2108 113 3 0.0000000000000000e+00 3.7887356921444071e+00 1.6780719935803393e+01 3.7651533628870242e+00 1 0 0
2109 113 4 -1.1500000000000000e-01 4.5486725032358422e+00 1.5860197755820288e+01 3.0351993496335750e+00 1 0 0
2273 113 6 0.0000000000000000e+00 3.6380867365104708e+00 1.7332254498158211e+01 3.3837917911810633e+00 1 0 0
2106 113 1 -1.1500000000000000e-01 2.8781332479477140e+00 1.7387810393148747e+01 5.9039841356049445e+00 1 0 0
2107 113 4 -1.1500000000000000e-01 3.5856843559444336e+00 1.6487794118464869e+01 5.1488324714390945e+00 1 0 0
2111 113 2 1.1500000000000000e-01 2.8038884804982542e+00 1.7168562023870148e+01 6.9304428034216219e+00 1 0 0
2115 114 7 -1.1500000000000000e-01 2.4536175067416011e-02 1.7058538668862376e+01 7.7785715074894739e+00 1 0 0
2102 113 2 1.1500000000000000e-01 4.4624105166647947e+00 1.7409727170480480e+01 5.0976365005256097e-02 1 0 0
2120 114 2 1.1500000000000000e-01 1.3935932277967744e-02 1.7433417065290676e+01 6.7538928572650505e+00 1 0 0
2123 114 2 1.1500000000000000e-01 1.0478552932782890e+00 1.5237855774293365e+01 7.4325348947915781e+00 1 0 0
1758 94 4 -1.1500000000000000e-01 -3.8266789009944344e+00 1.5956417731234117e+01 9.7687112309225270e+00 1 0 0
2105 113 2 1.1500000000000000e-01 5.3441021943895688e+00 1.5337118629675786e+01 1.0264567160564075e+00 1 0 0
1742 93 2 1.1500000000000000e-01 -1.0787844059310245e+00 1.5249377361566246e+01 6.1163083884617651e+00 1 0 0
1764 94 1 -1.1500000000000000e-01 -4.4559757469949446e+00 1.4612488737069624e+01 7.7982211252420317e+00 1 0 0
2117 114 3 0.0000000000000000e+00 -5.0810810438541143e-01 1.7624799308735877e+01 9.9790960056431892e+00 1 0 0
1761 94 2 1.1500000000000000e-01 -3.9219256588432172e+00 1.5855819493000590e+01 1.2497913097845812e+01 1 0 0
2274 114 6 0.0000000000000000e+00 -2.8220417217352178e-01 1.7058201166210026e+01 1.0290144344822684e+01 1 0 0
2254 94 6 0.0000000000000000e+00 -5.0620155504590967e+00 1.4618215475737028e+01 1.0282209029067992e+01 1 0 0
2130 114 2 1.1500000000000000e-01 5.5807404421259577e-01 1.5402770603545948e+01 1.2257354970381236e+01 1 0 0
2124 114 1 -1.1500000000000000e-01 -4.4655215216564681e-01 1.7085932681497262e+01 1.2694591098022675e+01 1 0 0
2125 114 4 -1.1500000000000000e-01 1.7539675383890874e-01 1.6247932962648299e+01 1.1800657569564127e+01 1 0 0
2126 114 3 0.0000000000000000e+00 7.7529203501152111e-02 1.6431760475656866e+01 1.0416738133324111e+01 1 0 0
1756 94 5 -1.1500000000000000e-01 -4.6410383511046263e+00 1.5172637356152725e+01 1.2003085542279150e+01 1 0 0
1757 94 3 0.0000000000000000e+00 -4.5691773746961566e+00 1.5049690575329084e+01 1.0593653225265262e+01 1 0 0
2138 115 2 1.1500000000000000e-01 -3.6812941478082184e+00 1.7039199577791734e+01 1.4234842302315622e+01 1 0 0
1762 94 2 1.1500000000000000e-01 -3.2144384734210787e+00 1.6781150516850953e+01 1.0210030477287001e+01 1 0 0
1011 54 2 1.1500000000000000e-01 -6.1788943907396279e+00 6.1934763996080546e+00 1.0802174436786695e+01 1 0 0
1064 57 2 1.1500000000000000e-01 7.3431981635488688e+00 6.3498583102922028e+00 1.0814590188923989e+00 1 0 0
2116 114 5 -1.1500000000000000e-01 -5.3529321072809299e-01 1.7922513919777870e+01 8.6254123741974205e+00 1 0 0
233 13 2 1.1500000000000000e-01 -1.6277715317980372e+00 -1.3370421195255430e-02 2.8347630789730971e+00 1 0 0
251 14 2 1.1500000000000000e-01 -6.1541033321309033e+00 -5.2898279718752370e-03 1.0728686646023554e+01 1 0 0
4416 235 4 -1.1500000000000000e-01 -5.8778153142487684e+00 8.7559190952178034e-01 1.9052377667880325e+01 1 1 0
4420 235 2 1.1500000000000000e-01 -6.2470406903932467e+00 1.8187412080822851e+00 1.8630526421954176e+01 1 1 0
255 15 3 0.0000000000000000e+00 -8.7986093529342249e+00 3.1379447268909302e+00 1.8181736900081681e+01 1 0 0
256 15 4 -1.1500000000000000e-01 -8.0451009026944469e+00 3.8759159840549828e+00 1.7185232871095057e+01 1 0 0
260 15 2 1.1500000000000000e-01 -7.6158373099373033e+00 4.8292659316233042e+00 1.7322976893701103e+01 1 0 0
2164 116 1 -1.1500000000000000e-01 -1.0397530789204186e+01 1.7905066853987712e+01 2.8022208603581479e+01 1 0 0
4414 235 5 -1.1500000000000000e-01 -4.8962576172010648e+00 3.4669453337024514e-01 1.6869061892617651e+01 1 1 0
264 15 3 0.0000000000000000e+00 -9.3267274466941874e+00 1.9007483882828466e+00 1.7790309357043746e+01 1 0 0
262 15 1 -1.1500000000000000e-01 -8.4449085946072522e+00 2.0507285431390665e+00 1.5526186683144113e+01 1 0 0
266 15 1 -1.1500000000000000e-01 -7.9269786735083221e+00 3.3240038723211596e+00 1.5887180918210870e+01 1 0 0
263 15 4 -1.1500000000000000e-01 -9.1416906865842495e+00 1.3775856084315727e+00 1.6528637806895571e+01 1 0 0
735 15 6 0.0000000000000000e+00 -8.9544025372209930e+00 2.4037722609812970e+00 1.8056675142752137e+01 1 0 0
265 15 4 -1.1500000000000000e-01 -1.0037006026427965e+01 1.1134162290182856e+00 1.8736533469306561e+01 1 0 0
2256 96 6 0.0000000000000000e+00 -1.3124363119912333e+01 1.4333346591573576e+01 2.5029050498229534e+01 1 0 0
613 35 7 -1.1500000000000000e-01 -4.5429083391099283e+00 5.5701669150857107e+00 1.6110562977417395e+01 1 0 0
618 35 2 1.1500000000000000e-01 -4.4390453494793976e+00 5.9752074238163262e+00 1.5114186700333663e+01 1 0 0
615 35 3 0.0000000000000000e+00 -5.2687498742952581e+00 5.8010458102572153e+00 1.8404660992917645e+01 1 0 0
617 35 1 -1.1500000000000000e-01 -3.9236560207640307e+00 4.3109853173905099e+00 1.6345720093371465e+01 1 0 0
621 35 2 1.1500000000000000e-01 -3.3885755302615941e+00 3.7479378945948572e+00 1.5554795753649742e+01 1 0 0
624 35 3 0.0000000000000000e+00 -4.6950837739902678e+00 4.5220497217415199e+00 1.8703244024807390e+01 1 0 0
625 35 4 -1.1500000000000000e-01 -4.0164716917305761e+00 3.8051952883305389e+00 1.7652109257488402e+01 1 0 0
629 35 2 1.1500000000000000e-01 -3.6769913283753883e+00 2.7795502537331394e+00 1.7755801322399186e+01 1 0 0
755 35 6 0.0000000000000000e+00 -4.9419042737658483e+00 5.1146536737050194e+00 1.8454727693802781e+01 1 0 0
270 15 2 1.1500000000000000e-01 -7.4023451917072745e+00 3.8756083927762783e+00 1.5084070951567659e+01 1 0 0
614 35 5 -1.1500000000000000e-01 -5.2039806053908055e+00 6.3331191060008294e+00 1.7097000900828153e+01 1 0 0
4419 235 2 1.1500000000000000e-01 -5.3195676929261371e+00 1.2540408747050220e+00 1.6500883031301701e+01 1 1 0
1025 55 4 -1.1500000000000000e-01 -9.7976013493209493e+00 6.7559031306507773e+00 1.8337889517420507e+01 1 0 0
616 35 4 -1.1500000000000000e-01 -5.9509311732867509e+00 6.5453368317773810e+00 1.9410103125939656e+01 1 0 0
269 15 2 1.1500000000000000e-01 -1.0255645653223841e+01 6.1211021410016248e-02 1.8462859663489478e+01 1 0 0
231 13 2 1.1500000000000000e-01 -1.6227881833668523e+01 2.2152494748433837e+00 2.9441577904191711e+01 1 0 -1
254 15 5 -1.1500000000000000e-01 -8.9708209607738336e+00 3.5683970991577825e+00 1.9529284643412158e+01 1 0 0
280 16 1 -1.1500000000000000e-01 -1.2683884773094295e+01 2.3734867413706349e+00 2.3125299540273474e+01 1 0 0
1046 56 2 1.1500000000000000e-01 -1.3862166961736410e+01 6.3236115416698917e+00 2.3803365847116222e+01 1 0 0
258 15 2 1.1500000000000000e-01 -9.7591104972364278e+00 3.0002812393191616e+00 2.1487003161773028e+01 1 0 0
634 36 4 -1.1500000000000000e-01 -1.0206206253559259e+01 6.4150486356060821e+00 2.6189979204980876e+01 1 0 0
4433 236 3 0.0000000000000000e+00 -9.5014027609361733e+00 9.2925349076074498e-02 2.5643781703208539e+01 1 1 0
257 15 1 -1.1500000000000000e-01 -1.0281899942528179e+01 1.6244491358877862e+00 1.9977091416473229e+01 1 0 0
284 16 1 -1.1500000000000000e-01 -1.2223950585117173e+01 3.6067541130770522e+00 2.3572103835387498e+01 1 0 0
279 16 2 1.1500000000000000e-01 -1.4785130932689214e+01 6.0487631439815581e-01 2.8416635645893503e+01 1 0 0
285 16 2 1.1500000000000000e-01 -1.2741359789151248e+01 2.0878583782079243e+00 2.2120680958625261e+01 1 0 0
288 16 2 1.1500000000000000e-01 -1.1727483478431772e+01 4.3106709632426536e+00 2.2922454683927011e+01 1 0 0
271 16 7 -1.1500000000000000e-01 -1.3771989655192176e+01 2.5117574685947859e+00 2.8027744426921068e+01 1 0 0