LAMMPS (15 May 2015)
Reading data file ...
  triclinic box = (-0.107635 -0.0404339 -0.357111) to (41.3876 35.9384 29.5551) with tilt (-0.0672341 -17.0362 -0.0417078)
  5 by 2 by 2 MPI processor grid
  reading atoms ...
  4560 atoms
  reading velocities ...
  4560 velocities
  scanning bonds ...
  3 = max bonds/atom
  scanning angles ...
  3 = max angles/atom
  scanning dihedrals ...
  8 = max dihedrals/atom
  scanning impropers ...
  1 = max impropers/atom
  reading bonds ...
  5040 bonds
  reading angles ...
  7200 angles
  reading dihedrals ...
  10560 dihedrals
  reading impropers ...
  2400 impropers
Finding 1-2 1-3 1-4 neighbors ...
 Special bond factors lj:   0          0          0         
 Special bond factors coul: 0          0          0         
  4 = max # of 1-2 neighbors
  8 = max # of 1-3 neighbors
  20 = max # of 1-4 neighbors
  16 = max # of special neighbors
4560 atoms in group all
720 atoms in group C
480 atoms in group S
1920 atoms in group H
720 atoms in group Si
240 atoms in group Na
240 atoms in group Ba
240 atoms in group O
4560 atoms in group naphthalene
1200 atoms in group fixed
960 atoms in group CO
Setting atom values ...
  720 settings made for charge
Setting atom values ...
  720 settings made for charge
Setting atom values ...
  1920 settings made for charge
Setting atom values ...
  480 settings made for charge
Setting atom values ...
  240 settings made for charge
Setting atom values ...
  240 settings made for charge
Setting atom values ...
  240 settings made for charge
Finding 1-2 1-3 1-4 neighbors ...
 Special bond factors lj:   0          0          0.5       
 Special bond factors coul: 0          0          0.5       
  4 = max # of 1-2 neighbors
  8 = max # of 1-3 neighbors
  20 = max # of 1-4 neighbors
  16 = max # of special neighbors
PPPM initialization ...
  G vector (1/distance) = 0.253736
  grid = 20 18 24
  stencil order = 5
  estimated absolute RMS force accuracy = 0.00131269
  estimated relative force accuracy = 3.95312e-06
  using double precision FFTs
  3d grid and FFT values/proc = 3344 720
Neighbor list info ...
  6 neighbor list requests
  update every 1 steps, delay 0 steps, check yes
  master list distance cutoff = 12
Setting up run ...
Memory usage per processor = 14.3555 Mbytes
Step Temp Density PotEng E_vdwl E_tail E_coul E_long Press Volume Xy Xz Yz E_mol E_bond E_angle E_dihed 14[1] 14[2] 14[3] msd[4] msd2[4] msd3[4] msd4[4] naphthal Cella Cellb Cellc CellAlpha CellBeta CellGamma 27[1] 27[2] 27[3] 
       0          298    1.2509986    2094.9956    -1165.971   -210.22439    2133.4636   -2371.3301    692.32545    44657.537 -0.067234084   -17.036218 -0.041707817     3498.833    1521.0094     935.4334    889.67826    28.379601    18.846571    14.337846 2.3535127e-29 2.7422013e-29 2.2534249e-29 2.2900766e-29          298     41.49527    35.978931    34.423473    90.016431    119.66323    90.107069    28.379761    18.846182    14.337739 
   10000     304.0616    1.2509986    2095.9828   -1181.6919   -210.22439    2132.0532   -2371.8175   -1957.5029    44657.537 -0.067234084   -17.036218 -0.041707817    3517.4389    1535.0728    919.24092    906.79745    28.380213    18.843572    14.338725 0.00031407832 0.00031384804 0.00032368957 0.00032310771     304.0616     41.49527    35.978931    34.423473    90.016431    119.66323    90.107069    28.379385    18.845894    14.337663 
   20000     294.7049    1.2509986    2111.7931   -1177.2207   -210.22439    2137.3428   -2371.6422    459.68373    44657.537 -0.067234084   -17.036218 -0.041707817    3523.3132    1500.3905    955.59012    908.35598    28.378361    18.845194    14.337898 0.00031772653 0.00031752375 0.00033107296 0.00033073601     294.7049     41.49527    35.978931    34.423473    90.016431    119.66323    90.107069    28.380116    18.846096    14.338002 
   30000    304.67932    1.2509986    2155.9413   -1175.9496   -210.22439    2135.9227   -2371.4127    683.33187    44657.537 -0.067234084   -17.036218 -0.041707817    3567.3809    1553.0052    939.26519    911.74276    28.380363    18.845013    14.337652 0.00033576014 0.00033558149 0.00034519097 0.00034497484    304.67932     41.49527    35.978931    34.423473    90.016431    119.66323    90.107069     28.37991    18.846304    14.337363 
   40000    298.84931    1.2509986    2068.6047   -1169.0761   -210.22439    2135.7737   -2371.6013   -91.229643    44657.537 -0.067234084   -17.036218 -0.041707817    3473.5084    1491.4037     899.3066    918.35111    28.377863    18.845874     14.33729 0.00033059084 0.00033030093 0.00033816939 0.00033790523    298.84931     41.49527    35.978931    34.423473    90.016431    119.66323    90.107069    28.379951    18.845832    14.338101 
   50000    304.09972    1.2509986    2172.5731   -1171.0273   -210.22439    2134.4358   -2372.0016    594.78228    44657.537 -0.067234084   -17.036218 -0.041707817    3581.1663    1566.9748    951.49161    903.75742    28.380667     18.84672    14.337576 0.00034941541 0.00034936837 0.00035351859 0.00035340954    304.09972     41.49527    35.978931    34.423473    90.016431    119.66323    90.107069    28.379583    18.846243    14.337847 
   60000    294.70229    1.2509986    2121.4983   -1181.0472   -210.22439    2135.1142    -2371.498    215.18277    44657.537 -0.067234084   -17.036218 -0.041707817    3538.9293    1585.3202    919.80945    880.84139     28.38069    18.845002    14.337269 0.00033171013 0.00033167631 0.0003400765 0.00034001156    294.70229     41.49527    35.978931    34.423473    90.016431    119.66323    90.107069    28.379764    18.846301    14.337599 
   70000    298.75189    1.2509986    2162.4691   -1166.3774   -210.22439    2135.7663   -2371.8803     341.0547    44657.537 -0.067234084   -17.036218 -0.041707817    3564.9605    1583.7722     925.8398    896.54883    28.379209    18.845123    14.337675 0.00032839273 0.00032817716 0.00033769063 0.00033702839    298.75189     41.49527    35.978931    34.423473    90.016431    119.66323    90.107069    28.379338    18.846118    14.337559 
   80000    295.16641    1.2509986    2139.4328   -1182.0427   -210.22439    2133.3709   -2371.9713    283.98799    44657.537 -0.067234084   -17.036218 -0.041707817     3560.076    1595.8767     940.6532    870.03316    28.380164    18.843599     14.33709 0.00034937771 0.00034827619 0.00036092603 0.00035997564    295.16641     41.49527    35.978931    34.423473    90.016431    119.66323    90.107069    28.378888     18.84593    14.337215 
   90000    299.31565    1.2509986     2140.679   -1186.5652   -210.22439    2133.8142   -2372.0058   -759.93366    44657.537 -0.067234084   -17.036218 -0.041707817    3565.4357    1580.8036    945.78056      884.786    28.377795    18.845801    14.337253 0.00034065179 0.00034006626 0.00034750059 0.00034672573    299.31565     41.49527    35.978931    34.423473    90.016431    119.66323    90.107069      28.3791    18.845913    14.337463 
  100000    297.86302    1.2509986    2059.1698   -1188.2775   -210.22439    2139.2521   -2371.6094    456.65279    44657.537 -0.067234084   -17.036218 -0.041707817    3479.8047    1537.9158     910.9464    873.50488    28.380619    18.844642    14.337525 0.00034800805 0.00034790424 0.00035333248 0.0003532447    297.86302     41.49527    35.978931    34.423473    90.016431    119.66323    90.107069    28.379723    18.846098    14.338048 
  110000    289.91688    1.2509986    2009.6804   -1180.3636   -210.22439    2138.4885    -2372.036    460.01734    44657.537 -0.067234084   -17.036218 -0.041707817    3423.5915    1513.4166    922.88386    841.46122    28.378994    18.844369    14.338281 0.00034717501 0.00034682729 0.00035194223 0.00035165846    289.91688     41.49527    35.978931    34.423473    90.016431    119.66323    90.107069     28.38013    18.846182    14.338199 
  120000    305.19523    1.2509986    2070.6021   -1191.2754   -210.22439    2133.1701   -2372.0146     -738.866    44657.537 -0.067234084   -17.036218 -0.041707817    3500.7219      1535.72    955.23809    861.70281    28.379899    18.845318    14.337093 0.00034474475 0.00034462681 0.00034939013 0.00034938784    305.19523     41.49527    35.978931    34.423473    90.016431    119.66323    90.107069    28.379544     18.84623    14.337477 
  130000    303.01311    1.2509986    2103.3102   -1179.5016   -210.22439    2132.2397   -2371.5925   -1045.5747    44657.537 -0.067234084   -17.036218 -0.041707817    3522.1645    1540.5396    950.65991    877.19195     28.38203    18.844535    14.339016 0.00035058844 0.00035012566 0.00035460747 0.00035410352    303.01311     41.49527    35.978931    34.423473    90.016431    119.66323    90.107069    28.379309    18.845676    14.337788 
  140000    297.66695    1.2509986    2006.4341   -1176.0014   -210.22439    2134.7665   -2371.3519    492.52882    44657.537 -0.067234084   -17.036218 -0.041707817     3419.021    1501.4941    888.79132    873.25306    28.377402    18.845234    14.336513 0.00035328699 0.00035307712 0.00035710352 0.00035685228    297.66695     41.49527    35.978931    34.423473    90.016431    119.66323    90.107069    28.379991    18.846263    14.337351 
  150000    299.70374    1.2509986    2006.9645   -1160.0145   -210.22439    2133.6019   -2371.8913     1761.897    44657.537 -0.067234084   -17.036218 -0.041707817    3405.2684     1520.915    906.79269    829.98977    28.380563    18.845983    14.337426 0.00035167145  0.000351464 0.00035974751 0.00035945413    299.70374     41.49527    35.978931    34.423473    90.016431    119.66323    90.107069    28.379831    18.845737     14.33767 
  160000    302.40092    1.2509986    2039.5815   -1182.9403   -210.22439    2130.2168   -2371.9909   -577.80401    44657.537 -0.067234084   -17.036218 -0.041707817     3464.296    1512.6235    918.07445    880.51904    28.379567    18.846269    14.337339 0.00034876343 0.00034861755 0.00034719955 0.00034691208    302.40092     41.49527    35.978931    34.423473    90.016431    119.66323    90.107069    28.379442    18.846381    14.337673 
  170000    301.88679    1.2509986    2071.3824   -1182.7423   -210.22439    2134.6327   -2371.6565    543.37659    44657.537 -0.067234084   -17.036218 -0.041707817    3491.1486    1570.9905      928.278    846.31115    28.380309    18.844445    14.337589 0.00036647178 0.00036618661 0.00037200888 0.00037176635    301.88679     41.49527    35.978931    34.423473    90.016431    119.66323    90.107069    28.379504    18.846319    14.337292 
  180000    294.08639    1.2509986    2006.5074   -1182.9771   -210.22439    2133.5457   -2372.0401    867.93916    44657.537 -0.067234084   -17.036218 -0.041707817    3427.9789    1570.1044    881.12716    831.56199    28.379557     18.84517    14.337767 0.00034777467 0.00034693287 0.00035040357 0.00034943789    294.08639     41.49527    35.978931    34.423473    90.016431    119.66323    90.107069    28.380226    18.846506    14.338461 
  190000    299.69407    1.2509986    2081.4614   -1187.4932   -210.22439    2135.7958   -2371.4827    42.434502    44657.537 -0.067234084   -17.036218 -0.041707817    3504.6414    1550.9909    952.33696     851.3611    28.377157    18.845009    14.336178 0.00035378491 0.00035371606 0.00035884469 0.00035880769    299.69407     41.49527    35.978931    34.423473    90.016431    119.66323    90.107069    28.379923    18.845999    14.337834 
  200000    299.44887    1.2509986     2060.002   -1161.4324   -210.22439    2135.6713   -2371.9474    1517.8999    44657.537 -0.067234084   -17.036218 -0.041707817    3457.7106    1521.8773    909.28112    873.08588    28.380069    18.843902    14.338249 0.00035369392 0.00035332362 0.00035685445 0.00035623498    299.44887     41.49527    35.978931    34.423473    90.016431    119.66323    90.107069     28.37968    18.845597    14.337885 
Loop time of 522.602 on 20 procs for 200000 steps with 4560 atoms

Pair  time (%) = 326.151 (62.4091)
Bond  time (%) = 34.3827 (6.57913)
Kspce time (%) = 118.95 (22.7612)
Neigh time (%) = 4.37913 (0.837946)
Comm  time (%) = 23.68 (4.53116)
Outpt time (%) = 0.0642318 (0.0122908)
Other time (%) = 14.9945 (2.8692)

Nlocal:    228 ave 239 max 223 min
Histogram: 2 7 1 4 1 2 2 0 0 1
Nghost:    5779.45 ave 5828 max 5748 min
Histogram: 2 1 2 7 4 1 1 0 1 1
Neighs:    84320.6 ave 88706 max 81665 min
Histogram: 1 5 3 4 2 1 1 1 1 1

Total # of neighbors = 1686413
Ave neighs/atom = 369.827
Ave special neighs/atom = 10.6316
Neighbor list builds = 926
Dangerous builds = 0
System init for write_data ...
PPPM initialization ...
  G vector (1/distance) = 0.253736
  grid = 20 18 24
  stencil order = 5
  estimated absolute RMS force accuracy = 0.00131269
  estimated relative force accuracy = 3.95312e-06
  using double precision FFTs
  3d grid and FFT values/proc = 3344 720
