LAMMPS data file via write_data, version 15 May 2015, timestep = 1000000

4560 atoms
7 atom types
5040 bonds
3 bond types
7200 angles
2 angle types
10560 dihedrals
3 dihedral types
2400 impropers
1 improper types

-1.0763502675555259e-01 4.1387635026745990e+01 xlo xhi
-4.0433884491974936e-02 3.5938433884472119e+01 ylo yhi
-3.5711112484589691e-01 2.9555111124838550e+01 zlo zhi
-6.7234083837551181e-02 -1.7036217651000683e+01 -4.1707816797290791e-02 xy xz yz

Masses

1 12.0107
2 1.008
3 12.0107
4 12.0107
5 12.0107
6 12.0107
7 12.0107

Pair Coeffs # lj/cut/coul/long

1 0.07 3.55
2 0.03 2.42
3 0.07 3.55
4 0.07 3.55
5 0.07 3.55
6 0 0
7 0.07 3.55

Bond Coeffs # harmonic

1 469 1.4
2 367 1.08
3 469 0.7

Angle Coeffs # harmonic

1 35 120
2 63 120

Dihedral Coeffs # opls

1 0 7.25 0 0
2 0 7.25 0 0
3 0 7.25 0 0

Improper Coeffs # cvff

1 2.5 -1 2

Atoms # full

219 13 3 0.0000000000000000e+00 -3.2443690542109938e-01 3.1232448376150308e+00 3.1233414050727362e+00 1 0 0
220 13 4 -1.1500000000000000e-01 3.2095091975021584e-01 4.1174011651229847e+00 2.3697118692443842e+00 1 0 0
224 13 2 1.1500000000000000e-01 5.1652419209717704e-01 5.1106989766051525e+00 2.7388547000407408e+00 1 0 0
580 33 4 -1.1500000000000000e-01 2.6804716387698959e+00 6.7485396268262621e+00 3.9788038616372292e+00 1 0 0
228 13 3 0.0000000000000000e+00 -5.6113867586400934e-01 1.8272735099052666e+00 2.5747725708426259e+00 1 0 0
989 53 4 -1.1500000000000000e-01 -1.3629812795681486e+00 7.0378483631788153e+00 3.5172715380816033e+00 1 0 0
600 34 2 1.1500000000000000e-01 1.3568299296749231e-01 5.8541581828756275e+00 6.8901207168705447e+00 1 0 0
245 14 4 -1.1500000000000000e-01 -4.9397280295263011e+00 1.4315574506804924e+00 9.0523013552281277e+00 1 0 0
227 13 4 -1.1500000000000000e-01 -1.8240859237035045e-01 1.5598042618619405e+00 1.2410697900994512e+00 1 0 0
4390 233 1 -1.1500000000000000e-01 2.4430256831422419e+00 7.5785381823712195e-01 5.5153876117300058e+00 1 1 0
733 13 6 0.0000000000000000e+00 -4.4951389952941567e-01 2.4163481268543583e+00 2.9430586844827831e+00 1 0 0
1009 54 2 1.1500000000000000e-01 -3.5240338582239579e+00 7.5059976045061516e+00 6.9057121159016459e+00 1 0 0
230 13 1 -1.1500000000000000e-01 7.9823955540590796e-01 3.8576822181346024e+00 1.0511115277736305e+00 1 0 0
217 13 7 -1.1500000000000000e-01 -1.1736993986535089e+00 2.3366488074165788e+00 5.2627064345545751e+00 1 0 0
218 13 5 -1.1500000000000000e-01 -6.2313698725810029e-01 3.3856570606337617e+00 4.4953001854997501e+00 1 0 0
221 13 1 -1.1500000000000000e-01 -1.4760723485108207e+00 1.1047275843758808e+00 4.6878846984284150e+00 1 0 0
222 13 2 1.1500000000000000e-01 -1.5425911850694076e+00 2.5437666802482286e+00 6.2804243368454147e+00 1 0 0
223 13 2 1.1500000000000000e-01 -3.8061017166129441e-01 4.3847235102319262e+00 4.8735916622004307e+00 1 0 0
248 14 1 -1.1500000000000000e-01 -3.6148864861625229e+00 3.4157649701287296e+00 8.6603670574956517e+00 1 0 0
4380 233 4 -1.1500000000000000e-01 2.5580234097763466e+00 1.1163282465319917e+00 4.1566434341746241e+00 1 1 0
244 14 1 -1.1500000000000000e-01 -4.2304345661335647e+00 2.2667169395329081e+00 8.1675305206048581e+00 1 0 0
603 34 2 1.1500000000000000e-01 9.3168884669572893e-01 3.5357342963365523e+00 7.5291993602240757e+00 1 0 0
4396 234 5 -1.1500000000000000e-01 -7.7087212265766247e-01 2.1118442040590521e-01 9.2436448248422138e+00 1 1 0
4394 233 2 1.1500000000000000e-01 1.9214937751109753e+00 1.3959277173667564e+00 6.1929869511864748e+00 1 1 0
579 33 3 0.0000000000000000e+00 3.3688971574043989e+00 5.8374051079924900e+00 3.1731740824964669e+00 1 0 0
252 14 2 1.1500000000000000e-01 -2.9988196775488785e+00 3.9630193286668720e+00 7.9106091436971617e+00 1 0 0
581 33 1 -1.1500000000000000e-01 4.6911397768610961e+00 4.0465848712645567e+00 1.5335516797100324e+00 1 0 0
596 34 5 -1.1500000000000000e-01 -5.3966152132535417e-01 6.3612752770524352e+00 8.9035070680594846e+00 1 0 0
577 33 7 -1.1500000000000000e-01 4.1586594896117219e+00 5.2292762268959354e+00 9.4861122005326592e-01 1 0 0
588 33 3 0.0000000000000000e+00 3.9056170024991479e+00 4.6487164606747395e+00 3.7460486867524914e+00 1 0 0
589 33 4 -1.1500000000000000e-01 4.5297519739712122e+00 3.7277557056750816e+00 2.8720309196242000e+00 1 0 0
593 33 2 1.1500000000000000e-01 5.0012849589688555e+00 2.8266897662761914e+00 3.2905701171539605e+00 1 0 0
753 33 6 0.0000000000000000e+00 3.6529516268356490e+00 5.1941322779765136e+00 3.3069078723600378e+00 1 0 0
4383 233 2 1.1500000000000000e-01 2.8740450088135505e+00 1.3958974971484126e+00 1.4758227629293927e+00 1 1 0
4379 233 3 0.0000000000000000e+00 3.2804094908824348e+00 2.3041425888434708e-01 3.3241715790673401e+00 1 1 0
578 33 5 -1.1500000000000000e-01 3.4947817236486123e+00 6.1262002628827101e+00 1.8093057119232028e+00 1 0 0
226 13 1 -1.1500000000000000e-01 4.5668481538772182e-01 2.5996410635570824e+00 4.8873048981721812e-01 1 0 0
4384 233 2 1.1500000000000000e-01 2.0853524532837491e+00 1.9950266021704692e+00 3.8080304645400496e+00 1 1 0
586 33 1 -1.1500000000000000e-01 3.0104331132492974e+00 5.3106427455163194e+00 5.9613508593764912e+00 1 0 0
587 33 4 -1.1500000000000000e-01 3.7891177121264414e+00 4.4174445896709100e+00 5.1849024927708101e+00 1 0 0
585 33 2 1.1500000000000000e-01 5.2582556773277247e+00 3.3575454887757239e+00 9.7344625632417481e-01 1 0 0
591 33 2 1.1500000000000000e-01 2.9079908973851936e+00 5.2030371008719269e+00 7.0021983834579897e+00 1 0 0
592 33 2 1.1500000000000000e-01 4.1974353820197656e+00 3.5121579501064080e+00 5.6537227888471797e+00 1 0 0
590 33 1 -1.1500000000000000e-01 2.4317924496315735e+00 6.4792601139529697e+00 5.3365846256775296e+00 1 0 0
1353 73 2 1.1500000000000000e-01 5.0291904360045869e+00 8.8414331967646280e+00 2.9882633118513398e+00 1 0 0
234 13 2 1.1500000000000000e-01 1.4396686066303723e+00 4.5430288846098330e+00 5.2635575416468261e-01 1 0 0
229 13 4 -1.1500000000000000e-01 -1.2182699331037674e+00 8.5342439674394510e-01 3.3276005906489168e+00 1 0 0
993 53 2 1.1500000000000000e-01 -1.7360714297739226e+00 6.0676854922103658e+00 3.0718083841286079e+00 1 0 0
985 53 2 1.1500000000000000e-01 -1.6356225537399665e+00 6.2760692169261239e+00 5.4859137869338888e+00 1 0 0
599 34 1 -1.1500000000000000e-01 4.4580032965555016e-01 4.2285993036924081e+00 8.2377176917848356e+00 1 0 0
4401 234 2 1.1500000000000000e-01 -1.1024187092915740e+00 1.1599136479280023e+00 8.9080795428349990e+00 1 1 0
225 13 2 1.1500000000000000e-01 -2.0557394392874482e+00 4.1975121128887555e-01 5.2883979402781831e+00 1 0 0
595 34 7 -1.1500000000000000e-01 -5.8191833740623977e-03 5.5102795982690393e+00 7.8996852752787241e+00 1 0 0
981 53 1 -1.1500000000000000e-01 -1.3145256360932884e+00 7.1737012438497905e+00 4.9205574385708344e+00 1 0 0
4378 233 5 -1.1500000000000000e-01 3.4389498284950024e+00 5.2578501908722297e-01 1.9318600260402254e+00 1 1 0
582 33 2 1.1500000000000000e-01 4.2982464712790494e+00 5.5303442079185441e+00 -8.1331533853482518e-02 1 0 0
583 33 2 1.1500000000000000e-01 3.1997456900605838e+00 7.1763861898135053e+00 1.4819453071394766e+00 1 0 0
986 53 1 -1.1500000000000000e-01 -2.3546920158249174e-01 8.9208906464623148e+00 5.1530374860754113e-01 1 0 0
232 13 2 1.1500000000000000e-01 -4.4711892954376020e-01 5.9355887968917909e-01 8.0038685077732641e-01 1 0 0
1493 53 6 0.0000000000000000e+00 -5.5684658068531778e-01 8.6710700286566027e+00 2.9609956419335908e+00 1 0 0
987 53 4 -1.1500000000000000e-01 -7.9280641744998015e-01 7.9807377385930245e+00 1.3280860097528644e+00 1 0 0
1005 54 4 -1.1500000000000000e-01 -4.5090017478659501e+00 7.2113776375355529e+00 8.8927438736760802e+00 1 0 0
594 33 2 1.1500000000000000e-01 1.8236412191347777e+00 7.1749705236690424e+00 5.8209853663841651e+00 1 0 0
977 53 7 -1.1500000000000000e-01 -7.4250043987525505e-01 8.3017958941289773e+00 5.5345359706366226e+00 1 0 0
982 53 2 1.1500000000000000e-01 -6.8652158064453417e-01 8.3733089535198602e+00 6.6527127964193049e+00 1 0 0
1004 54 1 -1.1500000000000000e-01 -3.6875495930012594e+00 7.8467487126398261e+00 7.9225270189138630e+00 1 0 0
988 53 3 0.0000000000000000e+00 -7.5886829820097756e-01 8.0166858674122992e+00 2.7116777951828506e+00 1 0 0
1010 54 2 1.1500000000000000e-01 -4.9713692020503961e+00 6.2448509153353466e+00 8.6313370759234846e+00 1 0 0
601 34 2 1.1500000000000000e-01 -9.2353830450046281e-01 7.3161127872543297e+00 8.5941862698267730e+00 1 0 0
584 33 2 1.1500000000000000e-01 2.4038711923462559e+00 7.7011939250956303e+00 3.5484540552528108e+00 1 0 0
1064 57 2 1.1500000000000000e-01 7.3142200029026734e+00 6.4098732188083032e+00 8.8061644700140462e-01 1 0 0
249 14 2 1.1500000000000000e-01 -4.3021171594160696e+00 2.0148405771100322e+00 7.1443476859746919e+00 1 0 0
235 14 7 -1.1500000000000000e-01 -5.2419457676837506e+00 2.3011691715670342e+00 1.3165075661320593e+01 1 0 0
236 14 5 -1.1500000000000000e-01 -4.5590667451372404e+00 3.1683360853013376e+00 1.2357544580973318e+01 1 0 0
597 34 3 0.0000000000000000e+00 -6.2252243091971238e-01 5.9101618784346686e+00 1.0234285234037015e+01 1 0 0
734 14 6 0.0000000000000000e+00 -4.6312488477076910e+00 2.3461999913858240e+00 1.0502308301745428e+01 1 0 0
239 14 1 -1.1500000000000000e-01 -5.8692971152733087e+00 1.1242720160109967e+00 1.2635084539317198e+01 1 0 0
240 14 2 1.1500000000000000e-01 -5.1421950757723307e+00 2.6025671925944724e+00 1.4250946073791356e+01 1 0 0
243 14 2 1.1500000000000000e-01 -6.3542393494468898e+00 4.6146937495204232e-01 1.3277515764480095e+01 1 0 0
4416 235 4 -1.1500000000000000e-01 -5.8572810177880825e+00 8.9068734698087815e-01 1.9051167760784921e+01 1 1 0
4420 235 2 1.1500000000000000e-01 -6.1547583541822801e+00 1.8610609934006901e+00 1.8793354741018685e+01 1 1 0
237 14 3 0.0000000000000000e+00 -4.3775540398591950e+00 2.8768336291290044e+00 1.0940671386372951e+01 1 0 0
4402 234 2 1.1500000000000000e-01 -1.9104070968266313e+00 1.7471444582677502e+00 1.1096406213470891e+01 1 1 0
1022 55 1 -1.1500000000000000e-01 -8.4846342152565519e+00 8.3810509797243160e+00 1.5253139875136009e+01 1 0 0
242 14 2 1.1500000000000000e-01 -3.2072529339128550e+00 4.6731103896939690e+00 1.0383528181239720e+01 1 0 0
255 15 3 0.0000000000000000e+00 -8.7811756732590407e+00 3.0945551825750077e+00 1.8172263912277018e+01 1 0 0
256 15 4 -1.1500000000000000e-01 -8.0249820370696323e+00 3.8674229072122408e+00 1.7184589143638721e+01 1 0 0
260 15 2 1.1500000000000000e-01 -7.5072701400311264e+00 4.7592542924616899e+00 1.7489832922933683e+01 1 0 0
620 35 2 1.1500000000000000e-01 -6.4142523464453518e+00 7.4716535014155960e+00 1.9087169039150062e+01 1 0 0
4414 235 5 -1.1500000000000000e-01 -4.8839434836590803e+00 3.3052804080022602e-01 1.6866987836738200e+01 1 1 0
264 15 3 0.0000000000000000e+00 -9.3337236872029408e+00 1.8865469692691901e+00 1.7797440622796973e+01 1 0 0
262 15 1 -1.1500000000000000e-01 -8.4520568476247320e+00 2.1158059125095288e+00 1.5571624051377961e+01 1 0 0
266 15 1 -1.1500000000000000e-01 -7.8259579853526136e+00 3.3475340214044147e+00 1.5886558022371474e+01 1 0 0
4408 234 1 -1.1500000000000000e-01 -1.9333038722437275e+00 3.0068864188805622e-01 1.2718080781766590e+01 1 1 0
238 14 4 -1.1500000000000000e-01 -3.6910462650132896e+00 3.7348276299666239e+00 1.0012622499253796e+01 1 0 0
263 15 4 -1.1500000000000000e-01 -9.1737089453005183e+00 1.3837733139818429e+00 1.6513739157734431e+01 1 0 0
735 15 6 0.0000000000000000e+00 -8.9146548177255642e+00 2.4153848668811566e+00 1.8045296855582492e+01 1 0 0
246 14 3 0.0000000000000000e+00 -5.0258763126782817e+00 1.7490629783043534e+00 1.0415871068731331e+01 1 0 0
265 15 4 -1.1500000000000000e-01 -1.0058951099166613e+01 1.1171394982616094e+00 1.8749798110393254e+01 1 0 0
604 34 1 -1.1500000000000000e-01 -1.0264791332368688e+00 4.9198554932985958e+00 1.2785756497725536e+01 1 0 0
605 34 4 -1.1500000000000000e-01 -3.9779495359882944e-01 4.1140594530512642e+00 1.1887542078825449e+01 1 0 0
606 34 3 0.0000000000000000e+00 -1.4033836495721630e-01 4.6062769756152724e+00 1.0595046163317699e+01 1 0 0
995 54 7 -1.1500000000000000e-01 -5.3718365267241577e+00 8.8932769863856560e+00 1.2648980141329725e+01 1 0 0
1007 54 4 -1.1500000000000000e-01 -5.7187501475545117e+00 7.1442521622943396e+00 1.1061130065291863e+01 1 0 0
251 14 2 1.1500000000000000e-01 -6.2754331873440625e+00 -7.3767832126535680e-03 1.0799562835258648e+01 1 0 0
610 34 2 1.1500000000000000e-01 -9.1998578747710447e-02 3.1148304436252752e+00 1.2161875497243136e+01 1 0 0
241 14 2 1.1500000000000000e-01 -3.9756572242413704e+00 3.9203512572665686e+00 1.2880059125338306e+01 1 0 0
1011 54 2 1.1500000000000000e-01 -6.0633829352410791e+00 6.1363348754629810e+00 1.0877338314613118e+01 1 0 0
598 34 4 -1.1500000000000000e-01 -1.1648760165881509e+00 6.7756920953216584e+00 1.1208079467103152e+01 1 0 0
754 34 6 0.0000000000000000e+00 -4.4123278266755950e-01 5.2856843450095017e+00 1.0476263994748058e+01 1 0 0
609 34 2 1.1500000000000000e-01 -1.0576289436248789e+00 4.5625495029546306e+00 1.3788928534973470e+01 1 0 0
613 35 7 -1.1500000000000000e-01 -4.5304082004274129e+00 5.6098308111730049e+00 1.6111869519799686e+01 1 0 0
618 35 2 1.1500000000000000e-01 -4.4101921620722209e+00 6.0523772627655816e+00 1.5155223070714912e+01 1 0 0
615 35 3 0.0000000000000000e+00 -5.2403130410098742e+00 5.7618928387181834e+00 1.8383435539997507e+01 1 0 0
617 35 1 -1.1500000000000000e-01 -3.9538573283592653e+00 4.3211347769246151e+00 1.6342588458122272e+01 1 0 0
621 35 2 1.1500000000000000e-01 -3.4204533724545225e+00 3.7177107733018904e+00 1.5589490954218533e+01 1 0 0
624 35 3 0.0000000000000000e+00 -4.6872616265480147e+00 4.4848380297026971e+00 1.8666307719002567e+01 1 0 0
625 35 4 -1.1500000000000000e-01 -4.0231909278464180e+00 3.7807513676599287e+00 1.7621098675923800e+01 1 0 0
629 35 2 1.1500000000000000e-01 -3.6046294501637597e+00 2.7845570198400935e+00 1.7825518741853070e+01 1 0 0
755 35 6 0.0000000000000000e+00 -4.9529297464400255e+00 5.1000925978734539e+00 1.8434652292473526e+01 1 0 0
270 15 2 1.1500000000000000e-01 -7.3454965814756106e+00 4.0156930119498355e+00 1.5197635140742523e+01 1 0 0
4398 234 4 -1.1500000000000000e-01 -1.5964326345957405e+00 7.5206382894166912e-01 1.1424715909564078e+01 1 1 0
4412 234 2 1.1500000000000000e-01 -2.5482741070720074e+00 1.0368307689580414e+00 1.3239973790900164e+01 1 1 0
614 35 5 -1.1500000000000000e-01 -5.1882250130213796e+00 6.3172453416297811e+00 1.7093774667097506e+01 1 0 0
247 14 4 -1.1500000000000000e-01 -5.7431629969691764e+00 8.6482160737905023e-01 1.1240771952312571e+01 1 0 0
4419 235 2 1.1500000000000000e-01 -5.1992121139828953e+00 1.2915167556569818e+00 1.6496223339224070e+01 1 1 0
1025 55 4 -1.1500000000000000e-01 -9.8198346412347668e+00 6.7586821289446748e+00 1.8334269008237911e+01 1 0 0
608 34 1 -1.1500000000000000e-01 -1.4336371015364833e+00 6.2634003897412782e+00 1.2511264327882165e+01 1 0 0
616 35 4 -1.1500000000000000e-01 -5.9463541512140425e+00 6.5352207718577056e+00 1.9388181281798282e+01 1 0 0
612 34 2 1.1500000000000000e-01 -1.9864148044121519e+00 6.8498859729388526e+00 1.3290460131048683e+01 1 0 0
269 15 2 1.1500000000000000e-01 -1.0482728572072828e+01 1.2138584485935877e-01 1.8468781959738074e+01 1 0 0
1006 54 3 0.0000000000000000e+00 -4.7884670730391488e+00 7.7546333261032201e+00 1.0168676067039078e+01 1 0 0
254 15 5 -1.1500000000000000e-01 -8.9339822454012445e+00 3.5817270148094007e+00 1.9495396398564534e+01 1 0 0
1029 55 2 1.1500000000000000e-01 -1.0416919929021956e+01 5.9762427714141682e+00 1.7966804491344654e+01 1 0 0
1023 55 4 -1.1500000000000000e-01 -9.1497552516531755e+00 7.4523563628111438e+00 1.6094983897536586e+01 1 0 0
619 35 2 1.1500000000000000e-01 -5.6160869364746819e+00 7.2892405903620965e+00 1.6859924190663644e+01 1 0 0
1015 55 3 0.0000000000000000e+00 -8.4416754710725428e+00 8.7452480410134665e+00 1.8058523952885462e+01 1 0 0
1494 54 6 0.0000000000000000e+00 -4.5757397556990300e+00 8.4195674414499653e+00 1.0313602254220411e+01 1 0 0
1003 54 2 1.1500000000000000e-01 -6.6394645002179349e+00 7.1724098447751512e+00 1.2971500602714213e+01 1 0 0
1495 55 6 0.0000000000000000e+00 -8.8357960242431712e+00 8.2804325608296772e+00 1.7643783242810358e+01 1 0 0
999 54 1 -1.1500000000000000e-01 -6.0138005681775626e+00 7.7611985426440873e+00 1.2288764792350706e+01 1 0 0
602 34 2 1.1500000000000000e-01 -1.6295093054435199e+00 7.7365089310983182e+00 1.0987056402551076e+01 1 0 0
1024 55 3 0.0000000000000000e+00 -9.1393838782469228e+00 7.6361462573923369e+00 1.7524334571072089e+01 1 0 0
611 34 2 1.1500000000000000e-01 8.1777027508829114e-01 2.7544684136598114e+00 9.7430847469496129e+00 1 0 0
4415 235 3 0.0000000000000000e+00 -5.1386903809807176e+00 -1.6606361527586065e-02 1.8221800807474200e+01 1 1 0
267 15 2 1.1500000000000000e-01 -8.4699917682330792e+00 1.7630400838422491e+00 1.4604026042656386e+01 1 0 0
1389 75 2 1.1500000000000000e-01 -3.2080528947706259e+00 8.8197965703391379e+00 1.7009720409556873e+01 1 0 0
340 19 2 1.1500000000000000e-01 -1.2269811108366238e+00 6.3065314821553620e-01 1.6142122920052358e+01 1 0 0
1027 55 2 1.1500000000000000e-01 -8.3474152773227388e+00 8.0777049587534417e+00 1.4188941731662824e+01 1 0 0
4418 235 2 1.1500000000000000e-01 -4.0453275320482192e+00 -4.1695157765479218e-02 1.5007146195548229e+01 1 1 0
607 34 4 -1.1500000000000000e-01 4.1317531358856918e-01 3.7632880377417304e+00 9.6145369532488463e+00 1 0 0
280 16 1 -1.1500000000000000e-01 -1.2782956393854798e+01 2.4303377181122734e+00 2.3102625879340156e+01 1 0 0
1045 56 2 1.1500000000000000e-01 -1.2532762498318087e+01 7.4961167683450203e+00 2.2054047340582724e+01 1 0 0
258 15 2 1.1500000000000000e-01 -9.4913740129244353e+00 3.1122431774616945e+00 2.1490345752849148e+01 1 0 0
634 36 4 -1.1500000000000000e-01 -1.0202833910249165e+01 6.4051557248786191e+00 2.6187421070757672e+01 1 0 0
4433 236 3 0.0000000000000000e+00 -9.5237443236711172e+00 2.6918496459052019e-02 2.5628557557222972e+01 1 1 0
257 15 1 -1.1500000000000000e-01 -1.0023573649452999e+01 1.5483053642710327e+00 2.0125506782958848e+01 1 0 0
284 16 1 -1.1500000000000000e-01 -1.2240323102152406e+01 3.6108601542240915e+00 2.3565899852064398e+01 1 0 0
279 16 2 1.1500000000000000e-01 -1.4635700157825582e+01 5.7767579065805919e-01 2.8338449763553161e+01 1 0 0
4436 236 2 1.1500000000000000e-01 -9.0199744532175963e+00 1.3192536184955322e-01 2.2230510828921766e+01 1 1 0
288 16 2 1.1500000000000000e-01 -1.1756996583493667e+01 4.3237766394118049e+00 2.2897741938324266e+01 1 0 0
271 16 7 -1.1500000000000000e-01 -1.3741015832564031e+01 2.4520846881845939e+00 2.8092775256472393e+01 1 0 0
272 16 5 -1.1500000000000000e-01 -1.3181986370919240e+01 3.3729347955787534e+00 2.7158451059921489e+01 1 0 0
273 16 3 0.0000000000000000e+00 -1.2957973477790681e+01 3.0222695076875858e+00 2.5839147105290944e+01 1 0 0
274 16 4 -1.1500000000000000e-01 -1.2308505195196172e+01 3.9349310064532905e+00 2.4932416525139544e+01 1 0 0
275 16 1 -1.1500000000000000e-01 -1.4206047921718319e+01 1.2320358701885836e+00 2.7627381810149572e+01 1 0 0
259 15 2 1.1500000000000000e-01 -8.5005829811946771e+00 4.5683666190649932e+00 1.9727950104456220e+01 1 0 0
277 16 2 1.1500000000000000e-01 -1.2908677616497327e+01 4.3107015226741243e+00 2.7538005906926553e+01 1 0 0
278 16 2 1.1500000000000000e-01 -1.2037135564656371e+01 4.9250517305067971e+00 2.5189978653442456e+01 1 0 0
261 15 2 1.1500000000000000e-01 -1.0478599331013388e+01 9.6458190631739504e-01 2.0928779274147178e+01 1 0 0
282 16 3 0.0000000000000000e+00 -1.3412465733950464e+01 1.7851664606338029e+00 2.5389668115486778e+01 1 0 0
1043 56 4 -1.1500000000000000e-01 -1.4406546383851527e+01 7.1012812857914911e+00 2.6237223303151154e+01 1 0 0
736 16 6 0.0000000000000000e+00 -1.3225239691995206e+01 2.3982545655285779e+00 2.5728321581278383e+01 1 0 0
632 36 5 -1.1500000000000000e-01 -9.2636857992875932e+00 6.1128784600521380e+00 2.3877127604880588e+01 1 0 0
636 36 2 1.1500000000000000e-01 -8.4717634941227224e+00 5.7305725647247732e+00 2.1905300517978876e+01 1 0 0
4438 236 2 1.1500000000000000e-01 -1.0665590152594557e+01 1.6683677223620625e+00 2.6245025743944844e+01 1 1 0
253 15 7 -1.1500000000000000e-01 -9.4613206044477245e+00 2.7925330554644048e+00 2.0454403281233887e+01 1 0 0
623 35 4 -1.1500000000000000e-01 -4.8063624576291994e+00 3.9872186783950223e+00 2.0016413217282675e+01 1 0 0
627 35 2 1.1500000000000000e-01 -5.5445385026303535e+00 4.3598302311040387e+00 2.2003747602927636e+01 1 0 0
644 36 1 -1.1500000000000000e-01 -1.0478162593147864e+01 5.8826458305229936e+00 2.7467920447126176e+01 1 0 0
631 36 7 -1.1500000000000000e-01 -8.5815748976891761e+00 5.3275748568582459e+00 2.2908547840383132e+01 1 0 0
635 36 1 -1.1500000000000000e-01 -7.9658792089306374e+00 4.1610068523628252e+00 2.3415155653248686e+01 1 0 0
628 35 2 1.1500000000000000e-01 -4.3511259930915234e+00 3.0360488900641949e+00 2.0244275454948543e+01 1 0 0
639 36 2 1.1500000000000000e-01 -7.2750849978158731e+00 3.6258767714988478e+00 2.2703913516495238e+01 1 0 0
283 16 4 -1.1500000000000000e-01 -1.4103695016723991e+01 9.3653699864795459e-01 2.6271611301849507e+01 1 0 0
4430 235 2 1.1500000000000000e-01 -6.6857043931227738e+00 1.0225170649635478e+00 2.0979889080938879e+01 1 1 0
4444 236 1 -1.1500000000000000e-01 -1.0188728972012434e+01 3.9450463492581306e-01 2.7946633300867894e+01 1 1 0
638 36 2 1.1500000000000000e-01 -1.0775564891383411e+01 7.3011954132683901e+00 2.5950389938512199e+01 1 0 0
633 36 3 0.0000000000000000e+00 -9.4126871797962579e+00 5.6667293131242911e+00 2.5252880497146968e+01 1 0 0
4437 236 2 1.1500000000000000e-01 -1.0134750144859934e+01 1.4234576467885176e+00 2.4003871809969873e+01 1 1 0
640 36 1 -1.1500000000000000e-01 -9.8886495592360522e+00 4.6996719853317668e+00 2.7889324794246917e+01 1 0 0
641 36 4 -1.1500000000000000e-01 -8.9959439374327008e+00 4.0277707505030662e+00 2.7021170528561822e+01 1 0 0
642 36 3 0.0000000000000000e+00 -8.8759015396419123e+00 4.4721171458706239e+00 2.5673772188841074e+01 1 0 0
643 36 4 -1.1500000000000000e-01 -8.0633383685305660e+00 3.6888121510836069e+00 2.4757250750249202e+01 1 0 0
622 35 1 -1.1500000000000000e-01 -5.4738084026323932e+00 4.7618080112828798e+00 2.0990181301025959e+01 1 0 0
646 36 2 1.1500000000000000e-01 -8.4382827164061691e+00 3.1338847230763456e+00 2.7369883779021801e+01 1 0 0
647 36 2 1.1500000000000000e-01 -7.6554108059987378e+00 2.7406567870132799e+00 2.4992226020723045e+01 1 0 0
756 36 6 0.0000000000000000e+00 -9.2963651205456550e+00 4.9538316179291861e+00 2.5381439080828159e+01 1 0 0
281 16 4 -1.1500000000000000e-01 -1.3360677151163040e+01 1.4655536462100367e+00 2.4000299218878851e+01 1 0 0
4434 236 4 -1.1500000000000000e-01 -1.0215904425595749e+01 8.1588861437249149e-01 2.6572234198617792e+01 1 1 0
1047 56 2 1.1500000000000000e-01 -1.4878101298909058e+01 6.1892611306637848e+00 2.6057095373163193e+01 1 0 0
1042 56 3 0.0000000000000000e+00 -1.3579422556885698e+01 7.8053405516534431e+00 2.5280588816569978e+01 1 0 0
648 36 2 1.1500000000000000e-01 -1.1211849346020546e+01 6.2921220403153866e+00 2.8143568558820139e+01 1 0 0
4432 236 5 -1.1500000000000000e-01 -9.5478240452850880e+00 4.9164140728528455e-01 2.4277520192314356e+01 1 1 0
1039 56 2 1.1500000000000000e-01 -1.5033680146246057e+01 7.1653180422045413e+00 2.8302367281729474e+01 1 0 0
626 35 1 -1.1500000000000000e-01 -6.0591042424491901e+00 6.0313630990294120e+00 2.0661957531924919e+01 1 0 0
4448 236 2 1.1500000000000000e-01 -1.0742673901896222e+01 1.0574514175702676e+00 2.8663321890219507e+01 1 1 0
4426 235 1 -1.1500000000000000e-01 -6.1531830296613705e+00 4.2288484440326257e-01 2.0319252785591306e+01 1 1 0
276 16 2 1.1500000000000000e-01 -1.3847805048298564e+01 2.7050393661518610e+00 2.9103761140199332e+01 1 0 0
630 35 2 1.1500000000000000e-01 -6.4471798361742287e+00 6.6231537042597521e+00 2.1434399423656924e+01 1 0 0
1021 55 2 1.1500000000000000e-01 -1.0547029931212354e+01 6.5215842741035521e+00 2.0371421705252537e+01 1 0 0
637 36 2 1.1500000000000000e-01 -9.7013753644421623e+00 7.0992400634334514e+00 2.3520732078679476e+01 1 0 0
645 36 2 1.1500000000000000e-01 -1.0008976261140674e+01 4.4178623218742192e+00 2.8910169623539932e+01 1 0 0
1031 56 7 -1.1500000000000000e-01 -1.3853844314140542e+01 8.8934889356213827e+00 2.7922783413918889e+01 1 0 0
1017 55 1 -1.1500000000000000e-01 -9.8657579085239941e+00 7.0914174048087562e+00 1.9727190163125794e+01 1 0 0
1035 56 1 -1.1500000000000000e-01 -1.4444668425940492e+01 7.6285094964284790e+00 2.7592088492468580e+01 1 0 0
1018 55 2 1.1500000000000000e-01 -9.4793154930230124e+00 8.4362891462275087e+00 2.1372396606580839e+01 1 0 0
1496 56 6 0.0000000000000000e+00 -1.3375283267579944e+01 8.4501354318118267e+00 2.5444572591757730e+01 1 0 0
1040 56 1 -1.1500000000000000e-01 -1.2691461708034236e+01 7.9908364415686037e+00 2.2987939175893494e+01 1 0 0
1041 56 4 -1.1500000000000000e-01 -1.3471407743180702e+01 7.2907480198413168e+00 2.3972267507606396e+01 1 0 0
1407 76 2 1.1500000000000000e-01 -8.3754366269857741e+00 8.6541495895164875e+00 2.4375381655102917e+01 1 0 0
1013 55 7 -1.1500000000000000e-01 -9.2645221805855513e+00 8.2351173665482946e+00 2.0300768753782862e+01 1 0 0
231 13 2 1.1500000000000000e-01 -1.6471704911601023e+01 2.4334326891414384e+00 2.9330256798208897e+01 1 0 -1
285 16 2 1.1500000000000000e-01 -1.2720173593996646e+01 2.1764283544997838e+00 2.2057189171194953e+01 1 0 0
287 16 2 1.1500000000000000e-01 -1.4491746091212686e+01 -1.5153685020239741e-02 2.5979370882607419e+01 1 0 0
1063 57 2 1.1500000000000000e-01 -8.7682291882634775e+00 8.0082618426222556e+00 2.9236866970613470e+01 1 0 -1
1046 56 2 1.1500000000000000e-01 -1.3848452845712586e+01 6.3042844064148005e+00 2.3767730556590308e+01 1 0 0
286 16 2 1.1500000000000000e-01 -1.3788621456745577e+01 4.7662844442737384e-01 2.3675584664172764e+01 1 0 0
979 53 3 0.0000000000000000e+00 -1.1940301807092069e-01 9.1050114965075117e+00 3.3059892978878787e+00 1 0 0
980 53 4 -1.1500000000000000e-01 5.7230199584171926e-01 1.0035549753618843e+01 2.4961997212996114e+00 1 0 0
984 53 2 1.1500000000000000e-01 1.0973673359543223e+00 1.0876374327467525e+01 2.9321897530490624e+00 1 0 0
1361 74 2 1.1500000000000000e-01 -1.1360764715791571e+00 1.3290742716480198e+01 8.4656833283290265e+00 1 0 0
990 53 1 -1.1500000000000000e-01 4.7697804347492867e-01 9.9425861349972031e+00 1.0831889678944355e+00 1 0 0
2253 93 6 0.0000000000000000e+00 -3.8204278216518239e-01 1.4276320961708267e+01 2.9812478412859202e+00 1 0 0
994 53 2 1.1500000000000000e-01 9.7245237370412674e-01 1.0602634926269040e+01 3.9747810475016965e-01 1 0 0
1741 93 1 -1.1500000000000000e-01 -1.6116271714032084e+00 1.3523183747423626e+01 4.9118068175511134e+00 1 0 0
978 53 5 -1.1500000000000000e-01 -1.6342944508361823e-01 9.2650501556684919e+00 4.7438383050855446e+00 1 0 0
983 53 2 1.1500000000000000e-01 3.5870451083675281e-01 1.0112918450118119e+01 5.1907589693768763e+00 1 0 0
1012 54 2 1.1500000000000000e-01 -2.3687328794829634e+00 9.4410139241718856e+00 7.6494476718840687e+00 1 0 0
1363 74 2 1.1500000000000000e-01 1.1938263090842609e+00 9.6159776120810943e+00 7.8476497554202531e+00 1 0 0
1745 93 2 1.1500000000000000e-01 -2.2763678858423786e+00 1.3046260122404249e+01 5.6911412048751799e+00 1 0 0
1342 73 2 1.1500000000000000e-01 4.3324236459721917e+00 1.1552789126485370e+01 -2.6621498835257912e-01 1 0 0
1338 73 5 -1.1500000000000000e-01 3.6563050782733657e+00 1.2260785182971428e+01 1.6528267223525983e+00 1 0 0
1339 73 3 0.0000000000000000e+00 3.4768794696414012e+00 1.1902545279586612e+01 2.9829137429873347e+00 1 0 0
1340 73 4 -1.1500000000000000e-01 2.8352081586535474e+00 1.2781717339967640e+01 3.9371947143563872e+00 1 0 0
1341 73 1 -1.1500000000000000e-01 4.7305174783541997e+00 1.0108749198362977e+01 1.2763648391236728e+00 1 0 0
1337 73 7 -1.1500000000000000e-01 4.2593934934570070e+00 1.1357493352640430e+01 7.7679703872621286e-01 1 0 0
1343 73 2 1.1500000000000000e-01 3.2597309726690407e+00 1.3198999182373486e+01 1.3595246142476429e+00 1 0 0
1348 73 3 0.0000000000000000e+00 3.9751023006734791e+00 1.0674162379998764e+01 3.4550195056168631e+00 1 0 0
1349 73 4 -1.1500000000000000e-01 4.6525705300238176e+00 9.8076997126132728e+00 2.6162935485860759e+00 1 0 0
1513 73 6 0.0000000000000000e+00 3.6988604398947729e+00 1.1285628150373601e+01 3.2482478548702902e+00 1 0 0
1356 74 5 -1.1500000000000000e-01 -6.7235465652601079e-01 1.2364893145650527e+01 8.8205452507314224e+00 1 0 0
1354 73 2 1.1500000000000000e-01 2.1914979676915123e+00 1.2995696167648987e+01 5.9437262893686595e+00 1 0 0
1346 73 1 -1.1500000000000000e-01 3.0671607930501215e+00 1.1105274618483826e+01 5.7368193979397564e+00 1 0 0
1347 73 4 -1.1500000000000000e-01 3.6692265576189400e+00 1.0240693374993864e+01 4.7962586667301492e+00 1 0 0
1350 73 1 -1.1500000000000000e-01 2.6795699582865491e+00 1.2367589935594379e+01 5.2474348862909936e+00 1 0 0
1351 73 2 1.1500000000000000e-01 2.9131517363842372e+00 1.0797019600447349e+01 6.7571961531694384e+00 1 0 0
1352 73 2 1.1500000000000000e-01 3.9799164404857201e+00 9.2346882854245020e+00 5.1134050607710728e+00 1 0 0
1345 73 2 1.1500000000000000e-01 5.0760458844495400e+00 9.2554742354484425e+00 6.7151365214100522e-01 1 0 0
1355 74 7 -1.1500000000000000e-01 2.6871281926893253e-02 1.1573507853524845e+01 7.9510061739693345e+00 1 0 0
1359 74 1 -1.1500000000000000e-01 5.6545666922983884e-01 1.0326175045008025e+01 8.3883389911688386e+00 1 0 0
1360 74 2 1.1500000000000000e-01 1.7690380415281659e-01 1.1896528116757356e+01 6.8600163178547806e+00 1 0 0
1747 93 4 -1.1500000000000000e-01 -5.9511042527204872e-01 1.3221594090040508e+01 1.3286740907746764e+00 1 0 0
1748 93 3 0.0000000000000000e+00 -6.6144918608784620e-01 1.3728226308487370e+01 2.6745954307967139e+00 1 0 0
1008 54 1 -1.1500000000000000e-01 -2.9904771066423130e+00 9.0238079919530261e+00 8.3767367571612379e+00 1 0 0
1746 93 1 -1.1500000000000000e-01 1.2481619022147927e-01 1.3904688781657546e+01 3.4973466941090070e-01 1 0 0
2116 114 5 -1.1500000000000000e-01 -5.4508349877048357e-01 1.7922965513178845e+01 8.6098743763629297e+00 1 0 0
1749 93 4 -1.1500000000000000e-01 -1.4741673737654395e+00 1.3056261630631164e+01 3.5914092731666281e+00 1 0 0