LAMMPS (15 May 2015)
Reading data file ...
  triclinic box = (-0.107635 -0.0404339 -0.357111) to (41.3876 35.9384 29.5551) with tilt (-0.0672341 -17.0362 -0.0417078)
  5 by 4 by 3 MPI processor grid
  reading atoms ...
  4560 atoms
  reading velocities ...
  4560 velocities
  scanning bonds ...
  3 = max bonds/atom
  scanning angles ...
  3 = max angles/atom
  scanning dihedrals ...
  8 = max dihedrals/atom
  scanning impropers ...
  1 = max impropers/atom
  reading bonds ...
  5040 bonds
  reading angles ...
  7200 angles
  reading dihedrals ...
  10560 dihedrals
  reading impropers ...
  2400 impropers
Finding 1-2 1-3 1-4 neighbors ...
 Special bond factors lj:   0          0          0         
 Special bond factors coul: 0          0          0         
  4 = max # of 1-2 neighbors
  8 = max # of 1-3 neighbors
  20 = max # of 1-4 neighbors
  16 = max # of special neighbors
4560 atoms in group all
720 atoms in group C
480 atoms in group S
1920 atoms in group H
720 atoms in group Si
240 atoms in group Na
240 atoms in group Ba
240 atoms in group O
4560 atoms in group naphthalene
1200 atoms in group fixed
960 atoms in group CO
Setting atom values ...
  720 settings made for charge
Setting atom values ...
  720 settings made for charge
Setting atom values ...
  1920 settings made for charge
Setting atom values ...
  480 settings made for charge
Setting atom values ...
  240 settings made for charge
Setting atom values ...
  240 settings made for charge
Setting atom values ...
  240 settings made for charge
Finding 1-2 1-3 1-4 neighbors ...
 Special bond factors lj:   0          0          0.5       
 Special bond factors coul: 0          0          0.5       
  4 = max # of 1-2 neighbors
  8 = max # of 1-3 neighbors
  20 = max # of 1-4 neighbors
  16 = max # of special neighbors
PPPM initialization ...
  G vector (1/distance) = 0.246499
  grid = 16 16 20
  stencil order = 5
  estimated absolute RMS force accuracy = 0.00242397
  estimated relative force accuracy = 7.2997e-06
  using double precision FFTs
  3d grid and FFT values/proc = 1053 112
Neighbor list info ...
  4 neighbor list requests
  update every 1 steps, delay 0 steps, check yes
  master list distance cutoff = 12
Setting up run ...
Memory usage per processor = 13.288 Mbytes
Step Temp Density PotEng E_vdwl E_tail E_coul E_long Press Volume Xy Xz Yz E_mol E_bond E_angle E_dihed 14[1] 14[2] 14[3] msd[4] msd2[4] msd3[4] msd4[4] naphthal Cella Cellb Cellc CellAlpha CellBeta CellGamma 27[2] 27[3] 28[1] 28[2] 28[3] 
       0          298    1.2509986    2087.5869   -1173.1339   -211.49952    2070.8667    -2308.979    790.88859    44657.537 -0.067234084   -17.036218 -0.041707817     3498.833    1521.0094     935.4334    889.67826    28.379601    18.846571    14.337846 2.3535127e-29 2.3910021e-29 2.7538641e-29 3.294809e-29          298     41.49527    35.978931    34.423473    90.016431    119.66323    90.107069    18.846182    14.337739    28.379557    18.849013    14.339638 
    1000    295.77722    1.2509986    1960.8333   -1192.1704   -211.49952    2071.9749    -2309.151    1119.9332    44657.537 -0.067234084   -17.036218 -0.041707817    3390.1798    1501.5966    903.27461    834.54782    28.382565    18.846141    14.337867 0.00048964964 0.00048935367 0.00048361486 0.00048306227    295.77722     41.49527    35.978931    34.423473    90.016431    119.66323    90.107069    18.846434    14.337376    28.379828    18.849705    14.339631 
    2000    301.95543    1.2509986    2035.0634   -1198.5978   -211.49952    2068.3936    -2309.619   -1626.9512    44657.537 -0.067234084   -17.036218 -0.041707817    3474.8867    1564.2235    928.43407    836.57378     28.38015    18.844273     14.33763 0.00048409634 0.00048346455 0.00048654657 0.00047982831    301.95543     41.49527    35.978931    34.423473    90.016431    119.66323    90.107069     18.84554    14.338113     28.37899    18.846488    14.339487 
    3000    297.95993    1.2509986    2077.3399   -1192.0937   -211.49952    2071.4268    -2309.381    545.92484    44657.537 -0.067234084   -17.036218 -0.041707817    3507.3878    1535.8177    930.12929    886.81005    28.381414    18.845077    14.337754 0.00049885078  0.000498355 0.00048790292 0.00048619733    297.95993     41.49527    35.978931    34.423473    90.016431    119.66323    90.107069    18.846186    14.338222    28.379574    18.850295    14.339884 
    4000    298.84288    1.2509986    2109.0485   -1177.9214   -211.49952    2069.6892   -2309.6183    556.23431    44657.537 -0.067234084   -17.036218 -0.041707817    3526.8989    1557.4934    909.19464    900.99588     28.38074     18.84574    14.337527 0.00045806723 0.00045788193 0.00046479682 0.00046305496    298.84288     41.49527    35.978931    34.423473    90.016431    119.66323    90.107069    18.845966    14.337675    28.380805    18.848601    14.339524 
    5000    299.22584    1.2509986    2008.5086   -1190.3337   -211.49952    2071.0415   -2309.7302    1451.0205    44657.537 -0.067234084   -17.036218 -0.041707817     3437.531    1503.4125    912.55052    868.45745    28.380418    18.844877    14.337295 0.00047281896 0.00047278156 0.00045381164 0.00045317038    299.22584     41.49527    35.978931    34.423473    90.016431    119.66323    90.107069    18.846172     14.33763    28.379864    18.848688    14.338974 
    6000    295.28282    1.2509986    1926.9873   -1204.2252   -211.49952    2077.0461   -2309.2324   -521.46875    44657.537 -0.067234084   -17.036218 -0.041707817    3363.3988    1463.1209    916.98134    837.12061    28.377818    18.845052    14.337696 0.00047258089 0.00047189728 0.0004885714 0.00048626088    295.28282     41.49527    35.978931    34.423473    90.016431    119.66323    90.107069    18.845966    14.338503    28.379463    18.848215    14.340928 
    7000    299.03198    1.2509986     2084.333   -1192.5152   -211.49952    2072.9647   -2309.1102    898.84043    44657.537 -0.067234084   -17.036218 -0.041707817    3512.9937    1568.0089    927.44422    864.16615     28.38057    18.845105    14.338448 0.00048589615 0.00048560392 0.0004973095 0.00049589155    299.03198     41.49527    35.978931    34.423473    90.016431    119.66323    90.107069    18.846351    14.338252    28.379186     18.85001    14.339103 
    8000    296.25302    1.2509986    2105.6451   -1193.5544   -211.49952    2073.7687   -2309.2606   -448.20669    44657.537 -0.067234084   -17.036218 -0.041707817    3534.6913    1546.0787    940.04831      890.252     28.37879    18.844661    14.337642 0.00048942285 0.00048920561 0.00045663312 0.00045442004    296.25302     41.49527    35.978931    34.423473    90.016431    119.66323    90.107069    18.846527    14.337813    28.381036     18.84888    14.339558 
    9000    302.33695    1.2509986    1989.0193   -1197.2309   -211.49952    2077.2101   -2309.1882    1446.6582    44657.537 -0.067234084   -17.036218 -0.041707817    3418.2284    1524.6452    894.79736    854.45356    28.381403    18.846907    14.337553 0.00049248183 0.00049237111 0.00049271243 0.00048995494    302.33695     41.49527    35.978931    34.423473    90.016431    119.66323    90.107069    18.846178    14.337541    28.380336    18.850316    14.338966 
   10000    294.76642    1.2509986    2077.8754   -1200.1586   -211.49952    2071.8719   -2309.3275   -310.11752    44657.537 -0.067234084   -17.036218 -0.041707817    3515.4896    1533.0087     911.8733     911.2515    28.378895    18.845165    14.336933 0.00047224365 0.00047156711 0.00045903689 0.00045765651    294.76642     41.49527    35.978931    34.423473    90.016431    119.66323    90.107069    18.845623    14.337491    28.379411    18.847997    14.340211 
   11000    296.52134    1.2509986    1969.1598   -1187.5682   -211.49952     2073.496   -2309.4841     671.6155    44657.537 -0.067234084   -17.036218 -0.041707817    3392.7162      1503.09    909.16035    833.67018    28.379151    18.845067    14.337601 0.00047995676 0.00047915573 0.00048648439 0.00048596256    296.52134     41.49527    35.978931    34.423473    90.016431    119.66323    90.107069     18.84707     14.33775    28.379896    18.849105    14.339007 
   12000    296.44484    1.2509986    2055.0819   -1196.1848   -211.49952    2072.2316   -2309.2476      64.3308    44657.537 -0.067234084   -17.036218 -0.041707817    3488.2828    1549.0731     910.6659    878.70854    28.377882    18.845609     14.33631 0.0004730409 0.00047285968 0.00044744057 0.0004460084    296.44484     41.49527    35.978931    34.423473    90.016431    119.66323    90.107069    18.846365    14.337386    28.380696    18.848925    14.339994 
   13000    296.41015    1.2509986    1946.6244   -1187.1731   -211.49952    2068.5549   -2309.2507     172.9639    44657.537 -0.067234084   -17.036218 -0.041707817    3374.4933    1531.5364    869.64989     822.5202    28.379555    18.844836    14.336808 0.0004789601 0.00047796205 0.00046914928 0.00046738517    296.41015     41.49527    35.978931    34.423473    90.016431    119.66323    90.107069    18.845439     14.33734    28.379737    18.848217    14.340686 
   14000    293.28087    1.2509986     2042.218   -1203.1589   -211.49952    2071.3098   -2309.4223   -1116.2918    44657.537 -0.067234084   -17.036218 -0.041707817    3483.4895    1553.1554    916.65152    863.16309    28.379379    18.844364    14.337048 0.00048273432 0.00048259105 0.0004579968 0.00045623028    293.28087     41.49527    35.978931    34.423473    90.016431    119.66323    90.107069    18.845839    14.337634    28.380107    18.849198    14.340833 
   15000    301.86586    1.2509986    2077.4276    -1196.954   -211.49952    2073.1653   -2309.2239    1712.8127    44657.537 -0.067234084   -17.036218 -0.041707817    3510.4402    1549.1383     924.1385    884.40055     28.38229    18.845112    14.338649 0.00048407701 0.00048351555 0.00047674479 0.00047635854    301.86586     41.49527    35.978931    34.423473    90.016431    119.66323    90.107069    18.845717    14.338136    28.379358    18.848555    14.340009 
   16000    300.36446    1.2509986    1987.2834   -1187.7675   -211.49952    2076.7046   -2308.8785    378.38828    44657.537 -0.067234084   -17.036218 -0.041707817    3407.2248    1514.6132    902.59216    841.40179    28.380056    18.844757    14.337733 0.00048103892 0.00048057215 0.00045166553 0.00044798129    300.36446     41.49527    35.978931    34.423473    90.016431    119.66323    90.107069    18.845623     14.33762    28.381305    18.848335    14.339228 
   17000    293.37824    1.2509986    1987.1177   -1201.2317   -211.49952    2069.8154   -2309.4714   -901.36872    44657.537 -0.067234084   -17.036218 -0.041707817    3428.0053    1500.8715    922.99992     852.6999      28.3796    18.846219    14.336966 0.00048393005 0.00048337685 0.00045276717 0.00045150625    293.37824     41.49527    35.978931    34.423473    90.016431    119.66323    90.107069    18.846603    14.337635    28.380124     18.84998    14.339585 
   18000    297.49056    1.2509986    2059.0073   -1194.0102   -211.49952    2073.6061   -2309.0894    82.968504    44657.537 -0.067234084   -17.036218 -0.041707817    3488.5007    1528.2486    925.75475    881.11912    28.377222    18.845894    14.336386 0.00048162599 0.00048135521 0.00046085774 0.00045899103    297.49056     41.49527    35.978931    34.423473    90.016431    119.66323    90.107069     18.84582    14.337895    28.380109    18.848005    14.340376 
   19000    304.80487    1.2509986    1987.8691   -1193.0938   -211.49952      2072.05   -2309.5819    1895.1769    44657.537 -0.067234084   -17.036218 -0.041707817    3418.4948    1505.7186    898.89154    862.52007    28.381902    18.846152    14.338418 0.00049344194 0.00049298975 0.00054443108 0.0005381511    304.80487     41.49527    35.978931    34.423473    90.016431    119.66323    90.107069    18.846302    14.337341    28.381509    18.847504    14.339198 
   20000    298.48166    1.2509986     2004.787   -1197.0642   -211.49952    2074.7306   -2309.0964      75.2406    44657.537 -0.067234084   -17.036218 -0.041707817     3436.217    1500.0298    911.76691    872.58169    28.380939    18.847045    14.337535 0.00047301172 0.00047298669 0.00046851434 0.00046718573    298.48166     41.49527    35.978931    34.423473    90.016431    119.66323    90.107069    18.846217    14.337846    28.379625    18.850147    14.339833 
   21000    297.67686    1.2509986    2066.6128   -1182.6811   -211.49952    2072.0265   -2309.2219    7.3845346    44657.537 -0.067234084   -17.036218 -0.041707817    3486.4893    1516.9929    930.46697    888.87302    28.380406    18.845079    14.337649 0.00046991992 0.00046982046 0.0004442696 0.00044395603    297.67686     41.49527    35.978931    34.423473    90.016431    119.66323    90.107069    18.846114       14.338    28.379242    18.848585    14.339461 
   22000    302.84327    1.2509986    2032.8671    -1200.527   -211.49952    2069.1788   -2309.3719   -390.66363    44657.537 -0.067234084   -17.036218 -0.041707817    3473.5871    1561.0052    898.70084    865.56933    28.382151     18.84516    14.337956 0.00046769088 0.00046753171 0.00049248177 0.0004918092    302.84327     41.49527    35.978931    34.423473    90.016431    119.66323    90.107069    18.846104    14.337386    28.380314    18.848713    14.339545 
   23000    297.89347    1.2509986    1996.4526   -1200.7549   -211.49952    2070.6184   -2309.5349   -1572.2685    44657.537 -0.067234084   -17.036218 -0.041707817     3436.124    1535.1804    896.27551    851.09592    28.378926    18.845333    14.337302 0.00048947675 0.00048929285 0.00048874865 0.0004876075    297.89347     41.49527    35.978931    34.423473    90.016431    119.66323    90.107069     18.84644     14.33807    28.379325     18.84993    14.340134 
   24000    299.10532    1.2509986    2085.0373   -1183.0815   -211.49952    2070.4935   -2309.3479    489.56275    44657.537 -0.067234084   -17.036218 -0.041707817    3506.9732     1537.318     914.1995    900.22528    28.378428    18.844405    14.336533 0.00048577634 0.00048554346 0.00049965358 0.00049911675    299.10532     41.49527    35.978931    34.423473    90.016431    119.66323    90.107069    18.846417    14.337587    28.379187    18.848585    14.339173 
   25000    298.05257    1.2509986    1997.4105   -1191.6125   -211.49952    2070.8114   -2309.3085    589.50835    44657.537 -0.067234084   -17.036218 -0.041707817    3427.5201    1508.9673    918.20269    848.68139    28.380222    18.846331     14.33715 0.00047667053 0.00047614393 0.00046367786 0.00045640134    298.05257     41.49527    35.978931    34.423473    90.016431    119.66323    90.107069    18.846135    14.337189    28.379288    18.848773    14.336965 
   26000      297.106    1.2509986    2027.9631   -1182.1043   -211.49952    2071.2789   -2309.7024    1583.8368    44657.537 -0.067234084   -17.036218 -0.041707817    3448.4909    1506.3431    911.62423    874.94036    28.377433    18.845463    14.337075 0.0004722701 0.00047206866 0.00042868544 0.00042822805      297.106     41.49527    35.978931    34.423473    90.016431    119.66323    90.107069    18.846301    14.337554    28.379315    18.848389    14.339541 
   27000    302.52811    1.2509986    2038.3106   -1188.4913   -211.49952      2069.23   -2309.5407    604.99473    44657.537 -0.067234084   -17.036218 -0.041707817    3467.1127    1533.6555    890.06235    886.74336    28.379354    18.844456    14.338318 0.00049318668 0.00049313356 0.00048971503 0.00048735713    302.52811     41.49527    35.978931    34.423473    90.016431    119.66323    90.107069    18.846208    14.337825    28.379208    18.847578    14.339216 
   28000    299.33033    1.2509986    2089.5163   -1196.2255   -211.49952    2071.2919   -2309.5027   -338.39383    44657.537 -0.067234084   -17.036218 -0.041707817    3523.9526    1531.7565    958.55664    879.23611    28.381264    18.846316    14.337504 0.0004689847 0.00046844875 0.00047677911 0.00047640111    299.33033     41.49527    35.978931    34.423473    90.016431    119.66323    90.107069    18.846662    14.337252     28.37966    18.848715    14.340166 
   29000    306.17819    1.2509986     2107.717   -1202.1936   -211.49952    2071.9829   -2309.4609   -1.2725992    44657.537 -0.067234084   -17.036218 -0.041707817    3547.3885    1552.0144    954.86806    886.13448    28.380702    18.846713    14.337423 0.0004847848 0.00048473951 0.00047374222 0.00047272196    306.17819     41.49527    35.978931    34.423473    90.016431    119.66323    90.107069    18.846026    14.337698    28.379036    18.848664     14.34043 
   30000    297.82999    1.2509986    2054.7887   -1189.6142   -211.49952    2072.4767   -2309.4165    238.35914    44657.537 -0.067234084   -17.036218 -0.041707817    3481.3427    1553.2571    918.97183    859.16906     28.38009    18.845549    14.337918 0.00047271515 0.00047251806 0.00047638075 0.00047536401    297.82999     41.49527    35.978931    34.423473    90.016431    119.66323    90.107069    18.846314    14.337318    28.379297    18.848727    14.338707 
   31000    296.98127    1.2509986    2092.4365   -1169.4712   -211.49952     2073.231   -2309.1452    1837.1959    44657.537 -0.067234084   -17.036218 -0.041707817    3497.8219    1518.7801     934.5344    891.02173    28.375987    18.845615    14.336951 0.00047587466 0.00047549273 0.00048509512 0.00048231181    296.98127     41.49527    35.978931    34.423473    90.016431    119.66323    90.107069    18.846556    14.338018    28.378759    18.848625    14.341051 
   32000    301.89404    1.2509986     2121.825   -1188.7154   -211.49952    2072.2208   -2309.5336    232.20263    44657.537 -0.067234084   -17.036218 -0.041707817    3547.8532     1584.987    935.06002    878.19313    28.379851     18.84734    14.338083 0.00047803933 0.00047711539 0.00046854087 0.00046615021    301.89404     41.49527    35.978931    34.423473    90.016431    119.66323    90.107069    18.846748    14.338186    28.381093     18.84894    14.339791 
   33000    294.38465    1.2509986     2021.153   -1184.0293   -211.49952    2070.3231    -2309.666    380.24663    44657.537 -0.067234084   -17.036218 -0.041707817    3444.5252    1497.8924    888.14884    903.32265    28.380702    18.845841    14.337463 0.00048410895 0.00048362545 0.00051244665 0.00050884043    294.38465     41.49527    35.978931    34.423473    90.016431    119.66323    90.107069    18.845532    14.337975    28.379209    18.847203    14.340097 
   34000    297.01623    1.2509986    2029.3101   -1194.0404   -211.49952    2070.3687   -2309.6049    1246.4853    44657.537 -0.067234084   -17.036218 -0.041707817    3462.5866    1510.3471    934.47636    869.06274    28.380345    18.844805    14.337197 0.00048922592 0.00048898587 0.00050578482 0.00050377734    297.01623     41.49527    35.978931    34.423473    90.016431    119.66323    90.107069    18.846564     14.33772     28.37916    18.849578    14.340875 
   35000    293.60949    1.2509986    1968.8308   -1196.2148   -211.49952    2072.9631    -2309.408    38.249986    44657.537 -0.067234084   -17.036218 -0.041707817    3401.4905     1495.027    890.56981    863.23763    28.380831    18.846025     14.33776 0.00048724776 0.00048707654 0.00049889956 0.00049676526    293.60949     41.49527    35.978931    34.423473    90.016431    119.66323    90.107069    18.846087    14.337554    28.380225    18.847715    14.339683 
   36000    298.15281    1.2509986     2011.649   -1186.3606   -211.49952    2073.4464   -2309.6333    1061.4544    44657.537 -0.067234084   -17.036218 -0.041707817    3434.1966    1494.4336    924.57678    866.42882    28.377815     18.84631    14.337426 0.00047354059 0.00047325979 0.00052099775 0.00052031865    298.15281     41.49527    35.978931    34.423473    90.016431    119.66323    90.107069     18.84645    14.337902    28.378939    18.848979    14.340183 
   37000    300.78385    1.2509986    2014.2784   -1192.5809   -211.49952    2073.7909   -2309.4861     1840.863    44657.537 -0.067234084   -17.036218 -0.041707817    3442.5544    1469.9101     918.9826    903.80435    28.379839    18.846198    14.337473 0.00050285386 0.0005020943 0.0005138971 0.00051313464    300.78385     41.49527    35.978931    34.423473    90.016431    119.66323    90.107069    18.846937    14.337917    28.379379    18.849821    14.339917 
   38000    296.56701    1.2509986    2013.2493   -1178.0229   -211.49952    2072.0566   -2309.4737    421.41657    44657.537 -0.067234084   -17.036218 -0.041707817    3428.6893    1508.3563    886.91668    879.90749    28.379517    18.844603    14.337272 0.00046701773 0.00046669687 0.00049426141 0.00049278337    296.56701     41.49527    35.978931    34.423473    90.016431    119.66323    90.107069     18.84597    14.337342    28.379758    18.848118     14.33884 
   39000    297.94037    1.2509986    2036.3189    -1186.177   -211.49952    2073.2588   -2309.3632   -418.24204    44657.537 -0.067234084   -17.036218 -0.041707817    3458.6003    1526.8376    909.51541    874.83331    28.379071    18.845752    14.337025 0.00050064286 0.00050058515 0.00049329585 0.00048993152    297.94037     41.49527    35.978931    34.423473    90.016431    119.66323    90.107069    18.846059    14.337662    28.378815    18.847504    14.340371 
   40000    294.56027    1.2509986    2032.3129   -1193.9313   -211.49952    2070.9015   -2309.6973    818.95543    44657.537 -0.067234084   -17.036218 -0.041707817      3465.04    1525.5761    921.24306    865.27435    28.381032    18.844766    14.337586 0.0004766879 0.00047646181 0.00047229926 0.00047122617    294.56027     41.49527    35.978931    34.423473    90.016431    119.66323    90.107069    18.846236    14.337672    28.380415    18.849286    14.339127 
   41000    298.79618    1.2509986    1999.7976   -1204.7343   -211.49952    2067.8869   -2309.8831   -570.90952    44657.537 -0.067234084   -17.036218 -0.041707817    3446.5281    1535.8463    878.47506    875.85201    28.380089    18.846027    14.337445 0.00048315853 0.00048308409 0.00047449218 0.00047188573    298.79618     41.49527    35.978931    34.423473    90.016431    119.66323    90.107069     18.84626    14.337727    28.377977    18.849288    14.339448 
   42000    299.23554    1.2509986    2082.4565   -1194.5314   -211.49952    2073.5509   -2309.3268    610.70591    44657.537 -0.067234084   -17.036218 -0.041707817    3512.7639    1543.8865    913.09643    901.25367    28.379015    18.845235      14.3377 0.00046221036 0.00046184091 0.00043706816 0.00043661007    299.23554     41.49527    35.978931    34.423473    90.016431    119.66323    90.107069    18.845816    14.337619    28.379251    18.848889    14.339047 
   43000    297.32763    1.2509986    2018.4804   -1194.7471   -211.49952    2071.5105   -2309.5768    290.61968    44657.537 -0.067234084   -17.036218 -0.041707817    3451.2938    1548.7899    889.37171     866.1934    28.379115    18.844215    14.337915 0.00046471242 0.00046454415 0.00047668689 0.00047502863    297.32763     41.49527    35.978931    34.423473    90.016431    119.66323    90.107069    18.845849    14.337596    28.379548    18.848149    14.338684 
   44000    297.37165    1.2509986    2060.0889   -1182.6208   -211.49952    2067.9779   -2309.4711    342.20397    44657.537 -0.067234084   -17.036218 -0.041707817    3484.2029    1543.8908    909.00254     881.5185    28.379581    18.845142    14.338107 0.0004916068 0.00049155442 0.0005133817 0.00051189404    297.37165     41.49527    35.978931    34.423473    90.016431    119.66323    90.107069    18.846058    14.337926    28.380606    18.848881    14.339031 
   45000    301.62397    1.2509986    2082.4441   -1184.3261   -211.49952    2070.5852   -2309.0021    529.53915    44657.537 -0.067234084   -17.036218 -0.041707817    3505.1871    1535.0686    940.64234    876.19803    28.377434    18.845535    14.337404 0.00047486248 0.00047483938 0.00045985089 0.00045915209    301.62397     41.49527    35.978931    34.423473    90.016431    119.66323    90.107069      18.8463    14.337655    28.379707    18.848757     14.34042 
   46000    293.75798    1.2509986    1996.4778   -1182.4709   -211.49952    2071.2864   -2309.6459   -128.06849    44657.537 -0.067234084   -17.036218 -0.041707817    3417.3081    1510.5334    938.87668    824.31824    28.382131    18.846655    14.338698 0.00048844735 0.00048770417 0.00050483055 0.00050403629    293.75798     41.49527    35.978931    34.423473    90.016431    119.66323    90.107069    18.847004    14.337998    28.379785    18.849217    14.338801 
   47000    297.71998    1.2509986    2081.0115   -1178.6037   -211.49952    2074.7184   -2309.7962    1390.1475    44657.537 -0.067234084   -17.036218 -0.041707817     3494.693    1528.3641    925.32444    886.01669     28.37789    18.846229    14.337255 0.00046047734 0.00045994164 0.00043520359 0.00043498866    297.71998     41.49527    35.978931    34.423473    90.016431    119.66323    90.107069    18.845824    14.338209    28.379519    18.848551    14.339655 
   48000    295.82026    1.2509986    2001.9981   -1197.4957   -211.49952    2072.6991   -2309.2919   -283.82439    44657.537 -0.067234084   -17.036218 -0.041707817    3436.0865    1496.7151    900.12396    884.59605    28.379301    18.846762    14.336866 0.00046742831 0.00046719591 0.0004499715 0.00044952236    295.82026     41.49527    35.978931    34.423473    90.016431    119.66323    90.107069     18.84649    14.337555    28.380159    18.848749    14.339769 
   49000     293.9523    1.2509986    2009.0544   -1191.4055   -211.49952    2069.5022   -2309.4204    621.15557    44657.537 -0.067234084   -17.036218 -0.041707817    3440.3781    1501.2667    916.09716    876.63881    28.377737    18.847529     14.33738 0.00047140178 0.00047137384 0.00045937413 0.00045858494     293.9523     41.49527    35.978931    34.423473    90.016431    119.66323    90.107069    18.846292    14.337864    28.379326     18.84905    14.338781 
   50000    303.64835    1.2509986    2068.8342   -1191.8587   -211.49952     2073.986   -2309.2269    1192.1674    44657.537 -0.067234084   -17.036218 -0.041707817    3495.9338    1496.9334    949.16331    891.72117    28.381429    18.846525    14.336695 0.0004792508 0.00047836713 0.00048506395 0.00048112492    303.64835     41.49527    35.978931    34.423473    90.016431    119.66323    90.107069     18.84619      14.3368    28.378282    18.849026    14.338117 
   51000    296.93062    1.2509986    1977.3324   -1186.9445   -211.49952    2071.1357   -2309.7637     330.2074    44657.537 -0.067234084   -17.036218 -0.041707817    3402.9049    1509.8744    916.51021    833.14854     28.37817    18.845808      14.3368 0.00045586207 0.00045553186 0.0004903267 0.00049018363    296.93062     41.49527    35.978931    34.423473    90.016431    119.66323    90.107069    18.846469    14.337349    28.379198    18.849083    14.339735 
   52000    299.32232    1.2509986    2035.8346   -1181.5309   -211.49952    2074.3636   -2309.3366    1099.4949    44657.537 -0.067234084   -17.036218 -0.041707817    3452.3385    1525.9261    926.08093     848.8717    28.378578    18.845545    14.337963 0.00048039764 0.0004803143 0.00048374813 0.00048371472    299.32232     41.49527    35.978931    34.423473    90.016431    119.66323    90.107069    18.846199    14.337943    28.379524    18.849192    14.339647 
   53000    293.61983    1.2509986    1927.9947   -1188.9522   -211.49952    2072.2831   -2309.4474    459.86515    44657.537 -0.067234084   -17.036218 -0.041707817    3354.1113    1492.8126     884.9588    836.37849    28.377058    18.846385    14.336873 0.00047740697 0.00047712339 0.00049329903 0.00049093377    293.61983     41.49527    35.978931    34.423473    90.016431    119.66323    90.107069    18.846473    14.337722    28.381035    18.849143    14.340039 
   54000     295.8941    1.2509986    2037.1743   -1203.5065   -211.49952    2076.1419   -2309.1089   -1075.6153    44657.537 -0.067234084   -17.036218 -0.041707817    3473.6478    1541.6864    897.73182    878.56294    28.379962    18.847064    14.337235 0.00046930812 0.00046913002 0.00044500142 0.00044324646     295.8941     41.49527    35.978931    34.423473    90.016431    119.66323    90.107069    18.846228    14.337586    28.378501    18.849601    14.339096 
   55000    299.16554    1.2509986    2049.1383   -1186.0618   -211.49952    2069.3448    -2309.216   -743.01788    44657.537 -0.067234084   -17.036218 -0.041707817    3475.0713    1536.2002    909.64628    873.71029    28.379333    18.846428    14.337573 0.00049054381 0.00048986996 0.0005017101 0.00050114087    299.16554     41.49527    35.978931    34.423473    90.016431    119.66323    90.107069    18.846946    14.337899    28.379267    18.849705    14.339713 
   56000    293.75711    1.2509986    2062.3499   -1194.7276   -211.49952    2074.2529   -2309.1761    94.655537    44657.537 -0.067234084   -17.036218 -0.041707817    3492.0007    1520.6272    930.26987    889.00261    28.381312    18.846252    14.337836 0.00047913071 0.00047894923 0.00045937519 0.00045900258    293.75711     41.49527    35.978931    34.423473    90.016431    119.66323    90.107069    18.845955    14.337749    28.379255    18.848683    14.340054 
   57000    293.98149    1.2509986    1991.0295   -1188.4464   -211.49952    2069.6963   -2309.4438    492.22482    44657.537 -0.067234084   -17.036218 -0.041707817    3419.2233    1506.6962    911.59075    852.03498    28.379514     18.84563    14.337267 0.00048804036 0.00048791676 0.00050666689 0.00050583292    293.98149     41.49527    35.978931    34.423473    90.016431    119.66323    90.107069    18.845862     14.33762    28.380111    18.848487    14.340139 
   58000    295.41967    1.2509986    2015.2537   -1185.2304   -211.49952    2069.9628   -2309.4817    307.57091    44657.537 -0.067234084   -17.036218 -0.041707817    3440.0031    1525.3558    888.06447     874.4074    28.382722    18.846667    14.338688 0.0004771993 0.00047707333 0.00050729739 0.00050504834    295.41967     41.49527    35.978931    34.423473    90.016431    119.66323    90.107069    18.846506    14.337833    28.379588    18.849746    14.340946 
   59000    291.43086    1.2509986    1969.6504   -1179.9336   -211.49952    2073.5143   -2309.1846    514.15266    44657.537 -0.067234084   -17.036218 -0.041707817    3385.2544     1503.507    878.17661    856.11363    28.380466    18.844597    14.338274 0.00048337937 0.00048296048 0.00049908473 0.00049760961    291.43086     41.49527    35.978931    34.423473    90.016431    119.66323    90.107069    18.846074    14.337771     28.37872    18.848159    14.339852 
   60000    307.88162    1.2509986    1961.4568    -1199.156   -211.49952    2067.8647   -2309.7402   -992.98644    44657.537 -0.067234084   -17.036218 -0.041707817    3402.4883     1515.693    881.89089    855.32708    28.378515     18.84496    14.337121 0.00048944503 0.00048896936 0.00051229617 0.00051006933    307.88162     41.49527    35.978931    34.423473    90.016431    119.66323    90.107069    18.845748    14.338166    28.379461    18.847626     14.34018 
   61000    300.16482    1.2509986    1999.2316   -1207.0635   -211.49952    2072.5059   -2309.3638     253.8964    44657.537 -0.067234084   -17.036218 -0.041707817     3443.153    1515.0631    896.06627    879.22496    28.380817    18.844723    14.337345 0.00049649767 0.00049623541 0.00047379507 0.00047252454    300.16482     41.49527    35.978931    34.423473    90.016431    119.66323    90.107069    18.846485    14.337353     28.38003    18.849878    14.340184 
   62000    296.14723    1.2509986    2054.5568   -1201.3782   -211.49952    2073.3174   -2309.1187   -26.917618    44657.537 -0.067234084   -17.036218 -0.041707817    3491.7362    1548.9497    911.88438    880.55775    28.381285    18.843271    14.337982 0.00047383224 0.00047346448 0.00046673104 0.0004659042    296.14723     41.49527    35.978931    34.423473    90.016431    119.66323    90.107069    18.845625    14.337975    28.379901    18.848214    14.339903 
   63000    294.51946    1.2509986    2035.0569   -1186.1929   -211.49952    2074.2913   -2308.9189    303.89269    44657.537 -0.067234084   -17.036218 -0.041707817    3455.8774    1534.8269    923.54749    850.06968    28.380213    18.846323    14.337313 0.00049436615 0.00049408033 0.00050059614 0.00049819598    294.51946     41.49527    35.978931    34.423473    90.016431    119.66323    90.107069    18.845753     14.33742    28.379572    18.848611    14.338142 
   64000    300.26156    1.2509986    2039.8221   -1192.6513   -211.49952    2070.1498   -2309.4067   -382.84266    44657.537 -0.067234084   -17.036218 -0.041707817    3471.7302    1521.7895    905.97056    891.78206     28.37934    18.845371    14.337529 0.00046853044 0.00046785022 0.00045518938 0.00045249922    300.26156     41.49527    35.978931    34.423473    90.016431    119.66323    90.107069    18.845737    14.337986    28.379487    18.847513    14.340298 
   65000    304.04268    1.2509986    2083.8756   -1178.0124   -211.49952    2071.6776   -2309.6031     1030.748    44657.537 -0.067234084   -17.036218 -0.041707817    3499.8134    1545.4336    929.47988    870.06924    28.380471    18.845495    14.337575 0.00049358803 0.00049339102 0.0004670516 0.00046239121    304.04268     41.49527    35.978931    34.423473    90.016431    119.66323    90.107069     18.84587    14.337468    28.381314    18.850179    14.339178 
   66000    290.13274    1.2509986    1990.0988   -1200.3147   -211.49952    2068.4609   -2309.9365   -417.25561    44657.537 -0.067234084   -17.036218 -0.041707817    3431.8892    1495.2931    926.03034    863.03693    28.380442    18.845414    14.337959 0.00047239765 0.00047132007 0.00044246472  0.000441053    290.13274     41.49527    35.978931    34.423473    90.016431    119.66323    90.107069    18.845347    14.338352    28.380061    18.847937    14.339646 
   67000    301.34026    1.2509986    2043.7978    -1196.338   -211.49952    2074.2186   -2308.9396    371.65075    44657.537 -0.067234084   -17.036218 -0.041707817    3474.8568    1565.1917    891.60191    869.99658    28.378628    18.844607    14.337679 0.00048591167 0.0004855839 0.00047391705 0.00047190307    301.34026     41.49527    35.978931    34.423473    90.016431    119.66323    90.107069    18.846054    14.338153    28.380704     18.84825    14.339296 
   68000    295.95263    1.2509986    2008.8666   -1194.9995   -211.49952    2069.0631   -2309.3222   -294.84951    44657.537 -0.067234084   -17.036218 -0.041707817    3444.1252     1509.622    916.23236    868.98079    28.379765    18.847085    14.337245 0.00049056253 0.00049047521 0.00051625154 0.00051551838    295.95263     41.49527    35.978931    34.423473    90.016431    119.66323    90.107069    18.846433    14.337732    28.379534    18.848356    14.339089 
   69000    302.27678    1.2509986    2044.8857    -1177.307   -211.49952    2073.8276   -2309.4099    310.76054    44657.537 -0.067234084   -17.036218 -0.041707817    3457.7751    1529.4581    911.30508    869.83782    28.378409    18.846199    14.337414 0.00048236508 0.00048188707 0.00046277353 0.00045978319    302.27678     41.49527    35.978931    34.423473    90.016431    119.66323    90.107069    18.846533    14.337379    28.379867    18.850649    14.339173 
   70000    293.46009    1.2509986     1981.743   -1196.0453   -211.49952    2076.3777   -2309.1507    626.25668    44657.537 -0.067234084   -17.036218 -0.041707817    3410.5613    1467.2896    900.93509    883.66332    28.379844    18.846017    14.337646 0.00047923785 0.0004789233 0.00052924775 0.00052696834    293.46009     41.49527    35.978931    34.423473    90.016431    119.66323    90.107069    18.846066    14.337913    28.380757    18.849625    14.338958 
   71000    298.08826    1.2509986    2007.4228   -1198.5843   -211.49952    2073.9898   -2309.2196   -1579.4757    44657.537 -0.067234084   -17.036218 -0.041707817    3441.2369    1523.5669    902.75266    867.25355     28.38054    18.845555    14.338597 0.00047873561 0.00047845551 0.00046251817 0.0004616771    298.08826     41.49527    35.978931    34.423473    90.016431    119.66323    90.107069    18.845997    14.338191    28.379155    18.849834    14.339568 
   72000        302.6    1.2509986    1968.0216   -1190.5084   -211.49952    2071.4454   -2309.7013     1702.046    44657.537 -0.067234084   -17.036218 -0.041707817    3396.7859     1496.287    917.05894    839.55804    28.378717    18.845878     14.33704 0.00048510883 0.00048457206 0.00047949593 0.00047747983        302.6     41.49527    35.978931    34.423473    90.016431    119.66323    90.107069    18.845942    14.337118    28.380145    18.848377    14.338513 
   73000    294.30108    1.2509986    2072.4463    -1177.874   -211.49952    2076.4879   -2309.3986    1194.5098    44657.537 -0.067234084   -17.036218 -0.041707817    3483.2309    1577.5038    901.96167    858.75644    28.377895    18.845232    14.336985 0.00047520682 0.00047477219 0.0004811901 0.00048057844    294.30108     41.49527    35.978931    34.423473    90.016431    119.66323    90.107069    18.846831    14.337652    28.380098    18.848543    14.339325 
   74000    302.32203    1.2509986    2008.3037   -1201.9516   -211.49952    2069.2216   -2309.6223   -727.88005    44657.537 -0.067234084   -17.036218 -0.041707817    3450.6559     1535.554    923.75218     844.2933    28.380069    18.844968     14.33783 0.00047231042 0.00047190501 0.00045415094 0.00045043647    302.32203     41.49527    35.978931    34.423473    90.016431    119.66323    90.107069    18.845999    14.337735     28.38084    18.848043    14.338577 
   75000    301.12549    1.2509986    2031.1948   -1194.5093   -211.49952    2071.9916   -2309.4855    370.02045    44657.537 -0.067234084   -17.036218 -0.041707817    3463.1981    1529.3837    918.66036     865.1775    28.379816    18.844938    14.337856 0.00048642529 0.00048625808 0.00048842705 0.0004861685    301.12549     41.49527    35.978931    34.423473    90.016431    119.66323    90.107069    18.845819    14.337705    28.379176    18.850025    14.340682 
   76000    295.94727    1.2509986    1986.4166   -1212.3175   -211.49952    2072.5972   -2309.2881   -132.57875    44657.537 -0.067234084   -17.036218 -0.041707817    3435.4251    1590.3606    864.98642    832.57021    28.381586    18.844315    14.337805 0.0004881171  0.000488033 0.00049239008 0.00048821122    295.94727     41.49527    35.978931    34.423473    90.016431    119.66323    90.107069    18.846055     14.33748    28.380375    18.849013    14.337765 
   77000    295.56332    1.2509986    2001.0168   -1198.9124   -211.49952     2072.893   -2309.2716   -740.90089    44657.537 -0.067234084   -17.036218 -0.041707817    3436.3079    1522.9638    944.65933    824.62839    28.380114    18.845457    14.336778 0.00049407799 0.00049345589 0.00045031598 0.00044859896    295.56332     41.49527    35.978931    34.423473    90.016431    119.66323    90.107069    18.846452    14.337515    28.380129    18.849522    14.340701 
   78000    294.73189    1.2509986     2034.078   -1190.5365   -211.49952    2069.0791   -2309.4526   -674.95557    44657.537 -0.067234084   -17.036218 -0.041707817    3464.9881    1524.6329    934.70262    859.24134    28.380504    18.845422    14.337995 0.00049135808 0.00049130405 0.00051803466 0.00051533579    294.73189     41.49527    35.978931    34.423473    90.016431    119.66323    90.107069    18.846016    14.337901    28.379831    18.847479     14.34016 
   79000       296.55    1.2509986    1994.9561   -1188.5967   -211.49952    2068.1428   -2309.3393    492.34392    44657.537 -0.067234084   -17.036218 -0.041707817    3424.7494    1501.6587    912.98035    863.60914    28.379723    18.846864    14.337445 0.00048558033 0.00048493246 0.00048875534 0.00048777595       296.55     41.49527    35.978931    34.423473    90.016431    119.66323    90.107069    18.846676    14.337237    28.378599    18.848858    14.339442 
   80000     300.7379    1.2509986    2023.3978   -1178.6459   -211.49952    2070.5574   -2309.4961     537.6281    44657.537 -0.067234084   -17.036218 -0.041707817    3440.9824     1521.351    909.50138    860.40939    28.378474    18.844614    14.337053 0.00047886135 0.00047879686 0.00043910702 0.00043723818     300.7379     41.49527    35.978931    34.423473    90.016431    119.66323    90.107069    18.846117    14.337738    28.380193    18.849595    14.340699 
   81000    292.92416    1.2509986    1988.9181   -1197.8432   -211.49952    2074.6742    -2308.941   -164.54276    44657.537 -0.067234084   -17.036218 -0.041707817    3421.0281    1544.4743    900.39139    830.50109    28.378804    18.846774     14.33721 0.00047818276 0.00047766338 0.00045917043 0.00045609503    292.92416     41.49527    35.978931    34.423473    90.016431    119.66323    90.107069    18.845681    14.337875     28.37855    18.848326    14.338377 
   82000    296.22115    1.2509986    2035.5855   -1192.3841   -211.49952    2072.2873   -2309.5389    853.18883    44657.537 -0.067234084   -17.036218 -0.041707817    3465.2212    1543.7566    889.96988    877.08405    28.378242    18.844631    14.337157 0.00046917384 0.00046905704 0.00045236663 0.0004512738    296.22115     41.49527    35.978931    34.423473    90.016431    119.66323    90.107069    18.845966    14.337769    28.378694    18.848527    14.339303 
   83000    302.09709    1.2509986    1970.6065   -1223.7155   -211.49952    2073.1746    -2309.397   -2464.0712    44657.537 -0.067234084   -17.036218 -0.041707817    3430.5444    1580.9746    882.62709    821.48788    28.377348     18.84538    14.337104 0.00046876388 0.0004685598 0.00048676857 0.00048373499    302.09709     41.49527    35.978931    34.423473    90.016431    119.66323    90.107069    18.845882    14.338028    28.380506    18.847984    14.340674 
   84000    295.57416    1.2509986    2064.6029   -1194.3867   -211.49952     2073.654   -2309.1542    192.89995    44657.537 -0.067234084   -17.036218 -0.041707817    3494.4899    1528.7622    933.86662     880.5765     28.37771    18.846121    14.336164 0.0005062172 0.00050553467 0.00054092311 0.00053715912    295.57416     41.49527    35.978931    34.423473    90.016431    119.66323    90.107069    18.845942    14.337053    28.380474    18.847505    14.340444 
   85000    296.77189    1.2509986    1971.5498   -1183.5837   -211.49952    2070.4192   -2309.4592    1757.1602    44657.537 -0.067234084   -17.036218 -0.041707817    3394.1736    1510.4782    862.58046    871.67085    28.378979    18.844669    14.336778 0.00049157603 0.00049110774 0.00047199754 0.00046698058    296.77189     41.49527    35.978931    34.423473    90.016431    119.66323    90.107069    18.845873    14.337161    28.380607    18.847577    14.338277 
   86000     298.9644    1.2509986    2051.7258   -1203.9189   -211.49952    2072.3703   -2309.4587    48.428205    44657.537 -0.067234084   -17.036218 -0.041707817    3492.7332    1565.3383    915.78091    860.96026    28.378713    18.845803    14.337366 0.0005007104 0.0005006581 0.00048472223 0.0004846125     298.9644     41.49527    35.978931    34.423473    90.016431    119.66323    90.107069    18.846369    14.337609    28.379266     18.84887     14.33971 
   87000    299.73379    1.2509986    2046.1868   -1184.9666   -211.49952    2069.6481   -2309.3814    1379.8118    44657.537 -0.067234084   -17.036218 -0.041707817    3470.8866    1555.3012    920.50677    850.35561    28.379853    18.846113    14.337829 0.00046537731 0.00046496926 0.00048757603 0.00048710901    299.73379     41.49527    35.978931    34.423473    90.016431    119.66323    90.107069     18.84635    14.337866    28.378988    18.848645    14.339726 
   88000    299.07056    1.2509986    1977.4013   -1188.5193   -211.49952    2071.5005   -2309.6526    614.97588    44657.537 -0.067234084   -17.036218 -0.041707817    3404.0728    1486.2017    909.10169    859.99099     28.38003    18.846174    14.336795 0.00047783403 0.00047768895 0.0004799706 0.00047884688    299.07056     41.49527    35.978931    34.423473    90.016431    119.66323    90.107069    18.846517    14.337585    28.379565    18.850062    14.339788 
   89000    302.75382    1.2509986    2054.4148    -1180.959   -211.49952    2072.2285   -2309.3664    630.55174    44657.537 -0.067234084   -17.036218 -0.041707817    3472.5118    1531.6631    932.88511     854.1022    28.378964    18.846288    14.337307 0.00047580262 0.00047535131 0.00047838623 0.00047592327    302.75382     41.49527    35.978931    34.423473    90.016431    119.66323    90.107069    18.846833    14.337864    28.380327    18.850248    14.339052 
   90000    301.45842    1.2509986    2060.2866   -1192.0563   -211.49952    2070.9215   -2309.3606    51.629278    44657.537 -0.067234084   -17.036218 -0.041707817    3490.7819    1554.5652    893.60714    890.90622    28.381544    18.845082    14.338102 0.00050358215 0.00050296593 0.00053669287 0.00053491113    301.45842     41.49527    35.978931    34.423473    90.016431    119.66323    90.107069    18.845763    14.337078    28.380099    18.847879     14.33919 
   91000    302.96117    1.2509986    2001.1746   -1206.1105   -211.49952    2073.2405   -2309.4931    405.79273    44657.537 -0.067234084   -17.036218 -0.041707817    3443.5376    1544.3561    898.42927    852.85986    28.380792    18.845528     14.33869 0.00050267476 0.00050209777 0.0005008513 0.0004951887    302.96117     41.49527    35.978931    34.423473    90.016431    119.66323    90.107069    18.845924    14.338452    28.379978    18.847276    14.341209 
   92000     297.7712    1.2509986    1996.9346   -1194.8591   -211.49952    2071.8699   -2309.1067   -111.76404    44657.537 -0.067234084   -17.036218 -0.041707817    3429.0304    1515.2919     917.7495    849.51598    28.379591    18.845933     14.33749 0.00048409515 0.00048309081 0.00046203934 0.00045783306     297.7712     41.49527    35.978931    34.423473    90.016431    119.66323    90.107069      18.8469    14.337126    28.377987    18.850118    14.340361 
   93000    290.56059    1.2509986     1947.981   -1192.8291   -211.49952    2070.5349   -2309.0822   -579.99983    44657.537 -0.067234084   -17.036218 -0.041707817    3379.3574    1506.1039    888.42692    837.77586    28.381847    18.846457    14.338119 0.00047082681 0.00047066859 0.00047427756 0.00047261345    290.56059     41.49527    35.978931    34.423473    90.016431    119.66323    90.107069    18.846265    14.337902    28.380019    18.848951    14.340841 
   94000     304.1974    1.2509986    2017.0758   -1201.8531   -211.49952    2073.8314   -2309.0699      326.956    44657.537 -0.067234084   -17.036218 -0.041707817    3454.1674    1520.1715    927.57371    856.81657    28.380201    18.844216    14.337909 0.00048160476 0.00048104742 0.00048357794 0.00048344866     304.1974     41.49527    35.978931    34.423473    90.016431    119.66323    90.107069    18.845745     14.33827     28.37943    18.848739    14.339834 
   95000    299.86872    1.2509986      2034.08   -1179.0499   -211.49952     2071.865   -2309.2533     939.5306    44657.537 -0.067234084   -17.036218 -0.041707817    3450.5183    1559.9127    903.19792    838.69417    28.379579    18.844328    14.337554 0.00048472476 0.00048441901 0.00048344148 0.00048264951    299.86872     41.49527    35.978931    34.423473    90.016431    119.66323    90.107069    18.846243    14.337718    28.378911    18.849481    14.340033 
   96000    303.58802    1.2509986    2040.0131   -1205.6019   -211.49952     2073.375   -2309.5308    791.98833    44657.537 -0.067234084   -17.036218 -0.041707817    3481.7707    1518.8673    946.32002    867.77121    28.380367    18.845128    14.338021 0.00047544814 0.00047434688 0.00048288593 0.00047869085    303.58802     41.49527    35.978931    34.423473    90.016431    119.66323    90.107069    18.845609    14.338187    28.380468    18.847221    14.339244 
   97000    307.05815    1.2509986    2022.2079   -1190.3308   -211.49952     2072.643   -2309.4673    141.08524    44657.537 -0.067234084   -17.036218 -0.041707817    3449.3631    1537.3598    924.67762    842.95782    28.381216    18.846223    14.337657 0.00049513139 0.00049446881 0.00050088578 0.00049806619    307.05815     41.49527    35.978931    34.423473    90.016431    119.66323    90.107069    18.846304    14.337176    28.379989    18.849343    14.338049 
   98000    299.60478    1.2509986    2117.0124   -1186.9781   -211.49952    2072.6478   -2309.4634     344.2794    44657.537 -0.067234084   -17.036218 -0.041707817     3540.806    1600.9785    920.94053    870.66842    28.378803    18.844746    14.337649 0.00048749678 0.00048734712 0.00050488027 0.00050302488    299.60478     41.49527    35.978931    34.423473    90.016431    119.66323    90.107069    18.846348    14.337833    28.378423    18.849328    14.340325 
   99000    299.90116    1.2509986    1962.7052     -1183.31   -211.49952    2069.1071    -2309.489    722.46821    44657.537 -0.067234084   -17.036218 -0.041707817    3386.3971    1502.0742     893.7683     843.6814    28.380608     18.84417    14.337879 0.00049092138 0.0004906274 0.00050657028 0.00050169192    299.90116     41.49527    35.978931    34.423473    90.016431    119.66323    90.107069    18.846358    14.337246    28.378456     18.84735    14.338689 
  100000     294.8943    1.2509986    2039.1963   -1191.8392   -211.49952    2075.0516   -2309.0521    371.12543    44657.537 -0.067234084   -17.036218 -0.041707817     3465.036    1568.2997    899.54606    848.01063    28.380133    18.846351    14.337521 0.00049177384 0.0004913399 0.00048661997 0.00048533449     294.8943     41.49527    35.978931    34.423473    90.016431    119.66323    90.107069    18.846717    14.337876    28.379572    18.850083    14.340012 
  101000    293.68517    1.2509986    1991.0546   -1200.3058   -211.49952     2069.469   -2309.2408   -1110.1401    44657.537 -0.067234084   -17.036218 -0.041707817    3431.1322    1519.1052    911.11183    858.66057    28.378321    18.844572    14.337223 0.00049262143 0.00049188399 0.00050341852 0.00050179835    293.68517     41.49527    35.978931    34.423473    90.016431    119.66323    90.107069    18.845429    14.337595    28.378689    18.848236    14.340152 
  102000    294.34581    1.2509986    2071.2109   -1190.2758   -211.49952    2071.5792   -2309.3587    167.42314    44657.537 -0.067234084   -17.036218 -0.041707817    3499.2662    1542.1003    937.35751     870.0438    28.378998    18.845399     14.33813 0.00046545237 0.00046502971 0.00044402676 0.00044265196    294.34581     41.49527    35.978931    34.423473    90.016431    119.66323    90.107069     18.84585    14.338231    28.379803    18.849058    14.340784 
  103000    298.82314    1.2509986    2056.3117   -1207.8051   -211.49952    2073.1374   -2309.3827    225.44142    44657.537 -0.067234084   -17.036218 -0.041707817     3500.362    1501.9792    938.05714     904.1713    28.378071    18.846378    14.337675 0.00047427109 0.00047399585 0.00046683919 0.00046313722    298.82314     41.49527    35.978931    34.423473    90.016431    119.66323    90.107069    18.846515    14.337711    28.378163    18.848925    14.338314 
  104000    298.20011    1.2509986    2000.5663   -1173.2605   -211.49952     2072.766   -2309.4254    970.58812    44657.537 -0.067234084   -17.036218 -0.041707817    3410.4861    1518.8604    903.15325    840.85139     28.37819    18.846562    14.337293 0.00049115302 0.00049068819 0.0004468451 0.00044416987    298.20011     41.49527    35.978931    34.423473    90.016431    119.66323    90.107069    18.845894    14.337494    28.379468    18.847667    14.338712 
  105000    291.54958    1.2509986    2049.4032   -1178.4741   -211.49952    2065.9074   -2309.6381    1291.1496    44657.537 -0.067234084   -17.036218 -0.041707817     3471.608    1524.2262     902.0389    892.74244    28.380928    18.844424    14.337623 0.00049933579 0.00049773258 0.00052180188 0.00051961163    291.54958     41.49527    35.978931    34.423473    90.016431    119.66323    90.107069    18.845059    14.337701    28.380253    18.847709    14.339706 
  106000    303.85461    1.2509986    2051.0495   -1204.7355   -211.49952    2074.8103   -2309.6497    219.70618    44657.537 -0.067234084   -17.036218 -0.041707817    3490.6243    1537.1686     889.1803    906.80852    28.380316    18.846644    14.337633 0.00047738874 0.00047725232 0.00048601866 0.00048528508    303.85461     41.49527    35.978931    34.423473    90.016431    119.66323    90.107069    18.845835    14.337828    28.379257    18.849302    14.340387 
  107000    293.92792    1.2509986    2054.4288   -1186.5199   -211.49952    2071.2928   -2309.8106    828.58461    44657.537 -0.067234084   -17.036218 -0.041707817    3479.4665    1534.7262    942.85076    853.94437    28.379701    18.845963    14.338217 0.00046934319 0.00046908746 0.00044071572 0.00043851409    293.92792     41.49527    35.978931    34.423473    90.016431    119.66323    90.107069    18.846636    14.337962    28.379358    18.849192    14.338179 
  108000    294.84855    1.2509986    2024.9338   -1186.3342   -211.49952    2075.0664   -2309.0345   -401.07006    44657.537 -0.067234084   -17.036218 -0.041707817    3445.2362    1557.6558    879.32177    861.38772    28.379427     18.84571    14.337137 0.00046618693  0.000465947 0.00047492436 0.00047222749    294.84855     41.49527    35.978931    34.423473    90.016431    119.66323    90.107069    18.846282    14.337298    28.377914    18.848996    14.339631 
  109000      302.116    1.2509986    2126.6588   -1184.1981   -211.49952     2070.086    -2309.743    203.90419    44657.537 -0.067234084   -17.036218 -0.041707817    3550.5139    1565.1143    922.32405    903.95679    28.380508    18.845889    14.337796 0.00046896523 0.00046886742 0.00046407862 0.00046059207      302.116     41.49527    35.978931    34.423473    90.016431    119.66323    90.107069    18.846073    14.337668    28.380876    18.848209     14.33859 
  110000      304.476    1.2509986    2003.1409   -1184.1199   -211.49952    2070.8621   -2309.5243   -140.59139    44657.537 -0.067234084   -17.036218 -0.041707817    3425.9231    1507.7149    903.16637    864.64078    28.382093    18.846514    14.338301 0.00048384878 0.00048354388 0.00048766055 0.00048666505      304.476     41.49527    35.978931    34.423473    90.016431    119.66323    90.107069    18.846202    14.337378    28.380296    18.848417    14.339944 
  111000    298.75525    1.2509986    2065.5002   -1182.8459   -211.49952    2071.9635   -2309.4453    523.49565    44657.537 -0.067234084   -17.036218 -0.041707817    3485.8279    1534.6256    906.00345    890.52916    28.378873    18.846417     14.33632 0.0004757276 0.00047513935 0.00047591496 0.0004750134    298.75525     41.49527    35.978931    34.423473    90.016431    119.66323    90.107069    18.846748    14.337228    28.380498    18.849039    14.339761 
  112000    304.10106    1.2509986    1983.4408   -1193.7963   -211.49952    2070.5065   -2309.4195    160.80999    44657.537 -0.067234084   -17.036218 -0.041707817    3416.1501    1501.6202     903.8201    860.53851    28.380989    18.845568    14.337378 0.00047266338 0.00047241548 0.00046785172 0.00046607987    304.10106     41.49527    35.978931    34.423473    90.016431    119.66323    90.107069    18.846365     14.33739    28.379372    18.850285    14.339983 
  113000    297.83242    1.2509986    2036.6622   -1175.4864   -211.49952    2066.6201   -2309.5898    365.12715    44657.537 -0.067234084   -17.036218 -0.041707817    3455.1182    1501.3218    928.03939    872.47317    28.378808    18.845958      14.3372 0.00048446153 0.00048359902 0.00049935015 0.00049833834    297.83242     41.49527    35.978931    34.423473    90.016431    119.66323    90.107069       18.846    14.337415    28.379845    18.848378    14.338913 
  114000    294.12912    1.2509986    1976.5205   -1186.5647   -211.49952    2070.5876   -2309.8041    862.66743    44657.537 -0.067234084   -17.036218 -0.041707817    3402.3016    1514.2741     909.7339    834.59034    28.380944    18.846892    14.338257 0.00049133396 0.00049126407 0.00049775196 0.00049653567    294.12912     41.49527    35.978931    34.423473    90.016431    119.66323    90.107069    18.846335     14.33784    28.379036      18.8495    14.340479 
  115000    289.27568    1.2509986    2040.5202   -1187.2318   -211.49952    2072.5811   -2309.4838    165.35002    44657.537 -0.067234084   -17.036218 -0.041707817    3464.6548    1537.6923     904.3208    873.42771    28.379765    18.845141    14.337571 0.00048924659 0.00048829685 0.0004355142 0.00043260868    289.27568     41.49527    35.978931    34.423473    90.016431    119.66323    90.107069    18.846909    14.337643    28.378347    18.850164    14.339297 
  116000    300.70088    1.2509986    2007.9714   -1193.1284   -211.49952    2070.3635   -2309.7718    256.01052    44657.537 -0.067234084   -17.036218 -0.041707817    3440.5081    1484.5665    937.61734    867.49879    28.381557    18.844783    14.338197 0.00047317655 0.00047311591 0.00043762712 0.00043720183    300.70088     41.49527    35.978931    34.423473    90.016431    119.66323    90.107069      18.8461    14.337791    28.380041    18.848711    14.339954 
  117000    296.71378    1.2509986    1998.8426    -1197.771   -211.49952    2069.9726   -2309.4043    137.95241    44657.537 -0.067234084   -17.036218 -0.041707817    3436.0453    1488.8394    897.08173    893.32672     28.37995    18.844545     14.33841 0.00047222886 0.00047142669 0.00047447994 0.00046873188    296.71378     41.49527    35.978931    34.423473    90.016431    119.66323    90.107069    18.845852    14.338235    28.377971    18.847851    14.341011 
  118000    298.76325    1.2509986    2048.0993   -1186.5865   -211.49952    2072.5768   -2309.3284    1486.7632    44657.537 -0.067234084   -17.036218 -0.041707817    3471.4373    1558.9991    912.97073    852.34877        28.38    18.845816    14.337101 0.00049204069 0.00049173885 0.00049811909 0.00049595205    298.76325     41.49527    35.978931    34.423473    90.016431    119.66323    90.107069    18.846619    14.337566    28.380858    18.848737    14.339008 
  119000    304.43987    1.2509986    2051.0504   -1181.8737   -211.49952    2071.3917   -2309.2843    848.75099    44657.537 -0.067234084   -17.036218 -0.041707817    3470.8169    1543.2337    916.03024    862.00451    28.379871    18.845898    14.337275 0.00047716476 0.00047665695 0.00049655112 0.00049635637    304.43987     41.49527    35.978931    34.423473    90.016431    119.66323    90.107069    18.846655    14.337349    28.379945     18.84919    14.339525 
  120000    295.82747    1.2509986    2038.6103   -1206.9715   -211.49952    2070.9292   -2309.8139    27.576903    44657.537 -0.067234084   -17.036218 -0.041707817    3484.4665    1536.6107    926.38177    873.07258    28.379455    18.844337    14.336657 0.00047698177 0.00047673207 0.00045892892 0.00045794248    295.82747     41.49527    35.978931    34.423473    90.016431    119.66323    90.107069    18.846079      14.3373    28.378653    18.849418    14.339563 
  121000    298.46414    1.2509986    2037.1432   -1201.7748   -211.49952    2074.1248   -2309.4038   -569.92177    44657.537 -0.067234084   -17.036218 -0.041707817     3474.197    1556.8107    909.12259    858.88586    28.380984    18.845457    14.337607 0.00049303942 0.00049278758 0.00046460105 0.00046058359    298.46414     41.49527    35.978931    34.423473    90.016431    119.66323    90.107069     18.84657    14.337765    28.380794    18.849257    14.341196 
  122000    303.22842    1.2509986    2098.0115    -1203.765   -211.49952    2067.6868    -2309.729    -1190.175    44657.537 -0.067234084   -17.036218 -0.041707817    3543.8187    1579.5426    944.60215    870.66737    28.380456     18.84622    14.337773 0.00046944944 0.00046906483  0.000473592 0.00047183088    303.22842     41.49527    35.978931    34.423473    90.016431    119.66323    90.107069    18.846678    14.338112    28.380109    18.850218    14.339708 
  123000    297.79399    1.2509986    2017.8864   -1185.5857   -211.49952    2072.2866   -2309.4626    827.87312    44657.537 -0.067234084   -17.036218 -0.041707817     3440.648    1520.9486    926.39847    850.69073     28.38199    18.844344    14.338779 0.00048258667 0.00048159752 0.00050318402 0.00049938057    297.79399     41.49527    35.978931    34.423473    90.016431    119.66323    90.107069     18.84541    14.338308    28.379153    18.848035    14.341276 
  124000     302.5623    1.2509986     2037.402   -1197.3104   -211.49952    2073.3241   -2309.5799    806.07307    44657.537 -0.067234084   -17.036218 -0.041707817    3470.9682    1563.5104    917.19917    842.82251    28.381093    18.845983    14.337954 0.00048243327 0.00048235176 0.00051020215 0.0005020579     302.5623     41.49527    35.978931    34.423473    90.016431    119.66323    90.107069    18.846208    14.337654    28.379697    18.848639    14.342464 
  125000    293.26728    1.2509986    1964.8806   -1183.9628   -211.49952    2071.3086   -2308.9051    999.86092    44657.537 -0.067234084   -17.036218 -0.041707817    3386.4398    1484.3785    866.11997    886.97969    28.381272    18.844255     14.33777 0.00048593757 0.00048578243 0.0004644729 0.00046301916    293.26728     41.49527    35.978931    34.423473    90.016431    119.66323    90.107069    18.846224    14.338021    28.379821     18.84839    14.340636 
  126000    291.25016    1.2509986    2029.4472   -1174.0951   -211.49952    2070.7408    -2309.687    217.97695    44657.537 -0.067234084   -17.036218 -0.041707817    3442.4884    1492.5065    914.96676    877.10227    28.380771    18.845754    14.338101 0.0004894576 0.00048927817 0.00047004066 0.0004684302    291.25016     41.49527    35.978931    34.423473    90.016431    119.66323    90.107069    18.846288    14.338098     28.37904    18.849351    14.340747 
  127000    293.93994    1.2509986    1907.0623   -1182.7042   -211.49952    2067.5046   -2310.0059    121.13217    44657.537 -0.067234084   -17.036218 -0.041707817    3332.2679    1478.0429    836.60886    867.11551    28.381235    18.844857    14.337103 0.00048434476 0.00048382489 0.00049287651 0.00049257061    293.93994     41.49527    35.978931    34.423473    90.016431    119.66323    90.107069    18.846428    14.337708    28.379022     18.84915      14.3396 
  128000      298.209    1.2509986    2059.9289    -1183.309   -211.49952    2072.8364   -2309.3161    61.425759    44657.537 -0.067234084   -17.036218 -0.041707817    3479.7176    1554.7447    912.65152    863.55925    28.379349    18.846393    14.337842  0.000480551 0.00048030671 0.00046830691 0.00046681322      298.209     41.49527    35.978931    34.423473    90.016431    119.66323    90.107069    18.846187    14.338119    28.380385    18.849406    14.340446 
  129000    298.38057    1.2509986    2086.7375   -1186.3766   -211.49952    2076.5525   -2308.9672   -372.29161    44657.537 -0.067234084   -17.036218 -0.041707817    3505.5288    1568.1028      923.767    866.71563    28.380272    18.845529    14.338102 0.00047105162 0.00047069924 0.00047313644 0.00047013138    298.38057     41.49527    35.978931    34.423473    90.016431    119.66323    90.107069    18.845614    14.337908    28.380333    18.847762    14.340553 
  130000    300.37465    1.2509986    1980.2538   -1218.3399   -211.49952    2071.9102   -2309.4005   -543.50187    44657.537 -0.067234084   -17.036218 -0.041707817     3436.084    1542.3592    860.82405    879.31639    28.377313    18.845381    14.336109 0.00050321131 0.00050215276 0.00048631602 0.00048471937    300.37465     41.49527    35.978931    34.423473    90.016431    119.66323    90.107069    18.846197    14.336838    28.380228    18.848929    14.338571 
  131000    295.06393    1.2509986    2017.4547   -1183.5857   -211.49952    2072.5649   -2309.5637    489.51844    44657.537 -0.067234084   -17.036218 -0.041707817    3438.0391    1523.3991    931.27767    837.49007    28.380888    18.843788    14.337568 0.00048152676 0.00048138283 0.00048656928 0.00048502304    295.06393     41.49527    35.978931    34.423473    90.016431    119.66323    90.107069    18.846412    14.337458    28.380215    18.848299    14.340414 
  132000    292.33858    1.2509986    2024.8488   -1215.0518   -211.49952     2075.538    -2309.195    30.971009    44657.537 -0.067234084   -17.036218 -0.041707817    3473.5576    1522.6657    939.41778    863.85721    28.380094    18.846444    14.337305 0.0005015195 0.00050084941 0.00047309502 0.00047251967    292.33858     41.49527    35.978931    34.423473    90.016431    119.66323    90.107069    18.846929    14.337614    28.380227    18.848728     14.33985 
  133000    294.13791    1.2509986     2063.222   -1164.3239   -211.49952    2072.8979   -2309.1452    1087.0015    44657.537 -0.067234084   -17.036218 -0.041707817    3463.7932    1487.1662    899.46049    917.05533     28.37931     18.84678    14.336801 0.00046484013 0.00046446499 0.00047544633 0.0004737427    294.13791     41.49527    35.978931    34.423473    90.016431    119.66323    90.107069    18.846781    14.337635    28.380825    18.849308    14.339548 
  134000    301.28858    1.2509986    2020.4964   -1185.9607   -211.49952    2073.2897   -2309.2643   -254.03857    44657.537 -0.067234084   -17.036218 -0.041707817    3442.4317    1551.3693      875.983    865.09858    28.380538    18.846683    14.337346 0.00049818342 0.00049814297 0.00056170315 0.00055984054    301.28858     41.49527    35.978931    34.423473    90.016431    119.66323    90.107069    18.846321    14.337602    28.379932    18.847784    14.340098 
  135000     298.3446    1.2509986    2071.7469   -1173.9372   -211.49952    2070.7593   -2309.2031    350.42828    44657.537 -0.067234084   -17.036218 -0.041707817    3484.1278    1569.3357    907.29583     861.4786    28.381307    18.844537    14.337917 0.00049416025 0.00049383852 0.00051679539 0.00051620278     298.3446     41.49527    35.978931    34.423473    90.016431    119.66323    90.107069    18.846576    14.337998     28.37898    18.848541     14.33983 
  136000    299.11111    1.2509986    2030.6379   -1194.5869   -211.49952    2071.7833   -2309.4296   -429.09543    44657.537 -0.067234084   -17.036218 -0.041707817     3462.871    1587.4155    870.71293    857.11492    28.378875    18.846518    14.337242 0.0004817005 0.0004816519 0.00044895795 0.00044640655    299.11111     41.49527    35.978931    34.423473    90.016431    119.66323    90.107069     18.84638    14.337669    28.380089    18.848574    14.341079 
  137000    303.05256    1.2509986    1983.5159   -1186.7806   -211.49952    2070.5865   -2309.3383   -847.27997    44657.537 -0.067234084   -17.036218 -0.041707817    3409.0484    1486.1715     905.1756    869.76851    28.378824     18.84585    14.337534 0.00048478123 0.00048446723 0.00050479648 0.00050401554    303.05256     41.49527    35.978931    34.423473    90.016431    119.66323    90.107069    18.846638    14.337575    28.379682    18.849872    14.339802 
  138000    301.62421    1.2509986    2054.1544   -1196.3779   -211.49952    2069.7277   -2309.4662   -88.714793    44657.537 -0.067234084   -17.036218 -0.041707817    3490.2707    1564.1841    914.10524    863.80759    28.378264    18.845165     14.33687 0.00049908131 0.00049883567 0.00052461899 0.00052363454    301.62421     41.49527    35.978931    34.423473    90.016431    119.66323    90.107069    18.846645    14.337866    28.379097    18.849886    14.339536 
  139000    302.88746    1.2509986    2000.6046    -1177.988   -211.49952    2071.2918    -2309.286     2787.604    44657.537 -0.067234084   -17.036218 -0.041707817    3416.5868    1485.9232    910.10585    867.55102    28.379578    18.845185    14.336641 0.00047978552 0.00047908421 0.00045867392 0.00045579634    302.88746     41.49527    35.978931    34.423473    90.016431    119.66323    90.107069    18.845821     14.33702     28.38046    18.847899    14.338732 
  140000    296.05265    1.2509986    2043.4621   -1195.2079   -211.49952    2072.6417   -2309.2322    340.34405    44657.537 -0.067234084   -17.036218 -0.041707817    3475.2605    1534.7879    878.73083    903.18695    28.381229    18.845495    14.337569 0.00047544831 0.00047534416 0.00050948389 0.00050834226    296.05265     41.49527    35.978931    34.423473    90.016431    119.66323    90.107069    18.845939    14.337566    28.379944    18.848262    14.338984 
  141000    303.85902    1.2509986    2023.5157   -1188.0242   -211.49952    2069.0082   -2309.4819   -975.72409    44657.537 -0.067234084   -17.036218 -0.041707817    3452.0136    1517.3462    949.24414      840.819    28.381686    18.846083    14.337862 0.00047178757 0.00047098312 0.00047994332 0.00047407194    303.85902     41.49527    35.978931    34.423473    90.016431    119.66323    90.107069    18.846546    14.337394    28.380735    18.849836    14.337687 
  142000     291.7252    1.2509986    2006.9769     -1184.41   -211.49952    2069.8366   -2309.1516    176.86451    44657.537 -0.067234084   -17.036218 -0.041707817     3430.702    1522.6513    857.61499    898.11254    28.380762    18.844774    14.337911 0.00048412608 0.00048408889 0.00049543477 0.00049373399     291.7252     41.49527    35.978931    34.423473    90.016431    119.66323    90.107069    18.846015    14.337825    28.378923    18.848467    14.340639 
  143000    302.95527    1.2509986    2102.5502   -1202.3028   -211.49952    2068.5685   -2309.4818   -55.106343    44657.537 -0.067234084   -17.036218 -0.041707817    3545.7664    1560.9242     952.3033    881.25181     28.37846    18.846418    14.336969 0.00049727136 0.00049720459 0.00051179309 0.00050946812    302.95527     41.49527    35.978931    34.423473    90.016431    119.66323    90.107069    18.846241    14.337794    28.379164    18.847719    14.338934 
  144000    299.32537    1.2509986    2083.6773   -1193.4101   -211.49952     2069.629   -2309.4899   -347.20568    44657.537 -0.067234084   -17.036218 -0.041707817    3516.9484     1563.642    919.21071    881.77669    28.380709    18.845501    14.338123 0.00050150746 0.0005012318 0.00047104436 0.00047027928    299.32537     41.49527    35.978931    34.423473    90.016431    119.66323    90.107069    18.845878    14.337474    28.380129    18.849669    14.339718 
  145000    295.79293    1.2509986    2031.7437   -1176.3294   -211.49952    2072.5843   -2309.4569    1892.3582    44657.537 -0.067234084   -17.036218 -0.041707817    3444.9457    1511.4736    944.01036    847.27218    28.378157    18.846228    14.336969 0.00049605483 0.00049576336 0.00045233935 0.00045212542    295.79293     41.49527    35.978931    34.423473    90.016431    119.66323    90.107069    18.846553    14.337354    28.379775    18.848607    14.339608 
  146000     296.8501    1.2509986    2027.2603   -1194.0569   -211.49952    2071.9939   -2309.3601    211.38812    44657.537 -0.067234084   -17.036218 -0.041707817    3458.6834    1516.8725     933.3671    856.35303    28.379752    18.845675    14.337528 0.00049721787 0.0004967172 0.00047167763 0.00046892235     296.8501     41.49527    35.978931    34.423473    90.016431    119.66323    90.107069    18.846698    14.337556     28.38037    18.850346    14.339076 
  147000    295.68774    1.2509986    2078.2349   -1189.3013   -211.49952     2076.103   -2309.3431    1231.1649    44657.537 -0.067234084   -17.036218 -0.041707817    3500.7764    1579.5544    910.18322    860.11981     28.37911    18.845236    14.337226 0.00049839375 0.00049822815 0.00047684175 0.00047325742    295.68774     41.49527    35.978931    34.423473    90.016431    119.66323    90.107069    18.846224    14.338054    28.378254    18.848107    14.340671 
  148000    295.90293    1.2509986    2008.4419   -1197.5812   -211.49952    2073.1909   -2309.4014   -689.85704    44657.537 -0.067234084   -17.036218 -0.041707817    3442.2337    1523.5196     913.9566    855.29662    28.377015    18.846968    14.337215 0.00048840914 0.00048778203 0.00047362639 0.00047154484    295.90293     41.49527    35.978931    34.423473    90.016431    119.66323    90.107069    18.846958    14.337777    28.380486    18.849396    14.338603 
  149000    300.62367    1.2509986    1980.9834   -1187.1692   -211.49952    2071.6192   -2309.3769    980.80174    44657.537 -0.067234084   -17.036218 -0.041707817    3405.9102    1507.0922    888.84958     861.8959    28.379684    18.845961    14.337025 0.00047887333 0.00047862871 0.00050341747 0.00050314551    300.62367     41.49527    35.978931    34.423473    90.016431    119.66323    90.107069    18.846341    14.337311    28.380019    18.848777    14.339691 
  150000    298.72702    1.2509986    2047.1644   -1199.3381   -211.49952    2071.5988   -2309.6036   -369.90691    44657.537 -0.067234084   -17.036218 -0.041707817    3484.5074    1572.2404    878.80077    882.18551    28.379587    18.845742    14.337165 0.00047743005 0.00047740607 0.0004951755 0.00049284862    298.72702     41.49527    35.978931    34.423473    90.016431    119.66323    90.107069    18.846043    14.337805    28.380531    18.850178    14.339779 
  151000    299.02797    1.2509986    2098.9973    -1198.765   -211.49952    2070.2303   -2309.4376   -1326.7802    44657.537 -0.067234084   -17.036218 -0.041707817    3536.9696    1606.5879    896.23668    883.70544    28.376183    18.845529    14.336283 0.00049372277 0.00049366736 0.00046858933 0.00046523559    299.02797     41.49527    35.978931    34.423473    90.016431    119.66323    90.107069    18.846357    14.337716    28.381295    18.849278    14.340148 
  152000    298.70864    1.2509986    1998.8484    -1193.116   -211.49952    2069.6143   -2309.4787    130.74965    44657.537 -0.067234084   -17.036218 -0.041707817    3431.8289    1537.1614    903.59487     843.2735     28.37995    18.846624     14.33772 0.00046778977 0.00046754899 0.00050450855 0.00050280226    298.70864     41.49527    35.978931    34.423473    90.016431    119.66323    90.107069    18.846418    14.337338    28.379494    18.848861    14.338342 
  153000    296.26189    1.2509986    2013.4958   -1207.5161   -211.49952    2073.0034   -2309.3418      40.5759    44657.537 -0.067234084   -17.036218 -0.041707817    3457.3502    1549.0996    895.69169    860.68654    28.378554    18.845462    14.338148 0.00049375195 0.0004929713 0.00048362263 0.00048299201    296.26189     41.49527    35.978931    34.423473    90.016431    119.66323    90.107069    18.845993    14.338601    28.379153    18.849245    14.340282 
  154000    296.09873    1.2509986    2018.5558   -1193.4884   -211.49952    2070.2436   -2309.9177    947.84224    44657.537 -0.067234084   -17.036218 -0.041707817    3451.7184    1488.5282    910.22936    899.55564    28.380274     18.84518    14.337053 0.00048531146 0.00048437877 0.00046984591 0.00046501577    296.09873     41.49527    35.978931    34.423473    90.016431    119.66323    90.107069    18.845626    14.337162    28.380096    18.847031    14.338858 
  155000    296.60053    1.2509986    2040.3815   -1208.4994   -211.49952    2073.6417   -2309.1904    200.63825    44657.537 -0.067234084   -17.036218 -0.041707817    3484.4296    1501.4115    930.30779    895.89934    28.378734    18.846098    14.336609 0.00049653119 0.00049619455 0.00045020339 0.00044940688    296.60053     41.49527    35.978931    34.423473    90.016431    119.66323    90.107069    18.846578    14.337327    28.379157    18.849465     14.33898 
  156000    301.10243    1.2509986     1992.413   -1184.0172   -211.49952    2070.7444    -2309.516    681.93452    44657.537 -0.067234084   -17.036218 -0.041707817    3415.2017    1465.0756    929.34261    869.97907    28.379403    18.845243    14.337675 0.00048949672 0.00048860134 0.00045926922 0.00045639362    301.10243     41.49527    35.978931    34.423473    90.016431    119.66323    90.107069    18.846336    14.338375    28.380355    18.849705    14.340964 
  157000    291.20252    1.2509986    2036.8069    -1176.583   -211.49952    2072.7522   -2309.0421    267.97683    44657.537 -0.067234084   -17.036218 -0.041707817    3449.6798    1531.4778     915.5169    852.69893    28.377904    18.845344    14.337021 0.00048331962 0.00048262648 0.00046497272 0.00046322291    291.20252     41.49527    35.978931    34.423473    90.016431    119.66323    90.107069    18.845623    14.337402    28.378482    18.848495    14.339066 
  158000    301.50117    1.2509986    2030.9031   -1174.1547   -211.49952    2067.9181   -2309.5533    340.38711    44657.537 -0.067234084   -17.036218 -0.041707817    3446.6929    1539.4567    892.55217    865.11518    28.380256    18.845127    14.337798 0.0004778068 0.00047757049 0.00049622647 0.00049548039    301.50117     41.49527    35.978931    34.423473    90.016431    119.66323    90.107069    18.846531    14.337983    28.380291    18.848828    14.340053 
  159000    299.91365    1.2509986    2042.0851   -1195.0638   -211.49952    2071.1357   -2308.7671   -446.49678    44657.537 -0.067234084   -17.036218 -0.041707817    3474.7802    1529.1522     939.3903    856.77526    28.379793     18.84632    14.337507 0.00047776673 0.00047738199 0.0004612493 0.00045516516    299.91365     41.49527    35.978931    34.423473    90.016431    119.66323    90.107069    18.845652    14.337541    28.381162    18.847557    14.338461 
  160000    299.37335    1.2509986    2056.7639   -1191.8837   -211.49952    2069.7676    -2309.561     462.7042    44657.537 -0.067234084   -17.036218 -0.041707817     3488.441    1555.1697    910.99866    871.11464    28.378191    18.846182    14.337521 0.00047317448 0.00047261803 0.00048023871 0.00047982431    299.37335     41.49527    35.978931    34.423473    90.016431    119.66323    90.107069    18.845576    14.337704    28.379798    18.848614    14.340082 
  161000    304.61942    1.2509986    2086.0896   -1184.6531   -211.49952    2069.3578    -2309.779     578.8358    44657.537 -0.067234084   -17.036218 -0.041707817    3511.1639    1555.3949    918.80896    885.51676    28.379912     18.84593     14.33747 0.00047578768 0.00047575529 0.0004417486 0.00044147055    304.61942     41.49527    35.978931    34.423473    90.016431    119.66323    90.107069    18.846273    14.337591    28.379145    18.848683    14.339625 
  162000    294.09165    1.2509986    1993.1875   -1184.8454   -211.49952    2069.6069    -2309.655    1053.1351    44657.537 -0.067234084   -17.036218 -0.041707817     3418.081    1499.8488    917.86485    855.03067    28.380527    18.846452    14.338031 0.00049235287 0.00049209072 0.00049746124 0.00049731134    294.09165     41.49527    35.978931    34.423473    90.016431    119.66323    90.107069    18.846674    14.337738    28.379436    18.849315    14.339848 
  163000    292.68321    1.2509986    2019.1334   -1179.0135   -211.49952    2073.0686    -2308.938   -433.51623    44657.537 -0.067234084   -17.036218 -0.041707817    3434.0162    1508.6082    952.61503    825.34863    28.378575    18.845695    14.336786 0.00048268691 0.00048264347 0.00045056993 0.00044914396    292.68321     41.49527    35.978931    34.423473    90.016431    119.66323    90.107069    18.846037    14.337785    28.379986    18.848922    14.338528 
  164000    296.60047    1.2509986    2042.0041   -1190.9206   -211.49952    2072.6867   -2309.2995    992.76063    44657.537 -0.067234084   -17.036218 -0.041707817    3469.5375    1527.6336    911.41094    877.56104    28.380898    18.846076    14.337889 0.00048316987 0.00048283463 0.00050075099 0.00049610625    296.60047     41.49527    35.978931    34.423473    90.016431    119.66323    90.107069    18.846293    14.337959    28.381533    18.849148    14.340487 
[...]
  961000    299.54055    1.2509986    1884.2366   -1220.0038   -211.49952    2070.2779   -2309.6535   -1289.2241    44657.537 -0.067234084   -17.036218 -0.041707817     3343.616    1481.7181    915.39399    803.86224     28.38234     18.84532    14.338099 0.00047051643 0.00046974333 0.00047208841 0.00046811639    299.54055     41.49527    35.978931    34.423473    90.016431    119.66323    90.107069    18.846759    14.337951    28.381267    18.849815    14.340274 
  962000    300.76194    1.2509986     2058.431   -1172.6363   -211.49952    2072.1325    -2309.134    1460.4519    44657.537 -0.067234084   -17.036218 -0.041707817    3468.0688    1506.1199    907.13681    904.13791    28.377593    18.845951    14.336473 0.00047374655 0.00047350876 0.00046532145 0.00046310827    300.76194     41.49527    35.978931    34.423473    90.016431    119.66323    90.107069    18.846395    14.337461    28.379305    18.850381    14.340166 
  963000    294.15943    1.2509986    2050.3181   -1199.9027   -211.49952    2080.0845   -2308.4699    750.91975    44657.537 -0.067234084   -17.036218 -0.041707817    3478.6062    1537.4507     882.0458     903.5878    28.379159    18.846052     14.33727 0.00047499988 0.00047482878 0.00046640198 0.00046516765    294.15943     41.49527    35.978931    34.423473    90.016431    119.66323    90.107069    18.846221    14.337945    28.379734    18.848023     14.34011 
  964000    295.06999    1.2509986    2041.4016    -1179.002   -211.49952    2073.8937   -2309.3919    266.74439    44657.537 -0.067234084   -17.036218 -0.041707817    3455.9018    1547.9568    890.43007    865.19354    28.377252    18.846611     14.33712 0.00049156598 0.00049136957 0.00046506208 0.0004637175    295.06999     41.49527    35.978931    34.423473    90.016431    119.66323    90.107069    18.846415    14.337374    28.380059    18.848035    14.339268 
  965000    299.17729    1.2509986    2022.5195   -1187.3831   -211.49952     2070.838   -2309.3206    950.25479    44657.537 -0.067234084   -17.036218 -0.041707817    3448.3852    1530.1447    869.75142    895.05326    28.377263    18.845524    14.336377 0.00048886251 0.00048832137 0.00050564153 0.00050540976    299.17729     41.49527    35.978931    34.423473    90.016431    119.66323    90.107069    18.846875    14.337608    28.379552    18.848587    14.339862 
  966000    294.24328    1.2509986    2003.5371   -1180.7453   -211.49952    2076.2303   -2309.4381    2172.6144    44657.537 -0.067234084   -17.036218 -0.041707817    3417.4902    1520.7891    913.75436    839.06778    28.381667    18.845093    14.337382 0.0004947179 0.0004947094 0.00048767921 0.00048571704    294.24328     41.49527    35.978931    34.423473    90.016431    119.66323    90.107069    18.846094    14.337711    28.378671      18.8482    14.340357 
  967000    295.51722    1.2509986    2043.8298   -1186.4837   -211.49952    2070.7543   -2309.2054     1247.506    44657.537 -0.067234084   -17.036218 -0.041707817    3468.7646    1564.7587    937.24227    822.95248    28.381332    18.845291    14.338013 0.00049282324 0.00049265594 0.00047714509 0.00047430742    295.51722     41.49527    35.978931    34.423473    90.016431    119.66323    90.107069    18.846472    14.337814    28.380073    18.848325     14.33819 
  968000    297.59011    1.2509986    2010.2513   -1203.3787   -211.49952    2072.6099    -2308.988   -89.299754    44657.537 -0.067234084   -17.036218 -0.041707817    3450.0081    1519.3386      926.238    856.09525    28.378868    18.846978    14.336785 0.00048849246 0.00048842005 0.00045515315 0.00045409124    297.59011     41.49527    35.978931    34.423473    90.016431    119.66323    90.107069    18.845954    14.337742    28.378871    18.848546    14.340249 
  969000    293.81855    1.2509986    1979.5111   -1202.5082   -211.49952    2076.3614   -2309.1752    384.52909    44657.537 -0.067234084   -17.036218 -0.041707817     3414.833    1462.8104     908.7238    885.91599    28.380508     18.84591    14.337418 0.0004813215 0.00048107097 0.00046193563 0.00046065307    293.81855     41.49527    35.978931    34.423473    90.016431    119.66323    90.107069    18.846408    14.337749     28.37949    18.849553    14.340631 
  970000    289.79925    1.2509986    2068.2663    -1197.749   -211.49952    2072.3766   -2309.1469    425.05179    44657.537 -0.067234084   -17.036218 -0.041707817    3502.7857    1532.8869    925.82796    889.22362    28.378599    18.845663    14.337232 0.00046866405 0.00046850927 0.0004545242 0.00045385396    289.79925     41.49527    35.978931    34.423473    90.016431    119.66323    90.107069    18.846124    14.338082    28.380205    18.848671    14.339273 
  971000    307.31898    1.2509986    2055.3639   -1183.5515   -211.49952    2071.4776   -2309.4195    1202.6074    44657.537 -0.067234084   -17.036218 -0.041707817    3476.8572    1532.6448    912.22985    877.90802    28.379567    18.845844    14.336801 0.00047434958 0.00047423112 0.00044055484 0.00044034248    307.31898     41.49527    35.978931    34.423473    90.016431    119.66323    90.107069     18.84636    14.337495    28.379806    18.848849    14.339989 
  972000    300.55353    1.2509986    1972.0863   -1188.0535   -211.49952    2071.1929   -2308.9792   -41.759638    44657.537 -0.067234084   -17.036218 -0.041707817    3397.9261    1477.1763    891.55975    880.68091    28.380711    18.845046    14.339032 0.00049069231 0.00049000124 0.00046706385 0.00046589665    300.55353     41.49527    35.978931    34.423473    90.016431    119.66323    90.107069     18.84652    14.338497    28.379272    18.849956    14.340082 
  973000    307.77759    1.2509986    1970.9996   -1194.6114   -211.49952    2075.4826   -2309.2471    967.39921    44657.537 -0.067234084   -17.036218 -0.041707817    3399.3754    1553.3043    860.89942    837.37934    28.379173    18.847206    14.337841 0.00047549968 0.00047486555 0.00046257268 0.00046235205    307.77759     41.49527    35.978931    34.423473    90.016431    119.66323    90.107069    18.846929    14.338013    28.379262    18.849369    14.339721 
  974000     291.4924    1.2509986    2059.1581   -1189.2552   -211.49952    2070.3879   -2309.5756    182.87859    44657.537 -0.067234084   -17.036218 -0.041707817     3487.601    1580.8147    896.41223    858.14666    28.379714    18.844306     14.33775 0.00047733916 0.0004765361 0.00048885394 0.00048529824     291.4924     41.49527    35.978931    34.423473    90.016431    119.66323    90.107069    18.845592    14.337383    28.378738    18.848366    14.338067 
  975000    301.32334    1.2509986    2068.6562   -1190.3421   -211.49952      2068.03   -2309.7199   -220.58186    44657.537 -0.067234084   -17.036218 -0.041707817    3500.6881    1580.8543    928.19356    844.65996    28.378328    18.846626    14.337603 0.0004802224 0.00047937969 0.00050777626 0.00050392629    301.32334     41.49527    35.978931    34.423473    90.016431    119.66323    90.107069    18.846935    14.337941     28.37921    18.850388    14.340994 
  976000    303.51906    1.2509986    2039.9501   -1190.6471   -211.49952    2069.0756   -2309.7224    1423.9415    44657.537 -0.067234084   -17.036218 -0.041707817     3471.244    1549.3519     875.5798    894.71513    28.378304    18.845456    14.337092 0.00048024222 0.00047956739 0.00046470988 0.0004609004    303.51906     41.49527    35.978931    34.423473    90.016431    119.66323    90.107069    18.845583    14.338212    28.380316    18.847705    14.340872 
  977000    297.88056    1.2509986     2088.125   -1188.2202   -211.49952    2071.9758   -2309.2142   -19.354915    44657.537 -0.067234084   -17.036218 -0.041707817    3513.5836    1559.6239    923.61546     877.8774    28.376858    18.846183    14.336545 0.00048671312 0.00048654786 0.00045101344 0.00045096928    297.88056     41.49527    35.978931    34.423473    90.016431    119.66323    90.107069    18.846458    14.337588     28.37938    18.849115    14.339688 
  978000    304.72853    1.2509986     2019.829   -1171.8478   -211.49952    2069.7013   -2309.5174    833.67764    44657.537 -0.067234084   -17.036218 -0.041707817    3431.4928     1540.166    886.00803     860.3493    28.379877    18.845751    14.337375 0.0004950421 0.00049473951 0.0005248348 0.00052400345    304.72853     41.49527    35.978931    34.423473    90.016431    119.66323    90.107069     18.84581    14.337803    28.379151    18.849048    14.340454 
  979000    294.17601    1.2509986    2035.6925   -1184.3319   -211.49952    2071.1709    -2309.275     1188.273    44657.537 -0.067234084   -17.036218 -0.041707817    3458.1286    1528.5226    925.94886    859.78897    28.381857    18.844454    14.338691 0.00047136187 0.00047119163 0.00051611518 0.00051550207    294.17601     41.49527    35.978931    34.423473    90.016431    119.66323    90.107069    18.846131    14.337968    28.380026    18.848395     14.33974 
  980000    299.62381    1.2509986    1919.3249   -1188.6043   -211.49952    2070.5484   -2309.4238    359.25854    44657.537 -0.067234084   -17.036218 -0.041707817    3346.8046    1456.0698    902.19431    841.45308    28.380354    18.845801    14.337347 0.00048510746 0.00048488338 0.00045448907 0.00045145234    299.62381     41.49527    35.978931    34.423473    90.016431    119.66323    90.107069    18.846626    14.337599    28.381145    18.849611    14.339245 
  981000    302.81938    1.2509986    2016.1541   -1181.3697   -211.49952    2072.0631   -2309.4017    1548.1936    44657.537 -0.067234084   -17.036218 -0.041707817    3434.8624    1525.5335    897.48453    857.16324    28.379191     18.84499    14.337253 0.00050115784 0.00050103726 0.00045949386 0.00045812506    302.81938     41.49527    35.978931    34.423473    90.016431    119.66323    90.107069    18.846433    14.337902    28.379571    18.847862    14.339429 
  982000    298.16732    1.2509986    2013.3819   -1199.1807   -211.49952    2072.8672   -2309.2765   -231.66959    44657.537 -0.067234084   -17.036218 -0.041707817    3448.9718    1525.0259    913.84987    858.19536    28.379665    18.846065    14.337545 0.0004996234 0.00049939269 0.00050756377 0.0005074158    298.16732     41.49527    35.978931    34.423473    90.016431    119.66323    90.107069    18.845919    14.338071    28.379811    18.849076    14.339919 
  983000    307.22206    1.2509986    2081.1249   -1178.6717   -211.49952    2073.2865   -2309.2607    1209.4998    44657.537 -0.067234084   -17.036218 -0.041707817    3495.7708    1512.8531    966.32134    870.23163    28.378884    18.845716    14.336972 0.00048197627 0.00048126205 0.00044103989 0.00043874031    307.22206     41.49527    35.978931    34.423473    90.016431    119.66323    90.107069    18.846189    14.337387    28.380998    18.849373    14.339333 
  984000    298.59732    1.2509986     2005.761   -1171.5933   -211.49952    2069.9063   -2309.3752    1580.2825    44657.537 -0.067234084   -17.036218 -0.041707817    3416.8232    1554.3841    906.16264    812.88545    28.379129    18.844949    14.337325 0.00047322044 0.00047291247 0.00047247243 0.00047076793    298.59732     41.49527    35.978931    34.423473    90.016431    119.66323    90.107069    18.846012    14.338053    28.378792    18.849988    14.339227 
  985000    296.42388    1.2509986    2045.7078   -1185.0234   -211.49952    2069.6065   -2309.6329     23.26077    44657.537 -0.067234084   -17.036218 -0.041707817    3470.7575    1558.2832    884.61032    878.15162    28.378906    18.846197    14.336558 0.00047789748 0.0004776347 0.00043258715 0.00043239084    296.42388     41.49527    35.978931    34.423473    90.016431    119.66323    90.107069    18.846397    14.337807    28.379691    18.848701    14.339923 
  986000    306.47242    1.2509986    2100.6776   -1211.9148   -211.49952    2071.5733   -2309.4928   -856.62044    44657.537 -0.067234084   -17.036218 -0.041707817    3550.5119    1559.3637    944.72721    887.72761    28.380422     18.84442    14.337025 0.00048584306 0.00048527087 0.00047882873 0.00047654612    306.47242     41.49527    35.978931    34.423473    90.016431    119.66323    90.107069    18.845482    14.337887    28.380718    18.848073    14.339864 
  987000    294.72395    1.2509986     2065.885   -1183.3573   -211.49952     2075.429   -2308.9156    381.06008    44657.537 -0.067234084   -17.036218 -0.041707817    3482.7289    1566.7502    898.30839     864.1419    28.378603    18.844302    14.337691 0.00048655639 0.00048649006 0.00047553578 0.0004750814    294.72395     41.49527    35.978931    34.423473    90.016431    119.66323    90.107069    18.846317    14.337689    28.379497    18.849612    14.339335 
  988000    301.06705    1.2509986    1993.6583   -1214.0149   -211.49952    2069.1321   -2309.4887   -2274.3613    44657.537 -0.067234084   -17.036218 -0.041707817    3448.0299    1546.7644    909.91188    841.19763    28.377839    18.844838    14.336664  0.000493939 0.00049375184 0.00047141153 0.00047030341    301.06705     41.49527    35.978931    34.423473    90.016431    119.66323    90.107069    18.846409    14.337381    28.380223    18.849666    14.340126 
  989000     299.3015    1.2509986     1942.862   -1196.5852   -211.49952    2071.0532    -2309.188    227.67613    44657.537 -0.067234084   -17.036218 -0.041707817     3377.582    1452.7328    893.06742    884.51544    28.380139    18.846568    14.337755 0.00048598318 0.00048564963 0.00048487776 0.00048341307     299.3015     41.49527    35.978931    34.423473    90.016431    119.66323    90.107069    18.846163    14.337602    28.380073    18.847918    14.339646 
  990000    291.43445    1.2509986    2007.2005   -1179.7176   -211.49952    2069.9494    -2309.972    953.20058    44657.537 -0.067234084   -17.036218 -0.041707817    3426.9408    1487.4207     919.7956    864.15703    28.381089    18.845693    14.338543 0.00049593634 0.00049556533 0.0005278061 0.00052654833    291.43445     41.49527    35.978931    34.423473    90.016431    119.66323    90.107069    18.846074    14.338253    28.380437    18.848477    14.340081 
  991000    297.58089    1.2509986    2109.7692   -1198.9577   -211.49952    2073.9087   -2309.0274   -1051.1996    44657.537 -0.067234084   -17.036218 -0.041707817    3543.8455     1583.667    894.51639     907.4691    28.377331    18.846613    14.336837 0.00049155624 0.00049140602 0.00051657519 0.00051619627    297.58089     41.49527    35.978931    34.423473    90.016431    119.66323    90.107069    18.846169    14.337534    28.380115    18.848925    14.339883 
  992000    295.67193    1.2509986    2068.3384   -1203.2962   -211.49952    2075.4091   -2309.4342    388.01959    44657.537 -0.067234084   -17.036218 -0.041707817    3505.6596    1538.7852    898.79546    907.74637    28.381405    18.845193    14.337682 0.00049334068 0.00049312998 0.00049711857 0.0004956328    295.67193     41.49527    35.978931    34.423473    90.016431    119.66323    90.107069    18.846075    14.337508    28.379918    18.848398    14.340626 
  993000    292.55363    1.2509986    2003.5215   -1195.6803   -211.49952    2071.9764    -2309.508    690.73778    44657.537 -0.067234084   -17.036218 -0.041707817    3436.7335    1500.6574    917.94144    864.47578    28.377852    18.846679    14.337337 0.00047148077 0.00047144748 0.00045545299 0.0004530267    292.55363     41.49527    35.978931    34.423473    90.016431    119.66323    90.107069     18.84625    14.337628    28.381064    18.849081     14.33925 
  994000    300.71281    1.2509986    2052.4142   -1187.4152   -211.49952    2070.5088   -2309.4456    169.23738    44657.537 -0.067234084   -17.036218 -0.041707817    3478.7662    1523.7687    927.74512    873.38325    28.379033    18.845371    14.337128 0.00048095844 0.00048079109 0.00046867074 0.00046752225    300.71281     41.49527    35.978931    34.423473    90.016431    119.66323    90.107069    18.846031    14.337764    28.380241     18.84894     14.34046 
  995000    295.13702    1.2509986    2054.1997   -1194.7504   -211.49952    2073.6331   -2309.4218    1662.1427    44657.537 -0.067234084   -17.036218 -0.041707817    3484.7387    1551.2199    919.11376    863.56567     28.37925    18.845246    14.337706 0.00047415075 0.0004739061 0.00048263957 0.00047854556    295.13702     41.49527    35.978931    34.423473    90.016431    119.66323    90.107069     18.84594    14.338134    28.380546    18.848186    14.341198 
  996000    299.21777    1.2509986    2001.9658   -1183.7084   -211.49952    2074.1244   -2309.2743    1197.5135    44657.537 -0.067234084   -17.036218 -0.041707817    3420.8242     1501.346    895.11749    873.68336    28.377451    18.845673    14.337181 0.00047856648 0.00047832738 0.00048931233 0.00048848735    299.21777     41.49527    35.978931    34.423473    90.016431    119.66323    90.107069    18.846157    14.338056    28.380034    18.848612    14.338978 
  997000    291.47918    1.2509986    2006.4319   -1176.4413   -211.49952     2072.581   -2309.3104    1365.9715    44657.537 -0.067234084   -17.036218 -0.041707817    3419.6026    1528.6629    898.32136    851.25906    28.377225    18.845477    14.335955 0.00049487603 0.00049437287  0.000465267 0.00046292688    291.47918     41.49527    35.978931    34.423473    90.016431    119.66323    90.107069    18.846331    14.337397    28.379427    18.850467    14.340094 
  998000    302.69331    1.2509986    2066.4517    -1176.668   -211.49952    2069.7431   -2309.7331    1923.4766    44657.537 -0.067234084   -17.036218 -0.041707817    3483.1097    1541.9895    920.79332    866.38604    28.379245    18.845232    14.337203 0.00048531412 0.00048484108 0.00052952077 0.00052838534    302.69331     41.49527    35.978931    34.423473    90.016431    119.66323    90.107069     18.84552    14.337565    28.378995    18.849476     14.33886 
  999000    296.92291    1.2509986     1966.326   -1184.3269   -211.49952    2066.5583   -2309.9059     54.64303    44657.537 -0.067234084   -17.036218 -0.041707817    3394.0005    1473.1726    894.97499    872.41298    28.380149    18.845823    14.337646 0.00047759773 0.00047723179 0.00045019085 0.00044843749    296.92291     41.49527    35.978931    34.423473    90.016431    119.66323    90.107069    18.845773    14.337582    28.380042    18.847792    14.339799 
 1000000    295.07603    1.2509986    1955.8427   -1217.9511   -211.49952    2072.9778   -2309.1431   -632.09511    44657.537 -0.067234084   -17.036218 -0.041707817    3409.9591     1506.442    890.90979    859.79616    28.380924    18.844917    14.338454 0.00050348867 0.00050316851 0.00046912542 0.0004658117    295.07603     41.49527    35.978931    34.423473    90.016431    119.66323    90.107069    18.845785    14.337907    28.378727    18.847448    14.339216 
Loop time of 3012.34 on 60 procs for 1000000 steps with 4560 atoms

Pair  time (%) = 543.333 (18.0369)
Bond  time (%) = 58.8932 (1.95507)
Kspce time (%) = 1563.93 (51.9174)
Neigh time (%) = 2.20229 (0.0731091)
Comm  time (%) = 582.01 (19.3209)
Outpt time (%) = 3.11798 (0.103507)
Other time (%) = 258.853 (8.59309)

Nlocal:    76 ave 85 max 68 min
Histogram: 1 5 11 5 13 7 6 8 2 2
Nghost:    3998.13 ave 4075 max 3897 min
Histogram: 3 8 7 2 0 3 9 14 10 4
Neighs:    28104.4 ave 31689 max 24977 min
Histogram: 2 4 11 4 13 9 8 5 3 1

Total # of neighbors = 1686263
Ave neighs/atom = 369.795
Ave special neighs/atom = 10.6316
Neighbor list builds = 979
Dangerous builds = 0
System init for write_data ...
PPPM initialization ...
  G vector (1/distance) = 0.246499
  grid = 16 16 20
  stencil order = 5
  estimated absolute RMS force accuracy = 0.00242397
  estimated relative force accuracy = 7.2997e-06
  using double precision FFTs
  3d grid and FFT values/proc = 1053 112
