LAMMPS data file via write_data, version 15 May 2015, timestep = 23005000

2611 atoms
6 atom types
1749 bonds
4 bond types
894 angles
3 angle types
44 dihedrals
3 dihedral types
10 impropers
1 improper types

-1.5001744852752918e+01 1.5001744852752918e+01 xlo xhi
-1.5001744852752918e+01 1.5001744852752918e+01 ylo yhi
-1.5001744852752918e+01 1.5001744852752918e+01 zlo zhi

Masses

1 15.9994
2 1.00794
3 12.0107
4 1.00794
5 12.0107
6 12.0107

Bond Coeffs # harmonic

1 1000 1
2 469 1.4
3 367 1.08
4 469 0.7

Angle Coeffs # harmonic

1 100 109.47
2 35 120
3 63 120

Dihedral Coeffs # opls

1 0 7.25 0 0
2 0 7.25 0 0
3 0 7.25 0 0

Improper Coeffs # cvff

1 2.5 -1 2

Atoms # full

2325 775 2 4.0999999999999998e-01 -9.0622426470249984e+00 -6.9870922380756557e+00 -8.2225265808850860e+00 -1 -5 0
484 162 1 -8.1999999999999995e-01 -1.1640641357134541e+01 -7.8367064572221325e+00 -1.0807993237591667e+01 0 3 -2
946 316 1 -8.1999999999999995e-01 -1.2933717860479403e+01 -5.5053672997965837e+00 -1.1310954758295226e+01 1 -5 -2
948 316 2 4.0999999999999998e-01 -1.3806644804070006e+01 -5.4312869044486618e+00 -1.0828731763862260e+01 1 -5 -2
1457 486 2 4.0999999999999998e-01 -1.2379951284532574e+01 -1.4557202537800107e+01 -1.3942691881457565e+01 -3 0 7
771 257 2 4.0999999999999998e-01 -9.0994487243340672e+00 -5.3106475485958295e+00 -1.1718824494535738e+01 -5 -2 -1
2323 775 1 -8.1999999999999995e-01 -8.2608003179999443e+00 -6.4083983030231337e+00 -8.0714243906041769e+00 -1 -5 0
485 162 2 4.0999999999999998e-01 -1.1828234155612556e+01 -6.9412978725525143e+00 -1.1211825900091394e+01 0 3 -2
769 257 1 -8.1999999999999995e-01 -9.9620895334128896e+00 -5.2520678510617156e+00 -1.2221266145777939e+01 -5 -2 -1
1709 570 2 4.0999999999999998e-01 -1.2659403137683164e+01 -1.2039573669842742e+01 -1.0604544883937251e+01 -1 -9 0
1708 570 1 -8.1999999999999995e-01 -1.2792047416967412e+01 -1.1458022480913712e+01 -1.1407185581661277e+01 -1 -9 0
770 257 2 4.0999999999999998e-01 -1.0718688192366846e+01 -5.1559672434116468e+00 -1.1574465168921343e+01 -5 -2 -1
1710 570 2 4.0999999999999998e-01 -1.2984469677219979e+01 -1.0521995583404536e+01 -1.1112472681332974e+01 -1 -9 0
847 283 1 -8.1999999999999995e-01 -9.6235197451006247e+00 -1.2636982435136137e+01 -1.3755453761015545e+01 -6 -2 -3
2187 729 2 4.0999999999999998e-01 -9.7842166136504520e+00 -8.1715313126884475e+00 -1.3606138623539239e+01 -1 -5 7
849 283 2 4.0999999999999998e-01 -9.3350452005949514e+00 -1.3069760252661128e+01 -1.4609569787862339e+01 -6 -2 -3
848 283 2 4.0999999999999998e-01 -1.0613181033054254e+01 -1.2734425529005808e+01 -1.3650079517760151e+01 -6 -2 -3
1489 497 1 -8.1999999999999995e-01 -1.3562374233720607e+01 -8.8577061483156356e+00 -9.2861353106932221e+00 -1 -6 -1
1491 497 2 4.0999999999999998e-01 -1.3815312302559430e+01 -8.8259054466001103e+00 -8.3191609473175987e+00 -1 -6 -1
776 259 2 4.0999999999999998e-01 -1.1887960851760344e+01 -1.3677787579054016e+01 -9.7595745019933080e+00 -3 -9 2
1490 497 2 4.0999999999999998e-01 -1.4366265637942778e+01 -9.0905540864658043e+00 -9.8334639587998964e+00 -1 -6 -1
2186 729 2 4.0999999999999998e-01 -1.0273551707081188e+01 -6.6177002505045159e+00 -1.3492726212304129e+01 -1 -5 7
614 205 2 4.0999999999999998e-01 -9.6910702780579694e+00 -1.2497421423751096e+01 -1.0874079292737019e+01 -3 1 -7
2299 767 1 -8.1999999999999995e-01 -1.4311775651006228e+01 -5.7747830080721752e+00 -1.4635123503381031e+01 -5 -3 6
775 259 1 -8.1999999999999995e-01 -1.0927715766538482e+01 -1.3566907045467186e+01 -1.0015822496080510e+01 -3 -9 2
2185 729 1 -8.1999999999999995e-01 -9.8974746897091528e+00 -7.3126353279667580e+00 -1.4105637045726526e+01 -1 -5 7
613 205 1 -8.1999999999999995e-01 -8.8872839702943445e+00 -1.2019318376474260e+01 -1.1228160146852259e+01 -3 1 -7
2180 727 2 4.0999999999999998e-01 -8.4948900551905240e+00 -1.1480554774309500e+01 -9.5169053665380527e+00 -2 -2 -1
426 142 2 4.0999999999999998e-01 -1.0923024426907773e+01 -8.0772788092072538e+00 -9.1258020862472478e+00 0 -7 3
2348 783 2 4.0999999999999998e-01 -1.2654425712208198e+01 -1.2381507356965512e+01 -1.4759241633929271e+01 -7 -2 -2
486 162 2 4.0999999999999998e-01 -1.2422694501648596e+01 -8.1231813134674162e+00 -1.0254501179634982e+01 0 3 -2
2347 783 1 -8.1999999999999995e-01 -1.2430731085718421e+01 -1.2897303148858878e+01 -1.3932232706026880e+01 -7 -2 -2
2349 783 2 4.0999999999999998e-01 -1.2690600226758800e+01 -1.2364712103903196e+01 -1.3126724703004832e+01 -7 -2 -2
615 205 2 4.0999999999999998e-01 -8.7668901548024145e+00 -1.2241171871342470e+01 -1.2195793700442442e+01 -3 1 -7
40 14 1 -8.1999999999999995e-01 -1.3742354725042338e+01 -1.3851893015869566e+01 -9.4890782397230300e+00 2 0 1
758 253 2 4.0999999999999998e-01 -1.0186644071716003e+01 -9.6093257919159676e+00 -1.1739686401185516e+01 -3 -8 5
757 253 1 -8.1999999999999995e-01 -9.8877432027480481e+00 -9.5681868729490898e+00 -1.2693098250442397e+01 -3 -8 5
954 318 2 4.0999999999999998e-01 -7.9797393506770593e+00 -7.2026587944752309e+00 -1.3972177629293569e+01 0 -4 3
759 253 2 4.0999999999999998e-01 -9.4693720680589077e+00 -1.0439640695023888e+01 -1.2949148959745738e+01 -3 -8 5
42 14 2 4.0999999999999998e-01 -1.3875458605511874e+01 -1.3221137087659940e+01 -8.7245792773362005e+00 2 0 1
2179 727 1 -8.1999999999999995e-01 -8.2162601784072820e+00 -1.1554836524783770e+01 -8.5593690225595473e+00 -2 -2 -1
777 259 2 4.0999999999999998e-01 -1.0355706851294027e+01 -1.3623293260779045e+01 -9.1974981356017835e+00 -3 -9 2
41 14 2 4.0999999999999998e-01 -1.4597518502820932e+01 -1.4335943968016831e+01 -9.6745988003161472e+00 2 0 1
424 142 1 -8.1999999999999995e-01 -1.0507115752716746e+01 -7.9383693731416169e+00 -8.2270516035719456e+00 0 -7 3
2300 767 2 4.0999999999999998e-01 -1.4641337457043676e+01 -5.5352250658392439e+00 -1.3721871420897736e+01 -5 -3 6
376 126 1 -8.1999999999999995e-01 -8.0528189369229057e+00 -6.5267586923491301e+00 -1.0796868746114399e+01 1 -5 8
377 126 2 4.0999999999999998e-01 -8.0166662854174131e+00 -6.3092579888546307e+00 -9.8214638130887675e+00 1 -5 8
1547 516 2 4.0999999999999998e-01 -1.4980487286091183e+01 -9.2743644287719036e+00 -1.3450292411488439e+01 -3 0 1
425 142 2 4.0999999999999998e-01 -9.9406809815966675e+00 -8.7294517298970362e+00 -7.9960350098370734e+00 0 -7 3
2324 775 2 4.0999999999999998e-01 -8.5313587607654426e+00 -5.5901539165295908e+00 -7.5641743642104444e+00 -1 -5 0
867 289 2 4.0999999999999998e-01 -1.4736651703951960e+01 -1.2514249979055286e+01 -1.0955155460864379e+01 -3 -3 -4
816 272 2 4.0999999999999998e-01 -1.4417868029408814e+01 -1.1477930610351727e+01 -7.5645761621020045e+00 2 -2 0
2148 716 2 4.0999999999999998e-01 -6.9080351952642385e+00 -5.4101261493479189e+00 -1.2519415954919399e+01 -3 -6 -6
1667 556 2 4.0999999999999998e-01 -3.2956991523304033e+00 -9.6942758745436279e+00 -1.3024877372712025e+01 -4 -3 -1
2317 773 1 -8.1999999999999995e-01 -7.3287215426939589e-01 -1.3315842916195740e+01 -9.3993303832683743e+00 -4 -6 -1
1149 383 2 4.0999999999999998e-01 -3.5556273278044692e-01 -6.9006102633190967e+00 -1.3143724068852009e+01 -4 -6 1
1148 383 2 4.0999999999999998e-01 -5.1683189368015370e-01 -5.3514534817865833e+00 -1.3634444942919004e+01 -4 -6 1
2181 727 2 4.0999999999999998e-01 -7.2407914186079667e+00 -1.1349745401990081e+01 -8.4792024347173474e+00 -2 -2 -1
674 225 2 4.0999999999999998e-01 -3.9894355398530816e+00 -8.4737304505597670e+00 -7.8545218340129859e+00 -7 -1 -2
1155 385 2 4.0999999999999998e-01 -9.4081940392985075e-01 -9.8477286555664847e+00 -8.4166512247843688e+00 2 -2 -5
700 234 1 -8.1999999999999995e-01 -4.2889693463846807e+00 -1.0615515662195460e+01 -1.4122673127768019e+01 2 -5 3
731 244 2 4.0999999999999998e-01 -5.3798335286007699e+00 -7.9083651461863989e+00 -1.1323783485743562e+01 -2 -5 -6
605 202 2 4.0999999999999998e-01 -5.0347145613543223e+00 -5.8964453941746253e+00 -8.0644296155355981e+00 -3 -6 -2
962 321 2 4.0999999999999998e-01 -6.1478716017069299e+00 -1.3327062594691780e+01 -1.3595365810491158e+01 1 -6 -2
1114 372 1 -8.1999999999999995e-01 -2.0099572739012608e+00 -1.3469924262671991e+01 -1.3647283296726323e+01 -10 -5 2
1147 383 1 -8.1999999999999995e-01 -5.1034354651855551e-01 -6.3059408818538039e+00 -1.3932672447644370e+01 -4 -6 1
673 225 1 -8.1999999999999995e-01 -3.6725410700285970e+00 -9.4176616874491526e+00 -7.7617858509385362e+00 -7 -1 -2
2283 761 2 4.0999999999999998e-01 -1.2125377602952021e+00 -8.7971602877050135e+00 -1.2329519843781130e+01 -8 -1 2
1666 556 1 -8.1999999999999995e-01 -2.9257898380638832e+00 -8.8730290214807486e+00 -1.2590424717743682e+01 -4 -3 -1
2334 778 2 4.0999999999999998e-01 -1.3023915902654615e+00 -1.1770765915168418e+01 -1.4082170025096097e+01 -4 -2 0
953 318 2 4.0999999999999998e-01 -7.4496770430996184e+00 -8.4454740908178643e+00 -1.3055037369243722e+01 0 -4 3
675 225 2 4.0999999999999998e-01 -3.3723141853689960e+00 -9.7575545499774705e+00 -8.6530573487812124e+00 -7 -1 -2
963 321 2 4.0999999999999998e-01 -6.9528387487792394e+00 -1.2859975330008805e+01 -1.4937215080830235e+01 1 -6 -2
1116 372 2 4.0999999999999998e-01 -2.9703966120437695e+00 -1.3736275059905498e+01 -1.3565786271773529e+01 -10 -5 2
2144 715 2 4.0999999999999998e-01 -9.9006525493567210e-01 -5.0208536881445678e+00 -9.2813244703454458e+00 -1 0 -2
39 13 2 4.0999999999999998e-01 -7.6305950532535505e-01 -1.2731162214284035e+01 -7.7544003390847251e+00 -3 -3 6
1799 600 2 4.0999999999999998e-01 -2.6556416474342637e+00 -1.0522781995570298e+01 -1.1120925958631698e+01 0 -2 -6
2100 700 2 4.0999999999999998e-01 -5.3077286125454677e+00 -1.0737469177235425e+01 -1.2504173925177108e+01 3 -1 -10
2098 700 1 -8.1999999999999995e-01 -5.6850191658130687e+00 -1.0819488809020491e+01 -1.1581702943284785e+01 3 -1 -10
2406 802 2 4.0999999999999998e-01 -4.1193503209135738e+00 -1.3759278752284279e+01 -9.2990652698175680e+00 0 -4 3
2318 773 2 4.0999999999999998e-01 -1.4068663727761255e+00 -1.4017519791648489e+01 -9.6304356999160774e+00 -4 -6 -1
2410 804 1 -8.1999999999999995e-01 -1.2820101886599709e+00 -6.1098173630198396e+00 -7.6440585196061335e+00 -1 1 -3
2404 802 1 -8.1999999999999995e-01 -3.7982921938403376e+00 -1.4091214128402104e+01 -1.0186065179054307e+01 0 -4 3
405 135 2 4.0999999999999998e-01 -6.6914016628343269e+00 -6.8993216552044316e+00 -7.8474779819482698e+00 0 -3 3
1115 372 2 4.0999999999999998e-01 -1.4302501720619318e+00 -1.4195242115808526e+01 -1.3275958529301549e+01 -10 -5 2
84 28 2 4.0999999999999998e-01 -5.2012182285449065e+00 -1.3737683876555030e+01 -1.1070394487249263e+01 -2 -2 -2
732 244 2 4.0999999999999998e-01 -5.7850506905790464e+00 -9.3977975767744901e+00 -1.0790780521956023e+01 -2 -5 -6
82 28 1 -8.1999999999999995e-01 -5.8884082509833231e+00 -1.3587404252253549e+01 -1.1781178698266057e+01 -2 -2 -2
403 135 1 -8.1999999999999995e-01 -5.8046321271021153e+00 -7.3448290237408003e+00 -7.9707307328497112e+00 0 -3 3
730 244 1 -8.1999999999999995e-01 -5.7230471047691776e+00 -8.4308845293091288e+00 -1.0543266779789882e+01 -2 -5 -6
1798 600 1 -8.1999999999999995e-01 -2.3596400531799926e+00 -1.0873203571231475e+01 -1.0232322480969998e+01 0 -2 -6
2099 700 2 4.0999999999999998e-01 -5.7235070887134007e+00 -1.1784397871788880e+01 -1.1321900418157616e+01 3 -1 -10
952 318 1 -8.1999999999999995e-01 -7.1723366855414197e+00 -7.7143205647994257e+00 -1.3678355287034341e+01 0 -4 3
1668 556 2 4.0999999999999998e-01 -3.5859153060288982e+00 -8.1263602968761148e+00 -1.2672574213775796e+01 -4 -3 -1
1937 646 2 4.0999999999999998e-01 -5.5150580867624317e+00 -7.0368725854851029e+00 -1.3414837568530052e+01 -1 -7 -5
1936 646 1 -8.1999999999999995e-01 -4.6515850004571409e+00 -6.9315048495456058e+00 -1.2921542264193434e+01 -1 -7 -5
404 135 2 4.0999999999999998e-01 -5.8699779735084370e+00 -8.0197351314605072e+00 -8.7057545583271772e+00 0 -3 3
2333 778 2 4.0999999999999998e-01 -1.3819651973126224e+00 -1.0383076563551874e+01 -1.4939309645195054e+01 -4 -2 0
1938 646 2 4.0999999999999998e-01 -3.9363190875489487e+00 -6.6450892358861253e+00 -1.3559028791556873e+01 -1 -7 -5
83 28 2 4.0999999999999998e-01 -6.2814587999412108e+00 -1.4465009390005765e+01 -1.2055676027200469e+01 -2 -2 -2
1800 600 2 4.0999999999999998e-01 -2.4170271410405189e+00 -1.1871569580415274e+01 -1.0231804387072431e+01 0 -2 -6
702 234 2 4.0999999999999998e-01 -4.7848824456171073e+00 -1.1483768774965339e+01 -1.4107343428855605e+01 2 -5 3
2281 761 1 -8.1999999999999995e-01 -2.6871187823762277e-01 -8.5879636936717496e+00 -1.2073672829070096e+01 -8 -1 2
378 126 2 4.0999999999999998e-01 -7.4633662548909259e+00 -7.3122999444587835e+00 -1.0985279998293130e+01 1 -5 8
961 321 1 -8.1999999999999995e-01 -6.0637360101659752e+00 -1.2867510290635774e+01 -1.4479538455681036e+01 1 -6 -2
2332 778 1 -8.1999999999999995e-01 -7.7000022525226619e-01 -1.1015329051699570e+01 -1.4464142441027628e+01 -4 -2 0
1723 575 1 -8.1999999999999995e-01 -4.2167951376015491e+00 -1.3350939686900119e+01 -7.6551803247806527e+00 1 -3 -4
2411 804 2 4.0999999999999998e-01 -2.2553212973164563e+00 -6.2216674591162704e+00 -7.8445163773262605e+00 -1 1 -3
2106 702 2 4.0999999999999998e-01 -1.1855756185746976e+01 -1.3565996619773749e+01 -3.8539364020934528e+00 -9 -2 -4
2104 702 1 -8.1999999999999995e-01 -1.1645451397058432e+01 -1.4530789717522541e+01 -4.0119696331359140e+00 -9 -2 -4
1174 392 1 -8.1999999999999995e-01 -1.1682915739301002e+01 -1.1494448786734583e+01 -3.2017156850794279e+00 2 -5 -2
741 247 2 4.0999999999999998e-01 -1.3460876464991342e+01 -7.4867510665212436e+00 -4.6473102798845822e-01 -6 -2 2
2373 791 2 4.0999999999999998e-01 -9.1584373622009885e+00 -7.2009860763175801e+00 -4.7845796070232236e+00 -2 -1 -7
1176 392 2 4.0999999999999998e-01 -1.1331887402888553e+01 -1.1372532648760249e+01 -2.2733065964588022e+00 2 -5 -2
1038 346 2 4.0999999999999998e-01 -1.3392598489274295e+01 -5.6027147741075822e+00 -3.9410968733996938e+00 -6 -4 3
1175 392 2 4.0999999999999998e-01 -1.2666008856529967e+01 -1.1311615821786717e+01 -3.2130461657906828e+00 2 -5 -2
180 60 2 4.0999999999999998e-01 -1.1146011209536960e+01 -8.6617494196343294e+00 -1.5685747653654740e+00 -4 -6 0
178 60 1 -8.1999999999999995e-01 -1.0342661539939529e+01 -9.2432168227454525e+00 -1.4399152337039656e+00 -4 -6 0
179 60 2 4.0999999999999998e-01 -1.0018463831349418e+01 -9.5653615198227957e+00 -2.3293796738943158e+00 -4 -6 0
1231 411 1 -8.1999999999999995e-01 -9.1408611025987696e+00 -1.0758138979733857e+01 -6.1286325422304433e+00 -6 3 -1
2233 745 1 -8.1999999999999995e-01 -8.0027997235041610e+00 -1.3239706222052947e+01 -6.1877567888970315e+00 1 5 -4
1233 411 2 4.0999999999999998e-01 -1.0136172108442821e+01 -1.0701562070681916e+01 -6.0499977461765724e+00 -6 3 -1
1487 496 2 4.0999999999999998e-01 -1.2750049611606165e+01 -7.0503755401765877e+00 -5.5680537695143002e+00 -2 -7 0
1488 496 2 4.0999999999999998e-01 -1.4080458684611207e+01 -7.9888293549889813e+00 -5.4414905004609917e+00 -2 -7 0
2414 805 2 4.0999999999999998e-01 -1.1554587152405386e+01 -6.8098331817037963e+00 -7.3743857324052726e+00 -1 -7 -2
1486 496 1 -8.1999999999999995e-01 -1.3355870175744665e+01 -7.5263412504920222e+00 -4.9305065378468402e+00 -2 -7 0
1232 411 2 4.0999999999999998e-01 -8.8992070607972664e+00 -1.1192089191576660e+01 -6.9965720050549756e+00 -6 3 -1
815 272 2 4.0999999999999998e-01 -1.3062461976146409e+01 -1.1731556449364769e+01 -6.6897901614091584e+00 2 -2 0
2235 745 2 4.0999999999999998e-01 -8.8520117812207371e+00 -1.3094693935776286e+01 -6.6955349572785146e+00 1 5 -4
2082 694 2 4.0999999999999998e-01 -1.2683704462371537e+01 -7.7111336553830077e+00 -3.0506454908811591e+00 1 -2 0
1301 434 2 4.0999999999999998e-01 -1.1885490502895550e+01 -1.1047404059112006e+01 -4.8437717478952589e+00 -6 3 -4
1302 434 2 4.0999999999999998e-01 -1.2247649060811607e+01 -9.8514774374165697e+00 -5.8951051210338843e+00 -6 3 -4
1300 434 1 -8.1999999999999995e-01 -1.1861096127485533e+01 -1.0769250505522686e+01 -5.8040128831406559e+00 -6 3 -4
1532 511 2 4.0999999999999998e-01 -1.0182682271632078e+01 -5.4772203518850677e+00 -2.8411869326933683e+00 -5 -6 -1
1460 487 2 4.0999999999999998e-01 -9.0273319291246708e+00 -1.0410015113687619e+01 -4.6154583135835399e+00 -1 -5 -5
1044 348 2 4.0999999999999998e-01 -7.6571104385123263e+00 -1.4098385949030975e+01 -4.7319589479539612e+00 -3 -5 0
221 74 2 4.0999999999999998e-01 -1.1814442089841307e+01 -1.3156095911461660e+01 -6.8579453235326593e+00 1 -3 0
1459 487 1 -8.1999999999999995e-01 -8.8276088110368711e+00 -1.0250006024221655e+01 -3.6487442374343981e+00 -1 -5 -5
220 74 1 -8.1999999999999995e-01 -1.0883089908448641e+01 -1.3519647264848162e+01 -6.8369264697958023e+00 1 -3 0
2080 694 1 -8.1999999999999995e-01 -1.2347938977876657e+01 -7.4130225696407415e+00 -2.1571021451743686e+00 1 -2 0
1235 412 2 4.0999999999999998e-01 -7.5198020834606183e+00 -1.2639241649054730e+01 -1.5321876203296725e-02 -1 -1 -2
1739 580 2 4.0999999999999998e-01 -9.9196386940387420e+00 -1.2817929861599048e+01 -1.0363173316642111e+00 -3 1 6
1461 487 2 4.0999999999999998e-01 -7.8376716146500103e+00 -1.0197820074267440e+01 -3.5171033367386766e+00 -1 -5 -5
159 53 2 4.0999999999999998e-01 -8.8525150295829302e+00 -1.1754759549978630e+01 -2.6274535112183610e+00 -3 -1 1
157 53 1 -8.1999999999999995e-01 -8.6341319587114853e+00 -1.2617370128149270e+01 -2.1711200391429770e+00 -3 -1 1
158 53 2 4.0999999999999998e-01 -8.4048819063637090e+00 -1.3308398997439497e+01 -2.8566504021097607e+00 -3 -1 1
2081 694 2 4.0999999999999998e-01 -1.1778485545585751e+01 -6.5987325172721629e+00 -2.2697200899184793e+00 1 -2 0
1533 511 2 4.0999999999999998e-01 -1.0623596459014255e+01 -5.1186573319105282e+00 -1.3102625658294862e+00 -5 -6 -1
1531 511 1 -8.1999999999999995e-01 -1.0899046606792124e+01 -5.0755835416396931e+00 -2.2706271992506366e+00 -5 -6 -1
1042 348 1 -8.1999999999999995e-01 -7.8561506745649679e+00 -1.4728408440135748e+01 -3.9813039207581795e+00 -3 -5 0
814 272 1 -8.1999999999999995e-01 -1.3634660911279644e+01 -1.2084948990070469e+01 -7.4298782802164691e+00 2 -2 0
222 74 2 4.0999999999999998e-01 -1.0694648704953511e+01 -1.3901432544047529e+01 -5.9320738682941396e+00 1 -3 0
1738 580 1 -8.1999999999999995e-01 -1.0809417410414529e+01 -1.2899702625425736e+01 -5.8727904858926117e-01 -3 1 6
1740 580 2 4.0999999999999998e-01 -1.1269364833602513e+01 -1.3728025305394484e+01 -9.0721386818459315e-01 -3 1 6
2413 805 1 -8.1999999999999995e-01 -1.2033368067049036e+01 -6.0391100189067579e+00 -6.9539301849973398e+00 -1 -7 -2
2531 844 2 4.0999999999999998e-01 -1.4814887427549108e+01 -1.2908245560932020e+01 -3.1747567953766040e+00 -5 -2 -5
2530 844 1 -8.1999999999999995e-01 -1.4561257592366644e+01 -1.2237372801977525e+01 -3.8716283730015988e+00 -5 -2 -5
2372 791 2 4.0999999999999998e-01 -8.6137021494258192e+00 -6.5018381328527290e+00 -3.4130265566038211e+00 -2 -1 -7
2371 791 1 -8.1999999999999995e-01 -9.3677435450478583e+00 -6.5344598048404947e+00 -4.0690644321931728e+00 -2 -1 -7
584 195 2 4.0999999999999998e-01 -9.4329274303618149e+00 -9.6962835943636883e+00 -1.5620720249776632e-01 -1 1 2
2415 805 2 4.0999999999999998e-01 -1.1807584582644866e+01 -5.1981212633288418e+00 -7.4456495868084840e+00 -1 -7 -2
938 313 2 4.0999999999999998e-01 -6.5793024234736208e-01 -1.3834862495377779e+01 -3.6765038270751571e+00 3 -3 1
577 193 1 -8.1999999999999995e-01 -5.2642902778863174e+00 -1.1139994441951302e+01 -6.3868755418318290e+00 -4 2 -2
2234 745 2 4.0999999999999998e-01 -7.3704390920367135e+00 -1.2487771280343683e+01 -6.3741487319617782e+00 1 5 -4
1724 575 2 4.0999999999999998e-01 -4.6936284587468204e+00 -1.2651104715661461e+01 -7.1233070660484445e+00 1 -3 -4
805 269 1 -8.1999999999999995e-01 -5.5623978041959177e-02 -1.3673804424044786e+01 -1.6543838823595269e+00 1 2 4
243 81 2 4.0999999999999998e-01 -7.2582727482747762e+00 -6.7809730382668540e+00 -1.0591172507235154e+00 -5 -5 -2
618 206 2 4.0999999999999998e-01 -2.6225255877810874e+00 -1.4701676347831134e+01 -5.3727816124706109e+00 4 -3 2
1197 399 2 4.0999999999999998e-01 -6.0080920239928552e+00 -8.5363810958396265e+00 -1.0207381328816822e+00 1 -1 6
1429 477 1 -8.1999999999999995e-01 -2.1434233442862229e+00 -8.7029868769809919e+00 -4.3706960585811885e+00 0 -2 2
1211 404 2 4.0999999999999998e-01 -6.4146784931542822e+00 -7.1379600218125141e+00 -3.2702928106894849e+00 -5 -6 2
1196 399 2 4.0999999999999998e-01 -4.4724644307893300e+00 -8.0038344858810291e+00 -1.1786739532558066e+00 1 -1 6
1195 399 1 -8.1999999999999995e-01 -5.1847366949917628e+00 -8.5747769436211456e+00 -1.5869889472707044e+00 1 -1 6
1075 359 1 -8.1999999999999995e-01 -3.1425785601058749e+00 -9.9186675533928845e+00 -7.5113086809288632e-03 0 -2 2
1903 635 1 -8.1999999999999995e-01 -2.1757964470614617e+00 -5.2847845782116050e+00 -2.7009973238819072e+00 0 0 0
1905 635 2 4.0999999999999998e-01 -1.3919876596187599e+00 -5.6773137758458194e+00 -2.2197563811279988e+00 0 0 0
579 193 2 4.0999999999999998e-01 -5.6241966480447871e+00 -1.0795893831414109e+01 -5.5196440121315984e+00 -4 2 -2
2208 736 2 4.0999999999999998e-01 -3.7855514025814152e-01 -9.0661205733349650e+00 -4.4941296591838000e+00 0 -8 -2
2247 749 2 4.0999999999999998e-01 -4.4654945311977396e+00 -1.4097749017547322e+01 -2.0143993704301089e+00 -5 -4 -1
2246 749 2 4.0999999999999998e-01 -4.6028639543405383e+00 -1.4010348018751719e+01 -3.8953238267028745e-01 -5 -4 -1
1212 404 2 4.0999999999999998e-01 -6.3857971597816654e+00 -5.5086150675939134e+00 -3.3756638920985029e+00 -5 -6 2
1162 388 1 -8.1999999999999995e-01 -3.8929512832924367e+00 -6.4327097600670111e+00 -4.4785764256033307e+00 -1 -3 -1
555 185 2 4.0999999999999998e-01 -2.5986083475482786e+00 -1.2194310049227912e+01 -3.5924978239344707e+00 -2 2 6
1163 388 2 4.0999999999999998e-01 -4.4899753841878525e+00 -5.6523368486337286e+00 -4.6646105586021509e+00 -1 -3 -1
2245 749 1 -8.1999999999999995e-01 -4.1077321111252960e+00 -1.3665118345832752e+01 -1.1868336315556540e+00 -5 -4 -1
1430 477 2 4.0999999999999998e-01 -2.7779682338470959e+00 -9.4755990024281829e+00 -4.3494500390516961e+00 0 -2 2
554 185 2 4.0999999999999998e-01 -3.7922417597544484e+00 -1.2211475609396157e+01 -2.4782058502976962e+00 -2 2 6
2412 804 2 4.0999999999999998e-01 -1.1738792831871958e+00 -5.5962810481872651e+00 -6.7928144042939671e+00 -1 1 -3
1725 575 2 4.0999999999999998e-01 -3.9029764687030699e+00 -1.4077748997790232e+01 -7.0442021362391793e+00 1 -3 -4
73 25 1 -8.1999999999999995e-01 -6.1950774561727329e+00 -1.0553593317936453e+01 -3.6282485840643286e+00 -5 -1 0
1164 388 2 4.0999999999999998e-01 -3.1850618081768012e+00 -6.1626763054596605e+00 -3.8258874997170889e+00 -1 -3 -1
553 185 1 -8.1999999999999995e-01 -3.3155836329279929e+00 -1.1651110892647555e+01 -3.1555659381799668e+00 -2 2 6
1210 404 1 -8.1999999999999995e-01 -6.8308162621507904e+00 -6.2908681425831698e+00 -2.9396977596338552e+00 -5 -6 2
2266 756 1 -8.1999999999999995e-01 -5.6146170181700068e+00 -8.2217046728611116e+00 -5.3320935320149072e+00 -3 -1 -5
1027 343 1 -8.1999999999999995e-01 -1.2053489641402972e+00 -8.8961932358200748e+00 -1.7435186900196342e+00 1 -2 2
219 73 2 4.0999999999999998e-01 -3.3134950040151239e+00 -6.0334653288987248e+00 -1.5323942792567493e+00 -4 -4 6
806 269 2 4.0999999999999998e-01 -6.9721174179474943e-01 -1.3081413069874786e+01 -1.1670790694813888e+00 1 2 4
1028 343 2 4.0999999999999998e-01 -1.5494017999425918e+00 -8.9596078470800435e+00 -2.6803402339444578e+00 1 -2 2
1029 343 2 4.0999999999999998e-01 -1.9712465743223593e+00 -8.9500340957945941e+00 -1.1027923687086023e+00 1 -2 2
937 313 1 -8.1999999999999995e-01 -1.2225993950091247e+00 -1.3735483557109633e+01 -4.4958333688534928e+00 3 -3 1
75 25 2 4.0999999999999998e-01 -6.0895339391427576e+00 -9.7449918189197966e+00 -3.0494113467474513e+00 -5 -1 0
1077 359 2 4.0999999999999998e-01 -3.6517458395426097e+00 -9.9602340035682069e+00 -8.6719104939619207e-01 0 -2 2
1431 477 2 4.0999999999999998e-01 -2.5434818654552469e+00 -7.9576632984628493e+00 -4.9040572840255336e+00 0 -2 2
2268 756 2 4.0999999999999998e-01 -4.8409537909361458e+00 -7.6838810384263034e+00 -4.9971023446628831e+00 -3 -1 -5
38 13 2 4.0999999999999998e-01 -1.5066717938256780e-01 -1.1565532132948183e+01 -6.7884892048959813e+00 -3 -3 6
217 73 1 -8.1999999999999995e-01 -3.7675178263800166e+00 -6.3580459778066132e+00 -7.0261175006711696e-01 -4 -4 6
939 313 2 4.0999999999999998e-01 -6.3346575649873316e-01 -1.3680575254589090e+01 -5.3020188443427987e+00 3 -3 1
74 25 2 4.0999999999999998e-01 -5.4075108554728235e+00 -1.1157271899600451e+01 -3.5043965036604554e+00 -5 -1 0
2267 756 2 4.0999999999999998e-01 -5.5977784953599627e+00 -8.2430460497802134e+00 -6.3317381195083389e+00 -3 -1 -5
241 81 1 -8.1999999999999995e-01 -7.3372477194427255e+00 -7.3690372821502264e+00 -2.5415043997001519e-01 -5 -5 -2
578 193 2 4.0999999999999998e-01 -4.6021604853653191e+00 -1.0487437756186193e+01 -6.7553620625923774e+00 -4 2 -2
37 13 1 -8.1999999999999995e-01 -4.2283382665566371e-01 -1.2526595458784305e+01 -6.8365619530605528e+00 -3 -3 6
440 147 2 4.0999999999999998e-01 -2.7400985950387149e+00 -1.2925958518538131e+01 -3.5969621810360763e-01 2 -1 0
439 147 1 -8.1999999999999995e-01 -1.9379418587566217e+00 -1.2445007091447639e+01 -5.7772903882291615e-03 2 -1 0
218 73 2 4.0999999999999998e-01 -3.7287330844554649e+00 -5.6462599663133108e+00 -1.2667545008877568e-03 -4 -4 6
441 147 2 4.0999999999999998e-01 -2.1064510948359061e+00 -1.1459416409522960e+01 -2.1396178670284982e-02 2 -1 0
1899 633 2 4.0999999999999998e-01 -1.0495188680258220e+01 -1.2485874529216286e+01 5.2564001659723800e+00 -5 -3 1
312 104 2 4.0999999999999998e-01 -1.3585908140803848e+01 -1.0523657196041821e+01 1.9065659562935231e+00 -2 -3 -3
2177 726 2 4.0999999999999998e-01 -1.3792962106634723e+01 -1.3284789182616365e+01 6.5958313606629027e+00 1 -5 -2
310 104 1 -8.1999999999999995e-01 -1.4319453432403677e+01 -1.0590257450661113e+01 2.5829564602730777e+00 -2 -3 -3
1266 422 2 4.0999999999999998e-01 -1.3529233145535953e+01 -8.6219757074336183e+00 5.1071234899474049e+00 3 -1 -4
1474 492 1 -8.1999999999999995e-01 -1.0278898496292026e+01 -1.0127796289617798e+01 7.4755021560985710e+00 -1 -5 -6
1265 422 2 4.0999999999999998e-01 -1.3580291139264734e+01 -9.5718317843631340e+00 3.7797694929278087e+00 3 -1 -4
739 247 1 -8.1999999999999995e-01 -1.3758563002784792e+01 -7.6405254505859492e+00 4.7748152018242784e-01 -6 -2 2
1264 422 1 -8.1999999999999995e-01 -1.2982601076450152e+01 -9.0461153902871096e+00 4.3850935424129638e+00 3 -1 -4
1234 412 1 -8.1999999999999995e-01 -7.5182352550936811e+00 -1.2023581970855416e+01 7.7270671535358382e-01 -1 -1 -2
1643 548 2 4.0999999999999998e-01 -1.1899306114472802e+01 -1.2271593973378451e+01 3.1969799650872162e+00 -2 -5 0
748 250 1 -8.1999999999999995e-01 -1.0653641409756496e+01 -7.4132636958628337e+00 5.3127931071478933e+00 -5 -1 1
1944 648 2 4.0999999999999998e-01 -1.0323593837105079e+01 -7.6284165210479911e+00 2.4031702797633052e+00 -6 -5 8
91 31 1 -8.1999999999999995e-01 -1.4793045785984038e+01 -8.0176171150085001e+00 6.2249042478794152e+00 1 -11 -2
749 250 2 4.0999999999999998e-01 -1.0064057205695693e+01 -7.5336807831659760e+00 4.5140951510030440e+00 -5 -1 1
1629 543 2 4.0999999999999998e-01 -1.3887054410803358e+01 -5.5420920655436934e+00 4.1969438551053955e+00 1 -5 1
750 250 2 4.0999999999999998e-01 -1.1509499793087990e+01 -7.9113772434060321e+00 5.1734456139227696e+00 -5 -1 1
1236 412 2 4.0999999999999998e-01 -8.0589561591472822e+00 -1.1209502857812222e+01 5.6075274171455369e-01 -1 -1 -2
853 285 1 -8.1999999999999995e-01 -8.9762706311656970e+00 -8.4414543433666331e+00 3.4099734566646092e+00 -1 -1 -1
854 285 2 4.0999999999999998e-01 -8.3043044044935854e+00 -8.9044404741566296e+00 3.9880163617316029e+00 -1 -1 -1
583 195 1 -8.1999999999999995e-01 -8.8443463154966082e+00 -9.6257499982972909e+00 6.4916576001947313e-01 -1 1 2
585 195 2 4.0999999999999998e-01 -8.2389724160711459e+00 -8.8358130652684785e+00 5.5143954783227933e-01 -1 1 2
1377 459 2 4.0999999999999998e-01 -1.1167547277640402e+01 -9.9886474744333924e+00 1.0165252157964169e+00 -1 -4 -1
2176 726 1 -8.1999999999999995e-01 -1.4311882852650230e+01 -1.2585344443720732e+01 7.0872848508233481e+00 1 -5 -2
1492 498 1 -8.1999999999999995e-01 -8.0209940044752202e+00 -5.1927227818017467e+00 6.6628727903412610e+00 1 -1 4
740 247 2 4.0999999999999998e-01 -1.2957740277155441e+01 -7.7281542523807243e+00 1.0699612914972647e+00 -6 -2 2
1642 548 1 -8.1999999999999995e-01 -1.2246646345857338e+01 -1.2404985284230028e+01 4.1251986436701920e+00 -2 -5 0
1943 648 2 4.0999999999999998e-01 -1.1851105144001343e+01 -7.3198963353688455e+00 2.8912543005600568e+00 -6 -5 8
1942 648 1 -8.1999999999999995e-01 -1.1290866264857641e+01 -7.7233382471070726e+00 2.1677936962088111e+00 -6 -5 8
717 239 2 4.0999999999999998e-01 -1.4441441200776023e+01 -1.3814375413230858e+01 2.1175502930129220e+00 -6 -4 -2
860 287 2 4.0999999999999998e-01 -1.1511007934067429e+01 -6.1214974634794164e+00 5.8195891675385525e-02 -4 -3 4
1375 459 1 -8.1999999999999995e-01 -1.1868431538779223e+01 -1.0679465334230580e+01 1.1941771290418188e+00 -1 -4 -1
2263 755 1 -8.1999999999999995e-01 -1.4984030159674285e+01 -1.3242724819394173e+01 3.7588441318503918e+00 0 -3 -2
1644 548 2 4.0999999999999998e-01 -1.2198703677206773e+01 -1.1540969239912060e+01 4.6264030871411848e+00 -2 -5 0
1898 633 2 4.0999999999999998e-01 -9.9005564639612427e+00 -1.1122738095710154e+01 5.9309175996900585e+00 -5 -3 1
1376 459 2 4.0999999999999998e-01 -1.1678710988189415e+01 -1.1495042461825928e+01 6.4748870429447791e-01 -1 -4 -1
1319 440 2 4.0999999999999998e-01 -7.9893700104927170e+00 -1.4726332912585505e+01 6.6573813031463622e+00 -4 -5 2
1318 440 1 -8.1999999999999995e-01 -7.9269299495619734e+00 -1.3824840873624439e+01 7.0856820796909261e+00 -4 -5 2
855 285 2 4.0999999999999998e-01 -8.9778211870937668e+00 -8.8585219188716842e+00 2.5010836870056714e+00 -1 -1 -1
1928 643 2 4.0999999999999998e-01 -1.1835812809945287e+01 -6.5451826335859060e+00 6.1971458850511745e+00 9 -2 3
1320 440 2 4.0999999999999998e-01 -8.6387377659234215e+00 -1.3229050438149507e+01 6.7136718004651925e+00 -4 -5 2
1897 633 1 -8.1999999999999995e-01 -9.7108754118740794e+00 -1.1866386213794163e+01 5.2897959651588913e+00 -5 -3 1