LAMMPS data file via write_data, version 15 May 2015, timestep = 8008000

2611 atoms
6 atom types
1749 bonds
4 bond types
894 angles
3 angle types
44 dihedrals
3 dihedral types
10 impropers
1 improper types

-1.4922219035310560e+01 1.4922219035310560e+01 xlo xhi
-1.4922219035310560e+01 1.4922219035310560e+01 ylo yhi
-1.4922219035310560e+01 1.4922219035310560e+01 zlo zhi

Masses

1 15.9994
2 1.00794
3 12.0107
4 1.00794
5 12.0107
6 12.0107

Bond Coeffs # harmonic

1 1000 1
2 469 1.4
3 367 1.08
4 469 0.7

Angle Coeffs # harmonic

1 100 109.47
2 35 120
3 63 120

Dihedral Coeffs # opls

1 0 7.25 0 0
2 0 7.25 0 0
3 0 7.25 0 0

Improper Coeffs # cvff

1 2.5 -1 2

Atoms # full

985 329 1 -8.1999999999999995e-01 -9.8552179442891408e+00 -1.3119832767036513e+01 -1.1662832583773437e+01 -2 -2 0
269 90 2 4.0999999999999998e-01 -1.2473065674271965e+01 -1.1407085435051815e+01 -8.7456934799293098e+00 -3 -1 4
1266 422 2 4.0999999999999998e-01 -1.0201203102436882e+01 -7.9566191776827706e+00 -1.0163426937767898e+01 0 3 0
442 148 1 -8.1999999999999995e-01 -1.1673738877474868e+01 -1.0536316471457500e+01 -1.0307958414197433e+01 -1 -4 2
444 148 2 4.0999999999999998e-01 -1.1387679907345019e+01 -9.5781234695629891e+00 -1.0316378590523156e+01 -1 -4 2
443 148 2 4.0999999999999998e-01 -1.1492475209257170e+01 -1.0946154933661553e+01 -1.1201944092350066e+01 -1 -4 2
1901 634 2 4.0999999999999998e-01 -1.3333034620227652e+01 -1.2935977441895794e+01 -1.2400492397779756e+01 -1 -4 3
2068 690 1 -8.1999999999999995e-01 -1.1986038385619665e+01 -1.1718091683985655e+01 -1.2850960127464486e+01 -2 2 5
2069 690 2 4.0999999999999998e-01 -1.1189039799330020e+01 -1.2243175455130595e+01 -1.2552439137813037e+01 -2 2 5
2299 767 1 -8.1999999999999995e-01 -9.9709763079301936e+00 -7.8843986060454210e+00 -8.5765119658483115e+00 -5 -1 4
2301 767 2 4.0999999999999998e-01 -9.0008366912808526e+00 -7.9947597327918603e+00 -8.3604470961541075e+00 -5 -1 4
2300 767 2 4.0999999999999998e-01 -1.0522751895521033e+01 -8.3081011443780977e+00 -7.8581427217868436e+00 -5 -1 4
2070 690 2 4.0999999999999998e-01 -1.1691390518744608e+01 -1.0983656786168536e+01 -1.3462370380868583e+01 -2 2 5
475 159 1 -8.1999999999999995e-01 -8.2287059651025309e+00 -8.7002306241945497e+00 -1.2489437629394901e+01 -2 -2 2
1345 449 1 -8.1999999999999995e-01 -1.4555316344043327e+01 -1.1129064596585252e+01 -1.4687104532858307e+01 0 -1 2
2516 839 2 4.0999999999999998e-01 -1.4446517544494997e+01 -7.9217179622367864e+00 -8.8160958816425037e+00 1 -3 0
1264 422 1 -8.1999999999999995e-01 -1.0443054543811847e+01 -8.0285793607839615e+00 -1.1131086007287312e+01 0 3 0
1265 422 2 4.0999999999999998e-01 -9.6243019446945191e+00 -7.8969607870229064e+00 -1.1689973481420838e+01 0 3 0
562 188 1 -8.1999999999999995e-01 -1.1343326298941847e+01 -6.2840946805204538e+00 -1.2986091114551629e+01 -4 -1 4
1407 469 2 4.0999999999999998e-01 -1.2562226695167183e+01 -8.6201753172505384e+00 -1.2438612721558194e+01 -3 -2 1
1405 469 1 -8.1999999999999995e-01 -1.3447602030030449e+01 -8.8493402957196530e+00 -1.2843122821092948e+01 -3 -2 1
1406 469 2 4.0999999999999998e-01 -1.4142722139957709e+01 -8.2148081271146118e+00 -1.2505171004662085e+01 -3 -2 1
1902 634 2 4.0999999999999998e-01 -1.3385282140360065e+01 -1.4559603488944640e+01 -1.2567306905122031e+01 -1 -4 3
986 329 2 4.0999999999999998e-01 -1.0303158556301799e+01 -1.3452665719664104e+01 -1.0833009766833467e+01 -2 -2 0
1900 634 1 -8.1999999999999995e-01 -1.3727414568528722e+01 -1.3781496236124912e+01 -1.2040496698506121e+01 -1 -4 3
2066 689 2 4.0999999999999998e-01 -1.0905676554007398e+01 -6.2179706834357393e+00 -9.3434359011963863e+00 2 0 0
564 188 2 4.0999999999999998e-01 -1.1218464450649833e+01 -7.0463188986812133e+00 -1.2350907478944192e+01 -4 -1 4
268 90 1 -8.1999999999999995e-01 -1.2347440986980621e+01 -1.2179872848045559e+01 -8.1235579985997504e+00 -3 -1 4
270 90 2 4.0999999999999998e-01 -1.2242405603660652e+01 -1.3021116635666143e+01 -8.6539455521407689e+00 -3 -1 4
700 234 1 -8.1999999999999995e-01 -1.1959911806979536e+01 -1.4200140296527646e+01 -1.0152682239777452e+01 0 -1 3
1001 334 2 4.0999999999999998e-01 -8.7866678778431737e+00 -1.1749179327832341e+01 -1.1854592735566049e+01 0 -2 4
2515 839 1 -8.1999999999999995e-01 -1.4279105384429855e+01 -8.7234817792319923e+00 -8.2423516188431094e+00 1 -3 0
2417 806 2 4.0999999999999998e-01 -9.5550295968436672e+00 -9.6429505389170451e+00 -1.3766559495153437e+01 1 2 2
701 234 2 4.0999999999999998e-01 -1.2531246082650226e+01 -1.3973461683481345e+01 -1.0941496821421486e+01 0 -1 3
987 329 2 4.0999999999999998e-01 -9.0175151307284303e+00 -1.3642318439972049e+01 -1.1821883486462283e+01 -2 -2 0
1347 449 2 4.0999999999999998e-01 -1.3887072312918024e+01 -1.0767897026503906e+01 -1.4036687439355212e+01 0 -1 2
1875 625 2 4.0999999999999998e-01 -8.4609783047719631e+00 -1.1660476809227859e+01 -8.5177691090632095e+00 -1 -2 2
1226 409 2 4.0999999999999998e-01 -9.8835116538742014e+00 -5.7781875868649308e+00 -1.4642747729904459e+01 -4 -5 -3
2416 806 1 -8.1999999999999995e-01 -1.0246375286838111e+01 -1.0182845529299415e+01 -1.4246756353229205e+01 1 2 2
978 326 2 4.0999999999999998e-01 -9.2846194585233341e+00 -1.4429848141722672e+01 -8.0491590410342511e+00 0 -2 3
1395 465 2 4.0999999999999998e-01 -1.4280011700051958e+01 -8.4092997650389556e+00 -1.4302707507128977e+01 -1 -2 2
1610 537 2 4.0999999999999998e-01 -1.4347529726898543e+01 -1.2965817694151314e+01 -7.5595679854016851e+00 -1 0 2
563 188 2 4.0999999999999998e-01 -1.1960667859118351e+01 -6.5614261925712611e+00 -1.3722305146128466e+01 -4 -1 4
1731 577 2 4.0999999999999998e-01 -1.4874754819989413e+01 -5.3437368063089057e+00 -1.2865853080519820e+01 -2 1 -2
2089 697 1 -8.1999999999999995e-01 -9.7390131848226495e+00 -1.2599725698849911e+01 -7.8452573580005405e+00 -1 -4 0
477 159 2 4.0999999999999998e-01 -8.0654344650120926e+00 -9.6277422483661059e+00 -1.2153135520262733e+01 -2 -2 2
1000 334 1 -8.1999999999999995e-01 -7.9644287535236371e+00 -1.1191798295974394e+01 -1.1739337833938054e+01 0 -2 4
1721 574 2 4.0999999999999998e-01 -1.4582144438411472e+01 -5.9780858211621837e+00 -8.2386044301012582e+00 -2 0 4
2091 697 2 4.0999999999999998e-01 -1.0686833727774692e+01 -1.2292029319562063e+01 -7.9288853887277781e+00 -1 -4 0
495 165 2 4.0999999999999998e-01 -7.5096368852567448e+00 -1.3008509626014828e+01 -9.4228825914628853e+00 -6 2 1
2065 689 1 -8.1999999999999995e-01 -1.0898996570749032e+01 -5.2418608939120155e+00 -9.1261813351926726e+00 2 0 0
1874 625 2 4.0999999999999998e-01 -7.7224327667713153e+00 -1.0204192114325778e+01 -8.4953238466846148e+00 -1 -2 2
2123 708 2 4.0999999999999998e-01 -1.4374790469729147e+01 -1.0217367870464543e+01 -1.1006863328586769e+01 1 -1 4
1002 334 2 4.0999999999999998e-01 -7.6585009945031652e+00 -1.1241676957090553e+01 -1.0788572458250570e+01 0 -2 4
1751 584 2 4.0999999999999998e-01 -7.4690677258689142e+00 -5.3900614244332115e+00 -9.5062774456875125e+00 -1 -4 2
1873 625 1 -8.1999999999999995e-01 -7.6657481195172803e+00 -1.1143304860860376e+01 -8.8342760223375265e+00 -1 -2 2
2418 806 2 4.0999999999999998e-01 -1.0762578711772022e+01 -9.5896931732964905e+00 -1.4864606486436093e+01 1 2 2
1392 464 2 4.0999999999999998e-01 -9.9770268178357213e-01 -1.4552997045339684e+01 -1.4104163328031461e+01 -3 -4 2
900 300 2 4.0999999999999998e-01 -6.1503842713431016e+00 -1.2277978788203061e+01 -7.7898390060980924e+00 -3 -2 3
2103 701 2 4.0999999999999998e-01 -5.5713874015397362e+00 -1.3992770127138609e+01 -1.4891529007426012e+01 0 -1 4
1515 505 2 4.0999999999999998e-01 -9.5965040672282420e-01 -7.4171055847802450e+00 -1.2136477942411046e+01 -3 -1 0
1439 480 2 4.0999999999999998e-01 -1.4624644904799560e+00 -1.0815390859826387e+01 -1.4786311443963672e+01 1 -4 1
1913 638 2 4.0999999999999998e-01 -6.6999820846835583e+00 -1.3584929458652681e+01 -1.3074632259797385e+01 -3 -1 1
366 122 2 4.0999999999999998e-01 -6.4600852116922702e-01 -1.0853145551659139e+01 -7.8901363805492872e+00 0 1 1
239 80 2 4.0999999999999998e-01 -1.4380629235251341e-01 -9.6487508222036720e+00 -1.1616052386320753e+01 0 -4 3
1391 464 2 4.0999999999999998e-01 -5.8118677673287245e-01 -1.3001286742528148e+01 -1.3811882483826620e+01 -3 -4 2
1801 601 1 -8.1999999999999995e-01 -5.5343920105863305e+00 -5.4034615966526562e+00 -1.0581493441915383e+01 2 -1 -1
1513 505 1 -8.1999999999999995e-01 -5.1047862498893970e-01 -6.8663369722327658e+00 -1.2839992778790679e+01 -3 -1 0
1912 638 1 -8.1999999999999995e-01 -7.2591701383359011e+00 -1.4054165967341184e+01 -1.2391141003807093e+01 -3 -1 1
1390 464 1 -8.1999999999999995e-01 -1.0608697244019822e+00 -1.3800173764847047e+01 -1.3448952285144104e+01 -3 -4 2
282 94 2 4.0999999999999998e-01 -2.3143011795841932e+00 -9.5204727324869403e+00 -1.0116659767330031e+01 -1 -2 4
1669 557 1 -8.1999999999999995e-01 -2.4722339141708360e-01 -1.3832918715845668e+01 -1.0668917741787528e+01 -3 1 2
1828 610 1 -8.1999999999999995e-01 -4.1364810490589559e+00 -1.3824411992535977e+01 -9.3355684946396096e+00 -1 -1 0
1671 557 2 4.0999999999999998e-01 -5.7165791277722100e-01 -1.3635281137808853e+01 -1.1593967021303138e+01 -3 1 2
493 165 1 -8.1999999999999995e-01 -6.8911459263075905e+00 -1.3751027593858032e+01 -9.6801188395622049e+00 -6 2 1
238 80 1 -8.1999999999999995e-01 -1.0829107283660804e+00 -9.5647089187528920e+00 -1.1282804292830164e+01 0 -4 3
1697 566 2 4.0999999999999998e-01 -5.2080191878717734e+00 -8.5907082678949518e+00 -1.3615367023869275e+01 3 2 -1
674 225 2 4.0999999999999998e-01 -4.3845066694793680e+00 -1.3275273121110429e+01 -1.2896998305165274e+01 -3 -1 0
2295 765 2 4.0999999999999998e-01 -3.7116060400798556e+00 -1.0121623850732043e+01 -1.3777427643366289e+01 -4 2 1
618 206 2 4.0999999999999998e-01 -1.4647639721933263e+00 -5.6410022750818207e+00 -8.9340474305849753e+00 -1 -2 3
1514 505 2 4.0999999999999998e-01 -7.8656233319705571e-01 -5.9102398632014026e+00 -1.2741552019934339e+01 -3 -1 0
1499 500 2 4.0999999999999998e-01 -1.6510245909927868e-01 -1.3058632238035562e+01 -9.1949118800475933e+00 -4 0 0
1532 511 2 4.0999999999999998e-01 -3.7523960711768805e+00 -8.1262731773659809e+00 -7.8907311569800003e+00 -1 -6 4
2293 765 1 -8.1999999999999995e-01 -3.2984638301247529e+00 -1.0617264938602627e+01 -1.3013432866249712e+01 -4 2 1
240 80 2 4.0999999999999998e-01 -1.6839937443331561e+00 -1.0147772048251088e+01 -1.1829403846652314e+01 0 -4 3
476 159 2 4.0999999999999998e-01 -7.3537391791579800e+00 -8.2597608264136753e+00 -1.2690569301838163e+01 -2 -2 2
2071 691 1 -8.1999999999999995e-01 -7.1035651286430443e+00 -8.2568228089080247e+00 -8.2938859265200229e+00 0 -5 2
675 225 2 4.0999999999999998e-01 -2.8168195062393124e+00 -1.3684124162963961e+01 -1.2692263688090824e+01 -3 -1 0
1829 610 2 4.0999999999999998e-01 -3.8905972739015926e+00 -1.3825876597833687e+01 -1.0304884497361609e+01 -1 -1 0
2073 691 2 4.0999999999999998e-01 -6.3875795878563952e+00 -8.2737965348195779e+00 -8.9918193546944050e+00 0 -5 2
1698 566 2 4.0999999999999998e-01 -5.2588555781508095e+00 -6.9700679037475419e+00 -1.3809425957552472e+01 3 2 -1
26 9 2 4.0999999999999998e-01 -4.6188811495556710e+00 -8.7324590811360707e+00 -9.8858946941329435e+00 -3 -1 -2
25 9 1 -8.1999999999999995e-01 -5.2117183971110475e+00 -8.0335075083125673e+00 -1.0285951148312201e+01 -3 -1 -2
281 94 2 4.0999999999999998e-01 -2.3146797924654301e+00 -9.7518609137134540e+00 -8.5001271279678825e+00 -1 -2 4
673 225 1 -8.1999999999999995e-01 -3.7350813416319717e+00 -1.3748147953958942e+01 -1.2301455999402634e+01 -3 -1 0
1696 566 1 -8.1999999999999995e-01 -5.5463277903613619e+00 -7.7323846265358345e+00 -1.3229540274154362e+01 3 2 -1
1830 610 2 4.0999999999999998e-01 -5.1320901289764009e+00 -1.3802891230562357e+01 -9.2442782743708083e+00 -1 -1 0
1803 601 2 4.0999999999999998e-01 -5.6623456962188516e+00 -6.3943907208993398e+00 -1.0539998644791977e+01 2 -1 -1
27 9 2 4.0999999999999998e-01 -5.4663115704214285e+00 -8.3039823143004323e+00 -1.1214423126516678e+01 -3 -1 -2
809 270 2 4.0999999999999998e-01 -3.0217047250861295e+00 -1.3469972432250600e+01 -8.0061873525158394e+00 -3 1 -1
494 165 2 4.0999999999999998e-01 -6.9182189008737200e+00 -1.3879023577814799e+01 -1.0671541349628519e+01 -6 2 1
2101 701 1 -8.1999999999999995e-01 -5.5422077826002329e+00 -1.3114235459708469e+01 -1.4414706330513265e+01 0 -1 4
2294 765 2 4.0999999999999998e-01 -3.8933342003806768e+00 -1.0550808097879752e+01 -1.2212341573791221e+01 -4 2 1
280 94 1 -8.1999999999999995e-01 -2.8577403802456320e+00 -9.4425856449103733e+00 -9.2808117523293774e+00 -1 -2 4
364 122 1 -8.1999999999999995e-01 -7.6801212215251624e-01 -9.8929767789850587e+00 -7.6386894173889806e+00 0 1 1
1498 500 1 -8.1999999999999995e-01 -7.5348712543430452e-02 -1.2562484603045780e+01 -8.3313053056211288e+00 -4 0 0
1802 601 2 4.0999999999999998e-01 -4.9458175493255165e+00 -5.1755665999122957e+00 -1.1357172794464834e+01 2 -1 -1
420 140 2 4.0999999999999998e-01 -1.3624848476044065e+00 -7.3683509691918134e+00 -7.8743054644606696e+00 -2 0 0
810 270 2 4.0999999999999998e-01 -1.5545136411331271e+00 -1.2949522269129435e+01 -7.5130338608456615e+00 -3 1 -1
418 140 1 -8.1999999999999995e-01 -6.8485082420691157e-01 -6.7593039420278309e+00 -7.4621060795214937e+00 -2 0 0
934 312 1 -8.1999999999999995e-01 -1.3772195582454884e+01 -1.0582804631160606e+01 -3.0231498812246240e+00 0 -3 2
446 149 2 4.0999999999999998e-01 -1.0855933820592456e+01 -9.6585194958781440e+00 -3.5241236984938009e+00 1 -1 1
1581 527 2 4.0999999999999998e-01 -1.2876370744629348e+01 -1.2477759046524262e+01 -6.0040705892519206e+00 -1 -6 2
2038 680 1 -8.1999999999999995e-01 -7.6057418845011471e+00 -9.1673275973534203e+00 -2.7339839471255569e+00 -1 -2 2
2039 680 2 4.0999999999999998e-01 -7.6335165369893225e+00 -9.5360119945559454e+00 -3.6631420968624191e+00 -1 -2 2
294 98 2 4.0999999999999998e-01 -7.6908030830301550e+00 -1.1818861068444821e+01 -4.8046344796406366e+00 -1 -2 4
2257 753 1 -8.1999999999999995e-01 -9.5156126789005420e+00 -6.9669815642255770e+00 -3.0889093346795722e+00 -1 -1 -1
2259 753 2 4.0999999999999998e-01 -9.7424980361247684e+00 -6.2508122700831645e+00 -2.4288645987879320e+00 -1 -1 -1
445 149 1 -8.1999999999999995e-01 -1.0954053436399763e+01 -1.0172848281679476e+01 -4.3761054512490212e+00 1 -1 1
447 149 2 4.0999999999999998e-01 -1.1653479183467468e+01 -1.0878240665852518e+01 -4.2609547848011839e+00 1 -1 1
1580 527 2 4.0999999999999998e-01 -1.2895913479600503e+01 -1.3106581379604650e+01 -4.4971137394508620e+00 -1 -6 2
1291 431 1 -8.1999999999999995e-01 -9.0485430605383144e+00 -1.2712355570589004e+01 -5.1559207927750599e+00 -1 -3 2
2260 754 1 -8.1999999999999995e-01 -8.9126821213801826e+00 -8.4850681731313067e+00 -5.3548747324860013e+00 -1 -4 0
2261 754 2 4.0999999999999998e-01 -9.2404511466471302e+00 -7.6461241813695260e+00 -4.9203923435332086e+00 -1 -4 0
1579 527 1 -8.1999999999999995e-01 -1.2941535427323277e+01 -1.2261533322718707e+01 -5.0298865721039263e+00 -1 -6 2
1727 576 2 4.0999999999999998e-01 -1.2409973685531439e+01 -6.0955414461242157e+00 -7.1346733805253484e+00 0 2 0
2258 753 2 4.0999999999999998e-01 -8.9645465970059774e+00 -7.6708918315141679e+00 -2.6407230054767936e+00 -1 -1 -1
421 141 1 -8.1999999999999995e-01 -8.0403830131486984e+00 -1.4751423026580413e+01 -3.7626014001103218e+00 -4 2 3
936 312 2 4.0999999999999998e-01 -1.3600152915734309e+01 -1.1170595213233334e+01 -3.8136801030613192e+00 0 -3 2
716 239 2 4.0999999999999998e-01 -1.4116877737329029e+01 -9.1898348254637661e+00 -4.1484597561628469e+00 1 -1 0
2090 697 2 4.0999999999999998e-01 -9.4381239260641578e+00 -1.2498433268382566e+01 -6.8969747038046609e+00 -1 -4 0
2264 755 2 4.0999999999999998e-01 -1.1787138422362641e+01 -9.4475570282052423e+00 -5.9835831381632261e+00 0 -1 4
1293 431 2 4.0999999999999998e-01 -9.7017914004352228e+00 -1.2186691991646962e+01 -4.6109630996733078e+00 -1 -3 2
1728 576 2 4.0999999999999998e-01 -1.3222027131337999e+01 -7.2847990519821186e+00 -6.3646383598815195e+00 0 2 0
1809 603 2 4.0999999999999998e-01 -8.5585206171210224e+00 -1.0330818289878401e+01 -1.5560645491842120e+00 0 0 2
1808 603 2 4.0999999999999998e-01 -9.4461051121142674e+00 -1.1158489110088828e+01 -4.6341946653345012e-01 0 0 2
1807 603 1 -8.1999999999999995e-01 -8.6813903435370499e+00 -1.1215000459826957e+01 -1.1053324624258103e+00 0 0 2
1292 431 2 4.0999999999999998e-01 -8.7809246708183455e+00 -1.3534617374615243e+01 -4.6536256214192857e+00 -1 -3 2
1308 436 2 4.0999999999999998e-01 -1.4114738766456510e+01 -6.3670249812078676e+00 -3.6114243271012434e+00 0 -3 5
1306 436 1 -8.1999999999999995e-01 -1.4241173163158603e+01 -6.3890020665118517e+00 -2.6196754266086746e+00 0 -3 5
2262 754 2 4.0999999999999998e-01 -9.5881731312588645e+00 -9.2115978234478355e+00 -5.2287753664757073e+00 -1 -4 0
43 15 1 -8.1999999999999995e-01 -1.0720234361573464e+01 -1.3787893922455316e+01 -2.7164062453479971e+00 -3 -3 -1
236 79 2 4.0999999999999998e-01 -1.1772646610396770e+01 -1.0113095349035628e+01 -2.7026278910919643e-01 -1 0 -2
715 239 1 -8.1999999999999995e-01 -1.4279483456622057e+01 -8.3235722691126064e+00 -4.6208823200665154e+00 1 -1 0
1726 576 1 -8.1999999999999995e-01 -1.3237754828539558e+01 -6.3179455151944897e+00 -6.6195527430822789e+00 0 2 0
2388 796 2 4.0999999999999998e-01 -1.2976245884650892e+01 -9.2501035930888715e+00 -2.0808780779359850e+00 1 -2 2
44 15 2 4.0999999999999998e-01 -1.0557735856599292e+01 -1.3621332524539941e+01 -1.7438394984101357e+00 -3 -3 -1
908 303 2 4.0999999999999998e-01 -7.5159786129928419e+00 -1.2327175429710854e+01 -1.6269372604838104e+00 -6 -1 1
2150 717 2 4.0999999999999998e-01 -1.2942409958270058e+01 -1.3260775813401722e+01 -7.4916526828682528e-01 0 -5 0
45 15 2 4.0999999999999998e-01 -1.0397307146193624e+01 -1.4703430105066115e+01 -2.9562939792993994e+00 -3 -3 -1
1609 537 1 -8.1999999999999995e-01 -1.4725750340627831e+01 -1.3437246791824522e+01 -6.7628633485458511e+00 -1 0 2
1425 475 2 4.0999999999999998e-01 -1.4009885701813237e+01 -1.4731167003521064e+01 -5.7429234626883474e+00 -1 -1 2
2386 796 1 -8.1999999999999995e-01 -1.2393395790470178e+01 -8.8323194892010140e+00 -1.3839012422940105e+00 1 -2 2
2387 796 2 4.0999999999999998e-01 -1.2689985321346132e+01 -7.8911560756884906e+00 -1.2217884627873641e+00 1 -2 2
423 141 2 4.0999999999999998e-01 -7.6096588930940623e+00 -1.4055460462312913e+01 -3.1880168831897340e+00 -4 2 3
935 312 2 4.0999999999999998e-01 -1.4144988677218906e+01 -1.1131387502564683e+01 -2.2747404489514960e+00 0 -3 2
218 73 2 4.0999999999999998e-01 -8.8913486540704270e+00 -1.3218370130779922e+01 -3.1399752217976129e-01 -1 0 -1
2263 755 1 -8.1999999999999995e-01 -1.1723397291264916e+01 -8.9378907058052821e+00 -6.8416109772770302e+00 0 -1 4
2265 755 2 4.0999999999999998e-01 -1.2563744525929536e+01 -9.0656687276555523e+00 -7.3684162280405534e+00 0 -1 4
1743 581 2 4.0999999999999998e-01 -7.1169940930133633e+00 -8.0521657129637134e+00 -5.6003113631812500e+00 1 2 0
22 8 1 -8.1999999999999995e-01 -1.6454817577520053e-01 -1.3275738632104007e+01 -5.1913261489455866e+00 0 -3 2
661 221 1 -8.1999999999999995e-01 -4.1427220557284574e+00 -1.0373069845952152e+01 -3.8633945957806226e+00 -2 1 2
907 303 1 -8.1999999999999995e-01 -7.0622192125707874e+00 -1.3215991578485477e+01 -1.6913015314711775e+00 -6 -1 1
950 317 2 4.0999999999999998e-01 -4.6457484608729391e+00 -5.5875586636431454e+00 -2.9893596321229232e-01 -2 -1 -3
24 8 2 4.0999999999999998e-01 -6.1621872993032234e-01 -1.4167759344367651e+01 -5.1732366363127014e+00 0 -3 2
419 140 2 4.0999999999999998e-01 -8.5143873171030648e-01 -6.6924815628399354e+00 -6.4783288039804496e+00 -2 0 0
783 261 2 4.0999999999999998e-01 -4.3367133030970297e+00 -5.4482065380909130e+00 -7.2880056864961293e+00 -3 -3 1
2503 835 1 -8.1999999999999995e-01 -1.9021288502186753e+00 -9.0191542526567581e+00 -1.6653030654481018e+00 1 -2 -1
2288 763 2 4.0999999999999998e-01 -4.1111181806526353e-01 -9.2099276890892234e+00 -1.1544479294173122e+00 0 -4 1
915 305 2 4.0999999999999998e-01 -5.2138235804390725e+00 -6.5590279537859608e+00 -2.3283499093135891e+00 -4 -4 1
1742 581 2 4.0999999999999998e-01 -5.8118317301095690e+00 -7.2670197797444800e+00 -5.0114009400079826e+00 1 2 0
1812 604 2 4.0999999999999998e-01 -2.6161999344876783e+00 -1.4279583958524334e+01 -6.0385555621045199e+00 1 -2 -1
293 98 2 4.0999999999999998e-01 -6.2588055208918725e+00 -1.1796930857918003e+01 -5.5892493512142742e+00 -1 -2 4
951 317 2 4.0999999999999998e-01 -3.7653030543642032e+00 -6.9477688248248999e+00 -9.5557858423227060e-02 -2 -1 -3
2413 805 1 -8.1999999999999995e-01 -6.0523394041138801e+00 -8.2408856198472655e+00 -1.2859335122615079e-01 0 -2 -2
292 98 1 -8.1999999999999995e-01 -6.8408656975714166e+00 -1.1309246908357522e+01 -4.9385536901172156e+00 -1 -2 4
2116 706 1 -8.1999999999999995e-01 -3.5412234018255830e+00 -1.0704297202988684e+01 -3.4418927232466601e-01 0 -2 3
2040 680 2 4.0999999999999998e-01 -6.8078321823565489e+00 -8.5726972966116470e+00 -2.6350426020340478e+00 -1 -2 2
1531 511 1 -8.1999999999999995e-01 -3.6872366016812332e+00 -7.5899796686287937e+00 -7.0491980459817620e+00 -1 -6 4
1707 569 2 4.0999999999999998e-01 -6.0035944668602745e+00 -1.4542347016487916e+01 -6.2332428481609394e+00 -1 0 0
899 300 2 4.0999999999999998e-01 -4.8262307393283219e+00 -1.2804260844628512e+01 -6.9921153215591456e+00 -3 -2 3
1533 511 2 4.0999999999999998e-01 -4.5130865113638112e+00 -7.7266202121868570e+00 -6.5020821874004202e+00 -1 -6 4
365 122 2 4.0999999999999998e-01 -1.0354050234122347e+00 -9.8316359690251929e+00 -6.6770383040889030e+00 0 1 1
1203 401 2 4.0999999999999998e-01 -2.3220685310056446e+00 -1.3118229843185526e+01 -8.6510094474014743e-01 -1 1 1
909 303 2 4.0999999999999998e-01 -6.0758763731928180e+00 -1.3080652908154905e+01 -1.7853533006814768e+00 -6 -1 1
2118 706 2 4.0999999999999998e-01 -4.0935153250530583e+00 -1.1157618483346589e+01 -1.0438377080304022e+00 0 -2 3
949 317 1 -8.1999999999999995e-01 -4.1294558096655916e+00 -6.3038291022223412e+00 -7.6843892407185521e-01 -2 -1 -3
959 320 2 4.0999999999999998e-01 -1.1236407726746673e+00 -5.8626977289015496e+00 -4.0830423209785707e+00 2 -3 0
958 320 1 -8.1999999999999995e-01 -6.1033389838846652e-01 -6.3300539299916441e+00 -4.8028538958717331e+00 2 -3 0
888 296 2 4.0999999999999998e-01 -2.2391711383014190e+00 -1.4800264471205054e+01 -2.9709747821612478e+00 0 -1 1
2539 847 1 -8.1999999999999995e-01 -9.0862481592929178e-01 -1.0593261214934460e+01 -5.0737760535828667e+00 1 -1 0
913 305 1 -8.1999999999999995e-01 -5.9265490505874183e+00 -6.3563671236256543e+00 -2.9999044487426278e+00 -4 -4 1
886 296 1 -8.1999999999999995e-01 -1.9446895472926347e+00 -1.3935488130852196e+01 -2.5641861813917206e+00 0 -1 1
898 300 1 -8.1999999999999995e-01 -5.8219536431225407e+00 -1.2719517328813259e+01 -6.9548470812022432e+00 -3 -2 3
662 221 2 4.0999999999999998e-01 -3.8923150527035446e+00 -9.4049307035450234e+00 -3.8695132835189803e+00 -2 1 2
887 296 2 4.0999999999999998e-01 -1.4399591647619907e+00 -1.3402471218704955e+01 -3.2432846171452230e+00 0 -1 1
1878 626 2 4.0999999999999998e-01 -4.4783527710170556e+00 -1.3246628079148769e+01 -2.4668549290034729e+00 -1 -3 1
2540 847 2 4.0999999999999998e-01 -6.3572701551300348e-01 -1.1554199361222659e+01 -5.1202427853455070e+00 1 -1 0
2541 847 2 4.0999999999999998e-01 -1.8780475272665882e+00 -1.0533203219960789e+01 -4.8357695160586580e+00 1 -1 0
1877 626 2 4.0999999999999998e-01 -4.5478097815961984e+00 -1.1652054246879032e+01 -2.8121496204519527e+00 -1 -3 1
1876 626 1 -8.1999999999999995e-01 -4.6264226848167773e+00 -1.2334245483426724e+01 -2.0851904585157488e+00 -1 -3 1
415 139 1 -8.1999999999999995e-01 -1.9943274837338407e+00 -5.3845090964877116e+00 -2.3979469859245857e+00 -2 -4 -1
1741 581 1 -8.1999999999999995e-01 -6.1439173825396196e+00 -7.8677295402526850e+00 -5.7386570117368425e+00 1 2 0
2504 835 2 4.0999999999999998e-01 -2.2991290918386476e+00 -8.5330012784950018e+00 -2.4438148332266678e+00 1 -2 -1
2505 835 2 4.0999999999999998e-01 -2.6127969996764033e+00 -9.5549410505916264e+00 -1.2093230387739382e+00 1 -2 -1
1318 440 1 -8.1999999999999995e-01 -3.0631485911011946e+00 -7.7321469973482237e+00 -4.0779177474376880e+00 0 -1 1
416 139 2 4.0999999999999998e-01 -2.4962357652714999e+00 -5.8308670892373957e+00 -1.6570778125579348e+00 -2 -4 -1
663 221 2 4.0999999999999998e-01 -4.9285808758104235e+00 -1.0517903313530145e+01 -4.4646297313618319e+00 -2 1 2
914 305 2 4.0999999999999998e-01 -5.6678348667608738e+00 -5.5465071020108905e+00 -3.5264290871873971e+00 -4 -4 1
1320 440 2 4.0999999999999998e-01 -3.5878127214019813e+00 -6.8972773025630278e+00 -3.9113204988025991e+00 0 -1 1
1319 440 2 4.0999999999999998e-01 -2.2090944489536799e+00 -7.5016203813406133e+00 -4.5442689798713225e+00 0 -1 1
2414 805 2 4.0999999999999998e-01 -5.2838327898828279e+00 -7.7919916365643731e+00 -5.8458264961485185e-01 0 -2 -2
808 270 1 -8.1999999999999995e-01 -2.5059688255555681e+00 -1.3089180257264079e+01 -7.2386925397197341e+00 -3 1 -1
2072 691 2 4.0999999999999998e-01 -6.6984601575210778e+00 -8.0385981379539331e+00 -7.4060219506869460e+00 0 -5 2
403 135 1 -8.1999999999999995e-01 -1.1339152077687734e+01 -1.0892909248957491e+01 3.0209393207115536e+00 -2 -2 2
1255 419 1 -8.1999999999999995e-01 -1.2747658269393797e+01 -1.3348444482660494e+01 3.1421138505794932e+00 0 0 -1
405 135 2 4.0999999999999998e-01 -1.0701690118890156e+01 -1.0320403791553824e+01 3.5366080519340759e+00 -2 -2 2
404 135 2 4.0999999999999998e-01 -1.1080711716089485e+01 -1.0892754497237087e+01 2.0548942614681334e+00 -2 -2 2
1130 377 2 4.0999999999999998e-01 -1.2739807689638827e+01 -9.8837147722586955e+00 3.3622952168492279e+00 -1 -2 1
1699 567 1 -8.1999999999999995e-01 -1.0148271230439668e+01 -7.4060423508498721e+00 2.0380569601591834e+00 -6 2 -2
1701 567 2 4.0999999999999998e-01 -1.0504643930342869e+01 -7.6630690880267762e+00 2.9363721888177441e+00 -6 2 -2
1700 567 2 4.0999999999999998e-01 -1.0590256243711313e+01 -7.9606200472675486e+00 1.3329843757681328e+00 -6 2 -2
1257 419 2 4.0999999999999998e-01 -1.2294650262608366e+01 -1.2464644111523246e+01 3.0250021793719011e+00 0 0 -1
153 51 2 4.0999999999999998e-01 -8.4748288318334559e+00 -6.9929001325158913e+00 1.7586589567309883e+00 -2 -1 -2
453 151 2 4.0999999999999998e-01 -8.9052046126731632e+00 -9.0813170944497195e+00 4.3415796305237695e+00 -1 2 -2
451 151 1 -8.1999999999999995e-01 -9.8549744492137492e+00 -8.7907705097254212e+00 4.4580031090127878e+00 -1 2 -2
1256 419 2 4.0999999999999998e-01 -1.3677143557068369e+01 -1.3204178670476244e+01 3.4816413922805101e+00 0 0 -1
2349 783 2 4.0999999999999998e-01 -1.0244534572943923e+01 -1.4138494928666455e+01 6.2236824792893248e+00 -4 0 -2
876 292 2 4.0999999999999998e-01 -1.0529193770681392e+01 -5.6415675646714440e+00 1.7271555276061594e+00 -5 -3 2
452 151 2 4.0999999999999998e-01 -1.0022141491539433e+01 -8.5755355547947172e+00 5.4201691894389352e+00 -1 2 -2
1131 377 2 4.0999999999999998e-01 -1.3912083454401214e+01 -9.2768907329777992e+00 2.4009146676554654e+00 -1 -2 1
89 30 2 4.0999999999999998e-01 -8.1203429856596934e+00 -6.9879252768066022e+00 7.0000506721288414e+00 -5 1 1
88 30 1 -8.1999999999999995e-01 -8.9693052105221671e+00 -7.5163760658366536e+00 6.9939369862976850e+00 -5 1 1
1129 377 1 -8.1999999999999995e-01 -1.3652456332257801e+01 -9.4752504942896518e+00 3.3460504492159995e+00 -1 -2 1
1594 532 1 -8.1999999999999995e-01 -1.1810418501507527e+01 -1.3255007776844201e+01 6.7158776023120819e+00 0 -1 2
2133 711 2 4.0999999999999998e-01 -1.2063518814121805e+01 -7.1124907468933287e+00 4.9240151649037767e+00 -3 -3 1
478 160 1 -8.1999999999999995e-01 -8.9438323072385995e+00 -1.3341519554101335e+01 3.1803553847316817e+00 -4 -2 1
2131 711 1 -8.1999999999999995e-01 -1.2980105625470211e+01 -7.4755261083887312e+00 5.0916707929598974e+00 -3 -3 1
1947 649 2 4.0999999999999998e-01 -1.0180725856012783e+01 -6.0784975296562198e+00 5.9843861326378320e+00 1 -5 -1
479 160 2 4.0999999999999998e-01 -9.7218386426957988e+00 -1.2753727907994758e+01 2.9584508838248293e+00 -4 -2 1
1623 541 2 4.0999999999999998e-01 -1.3758764365800308e+01 -5.5562186098086705e+00 5.2891300217795116e+00 2 -3 2
2325 775 2 4.0999999999999998e-01 -1.4753075989028419e+01 -9.6058727153427874e+00 4.5825848430110714e+00 -1 -5 0
2132 711 2 4.0999999999999998e-01 -1.3153963865223409e+01 -8.2409080614787076e+00 4.4719948701157310e+00 -3 -3 1
767 256 2 4.0999999999999998e-01 -1.4563013450819067e+01 -5.4352964661459442e+00 6.8050704000743245e-01 -3 -4 2
2348 783 2 4.0999999999999998e-01 -8.6567986917759683e+00 -1.4406548389136233e+01 6.4956394593408167e+00 -4 0 -2
480 160 2 4.0999999999999998e-01 -8.9878868972354482e+00 -1.3602883511647338e+01 4.1446077240793482e+00 -4 -2 1
437 146 2 4.0999999999999998e-01 -1.2391497829648102e+01 -8.6508074689065229e+00 6.7420494398380892e+00 0 -3 0
1482 494 2 4.0999999999999998e-01 -1.4564938311850621e+01 -1.2451600326645728e+01 1.2270807647336870e+00 3 -1 0
2151 717 2 4.0999999999999998e-01 -1.2554257095460338e+01 -1.3550759385567423e+01 8.1031069236801834e-01 0 -5 0
766 256 1 -8.1999999999999995e-01 -1.3841776739404139e+01 -5.8824295182287134e+00 1.2095855931611350e+00 -3 -4 2
2347 783 1 -8.1999999999999995e-01 -9.3472742133182631e+00 -1.4235167552352408e+01 5.7928545207379631e+00 -4 0 -2
1595 532 2 4.0999999999999998e-01 -1.2780561361715634e+01 -1.3054840035019451e+01 6.5788002744592600e+00 0 -1 2
1621 541 1 -8.1999999999999995e-01 -1.4601577690800928e+01 -5.1604123767231442e+00 4.9243868085109792e+00 2 -3 2
1317 439 2 4.0999999999999998e-01 -7.5527245620257482e+00 -1.2490666129578988e+01 7.2326561603117963e+00 -2 -2 -3
1945 649 1 -8.1999999999999995e-01 -1.0593017149472924e+01 -5.1983923663179770e+00 5.7488754913044122e+00 1 -5 -1
1908 636 2 4.0999999999999998e-01 -1.0850667973361592e+01 -1.1711443498999195e+01 7.0794411636549359e+00 0 -2 4
1316 439 2 4.0999999999999998e-01 -8.7170672073410920e+00 -1.1415796693989339e+01 6.8380924737809909e+00 -2 -2 -3
219 73 2 4.0999999999999998e-01 -9.0281951371765530e+00 -1.3854868324575369e+01 1.1836210795902193e+00 -1 0 -1
235 79 1 -8.1999999999999995e-01 -1.1318014586041752e+01 -1.0798834215930720e+01 2.9816171688358573e-01 -1 0 -2