2611
Atoms. Timestep: 23000000
O -14.8562 7.81863 -4.05027
H -14.8906 6.8997 -4.44318
H 14.5903 8.45208 -4.63942
O -11.2428 -0.0868394 -8.55732
H -11.7154 -0.961727 -8.45152
H -11.0727 0.0848989 -9.52766
O -7.95199 -0.12792 -9.54441
H -8.58108 0.330193 -10.1724
H -8.29212 -0.0392463 -8.60822
O -5.72267 4.41565 11.7677
H -5.89262 4.1152 10.8292
H -5.77784 3.63027 12.3843
O 12.5021 -2.38167 -7.83355
H 13.238 -2.23643 -8.49487
H 11.8949 -3.10425 -8.16394
O -10.3792 9.85558 0.4968
H -10.0251 9.46474 -0.352791
H -9.69495 10.468 0.892682
O -11.8569 11.8434 -5.09505
H -10.9678 11.9464 -5.54095
H -12.4176 11.1986 -5.61455
O -2.0924 11.8169 14.3496
H -2.93221 11.5881 13.8573
H -2.2953 12.4917 -14.889
O -13.8584 7.65884 7.93527
H -14.3167 8.32494 7.34686
H -13.6902 8.06683 8.83265
O -2.788 7.75455 -9.21584
H -3.29393 7.18012 -9.85932
H -2.37348 8.52039 -9.70743
O -7.2532 5.12653 6.12914
H -7.26616 4.89545 5.15629
H -6.96494 4.328 6.65758
O -11.777 14.5874 -4.87054
H -12.2175 14.8472 -5.72988
H -11.7724 13.5909 -4.78631
O 0.660161 -13.3941 -6.17959
H 0.695433 -13.5665 -7.16397
H 1.57442 -13.1595 -5.84933
O -13.7949 -14.6475 -10.0016
H -14.6501 -14.1339 -10.0721
H -13.4305 -14.5624 -9.07431
O -1.55864 11.8117 -1.58344
H -0.780798 11.9455 -0.969391
H -1.42158 12.3475 -2.4166
O 2.45945 3.37816 -7.23715
H 1.82785 2.94699 -6.59281
H 2.49086 4.3627 -7.06484
O -0.809827 -3.54417 10.7041
H -0.564703 -3.17771 9.8065
H -0.421903 -2.96236 11.4189
O 6.74758 2.80557 14.5628
H 6.5812 2.77336 -14.3998
H 6.08674 2.21955 14.0938
O 4.73151 8.13999 10.5329
H 4.04221 8.64705 11.0503
H 4.31647 7.76376 9.70448
O -9.49433 4.78376 -1.61234
H -9.737 4.1325 -2.33135
H -10.3243 5.21704 -1.26109
O 6.26555 -3.96491 2.31926
H 7.05197 -4.50724 2.61495
H 6.5518 -3.01922 2.16525
O 1.19095 10.6187 14.7147
H 0.741399 11.1743 14.0153
H 0.696121 9.75667 14.8246
O 4.87123 -0.700639 -4.08119
H 4.47053 0.00609916 -4.66426
H 4.14175 -1.20172 -3.6156
O -4.88052 10.8341 -12.5521
H -5.15451 10.4274 -13.4237
H -5.67704 11.25 -12.1133
O -2.30967 -10.8128 -5.20057
H -1.96708 -11.7299 -4.99663
H -2.63629 -10.384 -4.35826
O 3.05447 3.26821 14.6897
H 3.13297 2.566 13.9821
H 2.17331 3.73281 14.602
O -2.2938 -3.96133 13.3139
H -1.40409 -3.8394 13.7538
H -2.22496 -4.67233 12.6141
O -5.3675 -13.745 -10.8597
H -6.31766 -14.0195 -11.0074
H -4.80136 -14.5593 -10.7315
O -11.7909 -8.93902 13.4522
H -12.3332 -8.43925 12.7768
H -11.8296 -8.46156 14.33
O -9.48561 11.6231 -6.48054
H -8.6023 11.7061 -6.01915
H -9.3954 11.0101 -7.26543
O 14.0297 -8.22801 5.55478
H 13.2332 -7.63223 5.45123
H 14.0472 -8.89372 4.80877
O -7.59388 -13.1075 13.7986
H -7.65524 -12.1858 13.4156
H -8.0763 -13.749 13.2021
O 9.78647 12.2639 2.3724
H 8.88137 11.9901 2.04711
H 10.4218 11.4981 2.27386
O -12.0755 8.37747 -11.6046
H -12.1108 9.28003 -11.1755
H -12.1266 8.47856 -12.5982
O -9.73973 -2.95054 -10.4587
H -9.70546 -1.97269 -10.6652
H -10.2439 -3.42595 -11.1797
O -1.24039 6.4729 -7.11879
H -1.81209 6.86995 -7.83678
H -1.06896 7.15892 -6.4117
O -9.09297 -2.38327 -0.349586
H -9.43332 -2.2903 0.586106
H -9.75899 -1.99518 -0.986622
O 10.3494 -13.6905 -4.95828
H 10.0818 -13.3176 -5.84673
H 10.7778 -14.5848 -5.08752
O -9.60643 13.5616 -12.8536
H -10.4157 13.9688 -12.43
H -9.74312 13.4999 -13.8422
O 5.76752 -4.28546 11.1212
H 6.12227 -4.19298 12.0516
H 4.88563 -3.81898 11.0529
O -12.5773 4.0483 4.33673
H -13.3829 3.52182 4.06503
H -11.7517 3.5189 4.14144
O -12.9756 1.29463 10.1853
H -12.9121 1.60705 11.1332
H -13.8189 0.771363 10.0627
O 9.45636 -8.87829 10.9396
H 10.0245 -9.05789 10.1366
H 8.53432 -9.23152 10.7813
O 7.95565 -9.93825 3.76491
H 8.50688 -9.7749 2.9467
H 7.21866 -9.26389 3.8104
O -1.52122 4.53557 -13.5435
H -2.12224 4.74622 -14.3145
H -0.604406 4.88902 -13.7293
O 14.9439 -0.665252 7.43398
H 14.3397 -1.37661 7.07508
H -14.4098 -0.332315 6.70199
O 7.21667 -10.3108 -14.9581
H 7.47598 -11.2505 -14.7351
H 6.32004 -10.1099 -14.5635
O -7.70424 -14.8115 -5.87904
H -7.64986 -13.8303 -5.69366
H -7.47399 14.9652 -6.83695
O 1.52707 2.26878 -0.851358
H 0.706795 1.69681 -0.849878
H 1.32252 3.14373 -1.29025
O -11.6176 12.2103 11.4489
H -11.0147 11.4426 11.666
H -12.4527 12.1432 11.9949
O 11.8523 -7.41214 11.1927
H 12.1006 -7.16154 10.2569
H 10.902 -7.72264 11.2136
O 12.6132 2.1573 -9.16148
H 12.2351 2.4648 -10.0347
H 11.9231 1.6288 -8.66706
O -6.96404 -10.733 -0.301722
H -7.21011 -10.0836 -1.02125
H -6.33615 -10.2953 0.341835
O -4.90326 -0.630279 6.37248
H -4.86822 -1.60645 6.58662
H -5.47268 -0.486828 5.56305
O -0.514808 -13.4122 4.11615
H 0.387232 -13.0921 4.40578
H -0.451006 -13.8021 3.19752
O -4.65828 -2.75954 -7.37315
H -5.58241 -2.40954 -7.21994
H -4.57573 -3.67065 -6.96933
O 0.248895 -9.64392 12.5184
H -0.573869 -9.9998 12.0753
H 0.0409049 -8.7676 12.953
O -4.32263 4.15373 9.06543
H -3.895 5.02246 9.31532
H -3.61294 3.47435 8.87894
O 1.80445 10.1206 -5.09417
H 2.55117 10.2471 -5.74718
H 1.36147 11.0001 -4.92004
O -10.8265 -9.19098 -2.18293
H -9.82842 -9.22899 -2.23212
H -11.1029 -8.41729 -1.61283
O 8.51217 -1.70273 0.896607
H 8.41756 -0.757112 1.20781
H 7.8047 -1.90293 0.218814
O 5.49844 3.48798 0.726213
H 5.83077 3.63648 -0.205184
H 6.09963 3.9568 1.37334
O 0.0193791 -2.79966 14.3743
H 0.710166 -2.47634 -14.9271
H 0.087152 -2.27628 13.5249
O -8.98736 13.0751 10.7987
H -8.9596 12.7711 9.84639
H -9.86341 12.8165 11.2057
O 13.7733 9.85959 -5.37965
H 12.8961 9.78438 -5.85374
H 13.6495 10.3695 -4.52836
O -2.7991 -12.5166 6.00004
H -2.2919 -11.8037 6.48422
H -2.88254 -13.3227 6.58597
O -10.069 3.00102 4.17035
H -9.27024 3.38349 3.70599
H -9.96096 2.0108 4.2585
O 14.6548 3.05878 -14.8333
H 14.413 3.79716 14.4853
H -14.9711 3.44846 -13.9706
O 1.88892 14.222 0.287489
H 2.80265 14.4073 0.649106
H 1.88096 14.3871 -0.698745
O -7.37752 2.6834 -11.6948
H -7.07374 3.61971 -11.5186
H -6.77175 2.25731 -12.3667
O -1.9811 -0.677639 6.90884
H -1.45378 -1.28891 6.31869
H -2.87237 -0.498888 6.49209
O 5.13892 13.8208 8.3227
H 5.38761 13.5214 7.40157
H 5.95873 14.1278 8.80611
O -6.01685 -8.09841 0.576642
H -6.05533 -8.11904 1.57569
H -6.69648 -7.45181 0.230189
O -9.67106 -12.5991 -7.44192
H -8.9862 -12.46 -6.72665
H -10.3103 -11.8301 -7.44541
O 14.0436 -13.5312 -5.85156
H 13.9022 -13.7371 -4.88328
H 13.8871 -14.3564 -6.3942
O 0.719009 -4.2144 7.82571
H 0.174859 -5.00496 7.54479
H 0.500774 -3.43424 7.23944
O 5.83958 -7.43361 13.5245
H 6.69268 -7.15021 13.0865
H 5.68085 -6.87425 14.3381
O 1.66373 -2.18011 4.04052
H 2.66371 -2.17898 4.04684
H 1.33621 -2.61467 3.20154
O 10.7217 12.0636 -3.5132
H 10.2774 11.9339 -4.39966
H 10.035 12.3092 -2.82898
O -2.68125 -1.04546 -4.41274
H -3.40556 -1.71439 -4.2457
H -2.99724 -0.136843 -4.13966
O -7.54797 -5.56513 -0.10116
H -7.59254 -4.58211 0.076829
H -7.92495 -5.75724 -1.00724
O 1.52706 0.7687 -12.1879
H 1.07967 -0.114766 -12.0489
H 1.01706 1.29748 -12.8664
O 1.5784 11.8342 -7.92347
H 0.864639 11.1346 -7.95541
H 1.66074 12.2676 -8.82091
O -0.0100375 -6.57989 13.2539
H -0.337501 -6.11523 14.0766
H 0.912291 -6.93139 13.4144
O 14.9167 -9.9506 -1.87071
H -14.7404 -9.71536 -0.943362
H -14.3607 -9.60678 -2.52786
O -3.74536 12.6947 -0.467309
H -2.93673 12.2281 -0.825577
H -4.34121 12.9588 -1.22575
O 8.39277 -3.76582 6.37517
H 7.72661 -3.81872 7.11911
H 8.06814 -4.30506 5.5981
O -7.35651 -10.7574 12.2491
H -6.70151 -10.0183 12.4065
H -8.21784 -10.374 11.9158
O 8.69627 -7.96736 -14.708
H 8.35081 -8.89367 -14.8584
H 8.4056 -7.37693 14.4872
O -6.37754 9.37265 14.3101
H -7.26414 9.80991 14.4609
H -6.45322 8.71561 13.5601
O 0.206672 7.18477 6.30797
H -0.350647 7.69186 6.96543
H 1.15915 7.17943 6.61252
O 14.016 -8.58497 -5.41164
H 13.6586 -9.4933 -5.19431
H 13.6577 -7.92022 -4.75608
O -14.023 -11.1911 8.63292
H -14.5687 -11.9654 8.31245
H -14.4755 -10.3364 8.37851
O -0.905592 -10.5931 5.73868
H -1.05096 -11.5063 5.35785
H 0.00523812 -10.2674 5.48516
O -5.77489 -11.2834 6.34831
H -5.095 -12.005 6.21814
H -6.25715 -11.4316 7.21171
O -14.1353 6.15855 5.4515
H -13.4142 5.47947 5.31402
H -13.9275 6.70597 6.26213
O 13.038 8.17876 1.74887
H 12.7964 7.37545 1.20454
H 13.9183 8.0248 2.19763
O -4.86699 10.4063 -9.46952
H -5.31165 9.51062 -9.4732
H -3.91952 10.3093 -9.7743
O -9.92369 5.32034 -5.87493
H -9.70703 4.77178 -5.06738
H -10.3085 4.73066 -6.58499
O 2.93514 6.34059 2.47623
H 3.14053 5.70198 3.21784
H 2.58936 7.19688 2.85991
O -12.2559 2.54751 -7.7006
H -11.9817 1.58963 -7.78568
H -13.2023 2.65164 -8.00631
O -2.77362 14.2682 1.99653
H -1.84068 14.5507 1.77334
H -3.23718 13.9622 1.16497
O -3.68745 1.34184 10.2651
H -3.32456 1.79657 11.0784
H -3.22948 0.46126 10.1433
O -11.9218 -9.50245 2.48143
H -11.1763 -9.88467 1.93548
H -11.9817 -9.9907 3.35207
O 14.6225 7.05883 -14.7451
H 14.2375 7.00062 14.2819
H -14.4082 6.66096 -14.7416
O 5.51999 -9.39231 -11.6061
H 6.51085 -9.2999 -11.7043
H 5.13405 -9.76022 -12.4521
O 6.36134 -3.35522 8.32248
H 6.26089 -3.52835 9.30225
H 5.49072 -3.52915 7.8623
O 3.93696 -1.43705 9.87938
H 3.12743 -1.4764 9.29361
H 4.65718 -0.918758 9.41823
O -14.2199 12.3395 -0.403363
H 14.8917 11.7917 -0.389748
H -13.6028 11.988 -1.10743
O -11.5171 6.71196 0.196939
H -12.1714 6.07718 -0.213989
H -11.0638 7.23635 -0.523841
O 2.2326 -13.0561 5.19929
H 2.89187 -13.7438 5.50326
H 2.697 -12.3781 4.62953
O 6.30538 -10.6962 -3.45479
H 6.65424 -11.5978 -3.71046
H 7.02337 -10.0122 -3.58362
O 12.9404 -6.26203 -0.0590233
H 12.9124 -5.36958 0.391255
H 13.3871 -6.17233 -0.94922
O 14.5732 -3.6493 13.8185
H 14.0871 -3.09451 13.1433
H -14.3926 -3.61263 13.6351
O -4.24472 -9.43334 8.21775
H -4.67692 -8.53292 8.26722
H -4.945 -10.1436 8.28959
O 6.1611 1.6878 -6.39061
H 5.23586 1.32104 -6.29361
H 6.12947 2.68656 -6.35216
O 1.45687 -14.1129 14.4521
H 1.67201 -13.1516 14.6245
H 1.681 -14.6551 -14.6863
O -8.29785 11.2691 -9.58326
H -8.67683 10.3925 -9.28669
H -7.69691 11.6307 -8.87043
O 6.22823 2.21521 -12.6343
H 6.63289 2.11556 -11.7253
H 5.4509 2.84247 -12.5862
O 1.97387 -3.70638 -9.62148
H 2.54085 -3.05508 -9.11715
H 1.70457 -4.45389 -9.01428
O 4.81325 -5.08769 -1.59122
H 5.43709 -5.75786 -1.1891
H 4.85358 -5.15114 -2.58839
O -7.92706 7.31644 -10.9549
H -8.86982 7.21832 -10.6362
H -7.9193 7.403 -11.9511
O 12.593 4.62234 0.779536
H 13.2789 4.05888 1.24005
H 13.026 5.13484 0.0379816
O -4.21632 10.6615 12.9708
H -4.58518 11.2897 12.2856
H -4.96965 10.2259 13.4634
O 4.4764 -8.62495 -2.83282
H 5.10726 -8.03829 -2.32503
H 4.9665 -9.42923 -3.16888
O -5.12831 -5.82662 -11.1204
H -5.67645 -5.61922 -10.3102
H -4.99127 -6.815 -11.1861
O -1.39509 6.59688 13.0692
H -1.95213 7.4016 12.864
H -1.96432 5.89985 13.5053
O 14.7721 14.4829 9.95046
H -14.2326 14.2298 9.7366
H 14.2045 13.6601 9.979
O 5.12368 -3.50983 14.0695
H 5.56053 -3.27813 14.9387
H 4.64451 -4.38292 14.1596
O 4.36415 -12.7522 -2.87646
H 5.00686 -12.0196 -2.65232
H 3.85093 -12.5054 -3.69847
O -10.2704 5.28099 -13.8588
H -9.78637 6.1559 -13.8739
H -10.6938 5.14979 -12.9624
O 0.880566 13.0534 -5.06093
H -0.0246355 13.2205 -4.67017
H 0.785909 12.7926 -6.02166
O 13.5409 10.9289 0.510182
H 12.8754 10.8134 -0.227244
H 13.6334 10.0697 1.01336
O 14.6767 -1.94449 -12.077
H 14.4654 -1.06013 -12.4933
H 14.4192 -2.67863 -12.7053
O -4.23231 -6.76868 -7.65278
H -4.31758 -7.7415 -7.43748
H -5.00151 -6.4854 -8.22556
O 10.9311 -0.475723 -11.1103
H 11.8781 -0.599573 -11.4066
H 10.9177 -0.0403859 -10.2101
O -9.14153 0.187867 2.69686
H -9.62055 0.461902 3.53079
H -9.24598 -0.797326 2.56091
O -1.51968 8.36905 3.73061
H -1.97856 9.12638 4.19524
H -0.901272 7.9116 4.3696
O 13.0448 3.97471 -6.09521
H 12.6758 4.10532 -7.01543
H 13.239 3.00478 -5.94855
O -14.7145 -0.808423 10.0633
H -14.5967 -0.79439 9.0704
H -14.3447 -1.66178 10.4308
O -8.48836 -5.0371 -14.584
H -7.68397 -4.85894 -14.0173
H -8.19969 -5.42078 14.4869
O -8.16618 -6.62142 -8.02925
H -7.38826 -7.24936 -8.00632
H -8.92455 -7.04811 -8.52201
O -8.44505 3.38861 -9.20408
H -7.98939 2.94291 -8.43354
H -8.18208 2.93404 -10.0551
O 1.33843 -7.75595 -11.584
H 0.868536 -8.63397 -11.4931
H 0.711928 -7.01576 -11.3399
O 11.711 14.4063 3.11632
H 12.4859 13.7743 3.1067
H 10.8679 13.9027 2.9278
O 5.85147 -7.32097 -5.08471
H 6.45504 -7.16327 -4.30315
H 5.08179 -7.89306 -4.80135
O -0.835634 -12.3738 -0.225865
H -1.8151 -12.5304 -0.352814
H -0.504239 -11.7467 -0.930846
O 2.36382 -9.41455 5.43886
H 3.24439 -9.40531 5.91267
H 2.39717 -10.0721 4.68622
O -1.81895 11.977 3.73421
H -2.17722 11.6731 4.61699
H -2.4825 12.5834 3.29609
O 5.7457 1.22056 -2.06047
H 5.68443 0.665353 -2.88992
H 5.07801 0.894671 -1.39115
O 14.3252 -6.9727 2.19131
H 13.8114 -6.44823 1.51236
H 13.7415 -7.6918 2.56842
O -7.02778 7.65573 0.145799
H -7.12781 6.75909 -0.285519
H -6.88969 7.53895 1.12931
O 8.96628 -11.8731 9.89437
H 8.48081 -11.7181 10.7548
H 8.33912 -11.7339 9.12803
O -7.0825 8.61278 -3.39684
H -6.19686 9.07255 -3.46208
H -7.5469 8.65688 -4.28137
O 14.9706 9.33167 -13.2167
H 14.8107 8.43733 -13.6345
H 14.2951 9.98491 -13.5586
O 7.47514 13.6382 3.47805
H 7.18403 14.1021 2.64139
H 8.20909 14.1614 3.91117
O -1.88788 9.48763 -13.0352
H -2.00146 10.4267 -13.3597
H -1.2738 8.99408 -13.6511
O -2.26581 0.21693 -12.9583
H -1.48558 0.818552 -12.7872
H -2.3467 -0.444314 -12.2125
O 11.7284 -14.0139 -8.55988
H 10.8696 -13.7397 -8.12709
H 11.6362 -14.9398 -8.9263
O -6.75617 -3.06026 2.6516
H -6.08305 -3.78023 2.48256
H -6.73201 -2.39874 1.90206
O -3.48618 5.72824 5.03497
H -4.06687 6.17584 5.71502
H -3.91248 4.87149 4.74472
O -10.3495 -7.7044 -9.0142
H -11.251 -8.08938 -9.21167
H -9.92156 -7.40352 -9.86646
O 6.91265 -9.09708 9.63195
H 6.21418 -9.42468 10.2682
H 6.99757 -9.73965 8.87044
O 8.47541 11.2275 -6.1787
H 8.08549 10.9243 -7.04819
H 9.43937 10.9649 -6.13605
O 8.06284 -4.9655 -12.1498
H 8.31934 -5.91876 -11.9901
H 8.80251 -4.3657 -11.8446
O 14.3125 -4.91478 -3.67364
H 13.8868 -4.68002 -4.54752
H -14.7888 -5.41981 -3.84041
O -9.13207 8.95334 -8.38545
H -8.62249 8.43096 -7.70175
H -9.71034 8.3333 -8.9157
O 0.902134 5.22614 14.134
H 0.109294 5.72248 13.7804
H 1.72431 5.52103 13.6471
O 12.8894 8.30597 10.0298
H 12.8447 8.19732 9.03669
H 11.9716 8.47744 10.3879
O -1.84466 -5.31936 3.39808
H -2.0371 -4.73097 4.18343
H -1.55407 -6.22044 3.71997
O -1.59101 8.55214 8.11729
H -1.34916 9.4719 7.80818
H -1.90004 8.59037 9.06757
O 4.85305 -12.1054 7.46274
H 4.17965 -11.9674 8.18901
H 4.56412 -12.8652 6.88032
O 14.0679 -1.35235 -4.00902
H 13.2466 -1.84507 -3.72151
H 13.9186 -0.955579 -4.91472
O 12.7682 -2.31215 11.5614
H 12.0243 -1.72541 11.2415
H 13.3567 -2.55462 10.7901
O 0.447993 5.13297 2.15593
H 1.38026 5.48287 2.06409
H 0.222354 5.03601 3.1253
O -1.34397 -14.2783 13.5261
H -1.26585 -13.4202 13.0187
H -0.44658 -14.5371 13.8835
O 12.9363 -8.95088 14.7205
H 13.8989 -9.1824 14.861
H 12.8661 -8.01887 14.3649
O 3.65832 0.0499459 -14.7272
H 3.30985 -0.81466 -14.3652
H 3.65232 0.74062 -14.0041
O 8.69594 9.02398 -14.0043
H 9.33156 9.71754 -13.6653
H 9.19549 8.35409 -14.5536
O 5.69415 14.6567 -14.2555
H 6.02735 13.9207 -14.8449
H 6.30802 14.7608 -13.473
O 6.98429 -0.696672 7.96819
H 6.83991 -0.229902 8.84071
H 7.11093 -1.67523 8.13063
O 0.552057 -1.4751 12.1731
H 0.736513 -0.632976 11.6663
H 1.41676 -1.91985 12.4065
O 13.5042 3.20232 -2.91323
H 14.1611 3.95497 -2.86812
H 12.6179 3.51234 -2.56914
O 13.1121 -2.53785 6.14722
H 13.593 -3.37226 5.87803
H 12.6352 -2.15763 5.35478
O -2.72229 -9.80442 -2.16466
H -3.03739 -9.51872 -1.25963
H -2.5338 -10.7865 -2.15731
O -12.5729 2.21041 -1.19529
H -12.7521 1.75438 -2.06703
H -11.7789 1.79004 -0.756234
O -12.915 2.12957 12.9573
H -12.0855 1.5743 12.8974
H -12.8564 2.73147 13.7537
O -6.96297 11.4515 -0.915722
H -7.21562 11.7722 -0.00285855
H -7.79081 11.2832 -1.45083
O -8.47475 7.62506 -5.71807
H -9.1713 6.91296 -5.80595
H -7.56682 7.21665 -5.81231
O 5.2931 -0.277729 1.76322
H 5.65455 0.335645 2.46545
H 4.65199 0.222746 1.18141
O -13.3091 -12.0256 -4.63856
H -13.8795 -11.8115 -5.43153
H -13.6818 -12.8241 -4.16574
O -13.9798 4.82943 2.1192
H -13.519 4.54674 2.96051
H -13.892 5.81929 2.00757
O -3.7724 -9.5272 -7.9931
H -3.99645 -10.0266 -8.83002
H -3.62771 -10.1763 -7.24627
O 11.3487 0.149268 -7.73012
H 10.7769 0.288715 -6.92165
H 11.9127 -0.666631 -7.60278
O -9.14365 -7.23643 1.39715
H -8.47869 -6.5688 1.06233
H -9.99937 -6.77051 1.62222
O -14.3879 2.03799 3.39039
H 14.6665 2.46876 3.51564
H -14.2984 1.72478 2.44493
O -5.14804 -13.899 14.6568
H -4.71473 -13.0123 14.4951
H -6.08061 -13.8849 14.296
O -9.29069 -0.697446 -14.3334
H -8.37397 -1.09629 -14.3567
H -9.22055 0.30004 -14.3434
O -7.319 11.6499 -4.55064
H -6.926 10.7499 -4.36243
H -6.5869 12.2928 -4.77582
O -13.431 11.3825 13.3781
H -12.9414 11.654 14.2067
H -14.4162 11.4468 13.537
O 9.95825 12.8921 9.7581
H 9.30379 12.1708 9.53146
H 10.5228 13.0935 8.95765
O -6.74727 -2.48363 -9.95258
H -7.59421 -2.89107 -10.2942
H -6.90915 -1.52485 -9.71906
O 3.38051 2.28543 11.7704
H 4.1315 2.10105 11.1364
H 3.19287 3.2675 11.7883
O 10.8983 -10.7569 13.1826
H 11.3308 -9.95778 13.6002
H 10.1732 -10.4574 12.5625
O -7.26371 -8.89349 -9.75872
H -7.79657 -9.63664 -10.1634
H -6.46989 -8.70016 -10.3353
O -4.13693 -13.8339 -4.98158
H -4.60497 -13.794 -4.09877
H -3.14813 -13.7991 -4.83648
O -4.79975 6.43889 -13.6144
H -4.50821 7.36121 -13.3607
H -5.28854 6.02135 -12.8484
O 0.0788185 4.34349 -2.3945
H -0.352233 4.55483 -1.51727
H -0.628205 4.18542 -3.0838
O 9.36387 4.99961 11.0584
H 8.66167 4.52201 10.5304
H 10.2587 4.59834 10.8627
O 5.31268 2.27768 9.90595
H 4.84824 2.11376 9.03565
H 5.54846 3.24661 9.98061
O -14.7245 -11.4516 0.982482
H -13.9258 -11.023 0.560085
H 14.7482 -12.0117 0.304162
O 10.2593 10.0699 0.13348
H 9.87289 9.5396 0.888068
H 9.71151 9.92521 -0.690504
O -6.51464 -8.26284 3.45721
H -7.47819 -8.03267 3.59357
H -5.94655 -7.47634 3.6995
O 4.10265 1.97259 7.44295
H 3.29141 2.41862 7.06488
H 4.0879 1.00039 7.20927
O -5.43933 7.54503 -6.45207
H -5.4114 6.68639 -6.96389
H -5.54048 8.30946 -7.08879
O 10.1301 7.14228 14.4845
H 9.56316 6.31876 14.4655
H 10.5457 7.28166 13.5857
O -12.4941 12.0383 -13.8652
H -13.2733 12.5548 -13.51
H -11.7901 12.6734 -14.1828
O 13.2273 12.2937 10.5681
H 12.2441 12.2344 10.7405
H 13.4091 12.0976 9.60451
O -6.51422 3.30038 7.85763
H -6.49387 2.31438 8.02309
H -5.78903 3.74203 8.38588
O 0.821976 11.7239 0.188867
H 1.09938 12.6649 0.382747
H 1.62852 11.1327 0.184877
O -13.3002 -5.63902 -7.3459
H -13.8066 -4.947 -6.83141
H -12.5668 -6.00833 -6.77519
O 9.35182 9.80028 10.9198
H 9.31791 10.6455 11.4531
H 9.02129 9.97751 9.99282
O -9.25132 -2.51076 12.5929
H -9.77431 -3.20653 13.0853
H -9.41997 -1.61457 13.0033
O 3.17521 6.76456 13.0065
H 3.16521 6.12051 12.2415
H 4.09208 6.79514 13.4045
O -0.635723 -9.32053 -6.95583
H -1.43766 -9.72501 -6.51618
H -0.751808 -8.32896 -7.01346
O -14.2631 7.57307 2.67635
H -13.5847 7.50387 3.40779
H -13.9273 8.19396 1.968
O 14.9337 -5.12056 -9.44414
H -14.2186 -5.27053 -8.8575
H 14.1351 -5.57008 -9.04387
O 10.2763 -3.13332 -11.8805
H 10.0994 -2.22077 -11.5117
H 10.3571 -3.08073 -12.8758
O -0.229746 -5.73119 1.41261
H 0.367842 -6.41324 1.83416
H -0.960102 -5.48792 2.05089
O -12.948 8.8917 12.6169
H -13.8292 8.41892 12.6159
H -13.0709 9.82506 12.9542
O -6.15961 11.8326 -7.71025
H -5.73379 11.6866 -6.81731
H -5.69723 11.2705 -8.39598
O 10.235 -6.71686 -3.01364
H 9.56649 -6.4649 -3.71336
H 10.0978 -6.14932 -2.20181
O 8.11144 -0.913356 -10.9826
H 9.0083 -0.542067 -10.7422
H 7.88923 -0.664067 -11.9252
O -5.72205 -10.3438 -13.5236
H -4.93942 -10.8926 -13.8174
H -6.55796 -10.8872 -13.6008
O 13.0811 5.23469 8.40965
H 13.161 6.21343 8.59856
H 13.0137 5.09017 7.42245
O 3.58166 9.43793 13.5815
H 3.35872 8.46544 13.514
H 2.91594 9.89217 14.1735
O 9.02116 -2.18902 -2.1523
H 9.04724 -1.25054 -1.80794
H 8.20069 -2.31693 -2.70949
O -12.0003 11.2966 7.45734
H -12.0765 10.7085 8.2625
H -12.0482 10.737 6.63001
O -13.0102 -13.2659 2.66453
H -13.1678 -14.2112 2.37875
H -13.6177 -12.6576 2.1537
O -0.704122 7.62316 0.9489
H -0.702375 8.27049 1.71111
H -0.685167 6.68891 1.305
O 4.90154 -4.87804 -4.37075
H 4.78749 -4.2651 -5.1526
H 5.14057 -5.7928 -4.69644
O -5.02366 -2.72023 -4.04186
H -4.95246 -3.50222 -4.66107
H -5.97736 -2.42457 -3.98662
O -4.92893 9.57684 4.13798
H -4.69568 10.4108 3.63786
H -5.75117 9.16905 3.74097
O -2.4787 -7.59673 -11.8973
H -2.67246 -7.07897 -12.7306
H -1.90483 -7.04774 -11.2896
O 4.11126 -5.68505 2.67719
H 4.9754 -5.19119 2.58035
H 3.35537 -5.09152 2.40089
O 1.39957 8.37914 -1.02983
H 1.19772 7.9268 -1.89853
H 0.574862 8.39853 -0.464606
O -14.2121 -8.41713 0.449753
H -14.7996 -7.95204 1.11202
H -13.3525 -8.67557 0.890474
O -2.9916 14.5705 -14.6586
H -3.75357 -14.7317 -14.6125
H -2.35693 14.8544 14.5708
O -13.0899 9.10494 0.861582
H -12.101 9.17282 0.729171
H -13.5417 9.04033 -0.0282063
O -10.0774 -6.86702 4.62652
H -10.8849 -7.36143 4.30472
H -10.0161 -5.98671 4.1561
O 0.579857 5.0545 -11.0317
H 0.188025 4.185 -10.731
H 0.760559 5.6318 -10.2354
O 11.5312 -11.7195 9.10426
H 12.2055 -12.0457 9.76672
H 10.6104 -11.8735 9.46254
O -5.15094 -8.47461 -11.503
H -5.41281 -9.0853 -12.2503
H -4.18125 -8.24441 -11.5849
O -10.2384 3.73701 12.8119
H -11.0537 3.96305 13.345
H -10.1562 4.37151 12.0434
O 14.5145 3.35088 12.04
H 14.7099 3.84679 11.1939
H -14.588 3.23408 12.5608
O 6.94743 8.69555 12.1019
H 6.15833 8.65625 11.4889
H 7.72983 9.08218 11.6137
O -8.52818 -8.57972 -12.9155
H -9.04786 -7.89351 -12.4065
H -8.61115 -9.4661 -12.4601
O 7.62434 -5.49932 4.45693
H 8.16884 -6.13606 3.91097
H 7.3359 -5.94784 5.30288
O -11.4552 -14.8704 -11.2151
H -12.4189 -14.7084 -11.0031
H -10.9319 -14.9278 -10.3648
O 13.0256 6.1691 5.18404
H 14.022 6.08594 5.20337
H 12.7738 7.09091 4.88937
O -9.38754 12.452 8.10288
H -8.96626 11.5458 8.13742
H -10.3817 12.3558 8.05354
O -2.23944 14.4176 11.1081
H -3.2147 14.4584 11.3254
H -1.7077 14.6915 11.9095
O -6.42691 3.50003 -3.9814
H -5.62395 3.61526 -4.56619
H -6.76618 4.39776 -3.70037
O -6.14882 8.15995 -9.15616
H -5.90421 7.23867 -8.85385
H -7.03104 8.13325 -9.62624
O 8.57689 2.90145 8.22432
H 8.7335 2.27334 8.98652
H 9.38781 2.92476 7.63961
O -4.04703 4.39396 -4.75024
H -4.20358 4.53575 -3.7728
H -3.69257 5.23609 -5.15664
O 6.31602 12.7288 13.605
H 6.90808 13.3439 13.0843
H 5.97897 12.0033 13.0049
O -13.0726 -7.76624 -12.6147
H -13.7469 -7.08022 -12.3413
H -13.4183 -8.27859 -13.4008
O -0.640424 -14.3663 -2.22296
H -0.584924 -13.8051 -1.39719
H 0.248885 -14.7881 -2.39969
O -7.41 -3.11477 -6.80634
H -8.22008 -3.39862 -7.31936
H -7.66623 -2.41553 -6.13894
O 9.2845 5.3136 4.46921
H 9.47598 6.06082 3.83282
H 8.41946 4.87769 4.22085
O -12.0049 -10.598 -7.79441
H -12.2394 -10.0896 -8.62301
H -12.7661 -11.1962 -7.54384
O 10.8808 3.70182 -2.20609
H 10.1517 3.63459 -2.88719
H 10.5352 3.40131 -1.31712
O 5.14922 7.34062 -7.27342
H 4.95852 8.29505 -7.503
H 5.91581 7.01188 -7.82503
O 2.57787 11.7943 -13.2075
H 3.52281 11.8939 -13.5193
H 2.03177 11.3692 -13.9293
O 12.8371 3.33164 4.02408
H 13.3552 3.04829 4.83111
H 12.515 4.2703 4.14738
O -13.1932 10.1444 4.67193
H -13.4425 10.6969 3.87657
H -12.3287 9.67452 4.4936
O -0.668725 -7.60052 4.35969
H -1.29815 -8.36742 4.48496
H 0.238994 -7.94905 4.12609
O -4.69912 11.2603 1.82713
H -4.15647 10.436 1.66577
H -4.6164 11.873 1.04112
O -4.13382 -13.4798 3.36081
H -3.55836 -14.1998 2.97287
H -3.74768 -13.1779 4.23243
O 10.1516 -7.00791 -10.5711
H 10.6343 -7.37811 -11.3648
H 10.7908 -6.90935 -9.80839
O -10.499 10.2614 4.61084
H -10.4519 11.2531 4.73076
H -9.77898 9.9672 3.98232
O -8.57568 -11.1197 -11.2998
H -9.5174 -11.36 -11.0645
H -8.14311 -11.8887 -11.7705
O 8.48057 -13.167 -0.519518
H 9.27027 -13.5359 -0.0293002
H 8.73702 -12.9727 -1.46635
O -10.0004 -10.4778 5.6319
H -10.962 -10.6348 5.40662
H -9.43803 -10.6345 4.82002
O 4.29959 -5.66897 -8.97313
H 4.80641 -5.13373 -9.64889
H 3.65147 -6.26941 -9.44156
O -9.9333 -2.47706 2.38979
H -9.63569 -3.31318 2.8506
H -10.893 -2.29988 2.60779
O 10.9977 -10.8998 -9.58567
H 10.8133 -11.7165 -9.0388
H 11.8246 -10.4513 -9.24657
O -13.9993 -11.5777 -10.6788
H -14.5347 -12.3067 -10.2522
H -14.5315 -11.1606 -11.4155
O 2.90159 5.96571 -6.37276
H 2.67436 6.12866 -5.41266
H 3.64191 6.5787 -6.64875
O -10.3964 -0.117524 -11.2843
H -10.9519 -0.634835 -11.9353
H -10.0937 0.735822 -11.7088
O 13.4792 -6.39393 13.4716
H 13.3943 -5.40258 13.3715
H 12.9973 -6.84717 12.7218
O 14.827 7.43034 12.0095
H 14.202 7.79629 11.3199
H -14.4076 6.8923 11.5606
O 9.44324 -8.58984 6.18277
H 9.82178 -9.04106 6.99092
H 9.20825 -9.2779 5.49622
O 7.20845 8.82746 -5.60418
H 7.36849 9.80876 -5.71112
H 6.91047 8.44126 -6.47714
O 2.66768 9.38722 1.12496
H 2.46894 8.85661 0.30097
H 2.37173 8.8746 1.93095
O 9.57628 12.5184 6.51971
H 9.85137 12.2293 5.60279
H 9.30714 13.4813 6.49887
O 9.20358 -9.55986 -3.45487
H 9.8697 -8.8167 -3.3917
H 9.56019 -10.3679 -2.98586
O -9.00901 1.40058 11.5993
H -9.62497 1.60451 10.8384
H -8.34667 2.14296 11.7002
O 13.3162 11.2144 -3.0437
H 12.3966 11.3986 -3.39061
H 13.3208 10.3394 -2.55974
O 3.87286 11.1951 -6.90777
H 3.22487 11.8706 -7.25962
H 4.22426 10.6444 -7.66489
O 7.43202 -14.595 -12.3423
H 7.22246 -14.8709 -11.4043
H 8.41496 -14.6829 -12.5039
O 14.8043 -5.9713 -12.2966
H 14.8143 -5.6404 -11.353
H 14.1359 -5.4488 -12.826
O 1.05302 8.24408 9.86497
H 1.23315 8.77674 9.03804
H 0.422838 8.74822 10.4555
O -9.15714 -0.112985 -6.86843
H -9.04934 0.707186 -6.30656
H -10.0194 -0.0609553 -7.37216
O -13.8396 13.4202 6.75912
H -13.7236 14.3796 7.0163
H -13.0579 12.8901 7.08793
O -7.1683 4.54112 3.35855
H -7.34744 4.9365 2.45768
H -6.58124 3.73769 3.25919
O 7.7676 -7.84736 -12.0083
H 8.31845 -7.92157 -12.8396
H 8.37085 -7.7827 -11.2133
O 4.90219 -2.19 -12.4375
H 5.59259 -1.72874 -12.9948
H 4.54854 -1.55429 -11.7514
O -5.9255 7.32939 12.4256
H -6.18371 6.37014 12.3108
H -5.86624 7.76817 11.5289
O -0.86029 3.1425 10.4121
H -0.607372 4.06535 10.1216
H -1.48575 3.19772 11.1904
O 6.48976 8.92666 -12.1698
H 6.93425 9.22889 -13.013
H 7.16472 8.48938 -11.5754
O -1.52394 -13.8768 -4.777
H -1.16895 -13.9805 -3.8479
H -0.762398 -13.7497 -5.41254
O 12.5568 4.5697 13.4172
H 13.2601 3.97282 13.0311
H 11.9867 4.933 12.6803
O 7.43462 -11.0633 7.57567
H 6.69108 -11.7215 7.45754
H 8.17745 -11.2825 6.94309
O -10.2194 -6.72105 -11.6392
H -10.0533 -5.7725 -11.9088
H -11.2011 -6.86513 -11.5148
O 6.85092 -14.6994 1.03205
H 7.34941 -14.1568 0.355993
H 6.14915 14.7053 0.571416
O -6.53574 -7.78633 -14.6682
H -5.77472 -8.42951 -14.753
H -7.09719 -8.03639 -13.8794
O -5.01564 3.53301 -9.8261
H -4.06552 3.56417 -10.1364
H -5.48438 2.76598 -10.2642
O -14.8951 14.1269 -14.8673
H 14.5094 14.962 -14.7824
H 14.4753 13.3866 14.7372
O -7.36738 -12.6964 -13.2965
H -7.21174 -13.5151 -12.7437
H -7.43908 -12.9536 -14.2602
O 6.07811 6.97344 7.64297
H 7.02114 6.65295 7.55357
H 6.07669 7.95265 7.84585
O -7.82253 -1.38942 -4.36882
H -8.66453 -1.15709 -4.8557
H -7.607 -0.66673 -3.71211
O 10.5437 -10.7947 -12.2245
H 10.5883 -10.8416 -11.2266
H 10.7331 -9.85929 -12.523
O -3.86181 5.16781 -2.08895
H -4.21635 6.03613 -2.43582
H -3.00718 5.32996 -1.59567
O 11.1744 -4.11223 -9.35602
H 11.1512 -3.88553 -10.3297
H 10.2863 -4.47817 -9.07778
O 4.4813 11.5707 1.4179
H 4.1191 12.2295 2.07734
H 4.00198 10.699 1.51994
O -11.4002 6.15862 7.55721
H -10.7729 6.68921 6.98717
H -12.2875 6.61829 7.59327
O -9.9785 2.18659 -12.5988
H -9.09047 2.29192 -12.1512
H -10.5713 2.95174 -12.3475
O 14.5885 -13.032 -14.1545
H -14.4821 -12.5881 -13.9734
H 14.1737 -12.6299 -14.9708
O 13.0092 11.5536 -11.3451
H 13.703 12.131 -11.7753
H 13.2426 11.4127 -10.3829
O -2.85121 10.6686 6.17129
H -3.04898 9.75537 5.81507
H -3.47358 10.8737 6.92666
O 2.32143 4.39296 6.349
H 1.53889 3.80507 6.14401
H 2.94283 4.40594 5.56561
O 7.33683 -13.1238 -4.61153
H 7.92288 -13.8385 -4.22968
H 6.53591 -13.5428 -5.03932
O -6.8323 0.383099 -2.46211
H -7.74749 0.349374 -2.06052
H -6.35642 1.20107 -2.1389
O 1.0559 6.46185 -8.81592
H 0.0972836 6.65684 -8.60848
H 1.48119 6.00942 -8.03206
O -3.09443 10.6259 -5.98557
H -2.32019 10.172 -6.4266
H -3.04452 11.6101 -6.15521
O 8.92698 1.97453 4.42116
H 8.38551 1.29807 4.92038
H 9.73822 2.21218 4.95539
O -9.6968 7.81111 5.82664
H -10.039 8.62997 5.36576
H -8.70591 7.75045 5.70644
O -12.5399 8.74141 -14.4973
H -12.9128 8.227 14.6787
H -13.1746 9.47215 -14.2459
O 5.69902 -8.47178 3.70047
H 4.97867 -7.86203 3.36987
H 5.62324 -8.56994 4.69275
O -10.5192 1.83335 9.19935
H -10.6211 2.32282 8.3333
H -11.4132 1.50419 9.50336
O 0.377363 -11.1858 -2.34117
H 0.639961 -11.2733 -3.30209
H 0.576534 -10.2584 -2.02431
O -9.51106 12.9257 4.89456
H -9.80432 13.3971 4.06286
H -9.54502 13.56 5.66688
O -8.30823 2.43432 14.7793
H -8.8105 2.62941 13.9369
H -8.81741 2.79304 -14.3865
O -13.036 -5.92031 -3.7327
H -12.0897 -5.74368 -4.00336
H -13.2092 -6.90506 -3.74935
O -4.09039 -3.19967 -10.7478
H -3.90531 -4.07562 -11.1933
H -5.07138 -3.11534 -10.573
O -8.13522 -13.0482 -2.63785
H -8.9881 -13.226 -3.12876
H -8.19212 -12.1602 -2.18159
O -0.686342 -2.80135 5.67078
H -0.0475529 -2.82416 4.90173
H -1.54923 -3.22814 5.4001
O -9.43422 8.30488 2.82764
H -9.91374 8.54606 1.98391
H -10.0314 7.74496 3.40201
O 1.95909 -6.94483 6.76386
H 1.80373 -7.82992 6.32514
H 2.75092 -6.49987 6.34551
O 12.2516 14.3078 -2.00545
H 11.5025 13.7243 -1.69165
H 12.2714 -14.8018 -1.46107
O 9.71848 -9.18669 0.693164
H 10.0456 -9.02202 -0.237358
H 8.97899 -9.85955 0.672328
O 7.43471 -0.413024 -13.5932
H 7.59999 -0.363945 -14.5782
H 6.91211 0.38849 -13.3025
O 1.73295 -4.79179 -12.0707
H 2.61734 -4.98446 -12.4958
H 1.87421 -4.50248 -11.1239
O -14.5039 4.01271 9.36767
H -13.8971 3.55004 8.72133
H 14.6798 4.42413 8.87124
O 9.97637 -1.27842 8.36372
H 9.9735 -0.478939 8.9644
H 9.72913 -0.999109 7.43589
O 5.87469 -1.0961 -7.54372
H 6.64878 -1.57343 -7.95959
H 6.20773 -0.305752 -7.02949
O -3.46041 -9.08651 0.283471
H -2.71948 -9.06286 0.954641
H -4.31367 -8.79918 0.718669
O -10.47 14.0516 2.63039
H -11.0923 13.5064 2.06861
H -10.3106 14.935 2.18985
O -1.2742 0.747507 13.2337
H -0.424642 0.63085 12.7193
H -1.6104 -0.146725 13.5293
O -10.1995 14.3266 -1.05947
H -9.33348 13.9474 -0.733465
H -10.1555 14.4541 -2.05033
O -8.18068 7.7021 9.35313
H -8.33649 6.71647 9.41844
H -7.57574 7.89342 8.58018
O -14.8059 1.82406 -8.26101
H -14.7733 1.38976 -7.36083
H 14.1898 1.98893 -8.51727
O 7.18162 11.6391 1.47563
H 6.22055 11.3768 1.38888