2611
Atoms. Timestep: 8000000
O 3.39705 -0.827059 -10.8355
H 4.26665 -0.589715 -11.2684
H 3.27112 -1.8187 -10.8623
O -3.15412 5.79485 -5.76125
H -3.17358 4.86349 -6.12474
H -2.32068 6.2548 -6.06747
O -9.52468 -10.7884 5.85542
H -10.2695 -10.6189 5.21014
H -9.63775 -11.6937 6.26469
O 4.98873 -8.83472 -8.1751
H 4.86971 -9.15165 -9.11602
H 5.78463 -9.2846 -7.77003
O 12.2046 -3.2561 7.87226
H 12.1235 -4.00348 8.53165
H 12.938 -2.63876 8.15665
O 1.69246 -12.9272 9.54247
H 1.85665 -12.1241 8.96982
H 2.35504 -12.9438 10.2912
O 2.05855 4.84393 -4.70213
H 3.01509 4.5544 -4.73569
H 1.58131 4.51274 -5.51607
O 2.01213 14.6281 -6.66931
H 1.74669 -14.6702 -7.26585
H 2.9552 14.7592 -6.36375
O -5.8631 -8.70725 -11.4611
H -4.937 -8.34987 -11.5817
H -5.87286 -9.68509 -11.67
O -1.33746 -8.5675 0.209678
H -1.00076 -7.96902 0.93658
H -2.17884 -9.01641 0.510497
O 1.7084 5.63341 10.1535
H 1.71588 4.63714 10.239
H 2.57697 6.00283 10.4837
O 2.12388 -10.2629 -10.5326
H 1.54477 -10.3173 -9.71918
H 1.56641 -10.0063 -11.3221
O 6.78991 -11.1075 -6.08621
H 7.20596 -10.2614 -5.75309
H 7.40597 -11.8747 -5.90766
O 0.0493818 -10.9627 6.20076
H -0.683728 -11.1105 5.53696
H 0.80221 -10.472 5.76214
O -9.35862 11.7002 -4.23391
H -9.89248 11.7589 -3.39041
H -8.91181 10.8071 -4.28409
O -7.46013 2.71207 3.12039
H -7.46602 3.59806 2.65678
H -6.84726 2.08703 2.63701
O -8.18745 -14.8711 14.8149
H -8.38756 14.5993 -14.4551
H -9.04391 -14.5897 14.3823
O -4.26292 -10.9517 -14.3567
H -3.78665 -11.1372 14.8396
H -4.88434 -11.7075 -14.1501
O -8.31636 -14.9851 6.37335
H -7.5784 14.7473 5.78103
H -8.01654 -14.1662 6.86264
O 13.0971 1.64185 7.55819
H 12.8688 1.46677 6.60051
H 12.5082 2.36754 7.91393
O 9.41809 -9.56686 -12.9187
H 9.51835 -10.3027 -12.249
H 8.66059 -9.77899 -13.536
O -12.145 4.65158 0.766715
H -11.8308 4.2268 1.61571
H -13.087 4.37115 0.582432
O 0.867748 9.74724 -0.584183
H 1.13834 10.1816 0.274919
H 1.03577 10.3763 -1.34311
O 2.84205 11.0778 -2.417
H 1.92819 11.1742 -2.81136
H 3.50195 10.8949 -3.14571
O 10.4404 6.79026 10.6386
H 9.76192 6.0917 10.8659
H 11.254 6.66168 11.2055
O -11.1803 0.47799 10.1401
H -10.9364 1.22667 9.52373
H -10.7462 0.623321 11.0291
O 11.2574 -7.50892 13.2884
H 11.3765 -8.20482 13.9965
H 10.896 -6.67254 13.7005
O 7.31906 -2.74443 -13.1588
H 8.24084 -2.39343 -13.3232
H 7.15874 -2.8116 -12.174
O -2.0281 2.68008 3.13184
H -2.58576 3.08536 2.40748
H -1.16637 3.18146 3.20907
O -11.9428 -8.08969 6.67016
H -11.3037 -7.91415 7.41887
H -12.5014 -7.27569 6.51101
O 9.09691 7.47888 4.84142
H 9.67307 7.5241 4.02538
H 8.14885 7.31128 4.57119
O 4.69003 10.1832 -0.519799
H 4.11754 10.3492 0.283081
H 4.17058 10.3917 -1.34843
O -7.29534 11.6323 -2.00276
H -7.14618 10.6489 -2.10581
H -7.09208 11.9035 -1.06197
O 8.10102 -10.9503 8.12243
H 7.22838 -10.5137 7.90361
H 8.73331 -10.8337 7.35656
O -6.72034 1.00227 -2.82633
H -5.86801 1.35286 -2.43831
H -6.5287 0.549281 -3.69697
O 8.01512 -3.72103 3.46063
H 8.09065 -4.17821 2.57451
H 8.92321 -3.43541 3.76679
O 6.45134 -4.91742 -4.15274
H 6.68494 -4.79951 -5.11786
H 7.25568 -4.72815 -3.58959
O -2.33922 5.03644 -0.694251
H -1.75933 4.81113 -1.47713
H -1.77644 5.41999 0.037945
O -3.62927 3.79416 1.36589
H -3.98285 4.49586 1.98438
H -3.32772 4.2221 0.513905
O 14.29 -0.665915 11.3937
H 14.0664 -1.42641 12.0032
H -14.7908 -0.691473 11.1726
O 13.7811 -11.7287 -0.50896
H 13.852 -12.4124 0.217294
H 13.16 -12.0601 -1.21916
O -12.8814 10.6383 -10.4239
H -13.1132 9.66756 -10.4858
H -11.9195 10.7357 -10.1686
O -12.9729 3.44471 -9.66112
H -13.0408 3.16052 -8.70479
H -13.8881 3.48863 -10.0616
O 6.79244 -0.738494 -5.55895
H 6.82597 -0.023197 -6.25692
H 7.72233 -1.03244 -5.338
O 1.12092 11.7341 14.9931
H 2.1047 11.8038 -14.8975
H 0.770305 10.8988 -14.6392
O 7.82274 -7.0992 -2.07659
H 7.98629 -7.41756 -1.14287
H 7.28343 -7.78056 -2.5714
O 11.4639 -0.374539 -9.54272
H 12.3899 -0.0229174 -9.68017
H 11.0165 0.141452 -8.81233
O 10.6433 -9.29206 1.40872
H 10.7829 -8.94548 2.33626
H 10.6668 -10.2917 1.41937
O 12.1175 9.88777 -12.3596
H 12.7999 9.66559 -13.056
H 11.8389 10.843 -12.4587
O -7.55845 12.9937 13.1
H -6.71941 13.0201 12.5566
H -8.09266 13.8215 12.9286
O -9.2531 -7.22605 5.76902
H -8.84859 -7.65123 6.57867
H -10.223 -7.46373 5.71714
O -8.91257 14.7306 -1.38497
H -8.89499 14.873 -0.395349
H -8.02432 14.9764 -1.77291
O 8.88639 9.91285 8.55422
H 9.67814 9.30474 8.61143
H 8.15953 9.57056 9.14957
O -10.3035 -10.7625 14.5707
H -11.1745 -10.3684 14.2774
H -9.78752 -11.0643 13.7691
O -3.98219 8.29838 -11.3847
H -4.18585 8.5056 -10.4279
H -3.77208 7.32515 -11.4775
O 13.7889 -12.817 -4.65358
H 13.1949 -12.4912 -5.38912
H 14.451 -12.1051 -4.41985
O 5.46231 -7.5451 -4.44191
H 5.66858 -6.58953 -4.23149
H 4.47324 -7.66016 -4.53376
O 8.30626 -14.3243 -10.8062
H 7.52101 -14.1533 -10.2111
H 7.98554 -14.645 -11.6974
O -10.9301 3.15681 2.72003
H -9.97695 3.35069 2.95214
H -11.0814 2.16841 2.73088
O -12.3218 13.5306 6.67215
H -12.7105 12.7966 7.22907
H -13.0607 14.0794 6.28119
O 3.53664 -12.6648 -14.4901
H 4.26051 -13.3522 -14.5488
H 3.94204 -11.7682 -14.312
O -0.168467 0.772918 11.7366
H 0.549142 0.0936348 11.5831
H -1.00777 0.480409 11.2784
O 1.30982 -7.49221 -12.7112
H 0.919785 -8.36097 -13.0163
H 0.859297 -6.73837 -13.1894
O -3.00508 14.4706 4.04998
H -2.73396 -14.7245 3.61897
H -2.21012 13.868 4.12023
O -10.8507 -4.48861 -6.02205
H -10.6438 -3.62403 -5.56421
H -10.2171 -4.62225 -6.78402
O 10.7835 9.78801 11.0181
H 10.1334 9.73823 11.7762
H 11.0804 8.86526 10.7725
O 10.5291 3.75193 10.1949
H 10.5937 2.75575 10.2532
H 11.3686 4.1618 10.5515
O -9.69152 7.95559 4.92158
H -9.75182 8.56124 5.71498
H -9.92095 7.022 5.19673
O -13.1904 -1.32197 10.5932
H -12.9441 -2.2873 10.6795
H -12.3839 -0.79497 10.3252
O -9.62532 4.74538 -1.02118
H -10.4235 4.60851 -0.434592
H -9.51965 3.95854 -1.62917
O 12.2124 5.26731 -12.0616
H 11.7938 6.13535 -11.7947
H 12.7451 5.39737 -12.8978
O 11.1181 10.8369 -2.40695
H 10.2153 10.9637 -1.99609
H 11.086 11.1023 -3.37054
O -11.5982 -14.5514 -2.44324
H -12.0817 14.8744 -3.051
H -10.7445 -14.9727 -2.13725
O -14.9786 -2.414 1.19344
H 14.6825 -3.23706 1.60184
H 14.3682 -1.91773 0.692451
O -5.72412 -5.23661 4.18578
H -6.30499 -4.97566 4.95677
H -6.22212 -5.8688 3.59227
O 8.58048 6.42566 -12.4885
H 9.35151 6.98618 -12.1864
H 7.757 6.69459 -11.989
O -6.33516 6.66198 -8.13681
H -6.41567 5.66748 -8.20336
H -6.83389 7.088 -8.8916
O -7.99939 1.11324 -12.5001
H -7.10338 1.15897 -12.9417
H -8.05873 0.278879 -11.9522
O -12.2835 -11.9327 -3.25357
H -12.098 -12.8078 -2.80659
H -13.006 -12.0528 -3.93436
O -1.12696 -8.82836 13.8262
H -0.420602 -8.16414 13.5817
H -1.69049 -9.02616 13.0242
O 7.51583 -5.42522 1.17649
H 6.54254 -5.21451 1.26727
H 7.62974 -6.40142 0.992115
O -1.38428 2.64582 -6.44104
H -1.83842 2.77126 -5.55902
H -1.00007 1.7239 -6.48996
O 5.06042 -4.57852 11.8718
H 4.47202 -4.86557 11.1159
H 4.4953 -4.23972 12.624
O 5.48004 -1.81973 -14.817
H 5.88359 -1.25123 14.5219
H 6.19524 -2.11481 -14.1835
O 6.16392 10.1625 4.90738
H 6.31884 9.24705 4.53596
H 7.03683 10.559 5.19147
O -2.19789 -2.4082 -2.54073
H -2.31699 -1.43553 -2.73989
H -2.45708 -2.94674 -3.34244
O 0.050028 6.66293 -13.644
H 0.944111 6.99766 -13.3465
H -0.0270305 5.68794 -13.4357
O -3.99634 5.8634 11.3792
H -4.96057 6.12827 11.3722
H -3.89 4.98011 10.9227
O 3.87377 -11.841 11.5379
H 3.65904 -10.8644 11.5443
H 4.6475 -12.0161 12.1467
O -13.497 -12.3011 -5.77176
H -12.555 -12.4036 -6.09133
H -13.8968 -11.4765 -6.17186
O -5.46045 8.62213 -3.12493
H -4.87812 9.4033 -3.34988
H -5.60718 8.06876 -3.94479
O -0.236417 1.22798 14.664
H 0.142652 0.580529 -14.7306
H -0.0211516 0.921921 13.7367
O 1.19274 -11.313 13.1755
H 1.40884 -10.8497 12.316
H 0.629877 -10.7137 13.7447
O -2.94091 -7.96842 -11.6479
H -2.54441 -8.80999 -11.2812
H -2.85669 -7.96691 -12.6443
O -3.56922 3.25695 10.3275
H -4.5603 3.12853 10.2928
H -3.22795 2.97596 11.2245
O -2.15854 7.66469 12.5061
H -2.81311 6.93786 12.2983
H -1.23113 7.34213 12.3169
O 5.69188 9.49488 -12.1989
H 6.08954 8.90009 -11.5003
H 6.31581 9.55753 -12.9778
O -9.57009 -11.6667 -3.4119
H -10.5571 -11.8152 -3.35145
H -9.12673 -12.5017 -3.73758
O -14.9743 12.4402 -10.73
H -14.1597 11.9067 -10.5026
H 14.9567 12.4515 -11.7221
O -4.46022 2.87156 -2.07
H -4.83132 3.77783 -1.8678
H -4.34064 2.36258 -1.21761
O 2.63857 -2.0757 -6.22343
H 3.16424 -2.9235 -6.293
H 2.68964 -1.72772 -5.28735
O 4.91271 -10.771 -0.106496
H 4.70316 -10.078 -0.796295
H 5.08013 -11.6485 -0.55575
O 13.9262 12.5781 1.07984
H 14.6735 13.2179 1.25916
H 14.0722 12.1344 0.195629
O -1.77806 -4.42617 -9.35864
H -1.58729 -5.21384 -8.77288
H -0.917103 -3.99429 -9.62728
O -0.987083 -11.7806 8.45994
H -0.417122 -12.5225 8.81304
H -0.664381 -11.5159 7.55124
O -1.99935 6.5514 7.04538
H -2.77853 6.13928 7.51757
H -1.29514 6.79341 7.71281
O 6.92518 -13.637 -0.218466
H 7.00361 -12.9636 0.516614
H 7.35598 -14.4932 0.0665202
O -11.204 4.92074 -10.7023
H -11.9248 4.46651 -10.1789
H -10.6334 5.46143 -10.0842
O -9.14801 -5.32802 8.9593
H -8.52408 -6.08075 9.16917
H -8.632 -4.47336 8.90253
O -7.69989 5.52151 2.56733
H -7.418 5.12377 1.69424
H -8.25571 6.33551 2.39879
O -5.33825 -7.52099 12.6935
H -5.14224 -8.50106 12.6622
H -4.9742 -7.13518 13.5412
O -11.2944 11.0934 9.75703
H -11.4577 10.1266 9.9534
H -10.4153 11.3687 10.1461
O 8.02254 -0.0156114 2.82585
H 8.6319 -0.726597 2.47497
H 8.38029 0.332069 3.6925
O 4.2343 -13.4776 1.47264
H 4.0091 -13.5882 2.44062
H 4.08004 -12.5277 1.20095
O -6.00824 -1.10206 12.3885
H -5.01355 -1.10349 12.4911
H -6.30043 -0.235119 11.9848
O -6.19029 -9.99821 9.94498
H -6.58913 -10.0708 9.03087
H -5.34896 -10.5372 9.9853
O 0.970974 -5.24094 0.534223
H 1.71427 -4.90396 1.11205
H 0.268387 -5.6628 1.10723
O 12.2964 -2.56263 -5.89544
H 12.0826 -2.78812 -4.94498
H 11.4829 -2.69759 -6.4611
O 9.03038 3.8081 -7.34517
H 8.36614 3.60155 -8.06354
H 9.95651 3.70269 -7.70725
O -3.47751 4.83798 14.8006
H -2.79378 4.45755 14.1779
H -3.19016 5.74961 -14.9613
O 5.96685 -6.28225 -9.90522
H 5.38709 -6.50363 -10.6893
H 5.80602 -6.94518 -9.17406
O -1.44353 -9.89033 -10.4871
H -1.06275 -9.16419 -9.91473
H -1.69266 -10.6707 -9.91369
O 10.0203 13.0306 -10.6601
H 10.0659 14.0177 -10.5067
H 10.6689 12.7743 -11.3766
O -13.2678 6.87602 -11.6926
H -14.1445 6.44472 -11.4797
H -12.5282 6.35662 -11.2646
O -13.4823 1.86148 13.8848
H -13.4798 0.929096 14.2462
H -12.5691 2.25789 13.9791
O 13.7318 -10.9181 -11.9058
H 13.4853 -10.1275 -11.3454
H 12.9193 -11.2567 -12.3802
O 9.34573 9.94709 -11.581
H 9.77969 10.5343 -10.8977
H 9.4183 8.99193 -11.294
O 11.37 -7.95995 -0.757445
H 11.2545 -8.49653 0.0784177
H 11.1582 -8.52988 -1.55133
O 2.86787 -6.6823 14.4258
H 3.2811 -7.59284 14.4156
H 3.23461 -6.15845 -14.8612
O 10.7437 -8.14514 4.13897
H 11.5927 -7.7396 4.4775
H 10.2766 -8.6146 4.88823
O 11.807 -13.3883 4.70375
H 12.3292 -12.6506 4.27576
H 12.0774 -14.2638 4.30344
O 14.1593 1.86153 12.5913
H -14.9438 1.92295 12.889
H 13.9985 0.968856 12.1703
O 13.7134 8.94789 6.26141
H 13.0364 9.53205 6.70911
H 13.5477 8.94115 5.27528
O 1.28766 -5.96674 -8.33875
H 0.958993 -5.32342 -7.64735
H 2.01843 -6.52838 -7.95085
O -11.0582 -10.5924 3.0415
H -10.3161 -10.0673 2.62497
H -10.7999 -11.5574 3.08515
O -7.69895 2.70987 7.42297
H -7.94351 3.38906 6.73099
H -7.83035 1.79154 7.0497
O -0.607167 9.94605 -4.9474
H -1.38153 9.53059 -4.47023
H -0.925185 10.7319 -5.47779
O 12.1699 10.6729 7.85068
H 11.8802 11.5068 8.32043
H 11.4582 9.97604 7.93935
O 0.35349 -4.88047 -4.53734
H 0.553804 -4.26619 -5.30055
H 0.372161 -4.36487 -3.68075
O 0.12563 -8.37959 -8.74576
H -0.121698 -8.62592 -7.8087
H 0.371532 -7.41101 -8.78192
O -6.05447 13.1452 -3.8381
H -6.36084 12.3864 -3.26338
H -5.3033 13.6247 -3.3845
O -10.5607 -1.42244 -9.91867
H -10.7444 -0.533762 -10.3387
H -11.426 -1.883 -9.72098
O 2.04018 6.25242 -10.1594
H 1.86377 6.49359 -9.20514
H 1.76666 5.30402 -10.3196
O -0.931503 6.64764 -6.45451
H -0.708377 6.80212 -5.49207
H -0.21452 6.09413 -6.87819
O 5.76912 7.44538 -0.744879
H 5.31568 8.33632 -0.768229
H 5.28856 6.84342 -0.107195
O -12.0618 -12.4429 7.68087
H -12.1845 -11.7236 6.9971
H -11.3619 -12.1624 8.33774
O 0.255888 0.204296 -7.10788
H 0.73943 0.283564 -7.97956
H -0.467219 -0.481609 -7.18902
O -12.6782 -10.4662 -9.22012
H -12.04 -11.231 -9.13226
H -12.1652 -9.61278 -9.31114
O -12.0082 -9.86 -5.90724
H -12.2615 -10.1031 -4.97095
H -11.3566 -10.5309 -6.26114
O 6.43653 -9.76772 2.08678
H 5.79932 -10.2121 1.45714
H 7.2736 -10.3108 2.15225
O -12.4988 -10.5664 6.01149
H -12.1271 -9.64392 6.11562
H -13.1469 -10.5806 5.25015
O -8.79239 6.41814 13.1298
H -9.12251 6.80978 12.271
H -9.54363 6.37858 13.7886
O 2.20323 -14.7121 13.4939
H 1.85135 14.9654 14.3501
H 2.59347 -13.8074 13.6646
O 2.94363 -3.48328 -2.37086
H 2.10108 -3.76505 -1.9119
H 2.89455 -2.50856 -2.58871
O 8.7125 3.24884 0.0802288
H 9.64035 3.14823 0.439256
H 8.64943 4.09568 -0.4478
O -4.16077 -8.36211 -2.47972
H -5.11601 -8.06881 -2.51765
H -4.09413 -9.21434 -1.96089
O 3.01023 -0.405729 14.9328
H 3.94159 -0.73946 14.7875
H 2.3698 -1.17199 14.8815
O 5.00288 -14.1272 8.44571
H 5.32494 -13.1829 8.513
H 5.69883 -14.7437 8.81375
O -7.62088 -11.2578 -12.698
H -8.26074 -10.5035 -12.8448
H -7.34353 -11.6363 -13.5811
O -8.7393 13.7318 2.39315
H -9.54952 13.7826 1.80928
H -8.82679 12.956 3.01792
O 2.41657 7.79339 -12.3391
H 2.44746 7.15515 -11.5699
H 2.39365 8.73135 -11.9932
O -3.76729 -1.53096 -9.08168
H -4.01735 -2.41679 -9.47244
H -4.2692 -0.805387 -9.55239
O -14.5913 3.2248 7.44448
H 14.8115 2.48005 7.30684
H -13.7221 2.99075 7.009
O 8.31699 -0.562914 11.4052
H 8.21143 -1.28185 10.7183
H 9.2862 -0.338789 11.5069
O -5.95318 14.6316 -9.55816
H -6.03533 -14.6177 -8.97266
H -5.57323 14.8997 -10.4434
O -13.1982 13.5417 -3.61208
H -14.0433 14.0735 -3.55892
H -12.9337 13.4311 -4.57006
O -3.78572 14.9094 8.38293
H -3.83063 14.7284 7.4005
H -3.06897 14.3456 8.79328
O -10.1246 10.6385 12.8292
H -9.99215 11.2705 12.0656
H -9.27613 10.1369 12.9977
O 1.02952 -10.9505 -1.80772
H 1.08362 -9.95775 -1.70065
H 1.75997 -11.2604 -2.41628
O 10.4633 -2.79469 -0.320231
H 9.51251 -2.80318 -0.0105686
H 10.8501 -3.71281 -0.234209
O -10.1445 2.14185 8.43317
H -10.5233 2.62512 7.64392
H -9.15191 2.07048 8.3354
O -1.03824 14.528 -9.7738
H -0.906119 13.7272 -10.3579
H -0.188424 14.7291 -9.28665
O 8.7528 -6.83406 -12.9614
H 9.24147 -7.70176 -13.0521
H 9.39527 -6.07625 -13.075
O 5.14882 -12.9089 -2.00065
H 5.84221 -13.137 -1.3172
H 4.90865 -13.7298 -2.51865
O -7.1011 -10.0992 7.2731
H -7.7719 -10.5676 6.69815
H -6.29556 -9.87039 6.72658
O 6.23365 2.09769 -14.3731
H 6.9381 2.65458 -14.8131
H 5.33613 2.34755 -14.7364
O 0.58519 -6.7366 12.9844
H 1.42283 -6.68286 13.5279
H 0.424838 -5.85956 12.5316
O -1.30811 -5.44109 9.56683
H -2.17386 -5.54573 9.07747
H -0.650863 -6.11487 9.22923
O -13.6418 -11.908 -11.6148
H -13.1365 -11.741 -10.7682
H -14.3932 -11.2525 -11.6893
O -1.09948 3.35307 9.11806
H -1.2804 4.12257 8.50564
H -1.92239 3.14818 9.64795
O -0.0735927 11.5613 -2.89095
H -0.904229 11.9224 -2.46714
H -0.320041 10.8785 -3.57872
O 3.20478 13.384 11.8976
H 2.98146 13.4722 10.9269
H 3.09227 14.27 12.3473
O 3.75625 2.79047 4.56751
H 3.81492 1.81197 4.36996
H 3.41559 2.92273 5.49831
O -11.6796 7.41588 0.9642
H -12.2866 8.17452 0.727455
H -12.0991 6.55303 0.68222
O 2.51516 -10.7108 8.13256
H 2.35718 -9.85937 8.6326
H 2.21128 -10.6028 7.18604
O 12.8047 8.59186 -6.36088
H 12.6689 8.18266 -5.45863
H 12.4952 9.54262 -6.34565
O -5.62525 -2.25271 -6.9781
H -5.11197 -1.90621 -7.76322
H -6.55444 -2.48651 -7.26425
O -7.71497 -3.96737 -12.561
H -7.20615 -3.68833 -13.3754
H -7.74434 -4.96571 -12.5122
O -13.43 2.67764 -6.94454
H -13.1036 1.73462 -7.00834
H -12.9582 3.14376 -6.19615
O -1.52669 -1.84194 -7.01654
H -2.28021 -1.78921 -7.6718
H -1.86065 -2.22322 -6.15455
O 7.34741 2.83703 2.34923
H 7.34786 1.95877 2.82733
H 7.6362 2.70081 1.40161
O -7.19864 -14.0838 2.84033
H -7.63482 -14.9516 3.0782
H -6.36546 -14.262 2.31689
O -0.623356 3.87471 -12.0298
H -1.19271 3.27169 -12.5885
H -1.19605 4.34814 -11.3606
O -0.404654 11.0779 12.6528
H 0.0289697 10.3978 12.0617
H 0.162775 11.2257 13.4628
O 13.0517 9.29308 3.31464
H 12.9748 10.273 3.49826
H 13.5651 9.15187 2.46819
O -5.64633 -1.08563 6.81766
H -5.32056 -0.441381 7.50958
H -4.9216 -1.25112 6.14885
O -3.56612 4.41071 7.84819
H -3.82184 3.7547 7.13812
H -3.48312 3.93728 8.72507
O 12.3894 9.03933 -0.294801
H 11.7345 8.43377 0.157151
H 11.9896 9.95087 -0.390383
O -13.2784 5.03969 8.91294
H -13.2268 5.83805 8.31303
H -13.9161 4.37324 8.52674
O 14.3863 3.25671 -11.0716
H 14.3192 3.16893 -12.0654
H 13.584 2.8391 -10.6451
O 3.02047 -6.5852 -10.7691
H 2.51893 -6.68589 -9.90988
H 2.39532 -6.72039 -11.5378
O 10.7129 -1.84998 13.1651
H 10.2678 -2.67887 12.8263
H 11.6118 -2.08236 13.5366
O 4.08534 12.3031 4.90357
H 3.22646 12.0354 5.34014
H 4.70753 11.5205 4.88428
O 8.47522 -0.981123 14.6846
H 9.29359 -0.977367 14.11
H 8.07492 -0.0649126 14.7005
O -6.74756 7.34352 9.32298
H -6.22903 6.85803 8.61917
H -6.16004 7.50941 10.115
O -2.15785 -6.43498 -7.49375
H -2.0042 -6.64541 -6.52832
H -2.86298 -7.04259 -7.85919
O 14.3297 11.5526 -4.98948
H 13.4552 11.4523 -5.46389
H 14.4842 12.5171 -4.77556
O 9.08551 -13.8532 5.64858
H 9.26097 -14.5994 6.29066
H 9.93371 -13.6135 5.17631
O -14.1923 1.97055 4.55756
H 14.8853 1.82276 4.4112
H -13.794 1.16156 4.98976
O -4.83718 -4.65142 -6.13648
H -5.01677 -3.74127 -6.50972
H -4.97443 -5.33762 -6.85078
O -2.5572 14.5523 -12.3523
H -2.6203 13.5544 -12.3383
H -1.8179 14.8481 -11.7474
O -9.82555 -13.0458 3.28725
H -10.1162 -13.4992 4.12979
H -8.99598 -13.4844 2.94177
O 8.8548 -2.23658 -9.48403
H 8.91914 -1.26221 -9.69944
H 9.56102 -2.73616 -9.98564
O 10.5583 -14.6454 -13.7016
H 11.4329 -14.9342 -14.0908
H 9.89288 14.6693 -13.7906
O 4.74413 -8.43216 -1.488
H 4.79868 -7.47327 -1.76637
H 5.45533 -8.95621 -1.95651
O 3.79811 3.29645 14.4027
H 2.82963 3.37214 14.6398
H 3.95751 3.72272 13.5123
O 7.99303 0.62877 8.35015
H 8.63588 -0.12102 8.50665
H 7.23959 0.307565 7.77649
O 6.75719 -3.45813 -10.615
H 6.57383 -4.35605 -10.2149
H 7.50592 -3.01874 -10.1187
O -7.76176 10.9917 5.56131
H -7.5159 10.443 6.36032
H -8.60511 11.495 5.74933
O -8.8564 2.68467 -2.33822
H -7.97558 2.21261 -2.37365
H -9.46784 2.30178 -3.03066
O -6.90597 -10.293 -4.13297
H -6.78623 -10.7211 -3.23725
H -7.76774 -10.6001 -4.53666
O 9.98469 -6.34018 -6.1406
H 9.03375 -6.44829 -6.43035
H 10.2223 -5.36888 -6.13248
O -7.49136 -2.52683 -3.28344
H -7.81033 -2.11272 -2.43097
H -7.22901 -3.47691 -3.11472
O 13.9036 -2.17139 13.7142
H 14.4063 -1.78144 14.4857
H 14.0497 -3.16025 13.6868
O 1.10402 -13.7751 -8.58521
H 1.1386 -12.9076 -8.08892
H 1.50391 -13.6554 -9.49388
O -2.65413 -1.26144 10.2675
H -2.01048 -0.719579 9.72705
H -2.76033 -2.16477 9.85194
O 4.37587 11.3266 13.5383
H 3.93299 12.0608 13.0238
H 4.50556 11.6155 14.4868
O 6.02415 9.24851 -6.59733
H 6.41957 8.44302 -6.15601
H 5.55303 8.9721 -7.43493
O -8.19339 -0.319496 14.686
H -7.23442 -0.602842 14.6905
H -8.36201 0.298312 -14.6017
O -7.21403 4.40318 0.133922
H -8.13077 4.3904 -0.265284
H -6.5421 4.59838 -0.580461
O -9.37823 4.81777 -7.70682
H -9.14624 5.7024 -8.11122
H -9.01257 4.77002 -6.77734
O 2.50983 -13.4626 -10.7863
H 2.32218 -13.2083 -11.735
H 3.13051 -12.7931 -10.3783
O -4.70563 14.6875 1.82259
H -3.86725 14.9288 1.33386
H -4.49768 14.543 2.78995
O -11.9727 -12.9816 -9.4489
H -11.0947 -13.1645 -9.89106
H -12.5622 -13.7849 -9.53335
O -1.15763 11.2211 6.77307
H -0.538215 10.4481 6.90991
H -1.55661 11.4879 7.65034
O 2.77349 14.4175 9.51359
H 3.6381 14.7495 9.13658
H 2.0717 -14.9336 9.4087
O 4.19646 14.3942 -3.35706
H 4.62995 13.5215 -3.1324
H 3.21288 14.2573 -3.47442
O 0.0941395 10.2201 -9.57204
H -0.0103495 9.41086 -10.1501
H -0.691528 10.2947 -8.95796
O -14.0466 -6.19112 -1.87426
H -14.639 -5.38848 -1.80527
H -13.6094 -6.20637 -2.77344
O 12.9198 8.17378 13.2103
H 13.494 7.83499 12.465
H 12.6964 9.13493 13.0484
O -14.513 -6.44816 -13.7427
H -14.964 -7.30284 -13.9997
H -13.5748 -6.4492 -14.0887
O 7.78602 -2.94911 0.000734707
H 6.9913 -2.72056 -0.5615
H 7.67721 -3.87096 0.372609
O -6.74016 3.34881 -11.0764
H -7.17368 3.47715 -10.1845
H -6.97814 2.44657 -11.436
O 9.04284 13.0664 -13.8354
H 8.41161 12.4706 -13.3389
H 9.60366 12.5161 -14.4539
O -3.21364 -1.38436 5.52221
H -3.12906 -2.30915 5.15132
H -3.35751 -0.736975 4.77379
O -1.36123 -12.8693 -1.45686
H -1.19721 -13.7038 -1.98277
H -0.622012 -12.2176 -1.62664
O 11.2744 -14.9885 -1.34697
H 10.9253 -14.217 -1.87872
H 12.2662 15.0066 -1.45915
O 9.14462 6.70626 14.9615
H 8.33794 6.33823 14.4992
H 9.1188 6.45346 -14.1271
O -13.0888 -4.15187 11.1435
H -12.8323 -4.57516 10.2746
H -13.8048 -4.6959 11.5808
O 3.84326 -7.5554 6.86667
H 4.57041 -6.8754 6.96047
H 3.94175 -8.03022 5.99215
O -13.6929 10.2075 6.20886
H -13.5342 10.4867 5.26184
H -14.6461 9.92597 6.31811
O -14.9617 -11.6511 11.8202
H -14.1391 -11.9222 11.3203
H -14.8198 -11.7966 12.7993
O 4.4275 14.9901 5.58222
H 4.58156 -15.0114 6.56876
H 4.05749 14.0902 5.35157
O 2.00249 1.04492 -5.145
H 2.81471 1.43804 -5.57592
H 1.43481 0.606343 -5.84166
O -8.37648 -2.89744 -7.19222
H -8.76027 -2.14153 -7.72254
H -8.61037 -3.76499 -7.63107
O 14.1184 -4.79394 2.41629
H 14.2219 -5.66619 1.93836
H 13.1466 -4.57546 2.5046
O 14.0637 -2.5523 -7.93744
H 13.5225 -3.07218 -7.27661
H 14.0731 -1.58742 -7.67505
O -11.6081 2.76709 5.86954
H -10.9024 2.20628 5.43675
H -12.4467 2.72519 5.32642
O 2.12579 6.50062 5.28321
H 2.47921 7.28977 5.78549
H 2.84502 6.13029 4.69543
O 4.76323 -8.40779 11.8514
H 5.10163 -7.67523 12.4419
H 3.76353 -8.41785 11.8723
O -6.57577 -5.38018 -3.98893
H -5.95621 -5.03066 -4.69173
H -7.15918 -6.09066 -4.38235
O 1.23131 0.423408 -9.78812
H 1.92217 0.237074 -10.4866
H 0.323469 0.417596 -10.2073
O -4.60023 1.22066 4.05548
H -3.65196 1.43142 3.81823
H -4.97542 0.576781 3.3887
O -10.29 10.6128 -9.15687
H -9.68784 11.3676 -8.89657
H -10.2629 9.90589 -8.45017
O -10.7421 5.51943 -14.9726
H -10.5549 4.90722 -14.2044
H -10.677 6.46889 -14.6656
O -2.22745 -14.3778 0.714059
H -1.74668 14.8018 0.746208
H -1.8941 -13.843 -0.0623493
O 13.453 -7.76709 8.50955
H 12.4587 -7.82772 8.423
H 13.8552 -8.67255 8.37418
O 12.8352 -11.4234 -6.88703
H 13.4716 -11.4332 -7.65827
H 12.4211 -10.5167 -6.80811
O 12.461 12.6816 -8.93347
H 12.3723 13.6774 -8.91222
H 13.3801 12.4353 -9.24122
O -1.53879 -11.8231 -7.75282
H -1.78111 -12.7932 -7.75922
H -0.558975 -11.7254 -7.57856
O -5.86505 -14.2324 9.92387
H -5.14055 -14.3485 9.24448
H -5.47713 -14.3134 10.842
O -7.88032 -4.85185 5.75237
H -8.36336 -5.71437 5.60182
H -8.53118 -4.0938 5.71149
O 10.8961 10.3434 -8.96459
H 11.3378 10.0662 -8.11136
H 11.3256 11.1795 -9.30588
O 0.319477 3.81895 -14.5711
H 0.0733691 3.86662 -13.6031
H 0.120094 2.90366 -14.921
O -10.1435 11.6304 -1.31194
H -9.90888 10.8033 -0.801221
H -9.34709 12.2338 -1.35319
O 5.5652 14.9631 -9.57039
H 5.58113 14.6419 -10.5172
H 5.57815 14.1776 -8.95169
O 13.6945 -5.81946 -4.03357
H 14.3955 -5.25063 -4.46365
H 13.4127 -6.53846 -4.66884
O -9.26243 2.2859 -8.82678
H -8.98569 1.83187 -7.97991
H -9.34001 3.27003 -8.66737
O -11.0148 -14.4472 13.8753
H -11.4191 14.7098 14.0449
H -11.1544 -13.8627 14.6746
O 1.50337 13.1275 2.77296
H 2.03189 13.969 2.8844
H 0.844114 13.0465 3.52045
O 2.69168 10.9086 -8.84522
H 1.71152 10.7959 -9.00804
H 2.83197 11.515 -8.06255
O -7.9805 5.05361 5.37593
H -8.93205 5.34172 5.48306
H -7.69023 5.20672 4.43135
O 10.0567 -1.25934 8.89393
H 10.8975 -1.63806 8.50715
H 9.48124 -2.00341 9.23317
O 1.71829 -2.1627 13.0838
H 2.38715 -2.78019 13.4977
H 2.08012 -1.8091 12.2213
O 12.5265 14.6135 14.4738
H 12.6823 14.5264 13.4899
H 13.3978 14.5327 14.9577
O -9.42926 0.672963 12.179
H -9.01031 1.53041 12.4777
H -9.36699 -0.00218225 12.914
O -8.22406 -2.06993 4.07897
H -8.42023 -2.74731 3.37003
H -8.7673 -2.2731 4.89355
O 14.2568 -1.18695 3.51067
H 14.6895 -1.38055 2.63022
H 14.5047 -1.89892 4.16761
O 13.9635 8.97035 -9.8319
H 14.4729 9.03489 -10.69
H 12.9824 8.98562 -10.0247
O -9.06496 5.12192 -4.37541
H -9.35299 6.02678 -4.06205
H -8.7821 4.57158 -3.58988
O 4.71369 6.08793 -3.11302
H 4.55645 5.10627 -3.00554
H 5.21089 6.43487 -2.3178
O -12.8949 -5.56429 3.34833
H -13.8516 -5.39154 3.11423
H -12.5903 -6.40739 2.90519
O -12.3576 3.66587 -4.65793
H -11.8474 4.51838 -4.54432
H -13.2144 3.71929 -4.14513
O 2.00821 -8.22016 8.82328
H 1.06538 -8.22771 8.4902
H 2.62311 -7.9638 8.07755
O -9.32449 10.9605 3.2753
H -9.35475 10.1784 2.65285
H -8.74429 10.7401 4.05936
O -1.66988 -14.6653 -3.6435
H -2.00651 -13.9569 -4.26385
H -0.852862 14.9662 -4.03397
O -14.2906 3.35775 -2.65328
H -14.2278 2.3675 -2.77735
H -14.0177 3.59481 -1.72093
O -5.22621 -12.385 6.27357
H -5.31638 -11.5599 5.71595
H -5.03721 -13.1684 5.6815
O 0.355254 -0.718599 -13.4288
H 0.812952 -1.54916 -13.1116
H -0.224027 -0.357466 -12.698
O -6.27258 -14.2086 -1.51819
H -5.56769 -14.5185 -0.880219
H -6.04804 -14.5219 -2.44089
O 0.213671 12.4908 -11.3801
H 0.283576 11.6178 -10.8975
H 1.02347 12.6213 -11.952
O 10.79 -11.1809 13.9763
H 9.99816 -11.5364 14.4728
H 10.5112 -10.9079 13.0557
O -6.31676 -11.3846 -1.54394
H -6.52115 -12.3635 -1.53872
H -7.12651 -10.8735 -1.25584
O -0.357046 -5.43647 -13.7247
H -0.858906 -5.42016 -14.5894
H -0.960642 -5.14294 -12.9834
O -7.09687 -7.24762 -2.14753
H -8.03481 -7.02929 -2.41685
H -6.48535 -6.5147 -2.44555
O 8.84702 10.6896 -4.68079
H 8.18582 11.3927 -4.4192
H 9.02392 10.7475 -5.66329
O -9.07378 -9.10926 1.4885
H -9.09334 -8.22162 1.94856
H -9.16659 -8.97543 0.501882
O 11.7491 12.8457 9.50882
H 11.1019 13.3247 10.1018
H 12.5949 12.6694 10.0123
O 11.2769 13.1764 0.762086
H 11.1581 13.6637 -0.102975
H 12.1873 12.7637 0.789838
O 5.55552 -8.35395 4.38546
H 5.5487 -8.60988 3.41882
H 5.69162 -7.36672 4.4679
O 11.296 -3.91754 -3.77694
H 11.9185 -4.70008 -3.78105
H 10.4342 -4.17949 -3.34262
O 14.6655 -10.689 -3.08979
H -14.9936 -11.0201 -2.23366
H 14.301 -9.76777 -2.95392
O -7.00983 9.82225 -11.9107
H -6.52635 9.88098 -12.784
H -6.4375 10.2067 -11.1864
O 1.44307 -3.27377 -13.45
H 2.36811 -3.64497 -13.3697
H 0.810421 -4.00664 -13.7002
O -2.50366 -3.70247 -4.8838
H -3.21514 -3.99081 -5.52458
H -1.86372 -4.45631 -4.73499
O -13.9948 12.7305 -13.4314
H -13.3867 11.939 -13.3716
H -14.767 12.5133 -14.0284
O -2.55527 -6.06114 -1.41666
H -1.6734 -6.44931 -1.14917
H -3.2669 -6.758 -1.32778
O -14.7143 9.49594 -7.58784
H 14.8574 9.37636 -6.72101
H 14.686 9.46544 -8.34247
O 11.7307 -8.89171 -6.28183
H 11.0413 -8.16778 -6.25684
H 12.5619 -8.54553 -6.71672
O 0.394124 -7.61554 -3.73003
H 0.050844 -6.76166 -4.12115
H 0.368059 -7.5592 -2.73199
O -0.198139 -4.16752 4.49057
H -1.13602 -4.18667 4.8369
H 0.370751 -4.78414 5.0347
O -10.113 3.91452 -13.0427
H -10.4999 4.22205 -12.1735
H -10.4277 2.98556 -13.2376
O 4.57477 10.6325 -4.51302
H 4.90551 10.1599 -5.32978
H 5.31796 11.1706 -4.11542
O 11.4547 3.42735 -10.3733
H 11.7937 4.04466 -11.0832
H 10.4699 3.55868 -10.2598
O -9.57002 -11.3175 11.3381
H -9.29255 -11.8641 10.548
H -9.42493 -10.3481 11.1403
O -8.56575 12.6556 -8.24864
H -8.06784 13.3529 -8.76419
H -9.12523 13.0962 -7.54663
O -2.84682 12.175 12.8763
H -2.82511 12.9001 13.5647
H -1.91914 11.8361 12.7199
O 4.52363 -12.5446 -9.39561
H 4.3124 -12.1254 -8.51265
H 4.90594 -13.4568 -9.24856
O -9.35844 -13.3223 -11.3452
H -9.24205 -14.3034 -11.4994
H -8.5983 -12.8264 -11.765
O -8.3564 0.487063 -6.70462
H -7.81624 -0.0369698 -6.04617
H -9.31946 0.22979 -6.62551
O 12.0235 -13.9707 7.67063
H 12.2293 -13.1468 7.14264
H 11.8673 -13.7234 8.62685
O -14.0222 0.653385 -10.2113
H -14.3638 1.39074 -10.794
H -13.0231 0.686054 -10.1837
O 9.09903 13.9932 -3.44573
H 8.23476 13.736 -3.87795
H 8.98051 14.8532 -2.94938
O -6.0702 -12.0614 -10.5056
H -5.48785 -12.7182 -10.9846
H -6.64397 -11.5797 -11.1679
O -9.6237 7.75918 -13.6067
H -9.76853 8.33135 -12.7995
H -8.77806 7.23677 -13.4976
O 2.78967 10.6491 1.35333
H 3.05685 10.1073 2.15023
H 2.21826 11.4152 1.64747
O 12.7129 -0.589608 -12.0746
H 12.0408 -0.731686 -11.3479
H 12.3604 0.0800133 -12.7283
O 14.0366 9.19945 -14.1743
H 13.666 8.57423 -14.8611
H 14.9051 8.84132 -13.8317
O 8.70288 -13.1663 -2.58457
H 8.23881 -13.492 -1.76085
H 9.10635 -12.2688 -2.40701
O 7.96713 -13.795 -13.906
H 7.86065 -12.8133 -14.0637
H 8.85979 -13.971 -13.4912
O 7.55711 14.6007 -5.89292
H 7.99793 -14.5866 -5.66603
H 7.86448 14.2965 -6.79453
O 14.1846 -14.1949 -12.9823
H -14.9004 -14.1728 -13.2216
H 13.9812 -13.4508 -12.346
O 6.93428 9.30683 10.652
H 6.95612 9.9084 11.4505
H 6.95709 8.35331 10.9523
O -5.4645 1.52571 -13.1719
H -4.79687 1.31547 -13.886
H -4.99283 1.6382 -12.2974
O -13.8748 5.65924 11.4059
H -13.1282 5.58323 12.0668
H -13.5663 5.32664 10.5148
O -13.9971 -14.037 3.69469
H -14.2862 -14.2665 4.62405
H -13.8147 -13.0556 3.63519
O 8.95905 -7.79206 11.9749
H 9.71202 -7.48773 12.5583
H 9.23747 -8.60949 11.4707
O 2.21771 -8.79905 11.3806
H 2.15929 -8.59396 10.4036
H 1.49382 -8.31042 11.8676
O 6.13619 -0.37093 6.61497
H 5.17628 -0.182593 6.4075
H 6.35491 -1.31157 6.35556
O -14.6919 14.993 6.20597
H 14.5373 14.4307 6.18069
H -14.7634 -14.3985 6.95002
O 8.94604 8.41505 -9.01698
H 9.20722 7.48283 -8.76658
H 9.76079 8.9943 -9.04133
O 14.5889 7.92376 -1.20279
H 13.6744 8.24816 -0.961144
H 14.7689 8.12147 -2.16636
O -4.00511 9.61002 13.1497
H -3.29175 8.97525 12.8528
H -3.61141 10.5213 13.2698
O -9.38097 6.9797 -9.20502
H -8.93976 7.13072 -10.0896
H -9.5297 7.85884 -8.75234
O -11.4058 -3.40377 2.80638
H -12.052 -4.1258 3.05342
H -11.7297 -2.93304 1.98576
O -13.0453 -3.09803 -3.56276
H -13.9315 -3.42636 -3.23603
H -12.35 -3.79812 -3.4004
O 5.87498 -2.39672 -1.81221
H 5.9796 -1.45191 -2.12256
H 5.44063 -2.93789 -2.53222
O 3.95864 1.4754 9.40591
H 3.665 1.94867 10.2364
H 4.95034 1.55829 9.30799
O -1.54732 -0.134193 -4.35191
H -0.775154 -0.39569 -4.93098
H -1.8897 0.760985 -4.63715
O -12.8421 0.93723 1.13783
H -12.5497 0.0712048 0.732316
H -12.524 0.986143 2.0846
O -2.17687 -6.4169 12.1833
H -1.87684 -5.98691 11.3319
H -2.53002 -7.33187 11.9883
O 13.4837 -13.4628 -10.0019
H 12.8406 -13.8212 -9.32519
H 12.9888 -13.2195 -10.836
O 2.87165 8.34138 3.21077
H 3.1643 7.3852 3.2142
H 3.3095 8.82666 3.96756
O 9.54045 -3.68345 -7.00269
H 10.0761 -3.18736 -7.68599
H 8.57123 -3.46515 -7.11624
O -11.2728 1.31214 -10.6071