 initial data file for ketone peroxyl dimer
 
     60  atoms
     62  bonds
     124  angles
     122 dihedrals

   30 atom types
   31 bond types
   62 angle types
   61 dihedral types

 -75.0 75.0 xlo xhi
 -75.0 75.0 ylo yhi
 -75.0 75.0 zlo zhi

 Masses

   1   15.999
   2   15.999
   3   12.011
   4   12.011
   5   12.011
   6   15.999
   7   12.011
   8   12.011
   9   12.011
  10   12.011
  11   12.011
  12   12.011
  13   12.011
  14    1.008
  15    1.008
  16    1.008
  17    1.008
  18    1.008
  19    1.008
  20    1.008
  21    1.008
  22    1.008
  23    1.008
  24    1.008
  25    1.008
  26    1.008
  27    1.008
  28    1.008
  29    1.008
  30    1.008

 Pair Coeffs

   1    0.1400    2.9000
   2    0.1400    2.9000
   3    0.0660    3.5000
   4    0.0660    3.5000
   5    0.0660    3.5000
   6    0.1700    3.1200
   7    0.0660    3.5000
   8    0.0830    3.4500
   9    0.0830    3.4500
  10    0.0830    3.4500
  11    0.0830    3.4500
  12    0.0660    3.5000
  13    0.0660    3.5000
  14    0.0300    2.5000
  15    0.0300    2.5000
  16    0.0300    2.5000
  17    0.0300    2.5000
  18    0.0000    0.0000
  19    0.0300    2.5000
  20    0.0300    2.5000
  21    0.0300    2.5000
  22    0.0300    2.5000
  23    0.0300    2.5000
  24    0.0300    2.5000
  25    0.0300    2.5000
  26    0.0300    2.5000
  27    0.0300    2.5000
  28    0.0300    2.5000
  29    0.0300    2.5000
  30    0.0300    2.5000

 Bond Coeffs

   1  469.2840    1.3226
   2  320.0000    1.4100
   3  268.0000    1.5290
   4  268.0000    1.5290
   5  320.0000    1.4100
   6  268.0000    1.5290
   7  280.0000    1.5100
   8  260.0000    1.5200
   9  280.0000    1.5100
  10  260.0000    1.5200
  11  280.0000    1.5100
  12  280.0000    1.5100
  13  340.0000    1.0900
  14  340.0000    1.0900
  15  340.0000    1.0900
  16  340.0000    1.0900
  17  553.0000    0.9450
  18  340.0000    1.0900
  19  340.0000    1.0900
  20  340.0000    1.0880
  21  340.0000    1.0880
  22  340.0000    1.0880
  23  340.0000    1.0880
  24  340.0000    1.0900
  25  340.0000    1.0900
  26  340.0000    1.0900
  27  340.0000    1.0900
  28  340.0000    1.0900
  29  340.0000    1.0900
  30  260.0000    1.5200
  31  260.0000    1.5200

 Angle Coeffs

   1   85.0220  110.0400
   2   50.0000  109.5000
   3   50.0000  109.5000
   4   50.0000  109.5000
   5   58.3500  112.7000
   6   58.3500  112.7000
   7   37.5000  117.2000
   8   50.0000  109.5000
   9   37.5000  117.2000
  10   37.5000  117.2000
  11   37.5000  117.2000
  12   37.5000  110.7000
  13   37.5000  110.7000
  14   37.5000  110.7000
  15   37.5000  110.7000
  16   55.0000  108.5000
  17   37.5000  110.7000
  18   37.5000  110.7000
  19   35.0000  114.3000
  20   37.5000  117.2000
  21   37.5000  117.2000
  22   35.0000  114.3000
  23   37.5000  110.7000
  24   37.5000  110.7000
  25   37.5000  110.7000
  26   37.5000  110.7000
  27   37.5000  110.7000
  28   37.5000  110.7000
  29   35.0000  114.3000
  30   37.5000  117.2000
  31   33.0000  107.8000
  32   33.0000  107.8000
  33   58.3500  112.7000
  34   37.5000  117.2000
  35   33.0000  107.8000
  36   30.0000   83.0000
  37   33.0000  107.8000
  38   33.0000  107.8000
  39   58.3500  112.7000
  40   58.3500  112.7000
  41   33.0000  107.8000
  42   33.0000  107.8000
  43   33.0000  107.8000
  44   37.5000  117.2000
  45   50.0000  109.5000
  46   37.5000  117.2000
  47   37.5000  117.2000
  48   33.0000  107.8000
  49   37.5000  117.2000
  50   37.5000  117.2000
  51   30.0000   83.0000
  52   37.5000  110.7000
  53   35.0000  114.3000
  54   30.0000   83.0000
  55   37.5000  117.2000
  56   37.5000  117.2000
  57   37.5000  117.2000
  58   33.0000  107.8000
  59   30.0000   83.0000
  60   37.5000  110.7000
  61   37.5000  110.7000
  62   35.0000  109.5000

 Dihedral Coeffs

   1    0.6500   -0.2500    0.6700    0.0000
   2    4.3190    0.0000    0.0000    0.0000
   3    1.3000   -0.2000    0.2000    0.0000
   4    0.0000    0.0000    0.4680    0.0000
   5   -0.3560   -0.1740    0.4920    0.0000
   6    0.0000    0.0000    0.3000    0.0000
   7    0.0000    0.0000    0.3000    0.0000
   8    0.0000    0.0000    0.3000    0.0000
   9    0.0000    0.0000    0.3000    0.0000
  10    0.0000    0.0000    0.3000    0.0000
  11    0.0000    0.0000    0.3000    0.0000
  12    0.0000    0.0000    0.3000    0.0000
  13    0.0000    0.0000    0.3000    0.0000
  14    0.0000    0.0000    0.3000    0.0000
  15   -0.3560   -0.1740    0.4920    0.0000
  16    0.0000    0.0000    0.3000    0.0000
  17    0.0000    0.0000    0.3000    0.0000
  18    0.0000    0.0000    0.3000    0.0000
  19    0.0000    0.0000    0.4680    0.0000
  20    0.0000    0.0000    0.4680    0.0000
  21    0.0000    0.0000    0.3000    0.0000
  22    0.0000    0.0000    0.4680    0.0000
  23    0.0000    0.0000    0.3000    0.0000
  24   -1.5520    0.0000    0.0000    0.0000
  25    0.0000    0.0000    0.3000    0.0000
  26    0.0000    0.0000    0.4680    0.0000
  27    0.0000    0.0000    0.3000    0.0000
  28    0.0000    0.0000    0.3000    0.0000
  29    0.0000    0.0000    0.3000    0.0000
  30    0.0000    0.0000    0.4680    0.0000
  31    0.0000    0.0000    0.3000    0.0000
  32    0.6500   -0.2500    0.6700    0.0000
  33    1.3000   -0.2000    0.2000    0.0000
  34    0.0000    0.0000    0.3000    0.0000
  35    0.0000    0.0000    0.3000    0.0000
  36    0.0000    0.0000    0.3000    0.0000
  37    0.0000    0.0000    0.3000    0.0000
  38    0.0000    0.0000    0.3000    0.0000
  39    0.0000    0.0000    0.3000    0.0000
  40    0.0000    0.0000    0.4680    0.0000
  41    0.0000    0.0000    0.3000    0.0000
  42    0.0000    0.0000    0.3000    0.0000
  43    1.7110   -0.5000    0.6630    0.0000
  44    0.0000    0.0000    0.3000    0.0000
  45    0.0000    0.0000    0.3000    0.0000
  46    0.0000    0.0000    0.3520    0.0000
  47    0.0000    0.0000    0.3000    0.0000
  48    0.0000    0.0000    0.3000    0.0000
  49   -1.5520    0.0000    0.0000    0.0000
  50    0.0000    0.0000    0.3000    0.0000
  51    0.0000    0.0000    0.3000    0.0000
  52    0.6500   -0.2500    0.6700    0.0000
  53    0.0000    0.0000    0.3000    0.0000
  54    0.0000    0.0000    0.3000    0.0000
  55    0.0000    0.0000    0.3000    0.0000
  56   -1.5520    0.0000    0.0000    0.0000
  57    0.0000    0.0000    0.3000    0.0000
  58    0.0000    0.0000    0.3000    0.0000
  59    0.0000    0.0000    0.3000    0.0000
  60    1.3000   -0.2000    0.2000    0.0000
  61    0.0000    0.0000    0.3000    0.0000

Atoms 

   1  1  1    -0.1450    -1.1703    -0.7533     2.9506
   2  1  2    -0.1510    -0.3970    -1.2441     1.8175
   3  1  3     0.1912     0.0232    -0.1001     1.0301
   4  1  4    -0.2661     0.9276     0.7586     1.9247
   5  1  5     0.0683    -1.2298     0.6379     0.4326
   6  1  6    -0.5923    -1.1392     2.0671     0.3859
   7  1  7    -0.1617    -1.6120     0.1755    -0.9960
   8  1  8    -0.1293    -0.4383    -0.4982    -1.7381
   9  1  9    -0.2176     0.0036    -1.7270    -0.9068
  10  1 10    -0.1235     0.8811    -0.6989    -0.1181
  11  1 11    -0.0390     1.0253     0.0600    -1.5198
  12  1 12    -0.2366     1.2228     1.5721    -1.5965
  13  1 13    -0.2191     2.1029    -0.5572    -2.4471
  14  1 14     0.1033     0.3531     1.2707     2.7033
  15  1 15     0.1033     1.4849     1.5061     1.3524
  16  1 16     0.1033     1.6617     0.1263     2.4500
  17  1 17     0.1001    -2.1002     0.4519     1.0713
  18  1 18     0.4139    -0.4543     2.3835     0.9927
  19  1 19     0.1106    -1.9817     1.0208    -1.5874
  20  1 20     0.1106    -2.4363    -0.5447    -0.9264
  21  1 21     0.1099    -0.7081    -0.7253    -2.7766
  22  1 22     0.1069     0.5561    -2.4971    -1.4537
  23  1 23     0.1069    -0.7841    -2.2570    -0.3622
  24  1 24     0.1204     1.8166    -1.1307     0.2599
  25  1 25     0.0909     0.4383     2.1511    -1.1264
  26  1 26     0.0909     1.2471     1.9048    -2.6408
  27  1 27     0.0909     2.1711     1.8626    -1.1317
  28  1 28     0.0866     2.0940    -1.6481    -2.4769
  29  1 29     0.0866     3.1038    -0.2567    -2.1167
  30  1 30     0.0866     1.9645    -0.2072    -3.4762
  31  2  1    -0.1450    63.1639     0.7796    -0.1589
  32  2  2    -0.1510    61.9642     0.8411     0.6657
  33  2  3     0.1912    61.0156    -0.1298     0.1530
  34  2  4    -0.2661    61.6596    -1.5150     0.3010
  35  2  5     0.0683    60.5775     0.2570    -1.3065
  36  2  6    -0.5923    60.3861    -0.8429    -2.2046
  37  2  7    -0.1617    59.2839     1.1073    -1.3720
  38  2  8    -0.1293    58.4157     0.9697    -0.1034
  39  2  9    -0.2176    59.2670     1.4311     1.1044
  40  2 10    -0.1235    59.7964    -0.0416     1.1116
  41  2 11    -0.0390    58.3276    -0.4372     0.6138
  42  2 12    -0.2366    58.0810    -1.6624    -0.2633
  43  2 13    -0.2191    57.2892    -0.5195     1.7614
  44  2 14     0.1033    62.4755    -1.6574    -0.4150
  45  2 15     0.1033    60.9346    -2.3238     0.1705
  46  2 16     0.1033    62.1065    -1.6268     1.3023
  47  2 17     0.1001    61.3704     0.8463    -1.7801
  48  2 18     0.4139    60.8349    -1.6339    -1.8725
  49  2 19     0.1106    58.6903     0.8365    -2.2525
  50  2 20     0.1106    59.5592     2.1624    -1.4900
  51  2 21     0.1099    57.4639     1.5026    -0.2184
  52  2 22     0.1069    58.7057     1.7349     1.9932
  53  2 23     0.1069    59.9847     2.2358     0.9170
  54  2 24     0.1204    60.0458    -0.4054     2.1165
  55  2 25     0.0909    58.6241    -1.6602    -1.1996
  56  2 26     0.0909    57.0221    -1.7318    -0.5388
  57  2 27     0.0909    58.3476    -2.5806     0.2708
  58  2 28     0.0866    57.3606     0.2926     2.4869
  59  2 29     0.0866    57.4140    -1.4550     2.3185
  60  2 30     0.0866    56.2715    -0.4980     1.3553

Bonds 

           1           1           2           1
           2           2           3           2
           3           3           4           3
           4           4           5           3
           5           5           6           5
           6           6           7           5
           7           7           8           7
           8           8           9           8
           9           9          10           3
          10          10          11           8
          11          11          12          11
          12          12          13          11
          13          13          14           4
          14          14          15           4
          15          15          16           4
          16          16          17           5
          17          17          18           6
          18          18          19           7
          19          19          20           7
          20          20          21           8
          21          21          22           9
          22          22          23           9
          23          23          24          10
          24          24          25          12
          25          25          26          12
          26          26          27          12
          27          27          28          13
          28          28          29          13
          29          29          30          13
          30          30          10           9
          31          31          11          10
32 1 32 31
33 2 33 32
34 3 34 33
35 4 35 33
36 5 36 35
37 6 37 35
38 7 38 37
39 8 39 38
40 9 40 33
41 10 41 38
42 11 42 41
43 12 43 41
44 13 44 34
45 14 45 34
46 15 46 34
47 16 47 35
48 17 48 36
49 18 49 37
50 19 50 37
51 20 51 38
52 21 52 39
53 22 53 39
54 23 54 40
55 24 55 42
56 25 56 42
57 26 57 42
58 27 58 43
59 28 59 43
60 29 60 43
61 30 40 39
62 31 41 40

 Angles

           1           1           1           2           3
           2           2           2           3           4
           3           3           2           3           5
           4           4           3           5           6
           5           5           3           5           7
           6           6           5           7           8
           7           7           7           8           9
           8           8           2           3          10
           9           9           7           8          11
          10          10           8          11          12
          11          11           8          11          13
          12          12           3           4          14
          13          13           3           4          15
          14          14           3           4          16
          15          15           3           5          17
          16          16           5           6          18
          17          17           5           7          19
          18          18           5           7          20
          19          19           7           8          21
          20          20           8           9          22
          21          21           8           9          23
          22          22           3          10          24
          23          23          11          12          25
          24          24          11          12          26
          25          25          11          12          27
          26          26          11          13          28
          27          27          11          13          29
          28          28          11          13          30
          29          29          22           9          23
          30          30           9          10          24
          31          31          14           4          15
          32          32          25          12          26
          33          33           5           3          10
          34          34          10           9          22
          35          35          25          12          27
          36          36           8          11          10
          37          37          19           7          20
          38          38          14           4          16
          39          39           4           3          10
          40          40           4           3           5
          41          41          15           4          16
          42          42          26          12          27
          43          43          29          13          30
          44          44          11           8          21
          45          45           6           5           7
          46          46          10          11          12
          47          47          11          10          24
          48          48          28          13          29
          49          49           3          10           9
          50          50           9           8          21
          51          51           9           8          11
          52          52           8           7          20
          53          53          12          11          13
          54          54           9          10          11
          55          55          10           9          23
          56          56           3          10          11
          57          57          10          11          13
          58          58          28          13          30
          59          59           8           9          10
          60          60           7           5          17
          61          61           8           7          19
          62          62           6           5          17
63 1 31 32 33
64 2 32 33 34
65 3 32 33 35
66 4 33 35 36
67 5 33 35 37
68 6 35 37 38
69 7 37 38 39
70 8 32 33 40
71 9 37 38 41
72 10 38 41 42
73 11 38 41 43
74 12 33 34 44
75 13 33 34 45
76 14 33 34 46
77 15 33 35 47
78 16 35 36 48
79 17 35 37 49
80 18 35 37 50
81 19 37 38 51
82 20 38 39 52
83 21 38 39 53
84 22 33 40 54
85 23 41 42 55
86 24 41 42 56
87 25 41 42 57
88 26 41 43 58
89 27 41 43 59
90 28 41 43 60
91 29 52 39 53
92 30 39 40 54
93 31 44 34 45
94 32 55 42 56
95 33 35 33 40
96 34 40 39 52
97 35 55 42 57
98 36 38 41 40
99 37 49 37 50
100 38 44 34 46
101 39 34 33 40
102 40 34 33 35
103 41 45 34 46
104 42 56 42 57
105 43 59 43 60
106 44 41 38 51
107 45 36 35 37
108 46 40 41 42
109 47 41 40 54
110 48 58 43 59
111 49 33 40 39
112 50 39 38 51
113 51 39 38 41
114 52 38 37 50
115 53 42 41 43
116 54 39 40 41
117 55 40 39 53
118 56 33 40 41
119 57 40 41 43
120 58 58 43 60
121 59 38 39 40
122 60 37 35 47
123 61 38 37 49
124 62 36 35 47

 Dihedrals

           1           1           4           3           2           1
           2           2           6           5           3           2
           3           3           8           7           5           3
           4           4          14           4           3           2
           5           5          18           6           5           3
           6           6          25          12          11           8
           7           7          28          13          11           8
           8           8          24          10           3           4
           9           9          14           4           3           5
          10          10          27          12          11          10
          11          11          29          13          11          10
          12          12          27          12          11          13
          13          13          20           7           5           3
          14          14          16           4           3          10
          15          15          18           6           5           7
          16          16          24          10           3           5
          17          17          20           7           5          17
          18          18          25          12          11          13
          19          19          17           5           3           2
          20          20          16           4           3           2
          21          21          30          13          11          12
          22          22          24          10           3           2
          23          23          19           7           8          11
          24          24           6           5           3           4
          25          25          19           7           8           9
          26          26          20           7           5           6
          27          27          17           5           3          10
          28          28          21           8           7          20
          29          29          28          13          11          10
          30          30          19           7           5           6
          31          31          21           8           7          19
          32          32          10           3           2           1
          33          33           7           5           3           4
          34          34          14           4           3          10
          35          35          30          13          11           8
          36          36          17           5           7           8
          37          37          25          12          11          10
          38          38          27          12          11           8
          39          39          19           7           5          17
          40          40          15           4           3           2
          41          41          17           5           3           4
          42          42          26          12          11          10
          43          43           7           5           3           2
          44          44          20           7           8           9
          45          45          21           8           7           5
          46          46          18           6           5          17
          47          47          28          13          11          12
          48          48          30          13          11          10
          49          49          10           3           5           6
          50          50          26          12          11          13
          51          51          15           4           3          10
          52          52           5           3           2           1
          53          53          29          13          11          12
          54          54          29          13          11           8
          55          55          16           4           3           5
          56          56           8           7           5           6
          57          57          19           7           5           3
          58          58          26          12          11           8
          59          59          20           7           8          11
          60          60          10           3           5           7
          61          61          15           4           3           5
62 1 34 33 32 31
63 2 36 35 33 32
64 3 38 37 35 33
65 4 44 34 33 32
66 5 48 36 35 33
67 6 55 42 41 38
68 7 58 43 41 38
69 8 54 40 33 34
70 9 44 34 33 35
71 10 57 42 41 40
72 11 59 43 41 40
73 12 57 42 41 43
74 13 50 37 35 33
75 14 46 34 33 40
76 15 48 36 35 37
77 16 54 40 33 35
78 17 50 37 35 47
79 18 55 42 41 43
80 19 47 35 33 32
81 20 46 34 33 32
82 21 60 43 41 42
83 22 54 40 33 32
84 23 49 37 38 41
85 24 36 35 33 34
86 25 49 37 38 39
87 26 50 37 35 36
88 27 47 35 33 40
89 28 51 38 37 50
90 29 58 43 41 40
91 30 49 37 35 36
92 31 51 38 37 49
93 32 40 33 32 31
94 33 37 35 33 34
95 34 44 34 33 40
96 35 60 43 41 38
97 36 47 35 37 38
98 37 55 42 41 40
99 38 57 42 41 38
100 39 49 37 35 47
101 40 45 34 33 32
102 41 47 35 33 34
103 42 56 42 41 40
104 43 37 35 33 32
105 44 50 37 38 39
106 45 51 38 37 35
107 46 48 36 35 47
108 47 58 43 41 42
109 48 60 43 41 40
110 49 40 33 35 36
111 50 56 42 41 43
112 51 45 34 33 40
113 52 35 33 32 31
114 53 59 43 41 42
115 54 59 43 41 38
116 55 46 34 33 35
117 56 38 37 35 36
118 57 49 37 35 33
119 58 56 42 41 38
120 59 50 37 38 41
121 60 40 33 35 37
122 61 45 34 33 35
