LAMMPS data file via write_data, version 15 May 2015, timestep = 8008000

2611 atoms
6 atom types
1749 bonds
4 bond types
894 angles
3 angle types
44 dihedrals
3 dihedral types
10 impropers
1 improper types

-1.4948638875937903e+01 1.4948638875937903e+01 xlo xhi
-1.4948638875937903e+01 1.4948638875937903e+01 ylo yhi
-1.4948638875937903e+01 1.4948638875937903e+01 zlo zhi

Masses

1 15.9994
2 1.00794
3 12.0107
4 1.00794
5 12.0107
6 12.0107

Bond Coeffs # harmonic

1 1000 1
2 469 1.4
3 367 1.08
4 469 0.7

Angle Coeffs # harmonic

1 100 109.47
2 35 120
3 63 120

Dihedral Coeffs # opls

1 0 7.25 0 0
2 0 7.25 0 0
3 0 7.25 0 0

Improper Coeffs # cvff

1 2.5 -1 2

Atoms # full

269 90 2 4.0999999999999998e-01 -1.0047348964877955e+01 -1.4036691223974852e+01 -1.4063167233554470e+01 -4 3 0
2412 804 2 4.0999999999999998e-01 -1.0384707944150041e+01 -1.1039823480691377e+01 -7.6578912055062212e+00 2 2 4
2376 792 2 4.0999999999999998e-01 -8.9410893329229708e+00 -1.2067668574605667e+01 -1.4909306817576606e+01 -2 3 2
247 83 1 -8.1999999999999995e-01 -1.4691505167932791e+01 -1.1212791897164609e+01 -1.4924564696797328e+01 -1 3 -1
2411 804 2 4.0999999999999998e-01 -1.1896527761418000e+01 -1.1243151129330519e+01 -8.2407627708617568e+00 2 2 4
2410 804 1 -8.1999999999999995e-01 -1.0936441105754671e+01 -1.1113533865872547e+01 -8.4886604923383899e+00 2 2 4
37 13 1 -8.1999999999999995e-01 -1.3030135821456128e+01 -1.3449847274870454e+01 -1.4016609341418762e+01 1 -1 0
574 192 1 -8.1999999999999995e-01 -1.2159323905050140e+01 -9.8735314799870952e+00 -1.0458206197898459e+01 1 4 3
1596 532 2 4.0999999999999998e-01 -9.9810682267075510e+00 -7.4865820095271971e+00 -9.7205994234443178e+00 0 2 0
1594 532 1 -8.1999999999999995e-01 -1.0977812822113123e+01 -7.4683378389263808e+00 -9.7992609911185795e+00 0 2 0
1595 532 2 4.0999999999999998e-01 -1.1290380632704982e+01 -8.2947202052853264e+00 -1.0267677234398240e+01 0 2 0
656 219 2 4.0999999999999998e-01 -1.2952299198480734e+01 -1.4115985943919011e+01 -1.0868206595394266e+01 -2 2 -3
38 13 2 4.0999999999999998e-01 -1.2975740112004820e+01 -1.3202374490468904e+01 -1.3049232186243778e+01 1 -1 0
2136 712 2 4.0999999999999998e-01 -8.3405460433452916e+00 -8.1146369360244819e+00 -9.5761616690873872e+00 3 3 3
1000 334 1 -8.1999999999999995e-01 -8.1326392691517349e+00 -8.4316866612980270e+00 -7.6703181419034827e+00 -1 -1 3
39 13 2 4.0999999999999998e-01 -1.2415917393577100e+01 -1.4217554983334450e+01 -1.4199313685769717e+01 1 -1 0
1428 476 2 4.0999999999999998e-01 -8.7059096835478886e+00 -5.7211048908497162e+00 -1.1857893306604337e+01 -2 0 -1
2475 825 2 4.0999999999999998e-01 -1.2261039311922673e+01 -6.1353767463626419e+00 -9.8874308308802572e+00 1 1 -4
1776 592 2 4.0999999999999998e-01 -9.5682764222906975e+00 -1.3645092136784523e+01 -1.0025914766824425e+01 6 0 1
1426 476 1 -8.1999999999999995e-01 -8.4904214518415237e+00 -5.2770194223473563e+00 -1.2727590514311029e+01 -2 0 -1
1775 592 2 4.0999999999999998e-01 -1.0232090798164830e+01 -1.2260289495068875e+01 -9.4706195539301774e+00 6 0 1
270 90 2 4.0999999999999998e-01 -9.6515139658457656e+00 -1.4029519176754643e+01 -1.2478887027682942e+01 -4 3 0
470 157 2 4.0999999999999998e-01 -1.1266316970960137e+01 -7.7009703634996622e+00 -8.0362424939600761e+00 1 3 3
1774 592 1 -8.1999999999999995e-01 -9.9767834331177525e+00 -1.2771714508889879e+01 -1.0291157759856166e+01 6 0 1
1791 597 2 4.0999999999999998e-01 -8.5878182099878178e+00 -1.4123571319494950e+01 -7.7617213700436620e+00 1 1 0
575 192 2 4.0999999999999998e-01 -1.2995845295453741e+01 -1.0356510726023089e+01 -1.0717017581123763e+01 1 4 3
1143 381 2 4.0999999999999998e-01 -1.3136534327326522e+01 -6.7539539472651455e+00 -1.2126823177304313e+01 1 -2 2
576 192 2 4.0999999999999998e-01 -1.1680468928133639e+01 -1.0392296117242729e+01 -9.7499678975305812e+00 1 4 3
1427 476 2 4.0999999999999998e-01 -7.9888020289920751e+00 -5.9147120251075584e+00 -1.3312181277154099e+01 -2 0 -1
2474 825 2 4.0999999999999998e-01 -1.2985945255962285e+01 -5.3783031786132511e+00 -8.6352201391808716e+00 1 1 -4
1562 521 2 4.0999999999999998e-01 -1.0983132370380021e+01 -1.0635428157913505e+01 -1.2087453224588884e+01 2 1 1
1526 509 2 4.0999999999999998e-01 -8.4559305560282567e+00 -1.1787113606546178e+01 -1.0913504770052882e+01 0 -2 0
1563 521 2 4.0999999999999998e-01 -1.0161844121956483e+01 -1.1781469734076962e+01 -1.2911319099238277e+01 2 1 1
655 219 1 -8.1999999999999995e-01 -1.2613833407885615e+01 -1.3259309316436848e+01 -1.1257521851822032e+01 -2 2 -3
1561 521 1 -8.1999999999999995e-01 -1.0797749433060069e+01 -1.1014154446186495e+01 -1.2994216628794909e+01 2 1 1
1141 381 1 -8.1999999999999995e-01 -1.2572287750264152e+01 -6.2242956635465632e+00 -1.2760154219350170e+01 1 -2 2
268 90 1 -8.1999999999999995e-01 -9.6809510605353069e+00 -1.3482672207252493e+01 -1.3315614075791952e+01 -4 3 0
2473 825 1 -8.1999999999999995e-01 -1.3097207244747619e+01 -5.6796357436862799e+00 -9.5822363770124568e+00 1 1 -4
1170 390 2 4.0999999999999998e-01 -1.3096236925301900e+01 -6.3763660957523367e+00 -1.4571114426714542e+01 -3 2 1
2134 712 1 -8.1999999999999995e-01 -8.2002700299460418e+00 -8.1287217615190031e+00 -1.0566184167703708e+01 3 3 3
2135 712 2 4.0999999999999998e-01 -8.1695834187381049e+00 -9.0760394211828235e+00 -1.0885038083951482e+01 3 3 3
1525 509 1 -8.1999999999999995e-01 -7.7317090923398162e+00 -1.1103307190979024e+01 -1.0824441814529273e+01 0 -2 0
249 83 2 4.0999999999999998e-01 -1.4276742447911067e+01 -1.2107916760645397e+01 -1.4761029740949642e+01 -1 3 -1
2551 851 1 -8.1999999999999995e-01 -1.4533913650422699e+01 -1.1317195659995622e+01 -1.0801758858964536e+01 2 -4 2
657 219 2 4.0999999999999998e-01 -1.1653535832180903e+01 -1.3135907912601086e+01 -1.1007280058097276e+01 -2 2 -3
2552 851 2 4.0999999999999998e-01 -1.4018419683732237e+01 -1.2051259123628659e+01 -1.1243841573035294e+01 2 -4 2
1142 381 2 4.0999999999999998e-01 -1.2484071869535267e+01 -5.2867086459826762e+00 -1.2423748462610217e+01 1 -2 2
836 279 2 4.0999999999999998e-01 -1.1707788398703666e+01 -1.0227439733925495e+01 -1.4272492579203623e+01 -5 4 3
308 103 2 4.0999999999999998e-01 -1.4802270582406052e+01 -6.8037310954653130e+00 -9.6849966746233775e+00 -2 2 0
2553 851 2 4.0999999999999998e-01 -1.4773277086121279e+01 -1.1592036675472235e+01 -9.8705296257599677e+00 2 -4 2
167 56 2 4.0999999999999998e-01 -1.4156304027767167e+01 -1.2193104741388458e+01 -7.8216212292088141e+00 0 2 0
2375 792 2 4.0999999999999998e-01 -7.4856343621525792e+00 -1.1327756206728814e+01 -1.4879960896862853e+01 -2 3 2
1547 516 2 4.0999999999999998e-01 -1.4869203856663347e+01 -1.4313988968668909e+01 -1.3358667692471133e+01 -2 1 1
309 103 2 4.0999999999999998e-01 -1.4944174601430241e+01 -8.2749548977408693e+00 -1.0379290765510270e+01 -2 2 0
248 83 2 4.0999999999999998e-01 -1.4014998324070158e+01 -1.0496042592984377e+01 -1.4755363481670059e+01 -1 3 -1
1600 534 1 -8.1999999999999995e-01 -3.3812895859126595e+00 -1.4180740054598115e+01 -7.5842799774969496e+00 -1 1 1
2294 765 2 4.0999999999999998e-01 -7.3481618796123573e+00 -1.4237739714985505e+01 -9.4770583586522257e+00 0 2 2
4 2 1 -8.1999999999999995e-01 -5.3878982807374260e+00 -5.1197676233316631e+00 -1.2954356707325545e+01 -2 2 -2
1438 480 1 -8.1999999999999995e-01 -7.1997375639740229e+00 -7.4562076997398599e+00 -1.4464425577817270e+01 0 1 3
1038 346 2 4.0999999999999998e-01 -3.7136926804442112e+00 -5.0466364913519737e+00 -8.8908994080572157e+00 -2 1 -1
180 60 2 4.0999999999999998e-01 -9.7298425440506797e-01 -7.3276886262163909e+00 -1.3436097450531312e+01 -2 3 -4
1440 480 2 4.0999999999999998e-01 -6.5946094292036452e+00 -7.5307447899601359e+00 -1.3671781597882186e+01 0 1 3
1896 632 2 4.0999999999999998e-01 -3.4748891291908990e+00 -8.5050352624054852e+00 -1.3985424475956627e+01 -1 -2 2
1744 582 1 -8.1999999999999995e-01 -5.8332395276647553e-01 -8.8554094413409459e+00 -1.4621572855802675e+01 1 0 3
480 160 2 4.0999999999999998e-01 -7.2469644148143830e+00 -9.8508343550176729e+00 -1.3395818813263551e+01 -2 4 2
1729 577 1 -8.1999999999999995e-01 -5.5375718136729635e+00 -8.6661752109786150e+00 -8.6080014032438488e+00 0 5 3
1926 642 2 4.0999999999999998e-01 -3.1399653609071088e+00 -7.3608336597728661e+00 -8.3772106340299644e+00 -1 0 2
6 2 2 4.0999999999999998e-01 -5.5966345646131668e+00 -6.0357293853224832e+00 -1.2611627339829981e+01 -2 2 -2
332 111 2 4.0999999999999998e-01 -3.2283381359904446e+00 -1.3899216908884041e+01 -1.3571601685421351e+01 -1 1 2
48 16 2 4.0999999999999998e-01 -5.9360293254142640e+00 -1.3081190112555076e+01 -8.2185440220703079e+00 -1 -2 4
1527 509 2 4.0999999999999998e-01 -6.8440631086248604e+00 -1.1561727585471244e+01 -1.0780219651904474e+01 0 -2 0
1924 642 1 -8.1999999999999995e-01 -2.8463960421847201e+00 -6.4097425100076961e+00 -8.4734547300824197e+00 -1 0 2
2511 837 2 4.0999999999999998e-01 -2.8648675081775892e+00 -1.3966846617196653e+01 -9.5423570514635845e+00 -1 1 1
79 27 1 -8.1999999999999995e-01 -2.0070176878846393e+00 -1.0557742854039763e+01 -7.5113817228512820e+00 1 3 -2
80 27 2 4.0999999999999998e-01 -1.6179296945841397e+00 -1.0719716981614084e+01 -8.4182418073799603e+00 1 3 -2
1730 577 2 4.0999999999999998e-01 -6.4901488406652135e+00 -8.6815611529653935e+00 -8.3040599058663958e+00 0 5 3
333 111 2 4.0999999999999998e-01 -3.3149515499942961e+00 -1.4446446544450522e+01 -1.2035464206543567e+01 -1 1 2
796 266 1 -8.1999999999999995e-01 -5.8612698428377410e+00 -7.4643629766792952e+00 -1.1992285306742980e+01 -3 3 -1
2269 757 1 -8.1999999999999995e-01 -3.3526824913506044e+00 -8.2198681825508721e+00 -1.1008161266976572e+01 -2 2 1
46 16 1 -8.1999999999999995e-01 -5.9364460953754321e+00 -1.3028430613271466e+01 -9.2171613581067149e+00 -1 -2 4
242 81 2 4.0999999999999998e-01 -1.3129746887329343e+00 -1.2249522587849928e+01 -1.4665739498038651e+01 -2 -2 0
582 194 2 4.0999999999999998e-01 -4.1307943207174826e+00 -1.0021844342950986e+01 -1.0449739793311615e+01 -5 1 -3
867 289 2 4.0999999999999998e-01 -3.7303105616097358e+00 -1.1377724564855630e+01 -1.2724533710573830e+01 -1 1 -2
2271 757 2 4.0999999999999998e-01 -2.8795232424936454e+00 -7.6945744520990820e+00 -1.0300908057339628e+01 -2 2 1
287 96 2 4.0999999999999998e-01 -7.2333341268952731e+00 -1.3814517201093855e+01 -1.4566819892781945e+01 2 3 1
1894 632 1 -8.1999999999999995e-01 -4.1798486516494187e+00 -8.4954666266835872e+00 -1.4694621725441145e+01 -1 -2 2
757 253 1 -8.1999999999999995e-01 -1.9657847774850623e+00 -1.0595427661906189e+01 -1.2854039920360059e+01 -2 -1 1
759 253 2 4.0999999999999998e-01 -1.4307701152797900e+00 -9.8179814099474356e+00 -1.3184731521344423e+01 -2 -1 1
1731 577 2 4.0999999999999998e-01 -5.3831325484653689e+00 -9.4100131896941530e+00 -9.2582889402275903e+00 0 5 3
331 111 1 -8.1999999999999995e-01 -3.8091515197029260e+00 -1.4359997737099242e+01 -1.2900515203097754e+01 -1 1 2
2270 757 2 4.0999999999999998e-01 -2.8543718260146296e+00 -8.1407895260088523e+00 -1.1871557627166393e+01 -2 2 1
866 289 2 4.0999999999999998e-01 -4.5482357482987119e+00 -1.2747825454863932e+01 -1.3071668435007778e+01 -1 1 -2
797 266 2 4.0999999999999998e-01 -6.6387956055340496e+00 -7.7636387494559962e+00 -1.1439195785281349e+01 -3 3 -1
758 253 2 4.0999999999999998e-01 -1.5508073444106980e+00 -1.0954066255831298e+01 -1.2017862699274950e+01 -2 -1 1
478 160 1 -8.1999999999999995e-01 -6.5955588213294547e+00 -1.0367072712602177e+01 -1.3951866435995756e+01 -2 4 2
5 2 2 4.0999999999999998e-01 -4.6546429927122741e+00 -5.1765050979166514e+00 -1.3631953795601568e+01 -2 2 -2
286 96 1 -8.1999999999999995e-01 -7.2203154775099403e+00 -1.4805867316167353e+01 -1.4697494089459802e+01 2 3 1
479 160 2 4.0999999999999998e-01 -5.9528614210073236e+00 -1.0845929515800233e+01 -1.3353822499587181e+01 -2 4 2
47 16 2 4.0999999999999998e-01 -5.3850188049701284e+00 -1.2247244494782365e+01 -9.5099009348936043e+00 -1 -2 4
580 194 1 -8.1999999999999995e-01 -4.7722704613333935e+00 -1.0753578158479309e+01 -1.0219317911555994e+01 -5 1 -3
1549 517 1 -8.1999999999999995e-01 -8.6559823950749859e-01 -1.1668700815603376e+01 -1.0410398572426516e+01 -3 0 4
1551 517 2 4.0999999999999998e-01 -1.4616777608916074e+00 -1.2461989272322983e+01 -1.0534507181982114e+01 -3 0 4
179 60 2 4.0999999999999998e-01 -1.6073242024016956e+00 -5.8379028745250938e+00 -1.3224362133551406e+01 -2 3 -4
798 266 2 4.0999999999999998e-01 -5.0189898791096272e+00 -7.5576810013750917e+00 -1.1461364884045597e+01 -3 3 -1
241 81 1 -8.1999999999999995e-01 -1.3561091074432934e+00 -1.3245467061501524e+01 -1.4586655275426816e+01 -2 -2 0
581 194 2 4.0999999999999998e-01 -4.8031424903543929e+00 -1.1417359481059306e+01 -1.0966620742522192e+01 -5 1 -3
178 60 1 -8.1999999999999995e-01 -1.7254281779047762e+00 -6.8111771554319596e+00 -1.3027362374427963e+01 -2 3 -4
865 289 1 -8.1999999999999995e-01 -4.6372191723753797e+00 -1.1771500225098132e+01 -1.2874459684074209e+01 -1 1 -2
2509 837 1 -8.1999999999999995e-01 -2.4430953385657510e+00 -1.3974927744547816e+01 -1.0449034070514422e+01 -1 1 1
2510 837 2 4.0999999999999998e-01 -1.6787239109476193e+00 -1.4619688746106297e+01 -1.0455341675353667e+01 -1 1 1
1925 642 2 4.0999999999999998e-01 -2.6336021055657177e+00 -6.0337028893620737e+00 -7.5716048213051907e+00 -1 0 2
531 177 2 4.0999999999999998e-01 -3.7040600591387030e+00 -6.4379263863255609e+00 -1.4904550683829710e+01 -1 -2 2
1895 632 2 4.0999999999999998e-01 -4.6915359594029145e+00 -9.3542243275791499e+00 -1.4667574575996003e+01 -1 -2 2
2384 795 2 4.0999999999999998e-01 -1.6015014840422896e+00 -5.0247059857141849e+00 -9.7655437948432962e+00 -4 -1 1
1956 652 2 4.0999999999999998e-01 -7.5201207454350696e+00 -1.0272777394187266e+01 -3.6961805316088814e+00 -1 0 0
1954 652 1 -8.1999999999999995e-01 -8.2426020662226342e+00 -9.8269273954910368e+00 -3.1677310630654034e+00 -1 0 0
1955 652 2 4.0999999999999998e-01 -9.1323932368632796e+00 -1.0183393445248791e+01 -3.4527291802949804e+00 -1 0 0
52 18 1 -8.1999999999999995e-01 -9.3988589957669681e+00 -5.7210754693510442e+00 -6.5849812262196377e+00 0 2 0
1425 475 2 4.0999999999999998e-01 -1.1540440706754932e+01 -1.3077797582331490e+01 -2.6507124779113482e+00 0 3 2
2458 820 1 -8.1999999999999995e-01 -7.9833774042841794e+00 -1.3232782814245407e+01 -1.6927573988615574e+00 -2 -2 -2
542 181 2 4.0999999999999998e-01 -1.1342333144795163e+01 -1.1049754709748349e+01 -3.8761233349252180e+00 1 0 -1
1423 475 1 -8.1999999999999995e-01 -1.2245847039671503e+01 -1.2558680596804091e+01 -3.1333507543635175e+00 0 3 2
1424 475 2 4.0999999999999998e-01 -1.3105743647990439e+01 -1.2613162757931235e+01 -2.6257783258513676e+00 0 3 2
114 38 2 4.0999999999999998e-01 -1.2393044769640300e+01 -1.0659908968079586e+01 -1.0684406922421008e+00 -1 0 -1
233 78 2 4.0999999999999998e-01 -1.3343375397088908e+01 -9.7537557613397450e+00 -3.6225760220636705e+00 -1 -1 -1
2521 841 1 -8.1999999999999995e-01 -1.3117019130148350e+01 -7.2590112425543758e+00 -1.2561266840732355e+00 -1 3 0
894 298 2 4.0999999999999998e-01 -9.2095944716988001e+00 -1.4502459171620359e+01 -2.3499693655434424e+00 0 -1 2
141 47 2 4.0999999999999998e-01 -1.0902965665531632e+01 -5.5850421808561226e+00 -1.0134800751042441e+00 0 -1 0
870 290 2 4.0999999999999998e-01 -1.2196740322435367e+01 -1.4750636497052483e+01 -2.4289447615301007e-01 -2 2 0
541 181 1 -8.1999999999999995e-01 -1.0662468112562445e+01 -1.0509116481239094e+01 -4.3716171584344625e+00 1 0 -1
543 181 2 4.0999999999999998e-01 -1.1101952539421616e+01 -9.7028521198512259e+00 -4.7676114673410090e+00 1 0 -1
1951 651 1 -8.1999999999999995e-01 -1.3689769615143144e+01 -1.4785315786697046e+01 -1.6061358750376602e+00 -4 -3 -1
1219 407 1 -8.1999999999999995e-01 -1.1718927942564331e+01 -1.3532176041335378e+01 -6.0658196591408782e+00 -4 4 0
2522 841 2 4.0999999999999998e-01 -1.3362327992696628e+01 -8.1111520749838562e+00 -1.7184035419219139e+00 -1 3 0
232 78 1 -8.1999999999999995e-01 -1.3489083946687421e+01 -9.6512774168560256e+00 -2.6385600406275369e+00 -1 -1 -1
1267 423 1 -8.1999999999999995e-01 -1.3729275922843451e+01 -1.0238246175963020e+01 -5.4395955783517991e+00 1 2 3
1220 407 2 4.0999999999999998e-01 -1.2423629195897036e+01 -1.3043653750261816e+01 -6.5803703834444054e+00 -4 4 0
1268 423 2 4.0999999999999998e-01 -1.4546209824182396e+01 -1.0596795504003058e+01 -4.9878415659512605e+00 1 2 3
53 18 2 4.0999999999999998e-01 -1.0010062445614118e+01 -6.4262351850175996e+00 -6.9444258908885477e+00 0 2 0
2459 820 2 4.0999999999999998e-01 -8.2886996847218786e+00 -1.2514360594158500e+01 -1.0677229039346408e+00 -2 -2 -2
54 18 2 4.0999999999999998e-01 -9.5788516855197017e+00 -5.5892718826995598e+00 -5.6101731578566234e+00 0 2 0
168 56 2 4.0999999999999998e-01 -1.3505914041497425e+01 -1.1248863437834251e+01 -6.6588307040746386e+00 0 2 0
1269 423 2 4.0999999999999998e-01 -1.3935996379476855e+01 -9.3474263281157910e+00 -5.8442275174034304e+00 1 2 3
1221 407 2 4.0999999999999998e-01 -1.1691163928994865e+01 -1.3186500368964570e+01 -5.1278656084561085e+00 -4 4 0
234 78 2 4.0999999999999998e-01 -1.4192764830099636e+01 -1.0294649478856767e+01 -2.3370208112708823e+00 -1 -1 -1
2523 841 2 4.0999999999999998e-01 -1.2123868774106622e+01 -7.2117868858447203e+00 -1.1491569681896863e+00 -1 3 0
1001 334 2 4.0999999999999998e-01 -8.0751622339941207e+00 -7.7355717134587714e+00 -6.9546780879440000e+00 -1 -1 3
2224 742 1 -8.1999999999999995e-01 -1.1015208887453792e+01 -5.1802598893995082e+00 -4.1672140982319110e+00 0 1 -2
1871 624 2 4.0999999999999998e-01 -9.6358654580165677e+00 -1.0967904986512330e+01 -5.5882844432938015e+00 1 0 1
1953 651 2 4.0999999999999998e-01 -1.4683470233608414e+01 -1.4808089409882053e+01 -1.7159572869583055e+00 -4 -3 -1
630 210 2 4.0999999999999998e-01 -1.3995178645611768e+01 -7.1072278762684515e+00 -5.8738489948609001e+00 -2 -1 1
2460 820 2 4.0999999999999998e-01 -7.7277454461618440e+00 -1.2825336679653045e+01 -2.5694901150343590e+00 -2 -2 -2
1658 553 2 4.0999999999999998e-01 -7.5839783903075375e+00 -8.0284214959455742e+00 -3.4501419114401077e+00 0 -1 0
471 157 2 4.0999999999999998e-01 -1.2036312212005617e+01 -7.1421864979317302e+00 -6.7090090637101216e+00 1 3 3
1790 597 2 4.0999999999999998e-01 -1.0112678006651507e+01 -1.3851691607310316e+01 -7.2444550515069830e+00 1 1 0
629 210 2 4.0999999999999998e-01 -1.4513744058113485e+01 -7.7700649564720141e+00 -7.2732837173074074e+00 -2 -1 1
1046 349 2 4.0999999999999998e-01 -1.4168489756080382e+01 -5.2387914304769101e+00 -3.6370085754582497e+00 -1 -3 -3
1033 345 1 -8.1999999999999995e-01 -8.6398651297176770e+00 -1.1109498438588284e+01 -1.6382861885923106e-01 -2 -1 1
884 295 2 4.0999999999999998e-01 -8.4148301177012250e+00 -1.4112018546483188e+01 -9.7214475323196936e-02 -2 1 -2
628 210 1 -8.1999999999999995e-01 -1.3965126722781298e+01 -7.9230966166660570e+00 -6.4513222788627136e+00 -2 -1 1
1002 334 2 4.0999999999999998e-01 -8.6626289481555148e+00 -9.2108532676546488e+00 -7.3356083269339187e+00 -1 -1 3
1870 624 1 -8.1999999999999995e-01 -9.0278253699884914e+00 -1.1030140786395203e+01 -6.3797603943368024e+00 1 0 1
469 157 1 -8.1999999999999995e-01 -1.1188636683658267e+01 -7.5476930272775240e+00 -7.0511069087302811e+00 1 3 3
1045 349 1 -8.1999999999999995e-01 -1.4355068714121744e+01 -5.3599587718773556e+00 -4.6119583474256061e+00 -1 -3 -3
2022 674 2 4.0999999999999998e-01 -1.3423468449801142e+01 -5.5241670185870380e+00 -1.7158282833804037e+00 1 0 2
1872 624 2 4.0999999999999998e-01 -8.9580759598135984e+00 -1.1983851275845256e+01 -6.6723208619006478e+00 1 0 1
112 38 1 -8.1999999999999995e-01 -1.2425439558859738e+01 -1.0907203233071339e+01 -1.0003145877176145e-01 -1 0 -1
139 47 1 -8.1999999999999995e-01 -1.0460666202047229e+01 -6.4017890224858416e+00 -6.4291820740378292e-01 0 -1 0
166 56 1 -8.1999999999999995e-01 -1.3302965130031117e+01 -1.1832377416133458e+01 -7.4451788793634002e+00 0 2 0
1789 597 1 -8.1999999999999995e-01 -9.2118460470193213e+00 -1.3440147885497453e+01 -7.3828522874177356e+00 1 1 0
1035 345 2 4.0999999999999998e-01 -9.2365165279560024e+00 -1.0308127855109976e+01 -1.2101985686710925e-01 -2 -1 1
2225 742 2 4.0999999999999998e-01 -1.1916804746974833e+01 -5.0114033710856365e+00 -4.5655012761700924e+00 0 1 -2
140 47 2 4.0999999999999998e-01 -9.4676762765768849e+00 -6.2912224049984093e+00 -6.8494618108588945e-01 0 -1 0
2588 863 2 4.0999999999999998e-01 -1.4842640270984241e+01 -1.2839557769191533e+01 -1.5401271494985895e+00 -4 1 -2
886 296 1 -8.1999999999999995e-01 -4.4629670012378657e+00 -7.3769791768005106e+00 -8.4373207911196957e-02 2 2 2
1070 357 2 4.0999999999999998e-01 -7.0445394575876898e+00 -5.4351381494656277e+00 -4.3663552134504950e+00 1 -4 -2
81 27 2 4.0999999999999998e-01 -1.7807950053636574e+00 -9.6306926944317937e+00 -7.2123472575037608e+00 1 3 -2
900 300 2 4.0999999999999998e-01 -4.6580829864889370e+00 -1.3284713664229033e+01 -1.4811786494824908e+00 0 -1 0
283 95 1 -8.1999999999999995e-01 -6.0117427273509385e+00 -1.3685117274055093e+01 -6.6436612400809789e+00 0 1 -2
839 280 2 4.0999999999999998e-01 -3.7551871540090325e+00 -6.3080042333005935e+00 -1.5748969475878134e+00 0 1 0
1657 553 1 -8.1999999999999995e-01 -7.0825790156535176e+00 -7.1701151168225019e+00 -3.5593623817494375e+00 0 -1 0
899 300 2 4.0999999999999998e-01 -4.8159234304378025e+00 -1.1754116740270630e+01 -2.0280240783314660e+00 0 -1 0
838 280 1 -8.1999999999999995e-01 -3.3975439128769107e+00 -5.8947097490954938e+00 -2.4123330957801858e+00 0 1 0
16 6 1 -8.1999999999999995e-01 -1.2770237094031742e+00 -1.3042362347137427e+01 -6.4318423722489513e+00 0 4 3
477 159 2 4.0999999999999998e-01 -5.7816176327361752e+00 -7.0019964842466980e+00 -7.4352154522824021e+00 -2 0 2
1659 553 2 4.0999999999999998e-01 -6.1196791371664858e+00 -7.3676695000613357e+00 -3.7432545840898381e+00 0 -1 0
2558 853 2 4.0999999999999998e-01 -4.9517350535813449e+00 -9.4647718672547825e+00 -6.8607422224744852e+00 -4 -2 -1
611 204 2 4.0999999999999998e-01 -6.7380307836823192e+00 -5.8773586099635100e+00 -2.1224213224357893e+00 1 0 0
1148 383 2 4.0999999999999998e-01 -5.8876220093506841e+00 -1.2006708243440443e+01 -3.5498044843365140e+00 -3 2 -1
610 204 1 -8.1999999999999995e-01 -6.8389075461981115e+00 -5.2484812908437757e+00 -1.3514755243270926e+00 1 0 0
1588 530 1 -8.1999999999999995e-01 -6.1670573588245858e-01 -8.6019026676613581e+00 -3.1043001014029290e+00 -1 2 1
284 95 2 4.0999999999999998e-01 -6.4264395603562061e+00 -1.3053641064486179e+01 -5.9884630935506085e+00 0 1 -2
1147 383 1 -8.1999999999999995e-01 -6.3869612711415993e+00 -1.1678099049638380e+01 -4.3514880935839635e+00 -3 2 -1
1149 383 2 4.0999999999999998e-01 -5.7433169791139367e+00 -1.1279230612448510e+01 -5.0046697767042847e+00 -3 2 -1
856 286 1 -8.1999999999999995e-01 -5.6891665669185993e+00 -1.0698829804704392e+01 -8.4862094227992557e-01 0 4 0
857 286 2 4.0999999999999998e-01 -6.6759956630932535e+00 -1.0603262185335382e+01 -9.7921730123581341e-01 0 4 0
1800 600 2 4.0999999999999998e-01 -2.9103755375630911e+00 -1.2550455931933211e+01 -3.3268876385695005e+00 -1 -1 3
716 239 2 4.0999999999999998e-01 -1.8419716073747665e+00 -1.2898494208760400e+01 -1.3449243895358975e+00 4 2 3
715 239 1 -8.1999999999999995e-01 -1.6669006543611342e+00 -1.3001014501566736e+01 -3.6571040324331250e-01 4 2 3
476 159 2 4.0999999999999998e-01 -5.9037576250628003e+00 -5.7364409852662241e+00 -6.4104561659521195e+00 -2 0 2
341 114 2 4.0999999999999998e-01 -1.0703008097999476e+00 -1.0459683588470346e+01 -4.3404280724105426e-01 3 2 4
2557 853 1 -8.1999999999999995e-01 -4.4970066030593152e+00 -1.0095345618507327e+01 -6.2317596425629400e+00 -4 -2 -1
1616 539 2 4.0999999999999998e-01 -2.1094499127846955e+00 -7.2675553611174921e+00 -6.2390307384297579e+00 -1 0 3
382 128 1 -8.1999999999999995e-01 -3.6978784144335286e-01 -1.0753130252122656e+01 -1.8508185664149277e+00 1 1 -2
285 95 2 4.0999999999999998e-01 -6.1593172425390055e+00 -1.4626061267145188e+01 -6.3389212592088917e+00 0 1 -2
2572 858 1 -8.1999999999999995e-01 -4.4178865666204299e+00 -7.9506286073158687e+00 -4.2990535574353892e+00 -2 2 2
384 128 2 4.0999999999999998e-01 -6.8249287841605266e-01 -1.1406803869241470e+01 -2.5399823137778608e+00 1 1 -2
1590 530 2 4.0999999999999998e-01 -1.4219775408648996e+00 -8.5306813215442610e+00 -3.6929299668050479e+00 -1 2 1
18 6 2 4.0999999999999998e-01 -1.5431802108291581e+00 -1.2182607279657528e+01 -6.8677348409568335e+00 0 4 3
508 170 1 -8.1999999999999995e-01 -4.1458014314048111e+00 -1.4297452541888813e+01 -2.0383430479243714e-01 -1 1 1
1799 600 2 4.0999999999999998e-01 -1.5985390087859717e+00 -1.2619930395610190e+01 -4.2969076307884571e+00 -1 -1 3
2559 853 2 4.0999999999999998e-01 -3.6640610739360913e+00 -1.0448355334475963e+01 -6.6579123973723782e+00 -4 -2 -1
2573 858 2 4.0999999999999998e-01 -4.6591678547383442e+00 -8.8859044312246365e+00 -4.5580183666560341e+00 -2 2 2
444 148 2 4.0999999999999998e-01 -4.6301114932842573e+00 -1.4612449861353127e+01 -2.8088903520223809e+00 -1 -4 2
1798 600 1 -8.1999999999999995e-01 -1.9106285181035076e+00 -1.2556740089493722e+01 -3.3489480223315482e+00 -1 -1 3
2574 858 2 4.0999999999999998e-01 -4.6160115327607052e+00 -7.3324991876060350e+00 -5.0597656159933937e+00 -2 2 2
475 159 1 -8.1999999999999995e-01 -5.5615296862143566e+00 -6.6698943941618634e+00 -6.5179969658272352e+00 -2 0 2
1589 530 2 4.0999999999999998e-01 -1.0011470097380126e-01 -7.7464562227050848e+00 -3.1412505864880025e+00 -1 2 1
1615 539 1 -8.1999999999999995e-01 -1.5132263525266190e+00 -8.0509118131286499e+00 -6.4147873649378973e+00 -1 0 3
898 300 1 -8.1999999999999995e-01 -4.6609429978512669e+00 -1.2705003438402006e+01 -2.2960087650571719e+00 0 -1 0
840 280 2 4.0999999999999998e-01 -3.3966142706907210e+00 -6.5747110971674800e+00 -3.1455571769925985e+00 0 1 0
17 6 2 4.0999999999999998e-01 -1.8920273428912413e+00 -1.3772022357688638e+01 -6.7308190743754288e+00 0 4 3
546 182 2 4.0999999999999998e-01 -1.6365168783264394e+00 -5.2459266922507730e+00 -8.9398316653149124e-01 -3 0 -3
1617 539 2 4.0999999999999998e-01 -5.9403058351396787e-01 -7.8532229131081497e+00 -6.0741724549336222e+00 -1 0 3
1846 616 1 -8.1999999999999995e-01 -2.3509766212924479e+00 -5.2293108635834322e+00 -6.0185947883562942e+00 3 -4 2
383 128 2 4.0999999999999998e-01 -3.6517181125672238e-01 -9.8328698525849276e+00 -2.2421238040766287e+00 1 1 -2
888 296 2 4.0999999999999998e-01 -4.9285642219016292e+00 -8.1618551715150574e+00 -4.9328538923709786e-01 2 2 2
1601 534 2 4.0999999999999998e-01 -4.2068558491830021e+00 -1.3725638534449338e+01 -7.2505986371880313e+00 -1 1 1
624 208 2 4.0999999999999998e-01 -1.4351648894772088e+01 -9.7035884545087061e+00 5.4915788663926470e+00 1 2 0
1277 426 2 4.0999999999999998e-01 -8.9795121398401498e+00 -1.2620364910557639e+01 2.9500505304968243e+00 -2 1 -1
1276 426 1 -8.1999999999999995e-01 -8.4981200501043297e+00 -1.2332046374523692e+01 2.1223100338084251e+00 -2 1 -1
1278 426 2 4.0999999999999998e-01 -8.5449184800620301e+00 -1.3060409066646264e+01 1.4387034297811319e+00 -2 1 -1
2106 702 2 4.0999999999999998e-01 -1.1909268378877643e+01 -1.4301254319340513e+01 6.7147119432670834e+00 -2 0 -2
1254 418 2 4.0999999999999998e-01 -1.0236994431728682e+01 -7.2018069175446362e+00 2.9536738476562903e+00 -2 -1 3
1252 418 1 -8.1999999999999995e-01 -1.0848258978409143e+01 -7.9609656877016750e+00 3.1774011750191953e+00 -2 -1 3
1253 418 2 4.0999999999999998e-01 -1.0544515114593274e+01 -8.3945819816845386e+00 4.0257742494093591e+00 -2 -1 3
1212 404 2 4.0999999999999998e-01 -1.0627067355897758e+01 -8.8802160642166044e+00 1.5836205219720760e+00 -3 -1 1
19 7 1 -8.1999999999999995e-01 -1.2513769472108599e+01 -1.0790187044145320e+01 3.5369193579903602e+00 0 -2 2
21 7 2 4.0999999999999998e-01 -1.2540682378801714e+01 -1.0393397821210069e+01 4.4544454505055242e+00 0 -2 2
2204 735 2 4.0999999999999998e-01 -8.5334230282239467e+00 -5.7704509287357286e+00 6.4427041917536627e+00 2 -2 -1
2203 735 1 -8.1999999999999995e-01 -7.7945051703186428e+00 -5.1376753178544945e+00 6.2111535571612002e+00 2 -2 -1
1797 599 2 4.0999999999999998e-01 -1.3782543849053116e+01 -1.3626500268071593e+01 5.3643450927871434e+00 1 4 1
883 295 1 -8.1999999999999995e-01 -8.9309551916325898e+00 -1.4491149036737141e+01 6.7083192902423860e-01 -2 1 -2
219 73 2 4.0999999999999998e-01 -1.2865112277077543e+01 -6.3057047826671031e+00 5.3026555978149368e+00 -2 2 1
20 7 2 4.0999999999999998e-01 -1.3226080493976088e+01 -1.0373130864102198e+01 2.9723864060564651e+00 0 -2 2
1417 473 1 -8.1999999999999995e-01 -8.9292849222841255e+00 -5.7060728706619539e+00 2.6823573915047199e+00 2 -1 1
1516 506 1 -8.1999999999999995e-01 -1.2375237239176332e+01 -5.9443641673062952e+00 7.4554869567869098e+00 1 3 1
1211 404 2 4.0999999999999998e-01 -1.0342832646890120e+01 -8.3900331130230086e+00 5.2081462707196380e-02 -3 -1 1
97 33 1 -8.1999999999999995e-01 -1.0256867644608025e+01 -1.2454764715079397e+01 4.5413084456654325e+00 2 -2 -3
1034 345 2 4.0999999999999998e-01 -8.5907499981485902e+00 -1.1537086740337017e+01 7.3882096846493006e-01 -2 -1 1
2100 700 2 4.0999999999999998e-01 -1.2430151640563700e+01 -1.1031108259449788e+01 6.5811464406839484e+00 0 4 -3
2098 700 1 -8.1999999999999995e-01 -1.2780796817624104e+01 -1.0145438211548143e+01 6.2767506769785655e+00 0 4 -3
217 73 1 -8.1999999999999995e-01 -1.3068484705978261e+01 -6.7550067081712282e+00 4.4327201133550211e+00 -2 2 1
2078 693 2 4.0999999999999998e-01 -1.4089796669671273e+01 -1.0630099446396581e+01 1.2860731324705696e+00 0 2 -1
1795 599 1 -8.1999999999999995e-01 -1.3512174228954011e+01 -1.3206723598545285e+01 6.2307791854303964e+00 1 4 1
941 314 2 4.0999999999999998e-01 -9.1613278887605638e+00 -9.7507593061883000e+00 4.7732252997803464e+00 -1 2 0
2077 693 1 -8.1999999999999995e-01 -1.4695701670590573e+01 -1.0433887983655604e+01 2.0570468075519344e+00 0 2 -1
218 73 2 4.0999999999999998e-01 -1.2220466911221386e+01 -7.0973252762828274e+00 4.0281164694922680e+00 -2 2 1
2496 832 2 4.0999999999999998e-01 -1.0210286191295937e+01 -1.2650306303952078e+01 6.5263971687618039e+00 2 4 -4
1856 619 2 4.0999999999999998e-01 -1.3894113741944210e+01 -5.6844735982381511e+00 1.0604927694312600e+00 -1 4 3