LAMMPS data file via write_data, version 15 May 2015, timestep = 23005000

2611 atoms
6 atom types
1749 bonds
4 bond types
894 angles
3 angle types
44 dihedrals
3 dihedral types
10 impropers
1 improper types

-1.5004388260229575e+01 1.5004388260229575e+01 xlo xhi
-1.5004388260229575e+01 1.5004388260229575e+01 ylo yhi
-1.5004388260229575e+01 1.5004388260229575e+01 zlo zhi

Masses

1 15.9994
2 1.00794
3 12.0107
4 1.00794
5 12.0107
6 12.0107

Bond Coeffs # harmonic

1 1000 1
2 469 1.4
3 367 1.08
4 469 0.7

Angle Coeffs # harmonic

1 100 109.47
2 35 120
3 63 120

Dihedral Coeffs # opls

1 0 7.25 0 0
2 0 7.25 0 0
3 0 7.25 0 0

Improper Coeffs # cvff

1 2.5 -1 2

Atoms # full

2045 682 2 4.0999999999999998e-01 -1.1716971452898743e+01 -6.8406369037893011e+00 -1.0620013981417161e+01 -1 -1 6
2232 744 2 4.0999999999999998e-01 -1.3317382128221272e+01 -1.3689331297181528e+01 -1.0176037898862770e+01 -2 0 3
1786 596 1 -8.1999999999999995e-01 -9.8068823317208658e+00 -1.2211017228054978e+01 -9.8295503676601932e+00 1 -2 -1
1788 596 2 4.0999999999999998e-01 -1.0633411522167036e+01 -1.2760641760543425e+01 -9.9506151669123710e+00 1 -2 -1
1787 596 2 4.0999999999999998e-01 -9.9623840624223430e+00 -1.1291383616541594e+01 -1.0190088543903958e+01 1 -2 -1
2230 744 1 -8.1999999999999995e-01 -1.2509579559950863e+01 -1.3422926764562913e+01 -1.0701754538406764e+01 -2 0 3
2231 744 2 4.0999999999999998e-01 -1.2658673532738538e+01 -1.3628425243526907e+01 -1.1668933803761309e+01 -2 0 3
201 67 2 4.0999999999999998e-01 -9.1472495122514381e+00 -5.4012956377407715e+00 -1.1335433569392119e+01 -1 4 0
205 69 1 -8.1999999999999995e-01 -8.3163131552780047e+00 -1.0319722391344065e+01 -1.3503162097540173e+01 -1 -1 -1
207 69 2 4.0999999999999998e-01 -9.1648490742998607e+00 -1.0372836480236192e+01 -1.2976797038779438e+01 -1 -1 -1
206 69 2 4.0999999999999998e-01 -7.6164607968584468e+00 -1.0883769077131447e+01 -1.3065038284182815e+01 -1 -1 -1
2044 682 1 -8.1999999999999995e-01 -1.1216813960885638e+01 -7.2054208209096648e+00 -1.1405297063232965e+01 -1 -1 6
2046 682 2 4.0999999999999998e-01 -1.1791976167381236e+01 -7.1507196049562474e+00 -1.2221440766487579e+01 -1 -1 6
376 126 1 -8.1999999999999995e-01 -9.8310907590846135e+00 -1.4481938908212888e+01 -1.2936638060393975e+01 1 1 11
1589 530 2 4.0999999999999998e-01 -1.3112975845030336e+01 -1.3615921170399988e+01 -1.4383504390948634e+01 5 4 2
1481 494 2 4.0999999999999998e-01 -9.2033265033707057e+00 -1.4067315892073298e+01 -9.8546442745745857e+00 -2 4 1
1588 530 1 -8.1999999999999995e-01 -1.3303398719663056e+01 -1.2676599921013491e+01 -1.4668651850856412e+01 5 4 2
2437 813 1 -8.1999999999999995e-01 -1.0452766546496735e+01 -1.0004489531549453e+01 -1.1295351705630134e+01 -7 3 -2
2438 813 2 4.0999999999999998e-01 -1.1444468658971061e+01 -1.0132070725916126e+01 -1.1283334788330158e+01 -7 3 -2
2439 813 2 4.0999999999999998e-01 -1.0231311819124732e+01 -9.0834403014834564e+00 -1.0975163345097943e+01 -7 3 -2
2224 742 1 -8.1999999999999995e-01 -1.3261974538244655e+01 -5.0829486300524138e+00 -1.4671369738773571e+01 1 2 1
1911 637 2 4.0999999999999998e-01 -1.3521077856775833e+01 -8.1927257229143535e+00 -1.3297088504913514e+01 -4 3 -1
1480 494 1 -8.1999999999999995e-01 -9.5957399391349565e+00 -1.4977372088951382e+01 -9.9876995802843904e+00 -2 4 1
193 65 1 -8.1999999999999995e-01 -8.1455410921716584e+00 -7.6139855116731097e+00 -9.1205121174884471e+00 -1 -2 7
1910 637 2 4.0999999999999998e-01 -1.3340408976605977e+01 -6.6227769130797949e+00 -1.3708141322556171e+01 -4 3 -1
194 65 2 4.0999999999999998e-01 -9.1102816888921421e+00 -7.8481579459544433e+00 -9.0007908345197407e+00 -1 -2 7
2190 730 2 4.0999999999999998e-01 -1.4965809273758003e+01 -7.2351938160545952e+00 -1.1581613220116681e+01 1 2 9
1909 637 1 -8.1999999999999995e-01 -1.3600712639633713e+01 -7.2497791123396036e+00 -1.2973971920133454e+01 -4 3 -1
14 5 2 4.0999999999999998e-01 -8.0100998761808739e+00 -9.5776649322386440e+00 -9.1134790095237435e+00 -3 -5 2
510 170 2 4.0999999999999998e-01 -1.3165688109610901e+01 -1.1011447139912599e+01 -1.4112183402272908e+01 -4 5 0
195 65 2 4.0999999999999998e-01 -7.7544833484519176e+00 -7.3509590894234620e+00 -8.2385907422699596e+00 -1 -2 7
1675 559 1 -8.1999999999999995e-01 -1.4245345685557036e+01 -8.7362442012671178e+00 -9.2172678185736210e+00 -4 -5 9
2156 719 2 4.0999999999999998e-01 -1.3385761806833546e+01 -5.4102953340896569e+00 -9.3064174352012543e+00 -2 6 1
1954 652 1 -8.1999999999999995e-01 -1.3075826137833253e+01 -1.0383538520725786e+01 -1.1038472830350793e+01 0 5 -1
2157 719 2 4.0999999999999998e-01 -1.3333439273036884e+01 -6.8992797367604872e+00 -8.6381864707119025e+00 -2 6 1
1354 452 1 -8.1999999999999995e-01 -7.8654454764550215e+00 -1.3872151436825824e+01 -7.6502152586184158e+00 -3 -5 4
1955 652 2 4.0999999999999998e-01 -1.3217408324321809e+01 -1.1300487387742550e+01 -1.0665573587661850e+01 0 5 -1
133 45 1 -8.1999999999999995e-01 -1.0177398691260144e+01 -9.2573011814025250e+00 -7.6424685937563854e+00 0 -4 7
1956 652 2 4.0999999999999998e-01 -1.3333405441229290e+01 -1.0373209531547900e+01 -1.2004620176866691e+01 0 5 -1
508 170 1 -8.1999999999999995e-01 -1.3397268804920426e+01 -1.0139827801407428e+01 -1.3680275523822313e+01 -4 5 0
509 170 2 4.0999999999999998e-01 -1.3817660975676944e+01 -9.5343385738252131e+00 -1.4355958528571620e+01 -4 5 0
1595 532 2 4.0999999999999998e-01 -1.0201473093821370e+01 -1.4103436234201755e+01 -1.4873236043699739e+01 -4 2 -2
2155 719 1 -8.1999999999999995e-01 -1.2791017882835124e+01 -6.0978534067877987e+00 -8.8899586265662158e+00 -2 6 1
1861 621 1 -8.1999999999999995e-01 -1.4737277066264184e+01 -1.3275104087059583e+01 -8.8944672285684554e+00 -1 4 0
15 5 2 4.0999999999999998e-01 -8.6023897109305274e+00 -1.1060010752037892e+01 -8.7696935820706550e+00 -3 -5 2
13 5 1 -8.1999999999999995e-01 -7.7696854186925259e+00 -1.0512710630794052e+01 -8.8531235916848061e+00 -3 -5 2
1676 559 2 4.0999999999999998e-01 -1.3646001875556639e+01 -9.1920321639196292e+00 -9.8752486202705576e+00 -4 -5 9
378 126 2 4.0999999999999998e-01 -8.8727007780561493e+00 -1.4461800789822748e+01 -1.3221203351546015e+01 1 1 11
1862 621 2 4.0999999999999998e-01 -1.4531177068828365e+01 -1.3833769237777782e+01 -8.0911550111721304e+00 -1 4 0
377 126 2 4.0999999999999998e-01 -9.8816514714382713e+00 -1.4529426705271323e+01 -1.1939099673053615e+01 1 1 11
1677 559 2 4.0999999999999998e-01 -1.4930009884387836e+01 -8.1972351671036776e+00 -9.7077762557632035e+00 -4 -5 9
1763 588 2 4.0999999999999998e-01 -9.4613528826695692e-01 -1.3725873436889612e+01 -8.5083676527399454e+00 3 2 7
1155 385 2 4.0999999999999998e-01 -6.9597770723355517e+00 -1.4787449692872649e+01 -1.2478937454678629e+01 -1 -2 2
1766 589 2 4.0999999999999998e-01 -2.2990630217850594e-01 -1.3747274530699034e+01 -1.1813476796616667e+01 6 3 8
522 174 2 4.0999999999999998e-01 -7.4952598112770392e+00 -1.1356841829968534e+01 -1.0746204427023889e+01 -1 3 -3
721 241 1 -8.1999999999999995e-01 -1.1311077605675202e+00 -1.1781225929141817e+01 -8.0537309992530979e+00 -5 -1 7
422 141 2 4.0999999999999998e-01 -6.9272915137514488e+00 -7.3090927600908575e+00 -1.1556622095763942e+01 1 -3 9
1525 509 1 -8.1999999999999995e-01 -5.0321416341756642e+00 -5.1526780415306153e+00 -8.5546415148348665e+00 4 -1 4
1765 589 1 -8.1999999999999995e-01 -1.1349308426165869e+00 -1.3632746545458248e+01 -1.2222998737608622e+01 6 3 8
255 85 2 4.0999999999999998e-01 -2.9239695455508183e+00 -6.0847448824071808e+00 -1.3400602502053109e+01 4 5 4
1655 552 2 4.0999999999999998e-01 -4.7946189295247876e-01 -8.2934218327055973e+00 -8.3005175555449320e+00 -5 -4 4
1527 509 2 4.0999999999999998e-01 -4.7582072161515505e+00 -6.0892625349146190e+00 -8.3363211852627206e+00 4 -1 4
618 206 2 4.0999999999999998e-01 -6.6193384646232118e+00 -5.4996292472069470e+00 -1.2861448406878967e+01 -2 -2 0
553 185 1 -8.1999999999999995e-01 -6.4062304351196939e+00 -1.4423288278701898e+01 -1.0614502075257912e+01 -4 4 4
2497 833 1 -8.1999999999999995e-01 -4.1781380713961926e+00 -1.0855878943366044e+01 -1.2057515468848635e+01 3 3 -1
1656 552 2 4.0999999999999998e-01 -1.0102960799956744e+00 -7.6396784807989233e+00 -9.6995098351380520e+00 -5 -4 4
722 241 2 4.0999999999999998e-01 -3.7255995401876341e-01 -1.1342196538962117e+01 -7.5723238665613444e+00 -5 -1 7
1767 589 2 4.0999999999999998e-01 -1.4130057525277167e+00 -1.4487413152711412e+01 -1.2661306480580787e+01 6 3 8
965 322 2 4.0999999999999998e-01 -2.9041130413549681e+00 -7.7453742107736439e+00 -8.6681563676427160e+00 0 2 5
2183 728 2 4.0999999999999998e-01 -2.2111512304846741e+00 -5.8336961740925606e+00 -7.7823562363016077e+00 -2 -2 5
423 141 2 4.0999999999999998e-01 -7.1973868697647703e+00 -7.5715899478452640e+00 -1.3145486079704256e+01 1 -3 9
1519 507 1 -8.1999999999999995e-01 -5.2159490937676392e+00 -1.0340985995684154e+01 -8.0594542597090744e+00 -5 -4 0
555 185 2 4.0999999999999998e-01 -5.4332958437886791e+00 -1.4223718247608598e+01 -1.0498464510186544e+01 -4 4 4
421 141 1 -8.1999999999999995e-01 -7.4426453015937009e+00 -7.0060314850271928e+00 -1.2358157467780192e+01 1 -3 9
723 241 2 4.0999999999999998e-01 -1.6183805692102311e+00 -1.1099775968330059e+01 -8.5997031445141054e+00 -5 -1 7
253 85 1 -8.1999999999999995e-01 -2.5897064947026980e+00 -7.0065242681368751e+00 -1.3204425701345908e+01 4 5 4
1521 507 2 4.0999999999999998e-01 -6.1720952000914977e+00 -1.0387621524765901e+01 -8.3484250826040789e+00 -5 -4 0
679 227 1 -8.1999999999999995e-01 -4.9844408957928898e-01 -7.8481342627662851e+00 -1.1373979767482469e+01 -5 0 4
964 322 1 -8.1999999999999995e-01 -3.8721040118684229e+00 -7.7361495207032407e+00 -8.4175511074185660e+00 0 2 5
680 227 2 4.0999999999999998e-01 -1.1583549356220360e+00 -7.7183657152556249e+00 -1.2113961023563981e+01 -5 0 4
656 219 2 4.0999999999999998e-01 -3.9455571489856549e+00 -1.3424216321273262e+01 -1.4039978236807471e+01 -3 4 -3
254 85 2 4.0999999999999998e-01 -3.2710403497520186e+00 -7.5001478455749258e+00 -1.2664042225956038e+01 4 5 4
1641 547 2 4.0999999999999998e-01 -9.3638345267220835e-01 -1.1291053793714786e+01 -1.4737624741406629e+01 2 -2 8
1520 507 2 4.0999999999999998e-01 -4.7717297094047364e+00 -9.5618911166762981e+00 -8.5016927479610427e+00 -5 -4 0
7 3 1 -8.1999999999999995e-01 -3.8576380271734276e+00 -1.3382102798887297e+01 -9.9014927853406274e+00 -6 -6 6
1639 547 1 -8.1999999999999995e-01 -8.6452691844263363e-01 -1.2268074866525248e+01 -1.4537222773511035e+01 2 -2 8
432 144 2 4.0999999999999998e-01 -1.4716052720186870e+00 -9.4620205842697658e+00 -1.0307304702960788e+01 -4 7 4
657 219 2 4.0999999999999998e-01 -2.8230764764377536e+00 -1.2338810714758253e+01 -1.4517761116175313e+01 -3 4 -3
280 94 1 -8.1999999999999995e-01 -2.2645642843637006e+00 -9.1606300787477437e+00 -1.4758908645531758e+01 -2 2 -3
650 217 2 4.0999999999999998e-01 -3.4901748032634750e-01 -6.0073228661377804e+00 -1.4439420374027915e+01 0 -2 4
430 144 1 -8.1999999999999995e-01 -2.0674295665167630e+00 -1.0223050515038411e+01 -1.0050943347740011e+01 -4 7 4
4 2 1 -8.1999999999999995e-01 -4.5275884762503971e+00 -8.1197362078773274e+00 -1.1306039165597248e+01 -7 5 -8
1654 552 1 -8.1999999999999995e-01 -1.1825864561037385e+00 -7.7176201844723700e+00 -8.7176058418620865e+00 -5 -4 4
281 94 2 4.0999999999999998e-01 -2.3981795060966427e+00 -8.4001443093317896e+00 -1.4123532636086253e+01 -2 2 -3
1640 547 2 4.0999999999999998e-01 -6.2549765332504492e-01 -1.2394138801172776e+01 -1.3574483266640488e+01 2 -2 8
655 219 1 -8.1999999999999995e-01 -3.6593047578756170e+00 -1.2467704997793845e+01 -1.3984841804458775e+01 -3 4 -3
2499 833 2 4.0999999999999998e-01 -5.1281334942584813e+00 -1.1117730919883853e+01 -1.1887701993067417e+01 3 3 -1
5 2 2 4.0999999999999998e-01 -4.4416464940174478e+00 -7.8658891253582901e+00 -1.0342675242421020e+01 -7 5 -8
520 174 1 -8.1999999999999995e-01 -6.9811177235145383e+00 -1.1923646773554410e+01 -1.1389853712507042e+01 -1 3 -3
9 3 2 4.0999999999999998e-01 -4.0728271436554664e+00 -1.3303133599669749e+01 -8.9281726302782509e+00 -6 -6 6
1154 385 2 4.0999999999999998e-01 -7.0353513791282127e+00 -1.4703981495516066e+01 -1.4107945200137603e+01 -1 -2 2
2498 833 2 4.0999999999999998e-01 -3.8274163925523812e+00 -1.1365142576781709e+01 -1.2843352092939238e+01 3 3 -1
521 174 2 4.0999999999999998e-01 -6.8735482862094504e+00 -1.2843174640247794e+01 -1.1011975724427437e+01 -1 3 -3
6 2 2 4.0999999999999998e-01 -4.4955829118101587e+00 -9.1154257709996855e+00 -1.1392481880614218e+01 -7 5 -8
431 144 2 4.0999999999999998e-01 -2.5393223485282856e+00 -1.0565221511837974e+01 -1.0863427521084056e+01 -4 7 4
1762 588 1 -8.1999999999999995e-01 -5.7572178761109605e-01 -1.4652520895195936e+01 -8.4450223423926598e+00 3 2 7
8 3 2 4.0999999999999998e-01 -3.4186763820894939e+00 -1.2540190186640427e+01 -1.0215164820053641e+01 -6 -6 6
2441 814 2 4.0999999999999998e-01 -1.3104508494094610e+01 -1.1208300665571313e+01 -1.3503884408725231e+00 -2 -3 3
1184 395 2 4.0999999999999998e-01 -1.2643644094442521e+01 -6.2295131198190514e+00 -3.2816569155035697e+00 -1 -1 4
1384 462 1 -8.1999999999999995e-01 -1.2070918732779244e+01 -9.0767668600917659e+00 -5.3572979301492669e+00 1 2 4
1183 395 1 -8.1999999999999995e-01 -1.3027901159424097e+01 -6.5445159628311398e+00 -4.1494207423314364e+00 -1 -1 4
1158 386 2 4.0999999999999998e-01 -1.2599043327984431e+01 -1.0891155618118379e+01 -5.5789637911686860e+00 2 1 0
998 333 2 4.0999999999999998e-01 -1.3407869585299645e+01 -1.4088783063857820e+01 -4.8768144597015493e+00 -7 4 3
2440 814 1 -8.1999999999999995e-01 -1.3736276177686307e+01 -1.1592443709534571e+01 -2.0235884087925733e+00 -2 -3 3
2442 814 2 4.0999999999999998e-01 -1.3315346196063906e+01 -1.1563552901902311e+01 -2.9301631572079625e+00 -2 -3 3
1386 462 2 4.0999999999999998e-01 -1.2456304076621056e+01 -8.2291224316089888e+00 -4.9927824563445640e+00 1 2 4
1428 476 2 4.0999999999999998e-01 -8.6830692834612346e+00 -6.3691513914694902e+00 -5.9280890910261750e+00 -8 3 1
1385 462 2 4.0999999999999998e-01 -1.1107661395945598e+01 -9.1437593653731923e+00 -5.0974102107127912e+00 1 2 4
1435 479 1 -8.1999999999999995e-01 -1.0706625979707034e+01 -1.3016486330430350e+01 -6.3302872664865895e+00 0 -2 3
1185 395 2 4.0999999999999998e-01 -1.2889581269818102e+01 -5.8436907322206206e+00 -4.8491391893127762e+00 -1 -1 4
1436 479 2 4.0999999999999998e-01 -9.9886859395518321e+00 -1.3178096857873104e+01 -5.6532802986149342e+00 0 -2 3
2336 779 2 4.0999999999999998e-01 -8.5636322374908165e+00 -1.4036107505445843e+01 -5.0360494970909464e+00 -1 2 5
300 100 2 4.0999999999999998e-01 -8.4051227057711326e+00 -9.9365369016411051e+00 -4.6208890443342501e+00 2 -2 5
809 270 2 4.0999999999999998e-01 -7.5053743669105701e+00 -9.3442060373767397e+00 -2.0116975902660279e+00 -5 -5 -2
917 306 2 4.0999999999999998e-01 -1.2158013680035044e+01 -6.1552815486677908e+00 -1.1255767421512761e+00 -5 4 1
808 270 1 -8.1999999999999995e-01 -8.0634897928558207e+00 -9.2913760143837933e+00 -2.8397136122067881e+00 -5 -5 -2
298 100 1 -8.1999999999999995e-01 -8.8514450190576444e+00 -1.0173288619497892e+01 -5.4838139597383506e+00 2 -2 5
810 270 2 4.0999999999999998e-01 -8.7437977546991554e+00 -8.5657043556842503e+00 -2.7373609923034756e+00 -5 -5 -2
2244 748 2 4.0999999999999998e-01 -1.0541945488123183e+01 -6.5885916572067309e+00 -2.7113336030997175e+00 -2 3 7
2242 748 1 -8.1999999999999995e-01 -9.7684421490542768e+00 -7.0116838290499324e+00 -3.1831173904247798e+00 -2 3 7
2243 748 2 4.0999999999999998e-01 -9.5448472346050384e+00 -6.4798774607943361e+00 -3.9998680512026592e+00 -2 3 7
299 100 2 4.0999999999999998e-01 -8.8993015119737500e+00 -1.1168160226683758e+01 -5.5723279485829558e+00 2 -2 5
1696 566 1 -8.1999999999999995e-01 -1.0672603968100548e+01 -1.0566622724834485e+01 -2.7531102326555459e+00 0 2 -1
1697 566 2 4.0999999999999998e-01 -1.0823635131514546e+01 -1.1494366129304742e+01 -3.0942497525390262e+00 0 2 -1
1698 566 2 4.0999999999999998e-01 -9.6918349838639788e+00 -1.0409411678269887e+01 -2.6379089824077564e+00 0 2 -1
888 296 2 4.0999999999999998e-01 -1.0537099713297552e+01 -1.3768496067485813e+01 -1.6796199942350380e+00 4 5 7
2337 779 2 4.0999999999999998e-01 -8.6271198697799214e+00 -1.3135403500234027e+01 -3.6755178416167560e+00 -1 2 5
419 140 2 4.0999999999999998e-01 -1.4129268528881939e+01 -7.8976429353801256e+00 -3.4171831527911660e+00 -7 3 2
2335 779 1 -8.1999999999999995e-01 -8.6225602376562911e+00 -1.3105478666267990e+01 -4.6750067344927739e+00 -1 2 5
886 296 1 -8.1999999999999995e-01 -9.6619863066248897e+00 -1.3787175382992947e+01 -2.1630681700902201e+00 4 5 7
1426 476 1 -8.1999999999999995e-01 -9.2364099231697132e+00 -5.6993847287573978e+00 -5.4329918526549381e+00 -8 3 1
443 148 2 4.0999999999999998e-01 -8.3126387518019076e+00 -6.0768046188884739e+00 -2.3750329693566616e+00 0 -7 3
1157 386 2 4.0999999999999998e-01 -1.2354891454229774e+01 -1.2461232240684083e+01 -5.9552535439157115e+00 2 1 0
1156 386 1 -8.1999999999999995e-01 -1.2917364041208009e+01 -1.1826565928067289e+01 -5.4254256656278894e+00 2 1 0
841 281 1 -8.1999999999999995e-01 -1.1637848864311735e+01 -5.2661111324065981e+00 -6.6435632350431781e+00 -4 3 5
997 333 1 -8.1999999999999995e-01 -1.3538556565964733e+01 -1.4858281883001657e+01 -4.2517648187906776e+00 -7 4 3
1437 479 2 4.0999999999999998e-01 -1.0908104332521535e+01 -1.3869038280368308e+01 -6.8124241191113217e+00 0 -2 3
644 215 2 4.0999999999999998e-01 -1.4532924433131965e+01 -1.3414209495915319e+01 -2.0752618883700968e+00 1 -1 5
2458 820 1 -8.1999999999999995e-01 -1.1463868213882854e+01 -1.3519715516764078e+01 -5.8122504798641117e-02 -3 -4 -2
134 45 2 4.0999999999999998e-01 -9.4665266148604257e+00 -9.5465321150997919e+00 -7.0014530946450222e+00 0 -4 7
1278 426 2 4.0999999999999998e-01 -1.4371354925957981e+01 -1.1134341030004713e+01 -4.8088659328094021e+00 -4 0 1
1690 564 1 -8.1999999999999995e-01 -1.1954144525199457e+01 -1.0020237629098123e+01 -1.0766526522045439e-01 0 2 1
916 306 1 -8.1999999999999995e-01 -1.1691199017819013e+01 -5.6001550347743301e+00 -1.8139174758176555e+00 -5 4 1
1356 452 2 4.0999999999999998e-01 -8.3236365125353196e+00 -1.4550342071137216e+01 -7.0757479013519857e+00 -3 -5 4
1427 476 2 4.0999999999999998e-01 -1.0142945617212638e+01 -5.6417113488119099e+00 -5.8510366659060988e+00 -8 3 1
887 296 2 4.0999999999999998e-01 -8.9370182083121925e+00 -1.4057644313061434e+01 -1.5296944834224657e+00 4 5 7
1691 564 2 4.0999999999999998e-01 -1.1646297627876278e+01 -1.0056980327180067e+01 -1.0583361995226888e+00 0 2 1
442 148 1 -8.1999999999999995e-01 -8.0081526846860740e+00 -5.6901781701755709e+00 -1.5045718312808258e+00 0 -7 3
947 316 2 4.0999999999999998e-01 -8.0788932334404819e+00 -6.8077933214825155e+00 -1.3152411706971101e-01 5 1 0
842 281 2 4.0999999999999998e-01 -1.1940075905255910e+01 -5.9608451341807331e+00 -7.2961717354792688e+00 -4 3 5
1355 452 2 4.0999999999999998e-01 -8.2041874689156185e+00 -1.2959229790919888e+01 -7.4227900626416714e+00 -3 -5 4
135 45 2 4.0999999999999998e-01 -1.1057521515813853e+01 -9.6370013704480346e+00 -7.3576773051574529e+00 0 -4 7
1377 459 2 4.0999999999999998e-01 -3.7294118780652497e-01 -1.4123983491130209e+01 -1.3630059034796744e+00 0 0 -1
1401 467 2 4.0999999999999998e-01 -7.4012503434246142e+00 -8.7147523684243264e+00 -6.1444294430506901e+00 -3 3 2
351 117 2 4.0999999999999998e-01 -4.6528065000265606e+00 -1.3923377313961343e+01 -6.8618428729329342e+00 -2 2 1
1030 344 1 -8.1999999999999995e-01 -5.0393235810028827e+00 -6.2938207748494879e+00 -2.0627513852671182e+00 -4 -1 1
1988 663 2 4.0999999999999998e-01 -1.2683181746159899e+00 -5.1638945698549641e+00 -5.6208956651918935e+00 -3 1 -2
1399 467 1 -8.1999999999999995e-01 -6.8733705813398220e+00 -7.9797122911358169e+00 -6.5698155740984774e+00 -3 3 2
413 138 2 4.0999999999999998e-01 -2.7658451079107440e+00 -1.4826895708129831e+01 -5.1846191349874218e+00 0 2 -2
2548 850 1 -8.1999999999999995e-01 -6.1347103614253093e+00 -1.0044763962542252e+01 -7.4188968002550482e-01 6 -1 5
1400 467 2 4.0999999999999998e-01 -6.0071025120282204e+00 -7.8668400626564354e+00 -6.0832624736113416e+00 -3 3 2
2550 850 2 4.0999999999999998e-01 -6.6741340807392326e+00 -1.0547071979894831e+01 -6.6165526703935384e-02 6 -1 5
625 209 1 -8.1999999999999995e-01 -3.6694983616657293e+00 -1.2298716635656023e+01 -7.2363650549876901e+00 0 -4 -1
2182 728 1 -8.1999999999999995e-01 -2.1666007889776413e+00 -5.2012571880239431e+00 -7.0090965380905033e+00 -2 -2 5
1376 459 2 4.0999999999999998e-01 -1.5438125400254314e+00 -1.4110986251613983e+01 -2.5010904552917559e+00 0 0 -1
2078 693 2 4.0999999999999998e-01 -2.0651297267238924e+00 -9.8127850439361026e+00 -8.0604822712837887e-01 -5 2 3
676 226 1 -8.1999999999999995e-01 -5.4312400237815517e-01 -9.2669213742647933e+00 -4.4344272233291591e+00 0 1 2
327 109 2 4.0999999999999998e-01 -5.6039888506415068e+00 -1.0238095622334384e+01 -6.3054508460654457e+00 -4 2 6
2079 693 2 4.0999999999999998e-01 -9.8085200267458994e-01 -8.6500801391911537e+00 -4.3348429787122811e-01 -5 2 3
1028 343 2 4.0999999999999998e-01 -4.3247313753510568e+00 -1.4218830152350602e+01 -3.2076991384445819e-01 2 0 -1
1844 615 2 4.0999999999999998e-01 -1.7753120273297931e+00 -6.5359937274559314e+00 -3.5108417822517062e+00 4 4 1
2549 850 2 4.0999999999999998e-01 -5.2596630845827104e+00 -1.0508238581125468e+01 -8.8109406492070264e-01 6 -1 5
1031 344 2 4.0999999999999998e-01 -5.5482300214531595e+00 -6.7645134953635200e+00 -1.3420871550083806e+00 -4 -1 1
325 109 1 -8.1999999999999995e-01 -5.6423787134889256e+00 -1.0353900538436253e+01 -5.3129742640343220e+00 -4 2 6
2037 679 2 4.0999999999999998e-01 -3.6466267021971923e+00 -1.2462582158221053e+01 -3.8968795249818271e+00 -5 3 -2
678 226 2 4.0999999999999998e-01 -5.5877926815652401e-01 -9.9818887848636564e+00 -3.7355200593485343e+00 0 1 2
1845 615 2 4.0999999999999998e-01 -2.0782122274426342e+00 -8.0901317553536600e+00 -3.1117786001867618e+00 4 4 1
189 63 2 4.0999999999999998e-01 -4.4350082056452997e+00 -5.6548306889438837e+00 -4.6360852955638716e+00 2 -2 7
1438 480 1 -8.1999999999999995e-01 -4.9871754809948001e+00 -1.3092423663281110e+01 -3.5022506637468744e+00 -3 0 6
2077 693 1 -8.1999999999999995e-01 -1.8602781908899999e+00 -9.0561314274879976e+00 -1.8523786665926245e-01 -5 2 3
1843 615 1 -8.1999999999999995e-01 -2.4930568325145988e+00 -7.2181002415767832e+00 -3.3713152922157761e+00 4 4 1
1987 663 1 -8.1999999999999995e-01 -9.4272949632709491e-01 -5.1082803196024731e+00 -4.6770770835487330e+00 -3 1 -2
825 275 2 4.0999999999999998e-01 -6.2655317394471766e-01 -1.2063202194203932e+01 -2.1725161068250092e+00 0 1 4
833 278 2 4.0999999999999998e-01 -3.0236370109174420e+00 -7.9574236811350216e+00 -5.2272201021497171e+00 3 6 5
326 109 2 4.0999999999999998e-01 -5.7027159757408938e+00 -1.1327508321528027e+01 -5.0931070233379252e+00 -4 2 6
1027 343 1 -8.1999999999999995e-01 -3.3874676126889032e+00 -1.4380356236800971e+01 -6.2954214373212025e-01 2 0 -1
823 275 1 -8.1999999999999995e-01 -1.1230416441402458e+00 -1.1224434729226701e+01 -2.3958155694609147e+00 0 1 4
1439 480 2 4.0999999999999998e-01 -5.2535966615252914e+00 -1.3895556133608380e+01 -4.0350661327603916e+00 -3 0 6
2036 679 2 4.0999999999999998e-01 -2.9175406735232485e+00 -1.2270877147685610e+01 -5.3453364464529010e+00 -5 3 -2
2035 679 1 -8.1999999999999995e-01 -2.8041938916154407e+00 -1.2180681822965898e+01 -4.3559367020846143e+00 -5 3 -2
832 278 1 -8.1999999999999995e-01 -3.8874860735006429e+00 -8.1996950206797514e+00 -5.6687670434237294e+00 3 6 5
834 278 2 4.0999999999999998e-01 -4.1321489082330665e+00 -9.1392333707799480e+00 -5.4293883362585369e+00 3 6 5
824 275 2 4.0999999999999998e-01 -1.8646351882863037e+00 -1.1435559565442349e+01 -3.0324941748050698e+00 0 1 4
1440 480 2 4.0999999999999998e-01 -5.6412801500384209e+00 -1.2953725831076554e+01 -2.7587425176746354e+00 -3 0 6
1032 344 2 4.0999999999999998e-01 -4.3230619908116736e+00 -6.8970621476447178e+00 -2.4134129010377734e+00 -4 -1 1
1375 459 1 -8.1999999999999995e-01 -5.6308798140432259e-01 -1.4004725370908695e+01 -2.3374372168757880e+00 0 0 -1
674 225 2 4.0999999999999998e-01 -3.5185118406540976e+00 -1.2551778661747914e+01 -5.1104198109601384e-01 -1 -3 6
349 117 1 -8.1999999999999995e-01 -5.2419168412069244e+00 -1.4620442631856472e+01 -7.2704297730344853e+00 -2 2 1
626 209 2 4.0999999999999998e-01 -2.6938327745741315e+00 -1.2084380639555560e+01 -7.2814333477685524e+00 0 -4 -1
350 117 2 4.0999999999999998e-01 -6.1873189904825683e+00 -1.4294800373966428e+01 -7.2785694466831066e+00 -2 2 1
2184 728 2 4.0999999999999998e-01 -3.0620097631069303e+00 -5.1521232290786241e+00 -6.5666906233839359e+00 -2 -2 5
673 225 1 -8.1999999999999995e-01 -3.9915656867614491e+00 -1.1731095534626828e+01 -1.9073928886956892e-01 -1 -3 6
627 209 2 4.0999999999999998e-01 -4.2008325366698411e+00 -1.1483119583843727e+01 -7.4652314259082653e+00 0 -4 -1
966 322 2 4.0999999999999998e-01 -3.9732173157248365e+00 -8.0308239464666649e+00 -7.4673735289368386e+00 0 2 5
1966 656 1 -8.1999999999999995e-01 -1.4571724699489977e+01 -1.0226207710354906e+01 5.2785151168531108e+00 -3 5 6
406 136 1 -8.1999999999999995e-01 -1.2919354541798832e+01 -7.0160808741141318e+00 1.2300684605988899e-01 -6 -2 0
1593 531 2 4.0999999999999998e-01 -1.1527932544606411e+01 -8.2017257983162501e+00 6.3206398856705661e+00 -6 2 4
1660 554 1 -8.1999999999999995e-01 -1.2641660680907233e+01 -8.9017695874299587e+00 2.6440468530497974e+00 -4 4 4
1661 554 2 4.0999999999999998e-01 -1.2292126320352278e+01 -9.0953388269148512e+00 1.7273947721844571e+00 -4 4 4
1662 554 2 4.0999999999999998e-01 -1.2138350388150272e+01 -9.4466657871585404e+00 3.3146146984010159e+00 -4 4 4
1591 531 1 -8.1999999999999995e-01 -1.1964935880481212e+01 -7.3265625673164134e+00 6.5280331920639263e+00 -6 2 4
2264 755 2 4.0999999999999998e-01 -1.2807910703935585e+01 -1.1401880115443376e+01 3.6713141822868387e+00 -1 3 11
408 136 2 4.0999999999999998e-01 -1.3916588635200464e+01 -7.0015053458770229e+00 1.9516005956096194e-01 -6 -2 0
1994 665 2 4.0999999999999998e-01 -1.0474544411280402e+01 -1.0748526105869534e+01 4.8063510222855186e+00 -4 4 -6
1993 665 1 -8.1999999999999995e-01 -1.1402877426551585e+01 -1.0560922010093668e+01 4.4855754965492380e+00 -4 4 -6
2265 755 2 4.0999999999999998e-01 -1.4221440531265246e+01 -1.1993725857692841e+01 4.2352269969173939e+00 -1 3 11
1995 665 2 4.0999999999999998e-01 -1.2038386562675244e+01 -1.0611997128403711e+01 5.2559090609288042e+00 -4 4 -6
1960 654 1 -8.1999999999999995e-01 -1.2830538361177602e+01 -1.4650890667766816e+01 2.0474151755573367e+00 1 2 0
1967 656 2 4.0999999999999998e-01 -1.4282978709163670e+01 -9.6702678800335971e+00 6.0579065320657008e+00 -3 5 6
515 172 2 4.0999999999999998e-01 -9.8781626171860459e+00 -1.4434052518234292e+01 5.2336126658385673e-01 -3 5 1
1961 654 2 4.0999999999999998e-01 -1.3083181536876326e+01 -1.3931041226677372e+01 2.6938536864888434e+00 1 2 0
1692 564 2 4.0999999999999998e-01 -1.1253428629463357e+01 -1.0417053428615240e+01 4.8514900332023103e-01 0 2 1
1704 568 2 4.0999999999999998e-01 -1.1812494973638138e+01 -5.5039642623077150e+00 8.5353222517885285e-01 -3 4 4
831 277 2 4.0999999999999998e-01 -1.1305769597058855e+01 -1.1458028059042885e+01 2.5845917101991382e+00 -3 2 1
1293 431 2 4.0999999999999998e-01 -9.0296182447678603e+00 -8.0815211105302112e+00 5.5249836006575812e+00 -1 4 7
1291 431 1 -8.1999999999999995e-01 -9.2264421276007287e+00 -8.7493047516874185e+00 6.2427717477985674e+00 -1 4 7
829 277 1 -8.1999999999999995e-01 -1.0779224824252964e+01 -1.1554162897251537e+01 1.7399598143879338e+00 -3 2 1
830 277 2 4.0999999999999998e-01 -9.8116678062947322e+00 -1.1387519362945536e+01 1.9295855297266549e+00 -3 2 1
2571 857 2 4.0999999999999998e-01 -8.9867989220489051e+00 -6.2106090989345972e+00 3.3266818071353050e+00 -6 4 4
2569 857 1 -8.1999999999999995e-01 -8.7283316836797340e+00 -6.3024870162819209e+00 4.2882677097845416e+00 -6 4 4
728 243 2 4.0999999999999998e-01 -1.1075913706721275e+01 -5.8621907455010867e+00 5.7083035335917565e+00 -6 2 -1
1292 431 2 4.0999999999999998e-01 -9.1429170725678528e+00 -9.6734816925865115e+00 5.8701930104515618e+00 -1 4 7
1653 551 2 4.0999999999999998e-01 -1.3901480303788020e+01 -6.1142241261221084e+00 3.4614712982138691e+00 -2 3 3
2263 755 1 -8.1999999999999995e-01 -1.3465623555827371e+01 -1.2151682271903837e+01 3.5998647738669582e+00 -1 3 11
1651 551 1 -8.1999999999999995e-01 -1.4413749443579995e+01 -6.9622951939066677e+00 3.3263783264729803e+00 -2 3 3
750 250 2 4.0999999999999998e-01 -1.3686270631557031e+01 -7.3646678430268437e+00 6.5552968910125848e+00 -1 -2 6
727 243 1 -8.1999999999999995e-01 -1.0902365702429325e+01 -5.0693270273315978e+00 5.1242293899203339e+00 -6 2 -1
1913 638 2 4.0999999999999998e-01 -8.6928313787358853e+00 -1.2205790573984894e+01 5.4843424465111958e+00 2 8 1
1912 638 1 -8.1999999999999995e-01 -8.8336473998863365e+00 -1.1298470083380726e+01 5.0883184552816267e+00 2 8 1
323 108 2 4.0999999999999998e-01 -8.7408486323904295e+00 -1.4592050662103368e+01 4.0789284030577484e+00 -7 6 5
2582 861 2 4.0999999999999998e-01 -7.8581810918861672e+00 -9.6988481450824438e+00 2.6389960567573532e+00 3 -1 4
322 108 1 -8.1999999999999995e-01 -8.1972182706213204e+00 -1.4362974603975864e+01 3.2715347181749479e+00 -7 6 5
2581 861 1 -8.1999999999999995e-01 -8.2261244421733082e+00 -9.7986858824030278e+00 1.7145803283989167e+00 3 -1 4
2583 861 2 4.0999999999999998e-01 -8.4133068116792931e+00 -8.8944488862717357e+00 1.3308974669304341e+00 3 -1 4
475 159 1 -8.1999999999999995e-01 -1.1526136420312781e+01 -1.3551867779297133e+01 5.6438796077238251e+00 0 -3 5
729 243 2 4.0999999999999998e-01 -9.9933964539388374e+00 -5.1492395500693551e+00 4.7152266123088751e+00 -6 2 -1
324 108 2 4.0999999999999998e-01 -8.7235121392431996e+00 -1.4567692659651586e+01 2.4463072722231018e+00 -7 6 5
476 159 2 4.0999999999999998e-01 -1.2071762615687671e+01 -1.3211595268189189e+01 4.8781113675657153e+00 0 -3 5
1652 551 2 4.0999999999999998e-01 -1.3778761594516492e+01 -7.7050399801537743e+00 3.1142110075819822e+00 -2 3 3
477 159 2 4.0999999999999998e-01 -1.0933998689975756e+01 -1.4293070541302470e+01 5.3278325312132644e+00 0 -3 5