2611
Atoms. Timestep: 23000000
O 11.7227 6.40764 13.7753
H 11.1807 6.40019 14.6157
H 12.1601 5.51672 13.6529
O -4.82823 -6.86832 -12.6248
H -4.00903 -6.88407 -12.0515
H -5.45735 -7.58634 -12.327
O -6.24599 -13.8431 -10.778
H -5.93536 -13.9862 -11.7177
H -6.09267 -12.8898 -10.5178
O 8.7096 12.7465 2.27102
H 9.61138 12.59 1.86809
H 8.59371 12.1546 3.06869
O -7.92961 -11.9121 -6.69318
H -8.92451 -12.0132 -6.69218
H -7.69328 -10.9405 -6.68975
O -11.7205 -0.373546 -9.52877
H -12.1465 -0.971593 -10.2077
H -11.9048 0.581018 -9.76303
O -6.61903 9.12277 -9.79905
H -5.91865 9.09126 -10.5122
H -6.71721 10.0618 -9.46955
O -1.24835 7.05309 4.87156
H -1.70411 7.7054 4.26591
H -1.3109 6.13498 4.48015
O 11.5324 14.4192 -5.19913
H 11.8422 -14.7385 -4.68571
H 10.9174 13.8748 -4.62869
O 1.92449 8.15583 9.30521
H 2.16758 7.81524 8.39695
H 2.05719 9.14652 9.33621
O 4.06773 1.09932 3.35808
H 3.8609 0.260889 2.85381
H 4.8374 1.56786 2.92436
O -14.6049 11.6337 13.3946
H -13.7072 11.2757 13.6516
H -14.5594 12.0165 12.4719
O 4.62573 9.7682 -13.0939
H 5.08391 10.6374 -13.2798
H 4.07465 9.85277 -12.2637
O 5.39046 -1.62422 12.9371
H 5.01215 -1.04166 12.2177
H 5.40617 -2.57362 12.6234
O 1.72628 5.71529 -8.41362
H 2.20382 4.83756 -8.37389
H 2.2442 6.35092 -8.98612
O -9.29855 -11.2978 11.9254
H -10.0345 -10.7591 12.3354
H -8.78926 -10.7292 11.2794
O -9.62443 1.69494 -12.3756
H -10.0767 2.44066 -12.8649
H -9.49102 1.95616 -11.4196
O 3.7549 9.66234 6.03187
H 4.00303 9.71111 5.06436
H 3.21852 8.83467 6.19711
O 9.69073 -8.0094 -0.328817
H 10.2815 -7.20513 -0.264299
H 8.80381 -7.74211 -0.705606
O -13.0599 -3.11224 7.30825
H -12.5114 -3.07433 6.4729
H -13.367 -4.05126 7.46302
O 8.46186 0.746004 -2.04356
H 8.56069 -0.197837 -1.72823
H 8.07438 0.750597 -2.96545
O 12.7523 1.91627 11.8805
H 12.5372 1.00572 12.2335
H 13.0135 1.84731 10.9176
O -8.79374 -4.08511 -5.20737
H -8.26545 -4.71566 -4.63872
H -8.40816 -4.06535 -6.12985
O -5.37909 -5.04063 0.185894
H -5.56171 -4.09665 0.460853
H -4.86377 -5.50403 0.906819
O 5.79711 7.57294 -14.811
H 5.15212 8.16727 14.6664
H 5.48264 7.42932 -13.8727
O 11.7262 -6.50303 6.81556
H 11.9932 -7.46493 6.75637
H 11.7233 -6.10095 5.89994
O 6.10011 -7.9008 10.0332
H 5.63981 -8.66888 9.58797
H 6.72526 -7.46582 9.38509
O 6.16838 6.85256 10.0385
H 5.42674 7.25669 10.574
H 6.89371 7.52891 9.91015
O 4.26225 -5.59831 14.3768
H 4.28926 -5.03402 13.5517
H 3.53131 -6.27569 14.2936
O -5.47237 7.85892 -14.3891
H -5.8275 8.06193 14.6563
H -5.59209 6.8855 -14.1937
O 1.05429 11.7326 6.90266
H 0.564279 11.3713 6.10931
H 0.459499 12.361 7.40399
O -9.57721 9.49699 5.92547
H -9.67615 9.25683 4.95977
H -10.1531 8.89553 6.47922
O 9.60786 -2.35214 7.65547
H 9.80839 -1.72272 8.40625
H 9.86237 -1.9268 6.78694
O -0.693091 8.6131 -5.91258
H -0.471052 7.63854 -5.94386
H -0.472919 8.97623 -5.00721
O 0.549686 1.09841 12.2749
H -0.242569 0.657895 12.6971
H 1.08455 1.56709 12.9779
O -3.45474 8.7695 -6.43073
H -3.66007 9.7014 -6.7298
H -2.62589 8.77398 -5.87125
O 12.8185 12.58 11.3229
H 12.7236 11.5874 11.3983
H 12.6643 12.8585 10.3749
O 14.8908 10.785 -4.55492
H 14.7487 10.5868 -3.5851
H 14.0407 11.1301 -4.95268
O 13.565 11.4097 1.9088
H 13.7044 10.4542 2.16868
H 12.596 11.5647 1.7159
O 2.38462 -3.51758 -13.958
H 2.57132 -2.61009 -14.3343
H 2.20877 -4.15856 -14.7051
O 11.0959 -6.77016 -4.29691
H 11.1034 -6.67291 -5.29216
H 10.7568 -5.92581 -3.88204
O 13.2906 -7.78535 -3.36658
H 13.1289 -8.16784 -2.45686
H 12.435 -7.4168 -3.73011
O 14.5349 8.31501 -11.9586
H 13.7688 8.46799 -11.3343
H -14.6477 8.88201 -11.6802
O 6.74991 4.0769 9.78927
H 6.24534 3.81304 10.6114
H 6.69173 5.06759 9.66608
O -10.5443 -11.9835 -6.64176
H -11.3387 -12.5795 -6.52482
H -10.7057 -11.1165 -6.17025
O 10.5642 -11.8384 -10.1958
H 10.4109 -11.1305 -10.8853
H 11.2004 -11.4975 -9.5038
O 3.98883 -10.271 4.52304
H 4.39495 -10.4241 3.62212
H 4.71151 -10.0719 5.18497
O 7.67369 11.2246 14.1791
H 8.20672 11.8639 13.6248
H 7.02299 10.7394 13.595
O -9.99613 -1.14476 5.98691
H -9.87383 -2.11109 5.76044
H -9.9621 -1.02814 6.97952
O -12.072 6.24849 14.6307
H -12.9676 6.3133 -14.8872
H -11.467 6.9535 -14.9572
O 12.882 1.31992 9.20621
H 13.2849 2.23312 9.14529
H 12.7965 0.931434 8.28871
O 13.1658 -11.5099 8.0589
H 13.4148 -12.0308 7.24236
H 13.6958 -10.6624 8.08804
O 4.30168 0.260458 7.09589
H 3.5578 0.761557 7.53814
H 4.11455 0.181691 6.1167
O -0.20069 12.147 -10.9455
H -0.985156 12.5514 -11.4158
H -0.500927 11.3504 -10.4208
O -10.1422 3.1733 0.426587
H -9.52915 2.39218 0.54488
H -9.60349 4.01352 0.364798
O -10.8569 7.44118 6.82285
H -11.6587 6.90741 6.55395
H -10.0314 6.89278 6.68953
O 2.70305 9.98769 14.7643
H 2.22944 10.8553 14.9159
H 3.41604 9.87192 -14.502
O 4.00623 -6.58041 0.298713
H 4.83156 -6.68339 0.853936
H 4.26348 -6.41884 -0.654049
O -5.46387 -4.2928 -5.95485
H -5.94341 -4.27198 -5.07756
H -6.02345 -4.77455 -6.62925
O 11.1097 1.02351 -11.0663
H 11.9812 0.893218 -10.5935
H 11.1015 1.92009 -11.5091
O 11.4029 -0.656361 -2.14703
H 10.5268 -0.87396 -1.71691
H 12.0053 -1.45311 -2.09807
O 4.92752 -7.1426 3.9857
H 5.49547 -7.16452 3.1629
H 4.96458 -8.03264 4.44011
O -7.75035 -6.87845 -7.32392
H -7.7551 -7.09397 -6.34741
H -7.26739 -7.59874 -7.82188
O 9.28782 2.90425 -14.8715
H 8.70189 2.09428 -14.8458
H 8.8687 3.60046 14.5036
O -9.33871 -9.20961 -8.99205
H -9.68917 -10.1308 -9.16146
H -9.96157 -8.72353 -8.37901
O 9.29377 -9.39504 9.1323
H 8.92468 -8.67188 9.71613
H 9.93155 -9.95631 9.65979
O -10.5149 -5.98657 -13.3965
H -11.083 -6.55801 -12.8043
H -9.63548 -5.81671 -12.9518
O 3.35943 -4.32086 -3.91468
H 3.85411 -3.53051 -4.27616
H 2.96376 -4.84111 -4.67153
O -9.69379 -12.5365 -12.9026
H -9.02011 -13.1784 -13.2688
H -9.79225 -12.6821 -11.9182
O -0.354051 14.5069 4.34706
H 0.434327 14.4376 3.73576
H -0.0925978 14.2048 5.26379
O 14.0072 -1.13731 3.34593
H 13.5341 -0.905911 2.49584
H -14.9624 -1.10305 3.19732
O 0.282941 2.88556 -9.67667
H 1.11092 2.69462 -9.1494
H 0.532913 3.12305 -10.6154
O 1.08277 12.6841 -14.2659
H 0.155478 12.8575 -13.9341
H 1.51876 13.5516 -14.5055
O -5.56239 12.4653 -12.0383
H -5.69281 11.9388 -12.8785
H -6.35651 12.3446 -11.4426
O 9.34526 11.4897 9.40046
H 10.1858 11.5212 8.85954
H 8.73696 10.7874 9.03061
O -0.958041 3.09978 -14.0107
H -1.33773 3.6707 -14.7387
H -1.67511 2.88428 -13.3479
O 4.22055 -6.27898 -12.5961
H 3.97493 -5.98252 -13.5191
H 5.06106 -6.8196 -12.6323
O 12.8799 -2.27244 5.39873
H 13.541 -2.26273 6.14902
H 13.2759 -1.81984 4.59973
O -4.16273 11.3131 -7.49772
H -3.63071 12.0768 -7.13205
H -3.73172 10.9774 -8.33535
O -11.2528 1.36381 2.73692
H -12.0706 1.41176 3.31043
H -11.5228 1.27772 1.7779
O 1.37881 -12.6981 -5.47325
H 1.37367 -13.0992 -4.55722
H 2.1649 -13.0452 -5.98472
O -11.9325 3.43511 13.6087
H -12.7103 3.08742 14.1324
H -11.9067 4.43274 13.6729
O 9.78142 -10.256 -12.3209
H 8.90831 -10.492 -12.7476
H 10.5156 -10.3422 -12.9944
O 8.11771 -14.7317 3.48814
H 7.59038 14.9429 4.2892
H 8.24411 14.4437 2.87848
O -3.49487 -4.61075 -13.3692
H -4.25868 -5.25122 -13.2891
H -3.8104 -3.76881 -13.807
O 4.66011 -4.10193 11.7462
H 4.44355 -4.7974 11.061
H 3.89405 -3.46431 11.8276
O 10.1023 -1.25725 -9.38335
H 9.13358 -1.48442 -9.48351
H 10.2376 -0.284301 -9.57072
O -13.4588 0.233978 -2.93835
H -14.1229 0.358522 -3.67554
H -13.9339 -0.0538836 -2.10681
O 5.39389 13.7294 -1.23103
H 6.30007 13.9144 -1.61138
H 5.47896 13.5085 -0.259451
O 8.2353 14.4497 -1.94549
H 7.98792 -14.8192 -2.6267
H 8.60282 14.9015 -1.13259
O 3.96143 -5.311 6.92371
H 4.93952 -5.15473 7.0614
H 3.76018 -5.32138 5.94421
O 5.83579 8.94901 -10.5372
H 5.22355 9.70322 -10.2998
H 6.74596 9.30994 -10.7406
O -5.64327 -8.49491 10.5563
H -4.66695 -8.66999 10.6835
H -5.7649 -7.71886 9.93744
O -5.26608 -9.62661 14.2161
H -5.17032 -9.84818 -14.7713
H -6.1281 -9.99937 13.8726
O -12.9597 5.69087 7.193
H -13.2945 6.21488 7.97616
H -12.8432 4.73357 7.45768
O 12.6242 6.7664 10.6109
H 12.5825 7.36256 11.4127
H 11.9369 7.0555 9.94445
O 5.01942 -1.14056 -10.9094
H 4.56496 -1.8944 -10.4349
H 4.35882 -0.410575 -11.0848
O 8.12159 -12.3096 4.44645
H 8.6745 -11.6149 3.98637
H 8.33346 -13.2099 4.06611
O 0.0817246 12.8958 -8.06174
H -0.0427991 13.098 -9.03315
H -0.778089 13.0526 -7.57575
O -8.99414 -12.1778 -2.30949
H -9.23995 -12.4826 -1.3893
H -8.25859 -11.5028 -2.25169
O -5.62898 8.50029 2.29213
H -4.97327 8.45886 1.53824
H -6.23829 9.28239 2.16134
O 9.00301 12.3152 -11.8512
H 9.85717 12.5758 -11.4011
H 8.58846 13.1221 -12.2721
O -10.8189 8.69345 -3.66557
H -9.97636 8.3532 -3.24796
H -11.564 8.64461 -3.00036
O 13.9483 12.1921 6.48076
H 14.1386 11.8494 7.40074
H 12.9707 12.3829 6.39173
O -2.98107 4.72108 -10.0788
H -3.85607 5.20489 -10.0973
H -2.75565 4.40453 -11.0002
O 8.50951 11.5747 -1.29233
H 8.36939 12.4785 -1.69669
H 7.93603 11.4811 -0.478447
O 2.51608 -7.10842 12.0461
H 2.43592 -8.10067 11.951
H 3.01869 -6.73815 11.2649
O -6.64691 14.0964 3.7221
H -6.96994 14.9378 4.15529
H -6.24456 13.498 4.41498
O -3.73129 -10.3917 -4.70108
H -4.22762 -11.0485 -4.13334
H -2.74737 -10.5222 -4.57893
O -8.72091 -1.25773 1.25892
H -9.68218 -1.35597 1.00138
H -8.65787 -1.02729 2.22998
O -0.546077 10.0675 -3.28095
H -1.06607 10.8129 -2.86378
H -0.987154 9.19498 -3.07075
O -6.38605 5.75174 -4.92013
H -5.78279 5.09681 -5.3753
H -6.77266 6.37623 -5.59878
O 1.47359 -8.58694 3.98963
H 1.67897 -8.50748 3.01416
H 2.16376 -9.1613 4.42987
O -8.41163 7.0484 -10.3702
H -7.88693 7.89489 -10.2797
H -8.19323 6.43793 -9.6088
O -9.06314 2.52548 -2.70403
H -8.39089 2.40514 -3.43453
H -8.76184 2.03062 -1.88894
O 10.646 5.42171 4.51337
H 10.7653 6.15206 3.84077
H 9.98548 4.75504 4.16788
O -3.47656 -12.8772 -7.83562
H -4.45409 -13.0221 -7.98887
H -3.18018 -12.0576 -8.3259
O -10.5265 14.3576 -6.29378
H -10.323 14.2571 -5.31987
H -11.4839 14.6227 -6.40859
O 13.5098 -9.69023 1.60385
H 14.2106 -10.1906 2.11236
H 13.0718 -9.02406 2.20749
O 13.3493 -1.70736 -5.29561
H 13.5496 -2.50182 -5.86896
H 12.5511 -1.22681 -5.659
O 1.44468 -2.68741 -7.12368
H 2.21906 -3.16711 -7.5363
H 0.976823 -3.29771 -6.48439
O -4.19649 5.34686 3.44432
H -4.54068 6.2673 3.25898
H -3.32217 5.21746 2.97651
O 0.636102 1.83076 -6.09991
H 0.925511 2.40718 -6.86412
H 0.234348 0.985871 -6.45316
O -3.11704 -2.39471 8.54095
H -2.7953 -3.16032 9.09804
H -4.08398 -2.2263 8.7325
O -4.49332 10.8871 -2.41027
H -4.13775 10.1053 -2.92258
H -5.25318 11.298 -2.91405
O -11.2272 -14.9011 -10.928
H -10.2305 -14.9548 -10.867
H -11.6119 14.1337 -10.9191
O -7.19423 -12.5059 13.4971
H -7.16749 -12.7785 14.4588
H -8.12866 -12.2503 13.2489
O -1.52575 12.6091 -2.24668
H -2.25329 12.1776 -1.71323
H -1.4497 13.5723 -1.98876
O -7.11523 -3.21881 -10.0773
H -7.72055 -3.54794 -10.8021
H -6.40521 -3.90053 -9.90085
O 6.89177 4.33405 -0.440095
H 6.39049 3.47553 -0.548313
H 7.80372 4.24018 -0.839563
O -12.3596 10.9319 1.12889
H -12.0337 11.1029 0.199047
H -13.1625 11.4997 1.31041
O 6.07037 11.1975 9.49551
H 6.4651 12.113 9.57381
H 5.31669 11.2146 8.83847
O 3.79244 -8.23094 7.74094
H 4.58722 -8.71424 7.37382
H 3.86299 -7.25801 7.52079
O 3.78044 4.87802 10.0492
H 4.72333 5.1996 10.1363
H 3.33707 4.89879 10.9453
O 3.06593 14.4467 7.76431
H 3.28397 -14.5504 7.59294
H 3.34788 13.8957 6.97886
O -10.4524 -7.0452 -0.269956
H -9.5587 -7.43463 -0.0471583
H -10.9946 -6.95565 0.565519
O -4.19021 7.45383 0.00143212
H -3.3198 6.96652 0.0717961
H -4.47427 7.49212 -0.956626
O -3.67941 -14.1026 -5.35562
H -3.63954 -13.6968 -6.26873
H -4.54874 -13.8643 -4.92262
O 10.9481 -9.86117 13.4036
H 11.915 -10.0488 13.5762
H 10.7937 -8.87317 13.4109
O -14.3063 -8.48227 -6.5738
H -13.6296 -8.07951 -5.95743
H -14.1238 -9.46016 -6.676
O -6.47985 -8.72785 -11.8318
H -6.52726 -9.04881 -10.8859
H -7.32942 -8.95995 -12.3056
O 5.39056 -10.5135 12.1712
H 5.82895 -11.3129 12.5821
H 6.06788 -9.78807 12.0486
O -6.23566 2.25112 -4.02115
H -5.77949 2.24479 -4.91104
H -6.70724 1.3803 -3.88211
O -2.19897 -10.386 -13.4913
H -3.13357 -10.7283 -13.5883
H -1.98455 -9.7805 -14.2578
O -4.82688 7.87497 -3.08178
H -5.76856 8.1815 -3.22074
H -4.47085 7.49439 -3.93527
O 9.89249 1.97913 11.2716
H 10.7858 1.91722 11.7167
H 9.97055 2.53392 10.4432
O -13.4345 1.71259 -9.10419
H -13.1527 1.51957 -8.16432
H -14.2535 2.28633 -9.09543
O -5.69007 -7.07011 -4.58228
H -5.92954 -7.12272 -3.61278
H -4.93806 -6.42249 -4.7052
O 13.05 7.10243 0.87381
H 13.3948 6.24687 1.26002
H 13.764 7.5292 0.318698
O -0.579936 -6.32168 -0.711759
H -0.441107 -5.87521 0.172222
H -1.26179 -5.81383 -1.23825
O 11.9475 9.17026 -10.9153
H 11.7702 10.1104 -10.6241
H 11.7416 9.07865 -11.8896
O 10.4931 -1.03136 5.27984
H 10.6519 -0.158069 5.74048
H 11.2733 -1.63719 5.43588
O -2.69414 12.8876 1.04172
H -2.33915 12.6013 1.93167
H -3.0955 13.8001 1.12091
O 9.67287 -7.64627 -10.7159
H 9.50695 -7.14827 -11.5671
H 9.91956 -8.59235 -10.9259
O -1.90785 -6.72758 4.11927
H -1.7622 -7.51081 4.72373
H -2.0113 -5.89788 4.66784
O 1.38824 -10.0282 -7.90377
H 1.51131 -9.90004 -6.91966
H 1.3776 -11.0058 -8.11384
O 4.64512 2.89799 -9.98192
H 5.50007 3.29552 -9.64864
H 4.45352 3.24216 -10.9011
O 13.7356 -6.43945 -0.678107
H 14.0825 -6.32688 -1.60927
H 14.1331 -5.73742 -0.0871974
O -11.4855 -13.6462 5.72576
H -12.2429 -14.0595 5.22027
H -10.6965 -14.2603 5.70518
O 0.189231 -4.56383 -10.221
H 0.551052 -4.5901 -9.28908
H 0.504943 -3.73216 -10.6778
O 10.8596 10.7399 1.59796
H 10.7749 10.3922 0.664159
H 10.6451 10.0094 2.24634
O 6.28798 8.60256 -3.98067
H 5.54069 8.55765 -3.31767
H 6.66372 7.68665 -4.12196
O -13.1379 1.32778 -6.43743
H -14.0079 1.29184 -5.94561
H -12.3854 1.18423 -5.79462
O 0.331668 -6.56171 -7.98498
H 0.708705 -6.4936 -7.06127
H 0.300363 -7.52202 -8.26225
O 2.94968 10.7555 -10.9979
H 2.70515 11.7217 -11.0786
H 3.52168 10.6229 -10.1884
O 7.27708 8.24711 3.78606
H 7.15085 7.31282 4.11956
H 6.92746 8.89328 4.4645
O -8.72614 9.97356 -12.2691
H -8.87105 10.8672 -12.694
H -9.25347 9.28101 -12.7614
O 9.20182 11.2169 4.3121
H 8.95597 11.5035 5.2381
H 10.1763 10.9949 4.2796
O 8.5646 0.0128125 -6.64525
H 9.5054 -0.100965 -6.3259
H 8.55885 0.576507 -7.47124
O -13.4694 -7.11507 -14.0924
H -13.7618 -7.17534 14.911
H -13.1244 -8.00454 -13.7927
O -6.78166 7.94017 -6.85017
H -6.9686 7.96414 -7.83227
H -5.80369 8.07831 -6.69355
O -7.51439 14.6913 1.1389
H -7.3812 14.341 2.06602
H -8.2955 14.2305 0.717472
O -6.43588 10.6996 9.24024
H -6.19428 9.98626 9.89809
H -6.26361 10.3694 8.31217
O -6.49385 -11.1047 -10.2232
H -6.47716 -10.6201 -9.34856
H -7.44155 -11.2302 -10.5167
O -10.9762 11.3421 -4.09907
H -10.0367 11.291 -4.43791
H -11.3599 10.4205 -4.04047
O -4.85365 8.38858 5.72449
H -3.90715 8.70775 5.77249
H -5.02769 7.99619 4.82129
O 14.4384 -1.67937 7.60702
H 13.9421 -1.83069 8.46187
H -14.6444 -2.1622 7.63974
O 13.6332 2.56942 4.43961
H 13.9301 1.80369 5.01014
H 13.2202 2.2184 3.59923
O -12.8399 -10.5168 7.93369
H -13.0163 -11.4765 8.1522
H -12.2421 -10.1207 8.63063
O 6.23314 -0.61536 8.9128
H 7.21111 -0.448435 8.78735
H 5.73169 -0.270875 8.11913
O -11.6322 12.6243 11.6223
H -11.3156 13.427 12.1277
H -12.4342 12.8686 11.0772
O -10.9899 -0.00339002 -14.269
H -10.6394 0.73246 -13.6896
H -11.5228 -0.640764 -13.7124
O -11.0128 -3.23844 -1.3614
H -11.7916 -3.70392 -1.78195
H -10.614 -2.59724 -2.01703
O 3.05896 -14.4887 -0.461259
H 2.55158 14.7475 0.00965718
H 3.92354 -14.8575 -0.802667
O -8.57956 14.5841 -10.9311
H -8.22951 13.6881 -10.6578
H -7.856 -14.6901 -10.8359
O -3.06706 -0.909373 -12.3464
H -3.73456 -1.06252 -13.0751
H -2.90701 0.0722043 -12.2419
O 7.45086 -12.6059 -10.5253
H 7.82818 -12.9853 -11.3701
H 8.17711 -12.5253 -9.84256
O -14.5274 8.03368 -5.3635
H -14.2147 7.41224 -4.64511
H -14.4614 8.97754 -5.03974
O -1.36203 -0.527896 9.14518
H -1.06317 0.100575 8.42703
H -2.03718 -1.16404 8.77165
O 2.47281 9.82183 -3.05156
H 1.73633 9.86485 -3.72668
H 2.70496 10.7473 -2.75211
O -9.34502 12.4846 -7.9914
H -8.35565 12.6157 -7.92834
H -9.7928 12.9553 -7.23119
O -10.3787 -8.98595 13.8428
H -10.5995 -8.09716 14.2445
H -11.1944 -9.36705 13.4078
O 8.09642 -13.0532 -0.313627
H 7.27582 -12.7394 -0.791326
H 8.728 -12.2867 -0.197267
O 6.71176 13.6882 -4.69445
H 7.43187 14.2071 -5.15512
H 5.97724 14.3089 -4.42001
O -1.16604 9.66844 -10.1545
H -1.31646 8.97349 -9.45132
H -1.07203 9.22554 -11.0461
O 8.57506 1.99664 6.21117
H 7.59849 2.0777 6.01175
H 9.10124 2.44316 5.48743
O 7.44482 7.073 -0.327063
H 7.84868 6.81895 -1.20592
H 6.97122 6.28326 0.0628683
O -10.8632 -14.4261 12.93
H -10.5256 -13.7363 13.5706
H -10.4809 -14.2535 12.0223
O 5.70977 10.5394 12.2771
H 4.9249 9.93302 12.4049
H 5.88044 10.6621 11.2994
O -12.6883 -10.488 13.3245
H -12.9607 -9.73092 12.7306
H -13.1185 -11.3328 13.0061
O -0.689473 -0.843961 -13.4753
H -0.861685 -0.684661 -14.4474
H -1.52292 -1.18534 -13.0407
O -5.41761 -12.4666 8.9923
H -4.6263 -12.4063 8.38384
H -5.176 -12.0999 9.89071
O 11.5712 -10.962 -2.96241
H 12.364 -10.7525 -2.38997
H 11.6833 -11.8692 -3.36789
O 7.58059 -3.00491 -3.63386
H 6.74382 -2.57206 -3.96925
H 7.6359 -3.93978 -3.98456
O -13.3961 -14.7744 -12.8368
H -14.1088 14.7911 -12.2553
H -12.5116 -14.8486 -12.3762
O -7.09914 -5.42229 -12.3019
H -7.45269 -5.91175 -13.099
H -6.1786 -5.75077 -12.0903
O -14.5482 13.9927 -10.6621
H 14.4859 13.6099 -10.6513
H -13.8844 13.2577 -10.8004
O -9.82391 -3.35352 3.61802
H -10.4099 -3.32278 2.80825
H -10.385 -3.51747 4.42943
O -2.84711 -10.5309 -9.04052
H -2.03013 -10.3608 -9.59156
H -2.78415 -10.0185 -8.18408
O -13.7998 4.79591 -6.46625
H -14.5392 4.12265 -6.47007
H -13.9796 5.49238 -7.16098
O 10.4027 -1.69468 2.30161
H 10.2795 -1.55153 3.28363
H 10.4923 -0.80981 1.84444
O 13.2998 7.16321 -3.37469
H 12.7679 7.62564 -4.08409
H 13.8796 6.46498 -3.79469
O -2.40561 1.16183 -6.5123
H -1.86436 1.06455 -7.34754
H -1.82429 1.51057 -5.77713
O 7.88498 -12.789 11.3151
H 8.32081 -12.3867 12.1202
H 7.2471 -13.5032 11.6033
O -14.7475 -12.4003 -3.82478
H -14.7262 -11.7615 -3.05566
H -14.9665 -11.9036 -4.66463
O 13.5252 -7.05407 -7.62379
H 14.2435 -7.55052 -7.13642
H 13.4673 -7.38954 -8.56408
O -1.30915 -4.82411 14.7088
H -2.14696 -4.93626 -14.7148
H -0.535908 -4.68291 -14.6309
O -14.6995 6.49587 -14.0775
H 14.5136 5.83933 -13.9578
H -14.8793 7.30852 -13.5232
O -5.09667 -14.496 -13.1784
H -5.13782 14.8478 -13.9666
H -4.42433 -14.8397 -12.5228
O -2.81154 -0.852709 11.5537
H -2.10422 -0.844422 10.8468
H -3.48779 -0.142786 11.3569
O -14.5234 -2.14141 -0.929417
H -14.182 -1.55307 -0.196392
H -13.7542 -2.47653 -1.47346
O -4.39769 12.0614 10.1103
H -5.35681 11.7956 10.0131
H -3.9307 11.4112 10.7097
O 8.5852 -13.4194 -12.9071
H 8.38281 -14.2786 -13.377
H 9.52049 -13.4448 -12.5541
O 11.1839 -5.37074 -0.583186
H 11.0649 -4.80734 -1.40078
H 12.0619 -5.84706 -0.631527
O -7.10881 -10.8357 -1.01023
H -6.98487 -11.3045 -0.135672
H -6.2854 -10.9456 -1.56698
O 0.69261 -8.02527 -5.69956
H 0.768335 -8.64742 -4.92031
H -0.272626 -7.87464 -5.91325
O -1.52298 -8.91557 13.9657
H -2.12675 -9.17326 13.2114
H -1.31387 -7.93943 13.9068
O -3.34219 11.2017 -10.1625
H -3.85676 11.3561 -11.006
H -2.55512 10.6155 -10.3548
O 8.45916 12.5476 6.59406
H 7.62327 13.0668 6.41573
H 8.68134 12.5978 7.56779
O 10.557 -14.1905 -0.390917
H 9.66865 -13.7315 -0.375514
H 11.0805 -13.9306 0.420546
O -13.9813 3.12431 -14.6111
H -14.9228 2.96216 -14.9067
H -13.8315 2.69039 -13.7227
O -0.144446 1.34139 7.37157
H -0.894345 1.90378 7.02313
H 0.608997 1.93218 7.66022
O 1.15271 -3.99768 6.92704
H 2.12708 -4.18182 7.05642
H 0.823245 -4.49485 6.12435
O 6.4122 -9.11489 -7.99037
H 5.89995 -8.48741 -7.40394
H 7.38793 -8.90362 -7.93252
O -1.39376 4.84294 2.9656
H -1.45024 5.09006 1.99824
H -0.437314 4.69269 3.21594
O 10.0133 3.50816 -12.2833
H 9.61684 4.35486 -11.9285
H 9.80327 3.42439 -13.2575
O -1.84169 -13.0358 10.0161
H -1.74041 -12.5879 10.9044
H -2.15276 -13.9766 10.1506
O -0.569022 -14.8207 -1.59071
H -0.114956 -14.0545 -1.13583
H -1.42945 -14.5072 -1.99252
O 3.2062 -8.67878 -9.52653
H 3.94248 -9.27056 -9.19832
H 2.34303 -8.95504 -9.10384
O 11.2307 -9.72093 6.76568
H 10.8083 -9.52303 7.65027
H 12.0784 -10.232 6.90793
O -0.663487 -10.4929 -11.0662
H -0.0216755 -9.73146 -10.9753
H -1.05202 -10.4931 -11.9877
O -6.03883 2.08969 -11.9149
H -6.24371 1.12436 -11.7531
H -6.13752 2.29261 -12.8891
O -11.0834 -4.59504 5.63719
H -11.0631 -5.49082 5.19311
H -10.6967 -4.66987 6.55639
O -11.2098 4.72617 -5.76885
H -12.1568 4.70499 -6.08952
H -10.6539 4.11348 -6.33063
O -6.7033 -3.96482 -3.43743
H -6.32573 -3.16261 -2.9749
H -7.58817 -4.1968 -3.03343
O 13.0899 2.713 -3.72128
H 13.6076 2.65377 -2.86777
H 12.3589 3.38806 -3.62153
O -4.77169 -2.16128 -14.3202
H -4.43013 -2.49666 14.7597
H -5.75378 -2.33815 -14.255
O -9.78244 6.01363 3.38641
H -10.5417 6.28373 2.79427
H -10.1239 5.42375 4.11815
O 9.99117 14.449 -9.88161
H 9.00481 14.4244 -10.0445
H 10.3692 -14.6605 -10.2522
O -13.9776 -6.83385 4.85311
H -14.2737 -5.94509 4.50318
H -13.7089 -7.42023 4.08893
O -7.5775 -0.159018 -4.07216
H -8.21885 -0.804724 -3.65772
H -6.83094 -0.663076 -4.50646
O 6.4773 2.00504 -7.01719
H 7.1406 2.1042 -7.75897
H 5.83171 1.27538 -7.24265
O 5.5761 5.67835 7.33035
H 4.58114 5.5836 7.29695
H 5.84478 6.06379 8.21312
O -9.95012 4.5531 11.2422
H -10.4721 3.75011 11.5298
H -9.22259 4.27116 10.6167
O 3.08467 12.4565 -2.00205
H 2.67515 12.1515 -1.14221
H 4.04974 12.6724 -1.8535
O 10.5759 -3.57094 -7.49779
H 11.2217 -2.85507 -7.76314
H 10.3237 -3.45306 -6.53728
O 0.686916 9.58859 -12.4784
H 1.47749 9.30469 -11.9358
H 0.449379 10.5333 -12.2523
O -7.45246 3.11556e-05 -13.7041
H -7.32311 -0.97594 -13.5287
H -8.15741 0.358194 -13.0919
O -1.68501 3.57051 6.47168
H -2.18363 2.74229 6.21582
H -1.44831 4.08507 5.64752
O 1.20962 -6.04515 4.89773
H 2.11299 -5.67961 4.67337
H 1.15673 -7.00191 4.61167
O -5.19593 2.9492 4.47427
H -6.03707 3.29437 4.89065
H -4.76163 3.67892 3.94613
O -7.665 11.707 -10.2542
H -7.91882 11.0185 -10.9336
H -8.39382 11.789 -9.5744
O 8.60346 -11.6623 13.7526
H 9.2934 -10.9601 13.5768
H 8.06051 -11.4036 14.5515
O 5.73972 12.8114 -8.46933
H 4.96598 12.6576 -7.85475
H 6.4825 12.1848 -8.23338
O 9.7657 -10.8897 -0.619586
H 10.5548 -11.2158 -1.14024
H 9.7323 -9.89092 -0.65548
O 7.05499 -13.3271 -3.40026
H 6.26926 -13.6494 -3.92824
H 7.126 -12.3329 -3.48159
O 5.3584 -1.72694 1.25885
H 5.43776 -2.28819 0.435003
H 5.78865 -2.20041 2.02745
O 10.9669 -8.47232 2.58488
H 10.9554 -8.53421 1.58684
H 10.3712 -9.17747 2.96948
O 6.9018 9.55753 1.18044
H 6.86066 9.1595 2.09691
H 7.11538 8.84182 0.515477
O -9.48394 -9.23493 -2.71078
H -9.82597 -8.55906 -2.05791
H -9.0716 -8.76532 -3.49147
O 4.76031 2.28322 14.6995
H 5.05092 3.17759 14.3594
H 3.77569 2.17751 14.5603
O 7.56726 -5.7758 -4.79747
H 7.22034 -6.70784 -4.69266
H 7.72312 -5.58518 -5.7667
O 8.31451 14.0284 -14.0113
H 7.95251 14.6332 -14.7206
H 9.06075 13.4805 -14.3893
O 9.69215 -7.35337 13.1802
H 8.7826 -7.75868 13.2723
H 9.85848 -7.12201 12.2217
O -0.461465 -10.9254 -2.43023
H -0.918909 -11.2114 -3.27223
H -0.170168 -11.7334 -1.91814
O -5.8661 -4.47369 10.4317
H -6.0054 -4.75752 11.3804
H -6.32361 -3.59837 10.275
O -7.63384 -9.38729 2.70839
H -7.60933 -8.47108 2.30838
H -8.09423 -9.35152 3.5954
O -2.57236 -8.85575 -6.86424
H -2.49548 -8.00225 -6.3488
H -2.91288 -9.57868 -6.26303
O -2.82374 8.75726 3.61474
H -2.08017 9.41992 3.52513
H -3.44109 8.84118 2.83252
O -7.43542 -3.12009 7.97177
H -6.66788 -2.52979 8.22171
H -7.48594 -3.19746 6.97603
O -12.3891 -5.47992 -9.24582
H -12.6999 -6.42755 -9.17221
H -12.8336 -5.04315 -10.028
O 1.08736 -5.68492 -12.4416
H 0.722797 -5.26823 -11.6088
H 1.84358 -5.13006 -12.7885
O 14.6251 8.5242 -0.667151
H 14.2923 7.90939 -1.38217
H 14.5574 9.47055 -0.983187
O 1.80064 6.64853 -13.0041
H 1.40506 7.42934 -13.4877
H 1.78258 6.82234 -12.0195
O 10.4804 9.93707 -5.32592
H 10.3638 8.97738 -5.07011
H 9.58918 10.3906 -5.33354
O -4.71972 -12.6054 5.57451
H -4.0334 -12.9211 4.91928
H -4.54315 -11.649 5.80739
O 8.90893 6.69388 -7.00091
H 7.9332 6.55359 -7.16919
H 9.29658 7.25294 -7.73386
O -9.75854 8.21857 -14.137
H -9.17402 7.4085 -14.1835
H -10.0184 8.49557 14.8958
O 13.2539 4.76786 -13.4172
H 12.5599 5.48782 -13.4087
H 13.1089 4.1744 -14.2089
O -2.53446 13.6359 -6.67676
H -2.60981 14.1385 -5.81552
H -2.59762 14.2757 -7.44271
O -14.3694 -13.1957 1.4646
H -13.5065 -12.8835 1.06712
H -14.822 -13.8215 0.829249
O 10.3445 8.30631 10.3676
H 9.61707 8.50292 9.71023
H 10.0965 8.68071 11.2611
O 2.84032 -9.78932 12.0735
H 2.3143 -10.2502 11.3586
H 3.7727 -10.1506 12.0866
O 13.8269 0.613582 -9.8404
H 13.4923 0.0559521 -9.08071
H 13.9816 1.54952 -9.52401
O 13.4561 -9.97126 -1.20587
H 14.4174 -10.2048 -1.35196
H 13.2821 -9.87302 -0.226014
O -7.53664 14.8955 -2.2532
H -7.60084 13.9428 -2.55035
H -8.36585 -14.5726 -2.52258
O 1.27804 -8.233 -11.3557
H 2.17677 -8.32308 -10.9265
H 1.13697 -7.28401 -11.6377
O -4.87711 -6.91933 14.49
H -4.6216 -6.81704 -14.5065
H -5.01184 -7.88819 14.2821
O 7.8883 7.57827 -13.0562
H 8.2323 8.49618 -12.8584
H 7.41328 7.58285 -13.9362
O 7.25371 1.18596 -14.2769
H 6.39228 1.57452 -14.604
H 7.57308 0.492486 -14.9228
O -0.708999 -7.0515 6.84312
H 0.00235356 -6.47856 6.43599
H -0.36329 -7.46338 7.68625
O 5.88592 -9.46674 6.67246
H 5.74588 -9.89999 7.56281
H 6.8644 -9.32827 6.51937
O -1.15936 7.37194 -2.74502
H -1.57478 6.48311 -2.93853
H -0.250463 7.41253 -3.16011
O -11.9307 10.9876 8.78571
H -11.0073 11.3493 8.65688
H -11.8765 10.0394 9.09877
O 2.42953 10.6058 9.00138
H 2.227 10.8706 8.05857
H 2.47063 11.4234 9.57574
O -10.8113 -6.32108 -2.94392
H -11.3026 -6.55881 -2.106
H -9.99218 -5.79618 -2.71249
O -1.96125 5.81491 0.343485
H -1.17248 6.34229 0.0276466
H -2.14664 5.07373 -0.301745
O 3.67097 10.2007 -8.51043
H 4.40207 9.97726 -7.86576
H 2.8445 10.4478 -8.00455
O -13.8782 12.8915 10.1463
H -14.2913 13.7759 9.92914
H -13.3176 12.5874 9.37605
O -1.46351 4.9973 13.9734
H -1.51554 4.38714 13.1828
H -1.0487 5.86465 13.6983
O 6.77199 -2.6041 -7.08389
H 6.75634 -2.95841 -8.0189
H 7.3359 -1.77896 -7.04951
O -2.31366 6.93732 -8.45651
H -2.81445 6.15326 -8.82324
H -2.9091 7.45562 -7.84262
O -7.28874 5.4316 -12.569
H -7.59534 6.05493 -11.8496
H -6.5965 4.81142 -12.1999
O -12.1707 4.30986 2.2092
H -12.5419 3.66582 2.87813
H -11.8261 3.80606 1.41707
O 13.4393 -13.2729 10.7093
H 12.953 -12.4654 10.3754
H 14.0653 -13.6012 10.0018
O -6.12035 -6.94447 -1.6491
H -5.42055 -7.61868 -1.88521
H -5.75259 -6.30471 -0.974198
O -10.515 7.25953 -5.89138
H -10.7477 6.30096 -5.72701
H -10.7452 7.80173 -5.08327
O -7.88284 2.17176 7.90028
H -6.9174 1.91756 7.84244
H -7.99907 2.88409 8.59245
O -4.13468 -0.140282 -9.0218
H -3.55334 0.652611 -9.20456
H -4.89028 -0.157616 -9.67663
O 14.0817 13.0892 3.91066
H 13.764 12.3829 3.27809
H 13.8574 12.8226 4.84801
O -2.06394 8.95442 6.93996
H -2.72172 8.32798 7.3582
H -1.45814 8.44331 6.3302
O -3.87929 -7.27466 -9.34793
H -3.20119 -6.84084 -9.94124
H -3.41336 -7.75507 -8.60487
O 5.58952 4.85998 14.024
H 6.41386 4.48933 13.5961
H 5.82493 5.67936 14.5467
O 10.2752 7.29846 0.891527
H 11.27 7.35919 0.809236
H 9.86093 7.36592 -0.0161396
O 3.6584 12.4094 5.94507
H 3.88252 11.4403 5.84201
H 2.68421 12.5064 6.14898
O 1.82423 -13.9614 -2.96926
H 2.39798 -13.905 -2.15215
H 1.17885 -14.719 -2.87171
O 6.07026 2.72497 2.25014
H 6.33152 3.45657 2.87986
H 6.10851 3.06462 1.31035
O 14.1863 -4.82156 -4.00277
H 14.3644 -4.49945 -4.9326
H 13.5123 -5.5598 -4.02911
O 4.42528 3.11745 -2.80296
H 3.91539 3.80267 -2.28284
H 5.12396 2.7064 -2.21736
O 10.9997 -1.17688 -12.5637
H 11.1024 -0.296774 -12.1001
H 10.0398 -1.45604 -12.5402
O -14.2425 5.97896 -11.0708
H -14.6068 6.74281 -11.6036
H -13.5939 5.46213 -11.6296
O -2.25151 2.23694 -9.60541
H -1.26354 2.21097 -9.45286
H -2.5602 3.18782 -9.62939
O -14.702 14.7705 -3.59624
H -14.3369 -14.3126 -3.91498
H -14.1355 14.0251 -3.9476
O 2.30469 7.5427 13.8396
H 2.4624 8.50424 14.0646
H 2.58331 6.96998 14.6106
O 8.64716 -1.83642 -1.16492
H 8.67266 -2.46079 -0.384185
H 8.50462 -2.35929 -2.00535
O -9.58482 -7.13017 9.38557
H -8.89486 -6.86666 8.71137
H -9.30903 -7.98308 9.82886
O 13.4737 -5.26882 -14.14
H 13.6024 -4.27778 -14.1038
H 12.568 -5.47404 -14.5108
O -9.88295 -4.7672 11.3227
H -10.4152 -5.46965 10.8502
H -9.48318 -5.15448 12.1535
O -11.0971 4.17485 -3.15096
H -10.4163 3.46781 -2.95955
H -11.2328 4.24821 -4.13902
O 7.03771 5.49065 4.62654
H 6.99984 5.32079 5.61129
H 7.69315 4.86387 4.20514
O 12.2614 -9.8688 -13.4453
H 12.9868 -9.98488 -14.1238
H 12.6489 -9.9464 -12.5266
O 14.6626 -9.09248 7.99102
H 14.3362 -8.81183 7.08839
H -14.376 -9.47721 7.90825
O -5.13255 -14.4786 -1.11548
H -5.16361 -14.3228 -0.128169
H -6.04246 -14.7356 -1.44115
O -4.86404 -11.5515 -2.25609
H -4.40824 -12.286 -1.75327
H -5.51238 -11.9459 -2.90737
O -8.66981 -4.31164 14.1547
H -9.26589 -5.11328 14.2004
H -9.21558 -3.50244 13.937
O -14.2624 7.67133 9.38698
H 14.8875 7.32548 9.86407
H -13.5281 7.83007 10.047
O 6.48723 -13.5904 8.42098
H 5.58594 -13.2121 8.63219
H 7.12893 -12.844 8.24431
O 2.57257 -0.186496 -6.27597
H 2.07499 -0.974048 -6.63958
H 1.99816 0.629533 -6.34067
O 4.44377 3.72163 -12.5608
H 4.8321 3.02753 -13.167
H 4.94775 4.57853 -12.6693
O 4.30314 10.5998 3.62186
H 4.6929 10.0799 2.86172
H 3.96091 11.477 3.28493
O 13.7808 2.99941 -8.72181
H 13.4991 3.80821 -9.23812
H 13.673 3.1745 -7.74316
O 0.553729 13.7549 0.754311
H -0.175537 13.8445 0.0759506
H 1.03076 12.8866 0.618114
O 11.0886 -5.36634 14.5688
H 10.6907 -6.25323 14.3339
H 10.358 -4.72426 14.8011
O -10.8199 4.39858 5.07422
H -11.4991 4.46242 4.34307
H -11.0719 3.66022 5.69979
O -7.82293 -7.18086 -14.0997
H -7.57903 -7.30462 14.8963
H -8.35318 -7.96865 -13.7863
O 9.20988 2.86719 8.67178
H 9.08955 2.35368 7.82214
H 8.32912 3.24054 8.96318
O -3.20602 -6.92221 11.8922
H -3.71447 -6.51871 12.653
H -2.24297 -6.66134 11.9594
O -4.8407 4.16437 10.4834
H -4.9429 4.65358 11.3496
H -4.07903 4.55608 9.96721
O 8.59586 -14.5496 -5.87849
H 8.03605 -13.7952 -6.2214
H 9.28337 -14.1935 -5.24555
O 8.72888 -11.9649 7.5392
H 8.85991 -10.9744 7.58121
H 8.81221 -12.2723 6.59124
O 2.48865 -1.7453 3.51128
H 2.38022 -2.10622 2.58499
H 3.39805 -1.97868 3.85561
O 13.1813 2.54605 -14.9381
H 13.2136 1.61286 -14.5801
H 12.658 2.55825 14.1677
O 2.08468 -8.75269 1.16502
H 2.44821 -9.61233 0.805997
H 2.63413 -7.99003 0.823706
O 13.9837 -7.70789 14.1632
H 13.8577 -7.00023 14.8585
H 13.9611 -7.29044 13.2548
O 9.42727 -10.7032 2.35843