2611
Atoms. Timestep: 8000000
O -11.6805 11.6668 1.53106
H -10.8068 12.1109 1.33248
H -12.2966 12.3231 1.9666
O -6.86201 -6.91564 14.1511
H -6.50107 -7.38021 14.9598
H -6.13944 -6.3655 13.7325
O 6.35207 -8.55819 -6.87221
H 6.58276 -8.00476 -6.07188
H 5.5419 -9.10978 -6.67374
O 2.36043 4.03902 -8.38011
H 2.01061 3.19262 -7.97854
H 1.60376 4.55514 -8.78148
O -11.4832 4.49191 -1.41276
H -12.2598 4.21574 -0.846489
H -11.7841 4.60272 -2.35997
O -1.12391 -13.3665 -3.508
H -1.56992 -13.9761 -4.16336
H -1.49184 -13.5339 -2.59332
O -10.2378 -10.53 5.01245
H -10.6312 -10.6045 5.92882
H -9.60445 -11.2884 4.85888
O -12.7525 1.79282 -3.94949
H -12.9694 2.54504 -4.57168
H -13.0777 0.932029 -4.34108
O 4.36864 0.320327 9.35737
H 4.80485 -0.401672 8.82029
H 4.83828 0.412568 10.2354
O 11.2875 7.27731 -13.8447
H 10.303 7.28948 -13.6697
H 11.4679 7.63818 -14.7597
O 3.24718 7.48437 -5.96924
H 2.82923 8.14248 -5.34295
H 2.73311 7.46755 -6.82684
O 6.68021 1.5438 6.05492
H 6.58429 0.558539 5.91321
H 7.64796 1.77276 6.16009
O -12.6371 -13.8716 -12.0894
H -12.475 -13.2112 -11.3562
H -13.2171 -13.456 -12.7901
O -7.00974 6.73721 1.28216
H -6.97889 6.30699 2.18436
H -6.59516 6.12663 0.607371
O 11.6023 -7.86337 3.43249
H 12.5918 -7.81211 3.56724
H 11.3682 -8.73941 3.01081
O -7.09825 -13.9453 -9.66637
H -7.13853 -14.7688 -9.10045
H -6.2123 -13.9012 -10.1281
O -14.8186 7.69928 0.599932
H -14.1194 7.76173 -0.112248
H 14.9571 6.73795 0.774331
O -11.2321 -7.27502 -5.71118
H -10.369 -7.16966 -6.20505
H -11.5882 -8.19828 -5.8555
O 13.7382 -3.15984 13.6802
H 13.5243 -4.00585 13.1918
H 14.3462 -3.36268 14.4478
O -1.60241 12.1144 -13.7817
H -2.37374 11.5249 -13.542
H -1.07944 11.6941 -14.5232
O -13.1032 -14.7818 9.93929
H -12.5705 14.4817 10.3754
H -12.5637 -13.9402 9.91566
O -4.16345 -6.47935 10.8652
H -3.90678 -6.16484 11.7791
H -5.01423 -6.034 10.5862
O 13.9429 8.87132 -2.54132
H 14.0645 7.87962 -2.58306
H 13.7119 9.21737 -3.45069
O 6.58813 4.22223 -5.82732
H 5.70533 4.6725 -5.9613
H 6.87785 4.33287 -4.87662
O -13.5021 0.153433 11.569
H -13.2197 0.11603 12.5276
H -12.8522 -0.361094 11.0097
O -12.6437 -6.11207 13.0864
H -11.8722 -6.65606 13.4163
H -13.4587 -6.68885 13.0311
O -0.404819 -10.7768 -4.93755
H -0.772488 -11.683 -4.7284
H -0.137048 -10.3216 -4.08836
O 9.92656 13.9496 2.69787
H 9.67638 14.5043 1.90433
H 9.5512 13.0287 2.5925
O 3.81072 9.74531 -1.54021
H 4.49105 9.16744 -1.99103
H 4.13226 10.6922 -1.52929
O 9.25192 0.661591 8.31916
H 10.0171 1.2527 8.5744
H 9.36026 0.367496 7.36953
O 2.79199 8.86586 12.7519
H 2.29222 8.14491 12.2718
H 3.6158 9.1007 12.236
O 1.59918 9.63402 -5.40088
H 1.66717 10.6278 -5.48936
H 0.907793 9.28938 -6.03588
O -7.71478 14.2448 6.54223
H -7.95831 13.8738 5.6461
H -8.10639 13.6682 7.25933
O 10.6951 -10.9524 -0.708135
H 11.6056 -10.5471 -0.790311
H 10.5592 -11.6183 -1.4417
O -2.39174 7.18608 -5.78157
H -2.41906 7.3154 -4.79033
H -1.44541 7.24483 -6.09942
O 7.19245 5.70712 2.24167
H 6.6425 6.36509 2.75612
H 8.16091 5.93937 2.332
O -13.2223 4.25863 0.457469
H -13.1981 4.70986 1.34956
H -13.8092 3.45058 0.50848
O -14.2233 -10.8337 -0.266841
H -13.6127 -10.2193 0.232914
H -13.8288 -11.0398 -1.16236
O 7.81186 -14.8882 -9.37691
H 8.05375 -14.9883 -10.342
H 7.158 14.3884 -9.12157
O 12.55 -3.40999 2.55774
H 11.6417 -3.44447 2.97468
H 12.5845 -4.0394 1.78142
O 10.3795 -4.79086 13.2712
H 11.1208 -5.46184 13.286
H 10.2954 -4.40725 12.3515
O -11.342 7.21962 3.04805
H -11.8085 8.0761 3.26917
H -10.4115 7.24293 3.41339
O -10.5844 1.35014 -2.53033
H -11.2315 1.56212 -3.26275
H -10.7711 1.93507 -1.74102
O 1.7547 1.00006 -10.3514
H 2.26868 1.62823 -10.9355
H 1.48669 0.195656 -10.8816
O -5.51384 11.7743 7.93571
H -5.65335 10.7971 8.09601
H -4.56545 12.0141 8.1433
O 4.97747 14.0316 -4.67583
H 4.89528 -14.9696 -4.54235
H 5.81561 13.8324 -5.18366
O -10.3135 -7.74245 0.381687
H -10.1954 -7.12733 1.16125
H -10.2523 -7.219 -0.468184
O -6.34393 7.88235 5.10737
H -6.29632 8.35467 5.98752
H -5.43828 7.5328 4.86726
O 7.24677 -7.17835 -8.94385
H 6.89784 -7.69413 -8.16139
H 7.45494 -6.24234 -8.66002
O -1.82825 14.5707 6.16642
H -2.02347 14.7025 5.19455
H -1.11664 -14.7769 6.45344
O 8.78712 -11.2946 4.96163
H 9.24452 -12.1459 4.70437
H 7.83865 -11.4884 5.21234
O -7.38855 2.01786 3.11668
H -6.64702 2.01726 3.78762
H -7.82987 2.91518 3.10844
O -11.7447 -14.2851 -7.7508
H -11.7148 14.7113 -7.63183
H -12.6954 -13.9755 -7.73173
O -5.0989 7.5732 -5.04891
H -4.18423 7.5071 -5.44769
H -5.10042 7.14445 -4.14547
O -12.2227 -4.41166 -14.67
H -13.1238 -4.15598 -14.3197
H -12.331 -5.02012 14.5327
O -10.222 -12.4336 -6.12312
H -10.9117 -12.9014 -6.67575
H -9.4637 -12.1471 -6.70882
O 10.8427 5.10131 -11.181
H 11.229 4.78581 -10.3143
H 11.5528 5.56024 -11.715
O -2.74362 1.49449 5.16383
H -1.96264 1.73793 4.58865
H -2.64277 0.551542 5.48118
O 11.0739 12.9509 -12.1804
H 10.7948 12.2131 -12.795
H 11.9574 13.3146 -12.4759
O -0.737636 -9.48437 -12.8441
H -0.604719 -10.4456 -13.0858
H -0.177485 -8.91005 -13.4411
O 9.7654 -2.43108 -4.8944
H 10.5628 -2.20614 -5.45436
H 9.56854 -1.67157 -4.27439
O 10.3584 -11.3077 -9.13504
H 9.9717 -10.3856 -9.14745
H 10.1645 -11.7387 -8.25375
O -3.28393 6.38662 -8.31292
H -2.68039 6.66797 -7.56686
H -3.19248 5.40207 -8.46238
O 1.53553 -9.11197 -0.822741
H 2.47348 -8.85309 -0.591988
H 1.30979 -8.76891 -1.73454
O 0.635118 1.13522 11.2136
H 0.957301 0.850239 10.3108
H 1.06711 0.569114 11.9157
O -9.24789 -4.99131 -4.74028
H -8.81264 -4.12765 -4.99459
H -9.11735 -5.65888 -5.47331
O -3.04176 -7.45188 -14.4855
H -3.40009 -8.35771 -14.7115
H -3.44723 -7.13775 -13.627
O -2.33922 -2.93942 -3.69713
H -3.0873 -3.50691 -3.3531
H -2.17365 -2.18515 -3.06176
O 2.96147 -13.4333 11.1619
H 3.86121 -13.0548 10.9445
H 2.82729 -13.4257 12.1529
O 5.43856 -6.47995 14.3278
H 6.19717 -7.11521 14.4727
H 5.74187 -5.72589 13.7452
O -8.42233 -8.32592 7.53843
H -7.78256 -9.09329 7.58156
H -8.17683 -7.72983 6.77395
O -6.81472 14.1337 11.1393
H -6.71876 14.9235 10.5334
H -7.35901 14.3905 11.938
O 13.9602 -7.37399 5.17184
H 14.3 -8.28529 5.4043
H 14.2754 -7.12424 4.25624
O -13.6239 9.52335 -9.37969
H -12.9814 8.75732 -9.35766
H -13.2148 10.3146 -8.92525
O 3.66501 -8.14965 6.67592
H 3.89091 -8.62352 5.82478
H 4.16351 -7.28375 6.71775
O 13.1794 3.34497 -7.07653
H 12.8 3.29883 -6.15241
H 13.5751 2.45919 -7.31899
O -12.3444 9.63825 3.08503
H -13.2222 9.9015 3.4851
H -12.1106 10.2721 2.34774
O 13.845 -9.15166 -3.32558
H 14.4517 -9.68396 -3.916
H 13.5936 -9.69815 -2.52673
O 1.56638 13.5068 7.03456
H 2.35407 13.5692 6.42164
H 1.02742 14.3468 6.9712
O -11.6242 7.03323 -10.5923
H -11.0167 7.42872 -11.2812
H -11.1827 6.23877 -10.1753
O -5.06623 -14.1534 -13.66
H -4.11511 -14.4491 -13.7493
H -5.51936 -14.2151 -14.5493
O -8.26808 14.4196 13.4304
H -9.25398 14.3418 13.2822
H -8.05911 14.2288 14.3895
O -13.536 -10.9354 13.3624
H -12.9964 -10.9481 12.5205
H -13.0914 -10.343 14.0343
O -9.38821 8.04889 5.20921
H -9.85256 8.9179 5.03823
H -8.45605 8.09269 4.84979
O 4.93582 9.49607 -11.3592
H 5.88264 9.52501 -11.0387
H 4.69682 10.3748 -11.7725
O -9.69393 8.16046 -12.2158
H -9.14328 7.40794 -12.5771
H -9.2953 8.48289 -11.3572
O -6.2122 -3.27309 2.46775
H -5.98626 -2.96508 3.39193
H -6.36778 -4.2609 2.47434
O 0.584711 -14.0393 9.41211
H 1.46157 -13.921 9.8781
H -0.101356 -14.3546 10.0678
O -1.78803 -7.34221 9.63217
H -2.63994 -6.96344 9.99383
H -1.81898 -7.33746 8.63265
O -10.1964 14.7955 -12.7273
H -10.4452 14.1338 -13.4346
H -11.0246 -14.7675 -12.363
O 3.86871 -3.86465 -14.071
H 3.51612 -4.57256 -14.6831
H 3.42584 -3.94521 -13.1781
O -9.84438 3.94465 -7.75367
H -10.6052 3.35482 -8.02425
H -9.09005 3.38173 -7.41583
O 2.73857 8.17393 -8.9614
H 3.36971 7.52375 -9.38445
H 1.79982 7.94 -9.21447
O 8.76741 4.4577 -7.4805
H 9.21945 5.26828 -7.10815
H 8.00223 4.20182 -6.8897
O -4.86348 -12.7335 -5.70435
H -5.26725 -12.4351 -6.56919
H -4.2977 -11.999 -5.32964
O -7.1277 13.609 -14.4018
H -6.37378 12.986 -14.6105
H -7.21797 13.7026 -13.4103
O 8.84776 2.57681 12.2973
H 8.70107 2.15359 13.1914
H 8.38001 2.04118 11.5942
O -2.6282 10.3321 -4.6935
H -2.53731 11.1669 -4.15052
H -2.55162 9.53497 -4.09458
O -7.6733 -6.58097 -2.82732
H -8.56621 -6.46163 -2.39314
H -7.79683 -6.95675 -3.74577
O -7.96634 6.59299 -13.6995
H -8.38506 5.68792 -13.625
H -7.38617 6.62582 -14.5134
O 5.87136 -10.951 -0.226391
H 4.94459 -11.2924 -0.0695957
H 6.29038 -11.4581 -0.979588
O 11.7284 -0.774867 5.58664
H 12.5162 -0.327841 5.16306
H 11.5975 -0.414692 6.51032
O 12.391 -7.12191 -10.8398
H 12.778 -7.30137 -11.7443
H 13.0775 -7.31613 -10.1391
O -2.55296 -2.53391 4.06625
H -1.75682 -2.30389 4.62597
H -3.32014 -1.94471 4.31983
O 8.70103 -11.0333 12.8216
H 8.23332 -11.1677 13.6952
H 8.19299 -10.3719 12.2698
O -5.43757 7.23892 -13.0457
H -6.43143 7.16267 -12.9654
H -5.00902 6.91113 -12.2037
O 1.6239 13.0878 -8.93712
H 1.11528 13.4449 -8.15368
H 1.02973 12.4908 -9.4762
O 12.5669 9.52214 -12.8155
H 13.3821 9.25687 -12.3007
H 12.117 8.70344 -13.1723
O -0.429846 -10.2054 8.88542
H -1.1966 -10.5478 9.42846
H -0.723616 -10.0761 7.93832
O 9.51428 -3.2245 6.89928
H 10.4396 -3.51266 6.65257
H 9.47269 -2.22576 6.92781
O -4.70047 -14.3574 -10.911
H -5.02285 -14.2484 -11.8513
H -3.73116 -14.6033 -10.9173
O 9.81591 11.841 -9.86692
H 10.281 12.475 -10.4849
H 10.0369 12.0758 -8.92032
O 0.0829563 -5.09726 -13.1472
H -0.04476 -5.64121 -13.9766
H 1.05549 -5.0642 -12.9167
O -0.435124 -11.7996 0.211135
H -1.15912 -11.4135 -0.360529
H -0.245034 -11.1794 0.972269
O 10.4268 -10.0701 14.5465
H 10.7245 -10.8417 -14.8802
H 9.86612 -10.4059 13.7896
O 8.87198 -8.92176 9.69568
H 8.41793 -9.35204 10.4759
H 8.25473 -8.25601 9.2764
O -1.59719 9.20635 -10.1407
H -2.53374 8.9437 -10.3729
H -1.57302 9.56404 -9.20717
O -8.10971 -4.59795 12.3234
H -7.79803 -3.75942 12.7704
H -8.55501 -5.18862 12.9964
O -1.55537 -1.21551 6.48636
H -1.12401 -0.836808 7.30522
H -2.54295 -1.28041 6.62956
O 1.55683 11.3048 12.7154
H 2.16162 10.5112 12.7817
H 1.56821 11.6553 11.7789
O 6.6128 11.1101 0.914897
H 7.10195 11.0276 0.046596
H 7.26024 11.3393 1.64173
O 4.44416 -13.7289 14.6258
H 5.11686 -14.0383 13.9537
H 4.27831 -14.4571 -14.698
O 9.99796 -0.751156 10.588
H 9.31951 -0.165206 10.1449
H 10.6174 -0.18863 11.1357
O -9.59756 6.18643 13.3546
H -8.67864 5.86311 13.1286
H -10.268 5.48899 13.1013
O 4.73948 -5.33062 -5.36735
H 4.29759 -5.13384 -6.24258
H 5.60395 -5.80631 -5.52992
O -10.8099 -1.37855 -2.84782
H -10.7134 -1.96387 -2.04277
H -10.7315 -0.419888 -2.57426
O 7.85913 3.42196 3.78414
H 7.74684 4.26029 3.25064
H 7.66137 2.63013 3.2063
O 0.986215 -12.21 -2.08334
H 0.590514 -12.0859 -1.17338
H 0.271902 -12.4987 -2.72089
O -14.3855 -13.5651 -14.843
H -14.4055 -14.351 14.5278
H -13.5105 -13.09 -14.9362
O 8.20854 13.8399 -0.699755
H 7.98317 14.3463 0.132528
H 8.86054 14.3672 -1.2446
O 9.75829 -1.33887 -12.4379
H 9.92646 -1.95465 -13.2077
H 9.69212 -1.87091 -11.5938
O 7.46549 -7.01925 8.23215
H 7.91587 -7.2493 7.36944
H 7.8887 -6.20103 8.62127
O -2.78162 -7.9939 3.69293
H -2.71316 -7.03534 3.96951
H -2.80172 -8.05221 2.69482
O -13.6656 3.8518 14.7282
H -13.0252 3.4998 -14.5781
H -14.5203 3.33479 14.7751
O -4.61463 14.407 2.35573
H -4.69119 13.812 3.15583
H -5.22907 -14.8 2.46174
O 10.3227 -12.8815 -2.89034
H 10.3354 -12.5989 -3.84952
H 9.38637 -12.8365 -2.54201
O -12.0632 -9.46388 7.35158
H -13.0485 -9.60899 7.44104
H -11.7416 -8.8873 8.1027
O 1.91856 10.0786 8.50188
H 2.47537 9.958 7.68003
H 2.16462 9.38246 9.17632
O -3.63227 7.35172 5.66314
H -2.91888 7.9288 6.06073
H -4.02721 6.77155 6.3755
O -0.407972 -5.67394 11.4357
H -0.873555 -5.78034 12.3143
H -0.7239 -6.3812 10.8033
O 9.73056 12.4446 14.2928
H 8.77436 12.6892 14.4536
H 10.1184 13.0531 13.6005
O 4.87384 9.4221 11.2144
H 5.01537 10.1134 10.5059
H 5.69915 8.86489 11.306
O 12.2374 4.63732 -14.0246
H 11.4637 4.04309 -14.2444
H 11.9562 5.5937 -14.1037
O 6.02992 12.0575 12.5037
H 6.11689 12.0847 11.5078
H 5.09501 12.2993 12.7634
O -8.67052 4.26475 -1.60964
H -8.60745 4.00267 -2.57264
H -9.63242 4.34771 -1.34909
O 7.37933 8.45818 10.2429
H 7.68635 7.55593 10.5458
H 7.38847 8.49531 9.24364
O 2.35334 -0.0252438 12.8139
H 3.04801 0.693454 12.8444
H 2.01361 -0.199864 13.7381
O -7.32076 -14.4263 -4.68587
H -6.65134 -13.8811 -5.19048
H -7.64094 14.8108 -5.26236
O 12.0346 -0.000384269 -11.6721
H 12.7344 -0.589869 -12.0756
H 11.1279 -0.341429 -11.9202
O 1.42188 -8.15733 -9.05386
H 0.846467 -8.9751 -9.06761
H 1.94095 -8.10064 -9.90672
O 1.38862 -8.01435 -14.1645
H 1.22343 -8.50493 14.9687
H 1.90286 -7.17785 -14.3539
O -4.85407 5.15488 6.93586
H -5.63399 5.48973 7.46464
H -4.17869 4.75448 7.5552
O -7.68139 2.99692 9.40944
H -8.57944 2.84334 9.82169
H -7.67065 2.61923 8.48356
O -5.05056 -0.974125 -8.54562
H -5.55202 -0.25825 -8.05973
H -4.95275 -0.718416 -9.50743
O -9.97941 14.7928 1.97681
H -9.86886 -14.3652 1.43138
H -9.72939 13.9967 1.4258
O -5.903 4.55051 -0.341924
H -6.64433 4.50896 -1.01179
H -5.67165 3.6247 -0.0429453
O -8.14244 -10.8179 -7.11634
H -7.4218 -11.2622 -7.64852
H -7.87914 -10.7958 -6.15187
O 2.93319 -11.7175 -14.171
H 3.16206 -10.8248 -14.5592
H 3.4078 -12.4346 -14.6814
O -3.78852 -6.8323 -5.59352
H -3.76 -6.39332 -6.49158
H -2.86409 -7.10385 -5.32574
O -6.40154 -11.139 13.0337
H -6.31962 -10.238 12.6076
H -6.42244 -11.0367 14.0282
O -8.46958 8.35433 -9.65792
H -8.83847 9.15663 -9.18861
H -7.50932 8.23326 -9.40638
O 11.8308 2.26932 6.70348
H 12.3899 2.01988 5.91276
H 10.9441 2.60979 6.39067
O 12.9778 9.75484 -4.83903
H 12.5296 9.01145 -5.33556
H 13.6224 10.2198 -5.44582
O -5.82642 8.35455 -1.95452
H -4.9372 8.65319 -2.30113
H -5.98084 8.7494 -1.04883
O 8.89831 -0.388875 5.77914
H 8.1852 -0.778167 5.19609
H 9.78045 -0.448821 5.31195
O 14.2356 -4.47489 -9.79381
H 14.8894 -4.28805 -9.06055
H 14.1959 -5.45986 -9.96201
O -11.7911 -4.87889 9.08446
H -11.2287 -5.67699 9.30062
H -11.7856 -4.72492 8.09639
O 5.99803 5.11865 -0.270365
H 6.58496 5.32223 0.513271
H 5.07762 5.46933 -0.0974437
O 9.9213 10.804 -13.5537
H 9.95436 11.2937 -14.4249
H 10.7082 10.1906 -13.4859
O -6.86685 -13.863 -0.439049
H -7.47225 -13.9302 -1.23214
H -6.37595 -14.7261 -0.320352
O -9.86638 10.6933 -9.27505
H -9.53289 11.2811 -10.0121
H -10.8315 10.8901 -9.10255
O 8.25884 4.94732 -12.7057
H 8.04521 4.23946 -12.0324
H 9.19286 5.27395 -12.561
O -10.7841 3.2833 3.27721
H -11.7455 3.51617 3.1309
H -10.3073 3.26822 2.39831
O 6.60526 4.55645 -9.88924
H 6.44011 3.61335 -9.60061
H 7.50178 4.85349 -9.56054
O 1.99693 1.14709 5.43277
H 2.96879 1.24452 5.64733
H 1.86678 0.364317 4.82421
O 13.4884 14.5605 -12.4099
H 13.9593 -14.9013 -11.7024
H 13.067 -14.8028 -13.0665
O -3.902 -10.8217 -13.307
H -3.94417 -10.1706 -12.5492
H -3.08869 -11.3952 -13.2088
O -6.63298 6.75158 13.6761
H -5.86799 7.38072 13.8139
H -6.50003 6.24702 12.823
O -2.12821 -14.6635 3.49374
H -1.15002 -14.7702 3.31552
H -2.64291 14.6869 2.9215
O -12.3911 11.8665 -8.66561
H -12.3478 12.3209 -7.77584
H -12.5336 12.5494 -9.38204
O -14.6992 -10.9764 -4.81897
H -14.5391 -11.7232 -4.17347
H 14.6715 -11.2869 -5.54115
O -1.70374 -4.13139 1.89706
H -2.078 -3.57951 2.6423
H -2.41983 -4.72495 1.52972
O -5.23391 -3.21231 -13.0506
H -5.47653 -3.07776 -14.0113
H -5.77637 -3.9621 -12.6717
O 13.8536 -1.06126 10.7988
H 13.7767 -2.05831 10.8031
H 14.8183 -0.801127 10.84
O 3.73227 14.5073 4.71679
H 3.27744 -14.5913 4.69036
H 3.09505 13.7984 4.41459
O -14.1206 -3.56689 -11.9693
H -14.4452 -3.64926 -11.027
H -13.3085 -2.9838 -11.9923
O -11.5676 6.9125 0.16886
H -11.5542 6.01096 -0.263653
H -11.4681 6.80892 1.1585
O 11.1815 7.99739 9.93162
H 10.2109 8.22453 10.0111
H 11.3514 7.10759 10.3552
O 8.24735 -5.24911 -2.29198
H 8.88305 -5.21126 -3.063
H 7.50287 -4.59843 -2.44154
O -8.7408 1.52946 14.0149
H -8.60019 2.17806 14.7629
H -7.85806 1.16213 13.7219
O -7.06588 -11.9669 1.68378
H -7.22983 -12.5821 0.912601
H -7.8985 -11.4489 1.87982
O -14.1886 -8.98183 -12.9549
H -14.9182 -8.30187 -12.8811
H -14.5798 -9.89944 -12.8842
O -7.18937 -4.41911 7.0878
H -8.03095 -4.79875 6.70357
H -7.17458 -3.42944 6.94507
O -1.80048 -9.18122 -6.54364
H -1.2532 -9.70636 -5.89193
H -1.95484 -9.72835 -7.36634
O 13.5861 -7.64154 -13.5838
H 12.8398 -7.16835 -14.0519
H 13.4402 -8.62938 -13.6376
O 13.5747 12.257 -6.43753
H 13.305 12.2406 -7.40035
H 12.7999 11.9792 -5.86956
O -2.82461 12.7475 -2.95567
H -2.26363 12.7714 -2.12817
H -3.77542 12.5607 -2.7085
O 4.4601 -10.2085 -6.35275
H 4.51771 -10.9254 -7.04756
H 3.57845 -9.74245 -6.42698
O -12.8826 -3.45764 5.70322
H -12.8882 -2.74317 6.40288
H -13.811 -3.59233 5.3569
O -1.19223 9.22472 6.29371
H -1.44854 9.53765 7.20826
H -0.670105 9.94087 5.83053
O 7.33032 1.79185 1.69405
H 7.57094 1.96748 0.739437
H 6.7996 0.946409 1.7539
O 1.37704 9.82311 -2.77093
H 1.31933 9.71885 -3.76382
H 2.28035 9.53068 -2.45701
O 5.50768 -11.585 7.28287
H 4.54223 -11.5502 7.02456
H 5.75197 -10.7481 7.77274
O -6.42241 -7.51568 -5.24855
H -6.67934 -8.47579 -5.1381
H -5.43395 -7.44867 -5.38448
O -3.51348 0.173468 -5.84046
H -2.58884 0.545573 -5.92166
H -3.74182 -0.335973 -6.67013
O -1.64999 13.3153 -0.538559
H -1.88912 12.9636 0.366502
H -0.668599 13.5041 -0.574184
O 14.356 0.980873 -7.10698
H 14.9374 0.577998 -6.40005
H 14.4182 0.433502 -7.94157
O 12.258 -8.06542 7.32079
H 11.6265 -8.65945 6.82242
H 12.7603 -7.4939 6.6719
O 7.44285 8.68676 7.39403
H 8.07361 9.3822 7.04976
H 7.25816 8.01831 6.67355
O -13.186 -8.85276 -8.3575
H -12.395 -8.24759 -8.44818
H -13.1438 -9.3269 -7.47805
O 10.0183 2.57345 -14.1955
H 9.06781 2.31628 -14.3701
H 10.4911 1.81615 -13.7451
O 13.3036 10.3915 13.5024
H 14.1508 9.86065 13.4786
H 13.3104 10.9942 14.3004
O 6.80131 -11.2391 -14.9493
H 6.30868 -12.0766 -14.7125
H 6.15453 -10.5572 14.6979
O 13.0162 -6.56996 -7.10057
H 12.6368 -5.64472 -7.10136
H 12.4657 -7.15546 -6.50547
O -3.76335 11.9062 -11.7533
H -4.68801 12.2702 -11.865
H -3.71879 10.9851 -12.1401
O -14.827 -4.67924 -0.414781
H -14.6526 -5.45481 -1.02151
H -14.433 -3.85028 -0.811858
O 0.836648 -12.5183 -12.6251
H 1.70969 -12.2002 -12.9947
H 0.992526 -12.9778 -11.7507
O -8.83343 1.53931 -6.16997
H -9.00981 0.563457 -6.04104
H -7.94252 1.66207 -6.60727
O -9.5729 -12.8773 -9.09323
H -9.91946 -13.7289 -8.7
H -8.693 -13.0486 -9.53646
O -0.386878 -1.99524 -13.0175
H 0.17489 -1.58326 -13.735
H -1.12993 -2.51825 -13.4351
O 1.1775 -4.16198 2.52038
H 0.181262 -4.19421 2.43976
H 1.49785 -4.96784 3.01836
O 11.2721 6.90905 6.70672
H 11.2143 7.18503 7.66616
H 10.383 6.56501 6.4048
O 1.47095 6.23629 -14.9235
H 1.90476 6.57505 14.2305
H 1.78394 6.77661 -14.1424
O 6.93062 0.248619 -2.32681
H 6.5428 -0.592901 -1.9507
H 6.40842 1.03398 -1.99433
O 6.36012 -3.04206 -13.6962
H 6.89017 -3.46642 -12.962
H 5.46296 -3.4798 -13.7555
O -10.5063 -4.85375 6.71705
H -11.0406 -5.50974 6.18392
H -10.7031 -3.92648 6.3985
O -7.74108 -4.88517 -8.85024
H -7.37452 -4.01895 -8.51065
H -8.70398 -4.76732 -9.09303
O 9.39783 -12.1862 -11.4015
H 9.89798 -12.0827 -10.5417
H 9.06325 -13.1252 -11.4816
O -0.311225 11.6987 -11.4186
H -0.828776 11.947 -12.2374
H -0.462744 10.7328 -11.2087
O -0.10722 3.6132 9.79298
H 0.330795 2.92746 10.3743
H -0.658132 4.22687 10.3586
O -6.34988 3.49709 -3.77938
H -5.88748 2.63433 -3.98396
H -7.33724 3.37949 -3.88577
O 7.04401 -14.8709 1.40271
H 6.16675 -14.4908 1.69592
H 7.3833 14.4864 2.0998
O 1.38497 13.3079 -0.0618672
H 2.10654 12.889 0.489366
H 1.23866 14.2498 0.240769
O 13.3774 -14.2339 -5.43663
H 12.4034 -14.4295 -5.55108
H 13.6706 -14.523 -4.52533
O 14.1856 -1.27101 3.13859
H 13.6594 -2.08725 2.90009
H 14.2982 -1.22529 4.13119
O -11.2981 -12.7618 9.47513
H -10.463 -13.2006 9.80711
H -11.3747 -12.8956 8.48707
O 10.1369 1.90327 -3.38346
H 9.52665 2.68628 -3.26308
H 9.59472 1.06612 -3.45575
O -2.4886 4.45114 4.59385
H -2.80613 4.83423 5.46129
H -1.82782 3.72233 4.77334
O -1.95414 -10.2312 -1.28871
H -2.67868 -10.4721 -1.93451
H -1.68778 -9.27735 -1.42717
O 2.55908 -13.0717 4.38636
H 2.83949 -12.7799 5.30086
H 2.48728 -12.2728 3.78908
O -9.23131 -2.31332 -14.3885
H -9.77149 -1.4757 -14.4699
H -9.82214 -3.06344 -14.0915
O -9.50969 10.4833 -13.5921
H -9.1303 10.2256 -14.4808
H -9.55119 9.67768 -13.0012
O 9.86286 3.27148 0.378279
H 10.5654 2.59038 0.171923
H 9.9821 4.06476 -0.218806
O 3.6677 6.82635 7.95467
H 3.03133 6.05594 7.91558
H 4.30897 6.69097 8.70997
O 5.70056 -6.35324 10.6088
H 6.25438 -6.90744 9.98737
H 4.89394 -6.01461 10.1243
O 6.28227 -14.8241 -12.6593
H 6.07914 -13.9848 -12.155
H 5.42961 14.6835 -12.8628
O -0.768885 6.46001 6.87065
H -0.177768 5.84624 6.3473
H -0.730696 7.37749 6.47468
O 10.6276 -14.8101 -5.37949
H 10.0938 14.7732 -4.63744
H 10.0239 -14.2751 -5.97061
O 14.1177 5.36883 12.3688
H 14.2073 4.51819 12.8868
H 13.4078 5.93834 12.7833
O 0.601452 7.85588 -10.6605
H -0.285826 8.3143 -10.6095
H 0.464481 6.88625 -10.8632
O -1.0291 9.92559 -1.36955
H -1.27109 10.7778 -0.905615
H -0.2201 10.0738 -1.93837
O 9.47564 -6.11169 0.0239714
H 9.02928 -5.87727 -0.839645
H 9.84979 -7.03721 -0.0346664
O -1.8397 -12.5357 -12.9945
H -0.876035 -12.4661 -12.7365
H -2.04167 -13.4728 -13.2793
O -6.43297 -0.966772 4.06617
H -6.13387 -0.452852 3.26215
H -7.09248 -0.421685 4.58381
O 10.8888 12.5108 -7.32853
H 11.6417 12.3937 -7.97623
H 10.9993 13.3776 -6.84222
O -1.1682 8.48115 11.9146
H -1.04298 7.63321 11.3995
H -1.93922 8.37858 12.5432
O 14.4237 4.71602 2.68381
H 13.8158 4.91777 3.4518
H -14.626 4.62823 3.01617
O 3.1721 -8.76964 11.9332
H 2.94825 -7.83841 11.6456
H 2.43809 -9.1253 12.5118
O 13.2117 5.42249 5.06972
H 12.5431 6.13626 5.2785
H 13.7109 5.17982 5.90151
O 4.23984 4.15284 12.1
H 4.53902 4.37 13.0292
H 4.50876 3.21668 11.8735
O 14.6869 -4.05561 4.86226
H 13.7282 -4.08959 5.14456
H 14.7586 -4.30129 3.89555
O 5.23659 5.71382 9.98153
H 4.67893 5.56054 10.7973
H 6.17632 5.92029 10.2541
O -0.749317 -6.60398 -8.27147
H -1.58885 -7.11445 -8.08541
H 0.0188027 -7.2403 -8.34291
O -2.21396 10.9929 12.9383
H -1.75432 10.4526 12.2334
H -3.15898 11.1671 12.6614
O 3.86203 6.74182 0.420008
H 4.6784 7.27369 0.645115
H 3.24003 6.73842 1.20304
O -5.92548 -7.90796 -13.5504
H -6.35455 -8.75706 -13.2422
H -5.52402 -7.43389 -12.7667
O -12.7484 10.9427 -3.02967
H -13.0768 10.6921 -3.94037
H -13.4695 11.4306 -2.53782
O 1.53491 5.55392 -4.72223
H 2.29484 5.99627 -4.24592
H 1.0461 4.95606 -4.0869
O -10.3945 9.48742 -0.0947662
H -11.06 10.2305 -0.165863
H -10.874 8.62483 0.0665739
O 4.40649 0.936108 -14.2632
H 5.08473 0.254486 -14.5378
H 4.63521 1.28683 -13.355
O -7.75422 9.34556 14.0946
H -7.7415 8.36594 14.2951
H -8.1381 9.49428 13.1833
O -9.34008 3.89495 5.56912
H -9.92811 4.21427 6.31227
H -9.87629 3.82051 4.7283
O -3.42213 6.03254 10.5791
H -3.69792 6.11155 11.5371
H -3.63724 6.88303 10.0991
O -6.51958 -0.996294 0.736816
H -6.84533 -1.21759 -0.182387
H -6.24869 -1.83694 1.20582
O 8.69825 -0.111711 -7.86777
H 9.69016 -0.0814105 -7.99122
H 8.45475 0.345007 -7.01212
O 14.6899 14.873 8.30126
H -14.4809 14.7096 8.85267
H 13.891 14.497 8.7706
O 4.51926 1.67671 -6.86958
H 4.84194 2.50695 -6.41504
H 5.29935 1.18122 -7.25164
O -3.65237 -13.4838 -1.40571
H -3.27178 -14.3887 -1.59657
H -4.44101 -13.5754 -0.797703
O -10.2336 -9.46848 11.5141
H -9.70566 -10.3022 11.6757
H -11.1812 -9.70942 11.3043
O -3.96457 -4.3847 -1.88158
H -3.72406 -4.05769 -0.967668
H -3.89858 -5.38222 -1.90674
O -3.84717 7.57731 -10.9003
H -3.73656 6.94736 -10.1315
H -4.66803 8.13139 -10.7617
O -10.9526 8.3171 -3.12547
H -10.9523 9.26353 -2.80253
H -10.011 8.01627 -3.2769
O -10.9008 -5.38343 -12.2623
H -11.387 -6.1734 -11.8887
H -11.4835 -4.9179 -12.9285
O -6.02135 -2.94003 10.9476
H -6.06987 -2.67147 11.9096
H -6.33217 -3.88543 10.8493
O -7.78603 14.0555 -11.736
H -8.6665 14.4388 -12.015
H -7.28533 14.7305 -11.194
O -6.92688 -8.40087 -0.93816
H -6.91562 -8.07402 0.00686166
H -7.2589 -7.67332 -1.53855
O -2.50382 -3.05472 -14.3828
H -2.1961 -3.19416 14.6649
H -3.49299 -3.19237 -14.3316
O 12.1145 -2.13309 -6.58685
H 12.6052 -2.08344 -5.71694
H 11.8523 -1.21198 -6.87468
O -2.24158 -11.5294 -8.14247
H -2.76148 -11.3532 -8.97834
H -2.28243 -12.5044 -7.92385
O -10.7253 -12.8293 0.695909
H -11.6503 -13.1129 0.948989
H -10.7368 -12.4375 -0.224082
O 5.83226 2.99386 -2.19805
H 5.16117 3.29037 -2.87757
H 5.72496 3.53634 -1.36485
O 4.97466 -14.3722 -10.247
H 5.34035 14.8636 -9.7
H 4.12948 -14.6648 -10.6942
O 12.8556 11.9405 11.1098
H 12.7523 11.5043 12.0037
H 12.8612 11.2404 10.3959
O 13.6598 12.3422 -9.33686
H 14.3947 11.6679 -9.40954
H 13.9529 13.2012 -9.7566
O -7.37818 11.261 2.96896
H -7.79933 10.3801 2.75305
H -6.39047 11.2028 2.82382
O -3.53629 -5.87004 0.730353
H -4.41787 -5.51095 1.03676
H -3.60717 -6.8586 0.597127
O 13.7524 -11.5647 13.0384
H 14.0937 -12.5035 12.9909
H 14.4772 -10.9324 12.7648
O -8.58919 -14.0586 -2.34038
H -8.13104 -14.2431 -3.20991
H -9.21484 -14.8091 -2.12743
O -1.72975 9.73135 9.25969
H -1.48278 9.06892 9.96695
H -0.978722 10.3794 9.13312
O -6.70549 -10.9252 -1.75297
H -6.80754 -10.0298 -1.31941
H -7.02005 -11.6373 -1.12527
O 13.3348 1.8513 4.44981
H 14.2074 2.30682 4.27358
H 12.7225 1.99141 3.67166
O 7.37295 13.5467 -14.5309
H 6.84647 14.1606 -13.9427
H 7.37914 12.6289 -14.134
O -7.61592 -4.82445 -0.651585
H -7.49547 -5.15399 -1.58802
H -7.84597 -3.85139 -0.667665
O 9.76495 6.35886 2.76552
H 10.1471 7.15532 3.23422
H 10.2309 6.23213 1.88983
O 10.6682 -3.30829 11.1701
H 11.5914 -3.40664 10.7986
H 10.4465 -2.33726 11.2594
O -12.3229 9.45941 8.96362
H -12.8285 10.2077 9.393
H -11.4871 9.81755 8.54733
O 8.47798 -2.35339 -9.87633
H 9.46689 -2.50196 -9.87269
H 8.27073 -1.47857 -9.43842
O 10.0731 4.71702 13.7324
H 9.89412 4.36995 14.653
H 9.63643 4.11923 13.06
O -8.02158 -7.09885 5.20697
H -7.78173 -6.3247 4.62115
H -7.53504 -7.91536 4.89615
O -12.5922 -10.7237 10.6484
H -13.4243 -10.3275 10.2603
H -12.2128 -11.3935 10.0101
O -10.519 -4.56879 -8.97377
H -11.3219 -3.97594 -8.91135
H -10.7646 -5.49409 -8.68478
O -7.10039 11.0803 -12.2798
H -7.19571 12.0248 -11.9655
H -7.70601 10.9261 -13.0605
O 3.79061 11.2013 -8.58696
H 3.55947 10.3838 -9.11442
H 3.03977 11.8592 -8.6457
O -9.00496 -13.2318 4.60713
H -8.06165 -13.0751 4.31451
H -9.35066 -14.0691 4.18344
O -14.9721 -9.18208 8.0277
H -14.9681 -9.77425 8.83352
H 14.0775 -8.90912 7.81929
O 6.98381 -3.69565 5.96801
H 6.75947 -4.02368 5.05036
H 7.97235 -3.56435 6.04264
O -11.845 3.72985 -13.0921
H -11.1695 3.59346 -12.3674
H -11.645 4.5805 -13.5783
O -4.43992 -5.54617 13.6879
H -3.82351 -6.2099 14.1116
H -3.92221 -4.73305 13.4217
O -10.6358 -0.600398 -8.51133
H -11.2379 0.140713 -8.21444
H -10.3932 -1.16817 -7.72468
O -2.60402 2.81931 12.3157
H -2.23594 2.18532 11.6356
H -2.01825 3.62805 12.3689
O 10.933 -4.51286 -7.22902
H 10.4154 -4.59607 -8.08057
H 11.4403 -3.65109 -7.23019
O 7.54344 0.730274 -12.6619
H 8.27113 0.0782687 -12.8749
H 6.73339 0.234906 -12.3481
O -14.9617 -12.9764 3.19654
H 14.3342 -12.2989 2.94988
H -14.3594 -12.5967 3.8987
O -13.1806 12.3904 7.98418
H -13.4724 12.4223 8.94014
H -13.9596 12.1478 7.40585
O -6.14039 1.65359 -0.214
H -6.42999 1.56587 -1.16713
H -6.14734 0.753039 0.220712
O 11.8361 5.44289 -8.23672
H 12.3168 4.61848 -7.938
H 11.5097 5.94671 -7.4369
O 9.18006 -3.16372 -14.5986
H 8.24626 -3.03378 -14.2652
H 9.27813 -4.0899 -14.9628
O -9.74441 -7.55044 13.3632
H -8.76122 -7.39912 13.4656
H -9.90316 -8.2512 12.6677
O 11.9399 -12.2404 7.7406
H 11.7762 -11.4856 8.37588
H 11.2181 -12.9249 7.84324
O -14.5525 -4.25832 8.70471
H -14.2879 -4.76705 7.88544
H -13.7356 -4.03406 9.23615
O 6.57768 -9.51301 11.1825
H 5.99815 -9.46075 10.3693
H 6.17549 -8.96279 11.9143
O -6.67769 4.70152 -10.8253
H -7.26621 4.61194 -10.0218
H -7.2281 4.60239 -11.6543
O 9.559 12.1925 10.276
H 10.2183 12.8333 10.6692
H 9.4285 11.423 10.9013
O -8.89465 -9.12456 -9.38193
H -8.39818 -9.02954 -8.51908
H -9.47435 -9.93856 -9.34505
O 11.2232 1.79824 2.64725
H 10.609 1.31376 3.27023
H 10.7173 2.51978 2.17456
O 3.64015 -12.8467 0.206591
H 2.77283 -13.3445 0.21295
H 4.26784 -13.2791 -0.440768
O -13.8338 -0.455072 -5.58193
H -14.5064 -0.881647 -4.97726
H -13.2395 -1.1599 -5.96934
O -14.6151 8.57056 12.9596
H -14.8329 8.06924 13.797
H -14.9549 8.06171 12.1686
O 2.80006 -11.6053 6.85539
H 2.73659 -11.4011 7.83226
H 1.96351 -11.3051 6.39705
O 14.2755 14.8312 0.805022
H -14.9091 -14.6921 1.17434
H 13.4673 -14.5845 0.939984
O 11.2769 -1.7583 13.7914
H 10.6098 -2.47137 14.0072
H 12.1989 -2.14424 13.8217
O 3.41386 3.45196 14.9445
H 2.64464 3.13135 14.3917
H 3.86974 2.66878 -14.6215
O 9.31125 13.5343 -3.46676
H 8.38482 13.251 -3.21872
H 9.94805 13.2589 -2.74656
O -10.2552 2.74007 10.5296
H -10.8444 3.15587 11.2225
H -10.7907 2.55172 9.70628
O -7.68642 -8.17599 1.66637
H -7.86809 -9.03051 2.15299
H -8.48064 -7.93464 1.1087
O -5.67551 -3.3137 -7.6935
H -5.36742 -2.37167 -7.82651
H -4.94462 -3.94365 -7.95615
O 8.14738 3.8434 -3.60854
H 8.70905 4.49484 -3.09848
H 7.43496 3.47724 -3.00987
O 2.24085 12.4567 9.75343
H 2.15756 13.1774 9.06523
H 2.23284 11.5636 9.30348
O 14.9114 -7.0429 -4.85475
H 14.3302 -6.91746 -5.65881
H 14.5065 -7.73331 -4.25524
O 1.24441 9.76439 4.54821
H 1.98684 9.95954 5.18911
H 1.01908 8.79081 4.5856
O 3.35246 4.90739 -12.4867
H 3.45778 5.89906 -12.5609
H 3.19518 4.51993 -13.395
O 10.8886 -13.1004 13.1876
H 11.7639 -12.6344 13.3176
H 10.1669 -12.4218 13.0511
O -5.3791 -2.49808 14.005
H -6.33065 -2.40198 13.7129
H -4.85341 -1.70622 13.6942
O -11.0293 -0.37484 -14.8698
H -10.4211 0.4006 14.9494
H -11.9749 -0.10168 14.9422
O 13.6437 3.26097 14.0557
H 13.175 3.91244 14.6523
H 13.5261 2.33532 14.4154
O -13.4048 -2.5482 -3.20299
H -13.303 -3.34087 -2.60187
H -12.5794 -1.98567 -3.15552
O -8.45647 -6.552 -6.85889
H -8.2407 -6.03864 -7.68951
H -7.61213 -6.90758 -6.45803
O 2.17339 -6.19378 11.3512
H 1.20119 -5.95977 11.3415
H 2.61551 -5.81477 10.5382
O -14.0117 -6.49585 7.09362
H -13.9129 -6.45701 6.09927
H -14.2916 -7.41672 7.36504
O 3.06197 7.75707 -12.363
H 3.80629 8.25143 -11.914
H 2.18567 8.06766 -11.9947
O -10.4592 13.9366 -2.01707
H -11.3548 13.9758 -1.574
H -10.545 13.4795 -2.90236
O 3.42684 -10.8753 -11.2782
H 3.28661 -9.89502 -11.139
H 3.44997 -11.0729 -12.2582
O 5.00477 -5.31789 -9.9144
H 5.69675 -5.11193 -9.22246
H 5.26051 -6.15169 -10.4037
O 6.61756 -4.43596 3.3961
H 7.44366 -4.3725 2.83614
H 5.88943 -4.87258 2.8677
O 10.0254 9.79068 -6.60734
H 10.6806 10.5293 -6.76573