LAMMPS data file via write_data, version 15 May 2015, timestep = 1000000

4560 atoms
7 atom types
5040 bonds
3 bond types
7200 angles
2 angle types
10560 dihedrals
3 dihedral types
2400 impropers
1 improper types

-1.0763502675555259e-01 4.1387635026745990e+01 xlo xhi
-4.0433884491974936e-02 3.5938433884472119e+01 ylo yhi
-3.5711112484589691e-01 2.9555111124838550e+01 zlo zhi
-6.7234083837551181e-02 -1.7036217651000683e+01 -4.1707816797290791e-02 xy xz yz

Masses

1 12.0107
2 1.008
3 12.0107
4 12.0107
5 12.0107
6 12.0107
7 12.0107

Pair Coeffs # lj/cut/coul/long

1 0.07 3.55
2 0.03 2.42
3 0.07 3.55
4 0.07 3.55
5 0.07 3.55
6 0 0
7 0.07 3.55

Bond Coeffs # harmonic

1 469 1.4
2 367 1.08
3 469 0.7

Angle Coeffs # harmonic

1 35 120
2 63 120

Dihedral Coeffs # opls

1 0 7.25 0 0
2 0 7.25 0 0
3 0 7.25 0 0

Improper Coeffs # cvff

1 2.5 -1 2

Atoms # full

219 13 3 0.0000000000000000e+00 -2.8285877123268910e-01 3.1191716896119264e+00 3.1011935057940652e+00 1 0 0
220 13 4 -1.1500000000000000e-01 2.8110512205305982e-01 4.1328067025475184e+00 2.3475105217058467e+00 1 0 0
224 13 2 1.1500000000000000e-01 5.1045385210647498e-01 5.2131865093790397e+00 2.6459723584825947e+00 1 0 0
580 33 4 -1.1500000000000000e-01 2.6706191818828882e+00 6.7662889364387446e+00 4.0219635648505498e+00 1 0 0
228 13 3 0.0000000000000000e+00 -4.7466030016333649e-01 1.8216106920756985e+00 2.6079293762241433e+00 1 0 0
989 53 4 -1.1500000000000000e-01 -1.3769931624181586e+00 7.0852107103704345e+00 3.5099006525279290e+00 1 0 0
600 34 2 1.1500000000000000e-01 -5.6512245082634749e-02 5.8286987735825422e+00 6.8492975063406032e+00 1 0 0
245 14 4 -1.1500000000000000e-01 -4.8977983896961401e+00 1.4525048384215420e+00 9.0438582663738956e+00 1 0 0
227 13 4 -1.1500000000000000e-01 -1.5464995404757231e-01 1.5648532807527522e+00 1.2597821304602488e+00 1 0 0
4390 233 1 -1.1500000000000000e-01 2.3509230515479427e+00 7.0984141182970673e-01 5.4594680272197964e+00 1 1 0
733 13 6 0.0000000000000000e+00 -4.2056600516125608e-01 2.4518683025232870e+00 2.9444518767754180e+00 1 0 0
1009 54 2 1.1500000000000000e-01 -3.3275839935915865e+00 7.4225608760917012e+00 7.0715519356224039e+00 1 0 0
230 13 1 -1.1500000000000000e-01 7.3040986094104765e-01 3.8172597573811471e+00 1.0320694916366517e+00 1 0 0
217 13 7 -1.1500000000000000e-01 -1.2634908215628817e+00 2.4359858025052836e+00 5.2322792608394133e+00 1 0 0
218 13 5 -1.1500000000000000e-01 -5.8448455864661630e-01 3.4020535881567029e+00 4.4636161312223868e+00 1 0 0
221 13 1 -1.1500000000000000e-01 -1.6983936740238919e+00 1.1856034580690864e+00 4.6718588982294955e+00 1 0 0
222 13 2 1.1500000000000000e-01 -1.4733009121878902e+00 2.7188783015108027e+00 6.2563978507124069e+00 1 0 0
223 13 2 1.1500000000000000e-01 -4.1256360534644410e-01 4.3836017566754908e+00 4.9069423499935967e+00 1 0 0
248 14 1 -1.1500000000000000e-01 -3.5492128745048213e+00 3.5031320580257854e+00 8.6214665958846339e+00 1 0 0
4380 233 4 -1.1500000000000000e-01 2.5945704514327739e+00 1.1224923752219773e+00 4.1356395713199925e+00 1 1 0
244 14 1 -1.1500000000000000e-01 -4.1831391037062806e+00 2.3381096233638177e+00 8.1410431303791349e+00 1 0 0
603 34 2 1.1500000000000000e-01 7.2302129933822545e-01 3.4913054276227040e+00 7.4589888674333622e+00 1 0 0
4396 234 5 -1.1500000000000000e-01 -7.3742027359180540e-01 2.1015649213157281e-01 9.2327680093546451e+00 1 1 0
4394 233 2 1.1500000000000000e-01 1.7889825162766999e+00 1.2645428301430359e+00 6.2293278713742666e+00 1 1 0
579 33 3 0.0000000000000000e+00 3.3772612122220980e+00 5.8474796658711794e+00 3.1949712769653709e+00 1 0 0
252 14 2 1.1500000000000000e-01 -3.0502245457874819e+00 4.1448122499223423e+00 8.0056095809598009e+00 1 0 0
581 33 1 -1.1500000000000000e-01 4.7424350377942455e+00 4.0781582137223644e+00 1.5141131966179966e+00 1 0 0
596 34 5 -1.1500000000000000e-01 -5.6028019725788969e-01 6.3357619274516939e+00 8.8841752649361236e+00 1 0 0
577 33 7 -1.1500000000000000e-01 4.2432018670723144e+00 5.2726722490283207e+00 9.6468303736225769e-01 1 0 0
588 33 3 0.0000000000000000e+00 3.9135783458483102e+00 4.6853899063166740e+00 3.7399564608770008e+00 1 0 0
589 33 4 -1.1500000000000000e-01 4.4867683890716847e+00 3.7477961559439144e+00 2.8580915768924324e+00 1 0 0
593 33 2 1.1500000000000000e-01 4.9765001477250150e+00 2.7865030514394826e+00 3.2123467326253206e+00 1 0 0
753 33 6 0.0000000000000000e+00 3.6156890897411769e+00 5.1602226236933877e+00 3.3039517849720581e+00 1 0 0
4383 233 2 1.1500000000000000e-01 3.0552780705832738e+00 1.4972185858653799e+00 1.5817826436482583e+00 1 1 0
4379 233 3 0.0000000000000000e+00 3.2485230489325705e+00 2.3759560883369110e-01 3.2567316763550753e+00 1 1 0
578 33 5 -1.1500000000000000e-01 3.4986375062695192e+00 6.1396468574905230e+00 1.7887330763281675e+00 1 0 0
226 13 1 -1.1500000000000000e-01 5.0045409903581706e-01 2.5217376842913883e+00 5.2029658489618735e-01 1 0 0
4384 233 2 1.1500000000000000e-01 2.2355879627817226e+00 2.0352232310832377e+00 3.7423776107500757e+00 1 1 0
586 33 1 -1.1500000000000000e-01 3.1005920151020248e+00 5.3559101620977545e+00 5.9739686707477695e+00 1 0 0
587 33 4 -1.1500000000000000e-01 3.8172767922031259e+00 4.4597682088358805e+00 5.1416151203022222e+00 1 0 0
585 33 2 1.1500000000000000e-01 5.3014291886210163e+00 3.4055995291468788e+00 9.1243512622071643e-01 1 0 0
591 33 2 1.1500000000000000e-01 2.9546513818127211e+00 5.0242667630909583e+00 7.0424518515464323e+00 1 0 0
592 33 2 1.1500000000000000e-01 4.1846612453361480e+00 3.6133748749621186e+00 5.6050023809513041e+00 1 0 0
590 33 1 -1.1500000000000000e-01 2.4010308817472841e+00 6.4112626189226125e+00 5.3908793416832843e+00 1 0 0
584 33 2 1.1500000000000000e-01 2.1924110168475046e+00 7.6764913612887025e+00 3.7156053623196321e+00 1 0 0
234 13 2 1.1500000000000000e-01 1.1739045820879059e+00 4.5893167003483111e+00 3.9567833721106438e-01 1 0 0
229 13 4 -1.1500000000000000e-01 -1.2469144411450410e+00 8.9537111694162719e-01 3.3304839332632747e+00 1 0 0
1010 54 2 1.1500000000000000e-01 -4.9298648424314004e+00 6.2554597439777488e+00 8.5601442263305110e+00 1 0 0
985 53 2 1.1500000000000000e-01 -2.0025184249718171e+00 6.6018145927525387e+00 5.5538597059566426e+00 1 0 0
599 34 1 -1.1500000000000000e-01 3.8393980672637351e-01 4.1650576928600724e+00 8.2546848200348215e+00 1 0 0
4401 234 2 1.1500000000000000e-01 -1.1694521282892811e+00 1.0734457402328177e+00 8.7836633777431388e+00 1 1 0
225 13 2 1.1500000000000000e-01 -2.2021743550979926e+00 3.9906306119486307e-01 5.2180096000285969e+00 1 0 0
595 34 7 -1.1500000000000000e-01 -7.0846205526540196e-02 5.4698907774238226e+00 7.9038979832604976e+00 1 0 0
981 53 1 -1.1500000000000000e-01 -1.3778494831408405e+00 7.2610993705227438e+00 4.9068979778654054e+00 1 0 0
4378 233 5 -1.1500000000000000e-01 3.4295338938375441e+00 5.2879440849785864e-01 1.8842364449482369e+00 1 1 0
582 33 2 1.1500000000000000e-01 4.3552736276051345e+00 5.5382346336965149e+00 -1.0250643547482208e-01 1 0 0
583 33 2 1.1500000000000000e-01 3.1799791338679224e+00 7.0938284097765081e+00 1.3832996986704076e+00 1 0 0
1353 73 2 1.1500000000000000e-01 4.9893772507243161e+00 8.8227467985553112e+00 2.9491480237822110e+00 1 0 0
232 13 2 1.1500000000000000e-01 -4.4901514759248373e-01 6.8182549287060901e-01 8.0755608482940389e-01 1 0 0
1493 53 6 0.0000000000000000e+00 -5.3010556817126520e-01 8.6950073864931952e+00 2.9553181470670831e+00 1 0 0
987 53 4 -1.1500000000000000e-01 -8.2187724824287356e-01 7.9576380426297479e+00 1.3245859968652882e+00 1 0 0
1005 54 4 -1.1500000000000000e-01 -4.4868652411471137e+00 7.2052954266382434e+00 8.8782785149674837e+00 1 0 0
594 33 2 1.1500000000000000e-01 1.7895372617767866e+00 7.0039426110716674e+00 6.0107574230585454e+00 1 0 0
977 53 7 -1.1500000000000000e-01 -8.1824057429595110e-01 8.3481218647535531e+00 5.4601373118547656e+00 1 0 0
982 53 2 1.1500000000000000e-01 -9.1453463101038857e-01 8.5209175581046637e+00 6.5343144668841564e+00 1 0 0
1004 54 1 -1.1500000000000000e-01 -3.5961713712574133e+00 7.9122482978410202e+00 8.0077793727351416e+00 1 0 0
988 53 3 0.0000000000000000e+00 -7.8226257244198316e-01 8.0730967007787751e+00 2.6959394741790570e+00 1 0 0
993 53 2 1.1500000000000000e-01 -1.9376542869384459e+00 6.2931552595368441e+00 3.0927381115262866e+00 1 0 0
601 34 2 1.1500000000000000e-01 -9.0275952924310499e-01 7.3191216229711040e+00 8.5731426029352420e+00 1 0 0
1064 57 2 1.1500000000000000e-01 7.1001467080461955e+00 6.3783498964400023e+00 9.9195400460570338e-01 1 0 0
249 14 2 1.1500000000000000e-01 -4.2220584670207577e+00 2.0776714725920638e+00 7.0775158696591927e+00 1 0 0
986 53 1 -1.1500000000000000e-01 -1.2251060383261703e-01 8.8811480934105624e+00 5.2140763473253848e-01 1 0 0
235 14 7 -1.1500000000000000e-01 -5.2716807304455280e+00 2.2850342333993230e+00 1.3211593719946368e+01 1 0 0
236 14 5 -1.1500000000000000e-01 -4.5645700468417951e+00 3.1652183126727382e+00 1.2323386511271528e+01 1 0 0
597 34 3 0.0000000000000000e+00 -7.1226897373261622e-01 5.8245437147902326e+00 1.0242626825554627e+01 1 0 0
734 14 6 0.0000000000000000e+00 -4.6292596970694380e+00 2.3380805946575154e+00 1.0489928794526937e+01 1 0 0
239 14 1 -1.1500000000000000e-01 -5.7932234586498073e+00 1.1417976996100760e+00 1.2621220583222998e+01 1 0 0
240 14 2 1.1500000000000000e-01 -5.1957002036634847e+00 2.3854055238414764e+00 1.4286321508373600e+01 1 0 0
243 14 2 1.1500000000000000e-01 -6.1578219315657545e+00 2.8544184052027488e-01 1.3179257497887118e+01 1 0 0
4416 235 4 -1.1500000000000000e-01 -5.8292607195999784e+00 8.4887144904040179e-01 1.9041051550957825e+01 1 1 0
4420 235 2 1.1500000000000000e-01 -6.1156033243808059e+00 1.7769157123747936e+00 1.8548033399318111e+01 1 1 0
237 14 3 0.0000000000000000e+00 -4.4283476993195512e+00 2.9109263476779046e+00 1.0897941522286997e+01 1 0 0
4402 234 2 1.1500000000000000e-01 -2.0009491606288092e+00 1.7174618679121583e+00 1.1135389701635242e+01 1 1 0
1022 55 1 -1.1500000000000000e-01 -8.4755991130158357e+00 8.3907198452016409e+00 1.5314018598090763e+01 1 0 0
242 14 2 1.1500000000000000e-01 -3.3830150721192167e+00 4.6726337313901816e+00 1.0375031408951930e+01 1 0 0
255 15 3 0.0000000000000000e+00 -8.6909714616482674e+00 3.0333510529487211e+00 1.8230722570394679e+01 1 0 0
256 15 4 -1.1500000000000000e-01 -8.0700219479664632e+00 3.8360624903925058e+00 1.7220391197857950e+01 1 0 0
260 15 2 1.1500000000000000e-01 -7.6933362260856875e+00 4.7830074107656362e+00 1.7599173692050524e+01 1 0 0
4415 235 3 0.0000000000000000e+00 -5.1614299901853897e+00 -3.8347200984880737e-02 1.8133803871095839e+01 1 1 0
4414 235 5 -1.1500000000000000e-01 -4.9198624354218881e+00 3.3593218841170380e-01 1.6843231536961454e+01 1 1 0
264 15 3 0.0000000000000000e+00 -9.2854152197184536e+00 1.8494700274184819e+00 1.7793253532526446e+01 1 0 0
262 15 1 -1.1500000000000000e-01 -8.3945816833548061e+00 2.1055108380525187e+00 1.5576318841122752e+01 1 0 0
266 15 1 -1.1500000000000000e-01 -7.8796109717176925e+00 3.3980052946990531e+00 1.5882639023057386e+01 1 0 0
4408 234 1 -1.1500000000000000e-01 -1.9301493795146385e+00 3.7552415928831795e-01 1.2739176439581479e+01 1 1 0
238 14 4 -1.1500000000000000e-01 -3.7051747468911640e+00 3.7451067484014007e+00 1.0021946438481061e+01 1 0 0
263 15 4 -1.1500000000000000e-01 -9.1426938603296790e+00 1.3725515994494308e+00 1.6487200761416602e+01 1 0 0
735 15 6 0.0000000000000000e+00 -8.9387354092218985e+00 2.4205212492803931e+00 1.8037534272589216e+01 1 0 0
246 14 3 0.0000000000000000e+00 -5.1085407168105554e+00 1.8284454955767280e+00 1.0382248624791240e+01 1 0 0
265 15 4 -1.1500000000000000e-01 -1.0081870756211341e+01 1.1186638938815794e+00 1.8726465582596333e+01 1 0 0
604 34 1 -1.1500000000000000e-01 -9.0752888917397367e-01 4.9359880902433879e+00 1.2882036044556230e+01 1 0 0
605 34 4 -1.1500000000000000e-01 -3.8616361053670278e-01 4.1166393418052110e+00 1.1879131807151762e+01 1 0 0
606 34 3 0.0000000000000000e+00 -2.1997157278410029e-01 4.5734226468219958e+00 1.0606089175925254e+01 1 0 0
1029 55 2 1.1500000000000000e-01 -1.0309956652857245e+01 5.9175161282360724e+00 1.7994372120333168e+01 1 0 0
1007 54 4 -1.1500000000000000e-01 -5.6872212165125617e+00 7.1380081052213891e+00 1.1033102302096847e+01 1 0 0
611 34 2 1.1500000000000000e-01 7.5790985985011439e-01 2.8018742184241039e+00 9.8777668097020275e+00 1 0 0
610 34 2 1.1500000000000000e-01 -1.8978464503079540e-01 3.0948872813224946e+00 1.2157479189693053e+01 1 0 0
241 14 2 1.1500000000000000e-01 -4.0204859350174456e+00 4.0400473534446242e+00 1.2745051797303725e+01 1 0 0
1389 75 2 1.1500000000000000e-01 -3.1941104685755821e+00 8.9234296825206272e+00 1.7057255166965643e+01 1 0 0
598 34 4 -1.1500000000000000e-01 -1.1517015988166035e+00 6.7834234670109375e+00 1.1219643945757305e+01 1 0 0
754 34 6 0.0000000000000000e+00 -4.5241367338043936e-01 5.2303729990493162e+00 1.0471622898910791e+01 1 0 0
609 34 2 1.1500000000000000e-01 -9.5026321029582217e-01 4.5025154199951842e+00 1.3894922310048116e+01 1 0 0
613 35 7 -1.1500000000000000e-01 -4.5791900509853560e+00 5.6124029430427855e+00 1.6134386931236936e+01 1 0 0
618 35 2 1.1500000000000000e-01 -4.3917944368614750e+00 6.1022458611840955e+00 1.5194307559206864e+01 1 0 0
615 35 3 0.0000000000000000e+00 -5.2829655872765207e+00 5.7489833516071043e+00 1.8381325605849558e+01 1 0 0
617 35 1 -1.1500000000000000e-01 -4.0216472841019222e+00 4.3879531623186203e+00 1.6356687560906348e+01 1 0 0
621 35 2 1.1500000000000000e-01 -3.5979799945501609e+00 3.8062350728351109e+00 1.5610322326723255e+01 1 0 0
624 35 3 0.0000000000000000e+00 -4.6693730955614390e+00 4.4948065888818176e+00 1.8689491147486827e+01 1 0 0
625 35 4 -1.1500000000000000e-01 -3.9887828405392343e+00 3.8003152629385553e+00 1.7642253926374543e+01 1 0 0
629 35 2 1.1500000000000000e-01 -3.4998370602137259e+00 2.8512155314455438e+00 1.7934701389193766e+01 1 0 0
755 35 6 0.0000000000000000e+00 -4.9551712437942141e+00 5.0842120759630722e+00 1.8386237029668354e+01 1 0 0
270 15 2 1.1500000000000000e-01 -7.2543057004699314e+00 3.9450254260409165e+00 1.5225361797952338e+01 1 0 0
4398 234 4 -1.1500000000000000e-01 -1.6326595541220552e+00 7.5164078719556926e-01 1.1419249979417691e+01 1 1 0
4412 234 2 1.1500000000000000e-01 -2.4233372076982080e+00 1.1456059996023644e+00 1.3317591357230800e+01 1 1 0
614 35 5 -1.1500000000000000e-01 -5.2100432709608242e+00 6.3343258793867045e+00 1.7112731284868211e+01 1 0 0
247 14 4 -1.1500000000000000e-01 -5.7403214188101828e+00 9.1817029128484495e-01 1.1234007207598603e+01 1 0 0
4419 235 2 1.1500000000000000e-01 -5.0343131273204174e+00 1.3867736914206930e+00 1.6543235721431575e+01 1 1 0
1025 55 4 -1.1500000000000000e-01 -9.7983222627128406e+00 6.7754530258694485e+00 1.8399305784332427e+01 1 0 0
608 34 1 -1.1500000000000000e-01 -1.3619790762755226e+00 6.2427220059721842e+00 1.2550116383068612e+01 1 0 0
616 35 4 -1.1500000000000000e-01 -5.9376395377670876e+00 6.5121096533037370e+00 1.9345433242830293e+01 1 0 0
612 34 2 1.1500000000000000e-01 -1.8151225720246744e+00 6.9012799266284208e+00 1.3310089346011580e+01 1 0 0
269 15 2 1.1500000000000000e-01 -1.0642068636524515e+01 1.8479679785365155e-01 1.8489826371311526e+01 1 0 0
1006 54 3 0.0000000000000000e+00 -4.7712890771024750e+00 7.7827104981513529e+00 1.0113230781754165e+01 1 0 0
254 15 5 -1.1500000000000000e-01 -8.9515218598949389e+00 3.5859030665424827e+00 1.9500732684506392e+01 1 0 0
620 35 2 1.1500000000000000e-01 -6.2948317614711398e+00 7.5132925123713186e+00 1.9157285859242940e+01 1 0 0
1023 55 4 -1.1500000000000000e-01 -9.1739853319651790e+00 7.4285578873638771e+00 1.6130743810185521e+01 1 0 0
619 35 2 1.1500000000000000e-01 -5.5792409142100681e+00 7.2888457215758038e+00 1.6838319432793892e+01 1 0 0
1015 55 3 0.0000000000000000e+00 -8.4835806990368994e+00 8.7651679118456229e+00 1.8053943501859930e+01 1 0 0
1494 54 6 0.0000000000000000e+00 -4.5260587869306619e+00 8.4496439840341502e+00 1.0287553797576388e+01 1 0 0
1003 54 2 1.1500000000000000e-01 -6.7046107327477600e+00 7.2134241768745726e+00 1.2973911920784781e+01 1 0 0
1495 55 6 0.0000000000000000e+00 -8.8112991881645542e+00 8.2520410086446603e+00 1.7639669716224329e+01 1 0 0
999 54 1 -1.1500000000000000e-01 -6.0071351384628962e+00 7.7223553672431589e+00 1.2288561524311680e+01 1 0 0
602 34 2 1.1500000000000000e-01 -1.3905264195847478e+00 7.8431514888560372e+00 1.1050360638183935e+01 1 0 0
1024 55 3 0.0000000000000000e+00 -9.1316021728805428e+00 7.6424570599184856e+00 1.7504982486003946e+01 1 0 0
1011 54 2 1.1500000000000000e-01 -6.1463268665931485e+00 6.1964308797791459e+00 1.0732087139626410e+01 1 0 0
251 14 2 1.1500000000000000e-01 -6.2225876678660201e+00 6.5502140455192412e-02 1.0763388909329370e+01 1 0 0
267 15 2 1.1500000000000000e-01 -8.1446649434670970e+00 1.7887450967687137e+00 1.4553031874328646e+01 1 0 0
607 34 4 -1.1500000000000000e-01 4.1801667723271674e-01 3.7431064704104582e+00 9.6221525094180329e+00 1 0 0
995 54 7 -1.1500000000000000e-01 -5.4092538191407771e+00 8.8951807488323453e+00 1.2655508145162266e+01 1 0 0
280 16 1 -1.1500000000000000e-01 -1.2706469821352920e+01 2.3422918425576915e+00 2.3158447233484303e+01 1 0 0
4436 236 2 1.1500000000000000e-01 -9.1110125740293206e+00 7.4644376105225785e-02 2.2195897118397898e+01 1 1 0
258 15 2 1.1500000000000000e-01 -1.0140852822304282e+01 3.2844671548459070e+00 2.1307796182918757e+01 1 0 0
634 36 4 -1.1500000000000000e-01 -1.0196564294441080e+01 6.3969714315071098e+00 2.6179037118281823e+01 1 0 0
4433 236 3 0.0000000000000000e+00 -9.5230565550328059e+00 4.0212663176982404e-02 2.5655275637805882e+01 1 1 0
257 15 1 -1.1500000000000000e-01 -1.0395770581178672e+01 1.7017938429892352e+00 1.9960888547829484e+01 1 0 0
284 16 1 -1.1500000000000000e-01 -1.2247285094156025e+01 3.5866110701432232e+00 2.3591790481991129e+01 1 0 0
279 16 2 1.1500000000000000e-01 -1.4781136505883664e+01 5.7915685392100780e-01 2.8168722431494590e+01 1 0 0
638 36 2 1.1500000000000000e-01 -1.0682276152847393e+01 7.2868693309156685e+00 2.5767329809969560e+01 1 0 0
288 16 2 1.1500000000000000e-01 -1.1856956828112125e+01 4.3870803268316241e+00 2.2953570383617823e+01 1 0 0
271 16 7 -1.1500000000000000e-01 -1.3912265447225348e+01 2.5324126083448646e+00 2.8030396874307598e+01 1 0 0
272 16 5 -1.1500000000000000e-01 -1.3224354922121627e+01 3.3995917153834716e+00 2.7169273261048577e+01 1 0 0
273 16 3 0.0000000000000000e+00 -1.2995283532382878e+01 3.0388717746765295e+00 2.5869192605608820e+01 1 0 0
274 16 4 -1.1500000000000000e-01 -1.2308636310057040e+01 3.9424289538895878e+00 2.4958965934715199e+01 1 0 0
275 16 1 -1.1500000000000000e-01 -1.4309292498803917e+01 1.3020706989811643e+00 2.7541147565662268e+01 1 0 0
259 15 2 1.1500000000000000e-01 -8.6084699651639252e+00 4.5580045881407489e+00 1.9779832765844567e+01 1 0 0
277 16 2 1.1500000000000000e-01 -1.2777721603944658e+01 4.3643015437659596e+00 2.7406011624578529e+01 1 0 0
278 16 2 1.1500000000000000e-01 -1.2073524698656984e+01 4.9182563812474758e+00 2.5229167045337974e+01 1 0 0
261 15 2 1.1500000000000000e-01 -1.1219288222070048e+01 1.2799920334068837e+00 2.0481690539745511e+01 1 0 0
282 16 3 0.0000000000000000e+00 -1.3496040256751922e+01 1.8022319920204481e+00 2.5400218610602604e+01 1 0 0
1043 56 4 -1.1500000000000000e-01 -1.4432004090614836e+01 7.1543365783914146e+00 2.6211923301219517e+01 1 0 0
736 16 6 0.0000000000000000e+00 -1.3229241678266842e+01 2.3801222130928421e+00 2.5755164498193988e+01 1 0 0
632 36 5 -1.1500000000000000e-01 -9.2239970651486267e+00 6.1343470442602266e+00 2.3897640877383516e+01 1 0 0
636 36 2 1.1500000000000000e-01 -8.3368264716292941e+00 5.6612084282944286e+00 2.1956962745366859e+01 1 0 0
4438 236 2 1.1500000000000000e-01 -1.0665512996558583e+01 1.7675113789617187e+00 2.6220985369125774e+01 1 1 0
253 15 7 -1.1500000000000000e-01 -9.7749806527368506e+00 2.8768175118488619e+00 2.0386521307872147e+01 1 0 0
623 35 4 -1.1500000000000000e-01 -4.7894912998407762e+00 3.9876735916809007e+00 2.0004393047978009e+01 1 0 0
627 35 2 1.1500000000000000e-01 -5.6195771105901260e+00 4.4876386676650162e+00 2.2057180114568542e+01 1 0 0
644 36 1 -1.1500000000000000e-01 -1.0249561927567749e+01 6.0073175588985066e+00 2.7524942065832029e+01 1 0 0
631 36 7 -1.1500000000000000e-01 -8.5071058442949141e+00 5.3836442052627849e+00 2.2976267676162738e+01 1 0 0
635 36 1 -1.1500000000000000e-01 -7.8983258035826491e+00 4.1842473279969354e+00 2.3429339677356520e+01 1 0 0
628 35 2 1.1500000000000000e-01 -4.3902360624777437e+00 2.9985008735477683e+00 2.0242155498635952e+01 1 0 0
639 36 2 1.1500000000000000e-01 -7.3197894212330219e+00 3.5647714021729309e+00 2.2752937931746573e+01 1 0 0
283 16 4 -1.1500000000000000e-01 -1.4120941559577423e+01 9.5055477157889479e-01 2.6255224956026993e+01 1 0 0
4430 235 2 1.1500000000000000e-01 -6.6246473750581139e+00 1.0751713925352047e+00 2.1075325953053213e+01 1 1 0
4444 236 1 -1.1500000000000000e-01 -1.0135477898156974e+01 4.6058104793917198e-01 2.7911606158291740e+01 1 1 0
1047 56 2 1.1500000000000000e-01 -1.4924325955236572e+01 6.1542578466911904e+00 2.6030450206736301e+01 1 0 0
633 36 3 0.0000000000000000e+00 -9.3764187521214435e+00 5.6530978995736003e+00 2.5269081618924510e+01 1 0 0
4437 236 2 1.1500000000000000e-01 -1.0200964647460541e+01 1.3587694499815099e+00 2.4055034222845350e+01 1 1 0
640 36 1 -1.1500000000000000e-01 -9.6214238337818401e+00 4.8170872833922749e+00 2.7916941392659126e+01 1 0 0
641 36 4 -1.1500000000000000e-01 -8.9902788465154799e+00 4.0208458118251063e+00 2.7006064746123609e+01 1 0 0
642 36 3 0.0000000000000000e+00 -8.8493919405958827e+00 4.4190880157363450e+00 2.5663619786197820e+01 1 0 0
643 36 4 -1.1500000000000000e-01 -8.0793120744492306e+00 3.6686036819479306e+00 2.4732237524185720e+01 1 0 0
622 35 1 -1.1500000000000000e-01 -5.4645047535054223e+00 4.7779294687780247e+00 2.1018246709499298e+01 1 0 0
646 36 2 1.1500000000000000e-01 -8.5832281732022651e+00 3.1121310264098145e+00 2.7419638483205659e+01 1 0 0
647 36 2 1.1500000000000000e-01 -7.6223490444006501e+00 2.6920968839108639e+00 2.4904017092643990e+01 1 0 0
756 36 6 0.0000000000000000e+00 -9.2561643528691420e+00 4.9481072031503821e+00 2.5412095085621083e+01 1 0 0
281 16 4 -1.1500000000000000e-01 -1.3344126284090551e+01 1.4454973882580484e+00 2.4045643639773974e+01 1 0 0
4434 236 4 -1.1500000000000000e-01 -1.0236945213927257e+01 8.4740796633320026e-01 2.6570092078465237e+01 1 1 0
1013 55 7 -1.1500000000000000e-01 -9.2352739167345597e+00 8.1627427959565946e+00 2.0346979355264324e+01 1 0 0
231 13 2 1.1500000000000000e-01 -1.6298306773584137e+01 2.2790263722816331e+00 2.9390868053666104e+01 1 0 -1
648 36 2 1.1500000000000000e-01 -1.0745434198800094e+01 6.6162289909624254e+00 2.8228788213528059e+01 1 0 0
4432 236 5 -1.1500000000000000e-01 -9.5794805602991673e+00 4.8815616486053492e-01 2.4306167860800425e+01 1 1 0
1039 56 2 1.1500000000000000e-01 -1.5080948328270448e+01 7.1510111875974527e+00 2.8284810032301777e+01 1 0 0
626 35 1 -1.1500000000000000e-01 -5.9876499443547502e+00 6.0258102087711070e+00 2.0675627713377828e+01 1 0 0
4448 236 2 1.1500000000000000e-01 -1.0706594234244367e+01 9.6715090010205795e-01 2.8675673863303928e+01 1 1 0
4426 235 1 -1.1500000000000000e-01 -6.0707958641721955e+00 4.4930337472824683e-01 2.0393853213384567e+01 1 1 0
276 16 2 1.1500000000000000e-01 -1.4081612616369867e+01 2.8228005125630142e+00 2.9038492386439867e+01 1 0 0
630 35 2 1.1500000000000000e-01 -6.5252720660237316e+00 6.6795704244102314e+00 2.1310360859900950e+01 1 0 0
1021 55 2 1.1500000000000000e-01 -1.0382496645932877e+01 6.4086686289798864e+00 2.0387437403104514e+01 1 0 0
637 36 2 1.1500000000000000e-01 -9.7279462852854675e+00 7.0269472374483284e+00 2.3504720270762466e+01 1 0 0
645 36 2 1.1500000000000000e-01 -9.7486435391746031e+00 4.3903435802777313e+00 2.8924180931907827e+01 1 0 0
1042 56 3 0.0000000000000000e+00 -1.3646838718575779e+01 7.8213553131745899e+00 2.5224992244801918e+01 1 0 0
1017 55 1 -1.1500000000000000e-01 -9.7630597899742178e+00 7.0265779876235186e+00 1.9781840279173466e+01 1 0 0
1035 56 1 -1.1500000000000000e-01 -1.4488460339587647e+01 7.6478110169114997e+00 2.7515819726746809e+01 1 0 0
1018 55 2 1.1500000000000000e-01 -9.4150011360434203e+00 8.3410472427254643e+00 2.1429585571989985e+01 1 0 0
1496 56 6 0.0000000000000000e+00 -1.3383194443413359e+01 8.4107202585637513e+00 2.5453323468748668e+01 1 0 0
1040 56 1 -1.1500000000000000e-01 -1.2728224080385401e+01 8.0130329191934742e+00 2.3003112713045187e+01 1 0 0
1041 56 4 -1.1500000000000000e-01 -1.3474557026083382e+01 7.2959118616298717e+00 2.3979539490584049e+01 1 0 0
1407 76 2 1.1500000000000000e-01 -8.1656117465101161e+00 8.7709411120958158e+00 2.4473456548161273e+01 1 0 0
1045 56 2 1.1500000000000000e-01 -1.2722431007848879e+01 7.6172957463279447e+00 2.1990020357877203e+01 1 0 0
285 16 2 1.1500000000000000e-01 -1.2678877764642740e+01 2.0937036204665063e+00 2.2121927349003958e+01 1 0 0
286 16 2 1.1500000000000000e-01 -1.3754152642556887e+01 5.2224717067789528e-01 2.3652744029711823e+01 1 0 0
287 16 2 1.1500000000000000e-01 -1.4528211190735046e+01 -3.4029234993564431e-02 2.5889861395352220e+01 1 0 0
1063 57 2 1.1500000000000000e-01 -8.9643701009733423e+00 7.8256675625500849e+00 2.9301766931795257e+01 1 0 -1
991 53 2 1.1500000000000000e-01 -1.7022240805005062e+01 8.6283378907940094e+00 2.9361865778415041e+01 1 0 -1
1031 56 7 -1.1500000000000000e-01 -1.3883654000703242e+01 8.8894599920730002e+00 2.7853306464235200e+01 1 0 0
979 53 3 0.0000000000000000e+00 -1.1075767445188256e-01 9.1196186451050494e+00 3.3158503214947062e+00 1 0 0
980 53 4 -1.1500000000000000e-01 6.2080565364834173e-01 1.0069619900424634e+01 2.5092855779719030e+00 1 0 0
984 53 2 1.1500000000000000e-01 1.1038124693718971e+00 1.0888105779511932e+01 2.9869680473364961e+00 1 0 0
1361 74 2 1.1500000000000000e-01 -1.2501830094146182e+00 1.3209026651071916e+01 8.4713386102954100e+00 1 0 0
990 53 1 -1.1500000000000000e-01 5.9898262731503138e-01 9.9507177545586067e+00 1.1159226333609031e+00 1 0 0
2253 93 6 0.0000000000000000e+00 -3.7022377680041596e-01 1.4283454440156406e+01 2.9699992071483123e+00 1 0 0
994 53 2 1.1500000000000000e-01 1.2110698696865501e+00 1.0557649785005653e+01 4.9049133914041820e-01 1 0 0
1741 93 1 -1.1500000000000000e-01 -1.6338012233877863e+00 1.3533059060893889e+01 4.8390401357300270e+00 1 0 0
978 53 5 -1.1500000000000000e-01 -1.7631799709223150e-01 9.2986223316991286e+00 4.6905278100349648e+00 1 0 0
983 53 2 1.1500000000000000e-01 3.4977894903747320e-01 1.0056055413851963e+01 5.2034434908761469e+00 1 0 0
1012 54 2 1.1500000000000000e-01 -2.2895940250475255e+00 9.6843805016597990e+00 7.6776915047013219e+00 1 0 0
1363 74 2 1.1500000000000000e-01 9.2560158148566085e-01 9.7048112961959703e+00 7.6192469447805635e+00 1 0 0
1745 93 2 1.1500000000000000e-01 -2.2167259114698323e+00 1.2884509218460668e+01 5.4949695551880007e+00 1 0 0
1765 94 4 -1.1500000000000000e-01 -5.2405373231261834e+00 1.3752952688020097e+01 8.6501900907484863e+00 1 0 0
1338 73 5 -1.1500000000000000e-01 3.6879115842024723e+00 1.2291759005514551e+01 1.6569554290147628e+00 1 0 0
1339 73 3 0.0000000000000000e+00 3.4772705219660347e+00 1.1865016749300787e+01 2.9618385927911408e+00 1 0 0
1340 73 4 -1.1500000000000000e-01 2.8610678750867189e+00 1.2776212123083369e+01 3.9334649743657426e+00 1 0 0
1341 73 1 -1.1500000000000000e-01 4.8299865276478569e+00 1.0153041695126550e+01 1.2272575980520684e+00 1 0 0
1337 73 7 -1.1500000000000000e-01 4.3904094955113191e+00 1.1394131244042249e+01 7.9287314729245484e-01 1 0 0
1343 73 2 1.1500000000000000e-01 3.4346376573446600e+00 1.3335975396481308e+01 1.3462703757814698e+00 1 0 0
1348 73 3 0.0000000000000000e+00 3.9525022887287946e+00 1.0617207286537370e+01 3.4532161027626760e+00 1 0 0
1349 73 4 -1.1500000000000000e-01 4.6297605142747313e+00 9.8109047810980510e+00 2.5876080576553817e+00 1 0 0
1513 73 6 0.0000000000000000e+00 3.7509789517427601e+00 1.1257153696452969e+01 3.2790745069779774e+00 1 0 0
1356 74 5 -1.1500000000000000e-01 -6.8643834308911433e-01 1.2350633516977828e+01 8.8424702016251313e+00 1 0 0
1354 73 2 1.1500000000000000e-01 1.8613424491160178e+00 1.2986905348474222e+01 5.7671862568101133e+00 1 0 0
1346 73 1 -1.1500000000000000e-01 2.9912066312510150e+00 1.1037073647346796e+01 5.6475384421389627e+00 1 0 0
1347 73 4 -1.1500000000000000e-01 3.6498780095997909e+00 1.0215160338241278e+01 4.7854024360456400e+00 1 0 0
1350 73 1 -1.1500000000000000e-01 2.4946430904300905e+00 1.2306315628306740e+01 5.1922052933106455e+00 1 0 0
1351 73 2 1.1500000000000000e-01 2.7938391348852454e+00 1.0726039823152870e+01 6.6920172752429128e+00 1 0 0
1352 73 2 1.1500000000000000e-01 4.0458752695352942e+00 9.2722815889510475e+00 5.1008205809749709e+00 1 0 0
1345 73 2 1.1500000000000000e-01 5.4682190254937524e+00 9.3505503407278958e+00 6.9113241478437715e-01 1 0 0
1355 74 7 -1.1500000000000000e-01 -1.4907998111741882e-01 1.1487755570858583e+01 7.9245758906898551e+00 1 0 0
1359 74 1 -1.1500000000000000e-01 4.9427804521251417e-01 1.0341764733479694e+01 8.4174903753895673e+00 1 0 0
1360 74 2 1.1500000000000000e-01 -2.2433507736268421e-01 1.1616184575593154e+01 6.8303392282613569e+00 1 0 0
1747 93 4 -1.1500000000000000e-01 -6.2268300093921081e-01 1.3194809049963567e+01 1.2824223924361682e+00 1 0 0
1748 93 3 0.0000000000000000e+00 -7.1934719313389150e-01 1.3726519714393245e+01 2.6134809722406476e+00 1 0 0
1764 94 1 -1.1500000000000000e-01 -4.3975377140656997e+00 1.4545914540401874e+01 7.8413364441090216e+00 1 0 0
1746 93 1 -1.1500000000000000e-01 1.2716219895737790e-01 1.3879222629562632e+01 3.1702323677155442e-01 1 0 0
1342 73 2 1.1500000000000000e-01 4.7168901871478406e+00 1.1664180062862011e+01 -1.9488386525837656e-01 1 0 0
1749 93 4 -1.1500000000000000e-01 -1.4615744879672952e+00 1.3007147272071142e+01 3.5820339501882144e+00 1 0 0
1753 93 2 1.1500000000000000e-01 -1.9695161400667143e+00 1.2068119106401932e+01 3.3286910000856982e+00 1 0 0
1344 73 2 1.1500000000000000e-01 2.5601989916986367e+00 1.3688368137189286e+01 3.6218918816873957e+00 1 0 0
1737 93 7 -1.1500000000000000e-01 -9.2633041407362748e-01 1.4656055382775923e+01 5.2562954918708957e+00 1 0 0