LAMMPS (15 May 2015)
Reading data file ...
  triclinic box = (-0.107635 -0.0404339 -0.357111) to (41.3876 35.9384 29.5551) with tilt (-0.0672341 -17.0362 -0.0417078)
  5 by 4 by 3 MPI processor grid
  reading atoms ...
  4560 atoms
  reading velocities ...
  4560 velocities
  scanning bonds ...
  3 = max bonds/atom
  scanning angles ...
  3 = max angles/atom
  scanning dihedrals ...
  8 = max dihedrals/atom
  scanning impropers ...
  1 = max impropers/atom
  reading bonds ...
  5040 bonds
  reading angles ...
  7200 angles
  reading dihedrals ...
  10560 dihedrals
  reading impropers ...
  2400 impropers
Finding 1-2 1-3 1-4 neighbors ...
 Special bond factors lj:   0          0          0         
 Special bond factors coul: 0          0          0         
  4 = max # of 1-2 neighbors
  8 = max # of 1-3 neighbors
  20 = max # of 1-4 neighbors
  16 = max # of special neighbors
4560 atoms in group all
720 atoms in group C
480 atoms in group S
1920 atoms in group H
720 atoms in group Si
240 atoms in group Na
240 atoms in group Ba
240 atoms in group O
4560 atoms in group naphthalene
1200 atoms in group fixed
960 atoms in group CO
Setting atom values ...
  720 settings made for charge
Setting atom values ...
  720 settings made for charge
Setting atom values ...
  1920 settings made for charge
Setting atom values ...
  480 settings made for charge
Setting atom values ...
  240 settings made for charge
Setting atom values ...
  240 settings made for charge
Setting atom values ...
  240 settings made for charge
Finding 1-2 1-3 1-4 neighbors ...
 Special bond factors lj:   0          0          0.5       
 Special bond factors coul: 0          0          0.5       
  4 = max # of 1-2 neighbors
  8 = max # of 1-3 neighbors
  20 = max # of 1-4 neighbors
  16 = max # of special neighbors
PPPM initialization ...
  G vector (1/distance) = 0.246499
  grid = 16 16 20
  stencil order = 5
  estimated absolute RMS force accuracy = 0.00242397
  estimated relative force accuracy = 7.2997e-06
  using double precision FFTs
  3d grid and FFT values/proc = 1053 112
Neighbor list info ...
  4 neighbor list requests
  update every 1 steps, delay 0 steps, check yes
  master list distance cutoff = 12
Setting up run ...
Memory usage per processor = 13.288 Mbytes
Step Temp Density PotEng E_vdwl E_tail E_coul E_long Press Volume Xy Xz Yz E_mol E_bond E_angle E_dihed 14[1] 14[2] 14[3] msd[4] msd2[4] msd3[4] msd4[4] naphthal Cella Cellb Cellc CellAlpha CellBeta CellGamma 27[2] 27[3] 28[1] 28[2] 28[3] 
       0          298    1.2509986    2087.5869   -1173.1339   -211.49952    2070.8667    -2308.979    790.88859    44657.537 -0.067234084   -17.036218 -0.041707817     3498.833    1521.0094     935.4334    889.67826    28.379601    18.846571    14.337846 2.3535127e-29 2.3910021e-29 2.7538641e-29 3.294809e-29          298     41.49527    35.978931    34.423473    90.016431    119.66323    90.107069    18.846182    14.337739    28.379557    18.849013    14.339638 
    1000    293.77528    1.2509986    1894.7084   -1210.7759   -211.49952    2070.2002   -2309.4124   -326.11074    44657.537 -0.067234084   -17.036218 -0.041707817    3344.6966    1478.4776    901.34363    817.87184    28.382764    18.845389    14.337577 0.0012839577 0.0012826869 0.0013332358 0.0013256587    293.77528     41.49527    35.978931    34.423473    90.016431    119.66323    90.107069    18.845499     14.33698    28.378111    18.848791    14.337306 
    2000    300.71072    1.2509986    1910.9596    -1198.704   -211.49952    2071.9241      -2309.5    537.13601    44657.537 -0.067234084   -17.036218 -0.041707817    3347.2395    1501.9511    863.09487    838.82095    28.379566     18.84586    14.337071 0.0011799883 0.0011779138  0.001172257 0.0011709507    300.71072     41.49527    35.978931    34.423473    90.016431    119.66323    90.107069    18.846196    14.337599    28.378602    18.848481    14.339305 
    3000    298.58331    1.2509986    1954.8692   -1187.4143   -211.49952    2072.4508   -2309.1026    559.40789    44657.537 -0.067234084   -17.036218 -0.041707817    3378.9354    1496.1798    885.19411    848.84436    28.381088    18.846368    14.338153 0.0012001287  0.001199827  0.001222291 0.0012192239    298.58331     41.49527    35.978931    34.423473    90.016431    119.66323    90.107069    18.845691    14.337885    28.378896    18.848824    14.341249 
    4000    300.98592    1.2509986    1956.5696   -1202.3034   -211.49952    2071.7328   -2309.6293   -299.83287    44657.537 -0.067234084   -17.036218 -0.041707817    3396.7694    1495.8734    899.20425    854.84178    28.378051    18.846805    14.336373 0.0012529516 0.0012507898 0.0013050178  0.001298146    300.98592     41.49527    35.978931    34.423473    90.016431    119.66323    90.107069    18.847588    14.337319    28.379222    18.851527    14.340299 
    5000    295.04528    1.2509986    2009.6507   -1190.4585   -211.49952     2071.598   -2309.5774    731.49028    44657.537 -0.067234084   -17.036218 -0.041707817    3438.0886    1513.9801    896.87988     875.9058    28.378583    18.844583    14.337644 0.0012500576 0.0012499144  0.001123121 0.0011218894    295.04528     41.49527    35.978931    34.423473    90.016431    119.66323    90.107069    18.846476    14.337912    28.380311    18.848211    14.339501 
    6000    295.42684    1.2509986    1997.1265   -1200.9061   -211.49952    2072.4778   -2309.1134   -272.44634    44657.537 -0.067234084   -17.036218 -0.041707817    3434.6682    1505.7979    904.48232    874.63858    28.379873    18.846016    14.337603 0.0011723045 0.0011713991 0.0011377842 0.0011364368    295.42684     41.49527    35.978931    34.423473    90.016431    119.66323    90.107069     18.84582    14.338194    28.380277    18.849923    14.339669 
    7000    300.20214    1.2509986    2058.1622   -1183.0655   -211.49952    2073.3851   -2309.5449    1704.7545    44657.537 -0.067234084   -17.036218 -0.041707817    3477.3875    1533.8911    909.40669    881.19681    28.379844    18.845963    14.337741 0.0012211658 0.0012208285 0.0012626599 0.0012589204    300.20214     41.49527    35.978931    34.423473    90.016431    119.66323    90.107069    18.846307    14.338065    28.379517    18.847163    14.340201 
    8000    296.88786    1.2509986    1950.2021   -1206.6708   -211.49952    2068.9434    -2309.569   -1933.4851    44657.537 -0.067234084   -17.036218 -0.041707817    3397.4986    1480.0378    906.21207    859.47703     28.37983      18.8454    14.337959 0.0012227016 0.0012204591   0.00138202 0.0013638303    296.88786     41.49527    35.978931    34.423473    90.016431    119.66323    90.107069    18.845134    14.338629    28.381935    18.845488    14.339963 
    9000    298.52036    1.2509986     2013.972   -1179.7683   -211.49952    2072.0377   -2309.1886    986.24491    44657.537 -0.067234084   -17.036218 -0.041707817    3430.8912    1510.3064    910.22011     857.1236    28.381422    18.846353    14.338241  0.001293316 0.0012922994 0.0012817031 0.0012728252    298.52036     41.49527    35.978931    34.423473    90.016431    119.66323    90.107069     18.84679     14.33741     28.37886    18.846432    14.340954 
   10000    292.79188    1.2509986    1989.5893   -1213.8721   -211.49952    2075.3999   -2309.3797    -428.4777    44657.537 -0.067234084   -17.036218 -0.041707817    3437.4413    1529.3617    889.79324    869.58749    28.378886    18.845616    14.336837 0.0012726393 0.0012709825 0.0012551471 0.0012511787    292.79188     41.49527    35.978931    34.423473    90.016431    119.66323    90.107069    18.846402     14.33775    28.380495    18.850568     14.33882 
   11000    300.66922    1.2509986    1930.3022   -1201.3436   -211.49952    2074.1227   -2309.0312    1350.5183    44657.537 -0.067234084   -17.036218 -0.041707817    3366.5544    1453.7908    913.00754    851.13389    28.377436    18.845945    14.337537 0.0012181397 0.0012156884 0.0012535297 0.0012510298    300.66922     41.49527    35.978931    34.423473    90.016431    119.66323    90.107069    18.846841    14.338361    28.379229    18.848726    14.341158 
   12000     297.2867    1.2509986    2003.2888   -1197.7297   -211.49952    2070.3932   -2309.2993    168.52442    44657.537 -0.067234084   -17.036218 -0.041707817    3439.9246    1483.2745    910.88979    888.47297     28.37928    18.845728    14.337083 0.0012197336  0.001219653 0.0013008092 0.0012997139     297.2867     41.49527    35.978931    34.423473    90.016431    119.66323    90.107069    18.846446    14.337816    28.378548    18.848734    14.339649 
   13000    301.82359    1.2509986    1966.8533   -1203.9476   -211.49952    2070.2503   -2309.7818    772.41998    44657.537 -0.067234084   -17.036218 -0.041707817    3410.3324    1485.2936     892.8353    880.39395    28.379669    18.843679    14.338301 0.0012286395 0.0012271102 0.0012229526 0.0012171941    301.82359     41.49527    35.978931    34.423473    90.016431    119.66323    90.107069    18.845279    14.338497    28.378111    18.847146    14.340066 
   14000    297.33219    1.2509986    2027.8536   -1182.5656   -211.49952    2070.4106   -2309.4635    1150.2411    44657.537 -0.067234084   -17.036218 -0.041707817    3449.4721     1492.667    936.72231    863.11009    28.380565     18.84472    14.337685  0.001205943 0.0012058488 0.0013025886 0.0013010507    297.33219     41.49527    35.978931    34.423473    90.016431    119.66323    90.107069    18.846338    14.337608    28.379619    18.848038    14.338875 
   15000    298.37484    1.2509986    1947.4366   -1203.4417   -211.49952    2071.7901   -2309.5165   -966.62098    44657.537 -0.067234084   -17.036218 -0.041707817    3388.6046    1535.7536    876.57558    828.31537    28.378968    18.846013    14.337278 0.0012088129 0.0012067581 0.0013244837 0.0013061558    298.37484     41.49527    35.978931    34.423473    90.016431    119.66323    90.107069    18.845576    14.336885    28.377448    18.845345    14.338979 
   16000    303.89431    1.2509986    1940.4153   -1204.6579   -211.49952    2072.1871   -2309.1558   -1224.2347    44657.537 -0.067234084   -17.036218 -0.041707817    3382.0419    1509.5092    880.30327    848.90507    28.380531    18.845883    14.338287 0.0012394659 0.0012391581 0.0013262982 0.0013247178    303.89431     41.49527    35.978931    34.423473    90.016431    119.66323    90.107069    18.846064    14.338229     28.37971    18.849932    14.340482 
   17000    298.52391    1.2509986    1980.2595   -1203.3087   -211.49952    2067.8285   -2309.3811   -1450.6566    44657.537 -0.067234084   -17.036218 -0.041707817    3425.1207    1538.1835    868.56557    866.31166    28.380878    18.846474    14.338349 0.0012673753  0.001266013 0.0012586756 0.0012572286    298.52391     41.49527    35.978931    34.423473    90.016431    119.66323    90.107069    18.846555    14.338446    28.379815    18.848723      14.3385 
   18000    298.25488    1.2509986    2068.9861   -1178.9931   -211.49952    2074.7148   -2309.3816    1879.4119    44657.537 -0.067234084   -17.036218 -0.041707817     3482.646    1479.1259    916.17429    925.57404    28.379637    18.846224    14.337313 0.0011703707 0.0011689867  0.001091507  0.001086531    298.25488     41.49527    35.978931    34.423473    90.016431    119.66323    90.107069    18.847278    14.337772    28.378585    18.850155    14.341289 
   19000    296.28289    1.2509986    2058.1855   -1188.9758   -211.49952    2071.9803   -2309.0224    136.01948    44657.537 -0.067234084   -17.036218 -0.041707817    3484.2035    1511.6114    910.05134    902.48943    28.378893    18.846225    14.337483 0.0012404107 0.0012398916 0.0012151782 0.0012105657    296.28289     41.49527    35.978931    34.423473    90.016431    119.66323    90.107069    18.846097    14.337864    28.378056    18.847486    14.339811 
   20000    300.37461    1.2509986    1976.7551   -1198.2625   -211.49952    2067.9207   -2309.5443   -547.23436    44657.537 -0.067234084   -17.036218 -0.041707817    3416.6412    1555.7658    894.26109    827.33772    28.380586    18.846844     14.33809 0.0012389287  0.001238632  0.001301979 0.0012962665    300.37461     41.49527    35.978931    34.423473    90.016431    119.66323    90.107069    18.846351    14.338127     28.37934     18.84671    14.339037 
   21000    299.85822    1.2509986    1998.9176   -1189.4043   -211.49952    2074.7416   -2309.1165    103.46065    44657.537 -0.067234084   -17.036218 -0.041707817    3422.6967      1502.74    924.25827    847.58009    28.378534    18.845063    14.336843 0.0012570066 0.0012563719 0.0012752077 0.0012725783    299.85822     41.49527    35.978931    34.423473    90.016431    119.66323    90.107069    18.845792    14.337667    28.378112    18.848338    14.339934 
   22000    293.62585    1.2509986     1971.285   -1205.6396   -211.49952     2070.281   -2309.4747   -630.83009    44657.537 -0.067234084   -17.036218 -0.041707817    3416.1182    1505.9026    883.95036     875.4142    28.380597    18.845394    14.337955 0.0011920382 0.0011914933 0.0012456559 0.0012414379    293.62585     41.49527    35.978931    34.423473    90.016431    119.66323    90.107069    18.846468    14.338419     28.37922    18.848383    14.341564 
   23000    300.58864    1.2509986    1985.3786   -1207.6072   -211.49952    2074.5621   -2309.0421   -752.70165    44657.537 -0.067234084   -17.036218 -0.041707817    3427.4658    1503.0745    886.61526    884.35251    28.381844    18.845231    14.337636 0.0012258021 0.0012256646 0.0012334411 0.0012302998    300.58864     41.49527    35.978931    34.423473    90.016431    119.66323    90.107069    18.846022    14.338049     28.37953    18.850502    14.340599 
   24000    288.24737    1.2509986    2040.5927   -1194.6139   -211.49952    2072.9842   -2309.3461    130.89456    44657.537 -0.067234084   -17.036218 -0.041707817    3471.5684    1531.7897     894.2495    891.19812    28.379745    18.846716    14.337451  0.001225846 0.0012247266 0.0012555814 0.0012528945    288.24737     41.49527    35.978931    34.423473    90.016431    119.66323    90.107069    18.845264    14.337314    28.378495    18.847776     14.33947 
   25000    301.91623    1.2509986     2020.008   -1193.2745   -211.49952    2072.2768   -2309.6147    1387.8578    44657.537 -0.067234084   -17.036218 -0.041707817    3450.6204    1494.7401    919.71258    880.65931    28.379144    18.845799    14.337241 0.0012046076 0.0012045574 0.0011619395 0.0011603918    301.91623     41.49527    35.978931    34.423473    90.016431    119.66323    90.107069    18.846123    14.337947    28.380734    18.848775     14.33996 
   26000    303.96113    1.2509986    1946.6096   -1209.2729   -211.49952    2071.1914   -2308.9314   -2416.3621    44657.537 -0.067234084   -17.036218 -0.041707817    3393.6224    1511.7691    896.52151    835.72409    28.380098    18.845212    14.337398 0.0012248219 0.0012245755 0.0012730187 0.0012679841    303.96113     41.49527    35.978931    34.423473    90.016431    119.66323    90.107069    18.846288    14.337415    28.379295    18.847767     14.33779 
   27000    299.11294    1.2509986    2073.2705    -1195.736   -211.49952     2068.264   -2309.8922     319.0174    44657.537 -0.067234084   -17.036218 -0.041707817    3510.6348    1567.0899    933.12495    866.56013     28.37872    18.844541    14.337287 0.0012653209  0.001264224 0.0012273008 0.0012231307    299.11294     41.49527    35.978931    34.423473    90.016431    119.66323    90.107069    18.845614    14.337793    28.378299    18.847549    14.340305 
   28000    300.62431    1.2509986    1989.7905   -1220.9046   -211.49952    2067.9421   -2309.4894   -1406.8086    44657.537 -0.067234084   -17.036218 -0.041707817    3452.2424    1552.7519    888.03334    860.74977    28.380913    18.845787    14.337936  0.001190547 0.0011903162 0.0011842521 0.0011732088    300.62431     41.49527    35.978931    34.423473    90.016431    119.66323    90.107069    18.846586    14.337818    28.381127    18.847467    14.342125 
   29000    295.29714    1.2509986    1983.7398    -1184.254   -211.49952    2075.5819   -2309.0322    495.37072    44657.537 -0.067234084   -17.036218 -0.041707817     3401.444    1519.0882    884.63244    851.61814    28.379207    18.846954    14.338094 0.0012530593 0.0012523677 0.0012382096 0.0012353301    295.29714     41.49527    35.978931    34.423473    90.016431    119.66323    90.107069    18.846771    14.338309    28.380145     18.84848    14.341138 
   30000    294.89325    1.2509986    2075.0848    -1201.113   -211.49952    2072.0683    -2309.256   -519.16022    44657.537 -0.067234084   -17.036218 -0.041707817    3513.3855    1560.9733    910.85097    889.31626    28.379123    18.845831    14.337971  0.001253348 0.0012522797 0.0013047968 0.0013040985    294.89325     41.49527    35.978931    34.423473    90.016431    119.66323    90.107069    18.845496    14.338512    28.378745    18.849008    14.339437 
   31000    297.39972    1.2509986    1931.8621    -1202.854   -211.49952    2070.9167    -2309.213     422.1494    44657.537 -0.067234084   -17.036218 -0.041707817    3373.0123    1482.8467    856.18642    879.58241    28.381122    18.844811     14.33729 0.0012228856 0.0012224495  0.001237577 0.0012303088    297.39972     41.49527    35.978931    34.423473    90.016431    119.66323    90.107069    18.845999    14.337487    28.381433    18.847489    14.338445 
   32000    293.94767    1.2509986    2008.5435   -1219.8434   -211.49952    2072.3351   -2309.4549   -1445.6381    44657.537 -0.067234084   -17.036218 -0.041707817    3465.5067    1499.1643    927.13524    886.16348    28.380171    18.845324    14.338674 0.0011946803 0.0011938399 0.0012864308 0.0012822007    293.94767     41.49527    35.978931    34.423473    90.016431    119.66323    90.107069    18.846115    14.338612    28.379723    18.847161    14.340518 
   33000    304.15163    1.2509986    1946.4704   -1189.2526   -211.49952    2073.2615    -2309.152    1373.7914    44657.537 -0.067234084   -17.036218 -0.041707817    3371.6136    1453.4501    890.05074    872.53007    28.381011    18.846986    14.338079  0.001244708 0.0012398512 0.0011750827 0.0011661733    304.15163     41.49527    35.978931    34.423473    90.016431    119.66323    90.107069    18.847516     14.33868    28.379264    18.851888    14.340387 
   34000    302.62034    1.2509986    1944.5909   -1205.1623   -211.49952      2073.65   -2308.9865   -116.36088    44657.537 -0.067234084   -17.036218 -0.041707817    3385.0898    1517.8964    870.43526    852.06423    28.380076    18.845156    14.337322 0.0012042282 0.0012038076 0.0011721604 0.0011704321    302.62034     41.49527    35.978931    34.423473    90.016431    119.66323    90.107069    18.846271    14.337261    28.380861     18.84886    14.339579 
   35000    299.41871    1.2509986    1907.4534    -1187.422   -211.49952    2069.8848   -2309.0565    561.79122    44657.537 -0.067234084   -17.036218 -0.041707817    3334.0471    1435.3742    880.95811    872.45092    28.380164    18.844843    14.338117 0.0012174564 0.0012163371 0.0011579615 0.0011447198    299.41871     41.49527    35.978931    34.423473    90.016431    119.66323    90.107069    18.845587    14.337959    28.380502    18.846706    14.342289 
   36000    302.40838    1.2509986    2053.3621   -1196.2825   -211.49952    2067.0721   -2309.6354   -715.45987    44657.537 -0.067234084   -17.036218 -0.041707817    3492.2078    1576.1725    882.33346    877.76243    28.380918    18.845529    14.338251 0.0012533752 0.0012515737  0.001180245 0.0011760435    302.40838     41.49527    35.978931    34.423473    90.016431    119.66323    90.107069     18.84503    14.337855    28.380814      18.8477    14.340586 
   37000    301.18081    1.2509986     2036.121   -1190.2841   -211.49952    2069.8855   -2309.5705    242.00424    44657.537 -0.067234084   -17.036218 -0.041707817    3466.0901    1519.7163    910.05486    882.34205    28.377616    18.845643    14.336433 0.0012282475  0.001227694 0.0011109417 0.0011061869    301.18081     41.49527    35.978931    34.423473    90.016431    119.66323    90.107069    18.846474    14.338114    28.381366    18.848414    14.340698 
   38000    298.16254    1.2509986    1981.4783   -1209.6401   -211.49952    2072.2235   -2309.1506    344.49308    44657.537 -0.067234084   -17.036218 -0.041707817    3428.0454    1513.6865    916.91147    851.51163    28.381659     18.84596    14.337509 0.0012744368 0.0012740024 0.0012734714 0.0012668604    298.16254     41.49527    35.978931    34.423473    90.016431    119.66323    90.107069    18.846743    14.337397     28.37716     18.84821    14.339164 
   39000    298.08635    1.2509986    1963.9567   -1202.7855   -211.49952    2071.1378   -2309.6543   -440.85306    44657.537 -0.067234084   -17.036218 -0.041707817    3405.2587    1499.2355    914.88953    841.05975    28.381763    18.845182     14.33771 0.0012638398 0.0012632883 0.0011802031 0.0011717949    298.08635     41.49527    35.978931    34.423473    90.016431    119.66323    90.107069    18.845754    14.337451    28.380919    18.846521    14.340222 
   40000    300.09746    1.2509986    2013.0072   -1182.5582   -211.49952    2074.1157    -2309.318    1159.7376    44657.537 -0.067234084   -17.036218 -0.041707817    3430.7676    1504.7238    876.70844    896.81583    28.379893     18.84711    14.337356 0.0012436721 0.0012435061 0.0012023417 0.0012015415    300.09746     41.49527    35.978931    34.423473    90.016431    119.66323    90.107069     18.84624    14.338141    28.380363    18.848845    14.339987 
   41000    297.90472    1.2509986    1980.5952   -1183.8956   -211.49952    2069.7885   -2309.5575    453.95021    44657.537 -0.067234084   -17.036218 -0.041707817    3404.2597    1535.5408    880.96601    841.74394      28.3805    18.846232     14.33755  0.001228823 0.0012288051 0.0011586681 0.0011562118    297.90472     41.49527    35.978931    34.423473    90.016431    119.66323    90.107069    18.846256    14.337694    28.378181    18.849359    14.340305 
   42000    299.47802    1.2509986    1954.8413   -1199.6446   -211.49952    2070.9669   -2309.3647     527.2443    44657.537 -0.067234084   -17.036218 -0.041707817    3392.8836    1472.6765     910.2591    859.10374    28.378613    18.846556    14.337296 0.0012243208 0.0012233469 0.0011989337 0.0011968669    299.47802     41.49527    35.978931    34.423473    90.016431    119.66323    90.107069    18.847164    14.337732    28.380969    18.848886    14.339401 
   43000    291.77283    1.2509986    1926.3111   -1213.7253   -211.49952    2072.3573    -2309.603    279.91572    44657.537 -0.067234084   -17.036218 -0.041707817    3377.2822    1494.9437    879.73813     852.9182    28.379977     18.84561    14.337905 0.0012184374 0.0012183929 0.0011773183 0.0011720222    291.77283     41.49527    35.978931    34.423473    90.016431    119.66323    90.107069    18.846286    14.337659      28.3817    18.848198    14.339831 
   44000     304.3199    1.2509986    1959.0961   -1190.8936   -211.49952    2070.6981   -2309.1906    784.03133    44657.537 -0.067234084   -17.036218 -0.041707817    3388.4822    1515.0211    890.47966    839.66295    28.380479    18.844883    14.337071 0.0012522984 0.0012516838 0.0013032688 0.0012982916     304.3199     41.49527    35.978931    34.423473    90.016431    119.66323    90.107069    18.845844    14.337509    28.380161     18.84942     14.33753 
   45000    302.55127    1.2509986    2026.3835   -1190.8833   -211.49952    2066.4403   -2309.9511   -703.43431    44657.537 -0.067234084   -17.036218 -0.041707817    3460.7776    1567.7762    906.62231    837.33855    28.380094    18.845007    14.336978 0.0012584432 0.0012583315 0.0012173082 0.0012140086    302.55127     41.49527    35.978931    34.423473    90.016431    119.66323    90.107069    18.846044    14.337444    28.378341      18.8485    14.338389 
   46000    300.77387    1.2509986    2026.8654   -1208.5917   -211.49952    2076.0368   -2309.3346   -445.61212    44657.537 -0.067234084   -17.036218 -0.041707817    3468.7549    1544.1762    895.09533    875.85932    28.379676     18.84527    14.337554 0.0012469944 0.0012464985 0.0013364641 0.0013299765    300.77387     41.49527    35.978931    34.423473    90.016431    119.66323    90.107069    18.845593    14.337993    28.380015      18.8494    14.342113 
   47000    299.30412    1.2509986    2042.2982   -1205.4091   -211.49952    2070.2924   -2309.7068   -635.07663    44657.537 -0.067234084   -17.036218 -0.041707817    3487.1217    1538.9719    886.25134    907.51292    28.379589     18.84509    14.337778 0.0012423724 0.0012415639 0.0013251304 0.0013223053    299.30412     41.49527    35.978931    34.423473    90.016431    119.66323    90.107069    18.846103    14.338525    28.379925    18.849034    14.341278 
   48000    298.03233    1.2509986    1978.8972   -1215.8872   -211.49952    2070.8457    -2309.388   -1170.0618    44657.537 -0.067234084   -17.036218 -0.041707817    3433.3268    1547.0909    895.10205    846.01651    28.379106    18.844717    14.337264 0.0012388194 0.0012383456 0.0012260784 0.0012201718    298.03233     41.49527    35.978931    34.423473    90.016431    119.66323    90.107069     18.84552    14.337689    28.377632    18.847701    14.340332 
   49000    301.01967    1.2509986    1886.3776   -1201.9079   -211.49952    2071.1884   -2309.2079    523.89132    44657.537 -0.067234084   -17.036218 -0.041707817     3326.305    1486.0672    863.71617    832.83928    28.380077    18.846442    14.338291 0.0012521044 0.0012496009 0.0012053216 0.0012016566    301.01967     41.49527    35.978931    34.423473    90.016431    119.66323    90.107069    18.847459    14.338656    28.379997    18.850462    14.340809 
   50000    295.86021    1.2509986    2013.7408   -1198.9546   -211.49952    2069.8444   -2309.2449    658.82851    44657.537 -0.067234084   -17.036218 -0.041707817    3452.0959     1498.592    910.07848    885.77641    28.379492    18.845436    14.337297 0.0012670644 0.0012669418 0.0012743759 0.0012641381    295.86021     41.49527    35.978931    34.423473    90.016431    119.66323    90.107069    18.846223    14.337755     28.38213     18.84751    14.338474 
   51000    297.43857    1.2509986      1993.07   -1190.6102   -211.49952    2071.3165   -2309.4353     -350.761    44657.537 -0.067234084   -17.036218 -0.041707817     3421.799    1532.3305    890.97953    852.27742    28.382934    18.845844    14.338664 0.0012103474  0.001210118 0.0012418467 0.0012388393    297.43857     41.49527    35.978931    34.423473    90.016431    119.66323    90.107069    18.846396    14.338167    28.381186    18.848483    14.339905 
   52000    298.45889    1.2509986    2032.4398   -1171.3466   -211.49952     2073.028   -2309.3635    1348.5654    44657.537 -0.067234084   -17.036218 -0.041707817     3440.122    1536.8303    876.74058    874.14048    28.379596    18.845079    14.336625 0.0012292186 0.0012280042  0.001278199 0.0012758664    298.45889     41.49527    35.978931    34.423473    90.016431    119.66323    90.107069     18.84566     14.33702    28.379727     18.84783    14.338687 
   53000    298.37854    1.2509986    2038.4351   -1183.0987   -211.49952    2075.3412   -2309.3973    824.75132    44657.537 -0.067234084   -17.036218 -0.041707817    3455.5899    1516.2696    897.41883     882.1555    28.378491    18.844829    14.337948 0.0012089022 0.0012082519  0.001295337 0.0012913731    298.37854     41.49527    35.978931    34.423473    90.016431    119.66323    90.107069     18.84562    14.338163    28.377798     18.84875    14.338743 
   54000    297.21963    1.2509986     2008.741   -1207.7867   -211.49952    2073.1498    -2309.163   -1037.1924    44657.537 -0.067234084   -17.036218 -0.041707817    3452.5408    1557.0241    897.72722    850.02004    28.381639    18.846094    14.338513  0.001252252 0.0012518044 0.0012677187 0.0012661095    297.21963     41.49527    35.978931    34.423473    90.016431    119.66323    90.107069    18.846193    14.337992    28.380607    18.848382    14.339965 
   55000      302.786    1.2509986    1952.8241   -1197.5323   -211.49952    2072.4749   -2309.1637    394.35947    44657.537 -0.067234084   -17.036218 -0.041707817    3387.0452    1517.1956    890.23779    834.08982    28.380806    18.845922    14.337904 0.0012190541 0.0012176138 0.0011948741 0.0011904781      302.786     41.49527    35.978931    34.423473    90.016431    119.66323    90.107069     18.84528    14.338124    28.381414    18.848044    14.339569 
   56000    299.94869    1.2509986      1962.03   -1214.9447   -211.49952    2067.8173   -2309.7116   -739.76246    44657.537 -0.067234084   -17.036218 -0.041707817    3418.8689    1508.7059    864.35717    884.60846     28.38143    18.845472    14.337856 0.0012254664 0.0012250057 0.0011726017 0.0011705899    299.94869     41.49527    35.978931    34.423473    90.016431    119.66323    90.107069    18.846842    14.337896    28.380025    18.849259    14.338322 
   57000    299.42911    1.2509986    2056.5546   -1204.9677   -211.49952    2070.0168   -2309.3854    -450.5436    44657.537 -0.067234084   -17.036218 -0.041707817    3500.8908    1570.1942    889.98083    887.57972    28.380885    18.845598     14.33688 0.0012082337 0.0012072308 0.0011706015 0.0011693096    299.42911     41.49527    35.978931    34.423473    90.016431    119.66323    90.107069    18.846657    14.336897    28.378569    18.849365    14.340078 
   58000    299.40574    1.2509986    2018.2431   -1213.1308   -211.49952    2070.9339   -2309.5454   -1385.5572    44657.537 -0.067234084   -17.036218 -0.041707817    3469.9854    1509.6573     915.9725    886.33993    28.382405    18.845867    14.338387 0.0012447373 0.0012443844 0.0012984538 0.0012948701    299.40574     41.49527    35.978931    34.423473    90.016431    119.66323    90.107069    18.846271     14.33784    28.380816    18.847604    14.339748 
   59000    299.58018    1.2509986    1978.1396   -1213.6113   -211.49952    2071.5786   -2309.6002   -719.25664    44657.537 -0.067234084   -17.036218 -0.041707817    3429.7726    1518.4669    908.51502    852.78074    28.379692     18.84667    14.336999 0.0011895412  0.001189005  0.001175061 0.0011736594    299.58018     41.49527    35.978931    34.423473    90.016431    119.66323    90.107069    18.846497    14.337088    28.379278    18.848025    14.339049 
   60000    300.10905    1.2509986    2020.5839   -1192.7685   -211.49952    2072.1588   -2309.0985    334.98996    44657.537 -0.067234084   -17.036218 -0.041707817     3450.292    1586.0133    850.87058    863.88129    28.379513    18.845177    14.337192 0.0012585517 0.0012584688 0.0012448648 0.0012438476    300.10905     41.49527    35.978931    34.423473    90.016431    119.66323    90.107069    18.846121    14.337674    28.379986    18.849246     14.34052 
   61000    297.69132    1.2509986    1976.4913   -1218.4588   -211.49952    2073.1266   -2309.6415   -1399.6373    44657.537 -0.067234084   -17.036218 -0.041707817    3431.4651    1544.0079    889.39868    853.01578    28.381056    18.846625    14.338749 0.0012796081 0.0012791799  0.001349724  0.001344813    297.69132     41.49527    35.978931    34.423473    90.016431    119.66323    90.107069     18.84619    14.338339    28.378894    18.847957     14.34147 
   62000     301.8207    1.2509986    2018.2497   -1197.8932   -211.49952    2071.1367   -2309.1082   -582.47923    44657.537 -0.067234084   -17.036218 -0.041707817    3454.1144    1541.7048    909.08679     853.7301    28.379729    18.845519    14.337902 0.0011945046  0.001194096 0.0011495439 0.0011454273     301.8207     41.49527    35.978931    34.423473    90.016431    119.66323    90.107069    18.846289    14.338314    28.380118    18.849537    14.341516 
   63000    301.69712    1.2509986    2095.3764   -1184.8943   -211.49952    2074.6742   -2309.4837     1312.371    44657.537 -0.067234084   -17.036218 -0.041707817    3515.0802    1538.6112    943.27288    880.23211    28.381991     18.84621    14.337944 0.0012144451 0.0012131892 0.0012738859 0.0012695447    301.69712     41.49527    35.978931    34.423473    90.016431    119.66323    90.107069    18.847272    14.337626    28.379602    18.850566    14.341026 
   64000    298.47403    1.2509986    2048.4364   -1202.1729   -211.49952    2072.1709   -2309.4521    944.86705    44657.537 -0.067234084   -17.036218 -0.041707817    3487.8905    1539.4875    906.01358    886.60997    28.377551    18.846703    14.336972 0.0011975118 0.0011965995  0.001138804 0.0011369936    298.47403     41.49527    35.978931    34.423473    90.016431    119.66323    90.107069    18.846388    14.337672    28.380721    18.849687    14.339673 
   65000    300.17126    1.2509986    2038.1014   -1195.7265   -211.49952    2075.7325   -2309.1419    1197.0433    44657.537 -0.067234084   -17.036218 -0.041707817    3467.2373    1506.6127      924.224    882.19114    28.380062    18.844385     14.33827 0.0012160255 0.0012132257 0.0011246916 0.0011062968    300.17126     41.49527    35.978931    34.423473    90.016431    119.66323    90.107069    18.845823    14.337711    28.377982    18.848558    14.343602 
   66000    301.23179    1.2509986    2053.3407   -1178.6393   -211.49952    2069.4209   -2309.4829    504.36172    44657.537 -0.067234084   -17.036218 -0.041707817     3472.042    1579.2379    912.87472    836.08189    28.380249    18.844719    14.337659 0.0011709023 0.0011696541 0.0011402474 0.0011332568    301.23179     41.49527    35.978931    34.423473    90.016431    119.66323    90.107069    18.845231    14.338012       28.377    18.848443     14.33928 
   67000    299.66309    1.2509986    1896.5776   -1204.4191   -211.49952    2072.3317   -2309.5389    572.38807    44657.537 -0.067234084   -17.036218 -0.041707817    3338.2039    1468.3288    863.01915    857.36963    28.383026     18.84474     14.33875 0.0012263746 0.0012254794 0.0012235504 0.0012215245    299.66309     41.49527    35.978931    34.423473    90.016431    119.66323    90.107069    18.845474    14.338257    28.379339    18.848635    14.340993 
   68000    304.57317    1.2509986    1969.0504   -1205.8216   -211.49952    2074.0916   -2309.1448   -400.57618    44657.537 -0.067234084   -17.036218 -0.041707817    3409.9251    1501.2212    911.93958     848.3186    28.378506    18.845739    14.336737 0.0012322388  0.001232168 0.0012395958 0.0012357917    304.57317     41.49527    35.978931    34.423473    90.016431    119.66323    90.107069    18.845923    14.337677    28.377894    18.848201    14.339022 
   69000    292.13264    1.2509986    2042.5326   -1196.9683   -211.49952    2073.6881   -2309.3857    795.68327    44657.537 -0.067234084   -17.036218 -0.041707817    3475.1985    1564.3586    898.79625    861.21568    28.378571    18.845451    14.336809 0.0012496922 0.0012488528 0.0013631527 0.0013622661    292.13264     41.49527    35.978931    34.423473    90.016431    119.66323    90.107069    18.847074     14.33756    28.378643    18.849037    14.339863 
   70000    297.36089    1.2509986    1998.9382   -1192.7887   -211.49952    2075.3205    -2309.282    836.85583    44657.537 -0.067234084   -17.036218 -0.041707817    3425.6883    1483.1732     912.0424    874.46827    28.380895    18.845629    14.337574 0.0013135452 0.0013134996  0.001318837 0.0013158396    297.36089     41.49527    35.978931    34.423473    90.016431    119.66323    90.107069    18.845998    14.337659    28.378923    18.847429    14.339345 
   71000    292.45548    1.2509986    1947.1535   -1228.7282   -211.49952    2075.8155   -2309.1929   -372.68492    44657.537 -0.067234084   -17.036218 -0.041707817    3409.2591    1528.6683     868.5155    856.98497    28.379987    18.845646    14.337531 0.0012000745 0.0012000188 0.0012525997 0.0012474417    292.45548     41.49527    35.978931    34.423473    90.016431    119.66323    90.107069    18.846077    14.337949    28.377636    18.848922    14.338429 
   72000    296.45585    1.2509986    2028.2684   -1207.8215   -211.49952    2071.1914   -2309.6304    703.22424    44657.537 -0.067234084   -17.036218 -0.041707817     3474.529     1501.731    915.30429    902.02157    28.378241    18.845497    14.336776 0.0012217598 0.0012207964 0.0011389902 0.0011349742    296.45585     41.49527    35.978931    34.423473    90.016431    119.66323    90.107069    18.846199    14.337423     28.37782    18.848029     14.33946 
   73000     304.9263    1.2509986    1941.0353   -1211.7542   -211.49952    2074.3663   -2309.3303   -385.85737    44657.537 -0.067234084   -17.036218 -0.041707817    3387.7534    1465.0898    925.17068     847.7599    28.379611    18.845655    14.337478 0.0012730047 0.0012715261  0.001301673 0.0013008138     304.9263     41.49527    35.978931    34.423473    90.016431    119.66323    90.107069     18.84558    14.337927    28.378896    18.849663    14.339657 
   74000    295.48249    1.2509986    2037.4358   -1195.8975   -211.49952    2075.4826    -2309.433    1253.0687    44657.537 -0.067234084   -17.036218 -0.041707817    3467.2837    1524.7447    889.10087    893.72606    28.379042    18.846585    14.337438 0.0012016362 0.0011996837 0.0011052689 0.0011033567    295.48249     41.49527    35.978931    34.423473    90.016431    119.66323    90.107069    18.847576    14.337671    28.380868    18.849003    14.340077 
   75000    294.76111    1.2509986    1975.5496   -1178.8953   -211.49952    2076.7255   -2309.0745    621.45825    44657.537 -0.067234084   -17.036218 -0.041707817    3386.7939     1509.894    897.13468    835.81828    28.380455     18.84583    14.337346 0.0012243496 0.0012234825 0.0012218756 0.0012201879    294.76111     41.49527    35.978931    34.423473    90.016431    119.66323    90.107069    18.845642    14.337663    28.379826    18.848071    14.338785 
   76000    300.73369    1.2509986    2054.7729   -1189.1746   -211.49952    2071.8917   -2309.2431    -139.1946    44657.537 -0.067234084   -17.036218 -0.041707817     3481.299    1569.1615    883.19693     871.5631    28.379319    18.845023    14.338261 0.0012632018 0.0012619749 0.0013173565 0.0013135394    300.73369     41.49527    35.978931    34.423473    90.016431    119.66323    90.107069    18.846174    14.338678     28.38116    18.848634    14.338587 
   77000    298.27248    1.2509986    1898.4269   -1201.7262   -211.49952    2071.9462   -2309.7763   -139.25694    44657.537 -0.067234084   -17.036218 -0.041707817    3337.9832    1527.8318    859.92553    805.69038    28.378462    18.845376    14.336782 0.0012581468 0.0012579022 0.0013510122 0.0013434635    298.27248     41.49527    35.978931    34.423473    90.016431    119.66323    90.107069    18.846486    14.337998    28.378952    18.848955    14.342318 
   78000    292.77632    1.2509986    2023.3977   -1197.6489   -211.49952    2072.8198   -2309.4383    518.94802    44657.537 -0.067234084   -17.036218 -0.041707817    3457.6651    1508.0073    917.71339    880.18794     28.38076    18.845538    14.337468  0.001228691 0.0012282874 0.0012768812 0.0012743272    292.77632     41.49527    35.978931    34.423473    90.016431    119.66323    90.107069    18.846725    14.337779    28.380215    18.849717    14.340913 
   79000    295.70744    1.2509986     1983.491   -1200.2936   -211.49952    2076.3095   -2309.3969    912.27234    44657.537 -0.067234084   -17.036218 -0.041707817     3416.872    1490.6691    911.70753    867.66977    28.379248    18.843275    14.337442 0.0012483101 0.0012456098 0.0012998977 0.0012986253    295.70744     41.49527    35.978931    34.423473    90.016431    119.66323    90.107069    18.844593    14.337327    28.379383    18.848646    14.338586 
   80000    298.91579    1.2509986    2071.7926   -1199.0312   -211.49952    2072.1173   -2309.4373    97.919134    44657.537 -0.067234084   -17.036218 -0.041707817    3508.1437    1569.3453    915.39213    866.37277    28.379007    18.845504    14.337542 0.0011897562 0.0011895723 0.0012443914 0.0012395806    298.91579     41.49527    35.978931    34.423473    90.016431    119.66323    90.107069    18.846428    14.338016     28.37893    18.846926    14.339891 
   81000    299.34418    1.2509986    1966.6536   -1190.8726   -211.49952    2069.1412   -2309.4635    331.86056    44657.537 -0.067234084   -17.036218 -0.041707817    3397.8484    1507.1773    897.50939     847.5439    28.379345    18.844964    14.337076 0.0012094978 0.0012089529 0.0011175421  0.001107556    299.34418     41.49527    35.978931    34.423473    90.016431    119.66323    90.107069     18.84547    14.337818    28.382592    18.848149    14.339806 
   82000    293.45953    1.2509986    1954.1153   -1200.8268   -211.49952    2072.0697   -2309.3702    711.61107    44657.537 -0.067234084   -17.036218 -0.041707817    3392.2426    1506.6895    869.85429    867.60274    28.378398    18.846108    14.337577 0.0012119399 0.0012101815 0.0012901029 0.0012828079    293.45953     41.49527    35.978931    34.423473    90.016431    119.66323    90.107069    18.847268    14.338133    28.379716    18.848781    14.342324 
   83000    303.81953    1.2509986    1982.9068   -1205.1144   -211.49952    2066.3786   -2309.7248   -435.02398    44657.537 -0.067234084   -17.036218 -0.041707817    3431.3674    1530.8272    895.82952    856.01675    28.380073    18.846409    14.337731 0.0012358286 0.0012337045 0.0012302948 0.0012249598    303.81953     41.49527    35.978931    34.423473    90.016431    119.66323    90.107069    18.847311    14.337329    28.377637    18.849572    14.338481 
   84000    298.13343    1.2509986     1955.392   -1210.0396   -211.49952    2070.1121   -2309.7319     -1530.84    44657.537 -0.067234084   -17.036218 -0.041707817    3405.0514    1508.7974    872.27592    874.99178    28.380749     18.84433    14.337175 0.0012266906 0.0012250596 0.0012235968 0.0012153883    298.13343     41.49527    35.978931    34.423473    90.016431    119.66323    90.107069    18.845322    14.336854     28.38117    18.847156    14.338169 
   85000    300.94751    1.2509986    1980.9834   -1202.2115   -211.49952     2069.485   -2309.3264   -1343.6553    44657.537 -0.067234084   -17.036218 -0.041707817    3423.0363    1484.1119    931.85357    861.98225    28.381093    18.846505    14.338026 0.0012677151 0.0012671691 0.0012139665 0.0012125621    300.94751     41.49527    35.978931    34.423473    90.016431    119.66323    90.107069    18.846841     14.33801    28.379803    18.847941    14.339197 
   86000    306.07901    1.2509986    2048.7321   -1228.3188   -211.49952    2068.7292   -2309.6818   -83.011783    44657.537 -0.067234084   -17.036218 -0.041707817    3518.0036    1591.2423    907.53752    867.99836    28.379013    18.845386    14.337176 0.0012599645 0.0012598559  0.001235391 0.0012295847    306.07901     41.49527    35.978931    34.423473    90.016431    119.66323    90.107069    18.846405      14.3375    28.381966    18.848975    14.339648 
   87000    298.93808    1.2509986    1995.7767   -1195.4939   -211.49952    2075.0207   -2309.3573   -46.295767    44657.537 -0.067234084   -17.036218 -0.041707817    3425.6072    1519.7015    900.23676    854.70469    28.377562    18.846525    14.336538 0.0013120511 0.0013110459 0.0012312052 0.0012300687    298.93808     41.49527    35.978931    34.423473    90.016431    119.66323    90.107069    18.846539    14.336814     28.38044    18.849484    14.339273 
   88000    294.54903    1.2509986    2109.8596   -1202.2774   -211.49952    2074.1792   -2309.4134   -43.158666    44657.537 -0.067234084   -17.036218 -0.041707817    3547.3712    1578.2659    917.26987    895.99472    28.378953    18.844936    14.337356 0.0012315589 0.0012311731 0.0011363146 0.0011337177    294.54903     41.49527    35.978931    34.423473    90.016431    119.66323    90.107069    18.846612    14.337794      28.3786    18.847841    14.340195 
   89000    299.52406    1.2509986    2055.5464   -1194.1111   -211.49952    2071.0695    -2309.366   -696.19307    44657.537 -0.067234084   -17.036218 -0.041707817    3487.9541     1546.721    899.04097    889.48503    28.379795    18.846583    14.338122 0.0012463215 0.0012458316 0.0012421484 0.0012388664    299.52406     41.49527    35.978931    34.423473    90.016431    119.66323    90.107069    18.846719    14.337986    28.377764    18.849274     14.33964 
   90000    295.03177    1.2509986    2008.2328   -1206.4315   -211.49952    2075.7677    -2309.047   -216.96263    44657.537 -0.067234084   -17.036218 -0.041707817    3447.9436    1523.2779    901.02646    875.57005    28.381801    18.845147    14.337452 0.0011883081 0.0011878288 0.0012302658 0.0012288677    295.03177     41.49527    35.978931    34.423473    90.016431    119.66323    90.107069    18.846362    14.337131    28.379122    18.849808    14.338879 
   91000    304.61981    1.2509986    1946.0483   -1196.2683   -211.49952    2073.3647   -2309.1819    641.68219    44657.537 -0.067234084   -17.036218 -0.041707817    3378.1339    1497.2516    844.68833    882.81798    28.380848    18.845552    14.337977 0.0011935833 0.0011934172 0.0012596721  0.001250928    304.61981     41.49527    35.978931    34.423473    90.016431    119.66323    90.107069    18.845886    14.337724    28.381631    18.850055    14.341469 
   92000    294.44901    1.2509986    1914.2589    -1199.903   -211.49952    2069.8391    -2309.271    496.32686    44657.537 -0.067234084   -17.036218 -0.041707817    3353.5938    1528.9559    842.27423    834.88258    28.379325      18.8455    14.338084 0.0012172057 0.0012164306 0.0012067422 0.0012057293    294.44901     41.49527    35.978931    34.423473    90.016431    119.66323    90.107069     18.84568    14.338428    28.378925    18.848233    14.339713 
   93000    294.74965    1.2509986    1986.8151     -1209.22   -211.49952    2073.0569   -2309.5173      100.351    44657.537 -0.067234084   -17.036218 -0.041707817    3432.4955     1499.215    911.57374    870.26847    28.382398    18.845385     14.33792 0.0012353792 0.0012346642 0.0012352856 0.0012346358    294.74965     41.49527    35.978931    34.423473    90.016431    119.66323    90.107069    18.846729    14.337095    28.379195    18.848633    14.339026 
   94000    296.63567    1.2509986    2009.1345   -1215.9818   -211.49952    2071.4372   -2309.4655     139.2384    44657.537 -0.067234084   -17.036218 -0.041707817    3463.1446    1549.2291     895.8837    868.87827    28.381881     18.84419     14.33726 0.0011870185 0.0011862004 0.0011266666  0.001125195    296.63567     41.49527    35.978931    34.423473    90.016431    119.66323    90.107069    18.845746     14.33714    28.380337     18.84924    14.338737 
   95000    300.43427    1.2509986    1946.0712   -1193.4034   -211.49952    2070.9371   -2309.4741    355.99109    44657.537 -0.067234084   -17.036218 -0.041707817    3378.0116    1491.7591     896.7213    842.34949     28.38001    18.845232    14.337542 0.0012513181 0.0012510733 0.0012665346 0.0012646927    300.43427     41.49527    35.978931    34.423473    90.016431    119.66323    90.107069    18.846532    14.337477     28.37838    18.848963    14.340312 
   96000    296.65587    1.2509986    1910.4551   -1207.7039   -211.49952    2074.0011   -2309.6215    -455.9973    44657.537 -0.067234084   -17.036218 -0.041707817    3353.7795    1479.8274    869.02959    856.96959    28.379416    18.846161    14.338066 0.0012583542 0.0012574723 0.0012252168 0.0012239236    296.65587     41.49527    35.978931    34.423473    90.016431    119.66323    90.107069    18.846992    14.338134    28.378695    18.849487    14.339068 
   97000    296.77497    1.2509986    1982.4648   -1205.2831   -211.49952    2071.3197   -2309.3099    330.93966    44657.537 -0.067234084   -17.036218 -0.041707817    3425.7382     1502.395    878.25081    887.57085    28.379744    18.846303    14.337159 0.0012471257 0.0012465842 0.0011662384 0.0011643435    296.77497     41.49527    35.978931    34.423473    90.016431    119.66323    90.107069    18.846236    14.337839    28.378946    18.848505    14.340762 
   98000    294.72118    1.2509986    1973.8192   -1195.7647   -211.49952    2073.1524   -2309.0692    -332.5687    44657.537 -0.067234084   -17.036218 -0.041707817    3405.5008    1559.2242    893.93067    811.22981    28.379317     18.84473    14.337432 0.0012288516 0.0012273632 0.0013212139 0.0013190452    294.72118     41.49527    35.978931    34.423473    90.016431    119.66323    90.107069    18.845316    14.336882    28.380166    18.849114    14.338301 
   99000    299.85078    1.2509986    2002.6468   -1189.9798   -211.49952    2070.2957   -2309.7181    327.82525    44657.537 -0.067234084   -17.036218 -0.041707817    3432.0489    1508.1068     908.2105    866.23728    28.381707    18.845123     14.33775  0.001221298 0.0012191099  0.001169988 0.0011617819    299.85078     41.49527    35.978931    34.423473    90.016431    119.66323    90.107069    18.847537    14.338058    28.377252    18.849096    14.341338 
  100000    299.55815    1.2509986    1991.7994   -1202.8183   -211.49952    2069.8097   -2309.1968   -1193.1022    44657.537 -0.067234084   -17.036218 -0.041707817    3434.0047    1550.3878     881.2784    852.34587    28.379806    18.845632     14.33827 0.0012251388 0.0012247039 0.0011755069 0.0011707982    299.55815     41.49527    35.978931    34.423473    90.016431    119.66323    90.107069    18.846428    14.338263    28.379099    18.848071    14.341539 
  101000    295.60876    1.2509986     2010.036   -1204.7233   -211.49952    2073.7957   -2309.2536   -217.68401    44657.537 -0.067234084   -17.036218 -0.041707817    3450.2172    1475.1886    939.29186    880.49111    28.378401    18.845029    14.336963 0.0012562105 0.0012546207 0.0012005779  0.001197704    295.60876     41.49527    35.978931    34.423473    90.016431    119.66323    90.107069    18.846182    14.337584    28.378191    18.848754    14.340608 
  102000    291.68791    1.2509986    2036.2487   -1201.7382   -211.49952     2073.891   -2309.4194   -124.81508    44657.537 -0.067234084   -17.036218 -0.041707817    3473.5154    1533.8774    924.11186    866.62453    28.380374    18.844638     14.33762 0.0012063858 0.0012057403 0.0011741377 0.0011657852    291.68791     41.49527    35.978931    34.423473    90.016431    119.66323    90.107069    18.845749    14.337182    28.379852     18.84639    14.338461 
  103000    300.12807    1.2509986    2014.1605   -1198.3323   -211.49952    2069.9206   -2309.5283    -437.1972    44657.537 -0.067234084   -17.036218 -0.041707817    3452.1004     1539.085    885.98397    873.44383    28.380419    18.844697    14.337747 0.0011892667 0.0011876885 0.0011212251 0.0011165911    300.12807     41.49527    35.978931    34.423473    90.016431    119.66323    90.107069    18.845591    14.337503    28.380668    18.847294    14.338971 
  104000    298.53979    1.2509986    1910.4402   -1211.2524   -211.49952    2070.6849   -2309.3657   -729.44885    44657.537 -0.067234084   -17.036218 -0.041707817    3360.3734    1508.2765    879.52367    829.82816    28.381433    18.845808    14.337933 0.0012377919 0.0012377223 0.0012185636 0.0012135645    298.53979     41.49527    35.978931    34.423473    90.016431    119.66323    90.107069    18.846021    14.337706    28.380574    18.848835    14.337655 
  105000    297.86168    1.2509986     2017.718   -1206.9903   -211.49952    2072.3783   -2309.1326   -416.74204    44657.537 -0.067234084   -17.036218 -0.041707817    3461.4627    1539.1337    902.79915    867.00788    28.381887     18.84546    14.337978 0.0012159737 0.0012155036 0.0012636508 0.0012620731    297.86168     41.49527    35.978931    34.423473    90.016431    119.66323    90.107069    18.846124    14.337327    28.378812    18.848698    14.338677 
  106000    296.84645    1.2509986    2044.6227   -1197.3221   -211.49952    2072.9951   -2309.5058   -465.83081    44657.537 -0.067234084   -17.036218 -0.041707817    3478.4554    1558.4431    890.51679    875.74821    28.381663    18.843768    14.337853 0.0012684102 0.0012673008 0.0013049692 0.0012865056    296.84645     41.49527    35.978931    34.423473    90.016431    119.66323    90.107069    18.845709    14.336895    28.375956    18.847289    14.338049 
  107000    301.47788    1.2509986    2009.3531   -1194.3854   -211.49952     2073.494   -2309.3087    380.83751    44657.537 -0.067234084   -17.036218 -0.041707817    3439.5532    1519.3209    878.40173    890.62037    28.381052    18.844119    14.337422  0.001243573 0.0012416145 0.0011776647 0.0011719484    301.47788     41.49527    35.978931    34.423473    90.016431    119.66323    90.107069    18.844823    14.337652    28.378341    18.849566    14.341621 
  108000    298.86296    1.2509986     1915.557   -1203.2288   -211.49952    2071.5458   -2309.5874    21.372756    44657.537 -0.067234084   -17.036218 -0.041707817    3356.8274    1465.0519    892.16903    851.44315    28.377784    18.845469    14.336528 0.0012173502 0.0012171209 0.0011776938 0.0011677921    298.86296     41.49527    35.978931    34.423473    90.016431    119.66323    90.107069    18.846141    14.337937    28.381336    18.848402    14.342161 
  109000    304.84501    1.2509986    2034.5113   -1202.1959   -211.49952    2069.2392   -2309.4429   -607.77762    44657.537 -0.067234084   -17.036218 -0.041707817     3476.911    1579.3074    902.79713    843.83974    28.379862    18.845506     14.33794 0.0012180721 0.0012177619 0.0012399831 0.0012242772    304.84501     41.49527    35.978931    34.423473    90.016431    119.66323    90.107069    18.846012    14.338013    28.379048    18.845746    14.341823 
  110000    298.84196    1.2509986    2005.9478   -1197.2505   -211.49952     2069.269   -2309.5556   -752.44462    44657.537 -0.067234084   -17.036218 -0.041707817    3443.4849    1523.6568    908.46796    863.94944    28.380428    18.844827    14.337791 0.0012140632 0.0012125039 0.0012118258 0.0012078525    298.84196     41.49527    35.978931    34.423473    90.016431    119.66323    90.107069     18.84532    14.337578     28.37997    18.847094    14.339988 
  111000    299.48021    1.2509986    2035.9681    -1185.174   -211.49952    2068.0053   -2310.0906    1371.7221    44657.537 -0.067234084   -17.036218 -0.041707817    3463.2274    1516.4302    917.37718    879.52647    28.379533    18.843758    14.337471 0.0011977449 0.0011970082 0.0012453361 0.0012417541    299.48021     41.49527    35.978931    34.423473    90.016431    119.66323    90.107069    18.846138    14.338207    28.378219    18.849156     14.34097 
  112000    306.20994    1.2509986    2043.5182   -1194.3661   -211.49952    2069.7374    -2309.622   -934.04648    44657.537 -0.067234084   -17.036218 -0.041707817    3477.7689    1559.9473    902.53296    863.90234    28.382041     18.84421    14.338622 0.0012282156 0.0012277095 0.0012410541 0.0012326481    306.20994     41.49527    35.978931    34.423473    90.016431    119.66323    90.107069    18.846323    14.337971    28.381998    18.849888    14.340934 
  113000    296.92464    1.2509986    2051.4046   -1196.3765   -211.49952     2071.838   -2309.4103   -221.39701    44657.537 -0.067234084   -17.036218 -0.041707817    3485.3535    1562.3657    877.77019    892.66985    28.378685    18.846251    14.337389 0.0012138479 0.0012126702 0.0011865256 0.0011780674    296.92464     41.49527    35.978931    34.423473    90.016431    119.66323    90.107069    18.845376    14.337835    28.378416    18.846353    14.339347 
  114000    301.14201    1.2509986    1878.7083   -1211.3419   -211.49952    2072.4482   -2309.3512   -115.92652    44657.537 -0.067234084   -17.036218 -0.041707817    3326.9532    1519.4663    846.62891    818.54732    28.380119    18.845525    14.337643 0.0012312962 0.0012311593 0.0012725926 0.0012682987    301.14201     41.49527    35.978931    34.423473    90.016431    119.66323    90.107069     18.84614     14.33796     28.38119    18.848495    14.340804 
  115000    294.08225    1.2509986    1961.8743   -1208.4119   -211.49952    2072.4426    -2309.434   -629.72146    44657.537 -0.067234084   -17.036218 -0.041707817    3407.2775    1522.9827    905.92382    838.95117    28.380057    18.845144    14.337571 0.0012494703 0.0012467042  0.001224378  0.001215577    294.08225     41.49527    35.978931    34.423473    90.016431    119.66323    90.107069    18.845033    14.338153     28.38027    18.846263    14.340493 
  116000    295.81058    1.2509986     2000.846   -1211.1875   -211.49952    2074.2084   -2309.3816   -1293.1511    44657.537 -0.067234084   -17.036218 -0.041707817    3447.2068    1510.6665    907.29124    878.50291    28.380277    18.844451    14.337218 0.0012429342 0.0012402452 0.0012566068 0.0012521378    295.81058     41.49527    35.978931    34.423473    90.016431    119.66323    90.107069    18.845129    14.337135    28.381227    18.848134    14.338685 
  117000    293.29491    1.2509986    2067.4061   -1202.1641   -211.49952    2073.1384   -2309.5637    1159.6082    44657.537 -0.067234084   -17.036218 -0.041707817    3505.9955    1544.6393    911.02611    892.14235    28.376549    18.846721    14.336726 0.0012469845 0.0012463317 0.0012747651  0.001270785    293.29491     41.49527    35.978931    34.423473    90.016431    119.66323    90.107069    18.846434    14.337398    28.378466    18.850332    14.338613 
  118000    301.29533    1.2509986    2028.3751   -1197.0672   -211.49952    2071.3133    -2309.551   -877.87467    44657.537 -0.067234084   -17.036218 -0.041707817    3463.6799    1553.2181    901.94744    857.18923    28.379597    18.846723    14.337519 0.0012143355 0.0012125252 0.0012230466 0.0012212791    301.29533     41.49527    35.978931    34.423473    90.016431    119.66323    90.107069    18.847235    14.337117    28.379352    18.849659    14.338495 
  119000    294.18389    1.2509986    1981.6622   -1199.0401   -211.49952    2072.4587   -2309.3578   -256.62724    44657.537 -0.067234084   -17.036218 -0.041707817    3417.6015    1489.8799    908.50546    864.03075     28.38101    18.844707    14.337447  0.001229939 0.0012293453  0.001227381  0.001225991    294.18389     41.49527    35.978931    34.423473    90.016431    119.66323    90.107069    18.845652    14.337283    28.378714    18.848289    14.339244 
  120000    298.07275    1.2509986    1994.5316   -1217.3435   -211.49952    2075.5597   -2309.1262    170.82238    44657.537 -0.067234084   -17.036218 -0.041707817    3445.4415    1511.9906    925.80294    857.68245     28.38104    18.846408    14.337801 0.0012800757 0.0012796009 0.0013825502 0.0013813078    298.07275     41.49527    35.978931    34.423473    90.016431    119.66323    90.107069    18.846809    14.337751    28.380072    18.848295    14.340317 
  121000    294.89961    1.2509986    2042.9993   -1204.7227   -211.49952    2067.6038   -2309.6247   -383.42038    44657.537 -0.067234084   -17.036218 -0.041707817    3489.7428    1549.7644    910.23848    876.34651    28.380884    18.846147    14.337456  0.001230388 0.0012294075  0.001234357 0.0012328579    294.89961     41.49527    35.978931    34.423473    90.016431    119.66323    90.107069    18.846455    14.337662     28.38076    18.848918     14.33984 
  122000    291.72417    1.2509986    2093.6845   -1206.7047   -211.49952    2072.0918   -2309.5547   -917.20036    44657.537 -0.067234084   -17.036218 -0.041707817    3537.8522    1560.0524    951.79906    871.08476    28.380318    18.846507    14.337643 0.0012485075 0.0012480548 0.0012269341 0.0012241783    291.72417     41.49527    35.978931    34.423473    90.016431    119.66323    90.107069    18.845792    14.337524    28.379006    18.847506    14.340064 
  123000    299.70304    1.2509986    2069.5196   -1211.1306   -211.49952    2073.3641   -2309.3549   -1302.7873    44657.537 -0.067234084   -17.036218 -0.041707817     3516.641    1580.7845    910.09909     875.9504    28.378288    18.846857    14.336776 0.0012889003 0.0012877617 0.0013071254 0.0013056008    299.70304     41.49527    35.978931    34.423473    90.016431    119.66323    90.107069    18.847185    14.337682    28.380317    18.848391     14.33889 
  124000    299.31174    1.2509986    1893.5636   -1207.9599   -211.49952    2071.5322   -2309.3119   -1620.5407    44657.537 -0.067234084   -17.036218 -0.041707817    3339.3032    1486.2067    851.98098    849.98187    28.380156    18.845227    14.337635 0.0012294696 0.0012285129 0.0011713017 0.0011669232    299.31174     41.49527    35.978931    34.423473    90.016431    119.66323    90.107069    18.845262    14.337439    28.378015     18.84763    14.339335 
  125000    297.24433    1.2509986    1926.2172    -1190.789   -211.49952    2072.0422   -2309.6988    1816.6409    44657.537 -0.067234084   -17.036218 -0.041707817    3354.6627    1460.4531    884.97875    859.60972    28.379139    18.845144    14.338004 0.0011863535 0.0011860835 0.0011667275   0.00116661    297.24433     41.49527    35.978931    34.423473    90.016431    119.66323    90.107069    18.846269    14.338169    28.379587     18.84868    14.339712 
  126000    295.94397    1.2509986    2068.7596   -1184.7252   -211.49952    2069.9363   -2309.5302     2075.322    44657.537 -0.067234084   -17.036218 -0.041707817    3493.0786    1502.7786    946.51347    894.96252    28.379924    18.844896    14.337661 0.0012142748 0.0012134881 0.0012040893  0.001182604    295.94397     41.49527    35.978931    34.423473    90.016431    119.66323    90.107069    18.846447    14.337589    28.383627    18.848993    14.337421 
  127000    299.88369    1.2509986    1984.1833   -1205.8932   -211.49952    2068.5975   -2309.6732    555.68663    44657.537 -0.067234084   -17.036218 -0.041707817    3431.1523    1531.6353    888.54867    857.14112     28.38053    18.845968     14.33817 0.0011977065 0.0011975006 0.0012592995 0.0012517801    299.88369     41.49527    35.978931    34.423473    90.016431    119.66323    90.107069    18.845775    14.337756    28.380213    18.846792    14.338169 
  128000    292.08381    1.2509986    1976.3303   -1211.3637   -211.49952    2075.6162   -2309.5521   -127.54379    44657.537 -0.067234084   -17.036218 -0.041707817    3421.6298    1538.0652     873.8304    861.15563    28.375645    18.845361    14.336604 0.0012693888 0.0012682565 0.0012298487 0.0012236937    292.08381     41.49527    35.978931    34.423473    90.016431    119.66323    90.107069    18.846634    14.337851     28.37841    18.850856     14.34084 
  129000    294.17189    1.2509986    2005.5521   -1174.3549   -211.49952    2070.7421   -2309.2322    194.66393    44657.537 -0.067234084   -17.036218 -0.041707817     3418.397     1488.438    926.34659    854.88253    28.379129    18.844816    14.336873 0.0012752253 0.0012749142 0.0013994347  0.001391902    294.17189     41.49527    35.978931    34.423473    90.016431    119.66323    90.107069    18.845682    14.337507    28.377658    18.847192    14.338855 
  130000    297.27194    1.2509986    1928.7411   -1209.9959   -211.49952    2069.7809    -2309.513   -197.30069    44657.537 -0.067234084   -17.036218 -0.041707817    3378.4691    1496.3234    891.44764    843.53409    28.378902    18.844725    14.337213 0.0012410426 0.0012388021 0.0012369692 0.0012319293    297.27194     41.49527    35.978931    34.423473    90.016431    119.66323    90.107069    18.846261    14.337113    28.378448     18.84732    14.338666 
  131000    297.36182    1.2509986     2030.922   -1188.7831   -211.49952    2074.2382   -2309.0657    827.51089    44657.537 -0.067234084   -17.036218 -0.041707817    3454.5326    1562.8021    848.99025    888.40043    28.380259    18.845631    14.337313 0.0012321312 0.0012315131 0.0012384374 0.0012342301    297.36182     41.49527    35.978931    34.423473    90.016431    119.66323    90.107069    18.845459      14.3375    28.379834    18.847095    14.338967 
  132000    295.46914    1.2509986    2018.8668   -1169.5297   -211.49952    2071.5943   -2309.5095     782.7017    44657.537 -0.067234084   -17.036218 -0.041707817    3426.3116    1555.7112    883.69357    840.71877    28.381534    18.847224    14.338301 0.0012210279  0.001219633 0.0011901824 0.0011863535    295.46914     41.49527    35.978931    34.423473    90.016431    119.66323    90.107069    18.846424    14.338007    28.381177    18.847922    14.339522 
  133000    302.40885    1.2509986    2020.2975   -1188.4436   -211.49952     2072.171   -2309.5887    1282.7453    44657.537 -0.067234084   -17.036218 -0.041707817    3446.1587    1577.2015    898.09969    829.19097      28.3795    18.847099    14.337483 0.0012579047 0.0012562903 0.0013690219 0.0013666782    302.40885     41.49527    35.978931    34.423473    90.016431    119.66323    90.107069    18.847344    14.338095    28.379381    18.850077    14.340724 
  134000    293.93116    1.2509986    1965.8135   -1199.5548   -211.49952    2069.6759   -2309.5108   -135.42623    44657.537 -0.067234084   -17.036218 -0.041707817    3405.2032    1465.4758    936.98785    855.18226    28.380305    18.846491    14.337646 0.0012599443  0.001259294 0.0011729247  0.001169697    293.93116     41.49527    35.978931    34.423473    90.016431    119.66323    90.107069    18.846458    14.337145    28.379022    18.847858    14.340906 
  135000    295.34344    1.2509986     2060.802   -1189.4502   -211.49952    2072.3352   -2309.2838     557.7206    44657.537 -0.067234084   -17.036218 -0.041707817    3487.2008    1537.2004    902.07276     891.5272    28.380339    18.845143    14.337324 0.0012434404 0.0012431388  0.001167739 0.0011658335    295.34344     41.49527    35.978931    34.423473    90.016431    119.66323    90.107069    18.845784    14.337742     28.37881    18.847872    14.339421 
  136000    294.52933    1.2509986    2009.1936   -1192.9497   -211.49952    2072.5742   -2309.3665     991.5685    44657.537 -0.067234084   -17.036218 -0.041707817    3438.9356    1528.2677    875.57937    883.42016    28.381867    18.846002    14.337749 0.0012117741  0.001211201  0.001254721 0.0012530793    294.52933     41.49527    35.978931    34.423473    90.016431    119.66323    90.107069    18.846332    14.337058    28.379991    18.848375    14.338615 
  137000     297.1906    1.2509986    1948.2372   -1189.7994   -211.49952     2071.966   -2309.2216    394.38122    44657.537 -0.067234084   -17.036218 -0.041707817    3375.2923     1514.575    871.42225    843.29421    28.381308    18.846071    14.337493 0.0012889851  0.001288528 0.0013345572 0.0013344694     297.1906     41.49527    35.978931    34.423473    90.016431    119.66323    90.107069    18.846627    14.337232    28.379338    18.849152    14.339493 
  138000    293.12735    1.2509986    2017.3499   -1196.1033   -211.49952    2069.4652   -2309.2736   -1102.9049    44657.537 -0.067234084   -17.036218 -0.041707817    3453.2616    1529.1615    918.85365    858.13165    28.380814    18.847926     14.33736 0.0012233246 0.0012215107 0.0011449419 0.0011421318    293.12735     41.49527    35.978931    34.423473    90.016431    119.66323    90.107069    18.847307    14.337093     28.37859    18.849964    14.338652 
  139000    298.16718    1.2509986    2030.3171   -1186.8998   -211.49952    2071.0642   -2309.4219   -622.34605    44657.537 -0.067234084   -17.036218 -0.041707817    3455.5746    1544.8386    899.48043    860.36642    28.380295    18.846575    14.337586 0.0012336119 0.0012321164 0.0012195813  0.001215366    298.16718     41.49527    35.978931    34.423473    90.016431    119.66323    90.107069    18.846887    14.338475    28.379628    18.850383    14.341165 
  140000    300.38193    1.2509986    2066.1585    -1191.656   -211.49952    2073.3415   -2309.1895    1302.0534    44657.537 -0.067234084   -17.036218 -0.041707817    3493.6626    1526.9067    934.49018    877.86508    28.381435    18.845587     14.33817 0.0012580762 0.0012561047  0.001240662 0.0012375656    300.38193     41.49527    35.978931    34.423473    90.016431    119.66323    90.107069    18.845524    14.337388    28.380305    18.847859    14.338541 
  141000    293.04995    1.2509986    1927.0429    -1219.152   -211.49952    2073.2275    -2309.421   -1031.3954    44657.537 -0.067234084   -17.036218 -0.041707817    3382.3883    1504.5995    881.62976    851.47915    28.377993    18.846528    14.336773 0.0012499795  0.001248366 0.0012619913 0.0012608098    293.04995     41.49527    35.978931    34.423473    90.016431    119.66323    90.107069    18.847333    14.337494     28.38047    18.848493    14.339913 
  142000     301.4479    1.2509986    1983.4353   -1214.5354   -211.49952    2068.8098   -2309.8658   -1741.7999    44657.537 -0.067234084   -17.036218 -0.041707817    3439.0266    1532.9116    873.93851    879.25978    28.379452    18.845522     14.33732 0.0011867501 0.0011867002 0.0011985308 0.0011974529     301.4479     41.49527    35.978931    34.423473    90.016431    119.66323    90.107069    18.846166    14.337524    28.379285    18.848143    14.340136 
  143000    292.69419    1.2509986    1974.8702   -1214.1233   -211.49952    2069.7676   -2309.4992   -958.36332    44657.537 -0.067234084   -17.036218 -0.041707817    3428.7251    1537.1371    897.24119    847.08824    28.379107    18.844976    14.337193 0.0012119138   0.00121125 0.0011891286 0.0011845217    292.69419     41.49527    35.978931    34.423473    90.016431    119.66323    90.107069    18.845948     14.33732    28.379282    18.847033    14.338856 
  144000    297.12421    1.2509986     1987.095   -1194.2617   -211.49952     2073.698   -2309.3857    1694.2354    44657.537 -0.067234084   -17.036218 -0.041707817    3417.0443    1509.8995    897.52818    864.19153    28.379378    18.845972    14.336972 0.0012090316 0.0012085358 0.0013427904 0.0013408865    297.12421     41.49527    35.978931    34.423473    90.016431    119.66323    90.107069    18.845765    14.337411    28.380652    18.848195    14.339448 
  145000    295.70936    1.2509986    1997.1384    -1192.425   -211.49952    2076.0878   -2309.5363    1064.2407    44657.537 -0.067234084   -17.036218 -0.041707817     3423.012    1525.0905    890.66188    859.37047    28.382758    18.846388    14.338367 0.0012414992 0.0012413704 0.0012627363 0.0012597492    295.70936     41.49527    35.978931    34.423473    90.016431    119.66323    90.107069    18.846026    14.337428    28.380031    18.847641    14.340576 
  146000    293.72426    1.2509986    2008.6858   -1189.6463   -211.49952    2068.9498   -2309.5719    307.96441    44657.537 -0.067234084   -17.036218 -0.041707817    3438.9543    1547.4327    902.36945    845.15756    28.382027    18.844251    14.338141 0.0012176907  0.001216069 0.0011627101 0.0011552113    293.72426     41.49527    35.978931    34.423473    90.016431    119.66323    90.107069    18.845287    14.337431    28.382039    18.848086    14.340328 
  147000    298.61818    1.2509986    1968.8799   -1180.7535   -211.49952    2074.4633   -2309.3471    1783.6103    44657.537 -0.067234084   -17.036218 -0.041707817    3384.5171    1446.4068    911.45011    868.29406    28.379516    18.846165    14.337567 0.0012448401 0.0012441382  0.001219346 0.0012137803    298.61818     41.49527    35.978931    34.423473    90.016431    119.66323    90.107069    18.846583    14.338235    28.381775    18.848905    14.338842 
  148000    295.84621    1.2509986    2078.6898   -1201.5539   -211.49952    2077.3392   -2309.3772    1024.6825    44657.537 -0.067234084   -17.036218 -0.041707817    3512.2817    1571.5968    894.56225    895.80865    28.381909    18.846017    14.338449 0.0012632306  0.001262574 0.0012940141 0.0012928274    295.84621     41.49527    35.978931    34.423473    90.016431    119.66323    90.107069    18.846032    14.337699    28.380604    18.848925    14.339351 
  149000    297.87122    1.2509986    1971.2307   -1208.2829   -211.49952    2068.4006   -2309.3892    211.17105    44657.537 -0.067234084   -17.036218 -0.041707817    3420.5022    1538.6689    878.21093    853.84606    28.379564    18.845677    14.337782 0.0012416503 0.0012413143 0.0012247864 0.0012215977    297.87122     41.49527    35.978931    34.423473    90.016431    119.66323    90.107069    18.845996     14.33824    28.379277    18.848958    14.337875 
  150000    299.82691    1.2509986    1957.4007   -1201.2745   -211.49952    2070.4218   -2309.4655   -633.17871    44657.537 -0.067234084   -17.036218 -0.041707817    3397.7189    1486.3664     887.0895    875.44265    28.380124    18.845125    14.337613  0.001206916 0.0012054975 0.0013800405 0.0013721876    299.82691     41.49527    35.978931    34.423473    90.016431    119.66323    90.107069    18.845628    14.337604    28.381384    18.847309    14.338369 
  151000    301.66246    1.2509986    2034.8347   -1193.5225   -211.49952    2072.4993    -2309.158    300.61529    44657.537 -0.067234084   -17.036218 -0.041707817    3465.0159    1559.1484    888.55438     872.9899    28.380789    18.847314    14.337107 0.0012741983 0.0012731466 0.0013088316 0.0013076795    301.66246     41.49527    35.978931    34.423473    90.016431    119.66323    90.107069    18.846744    14.337521    28.380335    18.849646    14.339257 
  152000    301.26962    1.2509986    1991.3416   -1212.5566   -211.49952    2076.8074   -2309.1237   -1729.9821    44657.537 -0.067234084   -17.036218 -0.041707817    3436.2145    1530.3428    894.45746    852.82519    28.377319    18.845977     14.33673 0.0012046125 0.0012044127  0.001119874 0.0011068552    301.26962     41.49527    35.978931    34.423473    90.016431    119.66323    90.107069    18.845896    14.337431    28.381609    18.846062    14.339324 
  153000    297.56206    1.2509986    2032.8829   -1198.6582   -211.49952    2074.6993   -2309.1095   -615.03459    44657.537 -0.067234084   -17.036218 -0.041707817    3465.9513    1545.5338    891.96307    879.69617     28.37948    18.844908    14.337409  0.001228934  0.001228138  0.001166922 0.0011655893    297.56206     41.49527    35.978931    34.423473    90.016431    119.66323    90.107069    18.846167    14.337535    28.378914    18.848148    14.339225 
  154000    296.93442    1.2509986    1974.6682   -1200.1147   -211.49952    2073.6445    -2309.314    523.42419    44657.537 -0.067234084   -17.036218 -0.041707817    3410.4523    1522.5588    874.44754    862.97671    28.377701    18.845354    14.337268 0.0012299006 0.0012287793  0.001232132 0.0012265096    296.93442     41.49527    35.978931    34.423473    90.016431    119.66323    90.107069    18.845282    14.337748    28.378302    18.847094    14.339033 
  155000    294.99646    1.2509986    2009.0368   -1184.3118   -211.49952    2071.6072   -2309.2008    363.97813    44657.537 -0.067234084   -17.036218 -0.041707817    3430.9422    1503.7265    891.44261    882.50661     28.38211    18.844291    14.338111 0.0012409219 0.0012406615 0.0011845778 0.0011808354    294.99646     41.49527    35.978931    34.423473    90.016431    119.66323    90.107069    18.846305    14.337266    28.379298    18.847096    14.339659 
  156000    298.38476    1.2509986    2001.1707   -1195.9286   -211.49952    2069.0554   -2309.7624   -559.42111    44657.537 -0.067234084   -17.036218 -0.041707817    3437.8062    1551.4269    867.17044    872.15968     28.37811      18.8453    14.337292 0.0012405663 0.0012398319 0.0012740101 0.0012720205    298.38476     41.49527    35.978931    34.423473    90.016431    119.66323    90.107069      18.8454    14.337759    28.379327    18.849259    14.341008 
  157000    294.22845    1.2509986    2009.0606   -1195.6412   -211.49952    2074.4795   -2309.1661    1061.8577    44657.537 -0.067234084   -17.036218 -0.041707817    3439.3885    1518.7468    879.57664    886.13477    28.379735    18.846587     14.33701 0.0012912506 0.0012901902 0.0012747068 0.0012717479    294.22845     41.49527    35.978931    34.423473    90.016431    119.66323    90.107069    18.846872    14.337808     28.37868    18.850202    14.340519 
  158000    305.12264    1.2509986    1978.4421   -1179.9417   -211.49952    2073.3016   -2309.3225    2157.9602    44657.537 -0.067234084   -17.036218 -0.041707817    3394.4047    1517.3853    872.44244    860.34144    28.380998    18.846034    14.337981 0.0012665206 0.0012654739 0.0011348734 0.0011341128    305.12264     41.49527    35.978931    34.423473    90.016431    119.66323    90.107069    18.845653    14.337941    28.379238    18.849095    14.340446 
  159000    297.54571    1.2509986    1941.3494   -1203.2979   -211.49952    2071.7802   -2309.5235    450.64725    44657.537 -0.067234084   -17.036218 -0.041707817    3382.3905    1504.3083    865.14451    858.70474    28.379252    18.845124    14.337303 0.0012301748 0.0012297537 0.0013736254 0.0013705186    297.54571     41.49527    35.978931    34.423473    90.016431    119.66323    90.107069    18.846729    14.337403    28.378036    18.848591    14.340424 
  160000    304.89761    1.2509986    2070.8473   -1198.7816   -211.49952    2073.1373   -2309.4458    50.950041    44657.537 -0.067234084   -17.036218 -0.041707817    3505.9375    1557.3908    909.80044    886.96769    28.379304     18.84475    14.336996 0.0012606683 0.0012585054 0.0011078136 0.0011056392    304.89761     41.49527    35.978931    34.423473    90.016431    119.66323    90.107069    18.845012    14.336975    28.378658     18.84808    14.338933 
  161000    296.50371    1.2509986     2006.259   -1198.5274   -211.49952    2069.7586    -2309.471   -389.06193    44657.537 -0.067234084   -17.036218 -0.041707817    3444.4989    1538.3468    872.29823    880.84753    28.378785    18.844976    14.337458 0.0012566875 0.0012555628 0.0012709219 0.0012610974    296.50371     41.49527    35.978931    34.423473    90.016431    119.66323    90.107069    18.846998    14.337776    28.381956    18.847163    14.340441 
  162000    298.65332    1.2509986    2019.7314   -1197.2868   -211.49952    2072.6003   -2308.9901    342.96344    44657.537 -0.067234084   -17.036218 -0.041707817     3453.408    1462.5507    938.61442    894.29259    28.378111    18.844619    14.336676  0.001239814  0.001239012 0.0012661134 0.0012647906    298.65332     41.49527    35.978931    34.423473    90.016431    119.66323    90.107069    18.846182    14.337484    28.379291    18.847894    14.339616 
  163000    295.32273    1.2509986    2022.6175   -1187.7964   -211.49952    2072.2591   -2309.2079   -47.984852    44657.537 -0.067234084   -17.036218 -0.041707817    3447.3627    1507.6225    926.26529    864.96451    28.378248    18.845016    14.336387 0.0012050198 0.0012038204 0.0011119189 0.0011114792    295.32273     41.49527    35.978931    34.423473    90.016431    119.66323    90.107069    18.845673    14.337029    28.379943    18.848729     14.33918 
  164000    301.64906    1.2509986     2045.841   -1199.7107   -211.49952    2071.8842   -2308.9573   -349.80009    44657.537 -0.067234084   -17.036218 -0.041707817    3482.6249    1574.5439     896.9073    858.02198    28.381643    18.845393    14.337834 0.0012499143 0.0012492919 0.0011446588 0.0011424944    301.64906     41.49527    35.978931    34.423473    90.016431    119.66323    90.107069    18.846396    14.337253    28.379327    18.848942    14.338187 
  165000    288.87639    1.2509986    1981.3948   -1179.0155   -211.49952    2071.3855   -2309.5614    285.96815    44657.537 -0.067234084   -17.036218 -0.041707817    3398.5862    1465.0456    937.90718    849.56747    28.379839     18.84597     14.33743 0.0011852805 0.0011845077 0.0011744124 0.0011699592    288.87639     41.49527    35.978931    34.423473    90.016431    119.66323    90.107069    18.845379    14.337776    28.380242    18.847043    14.339316 
[...]
  961000    299.17178    1.2509986    1997.5277   -1210.2331   -211.49952    2072.5465   -2309.6103    290.15638    44657.537 -0.067234084   -17.036218 -0.041707817    3444.8246    1528.5975    913.17251    855.30922    28.379774    18.846283    14.337781 0.0012700369 0.0012697654 0.0011931339 0.0011849785    299.17178     41.49527    35.978931    34.423473    90.016431    119.66323    90.107069    18.846668    14.337799    28.381519    18.846999    14.339141 
  962000    301.44012    1.2509986    2017.6038   -1204.3024   -211.49952    2073.5313   -2309.1596   -463.67535    44657.537 -0.067234084   -17.036218 -0.041707817    3457.5345    1524.2221     891.1292    884.20142    28.377788    18.846242    14.337125  0.001225477 0.0012254104 0.0012189552 0.0012138722    301.44012     41.49527    35.978931    34.423473    90.016431    119.66323    90.107069     18.84621    14.337876    28.379096    18.848023    14.341611 
  963000    298.07796    1.2509986    1949.1347   -1193.4935   -211.49952    2069.1445   -2310.0168     1200.258    44657.537 -0.067234084   -17.036218 -0.041707817    3383.5006    1580.9265     843.2158    814.77189    28.380235    18.846118    14.338224 0.0012401314 0.0012392161 0.0011588495 0.0011544553    298.07796     41.49527    35.978931    34.423473    90.016431    119.66323    90.107069    18.846635    14.338422    28.381403    18.848867    14.340619 
  964000    298.46623    1.2509986    2013.9678   -1197.1937   -211.49952    2070.2575   -2309.3165   -349.55447    44657.537 -0.067234084   -17.036218 -0.041707817    3450.2204    1554.9443    907.98351    841.86696    28.381053    18.847792    14.337369 0.0012216488  0.001219203 0.0011606241 0.0011598626    298.46623     41.49527    35.978931    34.423473    90.016431    119.66323    90.107069    18.846923    14.337299    28.380354    18.849363    14.339578 
  965000    302.23592    1.2509986    1897.9678   -1198.6712   -211.49952    2074.3718   -2309.3665    54.883287    44657.537 -0.067234084   -17.036218 -0.041707817    3331.6338    1479.5301    907.85099    806.26361    28.380421    18.846042    14.338857 0.0011922241 0.0011916624 0.0011678291 0.0011652296    302.23592     41.49527    35.978931    34.423473    90.016431    119.66323    90.107069    18.845834    14.338384    28.379909    18.847611    14.340352 
  966000    299.82921    1.2509986    1954.6345    -1196.839   -211.49952    2075.2995   -2309.2638    569.33001    44657.537 -0.067234084   -17.036218 -0.041707817    3385.4379    1459.2752    937.08951    847.88546    28.380743    18.845975     14.33784 0.0011866891 0.0011850151 0.0012176899 0.0012111449    299.82921     41.49527    35.978931    34.423473    90.016431    119.66323    90.107069    18.845727    14.336732    28.378396    18.848252    14.337489 
  967000    296.91208    1.2509986    2077.8702   -1196.1902   -211.49952    2071.3128   -2309.6687    308.28143    44657.537 -0.067234084   -17.036218 -0.041707817    3512.4163    1533.7171    933.21829    895.99399    28.380607    18.846343    14.337768 0.0012049534 0.0012045219 0.0011236551 0.0011210531    296.91208     41.49527    35.978931    34.423473    90.016431    119.66323    90.107069    18.845989    14.337716    28.378913    18.847557    14.339376 
  968000    291.14649    1.2509986    1958.5744   -1202.1312   -211.49952    2073.1964   -2309.3366    58.825544    44657.537 -0.067234084   -17.036218 -0.041707817    3396.8458    1508.3904    851.47667    884.01819    28.380318    18.844095    14.338199 0.0012389853 0.0012386808 0.0012706156 0.0012654068    291.14649     41.49527    35.978931    34.423473    90.016431    119.66323    90.107069    18.845887     14.33808    28.378429    18.847864    14.341256 
  969000    298.19447    1.2509986    1914.1297   -1209.2896   -211.49952    2067.4818   -2309.6909   -176.28557    44657.537 -0.067234084   -17.036218 -0.041707817    3365.6284    1482.2995    893.82041    838.82784    28.379608    18.845366    14.337592 0.0011999564 0.0011997265 0.0011591847 0.0011574332    298.19447     41.49527    35.978931    34.423473    90.016431    119.66323    90.107069    18.846272    14.338156    28.379377     18.84953    14.340843 
  970000    297.12585    1.2509986    1995.6409   -1205.2927   -211.49952    2074.8146   -2309.2238   -964.30917    44657.537 -0.067234084   -17.036218 -0.041707817    3435.3428     1495.745    896.32066    888.27313    28.381626    18.845859    14.337888 0.0012082293 0.0012077732 0.0012421006 0.0012365143    297.12585     41.49527    35.978931    34.423473    90.016431    119.66323    90.107069     18.84553     14.33779    28.378441    18.846931    14.339723 
  971000    293.69451    1.2509986    2041.8431    -1203.085   -211.49952    2071.7352   -2308.8574   -664.89708    44657.537 -0.067234084   -17.036218 -0.041707817    3482.0503    1555.3485     879.2915     890.0417    28.377932    18.845739    14.337146 0.0012186769  0.001216629 0.0012873562 0.0012834622    293.69451     41.49527    35.978931    34.423473    90.016431    119.66323    90.107069     18.84757    14.337712    28.378207    18.848188    14.340818 
  972000    297.37932    1.2509986    2034.8283   -1186.6146   -211.49952    2071.7571   -2309.3683    638.71691    44657.537 -0.067234084   -17.036218 -0.041707817    3459.0542    1481.2641    917.69527    899.73302    28.379071    18.846372    14.337568 0.0012184542 0.0012173238 0.0012370634  0.001224847    297.37932     41.49527    35.978931    34.423473    90.016431    119.66323    90.107069    18.845485    14.338402    28.378507    18.847403    14.342558 
  973000    295.07091    1.2509986    2032.6425   -1190.1111   -211.49952    2073.4951    -2309.477      848.307    44657.537 -0.067234084   -17.036218 -0.041707817    3458.7355    1513.9528    903.64167    884.47373    28.380546      18.8456    14.337889  0.001174106  0.001173935 0.0012243843 0.0012213789    295.07091     41.49527    35.978931    34.423473    90.016431    119.66323    90.107069    18.845872    14.337908    28.378197    18.850038     14.33931 
  974000    292.33074    1.2509986    1994.9087   -1204.5325   -211.49952    2074.6818   -2309.4477   -408.60219    44657.537 -0.067234084   -17.036218 -0.041707817     3434.207    1492.7877    899.16045    890.51835    28.379431    18.847324    14.337474 0.0012377085 0.0012372828 0.0012399304 0.0012338076    292.33074     41.49527    35.978931    34.423473    90.016431    119.66323    90.107069    18.845709    14.337699    28.378503    18.847101    14.338474 
  975000    299.58027    1.2509986    1945.8413   -1199.4806   -211.49952    2075.3734    -2309.139   -191.86721    44657.537 -0.067234084   -17.036218 -0.041707817    3379.0875    1489.2002    872.94537    867.61584    28.378085    18.846014    14.337093 0.0012492485 0.0012467885 0.0012498927 0.0012467171    299.58027     41.49527    35.978931    34.423473    90.016431    119.66323    90.107069     18.84585    14.337351    28.378805    18.849069    14.338023 
  976000    298.23933    1.2509986    1980.7652   -1206.7864   -211.49952    2070.8457   -2309.4017   -954.31827    44657.537 -0.067234084   -17.036218 -0.041707817    3426.1077    1506.9378     919.3871    851.40106    28.381329    18.844542    14.337887 0.0012479868 0.0012473006   0.00120258 0.0011967745    298.23933     41.49527    35.978931    34.423473    90.016431    119.66323    90.107069    18.845478    14.338085    28.380608    18.848624    14.341771 
  977000    296.20128    1.2509986     1976.353   -1201.7197   -211.49952    2071.7079   -2309.2894    51.523487    44657.537 -0.067234084   -17.036218 -0.041707817    3415.6543    1493.9318    884.28084    883.46629    28.379085    18.846656    14.337569 0.0012332651  0.001232359 0.0011666771 0.0011641503    296.20128     41.49527    35.978931    34.423473    90.016431    119.66323    90.107069     18.84566      14.3383    28.378921    18.848413    14.340966 
  978000    295.38185    1.2509986    2035.3606   -1208.8293   -211.49952    2072.8653   -2309.5019   -352.25073    44657.537 -0.067234084   -17.036218 -0.041707817    3480.8265    1534.7923    924.93061    869.31972    28.380689    18.845081    14.338299 0.0012303652 0.0012289885 0.0012284405 0.0012237314    295.38185     41.49527    35.978931    34.423473    90.016431    119.66323    90.107069     18.84703    14.338537    28.380258    18.848141    14.341498 
  979000    297.66878    1.2509986    2038.6706    -1181.438   -211.49952    2072.3759   -2309.4254    2259.8732    44657.537 -0.067234084   -17.036218 -0.041707817     3457.158    1494.6942     936.0731    875.77345    28.380958    18.845785    14.337458 0.0012039011 0.0012036049 0.0012553235  0.001253671    297.66878     41.49527    35.978931    34.423473    90.016431    119.66323    90.107069    18.846131    14.337307     28.37873    18.848935    14.338657 
  980000    295.55611    1.2509986     1968.769    -1202.358   -211.49952    2069.3313   -2309.6019    137.84723    44657.537 -0.067234084   -17.036218 -0.041707817    3411.3976    1498.5236    888.20065    872.80984    28.378866    18.845084    14.337057 0.0011939732 0.0011932591 0.0011878219 0.0011664757    295.55611     41.49527    35.978931    34.423473    90.016431    119.66323    90.107069    18.846216    14.337842    28.376691    18.849358    14.343246 
  981000    296.90521    1.2509986    2024.4428   -1186.1138   -211.49952    2070.7794   -2309.5081    244.06167    44657.537 -0.067234084   -17.036218 -0.041707817    3449.2852    1504.9276     910.5705    883.43744    28.379752    18.845126    14.337577 0.0012489113 0.0012480821 0.0012001143 0.0011993138    296.90521     41.49527    35.978931    34.423473    90.016431    119.66323    90.107069    18.845303    14.337937    28.379914    18.848202    14.339517 
  982000    300.03691    1.2509986    1983.3052   -1203.0993   -211.49952    2072.7642    -2309.519   -131.65712    44657.537 -0.067234084   -17.036218 -0.041707817    3423.1593    1505.5944     880.9645    884.97594    28.380557    18.845454    14.338238 0.0012975718 0.0012974491 0.0012970482 0.0012961112    300.03691     41.49527    35.978931    34.423473    90.016431    119.66323    90.107069      18.8463    14.337458    28.379735    18.849936    14.339408 
  983000    293.91257    1.2509986    1987.4801   -1191.0803   -211.49952    2069.8062   -2309.7035    607.72339    44657.537 -0.067234084   -17.036218 -0.041707817    3418.4577     1500.291    903.47058    864.25966    28.378522    18.845029    14.337121 0.0012284941 0.0012273517 0.0012350906 0.0012323329    293.91257     41.49527    35.978931    34.423473    90.016431    119.66323    90.107069    18.845789    14.338227    28.379434    18.847485       14.339 
  984000    289.91999    1.2509986    2066.2244   -1203.6415   -211.49952    2072.5478   -2309.5458   -84.524793    44657.537 -0.067234084   -17.036218 -0.041707817    3506.8638    1521.1647    939.94619    892.86381    28.379109    18.845636    14.337048 0.0012791651 0.0012777725 0.0012855975 0.0012851631    289.91999     41.49527    35.978931    34.423473    90.016431    119.66323    90.107069    18.846393    14.337527    28.379526    18.848926    14.338985 
  985000    301.90899    1.2509986    2022.9393   -1193.3663   -211.49952    2069.6799   -2309.5677   -337.36972    44657.537 -0.067234084   -17.036218 -0.041707817    3456.1933    1511.9262    929.00765    863.61377    28.381016    18.846417    14.337266 0.0012345413 0.0012338725 0.0012789749 0.0012687826    301.90899     41.49527    35.978931    34.423473    90.016431    119.66323    90.107069     18.84651    14.337575    28.382271    18.847334    14.339701 
  986000    298.13993    1.2509986    1985.2763   -1203.7157   -211.49952    2071.2905     -2309.28   -464.96909    44657.537 -0.067234084   -17.036218 -0.041707817    3426.9816    1483.6262    908.77546    884.00416    28.379945    18.845917    14.337865 0.0012606477 0.0012605676  0.001269798 0.0012668572    298.13993     41.49527    35.978931    34.423473    90.016431    119.66323    90.107069    18.845913    14.337719     28.38025    18.847687      14.3388 
  987000    296.03406    1.2509986    1976.6171   -1196.5625   -211.49952    2075.8235   -2309.5355    1429.3833    44657.537 -0.067234084   -17.036218 -0.041707817    3406.8916    1510.6044    871.18391    870.48176    28.379613    18.846193    14.337122 0.0012568444 0.0012544415 0.0012860606 0.0012808584    296.03406     41.49527    35.978931    34.423473    90.016431    119.66323    90.107069    18.847264    14.337082    28.379732    18.850597    14.338007 
  988000    296.10011    1.2509986    1999.0068   -1222.6482   -211.49952    2073.4996   -2309.5902   -1698.3942    44657.537 -0.067234084   -17.036218 -0.041707817    3457.7455    1528.7477    881.06689    889.76021    28.379153    18.845872    14.337875 0.0011589433 0.0011584111 0.0011043002 0.0010973754    296.10011     41.49527    35.978931    34.423473    90.016431    119.66323    90.107069    18.845783    14.337934    28.377906    18.846964    14.339601 
  989000    301.29204    1.2509986     1949.996   -1183.3473   -211.49952    2067.4914    -2309.581    570.02734    44657.537 -0.067234084   -17.036218 -0.041707817    3375.4328    1468.1176     892.0363    864.24562    28.380928    18.845245    14.338133 0.0012799039  0.001279834 0.0012657126 0.0012632377    301.29204     41.49527    35.978931    34.423473    90.016431    119.66323    90.107069    18.846081    14.337905    28.378157    18.849146    14.340345 
  990000    292.74063    1.2509986    1949.8187   -1185.7011   -211.49952    2073.3983   -2309.1257    2450.4658    44657.537 -0.067234084   -17.036218 -0.041707817    3371.2472    1453.2221    882.81354    882.50284    28.378882    18.846164    14.336979 0.0012115657 0.0012105011 0.0012888898 0.0012862546    292.74063     41.49527    35.978931    34.423473    90.016431    119.66323    90.107069    18.846938    14.337062    28.379384    18.849063    14.338025 
  991000    300.61249    1.2509986    1989.7646   -1193.6118   -211.49952    2070.2571   -2309.3131    127.77283    44657.537 -0.067234084   -17.036218 -0.041707817    3422.4325    1532.3664    898.89207    843.63327    28.378765     18.84553    14.337054  0.001288093 0.0012869335 0.0012932305 0.0012900791    300.61249     41.49527    35.978931    34.423473    90.016431    119.66323    90.107069    18.846389    14.337047     28.37908    18.849297    14.337952 
  992000    299.24099    1.2509986    1906.6376   -1213.3156   -211.49952     2070.881   -2309.3888   -869.50153    44657.537 -0.067234084   -17.036218 -0.041707817     3358.461    1480.1635    883.86707    849.78273    28.379962    18.845738    14.337885  0.001260234 0.0012598447  0.001248232  0.001242096    299.24099     41.49527    35.978931    34.423473    90.016431    119.66323    90.107069    18.846767    14.337799    28.380788    18.847217    14.340819 
  993000    295.91625    1.2509986    1979.1874   -1199.7512   -211.49952    2067.6055   -2309.6824   -323.84116    44657.537 -0.067234084   -17.036218 -0.041707817    3421.0156    1527.4691     871.5461    873.62884    28.381006    18.845277    14.337358 0.0012287853 0.0012274125 0.0012142366 0.0011995394    295.91625     41.49527    35.978931    34.423473    90.016431    119.66323    90.107069     18.84525    14.337528    28.382664    18.846806    14.339226 
  994000     304.5159    1.2509986    2011.8451   -1201.0386   -211.49952    2069.5724    -2309.704    1624.8693    44657.537 -0.067234084   -17.036218 -0.041707817    3453.0153    1519.3472    898.44391    882.66781    28.379113    18.845066    14.337498 0.0012546004 0.0012540939 0.0012457278 0.0012410778     304.5159     41.49527    35.978931    34.423473    90.016431    119.66323    90.107069    18.846488    14.337252    28.380381    18.847584     14.33825 
  995000    298.01357    1.2509986    2008.8848    -1197.356   -211.49952    2074.8587   -2309.2757    113.02845    44657.537 -0.067234084   -17.036218 -0.041707817    3440.6578    1535.7554    885.10152    868.30687    28.379756    18.845785    14.338221 0.0012498728 0.0012480094 0.0011358665 0.0011334911    298.01357     41.49527    35.978931    34.423473    90.016431    119.66323    90.107069    18.847288    14.338287    28.379707    18.850039    14.340778 
  996000     294.8676    1.2509986    2010.3121   -1178.0018   -211.49952    2071.8831   -2309.5061    2024.6673    44657.537 -0.067234084   -17.036218 -0.041707817    3425.9368    1508.5226    934.19051    841.70906    28.378922    18.845847    14.337798 0.0012087552 0.0012083312 0.0011665811 0.0011662033     294.8676     41.49527    35.978931    34.423473    90.016431    119.66323    90.107069    18.846547    14.338236    28.378996    18.848775    14.339555 
  997000    297.00492    1.2509986    1964.1926   -1213.1175   -211.49952    2072.6973    -2309.283   -859.59581    44657.537 -0.067234084   -17.036218 -0.041707817    3413.8957    1532.5602    873.81921    859.28075    28.379482    18.847794    14.337469 0.0011943188 0.0011910166 0.0011857907 0.0011786148    297.00492     41.49527    35.978931    34.423473    90.016431    119.66323    90.107069    18.847888     14.33786    28.377614    18.850757     14.34024 
  998000    300.29996    1.2509986    2043.7274    -1213.527   -211.49952    2072.2363    -2309.457   -693.22996    44657.537 -0.067234084   -17.036218 -0.041707817    3494.4751    1573.3807    919.80428    855.87808     28.38048    18.844769    14.337655 0.0012358028 0.0012344107 0.0012379276 0.0012331017    300.29996     41.49527    35.978931    34.423473    90.016431    119.66323    90.107069    18.845369    14.337521    28.378006    18.847846    14.340668 
  999000    294.60993    1.2509986     2029.142    -1185.558   -211.49952    2072.6517    -2309.403    835.51532    44657.537 -0.067234084   -17.036218 -0.041707817    3451.4513    1497.5321    918.28458    882.01132    28.380396    18.846688    14.337662 0.0012169155 0.0012161074 0.0012915505 0.0012905354    294.60993     41.49527    35.978931    34.423473    90.016431    119.66323    90.107069    18.846615    14.338105     28.37948    18.848512    14.338767 
 1000000    297.83919    1.2509986    1973.2353   -1202.4224   -211.49952    2069.6115   -2309.1085    -593.7143    44657.537 -0.067234084   -17.036218 -0.041707817    3415.1547    1494.4404    917.19861    853.38137    28.379053    18.844765    14.337291 0.0012291309  0.001228179 0.0011826651 0.0011754742    297.83919     41.49527    35.978931    34.423473    90.016431    119.66323    90.107069    18.845295     14.33788    28.381224    18.846932    14.339351 
Loop time of 3522.43 on 60 procs for 1000000 steps with 4560 atoms

Pair  time (%) = 543.187 (15.4208)
Bond  time (%) = 59.4159 (1.68679)
Kspce time (%) = 1810.4 (51.3964)
Neigh time (%) = 3.14568 (0.0893042)
Comm  time (%) = 743.211 (21.0994)
Outpt time (%) = 3.41171 (0.0968568)
Other time (%) = 359.654 (10.2104)

Nlocal:    76 ave 84 max 68 min
Histogram: 1 3 7 12 6 11 10 2 6 2
Nghost:    3996.72 ave 4076 max 3891 min
Histogram: 4 6 7 3 0 3 9 14 11 3
Neighs:    28106 ave 31309 max 24995 min
Histogram: 1 4 9 7 10 11 6 6 4 2

Total # of neighbors = 1686361
Ave neighs/atom = 369.816
Ave special neighs/atom = 10.6316
Neighbor list builds = 1208
Dangerous builds = 0
System init for write_data ...
PPPM initialization ...
  G vector (1/distance) = 0.246499
  grid = 16 16 20
  stencil order = 5
  estimated absolute RMS force accuracy = 0.00242397
  estimated relative force accuracy = 7.2997e-06
  using double precision FFTs
  3d grid and FFT values/proc = 1053 112
