LAMMPS data file via write_data, version 15 May 2015, timestep = 18500000

2593 atoms
6 atom types
1728 bonds
4 bond types
864 angles
3 angle types
0 dihedrals
3 dihedral types
0 impropers
1 improper types

-1.4947787376314825e+01 1.4947787376314825e+01 xlo xhi
-1.4947787376314825e+01 1.4947787376314825e+01 ylo yhi
-1.4947787376314825e+01 1.4947787376314825e+01 zlo zhi

Masses

1 15.9994
2 1.00794
3 12.0107
4 1.00794
5 12.0107
6 12.0107

Bond Coeffs # harmonic

1 1000 1
2 469 1.4
3 367 1.08
4 469 0.7

Angle Coeffs # harmonic

1 100 109.47
2 35 120
3 63 120

Dihedral Coeffs # opls

1 0 7.25 0 0
2 0 7.25 0 0
3 0 7.25 0 0

Improper Coeffs # cvff

1 2.5 -1 2

Atoms # full

799 267 1 -8.1999999999999995e-01 -7.8515542043247342e+00 -1.0150928261837034e+01 -1.1682115228913165e+01 -4 1 0
800 267 2 4.0999999999999998e-01 -8.8115361177307570e+00 -1.0040168749990748e+01 -1.1424912706730110e+01 -4 1 0
801 267 2 4.0999999999999998e-01 -7.4369790755914504e+00 -1.0868019715701504e+01 -1.1121853344885665e+01 -4 1 0
2047 683 1 -8.1999999999999995e-01 -1.0260414877629580e+01 -1.2219667939606873e+01 -9.3433879592635520e+00 -5 5 -2
2049 683 2 4.0999999999999998e-01 -9.6497131352986045e+00 -1.2946902074782626e+01 -9.0300830673168306e+00 -5 5 -2
2048 683 2 4.0999999999999998e-01 -1.1181877626911637e+01 -1.2588134557419558e+01 -9.4663709522221424e+00 -5 5 -2
2350 784 1 -8.1999999999999995e-01 -1.2214829171548239e+01 -1.4022979586687253e+01 -9.9595392521815338e+00 -2 3 -3
2351 784 2 4.0999999999999998e-01 -1.2164332377587410e+01 -1.4469501488320756e+01 -9.0662003840922019e+00 -2 3 -3
614 205 2 4.0999999999999998e-01 -1.1655135606977414e+01 -1.1670318548513528e+01 -1.4755548201266103e+01 -2 1 3
1882 628 1 -8.1999999999999995e-01 -1.0444679560880054e+01 -9.8746193009931691e+00 -1.0863575535512970e+01 -1 -2 0
1883 628 2 4.0999999999999998e-01 -1.0982618518953435e+01 -9.7472623533098979e+00 -1.1696874963484184e+01 -1 -2 0
2352 784 2 4.0999999999999998e-01 -1.3135625512913292e+01 -1.3658519847109927e+01 -1.0098425029813797e+01 -2 3 -3
1884 628 2 4.0999999999999998e-01 -1.0955158396326134e+01 -1.0446527292223786e+01 -1.0221455084342086e+01 -1 -2 0
2106 702 2 4.0999999999999998e-01 -7.1925468371689512e+00 -1.1573662359274394e+01 -9.1294856152100774e+00 0 -1 0
2104 702 1 -8.1999999999999995e-01 -6.4528246174598536e+00 -1.1694020195506777e+01 -9.7915362898459719e+00 0 -1 0
2105 702 2 4.0999999999999998e-01 -5.5733108846242843e+00 -1.1546608129095292e+01 -9.3390858942483419e+00 0 -1 0
527 176 2 4.0999999999999998e-01 -5.5207015257926138e+00 -8.6854579964253507e+00 -1.3402273675360185e+01 -2 -1 -4
1994 665 2 4.0999999999999998e-01 -6.0323067086776430e+00 -1.2816363978443473e+01 -1.1241927220251139e+01 -3 3 0
526 176 1 -8.1999999999999995e-01 -5.8337615655224067e+00 -8.3918712469251417e+00 -1.2499064764537703e+01 -2 -1 -4
2076 692 2 4.0999999999999998e-01 -9.6700374515641272e+00 -1.2345488321957937e+01 -1.1449476400265453e+01 0 3 3
2074 692 1 -8.1999999999999995e-01 -9.8166374717524469e+00 -1.2988789796021521e+01 -1.2200913508061848e+01 0 3 3
2378 793 2 4.0999999999999998e-01 -1.3121016757498035e+01 -1.1950523715017249e+01 -1.1689358079195415e+01 -6 -3 3
2148 716 2 4.0999999999999998e-01 -1.3526060682497242e+01 -7.8993454882951522e+00 -1.2921697313429254e+01 3 5 -1
2146 716 1 -8.1999999999999995e-01 -1.2870626329958681e+01 -7.8789417823207160e+00 -1.2166729811715282e+01 3 5 -1
2379 793 2 4.0999999999999998e-01 -1.3398683823362347e+01 -1.1066448796317660e+01 -1.3033940462021413e+01 -6 -3 3
1993 665 1 -8.1999999999999995e-01 -6.0385206290052800e+00 -1.3508195018723566e+01 -1.1963950252669900e+01 -3 3 0
948 316 2 4.0999999999999998e-01 -8.5473639090765641e+00 -1.3124414556616937e+01 -1.4258993355562520e+01 -4 -2 -2
1837 613 1 -8.1999999999999995e-01 -8.4329129392170685e+00 -1.4472891664187738e+01 -8.3417910242301438e+00 -5 -1 -1
2075 692 2 4.0999999999999998e-01 -9.7540666003626555e+00 -1.3925025062293516e+01 -1.1855175881188146e+01 0 3 3
1995 665 2 4.0999999999999998e-01 -6.7736078012751566e+00 -1.3307525357292302e+01 -1.2611533910019130e+01 -3 3 0
2147 716 2 4.0999999999999998e-01 -1.3173315362428868e+01 -8.5021291269928554e+00 -1.1445617264754521e+01 3 5 -1
2377 793 1 -8.1999999999999995e-01 -1.2843807435813442e+01 -1.1139984747409741e+01 -1.2205272428692840e+01 -6 -3 3
946 316 1 -8.1999999999999995e-01 -7.7786783669504649e+00 -1.2861623876556431e+01 -1.4842131232568711e+01 -4 -2 -2
625 209 1 -8.1999999999999995e-01 -1.4686670156620700e+01 -8.0035472312402547e+00 -8.0761090127862687e+00 0 1 -2
1909 637 1 -8.1999999999999995e-01 -1.4269522581598526e+01 -9.5719954059298580e+00 -1.0320444719552675e+01 -6 5 -1
146 49 2 4.0999999999999998e-01 -8.2298959038094814e+00 -9.8737188792723636e+00 -1.3697886732108575e+01 -4 2 2
613 205 1 -8.1999999999999995e-01 -1.0763430704117329e+01 -1.2118474717649324e+01 -1.4692267392373459e+01 -2 1 3
528 176 2 4.0999999999999998e-01 -6.5909105707689868e+00 -8.9742449815057483e+00 -1.2203172279257988e+01 -2 -1 -4
615 205 2 4.0999999999999998e-01 -1.0596180812502652e+01 -1.2395837388337855e+01 -1.3746178881579482e+01 -2 1 3
2489 830 2 4.0999999999999998e-01 -1.0999084007253808e+01 -7.6748422903814850e+00 -1.4333743339436900e+01 -1 3 4
2347 783 1 -8.1999999999999995e-01 -1.4159180192539713e+01 -1.1736263162213735e+01 -1.4527733460960595e+01 -1 1 -2
1908 636 2 4.0999999999999998e-01 -1.4084351951276012e+01 -1.1869353775325299e+01 -8.6395650836286748e+00 -1 -6 -1
1910 637 2 4.0999999999999998e-01 -1.4096827218284380e+01 -8.9519957327398192e+00 -9.5550932942072819e+00 -6 5 -1
1911 637 2 4.0999999999999998e-01 -1.4135675904976891e+01 -1.0516636376279450e+01 -1.0020904088852911e+01 -6 5 -1
1853 618 2 4.0999999999999998e-01 -6.5663414326606375e+00 -7.8160508390145784e+00 -1.0648957254562266e+01 -4 1 -2
1601 534 2 4.0999999999999998e-01 -9.0040863117664571e+00 -1.1036113599327701e+01 -8.4099974675726745e+00 -5 4 4
1600 534 1 -8.1999999999999995e-01 -8.1576736803447893e+00 -1.0628702544942994e+01 -8.0670864487827938e+00 -5 4 4
601 201 1 -8.1999999999999995e-01 -8.4392957477631541e+00 -8.0240314843439400e+00 -7.5686655944503762e+00 -8 -2 1
2348 783 2 4.0999999999999998e-01 -1.3737368964184210e+01 -1.2584134932838531e+01 -1.4848941800605362e+01 -1 1 -2
2266 756 1 -8.1999999999999995e-01 -1.2515566809830442e+01 -1.4127218979941388e+01 -1.2713048940625537e+01 -2 -10 0
180 60 2 4.0999999999999998e-01 -1.2189750169060694e+01 -1.4739471319095326e+01 -1.4573432190451074e+01 -9 3 -5
602 201 2 4.0999999999999998e-01 -7.9664000199254144e+00 -7.8781045502177909e+00 -8.4376081191223093e+00 -8 -2 1
947 316 2 4.0999999999999998e-01 -7.6218956032841199e+00 -1.1877142250217588e+01 -1.4763383753943552e+01 -4 -2 -2
1839 613 2 4.0999999999999998e-01 -8.6775247329401566e+00 -1.4701452465635919e+01 -9.2840813682596171e+00 -5 -1 -1
1852 618 1 -8.1999999999999995e-01 -6.7676063345231281e+00 -7.5372099147127791e+00 -9.7099544742968131e+00 -4 1 -2
2268 756 2 4.0999999999999998e-01 -1.1920173614381431e+01 -1.3783605638449906e+01 -1.1986810092278578e+01 -2 -10 0
1906 636 1 -8.1999999999999995e-01 -1.4472315979472695e+01 -1.2274879543178233e+01 -9.4672237389608860e+00 -1 -6 -1
359 120 2 4.0999999999999998e-01 -1.2004774006084073e+01 -1.0492524715149017e+01 -7.6410188302410704e+00 -3 3 2
358 120 1 -8.1999999999999995e-01 -1.2976129507126501e+01 -1.0729558372962041e+01 -7.6246001596175690e+00 -3 3 2
145 49 1 -8.1999999999999995e-01 -7.8217068646535761e+00 -1.0007917302852245e+01 -1.4600858815487776e+01 -4 2 2
1602 534 2 4.0999999999999998e-01 -8.2335723196692729e+00 -9.6319061924766682e+00 -8.0920365920730255e+00 -5 4 4
1235 412 2 4.0999999999999998e-01 -5.0853764152988514e+00 -8.7099832005488196e+00 -9.3407332324465635e+00 -1 6 3
377 126 2 4.0999999999999998e-01 -5.0311242603447859e+00 -1.4294759122646941e+01 -1.0816525402181993e+01 -5 -4 1
1176 392 2 4.0999999999999998e-01 -1.1349762953690815e+01 -7.1932584161872004e+00 -1.0495850391651496e+01 0 2 6
1256 419 2 4.0999999999999998e-01 -8.1275129986194337e+00 -6.2450472838970317e+00 -9.9176949466203492e+00 -2 3 2
2416 806 1 -8.1999999999999995e-01 -1.0605935126228886e+01 -6.0412563930393794e+00 -7.8123840294496185e+00 0 4 2
1147 383 1 -8.1999999999999995e-01 -7.0975381051295230e+00 -9.7848642138922770e-01 -1.4866141922226854e+01 -5 2 -1
1255 419 1 -8.1999999999999995e-01 -8.4876577442694483e+00 -5.3137048126235680e+00 -9.8640004537630865e+00 -2 3 2
2488 830 1 -8.1999999999999995e-01 -1.0399868423861236e+01 -7.0556153960760186e+00 -1.4841172957784412e+01 -1 3 4
105 35 2 4.0999999999999998e-01 -7.0718172097397867e+00 -4.2163602213440488e+00 -9.4043370389581860e+00 4 7 0
626 209 2 4.0999999999999998e-01 -1.4260430841926507e+01 -7.1017496763688674e+00 -8.0049240687585925e+00 0 1 -2
876 292 2 4.0999999999999998e-01 -1.3329866290754282e+01 -3.5024893442411500e+00 -9.3397906531997599e+00 -9 2 0
1388 463 2 4.0999999999999998e-01 -1.3393343098347463e+01 -1.2235306493562739e+00 -9.8540768180251455e+00 -3 -2 -7
104 35 2 4.0999999999999998e-01 -6.1539161186511109e+00 -2.9626524607995925e+00 -9.9065956355865801e+00 4 7 0
1387 463 1 -8.1999999999999995e-01 -1.3769860771571413e+01 -6.6595621201259192e-01 -1.0593895213660154e+01 -3 -2 -7
415 139 1 -8.1999999999999995e-01 -1.0155257770066674e+01 -9.7813940549880662e-01 -1.4103630374652525e+01 -1 1 1
1377 459 2 4.0999999999999998e-01 -1.2524932677541255e+01 -5.8767428367883348e+00 -1.2499767535095271e+01 -4 1 1
2490 830 2 4.0999999999999998e-01 -9.8160168424347649e+00 -6.5571917262744766e+00 -1.4200331883097810e+01 -1 3 4
568 190 1 -8.1999999999999995e-01 -7.2041578473894061e+00 -1.4059522411945302e-01 -1.0417364401409294e+01 1 1 1
1149 383 2 4.0999999999999998e-01 -7.5582415012723496e+00 -2.9325719639214931e-01 -1.4302050221058368e+01 -5 2 -1
2417 806 2 4.0999999999999998e-01 -1.0655569532621827e+01 -5.9764459469006432e+00 -8.8090394913244161e+00 0 4 2
570 190 2 4.0999999999999998e-01 -7.2007366054774948e+00 -1.0924875734481923e+00 -1.0723755365295457e+01 1 1 1
1797 599 2 4.0999999999999998e-01 -1.1816344297544926e+01 -2.0569203090350907e+00 -1.4138152404746384e+01 1 -5 -1
1707 569 2 4.0999999999999998e-01 -5.4274287176782927e+00 -2.5137546597888694e+00 -1.2322566080624084e+01 -8 5 -1
1174 392 1 -8.1999999999999995e-01 -1.1076655186791776e+01 -6.2313662275173609e+00 -1.0483134443730034e+01 0 2 6
1706 569 2 4.0999999999999998e-01 -6.3970054992165473e+00 -3.7273897886896261e+00 -1.1818978769872128e+01 -8 5 -1
2571 857 2 4.0999999999999998e-01 -1.4742584085817272e+01 -6.1749781941602588e+00 -1.0571008816098107e+01 -2 2 -4
1550 517 2 4.0999999999999998e-01 -1.0256548656776619e+01 -2.3520052918940717e+00 -1.2633924439022129e+01 -5 -1 1
1185 395 2 4.0999999999999998e-01 -1.0075561953794965e+01 -1.6441043005243952e+00 -9.2011102415380677e+00 -5 3 0
1551 517 2 4.0999999999999998e-01 -1.0124117639997550e+01 -2.9109981841555577e+00 -1.1105337431256579e+01 -5 -1 1
1705 569 1 -8.1999999999999995e-01 -6.1790435106326012e+00 -2.7575776514855015e+00 -1.1709694374086880e+01 -8 5 -1
1389 463 2 4.0999999999999998e-01 -1.3976267448686032e+01 -1.2495850739347123e+00 -1.1379235727117155e+01 -3 -2 -7
1298 433 2 4.0999999999999998e-01 -9.0278329251832687e+00 -4.7956293064420183e+00 -1.4176422386498029e+01 -3 -2 3
1299 433 2 4.0999999999999998e-01 -9.8665954028215790e+00 -4.5233001478810095e+00 -1.2802048472781198e+01 -3 -2 3
1297 433 1 -8.1999999999999995e-01 -9.4538558762284666e+00 -5.2265305865358176e+00 -1.3380925932206647e+01 -3 -2 3
1854 618 2 4.0999999999999998e-01 -6.0524035953956812e+00 -6.9181639708188083e+00 -9.3855268553044944e+00 -4 1 -2
1795 599 1 -8.1999999999999995e-01 -1.2715321168537512e+01 -2.4942004312237174e+00 -1.4162906122571441e+01 1 -5 -1
334 112 1 -8.1999999999999995e-01 -1.4608169663926841e+01 -5.2725827787902446e+00 -7.8163620768464321e+00 -7 -2 0
1376 459 2 4.0999999999999998e-01 -1.2402254228932627e+01 -4.2630317060839289e+00 -1.2717657316781670e+01 -4 1 1
1175 392 2 4.0999999999999998e-01 -1.1729062138503462e+01 -5.6925708263395212e+00 -1.1016098677441473e+01 0 2 6
1183 395 1 -8.1999999999999995e-01 -1.0072761706950288e+01 -2.6064228658030313e+00 -9.4729947510109049e+00 -5 3 0
1511 504 2 4.0999999999999998e-01 -7.5170661387428703e+00 -5.4082722917189461e+00 -1.2531697266006681e+01 0 -2 1
1375 459 1 -8.1999999999999995e-01 -1.2784046974964768e+01 -4.9817797660105221e+00 -1.2136605088492455e+01 -4 1 1
874 292 1 -8.1999999999999995e-01 -1.2719174909194145e+01 -2.9505463550541453e+00 -8.7719869216876596e+00 -9 2 0
1510 504 1 -8.1999999999999995e-01 -6.5465013497435880e+00 -5.4734865084529183e+00 -1.2299884518753933e+01 0 -2 1
728 243 2 4.0999999999999998e-01 -1.4066174989948236e+01 -2.6835198908772799e+00 -1.3115079105180678e+01 -5 2 -4
1512 504 2 4.0999999999999998e-01 -6.2219142324164878e+00 -6.4016079096870282e+00 -1.2482147841425007e+01 0 -2 1
1257 419 2 4.0999999999999998e-01 -9.3829792141796275e+00 -5.2764519051984422e+00 -1.0307844772540442e+01 -2 3 2
875 292 2 4.0999999999999998e-01 -1.1797586489995712e+01 -2.9674186336047192e+00 -9.1597706592951909e+00 -9 2 0
1184 395 2 4.0999999999999998e-01 -9.3813061001764648e+00 -3.0998464005885360e+00 -8.9453505536187041e+00 -5 3 0
1549 517 1 -8.1999999999999995e-01 -1.0367103485819836e+01 -3.1524599290324176e+00 -1.2044826756918418e+01 -5 -1 1
103 35 1 -8.1999999999999995e-01 -6.5357834500286689e+00 -3.4262436507460592e+00 -9.1070666480825793e+00 4 7 0
1148 383 2 4.0999999999999998e-01 -6.2355122049784324e+00 -1.2418391900605030e+00 -1.4433079871836549e+01 -5 2 -1
416 139 2 4.0999999999999998e-01 -9.5317939731520234e+00 -2.7265083161775650e-01 -1.3766636587080750e+01 -1 1 1
727 243 1 -8.1999999999999995e-01 -1.4713678845719683e+01 -2.3162490718820816e+00 -1.2447368779239968e+01 -5 2 -4
2406 802 2 4.0999999999999998e-01 -1.3217719552251937e+01 -4.1978009167563179e-01 -1.3360838002114274e+01 2 0 5
1632 544 2 4.0999999999999998e-01 -1.1381163651051555e+01 -1.2504123694084386e+01 -5.2291750201231935e+00 -3 2 -4
1283 428 2 4.0999999999999998e-01 -1.0180504516039660e+01 -1.0563029131525937e+01 -3.7885216168584890e+00 -2 5 0
1630 544 1 -8.1999999999999995e-01 -1.1265707804011532e+01 -1.3487371488037896e+01 -5.3701706331186134e+00 -3 2 -4
1589 530 2 4.0999999999999998e-01 -1.3258131579469563e+01 -1.3845350838318213e+01 -5.2467753622853355e+00 -2 -1 -2
1282 428 1 -8.1999999999999995e-01 -1.0590521971316686e+01 -1.0705397859550338e+01 -4.6894116892801900e+00 -2 5 0
502 168 1 -8.1999999999999995e-01 -7.5664325514775124e+00 -1.1360808288577337e+01 -5.3047007505570232e+00 -9 5 2
1323 441 2 4.0999999999999998e-01 -6.7522935605124879e+00 -1.2533561130497041e+01 -3.6930851072429682e-01 -4 7 5
1743 581 2 4.0999999999999998e-01 -1.2353971686283415e+01 -8.4074622093481040e+00 -6.0660632674420629e+00 -1 -3 1
504 168 2 4.0999999999999998e-01 -7.6088596565945137e+00 -1.1287511568924794e+01 -6.3011010892813921e+00 -9 5 2
1742 581 2 4.0999999999999998e-01 -1.1141474722542519e+01 -7.6861226185033891e+00 -6.8883220798701963e+00 -1 -3 1
503 168 2 4.0999999999999998e-01 -7.2294032170566238e+00 -1.0500930585085655e+01 -4.9212850057575590e+00 -9 5 2
2498 833 2 4.0999999999999998e-01 -1.1588027639702828e+01 -1.3984231166669732e+01 -7.0796060486747336e-01 -6 2 -4
1321 441 1 -8.1999999999999995e-01 -7.3665639987197382e+00 -1.3310915275607510e+01 -5.0487552939874725e-01 -4 7 5
1631 544 2 4.0999999999999998e-01 -1.0297051539857865e+01 -1.3723613348777004e+01 -5.2934825135628909e+00 -3 2 -4
1588 530 1 -8.1999999999999995e-01 -1.4171858658390367e+01 -1.3754017967165765e+01 -4.8508622658192184e+00 -2 -1 -2
1322 441 2 4.0999999999999998e-01 -7.7131441208755236e+00 -1.3302240312538876e+01 -1.4428483524297793e+00 -4 7 5
1741 581 1 -8.1999999999999995e-01 -1.1456154082373521e+01 -8.5450641724598135e+00 -6.4843637379616954e+00 -1 -3 1
1284 428 2 4.0999999999999998e-01 -1.0605488191715370e+01 -9.8395113051150993e+00 -5.1894142786103945e+00 -2 5 0
1972 658 1 -8.1999999999999995e-01 -8.7425913212912683e+00 -1.3813862692306373e+01 -5.5422449380463519e+00 0 7 -2
226 76 1 -8.1999999999999995e-01 -7.6217593124177823e+00 -7.5461001887625656e+00 -2.8115856254166705e+00 -7 -1 -1
714 238 2 4.0999999999999998e-01 -1.4376895614950174e+01 -8.6515983185204810e+00 -6.5114341439640206e+00 -7 1 4
228 76 2 4.0999999999999998e-01 -8.2491977243739463e+00 -7.9644997714562660e+00 -2.1548902037552882e+00 -7 -1 -1
1614 538 2 4.0999999999999998e-01 -9.7008823345274831e+00 -1.3848083070339779e+01 -2.3887360298419118e+00 -6 3 -3
1428 476 2 4.0999999999999998e-01 -9.6795264943026815e+00 -9.3889209117194383e+00 -7.3893854729283959e-01 1 1 -3
1973 658 2 4.0999999999999998e-01 -8.5043276314536786e+00 -1.3983315589203261e+01 -6.4985410315238070e+00 0 7 -2
1861 621 1 -8.1999999999999995e-01 -1.3109383288151333e+01 -7.9503594494056209e+00 -2.9688934761799750e+00 -4 0 -3
1862 621 2 4.0999999999999998e-01 -1.3477862902071259e+01 -8.4718564671338612e+00 -3.7384710852273333e+00 -4 0 -3
1426 476 1 -8.1999999999999995e-01 -9.6123035355913924e+00 -8.7214741562826568e+00 -1.4805462302188754e+00 1 1 -3
1974 658 2 4.0999999999999998e-01 -8.4514312947082679e+00 -1.2892596690573447e+01 -5.2844061278438001e+00 0 7 -2
1590 530 2 4.0999999999999998e-01 -1.4220218755248901e+01 -1.4277063125649990e+01 -3.9999385449864242e+00 -2 -1 -2
1612 538 1 -8.1999999999999995e-01 -8.7274873163074833e+00 -1.3885698242408065e+01 -2.6147300478354829e+00 -6 3 -3
360 120 2 4.0999999999999998e-01 -1.3293132805283379e+01 -1.0771024286308247e+01 -6.6770898874347537e+00 -3 3 2
1999 667 1 -8.1999999999999995e-01 -5.7160439126162039e+00 -1.1189436087446015e+01 -2.0252212416122006e-01 -6 -8 0
2288 763 2 4.0999999999999998e-01 -1.1614008336800806e+01 -1.4414885788462303e+01 -6.8515147318274341e+00 -5 -3 -2
153 51 2 4.0999999999999998e-01 -7.4093187551070532e+00 -8.2395130013539841e+00 -5.9164194736596478e+00 -8 2 4
712 238 1 -8.1999999999999995e-01 -1.4173893238131230e+01 -9.0977148271475876e+00 -5.6397941938330920e+00 -7 1 4
152 51 2 4.0999999999999998e-01 -7.0515452758472774e+00 -8.0435786845970156e+00 -4.3352182788171110e+00 -8 2 4
151 51 1 -8.1999999999999995e-01 -6.8148573034500366e+00 -8.5398428185077808e+00 -5.1704947763542535e+00 -8 2 4
2499 833 2 4.0999999999999998e-01 -1.2557208926001852e+01 -1.4399108855022050e+01 -1.9550185947093155e+00 -6 2 -4
1467 489 2 4.0999999999999998e-01 -5.5851675353281340e+00 -9.4171444129006510e+00 -6.0091565174156063e+00 -2 4 -2
2497 833 1 -8.1999999999999995e-01 -1.1622158667183321e+01 -1.4430984183858619e+01 -1.6019588971230405e+00 -6 2 -4
1113 371 2 4.0999999999999998e-01 -1.4478772966268838e+01 -1.4521309101897428e+01 -1.8736470694736287e+00 2 -2 4
1427 476 2 4.0999999999999998e-01 -1.0412608447190991e+01 -8.8017026659422051e+00 -2.0747359976547823e+00 1 1 -3
2086 696 1 -8.1999999999999995e-01 -1.4333569914075929e+01 -1.3413622752655662e+01 -4.0063483463548977e-01 0 1 -4
2582 861 2 4.0999999999999998e-01 -1.4332631663855439e+01 -7.8154156817383980e+00 -1.8238590716946881e+00 2 -4 -2
2581 861 1 -8.1999999999999995e-01 -1.4930325985946602e+01 -7.7107359499105632e+00 -1.0290070396036448e+00 2 -4 -2
1613 538 2 4.0999999999999998e-01 -8.6175564080823737e+00 -1.3938918324035136e+01 -3.6072364088836189e+00 -6 3 -3
1748 583 2 4.0999999999999998e-01 -6.6504821039019770e+00 -1.4708805981966584e+01 -3.2671802179509832e+00 -2 0 1
544 182 1 -8.1999999999999995e-01 -5.1140985393290350e+00 -9.8109239410466138e+00 -2.5504997813015855e+00 2 -1 3
546 182 2 4.0999999999999998e-01 -5.7275015194439867e+00 -1.0160310406939770e+01 -1.8422258693449205e+00 2 -1 3
2448 816 2 4.0999999999999998e-01 -5.5650284304349036e+00 -1.2523815602814089e+01 -5.2325349933832914e+00 2 -4 -1
518 173 2 4.0999999999999998e-01 -1.3182496882983854e+01 -6.2549807065912564e+00 -9.0259639352475851e-01 -1 -1 -5
517 173 1 -8.1999999999999995e-01 -1.2359810686506254e+01 -5.7600333642959445e+00 -6.2295270297673788e-01 -1 -1 -5
519 173 2 4.0999999999999998e-01 -1.2558800502056778e+01 -4.7810542554565174e+00 -5.7835434156750054e-01 -1 -1 -5
849 283 2 4.0999999999999998e-01 -1.0770786007860941e+01 -5.7989720476943560e+00 -3.8989370302490300e-01 4 -4 5
2342 781 2 4.0999999999999998e-01 -7.1868246230670882e+00 -2.5723313598479915e+00 -7.2213227577340975e+00 -5 1 -3
2442 814 2 4.0999999999999998e-01 -1.2509448649139262e+01 -5.3193795576176832e+00 -4.7010319554610938e+00 -6 0 -6
604 202 1 -8.1999999999999995e-01 -1.3949079977181205e+01 -2.7734781278153697e+00 -3.7093436017868644e+00 1 0 0
227 76 2 4.0999999999999998e-01 -6.9353472926366511e+00 -7.0091303364933317e+00 -2.3211898602624803e+00 -7 -1 -1
1863 621 2 4.0999999999999998e-01 -1.2573724369711666e+01 -7.1798497975329720e+00 -3.3143937803096506e+00 -4 0 -3
1216 406 1 -8.1999999999999995e-01 -1.1579073487306594e+01 -5.2241519146719106e-01 -3.7644361769253010e-02 -2 4 -3
2373 791 2 4.0999999999999998e-01 -1.3717136031069263e+01 -7.2790497776706431e-01 -5.5190577855780738e+00 4 3 -3
2432 811 2 4.0999999999999998e-01 -9.1080353059235186e+00 -5.8772990890144960e-01 -2.7737962123662498e+00 1 3 -5
847 283 1 -8.1999999999999995e-01 -9.7745105168565782e+00 -5.8566974989331246e+00 -3.2594821881061087e-01 4 -4 5
1729 577 1 -8.1999999999999995e-01 -5.8162932813459154e+00 -6.6637720133486766e-01 -4.4170040984629342e+00 -1 -1 -1
276 92 2 4.0999999999999998e-01 -6.1630621737191653e+00 -4.4256892511706880e-01 -2.9542736757212218e-01 -9 2 -1
335 112 2 4.0999999999999998e-01 -1.4523031706133978e+01 -4.9406517695353749e+00 -6.8769157461530082e+00 -7 -2 0
1272 424 2 4.0999999999999998e-01 -1.2587226055985486e+01 -3.2347739438976824e+00 -7.0351170511852938e+00 -2 2 1
1914 638 2 4.0999999999999998e-01 -1.0873179687032200e+01 -2.5883060679765517e+00 -5.4500257357132984e+00 1 0 1
2262 754 2 4.0999999999999998e-01 -1.2236474737171187e+01 -1.5931456826328549e-01 -2.8918193002076791e+00 -2 2 0
605 202 2 4.0999999999999998e-01 -1.2988901188271742e+01 -2.7166535633252860e+00 -3.4358225317348214e+00 1 0 0
1730 577 2 4.0999999999999998e-01 -5.1397796211447915e+00 -1.3551205151795873e+00 -4.1563357704866277e+00 -1 -1 -1
2418 806 2 4.0999999999999998e-01 -1.0888179210066685e+01 -5.1716174864983007e+00 -7.4073500988279539e+00 0 4 2
883 295 1 -8.1999999999999995e-01 -1.3360256543016845e+01 -3.3013601824310630e+00 -3.3481552474574805e-01 0 -7 3
885 295 2 4.0999999999999998e-01 -1.2661342993973632e+01 -2.8592779991108639e+00 -8.9701592906498995e-01 0 -7 3
1731 577 2 4.0999999999999998e-01 -6.3205163628534002e+00 -9.8194015492054731e-01 -5.2208480878908059e+00 -1 -1 -1
1583 528 2 4.0999999999999998e-01 -9.0361048694979047e+00 -2.2655217367297809e+00 -6.0852543870546860e-01 -3 2 3
1258 420 1 -8.1999999999999995e-01 -6.2955008832493107e+00 -5.9361424379025678e+00 -9.1231156671350355e-01 -2 1 0
848 283 2 4.0999999999999998e-01 -9.4416033249784910e+00 -6.5692619298061299e+00 -9.4353298008673292e-01 4 -4 5
2310 770 2 4.0999999999999998e-01 -8.3662533622684236e+00 -2.7907911052881964e+00 -2.4046069978461908e+00 0 -3 -3
1270 424 1 -8.1999999999999995e-01 -1.2443152183703482e+01 -3.4251089683221903e+00 -6.0640344633824217e+00 -2 2 1
384 128 2 4.0999999999999998e-01 -1.0776167294121386e+01 -2.2667650423398165e+00 -2.5832915416576885e+00 -4 -3 0
382 128 1 -8.1999999999999995e-01 -1.1675136976240545e+01 -1.9764932918702787e+00 -2.2552947865479496e+00 -4 -3 0
2436 812 2 4.0999999999999998e-01 -1.4818610030282711e+01 -4.1290800314355103e+00 -4.4672008996007779e+00 -2 3 -6
1596 532 2 4.0999999999999998e-01 -6.6547640488080173e+00 -4.3646601714743909e+00 -2.0397952379907149e+00 -2 4 -2
1594 532 1 -8.1999999999999995e-01 -6.6913384235312563e+00 -3.3983850384420329e+00 -1.7849210876121369e+00 -2 4 -2
1260 420 2 4.0999999999999998e-01 -6.7857996294990155e+00 -5.7112972813861465e+00 -7.0267658840240443e-02 -2 1 0
1595 532 2 4.0999999999999998e-01 -5.7619041968029965e+00 -3.0347463119521692e+00 -1.7224311191295332e+00 -2 4 -2
383 128 2 4.0999999999999998e-01 -1.1568055302730473e+01 -1.4486729041587996e+00 -1.4127242039709333e+00 -4 -3 0
2343 781 2 4.0999999999999998e-01 -8.3993101984704133e+00 -2.0452602476100719e+00 -6.2628531190660759e+00 -5 1 -3
2309 770 2 4.0999999999999998e-01 -8.9901231500511205e+00 -2.1830385111639856e+00 -3.7859154145910576e+00 0 -3 -3
2440 814 1 -8.1999999999999995e-01 -1.1862827018854118e+01 -6.0111280589045020e+00 -4.3795501136709731e+00 -6 0 -6
1912 638 1 -8.1999999999999995e-01 -1.0017052540376636e+01 -2.0718760896952926e+00 -5.4682586759051581e+00 1 0 1
1271 424 2 4.0999999999999998e-01 -1.3327843317337143e+01 -3.4928205795899316e+00 -5.6028155889710689e+00 -2 2 1
2441 814 2 4.0999999999999998e-01 -1.0998280784251673e+01 -5.5715929289891477e+00 -4.1359215044912698e+00 -6 0 -6
606 202 2 4.0999999999999998e-01 -1.4423372509662414e+01 -1.9363457155405772e+00 -3.4368697461155318e+00 1 0 0
2341 781 1 -8.1999999999999995e-01 -7.7099591237754970e+00 -1.7703179515355369e+00 -6.9330679178904262e+00 -5 1 -3
1913 638 2 4.0999999999999998e-01 -1.0209791901596770e+01 -1.1145497877516028e+00 -5.6835815586638585e+00 1 0 1
2308 770 1 -8.1999999999999995e-01 -9.1546233826321739e+00 -2.3283325943598392e+00 -2.8103050636678883e+00 0 -3 -3
1259 420 2 4.0999999999999998e-01 -5.3123565979127143e+00 -5.9554244615538785e+00 -7.3053803138711615e-01 -2 1 0
1295 432 2 4.0999999999999998e-01 -8.0922218464690676e+00 -4.0318370190798092e-02 -7.2683403232352850e+00 -3 1 0
603 201 2 4.0999999999999998e-01 -9.1210483223598544e+00 -7.3047152682044141e+00 -7.4353101108782464e+00 -8 -2 1
582 194 2 4.0999999999999998e-01 -8.9762364414499984e+00 -1.0387931849691658e+01 1.8975111402701295e+00 0 -2 -2
2320 774 1 -8.1999999999999995e-01 -7.4133765838269294e+00 -1.2253583367477129e+01 5.3672410463771811e+00 -4 2 1
2321 774 2 4.0999999999999998e-01 -7.4798218246080133e+00 -1.3223228848908931e+01 5.1319565980311879e+00 -4 2 1
2010 670 2 4.0999999999999998e-01 -1.1201258781887521e+01 -1.0436366448457420e+01 4.2924305722511278e+00 -5 2 -2
2322 774 2 4.0999999999999998e-01 -6.5104508518841833e+00 -1.1909293169182179e+01 5.1099950173503679e+00 -4 2 1
373 125 1 -8.1999999999999995e-01 -9.2001058989796825e+00 -1.4864172915578541e+01 1.0161149071490971e+00 -5 1 -2
2008 670 1 -8.1999999999999995e-01 -1.1448534137872521e+01 -9.6598059949661899e+00 3.7129524196417591e+00 -5 2 -2
16 6 1 -8.1999999999999995e-01 -1.3670683378512626e+01 -1.2995901984743933e+01 2.3267695566767088e+00 -8 -4 0
591 197 2 4.0999999999999998e-01 -1.4274754652163292e+01 -1.2094947951167823e+01 6.6252189446249474e+00 -7 8 2
1692 564 2 4.0999999999999998e-01 -5.2394149565508208e+00 -9.6528691792866219e+00 5.6652798357956549e+00 -1 8 -2
2311 771 1 -8.1999999999999995e-01 -1.4315699633601746e+01 -9.8153407852895356e+00 3.6901181691664711e+00 -5 0 -3
374 125 2 4.0999999999999998e-01 -8.6864103054957944e+00 -1.4324755570485294e+01 3.4893287856467836e-01 -5 1 -2
17 6 2 4.0999999999999998e-01 -1.3691007972623531e+01 -1.3454323207896454e+01 3.2152643164715826e+00 -8 -4 0
2414 805 2 4.0999999999999998e-01 -1.0664287388322762e+01 -1.2432514636149453e+01 5.8946919378721319e+00 1 0 -1
2415 805 2 4.0999999999999998e-01 -9.2723656757149264e+00 -1.2197834423154266e+01 5.0736750007913223e+00 1 0 -1
2413 805 1 -8.1999999999999995e-01 -1.0252243893301143e+01 -1.1999225370501559e+01 5.0931517295705895e+00 1 0 -1
581 194 2 4.0999999999999998e-01 -8.4789240852219123e+00 -1.0658570120046390e+01 3.4291849477511462e+00 0 -2 -2
2009 670 2 4.0999999999999998e-01 -1.2389786616793693e+01 -9.7688063414192605e+00 3.3933452418763395e+00 -5 2 -2
1690 564 1 -8.1999999999999995e-01 -5.2116837407789802e+00 -1.0622487331833108e+01 5.4222618549769734e+00 -1 8 -2
24 8 2 4.0999999999999998e-01 -7.9364517610572420e+00 -8.3267753719456845e+00 2.6099217434020403e+00 -2 -3 -5
940 314 1 -8.1999999999999995e-01 -5.7311308887806245e+00 -1.0377861535235414e+01 2.3794575804168403e+00 -4 -1 3
580 194 1 -8.1999999999999995e-01 -8.2904779450743078e+00 -1.0153923012745231e+01 2.5866854574508338e+00 0 -2 -2
942 314 2 4.0999999999999998e-01 -5.3509103875103019e+00 -1.0300368814396460e+01 3.3010937990531879e+00 -4 -1 3
941 314 2 4.0999999999999998e-01 -6.7281075794449947e+00 -1.0314130847758085e+01 2.4237523970632466e+00 -4 -1 3
826 276 1 -8.1999999999999995e-01 -7.2238847722263682e+00 -8.1278972501901503e+00 5.7311168438062658e+00 -2 -1 1
2087 696 2 4.0999999999999998e-01 -1.3890578322107348e+01 -1.3542807433041387e+01 4.8652694383402562e-01 0 1 -4
732 244 2 4.0999999999999998e-01 -1.0910549042886334e+01 -1.0301950883746942e+01 1.5618947917678163e+00 0 3 -6
1959 653 2 4.0999999999999998e-01 -1.0607797228787671e+01 -1.3672525320834950e+01 1.1748303573916345e+00 -1 1 1
827 276 2 4.0999999999999998e-01 -7.5730525639654234e+00 -8.9793479099002464e+00 6.1223964725182682e+00 -2 -1 1
1170 390 2 4.0999999999999998e-01 -1.1069159753287934e+01 -8.5111871818018816e+00 5.1351459432332582e+00 -7 7 0
2383 795 1 -8.1999999999999995e-01 -8.5777686972220017e+00 -1.0343342843569303e+01 7.0105486542072661e+00 -1 3 1
18 6 2 4.0999999999999998e-01 -1.4147822399433721e+01 -1.2119570872272362e+01 2.3928617173310620e+00 -8 -4 0
2385 795 2 4.0999999999999998e-01 -9.5222651703255199e+00 -1.0369479755463605e+01 6.6830895556548100e+00 -1 3 1
1665 555 2 4.0999999999999998e-01 -1.4313964808932480e+01 -8.5885029244569431e+00 7.1457337661717730e+00 5 0 2
2312 771 2 4.0999999999999998e-01 -1.4633814794054988e+01 -9.6633119784886201e+00 4.6258938056506800e+00 -5 0 -3
295 99 1 -8.1999999999999995e-01 -5.7853122575181697e+00 -1.4075801087386404e+01 1.2611996015532227e+00 -6 -3 -5
296 99 2 4.0999999999999998e-01 -6.4543751175393229e+00 -1.4088322973301482e+01 5.1810866743687356e-01 -6 -3 -5
50 17 2 4.0999999999999998e-01 -1.3008086350467451e+01 -1.4428191356022849e+01 7.3727492399845147e+00 0 0 1
1958 653 2 4.0999999999999998e-01 -1.2089271828801635e+01 -1.3051836509580831e+01 1.4690542483366720e+00 -1 1 1
634 212 1 -8.1999999999999995e-01 -1.0953449876488008e+01 -1.3395487556971556e+01 7.3724485628016510e+00 -6 3 0