2593
Atoms. Timestep: 1000000
O 2.81129 9.58806 1.89531
H 3.03196 10.1848 1.12381
H 2.08773 8.95161 1.62812
O -2.6995 -1.17491 -11.2496
H -2.16899 -2.02259 -11.2501
H -3.27708 -1.14364 -10.4339
O 2.75827 -13.002 -14.5717
H 3.56868 -13.5789 -14.4696
H 2.24749 -13.2854 14.7057
O 7.93619 12.0867 -12.0659
H 7.36457 12.9068 -12.0398
H 7.66623 11.5169 -12.842
O 11.887 14.9433 -1.04477
H 12.057 -14.3662 -0.442016
H 12.6069 14.8939 -1.73705
O -11.3409 -5.40897 5.31423
H -12.0865 -4.80015 5.5851
H -10.5455 -5.24146 5.89671
O 3.89479 2.98563 -7.19857
H 3.61094 3.22985 -8.12581
H 3.31896 2.24206 -6.85868
O -11.4649 -1.97254 5.12563
H -12.1129 -2.35452 5.78458
H -11.3836 -0.986558 5.27132
O -6.69233 0.720434 -5.01488
H -7.41351 1.27498 -5.43008
H -6.39042 0.0243195 -5.66624
O 2.44738 -5.76733 11.6863
H 3.33923 -5.89873 12.1191
H 1.72412 -5.92539 12.3585
O -8.36228 10.0354 -9.70215
H -8.80585 9.45938 -10.3888
H -8.5385 10.9975 -9.91002
O 13.0586 6.73417 -7.52082
H 12.3365 7.31828 -7.89145
H 13.0545 6.79192 -6.5225
O -11.8469 -6.28799 -8.37778
H -11.1248 -5.7124 -7.99388
H -11.5753 -7.24846 -8.3168
O 10.9641 -5.55378 5.7768
H 11.0557 -4.56002 5.84031
H 10.371 -5.88152 6.51224
O 10.8034 -6.67921 -0.490615
H 11.1339 -6.77577 0.448219
H 10.8051 -5.71259 -0.746823
O 4.49589 -8.90987 8.49901
H 4.78681 -9.85368 8.34219
H 5.21716 -8.4149 8.98355
O 5.86545 1.06905 7.16906
H 5.30096 0.29373 6.88581
H 6.15097 0.943945 8.11924
O -12.867 5.33347 10.3238
H -13.1818 5.34933 9.3748
H -12.2509 4.55724 10.4577
O 9.03298 5.91735 -13.8863
H 9.34011 5.46202 -14.722
H 8.79302 5.22977 -13.201
O -1.88217 -6.21944 -14.9388
H -2.56794 -6.94702 -14.9201
H -1.11973 -6.46452 -14.34
O -10.8707 8.39294 -2.11477
H -9.89712 8.62118 -2.11055
H -11.1301 8.02266 -1.22281
O -11.2279 -2.94618 -14.6184
H -11.9386 -2.99431 14.7689
H -10.4546 -2.41391 -14.9631
O 8.4026 -7.71369 -4.11821
H 8.32387 -7.462 -3.15361
H 8.69935 -8.66586 -4.19109
O -11.6315 -13.7127 -3.45746
H -12.1575 -12.9443 -3.82211
H -12.0355 -14.572 -3.77141
O 8.38524 -1.67849 0.0244282
H 7.5488 -1.90109 -0.476391
H 8.53846 -0.690733 -0.00496207
O 7.70447 6.96447 -4.67084
H 8.37385 7.3406 -5.31152
H 8.08414 6.15003 -4.23206
O 10.3733 -9.41638 -12.1182
H 9.52754 -8.9028 -12.2631
H 10.7479 -9.69766 -13.0016
O -11.8003 9.87994 10.3935
H -11.1545 9.41807 11.0013
H -11.8389 9.39662 9.51886
O 1.24993 2.29414 9.42839
H 0.882916 2.19607 10.3534
H 1.17393 1.4218 8.94543
O 9.34804 -10.5784 -1.21951
H 9.12063 -11.471 -0.830254
H 9.41809 -9.90278 -0.485588
O 13.91 -8.44854 4.40365
H 14.326 -9.09258 3.76163
H 12.9227 -8.41424 4.24872
O -6.15633 -8.63201 10.7738
H -6.9246 -8.84634 10.1706
H -6.34019 -8.99196 11.6885
O -6.77852 -6.74754 7.24182
H -6.09758 -7.30968 7.71121
H -6.78585 -6.97632 6.26837
O 0.810093 -5.76764 13.8704
H 0.196652 -6.52855 13.659
H 0.270052 -4.96033 14.1083
O 5.94556 5.02843 -8.71623
H 5.02437 4.68553 -8.90017
H 6.4998 4.95636 -9.54546
O -0.610746 -8.48982 -4.85311
H 0.164284 -7.88437 -5.03409
H -0.346659 -9.17569 -4.175
O 3.54443 -1.55966 -5.13449
H 2.99518 -2.12518 -4.51926
H 3.90133 -2.1255 -5.87776
O 1.17663 -0.176774 -7.99596
H 1.99872 -0.590749 -8.38685
H 0.811542 0.503489 -8.63153
O -9.81903 1.60804 13.6873
H -10.7262 1.39944 14.0527
H -9.41081 2.35354 14.2141
O 13.9702 -11.0565 -9.15108
H 13.961 -12.0069 -8.84012
H 13.0451 -10.6802 -9.10021
O -0.237932 -7.11147 -1.42565
H 0.406283 -6.54763 -0.908861
H -0.305031 -6.76752 -2.36224
O 5.69412 -4.00414 -12.4044
H 5.02854 -3.34845 -12.7609
H 5.38923 -4.93398 -12.6104
O -4.32498 -4.37671 0.062513
H -4.01142 -4.64085 -0.849578
H -3.54253 -4.33027 0.683491
O -1.70745 -3.54978 -14.7679
H -1.95496 -4.51173 -14.6522
H -0.888123 -3.3495 -14.2306
O 9.44829 -0.0432793 13.4494
H 9.29146 -0.450052 12.5494
H 10.3732 -0.264532 13.7586
O 10.7203 3.54076 -0.355456
H 10.0083 3.43623 0.338915
H 10.5202 4.34144 -0.920137
O 1.22986 -10.4801 -10.9483
H 1.00512 -9.73842 -10.3163
H 1.09717 -11.3594 -10.4909
O -14.0903 4.37168 0.493839
H -13.3501 5.0381 0.404868
H -14.0598 3.73474 -0.276477
O 14.1255 0.585069 10.2098
H 13.5319 0.597307 9.4051
H 14.6766 1.4193 10.2301
O -10.7642 10.3055 14.9058
H -10.6469 11.2112 14.4983
H -9.93564 10.0556 -14.6822
O 0.520057 7.64708 -12.5566
H 0.254414 7.04166 -13.3068
H 0.246301 7.23864 -11.6858
O -14.8156 -8.29834 -15.0204
H -14.1636 -8.76572 -14.4234
H 14.4873 -7.99454 -14.4822
O 7.81588 -13.3105 11.6719
H 7.02562 -13.1533 12.2642
H 8.65208 -13.2921 12.22
O -7.26393 11.481 -12.1925
H -7.57981 12.4274 -12.1261
H -6.69019 11.2648 -11.4025
O 0.390242 13.1768 12.5668
H 0.792545 12.3362 12.204
H -0.485689 13.3487 12.116
O 4.2266 -13.3552 -1.28755
H 3.71601 -14.1576 -0.97873
H 3.59902 -12.5855 -1.40433
O -9.35247 7.23576 -13.5069
H -9.96292 6.65555 -14.046
H -8.43732 7.22178 -13.9097
O 5.18672 10.9689 -10.0115
H 5.80696 11.1581 -9.25026
H 5.37375 11.6053 -10.7599
O -10.7474 -5.13666 -12.2
H -9.87336 -4.70746 -11.9724
H -11.1368 -4.6924 -13.0069
O 4.19237 -9.07402 3.17158
H 3.64668 -9.13183 4.00757
H 4.01647 -8.20008 2.71849
O -11.8817 -5.42876 8.69221
H -12.6528 -5.98262 8.37827
H -11.0275 -5.92036 8.52292
O -4.15099 2.12153 10.4101
H -3.7605 1.66469 9.61085
H -3.77139 1.71858 11.2429
O -4.10041 -7.09822 2.76629
H -3.78416 -6.18536 2.50807
H -3.5599 -7.78719 2.28342
O 2.82133 -5.60914 -1.47403
H 3.64909 -5.06838 -1.62359
H 2.43333 -5.38438 -0.580193
O 10.4938 11.8207 -10.7034
H 10.4248 12.4406 -9.92175
H 9.78232 12.044 -11.3697
O -0.551865 -3.69642 5.76405
H -0.0237439 -4.361 6.29265
H -0.926445 -4.14011 4.9499
O 8.3781 -5.60114 10.4255
H 8.26933 -4.67071 10.7755
H 9.1528 -6.04003 10.8807
O 4.99537 1.37344 12.8878
H 5.85091 1.88554 12.8116
H 4.36642 1.86318 13.4916
O -14.9811 12.7791 -8.28835
H 15.0265 11.7957 -8.45049
H 14.4744 13.2693 -8.88688
O -8.20616 -1.43844 7.41567
H -8.595 -2.23466 6.95218
H -7.97626 -0.738482 6.7395
O 6.42476 10.1191 3.74741
H 5.43711 10.0078 3.8577
H 6.89536 9.33094 4.1441
O 4.44653 -0.644338 10.5707
H 3.75019 -1.27917 10.2359
H 4.01731 0.0416168 11.1583
O 7.89531 9.01376 -0.42931
H 8.09067 9.64065 0.324907
H 7.10581 9.34768 -0.944282
O 4.50328 -12.2889 -9.73846
H 4.88307 -12.273 -8.81352
H 3.54337 -12.5666 -9.69988
O 7.10006 -12.0768 5.4426
H 7.43521 -12.9978 5.641
H 7.79277 -11.5743 4.92527
O 11.1313 4.74653 3.23769
H 11.7609 4.20219 3.79199
H 11.6495 5.41462 2.70376
O -10.0245 13.8917 -4.40517
H -10.9882 14.1379 -4.30243
H -9.79945 13.8244 -5.3772
O -6.41871 -13.0491 -1.7566
H -6.58829 -12.3007 -1.11539
H -7.23721 -13.6192 -1.82748
O -3.73308 -4.72433 -7.13825
H -3.91432 -3.97433 -6.50213
H -4.59859 -5.1366 -7.42274
O 4.38732 -1.27966 4.0337
H 3.65159 -0.607785 4.11908
H 5.17043 -0.859903 3.57486
O 10.1683 -7.26715 11.7475
H 10.9411 -7.78751 11.3842
H 10.2326 -7.22716 12.7446
O 12.0424 -12.4609 11.286
H 12.5698 -11.7596 11.7656
H 12.6619 -13.1657 10.9403
O -12.0463 -5.62858 11.6215
H -12.2691 -4.65718 11.7037
H -11.9676 -5.87189 10.6548
O 7.8215 2.18914 12.0617
H 8.59451 1.84288 12.5932
H 7.59583 3.11469 12.3657
O -2.30058 0.938665 -7.46816
H -2.86268 1.04126 -8.28885
H -1.35945 0.728438 -7.73289
O -6.87351 0.995724 -10.4651
H -6.73638 1.72254 -9.79214
H -6.9856 1.39916 -11.3733
O -11.5185 10.2099 -7.64435
H -10.8915 9.4653 -7.87326
H -11.5399 10.8703 -8.39495
O -10.4346 14.8949 9.13658
H -10.8076 14.574 8.26599
H -11.1595 14.9076 9.82533
O 12.8602 0.992918 7.80967
H 12.5113 1.92493 7.90784
H 12.4506 0.566933 7.00297
O -5.9025 -6.14673 4.44043
H -6.67403 -6.01026 3.81904
H -5.1036 -6.44661 3.91906
O 11.9151 -10.2547 -14.2208
H 11.5011 -11.0178 -14.7171
H 12.35 -9.63119 -14.8705
O -2.24467 -9.77091 12.8588
H -1.57621 -9.70721 13.5998
H -2.47981 -10.7304 12.7035
O -7.46656 9.24053 -4.11609
H -6.76465 9.75491 -4.60877
H -7.03045 8.54899 -3.54025
O 1.69832 12.8062 9.51087
H 0.797327 12.5134 9.19072
H 2.08548 13.4619 8.86271
O 6.32956 8.7616 -2.90775
H 6.97445 9.5256 -2.88715
H 6.59772 8.11831 -3.62487
O 1.95604 6.2471 -7.3753
H 0.962598 6.33308 -7.29998
H 2.39243 7.03987 -6.94977
O 9.3666 3.21057 9.31769
H 8.98988 2.51371 8.70739
H 9.17368 2.9619 10.2669
O -6.82607 9.376 5.32787
H -5.86167 9.49498 5.0917
H -6.90394 8.75689 6.10931
O -4.99703 -0.783466 1.97891
H -5.42199 -0.126207 1.35648
H -5.4596 -1.66635 1.89795
O -4.35806 9.92075 4.10169
H -4.06854 9.29184 3.38012
H -3.75064 10.715 4.11506
O -14.1041 -2.37725 14.2165
H -14.6191 -3.04874 14.7493
H -13.7444 -1.672 14.8274
O 2.22105 13.331 14.9935
H 3.13617 13.3736 14.5925
H 1.54162 13.2444 14.2649
O 5.6462 -13.0257 13.3077
H 5.58622 -13.1739 14.2948
H 5.40592 -12.078 13.0977
O -5.81165 -10.0849 -2.2631
H -5.39992 -9.36276 -2.81897
H -5.2441 -10.9068 -2.31088
O 11.737 -7.08771 -11.6403
H 11.2465 -7.91563 -11.9123
H 12.4634 -7.3271 -10.9961
O 8.13792 6.24377 11.5284
H 7.8498 5.52968 12.1664
H 7.86746 5.98993 10.5997
O 10.9059 1.32136 -12.6723
H 10.3071 1.84226 -13.2806
H 11.1419 0.450134 -13.1027
O -14.6806 6.80822 -1.95902
H -14.317 7.47163 -2.613
H -13.9741 6.57845 -1.28964
O -4.08393 12.3688 -1.02335
H -4.13631 13.3017 -1.37958
H -4.29897 11.7206 -1.75378
O 10.7989 -2.77876 6.86854
H 9.84964 -2.51895 6.69156
H 11.4116 -2.10763 6.45108
O -7.66906 -9.58475 -8.7414
H -8.55463 -10.0124 -8.92284
H -7.80135 -8.61191 -8.55145
O 12.0057 9.78873 -14.6368
H 11.9318 9.43343 14.5205
H 11.1653 9.58495 -14.1347
O 1.75382 3.94625 -1.37123
H 2.65753 3.60387 -1.62829
H 1.44995 4.62195 -2.04287
O 1.03517 11.3408 -0.117761
H 1.81434 11.7993 -0.545171
H 0.783492 10.5378 -0.658062
O -13.2112 -4.20391 0.662793
H -12.473 -4.87693 0.70852
H -13.7914 -4.39881 -0.128011
O 9.50929 -2.75679 -6.32031
H 9.16779 -3.50208 -5.74767
H 9.62704 -1.93508 -5.7627
O 13.4264 11.9517 -14.7211
H 12.9779 11.1137 -14.4103
H 12.765 12.5234 14.8825
O -5.75937 9.39287 0.226689
H -4.88553 9.41271 -0.259122
H -5.86143 10.2304 0.763412
O 14.714 -7.12731 10.215
H -15.0227 -7.67457 10.9742
H -14.6508 -6.98909 9.53951
O -6.56841 5.82381 -11.7364
H -7.43877 5.83399 -11.2441
H -6.71321 6.13436 -12.6759
O 10.2375 -10.8955 9.76386
H 10.6845 -11.4776 10.443
H 9.70781 -11.464 9.13442
O 0.218425 5.35817 11.2463
H 0.567656 5.28065 10.3125
H 0.887938 4.97908 11.8851
O -11.1361 -11.5526 3.98118
H -11.7968 -12.2023 4.35723
H -10.697 -11.9519 3.1764
O 2.85402 9.56077 -9.68781
H 3.66412 10.1433 -9.62157
H 2.32173 9.82044 -10.4936
O -0.553019 -5.74206 -10.5925
H 0.425727 -5.91154 -10.708
H -1.0717 -6.39347 -11.1462
O 8.31972 11.0985 -2.78819
H 8.18907 11.4468 -1.85994
H 8.22246 11.8486 -3.44237
O -5.17442 -8.87663 8.13341
H -5.87683 -9.32907 7.58394
H -4.86934 -9.49408 8.85845
O 7.908 -5.121 13.6313
H 7.541 -6.04198 13.7621
H 8.64611 -4.96017 14.2865
O 1.23977 -4.15593 -6.74047
H 0.493297 -4.79295 -6.93279
H 1.64951 -4.37982 -5.85617
O 1.33023 5.22428 8.77222
H 2.11834 5.81771 8.60876
H 1.64788 4.31181 9.03011
O -4.73228 -0.85417 11.1595
H -5.56005 -1.40715 11.2545
H -4.60071 -0.306432 11.9858
O -9.4661 -0.46458 -7.34651
H -9.96815 -0.488018 -8.21103
H -8.49737 -0.643211 -7.51869
O 13.0875 7.08354 -11.943
H 12.9529 6.13814 -11.6462
H 12.2876 7.62875 -11.6922
O -10.3581 6.9224 -4.75779
H -10.3516 7.75346 -4.20166
H -11.0963 6.97694 -5.43009
O -2.30843 -4.96302 2.07081
H -2.69306 -4.18148 2.56199
H -1.48177 -5.2764 2.53818
O 8.24709 -5.0086 -5.3375
H 8.11309 -5.98221 -5.15281
H 7.37491 -4.5961 -5.60048
O -12.7704 7.66089 2.10339
H -12.2913 7.27515 1.31492
H -12.1048 8.04963 2.7404
O -6.19894 -9.47611 13.6217
H -6.59184 -8.98862 14.4015
H -6.52343 -10.422 13.6221
O -5.12816 -1.51647 -12.269
H -5.33649 -1.38403 -13.238
H -4.1447 -1.41068 -12.122
O 9.92155 8.12514 -6.18208
H 9.54084 7.96117 -7.09213
H 10.298 7.27253 -5.81969
O 5.38305 -4.29905 -2.38061
H 5.70637 -4.09355 -3.30432
H 5.43602 -3.47422 -1.81772
O 6.03199 -1.74527 -1.42845
H 6.35911 -1.5735 -2.35769
H 5.68909 -0.893203 -1.03296
O -11.186 -5.95561 0.559333
H -11.2743 -6.19316 1.52669
H -11.5209 -6.71268 -0.00168505
O 4.54173 6.65442 -2.23195
H 5.06782 6.11169 -1.57721
H 5.0785 7.45002 -2.51284
O 9.55629 -0.0598882 -4.71838
H 9.73794 0.701531 -4.09609
H 8.73558 0.13661 -5.25486
O -6.40967 -14.0006 -14.1773
H -5.57369 -14.4688 -13.891
H -7.11104 -14.6775 -14.4006
O 9.8626 -0.757921 -8.84486
H 9.06842 -0.754104 -8.23719
H 9.67564 -1.34295 -9.63403
O 2.59069 -10.6554 -5.46384
H 1.71325 -10.6113 -4.98618
H 2.9248 -11.5979 -5.46102
O -14.5992 9.17081 7.166
H -14.6303 9.15647 6.16659
H -13.6886 8.89639 7.47511
O -0.799473 -7.6834 12.4235
H -1.22411 -6.89538 11.9778
H -1.40202 -8.47729 12.3418
O 11.8237 8.52052 3.08339
H 11.748 8.16431 2.15206
H 12.6777 9.03241 3.17604
O 5.17251 -6.65554 -5.6539
H 5.02346 -7.24596 -4.86068
H 4.48432 -6.85461 -6.35158
O -14.1346 14.1996 -12.5017
H -13.6875 13.5277 -13.092
H 14.991 13.9563 -12.3898
O 6.96729 -7.42131 14.5947
H 7.45502 -8.28428 14.7266
H 6.35136 -7.26518 -14.7222
O -7.75664 -8.49613 -14.0699
H -7.15803 -8.10644 -13.37
H -8.69891 -8.20683 -13.9013
O -6.14928 6.3229 -0.647739
H -6.98406 5.77684 -0.718185
H -5.80718 6.5286 -1.56461
O 1.61125 -5.8471 0.885298
H 2.13353 -6.5054 1.42739
H 1.41923 -5.03698 1.43922
O -10.3679 -7.31443 -13.8032
H -10.405 -6.55461 -13.1542
H -10.87 -7.06917 -14.6325
O -12.5973 -13.26 5.05661
H -12.2281 -14.1413 5.35181
H -13.5621 -13.2002 5.31258
O 7.20015 13.3397 4.10307
H 7.03892 12.3565 4.18878
H 6.6282 13.7086 3.37043
O 8.54495 8.71654 -9.44222
H 7.93781 8.67722 -10.2358
H 8.66255 7.79723 -9.06666
O 12.7054 -9.02441 13.1614
H 13.7048 -8.99356 13.1531
H 12.3656 -9.07228 12.2221
O -8.41414 14.0243 -11.8861
H -7.52986 14.477 -12.0007
H -9.14891 14.6887 -12.0232
O -8.59385 -7.70234 5.31242
H -9.43121 -8.23975 5.21235
H -8.4494 -7.15382 4.48886
O -12.733 9.08005 -12.25
H -13.3682 9.80631 -11.9872
H -12.8072 8.91184 -13.233
O 4.92622 14.8828 7.82025
H 5.67539 14.2347 7.95682
H 4.69968 14.9302 6.8474
O -12.4025 2.13595 -14.8098
H -13.0346 2.78418 -14.3853
H -12.1252 1.45093 -14.1361
O 8.18724 0.861058 -14.2768
H 8.32584 1.85047 -14.3199
H 8.61521 0.429677 15.0181
O 6.95098 -0.215497 -8.95887
H 7.16844 0.199037 -9.84254
H 6.58802 -1.13611 -9.10286
O -11.8567 3.23239 11.7942
H -11.6575 2.51864 11.1227
H -11.4154 3.00575 12.6625
O -2.61698 -14.0877 3.85593
H -3.32153 -13.6904 3.26788
H -2.75363 -13.7768 4.7965
O 3.48717 -0.866925 -9.42644
H 3.29117 -0.0901914 -10.025
H 4.4754 -1.01387 -9.38387
O -0.950377 -13.7963 -14.3502
H -0.301355 -13.7596 14.9791
H -1.70619 -13.1657 -14.5266
O 2.25158 -4.11467 -9.38389
H 2.20175 -3.27154 -9.9193
H 1.77785 -3.98487 -8.51284
O -4.13024 14.3108 -10.4589
H -4.52248 14.9781 -9.82581
H -3.13417 14.3994 -10.4617
O 10.5766 -7.7922 14.6686
H 9.76158 -8.3714 14.6507
H 11.3233 -8.25262 14.1886
O -7.90423 9.27548 13.4713
H -7.25212 8.52432 13.5738
H -8.35175 9.45042 14.3483
O 3.23574 4.17219 1.61619
H 2.24137 4.20723 1.5162
H 3.47489 3.53366 2.3477
O -13.855 5.17949 7.89747
H -13.7428 5.46763 6.94648
H -14.7614 4.77489 8.01847
O -13.5293 -13.5025 0.114642
H -14.0778 -12.9702 -0.530148
H -13.1429 -12.8925 0.806486
O -10.7381 -14.7615 -13.2393
H -10.5893 -13.8242 -12.9243
H -10.2558 -14.9033 -14.1037
O 13.9071 -13.1825 -15.0121
H 14.405 -12.6365 14.4032
H 14.454 -13.2635 -14.1789
O -8.36192 11.8048 -0.0121742
H -9.31376 12.0907 0.0985756
H -8.05877 12.0089 -0.943018
O -9.93116 6.72592 0.844693
H -9.21047 7.2999 0.455918
H -9.52222 6.03748 1.44371
O -8.61626 2.8626 7.21874
H -8.06275 3.53472 6.72693
H -9.58395 3.0187 7.02071
O -6.42333 -4.94122 -4.03662
H -7.22723 -4.53526 -3.60196
H -5.8829 -4.22293 -4.4748
O 4.07992 2.60621 10.0241
H 4.40288 1.99284 10.7449
H 3.10776 2.44167 9.85727
O -2.23093 2.89949 -5.6529
H -1.28447 3.20951 -5.74285
H -2.36912 2.08341 -6.21408
O -11.2901 3.76715 7.38205
H -12.2004 3.85672 7.78601
H -11.347 3.91781 6.39511
O 8.30253 -14.1064 6.68728
H 8.31027 -14.3568 7.65541
H 8.18721 -14.9294 6.1311
O -8.9687 3.66652 10.4115
H -9.38881 4.57272 10.4596
H -9.60516 3.02648 9.98107
O 1.13625 -5.61385 -3.56992
H 1.3222 -6.41162 -4.1435
H 1.93264 -5.42306 -2.99601
O -7.0766 -3.40589 -8.41719
H -6.54246 -4.24117 -8.28681
H -6.85457 -3.00349 -9.30532
O 11.6273 -1.76928 -13.1693
H 11.8826 -2.04686 -14.0955
H 12.3763 -1.97799 -12.5405
O -12.2658 6.34775 -0.344058
H -12.2347 6.16325 -1.3264
H -11.3475 6.2573 0.0413647
O -1.266 8.61577 9.63049
H -2.12136 8.15208 9.3995
H -0.690095 8.67831 8.81537
O 11.6233 -9.88684 -8.68374
H 11.8719 -9.19461 -9.36123
H 10.6624 -9.77511 -8.43021
O 11.2878 2.65292 -4.96674
H 11.5027 1.88582 -5.57122
H 10.7108 3.30905 -5.45309
O -6.53734 13.7504 -6.37894
H -5.7098 14.3102 -6.42116
H -6.98105 13.7433 -7.27508
O 7.38162 -10.4139 -9.58116
H 8.06437 -11.1406 -9.50523
H 7.58561 -9.84692 -10.3793
O 3.06289 13.7126 3.32829
H 3.27889 13.4485 4.26829
H 2.0972 13.5295 3.14415
O 12.1079 10.8504 6.09839
H 11.6669 11.7258 5.90067
H 12.7862 10.6516 5.39101
O -1.52552 -12.6361 11.9488
H -1.12176 -12.9851 11.1031
H -2.51047 -12.8089 11.944
O -4.32361 4.22033 -7.25177
H -3.77397 4.51421 -8.03377
H -3.73607 3.76227 -6.58471
O 14.7577 10.2315 -2.23155
H -14.6902 10.0364 -2.97372
H 13.9332 9.67801 -2.34926
O 0.0172518 1.65409 -9.60784
H -0.0535246 2.6156 -9.34233
H -0.505191 1.50059 -10.4466
O -1.15417 5.61347 7.80961
H -0.182722 5.42336 7.95154
H -1.64833 5.48333 8.66919
O 8.88402 6.9229 6.67258
H 9.31352 7.70683 7.12089
H 9.21019 6.85835 5.72948
O -4.60121 2.64115 -4.12142
H -5.29971 2.02549 -4.48619
H -3.83571 2.69398 -4.76269
O -13.5906 1.10695 -11.4917
H -13.8138 1.97038 -11.9442
H -12.8035 0.687409 -11.9439
O -6.66233 -12.1758 13.7141
H -7.39575 -12.5876 13.1733
H -6.46597 -12.7551 14.5052
O -10.7076 -2.22816 -5.73436
H -10.2374 -1.54624 -6.29462
H -11.6306 -2.37331 -6.09074
O -5.32104 12.2475 8.56977
H -6.2981 12.0463 8.63952
H -4.83012 11.4228 8.28894
O -8.49623 1.94701 1.6023
H -8.99678 1.09904 1.77665
H -7.58033 1.73001 1.26462
O 6.09371 -11.6247 -7.31123
H 6.56388 -10.9163 -7.83765
H 6.30345 -11.5126 -6.33991
O 2.31549 14.124 -11.454
H 1.87085 13.3756 -11.9463
H 2.00189 14.9987 -11.8234
O -11.8659 14.6599 -10.8142
H -11.3368 14.7355 -11.6594
H -12.8087 14.4079 -11.0325
O 1.87182 -8.14876 -9.1603
H 2.54594 -8.35307 -8.45049
H 1.87537 -7.16706 -9.35069
O 6.13592 13.0677 10.6941
H 6.59122 12.9986 9.80642
H 5.80741 14.0026 10.8283
O -8.13655 -4.18343 -11.6009
H -8.02596 -3.27553 -11.1966
H -7.94133 -4.13802 -12.5806
O 12.8758 3.81804 -14.1123
H 13.0763 2.8389 -14.0795
H 13.14 4.18263 -15.0052
O -4.60119 10.2608 -2.97014
H -4.64006 9.46642 -3.57632
H -4.95338 11.0641 -3.4504
O 0.999088 8.56131 11.5483
H 0.572476 8.6022 12.4519
H 0.304541 8.34838 10.8611
O 7.75613 -0.0971384 -11.6923
H 8.40143 -0.754451 -11.303
H 8.06933 0.179366 -12.6009
O -5.38823 -13.4021 -5.34506
H -5.68133 -13.5398 -4.39893
H -4.68748 -14.0763 -5.57833
O -14.9389 10.6028 13.8515
H 14.6175 11.216 14.4347
H -14.1457 10.266 14.3588
O 1.34638 9.12461 -5.01117
H 0.965768 8.20287 -4.93689
H 1.90527 9.18881 -5.83793
O 8.0374 13.0464 -4.83745
H 7.88973 14.0156 -4.64048
H 8.93637 12.925 -5.25831
O -14.8121 2.12731 -7.43388
H -13.9367 2.28778 -7.88974
H 14.5514 2.06276 -8.11895
O 11.1901 13.026 14.0602
H 10.7759 12.1857 14.4098
H 11.2523 12.9773 13.0633
O -11.2551 -10.2541 -14.5199
H -10.6938 -9.6561 14.9972
H -12.0191 -9.73188 -14.1409
O -13.4102 3.78625 -12.0714
H -12.5488 4.00677 -11.614
H -13.4941 4.3318 -12.9053
O -9.86053 -9.92324 -10.8197
H -10.0795 -10.8629 -11.0827
H -9.41617 -9.45775 -11.5851
O -13.3783 8.743 -3.41344
H -13.0915 8.6895 -4.36993
H -12.5751 8.86812 -2.83109
O -8.95026 5.82708 -9.93912
H -9.33847 5.29268 -9.18832
H -9.16254 6.7949 -9.80396
O 6.52873 7.18534 4.02444
H 5.91622 7.4034 3.26465
H 7.47063 7.14193 3.69135
O 4.23093 -13.191 9.33301
H 4.51021 -13.2746 10.2896
H 4.53775 -13.9957 8.82468
O 9.73266 -12.2561 -10.8128
H 10.1619 -11.4014 -11.1048
H 10.1438 -12.5589 -9.95302
O 11.8755 -3.67078 -7.59582
H 11.0031 -3.42992 -7.17055
H 12.6248 -3.26618 -7.07155
O -3.39848 -9.25894 1.4414
H -2.68358 -8.97193 0.803798
H -4.25719 -9.38489 0.944656
O -10.2627 8.67378 12.1821
H -9.26476 8.73682 12.1917
H -10.5827 8.31745 13.06
O 12.1727 10.305 -0.550171
H 11.6052 10.1469 -1.35824
H 12.1267 9.50699 0.0507367
O 4.15939 -1.00326 6.69184
H 3.64374 -1.80463 6.99501
H 4.33576 -1.07229 5.70994
O 4.06776 -12.9466 4.41168
H 4.46879 -12.0716 4.68273
H 4.72901 -13.4616 3.86622
O -1.06507 -8.62894 -7.86175
H -1.10366 -8.07195 -7.03212
H -0.132323 -8.62577 -8.22226
O -5.44461 -4.69393 12.849
H -6.39328 -4.3876 12.9277
H -5.33022 -5.2096 11.9999
O -9.62928 -12.3269 1.394
H -9.77479 -13.0431 0.711358
H -8.90948 -12.6114 2.02723
O 7.56218 -8.86472 -12.043
H 7.42606 -7.87439 -12.0161
H 7.26086 -9.21869 -12.9284
O -12.2103 11.7302 -9.7193
H -11.7069 12.3565 -10.3146
H -13.0135 11.3833 -10.2035
O 12.5364 -5.86101 9.01747
H 12.7391 -6.18158 8.09219
H 13.0985 -6.36306 9.67477
O 9.67745 -10.2942 -4.1968
H 9.51552 -10.3635 -3.21243
H 10.3415 -10.9882 -4.475
O 8.99838 -1.28702 4.44046
H 9.33847 -1.97753 3.80208
H 8.47056 -1.73272 5.16348
O 8.46665 -14.9208 9.33025
H 8.13925 -14.2806 10.0252
H 8.8356 14.3526 9.77581
O 15.0364 7.48755 10.7104
H -14.3382 6.78835 10.736
H -14.6509 8.36522 10.449
O -12.2095 -6.53184 14.1655
H -13.1628 -6.62526 14.4528
H -12.1766 -6.22039 13.2158
O -13.1987 -2.97185 7.54392
H -14.0417 -3.26665 7.99381
H -12.5258 -3.71074 7.5797
O 9.38446 -10.5203 -7.21123
H 8.92181 -11.3585 -6.9225
H 9.13675 -9.77338 -6.59419
O -4.1663 0.600972 -9.75368
H -3.61663 1.04042 -10.4641
H -5.12526 0.584346 -10.0367
O -4.059 7.50236 9.24794
H -3.91489 6.52365 9.10175
H -4.55806 7.64168 10.1032
O 12.8649 7.40344 6.42806
H 13.7609 7.83518 6.32411
H 12.2255 7.79992 5.76937
O -14.3235 -8.38826 12.3354
H -14.4 -8.43423 13.3314
H -14.1153 -9.29744 11.9748
O -0.89371 4.15204 5.55109
H -0.251616 4.73248 5.05027
H -1.16533 4.60906 6.39806
O -9.77247 6.33717 10.4592
H -9.98518 6.3248 9.48212
H -10.016 7.22827 10.842
O 7.39142 4.43395 -3.19103
H 7.67232 3.54311 -2.83393
H 7.30577 5.08382 -2.43583
O -2.1534 -11.2904 -14.4815
H -2.20625 -11.1849 -13.4885
H -1.21521 -11.1239 -14.7849
O -13.7599 12.5728 7.29243
H -14.2217 12.9489 8.09571
H -13.3796 11.6754 7.5163
O -10.038 -12.0576 -12.7874
H -9.1166 -11.8641 -13.1244
H -10.6878 -11.4281 -13.2134
O 2.11505 4.12707 13.3417
H 2.53839 4.98273 13.0439
H 2.03197 4.12538 14.3382
O -2.78839 -1.74463 -6.49821
H -2.99894 -0.876167 -6.94704
H -1.91629 -2.09404 -6.84077
O -14.3097 12.8637 -2.42309
H -13.4236 12.4424 -2.22961
H -15.0315 12.1772 -2.3352
O 0.994433 -2.13809 -14.2678
H 1.52426 -2.30492 14.9898
H 0.312978 -1.42768 -14.4437
O -4.87398 4.84449 3.55493
H -4.47237 5.45395 4.2385
H -5.52881 5.35459 2.99726
O 6.58409 5.09752 0.271653
H 5.96203 5.34748 1.01365
H 6.97786 4.19697 0.455938
O -0.439217 6.35265 -14.7432
H 0.32429 5.7933 15.0231
H -1.20969 5.76055 -14.507
O 9.11673 -6.94046 7.59392
H 8.42021 -6.30203 7.2664
H 9.30507 -6.76165 8.55961
O -11.6388 -0.347479 -13.2653
H -11.0443 -0.483173 -14.0578
H -12.1054 -1.20483 -13.0479
O -1.33618 -12.0951 -4.7471
H -2.13509 -11.5184 -4.57621
H -0.58388 -11.8063 -4.15493
O -8.25691 -7.17575 -7.80441
H -9.03088 -6.66265 -8.17549
H -8.29041 -7.15326 -6.80522
O 11.8256 -12.2148 -7.32585
H 10.9095 -12.5989 -7.21085
H 11.7645 -11.3507 -7.82541
O 1.3504 -14.3895 -7.02909
H 0.399302 -14.0813 -7.00821
H 1.85555 -13.9629 -6.27886
O 14.874 -13.0862 5.26618
H 14.6619 -14.0358 5.49707
H 14.5607 -12.8913 4.33674
O 5.91224 6.25968 -13.7543
H 5.23316 6.97606 -13.5941
H 6.59192 6.58563 -14.4114
O -8.64047 -8.70943 9.91588
H -9.10889 -8.42709 9.0787
H -8.89919 -8.09911 10.6646
O 14.7267 -5.32339 -9.18735
H 14.5144 -5.5616 -10.1351
H 14.2797 -4.46028 -8.95242
O 0.308808 11.7427 4.952
H 1.28081 11.926 5.09898
H 0.0248703 12.1323 4.0759
O -14.6371 1.25887 3.47239
H -14.6042 2.18156 3.85654
H -14.6539 1.31388 2.47404
O -0.967198 10.4349 -4.19279
H -0.069002 10.0923 -4.46826
H -1.67738 9.81658 -4.52949
O 14.8663 -6.11255 -11.7659
H 14.4654 -7.01757 -11.6237
H -14.2338 -6.16037 -11.6261
O -2.634 -9.48412 6.27945
H -3.43905 -9.86738 6.73221
H -2.46208 -8.563 6.6287
O -13.8911 2.40241 -1.78272
H -14.2448 3.12104 -2.38146
H -13.3499 1.75641 -2.32106
O -2.57905 -2.5535 10.5196
H -2.69824 -2.94089 9.60541
H -3.45115 -2.18528 10.8419
O 8.59418 1.46171 7.17766
H 8.78146 0.558313 7.5634
H 7.62087 1.53622 6.9606
O 5.87905 -10.5172 1.46239
H 6.80547 -10.5783 1.83388
H 5.36965 -9.80947 1.95189
O -14.5811 -1.14151 5.59332
H -14.3072 -2.10314 5.57789
H -14.7861 -0.838362 4.66269
O -14.8085 1.48163 6.70011
H 14.5054 1.16234 7.24522
H -14.7022 0.895777 5.8967
O -14.2596 -13.1037 12.1846
H -14.9233 -13.6729 11.6993
H -13.8141 -13.6453 12.8975
O 14.172 8.39515 -14.164
H 13.4944 9.12896 -14.2125
H 14.0082 7.84373 -13.346
O -1.99088 9.01902 -12.4982
H -1.15419 8.48782 -12.6315
H -1.9623 9.46733 -11.6048
O 7.59793 13.1568 0.254278
H 7.88201 12.3669 0.797767
H 6.73862 13.5185 0.615872
O 5.12346 5.28727 8.38191
H 6.01182 5.63945 8.67652
H 4.39464 5.79472 8.8416
O 8.718 6.04696 -7.71607
H 9.19078 5.23719 -7.36856
H 7.81101 5.78688 -8.04731
O -7.15461 12.6744 4.3999
H -7.03762 13.5137 4.9308
H -6.42647 12.0292 4.63149
O 2.12921 -5.88954 -11.7209
H 2.44215 -5.51973 -12.5957
H 2.4251 -5.28729 -10.9794
O 11.9718 -7.52616 1.75707
H 11.5796 -7.57997 2.67535
H 12.4148 -8.3941 1.53247
O 2.42248 3.23464 4.63206
H 2.88928 3.24502 5.51636
H 1.87947 4.06838 4.53199
O -7.45023 -1.75006 -10.7792
H -7.54192 -0.754391 -10.7641
H -6.67214 -2.00447 -11.3535
O -2.63945 0.864584 12.4952
H -2.25064 1.77429 12.6411
H -2.49844 0.306776 13.3131
O -2.94328 4.89685 -9.52387
H -1.96049 5.0209 -9.38704
H -3.09713 4.18708 -10.2113
O 1.06578 5.7098 4.39648
H 0.8404 6.07281 3.49237
H 1.0191 6.44551 5.07218
O 7.47367 -3.04984 11.5771
H 7.37535 -3.56101 12.431
H 6.70305 -2.42085 11.4746
O 4.81409 -1.58411 -13.767
H 5.41526 -0.966037 -14.2736
H 4.20795 -2.05758 -14.4061
O 1.21699 -1.75194 11.5688
H 0.871151 -0.89258 11.1922
H 0.490687 -2.20583 12.0851
O -7.63618 0.766907 5.91502
H -6.8406 1.20653 5.49815
H -8.24321 1.46584 6.29317
O -5.92783 11.298 13.0874
H -5.3579 11.3408 13.908
H -6.3615 10.3988 13.0292
O 8.67966 -10.4238 2.75092
H 8.6315 -9.79631 3.52801
H 8.96908 -9.92281 1.93532
O -14.6869 -12.4663 -1.99358
H -14.0563 -12.1649 -2.70871
H 14.6061 -11.8613 -1.97454
O -6.75449 -14.0212 7.27697
H -6.37649 -13.3257 6.66593
H -7.73406 -14.1213 7.10253
O -2.97682 2.27046 -11.8638
H -3.72258 2.90471 -12.0677
H -2.80052 1.69543 -12.6627
O 8.43699 -4.18794 -12.6042
H 8.81854 -3.54069 -11.9443
H 7.44305 -4.08317 -12.6374
O -13.7404 -2.2538 -12.4747
H -14.1363 -3.08836 -12.8578
H -14.4741 -1.64364 -12.1756
O -13.6231 11.3913 -6.22355
H -14.1436 11.9134 -6.89926
H -12.7457 11.1177 -6.61749
O -4.63808 -2.80938 -4.99841
H -4.69932 -2.35416 -4.11014
H -3.91845 -2.37999 -5.54409
O 3.67496 -10.6021 13.7599
H 3.0682 -9.97928 13.266
H 3.14456 -11.3712 14.1166
O -3.19785 4.97274 10.0547
H -3.63037 4.07332 10.1177
H -2.79427 5.2112 10.938
O -2.23749 13.8372 -14.3302
H -3.21521 13.7472 -14.1406
H -1.96369 14.7929 -14.2225
O 10.8686 5.35878 11.2463
H 11.3729 5.82938 10.5222
H 9.9091 5.63925 11.2207
O 5.28293 -12.7106 -12.3079
H 4.89507 -12.4019 -11.4394
H 5.57136 -11.9178 -12.8447
O 4.91601 4.58056 11.6234
H 4.53841 5.5049 11.5685
H 4.43843 3.98643 10.9761
O 11.0545 9.25061 -11.4793
H 10.7793 10.0204 -10.9033
H 10.3196 9.03648 -12.1229
O 3.19773 4.79316 -9.29795
H 3.28433 5.38084 -10.1024
H 2.85374 5.33061 -8.52801
O 2.3111 10.8728 11.6733
H 1.80267 10.0213 11.5447
H 2.25849 11.4216 10.839
O 13.6732 2.24886 -9.46387
H 12.7477 1.87854 -9.54313
H 13.8306 2.91229 -10.1954
O -13.4126 5.66046 5.26301
H -13.7694 4.91168 4.70442
H -12.4915 5.89721 4.95398
O -9.93873 2.8932 -0.611972
H -9.56671 2.52445 0.239865
H -10.6702 2.29652 -0.942116
O -13.6911 -12.7877 -7.16956
H -14.6021 -12.8896 -7.56922
H -13.1671 -13.6266 -7.31608
O 2.63874 14.9717 0.0352009
H 2.49123 14.5224 0.916332
H 1.89335 -14.4742 -0.139883
O 0.412544 13.3063 2.01359
H 0.523354 12.5443 1.37556
H -0.52941 13.3261 2.34875
O 6.04391 -11.3885 8.0553
H 5.40438 -12.0242 8.48757
H 6.20749 -11.6714 7.1102
O 11.4615 10.1572 -5.52885
H 10.9805 9.32571 -5.80677
H 12.4481 9.99632 -5.55563
O 13.5744 -3.41997 -5.19713
H 13.5906 -4.41938 -5.22765
H 14.1131 -3.10153 -4.41712
O 9.6187 7.00046 3.81062
H 10.0413 6.11737 3.60668
H 10.1699 7.73364 3.41234
O -11.4932 5.24722 -2.7269
H -11.0083 5.70631 -3.47129
H -10.9075 4.53758 -2.33526
O 2.26556 8.76112 7.15241
H 1.40412 9.25255 7.02428
H 2.9832 9.19981 6.61153
O -3.97631 6.82056 5.07419
H -4.30495 7.61661 4.56595
H -3.24399 7.10049 5.69495
O 12.4439 10.4824 10.9607
H 12.812 10.4252 10.0327
H 13.1859 10.3674 11.6212
O 14.5988 -9.65174 1.965
H -14.9693 -8.90261 1.55602
H 15.0379 -10.5226 1.74434
O -5.87477 6.33139 -6.16379
H -6.03229 7.03903 -6.85258
H -5.33511 5.5908 -6.56416
O 5.30562 1.07165 -0.78082
H 5.96146 1.35361 -1.48109
H 5.55514 1.48457 0.0951048
O 4.50896 -3.11285 -7.3675
H 3.62028 -3.28039 -7.79431
H 5.19361 -2.94692 -8.07724
O 10.2722 3.11807 -14.9778
H 10.442 2.83806 14.1664
H 11.1129 3.4898 -14.5841
O 13.7374 14.3787 5.53061
H 13.3008 14.1051 4.67356
H 13.9954 13.563 6.04839
O 4.02735 2.1635 -14.5378
H 4.09264 1.58613 -13.7239
H 3.21855 2.74745 -14.4682
O 8.9538 14.6895 -1.55778
H 8.42135 14.1572 -0.89963
H 9.9109 14.7152 -1.26916
O -5.82816 11.8495 -9.47578
H -6.65118 12.2462 -9.06921
H -5.18437 12.5797 -9.70474
O 6.14617 2.88943 -5.245
H 5.75801 3.51827 -5.91871
H 6.50301 3.41039 -4.46958
O 4.59927 -14.8307 11.6504
H 3.60712 -14.7922 11.7693
H 5.02419 -14.0745 12.1481
O -12.511 6.6438 13.1071
H -13.4944 6.81058 13.1792
H -12.2696 6.48206 12.1502
O -13.4945 9.90939 -0.162903
H -14.1472 10.221 -0.853468
H -13.6068 8.9264 -0.0176086
O -2.08675 -10.0158 3.67715
H -2.85704 -9.68431 3.13237
H -2.34539 -10.035 4.64294
O -12.0978 1.31707 -4.10168
H -11.8943 0.850255 -3.24105
H -12.9387 0.943082 -4.49302
O 1.70845 -12.7 8.22765
H 2.61913 -12.4159 8.52766
H 1.50813 -12.2909 7.33742
O -12.8587 4.02187 -4.88641
H -12.7161 3.05764 -4.66294
H -12.6381 4.58477 -4.08987
O -11.2639 11.595 -0.196652
H -11.9577 10.97 0.161202
H -11.3303 11.6311 -1.19379
O 4.08166 2.14852 -3.24284
H 4.43641 1.84122 -2.35982
H 4.72533 1.89818 -3.96603
O 6.25484 -13.8312 -3.2293
H 6.26107 -14.5434 -3.93131
H 5.42822 -13.9184 -2.67334