2593
Atoms. Timestep: 18495000
O 6.1789 3.25852 2.82596
H 6.86072 3.46406 3.52806
H 6.19867 2.28049 2.61832
O 6.68249 1.75773 -9.20538
H 6.52231 1.37808 -8.29419
H 5.93908 2.3837 -9.44107
O 14.0945 6.75157 4.8467
H 14.8031 6.1266 5.17425
H 13.712 7.25667 5.6204
O 13.0832 -1.088 5.80436
H 12.241 -1.3154 6.29326
H 13.3393 -1.84982 5.20927
O -8.29961 7.8581 7.15624
H -8.69821 8.73764 7.41621
H -7.34924 7.99275 6.87566
O -13.3413 -13.3951 4.88883
H -12.9928 -12.7251 5.54436
H -14.3109 -13.5626 5.06699
O -5.08878 0.495974 10.1293
H -4.17454 0.0942357 10.0761
H -5.75553 -0.21934 10.3386
O -9.61811 -6.75003 1.39128
H -9.90578 -7.03204 2.30657
H -9.53557 -7.5558 0.804777
O 2.17701 -14.4742 -11.6442
H 2.67086 -14.2006 -10.8188
H 2.35507 14.3832 -11.8345
O -4.15803 -4.58032 11.8288
H -4.32194 -3.63614 11.543
H -4.80563 -5.18584 11.3662
O -7.23268 12.4849 -10.9066
H -6.57711 12.1094 -10.2514
H -8.12755 12.0626 -10.762
O 0.556812 -1.03123 5.17313
H 1.48756 -1.38808 5.09303
H 0.240686 -1.13338 6.11636
O 3.40382 0.636062 -6.31046
H 3.07542 1.49326 -5.9137
H 3.2739 -0.106641 -5.65352
O 12.131 12.5898 -6.48622
H 12.3089 12.5874 -7.4703
H 12.5492 11.7825 -6.06991
O 13.5802 3.45547 7.57275
H 12.5951 3.53296 7.419
H 13.7855 3.66221 8.52939
O -2.40974 6.84432 3.16528
H -3.2153 6.58949 3.70024
H -2.60536 6.72682 2.19164
O 14.7817 12.1693 6.61604
H 14.5378 12.4755 5.69584
H -14.4443 12.847 7.04566
O 3.84925 10.7842 -12.6208
H 3.31427 11.6139 -12.461
H 4.20052 10.7893 -13.5571
O -3.89635 10.5709 -3.74623
H -3.26615 9.86691 -3.41877
H -3.79529 10.6746 -4.73572
O -9.98182 -10.0078 7.79165
H -10.5206 -10.4922 8.48095
H -10.498 -9.21842 7.45931
O 12.776 -5.61454 1.84315
H 12.829 -4.66864 2.16333
H 12.6009 -6.21995 2.61958
O 7.8836 -4.12525 -8.59375
H 7.14234 -4.47715 -9.16539
H 8.07636 -3.17658 -8.84459
O -2.2464 10.9598 7.74774
H -2.10307 10.0294 7.41017
H -1.44306 11.2539 8.26559
O 4.50831 0.824369 10.1787
H 4.38992 1.26345 11.0693
H 3.61215 0.598643 9.79657
O 11.3308 2.47855 10.001
H 11.2459 1.65843 9.43506
H 12.1633 2.41878 10.5517
O -10.6108 -1.81816 13.4876
H -10.0537 -2.38349 14.0959
H -10.0668 -1.04606 13.159
O -8.16971 -9.19867 5.93877
H -8.20407 -9.74819 5.10397
H -8.98897 -9.37154 6.48558
O -7.45839 0.847767 -6.30342
H -7.12468 0.653056 -7.2258
H -6.87491 0.388047 -5.6339
O -7.73396 2.38306 -1.58869
H -8.48034 2.26697 -0.933335
H -6.90333 1.96031 -1.22621
O 4.53039 -13.318 10.2359
H 5.17384 -13.3784 9.47271
H 5.03176 -13.3704 11.0995
O 6.06146 -4.67917 -6.06242
H 6.78991 -4.56761 -6.73841
H 5.37151 -5.31029 -6.41696
O -13.5015 -4.55302 -14.1546
H -13.3082 -3.62349 -13.8405
H -14.3596 -4.86975 -13.7502
O -14.487 -6.82225 6.23501
H -14.0562 -6.33142 5.47768
H -14.5986 -6.20353 7.0127
O -2.39606 -7.26375 -5.01562
H -2.42697 -6.49662 -5.65642
H -3.10024 -7.14227 -4.31603
O -6.68675 -2.86939 -8.10569
H -5.74842 -3.19221 -8.22971
H -7.31154 -3.45404 -8.62325
O -12.8491 -0.295075 12.5907
H -12.1099 -0.853238 12.9677
H -13.5985 -0.244325 13.2509
O -8.34725 11.1259 8.23871
H -8.51209 11.6841 9.05193
H -7.7955 11.644 7.58508
O -1.62284 8.39764 6.73172
H -1.02162 8.25942 5.94464
H -1.22141 7.96334 7.53813
O -0.413249 -5.3997 -0.391035
H -1.30221 -5.85382 -0.450917
H -0.460686 -4.66157 0.281997
O 1.08095 -9.77025 -9.3843
H 0.564512 -10.5904 -9.13786
H 1.12803 -9.15662 -8.59608
O 14.7136 -6.48486 9.94279
H 13.7967 -6.60765 9.56294
H 14.6667 -5.88021 10.7379
O -8.48536 6.7753 1.67353
H -8.59473 7.48713 2.36735
H -7.88476 7.10799 0.946448
O 3.71384 -1.74998 13.8663
H 3.74863 -2.41385 14.6133
H 4.61501 -1.68257 13.438
O -6.51412 -13.2163 7.98706
H -6.66777 -12.2646 8.25294
H -6.29817 -13.7586 8.7991
O 14.6129 -3.45016 -2.94296
H 14.4901 -4.05275 -3.73155
H 14.1816 -3.8606 -2.13949
O -2.84764 -5.3806 8.56049
H -2.50458 -6.23549 8.94974
H -3.75134 -5.53518 8.16113
O -4.291 -12.6231 14.7776
H -4.78661 -13.4182 14.428
H -4.91645 -12.0439 -14.5224
O 12.2462 -13.3492 10.8237
H 11.4145 -13.1557 11.3441
H 12.6195 -14.2322 11.1081
O -8.8883 -9.74836 -14.8607
H -9.63133 -9.32364 14.4449
H -9.26379 -10.2142 -14.0594
O -8.27046 3.0004 -8.23615
H -8.40919 2.868 -7.25468
H -8.77347 2.29921 -8.74148
O -4.66206 -7.23105 -3.2691
H -5.24753 -7.56768 -2.53156
H -4.98874 -6.33563 -3.57168
O -7.26356 13.0417 6.68638
H -7.81585 13.865 6.81735
H -6.30324 13.2518 6.86991
O -2.05858 -10.6456 3.65317
H -2.51472 -9.77577 3.84128
H -1.76452 -11.0608 4.5141
O 10.0173 -4.23338 -11.1863
H 10.8641 -3.76284 -10.9381
H 9.27004 -3.5707 -11.2361
O 13.7948 -2.95233 -8.04744
H 14.4364 -3.13264 -7.30185
H 13.4308 -2.02527 -7.95713
O 4.71325 2.80304 5.36669
H 4.88174 2.03035 5.97875
H 5.30714 3.56608 5.62188
O 12.5486 2.05366 5.2015
H 12.9617 1.16026 5.37842
H 13.1189 2.77004 5.6035
O 11.7794 8.03339 -10.9735
H 10.8156 7.82412 -11.1389
H 12.352 7.37975 -11.4684
O -3.90981 8.53699 -10.5534
H -3.21312 7.89499 -10.8736
H -4.54162 8.06421 -9.93909
O -11.1741 13.2517 13.2393
H -11.0569 13.3241 14.2298
H -12.127 13.4407 13.0016
O 6.53808 10.7217 -3.46739
H 7.06676 9.89413 -3.27861
H 6.06462 11.0118 -2.63566
O -14.0056 9.87189 -4.6246
H -13.1813 10.376 -4.36673
H -14.3069 10.1671 -5.53129
O -6.1851 -9.97758 -14.6492
H -5.95999 -10.1638 -13.6929
H -7.11817 -9.62282 -14.7091
O 6.75412 7.41611 8.04366
H 6.33473 7.40455 8.95143
H 6.55172 8.28612 7.59403
O -2.27492 -14.3333 2.74972
H -1.58303 14.8227 3.02657
H -1.82772 -13.4776 2.48922
O -5.54612 12.8625 10.9321
H -5.99683 13.6857 10.5867
H -4.80119 12.6068 10.3158
O -11.5195 6.27733 7.76417
H -11.4956 5.3947 7.29466
H -11.4538 6.13165 8.75134
O -2.06906 0.612358 -11.4721
H -3.01286 0.935308 -11.4014
H -1.44279 1.37553 -11.3127
O 13.4712 9.46863 10.0979
H 12.9668 9.68495 9.26195
H 14.0787 8.69238 9.9292
O 2.04489 -9.81715 9.73017
H 2.29139 -9.02074 9.17787
H 2.52595 -10.6234 9.38581
O 12.0823 -11.4317 -6.05958
H 11.2265 -11.524 -6.56852
H 12.6237 -12.2661 -6.1637
O -10.8691 9.54393 -14.2774
H -10.6101 8.84715 -13.6084
H -10.4321 9.34295 14.6687
O 13.1018 -0.766517 -2.97811
H 13.4963 -1.68345 -3.03854
H 13.8338 -0.0859153 -3.01042
O -7.94618 3.29274 -12.376
H -7.54129 3.81402 -13.1273
H -7.54398 2.37751 -12.3506
O 6.0059 7.80054 3.10114
H 6.86165 7.32173 3.29733
H 5.23612 7.17705 3.23809
O -7.25237 -6.89716 -1.20697
H -6.80898 -6.00082 -1.20108
H -8.13256 -6.83056 -1.67694
O 7.97009 8.51502 -2.73022
H 8.74926 8.05545 -2.30391
H 7.20537 7.87491 -2.80449
O -6.64233 -10.9463 12.4565
H -6.80903 -11.9298 12.3861
H -6.16385 -10.7497 13.3124
O 9.46546 2.74865 -12.5966
H 8.86388 2.00012 -12.3175
H 10.3679 2.62223 -12.1847
O 8.05976 -2.72403 14.8736
H 7.92995 -3.71005 -14.8445
H 9.03758 -2.51449 14.8756
O 2.31887 -10.8087 -1.60444
H 3.28611 -11.0522 -1.67644
H 2.17968 -9.88627 -1.96483
O -5.91385 7.45334 -9.01664
H -6.1062 7.15375 -8.08214
H -5.91376 6.66135 -9.62722
O 9.2069 1.50482 -7.21552
H 8.23945 1.39883 -6.9856
H 9.76193 1.36104 -6.39617
O -2.60633 4.75747 -14.0278
H -2.98837 3.86346 -14.262
H -1.60766 4.70687 -14.0404
O -0.543788 -5.81984 10.1997
H -0.436998 -5.22409 10.9957
H -1.15701 -5.38669 9.53905
O 8.35521 2.37665 -1.50204
H 7.76289 2.06644 -2.24566
H 8.70942 3.2871 -1.71573
O 5.3121 4.40435 -3.37385
H 4.65602 4.47541 -4.12523
H 4.81991 4.36432 -2.50425
O 7.19598 7.76976 14.5641
H 7.67365 8.60142 14.8474
H 7.63087 6.97498 -14.8353
O 8.04345 -7.29021 -5.17194
H 7.17188 -7.62777 -5.52756
H 8.50531 -8.0225 -4.67145
O -14.7204 -10.4744 -3.25387
H 14.5722 -10.0479 -3.98665
H -14.4514 -11.397 -3.53061
O 9.71831 6.9718 12.3816
H 9.92376 6.22382 11.7504
H 10.3848 6.97138 13.1271
O -5.10611 1.56316 -0.599634
H -4.81977 2.13249 0.171031
H -4.69852 1.91396 -1.44276
O 13.0542 13.6807 3.93742
H 12.0702 13.5021 3.93288
H 13.5493 12.8228 3.79971
O 11.4145 -6.57875 4.18171
H 10.9249 -5.72023 4.02889
H 10.7842 -7.34672 4.06766
O -1.76195 1.81213 -8.45769
H -2.65578 1.38418 -8.59179
H -1.88436 2.72373 -8.06521
O -8.45094 14.5272 9.84156
H -7.68203 -14.7294 10.1384
H -8.57061 14.6192 8.853
O 13.3622 2.03255 -9.06725
H 12.8174 1.35869 -8.56805
H 14.1054 1.56895 -9.54976
O 5.48443 0.748378 6.87914
H 6.36556 0.331821 6.65519
H 4.85599 0.0429761 7.20705
O -9.09819 -12.2329 1.19178
H -9.14963 -11.259 1.41288
H -9.4374 -12.3822 0.262962
O -11.0982 6.64732 5.13391
H -10.3901 7.27748 4.81515
H -11.3521 6.87873 6.07307
O 8.58043 -10.7425 -12.8352
H 8.74803 -10.5017 -11.8791
H 7.64156 -11.0716 -12.9364
O 12.0327 -10.4126 9.93916
H 12.3101 -11.1714 10.5285
H 11.968 -10.7315 8.99353
O 10.5183 13.9115 -0.907262
H 10.7042 13.0352 -0.462635
H 10.8266 14.6571 -0.316457
O 1.49577 1.29232 10.0598
H 1.40977 1.65269 10.9887
H 1.30735 0.310211 10.0645
O 2.22127 -5.82412 9.37743
H 1.48853 -6.15867 9.97006
H 1.91131 -5.83302 8.42669
O 12.2346 9.66889 -1.11644
H 12.2797 10.6433 -1.33682
H 12.2471 9.5508 -0.123489
O 13.3278 -8.49036 -11.3708
H 12.7477 -9.23404 -11.7032
H 12.883 -8.0418 -10.5955
O -10.4311 -4.04787 11.3885
H -10.8224 -4.92634 11.6626
H -10.6594 -3.35367 12.0711
O 10.0468 12.1865 8.35269
H 9.62445 11.3876 8.78088
H 11.0012 12.2549 8.64323
O -14.1704 6.21933 -10.1979
H 14.8751 6.33375 -9.57931
H -13.4847 6.92117 -10.0048
O 14.1046 5.64392 -4.4266
H 14.8028 6.2294 -4.83879
H 13.8954 4.8876 -5.0465
O 14.5349 -5.56561 -9.26902
H -14.2901 -5.53602 -9.20912
H 14.1628 -4.65615 -9.08348
O 7.79354 -9.44755 -3.35171
H 6.91425 -8.99067 -3.21693
H 8.36787 -9.30986 -2.54472
O 2.87754 -8.53343 7.42246
H 2.41845 -7.65639 7.28072
H 2.32465 -9.26684 7.02688
O 8.16174 -14.3827 -8.62151
H 8.4267 14.728 -9.27162
H 7.73022 -14.8036 -7.82358
O -0.863229 8.92714 10.2359
H -0.242142 8.1513 10.3472
H -0.331649 9.76927 10.1449
O 1.7854 -5.96473 6.63281
H 1.49044 -6.21456 5.71051
H 2.61532 -5.40946 6.57841
O 5.47149 6.50386 12.8743
H 6.13199 7.01374 13.4254
H 4.96496 5.87201 13.461
O -0.409692 10.9811 3.65109
H -0.0658655 10.0608 3.83785
H -1.40938 10.9749 3.67629
O -13.9268 -11.49 -8.16251
H -14.8556 -11.7898 -7.94433
H -13.4973 -11.112 -7.34235
O 9.62929 -4.70065 3.4305
H 9.67941 -3.70273 3.38937
H 8.89357 -5.0223 2.83442
O 8.38203 -10.1227 -10.1694
H 7.70119 -10.8302 -9.98001
H 9.12268 -10.1851 -9.50042
O -14.1674 7.22742 -5.99313
H -13.4742 6.90793 -5.34699
H -14.2091 8.22631 -5.97033
O 0.70491 5.76699 -9.9702
H 0.561331 6.05295 -9.02275
H 0.512416 6.53377 -10.5826
O -10.3341 -14.2839 2.3884
H -9.86228 -13.4637 2.06461
H -9.66389 14.8205 2.57451
O -3.14036 -14.5891 -13.3855
H -3.43031 -13.8067 -13.9366
H -2.22585 -14.418 -13.0188
O -11.6396 9.07467 8.3738
H -11.4951 8.10513 8.17589
H -11.4399 9.6151 7.55642
O -9.34656 0.342172 -0.171298
H -8.57686 0.00382622 0.370133
H -9.12486 0.274951 -1.14412
O 0.262145 14.1418 7.12233
H 0.591144 13.9752 6.1928
H 0.990194 14.5633 7.66304
O -3.24065 13.3512 8.99182
H -3.15327 12.4772 8.51386
H -2.3917 13.5496 9.48174
O -0.1743 12.5963 -0.909208
H 0.449099 13.1382 -0.345489
H -1.04824 12.4925 -0.434312
O -9.97866 0.907545 -9.55961
H -9.46806 0.055448 -9.67481
H -9.94172 1.43558 -10.4081
O 12.4036 -6.6261 8.93714
H 12.7409 -6.87938 8.03043
H 11.4574 -6.31071 8.86463
O -8.16282 5.14691 6.51355
H -8.52517 4.5932 5.76377
H -8.52279 6.07737 6.44495
O -13.7792 -4.86363 12.9422
H -13.2153 -5.5181 12.4385
H -13.6602 -5.00792 13.9246
O 11.0921 -8.02574 11.1385
H 11.192 -8.98478 10.8733
H 11.445 -7.43971 10.4091
O 3.40785 5.67384 -10.5411
H 3.80493 6.40358 -9.98448
H 2.49089 5.45934 -10.2046
O -11.0705 5.1299 10.233
H -11.241 5.38042 11.186
H -11.1011 4.13473 10.1393
O -10.5361 2.61387 -11.7174
H -9.58635 2.89748 -11.8498
H -10.923 2.32545 -12.5933
O 12.0326 -0.495515 9.92832
H 11.3042 -0.659856 10.5935
H 12.7923 -0.0235784 10.3757
O 12.7445 -7.05196 -2.87873
H 12.869 -7.87166 -2.31958
H 11.9738 -6.5215 -2.52564
O 8.21178 -3.10275 6.80428
H 8.45787 -3.98836 6.41034
H 8.39797 -3.11167 7.78678
O -9.64343 2.36614 -5.85692
H -8.99854 1.60317 -5.90211
H -10.4958 2.05759 -5.43454
O -2.98968 -6.28615 0.198789
H -3.7629 -5.6793 0.382946
H -3.31362 -7.23045 0.140353
O 5.02249 14.6388 -2.38386
H 4.86416 14.4147 -3.3455
H 5.86716 -14.6554 -2.29951
O -0.337039 -12.0089 -8.56094
H -0.294013 -12.9317 -8.94386
H -1.13205 -11.9346 -7.95887
O 10.709 -2.41131 -14.5451
H 11.0805 -2.75363 -13.682
H 11.4508 -2.30054 14.6163
O -2.61161 3.65566 12.8703
H -3.36959 3.00334 12.8737
H -2.64046 4.1958 12.0292
O -3.88419 -4.02553 14.7451
H -4.47564 -4.64748 -14.5645
H -3.54992 -4.48607 13.9227
O 1.37607 0.699669 13.312
H 0.790362 0.619987 14.1186
H 1.40101 -0.176359 12.8303
O 11.9749 9.93211 12.3292
H 11.9503 9.44928 13.2046
H 12.7083 9.55711 11.7622
O 0.421224 11.2004 13.3596
H -0.508804 10.9199 13.1221
H 0.647098 10.8652 14.2743
O -3.65042 -12.6236 9.71415
H -3.12846 -12.6805 8.86304
H -3.15037 -12.064 10.3751
O 7.29653 -12.7274 -14.9039
H 7.54135 -11.8745 14.4578
H 6.65345 -12.5331 -14.1631
O -1.90705 6.9579 -7.9989
H -1.93086 7.86549 -8.41814
H -0.971095 6.74468 -7.71858
O -3.23775 -10.1017 7.83794
H -2.90814 -9.2286 8.1972
H -4.22086 -10.0412 7.66503
O -13.4666 -10.1541 8.92552
H -12.9661 -10.4826 9.72661
H -13.4626 -9.15413 8.91691
O 6.17776 -7.55823 10.1947
H 6.16867 -8.55017 10.3213
H 6.8235 -7.3207 9.46901
O 14.3284 -9.10185 10.8689
H 13.5286 -9.37542 10.3346
H 14.5597 -8.15161 10.66
O -1.3578 -2.6435 14.2215
H -1.17967 -1.73837 14.6076
H -2.1584 -3.04425 14.6671
O 0.131462 4.93731 13.1981
H 0.604774 4.4448 12.4677
H -0.803111 4.5915 13.282
O -0.941161 12.7039 -11.804
H -1.78995 13.0493 -11.4036
H -0.932602 12.8971 -12.7851
O -5.94911 -14.2498 10.5079
H -6.38012 -13.8119 11.2969
H -5.01021 -13.9185 10.4144
O 3.78672 8.63761 5.37111
H 4.09023 9.19558 4.59871
H 2.92232 8.19086 5.14027
O 7.04353 3.20665 -14.2071
H 6.60171 2.35886 -14.5006
H 7.92567 2.99454 -13.7865
O 8.05999 -5.56262 5.65792
H 8.82401 -5.44291 5.02389
H 7.26317 -5.90362 5.15908
O 10.3865 0.100194 -2.98361
H 10.222 0.712141 -2.20998
H 11.266 -0.360345 -2.8631
O -5.90114 -12.8961 -4.71488
H -6.22427 -12.743 -5.6488
H -6.66886 -12.8155 -4.07913
O -11.1773 13.7227 -13.8585
H -11.7134 14.2137 -13.1718
H -10.742 12.9278 -13.4358
O 7.25517 -13.8069 -2.01302
H 7.96587 -14.2365 -2.57014
H 7.67712 -13.1708 -1.36698
O 6.02484 -2.11972 12.586
H 6.66201 -2.86801 12.4012
H 6.50746 -1.2465 12.5179
O 3.04936 10.3488 12.7558
H 2.22796 10.8993 12.9049
H 3.00658 9.92442 11.8513
O -12.4578 -5.10791 1.68795
H -12.3289 -5.67684 0.875693
H -13.2616 -4.52612 1.5633
O -2.53839 -1.80631 11.7394
H -2.73229 -0.825263 11.7393
H -1.95309 -2.03028 12.5187
O -0.922218 -14.7271 -9.22119
H -0.0390055 14.6882 -8.98909
H -1.56922 14.3731 -9.4644
O -4.37243 -7.67725 -11.1002
H -3.75435 -7.40725 -11.8385
H -4.14577 -8.60304 -10.7975
O -12.9855 2.24447 11.4891
H -12.2789 2.17218 10.7851
H -13.0637 1.37311 11.9736
O 13.8678 -0.30544 14.4268
H 13.3747 0.533466 14.6574
H 14.5752 -0.475583 -14.71
O 5.48215 9.75499 -8.98331
H 5.1933 8.91211 -8.52925
H 5.81485 9.54159 -9.90191
O 8.69122 -6.59055 -11.9341
H 9.25953 -5.85343 -11.5684
H 8.27311 -7.09515 -11.1787
O 8.62283 -2.13166 -12.2541
H 8.43841 -1.14953 -12.2924
H 8.29097 -2.56602 -13.0915
O -3.65729 -8.88832 -0.418908
H -3.89455 -9.2013 -1.33858
H -3.58722 -9.67581 0.193465
O 13.3109 10.0115 6.36618
H 13.7825 10.8848 6.4882
H 12.6204 9.90278 7.08138
O 8.81042 10.4169 -0.716282
H 8.2523 9.92377 -0.0488931
H 8.24196 10.6823 -1.49503
O -9.65147 1.69272 2.42026
H -9.6941 1.55477 1.43071
H -9.30439 2.6103 2.61425
O -4.18079 0.736052 -4.92394
H -3.67168 0.0656523 -5.46378
H -5.00987 0.31104 -4.56056
O -3.59793 12.6532 -13.3513
H -3.26916 13.5928 -13.4469
H -4.57609 12.6618 -13.1435
O 12.1319 -14.5291 -4.92109
H 11.9477 14.3176 -5.03623
H 12.5787 -14.3759 -4.03961
O 9.03671 14.707 -12.2716
H 9.59437 -14.2994 -12.4216
H 9.22831 14.3348 -11.3634
O -4.05042 -1.9148 -9.83036
H -3.92323 -2.78976 -9.36311
H -3.58818 -1.94001 -10.7168
O -6.87422 2.27403 5.58762
H -6.50261 2.48137 6.49258
H -6.74756 3.06311 4.98648
O -4.85927 -8.81514 11.5838
H -4.55832 -9.76345 11.6848
H -4.06327 -8.20989 11.5945
O -7.16606 -5.76661 2.42004
H -7.93827 -6.22105 1.97592
H -7.50746 -5.07366 3.05512
O -10.0645 -9.0625 0.0830173
H -10.6813 -9.38209 0.80241
H -9.13138 -9.01737 0.439738
O -3.78716 -0.0972465 14.0514
H -4.22804 0.545732 13.4251
H -4.04909 -1.03142 13.8089
O -6.70147 -4.26293 -12.9192
H -6.11869 -4.92815 -13.386
H -7.07581 -4.67332 -12.0877
O 13.2523 -11.3744 3.65276
H 12.606 -10.9372 4.27814
H 13.5702 -12.2352 4.0502
O 6.64372 -12.1977 -9.56546
H 7.10437 -12.8935 -9.01431
H 5.71267 -12.0656 -9.22526
O 7.34629 7.76062 11.0946
H 8.28767 7.44347 11.2099
H 6.76857 7.354 11.8024
O -10.6404 -13.8767 5.56873
H -11.1567 -13.2329 6.13342
H -10.6719 -13.5821 4.61363
O -6.22903 -5.01669 -4.14904
H -7.15788 -5.38709 -4.15827
H -6.24768 -4.06254 -4.44787
O -11.7235 -1.19363 -1.42899
H -12.1545 -0.388437 -1.02162
H -10.8564 -0.929685 -1.8516
O 10.3079 -6.44988 13.9994
H 10.3937 -6.91648 13.1191
H 10.1101 -7.1206 14.7143
O 11.2746 1.92892 -4.86841
H 10.8416 1.28189 -4.24073
H 11.1514 2.85992 -4.52469
O -11.5273 -12.6599 -14.0028
H -12.1996 -13.1967 -13.493
H -11.951 -12.2962 -14.8324
O 13.5803 3.28579 13.2276
H 13.5768 4.28533 13.2588
H 13.5163 2.92302 14.1573
O -10.2268 12.7065 10.4246
H -9.54644 13.4341 10.3358
H -10.7912 12.8747 11.2328
O -8.12247 12.8425 -7.21951
H -8.84783 13.1691 -7.82551
H -8.4606 12.8165 -6.27874
O 14.3134 -7.0865 -6.90133
H -14.5975 -7.43605 -6.68651
H 14.2859 -6.79147 -7.85645
O 10.7501 -9.01756 -5.15368
H 11.2733 -8.16653 -5.10833
H 11.337 -9.78396 -4.89242
O 8.16862 -2.66189 9.41247
H 7.65955 -1.81892 9.58658
H 7.71641 -3.42558 9.87327
O 14.1107 -10.6911 7.51235
H 14.4713 -10.6986 6.57964
H 14.8566 -10.5227 8.15678
O -2.76688 -0.148695 8.15181
H -2.44063 0.73882 8.47728
H -2.23071 -0.877543 8.57768
O -1.39785 -8.23311 9.2645
H -1.03962 -7.46038 9.78852
H -1.29758 -9.07287 9.79817
O 7.8781 -8.04709 1.70493
H 8.76808 -8.3968 1.99768
H 7.31063 -7.86572 2.50813
O -4.11904 4.60809 7.21722
H -4.71326 3.81385 7.34427
H -4.59049 5.43117 7.53396
O -10.0134 13.8944 -9.10132
H -10.9006 14.076 -8.67723
H -10.0727 13.0645 -9.65602
O 14.8746 8.81154 2.20847
H 14.5288 7.95578 1.82361
H -14.1932 8.61462 2.83389
O -0.096823 13.2759 -14.2938
H -0.313413 12.5564 14.8692
H -0.520889 14.1336 -14.5847
O 8.03386 -0.974038 -3.75351
H 8.79788 -0.955909 -3.10854
H 7.63435 -0.0598975 -3.82277
O -8.63275 12.8643 -4.49518
H -9.13845 12.1005 -4.094
H -7.85838 13.097 -3.90678
O 3.75885 3.44421 -5.38667
H 2.94324 3.98292 -5.17545
H 4.17624 3.78733 -6.22816
O -14.6166 5.8173 7.52346
H -13.9375 5.85043 6.79015
H 14.6541 4.98888 7.42922
O -0.625319 -2.38472 -6.89656
H -0.504956 -1.40022 -6.76873
H 0.156354 -2.75356 -7.39955
O -4.18517 6.77992 8.71545
H -3.46185 7.47045 8.71019
H -4.80209 6.94927 9.48407
O 8.67208 -12.7961 9.72863
H 8.99798 -12.0225 10.2721
H 8.65206 -13.6183 10.2976
O -3.97114 9.87981 -13.1611
H -4.08109 9.46077 -12.2598
H -4.22607 10.8456 -13.113
O -1.19838 12.1632 -8.02488
H -1.0178 12.1728 -9.00842
H -0.575653 12.7966 -7.56546
O -0.42801 -9.70532 11.2854
H -0.525963 -10.5439 11.8213
H 0.487422 -9.67107 10.8844
O 6.75803 1.81156 -3.70463
H 6.28443 2.58672 -3.28644
H 6.22055 1.46886 -4.47517
O 0.632093 -8.41079 1.28349
H 1.03024 -7.90293 0.519547
H 0.024631 -7.80968 1.80283
O -1.33081 -11.2635 6.24641
H -1.84094 -10.6308 6.82915
H -1.4822 -12.201 6.55971
O 6.4671 -8.31321 -13.7653
H 5.70944 -8.82487 -13.3601
H 6.99313 -7.86716 -13.0412
O 1.28294 -2.11633 -13.12
H 1.6636 -1.30006 -13.5546
H 1.00621 -1.89747 -12.1843
O -2.77123 4.36004 -7.84366
H -2.5032 5.32008 -7.76275
H -3.24685 4.07548 -7.01128
O -1.1094 -8.70662 -1.26828
H -0.635217 -8.88421 -0.405917
H -2.076 -8.52616 -1.08615
O 5.98814 3.20009 8.5126
H 5.4124 2.38594 8.5884
H 5.84658 3.78405 9.31198
O -13.8511 -7.77187 -3.003
H -13.9801 -8.75985 -3.08856
H -14.5091 -7.29792 -3.58828
O -8.69669 -4.54892 7.63422
H -8.27737 -5.01715 8.41202
H -8.98725 -5.2239 6.95597
O 11.5372 7.97293 -8.13187
H 10.6765 7.6196 -7.76513
H 11.4566 8.08444 -9.12239
O 12.9122 12.1892 -8.96558
H 13.059 11.213 -9.12545
H 12.7524 12.6497 -9.83881
O 7.12685 8.59018 0.667146
H 6.61985 8.04206 0.00188381
H 6.62887 8.60657 1.53421
O -13.0733 -2.32517 -12.7587
H -12.1459 -2.416 -12.3957
H -13.7342 -2.57387 -12.0506
O -10.4304 -10.0036 -4.64697
H -10.6073 -10.2638 -3.69774
H -10.3826 -9.00708 -4.71598
O 8.18709 4.5564 -8.22414
H 8.30614 3.56562 -8.28923
H 8.96462 4.95426 -7.73712
O -0.38793 7.81641 -1.10486
H 0.304805 8.36411 -0.635599
H -1.01371 8.42129 -1.59738
O 2.97503 -3.55367 -0.420203
H 3.34954 -2.62928 -0.347405
H 2.31321 -3.70398 0.31428
O 0.556521 6.24292 -7.22084
H 0.796952 5.3785 -6.77923
H 1.17787 6.96126 -6.90784
O -5.88405 -1.56012 -13.0467
H -6.33797 -2.45086 -13.0224
H -4.96486 -1.64384 -12.6618
O -8.54051 10.3425 0.793181
H -7.91128 9.75713 1.3045
H -8.25512 10.3822 -0.164437
O 5.19235 10.6282 14.867
H 5.70435 11.4862 14.8254
H 4.7368 10.469 13.9911
O -1.58052 8.97791 -3.18607
H -1.81116 8.16924 -3.72728
H -0.677893 9.31329 -3.45596
O 6.00958 14.7025 -10.9112
H 6.71149 -14.4115 -10.9809
H 6.23716 14.0806 -10.1619
O -6.88009 7.87062 -13.6608
H -7.39078 7.26292 -13.0525
H -5.96608 7.49572 -13.816
O 3.84794 -14.1024 -9.18248
H 3.09832 -14.607 -8.75408
H 4.53324 -14.7473 -9.52096
O 11.8452 -10.2454 5.72925
H 11.8072 -10.7776 6.57507
H 12.354 -9.39965 5.89014
O 13.786 -9.22069 -5.39109
H 13.1955 -9.96867 -5.69422
H 13.7548 -8.47894 -6.06108
O 9.9489 0.506516 -9.47805
H 9.5244 0.925789 -10.2806
H 9.5976 0.942163 -8.64929
O 10.9037 -5.40155 -1.70717
H 10.2761 -4.63554 -1.84643
H 10.6008 -5.94223 -0.922352
O 0.0247797 -14.3718 0.312605
H -0.775466 -14.5246 0.892539
H 0.851737 -14.6346 0.809697
O -6.95618 -6.46865 13.8452
H -6.84494 -5.52571 13.5313
H -7.29298 -7.03328 13.0917
O 4.5062 -1.27918 -11.9021
H 5.14738 -1.35816 -12.6655
H 4.0908 -2.17086 -11.7221
O 5.32139 -13.5155 7.59431
H 4.67156 -12.7674 7.4599
H 6.2446 -13.1981 7.37755
O 11.6967 6.79512 14.4596
H 11.2977 6.32495 -14.576
H 12.3584 7.47429 14.7772
O 5.73334 6.2924 -0.287208
H 6.67499 5.96223 -0.221293
H 5.15293 5.57117 -0.665369
O 1.42972 -2.14315 12.3728
H 1.14832 -3.09986 12.4474
H 2.28169 -2.00591 12.8781
O -9.95382 -10.8748 -12.505
H -9.83735 -11.2595 -11.5893
H -10.6739 -11.3739 -12.9871
O -4.99116 5.86737 -13.5632
H -4.00967 5.69327 -13.6433
H -5.49728 5.03857 -13.8019
O -1.54027 5.62828 8.27877
H -1.46688 5.79894 9.2614
H -2.49967 5.48414 8.03623
O -4.55636 8.87759 0.581755
H -5.01755 9.59963 1.09753
H -5.22403 8.18555 0.307266
O 1.2762 13.0623 11.5294
H 2.15959 12.7988 11.1418
H 1.11472 12.5475 12.3714
O 5.10758 8.0491 -2.33925
H 5.22901 7.43406 -1.56012
H 4.49066 8.7934 -2.08338
O 1.18518 -10.1854 -14.6191
H 1.70879 -9.38723 14.9057
H 0.325629 -9.88475 -14.2057
O 7.63513 13.0851 -1.45968
H 8.61305 13.294 -1.46673
H 7.13151 13.8597 -1.07715
O 8.71766 9.31868 5.77037
H 7.97727 9.51621 6.41291
H 8.42744 8.60038 5.13802
O -5.76541 -7.48226 4.23876
H -6.33646 -7.06186 4.9439
H -6.13518 -7.26298 3.33586
O 11.8283 -5.37304 -13.5728
H 11.279 -5.85242 -14.2573
H 11.2639 -5.17545 -12.7713
O 13.5967 11.9452 0.275235
H 14.1568 11.2759 -0.213119
H 14.078 12.8211 0.30931
O 10.7974 5.34987 -13.1911
H 11.6283 5.61125 -12.6997
H 10.4721 4.46781 -12.8503
O -12.5842 -4.56323 7.69778
H -13.5548 -4.33134 7.63295
H -12.0645 -3.75112 7.96316
O 10.6984 12.2753 3.52276
H 10.7713 12.2645 2.52545
H 10.9393 11.3746 3.88435
O 6.1326 -14.1022 2.13839
H 6.98312 -13.72 1.77701
H 5.60766 -13.3801 2.58899
O -9.16988 -3.48197 0.939153
H -9.96791 -3.96105 1.30478
H -8.89757 -3.9009 0.0728978
O 13.8241 -13.5309 -7.07755
H 13.2761 -13.8078 -6.28818
H 14.4737 -14.2569 -7.30342
O 1.43938 8.12987 13.0423
H 0.451128 7.97705 13.0352
H 1.64211 8.97721 13.5332
O 13.6117 6.13636 0.685882
H 12.6372 6.10181 0.907762
H 14.1355 5.697 1.4157
O 9.97969 -9.02282 3.86545
H 9.03483 -9.26114 4.09017
H 10.5965 -9.44044 4.53269
O 13.1408 -3.11811 3.12658
H 13.9226 -2.79481 2.59336
H 12.4229 -2.42197 3.1212
O -14.7294 0.159495 -10.3531
H -14.631 0.680207 -11.2011
H -14.6364 -0.816795 -10.5487
O -13.3782 9.09353 14.3215
H -12.4242 9.18061 14.6087
H -13.4275 8.53306 13.4948
O 0.888177 -14.0152 10.0198
H -0.0181802 -13.9561 10.4382
H 1.36042 -14.828 10.3609
O -12.737 -4.60403 -9.27681
H -12.3996 -3.66296 -9.25201
H -12.207 -5.13071 -9.94149
O -7.80826 -13.2512 12.4678
H -8.34404 -13.3734 13.3033
H -8.37113 -12.8027 11.7735
O -11.2497 4.58093 -6.13552
H -12.1435 4.1378 -6.20481
H -10.529 3.893 -6.22179
O -14.6501 -3.15825 1.13083
H -14.0629 -2.38151 1.35886
H 14.6544 -2.95187 0.300967
O -13.1981 3.45437 -9.06065
H -12.2256 3.35591 -9.27156
H -13.5347 4.31815 -9.43567
O 5.8157 -13.3975 -6.11423
H 6.6037 -12.8093 -5.93229
H 5.21833 -13.412 -5.31237
O -2.55807 -9.2824 -6.79983
H -2.43593 -8.43114 -6.28944
H -2.68872 -10.0392 -6.15936
O -10.8689 7.12696 0.212692
H -9.93642 6.98892 0.546646
H -11.501 7.14618 0.987389
O 10.2849 -12.5918 -13.6054
H 9.51737 -11.9732 -13.437
H 10.2157 -12.9647 -14.5307
O -4.90314 -14.2027 -9.69514
H -5.72198 -14.6729 -9.36576
H -4.71775 -13.4099 -9.11452
O -8.01833 11.4904 4.34374
H -7.63256 11.6187 5.25741
H -8.14039 12.3809 3.90542
O 1.08098 5.35588 7.21398
H 0.132435 5.29583 7.52498
H 1.56684 4.5178 7.46221
O 7.34444 -9.49306 4.39342
H 6.76315 -9.06422 5.08497
H 6.7754 -10.0088 3.7529
O 4.10098 -6.67849 -7.08995
H 4.26366 -7.66503 -7.07177
H 3.13 -6.49783 -6.93305
O -9.49014 -14.2214 -14.8731
H -10.099 -13.5165 -14.5093
H -9.86546 14.6978 -14.6665
O 9.97629 -1.86755 2.99061
H 10.0103 -1.81292 1.99266
H 9.25421 -1.26631 3.33291
O 2.16403 2.95309 8.12958
H 2.08913 2.48743 7.24776
H 1.93496 2.31448 8.86426
O 6.336 -10.1167 13.6995
H 5.51679 -10.0833 13.127
H 6.27371 -9.41721 14.4116
O -13.9521 13.569 12.4619
H -14.1958 14.3372 11.8698
H -14.3538 12.7281 12.0992
O -12.9861 6.64948 2.02318
H -13.3475 5.90049 1.46783
H -13.0473 6.40628 2.99125
O 9.73811 13.426 -10.0363
H 9.24823 12.5584 -9.94999
H 10.6649 13.2537 -10.37
O 11.1728 9.82779 -13.0235
H 11.9542 9.46969 -13.5346
H 10.8955 9.16316 -12.3297
O -7.37896 -9.40653 1.34877
H -6.7697 -9.78539 2.04542
H -6.85036 -8.84132 0.715382
O -3.15176 -14.0851 -0.807519
H -3.15649 -13.1013 -0.628094
H -2.67301 -14.2649 -1.66689
O -5.86537 -14.5688 14.3241
H -6.6393 -14.3831 13.7186
H -6.06366 14.4471 14.8806
O -0.758644 4.75117 3.10501
H -1.50947 4.09131 3.07503
H -1.11905 5.65614 3.33123
O -2.94443 6.64 13.4147
H -3.21418 5.91866 14.0527
H -3.37094 7.50251 13.6871
O 8.46553 -13.1606 4.36148
H 7.59275 -13.0195 3.89414
H 8.30209 -13.298 5.33844
O -5.78642 5.44932 -10.8552
H -5.78265 5.90582 -11.745
H -4.91239 4.98384 -10.7157
O -0.0984654 -1.92281 2.54369
H -1.08161 -1.82789 2.38728
H 0.120004 -1.63507 3.47618
O -1.25705 -9.65016 -13.6909
H -1.28334 -10.3973 -13.0267
H -2.1826 -9.46518 -14.0213
O 13.9511 9.73699 -9.86395
H 13.5394 9.15921 -10.5688
H 14.7055 10.2602 -10.2605
O -1.98513 -13.7255 7.45321
H -1.38229 -14.4922 7.6742
H -2.64344 -14.0094 6.75599
O 10.0019 -5.67469 -7.79644
H 9.89798 -5.63883 -6.80247
H 9.41398 -4.98435 -8.21816
O 0.264923 -8.67155 -7.06909
H 0.0270159 -7.84456 -6.55964
H -0.541977 -9.25666 -7.15039
O 3.68181 -9.36923 11.958
H 3.07904 -9.39811 11.1606
H 3.24493 -8.84245 12.6872
O 7.61896 0.967652 -11.7816
H 7.07893 1.31541 -11.0152
H 7.05107 0.366443 -12.3439
O -10.9217 6.68054 12.7398
H -11.9195 6.73939 12.7719
H -10.5384 7.59302 12.5965
O 4.95158 12.8236 -4.49664
H 5.54529 12.0215 -4.43187
H 4.01756 12.5679 -4.24704
O -4.1609 2.60328 -2.7974
H -3.71926 2.14281 -3.56745
H -4.07459 3.59351 -2.90718
O 3.79795 2.08193 12.9228
H 2.80494 2.06636 13.0401
H 4.14624 2.9913 13.1504
O -13.9949 9.16958 4.96218
H -13.8999 9.88282 5.65666
H -14.9051 8.76039 5.02709
O 1.80083 -5.70016 -11.6199
H 1.14718 -6.10779 -10.9823
H 1.30963 -5.3234 -12.4053
O 10.0109 12.3312 -14.6995
H 9.1503 12.2235 -14.2016
H 10.7608 11.9576 -14.1536
O 5.89843 -11.4034 -12.6136
H 4.93661 -11.6723 -12.5621
H 6.24979 -11.2441 -11.6909
O 2.8474 9.38455 -10.5219
H 3.63655 9.03366 -10.0178
H 3.16283 9.88947 -11.3254
O 3.61771 -0.868744 0.938294
H 3.83763 0.0287747 1.32059
H 2.82752 -1.25069 1.41764
O -14.0685 -1.34638 10.311
H -13.2868 -1.55408 9.7228
H -13.7696 -0.76947 11.0712
O 13.624 -14.2478 -13.4756
H 13.0667 -13.8843 -14.2222
H 13.6741 -13.5739 -12.7385
O 12.6971 6.18261 8.97983
H 12.1515 6.63434 8.27387
H 13.6678 6.35377 8.81135
O -1.63132 9.60142 -8.94993
H -1.74488 10.5289 -8.59368
H -1.96984 9.56169 -9.89008
O 4.94148 -4.7834 -2.0941
H 4.33029 -4.29224 -1.4734
H 5.29497 -4.15102 -2.78344
O 1.63379 5.37804 -4.87172
H 1.62899 6.33765 -5.15308
H 0.976092 5.24478 -4.13028
O 4.11973 -6.14906 11.1838
H 3.36231 -5.99217 10.5499
H 4.91969 -6.46726 10.675
O 14.1619 -14.8963 -2.94651
H 14.5359 -14.529 -2.09486
H 14.1718 13.9273 -2.91132
O 4.04873 -12.0311 -4.11972
H 3.27841 -11.438 -4.35398
H 4.42282 -11.7573 -3.23364
O -2.27967 -4.41634 4.14296
H -1.94965 -5.16878 3.57289
H -1.80006 -4.42775 5.0204
O 7.62995 11.4321 4.03651
H 7.69935 10.6698 4.68012
H 8.49952 11.542 3.55503
O 6.96874 6.70242 -9.96493
H 6.12302 7.01783 -9.53443
H 7.41403 6.03099 -9.37251
O -13.8576 -5.20606 4.25447
H -14.3369 -4.33805 4.38437
H -13.2232 -5.12472 3.48572
O -10.88 2.5306 9.46727
H -10.0311 2.19025 9.06273
H -11.4743 2.8856 8.74556
O -10.8913 -2.95607 3.96715
H -10.7853 -2.45114 3.11049
H -10.3799 -2.49416 4.6918
O 2.14011 -7.67472 14.5333
H 2.55722 -7.94002 -14.4203
H 2.29797 -6.70059 14.3714
O -8.51833 4.12129 -3.95904
H -8.83343 3.60808 -4.7574
H -8.10564 3.49236 -3.30011
O 2.52873 7.97432 -6.4187
H 2.00959 8.8102 -6.59719
H 3.31729 8.1884 -5.84217
O -6.56897 -2.41196 10.9711
H -6.35895 -2.39806 11.9488
H -7.0231 -3.27241 10.74
O 6.2491 -3.03103 -3.45314
H 6.37464 -3.55401 -4.29622
H 6.80777 -2.20236 -3.48862
O -9.5483 5.64874 -8.89832
H -9.58592 6.09674 -8.00505
H -9.27212 4.69474 -8.78139
O -9.38807 9.03771 4.40198
H -8.91442 9.8221 4.80256
H -10.1759 9.35736 3.87546
O -12.1976 3.12041 13.9407
H -12.7895 3.10491 13.1348
H -12.2585 4.01582 14.3818
O -4.85237 -3.8198 5.77538
H -4.74654 -3.02113 6.36782
H -4.13834 -3.81243 5.07527
O -13.3436 5.2175 5.17984
H -13.2323 4.27176 4.87448
H -12.4617 5.68717 5.13828
O 9.79951 -13.2848 -4.29438
H 10.7217 -13.5342 -4.5899
H 9.18185 -14.0573 -4.44192
O -11.0585 3.53403 -2.72067
H -10.1678 3.67306 -3.15354