2593
Atoms. Timestep: 18495000
O 3.92155 -2.7979 4.56744
H 4.78954 -2.32704 4.40973
H 3.91466 -3.66178 4.06381
O -12.4119 14.8719 4.45125
H -11.5309 -14.9571 4.07569
H -13.0671 -14.4928 4.37711
O -11.1292 -5.27287 2.74458
H -11.474 -5.90725 2.05272
H -10.1378 -5.37543 2.82635
O -1.79633 -8.50343 -0.00274127
H -1.72556 -7.55441 0.304422
H -2.71414 -8.84929 0.192182
O -1.44863 0.0389725 9.64417
H -1.27075 -0.917325 9.41214
H -2.31908 0.323125 9.24222
O -0.886325 4.9107 11.4779
H -1.58869 4.40145 10.9805
H -0.247793 4.26925 11.9031
O 11.5342 -11.6699 0.984649
H 12.0625 -10.9964 0.467588
H 11.3963 -11.3397 1.91844
O -9.54959 -5.7254 0.113908
H -10.454 -6.13819 0.222097
H -9.02992 -5.83439 0.961287
O -7.64736 0.228015 2.00383
H -7.13527 0.0909037 1.15592
H -8.30689 0.969202 1.87875
O 12.0603 2.7679 0.367696
H 11.6438 3.00652 -0.509535
H 11.3423 2.60735 1.04493
O -13.2518 10.7781 -2.03203
H -12.7984 10.0475 -2.54263
H -14.199 10.8626 -2.34118
O 14.2478 11.2067 -3.10191
H 13.5786 10.9503 -2.40451
H 14.0489 12.1297 -3.43128
O -13.7148 -13.127 -9.59261
H -13.1175 -12.806 -8.85763
H -13.5831 -14.1096 -9.72399
O 12.1176 -9.03128 -8.10804
H 11.237 -8.70953 -7.76026
H 12.3091 -9.94105 -7.73976
O 11.0958 3.21451 4.38522
H 10.5566 2.96987 3.57937
H 10.4849 3.36027 5.16336
O -6.60383 -9.01007 12.5853
H -6.00248 -8.50267 13.2025
H -7.28086 -8.3874 12.193
O -8.31559 -11.1843 8.55546
H -9.26568 -11.4313 8.36495
H -8.07531 -10.3617 8.04007
O -11.8453 8.88815 -3.39553
H -11.9584 8.44633 -2.50559
H -10.8712 9.01234 -3.58459
O 12.4184 14.2231 0.428012
H 13.0953 14.9187 0.187159
H 12.8844 13.3649 0.642994
O 9.59174 -10.429 -11.0027
H 9.5082 -10.7649 -11.9409
H 9.75935 -9.44323 -11.0153
O 6.65224 -8.95552 -7.69803
H 5.70727 -8.94501 -8.02499
H 6.82516 -9.80862 -7.20578
O 12.3179 6.65945 11.0122
H 12.5121 5.87176 11.5969
H 12.3019 6.36859 10.0556
O -11.9934 -6.80114 0.64109
H -11.7637 -7.7733 0.687518
H -12.5349 -6.62546 -0.181034
O -3.36088 -4.73467 -4.5149
H -3.64153 -4.22665 -3.70057
H -3.40812 -4.13562 -5.31421
O -12.334 6.39372 -9.01142
H -13.317 6.52291 -8.88126
H -12.0533 6.81728 -9.8727
O 0.502476 -3.55081 13.0854
H -0.492112 -3.44707 13.0809
H 0.898033 -2.9418 13.7729
O -4.86299 2.78924 7.33893
H -4.87522 2.73146 6.34068
H -4.63815 3.72341 7.616
O -6.94703 -3.54258 -0.261529
H -7.73766 -3.93115 -0.734727
H -6.25867 -4.25452 -0.122645
O 4.18793 4.24485 -14.0195
H 4.02266 4.27238 -15.0054
H 3.33244 4.04058 -13.5437
O -13.1463 -9.10361 4.14917
H -13.3435 -8.38699 4.81814
H -13.9847 -9.60909 3.94521
O 11.5124 5.20616 -12.531
H 11.4836 4.44914 -11.8782
H 12.4507 5.54282 -12.6097
O -1.5291 13.3244 12.6036
H -2.14501 12.6468 13.0055
H -1.59473 13.2846 11.6066
O 5.18423 12.0756 -3.13745
H 5.99216 11.4878 -3.17946
H 5.13531 12.6346 -3.96517
O 1.85367 -2.14422 -12.7557
H 2.14221 -2.60165 -11.9146
H 0.86115 -2.0226 -12.7454
O -9.77139 -5.94793 -15.0517
H -10.2369 -5.25482 14.5145
H -9.09453 -6.42163 14.5014
O -12.073 -0.643904 -9.61597
H -11.5206 0.166471 -9.42079
H -11.6777 -1.13819 -10.3902
O 12.4684 -11.8632 -7.38889
H 13.3318 -12.3332 -7.20563
H 12.2839 -11.8762 -8.37163
O 8.18132 -5.37345 -13.0268
H 9.0109 -5.22273 -13.5644
H 8.43048 -5.58474 -12.0816
O 0.957951 -6.49776 3.00265
H 0.297945 -7.23877 3.12633
H 0.616458 -5.66961 3.44709
O 11.6062 9.77562 -4.72675
H 10.8656 10.3164 -4.32788
H 12.4157 9.83721 -4.14289
O 14.8247 10.5514 4.5281
H -14.6515 10.4949 5.29412
H 14.1749 11.2938 4.6909
O -2.92763 -9.59593 -14.2067
H -3.5093 -8.81733 -14.4421
H -2.13551 -9.61668 -14.8167
O -2.22779 12.5115 -8.74386
H -1.93675 12.6707 -7.8005
H -1.56366 12.9187 -9.37082
O 14.6594 -13.61 5.10293
H 14.2329 -14.2422 4.45613
H 14.7417 -14.052 5.99611
O -1.10004 2.11296 -9.50444
H -0.371531 2.71118 -9.17069
H -1.2745 1.39331 -8.83239
O 7.9343 -8.48376 -3.64231
H 8.68073 -8.51016 -2.97739
H 7.81726 -7.54804 -3.97506
O 1.92612 14.4889 -13.9027
H 2.12699 13.5177 -13.7753
H 2.73294 15.0301 -13.6656
O -6.98245 -4.29628 14.1107
H -7.56887 -4.07542 13.3314
H -6.04397 -4.43281 13.7935
O 0.0519333 -3.384 9.40118
H 0.695186 -3.11179 10.1168
H 0.528492 -3.93619 8.7171
O -2.236 -5.79236 -14.5298
H -2.74385 -4.94182 -14.3931
H -2.31185 -6.07597 14.6308
O -8.12415 -14.2854 12.4094
H -7.14206 -14.1394 12.5284
H -8.54245 -13.4549 12.0416
O 4.20099 -8.93495 -9.85468
H 3.92097 -9.5239 -10.6128
H 3.73365 -8.05384 -9.9269
O 12.2766 -0.625649 7.73356
H 12.0683 -0.804526 8.69512
H 11.7127 -1.21502 7.15512
O 14.8187 -7.2318 -10.9567
H 14.7829 -7.52903 -11.9109
H 14.6812 -6.2424 -10.9105
O -10.0141 -3.3045 -6.35768
H -9.32303 -3.00113 -7.01374
H -9.83868 -4.25598 -6.10486
O 9.05161 -11.8873 5.98484
H 9.41734 -10.9566 5.97607
H 8.23374 -11.9294 5.411
O -8.93064 -6.29609 -12.5564
H -9.11634 -6.04793 -13.5071
H -8.9548 -7.29121 -12.4608
O -2.11106 -10.0185 -8.00122
H -2.03621 -10.4487 -8.90086
H -1.4103 -9.31087 -7.91079
O 4.18697 -7.57315 -5.20791
H 3.71838 -7.26528 -4.37989
H 3.52829 -8.0092 -5.82109
O -8.36631 -5.96585 2.41875
H -7.67536 -6.6887 2.42668
H -8.08245 -5.22671 3.02955
O -7.62806 -12.167 -1.58298
H -6.65226 -11.9596 -1.65236
H -7.85553 -12.9131 -2.20864
O -12.3383 -9.05684 -10.0482
H -12.8334 -8.39252 -9.48833
H -12.4598 -8.83396 -11.0155
O -12.3942 -4.33086 4.97913
H -12.009 -4.851 5.74142
H -11.9598 -4.61907 4.12575
O -14.157 2.50938 -12.7222
H -13.4211 2.91191 -13.2667
H -14.9839 2.4385 -13.28
O 12.5455 14.455 -13.4283
H 13.0521 13.6606 -13.7634
H 11.5645 14.2648 -13.466
O 14.0035 4.51507 -6.82809
H 14.9528 4.4718 -6.51685
H 13.7591 3.65359 -7.27318
O -6.42603 -4.5255 -13.3795
H -6.76051 -5.41367 -13.0644
H -6.74119 -4.36322 -14.3145
O 3.98471 -13.5222 2.26413
H 4.42582 -13.499 1.36698
H 3.8952 -14.471 2.56708
O 11.0086 -7.107 -12.345
H 10.1828 -7.39332 -11.859
H 11.29 -6.2039 -12.0206
O 11.5919 -1.69333 -2.00745
H 11.933 -0.836484 -1.62089
H 11.8548 -1.75258 -2.97043
O -5.08189 -5.49419 -0.316633
H -5.11464 -5.74699 0.650326
H -5.22611 -6.30836 -0.879065
O -5.34136 -8.62218 -5.63617
H -4.45444 -8.98572 -5.92114
H -5.95733 -8.59108 -6.42332
O -10.4447 -1.58995 9.64718
H -10.1245 -1.11121 8.82972
H -11.4231 -1.77793 9.56154
O -4.39393 -10.1609 9.63755
H -4.87188 -10.0411 10.5077
H -3.53249 -10.644 9.7942
O 12.0489 -12.6093 6.0858
H 12.9461 -13.0506 6.07256
H 11.3881 -13.2108 6.53476
O -15.014 8.36817 7.57847
H 14.4229 8.50938 8.29838
H 14.7534 7.70542 6.91598
O -11.6247 7.88735 13.3636
H -12.0771 7.94468 12.4736
H -10.7068 7.508 13.2471
O 7.56285 -7.29157 11.038
H 7.99197 -7.93531 10.4044
H 8.03942 -7.32089 11.9167
O -1.89263 7.60936 -3.30324
H -2.35214 6.74436 -3.50479
H -2.51034 8.36965 -3.50417
O 12.1706 13.2621 -2.49586
H 11.9339 13.3317 -1.52677
H 12.6675 14.083 -2.77736
O -6.87654 6.96724 -2.91021
H -6.85724 6.58165 -3.83268
H -5.9573 7.2669 -2.65491
O 3.68965 5.61189 -1.09339
H 3.45059 5.45286 -0.135508
H 4.0035 6.5546 -1.20652
O -8.51973 -7.00386 11.9819
H -7.66795 -6.4812 11.946
H -9.1519 -6.65898 11.2881
O 14.5914 1.8435 4.78393
H 14.2398 2.21446 3.92443
H 13.9718 2.08676 5.5302
O 1.94659 14.4987 8.38575
H 1.09463 14.4658 7.8632
H 2.20872 -14.6646 8.53624
O 8.90606 -1.65079 -1.32882
H 8.82717 -2.56365 -0.928265
H 9.793 -1.56112 -1.7819
O 8.24152 15.0331 -0.909752
H 7.81978 -14.2575 -1.28384
H 8.7786 -14.8461 -0.100301
O 1.49664 -6.16236 12.0471
H 1.40377 -7.00468 12.578
H 1.11954 -5.39667 12.5681
O 7.98315 -6.6294 -8.48748
H 7.52487 -7.44739 -8.13984
H 7.40002 -5.83115 -8.33669
O 9.70795 -13.8248 14.8432
H 10.3344 -13.5071 14.1313
H 10.2314 -14.0976 -14.4662
O -9.48919 2.74975 14.2235
H -9.91376 1.84535 14.1812
H -9.63338 3.22654 13.3564
O -12.3399 12.4693 8.36798
H -11.3649 12.4107 8.58255
H -12.6239 13.4281 8.36728
O -4.78678 0.12576 -3.96141
H -5.26741 -0.746553 -3.87172
H -3.92463 -0.0171598 -4.44748
O -12.1295 3.57812 -14.0783
H -11.4079 3.87493 -13.4528
H -11.7409 3.42541 -14.9869
O -6.351 14.9073 4.23049
H -6.01362 14.1214 4.7488
H -7.31005 14.7601 3.98853
O 12.437 -9.79197 -12.5871
H 12.1567 -8.85979 -12.8163
H 12.9723 -9.78101 -11.7425
O -4.53215 -7.70092 13.977
H -3.67596 -7.67037 13.4613
H -4.69299 -6.81343 14.4089
O 5.84913 3.1489 10.0616
H 6.24113 3.1705 10.9813
H 5.91715 4.0572 9.64882
O -7.58749 -2.41455 10.8852
H -8.50396 -2.07595 10.6721
H -7.20702 -1.8898 11.6467
O 8.56169 12.8625 -10.8124
H 8.8468 13.2398 -9.93132
H 7.60947 12.5627 -10.7542
O 12.1134 -9.91877 -4.88607
H 11.7305 -10.7634 -4.51189
H 13.087 -10.0487 -5.07389
O -3.05571 8.29554 8.97074
H -3.20811 8.74842 8.0923
H -3.81878 8.49515 9.58546
O -4.55228 -14.615 9.99586
H -4.73837 -14.5046 10.9722
H -4.92346 -13.8329 9.49528
O 2.91424 -7.97403 1.99562
H 3.23545 -8.28903 2.88869
H 2.10189 -7.40339 2.11584
O -13.362 11.2159 14.5404
H -13.3387 10.7554 -14.6887
H -12.4493 11.5597 14.3193
O 10.2426 -5.6005 -2.85984
H 11.1855 -5.26755 -2.86265
H 10.0491 -6.04633 -1.98588
O 13.5733 2.08538 -13.5965
H 13.3358 1.11447 -13.5658
H 13.8619 2.32878 -14.5225
O -1.26359 -14.1689 14.0448
H -1.35883 -13.8527 14.9887
H -1.7565 -15.0315 13.9309
O 10.1719 11.5637 -3.52621
H 11.0059 12.0319 -3.23425
H 9.37397 12.0915 -3.235
O -6.82411 3.47186 0.387706
H -6.04199 2.89818 0.144491
H -7.5224 3.40291 -0.324774
O 12.0368 -5.00459 10.8937
H 11.8656 -4.66802 9.96777
H 11.5598 -4.42348 11.5531
O -13.5285 10.7304 6.7163
H -14.0134 9.89401 6.97182
H -12.9714 11.0412 7.48643
O -14.9145 7.32853 -2.60322
H -15.0304 7.98917 -3.3449
H 14.4047 7.36064 -2.00056
O 4.46365 3.35962 13.2791
H 4.08099 3.88365 12.5182
H 5.44362 3.54494 13.352
O 5.04596 8.48431 -4.08046
H 4.34239 8.86217 -4.68229
H 4.64887 8.29222 -3.18302
O 13.149 1.2932 -10.2475
H 14.0525 1.1931 -10.6641
H 12.5157 0.640957 -10.6642
O 1.30718 10.6259 11.0387
H 1.56267 11.4869 10.5989
H 2.10328 10.2412 11.5058
O -5.31895 12.1867 -0.359055
H -4.56755 12.7527 -0.698227
H -5.037 11.7287 0.48398
O -8.29718 -4.05026 -2.69246
H -7.53348 -4.53371 -3.12029
H -9.14409 -4.55749 -2.852
O 5.79609 12.1941 -11.486
H 5.54235 12.7047 -10.6645
H 5.49737 11.2443 -11.3937
O 12.6019 9.81919 -1.5256
H 12.8138 9.56139 -0.582928
H 11.6219 9.70656 -1.68971
O -7.69826 -9.4185 0.727356
H -7.31825 -8.6036 0.28974
H -6.95432 -10.0312 0.994022
O -2.26635 12.8799 1.82923
H -1.54489 12.679 1.16656
H -2.44842 12.0659 2.38078
O 0.0723446 -1.0102 -5.76779
H 0.396353 -1.69913 -5.11943
H 0.768491 -0.859574 -6.46971
O -13.6672 -10.8033 8.16061
H -13.7163 -10.9941 9.14102
H -14.335 -10.0973 7.92463
O -8.87598 -0.570522 -6.27692
H -9.54181 -0.117395 -5.68419
H -9.24437 -1.44883 -6.58164
O 8.94524 -8.28496 8.57555
H 9.687 -8.43496 9.22922
H 8.87428 -9.07385 7.96514
O -10.3535 -2.09792 -11.1718
H -10.4862 -3.02847 -10.8306
H -9.62428 -1.65303 -10.6519
O 2.54901 -13.6798 12.3647
H 3.34277 -14.2116 12.6599
H 1.73308 -14.2575 12.389
O 6.37501 6.6908 3.73023
H 6.32743 7.46273 3.09631
H 5.47674 6.54369 4.14431
O -0.0380049 5.74227 -9.25
H -0.0841539 6.11983 -8.32518
H 0.188914 4.76955 -9.20197
O 15.046 -14.6991 11.9226
H -14.7084 -13.9922 11.315
H 14.0478 -14.7108 11.8626
O 3.35875 9.31333 -7.37976
H 3.64616 8.43887 -6.98898
H 2.41947 9.23634 -7.71414
O -8.98092 8.77599 -3.50283
H -8.20655 8.24272 -3.16229
H -8.819 9.74731 -3.32874
O -12.0081 -14.7545 -12.1187
H -12.8371 -14.9754 -12.6324
H -11.2306 -14.7053 -12.7457
O 14.4344 -9.0772 7.71096
H 13.9752 -8.20419 7.87527
H 13.7785 -9.82431 7.81925
O 10.7821 -12.0071 11.3983
H 10.6406 -11.2738 10.7332
H 11.736 -12.3056 11.3673
O -8.6178 5.69554 -1.00749
H -9.07278 4.81985 -1.1692
H -8.34765 6.09737 -1.88244
O 8.74724 -0.305548 -12.3616
H 8.57678 0.678681 -12.3144
H 7.89053 -0.799662 -12.2136
O 10.714 0.720189 14.1632
H 10.4219 1.67614 14.1913
H 11.2458 0.509884 14.9835
O 4.63284 8.17589 -15.0192
H 3.86527 8.66318 -14.6028
H 5.43688 8.25486 -14.4299
O 12.4027 2.213 -4.77973
H 11.6484 1.56417 -4.67963
H 12.7456 2.18324 -5.71862
O 6.07445 -14.3346 -12.1758
H 6.73135 -14.3549 -11.4221
H 6.56498 -14.2525 -13.0433
O -4.66792 13.1886 -11.9385
H -4.54561 14.0543 -11.4532
H -3.91693 13.0606 -12.5863
O 0.111666 2.25096 8.83015
H -0.395819 2.71131 9.55852
H -0.100368 1.27378 8.84242
O -13.1957 2.83903 9.61664
H -14.1071 3.02309 9.24866
H -12.6226 2.43758 8.90221
O 3.77247 -1.17232 -4.37879
H 4.31078 -1.43433 -3.57781
H 3.2404 -0.352027 -4.16901
O -3.85915 -3.54389 -13.6251
H -3.47058 -3.45353 -12.7082
H -4.82316 -3.80027 -13.5548
O 5.11101 6.39986 -12.2123
H 4.62325 7.26901 -12.2939
H 4.80582 5.77747 -12.933
O -10.49 -0.0139802 14.3321
H -11.4356 0.276865 14.4782
H -10.0403 -0.142128 -14.9004
O -6.3589 1.9803 12.4723
H -6.00854 2.91185 12.5695
H -7.16366 1.98712 11.8787
O -8.97581 -0.9436 -2.06085
H -8.82758 -1.90477 -2.29359
H -9.89905 -0.673132 -2.33373
O -3.37229 5.13315 -3.68233
H -3.16979 4.99149 -4.65131
H -4.05525 4.46657 -3.38363
O -6.695 2.87811 -5.0179
H -6.79868 3.66467 -5.62664
H -6.32532 3.18249 -4.14002
O 9.67301 6.64725 -1.91367
H 9.27743 6.43879 -2.80812
H 10.6658 6.53398 -1.95369
O 6.59231 -7.20588 -0.876311
H 7.45187 -7.02769 -0.397367
H 6.20236 -8.06763 -0.551783
O 5.89732 3.70342 5.61931
H 6.02976 2.97069 6.28681
H 6.74743 3.85163 5.114
O 4.46101 -5.34656 4.16717
H 4.06555 -6.1868 3.79624
H 4.657 -5.47148 5.13978
O -2.59324 3.06251 13.805
H -3.0011 2.52956 13.0637
H -2.82494 4.02821 13.6879
O 13.9185 -4.73809 -10.7004
H 14.2222 -3.78572 -10.7273
H 13.7448 -5.00588 -9.7527
O -0.510378 -4.47547 5.26304
H 0.201416 -5.0853 5.61153
H -0.341549 -3.5454 5.58933
O -14.4225 -11.3588 1.23906
H -13.6473 -10.7546 1.42342
H -14.8392 -11.6397 2.10363
O -0.330955 2.29922 -14.3541
H -0.00278388 1.43496 -14.7353
H -1.27559 2.45385 -14.6435
O -2.82283 -13.3306 -3.2218
H -2.62735 -14.2933 -3.03489
H -1.96773 -12.8471 -3.40886
O 7.21858 -8.11544 2.15688
H 8.15709 -8.44784 2.25019
H 6.80984 -8.01221 3.06367
O -0.915488 -9.81065 14.0183
H -0.0822942 -9.36524 13.6906
H -0.91282 -10.7704 13.7376
O -10.0881 -9.65394 5.21064
H -10.4522 -9.53371 6.13421
H -10.837 -9.61361 4.54926
O 12.7509 9.08923 8.96267
H 12.379 8.6982 9.80455
H 13.1 10.0079 9.14766
O 7.70915 -5.57134 -3.86641
H 7.12877 -4.89097 -3.41893
H 8.66105 -5.42698 -3.59613
O 8.33479 -11.5081 1.75988
H 8.45101 -11.487 0.766885
H 8.81902 -10.7345 2.16865
O -0.575437 -10.2746 -4.24622
H -0.207489 -10.2068 -3.31885
H 0.133657 -10.6184 -4.86184
O -8.37233 6.57108 -9.23038
H -8.50321 7.41658 -9.74806
H -9.01756 6.54446 -8.46687
O 12.1175 -8.45385 4.39002
H 12.9441 -8.40252 3.82949
H 11.9291 -7.55646 4.78899
O 1.5189 -0.0464093 -7.96031
H 1.42886 0.949445 -7.94789
H 2.44557 -0.300774 -7.6836
O -8.3604 11.09 -8.82994
H -8.47649 12.0801 -8.90789
H -8.25054 10.842 -7.86743
O 14.741 -2.08182 9.70453
H 13.7767 -1.95236 9.93582
H 14.876 -1.90803 8.72906
O 2.69175 10.2833 14.8366
H 2.89809 11.2092 -14.9633
H 3.18818 10.1031 13.9874
O 14.1117 2.90847 2.23486
H 13.4103 3.07928 1.54288
H 15.0125 3.12058 1.85587
O -11.1911 3.90642 -4.70883
H -10.5624 3.31337 -4.20583
H -11.8252 4.33949 -4.06826
O -10.8598 11.5079 13.1201
H -10.9297 12.485 12.9188
H -11.1539 10.9815 12.3224
O 0.29905 -9.63222 -1.81611
H 1.17705 -9.61741 -1.33769
H -0.435027 -9.41633 -1.17228
O -2.3094 5.8125 -6.35677
H -3.10561 6.33584 -6.66035
H -1.48473 6.36773 -6.46457
O -3.97588 -4.99769 10.8166
H -3.65081 -4.1956 10.3156
H -3.33182 -5.75236 10.6915
O 9.92241 2.61377 2.09773
H 9.26079 3.31229 2.37034
H 9.43746 1.8232 1.72382
O 0.642403 -13.1774 1.94193
H 1.45221 -12.649 1.68704
H -0.147191 -12.5671 2.00611
O 9.94136 13.436 -13.2573
H 9.45313 12.7425 -13.7871
H 9.47547 13.5774 -12.3838
O 9.68484 -9.01593 2.53217
H 10.0642 -8.9084 3.45114
H 10.2701 -8.54424 1.87266
O 12.2881 -8.20404 -2.97888
H 13.1726 -8.42638 -2.56878
H 12.0862 -8.85614 -3.70961
O 3.5025 9.61657 12.3349
H 4.0217 8.76513 12.2609
H 3.94629 10.3262 11.7876
O -4.90588 -11.8718 -1.88136
H -4.06978 -12.3794 -2.08942
H -4.86966 -10.9748 -2.322
O -5.30263 11.3723 4.95341
H -4.50119 11.6347 5.49082
H -5.92182 10.83 5.52137
O -2.84571 -14.3049 7.8194
H -2.57177 -13.3441 7.7756
H -3.43748 -14.4469 8.61289
O -2.96418 14.1199 -1.80152
H -3.81745 14.5955 -1.58766
H -2.24768 14.4218 -1.17264
O 7.73951 4.46896 2.39944
H 8.13302 4.75824 1.52683
H 7.52827 5.27442 2.95316
O -4.88743 -12.185 -5.24403
H -4.44335 -11.3132 -5.45065
H -4.50454 -12.5625 -4.40091
O 6.61388 -8.80903 -11.348
H 6.94104 -9.74675 -11.2313
H 5.89631 -8.62048 -10.6775
O -11.7583 -13.4661 1.94588
H -11.6777 -12.4855 1.76718
H -12.4863 -13.8497 1.37772
O -6.82939 -5.97789 -5.48706
H -6.53372 -6.90627 -5.26192
H -6.23666 -5.60295 -6.19986
O 3.40124 -14.2331 -3.46277
H 4.03584 -14.9481 -3.16938
H 3.00971 -14.4784 -4.34964
O -2.51011 -0.147274 -5.43608
H -1.54438 -0.371466 -5.30533
H -2.59586 0.810981 -5.70881
O 3.37126 -9.10537 -13.4291
H 3.84119 -8.25035 -13.2098
H 3.32079 -9.21278 -14.422
O -4.87191 6.50261 -7.55242
H -4.6797 7.45901 -7.77227
H -4.64548 5.92784 -8.33878
O -9.83721 -9.09995 13.7812
H -9.33302 -8.68911 13.0216
H -9.19159 -9.4328 14.4685
O -3.07578 -10.1062 -5.47394
H -2.85228 -10.1268 -6.44843
H -2.23704 -10.2 -4.93756
O 14.039 -2.74953 -4.71045
H 13.3981 -2.83164 -5.47362
H 14.4332 -1.83051 -4.70361
O -8.02651 -7.80199 5.29287
H -7.2876 -8.20653 4.75403
H -8.78013 -8.45496 5.36823
O -9.17242 10.5167 14.8662
H -8.44684 9.89346 14.5745
H -9.81897 10.6503 14.1151
O -5.61487 -11.2055 -13.7162
H -5.85944 -11.9972 -13.1564
H -5.31167 -10.4591 -13.1237
O 3.07818 1.98687 9.71464
H 4.06507 2.10886 9.82024
H 2.8168 2.18658 8.7703
O 8.40247 11.0381 11.427
H 9.12338 11.3908 12.0235
H 7.7357 10.5315 11.9736
O -6.40485 0.681124 4.54803
H -6.90828 0.430913 3.72102
H -5.99497 1.58533 4.42799
O 9.3306 -8.30932 12.8727
H 9.31706 -9.25425 13.1997
H 9.53159 -7.69533 13.636
O -4.5214 -12.5699 -10.2495
H -4.7766 -13.5063 -10.0086
H -4.92125 -11.9349 -9.58857
O -12.7196 -8.74398 -12.6361
H -12.2965 -7.96079 -13.0917
H -12.2395 -9.58123 -12.898
O -14.5965 -14.2051 -2.40737
H 15.0105 -13.9912 -3.24083
H -14.5172 14.9192 -2.31057
O -2.3524 9.90123 -9.83032
H -2.86667 9.50592 -9.06925
H -2.40966 10.8987 -9.78886
O 5.21418 -10.0396 1.41477
H 4.80164 -9.46514 0.707819
H 6.04179 -9.59844 1.76178
O -12.3339 10.7891 10.6345
H -12.3062 11.2009 9.72367
H -13.1015 11.1704 11.1496
O -9.39386 14.0319 0.210162
H -9.02517 13.9766 -0.717739
H -9.04899 13.2655 0.752084
O 9.27072 -6.61532 -0.256937
H 8.80284 -5.80329 0.0919133
H 10.1373 -6.73462 0.227575
O -11.1473 10.2496 -0.303409
H -11.2876 9.30183 -0.0171175
H -12.0181 10.6401 -0.601978
O 7.81967 9.95194 -14.6238
H 7.44841 9.89975 -13.6968
H 8.81738 9.89536 -14.587
O -6.47488 -3.14059 2.36572
H -6.81122 -2.19888 2.37173
H -6.56762 -3.52179 1.4459
O 3.7624 -1.94137 7.12549
H 3.53501 -0.968996 7.17817
H 3.78096 -2.2279 6.1676
O 6.00736 -10.4484 7.33806
H 6.54805 -10.9798 7.9901
H 5.22045 -10.9883 7.03931
O -10.1927 0.980654 -8.36742
H -9.79686 1.60031 -9.04515
H -9.46148 0.577465 -7.81719
O -10.9119 -4.73679 10.5534
H -10.6574 -4.05086 9.87166
H -11.8821 -4.6413 10.7762
O 0.490739 9.43338 -8.27203
H 0.52798 9.63697 -9.25038
H 0.644269 10.2729 -7.75081
O 4.2975 7.0014 12.5546
H 4.30113 6.94042 13.5527
H 3.81604 6.2118 12.1742
O -10.8534 -10.0322 -3.19594
H -10.5799 -9.078 -3.07448
H -11.7239 -10.1913 -2.73032
O -2.47459 3.36293 -11.3983
H -2.83951 2.77106 -12.117
H -2.01264 2.80456 -10.7092
O 14.3102 2.58369 13.9133
H 13.8236 3.14732 13.2458
H -15.0045 2.17183 13.4803
O -14.3102 -5.77051 1.75707
H -14.1681 -4.89309 2.21526
H -13.4594 -6.05863 1.31757
O 6.76315 -1.88517 -11.6436
H 6.54866 -1.76893 -10.6739
H 5.99476 -1.562 -12.196
O 0.826592 10.9436 7.23206
H 0.887971 10.1642 6.60861
H 1.74682 11.2326 7.49598
O -1.5598 -13.8633 11.1452
H -2.05847 -14.6401 10.7606
H -1.20727 -14.1077 12.0485
O 6.36767 8.3927 1.65061
H 6.4778 8.61375 0.681593
H 6.93924 9.00325 2.19881
O -0.292503 -12.5394 -1.46293
H -0.692982 -12.5242 -0.546761
H 0.371075 -11.7963 -1.54898
O -7.3913 6.8559 3.82019
H -6.66087 6.94718 3.14334
H -6.99684 6.86162 4.73908
O 11.8896 10.6485 -13.4197
H 11.4953 9.9126 -13.9701
H 11.2583 10.888 -12.6821
O 0.323439 -6.40758 -1.02316
H 0.189891 -5.59136 -0.461067
H 1.07761 -6.94872 -0.651161
O 5.01133 -5.9754 6.66772
H 4.85041 -5.31049 7.39709
H 5.33509 -6.83409 7.06497
O 9.79803 0.910083 -9.49997
H 8.94366 1.28959 -9.85496
H 10.0364 0.0866859 -10.0149
O 11.8156 -3.93276 8.52511
H 12.249 -3.73373 7.64616
H 10.947 -4.40314 8.36951
O -12.1233 10.4032 -8.46122
H -11.1872 10.0776 -8.32806
H -12.106 11.2802 -8.9415
O 12.6912 -2.26429 -6.77315
H 12.0131 -2.5689 -7.44201
H 13.3043 -1.59905 -7.19932
O -5.46943 -14.8263 -1.1036
H -6.07937 14.6958 -0.579443
H -5.47957 -13.9074 -0.709352
O -13.433 -3.2804 -4.52848
H -14.424 -3.40879 -4.5637
H -13.1521 -2.65316 -5.25489
O -10.674 -12.5762 7.98989
H -10.1609 -13.3171 7.55665
H -10.7849 -12.7728 8.96408
O 14.2298 -13.0801 8.26274
H 14.9498 -12.9273 8.9396
H 13.7364 -12.2252 8.10221
O 7.71589 -3.88335 -0.124652
H 6.93749 -4.298 -0.595959
H 7.61846 -4.0175 0.861501
O -9.28648 9.45904 -6.33461
H -9.24307 9.24781 -5.35814
H -9.59923 8.65263 -6.83649
O -5.99266 6.36236 1.0167
H -6.54074 5.59542 0.682931
H -6.08896 7.13751 0.392322
O -13.413 -10.8794 -1.78552
H -13.6818 -10.9631 -0.825986
H -13.0354 -11.7492 -2.10306
O -4.5292 6.74922 -12.6278
H -3.90151 5.97359 -12.6941
H -4.96758 6.7474 -11.729
O 2.02007 -13.0708 -6.73712
H 1.85315 -12.2673 -6.16572
H 1.18298 -13.6141 -6.80095
O 12.777 -13.3176 14.319
H 12.7607 -12.3657 14.625
H 13.2755 -13.8732 14.9845
O 3.24532 -10.9007 12.2947
H 2.69537 -11.6705 11.9708
H 3.88773 -10.6257 11.5793
O -1.67419 7.09962 -14.7625
H -1.43436 6.42795 -14.0615
H -0.849591 7.58213 -15.0578
O -7.25321 -13.6188 -4.4018
H -7.29448 -14.3796 -5.04946
H -6.89471 -12.8073 -4.86327
O -11.82 2.00775 4.39925
H -10.8406 1.98113 4.5992
H -11.9922 1.56884 3.51738
O 2.34868 12.9933 -0.0252804
H 3.07724 13.6528 -0.210283
H 1.62967 13.4331 0.512817
O -1.54178 -11.8162 7.12931
H -0.574812 -11.5822 7.23052
H -1.89587 -11.4124 6.28578
O 11.2161 3.44316 14.6433
H 10.2556 3.5518 14.8993
H 11.7965 3.65008 -14.6855
O -4.87201 8.22225 3.76696
H -5.23673 8.80643 3.04191
H -4.41094 7.43393 3.35959
O -2.11019 13.5042 9.75964
H -3.05684 13.536 9.43896
H -1.7252 12.6004 9.57299
O -1.58189 -3.48375 -7.34449
H -2.50905 -3.11253 -7.39511
H -0.980228 -2.8186 -6.90226
O 3.8596 -2.62567 -9.94691
H 3.35153 -3.11422 -9.23757
H 4.32808 -1.84105 -9.54084
O 0.914739 -13.2738 -10.3742
H 1.08983 -12.5125 -10.9987
H 1.77046 -13.7572 -10.1899
O 8.73382 -1.04156 -7.361
H 9.22738 -0.249373 -7.71992
H 8.80356 -1.05383 -6.36352
O 8.85313 -2.00224 -14.6931
H 8.81066 -1.20631 -14.0892
H 7.94596 -2.18013 15.0421
O 7.90841 10.1147 3.02465
H 8.76134 10.2561 2.52214
H 7.55076 10.9975 3.32926
O 9.50792 -5.42481 7.77083
H 9.21521 -6.29548 8.16611
H 8.75257 -5.0231 7.25308
O 9.89158 12.7905 2.45328
H 9.79617 12.0119 1.83317
H 10.2935 12.4826 3.31564
O -5.42073 1.48188 -1.63327
H -5.70869 0.761742 -1.00202
H -5.11147 1.0698 -2.49032
O 9.78744 9.3343 -1.45005
H 9.57663 8.35742 -1.48539
H 9.42281 9.78369 -2.26558
O 4.78874 14.9602 12.8232
H 5.39728 14.1676 12.8608
H 5.0186 -14.5242 13.5632
O -13.3342 0.0855251 5.94871
H -13.8532 0.680244 5.33481
H -12.8061 0.645217 6.58739
O -4.72057 14.4282 14.6003
H -3.95102 14.2077 -14.9169
H -5.32607 13.6355 14.5299
O -13.2389 7.31188 10.8847
H -13.2043 7.75553 9.9892
H -13.4397 6.33931 10.7673
O -2.93487 -5.6122 -8.58189
H -2.31681 -6.21912 -9.08152
H -2.4495 -5.20617 -7.80758
O 2.12026 6.62156 6.90583
H 2.01335 7.07828 7.78898
H 1.38967 5.94904 6.78777
O -14.8017 4.70525 11.265
H 14.461 4.267 11.5459
H -14.304 4.09885 10.6448
O 13.0499 5.27989 3.58875
H 12.7523 4.3396 3.75392
H 12.2968 5.80248 3.18903
O -5.75432 -11.3253 0.78037
H -5.59415 -12.1106 1.37835
H -5.51941 -11.5694 -0.160497
O -13.6472 -12.4315 10.5928
H -12.7796 -12.9234 10.5205
H -13.5679 -11.7161 11.2871
O -9.80318 11.392 -2.50477
H -10.3829 12.1895 -2.67184
H -10.1423 10.8949 -1.7061
O 1.17914 -1.6486 14.9767
H 0.27143 -1.23043 14.9422
H 1.55977 -1.54378 -14.221
O 6.90527 -10.5189 -5.0777
H 7.80228 -10.7839 -5.43143
H 7.0118 -9.76328 -4.43141
O -13.4157 4.19626 -6.36939
H -12.7031 4.08586 -5.67659
H -13.1817 4.96129 -6.96933
O -14.1451 -6.81078 -8.48322
H -14.404 -7.02141 -9.42589
H -14.9694 -6.70215 -7.92759
O -6.96019 -13.1307 -12.1667
H -6.93472 -13.5304 -13.0829
H -6.10307 -13.3306 -11.6919
O -9.22896 -9.14827 -12.4022
H -9.95164 -9.7981 -12.1667
H -8.56596 -9.10192 -11.655
O 8.45077 -11.8712 -8.72607
H 8.79536 -11.3152 -7.96973
H 8.71556 -11.4529 -9.59492
O 3.31849 -11.8792 -0.0180167
H 3.99781 -12.5626 -0.285253
H 3.66452 -11.3506 0.75716
O -2.00056 7.57329 -0.544126
H -1.86554 7.13603 -1.43326
H -1.13574 7.96566 -0.230894
O 3.55467 11.7444 7.70174
H 4.40445 11.8294 7.1815
H 3.14714 12.6493 7.82451
O 13.9145 -14.3314 -7.92769
H 14.5556 -14.7778 -8.55192
H 13.0595 -14.8493 -7.90148
O -7.91834 6.30878 -12.6768
H -7.93968 7.30006 -12.8068
H -6.97172 6.00817 -12.5605
O -12.1159 0.949142 1.9178
H -12.2334 0.336818 1.13598
H -12.7648 1.70677 1.84831
O 9.22801 5.24792 0.32743
H 9.33583 5.887 -0.434107
H 9.44522 4.3219 0.0187439
O -9.3038 12.5309 -13.5506
H -9.52084 13.4281 -13.9351
H -9.27494 11.852 -14.2842
O 11.4482 11.4014 12.3366
H 12.3138 11.0043 12.6417
H 10.9295 10.7168 11.8246
O -10.2682 9.3526 9.64978
H -9.50118 8.92587 10.1289
H -10.7895 9.91619 10.2906
O -2.909 -14.6634 1.78716
H -2.43402 -14.2823 2.58035
H -2.67746 14.4848 1.69353
O 6.77036 0.445752 12.7123
H 6.23195 1.24931 12.9661
H 7.7407 0.632722 12.8655
O -1.63877 -9.76332 -11.7972
H -1.59372 -10.694 -11.4341
H -2.24971 -9.74356 -12.5886
O 14.3246 3.37206 8.54698
H 13.8356 2.9353 7.79189
H 13.7544 4.09325 8.94043
O -11.6349 1.92765 7.4754
H -10.9906 1.17706 7.32882
H -11.3447 2.72437 6.94532
O 3.59202 -11.6847 -10.8605
H 4.37511 -11.4168 -11.4217
H 3.73409 -11.3749 -9.92042
O 4.46498 9.81955 3.42571
H 4.85662 9.94036 4.33786
H 4.9962 9.13796 2.92249
O 13.2605 11.2518 -8.62335
H 13.2061 10.2844 -8.37587
H 13.7591 11.3479 -9.48485
O 6.1764 -13.5411 9.19017
H 5.89107 -13.8904 8.29767
H 6.38452 -14.308 9.79724
O 6.01513 -0.130404 -0.167904
H 6.19317 0.472676 0.609647
H 6.86203 -0.591403 -0.432929
O 13.6349 12.3712 -14.5257
H 12.8324 11.8494 -14.2364
H 14.1983 11.8084 14.986
O 10.5607 9.49286 14.6084
H 10.8226 10.1184 13.8735
H 10.7415 8.55113 14.3248
O -12.8156 4.68991 5.1281
H -13.6982 5.00323 4.77757
H -12.6645 3.74118 4.85048
O 7.79863 -4.53798 6.13434
H 8.19405 -3.65262 5.88987
H 6.80288 -4.45745 6.17883
O -0.847407 7.81903 10.4119
H -1.74067 7.89406 9.9687
H -0.642597 6.85624 10.5882
O -0.489278 0.727796 12.24
H -1.03891 0.482462 11.4414
H 0.462452 0.463815 12.0834
O 4.43344 1.3091 -6.41978
H 5.20857 1.73971 -5.95746
H 3.72232 1.09584 -5.74984
O 6.40335 -0.66147 -8.87423
H 7.2141 -0.789646 -8.30304
H 6.23489 0.316272 -8.99925
O 5.84208 3.82353 -0.296374
H 5.87947 3.32922 0.572097
H 4.95764 4.28246 -0.380878
O -8.39343 2.15941 10.8754
H -9.05129 2.89873 11.019
H -8.81367 1.28651 11.1233
O -6.50618 -1.87163 -5.96014
H -7.27616 -1.23423 -5.98929
H -6.4093 -2.23514 -5.03361
O -9.60141 10.7228 6.41218
H -9.68841 11.661 6.07725
H -8.67048 10.5727 6.7451
O 11.0002 10.5159 4.89957
H 10.7509 9.81695 5.5699
H 11.9927 10.5217 4.77749
O 11.6504 -6.80012 1.30991
H 12.4528 -7.3355 1.57357
H 11.7512 -5.86257 1.64281
O -4.79435 -6.39417 2.16118
H -4.28967 -6.20583 3.00368
H -4.54743 -7.30132 1.82044
O 4.44928 7.00706 9.72337
H 3.78549 7.50119 9.16194
H 4.49211 7.42243 10.632
O 4.48275 6.05211 5.37704
H 3.65207 6.13034 5.92826
H 4.98796 5.2334 5.64991
O 1.06951 -7.95716 8.98244
H 0.632159 -8.5197 9.68405
H 0.45967 -7.20612 8.7294
O -9.52505 -5.82711 -5.50739
H -9.94855 -6.71274 -5.6979
H -8.53096 -5.93206 -5.47978
O -2.52553 13.0678 -13.9108
H -1.64947 13.5089 -13.7161
H -2.36846 12.115 -14.1708
O -1.52332 -0.80431 -14.7039
H -1.11446 -0.470148 -13.8547
H -2.28028 -0.206283 -14.9673
O 6.70655 -2.60974 -4.82337
H 5.94027 -2.89575 -5.39869
H 6.38414 -2.46101 -3.88853
O 6.75469 5.80659 9.22123
H 7.33512 6.45492 9.71393
H 5.80229 6.10733 9.27097
O -14.873 -1.12865 -1.8877
H -14.8307 -0.85476 -2.84852
H 14.3912 -0.796342 -1.48361
O -12.5015 4.19674 -1.29408
H -11.8592 4.80524 -0.828144
H -12.7312 4.57733 -2.18984
O 14.3534 -0.668549 -7.92651
H 14.7006 -1.08338 -8.76757
H 14.8045 -1.08645 -7.13791
O 9.78035 1.75161 7.09061
H 9.40525 1.0804 7.72996
H 9.26095 1.72489 6.2365
O 5.47877 0.726592 3.98512
H 5.40508 -0.27003 4.02122
H 4.78339 1.13389 4.57718
O -3.0762 4.4189 3.72902
H -2.70591 4.91058 4.51713
H -3.03133 5.00449 2.91967
O -2.95889 2.98364 -6.31945
H -3.00074 3.90615 -6.70313
H -3.86717 2.56674 -6.35406
O 12.8467 -6.65781 7.84639
H 12.8802 -5.83354 8.41158
H 12.3667 -6.45707 6.99239
O 9.76779 14.1708 8.51487
H 10.7445 14.3709 8.59185
H 9.4464 14.4249 7.60266
O 13.2547 -0.0780012 -0.203328
H 13.7023 -0.5778 0.538192
H 13.0204 0.842599 0.109086
O -9.39268 -13.308 0.19068
H -8.75602 -12.9385 -0.486185
H -9.15914 -14.2612 0.382461
O 1.20574 14.175 4.65767
H 0.471081 13.9607 5.30134
H 1.42088 -14.9663 4.71014
O 6.19107 12.2115 6.76227
H 6.17785 11.2372 6.53728
H 6.93788 12.3959 7.40122
O -11.2197 8.50733 5.02462
H -10.4539 8.88296 5.54662
H -11.9859 9.14951 5.04798
O 6.03957 -4.36578 -8.19078
H 5.84863 -4.91851 -7.37959
H 5.3325 -3.6658 -8.29115
O 5.18401 -0.470845 10.742
H 5.84355 -0.102256 11.3971
H 5.49587 -0.279228 9.81143
O 7.19931 3.75744 13.1887
H 7.53734 3.7413 14.1297
H 7.80971 4.31366 12.6248
O 10.4194 -5.66506 -7.39419
H 10.4011 -4.84155 -6.82719
H 9.50146 -5.84775 -7.74637
O -0.325862 14.8071 -0.936517
H -0.281382 -14.3818 -1.30747
H -0.0813937 14.8238 0.032991
O -14.4729 0.26306 -11.3567
H -14.3447 1.16558 -11.7678
H -13.6713 0.0308066 -10.8058
O -8.73588 -9.72943 -6.09614
H -8.6067 -10.7029 -6.28514
H -8.34391 -9.5084 -5.20312
O 12.3563 3.58421 -2.44427
H 13.203 3.29179 -1.99967
H 12.3804 3.3255 -3.40991
O -3.62198 9.45468 -12.0882
H -3.17871 9.54216 -11.1961
H -3.71103 8.48664 -12.3226
O 13.8849 14.7476 2.78388
H 14.0649 -14.8867 1.92653
H 13.1181 14.1183 2.65768
O -3.18854 -3.36176 -10.9411
H -2.90192 -3.95905 -10.192
H -3.66334 -2.5644 -10.5686
O -6.65081 6.04531 -5.61358
H -7.46976 5.65813 -6.03712
H -6.02791 6.36813 -6.32616
O 1.95836 -2.19462 11.167
H 1.96454 -1.19465 11.1633
H 1.49469 -2.52205 11.9903
O 12.684 1.83549 7.13086