2593
Atoms. Timestep: 1000000
O 1.1465 1.37787 13.1689
H 0.344297 0.859862 13.4659
H 0.887736 1.99714 12.4276
O -4.77091 -4.17638 4.69443
H -5.31992 -4.19172 3.85875
H -5.0922 -4.88957 5.31746
O 8.35078 -8.57268 5.56756
H 8.08012 -7.61398 5.47998
H 9.29855 -8.62402 5.8824
O 14.4402 6.96044 -7.98385
H 13.6475 6.7008 -7.43227
H 14.1606 7.62433 -8.67746
O -14.0838 -6.81384 6.63165
H -13.111 -7.04318 6.66523
H -14.275 -6.29372 5.79923
O -3.81273 1.76061 7.03697
H -3.14625 2.43549 7.35379
H -3.50124 0.843062 7.28417
O 10.5458 7.78271 -1.84422
H 10.9738 7.23036 -2.55961
H 9.57117 7.56473 -1.79304
O -3.32291 14.2395 4.27026
H -2.72545 13.8951 4.99448
H -2.76967 14.6789 3.56253
O -12.4338 2.8699 -7.99648
H -11.6184 2.98338 -7.42883
H -12.3735 2.00664 -8.49765
O 13.0831 7.50825 0.341383
H 13.7453 8.17236 -0.00575232
H 12.2541 7.98541 0.63309
O -14.3119 0.13684 9.38415
H -13.4571 -0.00592453 8.88524
H -15.0337 -0.421591 8.9753
O -3.92815 -0.115506 4.79849
H -3.61667 -1.06058 4.8977
H -3.51061 0.449511 5.51013
O -4.18372 -13.9731 -6.61971
H -4.01807 -13.247 -7.28707
H -4.45936 -13.568 -5.74794
O 2.69835 -12.8591 13.8394
H 3.61055 -12.6518 14.1929
H 2.53712 -12.3334 13.0042
O 12.7886 -11.3076 8.95537
H 13.009 -11.2197 7.98391
H 13.2226 -10.564 9.46418
O -13.1839 -11.3935 3.55965
H -12.6213 -11.2683 4.37684
H -13.7939 -12.1748 3.69147
O 7.08728 8.03697 -9.04688
H 6.25854 8.55996 -9.24611
H 7.02786 7.1392 -9.48334
O -12.9803 -13.0177 -14.5227
H -12.5324 -12.355 -13.9225
H -13.33 -12.5493 14.8692
O -10.6802 12.9373 1.2731
H -9.83617 12.5248 0.930234
H -11.4641 12.533 0.801954
O 13.8337 -7.82806 7.49383
H 14.7013 -7.37123 7.29737
H 13.5982 -7.69633 8.45675
O -2.45929 -10.5214 13.5227
H -3.33293 -10.6575 13.0555
H -1.90955 -11.3536 13.4506
O -12.4232 -14.5603 -4.60536
H -12.0063 -14.8363 -5.47139
H -13.2528 -14.0326 -4.78803
O -14.3926 -14.2844 8.54962
H 14.9526 -14.7107 8.83597
H -14.3776 -14.202 7.55312
O 5.86121 14.8482 -6.33769
H 6.71746 14.7984 -5.8235
H 5.19284 -14.8199 -5.82114
O -1.32627 6.79685 -13.4731
H -0.424884 6.5956 -13.0896
H -1.38054 6.43604 -14.4041
O -0.413017 5.57638 14.3118
H -1.20371 5.23803 13.8015
H -0.0448242 4.84172 14.8816
O -4.38342 8.58851 -3.43898
H -5.18123 9.04884 -3.04959
H -4.42951 7.61088 -3.23368
O -11.8832 0.583062 -14.4299
H -12.0404 0.640717 -13.444
H -11.0716 0.0259807 -14.606
O -11.2259 14.6854 -6.83597
H -10.6355 -14.7964 -7.19777
H -10.8508 13.7921 -7.08375
O 5.72289 -1.44982 13.9437
H 6.05511 -0.965297 14.7529
H 4.93803 -0.961778 13.5618
O 12.3673 1.81146 -4.27323
H 11.7941 1.10822 -4.69386
H 11.8192 2.63037 -4.10299
O 8.84033 -11.1292 -8.99738
H 8.35987 -12.0036 -8.93035
H 9.44366 -11.1406 -9.79481
O 11.7039 -10.9128 -2.15132
H 11.4495 -10.2266 -1.46984
H 11.2006 -11.759 -1.97632
O 7.97097 5.8142 7.0514
H 7.36068 5.71005 6.26608
H 8.86899 6.12212 6.73714
O 14.3342 9.83174 12.0351
H 14.9719 9.76132 11.268
H 14.8346 10.0877 12.8622
O -12.6023 10.8432 -9.49898
H -11.6845 11.2392 -9.52793
H -12.9544 10.8858 -8.56394
O -12.6139 12.553 -0.870256
H -13.4747 12.5447 -1.37904
H -12.2056 13.4644 -0.920633
O -6.72804 11.886 -4.91979
H -6.0081 11.4548 -5.46366
H -7.53561 11.2963 -4.90843
O 4.22777 -6.09449 -7.91616
H 4.47225 -6.94916 -8.3742
H 4.60991 -6.09043 -6.99206
O 0.777485 12.179 -10.4397
H 0.415532 12.5553 -11.2926
H 0.0802423 11.6096 -10.0042
O 7.40142 13.5556 10.997
H 7.03389 12.8892 11.6457
H 8.37199 13.3705 10.8429
O -10.4382 -0.59239 -1.57324
H -9.98338 0.283521 -1.41217
H -10.5139 -1.09229 -0.71045
O -9.98401 -7.03712 -6.53911
H -10.2928 -6.86722 -7.47496
H -10.4886 -6.44663 -5.90925
O 11.5394 11.3882 5.61434
H 12.4087 10.9705 5.35003
H 10.7907 10.933 5.13241
O 10.0565 4.44674 -12.7515
H 10.5051 3.94939 -13.4941
H 9.53067 5.20832 -13.1304
O 14.3326 8.47248 -3.06766
H 13.946 8.89638 -3.88674
H 13.8901 7.58989 -2.90865
O 9.96785 -10.832 1.01856
H 9.4562 -10.2552 1.65536
H 9.39481 -11.0443 0.226992
O -12.5542 -2.37972 -3.17187
H -11.9805 -1.90967 -2.50109
H -12.736 -1.76812 -3.94189
O 13.8681 4.19901 4.71919
H 14.3111 5.07586 4.5325
H 14.4592 3.645 5.30542
O 5.06059 -3.15267 -6.56265
H 5.6016 -3.92599 -6.89326
H 4.08734 -3.36586 -6.64836
O -12.4353 2.82512 4.0948
H -12.3796 2.7207 3.10181
H -11.5352 2.66055 4.49823
O 12.3841 -4.4405 -10.7767
H 12.9571 -4.68804 -9.99532
H 11.4389 -4.71255 -10.5963
O -4.08366 1.32142 -7.86468
H -3.53776 0.488845 -7.77071
H -4.38406 1.4177 -8.81364
O -9.7734 -8.9192 -3.6008
H -9.06077 -9.56832 -3.33466
H -9.58835 -8.58084 -4.52346
O 6.25222 1.99456 -12.5972
H 5.6688 2.6168 -12.0752
H 6.83775 2.52335 -13.2117
O -2.0699 -6.54442 0.732813
H -2.1843 -6.3616 1.70929
H -2.81487 -6.11354 0.223515
O -10.3511 -3.04089 8.87277
H -9.88965 -3.02854 9.75984
H -11.2338 -3.50224 8.96264
O -11.2231 10.1391 0.0330058
H -11.8379 10.8755 -0.249688
H -11.7517 9.41553 0.47686
O -5.30857 9.18155 -9.9739
H -4.4396 9.3649 -10.4336
H -5.25719 8.30091 -9.50289
O 3.50749 -4.49672 3.7879
H 3.50384 -4.77637 4.74801
H 4.40008 -4.1095 3.55691
O -13.3411 -8.08762 -10.723
H -12.3621 -8.29004 -10.7481
H -13.8594 -8.94128 -10.7747
O 5.57006 -7.58379 -2.20544
H 5.39114 -8.0124 -1.31983
H 5.37088 -8.23539 -2.93741
O -13.1371 -12.4755 -10.9923
H -13.5935 -12.8246 -11.8107
H -12.2992 -12.9966 -10.83
O 13.239 -14.491 2.28582
H 12.5239 -14.8164 2.9045
H 13.9324 -13.9956 2.80909
O -5.27832 8.83346 6.62016
H -5.07172 8.10713 5.96459
H -6.26549 8.99166 6.64222
O 12.1959 0.548302 9.12639
H 12.9239 -0.0764409 8.84419
H 12.3713 1.45718 8.74798
O 11.2443 8.8026 -14.374
H 11.1968 9.79997 -14.3192
H 11.8832 8.46095 -13.6847
O -10.333 -3.37146 13.8827
H -9.76752 -4.08766 13.4737
H -10.5257 -2.66771 13.1988
O 1.74203 -6.38381 3.78789
H 1.43948 -6.61253 2.86259
H 2.193 -5.4913 3.78005
O -4.10873 -10.3866 -4.38629
H -4.542 -10.1956 -3.50547
H -3.79168 -11.3349 -4.40318
O 10.3156 13.1188 10.3428
H 11.1916 13.5362 10.5846
H 10.3697 12.7424 9.41792
O 0.825564 5.6012 -11.0793
H 0.837774 4.66003 -10.7416
H 0.364741 6.18824 -10.4137
O -8.29213 -6.78873 7.87643
H -7.77678 -6.49576 8.68179
H -8.7341 -7.66585 8.06444
O -13.2043 11.3909 -6.47684
H -12.2336 11.5835 -6.6205
H -13.3016 10.628 -5.83762
O 6.6861 -0.833347 -7.49289
H 6.1955 -1.69766 -7.38199
H 7.6577 -0.974846 -7.30315
O -2.83418 9.75686 -5.19215
H -2.2448 9.16215 -5.73893
H -3.39441 9.19908 -4.57973
O -2.43245 -4.0228 -11.0621
H -2.77344 -3.08326 -11.094
H -2.07632 -4.27886 -11.9607
O -10.9692 -5.73429 3.1887
H -11.3078 -5.26226 2.37472
H -10.7894 -6.69282 2.96755
O -5.48945 6.63855 5.10083
H -5.83445 6.46749 4.17793
H -6.03563 6.12368 5.7616
O 0.649745 -14.5296 -14.8596
H 1.28332 -14.9964 -14.2426
H 1.11831 -13.7653 14.9005
O 11.1319 -5.42157 -8.46898
H 11.9469 -5.96703 -8.27331
H 10.3561 -5.78446 -7.95277
O -10.0657 -1.4529 -5.54679
H -9.30726 -0.969664 -5.98418
H -10.8264 -0.819632 -5.40407
O 13.2157 7.74966 -12.4424
H 13.9411 7.4829 -13.0769
H 12.7415 6.93215 -12.1155
O 10.3797 1.25426 -13.8147
H 10.1969 0.271155 -13.8247
H 10.0324 1.66641 -14.6571
O 13.9008 14.7489 -0.385049
H 14.6299 -15.0265 -0.919211
H 13.965 15.0488 0.566781
O 10.2302 -6.42204 -11.188
H 11.032 -7.00495 -11.3193
H 10.3134 -5.93124 -10.3206
O -13.5685 4.44398 8.67205
H -12.6353 4.35735 9.02079
H -13.5597 4.97493 7.82468
O 5.50329 6.29542 -2.69497
H 4.54084 6.54151 -2.80962
H 6.03562 6.66899 -3.45464
O -7.92685 4.0487 -7.24945
H -7.50068 4.7677 -6.70042
H -7.98676 4.34783 -8.20179
O -12.8565 0.35772 -9.0009
H -12.3469 -0.423993 -8.64135
H -13.7412 0.0474021 -9.34871
O 3.98731 8.92262 -12.1842
H 3.63735 9.53777 -11.4777
H 4.04772 9.4134 -13.0534
O -11.6869 5.98318 4.3721
H -11.0048 5.2519 4.37156
H -11.2572 6.83961 4.65826
O -7.50855 -3.32237 -6.45519
H -7.58192 -4.10603 -5.83833
H -8.09183 -3.47102 -7.25376
O -8.2875 -8.37605 -9.10636
H -8.1427 -7.50263 -9.57134
H -8.22232 -8.24205 -8.11751
O -1.69218 -8.52955 -5.79632
H -2.65613 -8.77238 -5.90526
H -1.18478 -9.32248 -5.45893
O -9.64068 -1.35293 6.79115
H -10.0714 -1.92615 7.48823
H -9.47854 -1.89555 5.96696
O -9.23727 -15.0334 -12.5737
H -8.40641 -14.8592 -12.0451
H -9.00795 14.6402 -13.3903
O 14.5518 -8.42721 -3.33407
H 13.6428 -8.03837 -3.18392
H 14.4962 -9.42527 -3.30584
O 8.58672 -4.18308 0.801226
H 9.24507 -3.52858 1.17301
H 7.8777 -3.6918 0.295311
O -1.1812 -7.90131 9.4294
H -0.78808 -8.40446 8.65977
H -1.7745 -8.50935 9.95695
O -2.08821 8.60143 -0.61772
H -2.40604 7.79061 -1.10923
H -1.13025 8.47953 -0.357942
O -12.0972 -10.1761 -2.37251
H -12.9219 -9.65963 -2.14183
H -11.4788 -9.59682 -2.90354
O 11.2622 12.1165 -1.44106
H 11.4498 12.4114 -0.504136
H 11.5339 12.8377 -2.07827
O -0.690386 -6.24614 5.06497
H -0.824513 -6.12956 6.04906
H 0.286967 -6.32597 4.86892
O 11.7255 -7.77804 2.47284
H 11.946 -7.95113 3.43275
H 10.8269 -7.34368 2.41036
O 4.03824 15.0637 1.46341
H 3.89841 14.777 2.41118
H 4.52586 -14.2667 1.44772
O -11.3445 -6.19811 -4.11686
H -12.2351 -5.79385 -3.90833
H -10.6941 -5.96231 -3.39477
O 0.479162 -3.84249 -14.979
H 0.994209 -4.14507 14.4223
H 0.395194 -2.84611 -14.9932
O 12.8046 9.97549 9.37879
H 12.9487 9.73212 10.338
H 13.1468 10.9007 9.2146
O -11.175 1.54549 10.2429
H -11.8144 2.2395 10.5738
H -10.2421 1.80624 10.4914
O -15.0363 2.22848 -1.01166
H -14.7666 2.09998 -1.96601
H 14.1694 2.2558 -0.947986
O -11.4479 0.345683 -11.7511
H -12.3596 0.212758 -11.3623
H -10.7965 -0.253704 -11.2859
O -7.60121 -12.7868 -1.20614
H -7.90638 -12.633 -2.14594
H -7.22932 -11.9368 -0.83308
O -6.8131 13.296 -2.78505
H -6.24813 14.12 -2.74024
H -6.73697 12.8888 -3.6952
O -11.1764 5.73754 -11.5811
H -11.4257 5.68639 -10.614
H -11.419 4.87947 -12.0337
O 7.00843 3.66594 11.5913
H 7.1713 4.5504 11.1541
H 7.78708 3.06183 11.4217
O 1.80764 6.66124 12.169
H 0.873945 7.00971 12.2515
H 2.44336 7.42839 12.0832
O 13.3564 -5.57709 1.3237
H 12.5035 -6.09849 1.29799
H 13.7823 -5.67882 2.22275
O -9.75337 12.3618 -10.0346
H -8.94865 11.8794 -9.68862
H -9.65781 12.5058 -11.0195
O 5.81644 -6.45402 1.0287
H 6.10876 -5.51486 0.848284
H 5.76483 -6.60317 2.01617
O -1.81507 -4.57602 -13.6605
H -1.02635 -4.31576 -14.2174
H -2.12501 -5.48857 -13.9273
O 3.24588 -7.72413 6.24691
H 2.62208 -8.22884 5.65011
H 4.13419 -8.18305 6.26503
O 6.74542 -0.57055 -2.42532
H 6.17739 -0.426567 -3.23564
H 6.8609 -1.55153 -2.26923
O -11.1628 11.5756 10.6749
H -11.3633 12.463 10.2598
H -10.1738 11.4735 10.782
O 7.62584 -3.377 -4.9409
H 6.78099 -3.02591 -5.34462
H 7.85659 -4.25453 -5.36128
O 5.70597 8.47793 6.45864
H 4.96534 9.14909 6.42657
H 6.58455 8.94635 6.36535
O 1.07995 2.6769 6.7961
H 0.679444 3.56309 7.02908
H 0.378684 2.09039 6.39081
O 7.99383 -8.64107 13.3858
H 7.13214 -9.00226 13.0293
H 7.91766 -8.51225 14.3745
O -6.06755 2.16983 -10.5409
H -6.87887 1.85542 -10.0481
H -6.34511 2.59822 -11.4009
O -5.29515 -8.28501 -1.02899
H -6.05601 -7.64749 -1.15015
H -4.53774 -7.81731 -0.573333
O -8.29745 10.6647 1.75633
H -8.16397 11.3849 1.07548
H -9.26475 10.4133 1.79031
O 9.48964 -2.33738 -10.9413
H 9.77841 -2.61086 -10.0238
H 8.57885 -1.92701 -10.8956
O 11.8062 -1.77455 15.0965
H 12.287 -1.92825 -14.2436
H 10.8339 -1.62731 -14.9252
O -6.90232 -0.791969 13.2317
H -7.22587 0.0656878 12.8319
H -7.49458 -1.04797 13.9957
O 10.8526 -8.37321 13.513
H 11.5444 -8.14556 12.8277
H 10.0736 -8.81359 13.0667
O 6.29496 11.396 12.0868
H 7.03221 10.8296 12.4551
H 5.48426 10.8306 11.935
O 5.97521 -11.8262 5.11477
H 6.4317 -11.4345 4.31588
H 6.58303 -12.4868 5.55544
O -8.43401 14.7983 -4.87415
H -7.87922 14.0419 -4.52759
H -9.39331 14.6437 -4.63779
O 12.7366 -13.5962 13.3823
H 13.0644 -13.6431 14.3259
H 12.4905 -12.6524 13.1614
O -7.7037 -5.81765 -5.08747
H -7.49884 -6.3478 -4.26467
H -8.28738 -6.3568 -5.69464
O -14.9711 -10.4288 -10.9319
H -14.2651 -11.1003 -10.7066
H 14.6937 -10.7588 -11.7073
O -5.039 10.7197 -6.58489
H -4.59627 11.2479 -7.30953
H -4.34137 10.3145 -5.99406
O -3.13869 12.0912 -8.4686
H -2.27107 11.6176 -8.31712
H -3.47223 11.8895 -9.38951
O 13.1215 5.86289 -3.65685
H 12.3323 5.25884 -3.76779
H 13.353 6.27413 -4.5385
O -13.4436 8.00049 0.715031
H -13.4212 7.75244 -0.253471
H -13.5537 7.17469 1.26816
O 3.30243 6.22278 -12.0513
H 3.61147 7.16611 -12.1723
H 2.41623 6.2192 -11.588
O 8.39966 -7.897 -2.04177
H 8.07426 -8.51645 -2.75621
H 7.61661 -7.48772 -1.57344
O -10.4115 -6.35623 11.4486
H -11.2105 -5.86697 11.0988
H -9.83256 -5.72398 11.9634
O -10.4667 14.0345 -3.12677
H -9.99705 14.5448 -2.40632
H -11.1922 14.6009 -3.51767
O 6.33997 12.1805 6.87795
H 6.85342 12.6897 6.18723
H 6.48968 12.5935 7.7763
O 14.2908 11.406 1.65098
H 14.8094 12.2573 1.57107
H 14.3415 10.9026 0.78838
O -10.4572 15.0816 10.8326
H -10.5952 14.566 9.98695
H -9.88579 -14.3225 10.6462
O 8.69354 -4.65968 6.44396
H 8.54665 -4.35951 5.50144
H 9.2229 -3.96808 6.93537
O 7.20227 5.73139 -13.3976
H 6.63962 6.41485 -13.8627
H 7.18948 4.87825 -13.9191
O 11.9997 1.28421 -11.5808
H 11.5607 1.18524 -12.4739
H 12.6928 2.0035 -11.6281
O 1.50521 -5.95319 -4.47075
H 0.624276 -6.03663 -4.00491
H 1.97314 -6.83691 -4.45969
O -5.60884 -12.3428 5.13989
H -6.40686 -12.0285 5.6541
H -5.68679 -13.3255 4.9713
O 13.5786 -2.19293 -7.441
H 14.2138 -1.43438 -7.58605
H 12.8018 -2.10091 -8.064
O -9.27568 -4.98228 0.311466
H -10.1699 -5.42881 0.279797
H -8.63972 -5.5467 0.837794
O 2.75258 -4.37112 -12.9991
H 2.66561 -5.19766 -12.4429
H 1.95604 -4.28689 -13.5978
O -1.70353 11.0296 9.91978
H -2.35537 10.4458 10.4038
H -1.4982 11.8338 10.4776
O -13.9647 2.83503 12.7858
H -13.3795 2.05393 12.568
H -14.6862 2.91315 12.0977
O 4.17774 -2.13088 -12.7323
H 3.87535 -1.69437 -11.885
H 3.82976 -3.06774 -12.7673
O 12.4705 14.1316 6.05061
H 12.4109 13.1336 6.03004
H 11.84 14.5171 5.37686
O 2.27274 8.58122 6.50571
H 2.47109 8.11271 7.36663
H 2.72192 9.47466 6.50127
O 6.61324 2.90686 2.6735
H 6.16099 3.13058 3.53689
H 6.42897 3.62681 2.00436
O 4.10004 10.75 10.5688
H 3.12291 10.5501 10.4962
H 4.59939 10.2277 9.87751
O -13.5571 -7.73277 -5.14222
H -14.2286 -7.6547 -4.40532
H -12.6732 -7.3886 -4.82555
O 13.2573 -5.67227 -13.3606
H 12.7268 -5.25398 -14.0979
H 12.9456 -5.31367 -12.4807
O 12.6658 7.71893 3.06227
H 13.0899 7.10268 2.39869
H 11.6708 7.66917 2.97483
O 4.6556 -11.5362 -8.77662
H 5.13924 -12.1271 -8.13088
H 4.71937 -11.9245 -9.69593
O 7.78035 -7.01666 -5.02052
H 8.75576 -6.80123 -4.97372
H 7.63769 -7.97323 -4.76624
O -14.3626 4.37082 -4.08809
H -14.6147 3.58524 -4.65322
H 15.0158 4.77636 -3.69417
O 0.0711597 -13.4281 -0.92099
H -0.022231 -13.1968 -1.8894
H -0.432194 -14.2707 -0.729494
O -14.2061 4.99136 -13.6469
H -13.4423 4.39347 -13.4037
H -14.8499 4.49094 -14.2259
O 4.21303 -6.76817 13.9458
H 5.04792 -6.22807 14.052
H 4.20765 -7.19957 13.0437
O -14.4417 -12.3852 0.372066
H 14.8474 -12.2698 0.760704
H -14.1058 -11.5028 0.0426124
O 1.32271 13.9605 12.0878
H 2.01599 13.7477 11.3992
H 1.58984 13.5604 12.9645
O -8.53551 -8.17312 10.8266
H -8.84014 -8.81363 10.1216
H -9.31258 -7.62638 11.1385
O 6.20798 9.3496 -3.89302
H 7.05951 9.83719 -4.08584
H 6.04533 8.66794 -4.6064
O -3.11737 8.4188 -12.2178
H -2.51946 7.88637 -12.817
H -4.0723 8.20997 -12.4288
O 14.7787 -13.9769 5.44605
H 14.2089 -14.6951 5.84552
H -14.8973 -14.3546 4.68486
O -10.3465 6.6602 -3.41578
H -11.0794 6.37357 -4.03283
H -10.4963 7.60926 -3.13855
O -7.83523 -9.07582 -6.04521
H -7.42393 -9.8685 -6.49524
H -7.12975 -8.57262 -5.5461
O -0.674863 0.136934 6.34863
H -1.49058 -0.10431 6.8744
H -0.259654 -0.693748 5.97769
O -13.982 -7.66633 11.6852
H -13.0728 -8.00578 11.9264
H -14.661 -8.37957 11.8591
O -5.31112 -10.6782 -6.94822
H -4.55778 -11.1041 -7.44924
H -5.0489 -10.5581 -5.99069
O 5.654 -9.0023 -0.00683047
H 5.94056 -8.13356 0.397143
H 4.98604 -9.44413 0.592034
O 7.24099 -12.7599 -4.00593
H 6.45638 -12.7456 -3.38609
H 7.61412 -13.6866 -4.05001
O 7.79027 9.85648 -7.1639
H 7.82174 9.26374 -7.96869
H 7.60052 10.796 -7.4491
O -5.63205 -9.54492 15.0086
H -5.07125 -8.78533 14.6791
H -5.12263 -10.0612 -14.5062
O 8.82917 14.7047 -8.51001
H 8.18797 -14.9707 -9.067
H 9.69014 14.595 -9.00672
O 3.75433 6.22559 2.96707
H 3.33092 5.92931 2.11094
H 3.04645 6.35651 3.66119
O -7.97955 11.0538 -12.1389
H -7.75222 10.087 -12.0222
H -8.92659 11.1385 -12.4487
O 3.59973 5.19599 13.7422
H 3.66408 4.20493 13.6253
H 2.9074 5.56082 13.1196
O -2.03585 4.39578 12.0162
H -1.28839 4.0041 11.4796
H -2.38211 3.70958 12.6559
O -0.521088 -5.79037 7.8634
H -0.720871 -6.34737 8.66953
H -0.22934 -4.87852 8.15227
O -8.06342 -5.33443 -12.6437
H -8.98732 -5.58154 -12.9359
H -7.39685 -5.88989 -13.1409
O 2.5018 -4.27921 -6.84102
H 2.29432 -4.52975 -5.89539
H 3.08083 -4.98286 -7.25289
O 5.47944 -10.6947 2.34956
H 5.34427 -11.4167 1.67098
H 4.59134 -10.3915 2.69501
O 12.348 -11.791 1.35517
H 12.2587 -12.773 1.52199
H 11.4387 -11.3814 1.28121
O -14.8304 12.0491 6.3721
H -14.705 11.2818 5.74315
H -14.2955 12.8318 6.05397
O -11.1675 -12.371 1.70635
H -10.9196 -11.767 0.9489
H -11.845 -11.918 2.28589
O -10.2706 -7.37586 -1.31168
H -11.2404 -7.45661 -1.08154
H -10.108 -7.77385 -2.21456
O -4.26918 12.669 9.02492
H -3.50534 12.0661 8.79469
H -3.91761 13.5697 9.28035
O 0.112807 -2.13426 5.02616
H -0.840242 -1.98983 4.75995
H 0.518866 -2.83776 4.44288
O 9.90257 -13.1912 -2.28987
H 9.26388 -12.6203 -1.77396
H 9.74786 -14.1528 -2.06334
O 7.54981 8.73109 13.0179
H 7.54581 7.82792 13.4472
H 7.84947 8.64708 12.0675
O -12.0554 3.37725 -12.8619
H -12.6889 2.60942 -12.7663
H -11.1539 3.10999 -12.5214
O -5.01046 6.13583 -8.89669
H -4.0796 5.7911 -8.77546
H -5.48777 5.57575 -9.57382
O -3.69652 -12.623 2.69848
H -4.37849 -12.4661 3.41285
H -3.90035 -12.0429 1.90987
O -1.38558 -6.73869 -8.02276
H -1.40495 -5.75788 -7.8287
H -1.00599 -7.22656 -7.23669
O -5.06608 9.35513 -0.416383
H -5.40741 9.04897 0.472317
H -4.08121 9.19027 -0.469972
O 5.54665 -9.0992 5.94587
H 6.49653 -8.82851 6.10232
H 5.51185 -10.0691 5.7047
O 7.40247 -5.91698 9.82735
H 8.02067 -6.00415 10.6085
H 7.08011 -6.82347 9.55461
O 1.07383 -7.38115 15.0792
H 1.26273 -8.34325 14.8825
H 1.6333 -6.80334 14.4849
O 7.11492 3.62681 14.9848
H 6.33126 3.45995 14.3865
H 7.91825 3.15503 14.6214
O 11.8465 11.6947 -13.7808
H 11.4539 12.454 -14.2999
H 12.839 11.805 -13.7279
O -2.95076 -12.9368 -4.40049
H -3.25478 -13.1684 -3.47639
H -1.95124 -12.9346 -4.43179
O 14.9139 -9.99933 12.3235
H 14.0232 -10.3558 12.6057
H -15.0696 -10.3378 11.4085
O 11.3135 -1.22081 -2.9014
H 12.3061 -1.26787 -3.01349
H 11.0019 -2.00107 -2.35905
O 4.73042 6.53029 -14.5021
H 4.40751 6.15548 14.8321
H 4.0887 6.28641 -13.7749
O -4.3377 -8.00586 10.2408
H -4.37238 -8.69039 9.5126
H -4.71772 -8.39321 11.0808
O -4.69322 1.06635 11.4807
H -4.71591 1.43366 10.5508
H -5.52118 1.34286 11.9686
O 9.01231 2.39684 -11.1843
H 9.72055 1.70235 -11.3112
H 9.21352 3.18762 -11.7624
O 5.75023 -11.2559 -1.82484
H 5.78784 -10.6942 -0.998379
H 5.13689 -10.8298 -2.48988
O -0.790567 -3.83105 11.3708
H -0.00296377 -4.24388 11.8283
H -1.39274 -4.55217 11.0282
O -7.3176 -8.52869 -12.6072
H -7.088 -7.87505 -13.3284
H -6.4778 -8.92912 -12.2406
O 7.60128 -8.30955 -9.82952
H 7.62047 -8.06161 -10.7981
H 8.06594 -9.18559 -9.70043
O 8.49449 -14.8471 -13.2065
H 9.00363 14.6172 -12.7653
H 8.62706 -14.8957 -14.1964
O -6.64386 14.9353 -7.26527
H -5.70395 15.0379 -6.93961
H -7.26219 14.866 -6.48239
O 10.4192 8.61537 -6.16654
H 10.6317 9.49285 -5.73651
H 10.2586 8.75336 -7.14388
O 1.77204 -6.22303 -10.4818
H 1.38831 -6.94557 -11.0569
H 1.06281 -5.54867 -10.2762
O 14.1031 0.322663 1.79109
H 13.696 -0.0097803 0.940331
H 13.6326 1.15559 2.08251
O 3.66644 -14.4795 -8.67806
H 2.90943 15.0727 -8.73305
H 4.41557 -14.8829 -8.15263
O -3.95475 9.45113 10.7639
H -4.91479 9.55101 11.0253
H -3.88337 8.81813 9.99299
O -7.25331 12.2169 4.56883
H -6.41565 12.0148 4.06139
H -7.02053 12.4803 5.50501
O 13.0334 -4.47877 5.44944
H 13.3031 -5.27941 4.91441
H 12.9648 -3.68325 4.84739
O -1.4418 6.49746 6.91469
H -1.38768 6.19786 5.96215
H -1.34182 7.49154 6.95763
O -3.90383 7.81983 8.65822
H -3.46384 7.18508 8.02298
H -4.51921 8.42448 8.15252
O 3.34834 -8.89248 3.06329
H 2.54453 -9.20014 3.57246
H 3.4589 -7.90543 3.17961
O 2.86592 14.3218 10.006
H 3.78612 13.9476 10.121
H 2.74957 14.6369 9.06406
O 14.2445 -2.33913 2.93772
H 14.6729 -2.88829 2.22013
H 14.4066 -1.36909 2.7566
O -1.8631 12.9191 14.7649
H -1.74478 13.7231 14.1822
H -2.68926 12.4271 14.4903
O -8.1107 -5.83859 2.66391
H -7.62673 -6.70781 2.76514
H -9.04507 -5.93542 3.00683
O 12.6743 -8.01173 -11.624
H 12.1472 -8.82123 -11.8827
H 13.1114 -7.62513 -12.4361
O -8.34822 13.8499 -14.7596
H -7.36222 13.9922 -14.8467
H -8.58451 12.9386 -15.0966
O -7.74014 -11.1465 14.8469
H -6.9804 -10.5102 14.9806
H -8.1798 -11.3301 -14.4772
O -3.48651 -8.32961 -9.53353
H -4.14726 -8.39536 -8.7858
H -2.65057 -7.89211 -9.20213
O 10.5575 -10.475 11.1068
H 10.3264 -9.69931 10.5196
H 10.0706 -11.2892 10.7905
O -13.4783 7.2004 -1.8091
H -13.0774 8.0468 -2.15965
H -14.312 6.99001 -2.31971
O -6.71927 4.89485 -10.5405
H -6.58887 5.63742 -11.1975
H -7.68468 4.84133 -10.2853
O 14.7219 7.11176 -14.5772
H 15.0814 6.22812 -14.2772
H 14.5121 7.07193 14.6491
O 9.50518 -1.25639 -13.6907
H 9.60451 -1.5267 -12.7331
H 8.54263 -1.06807 -13.8858
O -8.54521 1.13057 1.96264
H -7.62492 1.41098 2.23552
H -9.00299 0.691801 2.73591
O -10.7759 -10.6589 10.5475
H -10.2615 -11.2082 11.2061
H -11.7553 -10.8138 10.6771
O 1.61126 -12.0179 4.0679
H 1.69131 -12.202 3.08824
H 2.31888 -12.524 4.56105
O 3.59936 5.66304 -8.48077
H 4.46654 5.17145 -8.40093
H 3.59531 6.19656 -9.32656
O -12.7475 -4.67985 -1.62067
H -13.4568 -4.38866 -2.26265
H -11.8532 -4.38112 -1.95397
O -0.0845539 12.67 8.17238
H 0.905962 12.6066 8.29438
H -0.543956 12.1981 8.92492
O -9.0963 -4.38315 6.75677
H -8.63079 -5.25358 6.91702
H -9.22354 -3.90797 7.62742
O 6.03702 14.8067 -2.08998
H 5.30518 15.0121 -2.73981
H 6.33438 13.8597 -2.21122
O 1.01728 9.71383 -6.59293
H 2.01317 9.69536 -6.68165
H 0.766887 10.1777 -5.74311
O -1.71331 -10.4995 -0.868293
H -1.25743 -10.8402 -0.0460438
H -1.32338 -9.61462 -1.12317
O -14.3534 -14.2594 -2.32212
H -13.4142 -14.3972 -2.6365
H -14.981 -14.3553 -3.09477
O -4.28302 -11.0889 11.6688
H -5.15824 -10.6052 11.6627
H -3.97939 -11.2404 10.7281
O 3.62059 0.304727 12.7276
H 4.21472 1.04406 12.4107
H 2.68299 0.642621 12.8099
O 4.52935 7.49033 11.9453
H 4.98543 7.68693 11.0773
H 4.93073 6.67097 12.3546
O -11.5952 8.95255 11.5412
H -11.1878 9.83859 11.3197
H -11.2914 8.27044 10.876
O 7.6922 5.79505 -10.6649
H 7.03339 5.62211 -11.3971
H 8.61505 5.5916 -10.992
O 4.71918 -2.64896 1.60047
H 4.33586 -1.72601 1.56513
H 4.97352 -2.86841 2.54238
O -12.8018 -9.40083 2.0222
H -13.2151 -10.0982 2.60776
H -13.1088 -9.53244 1.0796
O 12.7223 10.4021 -11.5315
H 12.867 9.41716 -11.6266
H 12.4026 10.7775 -12.4015
O 11.5443 11.4148 -7.35141
H 11.8961 10.5681 -7.75066
H 12.0583 12.1926 -7.71321
O 1.28753 -9.53119 5.04854
H 0.3582 -9.28617 4.77225
H 1.40433 -10.5222 4.9832
O -14.1975 14.4604 14.2794
H -14.2939 14.2122 13.3155
H -13.5119 -15.0207 14.3707
O 2.38301 -10.3638 -10.3763
H 2.08216 -9.53168 -9.91038
H 3.33495 -10.2591 -10.6641
O 2.88306 4.13914 5.22902
H 2.23381 4.86473 5.00093
H 2.41605 3.42642 5.75244
O 7.98073 14.6425 -4.5198
H 8.88395 14.7924 -4.92202
H 8.08227 14.3864 -3.5585
O -9.13099 7.97578 3.45643
H -9.17661 7.26899 2.75047
H -8.20281 8.01815 3.82619
O -1.55716 14.0749 6.49167
H -1.06415 13.2939 6.87505
H -1.31786 14.9022 6.99991
O -5.77478 -12.9136 13.9907
H -5.08021 -12.5977 13.3444
H -6.36334 -12.1473 14.2485
O -3.18963 -11.8353 -8.36062
H -3.36505 -12.0376 -9.32413
H -2.21665 -11.9594 -8.16579
O -6.84633 -13.1411 -4.81063
H -6.31813 -13.4084 -4.00465
H -7.649 -13.7317 -4.89401
O -12.0132 -9.4959 13.9692
H -12.7154 -10.2035 13.8899
H -11.1081 -9.92029 13.9442
O -4.72695 12.2161 0.531612
H -5.04778 13.1503 0.375259
H -5.33066 11.5731 0.0603597
O -1.4174 10.7046 -12.0045
H -1.86903 9.81309 -12.0401
H -0.716149 10.7517 -12.7159
O 0.942232 8.91819 -2.64704
H 0.463606 8.87087 -1.77028
H 0.764925 9.80385 -3.07621
O -6.23514 5.29588 12.4212
H -6.84239 4.82576 13.0617
H -5.95304 6.1723 12.8115
O -1.19683 -13.8125 -9.5076
H -2.19228 -13.8606 -9.58999
H -0.803152 -13.5309 -10.3827
O 5.63646 -12.9037 0.55815
H 5.53524 -12.6209 -0.395687
H 5.90994 -13.8649 0.593591
O 4.16157 10.6179 6.40503
H 4.93436 11.2505 6.45632
H 3.30943 11.12 6.55258
O -3.40072 -10.4845 5.18525
H -2.72384 -10.682 5.89436
H -3.89806 -11.3214 4.95677
O 1.88108 11.6064 13.6418
H 1.29103 11.6072 14.4492
H 2.49218 10.8156 13.6763
O 1.65105 9.82259 2.14603
H 1.15179 10.4757 2.71539
H 2.55113 10.196 1.92148
O 7.59819 6.31376 13.9173
H 7.44859 5.3645 13.6406
H 8.37911 6.36024 14.5402
O -8.942 3.91494 3.62612
H -9.3322 3.69158 2.73288
H -7.9845 4.18092 3.5145
O -8.08946 1.18746 -8.79339
H -7.59509 0.687564 -8.08225
H -8.91625 1.59228 -8.40278
O -4.91341 -7.84046 -7.01233
H -4.96977 -7.60513 -6.04204
H -5.42782 -8.68109 -7.18187
O -5.34986 -8.42429 5.44972
H -6.06296 -8.62247 4.77724
H -4.60613 -9.08554 5.3516
O 13.3352 -0.814057 -0.583902
H 12.3611 -0.786487 -0.808353
H 13.8689 -0.899345 -1.42531
O 10.5566 5.46126 11.1518
H 11.0447 6.02626 11.817
H 10.9798 4.55622 11.1089
O 8.79579 -14.8728 14.0378
H 9.07824 -13.9147 13.9896
H 7.81314 -14.9397 13.8648
O 1.53213 -12.2388 1.28544
H 1.01836 -12.6552 0.535336
H 1.20173 -11.3076 1.43911
O 10.8189 -2.72188 -8.5077
H 11.0687 -3.68693 -8.42838
H 10.399 -2.41498 -7.65356
O -6.40396 6.36892 2.35826
H -6.42755 7.36157 2.47711
H -7.23382 6.0698 1.88721
O -1.17525 -6.44516 -3.72656
H -1.25179 -7.27739 -4.27571
H -2.08228 -6.04247 -3.60343
O 0.55453 -2.52531 -7.77038
H 0.499268 -2.91877 -8.68807
H 1.3165 -2.94183 -7.27446
O 2.50417 12.5384 7.61642
H 3.31863 12.945 8.03044
H 2.20732 13.0999 6.84398
O -0.420832 -13.7803 -12.2532
H 0.522005 -13.7776 -11.9199
H -0.636929 -14.6791 -12.6345
O -14.3024 -4.61181 -13.9652
H -13.6333 -5.0495 -14.5658
H -14.9844 -5.28506 -13.6793
O 4.92613 -10.9984 -11.7411
H 5.51859 -10.1973 -11.8268
H 5.10375 -11.6269 -12.4984
O -5.98033 -3.9801 -0.133962
H -6.00198 -3.11424 -0.633799
H -6.20037 -3.81551 0.827556
O -0.213803 3.59408 10.2214
H 0.759217 3.67257 10.4384
H -0.467807 2.62804 10.1737
O -2.10837 2.91883 -6.57888
H -2.75698 2.35933 -7.09492
H -1.2244 2.45296 -6.53893
O 4.86014 9.5169 -9.20738
H 4.23039 9.96086 -9.84483
H 4.34003 9.09306 -8.46585
O -9.82335 10.9406 4.11721
H -8.87156 11.2444 4.07441
H -9.85931 9.94454 4.03547
O 6.43694 -13.7788 10.7388
H 6.54125 -14.6911 11.1347
H 5.75884 -13.2635 11.263
O -11.3053 -2.01529 -8.8816
H -11.2849 -2.90395 -8.42347
H -10.4151 -1.83569 -9.30038
O -3.99791 14.212 -13.5571
H -4.38294 13.3426 -13.2472
H -3.07982 14.0585 -13.9226
O 0.6958 -6.85538 1.52299
H -0.115607 -6.31978 1.28893
H 1.49949 -6.45088 1.08654
O 14.241 -6.36757 4.01151
H 13.7553 -7.0692 4.53288
H 15.0195 -6.78182 3.54003
O 13.35 -9.4608 0.676206
H 13.0657 -10.3641 0.997638
H 13.0786 -8.76843 1.3448
O -7.54115 14.5696 2.64333
H -8.47303 14.9013 2.49635
H -7.5507 13.8415 3.3288
O -11.3564 8.12908 14.0667
H -11.5571 8.57063 13.1922
H -12.1207 8.27219 14.6955
O -8.66593 8.19211 -0.553245
H -7.94955 8.7779 -0.932296
H -9.49091 8.7346 -0.394663
O 10.2099 1.62503 0.119681
H 9.36026 1.1404 -0.0884921
H 10.1461 2.03336 1.03031
O 2.31986 1.31875 -11.9194
H 2.50816 1.27523 -12.9005
H 2.71902 0.520855 -11.4676
O -0.326553 -14.0063 11.5895
H 0.326991 -14.6808 11.9328
H -0.394667 -14.0844 10.5948
O -6.47847 -3.83412 -3.35593
H -7.31098 -3.33928 -3.10674
H -6.65718 -4.40473 -4.15749
O -8.33679 12.615 -0.375085
H -7.69666 12.6237 -1.14332
H -8.87886 13.4553 -0.38337
O -11.1136 -3.7388 -6.84783
H -12.0305 -3.9421 -6.50437
H -10.7446 -2.94553 -6.36352
O 10.6225 8.21679 -9.28759
H 9.63832 8.37356 -9.3703
H 10.8596 7.34895 -9.72422
O -0.273127 -13.6121 -4.4102
H -0.393396 -14.4152 -3.8266
H -0.169314 -13.9037 -5.36113
O -14.0529 -9.80947 7.43373
H -14.6822 -10.3497 6.87499
H -14.1581 -8.84012 7.21166
O -4.63091 -4.82253 12.8886
H -4.25518 -4.05845 13.4131
H -4.73277 -4.55168 11.9314
O 11.4256 8.78878 12.9458
H 11.5514 9.77336 12.8242
H 11.1794 8.5991 13.8963
O -11.6764 -0.248289 8.07624
H -10.769 -0.385868 7.67889
H -11.6042 0.354047 8.87123
O 11.0075 -8.68324 -0.737482
H 10.0744 -8.35588 -0.588266
H 11.5477 -8.53954 0.0916747
O 11.6761 -4.44971 -3.53792
H 12.2766 -4.46786 -2.7385
H 10.7356 -4.2781 -3.24451
O -14.5415 10.92 14.5371
H -14.1247 10.1025 14.9345
H -13.9295 11.3035 13.8454
O 4.04645 -3.96904 13.2557
H 4.63819 -4.28259 13.9983
H 4.60511 -3.73929 12.4587
O 4.48888 12.1636 -3.73804
H 4.35005 11.2861 -3.27899
H 4.73105 12.0045 -4.69514
O -4.24543 -5.34517 -9.53353
H -3.49502 -5.02946 -10.1142
H -3.94472 -6.13648 -9.00115
O 2.93141 1.13654 7.87464
H 3.67413 1.06452 7.2089
H 2.19268 1.69086 7.49121
O 10.4493 -6.48956 -5.24405
H 10.9777 -5.79549 -4.75508
H 11.0502 -6.9856 -5.87091
O -5.67927 12.2265 -12.4043
H -6.55045 11.7581 -12.2571
H -5.58276 12.9675 -11.7397
O 9.5524 -14.0982 1.83521
H 8.64721 -14.4855 1.66001
H 10.2132 -14.4933 1.19699
O 6.93983 0.295542 8.45576
H 7.91623 0.217845 8.25417
H 6.45162 0.585864 7.63273
O 9.80124 -12.1454 3.68618
H 9.31312 -11.328 3.38022
H 9.71397 -12.8637 2.9959
O -1.57903 6.70944 -9.80422
H -1.8735 5.89669 -9.30148
H -2.1998 6.86976 -10.5717
O 8.98511 1.66234 10.9301
H 8.53895 1.73881 10.0384
H 9.60348 0.876438 10.9271
O 1.36092 -0.797898 8.8513
H 1.82744 -0.0229887 8.42481
H 1.80346 -1.0157 9.72121
O -13.2473 0.319679 5.68559
H -12.4826 0.185337 6.3159
H -12.9769 0.958041 4.96487
O 9.06229 -9.58302 -6.96426
H 9.0004 -10.3667 -7.58234
H 9.41678 -8.79219 -7.46321
O -1.36307 8.10413 -6.98908
H -0.396401 8.19022 -6.7479
H -1.46193 7.45464 -7.74302
O -5.66601 8.07237 -13.6352
H -6.39171 8.05627 -12.9473
H -5.48784 9.01732 -13.9097
O -6.71187 4.02157 -3.35012
H -7.64459 3.96807 -2.99345
H -6.58532 3.3266 -4.05796
O -4.67851 4.25302 9.64714
H -3.70746 4.25756 9.40825
H -4.85329 4.94741 10.3452
O 11.171 4.46557 5.1173
H 12.1666 4.39365 5.17693
H 10.918 4.86859 4.23775
O -14.943 14.7954 -12.3186
H 14.6446 -14.7762 -11.8475
H -14.3052 14.3975 -11.6591
O -1.42274 12.2541 -4.60253
H -1.84973 12.8902 -5.24525
H -1.94078 11.3989 -4.58614
O 4.98279 12.5112 -0.382114
H 4.39561 13.0615 0.211542
H 4.88067 12.8176 -1.32856
O -5.70756 7.33561 13.9494
H -6.18375 7.6279 14.7788
H -4.73272 7.22855 14.145
O 8.81034 -6.75928 -7.60581
H 8.65862 -7.10414 -6.67949