Created on Wed Jul 27 11:38:35 2022

3078 atoms
7 atom types

0.000000  44.018010 xlo xhi
0.000000  38.120715 ylo yhi
0.000000  35.940555 zlo zhi
22.009005  22.009005  12.706905 xy xz yz

Masses

    1    91.224000000 # Zr3+4
    2     1.007940000 # H_
    3    12.010700000 # C_R
    4    15.999400000 # O_3
    5    15.999400000 # O_R
    6    15.999400000 # O_2
    7    16.04        # CH4

Atoms

       1      444        1     0.00000   14.67267   14.91289   10.54501
       2      444        1     0.00000   14.67267    2.02965    1.43518
       3      444        1     0.00000    9.09406    5.25046   10.54501
       4      444        1     0.00000    9.09406   11.69208    1.43518
       5      444        1     0.00000   20.25128    5.25046   10.54501
       6      444        1     0.00000   20.25128   11.69208    1.43518
       7      444        2     0.00000    7.33634    9.50830    1.13088
       8      444        2     0.00000   11.90259    1.59930    1.13088
       9      444        2     0.00000    2.77008    1.59930    1.13088
      10      444        2     0.00000    7.33634    4.23563    8.58755
      11      444        2     0.00000   10.54497   12.31467   13.70872
      12      444        2     0.00000   17.92576   12.59418    4.97567
      13      444        2     0.00000   11.41958    8.88917   10.21535
      14      444        2     0.00000   18.80037   17.02960    7.04081
      15      444        2     0.00000   12.53343   20.47371    7.04081
      16      444        2     0.00000    9.28034   16.29946    4.97567
      17      444        2     0.00000   20.74437   15.68178   13.70872
      18      444        2     0.00000   20.06500   10.12426   13.70872
      19      444        2     0.00000    8.60097   18.15197   10.21535
      20      444        2     0.00000   12.68421   13.32432    7.04081
      21      444        2     0.00000   16.81191   13.46271   16.95586
      22      444        2     0.00000   16.66113   11.07958   10.21535
      23      444        2     0.00000   12.53343   13.46271   16.95586
      24      444        2     0.00000    8.60097   15.68178   13.70872
      25      444        2     0.00000   16.81191   20.47371    7.04081
      26      444        2     0.00000   20.74437   18.15197   10.21535
      27      444        2     0.00000    9.28034   10.12426   13.70872
      28      444        2     0.00000   10.54497   17.02960    7.04081
      29      444        2     0.00000   16.66113   13.32432    7.04081
      30      444        2     0.00000   17.92576    8.88917   10.21535
      31      444        2     0.00000   20.06500   16.29946    4.97567
      32      444        2     0.00000   11.41958   12.59418    4.97567
      33      444        2     0.00000   12.68421   11.07958   10.21535
      34      444        2     0.00000   18.80037   12.31467   13.70872
      35      444        3     0.00000   11.60549   11.84055   11.90575
      36      444        3     0.00000   11.78781   18.60812   16.91444
      37      444        3     0.00000   17.55753   22.14979   11.90575
      38      444        3     0.00000   17.73985   15.17170    7.19479
      39      444        3     0.00000   14.67267   20.48421    7.19479
      40      444        3     0.00000   17.55753   18.60812   16.91444
      41      444        3     0.00000   20.62471   16.83728   11.90575
      42      444        3     0.00000   11.78781   22.14979   11.90575
      43      444        3     0.00000    8.72063   16.83728   11.90575
      44      444        3     0.00000   11.60549   15.17170    7.19479
      45      444        3     0.00000   14.67267   13.61139   16.91444
      46      444        3     0.00000   17.73985   11.84055   11.90575
      47      444        3     0.00000   10.72392   11.54815   12.95005
      48      444        3     0.00000   18.10266   13.56615    5.44380
      49      444        3     0.00000   11.24268    9.65451   10.97569
      50      444        3     0.00000   18.62142   16.05881    6.57101
      51      444        3     0.00000   13.46363   20.80413    6.57101
      52      444        3     0.00000   10.03364   15.66028    5.44380
      53      444        3     0.00000   21.31873   16.22002   12.95005
      54      444        3     0.00000   19.31170   10.35255   12.95005
      55      444        3     0.00000    8.02661   17.61610   10.97569
      56      444        3     0.00000   11.93296   13.96469    6.57101
      57      444        3     0.00000   15.88171   13.12992   17.42398
      58      444        3     0.00000   17.41238   10.85011   10.97569
      59      444        3     0.00000   13.46363   13.12992   17.42398
      60      444        3     0.00000    8.02661   16.22002   12.95005
      61      444        3     0.00000   15.88171   20.80413    6.57101
      62      444        3     0.00000   21.31873   17.61610   10.97569
      63      444        3     0.00000   10.03364   10.35255   12.95005
      64      444        3     0.00000   10.72392   16.05881    6.57101
      65      444        3     0.00000   17.41238   13.96469    6.57101
      66      444        3     0.00000   18.10266    9.65451   10.97569
      67      444        3     0.00000   19.31170   15.66028    5.44380
      68      444        3     0.00000   11.24268   13.56615    5.44380
      69      444        3     0.00000   11.93296   10.85011   10.97569
      70      444        3     0.00000   18.62142   11.54815   12.95005
      71      444        3     0.00000   16.96795   15.61736    8.37750
      72      444        3     0.00000   16.84916   20.84950   11.93169
      73      444        3     0.00000   12.49618   18.19913   15.67986
      74      444        3     0.00000   12.37739   13.10417   11.93169
      75      444        3     0.00000   19.14444   16.87395   11.93169
      76      444        3     0.00000   16.96795   13.10417   11.93169
      77      444        3     0.00000   14.67267   19.59290    8.37750
      78      444        3     0.00000   12.37739   15.61736    8.37750
      79      444        3     0.00000   14.67267   14.42935   15.67986
      80      444        3     0.00000   12.49618   20.84950   11.93169
      81      444        3     0.00000   10.20090   16.87395   11.93169
      82      444        3     0.00000   16.84916   18.19913   15.67986
      83      444        4     0.00000    7.33634    4.23564    9.56110
      84      444        4     0.00000    1.97518    1.14037    0.80636
      85      444        4     0.00000   12.69749    1.14037    0.80636
      86      444        4     0.00000    7.33634   10.42617    0.80636
      87      444        5     0.00000   13.26027   13.27390   11.02306
      88      444        5     0.00000   13.33607   19.02404   15.18186
      89      444        5     0.00000   16.00927   20.65494   12.87542
      90      444        5     0.00000   16.08507   14.81728    8.84040
      91      444        5     0.00000   15.80700   19.22834    8.84040
      92      444        5     0.00000   17.14360   17.05932   15.18186
      93      444        5     0.00000   18.55600   17.55369   11.02306
      94      444        5     0.00000   12.20174   20.00003   11.02306
      95      444        5     0.00000   10.78934   16.24387   12.87542
      96      444        5     0.00000   12.12594   16.78200    8.84040
      97      444        5     0.00000   13.53834   14.74426   15.18186
      98      444        5     0.00000   17.21940   13.92881   12.87542
      99      444        5     0.00000   15.80700   14.74426   15.18186
     100      444        5     0.00000   10.78934   17.55369   11.02306
     101      444        5     0.00000   13.53834   19.22834    8.84040
     102      444        5     0.00000   18.55600   16.24387   12.87542
     103      444        5     0.00000   17.14360   20.00003   11.02306
     104      444        5     0.00000   13.26027   14.81728    8.84040
     105      444        5     0.00000   17.21940   16.78200    8.84040
     106      444        5     0.00000   13.33607   20.65494   12.87542
     107      444        5     0.00000   12.20174   17.05932   15.18186
     108      444        5     0.00000   16.00927   19.02404   15.18186
     109      444        5     0.00000   12.12594   13.92881   12.87542
     110      444        5     0.00000   16.08507   13.27390   11.02306
     111      444        6     0.00000   22.00901   12.70690    1.81205
     112      444        6     0.00000   27.86581   16.08833   11.37617
     113      444        6     0.00000   16.15220   16.08833   11.37617
     114      444        6     0.00000   22.00901    5.94405   11.37617
     115      444        1     0.00000   22.00901   19.14853   22.52519
     116      444        1     0.00000   22.00901    6.26528   13.41536
     117      444        1     0.00000   16.43039    9.48609   22.52519
     118      444        1     0.00000   16.43039   15.92772   13.41536
     119      444        1     0.00000   27.58762    9.48609   22.52519
     120      444        1     0.00000   27.58762   15.92772   13.41536
     121      444        2     0.00000   14.67267   13.74393   13.11106
     122      444        2     0.00000   19.23893    5.83494   13.11106
     123      444        2     0.00000   10.10641    5.83494   13.11106
     124      444        2     0.00000   14.67267    8.47127   20.56773
     125      444        2     0.00000   17.88130   16.55031   25.68891
     126      444        2     0.00000   25.26209   16.82982   16.95586
     127      444        2     0.00000   18.75592   13.12481   22.19554
     128      444        2     0.00000   26.13671   21.26523   19.02099
     129      444        2     0.00000   19.86976   24.70934   19.02099
     130      444        2     0.00000   16.61667   20.53510   16.95586
     131      444        2     0.00000   28.08071   19.91742   25.68891
     132      444        2     0.00000   27.40134   14.35990   25.68891
     133      444        2     0.00000   15.93730   22.38760   22.19554
     134      444        2     0.00000   20.02055   17.55995   19.02099
     135      444        2     0.00000   24.14825   17.69834   28.93604
     136      444        2     0.00000   23.99746   15.31521   22.19554
     137      444        2     0.00000   19.86976   17.69834   28.93604
     138      444        2     0.00000   15.93730   19.91742   25.68891
     139      444        2     0.00000   24.14825   24.70934   19.02099
     140      444        2     0.00000   28.08071   22.38760   22.19554
     141      444        2     0.00000   16.61667   14.35990   25.68891
     142      444        2     0.00000   17.88130   21.26523   19.02099
     143      444        2     0.00000   23.99746   17.55995   19.02099
     144      444        2     0.00000   25.26209   13.12481   22.19554
     145      444        2     0.00000   27.40134   20.53510   16.95586
     146      444        2     0.00000   18.75592   16.82982   16.95586
     147      444        2     0.00000   20.02055   15.31521   22.19554
     148      444        2     0.00000   26.13671   16.55031   25.68891
     149      444        3     0.00000   18.94183   16.07619   23.88594
     150      444        3     0.00000   19.12414   22.84375   28.89462
     151      444        3     0.00000   24.89387   26.38542   23.88594
     152      444        3     0.00000   25.07618   19.40734   19.17498
     153      444        3     0.00000   22.00901   24.71985   19.17498
     154      444        3     0.00000   24.89387   22.84375   28.89462
     155      444        3     0.00000   27.96105   21.07292   23.88594
     156      444        3     0.00000   19.12414   26.38542   23.88594
     157      444        3     0.00000   16.05696   21.07292   23.88594
     158      444        3     0.00000   18.94183   19.40734   19.17498
     159      444        3     0.00000   22.00901   17.84702   28.89462
     160      444        3     0.00000   25.07618   16.07619   23.88594
     161      444        3     0.00000   18.06025   15.78378   24.93024
     162      444        3     0.00000   25.43899   17.80179   17.42398
     163      444        3     0.00000   18.57902   13.89015   22.95588
     164      444        3     0.00000   25.95776   20.29444   18.55120
     165      444        3     0.00000   20.79996   25.03976   18.55120
     166      444        3     0.00000   17.36998   19.89591   17.42398
     167      444        3     0.00000   28.65506   20.45565   24.93024
     168      444        3     0.00000   26.64803   14.58819   24.93024
     169      444        3     0.00000   15.36295   21.85173   22.95588
     170      444        3     0.00000   19.26929   18.20032   18.55120
     171      444        3     0.00000   23.21805   17.36555   29.40417
     172      444        3     0.00000   24.74872   15.08574   22.95588
     173      444        3     0.00000   20.79996   17.36555   29.40417
     174      444        3     0.00000   15.36295   20.45565   24.93024
     175      444        3     0.00000   23.21805   25.03976   18.55120
     176      444        3     0.00000   28.65506   21.85173   22.95588
     177      444        3     0.00000   17.36998   14.58819   24.93024
     178      444        3     0.00000   18.06025   20.29444   18.55120
     179      444        3     0.00000   24.74872   18.20032   18.55120
     180      444        3     0.00000   25.43899   13.89015   22.95588
     181      444        3     0.00000   26.64803   19.89591   17.42398
     182      444        3     0.00000   18.57902   17.80179   17.42398
     183      444        3     0.00000   19.26929   15.08574   22.95588
     184      444        3     0.00000   25.95776   15.78378   24.93024
     185      444        3     0.00000   24.30429   19.85299   20.35769
     186      444        3     0.00000   24.18549   25.08513   23.91187
     187      444        3     0.00000   19.83252   22.43477   27.66005
     188      444        3     0.00000   19.71372   17.33980   23.91187
     189      444        3     0.00000   26.48077   21.10959   23.91187
     190      444        3     0.00000   24.30429   17.33980   23.91187
     191      444        3     0.00000   22.00900   23.82854   20.35769
     192      444        3     0.00000   19.71372   19.85299   20.35769
     193      444        3     0.00000   22.00901   18.66499   27.66005
     194      444        3     0.00000   19.83252   25.08513   23.91187
     195      444        3     0.00000   17.53724   21.10959   23.91187
     196      444        3     0.00000   24.18549   22.43477   27.66005
     197      444        4     0.00000   14.67267    8.47127   21.54128
     198      444        4     0.00000    9.31151    5.37600   12.78655
     199      444        4     0.00000   20.03383    5.37600   12.78655
     200      444        4     0.00000   14.67267   14.66180   12.78655
     201      444        5     0.00000   20.59661   17.50954   23.00324
     202      444        5     0.00000   20.67241   23.25968   27.16204
     203      444        5     0.00000   23.34560   24.89057   24.85561
     204      444        5     0.00000   23.42140   19.05291   20.82059
     205      444        5     0.00000   23.14334   23.46398   20.82059
     206      444        5     0.00000   24.47994   21.29495   27.16204
     207      444        5     0.00000   25.89234   21.78932   23.00324
     208      444        5     0.00000   19.53807   24.23567   23.00324
     209      444        5     0.00000   18.12567   20.47950   24.85561
     210      444        5     0.00000   19.46227   21.01764   20.82059
     211      444        5     0.00000   20.87467   18.97989   27.16204
     212      444        5     0.00000   24.55574   18.16445   24.85561
     213      444        5     0.00000   23.14334   18.97989   27.16204
     214      444        5     0.00000   18.12567   21.78932   23.00324
     215      444        5     0.00000   20.87467   23.46398   20.82059
     216      444        5     0.00000   25.89234   20.47950   24.85561
     217      444        5     0.00000   24.47994   24.23567   23.00324
     218      444        5     0.00000   20.59661   19.05291   20.82059
     219      444        5     0.00000   24.55574   21.01764   20.82059
     220      444        5     0.00000   20.67241   24.89057   24.85561
     221      444        5     0.00000   19.53807   21.29495   27.16204
     222      444        5     0.00000   23.34560   23.25968   27.16204
     223      444        5     0.00000   19.46227   18.16445   24.85561
     224      444        5     0.00000   23.42140   17.50954   23.00324
     225      444        6     0.00000   29.34534   16.94254   13.79223
     226      444        6     0.00000   35.20214   20.32397   23.35635
     227      444        6     0.00000   23.48854   20.32397   23.35635
     228      444        6     0.00000   29.34534   10.17969   23.35635
     229      444        1     0.00000   29.34534   23.38416   34.50538
     230      444        1     0.00000   29.34534   10.50092   25.39555
     231      444        1     0.00000   23.76673   13.72173   34.50538
     232      444        1     0.00000   23.76673   20.16335   25.39555
     233      444        1     0.00000   34.92395   13.72173   34.50538
     234      444        1     0.00000   34.92395   20.16335   25.39555
     235      444        2     0.00000   22.00901   17.97957   25.09125
     236      444        2     0.00000   26.57526   10.07057   25.09125
     237      444        2     0.00000   17.44275   10.07057   25.09125
     238      444        2     0.00000   22.00901   12.70690   32.54792
     239      444        2     0.00000   25.21764   20.78594   37.66909
     240      444        2     0.00000   32.59843   21.06545   28.93604
     241      444        2     0.00000   26.09225   17.36044   34.17572
     242      444        2     0.00000   33.47304   25.50087   31.00118
     243      444        2     0.00000   27.20610   28.94498   31.00118
     244      444        2     0.00000   23.95301   24.77073   28.93604
     245      444        2     0.00000   35.41704   24.15305   37.66909
     246      444        2     0.00000   34.73767   18.59553   37.66909
     247      444        2     0.00000   23.27364   26.62324   34.17572
     248      444        2     0.00000   27.35688   21.79559   31.00118
     249      444        2     0.00000   31.48458   21.93398   40.91623
     250      444        2     0.00000   31.33380   19.55085   34.17572
     251      444        2     0.00000   27.20610   21.93398   40.91623
     252      444        2     0.00000   23.27364   24.15305   37.66909
     253      444        2     0.00000   31.48458   28.94498   31.00118
     254      444        2     0.00000   35.41704   26.62324   34.17572
     255      444        2     0.00000   23.95301   18.59553   37.66909
     256      444        2     0.00000   25.21764   25.50087   31.00118
     257      444        2     0.00000   31.33380   21.79559   31.00118
     258      444        2     0.00000   32.59843   17.36044   34.17572
     259      444        2     0.00000   34.73767   24.77073   28.93604
     260      444        2     0.00000   26.09225   21.06545   28.93604
     261      444        2     0.00000   27.35688   19.55085   34.17572
     262      444        2     0.00000   33.47304   20.78594   37.66909
     263      444        3     0.00000   26.27816   20.31182   35.86612
     264      444        3     0.00000   26.46048   27.07939   40.87481
     265      444        3     0.00000   32.23020   30.62106   35.86612
     266      444        3     0.00000   32.41252   23.64297   31.15516
     267      444        3     0.00000   29.34534   28.95548   31.15516
     268      444        3     0.00000   32.23020   27.07939   40.87481
     269      444        3     0.00000   35.29738   25.30855   35.86612
     270      444        3     0.00000   26.46048   30.62106   35.86612
     271      444        3     0.00000   23.39330   25.30855   35.86612
     272      444        3     0.00000   26.27816   23.64297   31.15516
     273      444        3     0.00000   29.34534   22.08266   40.87481
     274      444        3     0.00000   32.41252   20.31182   35.86612
     275      444        3     0.00000   25.39659   20.01942   36.91042
     276      444        3     0.00000   32.77533   22.03742   29.40417
     277      444        3     0.00000   25.91535   18.12578   34.93606
     278      444        3     0.00000   33.29409   24.53008   30.53138
     279      444        3     0.00000   28.13630   29.27540   30.53138
     280      444        3     0.00000   24.70631   24.13155   29.40417
     281      444        3     0.00000   35.99140   24.69129   36.91042
     282      444        3     0.00000   33.98437   18.82382   36.91042
     283      444        3     0.00000   22.69928   26.08737   34.93606
     284      444        3     0.00000   26.60563   22.43596   30.53138
     285      444        3     0.00000   30.55438   21.60119   41.38435
     286      444        3     0.00000   32.08505   19.32138   34.93606
     287      444        3     0.00000   28.13630   21.60119   41.38435
     288      444        3     0.00000   22.69928   24.69129   36.91042
     289      444        3     0.00000   30.55438   29.27540   30.53138
     290      444        3     0.00000   35.99140   26.08737   34.93606
     291      444        3     0.00000   24.70631   18.82382   36.91042
     292      444        3     0.00000   25.39659   24.53008   30.53138
     293      444        3     0.00000   32.08505   22.43596   30.53138
     294      444        3     0.00000   32.77533   18.12578   34.93606
     295      444        3     0.00000   33.98437   24.13155   29.40417
     296      444        3     0.00000   25.91535   22.03742   29.40417
     297      444        3     0.00000   26.60563   19.32138   34.93606
     298      444        3     0.00000   33.29409   20.01942   36.91042
     299      444        3     0.00000   31.64062   24.08863   32.33787
     300      444        3     0.00000   31.52183   29.32077   35.89206
     301      444        3     0.00000   27.16885   26.67040   39.64023
     302      444        3     0.00000   27.05006   21.57544   35.89206
     303      444        3     0.00000   33.81711   25.34522   35.89206
     304      444        3     0.00000   31.64062   21.57544   35.89206
     305      444        3     0.00000   29.34534   28.06417   32.33787
     306      444        3     0.00000   27.05006   24.08863   32.33787
     307      444        3     0.00000   29.34534   22.90062   39.64023
     308      444        3     0.00000   27.16885   29.32077   35.89206
     309      444        3     0.00000   24.87357   25.34522   35.89206
     310      444        3     0.00000   31.52183   26.67040   39.64023
     311      444        4     0.00000   22.00901   12.70691   33.52147
     312      444        4     0.00000   16.64785    9.61164   24.76673
     313      444        4     0.00000   27.37016    9.61164   24.76673
     314      444        4     0.00000   22.00901   18.89744   24.76673
     315      444        5     0.00000   27.93294   21.74517   34.98343
     316      444        5     0.00000   28.00874   27.49531   39.14223
     317      444        5     0.00000   30.68194   29.12621   36.83579
     318      444        5     0.00000   30.75774   23.28855   32.80077
     319      444        5     0.00000   30.47967   27.69961   32.80077
     320      444        5     0.00000   31.81627   25.53059   39.14223
     321      444        5     0.00000   33.22867   26.02496   34.98343
     322      444        5     0.00000   26.87441   28.47130   34.98343
     323      444        5     0.00000   25.46201   24.71514   36.83579
     324      444        5     0.00000   26.79861   25.25327   32.80077
     325      444        5     0.00000   28.21101   23.21553   39.14223
     326      444        5     0.00000   31.89207   22.40008   36.83579
     327      444        5     0.00000   30.47967   23.21553   39.14223
     328      444        5     0.00000   25.46201   26.02496   34.98343
     329      444        5     0.00000   28.21101   27.69961   32.80077
     330      444        5     0.00000   33.22867   24.71514   36.83579
     331      444        5     0.00000   31.81627   28.47130   34.98343
     332      444        5     0.00000   27.93294   23.28855   32.80077
     333      444        5     0.00000   31.89207   25.25327   32.80077
     334      444        5     0.00000   28.00874   29.12621   36.83579
     335      444        5     0.00000   26.87441   25.53059   39.14223
     336      444        5     0.00000   30.68194   27.49531   39.14223
     337      444        5     0.00000   26.79861   22.40008   36.83579
     338      444        5     0.00000   30.75774   21.74517   34.98343
     339      444        6     0.00000   36.68168   21.17817   25.77242
     340      444        6     0.00000   42.53848   24.55960   35.33654
     341      444        6     0.00000   30.82487   24.55960   35.33654
     342      444        6     0.00000   36.68168   14.41532   35.33654
     343      444        1     0.00000   22.00901   27.61980   10.54501
     344      444        1     0.00000   22.00901   14.73655    1.43518
     345      444        1     0.00000   16.43039   17.95736   10.54501
     346      444        1     0.00000   16.43039   24.39899    1.43518
     347      444        1     0.00000   27.58762   17.95736   10.54501
     348      444        1     0.00000   27.58762   24.39899    1.43518
     349      444        2     0.00000   14.67267   22.21520    1.13088
     350      444        2     0.00000   19.23893   14.30621    1.13088
     351      444        2     0.00000   10.10641   14.30621    1.13088
     352      444        2     0.00000   14.67267   16.94254    8.58755
     353      444        2     0.00000   17.88130   25.02158   13.70872
     354      444        2     0.00000   25.26209   25.30109    4.97567
     355      444        2     0.00000   18.75592   21.59608   10.21535
     356      444        2     0.00000   26.13671   29.73650    7.04081
     357      444        2     0.00000   19.86976   33.18061    7.04081
     358      444        2     0.00000   16.61667   29.00637    4.97567
     359      444        2     0.00000   28.08071   28.38869   13.70872
     360      444        2     0.00000   27.40134   22.83117   13.70872
     361      444        2     0.00000   15.93730   30.85887   10.21535
     362      444        2     0.00000   20.02055   26.03122    7.04081
     363      444        2     0.00000   24.14825   26.16961   16.95586
     364      444        2     0.00000   23.99746   23.78648   10.21535
     365      444        2     0.00000   19.86976   26.16961   16.95586
     366      444        2     0.00000   15.93730   28.38869   13.70872
     367      444        2     0.00000   24.14825   33.18061    7.04081
     368      444        2     0.00000   28.08071   30.85887   10.21535
     369      444        2     0.00000   16.61667   22.83117   13.70872
     370      444        2     0.00000   17.88130   29.73650    7.04081
     371      444        2     0.00000   23.99746   26.03122    7.04081
     372      444        2     0.00000   25.26209   21.59608   10.21535
     373      444        2     0.00000   27.40134   29.00637    4.97567
     374      444        2     0.00000   18.75592   25.30109    4.97567
     375      444        2     0.00000   20.02055   23.78648   10.21535
     376      444        2     0.00000   26.13671   25.02158   13.70872
     377      444        3     0.00000   18.94183   24.54746   11.90575
     378      444        3     0.00000   19.12414   31.31502   16.91444
     379      444        3     0.00000   24.89387   34.85669   11.90575
     380      444        3     0.00000   25.07618   27.87861    7.19479
     381      444        3     0.00000   22.00901   33.19112    7.19479
     382      444        3     0.00000   24.89387   31.31502   16.91444
     383      444        3     0.00000   27.96105   29.54418   11.90575
     384      444        3     0.00000   19.12414   34.85669   11.90575
     385      444        3     0.00000   16.05696   29.54418   11.90575
     386      444        3     0.00000   18.94183   27.87861    7.19479
     387      444        3     0.00000   22.00901   26.31829   16.91444
     388      444        3     0.00000   25.07618   24.54746   11.90575
     389      444        3     0.00000   18.06025   24.25505   12.95005
     390      444        3     0.00000   25.43899   26.27306    5.44380
     391      444        3     0.00000   18.57902   22.36142   10.97569
     392      444        3     0.00000   25.95776   28.76571    6.57101
     393      444        3     0.00000   20.79996   33.51103    6.57101
     394      444        3     0.00000   17.36998   28.36718    5.44380
     395      444        3     0.00000   28.65506   28.92692   12.95005
     396      444        3     0.00000   26.64803   23.05946   12.95005
     397      444        3     0.00000   15.36295   30.32300   10.97569
     398      444        3     0.00000   19.26929   26.67159    6.57101
     399      444        3     0.00000   23.21805   25.83682   17.42398
     400      444        3     0.00000   24.74872   23.55701   10.97569
     401      444        3     0.00000   20.79996   25.83682   17.42398
     402      444        3     0.00000   15.36295   28.92692   12.95005
     403      444        3     0.00000   23.21805   33.51103    6.57101
     404      444        3     0.00000   28.65506   30.32300   10.97569
     405      444        3     0.00000   17.36998   23.05946   12.95005
     406      444        3     0.00000   18.06025   28.76571    6.57101
     407      444        3     0.00000   24.74872   26.67159    6.57101
     408      444        3     0.00000   25.43899   22.36142   10.97569
     409      444        3     0.00000   26.64803   28.36718    5.44380
     410      444        3     0.00000   18.57902   26.27306    5.44380
     411      444        3     0.00000   19.26929   23.55701   10.97569