Created on Wed Aug 24 08:46:54 2022

3564 atoms
8 atom types

0.000000  44.018010 xlo xhi
0.000000  38.120715 ylo yhi
0.000000  35.940555 zlo zhi
22.009005  22.009005  12.706905 xy xz yz

Masses

    1    91.224000000 # Zr3+4
    2     1.007940000 # H_
    3    12.010700000 # C_R
    4    15.999400000 # O_3
    5    15.999400000 # O_R
    6    15.999400000 # O_2
    7    12.010700000 # C_2
    8    16.04        # CH4

Atoms

       1      444        1     0.00000   14.67267   14.91289   10.54501
       2      444        1     0.00000   14.67267    2.02965    1.43518
       3      444        1     0.00000    9.09406    5.25046   10.54501
       4      444        1     0.00000    9.09406   11.69208    1.43518
       5      444        1     0.00000   20.25128    5.25046   10.54501
       6      444        1     0.00000   20.25128   11.69208    1.43518
       7      444        2     0.00000    7.33634    9.50830    1.13088
       8      444        2     0.00000   11.90259    1.59930    1.13088
       9      444        2     0.00000    2.77008    1.59930    1.13088
      10      444        2     0.00000    7.33634    4.23563    8.58755
      11      444        2     0.00000    8.43681   10.61127   11.70186
      12      444        2     0.00000   18.58090   13.45868    8.16892
      13      444        2     0.00000    8.60097   17.72546   13.85192
      14      444        2     0.00000    9.70144   15.29984    8.16892
      15      444        2     0.00000   13.60967   15.05810   18.08397
      16      444        2     0.00000   19.64390   12.80168   11.70186
      17      444        2     0.00000   15.74892   12.03275   15.94473
      18      444        2     0.00000    8.60097   15.93521    9.96599
      19      444        2     0.00000   13.60967   22.06910    8.16892
      20      444        2     0.00000   20.74437   17.72546   13.85192
      21      444        2     0.00000   12.12646    8.48105   12.09442
      22      444        2     0.00000   13.39109   14.95988    6.02968
      23      444        2     0.00000   17.03049   16.82399    6.02968
      24      444        2     0.00000   20.90853   10.61127   11.70186
      25      444        2     0.00000   19.84553   12.72854    6.10378
      26      444        2     0.00000    8.43681   14.56971    6.10378
      27      444        2     0.00000    9.70144   12.80168   11.70186
      28      444        2     0.00000   15.95425   10.67146   12.09442
      29      444        3     0.00000   11.60549   11.84055   11.90575
      30      444        3     0.00000   11.78781   18.60812   16.91444
      31      444        3     0.00000   17.55753   22.14979   11.90575
      32      444        3     0.00000   17.73985   15.17170    7.19479
      33      444        3     0.00000   14.67267   20.48421    7.19479
      34      444        3     0.00000   17.55753   18.60812   16.91444
      35      444        3     0.00000   20.62471   16.83728   11.90575
      36      444        3     0.00000   11.78781   22.14979   11.90575
      37      444        3     0.00000    8.72063   16.83728   11.90575
      38      444        3     0.00000   11.60549   15.17170    7.19479
      39      444        3     0.00000   14.67267   13.61139   16.91444
      40      444        3     0.00000   17.73985   11.84055   11.90575
      41      444        3     0.00000   12.30185   10.63713   12.00763
      42      444        3     0.00000   18.34617   15.52878    4.89902
      43      444        3     0.00000    9.52629   10.64547   11.78576
      44      444        3     0.00000   18.53214   14.02533    7.23528
      45      444        3     0.00000   15.28507   20.03370    6.02624
      46      444        3     0.00000   11.61157   14.46808    4.89902
      47      444        3     0.00000   21.31873   16.32312   10.81145
      48      444        3     0.00000   17.73377    9.44153   12.00763
      49      444        3     0.00000    8.02661   17.33492   13.00767
      50      444        3     0.00000   10.21656   15.05875    7.23528
      51      444        3     0.00000   14.07603   14.06933   18.08825
      52      444        3     0.00000   19.12878   11.84107   11.78576
      53      444        3     0.00000   15.28507   12.35949   16.87920
      54      444        3     0.00000    8.02661   16.32312   10.81145
      55      444        3     0.00000   14.07603   21.74354    7.23528
      56      444        3     0.00000   21.31873   17.33492   13.00767
      57      444        3     0.00000   11.61157    9.44153   12.00763
      58      444        3     0.00000   12.30185   14.86661    6.02624
      59      444        3     0.00000   17.65589   15.92732    6.02624
      60      444        3     0.00000   19.81905   10.64547   11.78576
      61      444        3     0.00000   19.22241   13.62680    6.10806
      62      444        3     0.00000    9.52629   14.66022    6.10806
      63      444        3     0.00000   10.21656   11.84107   11.78576
      64      444        3     0.00000   17.04349   10.63713   12.00763
      65      444        3     0.00000   16.96795   15.61736    8.37750
      66      444        3     0.00000   16.84916   20.84950   11.93169
      67      444        3     0.00000   12.49618   18.19913   15.67986
      68      444        3     0.00000   12.37739   13.10417   11.93169
      69      444        3     0.00000   19.14444   16.87395   11.93169
      70      444        3     0.00000   16.96795   13.10417   11.93169
      71      444        3     0.00000   14.67267   19.59290    8.37750
      72      444        3     0.00000   12.37739   15.61736    8.37750
      73      444        3     0.00000   14.67267   14.42935   15.67986
      74      444        3     0.00000   12.49618   20.84950   11.93169
      75      444        3     0.00000   10.20090   16.87395   11.93169
      76      444        3     0.00000   16.84916   18.19913   15.67986
      77      444        4     0.00000    7.33634    4.23564    9.56110
      78      444        4     0.00000    1.97518    1.14037    0.80636
      79      444        4     0.00000   12.69749    1.14037    0.80636
      80      444        4     0.00000    7.33634   10.42617    0.80636
      81      444        5     0.00000   13.26027   13.27390   11.02306
      82      444        5     0.00000   13.33607   19.02404   15.18186
      83      444        5     0.00000   16.00927   20.65494   12.87542
      84      444        5     0.00000   16.08507   14.81728    8.84040
      85      444        5     0.00000   15.80700   19.22834    8.84040
      86      444        5     0.00000   17.14360   17.05932   15.18186
      87      444        5     0.00000   18.55600   17.55369   11.02306
      88      444        5     0.00000   12.20174   20.00003   11.02306
      89      444        5     0.00000   10.78934   16.24387   12.87542
      90      444        5     0.00000   12.12594   16.78200    8.84040
      91      444        5     0.00000   13.53834   14.74426   15.18186
      92      444        5     0.00000   17.21940   13.92881   12.87542
      93      444        5     0.00000   15.80700   14.74426   15.18186
      94      444        5     0.00000   10.78934   17.55369   11.02306
      95      444        5     0.00000   13.53834   19.22834    8.84040
      96      444        5     0.00000   18.55600   16.24387   12.87542
      97      444        5     0.00000   17.14360   20.00003   11.02306
      98      444        5     0.00000   13.26027   14.81728    8.84040
      99      444        5     0.00000   17.21940   16.78200    8.84040
     100      444        5     0.00000   13.33607   20.65494   12.87542
     101      444        5     0.00000   12.20174   17.05932   15.18186
     102      444        5     0.00000   16.00927   19.02404   15.18186
     103      444        5     0.00000   12.12594   13.92881   12.87542
     104      444        5     0.00000   16.08507   13.27390   11.02306
     105      444        6     0.00000   22.00900   12.70690    1.81205
     106      444        6     0.00000   27.86581   16.08833   11.37617
     107      444        6     0.00000   16.15220   16.08833   11.37617
     108      444        6     0.00000   22.00901    5.94405   11.37617
     109      444        7     0.00000   13.78782   10.62873   12.11680
     110      444        6     0.00000   14.44846    9.57166   12.20987
     111      444        6     0.00000   14.46680   11.67824   12.12215
     112      444        2     0.00000   15.44575    9.56603   12.28313
     113      444        7     0.00000   18.25218   16.34084    3.65330
     114      444        6     0.00000   17.56589   17.38310    3.58117
     115      444        6     0.00000   18.85375   16.03066    2.60239
     116      444        2     0.00000   17.50282   17.92811    2.74512
     117      444        7     0.00000   15.94134   18.69674    5.98193
     118      444        6     0.00000   16.50082   18.25692    4.95430
     119      444        6     0.00000   15.97350   17.93129    6.96963
     120      444        2     0.00000   16.94127   17.35964    4.92456
     121      444        7     0.00000   12.36183   14.14344    3.65330
     122      444        6     0.00000   13.60760   14.21665    3.58117
     123      444        6     0.00000   11.79242   13.77756    2.60239
     124      444        2     0.00000   14.11112   13.99878    2.74512
     125      444        7     0.00000   20.58301   15.77212    9.63875
     126      444        6     0.00000   21.16814   15.30239    8.63902
     127      444        6     0.00000   19.33462   15.74512    9.58129
     128      444        2     0.00000   20.67437   14.93259    7.85197
     129      444        7     0.00000   16.98351    8.15884   12.11680
     130      444        6     0.00000   15.73774    8.11525   12.20987
     131      444        6     0.00000   17.55292    7.04607   12.12215
     132      444        2     0.00000   15.23422    7.25438   12.28313
     133      444        1     0.00000   22.00901   19.14853   22.52519
     134      444        1     0.00000   22.00900    6.26528   13.41536
     135      444        1     0.00000   16.43039    9.48609   22.52519
     136      444        1     0.00000   16.43039   15.92772   13.41536
     137      444        1     0.00000   27.58762    9.48609   22.52519
     138      444        1     0.00000   27.58762   15.92772   13.41536
     139      444        2     0.00000   14.67267   13.74393   13.11106
     140      444        2     0.00000   19.23893    5.83494   13.11106
     141      444        2     0.00000   10.10641    5.83494   13.11106
     142      444        2     0.00000   14.67267    8.47127   20.56773
     143      444        2     0.00000   15.77315   14.84691   23.68204
     144      444        2     0.00000   25.91723   17.69431   20.14911
     145      444        2     0.00000   15.93730   21.96109   25.83211
     146      444        2     0.00000   17.03778   19.53548   20.14911
     147      444        2     0.00000   20.94601   19.29373   30.06415
     148      444        2     0.00000   26.98023   17.03732   23.68204
     149      444        2     0.00000   23.08525   16.26838   27.92491
     150      444        2     0.00000   15.93730   20.17084   21.94618
     151      444        2     0.00000   20.94601   26.30473   20.14911
     152      444        2     0.00000   28.08071   21.96109   25.83211
     153      444        2     0.00000   19.46280   12.71669   24.07460
     154      444        2     0.00000   20.72743   19.19551   18.00986
     155      444        2     0.00000   24.36683   21.05963   18.00986
     156      444        2     0.00000   28.24486   14.84691   23.68204
     157      444        2     0.00000   27.18187   16.96418   18.08397
     158      444        2     0.00000   15.77315   18.80534   18.08397
     159      444        2     0.00000   17.03778   17.03732   23.68204
     160      444        2     0.00000   23.29058   14.90709   24.07460
     161      444        3     0.00000   18.94183   16.07619   23.88594
     162      444        3     0.00000   19.12414   22.84375   28.89462
     163      444        3     0.00000   24.89387   26.38542   23.88594
     164      444        3     0.00000   25.07618   19.40734   19.17498
     165      444        3     0.00000   22.00900   24.71985   19.17498
     166      444        3     0.00000   24.89387   22.84375   28.89462
     167      444        3     0.00000   27.96105   21.07292   23.88594
     168      444        3     0.00000   19.12414   26.38542   23.88594
     169      444        3     0.00000   16.05696   21.07292   23.88594
     170      444        3     0.00000   18.94183   19.40734   19.17498
     171      444        3     0.00000   22.00901   17.84702   28.89462
     172      444        3     0.00000   25.07618   16.07619   23.88594
     173      444        3     0.00000   19.63818   14.87276   23.98781
     174      444        3     0.00000   25.68250   19.76442   16.87920
     175      444        3     0.00000   16.86262   14.88111   23.76595
     176      444        3     0.00000   25.86847   18.26097   19.21546
     177      444        3     0.00000   22.62140   24.26933   18.00642
     178      444        3     0.00000   18.94791   18.70371   16.87920
     179      444        3     0.00000   28.65506   20.55875   22.79164
     180      444        3     0.00000   25.07010   13.67717   23.98781
     181      444        3     0.00000   15.36295   21.57055   24.98786
     182      444        3     0.00000   17.55290   19.29438   19.21546
     183      444        3     0.00000   21.41236   18.30497   30.06843
     184      444        3     0.00000   26.46511   16.07670   23.76595
     185      444        3     0.00000   22.62140   16.59512   28.85939
     186      444        3     0.00000   15.36295   20.55875   22.79164
     187      444        3     0.00000   21.41236   25.97917   19.21546
     188      444        3     0.00000   28.65506   21.57055   24.98786
     189      444        3     0.00000   18.94791   13.67717   23.98781
     190      444        3     0.00000   19.63818   19.10224   18.00642
     191      444        3     0.00000   24.99222   20.16295   18.00642
     192      444        3     0.00000   27.15539   14.88111   23.76595
     193      444        3     0.00000   26.55875   17.86244   18.08825
     194      444        3     0.00000   16.86262   18.89585   18.08825
     195      444        3     0.00000   17.55290   16.07670   23.76595
     196      444        3     0.00000   24.37983   14.87276   23.98781
     197      444        3     0.00000   24.30429   19.85299   20.35769
     198      444        3     0.00000   24.18549   25.08513   23.91187
     199      444        3     0.00000   19.83252   22.43477   27.66005
     200      444        3     0.00000   19.71372   17.33980   23.91187
     201      444        3     0.00000   26.48077   21.10959   23.91187
     202      444        3     0.00000   24.30429   17.33980   23.91187
     203      444        3     0.00000   22.00900   23.82854   20.35769
     204      444        3     0.00000   19.71372   19.85299   20.35769
     205      444        3     0.00000   22.00901   18.66499   27.66005
     206      444        3     0.00000   19.83252   25.08513   23.91187
     207      444        3     0.00000   17.53724   21.10959   23.91187
     208      444        3     0.00000   24.18549   22.43477   27.66005
     209      444        4     0.00000   14.67267    8.47127   21.54128
     210      444        4     0.00000    9.31151    5.37600   12.78655
     211      444        4     0.00000   20.03383    5.37600   12.78655
     212      444        4     0.00000   14.67267   14.66180   12.78655
     213      444        5     0.00000   20.59661   17.50954   23.00324
     214      444        5     0.00000   20.67241   23.25968   27.16204
     215      444        5     0.00000   23.34560   24.89057   24.85561
     216      444        5     0.00000   23.42140   19.05291   20.82059
     217      444        5     0.00000   23.14334   23.46398   20.82059
     218      444        5     0.00000   24.47994   21.29495   27.16204
     219      444        5     0.00000   25.89234   21.78932   23.00324
     220      444        5     0.00000   19.53807   24.23567   23.00324
     221      444        5     0.00000   18.12567   20.47950   24.85561
     222      444        5     0.00000   19.46227   21.01764   20.82059
     223      444        5     0.00000   20.87467   18.97989   27.16204
     224      444        5     0.00000   24.55574   18.16445   24.85561
     225      444        5     0.00000   23.14334   18.97989   27.16204
     226      444        5     0.00000   18.12567   21.78932   23.00324
     227      444        5     0.00000   20.87467   23.46398   20.82059
     228      444        5     0.00000   25.89234   20.47950   24.85561
     229      444        5     0.00000   24.47994   24.23567   23.00324
     230      444        5     0.00000   20.59661   19.05291   20.82059
     231      444        5     0.00000   24.55574   21.01764   20.82059
     232      444        5     0.00000   20.67241   24.89057   24.85561
     233      444        5     0.00000   19.53807   21.29495   27.16204
     234      444        5     0.00000   23.34560   23.25968   27.16204
     235      444        5     0.00000   19.46227   18.16445   24.85561
     236      444        5     0.00000   23.42140   17.50954   23.00324
     237      444        6     0.00000   29.34534   16.94254   13.79223
     238      444        6     0.00000   35.20214   20.32397   23.35635
     239      444        6     0.00000   23.48854   20.32397   23.35635
     240      444        6     0.00000   29.34534   10.17969   23.35635
     241      444        7     0.00000   21.12416   14.86437   24.09698
     242      444        6     0.00000   21.78479   13.80730   24.19005
     243      444        6     0.00000   21.80314   15.91387   24.10233
     244      444        2     0.00000   22.78209   13.80167   24.26332
     245      444        7     0.00000   25.58852   20.57648   15.63348
     246      444        6     0.00000   24.90223   21.61874   15.56136
     247      444        6     0.00000   26.19008   20.26630   14.58257
     248      444        2     0.00000   24.83915   22.16374   14.72530
     249      444        7     0.00000   23.27768   22.93238   17.96212
     250      444        6     0.00000   23.83715   22.49255   16.93448
     251      444        6     0.00000   23.30983   22.16692   18.94982
     252      444        2     0.00000   24.27760   21.59527   16.90475
     253      444        7     0.00000   19.69816   18.37907   15.63348
     254      444        6     0.00000   20.94393   18.45229   15.56136
     255      444        6     0.00000   19.12876   18.01320   14.58257
     256      444        2     0.00000   21.44746   18.23441   14.72530
     257      444        7     0.00000   27.91935   20.00775   21.61894
     258      444        6     0.00000   28.50448   19.53802   20.61920
     259      444        6     0.00000   26.67096   19.98075   21.56148
     260      444        2     0.00000   28.01071   19.16822   19.83216
     261      444        7     0.00000   24.31985   12.39447   24.09698
     262      444        6     0.00000   23.07408   12.35088   24.19005
     263      444        6     0.00000   24.88925   11.28171   24.10233
     264      444        2     0.00000   22.57055   11.49001   24.26332
     265      444        1     0.00000   29.34534   23.38416   34.50538
     266      444        1     0.00000   29.34534   10.50092   25.39555
     267      444        1     0.00000   23.76673   13.72173   34.50538
     268      444        1     0.00000   23.76673   20.16335   25.39555
     269      444        1     0.00000   34.92395   13.72173   34.50538
     270      444        1     0.00000   34.92395   20.16335   25.39555
     271      444        2     0.00000   22.00901   17.97957   25.09125
     272      444        2     0.00000   26.57526   10.07057   25.09125
     273      444        2     0.00000   17.44275   10.07057   25.09125
     274      444        2     0.00000   22.00901   12.70690   32.54792
     275      444        2     0.00000   23.10948   19.08254   35.66223
     276      444        2     0.00000   33.25357   21.92995   32.12929
     277      444        2     0.00000   23.27364   26.19673   37.81229
     278      444        2     0.00000   24.37411   23.77111   32.12929
     279      444        2     0.00000   28.28234   23.52937   42.04434
     280      444        2     0.00000   34.31657   21.27295   35.66223
     281      444        2     0.00000   30.42159   20.50402   39.90510
     282      444        2     0.00000   23.27364   24.40648   33.92636
     283      444        2     0.00000   28.28234   30.54037   32.12929
     284      444        2     0.00000   35.41704   26.19673   37.81229
     285      444        2     0.00000   26.79913   16.95232   36.05479
     286      444        2     0.00000   28.06376   23.43115   29.99005
     287      444        2     0.00000   31.70316   25.29526   29.99005
     288      444        2     0.00000   35.58120   19.08254   35.66223
     289      444        2     0.00000   34.51820   21.19981   30.06415
     290      444        2     0.00000   23.10948   23.04098   30.06415
     291      444        2     0.00000   24.37411   21.27295   35.66223
     292      444        2     0.00000   30.62692   19.14273   36.05479
     293      444        3     0.00000   26.27816   20.31182   35.86612
     294      444        3     0.00000   26.46048   27.07939   40.87481
     295      444        3     0.00000   32.23020   30.62106   35.86612
     296      444        3     0.00000   32.41252   23.64297   31.15516
     297      444        3     0.00000   29.34534   28.95548   31.15516
     298      444        3     0.00000   32.23020   27.07939   40.87481
     299      444        3     0.00000   35.29738   25.30855   35.86612
     300      444        3     0.00000   26.46048   30.62106   35.86612
     301      444        3     0.00000   23.39330   25.30855   35.86612
     302      444        3     0.00000   26.27816   23.64297   31.15516
     303      444        3     0.00000   29.34534   22.08266   40.87481
     304      444        3     0.00000   32.41252   20.31182   35.86612
     305      444        3     0.00000   26.97452   19.10840   35.96800
     306      444        3     0.00000   33.01884   24.00005   28.85939
     307      444        3     0.00000   24.19896   19.11674   35.74613
     308      444        3     0.00000   33.20481   22.49660   31.19565
     309      444        3     0.00000   29.95774   28.50497   29.98661
     310      444        3     0.00000   26.28424   22.93935   28.85939
     311      444        3     0.00000   35.99140   24.79439   34.77182
     312      444        3     0.00000   32.40644   17.91280   35.96800
     313      444        3     0.00000   22.69928   25.80619   36.96804
     314      444        3     0.00000   24.88923   23.53002   31.19565
     315      444        3     0.00000   28.74870   22.54060   42.04862
     316      444        3     0.00000   33.80145   20.31234   35.74613
     317      444        3     0.00000   29.95774   20.83076   40.83957
     318      444        3     0.00000   22.69928   24.79439   34.77182
     319      444        3     0.00000   28.74870   30.21481   31.19565
     320      444        3     0.00000   35.99140   25.80619   36.96804
     321      444        3     0.00000   26.28424   17.91280   35.96800
     322      444        3     0.00000   26.97452   23.33788   29.98661
     323      444        3     0.00000   32.32856   24.39859   29.98661
     324      444        3     0.00000   34.49172   19.11674   35.74613
     325      444        3     0.00000   33.89508   22.09807   30.06843
     326      444        3     0.00000   24.19896   23.13149   30.06843
     327      444        3     0.00000   24.88923   20.31234   35.74613
     328      444        3     0.00000   31.71616   19.10840   35.96800
     329      444        3     0.00000   31.64062   24.08863   32.33787
     330      444        3     0.00000   31.52183   29.32077   35.89206
     331      444        3     0.00000   27.16885   26.67040   39.64023
     332      444        3     0.00000   27.05006   21.57544   35.89206
     333      444        3     0.00000   33.81711   25.34522   35.89206
     334      444        3     0.00000   31.64062   21.57544   35.89206
     335      444        3     0.00000   29.34534   28.06417   32.33787
     336      444        3     0.00000   27.05006   24.08863   32.33787
     337      444        3     0.00000   29.34534   22.90062   39.64023
     338      444        3     0.00000   27.16885   29.32077   35.89206
     339      444        3     0.00000   24.87357   25.34522   35.89206
     340      444        3     0.00000   31.52183   26.67040   39.64023
     341      444        4     0.00000   22.00901   12.70691   33.52147
     342      444        4     0.00000   16.64785    9.61164   24.76673
     343      444        4     0.00000   27.37016    9.61164   24.76673
     344      444        4     0.00000   22.00901   18.89744   24.76673
     345      444        5     0.00000   27.93294   21.74517   34.98343
     346      444        5     0.00000   28.00874   27.49531   39.14223
     347      444        5     0.00000   30.68194   29.12621   36.83579
     348      444        5     0.00000   30.75774   23.28855   32.80077
     349      444        5     0.00000   30.47967   27.69961   32.80077
     350      444        5     0.00000   31.81627   25.53059   39.14223
     351      444        5     0.00000   33.22867   26.02496   34.98343
     352      444        5     0.00000   26.87441   28.47130   34.98343
     353      444        5     0.00000   25.46201   24.71514   36.83579
     354      444        5     0.00000   26.79861   25.25327   32.80077
     355      444        5     0.00000   28.21101   23.21553   39.14223
     356      444        5     0.00000   31.89207   22.40008   36.83579
     357      444        5     0.00000   30.47967   23.21553   39.14223
     358      444        5     0.00000   25.46201   26.02496   34.98343
     359      444        5     0.00000   28.21101   27.69961   32.80077
     360      444        5     0.00000   33.22867   24.71514   36.83579
     361      444        5     0.00000   31.81627   28.47130   34.98343
     362      444        5     0.00000   27.93294   23.28855   32.80077
     363      444        5     0.00000   31.89207   25.25327   32.80077
     364      444        5     0.00000   28.00874   29.12621   36.83579
     365      444        5     0.00000   26.87441   25.53059   39.14223
     366      444        5     0.00000   30.68194   27.49531   39.14223
     367      444        5     0.00000   26.79861   22.40008   36.83579
     368      444        5     0.00000   30.75774   21.74517   34.98343
     369      444        6     0.00000   36.68167   21.17817   25.77242
     370      444        6     0.00000   42.53848   24.55960   35.33654
     371      444        6     0.00000   30.82487   24.55960   35.33654
     372      444        6     0.00000   36.68168   14.41532   35.33654
     373      444        7     0.00000   28.46049   19.10000   36.07717
     374      444        6     0.00000   29.12113   18.04293   36.17024
     375      444        6     0.00000   29.13947   20.14951   36.08252
     376      444        2     0.00000   30.11842   18.03730   36.24350
     377      444        7     0.00000   32.92485   24.81211   27.61367
     378      444        6     0.00000   32.23856   25.85437   27.54154
     379      444        6     0.00000   33.52642   24.50193   26.56276
     380      444        2     0.00000   32.17549   26.39938   26.70549
     381      444        7     0.00000   30.61401   27.16801   29.94230
     382      444        6     0.00000   31.17349   26.72819   28.91466
     383      444        6     0.00000   30.64617   26.40256   30.93000
     384      444        2     0.00000   31.61394   25.83091   28.88493
     385      444        7     0.00000   27.03450   22.61471   27.61367
     386      444        6     0.00000   28.28027   22.68792   27.54154
     387      444        6     0.00000   26.46509   22.24883   26.56276
     388      444        2     0.00000   28.78379   22.47005   26.70549
     389      444        7     0.00000   35.25568   24.24339   33.59912
     390      444        6     0.00000   35.84081   23.77366   32.59939
     391      444        6     0.00000   34.00729   24.21639   33.54166
     392      444        2     0.00000   35.34704   23.40386   31.81234
     393      444        7     0.00000   31.65618   16.63011   36.07717
     394      444        6     0.00000   30.41041   16.58652   36.17024
     395      444        6     0.00000   32.22559   15.51734   36.08252
     396      444        2     0.00000   29.90689   15.72565   36.24350
     397      444        1     0.00000   22.00901   27.61980   10.54501
     398      444        1     0.00000   22.00900   14.73655    1.43518
     399      444        1     0.00000   16.43039   17.95736   10.54501
     400      444        1     0.00000   16.43039   24.39899    1.43518
     401      444        1     0.00000   27.58762   17.95736   10.54501
     402      444        1     0.00000   27.58762   24.39899    1.43518
     403      444        2     0.00000   14.67267   22.21520    1.13088
     404      444        2     0.00000   19.23893   14.30621    1.13088
     405      444        2     0.00000   10.10641   14.30621    1.13088
     406      444        2     0.00000   14.67267   16.94254    8.58755
     407      444        2     0.00000   15.77315   23.31818   11.70186
     408      444        2     0.00000   25.91723   26.16558    8.16892
     409      444        2     0.00000   15.93730   30.43236   13.85192
     410      444        2     0.00000   17.03778   28.00675    8.16892