LAMMPS data file Created by LigParGen - (Written by Leela S. Dodda)

       16 atoms
       14 bonds
      20 angles
      10 dihedrals
       2 impropers
 
       8 atom types
       7 bond types
      10 angle types
       5 dihedral types
       1 improper types
 
   -50.0    50.0 xlo xhi
   -50.0    50.0 ylo yhi
   -50.0    50.0 zlo zhi

Masses

       1     12.011  
       2     12.011  
       3     15.999  
       4     15.999  
       5     15.999  
       6      1.008  
       7      1.008  
       8      1.008  

Pair Coeffs 

       1      0.066  3.5000000 
       2      0.070  3.5500000 
       3      0.210  2.9600000 
       4      0.140  2.9000000 
       5      0.140  2.9000000 
       6      0.030  2.5000000 
       7      0.030  2.5000000 
       8      0.030  2.5000000 

Bond Coeffs 

       1   317.0000     1.5220 
       2   570.0000     1.2290 
       3   214.0000     1.3270 
       4   469.2840     1.3226 
       5   340.0000     1.0900 
       6   340.0000     1.0900 
       7   340.0000     1.0900 

Angle Coeffs 

       1     80.000    120.400
       2     81.000    111.400
       3     85.022    110.040
       4     35.000    109.500
       5     35.000    109.500
       6     35.000    109.500
       7     33.000    107.800
       8     33.000    107.800
       9     83.000    123.400
      10     33.000    107.800

Dihedral Coeffs  

       1      4.669      5.124      0.000      0.000 
       2      0.000      0.000      0.132      0.000 
       3      0.000      5.124      0.000      0.000 
       4      0.000      0.000      0.132      0.000 
       5      0.000      0.000      0.132      0.000 

Improper Coeffs 

       1     10.500      -1       2 

Atoms 

   1  1  1    -0.2764    -1.7237    -0.5898    -0.3861
   2  1  2     0.5714    -0.2765    -0.2052    -0.3166
   3  1  3    -0.3932     0.5269    -0.4036    -1.2178
   4  1  4    -0.1510    -0.0266     0.3856     0.8962
   5  1  5    -0.1450     1.3891     0.7434     0.9263
   6  1  6     0.1314    -1.9257    -1.0624    -1.3516
   7  1  7     0.1314    -2.3483     0.3028    -0.2980
   8  1  8     0.1314    -1.9558    -1.3056     0.4065
   9  2  1    -0.2764    33.2561    -0.4426    -0.4804
  10  2  2     0.5714    34.5482     0.0246     0.1188
  11  2  3    -0.3932    34.6291     0.6399     1.1732
  12  2  4    -0.1510    35.5838    -0.3479    -0.7005
  13  2  5    -0.1450    36.8214     0.1251    -0.0858
  14  2  6     0.1314    32.4284    -0.1459     0.1701
  15  2  7     0.1314    33.2597    -1.5325    -0.5639
  16  2  8     0.1314    33.1121     0.0212    -1.4596

Bonds 

     1      1      2      1
     2      2      3      2
     3      3      4      2
     4      4      5      4
     5      5      6      1
     6      6      7      1
     7      7      8      1
8 1 10 9
9 2 11 10
10 3 12 10
11 4 13 12
12 5 14 9
13 6 15 9
14 7 16 9

Angles 

     1      1      1      2      3
     2      2      1      2      4
     3      3      2      4      5
     4      4      2      1      6
     5      5      2      1      7
     6      6      2      1      8
     7      7      7      1      8
     8      8      6      1      7
     9      9      3      2      4
    10     10      6      1      8
11 1 9 10 11
12 2 9 10 12
13 3 10 12 13
14 4 10 9 14
15 5 10 9 15
16 6 10 9 16
17 7 15 9 16
18 8 14 9 15
19 9 11 10 12
20 10 14 9 16

Dihedrals

     1      1      5      4      2      1 
     2      2      8      1      2      4 
     3      3      5      4      2      3 
     4      4      6      1      2      4 
     5      5      7      1      2      4 
6 1 13 12 10 9
7 2 16 9 10 12
8 3 13 12 10 11
9 4 14 9 10 12
10 5 15 9 10 12

Impropers

     1      1      2      1      3      4 
     2      1      10     9      11     12 
