LAMMPS data file via write_data, version 15 May 2015, timestep = 8008000

2611 atoms
6 atom types
1749 bonds
4 bond types
894 angles
3 angle types
44 dihedrals
3 dihedral types
10 impropers
1 improper types

-1.4896490240098000e+01 1.4896490240098000e+01 xlo xhi
-1.4896490240098000e+01 1.4896490240098000e+01 ylo yhi
-1.4896490240098000e+01 1.4896490240098000e+01 zlo zhi

Masses

1 15.9994
2 1.00794
3 12.0107
4 1.00794
5 12.0107
6 12.0107

Bond Coeffs # harmonic

1 1000 1
2 469 1.4
3 367 1.08
4 469 0.7

Angle Coeffs # harmonic

1 100 109.47
2 35 120
3 63 120

Dihedral Coeffs # opls

1 0 7.25 0 0
2 0 7.25 0 0
3 0 7.25 0 0

Improper Coeffs # cvff

1 2.5 -1 2

Atoms # full

2015 672 2 4.0999999999999998e-01 -1.2405791246169560e+01 -1.0201009201993607e+01 -7.8777927113714394e+00 1 4 2
2123 708 2 4.0999999999999998e-01 -1.3188357058002635e+01 -1.1543326303389282e+01 -1.3406133845043165e+01 3 1 3
288 96 2 4.0999999999999998e-01 -1.1218586079266197e+01 -8.1001258291629377e+00 -1.2408411598230096e+01 1 4 4
287 96 2 4.0999999999999998e-01 -1.2275634704590383e+01 -8.2780021029670756e+00 -1.3640314483822554e+01 1 4 4
286 96 1 -8.1999999999999995e-01 -1.1859782397783176e+01 -8.7277702115523361e+00 -1.2849898925289413e+01 1 4 4
2122 708 1 -8.1999999999999995e-01 -1.2383955803700511e+01 -1.1339389964207676e+01 -1.2848164458964881e+01 3 1 3
2014 672 1 -8.1999999999999995e-01 -1.2746097024653203e+01 -9.9683547685487035e+00 -8.7888608457455497e+00 1 4 2
811 271 1 -8.1999999999999995e-01 -1.1187869055055113e+01 -7.7633623982807922e+00 -8.0564670129917992e+00 -1 3 1
2124 708 2 4.0999999999999998e-01 -1.2216444376276923e+01 -1.0353539431638328e+01 -1.2852627373828444e+01 3 1 3
1598 533 2 4.0999999999999998e-01 -1.3607867363633856e+01 -8.8692089539344714e+00 -1.1913146443337984e+01 -2 3 3
2383 795 1 -8.1999999999999995e-01 -9.3153103521218341e+00 -1.2043047761035265e+01 -9.6762599393865401e+00 2 3 4
2384 795 2 4.0999999999999998e-01 -9.1764478432105783e+00 -1.1054086256582607e+01 -9.7277732421065082e+00 2 3 4
2016 672 2 4.0999999999999998e-01 -1.3739936673445127e+01 -1.0076825419213733e+01 -8.8111794750493448e+00 1 4 2
813 271 2 4.0999999999999998e-01 -1.0921557846904744e+01 -8.6155809298494077e+00 -8.5067815312807937e+00 -1 3 1
2385 795 2 4.0999999999999998e-01 -9.7644980634497962e+00 -1.2272020683225579e+01 -8.8126726329810534e+00 2 3 4
752 251 2 4.0999999999999998e-01 -1.3022975736054523e+01 -1.2299421962845884e+01 -9.4739459231604819e+00 0 8 6
1389 463 2 4.0999999999999998e-01 -8.2917992546552099e+00 -1.4157178916592533e+01 -1.4303854091444840e+01 0 0 1
551 184 2 4.0999999999999998e-01 -1.1850304441226497e+01 -5.7153092993864476e+00 -8.6906890233540128e+00 0 1 1
499 167 1 -8.1999999999999995e-01 -9.2002450269924516e+00 -9.3245613704935035e+00 -9.8137273580148978e+00 3 3 -1
480 160 2 4.0999999999999998e-01 -9.5318899512606379e+00 -6.2553633111428617e+00 -1.1567178806130041e+01 1 4 3
478 160 1 -8.1999999999999995e-01 -9.7673724481201116e+00 -7.2213160657258051e+00 -1.1460106335044763e+01 1 4 3
1332 444 2 4.0999999999999998e-01 -1.0167369202302702e+01 -1.2731222938588543e+01 -1.1093863579484303e+01 1 2 0
753 251 2 4.0999999999999998e-01 -1.2930759219768431e+01 -1.2220367855819926e+01 -1.1102387830002746e+01 0 8 6
1331 444 2 4.0999999999999998e-01 -1.1309875096481179e+01 -1.2567131555347704e+01 -1.2248995949388295e+01 1 2 0
1599 533 2 4.0999999999999998e-01 -1.4344517879278417e+01 -8.8928599111842157e+00 -1.0455970020016586e+01 -2 3 3
1597 533 1 -8.1999999999999995e-01 -1.4413344692593430e+01 -8.5718592289335351e+00 -1.1400534830271315e+01 -2 3 3
1387 463 1 -8.1999999999999995e-01 -8.8025250438641525e+00 -1.3434803554473676e+01 -1.3837684318474381e+01 0 0 1
479 160 2 4.0999999999999998e-01 -9.0878300580373619e+00 -7.7841863352439313e+00 -1.1930617179460313e+01 1 4 3
501 167 2 4.0999999999999998e-01 -8.2620361186684281e+00 -9.1871833380096533e+00 -1.0131331778807416e+01 3 3 -1
1388 463 2 4.0999999999999998e-01 -8.6266155540346201e+00 -1.3483511535916758e+01 -1.2854493271160040e+01 0 0 1
1330 444 1 -8.1999999999999995e-01 -1.0642433394130816e+01 -1.3191787626719984e+01 -1.1843647172351490e+01 1 2 0
975 325 2 4.0999999999999998e-01 -1.4670433548590202e+01 -6.8995225918387382e+00 -1.2097252544342782e+01 0 3 1
751 251 1 -8.1999999999999995e-01 -1.3409298789010350e+01 -1.2640021609492377e+01 -1.0331108466467267e+01 0 8 6
550 184 1 -8.1999999999999995e-01 -1.2448119594590086e+01 -5.1109069030848762e+00 -9.2172780785109456e+00 0 1 1
500 167 2 4.0999999999999998e-01 -9.8003695068321282e+00 -8.6514833851536359e+00 -1.0245928569656453e+01 3 3 -1
1656 552 2 4.0999999999999998e-01 -1.4700343881986209e+01 -1.3683660552899688e+01 -1.0022856905969080e+01 5 1 4
2389 797 1 -8.1999999999999995e-01 -7.5779265701768495e+00 -8.3956848221171114e+00 -1.3008866415095275e+01 -1 4 3
2390 797 2 4.0999999999999998e-01 -7.9894573907535298e+00 -9.0159014585210748e+00 -1.3676665009008051e+01 -1 4 3
2078 693 2 4.0999999999999998e-01 -8.2778836807416827e+00 -1.4527812719841217e+01 -1.1154118383004667e+01 0 5 3
2079 693 2 4.0999999999999998e-01 -8.1813040640324992e+00 -1.2978291901347845e+01 -1.0647922673867917e+01 0 5 3
1121 374 2 4.0999999999999998e-01 -1.2140292237246749e+01 -1.4801059125330122e+01 -1.1115620281867566e+01 -1 3 5
2077 693 1 -8.1999999999999995e-01 -7.7936547714401572e+00 -1.3660329263588507e+01 -1.1268030986655832e+01 0 5 3
197 66 2 4.0999999999999998e-01 -1.0037144722894958e+01 -6.4382710842242954e+00 -7.6943973789968352e+00 -1 1 6
1283 428 2 4.0999999999999998e-01 -1.0492752509479530e+01 -1.4668981870071923e+01 -1.3847399442188472e+01 -2 4 1
1655 552 2 4.0999999999999998e-01 -1.4723994901453837e+01 -1.4768543569516735e+01 -8.8025921975023689e+00 5 1 4
1673 558 2 4.0999999999999998e-01 -9.6664297111829605e+00 -1.3907670293503534e+01 -7.6990964819894012e+00 -1 0 1
812 271 2 4.0999999999999998e-01 -1.2001141377654111e+01 -7.9221834421633961e+00 -7.4966945116627324e+00 -1 3 1
511 171 1 -8.1999999999999995e-01 -4.2041575803785491e-01 -1.3519673820501012e+01 -1.3927110724935758e+01 3 4 -1
512 171 2 4.0999999999999998e-01 -1.4061414328802098e+00 -1.3671542368935352e+01 -1.3854570441651001e+01 3 4 -1
658 220 1 -8.1999999999999995e-01 -7.6837878915796409e-01 -6.3280796474609797e+00 -1.1331460897676831e+01 -2 6 1
523 175 1 -8.1999999999999995e-01 -4.1734179380875300e+00 -9.6145520602119667e+00 -7.6475804653121777e+00 -1 -1 3
89 30 2 4.0999999999999998e-01 -2.9785816479848553e+00 -1.4135293434861921e+01 -8.8893189939921307e+00 -2 3 -1
93 31 2 4.0999999999999998e-01 -3.5908673360973093e+00 -5.9433074597962730e+00 -8.2875125740425375e+00 1 0 6
660 220 2 4.0999999999999998e-01 -8.5394073690290995e-01 -6.9260591776366169e+00 -1.2128380523789044e+01 -2 6 1
203 68 2 4.0999999999999998e-01 -2.9668858764173045e-01 -9.5526629421032681e+00 -1.1358767762726586e+01 -1 0 1
1907 636 2 4.0999999999999998e-01 -7.2655120173002752e+00 -6.7734237813767724e+00 -1.3405893830011259e+01 3 0 4
2322 774 2 4.0999999999999998e-01 -3.5117765141948407e+00 -1.2537667115099325e+01 -1.3797381118192776e+01 0 -1 3
2321 774 2 4.0999999999999998e-01 -5.0309859711350047e+00 -1.2713619756251164e+01 -1.4369761907428293e+01 0 -1 3
659 220 2 4.0999999999999998e-01 -4.2442288141469220e-01 -6.8553479255913103e+00 -1.0554502889405688e+01 -2 6 1
1587 529 2 4.0999999999999998e-01 -4.6835633896394828e+00 -1.0160939960996753e+01 -1.3179710272317795e+01 -1 1 0
90 30 2 4.0999999999999998e-01 -4.5732218822881148e+00 -1.3934101014767672e+01 -8.6008391437505765e+00 -2 3 -1
594 198 2 4.0999999999999998e-01 -3.4310775404795635e+00 -5.6726997230148140e+00 -1.2395007655212366e+01 2 3 0
513 171 2 4.0999999999999998e-01 -1.0711737772680507e-01 -1.2983947277326456e+01 -1.3143004575826485e+01 3 4 -1
1908 636 2 4.0999999999999998e-01 -6.6704563486202755e+00 -5.4020099822777006e+00 -1.2748847843505324e+01 3 0 4
407 136 2 4.0999999999999998e-01 -3.0226768564180837e+00 -7.9331944412588546e+00 -9.7059402934997792e+00 -3 1 2
508 170 1 -8.1999999999999995e-01 -2.5152185046222986e+00 -7.9388581068217228e+00 -1.2871138617569972e+01 1 3 3
2236 746 1 -8.1999999999999995e-01 -4.2179201375865798e+00 -1.2196495532783802e+01 -1.1095854638043793e+01 0 5 1
313 105 1 -8.1999999999999995e-01 -5.9119033253763877e+00 -1.2892552486391194e+01 -8.3865696607925848e+00 -2 -1 -1
745 249 1 -8.1999999999999995e-01 -1.4895491828668206e+00 -9.3943879569731799e+00 -7.8017734187560377e+00 4 3 -2
592 198 1 -8.1999999999999995e-01 -3.8570809542535791e+00 -5.3453484405166751e+00 -1.1551595847465492e+01 2 3 0
2423 808 2 4.0999999999999998e-01 -6.1942538705921812e-01 -9.3193752131168939e+00 -1.4007368215749221e+01 0 2 2
549 183 2 4.0999999999999998e-01 -9.7475499696375145e-01 -1.3331867514435997e+01 -9.9601658332709562e+00 0 0 2
202 68 1 -8.1999999999999995e-01 -9.8120631606852093e-01 -9.1361195342214501e+00 -1.0760513366659165e+01 -1 0 1
509 170 2 4.0999999999999998e-01 -2.5670165155497511e+00 -7.0292818136830233e+00 -1.3283411816177612e+01 1 3 3
2238 746 2 4.0999999999999998e-01 -4.5486668065402505e+00 -1.2510750689504228e+01 -1.1985703825795953e+01 0 5 1
510 170 2 4.0999999999999998e-01 -3.4078071087869137e+00 -8.3851426484367106e+00 -1.2935146027865223e+01 1 3 3
547 183 1 -8.1999999999999995e-01 -1.8223541278344388e+00 -1.2995981922791719e+01 -9.5493887395763188e+00 0 0 2
315 105 2 4.0999999999999998e-01 -6.3746104543467155e+00 -1.2848066775751176e+01 -9.2719534068548413e+00 -2 -1 -1
2391 797 2 4.0999999999999998e-01 -6.6020969849204771e+00 -8.5970554198656117e+00 -1.2924085731420925e+01 -1 4 3
593 198 2 4.0999999999999998e-01 -4.0484353319503530e+00 -6.1221016866999705e+00 -1.0951579891493243e+01 2 3 0
2272 758 1 -8.1999999999999995e-01 -5.5626254117087655e+00 -9.9462355798066859e+00 -9.9619683296131356e+00 0 0 3
1288 430 1 -8.1999999999999995e-01 -2.9563186312986858e+00 -5.6977045496427934e+00 -1.4316008358095258e+01 1 3 4
314 105 2 4.0999999999999998e-01 -6.5923946574695300e+00 -1.2881183478074398e+01 -7.6539145306068930e+00 -2 -1 -1
408 136 2 4.0999999999999998e-01 -4.6356763890643347e+00 -8.1602784865581448e+00 -9.8210134239360904e+00 -3 1 2
1586 529 2 4.0999999999999998e-01 -5.3540019745503020e+00 -9.7367356958155646e+00 -1.1752426385668249e+01 -1 1 0
747 249 2 4.0999999999999998e-01 -8.3539842411667031e-01 -8.9100395377469042e+00 -8.3826990913263657e+00 4 3 -2
1906 636 1 -8.1999999999999995e-01 -6.7339468668284628e+00 -5.9457230681123754e+00 -1.3585702853446909e+01 3 0 4
548 183 2 4.0999999999999998e-01 -1.7245543673865136e+00 -1.2025290784141140e+01 -9.3299003250721402e+00 0 0 2
2273 758 2 4.0999999999999998e-01 -5.1371393900386355e+00 -9.8222544164492227e+00 -9.0655468005885567e+00 0 0 3
2320 774 1 -8.1999999999999995e-01 -4.4055670266610143e+00 -1.2098742916410341e+01 -1.3889388235693545e+01 0 -1 3
2274 758 2 4.0999999999999998e-01 -5.2996690323395015e+00 -1.0835760761661692e+01 -1.0335572579042710e+01 0 0 3
204 68 2 4.0999999999999998e-01 -1.7534547576595134e+00 -8.8164660374453589e+00 -1.1309544556998251e+01 -1 0 1
2237 746 2 4.0999999999999998e-01 -3.4676156417310988e+00 -1.2783966091310509e+01 -1.0792699972254493e+01 0 5 1
406 136 1 -8.1999999999999995e-01 -3.9151357670751405e+00 -7.4835188983854506e+00 -9.6700203009950556e+00 -3 1 2
2331 777 2 4.0999999999999998e-01 -6.2289859097771387e+00 -1.4716628247169323e+01 -1.1483869461914379e+01 1 1 3
1585 529 1 -8.1999999999999995e-01 -4.9092089900633962e+00 -9.3934748056082089e+00 -1.2579658156515096e+01 -1 1 0
525 175 2 4.0999999999999998e-01 -3.1952740954626488e+00 -9.6565605392716130e+00 -7.8511760742441412e+00 -1 -1 3
88 30 1 -8.1999999999999995e-01 -3.8461242688011179e+00 -1.4607650570776055e+01 -8.7336597619549536e+00 -2 3 -1
1290 430 2 4.0999999999999998e-01 -2.2279899104027532e+00 -5.0547764955387535e+00 -1.4552993650689700e+01 1 3 4
2143 715 1 -8.1999999999999995e-01 -2.7728847591975097e+00 -1.4744871224808675e+01 -1.3152314118068526e+01 2 3 1
360 120 2 4.0999999999999998e-01 -1.1027011137108886e+01 -1.3325380274341727e+01 -3.7969002306125947e+00 2 4 1
211 71 1 -8.1999999999999995e-01 -9.4754856079949974e+00 -6.3904581393911837e+00 -2.7424964693863423e+00 0 3 1
2546 849 2 4.0999999999999998e-01 -9.0468091422706607e+00 -1.1014099032143996e+01 -3.8665162974960872e+00 0 2 4
2547 849 2 4.0999999999999998e-01 -8.9591027942470767e+00 -1.1601718477407218e+01 -2.3454681504311132e+00 0 2 4
520 174 1 -8.1999999999999995e-01 -1.1806555974582389e+01 -1.1358954299163191e+01 -6.5457072783947030e+00 2 1 2
146 49 2 4.0999999999999998e-01 -1.1264168464547101e+01 -9.7380521130826558e+00 -3.7067668561803426e+00 -2 3 2
2507 836 2 4.0999999999999998e-01 -8.9885759329958255e+00 -7.2229272074063511e+00 -4.5403670002148626e+00 3 3 2
145 49 1 -8.1999999999999995e-01 -1.1944633284827916e+01 -9.6408446018974239e+00 -2.9804751865614136e+00 -2 3 2
1919 640 2 4.0999999999999998e-01 -1.0141766951096322e+01 -1.0403173910603515e+01 -5.8838992913319750e+00 1 4 4
359 120 2 4.0999999999999998e-01 -9.8533312145290211e+00 -1.4289823549002074e+01 -3.1978166816900462e+00 2 4 1
741 247 2 4.0999999999999998e-01 -1.4734162399784548e+01 -5.6281678219705125e+00 -1.7112487234858964e+00 0 3 0
379 127 1 -8.1999999999999995e-01 -1.2500087459157598e+01 -1.2466966244878972e+01 -3.4549534436738849e+00 2 5 0
522 174 2 4.0999999999999998e-01 -1.1342489816333952e+01 -1.2175661645851903e+01 -6.8886547408307504e+00 2 1 2
449 150 2 4.0999999999999998e-01 -1.0159297098465400e+01 -1.3873761420340598e+01 -1.2134110583242208e+00 0 2 2
2477 826 2 4.0999999999999998e-01 -1.1055130941404574e+01 -1.1211027749769359e+01 -5.1755964662878284e-01 0 4 0
380 127 2 4.0999999999999998e-01 -1.2364167133824646e+01 -1.1555160918056393e+01 -3.0675028501415316e+00 2 5 0
147 49 2 4.0999999999999998e-01 -1.1551919418149659e+01 -9.1185532436645289e+00 -2.2235281601884829e+00 -2 3 2
358 120 1 -8.1999999999999995e-01 -1.0410519911054873e+01 -1.4085377179376344e+01 -4.0026295094210891e+00 2 4 1
381 127 2 4.0999999999999998e-01 -1.3218095153663471e+01 -1.2430137034976955e+01 -4.1500000637004213e+00 2 5 0
1973 658 2 4.0999999999999998e-01 -1.3069894659897017e+01 -1.4336618970335735e+01 -2.0404711814325331e+00 3 4 5
1920 640 2 4.0999999999999998e-01 -9.2753556063845828e+00 -9.3650552973099472e+00 -4.9683570466471743e+00 1 4 4
1918 640 1 -8.1999999999999995e-01 -1.0000659505698149e+01 -1.0053389061358846e+01 -4.9577672862063551e+00 1 4 4
2476 826 1 -8.1999999999999995e-01 -1.0367840350359677e+01 -1.1931718315534184e+01 -6.0821286040608769e-01 0 4 0
2506 836 1 -8.1999999999999995e-01 -8.7434082879653516e+00 -7.7393705595270674e+00 -5.3608304885382587e+00 3 3 2
212 71 2 4.0999999999999998e-01 -9.9893906301531672e+00 -6.9252311890289402e+00 -2.0717501193883461e+00 0 3 1
1669 557 1 -8.1999999999999995e-01 -1.3430292908050825e+01 -7.4706222033834964e+00 -6.4731754464747855e+00 2 1 3
2375 792 2 4.0999999999999998e-01 -1.3745683823371301e+01 -9.2672022394234723e+00 -2.6144295291086905e+00 2 4 2
2508 836 2 4.0999999999999998e-01 -8.8922820355513963e+00 -7.1704825094629108e+00 -6.1696470625594060e+00 3 3 2
213 71 2 4.0999999999999998e-01 -9.9678794220036728e+00 -5.5430462337150761e+00 -2.9410478185536970e+00 0 3 1
2545 849 1 -8.1999999999999995e-01 -8.5150956869478236e+00 -1.1585419900653598e+01 -3.2413327027236640e+00 0 2 4
1672 558 1 -8.1999999999999995e-01 -9.9743027557994921e+00 -1.3436189564043246e+01 -6.8727180044606744e+00 -1 0 1
1276 426 1 -8.1999999999999995e-01 -1.4262377122285672e+01 -1.2717411992439693e+01 -5.9310617218410737e+00 2 4 0
1972 658 1 -8.1999999999999995e-01 -1.3792783803724010e+01 -1.4655377134799298e+01 -1.4274411912641849e+00 3 4 5
521 174 2 4.0999999999999998e-01 -1.2541431847906431e+01 -1.1629543502278791e+01 -5.9238389783422978e+00 2 1 2
1974 658 2 4.0999999999999998e-01 -1.4428933838588758e+01 -1.3905903130043395e+01 -1.2441842633503875e+00 3 4 5
1674 558 2 4.0999999999999998e-01 -1.0197130986225229e+01 -1.4109828678906915e+01 -6.1680626390186220e+00 -1 0 1
1278 426 2 4.0999999999999998e-01 -1.4228378280747458e+01 -1.3619436548249034e+01 -6.3613837345610751e+00 2 4 0
719 240 2 4.0999999999999998e-01 -1.4379624828307698e+01 -8.9736159391838797e+00 -5.9820032840604558e+00 -1 4 2
534 178 2 4.0999999999999998e-01 -8.3806819339332144e+00 -1.3199134938895030e+01 -5.9756140717209618e+00 -1 2 1
1670 557 2 4.0999999999999998e-01 -1.3150708453631253e+01 -6.8797779907589351e+00 -5.7163948253960921e+00 2 1 3
1865 622 2 4.0999999999999998e-01 -7.4511951628516062e+00 -6.7444185151290128e+00 -2.4455554113922897e+00 1 3 -1
2374 792 1 -8.1999999999999995e-01 -1.4610204562611505e+01 -8.8459981631192228e+00 -2.8886051163566258e+00 2 4 2
533 178 2 4.0999999999999998e-01 -7.6261453109971686e+00 -1.2033121323528823e+01 -5.1167408557213285e+00 -1 2 1
448 150 1 -8.1999999999999995e-01 -9.6861474227087907e+00 -1.4753255555803833e+01 -1.2644081428739131e+00 0 2 2
532 178 1 -8.1999999999999995e-01 -7.4948676236554848e+00 -1.2869304055039960e+01 -5.6492310933286447e+00 -1 2 1
103 35 1 -8.1999999999999995e-01 -1.3120699580568157e+01 -5.4214507698781134e+00 -4.5969370710981980e+00 2 3 3
196 66 1 -8.1999999999999995e-01 -9.3054239013384290e+00 -5.8448084862210923e+00 -7.3591839485646799e+00 -1 1 6
1671 557 2 4.0999999999999998e-01 -1.4051785760014440e+01 -6.9694381605043425e+00 -7.0752904175122735e+00 2 1 3
105 35 2 4.0999999999999998e-01 -1.3815372110461013e+01 -5.3020814257189954e+00 -3.8875977280582479e+00 2 3 3
2041 681 1 -8.1999999999999995e-01 -1.1282620609758130e+01 -7.8124913829771456e+00 -8.0652519084868146e-01 2 3 0
450 150 2 4.0999999999999998e-01 -9.1558491691479524e+00 -1.4895405227760762e+01 -4.2861002559214789e-01 0 2 2
198 66 2 4.0999999999999998e-01 -9.7031775719842628e+00 -5.0726785534113237e+00 -6.8636149070595174e+00 -1 1 6
2042 681 2 4.0999999999999998e-01 -1.2262914748078082e+01 -7.7235186273390726e+00 -6.3020586841059156e-01 2 3 0
188 63 2 4.0999999999999998e-01 -1.3884492991048125e+01 -1.1255435009303874e+01 -2.4786892310830666e-01 0 6 1
2376 792 2 4.0999999999999998e-01 -1.4714362171313940e+01 -8.9143189059307204e+00 -3.8808070656891509e+00 2 4 2
1516 506 1 -8.1999999999999995e-01 -4.1936997031994743e+00 -8.7456631315717086e+00 -6.8082691155646202e-01 -2 1 3
1772 591 2 4.0999999999999998e-01 -6.4000432789153958e+00 -1.4665517403839132e+01 -3.1629779285828477e+00 0 4 3
1773 591 2 4.0999999999999998e-01 -7.1090257909032779e+00 -1.4124110475547795e+01 -4.5307494075775701e+00 0 4 3
1364 455 2 4.0999999999999998e-01 -2.2564945402203680e+00 -1.2452209375888460e+01 -6.2702327813187715e+00 2 2 0
260 87 2 4.0999999999999998e-01 -3.1068264678445612e+00 -9.4767903062204049e+00 -3.4536790256873111e+00 1 4 1
1511 504 2 4.0999999999999998e-01 -1.2577552731941566e+00 -5.8013612440704367e+00 -2.0830820073290930e+00 -1 2 2
2541 847 2 4.0999999999999998e-01 -3.8880813372896590e+00 -1.2849138046850486e+01 -3.3767539636660473e+00 -2 -2 3
779 260 2 4.0999999999999998e-01 -5.5135310905154959e+00 -5.1784024755223985e+00 -2.7344526731859116e+00 1 4 3
1866 622 2 4.0999999999999998e-01 -6.7687684295266255e+00 -7.1805199085822355e+00 -1.0275688795776041e+00 1 3 -1
1480 494 1 -8.1999999999999995e-01 -5.4893913710407070e+00 -1.1884752858132947e+01 -3.4543147471196693e+00 1 2 1
91 31 1 -8.1999999999999995e-01 -3.7404257941300152e+00 -5.4957372058386404e+00 -7.4058695701644268e+00 1 0 6
1518 506 2 4.0999999999999998e-01 -4.1659362682582159e+00 -9.7277743093513607e+00 -4.9463323546269500e-01 -2 1 3
1203 401 2 4.0999999999999998e-01 -7.1661732660565471e+00 -1.2623534344717296e+01 -1.8071915604033073e-01 3 2 0
1510 504 1 -8.1999999999999995e-01 -4.9423169210663787e-01 -5.5703856527106304e+00 -1.4800370064097095e+00 -1 2 2
1864 622 1 -8.1999999999999995e-01 -6.5983138838942139e+00 -7.0146918949962371e+00 -1.9988708751837052e+00 1 3 -1
2075 692 2 4.0999999999999998e-01 -4.0259371202455441e+00 -1.2118303117841329e+01 -1.4787723750419790e+00 0 5 2
1365 455 2 4.0999999999999998e-01 -1.2230810963593974e+00 -1.1370184528805380e+01 -5.6161262405014885e+00 2 2 0
2382 794 2 4.0999999999999998e-01 -1.4866432575199493e+00 -1.2290666521722223e+01 -2.1131437584109918e+00 2 2 -1
1482 494 2 4.0999999999999998e-01 -5.6340024632446948e+00 -1.0908983310644293e+01 -3.6184569812908620e+00 1 2 1
259 87 1 -8.1999999999999995e-01 -2.4432962775837570e+00 -9.2312446093247864e+00 -2.7469851333402975e+00 1 4 1
2540 847 2 4.0999999999999998e-01 -2.3376542222179619e+00 -1.3186456254897621e+01 -3.7627185268528756e+00 -2 -2 3
2352 784 2 4.0999999999999998e-01 -6.2737468724247574e+00 -7.3052231224868533e+00 -5.9357849056847680e+00 3 3 1
2198 733 2 4.0999999999999998e-01 -3.3767961026045814e+00 -5.8374151299277717e+00 -2.7652053616392305e+00 1 6 0
1891 631 1 -8.1999999999999995e-01 -1.9511667007498588e+00 -5.0378729051599631e+00 -5.4120232752110464e+00 3 3 1
2247 749 2 4.0999999999999998e-01 -7.3179429700164356e-01 -1.4036837213188061e+01 -5.6753116203100316e+00 2 1 3
1893 631 2 4.0999999999999998e-01 -2.5269963378787850e+00 -5.2487732918561427e+00 -6.2019109361375104e+00 3 3 1
284 95 2 4.0999999999999998e-01 -4.6713034495463113e+00 -1.2495972903047106e+01 -5.4376766208623053e+00 2 2 1
283 95 1 -8.1999999999999995e-01 -4.0789485814527477e+00 -1.2890135009525473e+01 -6.1403381274391684e+00 2 2 1
2350 784 1 -8.1999999999999995e-01 -5.3180866905629856e+00 -7.4892472821420863e+00 -6.1656326126895209e+00 3 3 1
2381 794 2 4.0999999999999998e-01 -1.3509848057481548e+00 -1.0671200800871048e+01 -2.2728435949875401e+00 2 2 -1
746 249 2 4.0999999999999998e-01 -1.2596336783866082e+00 -9.2404950082276969e+00 -6.8408170929735732e+00 4 3 -2
285 95 2 4.0999999999999998e-01 -4.3653917297983345e+00 -1.2561730829411673e+01 -7.0403838293151235e+00 2 2 1
1487 496 2 4.0999999999999998e-01 -1.1787719835377075e-01 -1.1426443213864339e+01 -3.7379229559257965e-01 4 1 2
1481 494 2 4.0999999999999998e-01 -6.3409014514339024e+00 -1.2298315233770165e+01 -3.1320136655133499e+00 1 2 1
2173 725 1 -8.1999999999999995e-01 -5.0563605884847043e+00 -8.9081655985581065e+00 -3.8580150001462936e+00 2 5 2
28 10 1 -8.1999999999999995e-01 -6.9175607832588604e-01 -9.7854824822182920e+00 -4.8191027943367200e+00 3 1 4
261 87 2 4.0999999999999998e-01 -2.9095709300514603e+00 -9.1487495946902637e+00 -1.8662105930614477e+00 1 4 1
2351 784 2 4.0999999999999998e-01 -4.8260373405179422e+00 -6.6241052171843826e+00 -6.2625753376859965e+00 3 3 1
524 175 2 4.0999999999999998e-01 -4.3761897472243394e+00 -8.7654363534222810e+00 -7.1598639865703531e+00 -1 -1 3
29 10 2 4.0999999999999998e-01 -1.2181395470776337e+00 -9.3999804022095255e+00 -4.0612836522213236e+00 3 1 4
2199 733 2 4.0999999999999998e-01 -2.9172473531384480e+00 -7.3983244127930057e+00 -2.9028775757694216e+00 1 6 0
2380 794 1 -8.1999999999999995e-01 -1.0818192620802236e+00 -1.1462967371812869e+01 -1.7245399803188857e+00 2 2 -1
2174 725 2 4.0999999999999998e-01 -5.3685986607486065e+00 -8.6535386824254257e+00 -4.7732492704665290e+00 2 5 2
1363 455 1 -8.1999999999999995e-01 -1.3424445568709285e+00 -1.2325982395157482e+01 -5.8847971413255085e+00 2 2 0
1892 631 2 4.0999999999999998e-01 -1.9241907322677303e+00 -5.8274007019568330e+00 -4.7989169228937456e+00 3 3 1
2197 733 1 -8.1999999999999995e-01 -2.6241776503315535e+00 -6.4483509089707383e+00 -3.0107744669256213e+00 1 6 0
2539 847 1 -8.1999999999999995e-01 -2.9801764127050632e+00 -1.3049793073016531e+01 -3.0087492687497779e+00 -2 -2 3
2175 725 2 4.0999999999999998e-01 -5.3372941890700449e+00 -8.2068406943891965e+00 -3.2028807092844200e+00 2 5 2
2076 692 2 4.0999999999999998e-01 -5.1886275574746694e+00 -1.1878409177058426e+01 -3.5753273653603657e-01 0 5 2
2074 692 1 -8.1999999999999995e-01 -4.2787745516787883e+00 -1.1597837278495623e+01 -6.6319295695540426e-01 0 5 2
1517 506 2 4.0999999999999998e-01 -5.0780720720745443e+00 -8.3770094365488390e+00 -3.9453822389929449e-01 -2 1 3
610 204 1 -8.1999999999999995e-01 -1.3766765567719046e+01 -7.8913280777723065e+00 5.2369379279708106e+00 -2 4 1
612 204 2 4.0999999999999998e-01 -1.3846703281305397e+01 -7.0241279176802172e+00 5.7284204722717362e+00 -2 4 1
698 233 2 4.0999999999999998e-01 -1.1654230117802715e+01 -1.0055134071875806e+01 2.9812184872486611e+00 2 0 -2
1903 635 1 -8.1999999999999995e-01 -1.3372391373564339e+01 -6.7504074962338763e+00 6.8710908617878275e-01 0 0 0
697 233 1 -8.1999999999999995e-01 -1.1302937237458686e+01 -1.0796124319219331e+01 3.5535016417652336e+00 2 0 -2
611 204 2 4.0999999999999998e-01 -1.3366880879614000e+01 -8.5809680242755491e+00 5.8406516366103745e+00 -2 4 1
875 292 2 4.0999999999999998e-01 -1.2888658312620116e+01 -1.2002998316091976e+01 3.1938776793650092e+00 2 1 2
1547 516 2 4.0999999999999998e-01 -1.2026376792985221e+01 -1.0139513110122451e+01 5.2749454353251650e+00 0 3 -2
295 99 1 -8.1999999999999995e-01 -1.0689246628998752e+01 -1.3348699200709577e+01 1.6663316157049053e+00 0 2 1
1546 516 1 -8.1999999999999995e-01 -1.2352060555935513e+01 -9.9772246029930223e+00 6.2063818436312985e+00 0 3 -2
978 326 2 4.0999999999999998e-01 -9.9355172579088453e+00 -7.5824694786851614e+00 4.1480776439616243e+00 -1 2 2
481 161 1 -8.1999999999999995e-01 -1.0913101494231515e+01 -5.8305916194207743e+00 5.2259812072968046e+00 -3 0 1
699 233 2 4.0999999999999998e-01 -1.0397801299819877e+01 -1.1068738953423155e+01 3.2273246300100524e+00 2 0 -2
189 63 2 4.0999999999999998e-01 -1.3702316751433891e+01 -9.9363662573792588e+00 6.9735375941695565e-01 0 6 1
383 128 2 4.0999999999999998e-01 -8.5564197999175988e+00 -1.4820990451673119e+01 2.2237578408322420e+00 0 2 0
874 292 1 -8.1999999999999995e-01 -1.3337119333179578e+01 -1.2630408487679045e+01 2.5573084082718509e+00 2 1 2
977 326 2 4.0999999999999998e-01 -8.9859549237569531e+00 -8.7815991447640194e+00 3.5762420882492307e+00 -1 2 2
876 292 2 4.0999999999999998e-01 -1.3746155811277234e+01 -1.2109280793203128e+01 1.8082447740397605e+00 2 1 2
976 326 1 -8.1999999999999995e-01 -9.0228329354429757e+00 -7.9894055983678021e+00 4.1853813591770397e+00 -1 2 2
1858 620 1 -8.1999999999999995e-01 -8.5604582398102735e+00 -1.0143611481200011e+01 2.5156539995718070e+00 2 4 1
1859 620 2 4.0999999999999998e-01 -8.3815883707888172e+00 -1.0123191793138218e+01 1.5320027151826743e+00 2 4 1
831 277 2 4.0999999999999998e-01 -1.3677426556558045e+01 -1.4300744644289173e+01 3.3840534950913614e+00 -2 3 1
25 9 1 -8.1999999999999995e-01 -1.1217125497596216e+01 -1.4237573693801384e+01 5.5153816513061713e+00 -1 -1 1
2110 704 1 -8.1999999999999995e-01 -1.3576140440243904e+01 -5.0086041529267842e+00 5.8716017033001151e+00 1 5 -1
861 287 2 4.0999999999999998e-01 -7.6231582738980750e+00 -7.5688000827499087e+00 4.9936750511787302e+00 -5 5 4
1904 635 2 4.0999999999999998e-01 -1.3498382548233380e+01 -7.3366709716980951e+00 1.4873606912802337e+00 0 0 0
2478 826 2 4.0999999999999998e-01 -1.0280656306265723e+01 -1.2420260778336482e+01 2.5994984365270746e-01 0 4 0
297 99 2 4.0999999999999998e-01 -1.1583580576914390e+01 -1.3314317154552580e+01 2.1123875666791427e+00 0 2 1
27 9 2 4.0999999999999998e-01 -1.0414958601446223e+01 -1.3676847099376726e+01 5.7205528453338772e+00 -1 -1 1
296 99 2 4.0999999999999998e-01 -1.0214750016384468e+01 -1.4186920693952523e+01 1.9350674242081354e+00 0 2 1
482 161 2 4.0999999999999998e-01 -1.1800650774139173e+01 -6.1988486794469040e+00 5.5027920820822089e+00 -3 0 1
26 9 2 4.0999999999999998e-01 -1.1745510021514331e+01 -1.4382202863167386e+01 6.3519660634387627e+00 -1 -1 1
483 161 2 4.0999999999999998e-01 -1.0396292658645512e+01 -5.5604509041478245e+00 6.0383320366568149e+00 -3 0 1
1498 500 1 -8.1999999999999995e-01 -1.4219211397434139e+01 -8.5388971961974178e+00 2.5801114502573732e+00 1 3 0
187 63 1 -8.1999999999999995e-01 -1.3254759155748420e+01 -1.0529228322757167e+01 2.7885304265057087e-02 0 6 1
2348 783 2 4.0999999999999998e-01 -9.2427101604426021e+00 -6.0880413115343668e+00 2.0013014403224041e+00 3 1 2
1500 500 2 4.0999999999999998e-01 -1.3935199252188129e+01 -8.5285251923082850e+00 3.5388662566957620e+00 1 3 0
1548 516 2 4.0999999999999998e-01 -1.1769956726755424e+01 -1.0469498154903466e+01 6.8535318592523922e+00 0 3 -2
2349 783 2 4.0999999999999998e-01 -8.7123561440727002e+00 -7.4664968473347644e+00 1.3047661348684443e+00 3 1 2
766 256 1 -8.1999999999999995e-01 -8.5490526506691111e+00 -1.2836030633721574e+01 6.5618948839467066e+00 0 3 1
1905 635 2 4.0999999999999998e-01 -1.4226581816259449e+01 -6.7053644582997194e+00 1.6912156253277288e-01 0 0 0
767 256 2 4.0999999999999998e-01 -7.7689344503622992e+00 -1.3151537605878945e+01 6.0216613920579363e+00 0 3 1
1860 620 2 4.0999999999999998e-01 -7.6927400742274843e+00 -1.0131418348073357e+01 3.0125420774733058e+00 2 4 1
2043 681 2 4.0999999999999998e-01 -1.0777621665047485e+01 -7.6868488556149570e+00 4.7390074348721001e-02 2 3 0
578 193 2 4.0999999999999998e-01 -9.6587770359692584e+00 -5.4283277717152210e+00 3.7048138283529113e+00 0 2 1
1093 365 1 -8.1999999999999995e-01 -9.4517824651733200e+00 -1.4849740975111573e+01 3.8023131989821231e+00 3 4 -2
2347 783 1 -8.1999999999999995e-01 -9.5007427990714408e+00 -6.8630993571560204e+00 1.4245125371432010e+00 3 1 2
577 193 1 -8.1999999999999995e-01 -8.8229728617580818e+00 -5.0004787608623182e+00 3.3607820559138943e+00 0 2 1
830 277 2 4.0999999999999998e-01 -1.2794874070940601e+01 -1.4688333800375419e+01 4.7021780112869500e+00 -2 3 1
768 256 2 4.0999999999999998e-01 -8.3463024259272256e+00 -1.1935056360995903e+01 6.9454557937518970e+00 0 3 1
344 115 2 4.0999999999999998e-01 -1.3189220808782483e+01 -5.0172038929148055e+00 9.7192360585366799e-01 3 4 5
1088 363 2 4.0999999999999998e-01 -1.4880751614628076e+01 -1.0137199124930248e+01 5.0655785373739768e+00 0 4 2
1095 365 2 4.0999999999999998e-01 -1.0233223144912756e+01 -1.4736305819294881e+01 4.4158799885049476e+00 3 4 -2
279 93 2 4.0999999999999998e-01 -1.4488425960883134e+01 -1.1566048489589567e+01 6.9665508632665230e+00 -1 1 2
579 193 2 4.0999999999999998e-01 -8.0819810215616847e+00 -5.1409796731066777e+00 4.0174188195294889e+00 0 2 1
125 42 2 4.0999999999999998e-01 -3.1212071549974851e-02 -6.2261607332414250e+00 4.5754296634120877e+00 1 -1 2