LAMMPS data file via write_data, version 15 May 2015, timestep = 23005000

2611 atoms
6 atom types
1749 bonds
4 bond types
894 angles
3 angle types
44 dihedrals
3 dihedral types
10 impropers
1 improper types

-1.4880134242574041e+01 1.4880134242574041e+01 xlo xhi
-1.4880134242574041e+01 1.4880134242574041e+01 ylo yhi
-1.4880134242574041e+01 1.4880134242574041e+01 zlo zhi

Masses

1 15.9994
2 1.00794
3 12.0107
4 1.00794
5 12.0107
6 12.0107

Bond Coeffs # harmonic

1 1000 1
2 469 1.4
3 367 1.08
4 469 0.7

Angle Coeffs # harmonic

1 100 109.47
2 35 120
3 63 120

Dihedral Coeffs # opls

1 0 7.25 0 0
2 0 7.25 0 0
3 0 7.25 0 0

Improper Coeffs # cvff

1 2.5 -1 2

Atoms # full

1575 525 2 4.0999999999999998e-01 -1.4103360169119881e+01 -9.2018230572554209e+00 -8.8954487630175176e+00 1 0 1
2004 668 2 4.0999999999999998e-01 -1.0246711899166295e+01 -1.1127773747901102e+01 -1.1981333235468620e+01 0 6 -2
2002 668 1 -8.1999999999999995e-01 -1.0519465832534276e+01 -1.2050865505564735e+01 -1.1710151782892861e+01 0 6 -2
2003 668 2 4.0999999999999998e-01 -1.1489320116250131e+01 -1.2053786279083361e+01 -1.1466416924912398e+01 0 6 -2
2071 691 1 -8.1999999999999995e-01 -1.0626770027999125e+01 -1.3895145170618850e+01 -9.4612752621915384e+00 0 4 6
2072 691 2 4.0999999999999998e-01 -1.0402144186431080e+01 -1.3253547196174832e+01 -1.0194710842047021e+01 0 4 6
2073 691 2 4.0999999999999998e-01 -1.1582763876246410e+01 -1.4176242360544707e+01 -9.5454929647991573e+00 0 4 6
1447 483 1 -8.1999999999999995e-01 -1.3358538697074186e+01 -8.6950849182792940e+00 -1.2084106442868201e+01 -5 3 0
1009 337 1 -8.1999999999999995e-01 -7.8986442129541645e+00 -6.0834884644065763e+00 -1.2629150644347169e+01 -4 2 6
834 278 2 4.0999999999999998e-01 -1.1458287382640417e+01 -6.7451971863388209e+00 -1.0702626686873158e+01 4 7 7
832 278 1 -8.1999999999999995e-01 -1.1902522476472503e+01 -7.3961100619997913e+00 -1.0086996810427319e+01 4 7 7
349 117 1 -8.1999999999999995e-01 -1.3611610720729804e+01 -1.2194991694041077e+01 -1.3906037964826407e+01 -4 6 4
351 117 2 4.0999999999999998e-01 -1.3086291402847996e+01 -1.3045766947638711e+01 -1.3921961816668276e+01 -4 6 4
833 278 2 4.0999999999999998e-01 -1.1796187895350764e+01 -7.0869364330934150e+00 -9.1419375019764182e+00 4 7 7
793 265 1 -8.1999999999999995e-01 -1.1407664425762631e+01 -4.9844304761554881e+00 -1.2024302734812702e+01 -6 2 -2
1573 525 1 -8.1999999999999995e-01 -1.3199217882428092e+01 -9.6029506502256705e+00 -9.0426083342899499e+00 1 0 1
1458 486 2 4.0999999999999998e-01 -9.6693165140448762e+00 -1.3203220283556137e+01 -1.3332670221550657e+01 4 6 7
1574 525 2 4.0999999999999998e-01 -1.2604113996274906e+01 -8.9308805621503211e+00 -9.4832963983916780e+00 1 0 1
1974 658 2 4.0999999999999998e-01 -8.1551017929678089e+00 -9.0005250525045390e+00 -1.2145953485246256e+01 4 6 9
794 265 2 4.0999999999999998e-01 -1.1400540976713639e+01 -5.5283973203531271e+00 -1.2863398653200003e+01 -6 2 -2
1456 486 1 -8.1999999999999995e-01 -9.5514577635673064e+00 -1.3652807768035549e+01 -1.4218115279412107e+01 4 6 7
1449 483 2 4.0999999999999998e-01 -1.3983186564723528e+01 -9.2221903124354689e+00 -1.1507905537632590e+01 -5 3 0
1448 483 2 4.0999999999999998e-01 -1.2726107907127961e+01 -8.1798557472448117e+00 -1.1505657948787505e+01 -5 3 0
2556 852 2 4.0999999999999998e-01 -1.2460345351012451e+01 -9.2122891225073396e+00 -1.3603266291912110e+01 8 6 2
1973 658 2 4.0999999999999998e-01 -8.8023227010416498e+00 -9.7728630021412073e+00 -1.3430987463196859e+01 4 6 9
1434 478 2 4.0999999999999998e-01 -1.4173947382466491e+01 -1.3953926057080391e+01 -1.1586126650093654e+01 -2 5 0
196 66 1 -8.1999999999999995e-01 -1.1595530405462624e+01 -6.1036945493683383e+00 -7.7610841273319942e+00 -4 2 12
1972 658 1 -8.1999999999999995e-01 -8.9383629809616849e+00 -9.5309625151294988e+00 -1.2470253524398068e+01 4 6 9
1164 388 2 4.0999999999999998e-01 -1.0581211131341727e+01 -1.1648845931732547e+01 -7.7409672437213484e+00 -7 2 0
495 165 2 4.0999999999999998e-01 -7.5843439354864133e+00 -6.0154244299732458e+00 -8.0631458193623615e+00 -1 3 4
1693 565 1 -8.1999999999999995e-01 -1.4669184391071870e+01 -7.2471447886925286e+00 -1.4301846770671418e+01 -2 1 5
1695 565 2 4.0999999999999998e-01 -1.3776919320991050e+01 -6.8915781414539179e+00 -1.4023516225391791e+01 -2 1 5
2555 852 2 4.0999999999999998e-01 -1.2341749463762286e+01 -1.0547443067408498e+01 -1.4536010667849624e+01 8 6 2
260 87 2 4.0999999999999998e-01 -8.6510086083438402e+00 -6.7009758546636675e+00 -1.4090709966676092e+01 -1 1 1
350 117 2 4.0999999999999998e-01 -1.3943806353651240e+01 -1.2025688007625783e+01 -1.2978129131418438e+01 -4 6 4
421 141 1 -8.1999999999999995e-01 -1.1769370128070932e+01 -6.4474660743982284e+00 -1.4384829151753475e+01 -3 2 7
1781 594 2 4.0999999999999998e-01 -1.3436660055786019e+01 -1.1398163173829326e+01 -1.0547134692788337e+01 1 5 3
422 141 2 4.0999999999999998e-01 -1.1253935405328601e+01 -7.2796430126827421e+00 -1.4180278241421913e+01 -3 2 7
1010 337 2 4.0999999999999998e-01 -7.5696952413597538e+00 -7.0107885794998319e+00 -1.2450434018852251e+01 -4 2 6
1050 350 2 4.0999999999999998e-01 -8.7959625302960429e+00 -1.0604444956164897e+01 -9.1049837626575432e+00 0 7 0
1048 350 1 -8.1999999999999995e-01 -8.1784320593383715e+00 -1.0337117486219032e+01 -9.8447301170750912e+00 0 7 0
1162 388 1 -8.1999999999999995e-01 -9.8168860600441867e+00 -1.1022037722313744e+01 -7.8924636412117763e+00 -7 2 0
1780 594 1 -8.1999999999999995e-01 -1.2947032914684426e+01 -1.2240377335022448e+01 -1.0772906844937548e+01 1 5 3
1049 350 2 4.0999999999999998e-01 -8.7039465365030804e+00 -1.0199738306816839e+01 -1.0684369324796968e+01 0 7 0
1782 594 2 4.0999999999999998e-01 -1.3222351819271976e+01 -1.2965435774571533e+01 -1.0141620579079024e+01 1 5 3
1850 617 2 4.0999999999999998e-01 -1.3767290198302163e+01 -6.2640683065413274e+00 -9.5655436815382195e+00 0 1 7
1960 654 1 -8.1999999999999995e-01 -1.3380109674929191e+01 -1.4623949694893998e+01 -8.9179168128519919e+00 2 2 7
1849 617 1 -8.1999999999999995e-01 -1.4630553655187223e+01 -5.7935466105165503e+00 -9.7483495769797646e+00 0 1 7
2554 852 1 -8.1999999999999995e-01 -1.1994405553182411e+01 -9.6214734475644725e+00 -1.4387804870281212e+01 8 6 2
2292 764 2 4.0999999999999998e-01 -7.7337635755260479e+00 -1.3359119280985754e+01 -1.0282745743861465e+01 1 1 2
1457 486 2 4.0999999999999998e-01 -8.7793544873135172e+00 -1.3240061558830337e+01 -1.4701364263290385e+01 4 6 7
1961 654 2 4.0999999999999998e-01 -1.4023057798306660e+01 -1.3951444812389134e+01 -8.5513278471748713e+00 2 2 7
1886 629 2 4.0999999999999998e-01 -9.8267084232785855e+00 -1.4422289445578665e+01 -7.9325271839892340e+00 -1 5 6
1995 665 2 4.0999999999999998e-01 -1.2858454896722751e+01 -1.1257780053456182e+01 -7.8732001232194833e+00 -3 6 -1
1694 565 2 4.0999999999999998e-01 -1.4627517409162646e+01 -8.2446759627096959e+00 -1.4358661493175369e+01 -2 1 5
264 88 2 4.0999999999999998e-01 -1.4612747854868950e+01 -1.0591804036051361e+01 -1.4110249706088194e+01 3 1 -2
1011 337 2 4.0999999999999998e-01 -7.1392236190325704e+00 -5.4383646159118371e+00 -1.2544722183125266e+01 -4 2 6
493 165 1 -8.1999999999999995e-01 -7.3024836632907979e+00 -6.9707911686926023e+00 -7.9744797540678762e+00 -1 3 4
2102 701 2 4.0999999999999998e-01 -4.8746110951076282e-01 -9.5414332130785109e+00 -1.2689561987237445e+01 3 0 0
593 198 2 4.0999999999999998e-01 -5.4913460646195933e+00 -6.4665011995481727e+00 -7.5210216594096577e+00 0 9 0
1715 572 2 4.0999999999999998e-01 -2.7182890826958648e+00 -1.4242031067896631e+01 -1.4808137777676279e+01 1 7 1
2158 720 1 -8.1999999999999995e-01 -1.1306182924024686e+00 -1.0437828185539400e+01 -9.5496132645452718e+00 -5 -1 -3
743 248 2 4.0999999999999998e-01 -3.9436067842217941e+00 -9.8290455382689750e+00 -1.4670744523409720e+01 2 3 1
212 71 2 4.0999999999999998e-01 -4.7185130163303661e+00 -6.4897380750112390e+00 -1.3546734642720155e+01 -4 7 3
2167 723 1 -8.1999999999999995e-01 -5.5999113234120159e+00 -9.3520281443703244e+00 -1.4837447854761837e+01 0 -2 3
2163 721 2 4.0999999999999998e-01 -2.6693840165218496e-01 -1.3440406831573483e+01 -1.0410186172783391e+01 3 6 0
1602 534 2 4.0999999999999998e-01 -1.8808649715232288e+00 -6.9675610127761241e+00 -8.0608629816819004e+00 2 4 -2
1739 580 2 4.0999999999999998e-01 -1.0697094832103886e+00 -1.4165006593216512e+01 -8.0251729692168503e+00 -3 2 2
2162 721 2 4.0999999999999998e-01 -1.4147549809306526e-01 -1.2051433311217837e+01 -9.5606423665244815e+00 3 6 0
1807 603 1 -8.1999999999999995e-01 -6.3640520899270747e-01 -1.3906595607406830e+01 -1.2002110794127457e+01 2 8 1
2291 764 2 4.0999999999999998e-01 -6.5822510875287588e+00 -1.3663973152513353e+01 -1.1399793745078936e+01 1 1 2
782 261 2 4.0999999999999998e-01 -6.6306543191309864e-01 -6.5524299550118084e+00 -1.0401191596730740e+01 -4 2 2
697 233 1 -8.1999999999999995e-01 -3.6218119114082512e+00 -9.5656774324256908e+00 -7.5739998629733885e+00 0 2 4
2233 745 1 -8.1999999999999995e-01 -3.5732812515399193e+00 -1.4159543083868313e+01 -1.1044228096640570e+01 5 4 1
318 106 2 4.0999999999999998e-01 -6.1791375967389861e+00 -1.2827466652805908e+01 -1.3402063315225933e+01 3 2 -6
1809 603 2 4.0999999999999998e-01 -1.6022444100948512e+00 -1.4030066331346470e+01 -1.1774201996055762e+01 2 8 1
2290 764 1 -8.1999999999999995e-01 -7.1778821589925359e+00 -1.4073091464253924e+01 -1.0708506297815042e+01 1 1 2
783 261 2 4.0999999999999998e-01 -2.5358477027056736e-02 -7.2423461698692977e+00 -9.0655050416043146e+00 -4 2 2
781 261 1 -8.1999999999999995e-01 -6.0517935676657331e-01 -6.5012986257284204e+00 -9.4041623667372249e+00 -4 2 2
452 151 2 4.0999999999999998e-01 -4.5706792550910951e+00 -1.2818569054615972e+01 -8.2917761652614210e+00 0 1 -3
489 163 2 4.0999999999999998e-01 -6.2875722512495322e+00 -8.3373026729533155e+00 -8.4835441938121292e+00 -3 4 11
487 163 1 -8.1999999999999995e-01 -5.9339839732832758e+00 -9.2036064356686857e+00 -8.8364262086193506e+00 -3 4 11
2235 745 2 4.0999999999999998e-01 -3.6571184227974634e+00 -1.3727555831212277e+01 -1.0146235433479667e+01 5 4 1
2169 723 2 4.0999999999999998e-01 -5.3320746637216008e+00 -8.3940619395519356e+00 -1.4734507052081772e+01 0 -2 3
1808 603 2 4.0999999999999998e-01 -1.8695931314588066e-01 -1.4798966110588511e+01 -1.2043412720196223e+01 2 8 1
211 71 1 -8.1999999999999995e-01 -4.6725335425599610e+00 -6.5491507053765385e+00 -1.4543924979226544e+01 -4 7 3
2234 745 2 4.0999999999999998e-01 -4.2901977508474989e+00 -1.3812878427258564e+01 -1.1649113919055598e+01 5 4 1
1564 522 1 -8.1999999999999995e-01 -4.5967574737048125e+00 -1.0425787583581442e+01 -1.1256069918718676e+01 -5 8 -3
2160 720 2 4.0999999999999998e-01 -4.6108016615750103e-01 -9.9074353609740484e+00 -9.0295799671528787e+00 -5 -1 -3
820 274 1 -8.1999999999999995e-01 -2.0597138458072646e+00 -9.5217997616328187e+00 -1.1846248178778742e+01 -3 8 -1
451 151 1 -8.1999999999999995e-01 -4.1879327129949520e+00 -1.2143709370361069e+01 -8.9227293998389996e+00 0 1 -3
1566 522 2 4.0999999999999998e-01 -4.7202371110244901e+00 -1.1004102305220076e+01 -1.0449634967888855e+01 -5 8 -3
1618 540 1 -8.1999999999999995e-01 -7.6704838289637500e-01 -6.9126856442270084e+00 -1.2053894385223051e+01 3 7 3
858 286 2 4.0999999999999998e-01 -4.0246345163024912e+00 -4.9859533570518551e+00 -8.9376655546903194e+00 -3 9 3
1504 502 1 -8.1999999999999995e-01 -6.2622536786776717e+00 -8.2527990740991832e+00 -1.2229746771426056e+01 -1 7 4
453 151 2 4.0999999999999998e-01 -3.6559286334320902e+00 -1.1470871573195240e+01 -8.4086345287543232e+00 0 1 -3
2286 762 2 4.0999999999999998e-01 -3.7891031981415182e+00 -6.2281356386926365e+00 -1.1150007628229710e+01 5 6 3
1506 502 2 4.0999999999999998e-01 -5.5461418855724816e+00 -7.7192901771639955e+00 -1.1779652641650333e+01 -1 7 4
698 233 2 4.0999999999999998e-01 -4.5170302661005799e+00 -9.3519397739983745e+00 -7.9650663597124645e+00 0 2 4
822 274 2 4.0999999999999998e-01 -1.5011627190858388e+00 -9.8165093029872494e+00 -1.1070877677001036e+01 -3 8 -1
488 163 2 4.0999999999999998e-01 -6.6243423278679643e+00 -9.6329383010225555e+00 -9.4187594107134149e+00 -3 4 11
317 106 2 4.0999999999999998e-01 -5.2810802619866717e+00 -1.1915981946252350e+01 -1.2387468848348139e+01 3 2 -6
1565 522 2 4.0999999999999998e-01 -5.1688959097991987e+00 -9.6099371595064014e+00 -1.1171938138334394e+01 -5 8 -3
1505 502 2 4.0999999999999998e-01 -5.8458119839525384e+00 -8.8867224963203100e+00 -1.2881475224371391e+01 -1 7 4
2159 720 2 4.0999999999999998e-01 -2.0228744803877650e+00 -1.0378901285732706e+01 -9.1019091047939860e+00 -5 -1 -3
742 248 1 -8.1999999999999995e-01 -3.0345767022789847e+00 -1.0205323600109146e+01 -1.4849941939898002e+01 2 3 1
316 106 1 -8.1999999999999995e-01 -5.6736114015431376e+00 -1.2823129170043146e+01 -1.2539244109629992e+01 3 2 -6
2284 762 1 -8.1999999999999995e-01 -3.9337078172238424e+00 -6.9666572330671324e+00 -1.1808572609772778e+01 5 6 3
1619 540 2 4.0999999999999998e-01 -2.3182120361700598e-01 -6.3803987497710217e+00 -1.2709817462725585e+01 3 7 3
1620 540 2 4.0999999999999998e-01 -9.5214759772154522e-01 -7.8195025686368229e+00 -1.2432647419196325e+01 3 7 3
2285 762 2 4.0999999999999998e-01 -3.0604205225308636e+00 -7.4112757446422206e+00 -1.2007862123836743e+01 5 6 3
821 274 2 4.0999999999999998e-01 -3.0092028265278561e+00 -9.7979610459942030e+00 -1.1697123683993535e+01 -3 8 -1
699 233 2 4.0999999999999998e-01 -3.0582185332872900e+00 -8.7397175420335547e+00 -7.5603864469242108e+00 0 2 4
2325 775 2 4.0999999999999998e-01 -2.3839759223400048e+00 -1.1816861411873685e+01 -1.4799071008865774e+01 1 10 0
2324 775 2 4.0999999999999998e-01 -1.0560146057919386e+00 -1.2765522322601372e+01 -1.4741849303956126e+01 1 10 0
1358 453 2 4.0999999999999998e-01 -1.0678013440197159e+01 -1.2217213961548174e+01 -3.3028198301933234e+00 3 5 12
1415 472 2 4.0999999999999998e-01 -9.6704223368674462e+00 -9.9421644738543353e+00 -2.5742294836902282e+00 0 7 -2
1357 453 1 -8.1999999999999995e-01 -1.0973715126592763e+01 -1.3139662009698478e+01 -3.0544600042223990e+00 3 5 12
1994 665 2 4.0999999999999998e-01 -1.3211474691502668e+01 -1.1314262310361123e+01 -6.2798075637710955e+00 -3 6 -1
508 170 1 -8.1999999999999995e-01 -1.4221008874313958e+01 -1.2056749019291638e+01 -1.0111099878336791e+00 1 3 2
1993 665 1 -8.1999999999999995e-01 -1.2691474990884753e+01 -1.1746232543822824e+01 -7.0167163564153334e+00 -3 6 -1
1414 472 1 -8.1999999999999995e-01 -1.0162935697006297e+01 -1.0411485802725046e+01 -3.3071691876556795e+00 0 7 -2
1359 453 2 4.0999999999999998e-01 -1.0961391989455455e+01 -1.3723523186948668e+01 -3.8662400445790439e+00 3 5 12
1636 546 1 -8.1999999999999995e-01 -1.1790833690193031e+01 -8.3532010248900956e+00 -4.8504480688469798e+00 4 9 5
110 37 2 4.0999999999999998e-01 -9.6709645809078264e+00 -7.5221312541710255e+00 -6.7323061111432931e+00 -3 5 5
478 160 1 -8.1999999999999995e-01 -1.2244536487500950e+01 -9.3750996182191475e+00 -6.2549745776673760e-01 1 5 6
109 37 1 -8.1999999999999995e-01 -9.0895691373833465e+00 -8.0866270601485049e+00 -6.1463399455243017e+00 -3 5 5
111 37 2 4.0999999999999998e-01 -9.5780115450693764e+00 -8.3025328828870322e+00 -5.3008571405560421e+00 -3 5 5
486 162 2 4.0999999999999998e-01 -1.4001273077413057e+01 -6.6993028524139540e+00 -3.3382735993220258e-01 6 -2 7
1416 472 2 4.0999999999999998e-01 -1.0672807907318539e+01 -9.7423275523552864e+00 -3.8478077669166879e+00 0 7 -2
682 228 1 -8.1999999999999995e-01 -1.4330999152032829e+01 -9.9828798431956152e+00 -5.5573426304885398e+00 -3 2 1
1697 566 2 4.0999999999999998e-01 -7.8520247151060216e+00 -1.2116686796111070e+01 -5.0431152219749116e+00 0 10 1
1638 546 2 4.0999999999999998e-01 -1.2638905657629255e+01 -8.8649997090409336e+00 -4.9878108349398769e+00 4 9 5
1163 388 2 4.0999999999999998e-01 -9.7201538532198075e+00 -1.0417165464019988e+01 -7.1020176153924979e+00 -7 2 0
1637 546 2 4.0999999999999998e-01 -1.2007642938999751e+01 -7.4050636140450985e+00 -4.6179364084129251e+00 4 9 5
1650 550 2 4.0999999999999998e-01 -1.0728828463347309e+01 -1.4379601925414255e+01 -5.8664482813190997e+00 2 10 0
1648 550 1 -8.1999999999999995e-01 -1.1709747736875912e+01 -1.4289797846578216e+01 -5.6939226912659109e+00 2 10 0
1649 550 2 4.0999999999999998e-01 -1.2112215815447833e+01 -1.3673595713889588e+01 -6.3709358734590413e+00 2 10 0
1084 362 1 -8.1999999999999995e-01 -9.1835187460888630e+00 -6.8319689909617782e+00 -3.2576133447625057e+00 -2 2 6
509 170 2 4.0999999999999998e-01 -1.3806019256786307e+01 -1.1365053702365723e+01 -1.6021884179214236e+00 1 3 2
2184 728 2 4.0999999999999998e-01 -1.3648585699468216e+01 -1.4612780456181994e+01 -4.8971311399576347e+00 1 4 3
1147 383 1 -8.1999999999999995e-01 -1.0313137189955270e+01 -1.2993850979895738e+01 -3.1294312985357386e-01 6 7 9
684 228 2 4.0999999999999998e-01 -1.4082215374332986e+01 -9.9046066056072526e+00 -4.5919347352517175e+00 -3 2 1
1148 383 2 4.0999999999999998e-01 -1.0341871396990619e+01 -1.3237770572457947e+01 -1.2823295588730161e+00 6 7 9
1085 362 2 4.0999999999999998e-01 -1.0119141524325048e+01 -6.4990030997109116e+00 -3.1402410321772223e+00 -2 2 6
1086 362 2 4.0999999999999998e-01 -8.9691129084643748e+00 -7.4862304433387301e+00 -2.5323514729592720e+00 -2 2 6
1352 451 2 4.0999999999999998e-01 -8.2913229534219255e+00 -9.2209295835311309e+00 -1.4433897760097167e+00 -1 0 2
1351 451 1 -8.1999999999999995e-01 -9.0185390415092392e+00 -8.5400818172214983e+00 -1.3560078986584525e+00 -1 0 2
2022 674 2 4.0999999999999998e-01 -1.2161957444281928e+01 -6.2682354906400608e+00 -1.8314045161549082e+00 -3 6 2
774 258 2 4.0999999999999998e-01 -8.6940125789697866e+00 -5.2006480715089349e+00 -3.3605703292366762e+00 -4 1 5
1353 451 2 4.0999999999999998e-01 -9.0327585499703691e+00 -8.1856993977291346e+00 -4.2099805329472062e-01 -1 0 2
480 160 2 4.0999999999999998e-01 -1.1578820101983657e+01 -8.7661442643465612e+00 -1.0568065471567145e+00 1 5 6
1185 395 2 4.0999999999999998e-01 -1.3549531189122819e+01 -9.2664390817253448e+00 -1.9705662112997171e+00 0 -1 5
776 259 2 4.0999999999999998e-01 -1.1562960051801443e+01 -1.4489717972528839e+01 -2.4967934334418658e+00 -3 10 0
1696 566 1 -8.1999999999999995e-01 -8.4496104360582436e+00 -1.2883985968860015e+01 -4.8103582982253474e+00 0 10 1
1308 436 2 4.0999999999999998e-01 -1.4648645510971816e+01 -1.4371257334286977e+01 -1.2580707237157274e+00 1 2 4
1183 395 1 -8.1999999999999995e-01 -1.3882827117455525e+01 -9.5260052966817739e+00 -2.8769721487276794e+00 0 -1 5
1698 566 2 4.0999999999999998e-01 -8.7031314401631121e+00 -1.3373964565889056e+01 -5.6444329747325668e+00 0 10 1
510 170 2 4.0999999999999998e-01 -1.3681709387788462e+01 -1.2146683962618631e+01 -1.7379269825092436e-01 1 3 2
2020 674 1 -8.1999999999999995e-01 -1.1921583399069013e+01 -6.0284968104455157e+00 -2.7720310117514071e+00 -3 6 2
1885 629 1 -8.1999999999999995e-01 -9.2323589247795006e+00 -1.4494198747460914e+01 -7.1315214428524731e+00 -1 5 6
198 66 2 4.0999999999999998e-01 -1.2318998246447457e+01 -6.3708315826877779e+00 -7.1244799486058055e+00 -4 2 12
1327 443 1 -8.1999999999999995e-01 -1.3709976741181020e+01 -5.1928163441028321e+00 -6.0115346335986022e+00 -2 0 3
2021 674 2 4.0999999999999998e-01 -1.2372037186014834e+01 -5.1717186747355193e+00 -3.0231387998018420e+00 -3 6 2
197 66 2 4.0999999999999998e-01 -1.1017432213798591e+01 -5.4074559195711949e+00 -7.3355412122443546e+00 -4 2 12
494 165 2 4.0999999999999998e-01 -7.8040852178711333e+00 -7.3978486694980150e+00 -7.2221166357251434e+00 -1 3 4
189 63 2 4.0999999999999998e-01 -1.4779659275766102e+01 -6.7539154850619365e+00 -6.2455622289105612e+00 -4 13 2
1615 539 1 -8.1999999999999995e-01 -7.6924938351057150e+00 -9.6912080381038521e+00 -3.9911883935688106e+00 2 2 6
1617 539 2 4.0999999999999998e-01 -7.4983163883661854e+00 -9.4964621769973014e+00 -4.9526464831548758e+00 2 2 6
1616 539 2 4.0999999999999998e-01 -8.6220120993300444e+00 -1.0049782455605985e+01 -3.9048593876070132e+00 2 2 6
1184 395 2 4.0999999999999998e-01 -1.4663974709575097e+01 -1.0142928181681599e+01 -2.7808104296042977e+00 0 -1 5
1149 383 2 4.0999999999999998e-01 -1.1192735776395802e+01 -1.2603277907093508e+01 -4.1296842061948169e-02 6 7 9
1442 481 2 4.0999999999999998e-01 -3.8626240467366806e+00 -5.4028619698560529e+00 -3.9846925557736945e+00 -3 1 3
425 142 2 4.0999999999999998e-01 -5.1162283141019387e+00 -1.4447585053765962e+01 -6.8116358292860664e+00 1 7 4
1600 534 1 -8.1999999999999995e-01 -2.2377295220274132e+00 -7.3578402879524401e+00 -7.2121213932386086e+00 2 4 -2
1931 644 2 4.0999999999999998e-01 -1.8632946543986151e+00 -1.4561940560995792e+01 -1.5497201263089622e+00 -7 3 6
481 161 1 -8.1999999999999995e-01 -5.5855523758143200e-01 -9.0459608830985214e+00 -5.8384389992984236e+00 -5 2 7
134 45 2 4.0999999999999998e-01 -8.4840924333928491e-01 -1.0357879911140373e+01 -1.6477333069304496e+00 0 2 1
592 198 1 -8.1999999999999995e-01 -4.8343400807858572e+00 -5.7507614071545650e+00 -7.2841838406072261e+00 0 9 0
1601 534 2 4.0999999999999998e-01 -3.1345121853629561e+00 -6.9619537612885232e+00 -7.0144164799849404e+00 2 4 -2
1738 580 1 -8.1999999999999995e-01 -1.2888605151522352e+00 -1.4646452665246377e+01 -7.1765181701656857e+00 -3 2 2
2055 685 2 4.0999999999999998e-01 -6.6335835556279310e+00 -1.0580264506056746e+01 -7.0823415329181190e+00 0 1 4
133 45 1 -8.1999999999999995e-01 -6.9036912902225822e-01 -1.0197281878160805e+01 -6.7343145778623814e-01 0 2 1
859 287 1 -8.1999999999999995e-01 -4.1098375981089621e+00 -1.3830741143664142e+01 -3.1438232464252103e+00 -2 6 3
1172 391 2 4.0999999999999998e-01 -5.3259027050012975e+00 -7.7235602101475163e+00 -9.7173266979486783e-01 1 4 0
540 180 2 4.0999999999999998e-01 -2.0885449533801701e+00 -5.1319467545452042e+00 -6.6586318434072922e+00 3 0 1
1932 644 2 4.0999999999999998e-01 -1.4930161666697170e+00 -1.3459373335488261e+01 -4.0344239696061379e-01 -7 3 6
483 161 2 4.0999999999999998e-01 -6.8716383775541345e-01 -9.6100709006872620e+00 -5.0227967323321021e+00 -5 2 7
208 70 1 -8.1999999999999995e-01 -3.8148343150937105e+00 -1.0512937175334162e+01 -4.8365356833038202e+00 0 12 8
537 179 2 4.0999999999999998e-01 -6.4929262337503424e+00 -1.1452561571632630e+01 -8.6416741098832617e-01 1 2 5
2542 848 1 -8.1999999999999995e-01 -5.5450557905017064e+00 -8.8533274806372724e+00 -2.6615238978661360e+00 -1 4 6
1096 366 1 -8.1999999999999995e-01 -6.8331489820237383e+00 -6.1930038904850342e+00 -4.5740471852021791e+00 -1 6 0
2543 848 2 4.0999999999999998e-01 -6.2689409967262435e+00 -9.3185520409251232e+00 -3.1710225303473774e+00 -1 4 6
536 179 2 4.0999999999999998e-01 -5.9550743224345695e+00 -9.9198637996040695e+00 -6.9604249276124541e-01 1 2 5
2385 795 2 4.0999999999999998e-01 -5.3707751883090271e+00 -1.2963653681132914e+01 -2.6416203808241789e+00 -1 7 6
1388 463 2 4.0999999999999998e-01 -1.4960278033718790e+00 -1.1600730222008281e+01 -5.1412091899981345e+00 -1 2 0
2384 795 2 4.0999999999999998e-01 -6.9660451215880475e+00 -1.2808658775216561e+01 -2.9543559090494025e+00 -1 7 6
424 142 1 -8.1999999999999995e-01 -5.2956373209487548e+00 -1.3521576498512564e+01 -6.4794413375473585e+00 1 7 4
1930 644 1 -8.1999999999999995e-01 -2.2036195226062780e+00 -1.4074039007280678e+01 -7.4587711114389244e-01 -7 3 6
1441 481 1 -8.1999999999999995e-01 -4.2072525990328415e+00 -6.3391972040116809e+00 -4.0520719384054686e+00 -3 1 3
1097 366 2 4.0999999999999998e-01 -7.1645560779999657e+00 -5.2500171224402497e+00 -4.6053163116166065e+00 -1 6 0
1098 366 2 4.0999999999999998e-01 -7.4360322766096036e+00 -6.7390716078249504e+00 -3.9923476507797790e+00 -1 6 0
2383 795 1 -8.1999999999999995e-01 -6.2426344891305785e+00 -1.2623515057644788e+01 -2.2892007915276444e+00 -1 7 6
1443 481 2 4.0999999999999998e-01 -5.2071945585478439e+00 -6.3273523876594346e+00 -4.0491956986232172e+00 -3 1 3
297 99 2 4.0999999999999998e-01 -1.6730867582463009e+00 -8.9811351500048087e+00 -3.0622690746886416e+00 -2 3 1
2544 848 2 4.0999999999999998e-01 -5.0182448821057974e+00 -8.2746775630508509e+00 -3.2841530126814042e+00 -1 4 6
1387 463 1 -8.1999999999999995e-01 -7.2065325482586040e-01 -1.2165504018445828e+01 -5.4237995716573675e+00 -1 2 0
861 287 2 4.0999999999999998e-01 -4.4502610514374048e+00 -1.4757077353496150e+01 -2.9824367853197735e+00 -2 6 3
2053 685 1 -8.1999999999999995e-01 -6.5959723291359929e+00 -1.1176532668472449e+01 -6.2804175044475343e+00 0 1 4
295 99 1 -8.1999999999999995e-01 -1.4408915394090513e+00 -9.9150364861654054e+00 -3.3341997042025326e+00 -2 3 1
296 99 2 4.0999999999999998e-01 -2.2644334162688846e+00 -1.0383593301499797e+01 -3.6539900131572960e+00 -2 3 1
1389 463 2 4.0999999999999998e-01 -1.0446425787017404e+00 -1.2905640896238880e+01 -6.0130879381764633e+00 -1 2 0
2054 685 2 4.0999999999999998e-01 -6.1006631755880356e+00 -1.2014161011513433e+01 -6.5108087018964582e+00 0 1 4
1666 556 1 -8.1999999999999995e-01 -1.9710892667538182e+00 -7.2006297058510613e+00 -2.3124676876994403e+00 -1 5 2
209 70 2 4.0999999999999998e-01 -4.7777656135098372e+00 -1.0627615792681096e+01 -4.5923129800268203e+00 0 12 8
1668 556 2 4.0999999999999998e-01 -2.6472503387651898e+00 -6.9989077447634083e+00 -3.0210909579059972e+00 -1 5 2
1667 556 2 4.0999999999999998e-01 -1.6439736466478312e+00 -6.3452759546521840e+00 -1.9107241346016224e+00 -1 5 2
482 161 2 4.0999999999999998e-01 -1.3518845110827904e+00 -8.4493069673098820e+00 -5.9595393248501995e+00 -5 2 7
210 70 2 4.0999999999999998e-01 -3.7455329682315757e+00 -1.0217481525039638e+01 -5.7893923509725393e+00 0 12 8
594 198 2 4.0999999999999998e-01 -5.1883249722719906e+00 -5.2134234661580390e+00 -6.5186806708180658e+00 0 9 0
535 179 1 -8.1999999999999995e-01 -6.4131331273048957e+00 -1.0679676545931207e+01 -2.3463243699334591e-01 1 2 5
426 142 2 4.0999999999999998e-01 -4.8498085150009427e+00 -1.3393032964705039e+01 -5.5935825610717451e+00 1 7 4
860 287 2 4.0999999999999998e-01 -3.5188607393712843e+00 -1.3555951402525107e+01 -2.3853580603953830e+00 -2 6 3
732 244 2 4.0999999999999998e-01 -9.3260817229887500e+00 -8.9823099909745174e+00 2.3237062322868667e+00 -3 3 3
1220 407 2 4.0999999999999998e-01 -9.6736990364408015e+00 -1.4266699526799256e+01 4.1666607823760415e+00 1 5 6
1219 407 1 -8.1999999999999995e-01 -1.0424136533163768e+01 -1.4675107682860471e+01 4.6863519062542167e+00 1 5 6
730 244 1 -8.1999999999999995e-01 -9.1502233823412773e+00 -9.6047631475198507e+00 3.0863715538912970e+00 -3 3 3
731 244 2 4.0999999999999998e-01 -8.8055363752850138e+00 -1.0474797417235973e+01 2.7338609271298147e+00 -3 3 3
1301 434 2 4.0999999999999998e-01 -1.3105992334159968e+01 -1.1097513859004760e+01 4.9019218844750085e+00 2 2 2
764 255 2 4.0999999999999998e-01 -1.1436444778243244e+01 -1.3300944072979425e+01 4.5063384742610744e+00 1 7 -4
1872 624 2 4.0999999999999998e-01 -8.1068475308058296e+00 -1.0531389793592288e+01 5.7035833589071743e+00 -1 4 4
1871 624 2 4.0999999999999998e-01 -9.3624354257156721e+00 -9.4922146168089956e+00 5.8052055486622187e+00 -1 4 4
1870 624 1 -8.1999999999999995e-01 -8.7713714918069812e+00 -1.0111675691562043e+01 6.3218716827048844e+00 -1 4 4
2581 861 1 -8.1999999999999995e-01 -1.1104958761664223e+01 -8.4497577933028616e+00 5.9043841324510211e+00 0 1 2
871 291 1 -8.1999999999999995e-01 -1.1844384477415955e+01 -9.5421825689019251e+00 2.0484564628419548e+00 -2 -2 3
873 291 2 4.0999999999999998e-01 -1.2331375066239790e+01 -8.7134372929539001e+00 2.3242352405995312e+00 -2 -2 3
1300 434 1 -8.1999999999999995e-01 -1.3212569631037704e+01 -1.0199626446206526e+01 5.3290895206629223e+00 2 2 2
872 291 2 4.0999999999999998e-01 -1.1279930667242670e+01 -9.8654530794723811e+00 2.8080093180295442e+00 -2 -2 3
763 255 1 -8.1999999999999995e-01 -1.2019775658796666e+01 -1.2622531116990528e+01 4.0596692136294052e+00 1 7 -4
823 275 1 -8.1999999999999995e-01 -8.7875236246862869e+00 -7.6103777568138362e+00 1.0917301850797170e+00 4 1 -1
2583 861 2 4.0999999999999998e-01 -1.1753600493544798e+01 -9.0954471717466099e+00 5.5014180942156905e+00 0 1 2
765 255 2 4.0999999999999998e-01 -1.1853398687732073e+01 -1.2637307815975957e+01 3.0737012541495226e+00 1 7 -4
1302 434 2 4.0999999999999998e-01 -1.3742504049863246e+01 -9.6040661061065542e+00 4.7253429870813726e+00 2 2 2
302 101 2 4.0999999999999998e-01 -1.1834288717324256e+01 -6.1379528214095984e+00 5.4207555257123623e+00 -3 4 9
2326 776 1 -8.1999999999999995e-01 -8.4037731256570503e+00 -1.1695260065881227e+01 1.6005774321180759e+00 1 2 4
1840 614 1 -8.1999999999999995e-01 -1.3035934576372568e+01 -7.0353867371429377e+00 3.0175963507989962e+00 1 -1 -3
1707 569 2 4.0999999999999998e-01 -1.3324871508450469e+01 -1.2696499251175927e+01 1.4843313804535079e+00 3 2 4
1706 569 2 4.0999999999999998e-01 -1.2582635921212784e+01 -1.1242737714612398e+01 1.4355790559525232e+00 3 2 4
1242 414 2 4.0999999999999998e-01 -8.7956638228482404e+00 -7.6200805910871940e+00 3.8744362929875322e+00 -4 6 7
1241 414 2 4.0999999999999998e-01 -9.9240339945462512e+00 -7.4088494959498687e+00 5.0358471828239466e+00 -4 6 7
1240 414 1 -8.1999999999999995e-01 -9.3254719151916365e+00 -6.9424655735001979e+00 4.3845086036972383e+00 -4 6 7
301 101 1 -8.1999999999999995e-01 -1.2525267241264558e+01 -5.4751187717499121e+00 5.1322553854278183e+00 -3 4 9
1876 626 1 -8.1999999999999995e-01 -8.4878857035265156e+00 -1.4846723223586302e+01 4.2532258217464758e-01 -3 7 2
1765 589 1 -8.1999999999999995e-01 -1.0013480973783206e+01 -4.9779088744482518e+00 3.9029983339190721e-02 -2 6 3
1842 614 2 4.0999999999999998e-01 -1.3832532734735901e+01 -7.6027275739457369e+00 3.2263742953207100e+00 1 -1 -3
2327 776 2 4.0999999999999998e-01 -9.2574038722444385e+00 -1.2080796590950186e+01 1.2502795168404859e+00 1 2 4
1841 614 2 4.0999999999999998e-01 -1.2878860345414960e+01 -6.3925202681370781e+00 3.7673182236602862e+00 1 -1 -3
2376 792 2 4.0999999999999998e-01 -1.3759286265093893e+01 -1.0168409127115702e+01 7.3276617411671516e+00 4 3 6
2328 776 2 4.0999999999999998e-01 -7.8278909211140943e+00 -1.1409722031674743e+01 8.3450941024686998e-01 1 2 4
609 203 2 4.0999999999999998e-01 -9.4928281461537729e+00 -5.4184914174650558e+00 3.4430446574905744e+00 -4 4 -2