2611
Atoms. Timestep: 23000000
O -6.89197 3.28006 -1.17064
H -7.38747 3.1567 -2.03042
H -7.28572 2.68438 -0.470587
O 11.1984 0.142347 -12.9689
H 11.5405 -0.7378 -13.298
H 11.9327 0.629709 -12.4964
O 5.71565 10.9845 -4.98323
H 5.90853 10.2975 -5.68377
H 6.56119 11.4605 -4.74148
O -10.819 10.4812 -2.10306
H -11.0331 9.65484 -2.62388
H -9.92182 10.3809 -1.67289
O 11.1552 4.23282 -9.85402
H 12.1141 4.33512 -9.58948
H 10.8187 5.09685 -10.2285
O 14.0538 2.76269 -6.75803
H 13.9218 2.68007 -5.77024
H 13.3162 3.31411 -7.14784
O 7.33805 2.81436 -9.22054
H 7.6623 2.59302 -8.30085
H 7.97749 2.44815 -9.89653
O 6.80979 -13.3489 1.08613
H 6.51723 -14.3024 1.15821
H 7.0702 -13.0109 1.99051
O 1.78294 9.56799 0.724489
H 1.96074 10.5514 0.758588
H 0.805987 9.4011 0.857472
O 12.9012 -8.64271 13.4761
H 13.1819 -9.23359 14.2324
H 11.9656 -8.86954 13.2055
O 4.79566 -12.4135 7.29676
H 5.31713 -13.0444 7.87121
H 5.27267 -11.536 7.24726
O 12.2864 12.0933 -7.9066
H 12.8698 12.299 -8.69232
H 11.5923 11.4246 -8.17289
O 10.5776 13.7262 7.35666
H 11.0605 13.2014 8.05758
H 9.89018 14.3085 7.79074
O 12.0798 -11.7031 10.0563
H 12.5176 -11.7944 9.16186
H 11.7084 -12.588 10.3374
O 1.91315 -9.74862 0.884251
H 1.42666 -9.61767 0.0204558
H 1.46085 -10.4643 1.41634
O -13.9963 12.0422 12.6783
H -13.0203 11.8308 12.7289
H -14.1549 12.7133 11.9541
O -0.783843 4.16808 -13.5096
H -0.523589 3.85573 -12.596
H -0.216151 3.70915 -14.1931
O 10.7355 -5.52213 -5.43695
H 11.3668 -5.97387 -4.80659
H 10.7926 -5.95794 -6.33516
O -5.24434 12.236 12.9713
H -5.24961 13.1742 13.3173
H -5.30739 11.5975 13.7384
O -1.29078 11.6086 -5.03653
H -1.38421 12.524 -4.64502
H -0.879406 11.6753 -5.94554
O -6.65573 -10.2041 5.67337
H -7.49097 -9.6724 5.81329
H -6.64688 -10.9823 6.30133
O -3.41758 -11.3196 6.33963
H -4.22871 -11.3353 6.92426
H -2.884 -10.496 6.53185
O -9.52761 6.82044 -14.312
H -8.98497 6.02373 -14.046
H -8.91815 7.58917 -14.5059
O 7.65982 9.43967 -13.8993
H 7.4909 9.9145 -14.763
H 7.23143 9.94628 -13.1511
O 0.389873 2.65834 -5.94873
H 1.19518 3.12342 -6.31636
H 0.182247 3.01973 -5.03975
O 5.719 -2.81528 4.95845
H 6.65213 -2.75254 5.31243
H 5.42257 -1.91533 4.63878
O 8.45866 12.3327 -4.65415
H 8.10042 13.2354 -4.41603
H 9.01813 11.9868 -3.90093
O 3.31695 -12.4611 4.60157
H 3.15115 -11.7261 3.94418
H 3.95059 -12.1416 5.30609
O -13.1122 8.10853 -11.8333
H -13.9026 7.85155 -12.3894
H -12.2861 8.08287 -12.3962
O -7.16905 7.08247 7.34147
H -6.75688 6.18154 7.47715
H -7.95296 7.0011 6.72599
O -5.03726 3.0383 9.47555
H -5.01763 3.78675 10.1384
H -4.23227 2.45892 9.60308
O -11.4866 -1.74012 5.99677
H -10.6058 -1.32847 6.23088
H -12.1902 -1.02999 5.97133
O 12.9947 14.8478 6.59018
H 13.5354 14.2094 7.13794
H 12.0239 14.626 6.68149
O -2.49858 -11.4569 3.65669
H -2.89011 -10.7305 3.0919
H -2.93393 -11.4505 4.55691
O -1.52345 -8.09978 9.96801
H -1.85975 -8.72385 9.26274
H -0.805367 -7.51914 9.58439
O 3.36758 6.51286 -7.83861
H 3.49493 7.23668 -7.16049
H 3.5421 6.87828 -8.75293
O -8.84447 -8.43723 -6.27755
H -9.82977 -8.29997 -6.37909
H -8.57145 -8.2135 -5.34194
O -8.04691 -2.07894 -14.5128
H -8.20757 -1.20162 14.8817
H -7.88531 -2.78473 14.6441
O -3.34408 11.8572 5.30163
H -2.35662 11.8366 5.14521
H -3.56591 12.5992 5.93423
O -2.3737 8.0617 12.9596
H -2.23108 7.21115 12.4535
H -2.97345 8.66547 12.4345
O 8.26464 -3.99501 9.77374
H 8.42869 -4.625 10.5328
H 8.95428 -3.271 9.78649
O 3.41524 6.08877 8.86567
H 2.88886 6.49459 9.6128
H 4.39185 6.16251 9.06756
O -11.2312 -4.00597 -8.89166
H -11.4126 -3.05211 -8.65245
H -11.9058 -4.3156 -9.56179
O -12.1518 2.43362 8.09447
H -11.8436 2.9368 8.9018
H -13.086 2.10822 8.24104
O -1.58552 -9.8765 -2.79399
H -1.6899 -8.88506 -2.71572
H -2.21583 -10.3288 -2.16307
O 2.77982 14.3794 12.0208
H 2.12343 13.6888 11.7171
H 2.42611 14.8403 12.8347
O 7.71547 14.8252 -3.89311
H 8.41607 -14.3311 -4.07357
H 7.36205 -14.903 -2.96519
O -1.97609 -4.21268 5.43761
H -2.71106 -4.87634 5.57666
H -2.36045 -3.35781 5.08913
O -12.4579 -5.84156 11.0853
H -11.8092 -6.17202 10.3997
H -13.1725 -6.52687 11.2256
O -7.13182 -1.13664 5.53085
H -6.86264 -1.66934 4.72852
H -7.59183 -0.29917 5.23591
O 3.7085 9.10512 -6.13292
H 3.70366 8.57436 -5.28543
H 2.90383 9.69823 -6.15934
O 13.751 -8.47814 9.48551
H 13.3833 -9.3439 9.82485
H 13.9493 -7.87468 10.2578
O -3.79929 6.0527 4.18756
H -4.4681 6.77937 4.03065
H -3.6866 5.91008 5.17088
O -9.74845 -2.68411 -12.1683
H -9.53425 -2.35193 -13.0868
H -9.34595 -2.06996 -11.4895
O 7.89358 -8.35375 -4.0826
H 8.39642 -9.13445 -4.45358
H 8.46905 -7.86924 -3.42378
O 3.89262 -9.70883 -2.4199
H 3.57579 -9.67415 -3.36772
H 3.25076 -10.2467 -1.87337
O 13.2113 -14.2016 -12.7704
H 13.0903 14.8683 -12.1522
H 12.345 -14.0018 -13.2281
O -7.35323 -14.4977 12.6661
H -7.77714 -13.6294 12.9237
H -7.16168 -14.4968 11.6846
O 5.38527 13.7077 11.1599
H 5.99376 13.8143 11.9463
H 4.4391 13.8545 11.4483
O 3.15704 2.00507 7.55057
H 2.59388 1.18719 7.66839
H 3.82356 2.06074 8.29394
O -11.9226 6.91436 -1.02045
H -10.9515 6.77604 -0.825993
H -12.3121 7.53996 -0.344499
O 12.1715 -6.57569 1.59907
H 12.5251 -5.75722 1.14629
H 12.7846 -7.34563 1.42225
O -13.6117 -7.05915 -8.21656
H -12.9721 -7.57114 -8.78992
H -13.1415 -6.27568 -7.81031
O 2.55213 12.5728 -1.12977
H 1.69981 12.1646 -1.45669
H 2.3548 13.1938 -0.371241
O -3.47482 -5.913 -8.55007
H -3.61592 -6.60874 -7.84579
H -4.30189 -5.35835 -8.64109
O -13.2142 -4.56901 -11.0898
H -13.9479 -4.46562 -10.4183
H -12.9527 -3.6692 -11.439
O -1.18651 0.50874 10.8545
H -1.96104 0.68639 11.4616
H -0.428435 0.128137 11.3841
O -10.2195 -0.513312 -2.04972
H -9.43558 -0.722109 -2.63445
H -10.0354 0.321575 -1.53104
O 3.11014 -14.3841 -7.22678
H 3.25956 14.4764 -7.1561
H 2.49728 -14.0865 -6.49478
O -2.83808 -13.0656 -9.50227
H -2.55769 -13.965 -9.83749
H -2.36631 -12.354 -10.0228
O -6.20046 -6.41632 -14.6319
H -5.99799 -6.29424 -13.6603
H -6.9793 -5.84235 -14.8848
O 10.7351 -3.19557 6.81767
H 11.4021 -3.90989 6.60605
H 10.8042 -2.95093 7.7848
O -8.17308 -9.0814 8.6099
H -8.65509 -9.31999 9.45293
H -8.82849 -9.0202 7.85713
O 5.08465 2.622 9.64169
H 5.61761 1.77649 9.60958
H 5.69687 3.406 9.53926
O 13.623 1.26031 -11.7184
H 14.3028 1.83285 -11.26
H 13.673 0.329351 -11.3568
O 7.17492 6.23056 11.0674
H 7.55384 7.03142 11.531
H 6.9853 5.51491 11.7396
O 2.75898 -2.16063 5.45614
H 3.44167 -2.83207 5.74438
H 2.0153 -2.62628 4.97649
O -0.994843 -11.8772 -4.69346
H -1.14421 -11.12 -4.0576
H -1.71941 -11.8816 -5.38262
O 3.33988 -10.3573 -5.16296
H 4.05257 -9.80906 -5.6005
H 2.56179 -9.77197 -4.93512
O 6.28051 5.03054 13.7063
H 6.67403 4.16497 14.016
H 6.47591 5.74484 14.3783
O 0.488545 -11.2653 2.5127
H -0.47652 -11.0512 2.36185
H 0.736188 -11.0416 3.45536
O 11.9233 -2.25362 -13.9084
H 12.2721 -2.9866 -13.3244
H 11.2745 -2.6331 -14.5679
O 9.97007 9.1521 9.0744
H 8.97595 9.24985 9.02827
H 10.3257 9.71209 9.82268
O 11.341 9.05428 -12.1627
H 10.6423 9.18218 -12.8666
H 12.2261 9.36152 -12.512
O 7.73584 -14.3232 -13.297
H 8.1719 14.624 -13.324
H 6.75066 -14.4342 -13.1663
O 11.6181 3.57032 6.34774
H 11.2231 2.72225 5.99459
H 12.308 3.90846 5.70778
O -9.31856 -7.45713 13.8294
H -9.44761 -7.45453 14.821
H -9.56313 -6.56102 13.4591
O -14.5693 14.7314 -14.3048
H 14.4038 -14.6918 -14.0651
H -13.9103 -14.4043 -14.5501
O 7.87045 5.91746 -8.75299
H 8.86967 5.94527 -8.7804
H 7.56618 4.97092 -8.64603
O 11.621 -8.22484 -6.80059
H 12.215 -7.46591 -7.06729
H 12.0979 -9.09059 -6.95222
O 0.170548 -6.97675 14.5818
H -0.663351 -6.82569 14.051
H 0.163087 -7.90335 -14.8889
O 0.722683 12.6252 11.2557
H 0.619363 11.783 11.7848
H -0.14393 13.1241 11.2507
O -4.20148 -6.56905 4.12862
H -4.48426 -6.93852 5.01376
H -3.67975 -7.26114 3.62985
O 0.651086 5.4149 -2.51398
H 1.06167 5.11195 -3.37398
H 1.22683 5.1251 -1.74946
O -13.1516 13.7472 -5.5058
H -13.0236 14.609 -5.01514
H -13.6898 13.1199 -4.94286
O 10.3714 9.26947 -14.7853
H 10.5589 8.56593 14.376
H 9.39328 9.28017 -14.5775
O 14.8639 -7.3566 11.9645
H 14.6872 -6.37295 11.9985
H 14.1231 -7.84449 12.4262
O -2.06915 8.0327 -13.0642
H -1.8333 8.68984 -13.7801
H -1.50159 8.2 -12.2581
O -4.3191 -8.12021 -3.35018
H -4.52564 -9.08708 -3.20025
H -5.14479 -7.57606 -3.20152
O 12.4228 5.48977 8.22963
H 12.2331 4.86723 7.4704
H 11.5773 5.66958 8.73244
O -13.6122 -4.53071 5.32277
H -13.3102 -5.40178 4.93545
H -13.0496 -4.30691 6.11861
O -9.88522 1.66946 11.7097
H -9.2941 1.32015 10.9827
H -9.89073 1.02428 12.4737
O -0.406021 3.76083 4.27829
H -0.190302 4.56409 4.83345
H -0.342357 3.99865 3.30909
O 5.74533 9.40718 -7.92733
H 5.06985 9.10513 -7.25468
H 5.28334 9.89627 -8.66714
O 1.72178 10.5419 6.05227
H 2.5052 11.1379 6.22845
H 1.99905 9.79788 5.44444
O -4.19509 -12.5437 -13.6306
H -4.79357 -12.0239 -13.021
H -3.82958 -11.9367 -14.3362
O 0.891945 6.39674 -14.6456
H 0.527895 5.6859 -14.0438
H 0.437497 7.26537 -14.4483
O 8.38556 -7.98581 10.3029
H 8.0485 -7.25808 10.9002
H 7.6776 -8.68389 10.1959
O -5.91278 0.518251 8.15351
H -5.74723 -0.138975 7.41825
H -5.11517 1.1128 8.25496
O -5.74374 -3.08779 12.1032
H -5.21256 -2.73243 12.8723
H -5.48613 -2.60246 11.2677
O -12.6634 12.0266 -9.4117
H -12.3822 12.8595 -9.88834
H -13.6464 11.889 -9.53276
O 14.6573 4.17287 -13.1554
H 14.2134 4.82313 -12.5389
H 14.8861 3.33948 -12.6524
O 0.526019 -9.60364 11.4946
H -0.367765 -9.26466 11.201
H 1.03039 -8.86692 11.9449
O 0.205865 -3.9659 -10.7584
H 0.444439 -3.86727 -9.79234
H 0.851285 -3.44399 -11.3161
O 13.5544 -1.80046 8.6931
H 14.3094 -1.23959 9.03275
H 13.3621 -1.55973 7.74178
O 4.23603 -6.11508 11.6531
H 5.01239 -5.62218 12.0459
H 4.52984 -6.59561 10.8268
O -12.502 -13.4027 -11.5217
H -12.1932 -14.2769 -11.8965
H -11.8251 -13.0619 -10.8694
O -14.9021 -14.6546 12.6951
H -14.6404 14.6645 13.5032
H 14.5138 -13.7986 12.981
O -9.52341 7.69736 0.0198973
H -9.1216 7.54129 0.922201
H -9.25089 8.59939 -0.314832
O -1.47261 -5.12573 2.10574
H -1.03758 -5.46721 2.93886
H -1.53423 -5.86477 1.43493
O 11.002 12.8722 1.03168
H 11.2826 13.7915 0.755832
H 10.1642 12.9283 1.57469
O -9.70712 7.55308 10.6791
H -8.81772 7.26477 10.3244
H -9.68014 8.5296 10.8927
O -4.32814 11.1125 0.163799
H -4.547 10.1734 0.428538
H -4.03332 11.6259 0.969706
O -1.11654 -13.6498 4.849
H -1.27831 -12.8068 4.33612
H -1.99241 -14.0785 5.0706
O 3.85064 9.81133 10.7328
H 3.99355 9.02036 10.1379
H 3.67139 10.6208 10.1737
O -0.0527977 7.81381 -7.32722
H -1.05067 7.81787 -7.39193
H 0.223053 7.40836 -6.45574
O 11.0986 1.09284 4.82881
H 10.1048 1.12476 4.72219
H 11.4243 0.16605 4.64187
O -11.8029 13.5585 6.70089
H -11.9044 13.794 5.73435
H -11.6631 14.3927 7.2343
O 7.02404 13.8339 -9.45001
H 7.9693 13.5477 -9.60651
H 6.90849 14.0924 -8.49095
O 6.53188 5.16897 -11.2534
H 6.73433 5.42832 -10.3091
H 6.41468 5.99306 -11.8075
O -1.93395 4.81466 -5.52505
H -2.55285 4.52497 -4.79499
H -1.2265 5.41072 -5.14534
O -12.8055 0.320594 2.42412
H -12.0003 0.911684 2.3758
H -12.5819 -0.578599 2.04807
O -1.92208 13.5725 10.8212
H -1.99007 14.214 11.5853
H -2.8014 13.524 10.3475
O 3.25869 -6.53806 -4.29022
H 2.56088 -7.12725 -4.6975
H 4.16316 -6.82629 -4.60458
O -10.3395 10.7876 -10.3343
H -11.3276 10.9388 -10.3034
H -9.86947 11.6681 -10.3964
O -11.9715 -0.810317 -6.38676
H -11.2256 -1.47294 -6.45358
H -12.6744 -1.03042 -7.06309
O 10.0817 -9.65558 -5.06131
H 10.6645 -8.93381 -5.43463
H 9.81354 -10.2802 -5.79475
O -3.56858 10.0523 11.7386
H -3.65023 9.92477 10.7502
H -3.6727 11.022 11.9593
O -10.892 9.42613 -13.2137
H -10.0873 9.12469 -13.7251
H -10.6314 9.62456 -12.2688
O -4.65182 8.85997 1.76443
H -3.92657 8.96512 2.44481
H -5.53223 9.09395 2.17686
O -13.5944 -7.68986 14.2174
H -13.7051 -8.60584 14.603
H -14.2117 -7.57929 13.4384
O -4.35032 13.7654 -5.74915
H -4.33446 13.4289 -6.69068
H -3.41497 13.9411 -5.44219
O -11.6459 10.8765 0.570608
H -11.2725 10.8207 -0.355335
H -12.057 9.99901 0.8177
O 8.58918 -3.22949 5.12969
H 9.50338 -3.21269 5.53457
H 8.00263 -3.8447 5.65641
O -10.9205 11.4797 3.16197
H -11.361 11.4265 2.26583
H -11.0451 10.6139 3.64659
O -7.81169 -4.4952 13.9456
H -7.31632 -3.80569 13.4172
H -8.7347 -4.59928 13.5752
O 0.601783 2.73114 14.5505
H 0.0238881 1.92121 14.6506
H 0.650115 2.98893 13.5855
O -13.7652 4.64166 6.5159
H -14.5767 4.83599 5.96472
H -13.6233 3.65293 6.56296
O -5.03114 11.0215 -6.98428
H -5.95473 11.3972 -7.06031
H -4.61592 11.3284 -6.1279
O 6.26556 -4.40338 12.7851
H 5.95695 -4.36634 13.7355
H 7.12193 -4.91702 12.7325
O -2.48633 14.3002 -10.1345
H -3.04823 13.4731 -10.1224
H -1.71257 14.1866 -9.51133
O -13.1546 -5.13971 -0.960661
H -13.195 -4.5417 -0.160211
H -12.4326 -5.81962 -0.83261
O -3.12446 1.00019 9.11499
H -2.41498 0.788537 9.78716
H -3.32807 0.182503 8.57658
O -3.49234 -7.19219 6.85812
H -4.32956 -7.36209 7.37788
H -2.78882 -6.82882 7.46884
O 5.02307 -6.63786 -12.8773
H 5.0233 -6.91519 -11.9165
H 4.08149 -6.49811 -13.1836
O -4.60669 5.34704 11.3849
H -3.77899 5.45379 11.9358
H -5.40539 5.59975 11.9309
O 12.5792 3.94837 12.7142
H 13.0067 3.04846 12.6285
H 12.9412 4.5579 12.009
O 9.50849 4.83169 -3.76442
H 8.69415 4.34546 -4.08128
H 10.1935 4.84454 -4.4928
O 10.9239 -2.13551 9.56614
H 11.9166 -2.22823 9.64321
H 10.5749 -1.62432 10.3515
O 14.6781 -7.31769 -1.59033
H -14.7281 -6.42062 -1.55651
H 14.6696 -7.71962 -0.674718
O -0.786398 -9.23282 -6.75301
H -1.018 -8.86522 -7.65367
H -1.55008 -9.77953 -6.4097
O 10.1182 -3.76414 0.583403
H 11.1177 -3.76602 0.555408
H 9.81006 -3.40435 1.46408
O -5.10215 -10.1549 -7.32452
H -6.04734 -10.4098 -7.52853
H -4.76435 -9.53388 -8.03173
O 5.21931 -12.3609 -11.2323
H 4.55149 -13.0865 -11.0664
H 4.98373 -11.8775 -12.0753
O -6.6454 -7.74431 -8.14321
H -7.38251 -8.0067 -7.52049
H -7.02987 -7.26207 -8.93035
O -1.17643 -8.12671 3.26409
H -1.36984 -8.83431 2.58448
H -0.249499 -7.77745 3.12708
O 5.3007 -12.4285 -3.61783
H 4.61538 -11.7927 -3.26268
H 6.11507 -12.3986 -3.03828
O 3.31984 8.35048 -1.44645
H 3.3411 7.37799 -1.21455
H 2.46777 8.75405 -1.11319
O 4.19852 -7.42866 13.9915
H 4.00453 -6.80052 13.238
H 3.62207 -7.19722 14.7752
O -14.1782 -11.97 -2.09449
H -13.6256 -12.5251 -2.71617
H -14.6625 -11.2676 -2.61605
O -6.54968 1.33412 -13.1349
H -6.56252 2.19049 -12.6187
H -5.79675 0.761134 -12.8112
O -8.14693 -11.9695 2.26713
H -8.56555 -11.2223 1.75098
H -8.20567 -12.815 1.73648
O 8.49151 -0.845476 -2.18438
H 8.7308 -0.624118 -3.12974
H 7.61629 -0.420288 -1.95379
O -14.6894 9.26855 -9.89872
H -14.1207 8.7113 -10.5037
H -14.2885 9.28152 -8.98275
O 2.49791 0.128027 -12.7656
H 3.43946 0.433439 -12.6235
H 1.99921 0.171505 -11.8999
O 11.0475 -9.27239 -12.3074
H 11.0599 -8.36096 -11.8962
H 10.1108 -9.50915 -12.565
O 13.1543 4.91281 -3.34813
H 12.8328 5.54548 -4.05264
H 13.7376 5.4033 -2.70073
O -11.0442 8.25754 7.78127
H -11.9292 7.81165 7.91532
H -10.3917 7.91292 8.45614
O -7.47124 -9.04249 -0.856775
H -7.34623 -8.17227 -0.380276
H -6.6364 -9.58755 -0.77982
O -0.889259 -1.69944 -7.62906
H -1.47883 -1.82429 -6.83107
H -0.119475 -2.33563 -7.57755
O -8.09203 11.6971 -4.28758
H -8.91829 12.2258 -4.48174
H -8.34394 10.7563 -4.06088
O 13.0936 -4.30023 0.430118
H 13.3011 -3.4186 0.853954
H 13.0834 -4.1977 -0.564539
O -7.85373 1.33998 9.99075
H -7.57834 2.22873 10.3572
H -7.19775 1.04877 9.29443
O -0.931015 -0.810988 4.68898
H -0.390633 -0.0452699 5.03773
H -0.31785 -1.52924 4.36019
O 8.8451 -7.07985 -10.3422
H 8.3241 -7.38144 -11.1406
H 9.35319 -7.85366 -9.96398
O -3.15923 -2.80668 2.25312
H -3.7647 -2.88985 3.04461
H -2.44954 -3.50954 2.30105
O 4.41853 11.7356 6.96057
H 3.87305 12.5612 7.10477
H 5.34792 11.9923 6.69539
O 14.7 -0.223258 11.2029
H -14.8708 -0.394628 12.1486
H 14.6552 0.762711 11.0422
O 1.37181 13.8272 1.16355
H 1.70969 14.7682 1.14696
H 0.456257 13.8088 1.56528
O -3.95148 1.2758 -3.89651
H -4.02668 2.21578 -4.2293
H -4.01429 1.26952 -2.89852
O -0.74323 0.0569803 -11.9805
H 0.137152 -0.0532829 -12.4417
H -1.34393 -0.705032 -12.2223
O 11.5794 10.7353 11.4622
H 10.9731 11.3993 11.8998
H 12.4161 10.6417 12.0018
O -6.07956 -11.148 13.1924
H -5.2694 -11.2167 12.6102
H -5.95671 -10.4029 13.8479
O -2.3168 -11.6123 -0.541805
H -2.96331 -12.3112 -0.236174
H -1.56338 -12.0477 -1.03446
O 0.0642183 -5.91302 -6.04082
H -0.693892 -5.84785 -5.39199
H 0.58161 -6.75067 -5.86584
O 13.1495 -6.96278 -8.70455
H 12.8265 -6.93715 -9.65056
H 14.0068 -7.47563 -8.65886
O 6.39054 9.6875 3.42515
H 5.58399 10.1635 3.07459
H 6.76902 10.1975 4.19757
O -3.94751 -7.83125 -6.12762
H -4.3315 -8.75441 -6.14457
H -3.87617 -7.51726 -5.18089
O -6.99039 -1.68649 -9.92222
H -6.28529 -1.86341 -9.23557
H -6.64707 -1.94197 -10.826
O 9.24916 -11.6791 -6.85643
H 9.8786 -12.3901 -7.16989
H 8.76455 -11.2933 -7.64143
O 8.06553 -2.56716 -9.87832
H 8.96812 -2.14188 -9.81181
H 8.12077 -3.51648 -9.56897
O 5.34575 -13.177 -6.14478
H 4.48366 -13.6458 -6.3371
H 5.36344 -12.8917 -5.18652
O -9.71114 -4.13962 7.6563
H -10.4455 -4.50924 8.22551
H -10.0481 -4.00277 6.72482
O 10.7062 -9.90349 11.9304
H 10.1856 -9.22826 11.4079
H 11.322 -10.3974 11.3165
O -8.34104 -7.42765 11.4932
H -8.52548 -7.44006 12.4759
H -7.65895 -6.72493 11.2909
O 13.2387 11.1431 1.60002
H 12.2822 11.3987 1.74072
H 13.7577 11.3211 2.43604
O -11.3871 2.83036 -11.7297
H -11.2488 3.7497 -12.098
H -10.6857 2.63717 -11.0435
O 5.51003 -8.73459 -5.84455
H 5.89559 -8.94762 -6.74229
H 6.23189 -8.77481 -5.15371
O -13.6952 1.30768 14.7003
H -13.6826 0.410752 14.2583
H -14.6296 1.52852 -14.867
O -14.8843 -0.391952 -0.427408
H -14.9198 0.00790088 -1.34328
H -13.9769 -0.780799 -0.268418
O 3.83199 -2.14618 -8.77036
H 3.81645 -2.72357 -9.58666
H 4.77663 -1.89858 -8.55516
O 9.38691 -9.51268 2.32734
H 9.57777 -8.53256 2.27338
H 8.58882 -9.66524 2.9102
O 1.69194 -4.84164 -2.88112
H 2.19906 -5.29856 -3.61189
H 2.16213 -4.98348 -2.01005
O -7.23024 12.6706 8.57384
H -7.14014 11.8971 7.9464
H -7.2754 12.3334 9.51418
O 13.9204 1.39159 5.02908
H 14.1163 1.94617 4.22035
H 12.9421 1.43223 5.23215
O 13.5466 1.96355 -14.4318
H 13.407 1.7072 -13.4754
H 13.7905 2.93188 -14.4852
O 0.304458 -2.39311 9.0794
H -0.565643 -2.09002 8.69079
H 0.883485 -1.59822 9.2606
O 3.31649 12.27 -4.98481
H 4.13004 11.6919 -5.04695
H 3.50221 13.0426 -4.3777
O 14.6842 1.98344 2.35684
H -14.3482 1.44208 2.56635
H 14.2775 1.65719 1.50354
O -7.53843 -0.500278 -6.36141
H -6.7596 -0.507062 -5.73424
H -7.37863 0.172223 -7.08402
O 11.4232 11.2469 4.33381
H 10.9702 12.138 4.36155
H 11.2989 10.7824 5.21061
O 9.68463 -7.01576 1.87064
H 8.91385 -6.53762 1.44965
H 10.5422 -6.63323 1.52675
O 1.65421 -8.4696 -8.18239
H 2.20032 -9.30036 -8.07484
H 0.685419 -8.71195 -8.23414
O 1.3041 -8.58241 -4.86362
H 0.746534 -8.51974 -4.03588
H 0.765279 -8.99516 -5.59798
O 1.00902 6.80653 2.84291
H 0.188417 7.34686 2.65687
H 0.885521 5.87988 2.48789
O -1.05516 4.34423 -8.06012
H -0.411137 3.58639 -8.16439
H -1.33297 4.41613 -7.1022
O 2.78635 3.88016 -7.24743
H 2.66278 3.24975 -8.01377
H 2.99487 4.7934 -7.59738
O -14.0388 -9.45655 -5.98301
H -14.6649 -9.52712 -6.75956
H -14.5652 -9.39261 -5.13521
O 6.16385 5.44248 -4.25297
H 6.76825 5.86337 -4.92938
H 5.75767 4.61408 -4.63862
O 13.4998 5.2999 -8.65069
H 14.4682 5.18065 -8.43171
H 13.1449 6.10039 -8.16771
O -8.7566 -12.1732 8.78983
H -9.51865 -12.148 9.43682
H -8.33363 -11.2686 8.73763
O -3.72074 -13.7447 5.36853
H -3.80312 -12.865 5.83675
H -4.10545 -13.67 4.44854
O -3.89941 -9.22741 -9.78367
H -4.50638 -8.46517 -10.0085
H -2.98929 -8.87547 -9.56506
O 7.70515 -7.94718 -12.9337
H 7.79939 -8.76958 -12.3727
H 6.80795 -7.53559 -12.7738
O -4.37715 10.8943 -2.39797
H -4.92086 11.642 -2.77907
H -4.28371 11.0199 -1.41031
O -11.1991 14.117 3.58113
H -11.2031 13.1208 3.6687
H -11.9416 14.4013 2.9747
O 13.9381 5.0007 5.04128
H 13.4241 4.46694 4.3698
H 13.732 5.97207 4.92324
O 1.21726 -5.97822 5.6564
H 1.94802 -6.52913 5.25335
H 1.61569 -5.27866 6.24955
O 3.27739 -10.7622 -8.09492
H 2.9287 -10.862 -7.16302
H 4.24942 -10.9963 -8.11391
O -6.97238 -6.6894 6.2429
H -7.78062 -7.20814 5.96426
H -6.46478 -7.20753 6.93126
O 6.81058 -9.25297 -8.34949
H 7.76666 -8.96749 -8.28326
H 6.76332 -10.2506 -8.39948
O -13.9265 -1.49951 13.4435
H -14.2155 -2.45674 13.4561
H -13.0109 -1.43299 13.0472
O -10.6856 -5.10842 13.1087
H -11.1455 -4.31201 13.5015
H -11.2576 -5.50241 12.3893
O -9.16779 -8.11931 3.0855
H -9.50004 -8.64681 2.30364
H -8.81531 -7.23898 2.76807
O -0.460314 -12.9684 -2.05624
H -0.578905 -13.9549 -1.9441
H -0.578117 -12.7258 -3.01919
O 13.8126 14.1589 -6.04173
H 13.6914 13.6979 -6.92082
H 13.7567 13.4874 -5.30282
O 13.6791 7.46351 13.7274
H 12.7191 7.18584 13.692
H 13.7744 8.38292 13.3459
O -3.30924 -10.2338 14.8208
H -3.05752 -10.0675 -14.0725
H -3.75811 -9.4217 14.4481
O -5.96239 -12.1308 7.6231
H -5.6034 -12.2651 8.5467
H -6.78107 -12.6914 7.4989
O 5.58256 9.95202 -1.9108
H 4.81938 9.50548 -1.44376
H 5.30561 10.2011 -2.83881
O 3.28931 -7.52154 4.68374
H 3.54469 -6.87771 3.96247
H 4.07068 -7.6702 5.28981
O -9.13203 0.0727592 0.968284
H -9.63417 0.898444 1.22533
H -9.72989 -0.529981 0.439857
O -4.67632 -3.186 -5.6082
H -3.78686 -2.81559 -5.87581
H -4.90568 -3.96073 -6.1974
O -6.46669 13.6877 5.64112
H -5.55391 14.0895 5.71396
H -7.05177 14.0563 6.36345
O -14.1299 -12.7555 3.82328
H -13.3062 -12.9231 3.28168
H -14.6687 -12.0301 3.39479
O 7.26696 -5.92189 0.117723
H 6.67392 -6.30476 -0.590572
H 7.38793 -4.94227 -0.0425211
O 13.1308 -4.12103 -2.32594
H 12.8023 -4.96231 -2.75519
H 14.1122 -4.02361 -2.49157
O -10.7667 -4.90581 -3.99902
H -10.939 -5.648 -3.35139
H -10.9892 -4.03049 -3.56971
O -12.3165 -14.1151 -0.502814
H -12.3481 -13.205 -0.9159
H -11.8694 -14.7512 -1.13169
O 13.7163 5.31932 10.6758
H 13.9406 6.16142 11.1662
H 13.1212 5.53319 9.90113
O 0.128688 -6.89595 -11.5066
H 0.0376295 -6.00923 -11.0534
H -0.66394 -7.05201 -12.0959
O 9.31699 8.68172 -5.80351
H 9.79708 8.21173 -5.06284
H 8.35897 8.3953 -5.81428
O 4.88249 8.21142 13.5397
H 4.70362 8.78048 12.7371
H 5.35014 7.37396 13.2569
O 10.2053 6.49779 9.26587
H 9.63149 6.16081 10.0123
H 10.2052 7.49776 9.27068
O -11.4162 -6.39431 -14.191
H -12.2637 -6.85083 -14.4617
H -11.1009 -5.80743 14.9099
O 9.77583 -0.702674 1.96659
H 9.06936 -1.36338 2.22023
H 10.0389 -0.845778 1.01251
O 12.4104 12.139 8.98966
H 13.0818 11.4101 8.85555
H 11.7181 11.8379 9.64544
O -2.04762 9.34669 5.77652
H -2.985 9.13585 6.05372
H -1.72794 10.1554 6.27026
O 2.94882 -13.8419 9.70451
H 2.83847 -14.5367 10.4152
H 2.25641 -13.1303 9.82368
O -13.1646 -2.32287 3.43365
H -13.3684 -3.07888 4.05565
H -12.9446 -1.50451 3.96455
O -10.1446 10.801 6.85231
H -10.617 9.99282 7.20388
H -10.7756 11.5766 6.8393
O -10.4188 12.574 -5.46967
H -10.9058 12.0233 -6.14751
H -10.9918 13.3456 -5.19323
O 11.8243 2.44885 10.0995
H 11.8154 2.80962 9.16693
H 12.7193 2.61626 10.5131
O -2.89286 -10.0135 -12.4244
H -3.49324 -10.0949 -11.6289
H -1.9762 -10.3329 -12.1843
O -8.41666 -5.35517 2.47196
H -8.7971 -4.59086 1.95133
H -7.48642 -5.13059 2.76209
O 0.500172 -12.2824 10.0005
H 0.324524 -11.5958 10.706
H -0.305686 -12.3727 9.41533
O -13.3149 7.92754 10.6084
H -13.5271 7.26629 11.3279
H -12.6896 7.51213 9.94783
O -11.1589 -7.9232 -9.45039
H -10.8287 -8.6092 -10.0987
H -10.3833 -7.40631 -9.0882
O 14.3833 7.45614 -13.3754
H 14.2573 7.33457 -14.3599
H 14.0624 6.63994 -12.895
O 8.40898 0.809958 4.12653
H 8.48436 0.218763 3.32356
H 7.98037 1.67466 3.86473
O 12.814 -4.10203 -11.8058
H 13.5776 -4.18543 -12.446
H 13.1082 -3.58586 -11.0015
O 4.356 -11.8176 1.06292
H 4.01991 -11.4517 1.93074
H 5.13358 -12.4224 1.23499
O -12.5277 -2.73447 10.4678
H -11.7204 -2.23964 10.7892
H -12.5391 -3.65027 10.8692
O -2.38216 -2.13199 -12.9098
H -2.0704 -2.63442 -13.7163
H -2.43652 -2.75491 -12.1295
O 0.505045 5.79583 6.12495
H 1.2508 5.1405 6.24479
H 0.828792 6.71434 6.35186
O -2.45532 -3.96937 -10.9071
H -1.45915 -4.00428 -10.8271
H -2.869 -4.4392 -10.1273
O -3.42571 14.4175 -2.23614
H -2.90191 13.5962 -2.4619
H -4.39435 14.2579 -2.42641
O 13.6006 -12.1281 13.103
H 13.7188 -11.3176 13.6767
H 13.1754 -11.8645 12.2372
O 10.1947 7.52783 -3.23573
H 9.85229 6.59055 -3.30086
H 9.45678 8.13213 -2.93531
O 10.2623 -11.5545 -9.87673
H 10.0492 -11.7067 -10.8418
H 9.75326 -12.2075 -9.31597
O -11.8337 -6.67825 2.90381
H -10.8899 -6.91591 2.67407
H -12.1484 -7.25464 3.65792
O 4.65056 -4.19014 8.46249
H 3.6953 -4.07126 8.19171
H 4.79135 -3.79491 9.3702
O 13.339 5.74649 -11.2854
H 13.418 5.48037 -10.3248
H 12.3792 5.92079 -11.5053
O -0.771841 9.42598 14.7282
H -1.55157 9.11681 14.1838
H 0.0199514 9.55744 14.1318
O 3.39736 -10.1053 3.25994
H 3.19081 -9.4774 4.0103
H 2.97523 -9.76899 2.41812
O -6.618 3.64764 -11.7884
H -6.05029 4.3776 -12.1689
H -7.06389 3.97259 -10.9544
O -1.52632 6.01297 11.2723
H -0.854789 5.47592 11.7828
H -1.22161 6.11446 10.3253
O -5.56355 -0.921989 -4.41825
H -5.03505 -1.72472 -4.69443
H -4.94053 -0.200607 -4.11592
O 5.34949 12.705 -1.04381
H 4.41832 12.7403 -1.40662
H 5.67775 11.7606 -1.05945
O 5.66713 -1.24303 -14.267
H 4.91167 -0.630667 -14.5
H 6.50434 -0.923175 -14.7106
O 13.2977 -1.07091 6.21734
H 13.8729 -0.410286 5.73491
H 13.0234 -1.79701 5.58686
O -13.7344 4.86136 -8.21802
H -12.7833 5.01085 -8.48854
H -13.7605 4.3277 -7.37275
O -2.32672 8.20681 3.28868
H -2.75226 7.31997 3.46864
H -2.12711 8.66284 4.15595
O -8.53086 -11.9992 13.55
H -9.1234 -11.2226 13.7636
H -7.61397 -11.6677 13.3278
O 7.80914 -3.10638 -0.79782
H 8.67089 -3.5011 -0.479144
H 7.98883 -2.22929 -1.24323
O -3.13673 5.65467 -9.20795
H -3.8203 5.76587 -8.48661
H -2.34818 5.15746 -8.84611
O 14.6521 0.5069 -2.92578
H 14.038 1.25087 -3.18907
H -14.4606 0.426085 -3.60014
O 13.8789 -2.02656 1.6592
H 14.7386 -2.30477 2.08746
H 14.0444 -1.24722 1.0549
O 14.8285 0.214968 -7.60313
H 14.6594 1.15867 -7.31886
H 14.0558 -0.358587 -7.33113
O 2.7529 5.08411 13.2116
H 2.49135 5.52931 14.0679
H 3.74977 5.02846 13.1558
O -8.31255 -5.08953 -5.23647
H -8.59335 -4.81217 -6.15527
H -9.08105 -4.98065 -4.60598
O -11.8625 -2.00645 -3.69063
H -11.808 -1.70136 -4.64138
H -11.5294 -1.2811 -3.08823
O -6.04836 13.6569 -2.90882
H -6.93139 13.6517 -2.43957
H -6.18386 13.8912 -3.87148
O 14.9066 -5.79951 -5.25172
H -14.5687 -5.09165 -4.65089
H -14.2022 -6.19018 -5.80217
O -8.04816 -3.80023 -8.2937
H -7.64576 -3.10898 -8.89386
H -7.35365 -4.1328 -7.65572
O 3.51374 7.07696 1.73174
H 2.66243 6.78194 2.16555
H 3.32966 7.85528 1.13149
O 9.87771 -6.26064 -14.1308
H 9.4226 -5.42854 -13.8139
H 9.29179 -7.05055 -13.95
O 2.43321 -13.0222 -12.4487
H 2.78242 -12.6855 -13.3232
H 2.53899 -14.0157 -12.4078
O 3.71964 9.3047 7.83015
H 4.0255 10.225 7.58633
H 3.94325 8.67185 7.08889
O 10.3871 -7.03455 4.70893
H 11.3358 -7.34984 4.68472
H 10.0799 -6.83049 3.77946
O 3.78097 -1.20202 11.2397
H 4.59791 -1.66464 10.8954
H 3.48601 -1.636 12.0909
O 14.4653 10.3015 8.91031
H -14.4176 10.4785 9.10941
H 14.3284 9.32076 8.77081
O 2.3061 6.88855 11.1464
H 2.48152 6.38771 11.9939
H 1.4006 7.3106 11.19
O 11.1704 -13.8151 -14.6059
H 11.3143 -14.7157 14.8308
H 11.0559 -13.134 14.5176
O 10.7127 2.86634 -7.56292
H 9.79838 2.90251 -7.15951
H 10.6857 3.25255 -8.48492
O -13.0093 1.96211 12.125
H -12.9646 1.90941 13.1226
H -12.1094 1.758 11.7398
O 12.3634 -6.54762 -3.66228
H 13.2561 -6.79872 -4.03659
H 12.0712 -7.24092 -3.00355
O -1.04804 1.14875 -7.82704
H -0.825374 0.230041 -8.15317
H -0.406874 1.41093 -7.10584
O 14.0776 12.331 -10.0579
H 14.2653 11.3515 -10.1305
H 14.6102 12.8243 -10.7456
O -2.68442 1.3039 -10.3231
H -2.05065 0.835145 -10.9384
H -2.33475 1.25937 -9.38734
O -10.6593 6.76034 3.50443
H -10.2594 6.7329 2.58831
H -11.1386 5.90141 3.68477
O 3.63191 6.36695 -13.7884
H 3.41154 5.43403 -13.5037
H 2.79191 6.84344 -14.0479
O -8.37475 -1.40139 -4.03498
H -8.30043 -1.1848 -5.00839
H -7.46473 -1.3902 -3.62061
O -10.2054 -12.3973 11.342
H -11.0195 -12.8769 11.6695
H -9.57346 -12.2549 12.1038
O -14.0182 8.79303 3.82254
H -13.2616 8.70472 4.47045
H -14.5368 9.62323 4.02687
O 9.4048 12.6558 -9.50542
H 9.38134 12.1342 -8.65257
H 9.02309 12.102 -10.2454
O -8.96867 -8.08908 -13.2603
H -8.09033 -8.54088 -13.1042
H -9.01166 -7.24845 -12.7204
O 9.3023 11.1834 -7.02935
H 9.2187 10.1915 -6.93415
H 9.10102 11.6205 -6.15278
O -14.4825 13.6905 7.24621
H -13.5017 13.51 7.17225
H -14.6334 14.6732 7.35357
O -6.40887 13.7017 -13.3356
H -7.03457 14.4456 -13.101
H -5.46604 14.0314 -13.2871
O 6.60629 7.53486 1.82199
H 6.28111 6.67642 2.21861
H 6.27403 8.3023 2.37027
O 5.88305 -10.6218 13.1429
H 6.37112 -11.2615 13.7366
H 6.07548 -9.68446 13.4334
O -3.52764 0.503641 -7.0345
H -2.83195 1.15691 -6.73582
H -3.82066 0.73017 -7.96336
O 10.842 -6.11746 9.1069
H 11.1798 -5.92863 10.029
H 10.1841 -6.86975 9.14051
O 14.3297 9.13785 -6.7608
H 14.0287 10.0662 -6.97878
H 13.759 8.47876 -7.25049
O -10.7213 3.94802 14.2816
H -10.6253 4.29045 13.347
H -11.6653 4.07301 14.587
O 14.4966 2.6193 10.8315
H -14.4763 2.43246 11.2803
H 14.4814 3.56707 10.513
O -7.33282 0.433188 13.9872
H -7.07201 0.534323 -14.8995
H -6.82109 1.08878 13.4319
O 13.3979 7.50648 4.46632
H 12.6197 8.08276 4.2168
H 14.1941 7.76669 3.92005
O -5.92839 -14.0125 -10.6605
H -6.15246 -14.3245 -9.73721
H -5.30051 -14.6623 -11.0887
O 12.7392 1.70056 -0.422726
H 13.0826 0.9351 -0.966905
H 11.7564 1.8037 -0.575487
O 3.30231 -9.57256 -13.9867
H 3.48372 -8.99527 -14.7828
H 2.89959 -9.01858 -13.2581
O -10.5649 11.8657 10.2744
H -9.70335 11.859 9.76691
H -11.1479 12.6023 9.93173
O 11.3987 4.96527 -5.7238
H 10.9838 4.6175 -6.56452
H 11.7014 5.90759 -5.86656
O 3.08878 -0.298674 14.5591
H 2.61992 -0.0657811 -14.4356
H 3.43983 0.53517 14.1332
O -1.81366 -7.10914 -3.00196
H -2.75966 -7.3039 -3.26104
H -1.63809 -6.12895 -3.09338
O 8.08852 -6.6157 12.5134
H 9.04776 -6.89815 12.519
H 7.53094 -7.32056 12.9518
O -8.07816 4.48605 -14.279
H -8.94177 4.08964 -14.5904
H -7.58848 3.81896 -13.7176
O 7.24094 -9.97155 3.62979
H 7.07464 -10.8838 4.00403
H 6.61536 -9.31763 4.05523
O 3.91005 14.7066 -3.58637
H 3.88863 -14.2773 -3.08129
H 4.82633 14.3101 -3.53008
O 12.1908 11.0587 14.8808
H 11.3528 10.5309 -14.827
H 12.7195 11.0741 -14.1172
O -9.93433 -6.44772 -1.47642
H -9.52064 -5.61278 -1.11352
H -10.3034 -6.99162 -0.722795
O -10.1744 -1.32224 3.5225
H -9.8841 -0.373414 3.39838
H -10.4065 -1.47691 4.48281
O 6.29824 -0.917336 -8.28772
H 7.08329 -1.36641 -8.71434
H 6.25197 -1.1733 -7.32216
O 6.24884 5.01165 8.90143
H 7.05 4.771 8.35353
H 6.53795 5.53658 9.70195
O -8.77056 -8.23126 -3.1234