2611
Atoms. Timestep: 8000000
O 10.1447 1.52741 -13.7126
H 10.8471 1.62127 -13.007
H 9.76552 0.602465 -13.6845
O 2.58638 -0.717881 8.93152
H 3.03622 0.172454 9.00223
H 1.80073 -0.744415 9.54967
O -8.54756 12.7567 -4.20159
H -8.67271 13.7319 -4.38404
H -8.19827 12.6335 -3.27268
O -0.505573 10.0496 -1.02492
H -1.38496 10.4809 -0.82319
H -0.657839 9.11053 -1.3332
O -11.5066 4.51229 -13.7014
H -12.424 4.18666 -13.4728
H -11.1932 5.1481 -12.996
O -7.53783 9.39554 1.07717
H -8.42944 9.24475 1.50418
H -7.18938 10.2948 1.34169
O -1.6297 12.7446 0.208693
H -0.929801 13.3419 -0.18306
H -2.27247 12.4705 -0.506686
O -4.35155 1.00904 4.05216
H -3.36506 1.01585 4.21602
H -4.53238 1.24278 3.0968
O -7.26566 -13.9628 2.83627
H -6.84394 -13.5735 2.01735
H -6.97313 -13.4449 3.64017
O -0.237349 -9.59503 -2.39686
H -0.17259 -10.4818 -1.93912
H -1.0259 -9.59418 -3.01187
O 7.21639 -13.1237 -11.3903
H 6.80029 -13.6563 -10.6533
H 6.6621 -13.2105 -12.2182
O -1.53448 -3.48453 14.8211
H -0.831984 -2.77693 14.7446
H -1.80489 -3.786 13.9067
O 8.30273 14.3232 9.47421
H 8.17568 14.3753 8.48366
H 9.28027 14.3166 9.685
O -3.44362 -3.44436 2.4714
H -3.95283 -4.14852 1.97652
H -3.82918 -3.33618 3.38775
O 5.8989 12.2024 -0.984021
H 5.50327 12.865 -1.62
H 6.69037 12.6095 -0.528083
O 8.26359 -3.35437 7.2118
H 8.04371 -3.20421 6.24787
H 7.61887 -4.01158 7.60229
O -7.48807 -10.8713 6.96559
H -7.49374 -11.8468 7.18589
H -8.4159 -10.5756 6.73818
O 5.643 1.61348 2.16803
H 5.41742 0.645843 2.28137
H 4.83827 2.10689 1.83786
O 1.36099 2.24729 7.80719
H 2.17946 1.89246 8.25914
H 1.6004 2.57465 6.89309
O 7.37387 13.9381 6.18278
H 6.87244 13.0845 6.32429
H 8.28415 13.7341 5.82244
O 10.3712 -14.1839 -9.3662
H 10.4992 -14.8049 -10.1396
H 10.8444 -13.3221 -9.54893
O -6.01884 0.885328 -3.19883
H -5.35657 1.62775 -3.30015
H -5.62563 0.0371442 -3.55384
O -4.07661 10.1773 2.25291
H -5.04105 10.4257 2.34365
H -3.51761 10.8102 2.78869
O -0.460896 12.6309 -7.75484
H -0.449087 11.7993 -8.31018
H -0.433109 12.3851 -6.7859
O 14.5758 0.442396 -11.4372
H 14.0341 -0.397726 -11.4664
H 14.1835 1.11398 -12.0658
O -12.4889 9.64514 -12.7327
H -12.7188 9.05231 -11.9608
H -12.84 9.24265 -13.5781
O -6.10805 13.4273 12.8191
H -6.88594 13.7783 12.2978
H -5.71942 14.1629 13.374
O 12.0423 2.92494 -5.349
H 12.6764 2.21201 -5.64858
H 11.2325 2.91876 -5.93566
O 1.49941 12.1637 -1.68344
H 0.797367 11.4555 -1.75839
H 1.06435 13.0473 -1.5101
O -2.53786 13.4352 -13.5746
H -1.7757 13.1838 -14.1712
H -2.92525 12.6102 -13.1631
O -4.36236 -5.97151 -9.39708
H -5.03731 -6.11856 -8.67398
H -3.59012 -5.45181 -9.03156
O 0.117602 -3.67409 -0.937604
H 0.408623 -3.33585 -1.83257
H 0.886912 -3.63423 -0.299927
O 7.06013 -0.599478 8.38792
H 6.50076 -0.447313 7.57305
H 8.01683 -0.711796 8.11928
O -10.7701 -3.97232 5.87005
H -9.83492 -4.10845 5.54302
H -11.3377 -4.74591 5.58818
O 13.165 -2.79049 -4.58178
H 12.762 -3.61009 -4.17453
H 12.5222 -2.39313 -5.23675
O 13.3973 13.5522 -2.08278
H 12.4938 13.4438 -1.66814
H 14.0278 12.8843 -1.68732
O -9.00824 -2.21367 -7.36457
H -8.73947 -3.04221 -6.87329
H -10.0043 -2.1844 -7.44879
O 5.65305 -4.51266 -1.55126
H 4.83785 -4.13234 -1.11439
H 6.17097 -3.77716 -1.98813
O -0.740213 0.739672 -13.5205
H -1.54053 0.707309 -14.1193
H -1.02799 0.607222 -12.572
O 3.62245 14.7008 9.4495
H 3.79356 14.4836 8.48846
H 4.37764 -14.738 9.80654
O -0.101473 -9.47064 10.5937
H 0.173375 -9.84222 11.4806
H -0.664975 -8.65643 10.7337
O -2.5789 -7.67338 3.66664
H -2.24117 -6.75653 3.8797
H -2.2001 -8.32841 4.32048
O 4.94336 3.55754 -12.7598
H 5.50771 2.78197 -13.0428
H 4.26209 3.24934 -12.0958
O -5.04521 2.51492 -13.5707
H -5.59871 1.81579 -13.118
H -5.64013 3.24519 -13.9066
O 9.41756 11.5833 1.05689
H 8.52829 11.8915 0.718819
H 9.67367 12.1216 1.85983
O 6.72839 0.420483 10.8875
H 6.43733 -0.345266 11.4611
H 6.77359 0.124034 9.93354
O 13.3672 1.70252 13.9289
H 13.7933 2.59226 13.7651
H 12.5301 1.62896 13.3867
O 12.5486 8.69924 13.5658
H 12.5884 9.69717 13.617
H 13.4438 8.31775 13.7966
O -14.9399 -5.59572 -6.34045
H -14.7805 -6.31261 -7.01923
H 14.6676 -4.78854 -6.79133
O -9.43718 -2.47692 13.7197
H -8.9163 -1.70331 14.0806
H -9.0797 -3.32797 14.1044
O -8.37753 10.8919 -6.30485
H -9.0901 10.1958 -6.39275
H -8.39126 11.2678 -5.37827
O -1.53935 9.28477 7.81318
H -2.03973 8.95469 7.01273
H -2.13576 9.2536 8.61529
O 13.1761 -8.59529 8.92057
H 12.8684 -8.73515 7.9794
H 13.7661 -7.78896 8.962
O 9.93447 4.88861 -0.198916
H 10.8572 4.50525 -0.15808
H 9.30667 4.207 -0.574834
O 5.09817 1.10636 -9.40993
H 5.91199 0.528392 -9.3491
H 5.347 2.05436 -9.21134
O 4.85873 4.15473 -7.79697
H 4.53776 3.71831 -6.95639
H 5.73725 4.60099 -7.62635
O 9.96821 1.32496 1.44567
H 10.9376 1.08958 1.37507
H 9.87673 2.27186 1.754
O -7.85105 0.21001 8.76758
H -6.879 0.17452 8.99979
H -8.05601 1.0822 8.32336
O -0.469357 12.0573 6.69378
H 0.0124395 11.6419 5.92219
H -1.19642 11.4438 7.00209
O 2.39075 -9.77508 -3.96905
H 2.3536 -10.0777 -3.01662
H 1.48849 -9.44822 -4.25038
O -4.58965 1.27813 1.39193
H -4.89331 2.12204 0.949595
H -4.90009 0.491601 0.858022
O 5.17442 -7.87085 14.5127
H 5.06045 -7.88215 -14.4824
H 4.28003 -7.77533 14.0756
O -11.0773 -9.72924 -1.15825
H -11.2079 -8.84271 -1.60216
H -11.8488 -9.9141 -0.549524
O -13.329 2.71784 2.347
H -13.4693 1.74104 2.1851
H -12.6586 3.07095 1.69432
O -5.99667 -8.36856 3.56888
H -5.01711 -8.5248 3.69581
H -6.34465 -7.80693 4.31958
O -7.96974 -4.65953 -12.2389
H -7.83382 -4.53134 -13.2214
H -7.945 -5.63578 -12.0236
O 4.83329 4.84966 14.6024
H 4.84483 4.46568 -14.4629
H 5.60794 4.49006 14.0821
O -0.840046 -12.1124 -10.112
H -1.2405 -12.0501 -9.19782
H -1.29587 -12.8385 -10.6269
O 14.8401 4.28154 13.6087
H -14.8948 5.0598 14.1832
H -14.3238 3.87484 13.2155
O -9.43167 8.41685 13.5112
H -9.05913 8.26765 14.4272
H -9.28123 9.36786 13.241
O -14.828 -6.2418 -1.509
H -14.0784 -5.98089 -2.11738
H 14.2931 -6.17826 -2.00257
O -12.442 12.4562 -13.8188
H -11.7721 12.1387 -14.4899
H -12.943 11.6725 -13.4514
O -9.28639 9.02097 -1.0698
H -8.60417 9.22434 -0.36747
H -10.1633 9.42529 -0.809703
O -2.84849 4.3951 13.3688
H -2.99786 3.50221 12.944
H -1.96287 4.39927 13.8332
O -2.33376 -12.3183 -6.25284
H -2.59472 -11.8136 -7.07583
H -2.93886 -13.1063 -6.13911
O -1.30473 7.36428 -11.2789
H -1.63934 7.23664 -10.3452
H -1.03407 6.48012 -11.6597
O 3.56942 -6.60252 0.0638713
H 3.54444 -5.66237 0.403801
H 2.67433 -7.02852 0.195712
O -0.191134 -1.49355 -5.0807
H 0.521943 -1.05261 -4.53559
H -0.672176 -2.16642 -4.51864
O 2.86242 4.61807 6.0217
H 2.63797 4.72208 6.99065
H 2.93349 5.52075 5.59725
O -4.22737 -5.52717 -0.8681
H -4.62942 -5.45478 0.0446848
H -4.85715 -6.0159 -1.47191
O -7.96832 -5.11768 -0.302151
H -7.96191 -5.14525 -1.30178
H -7.68525 -6.00677 0.0576452
O -12.2141 7.33138 -6.03586
H -12.4594 6.41587 -5.71688
H -12.9766 7.95709 -5.87124
O 8.212 -13.0784 -7.74782
H 7.31282 -13.1092 -8.18439
H 8.8271 -13.7201 -8.20589
O 12.2998 -11.9908 1.15906
H 11.5099 -11.7243 1.71141
H 12.2687 -11.5136 0.280761
O 14.8198 7.81032 2.8165
H 14.2048 8.54385 3.10581
H 14.9663 7.1785 3.57768
O 7.92246 -9.04126 2.50033
H 7.68086 -8.08759 2.67977
H 7.10563 -9.5447 2.21856
O -5.56555 -7.3652 -2.70344
H -5.38871 -8.25371 -3.12691
H -6.3188 -6.91251 -3.18067
O -5.39128 11.1707 10.4263
H -5.19732 11.9548 9.83666
H -4.87638 11.2594 11.2789
O 6.00628 5.82905 -9.85566
H 6.40697 5.39232 -10.6611
H 5.37917 5.19149 -9.40811
O -4.99906 -14.1577 11.1269
H -4.29014 -14.8244 11.3571
H -5.88791 -14.6147 11.0927
O 4.59061 -5.48402 -11.1534
H 4.32471 -6.13634 -11.8632
H 5.58805 -5.42639 -11.1104
O -2.60302 -0.545902 -6.97718
H -1.67922 -0.851661 -6.7466
H -3.03733 -1.21921 -7.57558
O -12.6002 -12.3303 5.52482
H -11.9113 -11.7974 5.03345
H -12.8895 -11.8295 6.34062
O 6.55547 12.9907 11.4648
H 6.48465 12.0683 11.0851
H 6.97423 13.5979 10.7895
O -5.72928 -10.4707 -9.76445
H -6.0606 -10.4277 -8.82188
H -6.38415 -10.9775 -10.3251
O -11.0815 -7.74844 -11.9359
H -11.4413 -6.93421 -12.3916
H -10.1123 -7.85417 -12.1584
O 5.32691 7.52303 -12.8013
H 5.98508 8.10566 -12.3245
H 5.75389 7.13847 -13.6198
O -14.728 -12.284 7.41214
H -14.4483 -11.3284 7.50536
H -14.2745 -12.834 8.11357
O -13.2447 -14.4726 2.24475
H -12.304 -14.266 2.51411
H -13.8492 -14.3621 3.03367
O 1.74632 -3.59832 13.9206
H 1.3541 -2.75793 14.2947
H 2.31916 -4.03611 14.6136
O -6.48803 0.944912 -9.72606
H -7.33688 1.47062 -9.78204
H -6.519 0.346063 -8.92576
O -14.9736 5.95055 8.11929
H 14.2786 5.32713 8.3822
H 14.6863 6.57451 7.41029
O 2.52671 -13.8232 -3.82152
H 2.58259 -13.2204 -3.02554
H 2.27647 -14.7448 -3.5248
O -8.28474 -1.45596 -10.543
H -8.50361 -1.01003 -9.67507
H -7.76379 -2.29115 -10.3666
O -7.58525 -11.9149 -10.871
H -7.81681 -12.8756 -10.7177
H -7.90424 -11.6356 -11.7767
O -4.56187 13.3051 -5.38752
H -4.75784 12.3315 -5.27027
H -4.92659 13.8147 -4.60821
O -2.23134 2.64843 9.19148
H -1.83257 3.16938 9.94623
H -2.65574 3.27732 8.53999
O -13.1359 9.8456 12.7132
H -12.7505 9.20417 12.0497
H -13.9565 9.44784 13.1235
O 12.9045 -1.62462 -2.12392
H 12.6926 -0.688096 -2.40336
H 13.0712 -2.18491 -2.93529
O -13.2459 3.00738 5.06013
H -13.1683 3.02384 4.06326
H -13.203 2.06161 5.38223
O -7.34853 2.37212 -0.979005
H -7.1851 1.76619 -1.75759
H -6.51986 2.89752 -0.785819
O 9.90546 -0.849047 -2.74426
H 10.5492 -0.103887 -2.91847
H 10.3348 -1.72172 -2.97696
O 12.2406 14.5954 6.12923
H 11.987 -14.4737 5.82868
H 12.6483 14.0955 5.36508
O 8.8168 0.254699 -6.64733
H 8.24121 0.519598 -5.87365
H 8.26119 0.214783 -7.47785
O 13.933 -4.29555 0.309361
H 13.7085 -5.04014 0.938042
H 14.3103 -4.67495 -0.535446
O 14.4535 7.54994 5.97257
H 13.4667 7.59473 6.12861
H 14.7879 8.44984 5.6925
O 4.30803 8.42144 -6.33453
H 4.47598 8.30422 -7.31336
H 4.79919 7.71484 -5.82509
O -2.73753 11.1652 -11.4798
H -3.67884 11.4365 -11.2789
H -2.59712 10.2157 -11.1991
O 5.28818 -12.3121 1.03073
H 4.46615 -12.7685 1.37138
H 5.02729 -11.5904 0.389603
O -12.1405 -11.1638 -5.0416
H -12.6055 -10.6373 -4.32986
H -12.546 -10.9528 -5.93101
O 13.1945 6.70591 0.382035
H 13.5494 6.00306 0.998532
H 13.1943 7.59001 0.849401
O -14.1449 -2.6324 6.37093
H -14.8085 -2.79599 7.10092
H -13.2513 -2.43076 6.7719
O -11.4208 -14.9504 5.58103
H -10.7048 -14.8133 4.89643
H -11.9973 -14.1347 5.62837
O 8.63101 3.63107 -14.683
H 9.3317 4.17365 14.8422
H 9.05323 2.82398 -14.2703
O 13.8038 1.8946 3.81768
H 14.116 2.61155 3.19433
H 14.1605 2.07193 4.73498
O 14.3313 9.53667 -8.3389
H 14.2775 8.90427 -7.56609
H 13.6481 10.2583 -8.22727
O -12.8528 -10.2826 -7.64115
H -13.4455 -10.7552 -8.29333
H -13.0949 -9.31271 -7.61293
O -6.49299 14.9281 -0.793661
H -7.38062 14.4783 -0.694286
H -5.99955 14.8873 0.075198
O -6.07862 -2.03985 -1.22112
H -7.05342 -2.18962 -1.05565
H -5.62542 -1.81177 -0.359351
O -3.98008 5.23891 1.60207
H -4.78928 5.81138 1.73446
H -3.21936 5.80529 1.28494
O 12.8612 -12.4882 5.6637
H 12.5312 -11.5639 5.47213
H 13.3436 -12.4951 6.53961
O -4.99141 -2.78913 4.56054
H -5.19521 -1.86881 4.89452
H -5.83545 -3.22464 4.24753
O -7.35455 0.911969 3.28105
H -7.34258 0.126187 2.66262
H -6.42501 1.10122 3.59758
O -1.29339 0.475215 7.70812
H -1.70233 1.23342 8.21602
H -0.35366 0.709392 7.45887
O -10.5619 6.18824 -8.63922
H -11.2315 6.79487 -8.21072
H -10.2714 5.49415 -7.9805
O -2.98842 -10.7178 -8.39325
H -3.15385 -9.84946 -7.92567
H -3.6561 -10.8328 -9.12881
O 14.5521 14.9454 -5.9709
H 14.7702 13.972 -5.90078
H 14.3201 -14.6875 -5.06551
O -14.9535 8.03212 14.627
H -13.9633 8.01876 14.7659
H 14.6116 7.31211 -14.8118
O -9.38204 5.79227 1.97149
H -9.1365 4.82705 1.88147
H -8.65321 6.35888 1.58703
O 10.8269 -3.57906 -3.14012
H 10.8359 -4.40119 -2.57083
H 11.5466 -2.95497 -2.83585
O 1.52512 3.17635 -7.66191
H 1.15413 2.65636 -8.43135
H 1.72391 4.11116 -7.9563
O 3.54473 1.13308 -0.985401
H 2.67141 1.3103 -1.43925
H 4.08053 0.490305 -1.53295
O 7.92626 -5.95354 1.20109
H 7.81037 -5.68423 2.15717
H 8.30733 -5.1878 0.682935
O -12.8986 3.38285 12.1947
H -11.9303 3.1843 12.0432
H -13.4567 2.74574 11.663
O -8.97485 -9.48298 13.8258
H -8.57029 -10.3968 13.861
H -9.92249 -9.54976 13.5134
O -6.36071 -3.61783 -10.1611
H -6.55476 -4.16019 -10.9786
H -6.70392 -4.09758 -9.35357
O -13.5683 8.12012 0.698146
H -12.9832 7.30915 0.696206
H -14.0699 8.16715 1.56199
O -14.3397 5.80364 -11.0755
H 14.7196 6.07422 -10.8237
H -13.7002 6.52808 -10.8179
O -5.04168 3.43946 5.51482
H -4.68854 2.77543 4.85572
H -5.19717 2.98708 6.39302
O -9.7403 -12.181 -0.970131
H -10.136 -12.9399 -1.4874
H -10.245 -11.3414 -1.17129
O 11.4502 -11.2357 12.0112
H 11.1306 -12.1665 11.8339
H 10.8345 -10.5822 11.5707
O -7.49568 -5.05498 -3.40708
H -6.70601 -4.45038 -3.51158
H -8.30097 -4.51297 -3.16669
O 11.6809 -6.10626 10.0059
H 11.6784 -6.50802 10.9216
H 11.3241 -5.1731 10.0503
O 6.84928 3.26674 -3.68556
H 5.98126 3.75718 -3.60771
H 7.25479 3.16065 -2.77762
O -1.95095 -4.49614 -8.05145
H -2.7465 -4.75193 -7.50216
H -1.1225 -4.86559 -7.63047
O 6.40436 -11.9522 6.46226
H 5.70067 -11.6562 7.1082
H 6.74683 -11.1604 5.95644
O 7.75272 3.08753 -1.20993
H 7.96416 2.11568 -1.10577
H 7.03002 3.34216 -0.567333
O 13.8209 -13.8197 -8.44602
H 14.3526 -14.3957 -7.82516
H 12.9014 -13.6898 -8.07492
O -8.2095 -8.36728 9.06545
H -7.51541 -7.70111 8.79248
H -8.5236 -8.87033 8.26026
O -7.58038 -4.25029 -14.8085
H -7.47203 -5.17418 14.813
H -7.0089 -3.61572 14.6597
O -11.1514 -7.41346 6.42308
H -11.7688 -7.28402 5.64713
H -11.561 -7.01705 7.24473
O 0.606377 1.70821 -9.67768
H -0.151678 1.47628 -10.2873
H 1.23514 0.93289 -9.61778
O -3.27395 13.3076 9.19912
H -2.56237 12.6234 9.35898
H -3.63559 13.2022 8.27274
O 12.5753 3.30167 -9.04148
H 13.5367 3.56952 -9.10446
H 12.0998 3.91269 -8.40851
O 11.1834 -2.67215 1.06197
H 11.1482 -3.55425 0.592177
H 12.0917 -2.26962 0.947516
O -3.15091 -8.88866 6.53483
H -3.7862 -9.18415 7.24838
H -3.16663 -9.5461 5.78144
O -8.60009 -7.64499 -12.5802
H -8.34471 -8.05785 -13.4545
H -7.7782 -7.31975 -12.1125
O -14.4222 1.61669 -8.92896
H -14.7664 2.55529 -8.95349
H -14.8667 1.07978 -9.64602
O -12.0832 0.891061 9.68064
H -11.3691 0.205518 9.82231
H -11.664 1.79353 9.58147
O -1.6309 -12.7681 12.6344
H -2.02378 -13.6158 12.2779
H -2.24812 -12.0062 12.4379
O 1.14552 13.6046 14.0889
H 1.86821 13.1169 14.5787
H 1.19658 14.5799 14.3042
O -13.24 -6.65046 12.5216
H -12.6753 -5.87689 12.8092
H -12.9253 -7.4816 12.98
O 4.60191 13.0798 -3.35546
H 4.82801 12.1187 -3.51427
H 3.63915 13.2366 -3.57588
O -9.6997 -11.8545 -7.58489
H -9.50912 -12.7541 -7.97803
H -10.6038 -11.5462 -7.88078
O -2.30079 -8.44581 -6.75604
H -2.69756 -7.53114 -6.67851
H -1.38909 -8.44959 -6.34513
O -9.24012 -11.6633 9.52585
H -8.95765 -12.3794 8.8875
H -8.44449 -11.1166 9.78673
O 8.97232 8.38097 -13.8404
H 8.47999 7.54243 -14.0739
H 8.65101 8.72102 -12.9566
O -6.20607 -7.10563 -11.0591
H -5.71728 -7.89539 -11.4298
H -5.56422 -6.51712 -10.5674
O 11.7593 -7.78141 2.86908
H 11.5207 -8.72739 3.08867
H 11.3006 -7.50973 2.023
O -10.3169 0.683407 6.92367
H -10.2575 -0.100459 7.5418
H -11.2536 1.03344 6.91822
O 5.37109 11.4568 3.09005
H 4.46208 11.8569 3.207
H 6.01412 12.1678 2.80543
O 11.4755 13.545 10.6405
H 12.1353 13.3179 11.3569
H 11.9138 13.4626 9.74547
O -2.4105 -13.7697 -12.5842
H -2.83305 -13.9168 -11.6898
H -1.88901 -14.5824 -12.8441
O -11.5366 -4.71972 -10.2592
H -11.3409 -5.25809 -11.0789
H -12.0244 -3.88562 -10.5168
O 14.8595 13.801 -14.6959
H -14.6653 12.9163 -14.648
H -14.9822 14.3009 -13.8423
O -4.10804 4.7356 -2.64037
H -4.08996 5.6383 -3.07033
H -3.97219 4.03158 -3.33748
O 12.34 5.60319 8.76515
H 12.264 6.21435 7.97726
H 11.9647 6.0547 9.57465
O 14.7365 -6.37139 8.49378
H -14.2683 -6.54308 8.44116
H 14.5657 -5.59417 9.09944
O -12.4826 14.3305 12.6851
H -12.4674 14.6788 13.6224
H -12.1617 -14.9467 12.0599
O -12.2216 7.71385 14.7534
H -11.3122 7.82791 14.3533
H -12.733 7.03233 14.2299
O 2.16743 -11.7889 11.7033
H 1.97367 -12.7609 11.8361
H 1.67438 -11.2539 12.3894
O -14.4523 -1.45542 9.55628
H 14.869 -1.7406 8.86812
H -13.983 -0.629653 9.2434
O -11.8872 -1.37244 2.98781
H -11.4071 -0.993724 3.77907
H -11.2251 -1.7858 2.36263
O -2.6854 2.19427 -6.77609
H -2.5532 1.21477 -6.92823
H -3.12437 2.59987 -7.57788
O 4.71444 -7.26511 -7.76904
H 4.34415 -7.89978 -7.09071
H 4.68691 -7.69062 -8.6736
O 2.24676 3.19394 -11.5505
H 1.78985 2.58969 -10.8977
H 1.91617 2.99812 -12.4738
O 2.03676 13.6541 -11.8732
H 2.28891 14.0714 -12.7463
H 1.66688 14.3549 -11.2633
O -2.35444 -7.27223 -13.7549
H -2.61743 -7.67558 -12.8784
H -1.97016 -6.36191 -13.601
O -10.8483 9.73649 -6.20964
H -11.0673 10.2459 -5.37743
H -11.2347 8.81614 -6.14844
O 5.21653 -8.76786 0.957418
H 4.73112 -9.04274 1.7874
H 4.8394 -7.90491 0.621039
O 11.7685 -10.5618 -0.995098
H 10.8791 -10.9655 -0.780822
H 12.1268 -10.9709 -1.83436
O 0.911612 -14.1211 11.7566
H 0.928024 14.9192 11.4396
H -0.0324398 -13.8475 11.941
O 9.3822 7.24682 -4.99445
H 10.1445 6.62119 -4.82854
H 9.14996 7.72175 -4.14559
O -11.301 -10.6419 3.65517
H -11.9936 -9.92087 3.67835
H -10.5207 -10.3371 3.10895
O 3.94814 -9.1838 3.4509
H 3.07885 -9.65761 3.592
H 4.35543 -8.96357 4.33728
O -11.8478 13.2994 0.595277
H -12.6295 12.707 0.790562
H -12.1738 14.2167 0.366536
O 7.26548 -9.55949 5.51373
H 6.51147 -8.99901 5.85634
H 7.96894 -8.96745 5.12044
O -14.991 4.30016 -8.88451
H -14.5774 4.78065 -9.6579
H -14.9711 4.88943 -8.07678
O 4.90653 -12.6618 -13.1972
H 4.37389 -12.1143 -13.8427
H 4.46473 -12.6431 -12.3003
O 3.70368 1.7703 9.21979
H 3.91706 2.18517 10.1043
H 4.45149 1.94685 8.57974
O 0.181483 -13.4202 -5.90094
H -0.72335 -12.9943 -5.90215
H 0.472566 -13.5818 -4.95796
O 11.7368 -6.9734 12.5185
H 12.5629 -6.91128 13.0786
H 10.9314 -6.97427 13.1112
O 3.33437 -11.6859 14.7991
H 2.4182 -11.4474 14.477
H 3.89973 -11.9618 14.0218
O 6.20145 -11.2543 10.5056
H 7.19493 -11.212 10.3995
H 5.91589 -10.6213 11.2253
O -5.15938 3.7613 -0.341492
H -4.74018 4.0905 -1.18764
H -4.71295 4.19382 0.44189
O -10.5532 6.10017 -11.6852
H -10.3659 5.92847 -10.718
H -10.2784 7.03326 -11.9174
O 2.89868 -2.79503 -3.48041
H 3.66595 -2.21984 -3.19667
H 3.24657 -3.60961 -3.94462
O -13.7022 -1.98392 -7.83498
H -12.8058 -1.56787 -7.98847
H -13.9998 -1.79838 -6.89848
O 11.2518 5.15693 -7.47848
H 10.7768 5.065 -6.60331
H 11.1556 6.0944 -7.81309
O 0.202356 -9.07457 -10.549
H -0.147882 -10.0096 -10.6041
H -0.563913 -8.43421 -10.4957
O 8.59909 0.622919 -0.605228
H 8.96987 0.902998 0.280283
H 9.16036 -0.113039 -0.983901
O 10.4934 0.146626 -10.3223
H 10.3057 1.02082 -10.7702
H 11.372 0.197378 -9.84733
O -14.1695 13.8315 9.15991
H -14.0057 13.2749 9.97445
H 14.8878 13.6748 8.83093
O 6.10508 6.97338 12.8974
H 5.90445 6.38141 12.1168
H 5.32113 7.5684 13.0747
O 8.56393 6.64454 12.2538
H 7.66623 6.96238 12.559
H 9.01485 6.1535 12.9991
O 0.357664 -6.85863 -12.9192
H -0.0717083 -7.38588 -12.1859
H 0.827951 -6.06695 -12.5291
O 7.91622 -0.0711609 -9.35676
H 7.47419 -0.917459 -9.65415
H 8.82956 -0.0127026 -9.75982
O 0.88959 9.61206 -11.6833
H 0.392414 8.78529 -11.9466
H 0.420893 10.4146 -12.0524
O -11.1349 -13.4044 -3.39035
H -11.3024 -12.7028 -4.08292
H -11.8763 -13.3942 -2.71934
O 7.46056 11.5706 8.55961
H 7.77323 12.4585 8.89728
H 7.68521 10.8617 9.22827
O 10.4382 1.82227 8.03518
H 9.82222 1.78694 7.24814
H 10.2289 2.63017 8.58617
O -10.8636 10.585 -3.331
H -10.9993 10.2877 -2.38588
H -9.90354 10.4649 -3.58365
O -10.5487 -7.51936 2.42729
H -11.5453 -7.50547 2.34642
H -10.2001 -8.39836 2.10188
O 7.679 9.54669 10.5939
H 7.32347 8.84794 9.97311
H 7.73986 9.1711 11.5187
O 4.9654 -4.46267 -7.78968
H 4.15362 -3.95285 -8.07457
H 4.82045 -5.43856 -7.95299
O -11.1136 11.9725 13.5194
H -11.6028 12.787 13.2074
H -11.6419 11.1563 13.2855
O -8.73662 13.4462 0.284566
H -8.50753 12.6657 -0.297152
H -9.7282 13.5757 0.293429
O 12.81 6.37816 -10.3855
H 12.0129 6.00207 -10.8581
H 12.5219 6.78667 -9.51937
O 6.86443 -3.36596 -5.23756
H 6.63522 -2.84026 -6.05681
H 6.14786 -3.24255 -4.55101
O 12.5019 -8.32583 -4.83964
H 11.761 -8.22038 -4.1763
H 12.1381 -8.22109 -5.76521
O 4.95651 7.87532 6.47523
H 5.40605 8.37577 5.73529
H 3.9739 8.05989 6.45359
O 7.89675 13.6584 -0.109984
H 8.2277 14.371 -0.728638
H 7.51361 14.0815 0.71116
O 11.6672 9.73485 -2.07275
H 11.9347 10.3983 -2.77159
H 10.8353 9.26191 -2.36319
O -4.69362 -2.28118 -13.4725
H -5.35676 -1.86041 -12.8535
H -4.50176 -3.21507 -13.1707
O -6.32279 6.90304 1.56775
H -6.74124 6.51074 0.748572
H -6.4575 7.89395 1.56894
O -0.712777 3.55027 4.84824
H -0.828411 4.34709 5.44133
H -1.34412 3.61553 4.07545
O 11.3196 -1.62556 -6.30177
H 12.0488 -1.67695 -6.98421
H 10.6315 -0.963308 -6.5984
O -2.10355 6.35168 -5.53768
H -1.61696 6.50358 -4.67733
H -2.63849 5.50918 -5.47382
O 0.212746 -8.5195 -5.4496
H 0.518534 -7.57495 -5.3297
H 0.761798 -8.95999 -6.15993
O -11.3273 -1.69393 -0.442487
H -10.4134 -2.07771 -0.309434
H -12.0096 -2.31819 -0.0619988
O -12.2075 13.2957 -11.2575
H -12.282 12.9529 -12.1939
H -13.1164 13.538 -10.918
O -0.072812 14.4173 8.20577
H 0.45242 14.2333 9.03663
H -0.143805 13.5798 7.664
O 2.37766 -12.9215 9.11594
H 2.61588 -12.3139 9.8737
H 2.59073 -13.8659 9.36629
O -6.27954 9.68757 6.78935
H -6.18961 10.5933 7.20359
H -7.22 9.55638 6.47568
O -1.00887 -6.40062 11.5795
H -0.687183 -6.6222 12.5
H -1.90536 -5.96116 11.6364
O -6.11027 -12.3475 4.70031
H -5.67899 -11.6441 4.13523
H -6.79141 -11.9239 5.29755
O -7.71668 -1.93657 6.36037
H -6.87166 -1.44358 6.15314
H -7.54745 -2.59419 7.09451
O 12.905 -10.8441 14.4911
H 12.429 -11.0564 13.6377
H 12.3327 -10.246 -14.9364
O -12.751 -5.45367 -4.20616
H -13.4604 -5.60333 -4.89488
H -12.4799 -4.49111 -4.21063
O -5.51809 -3.02261 -3.71447
H -5.4526 -2.32021 -4.42327
H -5.40991 -2.59945 -2.81486
O -3.82083 8.42645 -10.265
H -3.63913 7.64242 -9.67146
H -4.39858 8.13925 -11.0291
O 10.528 -7.40962 -3.31744
H 9.83549 -7.21568 -4.01235
H 10.118 -7.33499 -2.40837
O 5.27847 -9.39826 -9.95859
H 5.91503 -9.21837 -10.7086
H 4.37463 -9.60804 -10.3316
O -5.06235 13.1097 3.69804
H -4.13481 13.0791 4.07058
H -5.71318 12.8203 4.40001
O 5.87814 -14.141 10.1536
H 6.80065 -14.459 9.93463
H 5.90809 -13.1705 10.3927
O -3.2621 -6.18232 9.28727
H -2.46552 -6.49988 8.7728
H -3.19586 -5.19446 9.42799
O 0.0838315 -6.50853 14.2554
H 0.461822 -5.63042 13.962
H 0.152486 -6.58528 -14.7384
O -10.2074 1.21443 -6.75135
H -10.1539 2.21295 -6.76405
H -9.64876 0.86021 -6.00136
O 0.540161 -2.54114 -7.65002
H 0.22264 -2.17089 -6.77701
H 0.682394 -3.52708 -7.56195
O -7.02183 7.68655 -11.6285
H -6.44904 7.65108 -12.4474
H -7.24373 8.63863 -11.4179
O -10.9166 -8.65896 -9.49721
H -10.4574 -9.52264 -9.70528
H -11.3229 -8.28787 -10.3322
O 7.41812 11.1895 -10.207
H 6.53786 11.1408 -9.73493
H 7.75355 12.1315 -10.1904
O 8.97108 5.17697 -11.2354
H 8.86582 4.24464 -10.8894
H 8.89429 5.82455 -10.4773
O 10.0851 11.8728 -5.41589
H 10.1836 12.3188 -6.30553
H 9.35028 12.3145 -4.90116
O -4.26483 -8.0354 11.5047
H -5.25975 -8.12551 11.5501
H -4.01555 -7.49257 10.7027
O 3.61782 -9.94821 -6.31451
H 2.77332 -9.94629 -6.85013
H 3.4019 -10.1145 -5.35234
O 14.9918 -13.4688 4.10511
H 14.0952 -13.2435 4.48652
H -14.2804 -13.132 4.71625
O -5.95559 14.6949 -9.08491
H -5.54955 -14.9108 -8.25512
H -6.94755 14.8188 -9.05843
O -2.32936 10.1919 -4.42578
H -3.29006 10.3383 -4.18984
H -2.26934 9.75662 -5.3241
O 6.40016 2.65028 8.75906
H 6.76688 2.13392 9.53297
H 7.12982 2.82186 8.09708
O 0.316134 14.4729 5.31417
H 0.0957025 13.5777 5.70163
H 0.267319 -14.8207 6.03162
O 2.41758 8.71614 10.8356
H 3.19382 8.57694 11.4506
H 1.96798 9.58153 11.057
O 2.275 5.93996 14.4816
H 3.26332 5.79029 14.5112
H 2.05668 6.81211 14.9194
O 1.6248 2.54582 4.88963
H 0.645307 2.74518 4.85962
H 2.13417 3.39626 5.02137
O 4.35276 -4.86164 -4.45015
H 4.92725 -5.00472 -5.25609
H 4.41714 -5.65838 -3.84921
O 5.92854 -7.92083 10.8138
H 6.73199 -7.33823 10.691
H 6.15574 -8.67686 11.4277
O -9.83555 -4.05482 1.83336
H -9.88957 -4.53432 0.957452
H -9.94472 -4.71114 2.57994
O -7.11379 12.1176 5.43683
H -6.99914 12.6161 6.29616
H -7.649 11.289 5.601
O 12.5097 11.6196 14.2941
H 12.9501 12.3902 13.8334
H 13.1283 11.247 14.9858
O 0.86222 -5.0635 -7.26036
H 1.14813 -5.81612 -7.85354
H 1.01708 -5.31483 -6.3049
O 1.95299 -3.7515 1.34873
H 2.67609 -3.59989 2.02268
H 1.10506 -3.99633 1.81898
O -13.218 -10.0553 0.504949
H -13.8759 -10.6957 0.901447
H -13.3797 -9.14009 0.874191
O -11.4256 -5.20381 -13.3419
H -11.7007 -4.24242 -13.3504
H -10.7854 -5.37398 -14.0911
O 11.6068 1.04056 5.00437
H 12.4234 1.1932 4.44766
H 10.8558 1.60095 4.65513
O 10.8037 -9.0862 10.4009
H 10.4859 -8.19759 10.7317
H 11.5028 -8.94999 9.699
O 13.5109 2.38571 -13.4781
H 13.3512 2.04181 -14.4035
H 12.7775 3.01703 -13.2259
O -4.4393 -5.12221 -12.5526
H -4.52757 -5.77116 -13.3084
H -3.48638 -5.0893 -12.2511
O -11.3433 -0.733943 -8.51637
H -10.9455 -0.089076 -7.86366
H -11.3811 -0.31108 -9.4218
O 11.5771 6.66978 11.177
H 10.7266 6.88683 11.6562
H 12.2352 7.41017 11.3141
O 6.40787 -3.57443 2.87535
H 6.79878 -3.36192 1.97975
H 7.13043 -3.55918 3.56654
O 12.0617 -9.88276 5.48763
H 12.8507 -9.26836 5.49784
H 11.6447 -9.87468 4.57874
O -2.08968 14.3924 -5.3445
H -2.93172 13.8651 -5.45824
H -1.66795 14.5439 -6.23851
O -6.63423 8.96331 9.61771
H -6.23149 9.86489 9.77589
H -6.15242 8.50993 8.8678
O 0.582087 3.98977 10.143
H 0.767948 3.49675 9.29301
H 1.12418 3.59305 10.8838
O 4.37394 -5.05269 11.9793
H 3.76409 -5.70937 11.5356
H 4.06681 -4.12284 11.7766
O 1.45012 5.54747 -0.277219
H 1.43612 5.43912 0.716822
H 2.10955 6.25694 -0.525927
O 6.57837 1.37976 -13.0565
H 7.37938 0.929918 -13.4515
H 5.84133 0.712699 -12.9475
O 13.5666 13.291 -11.7166
H 13.9628 12.8454 -10.9138
H 14.1084 14.0982 -11.9512
O 12.7042 4.34118 12.071
H 12.466 5.19664 11.6111
H 13.5723 4.45321 12.5547
O 8.64321 -0.686194 -13.6296
H 8.8346 -1.40109 -12.957
H 7.91274 -0.990654 -14.241
O 13.7182 10.0643 4.2387
H 13.4414 10.4734 3.36915
H 14.5804 10.4719 4.53936
O -7.37811 1.79791 12.1702
H -8.33287 1.88322 11.8852
H -6.78498 1.84388 11.3663
O -1.94988 -5.11308 5.28601
H -1.33289 -4.56426 4.72194
H -2.53593 -4.50785 5.82479
O 9.57699 -2.32021 -11.6667
H 9.9181 -1.44166 -11.3323
H 9.40681 -2.92863 -10.8916
O 6.55205 -9.71029 12.8195
H 5.87937 -9.02601 13.1011
H 7.26069 -9.78938 13.5207
O 0.992159 8.12961 8.12172
H 0.0671781 8.49087 8.23989
H 1.4703 8.14391 8.99993
O 7.6318 6.17716 -14.0101
H 7.13415 5.76297 -14.7722
H 7.85601 5.47293 -13.3364
O -11.1213 10.0672 4.79236
H -12.0418 10.1646 5.17064
H -10.9595 10.7885 4.11891
O 0.699867 14.9271 2.57581
H 0.620904 14.8943 3.57217
H 0.668535 13.9976 2.20813
O -5.02437 14.8017 1.51537
H -5.18557 14.151 2.25737
H -4.21217 -14.641 1.72133
O 1.42682 13.5162 10.1406
H 1.65931 12.8637 10.8619
H 2.22606 14.0792 9.93014
O 4.49393 -10.9256 8.2031
H 5.00714 -10.7051 9.03259
H 3.59206 -11.2781 8.45295
O 11.0168 -14.4993 -4.16556
H 11.5976 -14.6458 -4.96634
H 11.4052 -13.7712 -3.60076
O -1.15163 5.274 -13.055
H -0.85927 4.79681 -13.8837
H -1.41949 6.20941 -13.2858
O 11.4153 -4.59278 -11.2718
H 10.8031 -4.17396 -10.6011
H 11.3432 -5.58847 -11.2129
O -13.2694 -7.07788 1.55791
H -13.6195 -6.81721 0.658192
H -13.9978 -7.5154 2.08515
O -1.48737 0.350592 -10.7767
H -2.38834 0.0955661 -10.4255
H -0.827152 -0.366317 -10.5526
O 6.23341 0.899681 -4.587
H 5.64924 1.25522 -5.31666
H 6.55866 1.65748 -4.02131
O 10.1697 -13.0998 8.43218
H 10.8102 -13.6468 7.89311
H 9.27542 -13.0964 7.98456
O 4.49831 14.7877 12.6362
H 5.0074 -14.5569 12.0651
H 4.6992 13.8525 12.3444
O 5.96873 -5.07766 5.63025
H 5.3393 -4.63622 4.99073
H 5.54192 -5.13368 6.53288
O -9.73196 -3.73074 -2.92139
H -10.3471 -3.08792 -3.37794
H -9.57844 -3.43313 -1.9791
O 3.96294 -0.026296 -13.204
H 3.8808 0.40877 -14.1006
H 3.84206 -1.01428 -13.3005
O 1.10916 9.79383 1.22008
H 0.676542 9.47199 0.377868
H 2.05554 9.47233 1.25259
O -9.79116 -9.96756 5.88881
H -10.2082 -10.2821 5.03603
H -10.1784 -9.08101 6.14207
O -6.18635 -6.29916 8.60999
H -6.53814 -5.51145 9.11576
H -5.21729 -6.4257 8.82205
O 3.99822 -0.658112 -6.80969
H 3.70721 -1.08738 -5.95464
H 4.18017 0.312245 -6.65045
O 8.01302 2.56239 -10.4791
H 7.83739 2.34395 -11.439
H 7.76885 1.77811 -9.90871
O 13.6717 -3.83685 14.9384
H 12.7004 -3.91516 -14.8255
H 13.8864 -2.88619 14.7143
O -8.17069 -0.00715012 14.1072
H -8.9975 0.331364 14.5565
H -7.81437 0.695671 13.4915
O -4.10417 7.29481 -3.53276
H -5.03678 7.64893 -3.60275
H -3.54145 7.69223 -4.25765
O 12.6458 -12.205 -3.06149
H 12.7048 -12.1485 -4.05818
H 13.3526 -12.8249 -2.7204
O -7.97806 -1.93237 2.50723
H -8.18952 -1.53387 3.39971
H -8.39775 -2.83745 2.43842
O 13.9506 -1.56918 0.587997
H 13.9635 -2.55949 0.726447
H 14.044 -1.36769 -0.387065
O 12.8794 12.9645 8.351
H 12.744 12.0088 8.08962
H 12.8985 13.5352 7.52998
O -7.20126 7.66378 4.20357
H -6.35788 7.54994 3.67841
H -7.28914 6.91419 4.85966
O 11.3629 5.21814 -12.4834
H 10.389 5.24022 -12.2575
H 11.4822 5.38955 -13.4614
O 3.00897 -6.61792 6.92683
H 2.9777 -5.62587 6.8047
H 2.2751 -6.90103 7.54436
O 10.0527 12.9103 6.11075
H 10.7595 13.5998 6.26918
H 10.46 11.9982 6.15873
O 11.8067 7.15918 6.29212
H 11.5287 6.45386 5.63997
H 11.0039 7.48827 6.78951
O 12.7516 0.933001 1.47326
H 13.0458 0.121605 0.968153
H 13.2859 1.01374 2.31471
O 11.4089 -6.32801 7.21143
H 11.9576 -6.22929 8.04162
H 10.4701 -6.56799 7.45891
O 10.3195 8.39043 8.32854
H 9.89981 7.86156 9.06624
H 9.62278 8.95334 7.88385
O 6.94794 -8.05621 -2.9577
H 7.19768 -8.83425 -3.53418
H 5.96437 -7.89036 -3.02941
O 4.85395 -2.36961 9.11615
H 4.10347 -1.72412 9.25826
H 5.71706 -1.86855 9.05268
O 14.3356 5.97991 -13.9014
H -14.8126 5.45618 -13.7611
H 13.87 6.10396 -13.0252
O 14.5154 -13.5983 12.4827
H 14.0994 -12.9011 11.8988
H 14.3959 -14.4985 12.0637
O 0.933405 11.1189 11.863
H 0.20733 10.4924 11.5794
H 1.00168 11.1202 12.8607
O 13.8003 -2.24084 -11.6056
H 12.8009 -2.20442 -11.6046
H 14.1003 -3.15499 -11.8784
O 13.6854 11.5534 1.70154
H 13.1042 11.2169 0.960632
H 14.0576 12.4478 1.45317
O 7.45306 -10.8038 -2.53248
H 7.72255 -11.2863 -3.36595
H 8.22296 -10.7849 -1.89454
O 14.6865 -4.30917 -8.95997
H 14.0876 -3.54016 -8.73651
H -14.3577 -4.07398 -8.72987
O 14.4602 -8.5111 5.41152
H -14.9158 -8.85503 6.12321
H 14.3153 -7.53025 5.54189
O 13.6297 4.91261 -2.34726
H 13.8222 5.82595 -1.98841
H 13.2907 4.32914 -1.60919
O -10.671 12.0142 2.82741
H -10.9436 12.6068 2.06944
H -9.9717 12.4737 3.37496
O 3.84973 8.54634 13.3645