LAMMPS data file via write_data, version 15 May 2015, timestep = 1009000

2593 atoms
6 atom types
1728 bonds
4 bond types
864 angles
3 angle types
0 dihedrals
3 dihedral types
0 impropers
1 improper types

-1.5075763583856391e+01 1.5075763583856391e+01 xlo xhi
-1.5075763583856391e+01 1.5075763583856391e+01 ylo yhi
-1.5075763583856391e+01 1.5075763583856391e+01 zlo zhi

Masses

1 15.9994
2 1.00794
3 12.0107
4 1.00794
5 12.0107
6 12.0107

Bond Coeffs # harmonic

1 1000 1
2 469 1.4
3 367 1.08
4 469 0.7

Angle Coeffs # harmonic

1 100 109.47
2 35 120
3 63 120

Dihedral Coeffs # opls

1 0 7.25 0 0
2 0 7.25 0 0
3 0 7.25 0 0

Improper Coeffs # cvff

1 2.5 -1 2

Atoms # full

2592 864 2 4.0999999999999998e-01 -1.4193327537336824e+01 -7.1363019115152531e+00 -1.4124672161650594e+01 0 2 2
1982 661 2 4.0999999999999998e-01 -5.2435460097992532e+00 -1.3548390020839591e+01 -9.0531625874063337e+00 0 2 2
1123 375 1 -8.1999999999999995e-01 -1.4467299670548234e+01 -1.9645251043641796e+00 -1.4784336223926001e+01 -1 2 0
808 270 1 -8.1999999999999995e-01 -1.3717966911517109e+01 -1.1303745668058644e+01 -1.2551642169039571e+01 1 1 2
1042 348 1 -8.1999999999999995e-01 -1.1842628844439664e+01 -9.3450352961710994e+00 -1.1734557312998879e+01 0 0 1
810 270 2 4.0999999999999998e-01 -1.2981703864852616e+01 -1.0682750402324498e+01 -1.2282845332995798e+01 1 1 2
2573 858 2 4.0999999999999998e-01 -1.1446086974467011e+01 -1.4375882412105556e+01 -1.0020294270178734e+01 0 2 0
2266 756 1 -8.1999999999999995e-01 -9.4607939161684378e+00 -8.5061604280139846e+00 -1.0488646134295852e+01 1 0 1
1012 338 1 -8.1999999999999995e-01 -1.0609186054163196e+01 -9.3793054776791145e+00 -1.4108939801330344e+01 1 3 2
610 204 1 -8.1999999999999995e-01 -5.4286691349698959e+00 -7.3220108991892365e+00 -1.0671502474204210e+01 -1 0 0
1044 348 2 4.0999999999999998e-01 -1.0920168324962978e+01 -9.3067165928734354e+00 -1.1350410938380339e+01 0 0 1
2304 768 2 4.0999999999999998e-01 -8.2675587711307390e+00 -7.1976091930636317e+00 -1.2775563749680312e+01 1 3 0
1977 659 2 4.0999999999999998e-01 -6.9894539032663499e+00 -1.0915738664603740e+01 -1.0742120910174350e+01 0 0 1
1975 659 1 -8.1999999999999995e-01 -7.5401534477875316e+00 -1.0777409144422180e+01 -9.9189775214293441e+00 0 0 1
2268 756 2 4.0999999999999998e-01 -8.7664833091155874e+00 -9.2227396040251932e+00 -1.0422184919158092e+01 1 0 1
1976 659 2 4.0999999999999998e-01 -7.8277623576367299e+00 -1.1664280863345045e+01 -9.5574393809464482e+00 0 0 1
1408 470 1 -8.1999999999999995e-01 -6.1231987441382962e+00 -1.2385812453584304e+01 -1.4015900508331150e+01 0 1 2
1410 470 2 4.0999999999999998e-01 -6.1507727249755657e+00 -1.3373661795690458e+01 -1.4168751760718065e+01 0 1 2
1043 348 2 4.0999999999999998e-01 -1.2503137816266383e+01 -9.0458347392511946e+00 -1.1045952114810465e+01 0 0 1
1720 574 1 -8.1999999999999995e-01 -9.7766329996541863e+00 -1.3606110422871602e+01 -1.3939548550670805e+01 0 1 1
1722 574 2 4.0999999999999998e-01 -9.2974098747039129e+00 -1.2728581576417401e+01 -1.3923472641840235e+01 0 1 1
806 269 2 4.0999999999999998e-01 -5.2910673351586208e+00 -7.2149754709452374e-01 -8.9287030564147933e+00 -1 3 0
572 191 2 4.0999999999999998e-01 -1.4646452579785887e+01 -1.7580349547624898e+00 -1.2831812586205047e+01 -1 0 2
2572 858 1 -8.1999999999999995e-01 -1.1782868466370477e+01 -1.3724494937410283e+01 -9.3404099555737119e+00 0 2 0
1014 338 2 4.0999999999999998e-01 -1.1132618221873994e+01 -9.3712655391195518e+00 -1.3256927890674174e+01 1 3 2
1212 404 2 4.0999999999999998e-01 -1.3256862846185456e+01 -1.3081337663218255e+01 -9.7828787096159857e+00 0 1 1
571 191 1 -8.1999999999999995e-01 -1.4711910406359332e+01 -1.7927194699697679e+00 -1.1834575204168461e+01 -1 0 2
2574 858 2 4.0999999999999998e-01 -1.1156236401539280e+01 -1.3701876329956004e+01 -8.5614422081008534e+00 0 2 0
573 191 2 4.0999999999999998e-01 -1.5005035084746075e+01 -2.7058628597496774e+00 -1.1551348716660483e+01 -1 0 2
1211 404 2 4.0999999999999998e-01 -1.3760789611417978e+01 -1.2007819723368804e+01 -1.0905448947972763e+01 0 1 1
1913 638 2 4.0999999999999998e-01 -1.3915154290720308e+01 -1.3058603965031192e+01 -7.9126696344470382e+00 -1 0 1
1409 470 2 4.0999999999999998e-01 -7.0553754195053955e+00 -1.2037774441387352e+01 -1.3916470530603311e+01 0 1 2
218 73 2 4.0999999999999998e-01 -1.3043136431174210e+01 -5.2625425992297536e+00 -1.4288614424320127e+01 -2 -1 -1
1433 478 2 4.0999999999999998e-01 -8.2296375849984464e+00 -1.4415715737725874e+01 -1.2979901613385369e+01 0 1 2
1210 404 1 -8.1999999999999995e-01 -1.4056266355563743e+01 -1.2634223858756851e+01 -1.0184143528322821e+01 0 1 1
725 242 2 4.0999999999999998e-01 -6.6518223391466424e+00 -7.7073776525431743e+00 -1.4601452939358259e+01 -1 2 0
1844 615 2 4.0999999999999998e-01 -9.3751047666522016e+00 -6.5222647755433290e+00 -1.4825066496445821e+01 1 -1 1
409 137 1 -8.1999999999999995e-01 -1.3682915282896294e+01 -8.4951756623296184e+00 -1.0075502322702253e+01 1 2 1
94 32 1 -8.1999999999999995e-01 -7.9369781912143793e+00 -1.3263960333881784e+01 -8.5505935926549448e+00 -1 1 1
411 137 2 4.0999999999999998e-01 -1.3850063207878696e+01 -7.8837494377374684e+00 -9.3020750898510691e+00 1 2 1
809 270 2 4.0999999999999998e-01 -1.3332168395298694e+01 -1.2086581273250973e+01 -1.3039800009158562e+01 1 1 2
2231 744 2 4.0999999999999998e-01 -1.0485382864878723e+01 -6.1137405944991965e+00 -1.2632314810037888e+01 -1 1 1
2262 754 2 4.0999999999999998e-01 -8.7876889887536436e+00 -1.2402652784493959e+00 -8.5735657368274669e+00 1 1 -1
691 231 1 -8.1999999999999995e-01 -1.4907048934157704e+01 -1.4639192739486006e+01 -1.1816406366568902e+01 -3 1 0
1802 601 2 4.0999999999999998e-01 -1.1296555666897838e+01 -6.0515411731302606e+00 -8.2815784944087145e+00 0 0 1
217 73 1 -8.1999999999999995e-01 -1.2286404703301127e+01 -4.7536155592644480e+00 -1.4698883266859601e+01 -2 -1 -1
1721 574 2 4.0999999999999998e-01 -1.0744309931237424e+01 -1.3453796374096530e+01 -1.4140476134463009e+01 0 1 1
360 120 2 4.0999999999999998e-01 -5.7246342112017583e+00 -3.7695580889783749e+00 -1.3592963777205281e+01 -1 0 1
2552 851 2 4.0999999999999998e-01 -6.1576790705352060e+00 -1.4008738016511506e+01 -1.1260707481974780e+01 2 2 0
354 118 2 4.0999999999999998e-01 -7.2914657225729584e+00 -9.5048906141270955e+00 -8.5502407136047438e+00 -1 1 0
693 231 2 4.0999999999999998e-01 -1.4783261091157771e+01 -1.4152920303491216e+01 -1.0951429020484081e+01 -3 1 0
554 185 2 4.0999999999999998e-01 -5.0432269623171724e+00 -8.8704749491783552e+00 -8.1628347652868278e+00 1 1 0
2267 756 2 4.0999999999999998e-01 -9.0908988005536315e+00 -7.6493206135590617e+00 -1.0129517694396842e+01 1 0 1
611 204 2 4.0999999999999998e-01 -5.1497485882020797e+00 -8.2689208814164612e+00 -1.0511705920640075e+01 -1 0 0
1432 478 1 -8.1999999999999995e-01 -7.3358461641517385e+00 -1.4586470787506862e+01 -1.2565233474873637e+01 0 1 2
2583 861 2 4.0999999999999998e-01 -9.2336683876277199e+00 -1.0272660353052704e+01 -1.4121205060979689e+01 -1 1 1
96 32 2 4.0999999999999998e-01 -8.1087322234933765e+00 -1.4219697002340688e+01 -8.7894202002106940e+00 -1 1 1
410 137 2 4.0999999999999998e-01 -1.4516911086696359e+01 -9.0066968866905697e+00 -1.0282304567550369e+01 1 2 1
2591 864 2 4.0999999999999998e-01 -1.4995369328256045e+01 -5.8431492510187883e+00 -1.3532192614256061e+01 0 2 2
2142 714 2 4.0999999999999998e-01 -1.0932423054668197e+01 -8.4334559057758263e+00 -8.4284075643894880e+00 1 -2 1
2581 861 1 -8.1999999999999995e-01 -8.5102323291669553e+00 -1.0962738979777953e+01 -1.4141253594088216e+01 -1 1 1
2302 768 1 -8.1999999999999995e-01 -7.2704259870160701e+00 -7.2002021286493783e+00 -1.2850993374007572e+01 1 3 0
219 73 2 4.0999999999999998e-01 -1.1418012894701619e+01 -5.1258774147221118e+00 -1.4371336447799026e+01 -2 -1 -1
2303 768 2 4.0999999999999998e-01 -6.8695650406993387e+00 -6.9149969194170247e+00 -1.1980396662375915e+01 1 3 0
6 2 2 4.0999999999999998e-01 -1.3400065991075511e+01 -5.7024297844385483e+00 -8.5205012655355556e+00 -1 2 1
4 2 1 -8.1999999999999995e-01 -1.4211390775423927e+01 -5.9099715234720840e+00 -7.9740136762376208e+00 -1 2 1
358 120 1 -8.1999999999999995e-01 -5.7900656662378722e+00 -3.8384715913414009e+00 -1.2597504182026071e+01 -1 0 1
95 32 2 4.0999999999999998e-01 -6.9686840680623607e+00 -1.3143966540300541e+01 -8.3315544252471270e+00 -1 1 1
1004 335 2 4.0999999999999998e-01 -5.9076304410576892e+00 -9.5073304690288580e+00 -1.2427032111550169e+01 1 1 0
2051 684 2 4.0999999999999998e-01 -7.3950054164207772e+00 -6.9597575928760005e+00 -1.0204993696911480e+01 -1 -1 1
1801 601 1 -8.1999999999999995e-01 -1.1837880437153514e+01 -5.4765357276572075e+00 -8.8950166180590422e+00 0 0 1
2232 744 2 4.0999999999999998e-01 -9.1424968948742595e+00 -5.2448216070154245e+00 -1.2961227958767653e+01 -1 1 1
2590 864 1 -8.1999999999999995e-01 -1.4097899023292815e+01 -6.2736681378996835e+00 -1.3627956465266333e+01 0 2 2
2466 822 2 4.0999999999999998e-01 -1.2795086943719951e+01 -6.2827972493059718e+00 -1.2096601431184936e+01 2 1 0
769 257 1 -8.1999999999999995e-01 -1.2187217989026450e+01 -2.9585275765839292e+00 -1.0751127130000034e+01 0 -1 -2
359 120 2 4.0999999999999998e-01 -6.7499371713886163e+00 -3.9286541331246685e+00 -1.2332016041726543e+01 -1 0 1
1036 346 1 -8.1999999999999995e-01 -9.6665912555007019e+00 -2.8185589548409418e+00 -9.1111735376961889e+00 0 1 1
1013 338 2 4.0999999999999998e-01 -1.1225604195635103e+01 -9.5518479766912083e+00 -1.4877202708156160e+01 1 3 2
2052 684 2 4.0999999999999998e-01 -8.0182220631250622e+00 -6.4799755179952694e+00 -8.7739252093677038e+00 -1 -1 1
1293 431 2 4.0999999999999998e-01 -9.5201017728180215e+00 -9.9198857861782663e-01 -1.2834633329858598e+01 -1 1 0
1037 346 2 4.0999999999999998e-01 -9.6794373789592889e+00 -3.4171311208524529e+00 -8.3102263023495517e+00 0 1 1
1803 601 2 4.0999999999999998e-01 -1.1708850329323425e+01 -5.7819049835990963e+00 -9.8384523517641540e+00 0 0 1
2050 684 1 -8.1999999999999995e-01 -8.1012234622043984e+00 -6.4031431051929957e+00 -9.7674933768783738e+00 -1 -1 1
1292 431 2 4.0999999999999998e-01 -8.2213493559099184e+00 -1.2584364214269552e+00 -1.1881326171922446e+01 -1 1 0
1247 416 2 4.0999999999999998e-01 -8.1673141909720108e+00 -5.0614405781849587e+00 -1.0745958081734351e+01 -1 0 -1
1003 335 1 -8.1999999999999995e-01 -5.4029093866283464e+00 -1.0281832241487848e+01 -1.2045753053501759e+01 1 1 0
1318 440 1 -8.1999999999999995e-01 -1.0989075903140211e+01 -2.1965110491874746e+00 -1.3129611873964565e+01 -1 -1 1
579 193 2 4.0999999999999998e-01 -5.8528074992961159e+00 -2.9787582817048115e+00 -8.7066483854542565e+00 0 0 1
1320 440 2 4.0999999999999998e-01 -1.1618408028356415e+01 -1.8009122178970021e+00 -1.3798501049787030e+01 -1 -1 1
1319 440 2 4.0999999999999998e-01 -1.1510693558843053e+01 -2.5816332970001845e+00 -1.2368319563409981e+01 -1 -1 1
2230 744 1 -8.1999999999999995e-01 -9.7748658834937601e+00 -5.9350412690674137e+00 -1.3312904507696460e+01 -1 1 1
2464 822 1 -8.1999999999999995e-01 -1.1875084505596311e+01 -6.3676053705600033e+00 -1.1714013921091952e+01 2 1 0
2465 822 2 4.0999999999999998e-01 -1.1759107205366135e+01 -7.2811627843949598e+00 -1.1324229031606137e+01 2 1 0
2261 754 2 4.0999999999999998e-01 -7.8316297370819310e+00 -1.7254990200656550e-01 -9.3561776309991647e+00 1 1 -1
770 257 2 4.0999999999999998e-01 -1.2572261838781692e+01 -3.8757996519369851e+00 -1.0649523459718488e+01 0 -1 -2
1248 416 2 4.0999999999999998e-01 -8.8862683173762314e+00 -3.6042457933972170e+00 -1.0583985847233722e+01 -1 0 -1
1246 416 1 -8.1999999999999995e-01 -8.3691072220729872e+00 -4.1952349014191714e+00 -1.1203054794305318e+01 -1 0 -1
2260 754 1 -8.1999999999999995e-01 -8.1084487887580963e+00 -5.1544103463507795e-01 -8.4585324138530744e+00 1 1 -1
771 257 2 4.0999999999999998e-01 -1.2913952867793503e+01 -2.3174148860452153e+00 -1.0997705877290576e+01 0 -1 -2
1291 431 1 -8.1999999999999995e-01 -8.7940471708597094e+00 -5.5560103833432173e-01 -1.2303238195642916e+01 -1 1 0
2140 714 1 -8.1999999999999995e-01 -1.0750779032492122e+01 -7.6674617457741556e+00 -7.8117808425674591e+00 1 -2 1
1038 346 2 4.0999999999999998e-01 -1.0587809373339265e+01 -2.7556328432663779e+00 -9.4950584459520986e+00 0 1 1
861 287 2 4.0999999999999998e-01 -1.4112005439827428e+01 -2.4376999986981751e-01 -1.0785144301859615e+01 1 1 0
697 233 1 -8.1999999999999995e-01 -1.2347798585680566e+01 -1.3255973857931002e+01 -1.4396083401283068e+01 -1 1 2
1981 661 1 -8.1999999999999995e-01 -5.3744965476694553e+00 -1.3412025117370501e+01 -8.0712121157590744e+00 0 2 2
2551 851 1 -8.1999999999999995e-01 -5.2649946086147636e+00 -1.3756873399474841e+01 -1.0887011347193408e+01 2 2 0
352 118 1 -8.1999999999999995e-01 -7.0983515269901822e+00 -8.8537305851539774e+00 -7.8163009140704904e+00 -1 1 0
699 233 2 4.0999999999999998e-01 -1.2775987397819710e+01 -1.4145408381936624e+01 -1.4236300228404456e+01 -1 1 2
1005 335 2 4.0999999999999998e-01 -5.7122699627534104e+00 -1.1127684576576454e+01 -1.2480264291334574e+01 1 1 0
2150 717 2 4.0999999999999998e-01 -1.5046044501525477e+01 -9.8865285626860953e+00 -1.5072389821814017e+01 0 -3 3
428 143 2 4.0999999999999998e-01 -1.4622324197301799e+01 -1.4991933888859899e+01 -1.3664894493840499e+01 0 0 3
1983 661 2 4.0999999999999998e-01 -5.0637476849992531e+00 -1.4224244581747097e+01 -7.5775474617965459e+00 0 2 2
2582 861 2 4.0999999999999998e-01 -8.1013523615998189e+00 -1.0990587325726850e+01 -1.5053400394767602e+01 -1 1 1
2054 685 2 4.0999999999999998e-01 -6.6656080639377553e+00 -1.1101364427577071e+01 -3.3615734682883804e+00 -1 -1 1
2053 685 1 -8.1999999999999995e-01 -6.4966552856503554e+00 -1.1821080752715556e+01 -2.6881987454828700e+00 -1 -1 1
2055 685 2 4.0999999999999998e-01 -6.5714899968727654e+00 -1.2715069585609367e+01 -3.1299609837346569e+00 -1 -1 1
877 293 1 -8.1999999999999995e-01 -1.0584050148680113e+01 -8.5069022081032895e+00 -5.1054614472243660e+00 0 0 -1
847 283 1 -8.1999999999999995e-01 -9.9394685565763208e+00 -1.2453062951273022e+01 -4.3509266369254167e+00 -1 1 0
791 264 2 4.0999999999999998e-01 -8.1122758925519598e+00 -9.6389296063550134e+00 -3.2668527698685264e+00 0 1 2
849 283 2 4.0999999999999998e-01 -9.5176978732240780e+00 -1.1674284574239284e+01 -3.8866165507912847e+00 -1 1 0
790 264 1 -8.1999999999999995e-01 -8.4597401083701982e+00 -1.0173784080824497e+01 -4.0370277295056471e+00 0 1 2
879 293 2 4.0999999999999998e-01 -1.0222009889495956e+01 -9.3159684085612007e+00 -4.6425263728135864e+00 0 0 -1
848 283 2 4.0999999999999998e-01 -1.0204383444657161e+01 -1.3140633045677326e+01 -3.6748810866104140e+00 -1 1 0
792 264 2 4.0999999999999998e-01 -7.9012850840664868e+00 -9.9937410297906766e+00 -4.8467700495238368e+00 0 1 2
280 94 1 -8.1999999999999995e-01 -1.4188476451369318e+01 -7.9192968823527750e+00 -4.5212199072760182e+00 -3 1 3
353 118 2 4.0999999999999998e-01 -6.7142180378932625e+00 -9.3402305721705563e+00 -7.0316166573212087e+00 -1 1 0
878 293 2 4.0999999999999998e-01 -1.0867611006142091e+01 -7.8320266587821958e+00 -4.4242079155205136e+00 0 0 -1
814 272 1 -8.1999999999999995e-01 -1.0015905521235240e+01 -1.4794488705372395e+01 -2.3745953549134633e+00 0 1 -2
2272 758 1 -8.1999999999999995e-01 -5.1207241068160094e+00 -8.0918088135837003e+00 -3.4214343853783333e+00 0 2 0
828 276 2 4.0999999999999998e-01 -1.3379324588655804e+01 -3.8826368255321722e+00 -7.6868190068055320e-01 0 0 -1
1024 342 1 -8.1999999999999995e-01 -1.4930132114029133e+01 -9.8365645117857348e-01 -3.9124491077305397e+00 -1 1 1
281 94 2 4.0999999999999998e-01 -1.3614955183171588e+01 -7.2316591739582394e+00 -4.9664140086873818e+00 -3 1 3
2203 735 1 -8.1999999999999995e-01 -6.4089133358048525e+00 -1.4340434621611962e+01 -3.8326794517268894e+00 1 1 0
282 94 2 4.0999999999999998e-01 -1.4075000201761183e+01 -8.7983723767043855e+00 -4.9841665266435804e+00 -3 1 3
2197 733 1 -8.1999999999999995e-01 -1.4629427597879449e+01 -1.2622711360840269e+01 -2.0130638635186191e+00 1 1 3
2039 680 2 4.0999999999999998e-01 -9.4895660124054828e+00 -3.7816764732544605e+00 -2.0942694433749054e-01 1 0 0
1857 619 2 4.0999999999999998e-01 -9.8366104039338680e+00 -1.3821918046697002e+01 -1.0253926358937200e+00 1 1 0
2016 672 2 4.0999999999999998e-01 -1.2365240172260661e+01 -3.0628049550623473e+00 -7.2663647946873402e+00 1 0 1
974 325 2 4.0999999999999998e-01 -7.7720851303319662e+00 -7.8722949388850507e+00 -1.4275034074823267e+00 -1 2 2
973 325 1 -8.1999999999999995e-01 -7.5585590327602477e+00 -8.3853290727742884e+00 -2.2588713936355340e+00 -1 2 2
975 325 2 4.0999999999999998e-01 -6.6101790025486231e+00 -8.2110318045999957e+00 -2.5237599237933477e+00 -1 2 2
452 151 2 4.0999999999999998e-01 -1.0151466473862236e+01 -9.5145054776627340e+00 -1.1813304251681629e+00 0 -2 0
176 59 2 4.0999999999999998e-01 -7.9886734957212395e+00 -1.0303235640041679e+01 -1.9905638128746617e-01 0 -1 -1
1032 344 2 4.0999999999999998e-01 -1.1337724396510854e+01 -1.4546797558401902e+01 -6.2361728368836946e+00 2 0 1
2273 758 2 4.0999999999999998e-01 -5.0584633154446106e+00 -8.0239099298955523e+00 -4.4171670276229342e+00 0 2 0
2198 733 2 4.0999999999999998e-01 -1.4542551526410755e+01 -1.3019820481669010e+01 -1.0994298952872175e+00 1 1 3
177 59 2 4.0999999999999998e-01 -6.7294093314447583e+00 -1.0945323228659033e+01 -1.0166896415254669e+00 0 -1 -1
1031 344 2 4.0999999999999998e-01 -1.2968109738882191e+01 -1.4571712763576441e+01 -6.3243187047692224e+00 2 0 1
451 151 1 -8.1999999999999995e-01 -9.7532723103977048e+00 -1.0120586262220652e+01 -4.9279747994191148e-01 0 -2 0
1436 479 2 4.0999999999999998e-01 -1.4522888947620066e+01 -1.0057806329625933e+01 -6.5278817124793775e-01 -2 1 0
2061 687 2 4.0999999999999998e-01 -1.2833926417178251e+01 -1.4974955986508734e+01 -3.0709001158069444e+00 0 2 1
1437 479 2 4.0999999999999998e-01 -1.4322072262442834e+01 -1.0906362087373346e+01 -2.0334302764004413e+00 -2 1 0
1855 619 1 -8.1999999999999995e-01 -9.8380622390739738e+00 -1.3106714866172823e+01 -3.2649889410988564e-01 1 1 0
2060 687 2 4.0999999999999998e-01 -1.2805601384112894e+01 -1.4086979306905704e+01 -4.4410249260109875e+00 0 2 1
1435 479 1 -8.1999999999999995e-01 -1.4163056125500793e+01 -1.0026682538847503e+01 -1.5852696808048936e+00 -2 1 0
842 281 2 4.0999999999999998e-01 -1.2981545206152473e+01 -1.7973274026932167e+00 -3.3548392402670562e+00 -1 -1 1
1912 638 1 -8.1999999999999995e-01 -1.4251156186312137e+01 -1.3105630006293790e+01 -6.9719989050250017e+00 -1 0 1
2059 687 1 -8.1999999999999995e-01 -1.3281476548640780e+01 -1.4235803811661048e+01 -3.5742122451349658e+00 0 2 1
458 153 2 4.0999999999999998e-01 -1.4087168226131626e+01 -6.2370505333845454e+00 -1.1025980249428606e+00 -1 -2 0
226 76 1 -8.1999999999999995e-01 -1.0061210459105659e+01 -1.3640761810482482e+01 -6.7373120392305008e+00 1 2 1
2204 735 2 4.0999999999999998e-01 -7.3237630866062160e+00 -1.4692753251392752e+01 -3.6354697869932586e+00 1 1 0
2141 714 2 4.0999999999999998e-01 -1.0742458251898906e+01 -7.9948934973069861e+00 -6.8669584713116123e+00 1 -2 1
1007 336 2 4.0999999999999998e-01 -5.8675600184310444e+00 -3.5675576073348108e+00 -3.8003482435184832e+00 0 -1 2
1209 403 2 4.0999999999999998e-01 -1.4156844947926642e+01 -1.1168069814902811e+01 -6.1588331303876718e+00 1 1 1
73 25 1 -8.1999999999999995e-01 -1.2680039721232731e+01 -7.0362907464742541e-01 -9.1808659095764966e-02 0 -1 0
2250 750 2 4.0999999999999998e-01 -1.2773663973185229e+01 -9.0377710314856294e+00 -1.7777941200742795e+00 0 0 -1
2248 750 1 -8.1999999999999995e-01 -1.1992837016741237e+01 -8.4441550401986571e+00 -1.5831161981097299e+00 0 0 -1
227 76 2 4.0999999999999998e-01 -9.9176622131510719e+00 -1.3048517441153832e+01 -5.9444623287764387e+00 1 2 1
826 276 1 -8.1999999999999995e-01 -1.2952112381661539e+01 -4.7747390924227311e+00 -9.1569693627197957e-01 0 0 -1
399 133 2 4.0999999999999998e-01 -7.7540152750642104e+00 -1.9347751386011183e+00 -5.3834646049883013e+00 0 2 1
727 243 1 -8.1999999999999995e-01 -1.1846444688192777e+01 -6.3871406728997826e-02 -7.1471626796772760e+00 0 0 -1
2199 733 2 4.0999999999999998e-01 -1.4092817704753317e+01 -1.3161013857574410e+01 -2.6628718422497535e+00 1 1 3
1826 609 2 4.0999999999999998e-01 -6.3379496383606817e+00 -1.1657226392506089e+01 -6.0688223389137725e+00 -1 0 0
457 153 1 -8.1999999999999995e-01 -1.4791908345099907e+01 -6.8225335086261261e+00 -1.5032490203570763e+00 -1 -2 0
1914 638 2 4.0999999999999998e-01 -1.5049602156328843e+01 -1.3706401227592039e+01 -6.9329076097380256e+00 -1 0 1
1373 458 2 4.0999999999999998e-01 -1.4474995692528717e+01 -3.4369784942329709e+00 -4.0743156531944145e+00 0 1 -1
1608 536 2 4.0999999999999998e-01 -9.9802053963013684e+00 -4.3903709629776042e+00 -2.3278180754090894e+00 0 2 1
2015 672 2 4.0999999999999998e-01 -1.3793766739702953e+01 -3.2959263790381943e+00 -6.5103799956682522e+00 1 0 1
1667 556 2 4.0999999999999998e-01 -1.1823991595119216e+01 -5.3008165110951673e+00 -5.3599043401817603e+00 1 4 -2
1561 521 1 -8.1999999999999995e-01 -8.4137660796784637e+00 -6.7547998939640141e+00 -1.1222189322401732e-01 -2 -1 -1
1008 336 2 4.0999999999999998e-01 -6.2130306319912645e+00 -2.0808248481435481e+00 -3.2199840374535285e+00 0 -1 2
1372 458 1 -8.1999999999999995e-01 -1.4357501649101341e+01 -4.2257769477769962e+00 -3.4710227771211120e+00 0 1 -1
147 49 2 4.0999999999999998e-01 -5.6453514742445954e+00 -3.3892899391648630e+00 -7.3751891301223971e-01 -1 1 -2
935 312 2 4.0999999999999998e-01 -7.8567816823606798e+00 -5.7797120878366606e+00 -6.4195741726520037e+00 -3 -3 2
1073 358 2 4.0999999999999998e-01 -5.7602618028549895e+00 -6.6203663153963124e+00 -6.4735940250677615e+00 -1 1 0
936 312 2 4.0999999999999998e-01 -7.3712184714415718e+00 -7.1531553007087556e+00 -7.1574284933750087e+00 -3 -3 2
934 312 1 -8.1999999999999995e-01 -7.3047837709271910e+00 -6.1554009368783795e+00 -7.1639708084058293e+00 -3 -3 2
39 13 2 4.0999999999999998e-01 -9.8238843139316430e+00 -2.8514375083224852e+00 -6.1943520602273345e+00 1 -1 1
1606 536 1 -8.1999999999999995e-01 -1.0235937489025673e+01 -3.6795427276471493e+00 -1.6726124590701108e+00 0 2 1
1207 403 1 -8.1999999999999995e-01 -1.4623172122472948e+01 -1.0383849954167349e+01 -5.7495553014489893e+00 1 1 1
2014 672 1 -8.1999999999999995e-01 -1.3292184034158165e+01 -2.7078649236447045e+00 -7.1448629598226621e+00 1 0 1
1278 426 2 4.0999999999999998e-01 -1.0767127086505120e+01 -7.2389164596114810e+00 -2.3787568886792378e+00 -1 1 1
37 13 1 -8.1999999999999995e-01 -9.7514946524393729e+00 -3.7542537043448529e+00 -6.6182067470378261e+00 1 -1 1
619 207 1 -8.1999999999999995e-01 -8.1830933337839618e+00 -5.0713963151797561e+00 -4.8374791396350734e+00 -1 1 1
620 207 2 4.0999999999999998e-01 -7.6857062037469586e+00 -4.3499488119919096e+00 -4.3557222798097310e+00 -1 1 1
1668 556 2 4.0999999999999998e-01 -1.3216368007175017e+01 -5.2921175452683133e+00 -4.5068163407089017e+00 1 4 -2
459 153 2 4.0999999999999998e-01 -1.4424053082125290e+01 -7.2809988358468765e+00 -2.3122374023450032e+00 -1 -2 0
74 25 2 4.0999999999999998e-01 -1.2014666421498710e+01 -3.0246900426965517e-01 -7.2134747313668512e-01 0 -1 0
621 207 2 4.0999999999999998e-01 -8.6408463125025676e+00 -5.6617235579778580e+00 -4.1726888675429858e+00 -1 1 1
827 276 2 4.0999999999999998e-01 -1.1967464918018690e+01 -4.6557904018164660e+00 -1.0433320219187117e+00 0 0 -1
1825 609 1 -8.1999999999999995e-01 -6.2469418137134820e+00 -1.0670972709154276e+01 -5.9310132263994024e+00 -1 0 0
841 281 1 -8.1999999999999995e-01 -1.2121104842708354e+01 -1.5220718759536513e+00 -2.9260655245717366e+00 -1 -1 1
843 281 2 4.0999999999999998e-01 -1.1615442381691697e+01 -9.2373437613654730e-01 -3.5475700146482083e+00 -1 -1 1
175 59 1 -8.1999999999999995e-01 -7.0170603315303879e+00 -1.0534891249400044e+01 -1.5137313321809920e-01 0 -1 -1
145 49 1 -8.1999999999999995e-01 -6.0558492801068109e+00 -4.1946176157912571e+00 -3.0984027132885217e-01 -1 1 -2
397 133 1 -8.1999999999999995e-01 -8.5202470659732406e+00 -1.4171087501464132e+00 -5.7640962138139766e+00 0 2 1
1276 426 1 -8.1999999999999995e-01 -1.0009590928947581e+01 -6.6748175059341222e+00 -2.7072404570505171e+00 -1 1 1
1277 426 2 4.0999999999999998e-01 -9.2689340031140972e+00 -6.6874299691747883e+00 -2.0354976883794755e+00 -1 1 1
2183 728 2 4.0999999999999998e-01 -9.6565035085225102e+00 -4.1339737437334989e-01 -4.9377844020267201e+00 2 1 -1
75 25 2 4.0999999999999998e-01 -1.3440066283830088e+01 -1.0918012401302306e+00 -6.1301125885625396e-01 0 -1 0
2249 750 2 4.0999999999999998e-01 -1.2049294177903164e+01 -8.1178573545450696e+00 -6.3955244268262845e-01 0 0 -1
1666 556 1 -8.1999999999999995e-01 -1.2775536158591368e+01 -5.6080064839762560e+00 -5.3469661013964132e+00 1 4 -2
38 13 2 4.0999999999999998e-01 -9.1953799021563611e+00 -4.3506054165545613e+00 -6.0393534561770181e+00 1 -1 1
5 2 2 4.0999999999999998e-01 -1.3995637690353396e+01 -5.8035741783165253e+00 -7.0033951229976470e+00 -1 2 1
2217 739 2 4.0999999999999998e-01 -9.7535151279622969e+00 -4.6963468247936113e-01 -4.2987659361243580e-01 0 0 1
398 133 2 4.0999999999999998e-01 -8.1990486102622491e+00 -8.6192073020539439e-01 -6.5312780211031711e+00 0 2 1
1607 536 2 4.0999999999999998e-01 -1.0716685571379326e+01 -2.9438520648145268e+00 -2.1496980429906554e+00 0 2 1
1006 336 1 -8.1999999999999995e-01 -6.5887207239447481e+00 -2.8853565277671613e+00 -3.6799360870847053e+00 0 -1 2
1856 619 2 4.0999999999999998e-01 -9.5959395076158991e+00 -1.2231336821987409e+01 -7.4490062606279750e-01 1 1 0
1026 342 2 4.0999999999999998e-01 -1.4885197852903152e+01 -1.2785065052992959e+00 -2.9579783025012958e+00 -1 1 1
1827 609 2 4.0999999999999998e-01 -5.3269254891457170e+00 -1.0464449447282529e+01 -5.5980142836394648e+00 -1 0 0
228 76 2 4.0999999999999998e-01 -9.3668863792719321e+00 -1.3444828153444893e+01 -7.4297672401970267e+00 1 2 1
1200 400 2 4.0999999999999998e-01 -7.6295579571727590e+00 -5.7604092721237343e-01 -3.6610137784405463e+00 -1 0 -1
2216 739 2 4.0999999999999998e-01 -9.0682788982637952e+00 -1.9425712679820695e+00 -2.6417806471254046e-01 0 0 1
729 243 2 4.0999999999999998e-01 -1.2481538646984593e+01 -8.3289563404058953e-01 -7.0748611575700284e+00 0 0 -1
2044 682 1 -8.1999999999999995e-01 -1.1989314095795619e+01 -1.2426339093979038e+01 1.3909193736914265e+00 1 -1 -1
1204 402 1 -8.1999999999999995e-01 -1.2047976177694693e+01 -1.4125130406041041e+01 5.9485809051725003e+00 0 0 1
1205 402 2 4.0999999999999998e-01 -1.2384937447282853e+01 -1.3346312450259122e+01 5.4195536212153304e+00 0 0 1
2483 828 2 4.0999999999999998e-01 -6.6909607984393524e+00 -9.5036689941351522e+00 4.9429138233253784e+00 1 1 2
1859 620 2 4.0999999999999998e-01 -7.6905973248562631e+00 -1.3122014579688502e+01 6.3387892622550268e-01 -1 0 1
1206 402 2 4.0999999999999998e-01 -1.1439243476718998e+01 -1.4676924439246214e+01 5.3785475934660827e+00 0 0 1
54 18 2 4.0999999999999998e-01 -1.2560474248221345e+01 -1.2443847674974329e+01 3.4491696251262791e+00 0 -2 2
52 18 1 -8.1999999999999995e-01 -1.3094309890969818e+01 -1.2354364520153926e+01 4.2899920820547113e+00 0 -2 2
887 296 2 4.0999999999999998e-01 -1.3393307284247175e+01 -1.5066939130236390e+01 7.0684624363858308e+00 -2 1 -3
139 47 1 -8.1999999999999995e-01 -1.3509681418241279e+01 -8.5803485372267172e+00 7.2742127533502572e+00 -1 2 2
1858 620 1 -8.1999999999999995e-01 -6.9629758803958541e+00 -1.3731102808455256e+01 9.4939234101868131e-01 -1 0 1
1860 620 2 4.0999999999999998e-01 -6.3686657331943213e+00 -1.3238896953078216e+01 1.5853947043073244e+00 -1 0 1
2508 836 2 4.0999999999999998e-01 -1.1035977938865457e+01 -1.3459544378020295e+01 7.1955916849744366e+00 0 1 0
1618 540 1 -8.1999999999999995e-01 -5.1116245593704797e+00 -9.8693879408128353e+00 3.7629786662667204e+00 0 -1 -1
2576 859 2 4.0999999999999998e-01 -6.3123906082505670e+00 -6.7693324464506102e+00 6.9676006960959942e+00 0 3 0
2387 796 2 4.0999999999999998e-01 -5.8736888590021472e+00 -6.2009706818972319e+00 2.4245481359556464e-01 2 2 0
1106 369 2 4.0999999999999998e-01 -8.9420804224601298e+00 -1.2620012317817340e+01 5.5482559818643349e+00 0 0 -1
1105 369 1 -8.1999999999999995e-01 -8.1510935878898678e+00 -1.2011212581599764e+01 5.4876519012288281e+00 0 0 -1
971 324 2 4.0999999999999998e-01 -1.1994636432599703e+01 -1.0705412144963617e+01 1.7732333827262554e+00 0 0 -1
970 324 1 -8.1999999999999995e-01 -1.1637962385481469e+01 -9.7717971994722852e+00 1.8066517437371328e+00 0 0 -1
2484 828 2 4.0999999999999998e-01 -7.8636509281712836e+00 -1.0366426764985508e+01 5.6825041141691823e+00 1 1 2
1107 369 2 4.0999999999999998e-01 -7.3108360521151239e+00 -1.2547574047073526e+01 5.5667328850809117e+00 0 0 -1
1790 597 2 4.0999999999999998e-01 -9.7900142469640627e+00 -5.1287451255477503e+00 3.6475314011727864e+00 1 -1 0
53 18 2 4.0999999999999998e-01 -1.3709261850555425e+01 -1.1569640755577234e+01 4.2124494949319971e+00 0 -2 2
1800 600 2 4.0999999999999998e-01 -1.2358689836525306e+01 -7.8116854256494106e+00 6.2930542161644087e+00 -1 -1 1
2394 798 2 4.0999999999999998e-01 -5.4667984770822358e+00 -1.4884587128983320e+01 3.8179514713473850e-01 1 3 -1
453 151 2 4.0999999999999998e-01 -1.0340519144175005e+01 -1.0137028351671479e+01 3.1642495896138456e-01 0 -2 0
972 324 2 4.0999999999999998e-01 -1.0923173404478344e+01 -9.7128116630518875e+00 2.5034785370764059e+00 0 0 -1
476 159 2 4.0999999999999998e-01 -5.3939579081679945e+00 -1.2810179567003264e+01 4.1014634477216756e+00 0 0 0
477 159 2 4.0999999999999998e-01 -5.5329085177541746e+00 -1.1445819494169411e+01 3.2150318856902391e+00 0 0 0
502 168 1 -8.1999999999999995e-01 -1.4353313594819138e+01 -1.3300678639769210e+01 6.2856282784803952e-01 -1 2 0
1562 521 2 4.0999999999999998e-01 -8.3073062855492275e+00 -7.3465171762874064e+00 6.8684452822675546e-01 -2 -1 -1
498 166 2 4.0999999999999998e-01 -5.4019953325604533e+00 -1.0032875449819873e+01 5.5089953344958786e-01 -1 0 0
2046 682 2 4.0999999999999998e-01 -1.2791581073660780e+01 -1.2654098997922649e+01 8.3913747798179372e-01 1 -1 -1
2457 819 2 4.0999999999999998e-01 -1.4051305021285208e+01 -9.6065998745980394e+00 5.5133196453015199e+00 2 1 0