2593
Atoms. Timestep: 18495000
O -12.0162 -9.9611 -5.97791
H -12.0544 -9.07924 -6.44788
H -11.9968 -10.6982 -6.6534
O -2.15166 0.873903 -11.0204
H -2.39791 -0.0737224 -10.817
H -1.18657 1.02133 -10.8039
O -4.32412 -10.5938 0.363069
H -3.50618 -10.0337 0.23165
H -4.54001 -10.6449 1.33816
O -12.8984 -3.00657 -10.9282
H -13.5213 -2.48226 -11.5089
H -12.1839 -2.40252 -10.5752
O 7.163 -5.31932 12.3267
H 7.44883 -5.2129 13.2791
H 6.17313 -5.19403 12.2598
O 3.1397 13.6027 -1.90048
H 2.486 14.2619 -1.52871
H 4.07041 13.8993 -1.68636
O -2.52265 -7.72028 -5.70642
H -2.07423 -8.39527 -5.12048
H -2.24681 -7.86774 -6.65625
O 11.4946 -5.99709 -9.40912
H 10.52 -5.77372 -9.42689
H 11.9592 -5.40933 -8.74682
O -10.5483 -11.8478 7.35386
H -10.6277 -11.3212 8.20029
H -10.3538 -12.8039 7.57309
O 11.0085 -10.0564 1.21102
H 11.0389 -10.5762 0.357262
H 10.4683 -10.5574 1.88723
O -14.632 7.48295 -6.13698
H -13.8925 7.86186 -6.69345
H 14.6343 7.75246 -6.52542
O -0.290038 10.4078 12.989
H 0.00364946 10.1493 12.0687
H -0.155114 9.63651 13.6109
O -0.91296 11.2563 -9.46219
H -1.73824 11.0676 -9.99447
H -0.948659 12.1924 -9.11248
O 5.00445 -2.20013 -6.91919
H 4.9748 -1.41084 -6.30587
H 5.5362 -1.96928 -7.73402
O 5.17214 -13.7591 -11.4618
H 4.50472 -13.9701 -12.176
H 6.01204 -13.4151 -11.8817
O -5.80849 -11.4588 -13.9779
H -6.70593 -11.0254 -13.8956
H -5.32697 -11.3968 -13.1037
O -4.18921 5.76813 -4.64921
H -4.27394 4.81196 -4.9295
H -3.23066 6.04781 -4.70387
O -3.97005 10.0255 -4.76939
H -3.61748 9.56762 -5.58548
H -3.77694 9.46587 -3.96348
O -4.21544 6.71209 -10.6842
H -5.12849 7.11371 -10.613
H -4.10584 6.29083 -11.5845
O 12.7637 6.96669 2.81158
H 12.3988 7.03319 1.88289
H 12.9956 6.01465 3.0112
O -6.13354 7.4272 9.00191
H -5.81532 6.48043 9.05071
H -6.66795 7.64178 9.81946
O -13.7736 7.3824 4.52986
H -13.0069 8.02427 4.54138
H -13.8561 6.97798 3.619
O 6.35341 -11.7114 6.71711
H 6.73265 -11.3529 7.57017
H 5.78721 -12.5117 6.91435
O -1.57222 -13.8796 -12.1225
H -0.980128 -14.194 -11.3805
H -1.10392 -13.1654 -12.6427
O 7.84739 15.0209 7.90785
H 7.83122 14.042 7.70422
H 7.96272 -14.6113 7.05859
O -9.04553 -1.87703 6.42418
H -8.798 -1.01536 6.86719
H -9.63825 -1.69074 5.64061
O -6.26015 10.9669 6.68167
H -7.03923 10.4544 6.32054
H -6.53962 11.4628 7.50386
O 8.79581 -9.90152 -2.90618
H 9.76264 -9.80032 -3.14073
H 8.24918 -9.28416 -3.47194
O -8.87299 -14.5378 4.89397
H -9.72018 -15.0428 5.05924
H -8.10811 -15.0219 5.31902
O -12.7077 -7.72319 -7.37977
H -12.6623 -6.87139 -6.85785
H -13.6516 -8.05294 -7.39817
O -6.00059 -11.9604 10.9724
H -6.30178 -11.2026 11.5512
H -6.13321 -11.7187 10.0111
O 6.31224 1.31257 -9.51624
H 6.49253 0.703812 -10.2888
H 6.81646 0.991834 -8.71443
O 14.2007 9.73734 -10.1631
H 14.6163 10.1135 -9.33501
H 13.3211 10.184 -10.327
O 1.54922 -5.02548 -4.89788
H 2.44521 -5.0829 -5.33825
H 0.847358 -4.85965 -5.59063
O -6.47019 10.2803 -12.7155
H -5.85651 10.058 -13.4731
H -6.83762 9.43601 -12.3254
O 13.2884 -10.3012 -1.91296
H 13.7235 -11.1351 -2.25282
H 13.2618 -9.61799 -2.64267
O 7.30218 -13.1228 10.0126
H 6.89929 -13.2369 10.9207
H 7.30693 -14.0026 9.53714
O -0.461546 -4.88894 -11.5291
H -0.588445 -5.69092 -10.9453
H -1.22388 -4.25564 -11.3957
O 4.66564 7.38791 1.21425
H 4.40118 7.34884 0.250641
H 3.86194 7.59426 1.77237
O 2.08039 2.90208 11.0136
H 1.77619 1.97513 10.794
H 2.78247 2.8628 11.7246
O 4.57586 12.1362 -3.61666
H 3.87835 12.5752 -3.05026
H 4.23699 11.2515 -3.93682
O -2.66457 13.1095 -4.88457
H -3.21191 12.2961 -5.08144
H -3.03039 13.5696 -4.07558
O 7.06786 10.8621 13.2392
H 7.68485 11.4188 13.7954
H 7.58595 10.422 12.5058
O 14.8662 13.013 -4.17537
H -14.468 13.5403 -4.42154
H 14.5498 13.2923 -3.26879
O 13.3861 -1.68671 -8.47646
H 12.7476 -2.28617 -7.9937
H 12.8823 -1.11726 -9.12603
O 5.93458 -13.6416 -8.83575
H 5.81669 -13.6488 -9.82875
H 5.98652 -14.5819 -8.49941
O -7.16475 -8.32937 -13.348
H -7.99325 -8.87559 -13.2245
H -7.41494 -7.40407 -13.633
O -5.47769 -3.82728 -10.3468
H -6.1788 -4.38724 -9.90532
H -5.11411 -3.16821 -9.68841
O 4.07955 5.25846 -3.16682
H 3.98194 6.089 -2.61845
H 4.80249 5.38995 -3.84512
O 6.00748 9.51436 -12.8404
H 6.92943 9.74432 -12.5287
H 6.06419 8.86264 -13.5968
O 8.60821 3.43351 12.8676
H 8.30292 3.62284 13.8009
H 9.59475 3.26997 12.8664
O 11.9886 0.348957 -10.3972
H 11.3953 -0.130178 -11.0441
H 11.4961 1.1265 -10.0062
O 5.91478 -5.82549 2.50809
H 5.24046 -5.18226 2.8708
H 6.81755 -5.39535 2.50471
O 12.6759 6.56252 -12.6935
H 13.089 6.76561 -13.5813
H 11.6837 6.67129 -12.7549
O -12.3815 11.2292 10.636
H -12.3106 10.8426 9.71649
H -11.629 11.8703 10.7869
O 3.26586 7.17946 -13.9685
H 3.87344 6.38522 -13.9747
H 3.6034 7.85225 -13.3102
O -7.93828 -4.15112 6.07494
H -8.24831 -3.22552 6.29209
H -8.29318 -4.42004 5.17954
O 13.8943 6.67099 14.8636
H 14.8768 6.80699 14.7363
H 13.6743 5.70219 14.7493
O 11.5352 10.5377 2.27592
H 12.2062 10.5231 3.01733
H 10.6998 10.9878 2.59123
O -14.6955 1.33294 -0.208143
H -14.6001 2.11923 -0.818606
H -14.652 0.488838 -0.742571
O 13.7109 -8.60734 -4.22129
H 13.6485 -8.19552 -5.13043
H 14.5178 -9.19631 -4.17678
O -1.18757 -3.06491 -4.18571
H -1.32589 -4.05159 -4.09997
H -0.306647 -2.81563 -3.7834
O 6.86681 -1.10075 14.4865
H 7.02952 -1.74995 13.7435
H 5.91643 -0.791065 14.4564
O -3.86643 5.60924 -13.4235
H -3.22984 6.27132 -13.819
H -3.38087 4.75809 -13.2241
O -13.3657 3.10966 13.6679
H -13.7479 3.11149 12.7438
H -13.6553 2.28084 14.1467
O -1.046 4.62651 -7.60721
H -1.88468 5.13854 -7.79282
H -1.22881 3.6467 -7.6883
O 9.60932 6.62148 -9.52451
H 9.91965 6.37163 -10.4417
H 10.2924 6.3361 -8.85225
O 7.78068 -4.88455 14.9099
H 7.24352 -5.23363 -14.4697
H 8.75476 -4.9975 -15.0416
O 6.7792 9.98954 1.94905
H 7.57968 9.39019 1.95442
H 6.07804 9.61465 2.55554
O -8.3769 1.67502 -5.89233
H -8.5211 0.853578 -5.34055
H -8.3764 2.4796 -5.29848
O 13.053 -7.33271 -6.64266
H 13.3142 -8.08298 -7.24999
H 13.5154 -6.49417 -6.9308
O 7.50741 4.37871 -3.58633
H 8.06177 4.35998 -2.75426
H 7.36249 3.44418 -3.91139
O -11.9992 -4.61445 12.2264
H -11.764 -4.31686 13.1517
H -12.2575 -5.58039 12.2425
O 7.67776 12.7831 -0.4799
H 8.02231 12.3624 -1.31914
H 8.41432 13.2937 -0.0362895
O -4.31112 3.30593 -5.60207
H -3.45698 3.149 -6.09787
H -4.9746 2.59974 -5.84928
O -12.494 -3.51683 1.84722
H -13.3751 -3.06702 1.70104
H -12.6285 -4.50674 1.89202
O -10.0859 -1.45431 14.8904
H -10.6494 -2.27901 14.9382
H -10.5408 -0.772468 14.3176
O -1.46492 -11.2333 4.49385
H -1.83692 -11.9643 5.06593
H -1.37726 -10.3976 5.03603
O 6.40581 5.33444 1.14605
H 5.714 6.0494 1.2473
H 7.30573 5.70691 1.37285
O -2.25777 -1.17521 -6.76809
H -1.3131 -1.44555 -6.95392
H -2.43977 -1.25208 -5.78779
O 13.9992 9.77617 10.2461
H 13.0151 9.6206 10.1598
H 14.4707 9.37083 9.46297
O -1.97451 -7.08045 -1.58333
H -2.96879 -7.18665 -1.59522
H -1.67515 -6.64934 -2.43453
O -11.5871 0.681483 -13.0573
H -11.8274 0.253446 -13.9286
H -11.5786 -0.0116455 -12.3366
O -2.02986 -1.95612 -11.1768
H -1.9642 -2.49882 -10.3395
H -2.76476 -2.3169 -11.7511
O 12.9909 9.11711 14.1728
H 12.0123 9.32283 14.1771
H 13.1369 8.18451 14.5028
O -10.3865 -10.7885 10.2609
H -10.1333 -10.2831 11.0859
H -10.2841 -10.1956 9.4622
O 13.6132 -4.97255 -14.9558
H 13.7461 -5.59951 14.4241
H 13.4391 -5.49772 -14.1228
O 8.91757 5.54705 -5.89151
H 8.11284 5.22911 -5.39018
H 9.74523 5.27158 -5.40252
O 2.81845 11.2475 14.9042
H 2.23242 11.6495 14.2007
H 3.5069 10.6652 14.4718
O -0.201785 -8.16055 11.9507
H -0.862982 -8.83665 12.2758
H -0.326943 -8.01731 10.9689
O 7.30912 -8.51269 -4.92309
H 7.95458 -8.58192 -5.68375
H 6.37499 -8.59751 -5.26983
O 12.6075 -0.24844 12.7131
H 11.8185 0.117533 12.2197
H 12.3603 -1.11927 13.138
O -6.14214 12.4608 9.07311
H -5.25732 12.9243 9.12008
H -6.19437 11.7685 9.79287
O -1.70578 12.5245 -1.21908
H -1.11067 12.8036 -0.465448
H -2.28517 11.7653 -0.922671
O 9.4287 -13.9344 -1.45342
H 8.52348 -13.5656 -1.66458
H 9.36198 -14.5544 -0.671649
O 10.0665 -12.6882 9.80031
H 10.5605 -11.829 9.667
H 9.08256 -12.5195 9.742
O 13.7501 4.6663 3.93732
H 14.2582 4.09294 3.29458
H 13.9358 4.36406 4.87231
O -8.94601 -12.7121 2.88952
H -9.54825 -11.9397 3.09115
H -8.94642 -13.3459 3.66307
O 7.28476 -1.47365 -8.12445
H 8.04209 -1.60125 -8.76491
H 7.54593 -0.804785 -7.42845
O 6.54399 4.19109 5.52611
H 6.45822 3.42879 6.16764
H 6.74222 3.83689 4.61218
O -2.49379 -5.92259 5.3669
H -3.30488 -5.39087 5.61067
H -2.75949 -6.68319 4.77453
O 4.42628 -0.282088 -5.1849
H 4.63765 0.530841 -4.64224
H 3.68665 -0.0727981 -5.82456
O 9.33011 11.6319 3.39327
H 8.4058 12.0132 3.40868
H 9.48014 11.0881 4.21899
O 3.56488 -1.07415 -11.5963
H 3.68048 -1.51037 -10.704
H 3.72774 -1.74569 -12.3192
O -10.1435 -5.41631 1.35758
H -9.88762 -5.65831 0.421651
H -11.1232 -5.21929 1.39488
O -4.05341 14.1639 -9.52312
H -4.03319 13.1963 -9.77468
H -4.53056 14.6828 -10.2324
O 12.9063 -6.54017 6.46612
H 13.8543 -6.29707 6.26075
H 12.8548 -7.51034 6.70306
O -5.74412 1.23603 -6.64633
H -6.71795 1.26696 -6.42114
H -5.63357 1.05468 -7.62352
O -3.81604 -9.80398 -8.09047
H -3.20331 -10.5056 -8.45419
H -4.12617 -10.0725 -7.17848
O 13.8247 6.95423 -10.0722
H 13.4922 6.84277 -11.0087
H 14.2416 7.85763 -9.9718
O 1.70171 -5.27631 3.51975
H 1.11702 -4.49502 3.73823
H 2.64935 -4.96923 3.43204
O -4.37999 -10.7816 -11.7923
H -4.59621 -9.81326 -11.6673
H -3.38762 -10.8996 -11.8283
O 14.7005 0.340995 -11.139
H 14.8834 0.943906 -11.9155
H 13.7151 0.300581 -10.9732
O -9.13312 0.392012 -3.49652
H -9.56127 1.29297 -3.56708
H -9.73395 -0.223534 -2.9865
O -0.983857 -9.45436 -4.19586
H -0.6358 -10.1121 -4.86385
H -0.2437 -9.17896 -3.5824
O -2.64559 -9.44283 12.6513
H -3.19294 -9.19692 13.4512
H -3.14357 -9.19921 11.819
O -9.99759 -9.11385 8.41497
H -9.95174 -8.16265 8.72015
H -9.87492 -9.152 7.42325
O 13.0812 -2.96211 -12.9763
H 12.5963 -3.69382 -12.4972
H 13.2252 -3.22634 -13.9299
O 13.1 -10.2793 -12.3327
H 14.017 -10.0001 -12.618
H 13.1012 -10.4751 -11.3521
O 8.93364 -11.9093 -14.7728
H 8.73036 -11.0872 14.8428
H 9.57933 -11.6831 -14.0434
O 11.2979 -5.02671 -12.3006
H 11.7611 -5.52273 -11.5661
H 10.6312 -5.62849 -12.7404
O -9.04256 12.8744 7.12178
H -8.39137 13.4208 6.59499
H -8.90023 13.0363 8.09829
O -10.3143 13.8735 1.08012
H -9.58666 14.0252 0.411088
H -10.0809 13.0887 1.65423
O -13.4691 3.33258 -8.6602
H -13.1752 3.74148 -9.52414
H -12.7792 3.50611 -7.95747
O 12.6007 -2.81778 7.99018
H 13.4394 -3.28419 7.70906
H 12.228 -3.26375 8.80397
O -11.5614 4.64932 -6.87305
H -11.1326 5.53815 -7.03453
H -12.055 4.67044 -6.00362
O -11.3912 -4.14153 14.9163
H -12.1115 -4.82411 14.7931
H -11.1162 -4.11682 -14.2701
O -10.6053 -10.4442 2.92831
H -10.1831 -9.62899 2.53181
H -11.3916 -10.7158 2.37325
O -5.54646 -12.2053 -2.81007
H -4.72917 -11.6291 -2.82028
H -6.1365 -11.9604 -3.57944
O -8.44123 -6.65772 11.6518
H -8.64185 -6.26959 12.5513
H -7.45081 -6.72504 11.5312
O -2.92923 13.2311 2.48823
H -3.00156 12.5999 3.26045
H -3.63722 13.017 1.81524
O 1.14533 15.0045 -7.55025
H 1.6121 14.5112 -6.81624
H 1.7892 -14.9655 -8.29452
O 9.36156 3.4248 -7.96435
H 10.2905 3.16626 -8.22932
H 9.35264 4.38054 -7.67022
O 10.3814 -14.5663 4.47851
H 10.3334 14.9312 3.72005
H 9.5111 -14.5638 4.97097
O -0.929828 13.6014 -11.8005
H -1.33961 12.7435 -11.4906
H -1.65326 14.2487 -12.0406
O -14.5432 -14.0401 14.8102
H 14.661 -14.0524 -15.0058
H -14.193 -14.9758 14.7667
O -11.7517 4.58878 -14.6257
H -12.2346 4.26795 14.707
H -10.9953 5.18317 -14.8988
O -0.43061 -9.60397 2.38786
H 0.564831 -9.56518 2.30063
H -0.680981 -10.3289 3.02952
O -7.53057 8.96841 1.09663
H -6.83482 9.13126 0.397047
H -7.09757 8.94245 1.99766
O 0.0421993 -5.09395 -7.33357
H 0.762059 -5.71861 -7.63625
H -0.798524 -5.28341 -7.84082
O -3.9802 -2.79574 -3.90766
H -2.99068 -2.78669 -3.76351
H -4.42418 -3.2628 -3.14297
O -13.0138 0.91811 7.22452
H -12.9259 0.310368 6.43527
H -13.8533 0.699146 7.7219
O -1.27011 -5.84132 7.77523
H -1.67254 -5.6324 6.88393
H -1.69375 -5.26638 8.47523
O 8.56856 -6.29036 7.93877
H 9.04832 -6.07935 7.08711
H 8.06202 -7.14604 7.8328
O 1.33336 -4.02142 10.2121
H 1.98496 -3.26539 10.15
H 1.79902 -4.83509 10.5601
O 5.39652 -10.1762 -13.4411
H 5.38103 -9.79437 -12.517
H 6.07882 -10.9057 -13.4889
O -4.05319 -2.67538 -12.6756
H -4.56158 -3.23205 -12.0185
H -4.62168 -1.90827 -12.9728
O -12.4946 0.317954 2.02365
H -13.1672 0.64174 1.35817
H -12.6042 0.82192 2.88041
O 11.1707 0.901977 2.32084
H 10.1815 0.795363 2.42126
H 11.5604 1.22488 3.18333
O -6.4826 11.3844 -4.22644
H -6.93083 10.6708 -3.68807
H -5.52473 11.1382 -4.3744
O 9.91348 -7.14366 3.61414
H 10.8596 -7.42122 3.44742
H 9.49133 -6.86384 2.75188
O 5.34704 -4.76736 5.76319
H 5.08968 -4.88481 6.72235
H 6.16126 -5.31388 5.56724
O 0.816038 10.5587 10.3982
H 0.674648 11.5265 10.1903
H 0.505968 10.0032 9.62665
O 3.11991 -14.9631 5.5898
H 3.78274 -14.4681 5.02802
H 3.20149 14.2032 5.41473
O -9.63256 13.0704 -6.15263
H -10.5049 12.7386 -5.79369
H -9.22548 13.71 -5.50054
O 7.96891 3.69263 -14.6054
H 7.81495 4.67571 -14.5061
H 7.12549 3.19985 -14.3913
O -14.0643 4.88384 -0.660992
H -13.6472 5.34573 -1.44379
H -14.7682 4.25103 -0.983573
O 1.12408 -11.2873 10.1613
H 0.833095 -12.1761 9.80723
H 1.05966 -10.6022 9.43577
O 5.15594 -13.2586 -3.32878
H 4.88147 -12.619 -4.04678
H 4.46077 -13.2712 -2.61004
O -6.54395 0.904348 -2.85796
H -6.08468 0.329084 -3.53484
H -7.53356 0.850671 -2.99137
O 11.3289 -7.71972 -14.5461
H 11.1975 -6.76078 -14.7975
H 11.585 -8.24492 14.7898
O -8.31895 -12.0496 -10.5748
H -7.87284 -11.8409 -9.7045
H -8.38084 -13.0413 -10.6883
O 5.94817 7.92536 14.7784
H 5.43683 8.48108 14.1228
H 5.44463 7.08164 14.9644
O -14.4737 -8.35584 14.868
H -13.8233 -8.44941 -14.5257
H -14.8382 -9.25576 14.6286
O 11.9084 5.28315 -8.78013
H 12.0539 5.77889 -7.92392
H 12.6152 5.54113 -9.43888
O 6.55863 7.91819 -5.54789
H 6.27623 8.84437 -5.7978
H 7.47644 7.74213 -5.90375
O 14.1729 10.5609 -5.77009
H 13.7262 9.82233 -5.26521
H 14.2956 11.3497 -5.16777
O -10.0935 -6.53366 -4.6276
H -10.1869 -5.7226 -4.05015
H -10.1286 -6.26361 -5.58981
O -4.68987 -12.8384 -9.82619
H -4.46249 -13.3534 -10.6527
H -4.79767 -11.871 -10.0553
O 3.03868 1.24065 -10.5261
H 3.37952 1.28965 -9.58722
H 3.38315 0.409603 -10.9628
O -0.57618 -8.81737 6.13836
H -1.49294 -8.41849 6.15968
H 0.0701154 -8.14801 5.77193
O 10.3972 -13.6588 -3.96912
H 9.96097 -13.5724 -3.07346
H 9.76541 -13.3477 -4.67905
O 12.0863 -4.56888 -5.16198
H 12.0727 -5.56387 -5.26116
H 13.0336 -4.24956 -5.13456
O 9.26744 -2.39827 -10.0509
H 9.77424 -2.30477 -10.9079
H 9.82288 -2.90072 -9.38827
O 4.65354 -9.37971 9.95088
H 5.56226 -9.79431 9.90241
H 3.96904 -10.0399 9.64164
O 10.1793 1.00428 -2.378
H 10.5965 1.08216 -3.28348
H 10.894 0.865285 -1.69253
O -9.63781 -12.3122 -14.2398
H -9.51393 -11.6129 -13.5356
H -10.6087 -12.5386 -14.3175
O 7.6225 -6.66681 -1.89668
H 8.43673 -6.54279 -2.46383
H 7.69185 -6.08943 -1.08315
O -3.14504 -7.7739 3.16316
H -2.14707 -7.83595 3.17828
H -3.53629 -8.69419 3.16519
O 8.61226 -0.0715116 2.57425
H 8.20777 -0.400421 1.72089
H 7.90445 -0.0145035 3.27836
O 4.22248 -6.80003 -7.43251
H 3.32184 -6.84677 -7.86457
H 4.27372 -5.98449 -6.85607
O -5.85544 -14.3864 7.1934
H -6.16716 -13.6706 7.8183
H -5.51047 -13.9682 6.35309
O 6.7471 -4.17546 8.47626
H 7.66123 -3.77065 8.45366
H 6.8228 -5.17189 8.43878
O -0.51463 -7.55797 -10.257
H -1.49901 -7.68084 -10.3832
H -0.0297945 -8.35123 -10.6254
O -9.62884 8.57167 -13.7073
H -10.1082 8.07404 -14.4302
H -8.66051 8.32213 -13.7164
O 4.71615 -2.55561 -3.09635
H 4.95187 -3.52662 -3.13609
H 5.08512 -2.08985 -3.90067
O 9.89223 6.48909 -12.729
H 9.74504 5.54088 -12.4475
H 9.39726 6.66482 -13.5799
O 6.03016 -6.84732 -9.80109
H 6.2809 -5.89331 -9.96543
H 5.45064 -6.90436 -8.98813
O 3.06105 -5.57302 11.6832
H 2.53886 -5.36847 12.5111
H 3.71871 -6.30142 11.8753
O 8.16942 13.5147 11.4733
H 7.461 12.8552 11.2219
H 7.74419 14.3177 11.8908
O 3.48751 9.83375 10.5281
H 3.38287 9.11646 9.83918
H 2.64233 10.365 10.5872
O -12.7016 -11.4637 1.21534
H -13.5122 -11.0183 0.835142
H -12.9778 -12.0989 1.93662
O -13.5674 13.2627 6.25927
H -13.9672 13.0947 5.35818
H -14.2889 13.5243 6.90046
O 13.9318 8.09098 5.08321
H 13.3914 7.52405 4.46142
H 14.9039 7.89678 4.95155
O 14.9899 -2.51431 1.76493
H 14.7096 -1.5552 1.80465
H 14.2294 -3.07017 1.42919
O -8.55605 6.31416 -0.649784
H -7.67398 6.65451 -0.975565
H -8.4243 5.81077 0.204177
O -5.93756 -7.01189 3.22607
H -4.96937 -7.04773 2.97841
H -6.42429 -6.42012 2.58348
O -1.03861 1.11234 14.0489
H -1.72218 0.923266 14.7539
H -1.43684 0.949239 13.1462
O 9.45838 -9.41757 -6.50476
H 9.69565 -8.48928 -6.79111
H 9.83719 -9.59315 -5.59608
O -8.35803 -4.44459 -11.7629
H -7.97705 -5.06626 -12.4473
H -8.18407 -4.80898 -10.8481
O -14.7138 -5.07532 4.75374
H -13.7401 -4.96546 4.55426
H -14.9357 -4.59861 5.60436
O -2.65461 -13.7153 -5.06406
H -3.3787 -13.8177 -5.74615
H -2.88922 -14.2424 -4.24724
O 7.99374 -13.2888 2.25847
H 7.06063 -13.3432 1.90301
H 8.05553 -12.5409 2.91944
O 11.5172 -11.2964 12.3706
H 12.0361 -11.2138 11.5198
H 11.9195 -12.0149 12.938
O -10.1605 -13.1792 11.5103
H -9.20469 -13.3738 11.7309
H -10.2339 -12.2568 11.1313
O 3.74551 -12.4566 -7.69934
H 4.54408 -12.793 -8.19848
H 2.97603 -13.0788 -7.84331
O 2.86256 10.3812 7.48416
H 1.9132 10.6017 7.708
H 3.44794 10.5963 8.26587
O -7.62597 9.14864 -2.97981
H -8.58737 9.18326 -3.25281
H -7.12284 8.55324 -3.60621
O -3.30521 -3.01615 14.6924
H -3.62222 -2.19534 14.2172
H -3.10055 -2.79163 -14.5023
O -11.551 4.18428 -2.05552
H -12.215 3.46139 -2.24674
H -11.8659 5.04209 -2.46173
O -5.00551 -2.29566 7.66636
H -5.40723 -1.47749 8.07775
H -4.02383 -2.15592 7.53682
O 12.0032 7.62397 0.428667
H 11.3533 8.25232 0.856267
H 12.8045 8.13452 0.116766
O -5.5593 -5.90783 11.5435
H -4.83462 -5.42573 12.0359
H -5.69 -5.48628 10.6461
O -11.2905 11.8428 6.19472
H -10.546 12.3566 6.62097
H -12.1088 12.4159 6.15116
O 8.83738 0.867402 -14.5068
H 8.41537 0.0959231 -14.9829
H 8.42467 1.72116 -14.8242
O 4.67424 14.505 -4.99527
H 4.57468 13.6605 -4.46913
H 5.18496 -14.9724 -4.45656
O -3.78605 14.3451 8.60289
H -4.20527 14.7307 7.78093
H -2.81566 14.5856 8.62626
O -11.1909 -0.532834 -10.7199
H -11.9232 -0.0288423 -10.2619
H -10.3049 -0.204584 -10.3922
O -12.6403 -8.92097 -13.3711
H -12.2695 -8.16505 -12.8316
H -13.1759 -9.52233 -12.7783
O 11.1102 5.47975 10.4207
H 10.2506 5.50325 9.91016
H 11.838 5.8839 9.86668
O -12.2814 -7.4479 -2.93831
H -11.4631 -7.14372 -3.42604
H -12.0508 -8.22474 -2.35237
O 15.0133 -6.26271 -10.6418
H 14.2877 -6.33715 -11.3258
H -14.8236 -7.17776 -10.3844
O 2.2204 -8.33591 13.5241
H 1.64357 -7.94455 12.8071
H 3.13715 -7.9405 13.4673
O -4.32351 -4.43154 -6.11399
H -4.29663 -3.8447 -5.30473
H -3.96669 -5.33636 -5.88158
O -4.0803 2.82411 14.4892
H -4.30514 3.54024 -14.9975
H -3.53928 3.21542 13.7448
O 14.0485 -5.22589 -8.27955
H 14.8683 -4.68515 -8.09087
H 14.017 -5.45502 -9.25244
O 4.20465 13.1977 8.97047
H 4.95946 13.1332 8.31769
H 4.47364 13.7846 9.73412
O -7.11977 -11.7328 -8.15748
H -6.97803 -10.9409 -7.56347
H -6.26143 -11.9636 -8.61574
O -14.4913 -6.98377 8.00335
H -14.5535 -7.54317 8.82993
H -13.8531 -7.40806 7.36095
O -13.0682 -11.9824 6.20355
H -13.5948 -12.6794 6.69044
H -12.0926 -12.1241 6.37126
O -1.169 -4.95925 0.550666
H -1.20985 -5.53711 1.36579
H -1.72619 -5.36502 -0.173839
O 8.52813 -3.04266 -3.14078
H 9.50594 -2.83391 -3.12254
H 8.34719 -3.73042 -3.84382
O 13.1168 14.439 3.56069
H 14.0322 14.0725 3.72767
H 13.1433 -14.7101 3.61064
O -14.3084 -10.2587 -4.29321
H -14.5277 -11.1085 -3.81402
H -13.3431 -10.2629 -4.55449
O 9.49363 6.24064 12.4743
H 9.88771 5.56882 11.8471
H 9.64888 7.16158 12.1168
O 4.54072 -7.77834 7.67716
H 4.47718 -8.17227 8.59411
H 3.77392 -7.15383 7.52881
O 11.8478 -13.1535 -8.72126
H 11.2154 -13.0547 -9.48953
H 12.2061 -14.087 -8.70251
O 1.93803 1.34638 -6.17046
H 2.05812 1.81963 -5.29775
H 2.51513 1.77621 -6.86489
O 13.9858 14.6111 -8.0908
H 14.7279 14.9992 -8.63728
H 14.1523 14.7973 -7.12249
O -2.11002 -0.513139 10.7384
H -2.98516 -0.952648 10.536
H -1.55474 -1.12155 11.3055
O -8.90699 -14.7991 -4.44955
H -9.16722 -14.3112 -3.61637
H -8.57643 -14.1447 -5.12961
O 12.0873 2.15491 4.38863
H 13.0568 2.19537 4.63041
H 11.8163 3.01337 3.95322
O -14.9678 -13.5795 7.45417
H -15.0152 -13.9783 8.37
H 14.2673 -13.2826 7.17228
O 8.8599 6.34577 1.94374
H 8.54196 6.57839 2.86288
H 9.06258 7.18483 1.43885
O -5.97836 9.43983 14.7929
H -5.58218 10.3518 14.6863
H -5.58949 8.82524 14.1065
O -5.81889 14.2015 -7.42171
H -5.28632 14.1764 -8.26773
H -6.24689 13.3104 -7.27075
O -14.8874 12.7528 4.00974
H 14.6197 12.0403 4.29633
H -14.6617 12.6291 3.04343
O 3.80024 -12.0441 -0.705286
H 3.94265 -11.5005 -1.53248
H 2.92678 -11.7933 -0.28792
O -3.19222 -7.61854 -9.78008
H -3.20068 -8.29752 -9.04597
H -4.01448 -7.72239 -10.3397
O -7.7623 -14.1389 -15.0125
H -8.51945 -13.6088 -14.6308
H -7.75042 -14.0347 14.1405
O -10.4177 8.69531 11.4947
H -11.0852 8.57601 10.7598
H -9.60104 8.15404 11.2943
O 11.2183 9.8286 9.85903
H 11.0084 10.8048 9.91404
H 10.6869 9.41449 9.12008
O 3.87544 0.883707 9.06664
H 3.53965 0.356846 8.28582
H 3.55289 1.82758 8.99536
O -14.4877 4.73389 -5.33935
H -14.5576 5.69892 -5.59201
H -14.9214 4.17254 -6.04416
O 7.32273 -11.361 4.15502
H 6.75964 -11.3313 4.98089
H 8.03536 -10.6618 4.21215
O 10.3585 -11.4098 3.55614
H 10.3171 -10.8189 4.36177
H 10.3371 -12.3674 3.84372
O 4.75379 13.3379 -14.2032
H 4.11859 14.0455 -13.8937
H 4.2421 12.5138 -14.4462
O 0.3455 7.0313 3.59904
H -0.146705 7.04655 2.72869
H 0.056614 6.23562 4.13145
O 7.00998 -2.24847 1.27235
H 6.36444 -2.83255 0.780263
H 6.85991 -2.34123 2.25667
O -12.149 14.779 11.5316
H -11.7729 13.964 11.0908
H -11.4119 -14.7175 11.7129
O 3.11841 -0.629476 7.05253
H 4.0643 -0.931026 6.93263
H 2.5167 -1.18232 6.47606
O -2.89269 14.9448 -2.67404
H -3.72416 -15.0069 -2.15411
H -2.33233 14.2866 -2.17116
O 4.63777 -7.55499 12.3012
H 4.637 -8.04422 11.429
H 5.4604 -7.79438 12.8169
O 11.6328 5.55599 -5.14964
H 12.1792 5.46485 -4.31707
H 11.8886 6.39739 -5.62572
O 11.2626 -3.14245 -7.62522
H 11.4776 -3.71079 -6.831
H 10.8055 -2.30605 -7.32267
O -4.96991 -14.4105 -1.00119
H -5.26492 -13.8164 -1.74955
H -4.28563 -13.9351 -0.44818
O 13.7932 -6.09349 2.32153
H 13.1545 -6.81639 2.58516
H 14.1957 -5.68861 3.14256
O -13.233 11.5407 13.2171
H -12.7267 11.396 12.367
H -13.8401 10.7629 13.38
O -3.91531 2.22206 9.94847
H -3.18622 1.77668 9.42878
H -4.75175 1.67794 9.88269
O -5.04539 -0.837146 10.752
H -5.29115 -0.188468 10.0317
H -5.77249 -1.51652 10.851
O -0.00104367 9.54585 -5.91179
H -0.873294 9.23197 -6.28686
H -0.0756681 10.5098 -5.65623
O -12.0874 0.0381287 -7.0193
H -12.6319 0.246517 -7.83176
H -11.7979 0.890794 -6.58438
O 4.20491 -9.93875 4.75303
H 4.28727 -9.81529 5.74197
H 4.9586 -9.46794 4.29444
O 4.91058 -11.6023 -5.50271
H 4.36663 -12.0797 -6.19283
H 4.86003 -10.6164 -5.66186
O 2.50079 8.53059 2.73882
H 1.74295 8.08672 3.21702
H 2.14164 9.08948 1.99139
O -12.7945 13.0843 -8.49894
H -11.9893 12.508 -8.63843
H -12.9617 13.6282 -9.32134
O -11.5329 -13.8234 -0.493717
H -11.5943 -13.0515 0.139103
H -11.6009 -14.68 0.0177886
O -2.00367 13.4328 -7.82896
H -2.81266 13.725 -8.33899
H -2.2056 13.4424 -6.8496
O -11.5735 3.56786 2.30112
H -10.8281 3.79293 2.92858
H -11.3802 3.95736 1.40059
O -2.56732 8.51466 -6.52612
H -2.56419 8.59231 -7.5231
H -2.38465 7.56677 -6.26504
O 14.9409 8.77519 7.7276
H 14.3515 9.00467 6.95308
H -14.2485 8.86889 7.45661
O -12.61 -2.59327 -3.19867
H -12.8976 -3.52802 -2.99008
H -12.2429 -2.55706 -4.12817
O -11.0542 -9.91007 -1.32164
H -10.1621 -9.46929 -1.22238
H -11.4789 -10.0095 -0.421745
O 5.073 -3.8634 10.938
H 4.29413 -4.38315 11.289
H 5.35989 -4.24537 10.0594
O -4.5615 -8.49352 -1.79038
H -4.45421 -9.46962 -1.60137
H -4.89088 -8.36949 -2.7264
O 14.487 0.202758 2.00939
H 14.7506 0.793601 1.2469
H 15.0247 0.441981 2.81786
O 14.8637 -11.0056 14.2229
H -14.689 -11.2563 13.4591
H 14.3681 -11.8146 14.5388
O 14.6028 3.91508 6.34188
H 14.6687 3.02479 5.89125
H 13.8077 3.92371 6.94831
O 0.532044 13.3103 0.170697
H 0.492578 13.9515 -0.595731
H 0.737997 13.8094 1.01245
O -14.098 -2.83023 -8.31118
H -13.7273 -2.91025 -9.23648
H -14.9145 -2.25306 -8.32799
O 1.79434 10.7326 -8.0812
H 0.809427 10.8992 -8.12843
H 1.96094 9.75686 -7.93907
O 11.1298 1.72569 10.8589
H 11.7763 2.42273 11.1691
H 10.7895 1.96751 9.95023
O 10.6645 7.63645 4.73743
H 9.97967 8.34929 4.88885
H 11.2257 7.87631 3.94531
O -5.81217 -0.74696 -4.92777
H -5.09656 -1.30516 -4.50787
H -5.40262 -0.131036 -5.60077
O -12.7885 -6.3704 2.48749
H -12.5659 -6.3366 3.46184
H -13.3901 -7.14918 2.30981
O 10.1566 -12.5496 -10.5951
H 9.73261 -13.383 -10.9498
H 10.4657 -11.9821 -11.3583
O -11.4648 -6.79153 -11.7575
H -11.2283 -6.94912 -10.7987
H -11.2115 -5.85883 -12.0143
O 7.34006 -1.03769 -1.65823
H 7.54384 -1.71972 -2.3606
H 6.97438 -1.49377 -0.846885
O -7.70494 12.796 12.3503
H -6.7651 13.1319 12.4126
H -7.75451 11.872 12.7296
O -11.3395 7.7458 7.32221
H -11.777 6.8472 7.28823
H -10.6247 7.74226 8.02147
O -5.04832 -14.0119 14.6864
H -5.68092 -14.6113 -14.9706
H -5.26315 -13.0579 14.8956
O 5.68329 -9.41889 -10.9257
H 6.13735 -9.98802 -10.2402
H 5.84302 -8.45409 -10.7167
O -7.64621 7.65239 11.1573
H -7.12618 8.08657 11.8929
H -8.17248 6.88709 11.5279
O 8.07329 -0.349698 6.68451
H 9.04277 -0.355315 6.43936
H 7.5536 0.130649 5.97797
O 9.20763 -6.6228 1.06206
H 9.40337 -7.47603 0.578628
H 9.87122 -5.92586 0.790162
O 1.46574 -2.31942 5.42756
H 0.632939 -2.84009 5.23955
H 2.19454 -2.62338 4.81398
O 5.63112 -6.57604 -14.0311
H 5.71135 -7.11739 -14.868
H 4.67576 -6.55784 -13.7362
O -14.0483 -9.54856 5.04185
H -13.6659 -10.4091 5.37834
H -13.5109 -8.78362 5.39685
O -1.1563 -12.8286 -1.25617
H -1.19262 -13.6639 -1.80478
H -1.92859 -12.8131 -0.621078
O -2.05935 1.58551 7.89588
H -2.88643 1.27895 7.42472
H -1.25861 1.15917 7.47509
O 9.35357 9.38184 -9.89882
H 8.94448 9.74639 -10.7353
H 9.37942 8.38338 -9.94812
O -7.70268 0.43441 3.11195
H -7.22497 -0.365059 2.74773
H -7.21119 0.781028 3.9109
O 12.7312 -4.4934 10.2868
H 12.9004 -5.26685 10.8977
H 13.599 -4.17197 9.90775
O 0.222131 9.3784 7.99314
H 0.158928 9.45778 6.99829
H -0.0328191 8.45206 8.27047
O 8.10688 -6.553 -12.8251
H 7.24583 -6.53048 -13.3332
H 8.12901 -5.79525 -12.1729
O -11.295 14.49 5.58708
H -12.1963 14.3503 5.9971
H -11.3786 14.4907 4.59057
O 11.4617 4.86128 0.0680548
H 11.3822 5.82178 0.334765
H 10.5751 4.53075 -0.255575
O 8.82585 7.23632 14.8597
H 8.99957 6.72748 14.0166
H 7.8663 7.51644 14.8883
O -6.94895 -4.34701 -6.44524
H -7.16535 -3.37099 -6.42116
H -5.96943 -4.47517 -6.28993
O -11.5511 13.1495 -2.98549
H -10.6145 13.3634 -2.70766
H -11.6313 12.1679 -3.15892
O 7.00834 0.0241502 -12.1413
H 6.77793 -0.936602 -12.2958
H 7.82379 0.260504 -12.6697
O -2.18721 8.33749 -2.80327
H -1.60519 7.63397 -3.21111
H -1.71259 9.21738 -2.82646
O -12.9574 13.9948 -5.1135
H -12.4411 13.6155 -4.34569
H -12.7664 13.4632 -5.93869
O 14.4262 3.13956 -7.28874
H -14.8924 3.4145 -7.77602
H 14.1974 2.19557 -7.52652
O -8.38378 5.34209 12.2632
H -7.6758 4.69181 12.5386
H -9.12357 4.85333 11.8007
O -8.78815 10.1555 5.90054
H -9.07078 11.0513 6.24349
H -9.21477 9.43802 6.4512
O -9.40717 3.40737 -3.67747
H -10.1003 3.7224 -3.02909
H -8.95608 4.19718 -4.09309
O 13.3102 3.45649 -1.4333
H 12.9267 2.53315 -1.41521
H 12.7024 4.07964 -0.94113
O 8.94392 11.944 14.9622
H 9.86966 12.2526 14.7436
H 8.87001 11.7829 -14.2011
O -4.06397 -0.438954 13.3209
H -4.25258 0.518116 13.5411
H -4.17522 -0.582989 12.3376
O -4.25425 -5.44938 -12.9504
H -3.89266 -4.51854 -12.8973
H -5.15574 -5.48189 -12.5188
O 5.51457 -1.63749 7.44161
H 5.92509 -2.54616 7.51786
H 6.16135 -0.950642 7.77315
O 12.4699 1.0562 -0.810672
H 11.892 1.10306 0.00406692
H 13.2481 0.453734 -0.633133
O 13.9127 -12.6037 3.5207
H 13.4947 -12.7771 4.41242
H 14.9048 -12.7079 3.59174
O -0.136767 -14.3123 -3.99543
H 0.47362 -14.3987 -4.78281
H -1.04125 -14.0193 -4.30542
O -8.95278 -14.1208 -1.96578
H -9.95073 -14.0569 -1.9617
H -8.59864 -13.8639 -1.06657
O 1.70674 13.8017 -11.5545
H 1.94009 12.8302 -11.5955
H 0.719009 13.9025 -11.4351
O 1.19534 -14.5383 -1.48883
H 0.756637 -13.9035 -0.852749
H 0.701458 -14.5334 -2.35835
O -1.10969 4.11027 8.06436
H -1.49071 3.19407 7.94018
H -0.763797 4.20368 8.99798
O 1.22007 -9.65524 7.86821
H 1.76538 -10.4375 7.56714
H 0.603842 -9.37539 7.13203
O -2.69317 5.68539 13.6242
H -2.172 5.59401 14.4728
H -2.61131 4.84369 13.0905
O 6.67955 0.80878 4.5595
H 6.43707 1.50992 3.88895
H 6.40558 1.11162 5.47232
O 7.62383 -6.67231 5.12973
H 6.98769 -7.39338 5.4043
H 7.84867 -6.77728 4.16099
O -13.1767 2.94357 -12.6062
H -12.6241 2.13158 -12.4183
H -12.6898 3.53713 -13.247
O -5.99371 10.4155 11.1066
H -6.45464 10.261 11.9804
H -5.02506 10.6033 11.2693
O -8.76786 12.7335 -2.79333
H -8.49663 12.347 -3.67482
H -8.48192 13.6907 -2.74693
O -14.1292 5.25162 -11.2536
H -14.992 5.23147 -10.7485
H -13.929 4.33817 -11.6079
O 7.46543 12.436 7.70087
H 7.316 12.0617 8.61607
H 7.37678 11.7057 7.02352
O 7.48595 6.68041 4.32234
H 7.18467 7.53972 4.73564
H 7.24014 5.91826 4.92128
O -14.775 9.5121 -12.5074
H -14.6795 8.52195 -12.6099
H 15.0495 9.72207 -11.5846
O -13.7776 -13.4149 12.174
H -14.2444 -13.5205 13.052
H -13.1407 -14.1744 12.0416
O 11.1883 -8.53648 -10.1375
H 11.2612 -7.5758 -9.86953
H 10.7284 -8.60151 -11.0231
O 12.6265 -13.4949 5.7269
H 12.4418 -13.823 6.65331
H 11.9066 -13.8142 5.11051
O -10.5572 -7.74254 -9.18486
H -11.2684 -7.55986 -8.50593
H -10.6335 -8.6881 -9.50127
O -7.17675 -2.80766 11.0497
H -7.81391 -2.62679 10.3005
H -6.8936 -3.76636 11.0224
O -12.8677 13.8856 14.7695
H -12.9562 13.1166 14.1364
H -11.9327 14.2388 14.7364
O -3.14529 -4.96712 9.63706
H -3.09579 -4.80101 10.6219
H -4.06136 -4.74019 9.30639
O -2.86929 14.2143 5.61209
H -3.26927 13.3218 5.40374
H -2.11378 14.3961 4.98266
O 2.05381 13.9611 -5.11139
H 2.91356 14.461 -5.21589
H 1.95633 13.6603 -4.16269
O 10.4026 2.16189 8.15681
H 11.1209 2.85047 8.05785
H 10.4159 1.55023 7.36579
O 6.64418 7.15368 -2.9203
H 6.898 6.2763 -2.51311
H 6.59664 7.05837 -3.91462
O 12.6889 -13.2275 13.7622
H 12.0444 -13.8833 13.369
H 12.8433 -13.4483 14.7252
O -6.16204 3.74767 -1.33334
H -7.05242 4.07806 -1.02016
H -6.29415 3.00362 -1.98829
O 9.09738 -11.7134 -8.0387
H 9.14446 -10.7987 -7.6373
H 9.51815 -11.7014 -8.94579