LAMMPS Description

        8192 atoms
           0 bonds
           0 angles
           0 dihedrals
           0 impropers

           1 atom types
           0 bond types
           0 angle types
           0 dihedral types
           0 improper types

  0.000000  70.725913 xlo xhi
  0.000000  61.248641 ylo yhi
  0.000000  57.743779 zlo zhi

Masses

  1  18.015

Atoms
      
      1       1   1     0.00000       0.00000    0.00000    0.00000
      2       1   1     0.00000       4.42037    0.00000    0.00000
      3       1   1     0.00000       2.21018    3.82804    0.00000
      4       1   1     0.00000       6.63055    3.82804    0.00000
      5       1   1     0.00000       2.21018    1.27857    0.90225
      6       1   1     0.00000       6.63055    1.27857    0.90225
      7       1   1     0.00000       0.00000    5.10661    0.90225
      8       1   1     0.00000       4.42037    5.10661    0.90225
      9       1   1     0.00000       2.21018    1.27857    3.60899
     10       1   1     0.00000       6.63055    1.27857    3.60899
     11       1   1     0.00000       0.00000    5.10661    3.60899
     12       1   1     0.00000       4.42037    5.10661    3.60899
     13       1   1     0.00000       0.00000    0.00000    4.51123
     14       1   1     0.00000       4.42037    0.00000    4.51123
     15       1   1     0.00000       2.21018    3.82804    4.51123
     16       1   1     0.00000       6.63055    3.82804    4.51123
     17       1   1     0.00000       0.00000    0.00000    7.21797
     18       1   1     0.00000       4.42037    0.00000    7.21797
     19       1   1     0.00000       2.21018    3.82804    7.21797
     20       1   1     0.00000       6.63055    3.82804    7.21797
     21       1   1     0.00000       2.21018    1.27857    8.12022
     22       1   1     0.00000       6.63055    1.27857    8.12022
     23       1   1     0.00000       0.00000    5.10661    8.12022
     24       1   1     0.00000       4.42037    5.10661    8.12022
     25       1   1     0.00000       2.21018    1.27857   10.82696
     26       1   1     0.00000       6.63055    1.27857   10.82696
     27       1   1     0.00000       0.00000    5.10661   10.82696
     28       1   1     0.00000       4.42037    5.10661   10.82696
     29       1   1     0.00000       0.00000    0.00000   11.72921
     30       1   1     0.00000       4.42037    0.00000   11.72921
     31       1   1     0.00000       2.21018    3.82804   11.72921
     32       1   1     0.00000       6.63055    3.82804   11.72921
     33       1   1     0.00000       0.00000    0.00000   14.43594
     34       1   1     0.00000       4.42037    0.00000   14.43594
     35       1   1     0.00000       2.21018    3.82804   14.43594
     36       1   1     0.00000       6.63055    3.82804   14.43594
     37       1   1     0.00000       2.21018    1.27857   15.33819
     38       1   1     0.00000       6.63055    1.27857   15.33819
     39       1   1     0.00000       0.00000    5.10661   15.33819
     40       1   1     0.00000       4.42037    5.10661   15.33819
     41       1   1     0.00000       2.21018    1.27857   18.04493
     42       1   1     0.00000       6.63055    1.27857   18.04493
     43       1   1     0.00000       0.00000    5.10661   18.04493
     44       1   1     0.00000       4.42037    5.10661   18.04493
     45       1   1     0.00000       0.00000    0.00000   18.94718
     46       1   1     0.00000       4.42037    0.00000   18.94718
     47       1   1     0.00000       2.21018    3.82804   18.94718
     48       1   1     0.00000       6.63055    3.82804   18.94718
     49       1   1     0.00000       0.00000    0.00000   21.65392
     50       1   1     0.00000       4.42037    0.00000   21.65392
     51       1   1     0.00000       2.21018    3.82804   21.65392
     52       1   1     0.00000       6.63055    3.82804   21.65392
     53       1   1     0.00000       2.21018    1.27857   22.55616
     54       1   1     0.00000       6.63055    1.27857   22.55616
     55       1   1     0.00000       0.00000    5.10661   22.55616
     56       1   1     0.00000       4.42037    5.10661   22.55616
     57       1   1     0.00000       2.21018    1.27857   25.26290
     58       1   1     0.00000       6.63055    1.27857   25.26290
     59       1   1     0.00000       0.00000    5.10661   25.26290
     60       1   1     0.00000       4.42037    5.10661   25.26290
     61       1   1     0.00000       0.00000    0.00000   26.16515
     62       1   1     0.00000       4.42037    0.00000   26.16515
     63       1   1     0.00000       2.21018    3.82804   26.16515
     64       1   1     0.00000       6.63055    3.82804   26.16515
     65       1   1     0.00000       0.00000    0.00000   28.87189
     66       1   1     0.00000       4.42037    0.00000   28.87189
     67       1   1     0.00000       2.21018    3.82804   28.87189
     68       1   1     0.00000       6.63055    3.82804   28.87189
     69       1   1     0.00000       2.21018    1.27857   29.77414
     70       1   1     0.00000       6.63055    1.27857   29.77414
     71       1   1     0.00000       0.00000    5.10661   29.77414
     72       1   1     0.00000       4.42037    5.10661   29.77414
     73       1   1     0.00000       2.21018    1.27857   32.48088
     74       1   1     0.00000       6.63055    1.27857   32.48088
     75       1   1     0.00000       0.00000    5.10661   32.48088
     76       1   1     0.00000       4.42037    5.10661   32.48088
     77       1   1     0.00000       0.00000    0.00000   33.38312
     78       1   1     0.00000       4.42037    0.00000   33.38312
     79       1   1     0.00000       2.21018    3.82804   33.38312
     80       1   1     0.00000       6.63055    3.82804   33.38312
     81       1   1     0.00000       0.00000    0.00000   36.08986
     82       1   1     0.00000       4.42037    0.00000   36.08986
     83       1   1     0.00000       2.21018    3.82804   36.08986
     84       1   1     0.00000       6.63055    3.82804   36.08986
     85       1   1     0.00000       2.21018    1.27857   36.99211
     86       1   1     0.00000       6.63055    1.27857   36.99211
     87       1   1     0.00000       0.00000    5.10661   36.99211
     88       1   1     0.00000       4.42037    5.10661   36.99211
     89       1   1     0.00000       2.21018    1.27857   39.69885
     90       1   1     0.00000       6.63055    1.27857   39.69885
     91       1   1     0.00000       0.00000    5.10661   39.69885
     92       1   1     0.00000       4.42037    5.10661   39.69885
     93       1   1     0.00000       0.00000    0.00000   40.60109
     94       1   1     0.00000       4.42037    0.00000   40.60109
     95       1   1     0.00000       2.21018    3.82804   40.60109
     96       1   1     0.00000       6.63055    3.82804   40.60109
     97       1   1     0.00000       0.00000    0.00000   43.30783
     98       1   1     0.00000       4.42037    0.00000   43.30783
     99       1   1     0.00000       2.21018    3.82804   43.30783
    100       1   1     0.00000       6.63055    3.82804   43.30783
    101       1   1     0.00000       2.21018    1.27857   44.21008
    102       1   1     0.00000       6.63055    1.27857   44.21008
    103       1   1     0.00000       0.00000    5.10661   44.21008
    104       1   1     0.00000       4.42037    5.10661   44.21008
    105       1   1     0.00000       2.21018    1.27857   46.91682
    106       1   1     0.00000       6.63055    1.27857   46.91682
    107       1   1     0.00000       0.00000    5.10661   46.91682
    108       1   1     0.00000       4.42037    5.10661   46.91682
    109       1   1     0.00000       0.00000    0.00000   47.81907
    110       1   1     0.00000       4.42037    0.00000   47.81907
    111       1   1     0.00000       2.21018    3.82804   47.81907
    112       1   1     0.00000       6.63055    3.82804   47.81907
    113       1   1     0.00000       0.00000    0.00000   50.52581
    114       1   1     0.00000       4.42037    0.00000   50.52581
    115       1   1     0.00000       2.21018    3.82804   50.52581
    116       1   1     0.00000       6.63055    3.82804   50.52581
    117       1   1     0.00000       2.21018    1.27857   51.42805
    118       1   1     0.00000       6.63055    1.27857   51.42805
    119       1   1     0.00000       0.00000    5.10661   51.42805
    120       1   1     0.00000       4.42037    5.10661   51.42805
    121       1   1     0.00000       2.21018    1.27857   54.13479
    122       1   1     0.00000       6.63055    1.27857   54.13479
    123       1   1     0.00000       0.00000    5.10661   54.13479
    124       1   1     0.00000       4.42037    5.10661   54.13479
    125       1   1     0.00000       0.00000    0.00000   55.03704
    126       1   1     0.00000       4.42037    0.00000   55.03704
    127       1   1     0.00000       2.21018    3.82804   55.03704
    128       1   1     0.00000       6.63055    3.82804   55.03704
    129       1   1     0.00000       0.00000    7.65608    0.00000
    130       1   1     0.00000       4.42037    7.65608    0.00000
    131       1   1     0.00000       2.21018   11.48412    0.00000
    132       1   1     0.00000       6.63055   11.48412    0.00000
    133       1   1     0.00000       2.21018    8.93465    0.90225
    134       1   1     0.00000       6.63055    8.93465    0.90225
    135       1   1     0.00000       0.00000   12.76269    0.90225
    136       1   1     0.00000       4.42037   12.76269    0.90225
    137       1   1     0.00000       2.21018    8.93465    3.60899
    138       1   1     0.00000       6.63055    8.93465    3.60899
    139       1   1     0.00000       0.00000   12.76269    3.60899
    140       1   1     0.00000       4.42037   12.76269    3.60899
    141       1   1     0.00000       0.00000    7.65608    4.51123
    142       1   1     0.00000       4.42037    7.65608    4.51123
    143       1   1     0.00000       2.21018   11.48412    4.51123
    144       1   1     0.00000       6.63055   11.48412    4.51123
    145       1   1     0.00000       0.00000    7.65608    7.21797
    146       1   1     0.00000       4.42037    7.65608    7.21797
    147       1   1     0.00000       2.21018   11.48412    7.21797
    148       1   1     0.00000       6.63055   11.48412    7.21797
    149       1   1     0.00000       2.21018    8.93465    8.12022
    150       1   1     0.00000       6.63055    8.93465    8.12022
    151       1   1     0.00000       0.00000   12.76269    8.12022
    152       1   1     0.00000       4.42037   12.76269    8.12022
    153       1   1     0.00000       2.21018    8.93465   10.82696
    154       1   1     0.00000       6.63055    8.93465   10.82696
    155       1   1     0.00000       0.00000   12.76269   10.82696
    156       1   1     0.00000       4.42037   12.76269   10.82696
    157       1   1     0.00000       0.00000    7.65608   11.72921
    158       1   1     0.00000       4.42037    7.65608   11.72921
    159       1   1     0.00000       2.21018   11.48412   11.72921
    160       1   1     0.00000       6.63055   11.48412   11.72921
    161       1   1     0.00000       0.00000    7.65608   14.43594
    162       1   1     0.00000       4.42037    7.65608   14.43594
    163       1   1     0.00000       2.21018   11.48412   14.43594
    164       1   1     0.00000       6.63055   11.48412   14.43594
    165       1   1     0.00000       2.21018    8.93465   15.33819
    166       1   1     0.00000       6.63055    8.93465   15.33819
    167       1   1     0.00000       0.00000   12.76269   15.33819
    168       1   1     0.00000       4.42037   12.76269   15.33819
    169       1   1     0.00000       2.21018    8.93465   18.04493
    170       1   1     0.00000       6.63055    8.93465   18.04493
    171       1   1     0.00000       0.00000   12.76269   18.04493
    172       1   1     0.00000       4.42037   12.76269   18.04493
    173       1   1     0.00000       0.00000    7.65608   18.94718
    174       1   1     0.00000       4.42037    7.65608   18.94718
    175       1   1     0.00000       2.21018   11.48412   18.94718
    176       1   1     0.00000       6.63055   11.48412   18.94718
    177       1   1     0.00000       0.00000    7.65608   21.65392
    178       1   1     0.00000       4.42037    7.65608   21.65392
    179       1   1     0.00000       2.21018   11.48412   21.65392
    180       1   1     0.00000       6.63055   11.48412   21.65392
    181       1   1     0.00000       2.21018    8.93465   22.55616
    182       1   1     0.00000       6.63055    8.93465   22.55616
    183       1   1     0.00000       0.00000   12.76269   22.55616
    184       1   1     0.00000       4.42037   12.76269   22.55616
    185       1   1     0.00000       2.21018    8.93465   25.26290
    186       1   1     0.00000       6.63055    8.93465   25.26290
    187       1   1     0.00000       0.00000   12.76269   25.26290
    188       1   1     0.00000       4.42037   12.76269   25.26290
    189       1   1     0.00000       0.00000    7.65608   26.16515
    190       1   1     0.00000       4.42037    7.65608   26.16515
    191       1   1     0.00000       2.21018   11.48412   26.16515
    192       1   1     0.00000       6.63055   11.48412   26.16515
    193       1   1     0.00000       0.00000    7.65608   28.87189
    194       1   1     0.00000       4.42037    7.65608   28.87189
    195       1   1     0.00000       2.21018   11.48412   28.87189
    196       1   1     0.00000       6.63055   11.48412   28.87189
    197       1   1     0.00000       2.21018    8.93465   29.77414
    198       1   1     0.00000       6.63055    8.93465   29.77414
    199       1   1     0.00000       0.00000   12.76269   29.77414
    200       1   1     0.00000       4.42037   12.76269   29.77414
    201       1   1     0.00000       2.21018    8.93465   32.48088
    202       1   1     0.00000       6.63055    8.93465   32.48088
    203       1   1     0.00000       0.00000   12.76269   32.48088
    204       1   1     0.00000       4.42037   12.76269   32.48088
    205       1   1     0.00000       0.00000    7.65608   33.38312
    206       1   1     0.00000       4.42037    7.65608   33.38312
    207       1   1     0.00000       2.21018   11.48412   33.38312
    208       1   1     0.00000       6.63055   11.48412   33.38312
    209       1   1     0.00000       0.00000    7.65608   36.08986
    210       1   1     0.00000       4.42037    7.65608   36.08986
    211       1   1     0.00000       2.21018   11.48412   36.08986
    212       1   1     0.00000       6.63055   11.48412   36.08986
    213       1   1     0.00000       2.21018    8.93465   36.99211
    214       1   1     0.00000       6.63055    8.93465   36.99211
    215       1   1     0.00000       0.00000   12.76269   36.99211
    216       1   1     0.00000       4.42037   12.76269   36.99211
    217       1   1     0.00000       2.21018    8.93465   39.69885
    218       1   1     0.00000       6.63055    8.93465   39.69885
    219       1   1     0.00000       0.00000   12.76269   39.69885
    220       1   1     0.00000       4.42037   12.76269   39.69885
    221       1   1     0.00000       0.00000    7.65608   40.60109
    222       1   1     0.00000       4.42037    7.65608   40.60109
    223       1   1     0.00000       2.21018   11.48412   40.60109
    224       1   1     0.00000       6.63055   11.48412   40.60109
    225       1   1     0.00000       0.00000    7.65608   43.30783
    226       1   1     0.00000       4.42037    7.65608   43.30783
    227       1   1     0.00000       2.21018   11.48412   43.30783
    228       1   1     0.00000       6.63055   11.48412   43.30783
    229       1   1     0.00000       2.21018    8.93465   44.21008
    230       1   1     0.00000       6.63055    8.93465   44.21008
    231       1   1     0.00000       0.00000   12.76269   44.21008
    232       1   1     0.00000       4.42037   12.76269   44.21008
    233       1   1     0.00000       2.21018    8.93465   46.91682
    234       1   1     0.00000       6.63055    8.93465   46.91682
    235       1   1     0.00000       0.00000   12.76269   46.91682
    236       1   1     0.00000       4.42037   12.76269   46.91682
    237       1   1     0.00000       0.00000    7.65608   47.81907
    238       1   1     0.00000       4.42037    7.65608   47.81907
    239       1   1     0.00000       2.21018   11.48412   47.81907
    240       1   1     0.00000       6.63055   11.48412   47.81907
    241       1   1     0.00000       0.00000    7.65608   50.52581
    242       1   1     0.00000       4.42037    7.65608   50.52581
    243       1   1     0.00000       2.21018   11.48412   50.52581
    244       1   1     0.00000       6.63055   11.48412   50.52581
    245       1   1     0.00000       2.21018    8.93465   51.42805
    246       1   1     0.00000       6.63055    8.93465   51.42805
    247       1   1     0.00000       0.00000   12.76269   51.42805
    248       1   1     0.00000       4.42037   12.76269   51.42805
    249       1   1     0.00000       2.21018    8.93465   54.13479
    250       1   1     0.00000       6.63055    8.93465   54.13479
    251       1   1     0.00000       0.00000   12.76269   54.13479
    252       1   1     0.00000       4.42037   12.76269   54.13479
    253       1   1     0.00000       0.00000    7.65608   55.03704
    254       1   1     0.00000       4.42037    7.65608   55.03704
    255       1   1     0.00000       2.21018   11.48412   55.03704
    256       1   1     0.00000       6.63055   11.48412   55.03704
    257       1   1     0.00000       0.00000   15.31216    0.00000
    258       1   1     0.00000       4.42037   15.31216    0.00000
    259       1   1     0.00000       2.21018   19.14020    0.00000
    260       1   1     0.00000       6.63055   19.14020    0.00000
    261       1   1     0.00000       2.21018   16.59073    0.90225
    262       1   1     0.00000       6.63055   16.59073    0.90225
    263       1   1     0.00000       0.00000   20.41877    0.90225
    264       1   1     0.00000       4.42037   20.41877    0.90225
    265       1   1     0.00000       2.21018   16.59073    3.60899
    266       1   1     0.00000       6.63055   16.59073    3.60899
    267       1   1     0.00000       0.00000   20.41877    3.60899
    268       1   1     0.00000       4.42037   20.41877    3.60899
    269       1   1     0.00000       0.00000   15.31216    4.51123
    270       1   1     0.00000       4.42037   15.31216    4.51123
    271       1   1     0.00000       2.21018   19.14020    4.51123
    272       1   1     0.00000       6.63055   19.14020    4.51123
    273       1   1     0.00000       0.00000   15.31216    7.21797
    274       1   1     0.00000       4.42037   15.31216    7.21797
    275       1   1     0.00000       2.21018   19.14020    7.21797
    276       1   1     0.00000       6.63055   19.14020    7.21797
    277       1   1     0.00000       2.21018   16.59073    8.12022
    278       1   1     0.00000       6.63055   16.59073    8.12022
    279       1   1     0.00000       0.00000   20.41877    8.12022
    280       1   1     0.00000       4.42037   20.41877    8.12022
    281       1   1     0.00000       2.21018   16.59073   10.82696
    282       1   1     0.00000       6.63055   16.59073   10.82696
    283       1   1     0.00000       0.00000   20.41877   10.82696
    284       1   1     0.00000       4.42037   20.41877   10.82696
    285       1   1     0.00000       0.00000   15.31216   11.72921
    286       1   1     0.00000       4.42037   15.31216   11.72921
    287       1   1     0.00000       2.21018   19.14020   11.72921
    288       1   1     0.00000       6.63055   19.14020   11.72921
    289       1   1     0.00000       0.00000   15.31216   14.43594
    290       1   1     0.00000       4.42037   15.31216   14.43594
    291       1   1     0.00000       2.21018   19.14020   14.43594
    292       1   1     0.00000       6.63055   19.14020   14.43594
    293       1   1     0.00000       2.21018   16.59073   15.33819
    294       1   1     0.00000       6.63055   16.59073   15.33819
    295       1   1     0.00000       0.00000   20.41877   15.33819
    296       1   1     0.00000       4.42037   20.41877   15.33819
    297       1   1     0.00000       2.21018   16.59073   18.04493
    298       1   1     0.00000       6.63055   16.59073   18.04493
    299       1   1     0.00000       0.00000   20.41877   18.04493
    300       1   1     0.00000       4.42037   20.41877   18.04493
    301       1   1     0.00000       0.00000   15.31216   18.94718
    302       1   1     0.00000       4.42037   15.31216   18.94718
    303       1   1     0.00000       2.21018   19.14020   18.94718
    304       1   1     0.00000       6.63055   19.14020   18.94718
    305       1   1     0.00000       0.00000   15.31216   21.65392
    306       1   1     0.00000       4.42037   15.31216   21.65392
    307       1   1     0.00000       2.21018   19.14020   21.65392
    308       1   1     0.00000       6.63055   19.14020   21.65392
    309       1   1     0.00000       2.21018   16.59073   22.55616
    310       1   1     0.00000       6.63055   16.59073   22.55616
    311       1   1     0.00000       0.00000   20.41877   22.55616
    312       1   1     0.00000       4.42037   20.41877   22.55616
    313       1   1     0.00000       2.21018   16.59073   25.26290
    314       1   1     0.00000       6.63055   16.59073   25.26290
    315       1   1     0.00000       0.00000   20.41877   25.26290
    316       1   1     0.00000       4.42037   20.41877   25.26290
    317       1   1     0.00000       0.00000   15.31216   26.16515
    318       1   1     0.00000       4.42037   15.31216   26.16515
    319       1   1     0.00000       2.21018   19.14020   26.16515
    320       1   1     0.00000       6.63055   19.14020   26.16515
    321       1   1     0.00000       0.00000   15.31216   28.87189
    322       1   1     0.00000       4.42037   15.31216   28.87189
    323       1   1     0.00000       2.21018   19.14020   28.87189
    324       1   1     0.00000       6.63055   19.14020   28.87189
    325       1   1     0.00000       2.21018   16.59073   29.77414
    326       1   1     0.00000       6.63055   16.59073   29.77414
    327       1   1     0.00000       0.00000   20.41877   29.77414
    328       1   1     0.00000       4.42037   20.41877   29.77414
    329       1   1     0.00000       2.21018   16.59073   32.48088
    330       1   1     0.00000       6.63055   16.59073   32.48088
    331       1   1     0.00000       0.00000   20.41877   32.48088
    332       1   1     0.00000       4.42037   20.41877   32.48088
    333       1   1     0.00000       0.00000   15.31216   33.38312
    334       1   1     0.00000       4.42037   15.31216   33.38312
    335       1   1     0.00000       2.21018   19.14020   33.38312
    336       1   1     0.00000       6.63055   19.14020   33.38312
    337       1   1     0.00000       0.00000   15.31216   36.08986
    338       1   1     0.00000       4.42037   15.31216   36.08986
    339       1   1     0.00000       2.21018   19.14020   36.08986
    340       1   1     0.00000       6.63055   19.14020   36.08986
    341       1   1     0.00000       2.21018   16.59073   36.99211
    342       1   1     0.00000       6.63055   16.59073   36.99211
    343       1   1     0.00000       0.00000   20.41877   36.99211
    344       1   1     0.00000       4.42037   20.41877   36.99211
    345       1   1     0.00000       2.21018   16.59073   39.69885
    346       1   1     0.00000       6.63055   16.59073   39.69885
    347       1   1     0.00000       0.00000   20.41877   39.69885
    348       1   1     0.00000       4.42037   20.41877   39.69885
    349       1   1     0.00000       0.00000   15.31216   40.60109
    350       1   1     0.00000       4.42037   15.31216   40.60109
    351       1   1     0.00000       2.21018   19.14020   40.60109
    352       1   1     0.00000       6.63055   19.14020   40.60109
    353       1   1     0.00000       0.00000   15.31216   43.30783
    354       1   1     0.00000       4.42037   15.31216   43.30783
    355       1   1     0.00000       2.21018   19.14020   43.30783
    356       1   1     0.00000       6.63055   19.14020   43.30783
    357       1   1     0.00000       2.21018   16.59073   44.21008
    358       1   1     0.00000       6.63055   16.59073   44.21008
    359       1   1     0.00000       0.00000   20.41877   44.21008
    360       1   1     0.00000       4.42037   20.41877   44.21008
    361       1   1     0.00000       2.21018   16.59073   46.91682
    362       1   1     0.00000       6.63055   16.59073   46.91682
    363       1   1     0.00000       0.00000   20.41877   46.91682
    364       1   1     0.00000       4.42037   20.41877   46.91682
    365       1   1     0.00000       0.00000   15.31216   47.81907
    366       1   1     0.00000       4.42037   15.31216   47.81907
    367       1   1     0.00000       2.21018   19.14020   47.81907
    368       1   1     0.00000       6.63055   19.14020   47.81907
    369       1   1     0.00000       0.00000   15.31216   50.52581
    370       1   1     0.00000       4.42037   15.31216   50.52581
    371       1   1     0.00000       2.21018   19.14020   50.52581
    372       1   1     0.00000       6.63055   19.14020   50.52581
    373       1   1     0.00000       2.21018   16.59073   51.42805
    374       1   1     0.00000       6.63055   16.59073   51.42805
    375       1   1     0.00000       0.00000   20.41877   51.42805
    376       1   1     0.00000       4.42037   20.41877   51.42805
    377       1   1     0.00000       2.21018   16.59073   54.13479
    378       1   1     0.00000       6.63055   16.59073   54.13479
    379       1   1     0.00000       0.00000   20.41877   54.13479
    380       1   1     0.00000       4.42037   20.41877   54.13479
    381       1   1     0.00000       0.00000   15.31216   55.03704
    382       1   1     0.00000       4.42037   15.31216   55.03704
    383       1   1     0.00000       2.21018   19.14020   55.03704
    384       1   1     0.00000       6.63055   19.14020   55.03704
    385       1   1     0.00000       0.00000   22.96824    0.00000
    386       1   1     0.00000       4.42037   22.96824    0.00000
    387       1   1     0.00000       2.21018   26.79628    0.00000
    388       1   1     0.00000       6.63055   26.79628    0.00000
    389       1   1     0.00000       2.21018   24.24681    0.90225
    390       1   1     0.00000       6.63055   24.24681    0.90225
    391       1   1     0.00000       0.00000   28.07485    0.90225
    392       1   1     0.00000       4.42037   28.07485    0.90225
    393       1   1     0.00000       2.21018   24.24681    3.60899
    394       1   1     0.00000       6.63055   24.24681    3.60899
    395       1   1     0.00000       0.00000   28.07485    3.60899
    396       1   1     0.00000       4.42037   28.07485    3.60899
    397       1   1     0.00000       0.00000   22.96824    4.51123
    398       1   1     0.00000       4.42037   22.96824    4.51123
    399       1   1     0.00000       2.21018   26.79628    4.51123
    400       1   1     0.00000       6.63055   26.79628    4.51123
    401       1   1     0.00000       0.00000   22.96824    7.21797
    402       1   1     0.00000       4.42037   22.96824    7.21797
    403       1   1     0.00000       2.21018   26.79628    7.21797
    404       1   1     0.00000       6.63055   26.79628    7.21797
    405       1   1     0.00000       2.21018   24.24681    8.12022
    406       1   1     0.00000       6.63055   24.24681    8.12022
    407       1   1     0.00000       0.00000   28.07485    8.12022
    408       1   1     0.00000       4.42037   28.07485    8.12022
    409       1   1     0.00000       2.21018   24.24681   10.82696
    410       1   1     0.00000       6.63055   24.24681   10.82696
    411       1   1     0.00000       0.00000   28.07485   10.82696
    412       1   1     0.00000       4.42037   28.07485   10.82696
    413       1   1     0.00000       0.00000   22.96824   11.72921
    414       1   1     0.00000       4.42037   22.96824   11.72921
    415       1   1     0.00000       2.21018   26.79628   11.72921
    416       1   1     0.00000       6.63055   26.79628   11.72921
    417       1   1     0.00000       0.00000   22.96824   14.43594
    418       1   1     0.00000       4.42037   22.96824   14.43594
    419       1   1     0.00000       2.21018   26.79628   14.43594
    420       1   1     0.00000       6.63055   26.79628   14.43594
    421       1   1     0.00000       2.21018   24.24681   15.33819
    422       1   1     0.00000       6.63055   24.24681   15.33819
    423       1   1     0.00000       0.00000   28.07485   15.33819
    424       1   1     0.00000       4.42037   28.07485   15.33819
    425       1   1     0.00000       2.21018   24.24681   18.04493
    426       1   1     0.00000       6.63055   24.24681   18.04493
    427       1   1     0.00000       0.00000   28.07485   18.04493
    428       1   1     0.00000       4.42037   28.07485   18.04493
    429       1   1     0.00000       0.00000   22.96824   18.94718
    430       1   1     0.00000       4.42037   22.96824   18.94718
    431       1   1     0.00000       2.21018   26.79628   18.94718
    432       1   1     0.00000       6.63055   26.79628   18.94718
    433       1   1     0.00000       0.00000   22.96824   21.65392
    434       1   1     0.00000       4.42037   22.96824   21.65392
    435       1   1     0.00000       2.21018   26.79628   21.65392