LAMMPS data file via write_data, version 15 May 2015, timestep = 2000000

4560 atoms
7 atom types
5040 bonds
3 bond types
7200 angles
2 angle types
10560 dihedrals
3 dihedral types
2400 impropers
1 improper types

-1.0763502675555259e-01 4.1387635026745990e+01 xlo xhi
-4.0433884491974936e-02 3.5938433884472119e+01 ylo yhi
-3.5711112484589691e-01 2.9555111124838550e+01 zlo zhi
-6.7234083837551181e-02 -1.7036217651000683e+01 -4.1707816797290791e-02 xy xz yz

Masses

1 12.0107
2 1.008
3 12.0107
4 12.0107
5 12.0107
6 12.0107
7 12.0107

Pair Coeffs # lj/cut/coul/cut

1 0 0
2 0 0
3 0 0
4 0 0
5 0 0
6 0 0
7 0 0

Bond Coeffs # harmonic

1 469 1.4
2 367 1.08
3 469 0.7

Angle Coeffs # harmonic

1 35 120
2 63 120

Dihedral Coeffs # opls

1 0 7.25 0 0
2 0 7.25 0 0
3 0 7.25 0 0

Improper Coeffs # cvff

1 2.5 -1 2

Atoms # full

219 13 3 0.0000000000000000e+00 -3.4091687575965235e-01 3.0313161986013841e+00 3.2679136669364524e+00 1 0 0
220 13 4 0.0000000000000000e+00 2.8487553597150606e-01 4.0517134079682116e+00 2.4848296567670793e+00 1 0 0
224 13 2 0.0000000000000000e+00 4.5377250001583547e-01 5.0338276620502418e+00 2.8831862459934738e+00 1 0 0
580 33 4 0.0000000000000000e+00 2.5821143910971482e+00 6.7804866799176109e+00 4.0012034425193148e+00 1 0 0
228 13 3 0.0000000000000000e+00 -5.4692144853613489e-01 1.8023277341451742e+00 2.6751759864870577e+00 1 0 0
989 53 4 0.0000000000000000e+00 -1.6084160396003444e+00 7.1408319842008492e+00 3.6105584751575130e+00 1 0 0
600 34 2 0.0000000000000000e+00 -1.5557389553440526e-01 5.6579461461179754e+00 6.9410274349070278e+00 1 0 0
245 14 4 0.0000000000000000e+00 -5.0235386152712236e+00 1.3661951781112771e+00 9.0051165117866869e+00 1 0 0
227 13 4 0.0000000000000000e+00 -2.2565400084151865e-01 1.5401698119105911e+00 1.3421142283000265e+00 1 0 0
4390 233 1 0.0000000000000000e+00 2.3544505305891135e+00 7.7727081493332018e-01 5.5077953529541706e+00 1 1 0
733 13 6 0.0000000000000000e+00 -4.4470478836006322e-01 2.4400951755173725e+00 2.9280697645318079e+00 1 0 0
1757 94 3 0.0000000000000000e+00 -4.6620671734370571e+00 1.5142887969337339e+01 1.0594446823942926e+01 1 0 0
230 13 1 0.0000000000000000e+00 5.2622337948565823e-01 3.8052658916351354e+00 1.1130095462687357e+00 1 0 0
217 13 7 0.0000000000000000e+00 -1.1504197028861456e+00 2.3075712623957170e+00 5.4537126518883676e+00 1 0 0
218 13 5 0.0000000000000000e+00 -6.5850568294622303e-01 3.3278152025462919e+00 4.5996544290093251e+00 1 0 0
221 13 1 0.0000000000000000e+00 -1.4919347848458637e+00 1.0854020064939187e+00 4.8205769269961580e+00 1 0 0
222 13 2 0.0000000000000000e+00 -1.2938603995507059e+00 2.3968319540168723e+00 6.5582401721498007e+00 1 0 0
223 13 2 0.0000000000000000e+00 -3.9627531389574289e-01 4.3056078228979935e+00 4.9650877319760607e+00 1 0 0
248 14 1 0.0000000000000000e+00 -3.6775317324343457e+00 3.2034853803215131e+00 8.5124091505875263e+00 1 0 0
4380 233 4 0.0000000000000000e+00 2.5793346635564545e+00 1.0157140731321526e+00 4.1516332406237266e+00 1 1 0
244 14 1 0.0000000000000000e+00 -4.3485504176415724e+00 2.1076335895456246e+00 8.0586528260731463e+00 1 0 0
603 34 2 0.0000000000000000e+00 6.6112077536905023e-01 3.3411759609590437e+00 7.6375198074306692e+00 1 0 0
987 53 4 0.0000000000000000e+00 -9.6113368608963934e-01 7.8854600242887676e+00 1.3025305306541934e+00 1 0 0
4394 233 2 0.0000000000000000e+00 1.8286739399783567e+00 1.5393963730947080e+00 6.1267443521585125e+00 1 1 0
579 33 3 0.0000000000000000e+00 3.2957730101795346e+00 5.8575238016390978e+00 3.1797908930668686e+00 1 0 0
252 14 2 0.0000000000000000e+00 -3.0749529162516245e+00 3.7716382870547975e+00 7.8257739457266524e+00 1 0 0
581 33 1 0.0000000000000000e+00 4.4981538629628659e+00 3.9018978727273779e+00 1.4942518925292829e+00 1 0 0
596 34 5 0.0000000000000000e+00 -5.6941898698100069e-01 6.2688947366544747e+00 8.8594389593713352e+00 1 0 0
577 33 7 0.0000000000000000e+00 4.0379840328641476e+00 5.1506980920092609e+00 9.8761325524737664e-01 1 0 0
588 33 3 0.0000000000000000e+00 3.8195210824581651e+00 4.6650517361054371e+00 3.7062552248906995e+00 1 0 0
589 33 4 0.0000000000000000e+00 4.4278022071630385e+00 3.7128595363330055e+00 2.8961032155705020e+00 1 0 0
593 33 2 0.0000000000000000e+00 4.7632160966044381e+00 2.8229377090302097e+00 3.3881210719187655e+00 1 0 0
753 33 6 0.0000000000000000e+00 3.6215453566227391e+00 5.2109479373013174e+00 3.3093900466414854e+00 1 0 0
4383 233 2 0.0000000000000000e+00 3.0266347566002594e+00 1.5605072048261766e+00 1.6779172289600846e+00 1 1 0
4379 233 3 0.0000000000000000e+00 3.3373227363180855e+00 2.6479477292448167e-01 3.3210424175817379e+00 1 1 0
578 33 5 0.0000000000000000e+00 3.4327102574924080e+00 6.1247967303733608e+00 1.7614795115064616e+00 1 0 0
226 13 1 0.0000000000000000e+00 2.6082089396917441e-01 2.5783407440881470e+00 5.6174426691925128e-01 1 0 0
4384 233 2 0.0000000000000000e+00 2.1735477223831361e+00 1.9896493247277540e+00 3.7810393274153675e+00 1 1 0
586 33 1 0.0000000000000000e+00 3.0257454894427953e+00 5.3583334222233869e+00 5.8750945897984765e+00 1 0 0
587 33 4 0.0000000000000000e+00 3.7383274363749330e+00 4.4894354474458389e+00 5.0832656897208759e+00 1 0 0
585 33 2 0.0000000000000000e+00 4.8712497550158833e+00 3.0521639185456855e+00 8.6682700647172717e-01 1 0 0
591 33 2 0.0000000000000000e+00 2.9939231537816271e+00 5.1514074825612424e+00 6.9317713821491269e+00 1 0 0
592 33 2 0.0000000000000000e+00 4.1904354927465022e+00 3.5176466298261651e+00 5.3859845806588833e+00 1 0 0
590 33 1 0.0000000000000000e+00 2.4866498016980514e+00 6.5175845141099433e+00 5.3377176530988812e+00 1 0 0
1010 54 2 0.0000000000000000e+00 -4.9683274500672594e+00 6.2059558232205090e+00 8.5825355248453405e+00 1 0 0
234 13 2 0.0000000000000000e+00 9.4604452988115595e-01 4.5609158252691158e+00 4.5677445790600868e-01 1 0 0
229 13 4 0.0000000000000000e+00 -1.1920335691037507e+00 8.5705408670951078e-01 3.4493686394553920e+00 1 0 0
1027 55 2 0.0000000000000000e+00 -8.2626464333952363e+00 8.0349517201718967e+00 1.4296398509530517e+01 1 0 0
985 53 2 0.0000000000000000e+00 -2.1384141751567460e+00 6.5031064915986780e+00 5.6384424849170385e+00 1 0 0
599 34 1 0.0000000000000000e+00 3.3424193935590907e-01 4.1454290939766238e+00 8.3092490261508338e+00 1 0 0
4401 234 2 0.0000000000000000e+00 -1.2165492633492656e+00 1.1196444207371621e+00 8.8710834807132315e+00 1 1 0
1011 54 2 0.0000000000000000e+00 -6.2017669658785675e+00 6.2553323800253278e+00 1.0746517177034097e+01 1 0 0
595 34 7 0.0000000000000000e+00 -6.5636808376225098e-02 5.3980322540378420e+00 7.9455547334518997e+00 1 0 0
981 53 1 0.0000000000000000e+00 -1.7562411296530160e+00 7.3157262666224003e+00 4.9954965117976426e+00 1 0 0
4378 233 5 0.0000000000000000e+00 3.4781065929245374e+00 6.2443106899798617e-01 1.9988315138864645e+00 1 1 0
232 13 2 0.0000000000000000e+00 -4.4336165646489045e-01 6.1258189285827447e-01 8.1283350086073458e-01 1 0 0
583 33 2 0.0000000000000000e+00 3.1926695556884286e+00 7.0017777496319429e+00 1.2585256543944430e+00 1 0 0
1758 94 4 0.0000000000000000e+00 -3.9791272700706952e+00 1.6049931757054285e+01 9.8228319385636169e+00 1 0 0
1753 93 2 0.0000000000000000e+00 -2.0540953419702923e+00 1.2106972495674112e+01 3.2196626021913159e+00 1 0 0
235 14 7 0.0000000000000000e+00 -5.4313495554492022e+00 2.4986100800711712e+00 1.3033668176714105e+01 1 0 0
236 14 5 0.0000000000000000e+00 -4.5738918759707072e+00 3.1798833891571445e+00 1.2220723374415755e+01 1 0 0
597 34 3 0.0000000000000000e+00 -6.5799516122883261e-01 5.8888061619881977e+00 1.0238165514574831e+01 1 0 0
734 14 6 0.0000000000000000e+00 -4.6495786853771328e+00 2.3389463307277092e+00 1.0487838947006706e+01 1 0 0
239 14 1 0.0000000000000000e+00 -6.1275659429525984e+00 1.3938558431558274e+00 1.2557857310441602e+01 1 0 0
240 14 2 0.0000000000000000e+00 -5.5409966496604355e+00 2.9375703803853979e+00 1.4051033824845568e+01 1 0 0
243 14 2 0.0000000000000000e+00 -6.8249112803644554e+00 9.0378591005314379e-01 1.3218884443447880e+01 1 0 0
237 14 3 0.0000000000000000e+00 -4.4182356677620316e+00 2.8281440304622212e+00 1.0845508386658787e+01 1 0 0
4402 234 2 0.0000000000000000e+00 -1.9024531085970704e+00 1.7025124844029547e+00 1.1003063714574782e+01 1 1 0
1762 94 2 0.0000000000000000e+00 -3.4433650614248812e+00 1.6817937991989034e+01 1.0352709738092866e+01 1 0 0
242 14 2 0.0000000000000000e+00 -3.3131116857962293e+00 4.5989035932531044e+00 1.0161237545245106e+01 1 0 0
4408 234 1 0.0000000000000000e+00 -1.7157616492667529e+00 3.9243944830830868e-01 1.2710049985577433e+01 1 1 0
238 14 4 0.0000000000000000e+00 -3.7622539141742628e+00 3.6116026812217705e+00 9.8605883788628503e+00 1 0 0
246 14 3 0.0000000000000000e+00 -4.9943415907025450e+00 1.6717448195805351e+00 1.0394392833304526e+01 1 0 0
604 34 1 0.0000000000000000e+00 -9.2020765628603840e-01 4.9874721684725749e+00 1.2877524939993094e+01 1 0 0
605 34 4 0.0000000000000000e+00 -2.8032099206318239e-01 4.2152502007749062e+00 1.1964809951171720e+01 1 0 0
606 34 3 0.0000000000000000e+00 -2.0547020658906323e-01 4.6110331710224042e+00 1.0610261002411828e+01 1 0 0
607 34 4 0.0000000000000000e+00 3.1662764985379344e-01 3.7127110849545524e+00 9.6507033548002923e+00 1 0 0
611 34 2 0.0000000000000000e+00 6.1982922820391195e-01 2.7419951480501346e+00 9.9236340967582386e+00 1 0 0
610 34 2 0.0000000000000000e+00 1.5766996261240873e-01 3.2575445412982722e+00 1.2151778691052796e+01 1 0 0
241 14 2 0.0000000000000000e+00 -4.1635927579558754e+00 4.0099976216418787e+00 1.2678458906530102e+01 1 0 0
1760 94 2 0.0000000000000000e+00 -5.1380141212624819e+00 1.4336509977542134e+01 1.3783347493014654e+01 1 0 0
598 34 4 0.0000000000000000e+00 -1.1904137798809122e+00 6.7416693533621554e+00 1.1189245215357809e+01 1 0 0
754 34 6 0.0000000000000000e+00 -4.3537937238605728e-01 5.2910080820372096e+00 1.0494801063897873e+01 1 0 0
609 34 2 0.0000000000000000e+00 -9.7423177378421499e-01 4.7685637763359674e+00 1.3915565946478006e+01 1 0 0
4398 234 4 0.0000000000000000e+00 -1.5876046782537179e+00 7.4321070620544449e-01 1.1324205403488866e+01 1 1 0
4412 234 2 0.0000000000000000e+00 -2.2094271193557535e+00 1.0274074369284532e+00 1.3395440522730304e+01 1 1 0
247 14 4 0.0000000000000000e+00 -5.8832260889438563e+00 9.5416505156479736e-01 1.1275840780451754e+01 1 0 0
608 34 1 0.0000000000000000e+00 -1.3610283128998919e+00 6.2617967997123429e+00 1.2505659634513002e+01 1 0 0
612 34 2 0.0000000000000000e+00 -1.8157178242821583e+00 6.8996474254558464e+00 1.3277928549955917e+01 1 0 0
979 53 3 0.0000000000000000e+00 -3.2385583233963544e-01 9.1231714243447488e+00 3.4341165593046359e+00 1 0 0
980 53 4 0.0000000000000000e+00 2.8586532734747272e-01 1.0081269974412612e+01 2.6164456262435394e+00 1 0 0
984 53 2 0.0000000000000000e+00 9.0344283703117934e-01 1.0883294759177913e+01 3.0964530540513109e+00 1 0 0
1361 74 2 0.0000000000000000e+00 -1.2737400618855497e+00 1.3258442835354218e+01 8.4387113907242952e+00 1 0 0
990 53 1 0.0000000000000000e+00 3.2801343900000823e-01 9.8841129930691967e+00 1.2150560318096693e+00 1 0 0
2253 93 6 0.0000000000000000e+00 -3.7081521452795485e-01 1.4270189076307126e+01 3.0047113799325005e+00 1 0 0
1493 53 6 0.0000000000000000e+00 -5.5983212739650012e-01 8.6551245390378906e+00 2.9696984307519649e+00 1 0 0
2116 114 5 0.0000000000000000e+00 -4.9839578227759862e-01 1.7907441761303019e+01 8.6224109170080254e+00 1 0 0
1005 54 4 0.0000000000000000e+00 -4.5153061341088989e+00 7.1767792998669053e+00 8.8449542243550834e+00 1 0 0
994 53 2 0.0000000000000000e+00 8.5823764904320166e-01 1.0589637801816266e+01 6.2685838897474921e-01 1 0 0
594 33 2 0.0000000000000000e+00 1.9137807201802155e+00 7.1137969965656342e+00 6.0604220270484808e+00 1 0 0
1741 93 1 0.0000000000000000e+00 -1.2941917723733840e+00 1.3250722530610807e+01 4.9343667556164705e+00 1 0 0
977 53 7 0.0000000000000000e+00 -1.1873899747678101e+00 8.4479734256187342e+00 5.5733858662574809e+00 1 0 0
978 53 5 0.0000000000000000e+00 -3.3736690909843103e-01 9.3218908249896657e+00 4.7897428519554275e+00 1 0 0
982 53 2 0.0000000000000000e+00 -1.2812649524790518e+00 8.6313363250913646e+00 6.6432058148524726e+00 1 0 0
983 53 2 0.0000000000000000e+00 2.2929877901488593e-01 1.0183867107702289e+01 5.2030918219391129e+00 1 0 0
1012 54 2 0.0000000000000000e+00 -2.1173155782869149e+00 9.4461878779136441e+00 7.8798053774124490e+00 1 0 0
1004 54 1 0.0000000000000000e+00 -3.5211346007174340e+00 7.7403641257885827e+00 8.0355890601567790e+00 1 0 0
1363 74 2 0.0000000000000000e+00 1.0211605562177137e+00 9.7316959787769566e+00 7.7137819160475765e+00 1 0 0
1745 93 2 0.0000000000000000e+00 -1.6639303421155092e+00 1.2682153424596267e+01 5.7426886755661073e+00 1 0 0
1008 54 1 0.0000000000000000e+00 -2.9456865398445813e+00 8.9491460080816001e+00 8.4247622233771402e+00 1 0 0
1338 73 5 0.0000000000000000e+00 3.6084194811335193e+00 1.2308824034914519e+01 1.7205143657671313e+00 1 0 0
1339 73 3 0.0000000000000000e+00 3.4760233211869789e+00 1.1892124849891035e+01 3.0002277629387102e+00 1 0 0
1340 73 4 0.0000000000000000e+00 2.8782856562261898e+00 1.2763394120451645e+01 3.9833300900097033e+00 1 0 0
1341 73 1 0.0000000000000000e+00 4.6096142544386014e+00 1.0219739922468865e+01 1.1624359865790730e+00 1 0 0
1337 73 7 0.0000000000000000e+00 4.1233164654636862e+00 1.1482076168703973e+01 7.2919928238535081e-01 1 0 0
1343 73 2 0.0000000000000000e+00 3.3670190487895173e+00 1.3322332287410005e+01 1.3224348560871995e+00 1 0 0
988 53 3 0.0000000000000000e+00 -9.0187745190489610e-01 8.0276132267978610e+00 2.7640492070990579e+00 1 0 0
1348 73 3 0.0000000000000000e+00 3.9314347583542499e+00 1.0627720104348759e+01 3.4156773277859842e+00 1 0 0
1349 73 4 0.0000000000000000e+00 4.5065419171281054e+00 9.7956425127524653e+00 2.4751321757768894e+00 1 0 0
1353 73 2 0.0000000000000000e+00 4.7561807455686420e+00 8.7576987129548360e+00 2.7771963833247986e+00 1 0 0
1513 73 6 0.0000000000000000e+00 3.6894176179283042e+00 1.1255143605899923e+01 3.2497871709157828e+00 1 0 0
1356 74 5 0.0000000000000000e+00 -7.2360485090866167e-01 1.2444324822437419e+01 8.8242946835446148e+00 1 0 0
1354 73 2 0.0000000000000000e+00 2.1779979669558993e+00 1.2901457630703749e+01 5.9852430779652739e+00 1 0 0
1346 73 1 0.0000000000000000e+00 3.1645969603151305e+00 1.0988601045889341e+01 5.6247625515541815e+00 1 0 0
1347 73 4 0.0000000000000000e+00 3.7305483215201729e+00 1.0123509188265208e+01 4.6904847076096496e+00 1 0 0
1350 73 1 0.0000000000000000e+00 2.6653439728163115e+00 1.2264882775315947e+01 5.2889770832192466e+00 1 0 0
1351 73 2 0.0000000000000000e+00 2.9850493071570563e+00 1.0655473296780823e+01 6.6462285906787617e+00 1 0 0
1352 73 2 0.0000000000000000e+00 4.2069570934454967e+00 9.1857322376986268e+00 4.9242750588561153e+00 1 0 0
1345 73 2 0.0000000000000000e+00 5.1108335226580399e+00 9.5693375661161255e+00 4.4751252622130056e-01 1 0 0
1355 74 7 0.0000000000000000e+00 -1.9522130880405264e-01 1.1507610297962451e+01 7.9370068978825117e+00 1 0 0
1359 74 1 0.0000000000000000e+00 5.2439496379454731e-01 1.0371787174820941e+01 8.4196980556690342e+00 1 0 0
1360 74 2 0.0000000000000000e+00 -1.7070115258852692e-01 1.1577777320534013e+01 6.8646736865203586e+00 1 0 0
1747 93 4 0.0000000000000000e+00 -5.7658338495822470e-01 1.3280062358671339e+01 1.3426610344511758e+00 1 0 0
1748 93 3 0.0000000000000000e+00 -7.3827937818795453e-01 1.3721984496360092e+01 2.6532648782697965e+00 1 0 0
601 34 2 0.0000000000000000e+00 -1.0078513472885291e+00 7.1283552610270320e+00 8.5706211599656879e+00 1 0 0
1370 74 2 0.0000000000000000e+00 2.7655144397022458e-01 9.7067377830039590e+00 1.2391866073932510e+01 1 0 0
1746 93 1 0.0000000000000000e+00 9.4271329917679114e-02 1.4075850504021897e+01 4.6321336407202240e-01 1 0 0
584 33 2 0.0000000000000000e+00 2.1170322777760178e+00 7.7470970756370869e+00 3.6359313179065382e+00 1 0 0
2131 114 2 0.0000000000000000e+00 6.9229860740307725e-01 1.4465134140566485e+01 9.7805510751433111e+00 1 0 0
1749 93 4 0.0000000000000000e+00 -1.4561228050581407e+00 1.2958744864544890e+01 3.5752954501877183e+00 1 0 0
1369 74 2 0.0000000000000000e+00 -5.7177295885660406e-01 1.1306927476311289e+01 1.4162161646115818e+01 1 0 0
1344 73 2 0.0000000000000000e+00 2.5024907253124216e+00 1.3722264121639768e+01 3.7301341175005334e+00 1 0 0
2129 114 2 0.0000000000000000e+00 -6.0643156580179891e-01 1.6765347793758988e+01 1.3788672199451657e+01 1 0 0
582 33 2 0.0000000000000000e+00 4.1962567163109945e+00 5.2275103145153219e+00 -4.7615484028929067e-02 1 0 0
995 54 7 0.0000000000000000e+00 -5.4297818358126593e+00 8.9698606146150848e+00 1.2562066998179871e+01 1 0 0
996 54 5 0.0000000000000000e+00 -4.4783069382885339e+00 9.5749179642818696e+00 1.1651244014527828e+01 1 0 0
997 54 3 0.0000000000000000e+00 -4.1882695217953421e+00 8.9675779987846731e+00 1.0490255418915881e+01 1 0 0
1001 54 2 0.0000000000000000e+00 -3.9301556264681539e+00 1.0414280818159737e+01 1.1900296028838097e+01 1 0 0
1371 74 2 0.0000000000000000e+00 1.0562448231476154e+00 9.1655722381994842e+00 1.0085334352758327e+01 1 0 0
1357 74 3 0.0000000000000000e+00 -7.3102091243625189e-01 1.2152868308679155e+01 1.0230546988153089e+01 1 0 0
1767 94 4 0.0000000000000000e+00 -5.8837032357249379e+00 1.3072480397673655e+01 1.0715506442916091e+01 1 0 0
998 54 4 0.0000000000000000e+00 -3.2210075803330667e+00 9.5475049231381135e+00 9.6523274834524173e+00 1 0 0
1494 54 6 0.0000000000000000e+00 -4.5554359740991011e+00 8.4133914303812478e+00 1.0303839149562604e+01 1 0 0
1362 74 2 0.0000000000000000e+00 -1.6754042836563130e+00 1.4055210269810688e+01 1.1081770123933586e+01 1 0 0
251 14 2 0.0000000000000000e+00 -6.3881973642416341e+00 8.3093063310817838e-02 1.1000676944592707e+01 1 0 0
999 54 1 0.0000000000000000e+00 -6.0421921842384467e+00 7.7915391943839305e+00 1.2196747985448042e+01 1 0 0
1372 74 2 0.0000000000000000e+00 -1.3986166288271118e+00 1.3317769279641917e+01 1.3511670834465367e+01 1 0 0
1514 74 6 0.0000000000000000e+00 -2.6220141065691482e-01 1.1653276925038412e+01 1.0543024767306601e+01 1 0 0
602 34 2 0.0000000000000000e+00 -1.5623587404601835e+00 7.7751274589382264e+00 1.0954556368934577e+01 1 0 0
1358 74 4 0.0000000000000000e+00 -1.2420196898524178e+00 1.3044149611015239e+01 1.1251976044689346e+01 1 0 0
1364 74 1 0.0000000000000000e+00 -6.3760434169247837e-01 1.1500900692092955e+01 1.3062777050728675e+01 1 0 0
1365 74 4 0.0000000000000000e+00 -1.1356047847263717e-01 1.0649326160080337e+01 1.2017056817391225e+01 1 0 0
1366 74 3 0.0000000000000000e+00 -1.3196271621238598e-01 1.0959564466151724e+01 1.0662312403804417e+01 1 0 0
1759 94 1 0.0000000000000000e+00 -5.8320456297632290e+00 1.3136276995425252e+01 1.2090065557932183e+01 1 0 0
1368 74 1 0.0000000000000000e+00 -1.1649627821871604e+00 1.2686032801337888e+01 1.2603510036399312e+01 1 0 0
1764 94 1 0.0000000000000000e+00 -4.5837692737887892e+00 1.4810413286759955e+01 7.8094926082374236e+00 1 0 0
1003 54 2 0.0000000000000000e+00 -6.7399311703688998e+00 7.3768369339886917e+00 1.2864230140216938e+01 1 0 0
1378 75 2 0.0000000000000000e+00 -4.0337652750139226e+00 1.2108888702405761e+01 1.4200646001913375e+01 1 0 0
1000 54 2 0.0000000000000000e+00 -5.6250696477197231e+00 9.5227160799857113e+00 1.3508531559925137e+01 1 0 0
1766 94 3 0.0000000000000000e+00 -5.2946664027365955e+00 1.4026713431223758e+01 9.9828771791188746e+00 1 0 0
1006 54 3 0.0000000000000000e+00 -4.8470910390487276e+00 7.7845057354151468e+00 1.0125075556876389e+01 1 0 0
1763 94 2 0.0000000000000000e+00 -6.2608401617128244e+00 1.2333679663683935e+01 1.2602166237185349e+01 1 0 0
1367 74 4 0.0000000000000000e+00 5.2366158651187966e-01 1.0092121048167376e+01 9.7860539941087250e+00 1 0 0
1002 54 2 0.0000000000000000e+00 -2.5919829129875449e+00 1.0414050010950572e+01 9.9501977997022504e+00 1 0 0
1755 94 7 0.0000000000000000e+00 -5.2372526267304709e+00 1.4225328838767227e+01 1.2729989938925224e+01 1 0 0
1007 54 4 0.0000000000000000e+00 -5.7569947729068911e+00 7.2195891162414965e+00 1.0996714003710400e+01 1 0 0
1737 93 7 0.0000000000000000e+00 -6.1953559363140220e-01 1.4442634581789536e+01 5.2957686608910759e+00 1 0 0
1740 93 4 0.0000000000000000e+00 7.3399146684783334e-01 1.5590510172259448e+01 2.1590318312657022e+00 1 0 0
1744 93 2 0.0000000000000000e+00 1.2968914239562392e+00 1.6389447542382602e+01 2.4743360601589073e+00 1 0 0
1768 94 1 0.0000000000000000e+00 -3.9084906711231771e+00 1.5916720028077945e+01 8.4238119777641991e+00 1 0 0
1750 93 1 0.0000000000000000e+00 6.6435202569363083e-01 1.5293806470365311e+01 8.0184860541043235e-01 1 0 0
2112 113 2 0.0000000000000000e+00 3.9717124573967908e+00 1.5551809098158920e+01 5.5871888494854973e+00 1 0 0
2119 114 1 0.0000000000000000e+00 3.0264219369265177e-01 1.5692792876957563e+01 8.0626968317892338e+00 1 0 0
986 53 1 0.0000000000000000e+00 -2.9169992153473384e-01 8.8485092151128857e+00 5.4120839567319623e-01 1 0 0
1743 93 2 0.0000000000000000e+00 4.2081702134424237e-01 1.6262491161825082e+01 4.6502050984894492e+00 1 0 0
2127 114 4 0.0000000000000000e+00 3.9808986092593468e-01 1.5390692912777409e+01 9.4809251906570360e+00 1 0 0
1772 94 2 0.0000000000000000e+00 -3.3997745264465413e+00 1.6554646881486541e+01 7.7547573876285831e+00 1 0 0
1739 93 3 0.0000000000000000e+00 1.1973608707967154e-02 1.4855908807905557e+01 3.0781779331403567e+00 1 0 0
1754 93 2 0.0000000000000000e+00 1.2904758120789297e+00 1.5857605339888105e+01 7.3508401882937946e-02 1 0 0
2097 113 7 0.0000000000000000e+00 4.3965292941976513e+00 1.7167266991807097e+01 1.0999527380623826e+00 1 0 0
1756 94 5 0.0000000000000000e+00 -4.6283168108265667e+00 1.5213215989460267e+01 1.1976322066314236e+01 1 0 0
2101 113 1 0.0000000000000000e+00 4.9448216230604141e+00 1.6037161528531549e+01 1.7483870362024492e+00 1 0 0
2113 113 2 0.0000000000000000e+00 5.0799640865531188e+00 1.5048679018695061e+01 3.5557116672893319e+00 1 0 0
1738 93 5 0.0000000000000000e+00 -1.0424547604491963e-02 1.5310954385507221e+01 4.4057330416386291e+00 1 0 0
2108 113 3 0.0000000000000000e+00 3.8836907824253850e+00 1.6804208490011280e+01 3.8231770713358166e+00 1 0 0
2109 113 4 0.0000000000000000e+00 4.6680229787336280e+00 1.5889096139711384e+01 3.0663346660299364e+00 1 0 0
2273 113 6 0.0000000000000000e+00 3.6510045358804839e+00 1.7328413625881765e+01 3.4052716656622879e+00 1 0 0
2106 113 1 0.0000000000000000e+00 3.0051304764934006e+00 1.7454089937125811e+01 5.8619761668053902e+00 1 0 0
2107 113 4 0.0000000000000000e+00 3.6901807523462464e+00 1.6529513141972668e+01 5.1589621523869447e+00 1 0 0
2111 113 2 0.0000000000000000e+00 2.7339351057776602e+00 1.7255501185445830e+01 6.9115882812835521e+00 1 0 0
2115 114 7 0.0000000000000000e+00 -1.3639845615603985e-01 1.6965072103760612e+01 7.6333309120898338e+00 1 0 0
2126 114 3 0.0000000000000000e+00 -7.6940888118815387e-02 1.6358717057685254e+01 1.0445889959874249e+01 1 0 0
2120 114 2 0.0000000000000000e+00 -1.4354503077998615e-01 1.7221196345414164e+01 6.5760252031154129e+00 1 0 0
2123 114 2 0.0000000000000000e+00 5.0237248013406877e-01 1.4982025593341154e+01 7.2935500516163012e+00 1 0 0
1009 54 2 0.0000000000000000e+00 -3.2552372831016441e+00 7.3246740806061545e+00 7.1411632095568383e+00 1 0 0
2105 113 2 0.0000000000000000e+00 5.5030752423002625e+00 1.5415781716420321e+01 1.1186752214262903e+00 1 0 0
1742 93 2 0.0000000000000000e+00 -6.8777055471611970e-01 1.4777551610568963e+01 6.3463867411289243e+00 1 0 0
4396 234 5 0.0000000000000000e+00 -8.6407860069295506e-01 1.8097469409906677e-01 9.1886679441924457e+00 1 1 0
2117 114 3 0.0000000000000000e+00 -5.5310820746747336e-01 1.7565770078535625e+01 9.9989287134740632e+00 1 0 0
1761 94 2 0.0000000000000000e+00 -4.1096387499377620e+00 1.6042342472680932e+01 1.2405500775935232e+01 1 0 0
2274 114 6 0.0000000000000000e+00 -2.7738297207155505e-01 1.7014082270593295e+01 1.0292244813887443e+01 1 0 0
2254 94 6 0.0000000000000000e+00 -5.0497576697583826e+00 1.4606365017172786e+01 1.0277591299529675e+01 1 0 0
1342 73 2 0.0000000000000000e+00 4.1518231504962886e+00 1.1899151996411506e+01 -2.7847148558291623e-01 1 0 0
2124 114 1 0.0000000000000000e+00 -6.0915882920090070e-01 1.6977753397855608e+01 1.2745812217440298e+01 1 0 0
2125 114 4 0.0000000000000000e+00 -1.0795250514549437e-02 1.6072925422851174e+01 1.1866785092651325e+01 1 0 0
225 13 2 0.0000000000000000e+00 -1.9833101525111265e+00 2.6602194016506481e-01 5.3123592029986488e+00 1 0 0
2102 113 2 0.0000000000000000e+00 4.5966824882355644e+00 1.7232777455752696e+01 3.1229276976649012e-02 1 0 0
2099 113 3 0.0000000000000000e+00 3.3479779869531745e+00 1.7904821833997417e+01 3.1630562435567420e+00 1 0 0
2130 114 2 0.0000000000000000e+00 3.8533900351511718e-01 1.5163919838088898e+01 1.2221361170581392e+01 1 0 0
2138 115 2 0.0000000000000000e+00 -3.5629621617247755e+00 1.7395146999785304e+01 1.4397981136965063e+01 1 0 0
267 15 2 0.0000000000000000e+00 -8.2466112987401434e+00 1.5561669053232259e+00 1.4587518170365172e+01 1 0 0
4382 233 2 0.0000000000000000e+00 4.3576485620817929e+00 3.0430530022645857e-01 1.7488582823438492e-01 1 1 0
303 17 2 0.0000000000000000e+00 7.8351187230485380e+00 1.2750617814421390e+00 1.8226688753594300e-01 1 0 0
993 53 2 0.0000000000000000e+00 -2.0382067988176313e+00 6.2616246003170435e+00 3.0722020579195428e+00 1 0 0
1064 57 2 0.0000000000000000e+00 7.1026706964853208e+00 6.3815163594680451e+00 1.0534855789685351e+00 1 0 0
1752 93 2 0.0000000000000000e+00 -9.0896543221109705e-01 1.2304734059926655e+01 1.1529970930682378e+00 1 0 0
4416 235 4 0.0000000000000000e+00 -5.9262171196896611e+00 7.7035377473390476e-01 1.9235781017543534e+01 1 1 0
4420 235 2 0.0000000000000000e+00 -6.3114983638676616e+00 1.7525117571092761e+00 1.8816539837947939e+01 1 1 0
255 15 3 0.0000000000000000e+00 -8.9005363894804734e+00 3.1191946487286875e+00 1.8088731077789458e+01 1 0 0
256 15 4 0.0000000000000000e+00 -8.1685008897966824e+00 3.8400284528355764e+00 1.7189391843165481e+01 1 0 0
260 15 2 0.0000000000000000e+00 -7.7159169728125248e+00 4.8582308126767444e+00 1.7336098982910244e+01 1 0 0
231 13 2 0.0000000000000000e+00 -1.6515398864376635e+01 2.2442855871755976e+00 2.9473182141137045e+01 1 0 -1
4414 235 5 0.0000000000000000e+00 -4.9668397114300236e+00 4.3933509950746430e-01 1.7050692112447042e+01 1 1 0
264 15 3 0.0000000000000000e+00 -9.2666312587310706e+00 1.8546382608627630e+00 1.7821801018339752e+01 1 0 0
262 15 1 0.0000000000000000e+00 -8.4755104407101580e+00 2.0056538198644871e+00 1.5566945244459003e+01 1 0 0
266 15 1 0.0000000000000000e+00 -7.9444944385364327e+00 3.2884568123123468e+00 1.5906155284326498e+01 1 0 0
263 15 4 0.0000000000000000e+00 -9.1284802703826955e+00 1.3232849058231595e+00 1.6519463361824162e+01 1 0 0
735 15 6 0.0000000000000000e+00 -8.9241932018057035e+00 2.4122620328576811e+00 1.8061093785630352e+01 1 0 0
265 15 4 0.0000000000000000e+00 -1.0006487433869301e+01 1.0824361524560007e+00 1.8745106907205685e+01 1 0 0
1783 95 4 0.0000000000000000e+00 -9.0788315396388892e+00 1.3155528358131040e+01 1.6335763180082346e+01 1 0 0
613 35 7 0.0000000000000000e+00 -4.1388831991282764e+00 5.6982937719448961e+00 1.6214057351763177e+01 1 0 0
618 35 2 0.0000000000000000e+00 -3.9340066706227974e+00 6.1302446434022704e+00 1.5262881665962409e+01 1 0 0
615 35 3 0.0000000000000000e+00 -5.2053314082187807e+00 5.7609851626424220e+00 1.8356920061829026e+01 1 0 0
617 35 1 0.0000000000000000e+00 -3.5918674960815213e+00 4.4106357070731157e+00 1.6501251023620437e+01 1 0 0
621 35 2 0.0000000000000000e+00 -2.8925207430154645e+00 3.8881489804432374e+00 1.5816992358284068e+01 1 0 0
624 35 3 0.0000000000000000e+00 -4.6281938580680082e+00 4.5361935043665671e+00 1.8649266085019995e+01 1 0 0
625 35 4 0.0000000000000000e+00 -3.9306060749126797e+00 3.8029090821604457e+00 1.7666927546609010e+01 1 0 0
629 35 2 0.0000000000000000e+00 -3.6203822037309212e+00 2.8022987246252216e+00 1.7777308259826722e+01 1 0 0
755 35 6 0.0000000000000000e+00 -4.9220148674457125e+00 5.1052723985939661e+00 1.8436304262030504e+01 1 0 0
270 15 2 0.0000000000000000e+00 -7.3718714718048313e+00 3.8708320557586813e+00 1.5202977107811133e+01 1 0 0
614 35 5 0.0000000000000000e+00 -5.0230936214088828e+00 6.3348670484893654e+00 1.7120903579357378e+01 1 0 0
4419 235 2 0.0000000000000000e+00 -5.4969363410895475e+00 1.3520123020849475e+00 1.6821050730309711e+01 1 1 0
1025 55 4 0.0000000000000000e+00 -9.9440321659390278e+00 6.8854975214145888e+00 1.8279562975164914e+01 1 0 0
616 35 4 0.0000000000000000e+00 -5.9767211918789522e+00 6.4068615222928758e+00 1.9332546450869728e+01 1 0 0
1045 56 2 0.0000000000000000e+00 -1.2293788300184373e+01 7.4708294535287498e+00 2.2078934759196549e+01 1 0 0
2161 116 4 0.0000000000000000e+00 -8.8174105805184269e+00 1.6064358666447909e+01 2.7320220793473450e+01 1 0 0
254 15 5 0.0000000000000000e+00 -9.1162802036588548e+00 3.6217493292787433e+00 1.9403709879981609e+01 1 0 0
280 16 1 0.0000000000000000e+00 -1.2691976263142054e+01 2.2503452168681619e+00 2.3056257085265820e+01 1 0 0
2160 116 1 0.0000000000000000e+00 -9.6626558799510711e+00 1.6707516432297336e+01 2.8243920544823666e+01 1 0 0
258 15 2 0.0000000000000000e+00 -9.9008807639962573e+00 3.3106970733336372e+00 2.1312264972781428e+01 1 0 0
634 36 4 0.0000000000000000e+00 -1.0216547348644285e+01 6.3491727165545582e+00 2.6084786463503640e+01 1 0 0
287 16 2 0.0000000000000000e+00 -1.4539231593522782e+01 8.2884973477723528e-02 2.5804017921943885e+01 1 0 0
257 15 1 0.0000000000000000e+00 -1.0207658248574123e+01 1.5590484223046204e+00 2.0052233671014132e+01 1 0 0
284 16 1 0.0000000000000000e+00 -1.2086721287111828e+01 3.4040154294385596e+00 2.3459394704264426e+01 1 0 0
279 16 2 0.0000000000000000e+00 -1.4685894964789318e+01 6.4018969650428925e-01 2.8291544360211969e+01 1 0 0
1381 75 2 0.0000000000000000e+00 -2.8648402498037191e+00 1.0090664169054165e+01 1.4762989343551688e+01 1 0 0
288 16 2 0.0000000000000000e+00 -1.1513019224484614e+01 4.0252181173958643e+00 2.2759378582193523e+01 1 0 0
271 16 7 0.0000000000000000e+00 -1.3644555302848392e+01 2.5136024184753172e+00 2.7994223190692882e+01 1 0 0
272 16 5 0.0000000000000000e+00 -1.2983758541108664e+01 3.3918231913770560e+00 2.7060061682900034e+01 1 0 0