LAMMPS (15 May 2015)
Reading data file ...
  triclinic box = (-0.107635 -0.0404339 -0.357111) to (41.3876 35.9384 29.5551) with tilt (-0.0672341 -17.0362 -0.0417078)
  5 by 2 by 2 MPI processor grid
  reading atoms ...
  4560 atoms
  reading velocities ...
  4560 velocities
  scanning bonds ...
  3 = max bonds/atom
  scanning angles ...
  3 = max angles/atom
  scanning dihedrals ...
  8 = max dihedrals/atom
  scanning impropers ...
  1 = max impropers/atom
  reading bonds ...
  5040 bonds
  reading angles ...
  7200 angles
  reading dihedrals ...
  10560 dihedrals
  reading impropers ...
  2400 impropers
Finding 1-2 1-3 1-4 neighbors ...
 Special bond factors lj:   0          0          0         
 Special bond factors coul: 0          0          0         
  4 = max # of 1-2 neighbors
  8 = max # of 1-3 neighbors
  20 = max # of 1-4 neighbors
  16 = max # of special neighbors
4560 atoms in group all
720 atoms in group C
480 atoms in group S
1920 atoms in group H
720 atoms in group Si
240 atoms in group Na
240 atoms in group Ba
240 atoms in group O
4560 atoms in group naphthalene
2400 atoms in group carbon
960 atoms in group CO
Setting atom values ...
  720 settings made for charge
Setting atom values ...
  720 settings made for charge
Setting atom values ...
  1920 settings made for charge
Setting atom values ...
  480 settings made for charge
Setting atom values ...
  240 settings made for charge
Setting atom values ...
  240 settings made for charge
Setting atom values ...
  240 settings made for charge
Finding 1-2 1-3 1-4 neighbors ...
 Special bond factors lj:   0          0          0.5       
 Special bond factors coul: 0          0          0.5       
  4 = max # of 1-2 neighbors
  8 = max # of 1-3 neighbors
  20 = max # of 1-4 neighbors
  16 = max # of special neighbors
Neighbor list info ...
  4 neighbor list requests
  update every 1 steps, delay 0 steps, check yes
  master list distance cutoff = 12
Setting up run ...
Memory usage per processor = 13.4064 Mbytes
Step Temp Density PotEng E_vdwl E_tail E_coul E_long Press Volume Xy Xz Yz E_mol E_bond E_angle E_dihed 14[1] 14[2] 14[3] msd[4] msd2[4] msd3[4] msd4[4] naphthal Cella Cellb Cellc CellAlpha CellBeta CellGamma 2 3 27[1] 27[2] 27[3] 28[1] 28[2] 28[3] 
       0          298    1.2509986     3498.833            0            0            0            0   -15873.524    44657.537 -0.067234084   -17.036218 -0.041707817     3498.833    1521.0094     935.4334    889.67826    28.379601    18.846571    14.337846 7.7711016e-30 8.8746852e-30 6.8181724e-30 5.7534156e-30          298     41.49527    35.978931    34.423473    90.016431    119.66323    90.107069 1.4626234e-25 4.9466509e-24    28.379557    18.849013    14.339638    28.379812    18.845474    14.337264 
   10000    301.47574    1.2509986      3520.57            0            0            0            0   -2364.2825    44657.537 -0.067234084   -17.036218 -0.041707817      3520.57    1486.4788    990.93853    890.69881    28.381058    18.848519    14.336377 0.00036289236 0.00036105837  0.024387984  0.024374073    301.47574     41.49527    35.978931    34.423473    90.016431    119.66323    90.107069    460.93302    217.73542    28.378677    18.849309    14.338652    28.382084    18.848428    14.337415 
   20000    296.41293    1.2509986    3482.4776            0            0            0            0    -109.1335    44657.537 -0.067234084   -17.036218 -0.041707817    3482.4776    1447.7593    985.44384    897.58163    28.378943    18.846492    14.337771 0.00034194394 0.00034092564  0.023422672  0.023416293    296.41293     41.49527    35.978931    34.423473    90.016431    119.66323    90.107069    442.68861    205.16636     28.37955    18.848248    14.340297    28.380225    18.847758     14.33826 
   30000    298.69711    1.2509986    3488.1975            0            0            0            0   -1131.4855    44657.537 -0.067234084   -17.036218 -0.041707817    3488.1975    1458.4949    967.39529    905.70751    28.377805    18.850662    14.336123 0.00039174042 0.0003888907  0.022701601  0.022669063    298.69711     41.49527    35.978931    34.423473    90.016431    119.66323    90.107069    429.06036    235.04425    28.380776    18.849779    14.338758    28.377812    18.850682    14.336073 
   40000    291.48969    1.2509986    3543.2417            0            0            0            0   -1033.4782    44657.537 -0.067234084   -17.036218 -0.041707817    3543.2417    1484.5779    1014.6411    889.99892    28.378121    18.847419    14.336874 0.00036135505 0.00036040084  0.024376442  0.024371041    291.48969     41.49527    35.978931    34.423473    90.016431    119.66323    90.107069    460.71487    216.81303    28.380285    18.849658     14.33955    28.377933    18.846545    14.336414 
   50000    302.34352    1.2509986    3481.4038            0            0            0            0    1282.1024    44657.537 -0.067234084   -17.036218 -0.041707817    3481.4038     1425.876    997.35893    906.41468     28.38042    18.849312    14.337858 0.00034019814 0.00033952047  0.022998666  0.022986481    302.34352     41.49527    35.978931    34.423473    90.016431    119.66323    90.107069    434.67489    204.11888    28.380305    18.849313    14.339802    28.380426      18.8489    14.337527 
   60000    297.22644    1.2509986      3446.75            0            0            0            0   -576.22662    44657.537 -0.067234084   -17.036218 -0.041707817      3446.75    1409.0716    975.01713    912.71661    28.381684    18.850501    14.337714 0.00033337743 0.00032951508  0.023273239  0.023249518    297.22644     41.49527    35.978931    34.423473    90.016431    119.66323    90.107069    439.86434    200.02646    28.378833    18.847741     14.34095    28.381953    18.849848    14.337354 
   70000    291.34945    1.2509986    3546.4782            0            0            0            0   -44.695265    44657.537 -0.067234084   -17.036218 -0.041707817    3546.4782     1457.049     1019.466    914.11416    28.381588    18.847595    14.338832 0.00034619433 0.00034572336  0.022125789  0.022113252    291.34945     41.49527    35.978931    34.423473    90.016431    119.66323    90.107069    418.17752     207.7166    28.379095    18.848941    14.339136     28.38134    18.848529    14.338198 
   80000    293.44234    1.2509986    3479.3434            0            0            0            0     38.87028    44657.537 -0.067234084   -17.036218 -0.041707817    3479.3434    1447.0252    960.25638    915.85149    28.381119    18.849573    14.335953 0.00034565974 0.00034404721  0.022695369  0.022678213    293.44234     41.49527    35.978931    34.423473    90.016431    119.66323    90.107069    428.94259    207.39585    28.378565    18.849424     14.33896    28.378844    18.848529    14.334639 
   90000    301.70867    1.2509986    3473.5663            0            0            0            0    472.37243    44657.537 -0.067234084   -17.036218 -0.041707817    3473.5663    1404.8812    1004.4764    906.70701     28.37951    18.849995    14.336144 0.00031410171 0.00031340829  0.023773138  0.023754722    301.70867     41.49527    35.978931    34.423473    90.016431    119.66323    90.107069    449.31242    188.46103    28.379385    18.848322    14.339207    28.378786    18.849446    14.336003 
  100000    298.23587    1.2509986    3441.6695            0            0            0            0     646.6449    44657.537 -0.067234084   -17.036218 -0.041707817    3441.6695    1445.6702    957.23545    887.39736    28.380831    18.842951    14.336438 0.00037189729 0.00036649993  0.023487347  0.023471906    298.23587     41.49527    35.978931    34.423473    90.016431    119.66323    90.107069    443.91097    223.13838    28.378196    18.847276     14.33891    28.378962    18.842289    14.335126 
  110000    307.60093    1.2509986    3561.4034            0            0            0            0   -1251.8728    44657.537 -0.067234084   -17.036218 -0.041707817    3561.4034    1463.5619    1012.1452    929.89127    28.384193    18.845547    14.338858 0.00034295326 0.00034284884   0.02258163  0.022578282    307.60093     41.49527    35.978931    34.423473    90.016431    119.66323    90.107069    426.79292    205.77195    28.379394    18.848814    14.339834    28.381502    18.845843     14.33786 
  120000    297.15717    1.2509986    3530.7436            0            0            0            0   -905.82442    44657.537 -0.067234084   -17.036218 -0.041707817    3530.7436     1477.219    1031.4111    871.38827     28.38047    18.847249    14.338738 0.00033717821 0.00033681959  0.024690616  0.024670247    297.15717     41.49527    35.978931    34.423473    90.016431    119.66323    90.107069    466.65277    202.30693    28.379261    18.849411    14.339303    28.382221    18.848475    14.339623 
  130000      297.162    1.2509986    3573.3995            0            0            0            0    2328.0392    44657.537 -0.067234084   -17.036218 -0.041707817    3573.3995    1462.6708    1028.5609    919.91097    28.378393    18.846511    14.336479 0.00035395216 0.00035204274  0.023547944  0.023540378      297.162     41.49527    35.978931    34.423473    90.016431    119.66323    90.107069    445.05626     212.3713    28.380929    18.849096    14.339772    28.377521    18.846039     14.33585 
  140000    301.16819    1.2509986    3428.4519            0            0            0            0    1334.1868    44657.537 -0.067234084   -17.036218 -0.041707817    3428.4519    1428.8713    982.33726    868.34345    28.380582    18.847247    14.337609 0.00038272887 0.00038202051  0.023072618  0.023066531    301.16819     41.49527    35.978931    34.423473    90.016431    119.66323    90.107069    436.07259    229.63732    28.378805    18.848695    14.339433    28.381141    18.847541    14.337037 
  150000    307.82355    1.2509986     3443.484            0            0            0            0    184.60679    44657.537 -0.067234084   -17.036218 -0.041707817     3443.484    1422.5728    970.25605    894.65871     28.37823    18.846853    14.338138 0.00033365741 0.00033299651  0.023724552  0.023719736    307.82355     41.49527    35.978931    34.423473    90.016431    119.66323    90.107069    448.39416    200.19444    28.379963     18.84946    14.340182    28.380468    18.846141     14.33925 
  160000    299.38025    1.2509986    3507.0942            0            0            0            0   -662.91751    44657.537 -0.067234084   -17.036218 -0.041707817    3507.0942    1433.7159    992.39473    919.02405    28.376716    18.846958    14.335824 0.00034063204 0.00033971007  0.023941083  0.023931303    299.38025     41.49527    35.978931    34.423473    90.016431    119.66323    90.107069    452.48659    204.37923    28.379267    18.848916    14.340548     28.37907    18.848207    14.335936 
  170000    300.01783    1.2509986    3563.3888            0            0            0            0    595.46082    44657.537 -0.067234084   -17.036218 -0.041707817    3563.3888     1467.604     1004.102    931.76838    28.379222    18.847659    14.339227 0.00036397058 0.00035855893  0.023103386  0.023079139    300.01783     41.49527    35.978931    34.423473    90.016431    119.66323    90.107069    436.65411    218.38235    28.379385    18.848417     14.34188    28.382186    18.848848    14.339953 
  180000     297.7194    1.2509986     3506.283            0            0            0            0    2302.3869    44657.537 -0.067234084   -17.036218 -0.041707817     3506.283    1464.3514    1005.3036    883.38144    28.384172    18.850164    14.340811 0.00038413512 0.00038376042  0.022967122  0.022920932     297.7194     41.49527    35.978931    34.423473    90.016431    119.66323    90.107069    434.07871    230.48107    28.379261    18.849547     14.33968    28.382302    18.851027    14.340291 
  190000     300.9675    1.2509986    3564.1475            0            0            0            0    663.20853    44657.537 -0.067234084   -17.036218 -0.041707817    3564.1475    1495.3972    1031.4053    882.26799    28.378742    18.848808    14.337983 0.00039170157 0.00038987697  0.024371452  0.024346132     300.9675     41.49527    35.978931    34.423473    90.016431    119.66323    90.107069    460.62056    235.02094    28.380039    18.849943     14.34049    28.376703    18.849425    14.337471 
  200000    294.32967    1.2509986    3547.2546            0            0            0            0   -2305.3599    44657.537 -0.067234084   -17.036218 -0.041707817    3547.2546    1459.5638    1008.0816    918.41649    28.380765    18.850203    14.336425 0.0003548583 0.00035422359  0.023562141  0.023542103    294.32967     41.49527    35.978931    34.423473    90.016431    119.66323    90.107069    445.32457    212.91498    28.380312    18.848853    14.339442    28.380778     18.84979    14.336572 
  210000    297.80594    1.2509986    3531.1786            0            0            0            0   -648.53171    44657.537 -0.067234084   -17.036218 -0.041707817    3531.1786    1472.2476    974.25098    925.54306    28.380326    18.849126    14.339133 0.00033303036 0.00032948115  0.023248049  0.023232444    297.80594     41.49527    35.978931    34.423473    90.016431    119.66323    90.107069    439.38825    199.81822     28.38123    18.849543    14.340322    28.381507    18.847988    14.339798 
  220000    294.93682    1.2509986    3471.5478            0            0            0            0   -1162.9803    44657.537 -0.067234084   -17.036218 -0.041707817    3471.5478    1423.9266    958.99178    928.00666    28.379727    18.846849    14.335351 0.00036649879 0.00036277331  0.023966844  0.023951195    294.93682     41.49527    35.978931    34.423473    90.016431    119.66323    90.107069    452.97347    219.89928    28.381286    18.849858    14.339784    28.378143    18.847299    14.334176 
  230000    295.24023    1.2509986    3419.8599            0            0            0            0   -568.78874    44657.537 -0.067234084   -17.036218 -0.041707817    3419.8599    1380.2119    966.63482    914.80631    28.379939    18.849452     14.33867 0.00034697683 0.00034573783  0.022056923  0.022038285    295.24023     41.49527    35.978931    34.423473    90.016431    119.66323    90.107069    416.87596     208.1861    28.379966    18.849205    14.338621    28.378482    18.849553     14.33775 
  240000     294.0845    1.2509986    3504.2169            0            0            0            0   -881.22668    44657.537 -0.067234084   -17.036218 -0.041707817    3504.2169    1440.4788    997.71438     907.4953    28.380258    18.849184    14.337157 0.00035309656 0.00035083673  0.023647236  0.023644296     294.0845     41.49527    35.978931    34.423473    90.016431    119.66323    90.107069    446.93288    211.85793    28.379801    18.847763     14.33884    28.380171    18.846942    14.336453 
  250000    299.18916    1.2509986    3477.7944            0            0            0            0   -879.54451    44657.537 -0.067234084   -17.036218 -0.041707817    3477.7944    1440.1355    977.90886    904.24416    28.378838    18.850712    14.338193 0.00037303048 0.00036994156  0.024829716  0.024782593    299.18916     41.49527    35.978931    34.423473    90.016431    119.66323    90.107069    469.28175    223.81829    28.379215    18.847845    14.340906    28.377879    18.852061    14.337313 
  260000    293.99778    1.2509986    3536.4775            0            0            0            0   -1293.5704    44657.537 -0.067234084   -17.036218 -0.041707817    3536.4775     1469.558    1011.3919    896.35466    28.380412     18.84357    14.337579 0.00034724055 0.00034471441  0.023871219  0.023865101    293.99778     41.49527    35.978931    34.423473    90.016431    119.66323    90.107069    451.16615    208.34433    28.379059    18.847914    14.340673      28.3804    18.843126    14.337771 
  270000    293.25601    1.2509986    3511.5196            0            0            0            0    693.90167    44657.537 -0.067234084   -17.036218 -0.041707817    3511.5196    1453.9527    987.01061    907.24755    28.380993    18.849467    14.336941 0.00036190643 0.00036141898  0.023782677  0.023773842    293.25601     41.49527    35.978931    34.423473    90.016431    119.66323    90.107069     449.4927    217.14386    28.380157    18.848672    14.339741    28.378997     18.84829    14.336774 
  280000    299.62224    1.2509986    3452.8474            0            0            0            0    649.14264    44657.537 -0.067234084   -17.036218 -0.041707817    3452.8474    1424.2352    988.01817    887.38476    28.380525    18.847942    14.339628 0.00036296012 0.00036270422  0.022901696  0.022887211    299.62224     41.49527    35.978931    34.423473    90.016431    119.66323    90.107069    432.84216    217.77607    28.379141    18.849112    14.339909    28.381464     18.84798    14.339604 
  290000    300.28156    1.2509986     3464.523            0            0            0            0    -2489.212    44657.537 -0.067234084   -17.036218 -0.041707817     3464.523     1433.613    989.34252    885.70977    28.379901    18.853002    14.337624 0.00034058749 0.00033994126  0.023627743  0.023596039    300.28156     41.49527    35.978931    34.423473    90.016431    119.66323    90.107069    446.56445    204.35249    28.379084    18.849098    14.340283    28.380326    18.851056      14.3378 
  300000    296.05965    1.2509986    3456.3823            0            0            0            0    1528.3658    44657.537 -0.067234084   -17.036218 -0.041707817    3456.3823    1415.4119    971.28928    908.52034    28.379369    18.849059    14.336179 0.00030864791 0.00030698216  0.022146465  0.022131006    296.05965     41.49527    35.978931    34.423473    90.016431    119.66323    90.107069     418.5683    185.18875    28.380743     18.84941    14.339322     28.38011    18.849305    14.336429 
  310000    288.86513    1.2509986    3440.8328            0            0            0            0   -431.86628    44657.537 -0.067234084   -17.036218 -0.041707817    3440.8328    1446.3181    957.93425     883.7333    28.379007    18.847349    14.337438 0.00035907356 0.00035886544  0.023291591  0.023291544    288.86513     41.49527    35.978931    34.423473    90.016431    119.66323    90.107069    440.21119    215.44413     28.37961    18.849337    14.339955    28.380026    18.845432    14.337256 
  320000     301.2604    1.2509986    3520.3405            0            0            0            0   -985.28178    44657.537 -0.067234084   -17.036218 -0.041707817    3520.3405    1447.5608    1018.9856    897.68819    28.380284    18.846256    14.339646 0.00034181258 0.00034122135  0.022487159  0.022482571     301.2604     41.49527    35.978931    34.423473    90.016431    119.66323    90.107069    425.00742    205.08755     28.37895    18.849355    14.339964    28.378519    18.846179     14.33882 
  330000    297.33748    1.2509986    3589.9956            0            0            0            0    998.50892    44657.537 -0.067234084   -17.036218 -0.041707817    3589.9956    1497.3572    1012.6687    923.26839    28.376613    18.850067    14.336473 0.00037411619 0.00037319997  0.022604442  0.022575157    297.33748     41.49527    35.978931    34.423473    90.016431    119.66323    90.107069    427.22406    224.46971    28.378921    18.848955    14.338924     28.37496    18.847551    14.336066 
  340000    300.13403    1.2509986    3542.0634            0            0            0            0    90.501311    44657.537 -0.067234084   -17.036218 -0.041707817    3542.0634    1448.8949    1002.4133    929.40309    28.376324    18.847018    14.335474 0.00037690689 0.00037314947  0.024038083  0.024036177    300.13403     41.49527    35.978931    34.423473    90.016431    119.66323    90.107069    454.31988    226.14413    28.379448    18.849697    14.337828    28.378862    18.846111     14.33649 
  350000    293.53128    1.2509986    3499.0913            0            0            0            0   -114.22567    44657.537 -0.067234084   -17.036218 -0.041707817    3499.0913    1479.3801    983.13565    880.83089    28.382235    18.847548    14.338881 0.0003495599 0.00034682289   0.02360786  0.023604734    293.53128     41.49527    35.978931    34.423473    90.016431    119.66323    90.107069    446.18867    209.73594    28.379154    18.850551    14.340094    28.380892    18.846476    14.338242 
  360000    290.04661    1.2509986     3615.524            0            0            0            0   -1271.9492    44657.537 -0.067234084   -17.036218 -0.041707817     3615.524    1521.3618    987.26695    945.28631    28.376703    18.848943    14.335983 0.0003403338 0.00034016352  0.022872871   0.02283473    290.04661     41.49527    35.978931    34.423473    90.016431    119.66323    90.107069    432.29736    204.20028    28.379537    18.848851    14.339259    28.375448    18.849185    14.334955 
  370000    291.38921    1.2509986     3595.349            0            0            0            0    -263.8772    44657.537 -0.067234084   -17.036218 -0.041707817     3595.349     1504.966    997.61163    930.97387    28.379485    18.847671    14.337012 0.00032931747 0.00032905927  0.023718077  0.023709644    291.38921     41.49527    35.978931    34.423473    90.016431    119.66323    90.107069    448.27177    197.59048    28.379998    18.848799     14.33977    28.380912    18.848161    14.337321 
  380000    300.80031    1.2509986    3528.9331            0            0            0            0   -1443.6065    44657.537 -0.067234084   -17.036218 -0.041707817    3528.9331    1502.9042     961.2004     908.3923    28.379575    18.847188    14.337303 0.00033754986 0.0003354472   0.02204708  0.022032785    300.80031     41.49527    35.978931    34.423473    90.016431    119.66323    90.107069    416.68991    202.52991    28.378532    18.848464    14.340505    28.382919    18.847284    14.338434 
  390000    292.46001    1.2509986    3520.4858            0            0            0            0    1484.9354    44657.537 -0.067234084   -17.036218 -0.041707817    3520.4858    1481.1739    981.67969    901.44119    28.378608    18.846487      14.3384 0.00033994537 0.00033718655  0.023349579  0.023345715    292.46001     41.49527    35.978931    34.423473    90.016431    119.66323    90.107069    441.30716    203.96722    28.378723    18.850446    14.339739    28.378625    18.847015    14.337549 
  400000    300.52966    1.2509986    3549.1871            0            0            0            0    620.02663    44657.537 -0.067234084   -17.036218 -0.041707817    3549.1871    1484.4457    1024.9368    887.50702    28.382145    18.843473    14.336456 0.00036474286 0.00036149673  0.023223465  0.023210646    300.52966     41.49527    35.978931    34.423473    90.016431    119.66323    90.107069     438.9236    218.84571    28.378592    18.848239    14.338328    28.381449    18.842758    14.335604 
  410000    297.57074    1.2509986    3478.3003            0            0            0            0     1137.024    44657.537 -0.067234084   -17.036218 -0.041707817    3478.3003    1447.0005    979.91726    899.58994    28.376472    18.847774    14.337303 0.00033521482 0.00033343112  0.025334046  0.025317137    297.57074     41.49527    35.978931    34.423473    90.016431    119.66323    90.107069    478.81359    201.12889    28.379951    18.848051    14.338799    28.375964    18.846898    14.336983 
  420000    292.26559    1.2509986    3543.3194            0            0            0            0   -1389.4543    44657.537 -0.067234084   -17.036218 -0.041707817    3543.3194    1466.7271     1003.139    917.53907    28.379511    18.846014    14.338321 0.00033735903 0.00033539487  0.023874548  0.023867897    292.26559     41.49527    35.978931    34.423473    90.016431    119.66323    90.107069    451.22906    202.41542    28.380587    18.849693      14.3403    28.381185    18.847405    14.338284 
  430000    296.18447    1.2509986    3573.4792            0            0            0            0   -324.16181    44657.537 -0.067234084   -17.036218 -0.041707817    3573.4792    1474.9171    1043.5236    898.57665    28.381491    18.847664    14.336921 0.00037197011 0.00037117757  0.024281622  0.024272114    296.18447     41.49527    35.978931    34.423473    90.016431    119.66323    90.107069    458.92277    223.18207    28.380323    18.849461    14.339571    28.380933    18.848346    14.337205 
  440000    292.72569    1.2509986    3544.5197            0            0            0            0    980.87777    44657.537 -0.067234084   -17.036218 -0.041707817    3544.5197    1432.4757    1026.9436    928.16477    28.383871    18.852184    14.337666 0.00035415104 0.00035403822  0.024592573  0.024498933    292.72569     41.49527    35.978931    34.423473    90.016431    119.66323    90.107069    464.79975    212.49062    28.379387    18.849263    14.339491    28.386925    18.851973    14.338161 
  450000    297.41258    1.2509986    3505.9947            0            0            0            0   -1946.7024    44657.537 -0.067234084   -17.036218 -0.041707817    3505.9947    1421.5677    999.48141    927.24927    28.380667    18.844518    14.337652 0.00035610524 0.00035579748  0.023709244  0.023709214    297.41258     41.49527    35.978931    34.423473    90.016431    119.66323    90.107069    448.10483    213.66314    28.379519    18.848461    14.339677    28.379899    18.845576    14.337373 
  460000    303.60091    1.2509986    3505.3709            0            0            0            0    885.82365    44657.537 -0.067234084   -17.036218 -0.041707817    3505.3709    1447.2921    1012.0913    892.45029    28.380528    18.846718    14.337393 0.00040012831 0.00039988591  0.022983247  0.022975894    303.60091     41.49527    35.978931    34.423473    90.016431    119.66323    90.107069    434.38348    240.07698    28.379592    18.849404    14.339342     28.37775    18.846733    14.336032 
  470000    302.40045    1.2509986    3504.0554            0            0            0            0    -1637.437    44657.537 -0.067234084   -17.036218 -0.041707817    3504.0554    1471.5695    981.00111    897.84114    28.383916    18.847406    14.339518 0.00036710967 0.00036601251  0.022343725  0.022314908    302.40045     41.49527    35.978931    34.423473    90.016431    119.66323    90.107069    422.29651     220.2658    28.379539    18.849069    14.338592    28.383884    18.848531    14.338964 
  480000    295.03297    1.2509986      3525.21            0            0            0            0    597.93156    44657.537 -0.067234084   -17.036218 -0.041707817      3525.21    1465.5162    1020.7059    881.92122    28.380264    18.846088    14.338945 0.00034860342 0.00034856291  0.023165653  0.023157411    295.03297     41.49527    35.978931    34.423473    90.016431    119.66323    90.107069    437.83095    209.16205    28.379647    18.848853    14.339556    28.378059    18.844306    14.339215 
  490000    303.10341    1.2509986     3619.356            0            0            0            0    661.96168    44657.537 -0.067234084   -17.036218 -0.041707817     3619.356      1526.74    1005.8746    931.25135    28.378956     18.84667    14.336751 0.00035511258 0.00035435823  0.023501987  0.023494643    303.10341     41.49527    35.978931    34.423473    90.016431    119.66323    90.107069    444.18768    213.06755    28.379757    18.848668     14.34041    28.378257    18.847558    14.336499 
  500000     299.1949    1.2509986    3515.1831            0            0            0            0    1619.5684    44657.537 -0.067234084   -17.036218 -0.041707817    3515.1831    1451.2057    985.21866    917.87336    28.379768      18.8478    14.336289 0.00035299479 0.0003515529  0.023698968  0.023688507     299.1949     41.49527    35.978931    34.423473    90.016431    119.66323    90.107069    447.91061    211.79688    28.380339    18.848208    14.340065    28.379612    18.848105    14.335393 
  510000    301.88511    1.2509986    3458.2502            0            0            0            0    29.245833    44657.537 -0.067234084   -17.036218 -0.041707817    3458.2502    1384.1568    1005.6776    912.90366    28.379018    18.847405    14.336138 0.00036187795 0.00036101902  0.024195806  0.024194102    301.88511     41.49527    35.978931    34.423473    90.016431    119.66323    90.107069    457.30085    217.12677    28.379475     18.84832    14.339028    28.379171    18.846397      14.3366 
  520000     302.9791    1.2509986    3499.1514            0            0            0            0   -852.68949    44657.537 -0.067234084   -17.036218 -0.041707817    3499.1514    1430.6499    967.78672    936.10761    28.379933    18.847652    14.336521 0.00031924005 0.0003176908   0.02370804   0.02369637     302.9791     41.49527    35.978931    34.423473    90.016431    119.66323    90.107069    448.08206    191.54403    28.378423    18.848733    14.339206    28.379867     18.84862    14.335933 
  530000    295.50869    1.2509986     3561.469            0            0            0            0   -1539.1905    44657.537 -0.067234084   -17.036218 -0.041707817     3561.469    1483.1942     1008.373     910.3424    28.379051    18.847341    14.335015 0.00033648297 0.00033579132  0.022859251  0.022852052    295.50869     41.49527    35.978931    34.423473    90.016431    119.66323    90.107069    432.03996    201.88978    28.379196    18.849154    14.338902    28.380883    18.847497    14.335864 
  540000    299.79657    1.2509986     3539.457            0            0            0            0    2093.8396    44657.537 -0.067234084   -17.036218 -0.041707817     3539.457    1443.5614     996.5159    931.49739     28.37973    18.846561    14.335248 0.00038926968 0.00038579336  0.023642597   0.02363344    299.79657     41.49527    35.978931    34.423473    90.016431    119.66323    90.107069     446.8452    233.56181    28.380758      18.8479    14.340529    28.378244    18.846267      14.3348 
  550000    298.39799    1.2509986    3509.0639            0            0            0            0   -1512.1602    44657.537 -0.067234084   -17.036218 -0.041707817    3509.0639    1442.1129    1026.2696    887.06302    28.378763    18.844665    14.337577 0.00033710285 0.00033601449  0.023247463  0.023243939    298.39799     41.49527    35.978931    34.423473    90.016431    119.66323    90.107069    439.37717    202.26171    28.378722    18.849559    14.339944     28.37966    18.843604    14.337308 
  560000    300.97546    1.2509986    3490.4686            0            0            0            0   -674.49786    44657.537 -0.067234084   -17.036218 -0.041707817    3490.4686    1428.7044    1024.1182    887.21879    28.378653    18.845131    14.338394 0.00036255924 0.00036204123  0.023566132  0.023564673    300.97546     41.49527    35.978931    34.423473    90.016431    119.66323    90.107069    445.40001    217.53555    28.379051    18.849048    14.339127    28.379371    18.844866     14.33821 
  570000       301.22    1.2509986    3572.7182            0            0            0            0   -524.24176    44657.537 -0.067234084   -17.036218 -0.041707817    3572.7182    1475.8852    1029.8319     910.8563    28.378791    18.845057    14.335791 0.00037291852 0.00037206204  0.023243463  0.023235029       301.22     41.49527    35.978931    34.423473    90.016431    119.66323    90.107069    439.30156    223.75111    28.379778    18.849512    14.340386    28.382611    18.844852    14.336804 
  580000     295.3852    1.2509986    3463.3105            0            0            0            0    253.91986    44657.537 -0.067234084   -17.036218 -0.041707817    3463.3105    1424.2582    998.21201     889.4785    28.379416    18.848497    14.333924 0.00036186961 0.00036151888  0.022849044  0.022824932     295.3852     41.49527    35.978931    34.423473    90.016431    119.66323    90.107069    431.84705    217.12177    28.379587    18.849458    14.340028    28.380942    18.848831    14.333863 
  590000    300.18284    1.2509986    3597.0237            0            0            0            0   -335.98674    44657.537 -0.067234084   -17.036218 -0.041707817    3597.0237     1538.304    1001.3388    899.39151    28.380584    18.846906    14.338415 0.00034430497 0.0003438892   0.02324503  0.023239301    300.18284     41.49527    35.978931    34.423473    90.016431    119.66323    90.107069    439.33118    206.58298    28.379779      18.8486     14.34008    28.380554    18.847537    14.338226 
  600000    290.45051    1.2509986    3537.9014            0            0            0            0    563.41321    44657.537 -0.067234084   -17.036218 -0.041707817    3537.9014    1494.2499    1014.0936    882.16308    28.379299    18.846729    14.338004 0.00034384844 0.00034272439  0.023678274  0.023667411    290.45051     41.49527    35.978931    34.423473    90.016431    119.66323    90.107069    447.51949    206.30907    28.380087    18.849662    14.340287     28.37746    18.847774    14.337462 
  610000    296.43499    1.2509986    3503.4412            0            0            0            0    386.89927    44657.537 -0.067234084   -17.036218 -0.041707817    3503.4412    1444.8107    995.78436    909.61976    28.383472    18.847613    14.337724 0.00034160317 0.00034101377  0.023492436  0.023482341    296.43499     41.49527    35.978931    34.423473    90.016431    119.66323    90.107069    444.00716     204.9619    28.380206    18.848846    14.340011    28.382705    18.846088    14.336104 
  620000    300.38876    1.2509986    3608.7931            0            0            0            0   -96.233327    44657.537 -0.067234084   -17.036218 -0.041707817    3608.7931     1516.476    1011.2334    922.20703     28.37738    18.848851    14.335212 0.0003463526 0.00034527005  0.023580002  0.023567953    300.38876     41.49527    35.978931    34.423473    90.016431    119.66323    90.107069    445.66215    207.81156    28.379255    18.849086    14.340631    28.378567    18.848069    14.335323 
  630000    299.28062    1.2509986    3526.0302            0            0            0            0    681.48247    44657.537 -0.067234084   -17.036218 -0.041707817    3526.0302    1425.8321    1035.7882    905.39284    28.381603    18.848666    14.337574 0.00038672357 0.00038402247  0.023260595  0.023253405    299.28062     41.49527    35.978931    34.423473    90.016431    119.66323    90.107069    439.62535    232.03414    28.380185    18.847498    14.339539      28.3798     18.84815    14.337089 
  640000    294.07977    1.2509986    3538.0089            0            0            0            0    106.64792    44657.537 -0.067234084   -17.036218 -0.041707817    3538.0089    1458.9683    1039.8733    884.68103    28.382404    18.843788    14.339044 0.00033136676 0.00033105755  0.023321376  0.023308891    294.07977     41.49527    35.978931    34.423473    90.016431    119.66323    90.107069    440.77413    198.82006    28.379896     18.84859    14.339761    28.381891    18.843239    14.339044 
  650000    302.14002    1.2509986    3483.7269            0            0            0            0   -53.918823    44657.537 -0.067234084   -17.036218 -0.041707817    3483.7269    1422.7595      954.362    942.47107     28.38022    18.846288    14.336742 0.00037355036 0.00037113046  0.023692748  0.023687943    302.14002     41.49527    35.978931    34.423473    90.016431    119.66323    90.107069    447.79305    224.13022    28.381076    18.849335    14.339718    28.378632    18.846167    14.335552 
  660000    307.75175    1.2509986    3490.2692            0            0            0            0    265.72765    44657.537 -0.067234084   -17.036218 -0.041707817    3490.2692    1479.2081    986.56357    869.46723     28.37781    18.847366    14.338345 0.00036088639 0.00036033718  0.024181555   0.02417658    307.75175     41.49527    35.978931    34.423473    90.016431    119.66323    90.107069     457.0315    216.53183    28.380084    18.849401    14.339292    28.378905    18.847504    14.337443 
  670000    293.95065    1.2509986    3452.6607            0            0            0            0    634.93902    44657.537 -0.067234084   -17.036218 -0.041707817    3452.6607     1410.035    984.52156    904.53627    28.383014    18.845621    14.338116 0.0003366062 0.00033579613  0.023813517  0.023785661    293.95065     41.49527    35.978931    34.423473    90.016431    119.66323    90.107069    450.07558    201.96372    28.378803    18.848538    14.339769    28.384926    18.844794    14.338378 
  680000    298.59707    1.2509986    3516.2549            0            0            0            0   -318.48605    44657.537 -0.067234084   -17.036218 -0.041707817    3516.2549    1472.3347    1014.3256    875.98319    28.377026    18.848309    14.335402 0.00036301022 0.00036167952  0.023550148  0.023527307    298.59707     41.49527    35.978931    34.423473    90.016431    119.66323    90.107069     445.0979    217.80613    28.380089    18.848482    14.340513    28.377817    18.848879    14.334568 
  690000    296.57506    1.2509986    3485.5294            0            0            0            0    535.52137    44657.537 -0.067234084   -17.036218 -0.041707817    3485.5294    1473.0797    975.70433     885.0266    28.380812    18.846755    14.336332 0.00036280091 0.00036100304  0.024008977  0.024000156    296.57506     41.49527    35.978931    34.423473    90.016431    119.66323    90.107069    453.76978    217.68055     28.37916    18.848226    14.340649    28.380766    18.847009    14.334907 
  700000    298.21824    1.2509986    3416.9601            0            0            0            0   -681.84099    44657.537 -0.067234084   -17.036218 -0.041707817    3416.9601    1387.6094    966.17085    909.11377    28.382022     18.84678    14.338581 0.00035007663 0.00034941815  0.023314431  0.023312618    298.21824     41.49527    35.978931    34.423473    90.016431    119.66323    90.107069    440.64286    210.04598    28.379777    18.848322    14.340003    28.379631    18.845172    14.338564 
  710000    303.47766    1.2509986    3481.7135            0            0            0            0    953.09606    44657.537 -0.067234084   -17.036218 -0.041707817    3481.7135    1428.1243     990.9267    904.99221    28.378612    18.848006    14.337086 0.00036265063 0.00036061382  0.024327669   0.02432353    303.47766     41.49527    35.978931    34.423473    90.016431    119.66323    90.107069    459.79306    217.59038    28.380092     18.84907    14.338317    28.379135    18.847356     14.33764 
  720000    307.19649    1.2509986    3478.5075            0            0            0            0   -500.92834    44657.537 -0.067234084   -17.036218 -0.041707817    3478.5075    1461.8643    983.65621    880.88216    28.380043    18.846384    14.339258 0.00035696739 0.00035458775  0.024416191  0.024409281    307.19649     41.49527    35.978931    34.423473    90.016431    119.66323    90.107069    461.46612    214.18043    28.380365    18.847788    14.339163    28.378301    18.845272    14.339405 
  730000      290.881    1.2509986    3516.6927            0            0            0            0   -1764.9036    44657.537 -0.067234084   -17.036218 -0.041707817    3516.6927    1452.7708    1018.3793     890.2073    28.381578    18.847013    14.338596 0.00035506804 0.00035466571  0.023331804  0.023314476      290.881     41.49527    35.978931    34.423473    90.016431    119.66323    90.107069    440.97121    213.04082      28.3798    18.849392    14.340085    28.382604    18.848444     14.33811 
  740000    291.79018    1.2509986    3549.6381            0            0            0            0    987.58965    44657.537 -0.067234084   -17.036218 -0.041707817    3549.6381    1452.4918    984.84272    946.63386      28.3786    18.849941    14.337819 0.00035235095 0.00035212967   0.02407975  0.024054736    291.79018     41.49527    35.978931    34.423473    90.016431    119.66323    90.107069     455.1074    211.41057    28.379216     18.84913    14.339941    28.378017    18.850141    14.337371 
  750000    302.32584    1.2509986    3525.2492            0            0            0            0   -482.82371    44657.537 -0.067234084   -17.036218 -0.041707817    3525.2492    1496.2301    999.16024     877.3737    28.382757    18.849291    14.335669 0.00035414034 0.00035297978  0.024287351  0.024271821    302.32584     41.49527    35.978931    34.423473    90.016431    119.66323    90.107069    459.03106     212.4842    28.380413    18.849577    14.339968     28.38067    18.847798    14.334199 
  760000    300.42089    1.2509986    3540.4247            0            0            0            0   -999.36861    44657.537 -0.067234084   -17.036218 -0.041707817    3540.4247    1444.7918    1003.3727     930.8564    28.381915    18.847579    14.336055 0.00035264016 0.00034964363   0.02336675  0.023334526    300.42089     41.49527    35.978931    34.423473    90.016431    119.66323    90.107069     441.6317     211.5841    28.378492    18.849835    14.340728    28.384502    18.848607    14.336621 
  770000    295.84183    1.2509986     3503.729            0            0            0            0   -629.93994    44657.537 -0.067234084   -17.036218 -0.041707817     3503.729    1469.9195    988.47257    894.43568    28.377988    18.846731    14.335232 0.0003507334 0.00035032447  0.023726368   0.02372006    295.84183     41.49527    35.978931    34.423473    90.016431    119.66323    90.107069    448.42848    210.44004    28.379588     18.84856    14.339188    28.378763     18.84613    14.335078 
  780000     294.6872    1.2509986     3598.682            0            0            0            0   -2441.2424    44657.537 -0.067234084   -17.036218 -0.041707817     3598.682    1516.9508     981.4829    941.32509    28.378847    18.847397     14.33662 0.00034540486 0.00034457506  0.024114874  0.024114561     294.6872     41.49527    35.978931    34.423473    90.016431    119.66323    90.107069    455.77124    207.24292    28.379221    18.849747    14.339216    28.379985    18.845766    14.336819 
  790000    301.02499    1.2509986    3529.5695            0            0            0            0   -169.47841    44657.537 -0.067234084   -17.036218 -0.041707817    3529.5695    1485.2306     998.3643    893.36949    28.380724    18.847477     14.33709 0.00037372617 0.0003733042  0.023791311  0.023785826    301.02499     41.49527    35.978931    34.423473    90.016431    119.66323    90.107069     449.6559     224.2357    28.380068    18.848734    14.339926    28.379373    18.846769    14.335363 
  800000    293.22315    1.2509986    3552.1963            0            0            0            0     956.4093    44657.537 -0.067234084   -17.036218 -0.041707817    3552.1963    1469.1993    1009.7048    919.06626    28.377646    18.846811    14.337137 0.00033942086 0.0003385936  0.023104845  0.023100741    293.22315     41.49527    35.978931    34.423473    90.016431    119.66323    90.107069    436.68167    203.65252    28.379407    18.848172    14.339326    28.378785    18.847181    14.337632 
  810000    301.82263    1.2509986    3558.7598            0            0            0            0   -1852.6546    44657.537 -0.067234084   -17.036218 -0.041707817    3558.7598     1487.136    1009.0133    909.60176    28.381005    18.847073    14.339846 0.00033658768 0.0003361891  0.022432307  0.022416994    301.82263     41.49527    35.978931    34.423473    90.016431    119.66323    90.107069     423.9707    201.95261    28.379683    18.848876    14.340241    28.380368    18.848419     14.33978 
  820000    298.58434    1.2509986    3557.6704            0            0            0            0   -79.654299    44657.537 -0.067234084   -17.036218 -0.041707817    3557.6704    1461.9198    1036.6178    904.37761    28.380368    18.847157    14.336424 0.00037896291 0.00037883698  0.024230706  0.024225168    298.58434     41.49527    35.978931    34.423473    90.016431    119.66323    90.107069    457.96045    227.37774    28.379695    18.848921    14.339952    28.382122    18.845079    14.337051 
  830000    300.88968    1.2509986    3562.9432            0            0            0            0    42.568474    44657.537 -0.067234084   -17.036218 -0.041707817    3562.9432    1496.6886     986.0073    921.34617    28.379546    18.847194    14.336668 0.00035880136 0.00035754695    0.0231696   0.02316442    300.88968     41.49527    35.978931    34.423473    90.016431    119.66323    90.107069    437.90555    215.28081     28.37979    18.847948    14.339896    28.379289    18.847569    14.337984 
  840000    297.53817    1.2509986    3383.5461            0            0            0            0   -822.42149    44657.537 -0.067234084   -17.036218 -0.041707817    3383.5461    1407.8891    977.64695    849.44522     28.38162    18.848322    14.338775 0.00035249153 0.00035224592  0.024015458  0.023990089    297.53817     41.49527    35.978931    34.423473    90.016431    119.66323    90.107069    453.89226    211.49492    28.379786    18.848602    14.339792    28.383943    18.847674    14.339127 
  850000    296.57794    1.2509986    3446.5808            0            0            0            0    28.020644    44657.537 -0.067234084   -17.036218 -0.041707817    3446.5808    1404.8583    994.01047    894.24473    28.384542    18.845848    14.338237 0.00035885524 0.00035801432  0.023984115  0.023963798    296.57794     41.49527    35.978931    34.423473    90.016431    119.66323    90.107069    453.29989    215.31315    28.378651    18.849038    14.339493    28.383694    18.847675      14.3379 
  860000    300.94926    1.2509986    3523.1011            0            0            0            0   -1049.1327    44657.537 -0.067234084   -17.036218 -0.041707817    3523.1011    1456.5903    1019.1825    895.01433    28.380845    18.845166    14.337591 0.00037598796 0.00037205224  0.024361317   0.02435819    300.94926     41.49527    35.978931    34.423473    90.016431    119.66323    90.107069    460.42901    225.59278    28.380059    18.847716    14.338224    28.381277    18.844531    14.336965 
  870000    297.60127    1.2509986    3546.6588            0            0            0            0   -187.89933    44657.537 -0.067234084   -17.036218 -0.041707817    3546.6588    1500.4981    961.93931    925.36691    28.382208    18.849058    14.336358 0.00035584637 0.00035554463  0.021522798  0.021497907    297.60127     41.49527    35.978931    34.423473    90.016431    119.66323    90.107069    406.78098    213.50782    28.379891    18.849294    14.339306     28.38093    18.849998    14.335482 
  880000     290.7568    1.2509986    3519.3155            0            0            0            0    619.12032    44657.537 -0.067234084   -17.036218 -0.041707817    3519.3155    1448.4194    976.15266    934.11685    28.380011    18.848068    14.339197 0.00035725849 0.0003552722  0.023193512   0.02317893     290.7568     41.49527    35.978931    34.423473    90.016431    119.66323    90.107069    438.35749    214.35509    28.380728    18.848979    14.338855    28.379314    18.848135    14.339958 
  890000    297.63113    1.2509986    3458.8518            0            0            0            0   -865.18903    44657.537 -0.067234084   -17.036218 -0.041707817    3458.8518    1432.3383    990.33121    883.97711    28.381358    18.848969    14.338708 0.0003295736 0.00032933421  0.024871052  0.024865808    297.63113     41.49527    35.978931    34.423473    90.016431    119.66323    90.107069      470.063    197.74416    28.379376    18.849242    14.340031    28.379722    18.847604    14.338101 
  900000    297.71129    1.2509986    3515.4135            0            0            0            0    86.090377    44657.537 -0.067234084   -17.036218 -0.041707817    3515.4135    1441.3895     1007.531    910.74797    28.376186    18.846909    14.336579 0.00032502109  0.000324509  0.024213388  0.024202373    297.71129     41.49527    35.978931    34.423473    90.016431    119.66323    90.107069    457.63316    195.01265    28.378907    18.849231    14.339433    28.376809    18.846455    14.336245 
  910000    302.04298    1.2509986    3494.8162            0            0            0            0   -1775.0553    44657.537 -0.067234084   -17.036218 -0.041707817    3494.8162     1445.541    990.07488    901.01909    28.377675    18.851259    14.335943 0.00034067714 0.00033928743  0.023985924  0.023962017    302.04298     41.49527    35.978931    34.423473    90.016431    119.66323    90.107069    453.33408    204.40628    28.380718    18.848826     14.33971    28.378147    18.849662    14.335368 
  920000    297.77601    1.2509986    3581.6823            0            0            0            0   -344.28294    44657.537 -0.067234084   -17.036218 -0.041707817    3581.6823    1446.4281    1041.2942     936.6678    28.386918    18.847228    14.340276 0.00038567446 0.00038553002  0.022733977  0.022690614    297.77601     41.49527    35.978931    34.423473    90.016431    119.66323    90.107069    429.67227    231.40468    28.379909     18.84891    14.339538    28.385878     18.84681     14.33945 
  930000    292.65941    1.2509986     3532.741            0            0            0            0    1580.6592    44657.537 -0.067234084   -17.036218 -0.041707817     3532.741    1482.0869    991.53537    900.75695    28.380028    18.848808     14.33551 0.00034188451 0.00034174353  0.023543528  0.023524087    292.65941     41.49527    35.978931    34.423473    90.016431    119.66323    90.107069    444.97279     205.1307    28.379837    18.849185    14.339819    28.380841    18.848861    14.334635 
  940000    299.68063    1.2509986    3479.2727            0            0            0            0    929.47533    44657.537 -0.067234084   -17.036218 -0.041707817    3479.2727    1401.8108    1018.9311    902.91209     28.37761    18.847271    14.337643 0.00035795726 0.00035768274  0.022948433  0.022939527    299.68063     41.49527    35.978931    34.423473    90.016431    119.66323    90.107069    433.72549    214.77435    28.379234    18.848636    14.339469    28.377397    18.847176    14.337688 
  950000    291.50205    1.2509986    3564.3492            0            0            0            0   -986.55991    44657.537 -0.067234084   -17.036218 -0.041707817    3564.3492    1435.4096    1006.5157    961.38304    28.376694    18.845236    14.334907 0.00037393773 0.0003726487  0.023014876  0.023009272    291.50205     41.49527    35.978931    34.423473    90.016431    119.66323    90.107069    434.98126    224.36264    28.378637    18.849047    14.338973    28.378588    18.845188    14.335259 
  960000    294.26014    1.2509986    3565.7764            0            0            0            0    430.88641    44657.537 -0.067234084   -17.036218 -0.041707817    3565.7764    1488.8137     1012.271    912.72097    28.378476     18.84843    14.338337 0.00030424466 0.00030330334  0.024182221  0.024172946    294.26014     41.49527    35.978931    34.423473    90.016431    119.66323    90.107069     457.0441    182.54679    28.380162    18.848661     14.34031    28.380715    18.848098    14.338521 
  970000    304.09453    1.2509986    3491.2367            0            0            0            0    527.59159    44657.537 -0.067234084   -17.036218 -0.041707817    3491.2367    1429.7583    1009.6775     902.2814    28.381466    18.847433    14.336989 0.0003559667 0.0003530726   0.02239966  0.022391793    304.09453     41.49527    35.978931    34.423473    90.016431    119.66323    90.107069    423.35369    213.58002    28.378557    18.848303    14.340818    28.380774    18.848099    14.337031 
  980000    299.65232    1.2509986    3474.8827            0            0            0            0   -1947.6164    44657.537 -0.067234084   -17.036218 -0.041707817    3474.8827    1446.7109    988.14619    887.71563    28.378311    18.848712    14.336015 0.00033976102 0.00033814057  0.023746231  0.023735154    299.65232     41.49527    35.978931    34.423473    90.016431    119.66323    90.107069    448.80389    203.85661    28.378746    18.848107    14.339261    28.379484    18.848385    14.335684 
  990000    298.04925    1.2509986    3573.1746            0            0            0            0     700.1461    44657.537 -0.067234084   -17.036218 -0.041707817    3573.1746    1464.8004    1011.4625    932.10292    28.379423    18.847341      14.3369 0.00037368619 0.0003729034  0.022328934  0.022321429    298.04925     41.49527    35.978931    34.423473    90.016431    119.66323    90.107069    422.01695    224.21171    28.379246    18.848924    14.340462    28.377696     18.84648    14.335845 
 1000000    297.29122    1.2509986    3486.1896            0            0            0            0    1312.0207    44657.537 -0.067234084   -17.036218 -0.041707817    3486.1896    1427.1132    1002.6775    898.57233    28.381857    18.848093    14.340102 0.00034174979 0.00034041786  0.022715309   0.02270226    297.29122     41.49527    35.978931    34.423473    90.016431    119.66323    90.107069    429.31945    205.04988    28.379444    18.849709    14.338725    28.381188    18.846695    14.340373 
 1010000    299.77866    1.2509986    3526.9294            0            0            0            0    1948.0225    44657.537 -0.067234084   -17.036218 -0.041707817    3526.9294    1459.0931    980.53217    925.07042    28.382173    18.847134    14.337664 0.00038721964 0.00038279992  0.023873698  0.023868777    299.77866     41.49527    35.978931    34.423473    90.016431    119.66323    90.107069    451.21301    232.33178    28.380269    18.847319    14.338617    28.380546    18.847486    14.337843 
 1020000    299.58887    1.2509986    3565.9595            0            0            0            0   -610.77796    44657.537 -0.067234084   -17.036218 -0.041707817    3565.9595    1462.7197    1023.4777    921.19462    28.379975    18.846526     14.33626 0.00037400223 0.00037119106  0.023308191  0.023294656    299.58887     41.49527    35.978931    34.423473    90.016431    119.66323    90.107069    440.52493    224.40134    28.380496    18.849472    14.340949    28.378789    18.848231    14.335053 
 1030000    296.36767    1.2509986    3520.9558            0            0            0            0    -356.4017    44657.537 -0.067234084   -17.036218 -0.041707817    3520.9558    1412.1279    1021.4602    928.25819    28.377594    18.848217    14.335439 0.00032794382 0.00032767532  0.022890717  0.022870458    296.36767     41.49527    35.978931    34.423473    90.016431    119.66323    90.107069    432.63466    196.76629    28.379821    18.849457    14.339672    28.376333    18.847341    14.335103 
 1040000    300.52903    1.2509986    3492.7442            0            0            0            0   -928.12848    44657.537 -0.067234084   -17.036218 -0.041707817    3492.7442    1484.8728     969.4128    881.39662     28.37877    18.844735    14.338213 0.00034934641 0.00034799259  0.022533586  0.022522557    300.52903     41.49527    35.978931    34.423473    90.016431    119.66323    90.107069    425.88488    209.60785    28.380155    18.848497    14.338784    28.376923    18.843837    14.337312 
 1050000    298.56394    1.2509986    3554.3271            0            0            0            0   -1011.6335    44657.537 -0.067234084   -17.036218 -0.041707817    3554.3271    1438.8129    1024.9717     926.6736    28.377758    18.847153    14.337471 0.00035106986 0.00034967006  0.022398583  0.022393468    298.56394     41.49527    35.978931    34.423473    90.016431    119.66323    90.107069    423.33333    210.64192    28.379173    18.848293    14.338781     28.37803    18.846866    14.337302 
 1060000    304.84005    1.2509986    3529.4412            0            0            0            0    223.23156    44657.537 -0.067234084   -17.036218 -0.041707817    3529.4412    1460.5321     1005.464     902.1825    28.380453    18.847468    14.337176 0.0003510988 0.00034920611  0.022671499  0.022665305    304.84005     41.49527    35.978931    34.423473    90.016431    119.66323    90.107069    428.49144    210.65928    28.378861    18.847911    14.339196    28.379089    18.847804    14.336768 
 1070000    299.58588    1.2509986    3527.3415            0            0            0            0    915.22343    44657.537 -0.067234084   -17.036218 -0.041707817    3527.3415    1446.9912    1011.5249    910.61015    28.377518    18.846431    14.337132 0.00038050883 0.00037981582  0.023830159  0.023829263    299.58588     41.49527    35.978931    34.423473    90.016431    119.66323    90.107069    450.39012     228.3053    28.379791    18.848298    14.339282    28.379839    18.844713    14.336703 
 1080000    294.76071    1.2509986    3553.0478            0            0            0            0    1095.0474    44657.537 -0.067234084   -17.036218 -0.041707817    3553.0478    1456.1486     963.0962    971.67097    28.377237    18.845241    14.335295 0.00036054853 0.00036021012  0.022713935  0.022707027    294.76071     41.49527    35.978931    34.423473    90.016431    119.66323    90.107069    429.29347    216.32912    28.380089    18.848885    14.339835    28.377818     18.84543    14.335552 
 1090000    296.61152    1.2509986    3511.9882            0            0            0            0   -354.10486    44657.537 -0.067234084   -17.036218 -0.041707817    3511.9882    1436.2725    1029.8796    895.07561    28.379119    18.850318    14.337002 0.00036466063 0.00036298186   0.02295323  0.022919303    296.61152     41.49527    35.978931    34.423473    90.016431    119.66323    90.107069    433.81615    218.79638    28.378727    18.848022    14.339547    28.382432    18.850676    14.337218 
 1100000    298.14179    1.2509986    3577.4644            0            0            0            0   -2357.3997    44657.537 -0.067234084   -17.036218 -0.041707817    3577.4644    1480.5689     1026.356    913.30813    28.379519    18.848772    14.335589 0.00036091364 0.00035903601  0.022918664  0.022896313    298.14179     41.49527    35.978931    34.423473    90.016431    119.66323    90.107069    433.16286    216.54818      28.3807    18.849755    14.339779    28.380739    18.850043     14.33648 
 1110000     300.2246    1.2509986    3449.5951            0            0            0            0    429.05734    44657.537 -0.067234084   -17.036218 -0.041707817    3449.5951      1418.26    970.57415    906.08334    28.383313    18.847559    14.339856 0.00033694927 0.00033523387  0.023946364  0.023926849     300.2246     41.49527    35.978931    34.423473    90.016431    119.66323    90.107069     452.5864    202.16956    28.379048    18.847912    14.339143    28.383049    18.847008    14.339849 
 1120000    296.32329    1.2509986    3439.5762            0            0            0            0   -2053.8074    44657.537 -0.067234084   -17.036218 -0.041707817    3439.5762    1419.3882    985.48985    884.03493    28.381859    18.849985    14.339219 0.00040846834 0.00040422183  0.023552649   0.02353841    296.32329     41.49527    35.978931    34.423473    90.016431    119.66323    90.107069    445.14519      245.081    28.380177    18.847871    14.338039    28.382083    18.848157    14.338637 
 1130000    299.63422    1.2509986    3491.6102            0            0            0            0   -1166.2898    44657.537 -0.067234084   -17.036218 -0.041707817    3491.6102    1437.9023    1010.9364    891.44147     28.37934    18.846397    14.337563 0.00036141477 0.00036039509  0.024000621  0.023999801    299.63422     41.49527    35.978931    34.423473    90.016431    119.66323    90.107069    453.61185    216.84886    28.378651    18.848675    14.339347    28.379907    18.846075    14.336593 
 1140000    306.70411    1.2509986    3509.4905            0            0            0            0   -202.66912    44657.537 -0.067234084   -17.036218 -0.041707817    3509.4905    1464.9078    1004.7974    891.19681    28.379939    18.850597    14.337766 0.00036481336 0.00036385295  0.023176021  0.023155943    306.70411     41.49527    35.978931    34.423473    90.016431    119.66323    90.107069     438.0269    218.88802    28.379231    18.849855     14.34002    28.380481    18.849901    14.337074 
 1150000    299.44003    1.2509986    3512.5882            0            0            0            0   -738.71664    44657.537 -0.067234084   -17.036218 -0.041707817    3512.5882    1419.8985    1033.9434    902.95737    28.379247    18.849192    14.337692 0.00035664945 0.00035518396  0.023027736  0.023014831    299.44003     41.49527    35.978931    34.423473    90.016431    119.66323    90.107069    435.22432    213.98967    28.380495    18.848673    14.340322    28.378841    18.848828     14.33811 
 1160000    297.06984    1.2509986      3482.56            0            0            0            0    351.33533    44657.537 -0.067234084   -17.036218 -0.041707817      3482.56    1382.9808    1012.5044    925.70864    28.380554    18.846962    14.338608 0.00033839422 0.00033716637  0.023461783  0.023456646    297.06984     41.49527    35.978931    34.423473    90.016431    119.66323    90.107069    443.42781    203.03653    28.379914    18.848791    14.340663     28.37982    18.847109    14.338834 
 1170000     295.2911    1.2509986    3517.0342            0            0            0            0    563.86349    44657.537 -0.067234084   -17.036218 -0.041707817    3517.0342    1406.7669    1011.2261    940.06913    28.381705     18.84933    14.334939 0.00036888122 0.00036812173  0.023752829  0.023726816     295.2911     41.49527    35.978931    34.423473    90.016431    119.66323    90.107069    448.92857    221.32873    28.378938    18.848714    14.339102    28.383277    18.848757    14.335466 
 1180000    299.06713    1.2509986    3551.7417            0            0            0            0    378.46626    44657.537 -0.067234084   -17.036218 -0.041707817    3551.7417    1428.0334    1008.7537    954.04702    28.381026    18.849978     14.33753 0.00035388756 0.00035298003  0.022032684  0.022007938    299.06713     41.49527    35.978931    34.423473    90.016431    119.66323    90.107069    416.41784    212.33253    28.378618    18.849131     14.33975    28.378215    18.850091    14.336324 
 1190000    300.58989    1.2509986    3494.2784            0            0            0            0    1092.0549    44657.537 -0.067234084   -17.036218 -0.041707817    3494.2784    1479.8085     949.5793    906.58826    28.381034    18.849463    14.337117 0.00036697162 0.00036656354  0.023683715  0.023642869    300.58989     41.49527    35.978931    34.423473    90.016431    119.66323    90.107069    447.62233    220.18297    28.379862    18.848452    14.339664    28.384904    18.849061    14.338698 
 1200000    298.11859    1.2509986     3563.518            0            0            0            0   -2013.7481    44657.537 -0.067234084   -17.036218 -0.041707817     3563.518    1498.2461    1027.5539    887.50997    28.382248    18.847387    14.337389 0.00035542939 0.00035373349  0.023783334  0.023780406    298.11859     41.49527    35.978931    34.423473    90.016431    119.66323    90.107069    449.50513    213.25763    28.378623    18.848582    14.338839    28.380733    18.846893    14.337003 
 1210000    297.15647    1.2509986    3472.9484            0            0            0            0   -300.08188    44657.537 -0.067234084   -17.036218 -0.041707817    3472.9484    1423.3834    1022.6968    881.06416    28.380098    18.848199    14.334528 0.00036799423 0.00036611787  0.023594172  0.023568494    297.15647     41.49527    35.978931    34.423473    90.016431    119.66323    90.107069    445.92997    220.79654    28.379722    18.849976    14.340598    28.380741    18.849686    14.334604 
 1220000    298.53951    1.2509986    3551.3119            0            0            0            0     82.88956    44657.537 -0.067234084   -17.036218 -0.041707817    3551.3119    1473.6736    1017.7429    904.57483    28.378238    18.849857    14.337715 0.00034914005 0.00034855605  0.022438207  0.022426689    298.53951     41.49527    35.978931    34.423473    90.016431    119.66323    90.107069    424.08223    209.48403    28.379225     18.84903    14.340327    28.380087    18.848755     14.33809 
 1230000    301.06906    1.2509986    3542.0773            0            0            0            0    45.357705    44657.537 -0.067234084   -17.036218 -0.041707817    3542.0773    1435.5568    1026.1052    919.67519    28.380542    18.848162    14.335921 0.00033720124 0.00033611217  0.022641729  0.022613653    301.06906     41.49527    35.978931    34.423473    90.016431    119.66323    90.107069    427.92879    202.32074    28.379264    18.848246    14.338993    28.382199     18.84991    14.335619 
 1240000    298.68888    1.2509986       3568.4            0            0            0            0   -301.64898    44657.537 -0.067234084   -17.036218 -0.041707817       3568.4    1456.8484     1027.697    925.49882    28.379501    18.850024    14.335452 0.00035513093 0.00035451663  0.023882867  0.023853646    298.68888     41.49527    35.978931    34.423473    90.016431    119.66323    90.107069     451.3863    213.07856    28.379118    18.849607    14.339377    28.379402    18.850216    14.334701 
 1250000    299.36344    1.2509986    3459.6427            0            0            0            0    564.66147    44657.537 -0.067234084   -17.036218 -0.041707817    3459.6427    1474.3595    970.24167      864.883    28.378981    18.847138    14.336524 0.00034741451 0.00034695962  0.023359168  0.023358968    299.36344     41.49527    35.978931    34.423473    90.016431    119.66323    90.107069    441.48839    208.44871    28.379813    18.849248     14.33906     28.37963    18.845643    14.337637 
 1260000    297.29066    1.2509986    3539.1307            0            0            0            0    20.249732    44657.537 -0.067234084   -17.036218 -0.041707817    3539.1307    1464.5738    1011.2277    910.12221    28.381798    18.848534    14.337323 0.0003447492 0.0003429772  0.025225914    0.0252174    297.29066     41.49527    35.978931    34.423473    90.016431    119.66323    90.107069    476.76989    206.84952    28.379439    18.848904    14.338317    28.381574    18.847798     14.33736 
 1270000    292.60347    1.2509986    3486.6709            0            0            0            0   -822.83418    44657.537 -0.067234084   -17.036218 -0.041707817    3486.6709    1421.2802    1012.8299    892.77795    28.378508    18.847214    14.339102 0.00033841024 0.00033752685  0.024533032  0.024517713    292.60347     41.49527    35.978931    34.423473    90.016431    119.66323    90.107069    463.67442    203.04615    28.380305    18.849462    14.339988    28.376454    18.847483     14.33717 
 1280000    292.42207    1.2509986    3531.5236            0            0            0            0    410.07983    44657.537 -0.067234084   -17.036218 -0.041707817    3531.5236     1475.793    1012.8567    888.45967    28.378183    18.846695     14.33531 0.00035125661 0.0003500183  0.023614752  0.023607792    292.42207     41.49527    35.978931    34.423473    90.016431    119.66323    90.107069    446.31892    210.75396    28.379748    18.848205    14.338897    28.378649    18.847165    14.335606 
 1290000    289.33245    1.2509986    3495.7238            0            0            0            0   -387.43401    44657.537 -0.067234084   -17.036218 -0.041707817    3495.7238    1419.7382    1006.1593    913.24249    28.379025    18.846126    14.336639 0.00036344907 0.00036139849  0.024681065  0.024667838    289.33245     41.49527    35.978931    34.423473    90.016431    119.66323    90.107069    466.47224    218.06944    28.380809    18.849526    14.340106    28.377278    18.847914    14.336342 
 1300000    302.50515    1.2509986    3538.7324            0            0            0            0   -1724.1206    44657.537 -0.067234084   -17.036218 -0.041707817    3538.7324    1462.5889     1026.057    902.02889    28.378561    18.847318    14.335351 0.0003361141 0.00033482525   0.02329506  0.023287556    302.50515     41.49527    35.978931    34.423473    90.016431    119.66323    90.107069    440.27674    201.66846    28.378492    18.849072    14.339248    28.378107    18.845636    14.335127 
 1310000    297.42002    1.2509986     3498.133            0            0            0            0   -2015.9987    44657.537 -0.067234084   -17.036218 -0.041707817     3498.133    1442.6388    991.38401    905.28538    28.380144    18.847978    14.339132 0.00036134533 0.0003605024  0.023708253  0.023701173    297.42002     41.49527    35.978931    34.423473    90.016431    119.66323    90.107069    448.08609     216.8072     28.37926    18.849064    14.338771    28.380227    18.847473    14.338971 
 1320000    296.54448    1.2509986    3558.8644            0            0            0            0   -1753.8645    44657.537 -0.067234084   -17.036218 -0.041707817    3558.8644    1452.2237    1024.2305    921.15294    28.378417      18.8493    14.336063 0.00037588224 0.0003737996   0.02249466  0.022475346    296.54448     41.49527    35.978931    34.423473    90.016431    119.66323    90.107069    425.14919    225.52935    28.380766    18.849777    14.339828    28.377576    18.849047    14.336018 
 1330000    297.89431    1.2509986    3543.3931            0            0            0            0    682.35887    44657.537 -0.067234084   -17.036218 -0.041707817    3543.3931    1470.0454    979.92494    931.50919    28.381362    18.848116    14.337478 0.0003773983 0.00037623481  0.023759265  0.023749131    297.89431     41.49527    35.978931    34.423473    90.016431    119.66323    90.107069    449.05023    226.43898    28.379491    18.848975    14.338562    28.379152    18.848586    14.337394 
 1340000    295.85798    1.2509986    3556.9176            0            0            0            0   -863.89541    44657.537 -0.067234084   -17.036218 -0.041707817    3556.9176    1483.2777    981.18552    936.99219    28.377027    18.848043    14.335596 0.0003644932 0.00036134589  0.023753264  0.023742043    295.85798     41.49527    35.978931    34.423473    90.016431    119.66323    90.107069    448.93679    218.69592     28.37893    18.849239    14.337994    28.378573     18.84792     14.33534 
 1350000    297.61508    1.2509986    3527.4434            0            0            0            0    1644.1382    44657.537 -0.067234084   -17.036218 -0.041707817    3527.4434     1453.924      1001.14    913.62122    28.380462    18.848891     14.33747 0.00035506119 0.0003526008  0.023721979   0.02369431    297.61508     41.49527    35.978931    34.423473    90.016431    119.66323    90.107069    448.34552    213.03671    28.378516    18.848174    14.340459    28.381506    18.850393    14.338045 
 1360000    290.98587    1.2509986    3453.2869            0            0            0            0    24.199348    44657.537 -0.067234084   -17.036218 -0.041707817    3453.2869    1404.0514    994.78522    900.27039    28.379725    18.849705    14.337108 0.00038877179 0.00038860335  0.023504776  0.023467284    290.98587     41.49527    35.978931    34.423473    90.016431    119.66323    90.107069    444.24038    233.26307    28.379399    18.848736    14.339379    28.382643    18.850894    14.337587 
 1370000    300.82662    1.2509986    3562.2091            0            0            0            0   -85.575124    44657.537 -0.067234084   -17.036218 -0.041707817    3562.2091    1483.8612    992.18703    924.97282    28.379862    18.851964    14.335547 0.00032793042 0.00032515964  0.023496945  0.023448292    300.82662     41.49527    35.978931    34.423473    90.016431    119.66323    90.107069    444.09238    196.75825    28.380576    18.848991    14.338323    28.378835    18.851996     14.33499 
 1380000    301.53923    1.2509986    3598.8458            0            0            0            0   -1337.8974    44657.537 -0.067234084   -17.036218 -0.041707817    3598.8458    1486.1694    1026.6445    924.87985     28.37731     18.84544    14.336662 0.00033720244 0.00033384617  0.023299587  0.023298674    301.53923     41.49527    35.978931    34.423473    90.016431    119.66323    90.107069     440.3623    202.32146    28.378303    18.847726    14.339278    28.379816     18.84568    14.338197 
 1390000    297.39428    1.2509986    3492.3008            0            0            0            0   -1462.1081    44657.537 -0.067234084   -17.036218 -0.041707817    3492.3008       1476.8    954.12476    907.18588    28.378698    18.843796    14.338012 0.00038761467 0.00038731018  0.025037077  0.025027096    297.39428     41.49527    35.978931    34.423473    90.016431    119.66323    90.107069    473.20087     232.5688    28.379613    18.849255    14.339145    28.378923    18.842685    14.338451 
 1400000    298.08339    1.2509986     3475.094            0            0            0            0    1412.6813    44657.537 -0.067234084   -17.036218 -0.041707817     3475.094     1403.966    981.16402     926.8361    28.380781    18.849603    14.338142 0.00033919611 0.00033738081  0.023910702  0.023896394    298.08339     41.49527    35.978931    34.423473    90.016431    119.66323    90.107069    451.91238    203.51766    28.378526    18.848976    14.340505    28.379704    18.849254    14.337376 
 1410000    301.35688    1.2509986    3549.2466            0            0            0            0    414.15138    44657.537 -0.067234084   -17.036218 -0.041707817    3549.2466    1442.7868    1054.5735    900.52185    28.381777     18.84759    14.335855 0.0003071667 0.00030654302  0.023144008  0.023136041    301.35688     41.49527    35.978931    34.423473    90.016431    119.66323    90.107069    437.42187    184.30002    28.380085    18.848453    14.339816    28.380923    18.846798    14.335032 
 1420000    308.03452    1.2509986     3497.326            0            0            0            0    1419.5738    44657.537 -0.067234084   -17.036218 -0.041707817     3497.326    1480.3052    978.07838    884.89066    28.378177    18.848894    14.336727 0.00035462328 0.00035072779  0.022530416  0.022511101    308.03452     41.49527    35.978931    34.423473    90.016431    119.66323    90.107069    425.82497    212.77397    28.379604    18.850744    14.340586    28.376574    18.848138    14.335948 
 1430000    296.80454    1.2509986    3540.6682            0            0            0            0    367.48584    44657.537 -0.067234084   -17.036218 -0.041707817    3540.6682    1469.8848    1016.4338    896.14829    28.379753    18.847316    14.337078 0.00033853691 0.00033758954  0.023850441  0.023846545    296.80454     41.49527    35.978931    34.423473    90.016431    119.66323    90.107069    450.77344    203.12215    28.379022    18.848971     14.34045     28.38153    18.845826    14.336358 
 1440000    301.67337    1.2509986    3537.9455            0            0            0            0    709.23183    44657.537 -0.067234084   -17.036218 -0.041707817    3537.9455    1433.1742    997.97147    946.27782    28.380131    18.844544    14.337125 0.00035073198 0.00034838479  0.024120205  0.024120153    301.67337     41.49527    35.978931    34.423473    90.016431    119.66323    90.107069    455.87199    210.43919    28.378077    18.849106     14.33925    28.379987    18.845335    14.337309 
 1450000    298.86163    1.2509986    3487.6077            0            0            0            0    963.81268    44657.537 -0.067234084   -17.036218 -0.041707817    3487.6077    1399.9555    1005.9938     923.6318    28.380244    18.848903    14.336503 0.00036610426 0.00036488738  0.024359902  0.024347502    298.86163     41.49527    35.978931    34.423473    90.016431    119.66323    90.107069    460.40227    219.66256    28.378737    18.849714    14.339869    28.381994    18.848049    14.336257 
 1460000     297.4214    1.2509986     3549.473            0            0            0            0    333.63441    44657.537 -0.067234084   -17.036218 -0.041707817     3549.473    1470.8948    978.69493    938.08313    28.379757    18.849539    14.337179 0.00036520114 0.00036322966  0.022908624  0.022902191     297.4214     41.49527    35.978931    34.423473    90.016431    119.66323    90.107069    432.97311    219.12068    28.380897     18.84912    14.339233    28.379308    18.847951     14.33748 
 1470000    295.15348    1.2509986    3546.9295            0            0            0            0    82.391192    44657.537 -0.067234084   -17.036218 -0.041707817    3546.9295    1461.3278    1005.6261    918.62794    28.380128    18.844784    14.335761 0.00036834151 0.00036674347  0.023036874  0.023031862    295.15348     41.49527    35.978931    34.423473    90.016431    119.66323    90.107069    435.39703    221.00491     28.37976    18.847765    14.339658    28.381029      18.8439    14.336238 
 1480000    296.15368    1.2509986    3514.3823            0            0            0            0   -1294.0918    44657.537 -0.067234084   -17.036218 -0.041707817    3514.3823    1434.8991    1007.1603    910.51707    28.377803    18.847986     14.33732 0.00036240026 0.00036141744  0.023918396  0.023916254    296.15368     41.49527    35.978931    34.423473    90.016431    119.66323    90.107069    452.05779    217.44016    28.379943    18.848178    14.339269    28.379127    18.846685    14.337719 
 1490000    301.73415    1.2509986    3577.1821            0            0            0            0    180.84018    44657.537 -0.067234084   -17.036218 -0.041707817    3577.1821    1490.8078    988.86012     930.9861    28.378889    18.847475    14.336411 0.00033993396 0.00033648966  0.024343542  0.024341304    301.73415     41.49527    35.978931    34.423473    90.016431    119.66323    90.107069    460.09307    203.96038    28.379279     18.84907    14.341472    28.379202    18.846532    14.336399 
 1500000    299.69249    1.2509986    3520.6884            0            0            0            0    1128.1604    44657.537 -0.067234084   -17.036218 -0.041707817    3520.6884    1452.5153    992.86993    912.54826    28.378176    18.849846     14.33758 0.00034835278 0.00034589809  0.023434222  0.023415441    299.69249     41.49527    35.978931    34.423473    90.016431    119.66323    90.107069    442.90691    209.01167    28.378297    18.849794    14.340147    28.380808     18.84962    14.338039 
 1510000     302.5648    1.2509986    3467.8038            0            0            0            0    2241.0799    44657.537 -0.067234084   -17.036218 -0.041707817    3467.8038    1403.7412    990.28433    916.50006    28.378302    18.849596    14.337719 0.00036056013 0.00036013417  0.023458789  0.023425797     302.5648     41.49527    35.978931    34.423473    90.016431    119.66323    90.107069    443.37123    216.33608    28.379772    18.848622    14.339162    28.378538    18.850799    14.339003 
 1520000    296.46654    1.2509986    3446.8322            0            0            0            0   -3082.2048    44657.537 -0.067234084   -17.036218 -0.041707817    3446.8322    1416.5069    967.44405    905.84224    28.381478    18.845743    14.338938 0.00034915259 0.00034621969  0.023652534  0.023646979    296.46654     41.49527    35.978931    34.423473    90.016431    119.66323    90.107069      447.033    209.49155    28.378656    18.848262    14.340886    28.381129    18.845614    14.339214 
[...]
 1630000     303.1228    1.2509986      3341.84            0            0            0            0    291.67335    44657.537 -0.067234084   -17.036218 -0.041707817      3341.84    1374.2345    958.04935     860.1017    28.382099    18.851794    14.336875 0.00037591566 0.00037386555   0.02392111  0.023882982     303.1228     41.49527    35.978931    34.423473    90.016431    119.66323    90.107069    452.10909    225.54939    28.379056    18.849402    14.340922     28.38066    18.851581    14.336922 
 1640000    301.56806    1.2509986    3461.2555            0            0            0            0   -653.19901    44657.537 -0.067234084   -17.036218 -0.041707817    3461.2555    1441.5197    977.66951     889.1953    28.378787    18.850449    14.339489 0.00034682395 0.00034564697  0.023128073  0.023104603    301.56806     41.49527    35.978931    34.423473    90.016431    119.66323    90.107069    437.12068    208.09437    28.379478     18.84851    14.340596    28.380624    18.849325    14.340089 
 1650000    298.73324    1.2509986    3520.2704            0            0            0            0   -1727.4541    44657.537 -0.067234084   -17.036218 -0.041707817    3520.2704    1416.9483    1024.7446    918.45315    28.380684    18.848082    14.335874 0.00036652537 0.0003659612  0.023412706  0.023393493    298.73324     41.49527    35.978931    34.423473    90.016431    119.66323    90.107069    442.50026    219.91522    28.379135    18.849631    14.339704     28.38151    18.849339    14.336084 
 1660000    297.17344    1.2509986    3545.0439            0            0            0            0   -689.18238    44657.537 -0.067234084   -17.036218 -0.041707817    3545.0439    1441.0795    1054.1785    893.44197    28.381154    18.847869    14.336511 0.00033933851 0.00033824391  0.023055483  0.023044218    297.17344     41.49527    35.978931    34.423473    90.016431    119.66323    90.107069    435.74874    203.60311    28.379972     18.84839    14.340368    28.380081    18.848778    14.336736 
 1670000    298.66956    1.2509986    3545.5755            0            0            0            0     879.5315    44657.537 -0.067234084   -17.036218 -0.041707817    3545.5755    1422.1075    1044.4597    921.37669    28.380694    18.848585    14.339127 0.00036877315 0.00036781865  0.022088081  0.022072762    298.66956     41.49527    35.978931    34.423473    90.016431    119.66323    90.107069    417.46484    221.26389     28.37989     18.84973    14.339065    28.378038    18.848745    14.338478 
 1680000    293.56108    1.2509986    3627.0898            0            0            0            0   -905.41954    44657.537 -0.067234084   -17.036218 -0.041707817    3627.0898    1477.6718    1069.1837    916.51665    28.378173    18.847964    14.336055 0.00035787678 0.00035547737  0.024113443  0.024102119    293.56108     41.49527    35.978931    34.423473    90.016431    119.66323    90.107069    455.74419    214.72607    28.378313    18.848529    14.340424    28.380489    18.847872    14.335002 
 1690000    294.37824    1.2509986    3498.6599            0            0            0            0   -1108.3069    44657.537 -0.067234084   -17.036218 -0.041707817    3498.6599    1443.8115    998.97167    904.56452    28.379345    18.848377    14.338004 0.00035414727 0.00035206803  0.024386539  0.024379805    294.37824     41.49527    35.978931    34.423473    90.016431    119.66323    90.107069    460.90571    212.48836    28.380024    18.848755    14.340978    28.380719    18.847623    14.338403 
 1700000    299.11457    1.2509986     3476.414            0            0            0            0   -1732.5542    44657.537 -0.067234084   -17.036218 -0.041707817     3476.414    1443.9081    979.79727    900.80009    28.380205     18.84983    14.336077 0.00035088016 0.00034991716  0.023564526  0.023553174    299.11457     41.49527    35.978931    34.423473    90.016431    119.66323    90.107069    445.36966     210.5281    28.380475    18.848999    14.339985    28.380405    18.848707    14.336523 
 1710000    292.59183    1.2509986    3491.6965            0            0            0            0    484.44354    44657.537 -0.067234084   -17.036218 -0.041707817    3491.6965    1449.4254    992.19812    895.72277     28.38118    18.843427    14.337819 0.00035502612 0.0003487209   0.02398372  0.023974923    292.59183     41.49527    35.978931    34.423473    90.016431    119.66323    90.107069    453.29242    213.01567    28.381533    18.847464    14.339665    28.381866    18.843386      14.3368 
 1720000    299.29489    1.2509986    3498.1325            0            0            0            0    182.33291    44657.537 -0.067234084   -17.036218 -0.041707817    3498.1325    1415.3715    1010.1116    912.84428    28.379316     18.84659    14.336689 0.00032854266 0.00032835471  0.024181943  0.024176619    299.29489     41.49527    35.978931    34.423473    90.016431    119.66323    90.107069    457.03883     197.1256    28.379758    18.848673    14.339816    28.378251    18.845928    14.335626 
 1730000    299.95819    1.2509986    3545.1911            0            0            0            0   -924.59241    44657.537 -0.067234084   -17.036218 -0.041707817    3545.1911    1416.3577     1038.219    930.04894    28.378107    18.848008    14.338009 0.00034528715 0.00034411903  0.023635163   0.02363172    299.95819     41.49527    35.978931    34.423473    90.016431    119.66323    90.107069    446.70469    207.17229     28.38051    18.849195    14.340114    28.378352    18.845474     14.33841 
 1740000    299.98972    1.2509986    3529.1561            0            0            0            0    443.51143    44657.537 -0.067234084   -17.036218 -0.041707817    3529.1561    1473.1983    955.54348    937.77335    28.380442    18.848657    14.338383 0.0003918299 0.00038822047  0.024528757  0.024523459    299.98972     41.49527    35.978931    34.423473    90.016431    119.66323    90.107069    463.59363    235.09794    28.380504    18.847672    14.338681    28.380724    18.847473    14.337952 
 1750000    296.03063    1.2509986    3462.2224            0            0            0            0   -1974.5501    44657.537 -0.067234084   -17.036218 -0.041707817    3462.2224    1416.5699    996.23025    901.30922    28.379439    18.847153    14.337415 0.00036875549 0.00036774577  0.024302149  0.024297638    296.03063     41.49527    35.978931    34.423473    90.016431    119.66323    90.107069    459.31074     221.2533    28.380001    18.849503    14.338882    28.381243    18.845886    14.338779 
 1760000    305.11688    1.2509986    3490.5099            0            0            0            0    1070.1105    44657.537 -0.067234084   -17.036218 -0.041707817    3490.5099    1445.5711    989.93183    900.29439    28.381885    18.844135    14.339853 0.00032588065 0.00032469916  0.023747154  0.023738966    305.11688     41.49527    35.978931    34.423473    90.016431    119.66323    90.107069    448.82132    195.52839    28.379361    18.847986    14.339342    28.380527     18.84546    14.340035 
 1770000    298.27119    1.2509986    3553.0607            0            0            0            0     678.9354    44657.537 -0.067234084   -17.036218 -0.041707817    3553.0607    1501.4064    964.96248     921.0063    28.381683    18.846832    14.337548 0.00038158989 0.00038121697  0.024153045  0.024149121    298.27119     41.49527    35.978931    34.423473    90.016431    119.66323    90.107069    456.49266    228.95393    28.379608    18.849238    14.340203    28.380137    18.847402    14.336945 
 1780000    298.32047    1.2509986    3484.3265            0            0            0            0    391.10322    44657.537 -0.067234084   -17.036218 -0.041707817    3484.3265    1400.9333    992.15254    934.83597    28.382362    18.849417     14.33824 0.00035157863 0.00035146205  0.022460864  0.022450401    298.32047     41.49527    35.978931    34.423473    90.016431    119.66323    90.107069    424.51043    210.94718    28.379589    18.848821    14.339919    28.381204    18.848376    14.337585 
 1790000    301.08547    1.2509986    3491.4469            0            0            0            0   -362.08645    44657.537 -0.067234084   -17.036218 -0.041707817    3491.4469    1462.2838    1003.2114    875.85839    28.380347    18.849503     14.33846 0.00037189169 0.00037163284  0.025310928  0.025287794    301.08547     41.49527    35.978931    34.423473    90.016431    119.66323    90.107069    478.37667    223.13501    28.379238    18.849345    14.339855     28.38187    18.849452    14.339018 
 1800000    292.64287    1.2509986    3473.5661            0            0            0            0    213.70516    44657.537 -0.067234084   -17.036218 -0.041707817    3473.5661    1425.9035    998.88582    893.46754    28.380202    18.846891    14.338109 0.00038019897 0.00037931143   0.02406949  0.024068774    292.64287     41.49527    35.978931    34.423473    90.016431    119.66323    90.107069    454.91348    228.11938    28.378686    18.849137    14.339977    28.378983    18.845593    14.337389 
 1810000     290.8254    1.2509986    3484.1757            0            0            0            0    537.68857    44657.537 -0.067234084   -17.036218 -0.041707817    3484.1757    1414.4048    987.72917    924.10879     28.37785    18.846597    14.337498 0.00036004545 0.00035958127   0.02223763  0.022225807     290.8254     41.49527    35.978931    34.423473    90.016431    119.66323    90.107069    420.29132    216.02727    28.379762    18.849621    14.339865    28.378043    18.848416    14.337467 
 1820000    304.89728    1.2509986    3542.6579            0            0            0            0   -765.58547    44657.537 -0.067234084   -17.036218 -0.041707817    3542.6579    1425.9702    1010.6003    945.99854    28.381296    18.850521    14.337659 0.00033037911 0.0003256858  0.022275466  0.022247233    304.89728     41.49527    35.978931    34.423473    90.016431    119.66323    90.107069    421.00641    198.22747    28.379856    18.848896    14.341781    28.378998    18.850718    14.336998 
 1830000    301.30793    1.2509986    3559.3716            0            0            0            0   -1646.9487    44657.537 -0.067234084   -17.036218 -0.041707817    3559.3716    1485.2834    1027.5494    898.57686    28.378412    18.845665    14.336039 0.00036436111 0.00036393514  0.023879187  0.023877076    301.30793     41.49527    35.978931    34.423473    90.016431    119.66323    90.107069    451.31675    218.61666    28.379503    18.848473    14.339276    28.379517    18.845571    14.335845 
 1840000    300.16039    1.2509986    3479.7745            0            0            0            0    369.41132    44657.537 -0.067234084   -17.036218 -0.041707817    3479.7745    1410.4564    1022.1832     891.0825    28.383413    18.847351    14.337199 0.00033987729 0.00033920368  0.023527658   0.02349332    300.16039     41.49527    35.978931    34.423473    90.016431    119.66323    90.107069    444.67285    203.92637    28.380104    18.848483    14.339332    28.384985    18.848209    14.336946 
 1850000    298.12518    1.2509986    3499.9746            0            0            0            0    387.79412    44657.537 -0.067234084   -17.036218 -0.041707817    3499.9746     1411.051    998.23282    932.66361    28.379908    18.848097     14.33615 0.00037180143 0.00037098642  0.023624392  0.023606592    298.12518     41.49527    35.978931    34.423473    90.016431    119.66323    90.107069    446.50111    223.08086    28.380167    18.848626    14.339098    28.380434     18.84962    14.336787 
 1860000    299.38886    1.2509986    3537.2091            0            0            0            0    3115.1273    44657.537 -0.067234084   -17.036218 -0.041707817    3537.2091    1458.8249    969.20657    938.96667    28.378085    18.849256     14.33573 0.00035125974 0.00035097135  0.022288828  0.022270076    299.38886     41.49527    35.978931    34.423473    90.016431    119.66323    90.107069    421.25896    210.75585    28.379691    18.848882    14.340141    28.378981    18.849534    14.336006 
 1870000    291.64513    1.2509986    3549.8294            0            0            0            0   -799.67744    44657.537 -0.067234084   -17.036218 -0.041707817    3549.8294     1478.947    975.50811    928.04697    28.379043    18.849417    14.336249 0.00034496889 0.00034373553  0.023079347  0.023059621    291.64513     41.49527    35.978931    34.423473    90.016431    119.66323    90.107069    436.19976    206.98133    28.378832    18.849814    14.339898    28.380069    18.849702    14.335927 
 1880000    301.69253    1.2509986    3492.9488            0            0            0            0    1408.5524    44657.537 -0.067234084   -17.036218 -0.041707817    3492.9488    1444.4941    1011.3894    885.07825    28.378435     18.84506    14.335353 0.00036093348 0.00036052523  0.023165445  0.023158067    301.69253     41.49527    35.978931    34.423473    90.016431    119.66323    90.107069    437.82702    216.56009    28.379715    18.848724    14.340186    28.378339    18.845223    14.334996 
 1890000    296.18166    1.2509986    3636.1136            0            0            0            0   -884.82516    44657.537 -0.067234084   -17.036218 -0.041707817    3636.1136    1524.3827    1040.2118    914.60212    28.378829    18.846223    14.337042 0.00036561456 0.00036519918  0.023250628  0.023247873    296.18166     41.49527    35.978931    34.423473    90.016431    119.66323    90.107069    439.43698    219.36874     28.38012     18.84877     14.33944    28.380619    18.846657    14.336425 
 1900000    293.72783    1.2509986    3516.9842            0            0            0            0    261.08722    44657.537 -0.067234084   -17.036218 -0.041707817    3516.9842    1431.4493    1005.2813     926.1046    28.379572    18.847745    14.334345 0.00034524553 0.00034346383  0.023018272  0.023001272    293.72783     41.49527    35.978931    34.423473    90.016431    119.66323    90.107069    435.04546    207.14732    28.380577    18.848749    14.340457    28.379488    18.846198    14.333218 
 1910000    303.20616    1.2509986    3477.3724            0            0            0            0    544.83126    44657.537 -0.067234084   -17.036218 -0.041707817    3477.3724    1423.9924    1035.7402    865.91779    28.377087    18.847204    14.335752 0.00035710076 0.00035619734  0.024849857  0.024835031    303.20616     41.49527    35.978931    34.423473    90.016431    119.66323    90.107069    469.66242    214.26045    28.379448    18.848393    14.338926    28.378982     18.84882    14.335548 
 1920000    299.60153    1.2509986    3624.4217            0            0            0            0    577.70635    44657.537 -0.067234084   -17.036218 -0.041707817    3624.4217    1465.8967    1027.1642    971.73784    28.382121    18.849156    14.335903 0.00034175219 0.00034062127  0.022661686  0.022632839    299.60153     41.49527    35.978931    34.423473    90.016431    119.66323    90.107069    428.30598    205.05131    28.380018    18.848143    14.339235    28.383019    18.849464    14.335636 
 1930000    293.67647    1.2509986    3547.2109            0            0            0            0   -1693.5762    44657.537 -0.067234084   -17.036218 -0.041707817    3547.2109    1488.1718    1010.8158    895.35082    28.379161    18.846944    14.338776 0.00037679306 0.00037336461  0.023581691  0.023574535    293.67647     41.49527    35.978931    34.423473    90.016431    119.66323    90.107069    445.69407    226.07584    28.377777    18.848704    14.340046    28.378177    18.846931      14.3388 
 1940000    301.80885    1.2509986    3548.3828            0            0            0            0   -1092.5579    44657.537 -0.067234084   -17.036218 -0.041707817    3548.3828    1431.4521     1045.508    907.97395    28.378912    18.845748    14.337795 0.00037230071 0.00036656796   0.02488213  0.024875153    301.80885     41.49527    35.978931    34.423473    90.016431    119.66323    90.107069    470.27238    223.38043    28.379356     18.84681    14.338721    28.378162    18.847235    14.338338 
 1950000    296.27051    1.2509986    3425.3657            0            0            0            0    1169.1544    44657.537 -0.067234084   -17.036218 -0.041707817    3425.3657    1414.2417    974.60525     886.9395    28.379928    18.847489    14.337675 0.00033443094 0.00033118197  0.024101181  0.024096775    296.27051     41.49527    35.978931    34.423473    90.016431    119.66323    90.107069    455.51244    200.65857    28.379721    18.850518    14.340616    28.379644    18.847563    14.337131 
 1960000    298.26838    1.2509986    3487.9905            0            0            0            0   -285.10068    44657.537 -0.067234084   -17.036218 -0.041707817    3487.9905     1433.859    979.19398    920.26162    28.382182    18.847133    14.338146 0.00035494319 0.0003537667  0.023498173  0.023476363    298.26838     41.49527    35.978931    34.423473    90.016431    119.66323    90.107069    444.11558    212.96591    28.380603    18.849286    14.339549    28.384205     18.84624    14.338652 
 1970000    296.77613    1.2509986     3511.944            0            0            0            0   -429.19015    44657.537 -0.067234084   -17.036218 -0.041707817     3511.944    1485.7316    1026.3423    853.80557    28.380176    18.844611    14.337563 0.00033456909 0.00033282952  0.022183391  0.022180534    296.77613     41.49527    35.978931    34.423473    90.016431    119.66323    90.107069    419.26621    200.74145    28.378682    18.848735    14.340586    28.378824    18.845034    14.335965 
 1980000     306.0348    1.2509986     3494.001            0            0            0            0   -1237.6536    44657.537 -0.067234084   -17.036218 -0.041707817     3494.001    1416.3478     1005.613    917.69187    28.377428     18.84564    14.333992 0.0003708967 0.00036924845  0.023215407  0.023182737     306.0348     41.49527    35.978931    34.423473    90.016431    119.66323    90.107069    438.77131    222.53802    28.378875    18.849815    14.340373    28.375776    18.846909     14.33348 
 1990000    301.63586    1.2509986    3562.5835            0            0            0            0   -690.89324    44657.537 -0.067234084   -17.036218 -0.041707817    3562.5835    1461.3173    1024.1025    918.37373    28.383802    18.847203     14.33751 0.00035801697 0.00035560555  0.023356192  0.023344962    301.63586     41.49527    35.978931    34.423473    90.016431    119.66323    90.107069    441.43214    214.81018    28.380624    18.848859    14.340755    28.382484    18.847495    14.337198 
 2000000    303.23697    1.2509986    3562.8682            0            0            0            0    1128.7314    44657.537 -0.067234084   -17.036218 -0.041707817    3562.8682    1475.8626    1035.6593    898.60495    28.379779    18.845499     14.33813 0.00033336714 0.00033287731  0.024249483   0.02424652    303.23697     41.49527    35.978931    34.423473    90.016431    119.66323    90.107069    458.31534    200.02028    28.379757    18.848821    14.340281    28.381109    18.845403    14.338393 
Loop time of 3710.29 on 20 procs for 2000000 steps with 4560 atoms

Pair  time (%) = 2703.74 (72.8714)
Bond  time (%) = 343.123 (9.24789)
Neigh time (%) = 69.5383 (1.8742)
Comm  time (%) = 441.886 (11.9097)
Outpt time (%) = 0.525745 (0.0141699)
Other time (%) = 151.474 (4.08256)

Nlocal:    228 ave 238 max 222 min
Histogram: 2 3 5 2 2 1 3 1 0 1
Nghost:    5783.3 ave 5835 max 5739 min
Histogram: 1 3 1 3 3 2 4 2 0 1
Neighs:    83690.8 ave 87861 max 80958 min
Histogram: 1 5 4 1 4 0 2 1 1 1

Total # of neighbors = 1673816
Ave neighs/atom = 367.065
Ave special neighs/atom = 10.6316
Neighbor list builds = 14462
Dangerous builds = 0
System init for write_data ...
