LAMMPS data file via write_data, version 15 May 2015, timestep = 18500000

2593 atoms
6 atom types
1728 bonds
4 bond types
864 angles
3 angle types
0 dihedrals
3 dihedral types
0 impropers
1 improper types

-1.4898403473064512e+01 1.4898403473064512e+01 xlo xhi
-1.4898403473064512e+01 1.4898403473064512e+01 ylo yhi
-1.4898403473064512e+01 1.4898403473064512e+01 zlo zhi

Masses

1 15.9994
2 1.00794
3 12.0107
4 1.00794
5 12.0107
6 12.0107

Bond Coeffs # harmonic

1 1000 1
2 469 1.4
3 367 1.08
4 469 0.7

Angle Coeffs # harmonic

1 100 109.47
2 35 120
3 63 120

Dihedral Coeffs # opls

1 0 7.25 0 0
2 0 7.25 0 0
3 0 7.25 0 0

Improper Coeffs # cvff

1 2.5 -1 2

Atoms # full

2167 723 1 -8.1999999999999995e-01 -1.1693942408900661e+01 -1.3234452121207818e+01 -1.2964011051345375e+01 41 -9 48
2402 801 2 4.0999999999999998e-01 -1.0919831977093715e+01 -1.3068073724938321e+01 -1.1412068605620270e+01 37 -8 54
1450 484 1 -8.1999999999999995e-01 -1.0746016841910208e+01 -8.7929163922321116e+00 -1.2330959564610044e+01 35 -13 46
1452 484 2 4.0999999999999998e-01 -1.0272600357957522e+01 -8.8070362994781313e+00 -1.1450206616259090e+01 35 -13 46
1451 484 2 4.0999999999999998e-01 -1.1499807196369908e+01 -8.1368201966763092e+00 -1.2293728380113512e+01 35 -13 46
2168 723 2 4.0999999999999998e-01 -1.2600951919481071e+01 -1.3064229295188014e+01 -1.3349246357462853e+01 41 -9 48
196 66 1 -8.1999999999999995e-01 -1.3920855457655193e+01 -9.7958164865008115e+00 -1.3618920868718650e+01 37 -9 47
2401 801 1 -8.1999999999999995e-01 -1.0420476172571540e+01 -1.2895061810488150e+01 -1.0563093307440333e+01 37 -8 54
193 65 1 -8.1999999999999995e-01 -9.8279162386890349e+00 -5.0607121448248193e+00 -9.7796674177899021e+00 37 -5 43
2169 723 2 4.0999999999999998e-01 -1.1232420510321319e+01 -1.3942669697715164e+01 -1.3498308421611615e+01 41 -9 48
967 323 1 -8.1999999999999995e-01 -1.0233865728721391e+01 -8.0212255198312299e+00 -9.7859518352048660e+00 38 -11 52
968 323 2 4.0999999999999998e-01 -9.8251646438362599e+00 -8.6479009023435438e+00 -9.1224085221955420e+00 38 -11 52
2271 757 2 4.0999999999999998e-01 -9.7001101930634022e+00 -8.0325574103495718e+00 -1.3414992020287009e+01 45 -8 50
1559 520 2 4.0999999999999998e-01 -8.9580988324375035e+00 -1.4143375390011643e+01 -1.2942642208639631e+01 36 -8 48
2269 757 1 -8.1999999999999995e-01 -8.9380483312470247e+00 -7.5835877331353343e+00 -1.3881614170454792e+01 45 -8 50
969 323 2 4.0999999999999998e-01 -9.8695499273084799e+00 -7.1008847804231152e+00 -9.6434904790524882e+00 38 -11 52
2270 757 2 4.0999999999999998e-01 -8.0740430003008576e+00 -7.9038442676237874e+00 -1.3493054158810480e+01 45 -8 50
2403 801 2 4.0999999999999998e-01 -1.0960276932333530e+01 -1.2291856291093843e+01 -9.9758910299261174e+00 37 -8 54
1370 457 2 4.0999999999999998e-01 -1.0134961404406297e+01 -1.1761569907624487e+01 -1.3235980794831150e+01 39 -16 49
197 66 2 4.0999999999999998e-01 -1.3356664328436736e+01 -9.3570613062797747e+00 -1.2919470693855548e+01 37 -9 47
1558 520 1 -8.1999999999999995e-01 -8.4633299900389680e+00 -1.3606075427481189e+01 -1.2259589622566217e+01 36 -8 48
1560 520 2 4.0999999999999998e-01 -9.0342024839906436e+00 -1.3494050335152988e+01 -1.1446199605498805e+01 36 -8 48
195 65 2 4.0999999999999998e-01 -9.2799572044476530e+00 -5.1990694656441772e+00 -1.0604680397459740e+01 37 -5 43
176 59 2 4.0999999999999998e-01 -7.8213108269431491e+00 -5.2829364724575765e+00 -1.2084912208873851e+01 39 -11 51
1462 488 1 -8.1999999999999995e-01 -1.3613957978343521e+01 -8.4043079990051091e+00 -1.1252510273185944e+01 40 -3 48
1712 571 2 4.0999999999999998e-01 -1.2630762707183484e+01 -6.3466253531448409e+00 -1.0146352599794007e+01 39 -12 50
1464 488 2 4.0999999999999998e-01 -1.4378262983278017e+01 -7.8018505696600648e+00 -1.1022442422249657e+01 40 -3 48
516 172 2 4.0999999999999998e-01 -1.3970811946705600e+01 -1.1859186197664632e+01 -1.4301406288098134e+01 40 -10 55
514 172 1 -8.1999999999999995e-01 -1.3908329683339971e+01 -1.2856387315857097e+01 -1.4343050154446704e+01 40 -10 55
421 141 1 -8.1999999999999995e-01 -8.9165538360879655e+00 -9.9422075350742354e+00 -8.1043973908186437e+00 37 -12 49
206 69 2 4.0999999999999998e-01 -9.6237555962312928e+00 -1.3014453465552284e+01 -7.9814169748778481e+00 41 -8 48
2542 848 1 -8.1999999999999995e-01 -1.1662006867517750e+01 -1.0321183783984722e+01 -9.3827399773402185e+00 38 -11 47
2544 848 2 4.0999999999999998e-01 -1.1329534249377545e+01 -1.0587614193004674e+01 -8.4780162239480781e+00 38 -11 47
1371 457 2 4.0999999999999998e-01 -1.0289030645035330e+01 -1.0135836055809001e+01 -1.3233272872024303e+01 39 -16 49
1463 488 2 4.0999999999999998e-01 -1.3520354582985416e+01 -9.1078688567819093e+00 -1.0548032576795764e+01 40 -3 48
429 143 2 4.0999999999999998e-01 -8.1100779398669367e+00 -1.0810102304865941e+01 -1.3455057968375824e+01 42 -9 51
177 59 2 4.0999999999999998e-01 -8.8197172368177341e+00 -5.7699387766116157e+00 -1.3281895391200413e+01 39 -11 51
1631 544 2 4.0999999999999998e-01 -1.4175997542283207e+01 -5.5029590785832738e+00 -1.1906206844757532e+01 39 -8 46
205 69 1 -8.1999999999999995e-01 -9.0476777775174995e+00 -1.3780738903167293e+01 -7.6968308847030666e+00 41 -8 48
2384 795 2 4.0999999999999998e-01 -9.7326810075882317e+00 -5.3338183381685145e+00 -8.0490970108033295e+00 42 -13 49
198 66 2 4.0999999999999998e-01 -1.4322874363222933e+01 -9.0964254837446994e+00 -1.4209921141537089e+01 37 -9 47
1711 571 1 -8.1999999999999995e-01 -1.3047243643034832e+01 -5.4691841568401021e+00 -1.0384446903168911e+01 39 -12 50
1369 457 1 -8.1999999999999995e-01 -9.8022025893447609e+00 -1.0909192978449731e+01 -1.3639432714758776e+01 39 -16 49
2543 848 2 4.0999999999999998e-01 -1.1386033250343594e+01 -9.3794721673436783e+00 -9.5752654667434030e+00 38 -11 47
2406 802 2 4.0999999999999998e-01 -1.4820633310535737e+01 -1.0594553719822542e+01 -1.2317419677465489e+01 43 -9 47
1230 410 2 4.0999999999999998e-01 -1.3520577155440334e+01 -5.6403620154679448e+00 -1.4675874987645601e+01 39 -10 47
1630 544 1 -8.1999999999999995e-01 -1.4724966384108926e+01 -5.7265542048839286e+00 -1.2711617756268836e+01 39 -8 46
423 141 2 4.0999999999999998e-01 -8.6034826553645374e+00 -1.0809482212582946e+01 -8.4915270434402554e+00 37 -12 49
515 172 2 4.0999999999999998e-01 -1.4809052726075537e+01 -1.3254365788417854e+01 -1.4168810572777785e+01 40 -10 55
1655 552 2 4.0999999999999998e-01 -1.4870122096549597e+01 -1.4369697136518448e+01 -1.1484181379943230e+01 41 -10 48
175 59 1 -8.1999999999999995e-01 -8.5758647282006031e+00 -5.0086053645002533e+00 -1.2681099451914278e+01 39 -11 51
383 128 2 4.0999999999999998e-01 -1.3964414455377847e+01 -6.7973713220752234e+00 -7.6776738402444531e+00 41 -12 47
382 128 1 -8.1999999999999995e-01 -1.4745198774407845e+01 -7.4071561488348889e+00 -7.5413410091028465e+00 41 -12 47
427 143 1 -8.1999999999999995e-01 -7.1487755247078431e+00 -1.0845676424793226e+01 -1.3181780699166499e+01 42 -9 51
428 143 2 4.0999999999999998e-01 -6.9735011610985076e+00 -1.1698364809203804e+01 -1.2689592004273969e+01 42 -9 51
2067 689 2 4.0999999999999998e-01 -2.9145133213359209e+00 -8.5023007635778818e+00 -1.4134940021532671e+01 39 -8 47
2471 824 2 4.0999999999999998e-01 -2.4921509217673687e+00 -5.2870780681655685e+00 -1.0590222907938749e+01 36 -8 51
1192 398 1 -8.1999999999999995e-01 -6.1858363483931598e+00 -8.2978005791222404e+00 -1.2588418653536486e+01 35 -9 52
1609 537 1 -8.1999999999999995e-01 -5.8903892368387574e+00 -1.4530433764819607e+01 -1.3275859344587559e+01 35 -13 48
1482 494 2 4.0999999999999998e-01 -1.8814920888848086e+00 -6.4447101607085262e+00 -1.4209025474018699e+01 36 -10 48
2470 824 1 -8.1999999999999995e-01 -1.9954188959749573e+00 -5.1178707190621591e+00 -9.7389447832943503e+00 36 -8 51
1110 370 2 4.0999999999999998e-01 -1.3919335874748242e+00 -1.0615460218795182e+01 -1.4144353769905161e+01 38 -8 54
1480 494 1 -8.1999999999999995e-01 -1.2393189533627389e+00 -5.7008582718050977e+00 -1.4394353048125893e+01 36 -10 48
743 248 2 4.0999999999999998e-01 -8.8654453843342473e-01 -1.3573563336590462e+01 -1.4756179391623181e+01 36 -5 56
2333 778 2 4.0999999999999998e-01 -5.4506551655098274e+00 -1.1786995798831189e+01 -8.0180195329510155e+00 36 -8 48
1989 663 2 4.0999999999999998e-01 -2.8569536742127948e+00 -1.2455621760721129e+01 -1.3940530571897805e+01 43 -12 45
593 198 2 4.0999999999999998e-01 -1.5315553385926819e+00 -1.3523192961628421e+01 -8.0726560180219842e+00 32 -7 44
920 307 2 4.0999999999999998e-01 -2.8068364934772614e+00 -1.4470630802486363e+01 -9.7334141201147233e+00 41 -12 53
1481 494 2 4.0999999999999998e-01 -3.0257773186312598e-01 -6.0432565320362706e+00 -1.4321362722530814e+01 36 -10 48
51 17 2 4.0999999999999998e-01 -1.0847920641067965e-01 -7.4335993805192881e+00 -8.4333376260633806e+00 38 -14 47
629 210 2 4.0999999999999998e-01 -5.8604575842851130e+00 -1.3741588776599750e+01 -8.6241248904429888e+00 40 -5 44
628 210 1 -8.1999999999999995e-01 -5.6501647603764926e+00 -1.4641792000030700e+01 -8.2427334802102621e+00 40 -5 44
2407 803 1 -8.1999999999999995e-01 -3.8278616597798187e+00 -5.7679191708148991e+00 -1.1685880500583513e+01 35 -5 50
919 307 1 -8.1999999999999995e-01 -2.6727074514198534e+00 -1.3679144995617001e+01 -9.1370854237972416e+00 41 -12 53
537 179 2 4.0999999999999998e-01 -3.9305767929587336e+00 -1.0989251194704611e+01 -1.2592471640813047e+01 38 -11 53
806 269 2 4.0999999999999998e-01 -6.3755923584690830e+00 -6.9137136854743391e+00 -8.0735166982571442e+00 37 -4 48
2472 824 2 4.0999999999999998e-01 -1.2620288834096236e+00 -5.7907069044942752e+00 -9.6415854688094313e+00 36 -8 51
2065 689 1 -8.1999999999999995e-01 -3.5288691603766917e+00 -7.7259193923522336e+00 -1.4275820061825247e+01 39 -8 47
1109 370 2 4.0999999999999998e-01 -1.9658540820609360e+00 -9.8985919923608279e+00 -1.2793994368479819e+01 38 -8 54
902 301 2 4.0999999999999998e-01 -1.3425398035192888e+00 -1.2836249564580275e+01 -1.0296295577476187e+01 32 -8 51
1987 663 1 -8.1999999999999995e-01 -3.7933774533906970e+00 -1.2361621123978193e+01 -1.3602414205757999e+01 43 -12 45
1391 464 2 4.0999999999999998e-01 -4.4376393626528703e+00 -5.5727861172672455e+00 -8.3667690730106727e+00 36 -9 47
1610 537 2 4.0999999999999998e-01 -6.7250099668547723e+00 -1.4221360315665219e+01 -1.2819865789748651e+01 35 -13 48
1108 370 1 -8.1999999999999995e-01 -1.4980656318071315e+00 -9.7446117482221126e+00 -1.3664346247929098e+01 38 -8 54
903 301 2 4.0999999999999998e-01 -6.4726637643500062e-01 -1.3858112121100316e+01 -1.1363603878505677e+01 32 -8 51
1967 656 2 4.0999999999999998e-01 -3.8093950025700831e+00 -9.1871026358311028e+00 -8.5649631995057760e+00 39 -6 46
536 179 2 4.0999999999999998e-01 -4.0158203432780670e+00 -1.0114072945547333e+01 -1.1216407752809531e+01 38 -11 53
1968 656 2 4.0999999999999998e-01 -2.5946861104238117e+00 -9.2484256496840196e+00 -9.6546774292938782e+00 39 -6 46
1194 398 2 4.0999999999999998e-01 -6.4742244376919462e+00 -9.2546458615299265e+00 -1.2624856207023569e+01 35 -9 52
782 261 2 4.0999999999999998e-01 -6.4845781201967849e+00 -1.0905334982963998e+01 -1.4805225000489413e+01 34 -5 47
1390 464 1 -8.1999999999999995e-01 -4.9653704609909397e+00 -5.7833904536282290e+00 -9.1896870664014898e+00 36 -9 47
921 307 2 4.0999999999999998e-01 -3.5040312922052159e+00 -1.3123375223741855e+01 -9.1287844516777135e+00 41 -12 53
2408 803 2 4.0999999999999998e-01 -4.0677631959469398e+00 -6.5402174533785153e+00 -1.2274141398915663e+01 35 -5 50
1231 411 1 -8.1999999999999995e-01 -6.9600123508224829e+00 -6.2734862872532933e+00 -1.0919076372840482e+01 42 -10 52
901 301 1 -8.1999999999999995e-01 -6.2129066252607856e-01 -1.2934100210186218e+01 -1.0982060267733569e+01 32 -8 51
2332 778 1 -8.1999999999999995e-01 -4.9951097359199750e+00 -1.1848693298887760e+01 -8.9061186759466082e+00 36 -8 48
1988 663 2 4.0999999999999998e-01 -4.1903715457049433e+00 -1.3268943320950351e+01 -1.3463812535385445e+01 43 -12 45
1392 464 2 4.0999999999999998e-01 -4.3742620243943620e+00 -5.7089569400051712e+00 -9.9928675070160509e+00 36 -9 47
1233 411 2 4.0999999999999998e-01 -6.3131220469356553e+00 -6.0367313869322441e+00 -1.0194143040945953e+01 42 -10 52
2334 778 2 4.0999999999999998e-01 -4.4273475085516285e+00 -1.1037541023278312e+01 -9.0465691106408066e+00 36 -8 48
1966 656 1 -8.1999999999999995e-01 -3.3333131698733744e+00 -9.7680535115661975e+00 -9.2251832069133535e+00 39 -6 46
535 179 1 -8.1999999999999995e-01 -3.6879616819188872e+00 -1.0120263818604101e+01 -1.2161139806320470e+01 38 -11 53
1193 398 2 4.0999999999999998e-01 -5.2272049169965111e+00 -8.2278534731037460e+00 -1.2864428621345462e+01 35 -9 52
1232 411 2 4.0999999999999998e-01 -6.6477863157688120e+00 -7.0999667533686006e+00 -1.1387577423826679e+01 42 -10 52
783 261 2 4.0999999999999998e-01 -5.0329232321001189e+00 -1.1648241275332317e+01 -1.4718371444015908e+01 34 -5 47
1343 448 2 4.0999999999999998e-01 -1.1465211799955540e+01 -9.6444968661222461e+00 -4.6986799173037905e+00 33 -5 49
2410 804 1 -8.1999999999999995e-01 -1.0046047702280791e+01 -9.6034199807296119e+00 -2.6294575003684990e+00 40 -9 48
2411 804 2 4.0999999999999998e-01 -9.6074862093639286e+00 -9.1770394214016022e+00 -3.4206033511507545e+00 40 -9 48
913 305 1 -8.1999999999999995e-01 -9.5381448622834206e+00 -7.6873945613069985e+00 -4.7462961375019326e+00 34 -11 49
2383 795 1 -8.1999999999999995e-01 -9.5397079809980543e+00 -5.8172865608311550e+00 -7.1952421236130437e+00 42 -13 49
1270 424 1 -8.1999999999999995e-01 -1.2383851386489136e+01 -7.6768495178675966e+00 -2.3421127739997161e+00 41 -5 51
914 305 2 4.0999999999999998e-01 -1.0134498907828164e+01 -7.5042061283380894e+00 -5.5278664514628666e+00 34 -11 49
419 140 2 4.0999999999999998e-01 -1.3709088079189863e+01 -7.9515505397846011e+00 -3.6170642631148162e+00 36 -9 46
242 81 2 4.0999999999999998e-01 -1.1877493620621403e+01 -1.0294885238990663e+01 -2.2340501493285441e+00 38 -7 47
418 140 1 -8.1999999999999995e-01 -1.4315494877484843e+01 -8.4321677757525890e+00 -4.2505673461619828e+00 36 -9 46
241 81 1 -8.1999999999999995e-01 -1.2600741851036648e+01 -1.0768708975483896e+01 -1.7316047568307464e+00 38 -7 47
243 81 2 4.0999999999999998e-01 -1.3348598596440814e+01 -1.0131839121727054e+01 -1.5441071191583209e+00 38 -7 47
1344 448 2 4.0999999999999998e-01 -1.3071257588999167e+01 -9.5086337839140143e+00 -4.9611935126061173e+00 33 -5 49
1342 448 1 -8.1999999999999995e-01 -1.2245434729733182e+01 -1.0020042311393915e+01 -5.1989459435226806e+00 33 -5 49
2385 795 2 4.0999999999999998e-01 -8.6158419641796442e+00 -6.1985276574222024e+00 -7.2295217867085180e+00 42 -13 49
1496 499 2 4.0999999999999998e-01 -8.6696892856723000e+00 -1.2092157189058440e+01 -1.7309254198927846e+00 38 -3 47
1495 499 1 -8.1999999999999995e-01 -8.4321168670577045e+00 -1.1762233153731241e+01 -2.6445762087387745e+00 38 -3 47
1036 346 1 -8.1999999999999995e-01 -8.4238112961404781e+00 -5.6456431245035592e+00 -3.1115340721885634e+00 40 -9 47
1497 499 2 4.0999999999999998e-01 -8.9054979919353165e+00 -1.0899163325032772e+01 -2.8208406372023624e+00 38 -3 47
1099 367 1 -8.1999999999999995e-01 -1.3516915915152170e+01 -1.3273088729465249e+01 -2.5869949781847712e+00 43 -11 43
1037 346 2 4.0999999999999998e-01 -8.7814050883255206e+00 -5.4160657668931478e+00 -2.2062886715702685e+00 40 -9 47
185 62 2 4.0999999999999998e-01 -1.1958292176444116e+01 -1.2830841869971648e+01 -6.7299450874755280e+00 41 -9 50
915 305 2 4.0999999999999998e-01 -9.1527085451714854e+00 -6.8272046463347298e+00 -4.4122894586543282e+00 34 -11 49
1271 424 2 4.0999999999999998e-01 -1.1474941257079893e+01 -7.8505394338980290e+00 -1.9629525784565534e+00 41 -5 51
184 62 1 -8.1999999999999995e-01 -1.1238661948121326e+01 -1.2163843505255844e+01 -6.9230611659583614e+00 41 -9 50
186 62 2 4.0999999999999998e-01 -1.1387808045083903e+01 -1.1343378943612205e+01 -6.3711176768151088e+00 41 -9 50
528 176 2 4.0999999999999998e-01 -8.6568450542470288e+00 -1.2952340817635417e+01 -4.4225667424515791e+00 40 -11 51
1575 525 2 4.0999999999999998e-01 -9.6819076677945439e+00 -1.4081398866227783e+01 -7.5464943138358365e-01 39 -10 49
2257 753 1 -8.1999999999999995e-01 -1.1938041361424718e+01 -1.4295951436985275e+01 -4.6106327831333171e+00 42 -10 47
526 176 1 -8.1999999999999995e-01 -8.8291528532570851e+00 -1.3834170260521297e+01 -4.8615828570159891e+00 40 -11 51
1100 367 2 4.0999999999999998e-01 -1.3149322396261450e+01 -1.2403224924796184e+01 -2.2579657182630974e+00 43 -11 43
1573 525 1 -8.1999999999999995e-01 -8.9037995483624837e+00 -1.3463861175333568e+01 -6.3957010026132011e-01 39 -10 49
2412 804 2 4.0999999999999998e-01 -9.7536480523510161e+00 -9.1369255159151326e+00 -1.7946319735148233e+00 40 -9 48
2258 753 2 4.0999999999999998e-01 -1.2336700426473689e+01 -1.4592383557951011e+01 -5.4785309473758392e+00 42 -10 47
207 69 2 4.0999999999999998e-01 -8.8884785798958017e+00 -1.3729880150238566e+01 -6.7108708005169699e+00 41 -8 48
527 176 2 4.0999999999999998e-01 -9.0651935442653269e+00 -1.4512480290997329e+01 -4.1657175034784224e+00 40 -11 51
2259 753 2 4.0999999999999998e-01 -1.0941006456918009e+01 -1.4349622021291237e+01 -4.6662130432032569e+00 42 -10 47
2397 799 2 4.0999999999999998e-01 -1.4166048053220162e+01 -1.0894558023819688e+01 -6.1063726726045662e+00 39 -6 47
1101 367 2 4.0999999999999998e-01 -1.2776119907492696e+01 -1.3823857517903777e+01 -2.9716029799237234e+00 43 -11 43
1683 561 2 4.0999999999999998e-01 -1.1707171245302627e+01 -6.2174907319787991e+00 -6.8588780903923325e+00 44 -11 53
1401 467 2 4.0999999999999998e-01 -9.9864325365187909e+00 -6.8654706894697632e+00 -2.4255489099932959e-01 36 -8 48
1272 424 2 4.0999999999999998e-01 -1.2573576596751256e+01 -6.6953139853620183e+00 -2.3168024767325210e+00 41 -5 51
281 94 2 4.0999999999999998e-01 -1.4479269008175702e+01 -9.1626007879333571e+00 -7.7493523877713244e-02 37 -6 54
422 141 2 4.0999999999999998e-01 -8.2644622398213343e+00 -9.6310964981929068e+00 -7.4129968057666984e+00 37 -12 49
1681 561 1 -8.1999999999999995e-01 -1.2480102879703166e+01 -5.7406989123148442e+00 -7.2775599648451141e+00 44 -11 53
58 20 1 -8.1999999999999995e-01 -1.0535176339997742e+01 -5.3702612372871528e+00 -8.0737182086790682e-01 36 -8 47
471 157 2 4.0999999999999998e-01 -1.4658223784677025e+01 -1.3906739855605135e+01 -1.2029244296213371e+00 41 -8 48
2208 736 2 4.0999999999999998e-01 -1.1715565463848232e+01 -1.1284930248189113e+01 -1.5223591444100748e-01 42 -12 49
384 128 2 4.0999999999999998e-01 -1.4875539977745246e+01 -7.5681671653212232e+00 -6.5630082939712135e+00 41 -12 47
1065 355 2 4.0999999999999998e-01 -7.8537200718673281e+00 -9.2317388551796142e+00 -5.0921812464835821e+00 41 -8 45
60 20 2 4.0999999999999998e-01 -1.1454193989680999e+01 -5.6692151099365695e+00 -5.5030875376251132e-01 36 -8 47
1302 434 2 4.0999999999999998e-01 -1.4893897977500561e+01 -1.3432194039721171e+01 -3.4513174213577873e+00 33 -8 52
646 216 1 -8.1999999999999995e-01 -6.2684812223217126e+00 -1.4688032054921237e+01 -5.5275639804916175e+00 43 -9 53
1802 601 2 4.0999999999999998e-01 -3.1671270729997545e+00 -5.4079274633778294e+00 -2.7453492249315641e+00 40 -10 46
2079 693 2 4.0999999999999998e-01 -5.0335284958647541e-01 -6.3299021249818299e+00 -2.8304045552893040e+00 39 -10 48
2092 698 1 -8.1999999999999995e-01 -5.8469993091982051e+00 -5.5979551459102552e+00 -2.8145247979005337e+00 37 -8 50
2360 787 2 4.0999999999999998e-01 -2.3713687735012474e+00 -1.4355691168986551e+01 -3.8633208260819156e+00 36 -15 45
2078 693 2 4.0999999999999998e-01 -1.2414261331453265e+00 -6.9107797162224083e+00 -4.1662879114492526e+00 39 -10 48
2077 693 1 -8.1999999999999995e-01 -8.9671314360863974e-01 -7.1443186816930133e+00 -3.2570680077723928e+00 39 -10 48
2361 787 2 4.0999999999999998e-01 -1.2577225790765638e+00 -1.3937101858714190e+01 -2.7446920239743910e+00 36 -15 45
1038 346 2 4.0999999999999998e-01 -7.4328022157647142e+00 -5.7681155643933781e+00 -3.0572214619253995e+00 40 -9 47
2093 698 2 4.0999999999999998e-01 -5.3880436459869170e+00 -5.1764584881839895e+00 -3.5966683764676546e+00 37 -8 50
480 160 2 4.0999999999999998e-01 -4.6569341270874709e-01 -9.6232261527998944e+00 -6.6911947477250848e+00 37 -10 49
2085 695 2 4.0999999999999998e-01 -5.0943006242914066e+00 -7.1556286252879477e+00 -7.2194897732642360e-01 42 -6 51
1759 587 1 -8.1999999999999995e-01 -1.6613522273467574e-01 -9.1030704151489221e+00 -9.1599691094976521e-01 41 -9 50
1316 439 2 4.0999999999999998e-01 -7.3449264572415247e+00 -1.4713966418039201e+01 -1.3414283342724627e+00 42 -8 45
1349 450 2 4.0999999999999998e-01 -5.2603091039499876e+00 -9.5443445373121936e+00 -9.7559046914423497e-01 41 -10 47
807 269 2 4.0999999999999998e-01 -7.1040510364342087e+00 -7.6163087525654420e+00 -6.7919304401975200e+00 37 -4 48
805 269 1 -8.1999999999999995e-01 -7.0437249670327571e+00 -6.7827243978137126e+00 -7.3410626432084261e+00 37 -4 48
592 198 1 -8.1999999999999995e-01 -8.0994735087115366e-01 -1.3544106768764626e+01 -7.3806351570018567e+00 32 -7 44
478 160 1 -8.1999999999999995e-01 -8.3177574868211757e-01 -8.8270453061305361e+00 -7.1729914726956556e+00 37 -10 49
2359 787 1 -8.1999999999999995e-01 -2.1995977985618218e+00 -1.4242592951796810e+01 -2.8846728842519731e+00 36 -15 45
1872 624 2 4.0999999999999998e-01 -3.0792985074766879e+00 -1.3261381786125247e+01 -1.0283575058448200e+00 38 -10 48
615 205 2 4.0999999999999998e-01 -5.7687909838836759e-01 -6.9786956757428058e+00 -6.4425817585332616e+00 41 -8 50
479 160 2 4.0999999999999998e-01 -1.8293465197568199e+00 -8.8879517943904212e+00 -7.2075057560767695e+00 37 -10 49
496 166 1 -8.1999999999999995e-01 -3.2015883742446718e+00 -8.5958308059724224e+00 -3.4289978851514604e+00 38 -13 47
2084 695 2 4.0999999999999998e-01 -3.4854903556209234e+00 -7.4334873440817670e+00 -7.5771591791431625e-01 42 -6 51
24 8 2 4.0999999999999998e-01 -1.5000515891294910e+00 -1.4717790589712854e+01 -6.1746189130354434e+00 38 -11 48
497 166 2 4.0999999999999998e-01 -3.8176628111632755e+00 -8.2840476392739735e+00 -2.7056087265063891e+00 38 -13 47
534 178 2 4.0999999999999998e-01 -4.9921389374251834e+00 -1.1348373199426202e+01 -6.0496387406455963e+00 40 -12 46
1761 587 2 4.0999999999999998e-01 -2.4234134425381271e-01 -8.5890972538448533e+00 -1.7704397024115508e+00 41 -9 50
414 138 2 4.0999999999999998e-01 -6.6341865056165634e+00 -1.2576546952157683e+01 -2.8597199321363433e+00 44 -9 46
412 138 1 -8.1999999999999995e-01 -5.6850822238165275e+00 -1.2600773867462854e+01 -2.5456141559404486e+00 44 -9 46
533 178 2 4.0999999999999998e-01 -6.1087089386792464e+00 -1.2540021752951059e+01 -6.0489714795657328e+00 40 -12 46
532 178 1 -8.1999999999999995e-01 -5.9123518909157404e+00 -1.1605238033261845e+01 -6.3450653649908144e+00 40 -12 46
597 199 2 4.0999999999999998e-01 -2.4743789905116689e+00 -5.5606702642953536e+00 -6.5669729937087151e+00 39 -10 50
1063 355 1 -8.1999999999999995e-01 -7.3892912436916385e+00 -9.3561767014262873e+00 -5.9690332123875933e+00 41 -8 45
1064 355 2 4.0999999999999998e-01 -6.9153496048266110e+00 -1.0236750604468961e+01 -5.9731849387955549e+00 41 -8 45
1207 403 1 -8.1999999999999995e-01 -3.5364895765860727e+00 -8.2027661605127840e+00 -7.0275950821809854e+00 39 -13 50
2094 698 2 4.0999999999999998e-01 -5.2026960577975458e+00 -6.1884703297934855e+00 -2.3285068768018267e+00 37 -8 50
741 247 2 4.0999999999999998e-01 -2.0832208494889848e+00 -1.1307606156790165e+01 -5.4854519140567071e+00 39 -4 47
1870 624 1 -8.1999999999999995e-01 -3.2592611462704770e+00 -1.2357201844667495e+01 -6.4090381740869695e-01 38 -10 48
739 247 1 -8.1999999999999995e-01 -1.1340980071354227e+00 -1.1125723565200886e+01 -5.7426149598582459e+00 39 -4 47
1871 624 2 4.0999999999999998e-01 -3.8109747020292382e+00 -1.1823647375343125e+01 -1.2819810751060281e+00 38 -10 48
740 247 2 4.0999999999999998e-01 -8.0541290167054136e-01 -1.1855656606146166e+01 -6.3419580408771843e+00 39 -4 47
2083 695 1 -8.1999999999999995e-01 -4.2999954455250258e+00 -7.2787547531696113e+00 -1.3169006558176282e+00 42 -6 51
648 216 2 4.0999999999999998e-01 -7.1461569582044273e+00 -1.4439477484420292e+01 -5.1177417244672316e+00 43 -9 53
1348 450 1 -8.1999999999999995e-01 -5.7687793928918207e+00 -1.0398551319404397e+01 -1.0843885055143669e+00 41 -10 47
1208 403 2 4.0999999999999998e-01 -3.6984933561808990e+00 -8.3889072328063889e+00 -6.0584951869457591e+00 39 -13 50
613 205 1 -8.1999999999999995e-01 -7.6261022071394535e-01 -6.1370674576849371e+00 -5.9354188855240562e+00 41 -8 50
498 166 2 4.0999999999999998e-01 -2.2820747097150438e+00 -8.2410925053102098e+00 -3.2595758615856933e+00 38 -13 47
780 260 2 4.0999999999999998e-01 -4.3337220188981291e+00 -1.1575045035963726e+01 -3.6660314267974758e+00 34 -8 51
413 138 2 4.0999999999999998e-01 -5.5479644345461168e+00 -1.1900760298647132e+01 -1.8447375541852225e+00 44 -9 46
778 260 1 -8.1999999999999995e-01 -3.8377428961049471e+00 -1.1071348009288318e+01 -4.3733802609154839e+00 34 -8 51
595 199 1 -8.1999999999999995e-01 -3.4489328053807142e+00 -5.5175446222596989e+00 -6.7870487540404305e+00 39 -10 50
779 260 2 4.0999999999999998e-01 -3.4772089435127498e+00 -1.0222273163342280e+01 -3.9871995989653204e+00 34 -8 51
630 210 2 4.0999999999999998e-01 -5.7849728151282314e+00 -1.4623819874651964e+01 -7.2520003719715271e+00 40 -5 44
1350 450 2 4.0999999999999998e-01 -6.5019304849970307e+00 -1.0438831459953327e+01 -4.0548108990634901e-01 41 -10 47
1209 403 2 4.0999999999999998e-01 -3.5218802286933375e+00 -7.2144196383339603e+00 -7.1792726124320989e+00 39 -13 50
2477 826 2 4.0999999999999998e-01 -9.0396195672221946e+00 -1.0339808668756920e+01 5.1119588498986417e+00 39 -4 47
1393 465 1 -8.1999999999999995e-01 -1.0361883286295978e+01 -1.4254626487245901e+01 6.5262707308346783e+00 39 -17 47
2419 807 1 -8.1999999999999995e-01 -9.3165704136660281e+00 -7.1402992971813131e+00 5.1279557118711203e+00 35 -7 44
563 188 2 4.0999999999999998e-01 -1.3293493873697306e+01 -1.1643256402921978e+01 5.6954318006151290e+00 34 -10 49
831 277 2 4.0999999999999998e-01 -8.8057171116919868e+00 -1.2609157486422083e+01 2.8433162964232999e+00 35 -3 51
1394 465 2 4.0999999999999998e-01 -9.4596318235049459e+00 -1.3983915822476810e+01 6.8619884223620531e+00 39 -17 47
829 277 1 -8.1999999999999995e-01 -8.9428946626138952e+00 -1.2134692442791657e+01 1.9737684022548692e+00 35 -3 51
463 155 1 -8.1999999999999995e-01 -1.0606409292911662e+01 -7.4510563069510143e+00 2.6601749983833649e+00 40 -6 49
465 155 2 4.0999999999999998e-01 -1.0020834664256070e+01 -7.0809930298507906e+00 3.3814265623358679e+00 40 -6 49
464 155 2 4.0999999999999998e-01 -1.1435924466233782e+01 -6.8972947948780146e+00 2.5873667302525405e+00 40 -6 49
460 154 1 -8.1999999999999995e-01 -1.2682940519964639e+01 -9.3539853056134241e+00 3.0704639113100924e+00 34 -15 46
830 277 2 4.0999999999999998e-01 -9.9225415486668034e+00 -1.2036620392295577e+01 1.7984910980733702e+00 35 -3 51
1507 503 1 -8.1999999999999995e-01 -1.2824420098859530e+01 -5.7211860028910841e+00 2.6200970641028221e+00 38 -8 55
190 64 1 -8.1999999999999995e-01 -1.4403643011154209e+01 -7.5477897664810456e+00 4.9593464035380492e+00 39 -11 53
562 188 1 -8.1999999999999995e-01 -1.2569337273440331e+01 -1.1816999972390850e+01 5.0280048769805497e+00 34 -10 49
1574 525 2 4.0999999999999998e-01 -8.8571520039535709e+00 -1.3160211116638637e+01 3.1209631080726474e-01 39 -10 49
2421 807 2 4.0999999999999998e-01 -9.7704998359453086e+00 -7.9237154630221065e+00 5.5525207364871818e+00 35 -7 44
2476 826 1 -8.1999999999999995e-01 -8.1732909725988776e+00 -1.0191358009531724e+01 4.6350044662148022e+00 39 -4 47
12 4 2 4.0999999999999998e-01 -1.3055328381293391e+01 -6.8801209469388365e+00 6.8085545083426524e+00 43 -7 49
1161 387 2 4.0999999999999998e-01 -1.3798781488055328e+01 -8.6945215760532104e+00 1.8692352002235886e+00 39 -13 51
1159 387 1 -8.1999999999999995e-01 -1.4330601837220998e+01 -7.9965322341281224e+00 1.3896246488952038e+00 39 -13 51
1863 621 2 4.0999999999999998e-01 -7.7308745627675961e+00 -6.8444457473687219e+00 6.2250721787661902e+00 37 -7 50
2420 807 2 4.0999999999999998e-01 -9.6534034861024338e+00 -6.2949289520655665e+00 5.5426131214243064e+00 35 -7 44
2511 837 2 4.0999999999999998e-01 -1.1063232378176714e+01 -5.3523855986315176e+00 7.3117283847658889e+00 40 -9 50
461 154 2 4.0999999999999998e-01 -1.2736260706735733e+01 -1.0212816923831765e+01 3.5799867139671093e+00 34 -15 46
1729 577 1 -8.1999999999999995e-01 -1.3814861794715886e+01 -1.2270279809977819e+01 2.0000118012990988e+00 44 -6 46
564 188 2 4.0999999999999998e-01 -1.2969454458850400e+01 -1.2193732330966245e+01 4.1925246155275779e+00 34 -10 49
1509 503 2 4.0999999999999998e-01 -1.3699778063138108e+01 -5.7086641301502450e+00 3.1034602130050715e+00 38 -8 55
2338 780 1 -8.1999999999999995e-01 -1.0232130626702636e+01 -1.1188911111163510e+01 5.9257891374188851e+00 38 -7 48
192 64 2 4.0999999999999998e-01 -1.4091544632201035e+01 -8.3255161886900524e+00 4.4136500775434229e+00 39 -11 53
462 154 2 4.0999999999999998e-01 -1.1731631091173959e+01 -9.0481682188093604e+00 3.0312901109128489e+00 34 -15 46
2207 736 2 4.0999999999999998e-01 -1.2187786119493319e+01 -1.2055282343409409e+01 1.2080289568846858e+00 42 -12 49
191 64 2 4.0999999999999998e-01 -1.4691715065542555e+01 -6.8080685900322937e+00 4.3511726297206472e+00 39 -11 53
1006 336 1 -8.1999999999999995e-01 -8.8043798561188034e+00 -1.3105195424227466e+01 4.4619730620088340e+00 40 -15 54
2478 826 2 4.0999999999999998e-01 -7.8028477319818874e+00 -1.1070575781456919e+01 4.3353443352150833e+00 39 -4 47
1007 336 2 4.0999999999999998e-01 -9.4320398581457248e+00 -1.2739495602441275e+01 5.1492538403349499e+00 40 -15 54
894 298 2 4.0999999999999998e-01 -7.5294007472553233e+00 -1.1217620146916595e+01 1.6381567806033068e+00 43 -8 46
959 320 2 4.0999999999999998e-01 -1.3825382418561780e+01 -1.4834501043795591e+01 6.0809905401401387e+00 42 -5 45
70 24 1 -8.1999999999999995e-01 -1.4871610926778269e+01 -1.4881827678017215e+01 2.4484848477687642e+00 44 -7 49
1590 530 2 4.0999999999999998e-01 -8.0341051686190283e+00 -6.6000707205765057e+00 2.4273265943924578e+00 44 -12 54