LAMMPS data file via write_data, version 15 May 2015, timestep = 1009000

2593 atoms
6 atom types
1728 bonds
4 bond types
864 angles
3 angle types
0 dihedrals
3 dihedral types
0 impropers
1 improper types

-1.4887339283434102e+01 1.4887339283434102e+01 xlo xhi
-1.4887339283434102e+01 1.4887339283434102e+01 ylo yhi
-1.4887339283434102e+01 1.4887339283434102e+01 zlo zhi

Masses

1 15.9994
2 1.00794
3 12.0107
4 1.00794
5 12.0107
6 12.0107

Bond Coeffs # harmonic

1 1000 1
2 469 1.4
3 367 1.08
4 469 0.7

Angle Coeffs # harmonic

1 100 109.47
2 35 120
3 63 120

Dihedral Coeffs # opls

1 0 7.25 0 0
2 0 7.25 0 0
3 0 7.25 0 0

Improper Coeffs # cvff

1 2.5 -1 2

Atoms # full

754 252 1 -8.1999999999999995e-01 -1.3576689673865154e+01 -7.9349847908636679e+00 -1.4302818496221477e+01 2 1 4
769 257 1 -8.1999999999999995e-01 -9.1284198780824930e+00 -1.1150825350601542e+01 -1.4751819123626344e+01 3 -1 1
975 325 2 4.0999999999999998e-01 -1.3686209960113581e+01 -9.7806313065398509e+00 -1.0143218466120516e+01 1 3 5
492 164 2 4.0999999999999998e-01 -1.4284168383344742e-01 -1.4202763323986881e+01 -1.2074347293716915e+01 3 0 2
1517 506 2 4.0999999999999998e-01 -7.6012713183445006e+00 -1.4281177797500890e+01 -1.3585947513003312e+01 1 1 4
1854 618 2 4.0999999999999998e-01 -1.1807207769024000e+01 -1.1798236610868528e+01 -1.2096522672337302e+01 3 -1 4
1372 458 1 -8.1999999999999995e-01 -1.4313007454600424e-01 -1.1720221560032371e+01 -8.6069448934322708e+00 1 0 2
973 325 1 -8.1999999999999995e-01 -1.3145554447574710e+01 -9.8571702110388948e+00 -9.3054836036380539e+00 1 3 5
974 325 2 4.0999999999999998e-01 -1.3032819333652791e+01 -8.9511411430379706e+00 -8.8976008673475349e+00 1 3 5
1469 490 2 4.0999999999999998e-01 -1.1121189361590680e+01 -7.1201007177130080e+00 -1.1180427087612646e+01 3 0 3
189 63 2 4.0999999999999998e-01 -9.9480163401739716e+00 -1.0239048513376346e+01 -8.2248903036938117e+00 2 -1 4
756 252 2 4.0999999999999998e-01 -1.3078147381099173e+01 -7.2031477253643530e+00 -1.3838236553999284e+01 2 1 4
1470 490 2 4.0999999999999998e-01 -1.1057211256427333e+01 -7.4468576438289729e+00 -1.2779074388857319e+01 3 0 3
978 326 2 4.0999999999999998e-01 -2.8983687170966732e+00 -9.9944503053996172e+00 -1.4629602038868004e+01 3 0 4
1852 618 1 -8.1999999999999995e-01 -1.1432966863534700e+01 -1.2111338747942801e+01 -1.1223666971449724e+01 3 -1 4
352 118 1 -8.1999999999999995e-01 -7.1950930114750804e+00 -6.8939081209933608e+00 -1.4448800762779952e+01 1 1 3
2027 676 2 4.0999999999999998e-01 -7.6324560737914737e-01 -1.0577367590571289e+01 -1.2671427178726244e+01 2 -1 3
1853 618 2 4.0999999999999998e-01 -1.1191169993984310e+01 -1.1320306101392982e+01 -1.0661734795747432e+01 3 -1 4
1468 490 1 -8.1999999999999995e-01 -1.1665739817069296e+01 -7.3081642965723974e+00 -1.1997778388611740e+01 3 0 3
995 332 2 4.0999999999999998e-01 -1.0795277517531801e+01 -7.1683398438394788e+00 -8.9408454841834466e+00 1 -1 3
188 63 2 4.0999999999999998e-01 -9.5566974007399779e+00 -8.7518881772835577e+00 -8.7742172011183381e+00 2 -1 4
1685 562 2 4.0999999999999998e-01 -1.3335287185997428e+01 -1.2028761629971452e+01 -1.3458955513607208e+01 2 2 3
2561 854 2 4.0999999999999998e-01 -1.3790513289262453e+01 -8.6679889761482602e+00 -1.2124709661137164e+01 3 1 4
996 332 2 4.0999999999999998e-01 -9.8482076229286015e+00 -6.0949596451070907e+00 -9.7266252497944752e+00 1 -1 3
994 332 1 -8.1999999999999995e-01 -1.0113599494902321e+01 -7.0570440274609609e+00 -9.6639599082816545e+00 1 -1 3
1684 562 1 -8.1999999999999995e-01 -1.3837619646094023e+01 -1.2888228595184861e+01 -1.3364377881007961e+01 2 2 3
2498 833 2 4.0999999999999998e-01 -1.1667518752975027e+01 -9.7986384391155283e+00 -1.3432753691288827e+01 2 -1 3
2428 810 1 -8.1999999999999995e-01 -2.7112977506585718e+00 -1.3727431140482537e+01 -1.0268311668014183e+01 3 1 3
163 55 1 -8.1999999999999995e-01 -1.0283052430956227e+01 -7.8382064999642713e+00 -1.4237597586563020e+01 2 -3 6
164 55 2 4.0999999999999998e-01 -9.2986498137006226e+00 -7.9243864837191538e+00 -1.4390864646936357e+01 2 -3 6
187 63 1 -8.1999999999999995e-01 -9.2680613641090002e+00 -9.7083251514030948e+00 -8.7308154426974145e+00 2 -1 4
78 26 2 4.0999999999999998e-01 -9.3286210946274455e+00 -1.3045043425329970e+01 -1.1967856918075420e+01 4 -1 3
77 26 2 4.0999999999999998e-01 -8.7407812890740360e+00 -1.2134162168319827e+01 -1.3189035101141897e+01 4 -1 3
76 26 1 -8.1999999999999995e-01 -8.5346305728593705e+00 -1.2876944125869013e+01 -1.2552055437335756e+01 4 -1 3
720 240 2 4.0999999999999998e-01 -1.1817972836953192e+01 -5.6235399521666629e+00 -1.1715036203093071e+01 4 -2 4
1461 487 2 4.0999999999999998e-01 -7.2417806381321137e+00 -1.0655665850075044e+01 -1.0932543788700034e+01 2 2 2
1758 586 2 4.0999999999999998e-01 -4.3519790997370560e+00 -8.0856625333425818e+00 -9.9883875767559722e+00 3 0 6
2236 746 1 -8.1999999999999995e-01 -1.1726374703326492e+01 -7.5334573839240138e+00 -7.6964362463575000e+00 3 -1 2
2424 808 2 4.0999999999999998e-01 -1.1989289254622545e+01 -1.3680843016166587e+01 -1.0648581797974476e+01 3 0 4
1686 562 2 4.0999999999999998e-01 -1.3330714976393079e+01 -1.3622062949849372e+01 -1.3816595846886548e+01 2 2 3
735 245 2 4.0999999999999998e-01 -1.2323614111668753e+01 -1.0739446983275252e+01 -8.1793659023831360e+00 2 2 3
2503 835 1 -8.1999999999999995e-01 -7.9936548217910195e+00 -1.4720910629306788e+01 -7.9737190997804976e+00 2 0 4
2026 676 1 -8.1999999999999995e-01 -2.2538797149588774e-01 -1.1309883952039815e+01 -1.3088674379132939e+01 2 -1 3
140 47 2 4.0999999999999998e-01 -1.1596594930500608e+00 -9.1361883381986981e+00 -1.1242386545831023e+01 2 1 4
2052 684 2 4.0999999999999998e-01 -1.0533498427631194e+01 -1.2686585074947502e+01 -7.6898076724586293e+00 4 -1 3
2497 833 1 -8.1999999999999995e-01 -1.1881837551627770e+01 -1.0774226189138908e+01 -1.3480316166016799e+01 2 -1 3
2051 684 2 4.0999999999999998e-01 -9.9843464261611636e+00 -1.4181100510123793e+01 -8.0522876182724694e+00 4 -1 3
2422 808 1 -8.1999999999999995e-01 -1.2284080661785996e+01 -1.4623319086249163e+01 -1.0491091761747025e+01 3 0 4
675 225 2 4.0999999999999998e-01 -8.1116746736519119e+00 -5.1718981136628930e+00 -8.6336415365305470e+00 3 1 4
198 66 2 4.0999999999999998e-01 -1.4013105214993091e+01 -1.4013670348844222e+01 -7.9507577215435647e+00 1 -1 2
1082 361 2 4.0999999999999998e-01 -5.3342510910741492e+00 -7.6187964615901373e+00 -1.1930851369495890e+01 2 0 4
1459 487 1 -8.1999999999999995e-01 -7.1702940088025304e+00 -1.1087975785051652e+01 -1.0033675670474949e+01 2 2 2
2560 854 1 -8.1999999999999995e-01 -1.4481814891697594e+01 -8.8408938974371072e+00 -1.1423159792295102e+01 3 1 4
2499 833 2 4.0999999999999998e-01 -1.1431940300516438e+01 -1.1175813802687216e+01 -1.4277991600690431e+01 2 -1 3
1557 519 2 4.0999999999999998e-01 -6.5334512297920693e+00 -1.2670591909542919e+01 -1.4302693805402891e+01 0 0 4
2048 683 2 4.0999999999999998e-01 -3.1070043665641407e+00 -1.0482810371968984e+01 -9.1165825012688675e+00 1 0 2
733 245 1 -8.1999999999999995e-01 -1.1498749775044692e+01 -1.0822886146561512e+01 -7.6202568404673681e+00 2 2 3
2429 810 2 4.0999999999999998e-01 -2.3863544650758168e+00 -1.4073442111500752e+01 -1.1148456258888523e+01 3 1 3
354 118 2 4.0999999999999998e-01 -6.3417271944324938e+00 -7.3147045657076006e+00 -1.4756474950543868e+01 1 1 3
2504 835 2 4.0999999999999998e-01 -7.2365317854178866e+00 -1.4111148030473409e+01 -8.2080704485124443e+00 2 0 4
1765 589 1 -8.1999999999999995e-01 -5.9799022707538221e+00 -1.3125801696467867e+01 -8.6368388824597844e+00 2 0 4
1460 487 2 4.0999999999999998e-01 -7.9816484053988468e+00 -1.0867517638772973e+01 -9.4923177533522178e+00 2 2 2
1844 615 2 4.0999999999999998e-01 -4.8265585793534402e+00 -9.7794787001758046e+00 -1.3060530704049834e+01 3 0 4
2028 676 2 4.0999999999999998e-01 -8.0843776808645273e-01 -1.1844622706542044e+01 -1.3700290020729645e+01 2 -1 3
1843 615 1 -8.1999999999999995e-01 -4.0613356030498604e+00 -1.0415392565887345e+01 -1.3160598708857460e+01 3 0 4
1081 361 1 -8.1999999999999995e-01 -5.7307078189322418e+00 -8.1833945843147653e+00 -1.2654741760520068e+01 2 0 4
560 187 2 4.0999999999999998e-01 -4.7357520786725100e+00 -5.1573605465414136e+00 -1.2858847719622181e+01 3 -1 5
1083 361 2 4.0999999999999998e-01 -6.3792491783554297e+00 -7.6378200431697492e+00 -1.3185504188528782e+01 2 0 4
1756 586 1 -8.1999999999999995e-01 -4.4366847021825588e+00 -7.2572299365635535e+00 -1.0542003568396225e+01 3 0 6
1556 519 2 4.0999999999999998e-01 -5.1228108819770508e+00 -1.1892515245566026e+01 -1.4035809706524827e+01 0 0 4
2430 810 2 4.0999999999999998e-01 -2.7655624544510129e+00 -1.2729489110497346e+01 -1.0301976388731653e+01 3 1 3
139 47 1 -8.1999999999999995e-01 -1.9611022805073972e+00 -9.4069782597562828e+00 -1.1775610998768620e+01 2 1 4
141 47 2 4.0999999999999998e-01 -2.3216280726418166e+00 -8.6115617662821808e+00 -1.2262745260515644e+01 2 1 4
303 101 2 4.0999999999999998e-01 -5.7516042975041017e+00 -5.8903887881297479e+00 -1.0953538005076240e+01 1 0 4
1845 615 2 4.0999999999999998e-01 -3.5545631560895998e+00 -1.0465130447988162e+01 -1.2299974477615770e+01 3 0 4
1063 355 1 -8.1999999999999995e-01 -2.3166046810986263e+00 -7.3544905756982857e+00 -1.3345994777593402e+01 1 0 3
1373 458 2 4.0999999999999998e-01 -1.6135365839330795e-01 -1.2639859712608278e+01 -8.2146441673656270e+00 1 0 2
1065 355 2 4.0999999999999998e-01 -2.9769609524043119e+00 -6.6278672453696093e+00 -1.3535505243810059e+01 1 0 3
1064 355 2 4.0999999999999998e-01 -1.4418249715618394e+00 -7.1301909012868006e+00 -1.3775431761044729e+01 1 0 3
2047 683 1 -8.1999999999999995e-01 -2.6478695952962514e+00 -1.1075504913456868e+01 -9.7783035547826689e+00 1 0 2
988 330 1 -8.1999999999999995e-01 -7.5983591022060004e-01 -5.0827003588756767e+00 -9.3974953524406821e+00 1 0 3
1374 458 2 4.0999999999999998e-01 -1.0422303857225987e+00 -1.1501779822460325e+01 -8.9862444183845938e+00 1 0 2
1757 586 2 4.0999999999999998e-01 -3.5301420129120284e+00 -6.8630545064203332e+00 -1.0692908699699069e+01 3 0 6
1767 589 2 4.0999999999999998e-01 -6.1151555636861925e+00 -1.2146334419892325e+01 -8.7862265610103307e+00 2 0 4
301 101 1 -8.1999999999999995e-01 -6.0984641708040304e+00 -5.2737168033572761e+00 -1.1660199295512129e+01 1 0 4
25 9 1 -8.1999999999999995e-01 -3.8815156909455588e+00 -9.1383636102449852e+00 -8.2744732899689151e+00 2 0 3
1766 589 2 4.0999999999999998e-01 -5.2422685749130089e+00 -1.3454207062523423e+01 -9.2267649151171902e+00 2 0 4
673 225 1 -8.1999999999999995e-01 -7.5021415807748140e+00 -5.2743334817615324e+00 -7.8475482891481620e+00 3 1 4
2049 683 2 4.0999999999999998e-01 -2.4017257420425615e+00 -1.0543022059369260e+01 -1.0588143967072170e+01 1 0 2
26 9 2 4.0999999999999998e-01 -4.7222860696555280e+00 -9.5589770569122177e+00 -7.9336572603510920e+00 2 0 3
2423 808 2 4.0999999999999998e-01 -1.3282717310352844e+01 -1.4658188413960767e+01 -1.0452682790611917e+01 3 0 4
1555 519 1 -8.1999999999999995e-01 -5.5406581437665672e+00 -1.2719490272551967e+01 -1.4411950993242472e+01 0 0 4
2050 684 1 -8.1999999999999995e-01 -1.0704970133223435e+01 -1.3666454938330336e+01 -7.5877366477156443e+00 4 -1 3
27 9 2 4.0999999999999998e-01 -3.5186987100285112e+00 -8.5120860261813256e+00 -7.5844685840834467e+00 2 0 3
559 187 1 -8.1999999999999995e-01 -3.9868159839517787e+00 -5.0321900051856669e+00 -1.3509534464621249e+01 3 -1 5
515 172 2 4.0999999999999998e-01 -2.6835592181812054e+00 -1.2773637932597824e+01 -8.1272999087971023e+00 1 0 3
914 305 2 4.0999999999999998e-01 -5.5690020804667490e+00 -5.1602857211889805e+00 -8.1228776211711846e+00 1 0 3
197 66 2 4.0999999999999998e-01 -1.2443548400892070e+01 -1.3647766013046027e+01 -7.6878090367412275e+00 1 -1 2
196 66 1 -8.1999999999999995e-01 -1.3387613524422576e+01 -1.3385889852352639e+01 -7.4874888066805632e+00 1 -1 2
1086 362 2 4.0999999999999998e-01 -2.1208297263068943e-01 -7.5333926068428649e+00 -9.7164685987001178e+00 3 0 1
194 65 2 4.0999999999999998e-01 -3.8385373346702956e-01 -1.2613568128725596e+01 -3.7704352337496605e+00 1 3 3
258 86 2 4.0999999999999998e-01 -7.9502076915739943e+00 -9.7880349463440783e+00 -1.2152061803759988e+00 2 1 3
257 86 2 4.0999999999999998e-01 -7.7875566893732913e+00 -9.0400616901969784e+00 -2.6576405964668250e+00 2 1 3
256 86 1 -8.1999999999999995e-01 -8.3130639765798620e+00 -9.0685424695438890e+00 -1.8073481875852888e+00 2 1 3
655 219 1 -8.1999999999999995e-01 -1.0932258755818525e+01 -8.8593982146405210e+00 -1.4378348161632832e+00 2 1 4
1680 560 2 4.0999999999999998e-01 -1.2457396839517825e+01 -6.3365877188793363e+00 -1.0387383930797380e+00 3 1 3
656 219 2 4.0999999999999998e-01 -9.9754760060206316e+00 -8.9819645127126506e+00 -1.7014833880213303e+00 2 1 4
69 23 2 4.0999999999999998e-01 -1.0015043654978111e+01 -1.1147556680581342e+01 -4.9089664838560747e+00 1 0 6
657 219 2 4.0999999999999998e-01 -1.1496949471265525e+01 -9.5380670375663570e+00 -1.9074083525585301e+00 2 1 4
2317 773 1 -8.1999999999999995e-01 -9.8500900330250829e+00 -7.7652098689685927e+00 -5.9356205939812305e+00 3 -1 4
2319 773 2 4.0999999999999998e-01 -8.8960140734348592e+00 -7.4856788661620888e+00 -6.0431741959078771e+00 3 -1 4
815 272 2 4.0999999999999998e-01 -1.4019175461862526e+01 -1.2347506795894946e+01 -6.3482665099122570e+00 2 0 3
1679 560 2 4.0999999999999998e-01 -1.1914957190990108e+01 -7.4538825462663576e+00 -2.0989024799071636e+00 3 1 3
1678 560 1 -8.1999999999999995e-01 -1.2496387962680595e+01 -6.6478690024271057e+00 -1.9882381658873598e+00 3 1 3
1992 664 2 4.0999999999999998e-01 -1.1306594216813973e+01 -1.2994252369507059e+01 -1.4062357694041321e+00 5 -1 3
68 23 2 4.0999999999999998e-01 -1.1219638150865153e+01 -1.0354431956771167e+01 -4.1431715850092985e+00 1 0 6
753 251 2 4.0999999999999998e-01 -7.3006688038307832e+00 -1.4477563871005762e+01 -2.3444771904994859e+00 3 1 5
67 23 1 -8.1999999999999995e-01 -1.0558486112529005e+01 -1.0308302203551122e+01 -4.8919814925818130e+00 1 0 6
1990 664 1 -8.1999999999999995e-01 -1.0620228319508577e+01 -1.3500197722734406e+01 -1.9286220551569269e+00 5 -1 3
667 223 1 -8.1999999999999995e-01 -8.0089870591319041e+00 -5.6357386640725551e+00 -4.4790472243248249e+00 0 -1 1
1503 501 2 4.0999999999999998e-01 -9.4197164677481879e+00 -1.4397896592448268e+01 -1.1481805997348360e+00 3 -1 2
2491 831 1 -8.1999999999999995e-01 -6.0580195857269707e+00 -1.0206313433310076e+01 -6.8866305601350657e+00 3 1 2
2318 773 2 4.0999999999999998e-01 -9.8878900390371527e+00 -8.7333762384291269e+00 -5.6882517402821389e+00 3 -1 4
1173 391 2 4.0999999999999998e-01 -1.4570887816751950e+01 -1.3550932295168625e+01 -2.7909032023698046e+00 5 -1 4
598 200 1 -8.1999999999999995e-01 -1.2819534279757665e+01 -1.0318121461496716e+01 -3.1918288316763714e+00 3 1 2
2357 786 2 4.0999999999999998e-01 -1.4845355466056269e+01 -7.3067633708165909e+00 -6.6875185537375312e+00 3 0 5
369 123 2 4.0999999999999998e-01 -8.5813304590850947e+00 -5.2468570687463050e+00 -4.4788281186913359e-01 2 -1 2
159 53 2 4.0999999999999998e-01 -7.8303059090749905e-01 -6.4842029221411916e+00 -3.9305109015206945e+00 1 0 2
1169 390 2 4.0999999999999998e-01 -9.3740109211549765e+00 -1.2748396122821333e+01 -5.0869063952657090e+00 3 0 3
1168 390 1 -8.1999999999999995e-01 -8.6366829058215817e+00 -1.2288701478425548e+01 -5.5818755673730696e+00 3 0 3
599 200 2 4.0999999999999998e-01 -1.3610584781791461e+01 -9.7065792937266373e+00 -3.2067143895789787e+00 3 1 2
1170 390 2 4.0999999999999998e-01 -8.3839728411902499e+00 -1.2831421529254351e+01 -6.3828492195221074e+00 3 0 3
734 245 2 4.0999999999999998e-01 -1.1657401263519024e+01 -1.0401824017553460e+01 -6.7272268974287126e+00 2 2 3
38 13 2 4.0999999999999998e-01 -3.5144547380478279e+00 -5.2059335469689714e+00 -4.7355165403145651e+00 2 0 4
2356 786 1 -8.1999999999999995e-01 -1.4254127837246029e+01 -8.0730632061836438e+00 -6.4361209557394830e+00 3 0 5
2493 831 2 4.0999999999999998e-01 -5.5664153671135352e+00 -1.0582168759045162e+01 -6.1011215829595802e+00 3 1 2
600 200 2 4.0999999999999998e-01 -1.3106598094300816e+01 -1.1227112364962444e+01 -2.8896762102789637e+00 3 1 2
1542 514 2 4.0999999999999998e-01 -1.1153485431413824e+01 -6.3964687616344627e+00 -5.0404373822999862e+00 3 0 4
1343 448 2 4.0999999999999998e-01 -7.2275008066515465e+00 -1.2048577554314580e+01 -1.2283191874997712e+00 1 1 3
814 272 1 -8.1999999999999995e-01 -1.4640919128929765e+01 -1.1861019034175513e+01 -5.7344825640594621e+00 2 0 3
1991 664 2 4.0999999999999998e-01 -1.0952969834629249e+01 -1.3648904879215232e+01 -2.8598231719539324e+00 5 -1 3
48 16 2 4.0999999999999998e-01 -6.6239741784969208e+00 -8.2294586454946739e+00 -6.8021043823103504e+00 2 0 5
2336 779 2 4.0999999999999998e-01 -1.1762743728554232e+01 -1.3621404983223879e+01 -5.5981461221445095e+00 3 1 3
2337 779 2 4.0999999999999998e-01 -1.2365218557268575e+01 -1.3239215271755079e+01 -4.1293059093209248e+00 3 1 3
669 223 2 4.0999999999999998e-01 -7.9233543168108493e+00 -6.3787898873535536e+00 -5.1427551278771588e+00 0 -1 1
477 159 2 4.0999999999999998e-01 -1.4115980965254108e+01 -6.0264337392860270e+00 -2.6928301004281376e+00 3 1 4
1342 448 1 -8.1999999999999995e-01 -7.6370224676049574e+00 -1.1398755611327550e+01 -5.8801485707921941e-01 1 1 3
2335 779 1 -8.1999999999999995e-01 -1.1558486877627136e+01 -1.3567301439921957e+01 -4.6207423232065796e+00 3 1 3
2492 831 2 4.0999999999999998e-01 -7.0277184499695915e+00 -1.0440088938109723e+01 -6.8159244257813114e+00 3 1 2
157 53 1 -8.1999999999999995e-01 -9.6976934345261157e-01 -5.5021431449118143e+00 -3.9049483080503276e+00 1 0 2
1171 391 1 -8.1999999999999995e-01 -1.3810293694317734e+01 -1.3067240514282886e+01 -3.2239216737339618e+00 5 -1 4
1704 568 2 4.0999999999999998e-01 -3.5747035865223289e+00 -1.4756718699947742e+01 -5.8456191610587638e-01 3 2 3
2486 829 2 4.0999999999999998e-01 -8.3029849649150620e+00 -7.4242787113974229e+00 -1.5192585773876583e+00 0 0 2
1501 501 1 -8.1999999999999995e-01 -8.6242773934944204e+00 -1.4747365241653648e+01 -6.5309010112954091e-01 3 -1 2
1112 371 2 4.0999999999999998e-01 -6.9007596132233013e+00 -8.3586926014593388e+00 -4.8416478534097767e+00 2 -2 2
46 16 1 -8.1999999999999995e-01 -7.2016126219510115e+00 -7.5219717037861837e+00 -6.3949651405767547e+00 2 0 5
751 251 1 -8.1999999999999995e-01 -6.7071644548928298e+00 -1.4130542169411736e+01 -3.0706278148060289e+00 3 1 5
1113 371 2 4.0999999999999998e-01 -5.9366787596040229e+00 -9.4024415598588291e+00 -4.0368666543199900e+00 2 -2 2
1111 371 1 -8.1999999999999995e-01 -6.5945103280465958e+00 -8.6559089535269358e+00 -3.9373027324617222e+00 2 -2 2
18 6 2 4.0999999999999998e-01 -1.4801284785758199e+01 -5.1581174780497570e+00 -6.2412911615618043e+00 -1 0 6
171 57 2 4.0999999999999998e-01 -3.3626836950328123e+00 -1.0977824223017283e+01 -1.6430462753252506e-01 3 0 2
1172 391 2 4.0999999999999998e-01 -1.4089904248523361e+01 -1.2749585780657824e+01 -4.1299457956315031e+00 5 -1 4
248 83 2 4.0999999999999998e-01 -2.3751745908945825e+00 -1.2144474260623216e+01 -4.6302352782063636e+00 2 1 3
2487 829 2 4.0999999999999998e-01 -7.8856375159420162e+00 -6.2472102710793660e+00 -2.5713362988910013e+00 0 0 2
2529 843 2 4.0999999999999998e-01 -1.4669031316695040e+00 -8.5432074722703888e+00 -6.7747174165180830e+00 4 1 3
1847 616 2 4.0999999999999998e-01 -3.9577770450323175e+00 -6.3550229377013867e+00 -3.3352607514334203e+00 5 1 4
97 33 1 -8.1999999999999995e-01 -3.1666432449578803e+00 -7.4421640735632923e+00 -6.2496759988858610e+00 2 1 6
170 57 2 4.0999999999999998e-01 -3.7809704609618464e+00 -9.4188793797670947e+00 -4.1181962342033884e-01 3 0 2
47 16 2 4.0999999999999998e-01 -7.2149764687173699e+00 -6.7189363364159487e+00 -6.9907183697282136e+00 2 0 5
99 33 2 4.0999999999999998e-01 -3.1900269461369692e+00 -6.4433704373393628e+00 -6.2924637386588103e+00 2 1 6
249 83 2 4.0999999999999998e-01 -1.7983953461213638e+00 -1.0640331307560562e+01 -4.3629984257446139e+00 2 1 3
120 40 2 4.0999999999999998e-01 -4.7686237935470501e+00 -1.1961266483141753e+01 -4.0191227168880292e+00 3 1 4
35 12 2 4.0999999999999998e-01 -6.3867297243019845e+00 -6.1988786865062231e+00 -4.0323236992091438e-01 1 1 5
2256 752 2 4.0999999999999998e-01 -4.2515552351988948e+00 -1.4160949875746406e+01 -6.2746090483175490e+00 5 0 3
2238 746 2 4.0999999999999998e-01 -1.2629239236847292e+01 -7.6865892286234407e+00 -7.2947491352689147e+00 3 -1 2
208 70 1 -8.1999999999999995e-01 -1.4574100770038720e+01 -8.8400326947461565e+00 -9.2005547780796704e-01 1 -2 3
2485 829 1 -8.1999999999999995e-01 -8.2000161698362639e+00 -6.4371198457695034e+00 -1.6412467422784882e+00 0 0 2
2527 843 1 -8.1999999999999995e-01 -5.7796720993709272e-01 -8.9789257946539927e+00 -6.6336189960179937e+00 4 1 3
1848 616 2 4.0999999999999998e-01 -4.9353739397306207e+00 -7.6562000285408445e+00 -3.4685990481489686e+00 5 1 4
118 40 1 -8.1999999999999995e-01 -5.4667956693902884e+00 -1.1478857398564568e+01 -4.5480874459683029e+00 3 1 4
219 73 2 4.0999999999999998e-01 -3.3951315080050559e+00 -1.2413824819635053e+01 -2.0749688662320125e+00 1 -1 1
1846 616 1 -8.1999999999999995e-01 -3.9975378745551922e+00 -7.3254007975465854e+00 -3.5734879127000347e+00 5 1 4
218 73 2 4.0999999999999998e-01 -3.6046232906292843e+00 -1.3885274796807398e+01 -2.7513449965611105e+00 1 -1 1
217 73 1 -8.1999999999999995e-01 -3.2707188987485640e+00 -1.2955505582184703e+01 -2.9062747979589041e+00 1 -1 1
119 40 2 4.0999999999999998e-01 -6.2684406379699009e+00 -1.2066758813869781e+01 -4.6562704759106861e+00 3 1 4
2489 830 2 4.0999999999999998e-01 -2.8146049525005097e+00 -8.6505414832343615e+00 -2.8789001296214796e+00 2 1 5
2237 746 2 4.0999999999999998e-01 -1.1029365728396957e+01 -7.5917862993280520e+00 -6.9817737856188957e+00 3 -1 2
2490 830 2 4.0999999999999998e-01 -2.9018808170426027e+00 -1.0141699564939794e+01 -2.2190765831380883e+00 2 1 5
1540 514 1 -8.1999999999999995e-01 -1.1904625784035957e+01 -5.8059312655856790e+00 -4.7454460638168463e+00 3 0 4
1101 367 2 4.0999999999999998e-01 -1.4376066785878105e+01 -8.0416796427109176e+00 -4.0054783869814568e+00 3 1 3
514 172 1 -8.1999999999999995e-01 -2.7965071446792038e+00 -1.3013385500818675e+01 -7.1630747484974506e+00 1 0 3
516 172 2 4.0999999999999998e-01 -2.5558087410681516e+00 -1.2227312141838201e+01 -6.5937600324997856e+00 1 0 3
2294 765 2 4.0999999999999998e-01 -2.6425447231214427e-01 -6.4688495650467406e+00 -5.8978399254160863e-01 3 -1 3
2488 830 1 -8.1999999999999995e-01 -2.3305480326696060e+00 -9.5160431935679739e+00 -2.7502067472027836e+00 2 1 5
752 251 2 4.0999999999999998e-01 -5.8324447195923419e+00 -1.4614509001425628e+01 -3.0459759203572059e+00 3 1 5
2235 745 2 4.0999999999999998e-01 -8.4007013843495493e-01 -8.8041649370229997e+00 -3.4255134262542040e+00 3 0 2
247 83 1 -8.1999999999999995e-01 -1.8388593665570845e+00 -1.1394836531910471e+01 -5.0180179558657461e+00 2 1 3
169 57 1 -8.1999999999999995e-01 -3.8172633962335052e+00 -1.0343894006228561e+01 -7.8996913085476450e-01 3 0 2
98 33 2 4.0999999999999998e-01 -3.3296636064423222e+00 -7.7393831470695558e+00 -5.3089042944441349e+00 2 1 6
2528 843 2 4.0999999999999998e-01 -5.6585247035306097e-01 -9.8675894160506079e+00 -7.0919816469587662e+00 4 1 3
2107 703 1 -8.1999999999999995e-01 -1.2142693400993135e+01 -1.2201262236846686e+01 -2.7711630242766994e-01 3 0 2
1541 514 2 4.0999999999999998e-01 -1.2126037328200574e+01 -6.0004838838069681e+00 -3.7898873511439852e+00 3 0 4
1344 448 2 4.0999999999999998e-01 -8.4334710367527741e+00 -1.1817552256424591e+01 -1.5184365138596156e-01 1 1 3
2358 786 2 4.0999999999999998e-01 -1.4724577094973750e+01 -8.9341840149414473e+00 -6.6287725974646357e+00 3 0 5
158 53 2 4.0999999999999998e-01 -1.5537945753910876e-01 -5.0161498257040478e+00 -3.5878586819009879e+00 1 0 2
2293 765 1 -8.1999999999999995e-01 -1.0802335903782723e+00 -6.2828323319277413e+00 -4.2479762645648123e-02 3 -1 3
1395 465 2 4.0999999999999998e-01 -2.9317772451214026e+00 -7.0962933833254969e+00 -6.3007029461301656e-02 2 -1 4
641 214 2 4.0999999999999998e-01 -6.8215710887459089e+00 -1.4828728745602046e+01 -4.7407609201599890e+00 2 1 3
2090 697 2 4.0999999999999998e-01 -8.3397849060035405e+00 -6.7827468657145911e+00 2.5848183258408355e+00 4 0 3
2089 697 1 -8.1999999999999995e-01 -8.9799988585235511e+00 -6.8313179085260014e+00 1.8181807174731617e+00 4 0 3
2231 744 2 4.0999999999999998e-01 -1.0708710206678919e+01 -1.2052084879309845e+01 4.2702309626600012e+00 2 1 4
646 216 1 -8.1999999999999995e-01 -8.9719789077799774e+00 -1.1205773140009553e+01 3.5630646527360064e+00 2 1 4
648 216 2 4.0999999999999998e-01 -8.4202697209600057e+00 -1.1261967394490615e+01 4.3951856805138405e+00 2 1 4
45 15 2 4.0999999999999998e-01 -1.1854247045129512e+01 -6.1440334670902654e+00 3.2885238713763236e+00 0 -1 3
647 216 2 4.0999999999999998e-01 -8.9955041664421245e+00 -1.0259007769751143e+01 3.2420535112377529e+00 2 1 4
1253 418 2 4.0999999999999998e-01 -1.3697499667730273e+01 -7.4782074769917806e+00 3.5508715242237372e+00 3 1 3
2483 828 2 4.0999999999999998e-01 -8.8857905870215141e+00 -7.3588469265728955e+00 5.4644619636641210e+00 3 0 6
2091 697 2 4.0999999999999998e-01 -9.2255219118627299e+00 -7.7858013650230156e+00 1.6489293833593734e+00 4 0 3
305 102 2 4.0999999999999998e-01 -8.6109185923061240e+00 -1.2953366384509309e+01 2.3334327967582631e+00 2 2 3
1121 374 2 4.0999999999999998e-01 -1.2008519589674790e+01 -8.6713330983894057e+00 3.6274071767277789e+00 2 0 4
304 102 1 -8.1999999999999995e-01 -8.8408997880202342e+00 -1.3580465902478888e+01 1.5892413631898563e+00 2 2 3
306 102 2 4.0999999999999998e-01 -9.7502096818163206e+00 -1.3965534513023391e+01 1.7468602070121015e+00 2 2 3
1144 382 1 -8.1999999999999995e-01 -7.1737005905271021e+00 -1.0980555057085624e+01 5.7843387112464519e+00 3 -1 4
43 15 1 -8.1999999999999995e-01 -1.1064747690920186e+01 -5.5921346577170947e+00 3.5569726343928849e+00 0 -1 3
2482 828 1 -8.1999999999999995e-01 -9.0801604654061201e+00 -8.2125972656030104e+00 4.9814537119214854e+00 3 0 6
2484 828 2 4.0999999999999998e-01 -8.3517606415224463e+00 -8.3952437085164604e+00 4.3211202455085562e+00 3 0 6
1467 489 2 4.0999999999999998e-01 -1.2371862546048666e+01 -8.7400491392334345e+00 7.3545742259881628e+00 5 0 2
44 15 2 4.0999999999999998e-01 -1.0454066416895138e+01 -5.4804864347790438e+00 2.7730279178784230e+00 0 -1 3
689 230 2 4.0999999999999998e-01 -9.6232718673374080e+00 -9.5270269954596429e+00 6.1577574442677339e+00 1 1 4
966 322 2 4.0999999999999998e-01 -1.1937944159878722e+01 -6.7731002059274328e+00 5.7165538238255422e+00 1 -1 4
1300 434 1 -8.1999999999999995e-01 -1.0385251763294445e+01 -9.2749752668090242e+00 1.3689111956451008e+00 3 -1 2
1120 374 1 -8.1999999999999995e-01 -1.2932780951514882e+01 -8.9157629851553111e+00 3.9205985691215410e+00 2 0 4
780 260 2 4.0999999999999998e-01 -1.2319934832920220e+01 -5.6063810508676912e+00 1.0410423763912462e+00 3 2 2
1122 374 2 4.0999999999999998e-01 -1.2896060661267116e+01 -9.7393814934982128e+00 4.4865230397075457e+00 2 0 4
407 136 2 4.0999999999999998e-01 -1.4314377121750660e+01 -9.8133504891027776e+00 3.3441125769221252e+00 2 1 4
964 322 1 -8.1999999999999995e-01 -1.2276263637859731e+01 -7.2214009277823807e+00 6.5439187307155144e+00 1 -1 4
2230 744 1 -8.1999999999999995e-01 -1.1206639187833051e+01 -1.2735501358745582e+01 4.8040612834395411e+00 2 1 4
1302 434 2 4.0999999999999998e-01 -1.1281675681214134e+01 -9.6109365641986866e+00 1.6579100029670997e+00 3 -1 2
1466 489 2 4.0999999999999998e-01 -1.2847704720848007e+01 -1.0163834468699847e+01 6.7119653547553391e+00 5 0 2
1383 461 2 4.0999999999999998e-01 -1.4092776650723186e+01 -1.1528685687344771e+01 5.3387236988895168e+00 1 -1 3
1401 467 2 4.0999999999999998e-01 -1.2281279201040309e+01 -1.3211415392119555e+01 7.0888822871720656e+00 3 0 2
327 109 2 4.0999999999999998e-01 -1.2637317300697500e+01 -1.4048697518305779e+01 1.9495087506804083e+00 4 -2 2
326 109 2 4.0999999999999998e-01 -1.4094452200787593e+01 -1.3624467182674465e+01 2.5522713416728422e+00 4 -2 2
2287 763 1 -8.1999999999999995e-01 -1.3089497030292122e+01 -9.9551768603684323e+00 1.0897027643660770e+00 3 -1 3
1880 627 2 4.0999999999999998e-01 -1.4660706347542748e+01 -1.3675204529738400e+01 7.0291975321696825e+00 3 1 2
325 109 1 -8.1999999999999995e-01 -1.3474852695506783e+01 -1.3531684776428959e+01 1.7728779611944141e+00 4 -2 2
1382 461 2 4.0999999999999998e-01 -1.2491222334803519e+01 -1.1724622921650095e+01 5.0873896013797477e+00 1 -1 3
1381 461 1 -8.1999999999999995e-01 -1.3217943012389508e+01 -1.1054664401858242e+01 5.2390433904461879e+00 1 -1 3
1285 429 1 -8.1999999999999995e-01 -2.2140948987761178e-01 -5.6350854232719971e+00 4.8204578307220523e+00 1 -1 5
2419 807 1 -8.1999999999999995e-01 -2.8712908057627136e+00 -5.0762142944803532e+00 2.3810276692285193e+00 3 0 2
965 322 2 4.0999999999999998e-01 -1.3274274617883499e+01 -7.1641593878695300e+00 6.5696835029590055e+00 1 -1 4
2232 744 2 4.0999999999999998e-01 -1.0760813715758340e+01 -1.3625141184669983e+01 4.7053350965984997e+00 2 1 4
2295 765 2 4.0999999999999998e-01 -1.1911232152830085e+00 -5.2948893670845649e+00 6.5401780792681663e-02 3 -1 3
1252 418 1 -8.1999999999999995e-01 -1.3934895562577198e+01 -6.5566341232276191e+00 3.2437689747658354e+00 3 1 3
821 274 2 4.0999999999999998e-01 -3.1358275510069546e+00 -1.3019018786135224e+01 6.3602082270873588e+00 0 0 4
2289 763 2 4.0999999999999998e-01 -1.3835851022188452e+01 -1.0081519610752300e+01 1.7431241437893270e+00 3 -1 3
2108 703 2 4.0999999999999998e-01 -1.2818310293377891e+01 -1.2759609992669370e+01 2.0429390266049552e-01 3 0 2
778 260 1 -8.1999999999999995e-01 -1.1589196738940192e+01 -6.0820148858935035e+00 5.5138898367366096e-01 3 2 2
385 129 1 -8.1999999999999995e-01 -3.9070772690625031e+00 -5.4214108580264337e+00 5.7436433184970035e+00 2 -1 1
613 205 1 -8.1999999999999995e-01 -1.4755132417922011e+01 -6.9087402022939211e+00 7.2844351197654653e+00 2 -2 4
779 260 2 4.0999999999999998e-01 -1.1032611273464063e+01 -6.5979767303469536e+00 1.2025126340715886e+00 3 2 2
1146 382 2 4.0999999999999998e-01 -6.8772399458564220e+00 -1.0166532339031418e+01 6.2837827032603997e+00 3 -1 4