2593
Atoms. Timestep: 1000000
O 10.4396 13.043 0.46944
H 9.75102 13.5315 1.00534
H 11.1815 12.7466 1.07089
O -9.75339 11.4247 8.22859
H -9.88087 11.2906 9.21129
H -9.18473 12.2325 8.07347
O -3.09489 -7.13917 9.49197
H -2.51943 -7.95557 9.53989
H -3.92714 -7.3477 8.97832
O 14.8331 -9.02642 9.54494
H -14.7914 -9.33149 8.60924
H 13.8643 -8.79936 9.64377
O -8.03838 3.01658 11.0781
H -7.68835 3.76459 11.6419
H -7.33426 2.73181 10.4276
O -14.8336 -3.98322 -8.15798
H 14.0688 -3.65487 -7.86858
H -14.1241 -3.53278 -7.61619
O -8.83522 9.43458 4.12948
H -9.37806 8.82125 3.55581
H -9.17322 10.3704 4.0298
O -0.464821 11.3989 9.46985
H -1.45236 11.4674 9.61137
H 0.012566 11.7958 10.2537
O -6.60351 -9.18118 -6.87323
H -6.27527 -8.99869 -7.8
H -7.23996 -8.46098 -6.5972
O -0.0503953 6.88287 -13.8703
H 0.615629 6.56156 -13.1972
H -0.973803 6.78155 -13.5002
O -8.04489 12.1024 -8.33807
H -8.03916 13.0456 -8.67019
H -8.97387 11.85 -8.06746
O -4.72956 -1.04235 -0.0253634
H -5.25853 -0.223378 -0.24771
H -5.22193 -1.8532 -0.341652
O -2.43851 -1.32095 -8.90444
H -3.01 -0.883959 -9.59898
H -1.48697 -1.0409 -9.03131
O 8.46786 1.73704 -2.97995
H 8.16284 2.59542 -3.39239
H 8.47714 1.01812 -3.67494
O -10.7548 -9.13063 7.14625
H -11.0809 -9.85154 7.75772
H -11.5328 -8.5959 6.81666
O -9.14031 -12.0253 -4.52353
H -8.92199 -12.962 -4.25004
H -8.78904 -11.8565 -5.44444
O 9.17471 6.70289 0.310266
H 8.3036 7.13311 0.0735633
H 9.27433 6.67715 1.30493
O 1.60651 3.39664 -2.23851
H 2.02286 4.2224 -1.85808
H 1.4248 2.74526 -1.50187
O -7.98603 0.426683 1.43949
H -7.24364 0.561929 2.09563
H -7.60358 0.172243 0.55126
O -4.35292 -5.4274 -0.628264
H -4.99051 -4.9359 -1.22145
H -4.75543 -5.52982 0.28138
O 11.5116 4.30004 8.55804
H 11.8084 4.50272 9.49123
H 10.658 3.77992 8.58527
O 0.937636 -3.46668 -0.514122
H 0.523948 -3.83437 -1.34696
H 1.53162 -4.15847 -0.103554
O -13.7688 -11.5073 -0.791747
H -14.5334 -11.5692 -0.150256
H -14.036 -11.9073 -1.6684
O 6.84189 1.50638 5.3791
H 5.91796 1.88845 5.39731
H 7.36279 1.92903 4.63749
O 12.7525 4.84674 1.38153
H 12.2289 5.68613 1.23583
H 12.1461 4.05636 1.29474
O -4.56478 14.8537 -14.0698
H -5.20169 14.2448 -13.5969
H -3.68828 14.8581 -13.5884
O -0.704615 5.14782 0.186761
H -1.42411 4.63147 0.651162
H -0.792481 5.02652 -0.801934
O 11.1506 -13.1378 -10.4715
H 10.4427 -13.334 -9.79308
H 11.9514 -12.7501 -10.0151
O -5.64069 11.6592 -14.1389
H -5.05572 10.9196 -14.4716
H -6.58002 11.3276 -14.0515
O 12.5394 -3.22541 -7.16487
H 12.551 -3.72116 -6.29652
H 12.2795 -2.27365 -7.00185
O 10.7699 2.9602 1.10203
H 9.91244 3.06266 1.60624
H 10.5814 2.57484 0.198747
O -3.27753 4.04107 -12.4664
H -2.41947 3.5332 -12.3905
H -3.94741 3.66086 -11.8287
O -3.36407 -3.19504 -4.4762
H -2.88801 -2.54837 -3.88025
H -3.21873 -2.9372 -5.43136
O 3.71679 -6.04958 -9.49106
H 3.4485 -6.36981 -8.58253
H 3.04802 -5.3831 -9.82048
O -5.62507 12.4211 -10.0534
H -5.45895 13.3948 -9.8978
H -6.46281 12.1463 -9.58157
O -13.6544 12.5092 -1.83579
H -13.3841 11.6467 -1.40795
H -12.8435 12.9725 -2.19315
O 11.2108 7.27725 8.28858
H 11.0884 6.28788 8.36677
H 10.5061 7.65384 7.68732
O -7.23408 5.10931 0.987849
H -7.49195 4.3563 0.382509
H -7.12183 5.94529 0.450725
O 11.1193 6.25432 -1.56311
H 10.3698 6.30542 -0.903084
H 11.0744 5.38294 -2.0516
O -6.41924 -10.1172 -2.76747
H -5.82354 -10.0815 -3.56986
H -6.49559 -11.0626 -2.45081
O 12.6598 14.89 11.7657
H 13.5092 14.3634 11.8013
H 12.8718 -13.9347 11.7951
O 10.738 2.51029 11.6099
H 10.937 2.97938 12.4703
H 11.312 1.6949 11.5343
O 4.39027 -1.55573 3.49298
H 3.42127 -1.63695 3.72622
H 4.93367 -1.52607 4.3319
O 6.51101 -6.52827 -14.1336
H 6.87695 -7.00337 -13.3334
H 5.86155 -7.12362 -14.6065
O -14.4501 9.93183 -0.393934
H -14.4243 9.89996 0.605203
H 14.5101 10.383 -0.691455
O -3.83204 -10.9901 1.91506
H -2.93246 -10.5804 2.06613
H -4.20402 -11.3084 2.78702
O -1.75292 -12.0283 -9.34805
H -1.30095 -11.8176 -10.2148
H -2.72688 -11.8131 -9.41909
O -9.42564 3.39305 4.66911
H -9.22146 2.44704 4.92076
H -9.97331 3.40462 3.83252
O -11.9597 -13.4736 10.0809
H -11.1101 -13.4648 9.55348
H -11.7815 -13.1369 11.0055
O 3.48174 -8.22239 9.2168
H 2.92433 -7.57641 9.7383
H 4.44746 -8.0804 9.43401
O -4.35193 -0.759583 6.29596
H -4.85403 -1.29616 5.61778
H -3.75926 -1.36475 6.82744
O -14.7191 3.46188 1.34366
H 14.4431 4.05586 1.83198
H 14.6362 3.08955 0.529886
O 2.00319 -5.49366 -4.84532
H 2.29323 -4.54203 -4.74414
H 1.23224 -5.67387 -4.23449
O -10.1996 11.857 -3.38053
H -10.6605 11.3304 -2.66624
H -10.3074 12.834 -3.19654
O -9.21811 -7.38837 13.5367
H -8.64781 -6.82507 12.9388
H -9.74233 -8.03606 12.9838
O 5.96841 -7.06299 5.77927
H 6.43378 -7.63229 5.10156
H 6.61644 -6.40567 6.16389
O -2.68566 -7.02429 -2.22445
H -2.92262 -7.93979 -1.89939
H -3.17108 -6.34096 -1.6791
O 13.3479 3.68284 6.5268
H 14.2402 3.76623 6.97033
H 12.6385 4.03712 7.13604
O 9.59445 -9.83792 9.67413
H 10.4897 -10.2406 9.86486
H 9.58775 -8.88359 9.97273
O -3.4503 7.42358 -6.43662
H -2.97903 6.911 -7.15434
H -4.40237 7.12262 -6.38245
O 9.77188 -6.89451 10.3772
H 9.75159 -7.00409 11.3709
H 8.83689 -6.81623 10.0313
O -11.3457 -2.34432 12.2732
H -10.5674 -2.91076 12.0024
H -12.1971 -2.817 12.0458
O -7.34646 -11.1983 -12.5681
H -7.73633 -10.4765 -11.9964
H -8.00725 -11.9431 -12.6614
O -5.77013 -13.0733 -2.91603
H -6.50335 -13.3431 -3.54018
H -5.02559 -13.7388 -2.9691
O -1.71603 -12.7023 -4.41114
H -2.21223 -11.8392 -4.31693
H -1.93761 -13.1196 -5.29242
O -12.2202 -12.8908 -6.03236
H -12.4126 -13.2747 -6.93542
H -12.1734 -11.894 -6.09701
O -4.74382 -1.16393 -3.24337
H -4.42056 -1.73935 -3.99461
H -5.7224 -1.31573 -3.10452
O 6.78908 3.62455 7.50061
H 5.85507 3.27227 7.44166
H 7.06448 3.67988 8.46032
O -0.465042 3.78042 13.4346
H -0.0174497 4.60817 13.7729
H 0.218246 3.06242 13.3022
O 13.5594 -7.60704 -1.10386
H 13.6874 -8.23863 -1.8685
H 14.1137 -7.90693 -0.327469
O 3.72826 -13.9056 -6.87099
H 3.20519 -14.0643 -6.03363
H 4.6082 -14.3765 -6.80861
O 12.1527 5.34965 11.143
H 12.9118 5.98748 11.2725
H 11.6904 5.19988 12.017
O -4.46249 -9.56648 -0.740411
H -4.4247 -9.99422 0.162674
H -4.98098 -10.1509 -1.36458
O 14.5827 0.542377 -3.72067
H 13.6654 0.825735 -3.44099
H 14.5466 0.160971 -4.64435
O 6.52609 -1.12167 5.39774
H 6.80373 -1.11651 6.35839
H 6.42668 -0.180626 5.07447
O -4.30561 -1.17197 -12.2759
H -4.94219 -0.94794 -13.0138
H -4.58405 -0.698508 -11.4403
O 13.5521 3.83754 -9.99373
H 13.6714 4.16378 -10.9314
H 14.4196 3.4738 -9.65446
O 8.52899 -11.1553 -7.97135
H 7.64915 -10.6836 -8.02904
H 8.66764 -11.4892 -7.03902
O 8.75482 2.51382 3.49104
H 9.62411 2.83536 3.8664
H 8.87867 1.60356 3.09604
O 6.70791 9.57103 14.853
H 7.07401 8.67634 14.5972
H 5.88381 9.75911 14.3188
O 14.0061 4.03836 14.568
H 14.3729 3.13721 14.337
H 14.4706 4.7368 14.0235
O 14.5871 1.97125 -0.75738
H -14.3996 1.49939 -1.09407
H 13.8235 1.80395 -1.38098
O -2.7065 -10.2736 -3.45985
H -3.12759 -10.6054 -2.61572
H -3.4043 -9.84676 -4.03503
O -0.0350253 -14.8091 -14.6478
H 0.675135 14.3067 -14.4886
H 0.357855 -14.0294 14.6662
O 14.5414 9.33951 12.1603
H 13.6255 9.73922 12.1236
H 14.476 8.3816 12.4397
O -11.9771 -9.67246 -1.50992
H -11.0161 -9.81729 -1.27438
H -12.5372 -10.376 -1.07254
O -0.0602109 11.3504 -9.43112
H 0.0442252 11.4291 -10.4225
H -0.951497 11.7138 -9.15996
O 5.63683 10.2655 -8.65614
H 5.67972 9.44799 -9.23038
H 4.82153 10.2248 -8.07859
O 6.0455 -2.32208 12.1084
H 6.4665 -2.98306 11.4872
H 6.26584 -2.56519 13.053
O -8.16433 14.2502 11.1229
H -7.7556 -14.7802 11.611
H -7.44223 13.6331 10.8103
O 5.38104 -4.85011 -11.5197
H 4.81689 -5.22401 -10.7836
H 4.83975 -4.79358 -12.3586
O -11.6914 11.5005 0.412354
H -11.0705 12.234 0.688777
H -12.0443 11.0383 1.22584
O 3.18727 -9.43305 4.74709
H 4.02529 -9.92375 4.98562
H 3.39087 -8.74439 4.05121
O -9.83137 -8.31306 -10.192
H -10.142 -7.37288 -10.3317
H -9.97102 -8.57163 -9.23616
O 3.80429 6.08436 -5.39139
H 3.0108 5.48861 -5.51553
H 4.5396 5.79184 -6.00271
O 8.04589 5.95439 12.4108
H 8.76294 6.56298 12.0711
H 8.3037 5.00447 12.2344
O -1.35 -0.546653 3.07628
H -0.802542 -0.728474 2.25947
H -2.16905 -0.032889 2.82101
O -6.55864 6.50101 -11.5128
H -6.23036 6.52851 -12.4569
H -7.34047 5.88075 -11.4497
O -7.05025 13.7632 3.59367
H -7.6907 14.5124 3.76261
H -6.18219 14.1347 3.26437
O -13.4194 9.11092 9.52632
H -14.0211 9.65602 10.1101
H -12.5048 9.07754 9.92915
O -6.22351 -6.76254 -11.8369
H -5.65504 -7.41867 -12.3332
H -5.81979 -5.8505 -11.9086
O -13.3913 -11.726 2.99477
H -12.9963 -11.9753 3.87893
H -13.693 -12.5525 2.51952
O 13.9043 12.7865 -2.90701
H 14.8612 12.7528 -2.61868
H 13.5294 13.6929 -2.71285
O 0.204652 -12.8761 -11.3464
H 0.983023 -12.5881 -10.7886
H 0.376319 -13.7913 -11.7109
O 4.35317 13.4409 0.462987
H 4.1033 13.7816 -0.443356
H 3.70308 13.7863 1.13977
O 2.09201 10.7204 1.53557
H 2.0233 11.4535 2.21228
H 1.64133 9.89962 1.8864
O -2.29761 4.16384 9.73835
H -2.55912 4.63187 8.89425
H -1.30355 4.05912 9.76717
O 1.21747 7.89926 1.90121
H 0.370391 8.28077 2.27115
H 1.34018 6.9673 2.24232
O 12.8805 14.5295 0.384292
H 13.0441 -14.8894 1.29356
H 11.902 14.3623 0.264119
O 2.75691 -1.18831 -9.96138
H 2.64495 -1.57093 -10.8784
H 3.71822 -0.957079 -9.81177
O 9.29129 2.3369 -8.49567
H 8.51888 2.9188 -8.24124
H 8.95624 1.53715 -8.99375
O -3.23147 -11.567 6.82186
H -2.29576 -11.5407 7.17356
H -3.72072 -12.3359 7.23351
O -8.06008 0.889191 13.3125
H -7.77954 1.65985 12.7403
H -8.97307 0.586239 13.0393
O -11.1433 11.3651 -13.8211
H -11.4593 10.7316 -14.5273
H -11.7805 11.3501 -13.0506
O 1.32372 0.736474 -0.363835
H 2.00319 0.847542 0.361384
H 1.7827 0.478127 -1.21387
O -7.92463 10.4759 13.6097
H -8.03165 10.9055 14.5063
H -7.04204 10.0077 13.5676
O 3.32081 4.51005 -14.0275
H 3.71402 4.80636 -14.8979
H 4.04589 4.43312 -13.3432
O -8.73377 -4.62555 11.6586
H -8.72284 -3.63027 11.5624
H -9.24351 -5.0283 10.8984
O 3.13189 -12.0185 7.21962
H 3.75246 -11.673 6.51569
H 2.66335 -11.2508 7.65678
O -0.270716 -14.4597 -8.47776
H -0.241286 -13.9218 -9.32021
H 0.535112 14.7516 -8.43087
O 3.21416 -6.62004 6.42284
H 2.45392 -6.78624 5.79487
H 4.0661 -6.93706 6.00612
O 7.52578 -1.19952 -0.626048
H 6.85796 -1.92796 -0.473236
H 7.32433 -0.738579 -1.49028
O -10.1232 -2.08822 -0.388092
H -10.6331 -2.72848 -0.962563
H -9.89755 -1.27123 -0.918732
O 6.10696 -8.51801 -0.987754
H 6.1513 -9.18094 -0.24042
H 6.86916 -7.87551 -0.909015
O 0.332924 -14.5706 -4.01142
H -0.366719 14.5209 -4.09107
H -0.094643 -13.6705 -4.09477
O 3.806 6.70764 1.37218
H 4.4157 6.78821 2.16067
H 3.03795 7.33906 1.47886
O -13.2747 4.50052 3.42132
H -13.7899 3.99186 2.73155
H -12.2981 4.44974 3.21251
O 13.9817 -14.4499 7.54491
H 13.2513 14.6877 7.38512
H 13.6015 -13.6347 7.98172
O -3.92551 -4.87814 7.0952
H -4.86306 -5.20645 7.21001
H -3.32903 -5.33574 7.75457
O 13.0222 -12.8246 -5.15521
H 13.838 -12.8837 -4.58003
H 13.086 -12.0176 -5.74232
O 5.84155 4.09859 -1.22181
H 5.13612 4.0562 -0.514331
H 5.48008 4.5721 -2.02497
O 14.2098 -6.34646 -4.61086
H -14.5954 -6.33217 -4.69516
H 13.8683 -5.40969 -4.53513
O -3.26501 9.97157 2.29977
H -3.93561 10.6799 2.52013
H -3.73976 9.14839 1.98843
O 3.77431 3.57967 0.550168
H 4.27357 4.0608 1.27072
H 3.66272 2.61946 0.806085
O -13.6957 7.85272 -14.5613
H -13.6515 8.2024 -13.6255
H -13.5914 8.61038 14.596
O 10.7836 -7.85935 -0.310097
H 11.7147 -7.57783 -0.541861
H 10.8159 -8.67763 0.263774
O 2.43971 -11.8679 3.61648
H 1.46757 -11.6935 3.45994
H 2.88646 -11.0234 3.91172
O 14.6756 -4.0109 9.21438
H 14.6093 -4.85331 9.74908
H 14.2819 -3.25359 9.73536
O -7.83344 3.60036 -6.08439
H -8.36575 3.39893 -6.90661
H -6.93534 3.95316 -6.34689
O 7.57379 -10.5794 14.1739
H 7.28944 -10.5917 13.2153
H 8.08455 -11.4138 14.3809
O 9.69303 -7.22362 12.9953
H 9.45519 -6.7941 13.8664
H 10.4613 -7.84917 13.1309
O -3.03974 11.5113 9.91954
H -3.16865 10.5266 9.80287
H -3.34956 11.7824 10.8309
O 0.676413 5.34781 5.26085
H 1.355 5.35524 4.52641
H 1.13703 5.45944 6.14138
O 13.237 4.11211 -4.94413
H 13.1004 3.91717 -3.97291
H 14.1753 3.88137 -5.20162
O -8.71834 2.57303 -8.35407
H -9.34889 1.79769 -8.31931
H -8.08926 2.45683 -9.12265
O 3.64437 10.6889 4.97979
H 3.0799 10.0609 5.51546
H 4.44061 10.2 4.62349
O -1.62435 12.6373 3.36536
H -1.40644 13.6128 3.39358
H -1.12004 12.2046 2.61811
O 11.1424 -9.75924 13.6512
H 11.4202 -10.5828 14.1458
H 10.1913 -9.54312 13.8714
O 11.8208 14.2347 -11.3592
H 12.2139 13.9535 -10.4837
H 11.5597 -14.6027 -11.3131
O -14.5904 11.2351 -7.68063
H 14.2606 11.5219 -7.79964
H -14.512 10.2557 -7.86654
O 2.13734 -8.75309 -12.9895
H 2.99157 -8.78411 -12.4706
H 1.36517 -8.8888 -12.3688
O -1.92408 -9.80158 3.6734
H -2.14929 -9.61662 4.62997
H -2.12946 -8.99408 3.12048
O 12.113 -6.42979 9.09899
H 12.8335 -6.21163 9.75715
H 11.2717 -6.65769 9.58916
O -7.2095 -5.36907 0.577569
H -8.01259 -5.61579 1.1199
H -7.20736 -5.89486 -0.273014
O 0.215067 -8.38601 -11.3421
H -0.556256 -7.81776 -11.6286
H 0.341686 -8.3023 -10.3537
O -3.83936 8.82678 9.5142
H -4.76111 8.47654 9.3479
H -3.45937 9.18356 8.66082
O -10.5356 6.36741 -10.2015
H -10.6332 7.35891 -10.2873
H -11.438 5.93868 -10.2454
O -9.19194 2.70074 0.316183
H -8.98483 1.76213 0.59199
H -9.91613 2.69343 -0.373338
O 14.6513 -3.25059 -1.90841
H 14.2867 -3.99382 -1.34755
H 14.5997 -2.39197 -1.39846
O 13.4983 13.7102 -5.69789
H 13.3413 13.0095 -5.00198
H 14.4816 13.8275 -5.83698
O -10.9591 3.40369 2.46022
H -10.192 3.34212 1.82172
H -11.6372 2.70413 2.23496
O 10.2686 -13.545 -4.72102
H 11.232 -13.2785 -4.74956
H 10.1167 -14.3131 -5.343
O -11.5744 4.80162 -2.94782
H -11.7619 5.42543 -2.1891
H -10.6444 4.95365 -3.28225
O -2.58947 -14.8945 -9.96256
H -1.79871 -14.5703 -9.44338
H -2.31112 14.7031 -10.9011
O 3.38757 1.01521 1.39415
H 4.19872 0.572021 1.77571
H 2.68417 1.0885 2.10112
O -0.0165188 -11.4856 2.70848
H -0.730574 -10.8643 3.03111
H -0.327879 -11.9492 1.87894
O 3.30347 8.72853 -13.4552
H 4.16834 9.18829 -13.2538
H 3.41482 8.14727 -14.2613
O -0.980196 -8.76363 0.228061
H -1.35188 -8.58441 1.13893
H -0.775567 -7.89602 -0.225062
O -12.6344 -9.63728 10.8201
H -12.7946 -9.99308 11.7408
H -13.5113 -9.48575 10.364
O 13.5042 -0.931411 -13.7143
H 13.0165 -1.4934 -13.0462
H 13.1224 -1.08962 -14.6249
O 13.4332 1.36091 9.07535
H 13.9383 2.20558 9.25227
H 13.7022 0.991767 8.18579
O -4.6789 -9.09758 -4.90293
H -5.49711 -9.29203 -5.44392
H -4.50289 -8.11322 -4.90686
O -2.6023 -2.5408 7.18949
H -2.11029 -2.35581 8.04018
H -3.16713 -3.35826 7.30214
O 5.36863 -12.5102 -10.2919
H 4.63207 -12.9373 -10.8164
H 5.75127 -13.1762 -9.65157
O -9.01575 -2.30099 9.98934
H -8.42886 -1.49564 9.90615
H -9.86172 -2.15123 9.47762
O -13.5653 10.309 14.1539
H -13.9211 11.1802 14.4922
H -14.138 9.98482 13.401
O -1.25693 -6.09203 5.96075
H -1.59321 -5.22126 5.60208
H -1.94266 -6.80326 5.80621
O 9.98298 11.1688 -2.23616
H 10.5917 10.8201 -2.94877
H 10.5254 11.6066 -1.51925
O 12.4619 0.405283 11.5874
H 13.0395 0.925568 12.2164
H 12.8132 0.500785 10.656
O 2.2609 -1.62516 -7.15495
H 3.18373 -1.91482 -6.90112
H 2.17877 -1.60939 -8.15143
O 9.88509 5.92864 -10.7518
H 10.3466 5.69289 -9.89662
H 10.4405 6.58698 -11.2598
O 2.40474 0.716856 8.18099
H 2.99299 1.09436 7.46586
H 2.8258 0.871035 9.0748
O 11.9241 -9.96411 11.064
H 11.5398 -9.83108 11.9775
H 12.5532 -10.7413 11.077
O 14.8966 0.276082 6.96955
H -14.0503 0.637151 6.59652
H 14.5017 -0.378415 6.32483
O -12.7782 1.52945 1.77452
H -13.5027 2.09616 1.38222
H -12.5959 0.755018 1.16873
O -0.387381 -2.45432 -12.9274
H -1.11119 -2.38189 -13.6136
H -0.659962 -3.11001 -12.2233
O -2.23233 -5.40622 -13.5269
H -2.15097 -5.83631 -14.4259
H -2.5339 -4.45913 -13.6365
O -9.00938 4.8036 6.84572
H -8.18695 5.28836 6.54811
H -9.42996 4.34795 6.06121
O 12.5799 -4.76899 13.6464
H 13.479 -5.02289 13.29
H 12.4257 -5.22938 14.5206
O 11.461 4.95529 13.9913
H 10.9518 5.01814 14.8496
H 12.3946 4.65023 14.1792
O 12.3602 14.8677 14.5323
H 13.0842 -14.4193 -14.81
H 12.5181 14.879 13.5449
O -2.45812 -13.8177 -6.79983
H -1.62825 -13.7183 -7.34882
H -3.17174 -13.2187 -7.16298
O 9.05016 -11.0877 -5.03699
H 9.42206 -11.9036 -4.5943
H 8.31656 -10.7079 -4.47353
O 5.4369 13.029 -9.56035
H 5.78306 12.2333 -9.06334
H 4.64849 12.7595 -10.1133
O 10.3228 12.2854 -9.45496
H 9.90866 13.1736 -9.25617
H 9.62292 11.5729 -9.40596
O 2.35618 -14.0744 5.10757
H 2.13347 -13.1814 4.71668
H 3.02584 -13.9595 5.84125
O 10.9832 -12.1205 -14.2162
H 10.0393 -12.4119 -14.371
H 11.6048 -12.8706 -14.4418
O 8.74777 5.81716 8.02172
H 8.11384 6.11135 8.73695
H 8.88468 4.82855 8.0837
O 6.93503 -7.88767 3.26841
H 7.34802 -8.79548 3.34108
H 7.57745 -7.2639 2.82325
O -14.5253 -8.4235 0.802169
H -13.7068 -8.81601 0.382827
H -14.8206 -9.00227 1.5623
O -4.9026 -14.8434 13.1149
H -4.84747 14.8676 14.1092
H -5.58511 -14.1511 12.8806
O -13.8362 -2.09876 -12.9342
H -14.6935 -1.61395 -13.1071
H -14.0231 -2.93036 -12.4113
O -0.646341 9.6895 13.1504
H -0.296261 10.5559 12.7944
H -1.31418 9.31133 12.5093
O 7.15752 -3.28465 9.74968
H 6.46201 -2.63631 9.44008
H 7.9794 -2.78576 10.0246
O 14.0376 -5.04046 6.8891
H 14.2624 -4.54684 7.7292
H 13.8939 -6.00753 7.09905
O 0.384442 8.82982 -6.5043
H -0.324084 9.51172 -6.68584
H 0.977123 9.15323 -5.76668
O 4.02414 1.8053 5.05707
H 3.05435 1.56191 5.07186
H 4.25309 2.20863 4.17115
O 1.95373 -2.0619 4.76635
H 2.3214 -2.98922 4.83601
H 1.48842 -1.82295 5.61862
O -6.0187 13.1526 9.93133
H -5.6122 12.2426 10.0128
H -5.30689 13.8163 9.7015
O -4.64638 2.92236 -10.1893
H -5.64024 2.82181 -10.1437
H -4.39558 3.86256 -9.95896
O -4.75968 5.92106 -3.66041
H -4.70425 5.29207 -2.88499
H -5.7139 6.17775 -3.81381
O 12.6064 -1.9397 -11.3496
H 13.201 -1.27942 -10.8909
H 12.3875 -2.68491 -10.7197
O -11.361 5.51912 8.61704
H -10.7482 4.84977 8.19703
H -10.935 6.42346 8.59085
O -7.19529 -11.9959 -6.50415
H -6.99591 -11.8966 -7.479
H -6.56855 -11.4233 -5.97574
O -0.289399 -10.2116 -4.75378
H -1.24282 -9.96992 -4.57339
H -0.250578 -10.89 -5.48745
O -9.42914 -10.1148 2.50713
H -8.7004 -9.84551 1.87757
H -9.04848 -10.2411 3.42316
O 9.17223 -13.8938 -12.5639
H 9.82936 -13.5391 -11.8988
H 9.12851 -14.8901 -12.4905
O 7.89144 2.9833 12.7342
H 7.32061 2.45229 12.108
H 8.85444 2.77032 12.5692
O -10.4692 -8.5767 -4.47967
H -11.2974 -9.08774 -4.70958
H -10.103 -8.90899 -3.6105
O 0.910715 12.0348 -0.695879
H 1.74271 11.6665 -0.281074
H 0.188919 11.3434 -0.665608
O 10.4652 10.1126 13.8974
H 10.7784 10.1371 12.948
H 10.5405 11.0263 14.2968
O 8.36902 -13.1376 14.7989
H 7.61848 -13.6385 14.368
H 8.42124 -13.3831 -14.0346
O -7.09153 -2.9666 -5.70044
H -7.03732 -1.98363 -5.52502
H -6.83173 -3.15085 -6.64833
O -9.0098 -0.785347 -14.39
H -10.0045 -0.867243 -14.4523
H -8.69862 -0.0431593 14.818
O -6.91455 -5.65829 -9.14046
H -7.60374 -6.27755 -8.76429
H -6.7155 -5.91594 -10.086
O 12.2313 -4.40021 -10.4925
H 11.9657 -4.76049 -9.59828
H 11.773 -4.92235 -11.2117
O -2.83659 9.92686 7.2043
H -3.60892 9.93476 6.56916
H -2.16162 10.6063 6.91675
O -10.212 -5.40289 9.4848
H -11.0325 -4.91142 9.19269
H -9.95689 -6.07071 8.7856
O -13.2623 12.8451 5.15156
H -12.7922 12.4062 5.91724
H -12.706 13.6019 4.80851
O -8.96424 -9.70006 5.23091
H -9.58751 -9.32603 5.91764
H -8.47341 -8.95232 4.78379
O -2.82093 12.7612 -0.842265
H -3.61746 13.185 -1.27342
H -2.88307 11.7672 -0.93148
O -10.8014 12.3064 -6.70573
H -10.2541 12.0535 -5.90795
H -11.7729 12.2384 -6.47866
O -11.4368 -6.74701 -0.92723
H -11.9188 -7.55822 -1.25821
H -11.6564 -6.59908 0.0370509
O 9.3131 -2.14515 -7.0492
H 8.85348 -2.78635 -7.66366
H 10.1551 -1.81793 -7.47805
O 9.39313 -0.226858 -5.18378
H 9.39277 -0.930731 -5.89407
H 9.90605 0.569572 -5.50403
O 7.68766 3.9513 0.706511
H 8.09288 4.84824 0.88331
H 7.2631 3.94998 -0.198859
O -4.62574 0.939187 11.1626
H -3.70702 1.00698 11.5516
H -4.92292 1.84149 10.8504
O -7.59984 -0.416956 -5.7264
H -8.04607 0.370861 -5.30193
H -6.94746 -0.09968 -6.41465
O 9.61778 1.56218 6.65234
H 10.2847 1.61114 5.90884
H 8.71128 1.79937 6.30312
O -10.4216 -5.79079 -11.3097
H -10.0512 -5.90945 -12.231
H -9.84388 -5.15521 -10.7976
O -9.68431 -11.949 12.7573
H -9.706 -11.3287 11.9733
H -9.70661 -11.4171 13.6038
O -14.3508 14.7079 -0.641109
H -14.085 13.836 -1.05228
H 14.484 14.6757 -0.387213
O 2.99747 -2.11969 13.8169
H 2.75032 -2.21465 12.8526
H 2.22391 -1.73874 14.3233
O -7.37631 -9.29597 0.602509
H -7.25309 -10.1944 0.181097
H -7.72378 -8.65267 -0.0796757
O -12.7467 14.8594 -4.36386
H -12.4906 14.0022 -4.8105
H -12.5612 -14.1768 -4.98015
O 6.62117 -13.2955 0.591004
H 6.85474 -14.2674 0.622396
H 6.15686 -13.0368 1.43802
O 12.6443 -5.11163 -1.06859
H 13.2494 -5.89432 -1.2143
H 11.7812 -5.26343 -1.55012
O -1.62728 13.3434 -4.06428
H -1.52941 12.521 -3.50384
H -2.58611 13.4573 -4.3243
O -1.94373 -3.8257 12.1454
H -1.84345 -4.19278 11.2207
H -1.12412 -4.03615 12.6783
O 2.65998 0.971261 -2.71798
H 2.32892 1.90872 -2.61063
H 3.55685 0.983085 -3.16006
O -7.59891 -14.244 -4.21834
H -7.53493 -14.4962 -5.18388
H -7.57345 14.7313 -3.65567
O -9.70448 -8.74836 -12.8175
H -9.4432 -7.85155 -13.1745
H -9.86287 -8.68175 -11.8324
O -2.94687 -14.2755 4.75147
H -2.15311 -14.406 4.15744
H -3.69103 -13.8616 4.22726
O -4.38196 -3.01199 12.8224
H -4.80411 -2.61066 12.0096
H -3.54751 -3.49647 12.5598
O 7.29606 7.13011 -3.50673
H 7.31921 8.07131 -3.16976
H 7.60354 7.10901 -4.45802
O -1.29308 -11.1214 13.437
H -1.05675 -10.8725 14.3762
H -0.895045 -12.0123 13.218
O -6.31072 -5.71336 12.3349
H -7.22368 -5.35269 12.1442
H -6.03986 -5.46074 13.2637
O -2.02888 14.6425 -12.8313
H -1.32524 -14.776 -13.4297
H -2.15404 13.6731 -13.042
O 12.5638 -4.77773 3.19751
H 12.4488 -4.09233 2.47852
H 13.3051 -4.49901 3.80814
O -11.1456 -1.59127 4.17419
H -10.8393 -2.21984 3.45929
H -11.2971 -2.09922 5.0221
O -6.13784 0.965923 3.68457
H -6.59647 0.106678 3.9111
H -5.17632 0.785916 3.47714
O 7.1864 10.7412 2.24758
H 6.82965 10.4507 1.35973
H 8.13022 10.4261 2.34686
O -12.606 -1.08527 0.268484
H -11.7271 -1.51884 0.0698484
H -13.1214 -1.65476 0.908759
O 10.0507 -10.1712 4.80502
H 9.38222 -10.3466 4.08225
H 9.5975 -9.72575 5.57715
O 11.9242 10.427 11.5442
H 11.6504 11.3869 11.6039
H 12.4048 10.2705 10.6814
O -1.2254 12.8364 13.7436
H -0.556721 12.5472 13.0586
H -0.904148 13.6706 14.1916
O -3.05908 4.79521 -5.68338
H -3.64522 5.35738 -5.09998
H -2.19767 5.27456 -5.85115
O 4.4554 -9.28552 -3.96308
H 3.922 -9.9479 -3.43707
H 4.80674 -9.7227 -4.79096
O -10.5726 8.13336 6.67178
H -9.96826 8.01245 5.88432
H -10.0878 8.63147 7.39065
O -0.34905 -10.1617 6.25139
H -1.01598 -9.4226 6.34585
H 0.567808 -9.80924 6.43877
O -11.2363 2.35976 -1.45581
H -11.9915 1.72305 -1.6115
H -11.4212 3.21911 -1.93255
O 13.0076 -10.5753 -6.54811
H 13.8794 -10.0861 -6.52406
H 12.2563 -9.9161 -6.57825
O -11.1731 10.0312 11.3401
H -11.7549 9.86476 12.1362
H -10.7058 10.9088 11.4464
O -3.26403 13.9109 8.43196
H -3.07064 12.9302 8.45915
H -2.6183 14.361 7.81519
O 13.037 -10.0049 -2.33637
H 12.7968 -10.5401 -1.52654
H 12.202 -9.71609 -2.80467
O 6.16316 -5.3068 -6.13286
H 6.23728 -5.725 -5.22756
H 5.21024 -5.33261 -6.43492
O -11.5293 11.5035 -10.2215
H -12.3073 11.7379 -10.8045
H -11.0969 12.3419 -9.88967
O -3.98772 4.65782 2.47426
H -4.67983 4.23361 3.0582
H -3.14511 4.78801 2.99677
O -11.7493 1.03493 -13.0594
H -12.5958 0.993434 -12.5286
H -11.8593 0.510623 -13.9037
O -11.8269 -14.563 3.99407
H -12.0858 -13.7547 4.52293
H -12.4304 -14.65 3.20144
O 2.57468 14.5078 2.19472
H 2.48626 -14.3725 2.57351
H 2.19889 13.844 2.84136
O 13.0081 1.33898 2.09984
H 12.3736 2.06551 1.8361
H 13.9354 1.58888 1.82121
O 12.2149 -3.29252 0.875817
H 12.4498 -3.83396 0.0685788
H 11.3481 -2.81921 0.719046
O -11.1216 14.2221 -2.51713
H -11.8578 14.6438 -3.04642
H -10.7985 14.8661 -1.82366
O 5.34215 -10.8691 5.24411
H 6.13525 -10.3491 5.56113
H 5.60816 -11.8202 5.08752
O -5.64495 -13.4469 7.58019
H -6.3397 -13.0242 6.99832
H -5.43773 -14.3639 7.23938
O -2.54545 6.55871 -12.6984
H -2.89757 6.9841 -13.5321
H -2.86017 5.61083 -12.6494
O -2.57581 11.9122 -12.3986
H -3.41537 11.8177 -11.8637
H -2.65978 11.3881 -13.2461
O 6.25966 -6.83952 -3.86812
H 7.24555 -7.00387 -3.8372
H 5.77468 -7.71305 -3.82695
O 3.85351 11.4116 8.36696
H 2.99579 11.1205 7.94328
H 4.58058 11.4135 7.68043
O 4.86462 -11.9046 10.6401
H 4.37809 -11.2607 11.2305
H 4.76977 -12.8301 11.0067
O 3.0583 -13.5924 -4.18627
H 3.29496 -12.795 -3.6312
H 2.10119 -13.8357 -4.02914
O -0.748186 -4.57836 -11.1643
H -1.35428 -4.44231 -10.3807
H -1.20875 -5.14504 -11.8475
O -2.09588 -4.13875 -8.79645
H -1.34644 -4.12045 -8.13467
H -2.45492 -3.21355 -8.91908
O -2.76069 -2.37414 -14.2896
H -3.39377 -1.99563 -13.6144
H -3.26422 -2.6188 14.6834
O 5.12289 11.0896 10.7766
H 4.44957 11.2909 10.0652
H 5.67033 11.9065 10.9581
O 4.13574 -13.2606 -0.643453
H 3.39173 -13.0242 -0.0185264
H 5.00815 -13.2097 -0.157379
O 1.77335 2.08891 13.0543
H 2.63707 2.17158 13.5514
H 1.69705 1.16915 12.6694
O 14.7421 6.65124 1.16926
H 14.0833 5.91158 1.30666
H -14.8618 6.7445 0.193469
O 7.14128 4.90968 4.89686
H 6.75998 4.48702 5.719
H 7.5855 4.20974 4.33765
O -12.7925 9.4298 -4.2328
H -12.347 9.65157 -3.36546
H -12.0997 9.32569 -4.94632
O 6.91199 -0.473218 -6.96726
H 7.08595 0.444833 -6.61107
H 7.74996 -0.837372 -7.37366
O 13.1368 -3.80144 -4.30253
H 13.6498 -3.48311 -3.5054
H 12.3175 -4.28792 -3.99908
O 7.39572 2.05145 -6.09563
H 6.85975 2.82397 -5.7552
H 8.33504 2.12397 -5.76041
O -6.58541 -2.79828 -8.4425
H -6.67798 -3.70497 -8.85397
H -6.91809 -2.10608 -9.08291
O -0.785517 -2.17512 9.24445
H -0.896239 -3.15464 9.41246
H -0.628963 -1.70369 10.1123
O 3.49722 -6.51797 -6.77903
H 2.84242 -6.04825 -6.18695
H 3.27354 -7.49188 -6.81669
O 10.912 7.72922 14.7116
H 10.7547 8.63637 14.3214
H 11.1873 7.09775 13.9867
O 8.79997 -6.16974 -10.4519
H 9.22944 -5.88027 -9.59651
H 8.44253 -5.36926 -10.933
O -0.748409 10.8689 1.51519
H -1.63966 10.6863 1.93027
H -0.479242 10.0907 0.947826
O 11.9513 2.09967 5.10831
H 12.5302 2.60775 5.74602
H 12.5269 1.60359 4.45832
O -0.104613 9.03483 -0.292749
H 0.827268 9.06028 0.0690553
H -0.0863378 8.7095 -1.23815
O 10.093 5.04086 -13.2342
H 9.21978 4.70441 -13.5866
H 10.0192 5.1899 -12.2481
O -12.8312 -5.62359 4.29155
H -13.6172 -5.02715 4.12925
H -12.4299 -5.89188 3.41578
O -1.42361 12.0923 6.30275
H -1.62921 12.2761 5.34155
H -0.596648 12.5883 6.56746
O 8.14781 4.25217 -3.89267
H 7.54953 4.90262 -3.42478
H 8.59862 4.70691 -4.66074
O -4.74681 -7.09645 4.90423
H -5.687 -6.86576 5.15481
H -4.47326 -6.5595 4.10623
O -10.8638 3.52826 -13.3398
H -11.4697 4.16028 -13.8228
H -11.1862 2.59093 -13.4718
O -7.00566 -1.64727 4.41429
H -7.77156 -2.06744 4.90091
H -6.82381 -2.15839 3.57426
O -7.58292 -13.6713 12.8807
H -7.83745 -14.025 13.7807
H -8.18662 -12.912 12.638
O -4.47022 7.49601 1.41489
H -5.14489 7.58442 2.14766
H -4.05437 6.58737 1.45254
O -14.2245 -10.1463 6.70907
H 14.5797 -10.0824 6.74159
H -13.9472 -10.6053 5.86502
O 2.32541 6.04527 -1.56721
H 2.42577 5.69681 -0.635298
H 3.22407 6.09528 -2.00294
O 4.97572 -2.41773 -6.83278
H 5.08085 -3.19055 -6.20697
H 5.8165 -1.87642 -6.83814
O -11.1797 -13.3848 -10.8035
H -11.0276 -14.0094 -10.0375
H -11.9873 -13.6765 -11.316
O -3.63437 -9.33376 -13.7235
H -2.92776 -9.53334 -14.4023
H -4.07375 -10.1859 -13.4393
O 9.22916 -5.5133 -14.5684
H 8.29299 -5.71297 -14.2792
H 9.21946 -4.7742 14.5596
O 2.43917 -0.897532 11.0047
H 2.5792 -1.32591 10.112
H 1.46557 -0.912215 11.2324
O -7.60836 -2.42225 -11.1203
H -7.62627 -3.00864 -11.9301
H -8.27242 -2.75689 -10.4517
O 0.425008 -5.13833 -7.99298
H 1.0413 -4.63431 -8.59804
H 0.81372 -5.16951 -7.07217
O 9.23668 6.08806 3.08178
H 10.0483 6.49806 3.49778
H 8.45261 6.20981 3.69036
O -7.17688 -9.06215 -10.511
H -8.15846 -8.95639 -10.352
H -6.86147 -8.34764 -11.1354
O 6.57445 14.1441 -11.9734
H 6.49219 -14.7119 -12.2882
H 5.84341 13.9453 -11.3207
O 3.87946 14.0297 -1.95982
H 3.81163 -14.7792 -1.86045
H 3.09699 13.6929 -2.48354
O -1.71908 -6.60863 13.9979
H -0.832912 -7.06339 13.9093
H -2.2356 -6.71683 13.1485
O -10.2792 -3.86243 -2.56578
H -11.0701 -3.45832 -3.02514
H -10.5438 -4.73243 -2.14985
O -12.4595 -4.82599 -12.8715
H -11.79 -5.19738 -12.2283
H -13.3684 -4.84551 -12.4548
O 11.6388 10.6512 -5.81942
H 10.9253 11.3518 -5.82183
H 12.0065 10.5531 -4.8947
O 2.3308 -5.42103 0.644659
H 3.04074 -4.90883 1.12799
H 2.11736 -6.25541 1.15279
O 2.34118 -2.81954 -4.11295
H 1.71118 -2.10837 -4.42489
H 2.06466 -3.13502 -3.20523
O 0.940437 13.6762 6.47535
H 1.4328 12.87 6.80332
H 1.50527 14.1637 5.8096
O -4.02137 12.1063 12.4625
H -3.35746 12.2276 13.2003
H -4.66712 12.8698 12.4663
O 6.7016 -1.19373 -3.22942
H 7.48914 -1.36999 -3.8199
H 6.05135 -1.94949 -3.30662
O 8.42054 -6.97889 -1.29386
H 8.36491 -6.00273 -1.50354
H 9.36271 -7.21572 -1.05685
O 4.97825 4.67134 -11.5411
H 5.56475 5.45456 -11.7474
H 4.20581 4.97159 -10.9816
O 13.6674 -0.764521 -0.494312
H 13.8685 0.212696 -0.561692
H 12.9898 -0.916501 0.225205
O -8.74882 1.5643 -4.45019
H -8.45889 2.47221 -4.75285
H -8.09925 1.21484 -3.775
O 8.10654 13.5924 -2.43799
H 8.23005 13.2507 -1.50636
H 8.40328 12.8954 -3.09075
O 3.32513 -8.30807 -1.03791
H 4.15717 -8.49817 -1.55899
H 2.52514 -8.48406 -1.61149
O -3.42295 10.2093 -1.71841
H -3.0758 10.1858 -2.6559
H -2.87755 9.59745 -1.14557
O 5.72189 14.1112 7.35095
H 6.01995 13.1568 7.36567
H 6.31603 14.6551 7.94352
O 5.03121 4.75475 13.7734
H 4.77585 3.7886 13.7374
H 6.01808 4.83364 13.9142
O -7.38121 13.134 -2.56854
H -7.79277 12.7558 -1.73935
H -7.26198 12.4058 -3.24343
O 5.89822 -2.30084 14.8368
H 5.74655 -2.14516 -13.9887
H 5.06803 -2.0698 14.3295
O -2.24503 -7.46878 -11.9503
H -2.30293 -6.65281 -12.5255
H -2.55156 -8.26578 -12.4707
O -14.1694 5.50491 12.1703
H -13.1699 5.47731 12.155
H -14.501 6.01166 11.3746
O -7.02978 -5.75365 6.64129
H -7.18503 -4.83334 7.0003
H -7.75814 -6.36179 6.95689
O 8.14862 7.21627 -14.7747
H 9.0438 7.6249 -14.5969
H 8.22522 6.55918 14.277
O -12.9782 5.22144 -14.0682
H -12.9457 6.18878 -14.3195
H -13.929 4.94507 -13.9286
O 10.0392 -1.39637 0.660009
H 9.93757 -0.808118 1.46225
H 9.13747 -1.59493 0.275971
O -7.16356 -8.39506 -14.5003
H -7.46766 -9.23637 -14.0534
H -7.87037 -8.07972 14.6681
O 0.201019 -7.79671 -8.54968
H -0.466239 -8.22209 -7.93831
H 0.267464 -6.82055 -8.34313
O 10.9704 3.72721 -2.94883
H 9.97154 3.75999 -2.91367
H 11.2772 2.78288 -2.83039
O -10.61 -3.22355 2.08101
H -10.1075 -2.74092 1.36373
H -10.7195 -4.18346 1.82306