2593
Atoms. Timestep: 18495000
O 1.88686 -11.7663 0.305564
H 2.75274 -11.5071 -0.122271
H 1.30186 -10.9596 0.389397
O -6.38966 13.1951 -3.80689
H -7.07836 13.0156 -3.10444
H -5.53967 13.4924 -3.37204
O 3.7921 -0.15549 12.9944
H 4.68542 0.0103797 12.5768
H 3.55925 -1.12429 12.9097
O -14.0327 -6.26782 5.85047
H -14.3959 -5.62397 6.52394
H -14.7523 -6.90667 5.57831
O 8.21069 -7.69144 -12.6415
H 7.99494 -8.40198 -11.9717
H 7.36448 -7.25958 -12.9536
O 2.9783 2.46108 -7.37073
H 2.51001 2.13631 -6.54902
H 3.02681 3.45975 -7.354
O -9.06446 -14.733 5.83748
H -8.41653 -14.1461 5.35196
H -9.97796 -14.3285 5.79382
O -3.53431 14.3589 -6.62421
H -3.79108 13.4381 -6.9177
H -2.6328 14.5867 -6.9921
O 1.73307 5.93884 -13.0715
H 1.78802 5.60646 -12.13
H 1.79827 5.16563 -13.7023
O -3.64078 11.6649 8.91544
H -3.86237 10.7574 8.55862
H -3.85867 12.3562 8.22657
O 4.71652 6.65033 -13.4719
H 4.97604 7.61605 -13.4759
H 4.04426 6.48288 -14.193
O -13.0898 1.01725 8.81332
H -14.0794 0.876176 8.84066
H -12.6513 0.222221 8.39432
O -10.8874 -13.5446 -0.829517
H -11.5593 -13.2885 -0.134536
H -11.1436 -13.1382 -1.70656
O 6.78795 -0.0661122 6.80605
H 6.15851 0.707803 6.87559
H 7.31881 -0.140882 7.65019
O 10.2322 0.510238 -3.79062
H 10.3172 -0.460046 -4.01711
H 9.26583 0.744027 -3.68333
O -12.0031 3.19459 13.4451
H -11.9105 2.49869 12.733
H -12.1721 4.08453 13.0216
O -1.79404 -6.96766 -7.99972
H -0.872026 -6.63064 -7.80923
H -2.34273 -6.92754 -7.16466
O -13.7134 2.94283 0.868351
H -14.2642 2.14347 0.628457
H -14.3082 3.66191 1.2276
O 11.4008 -11.4864 11.7634
H 12.1511 -12.0957 11.5068
H 10.5276 -11.942 11.5906
O -10.1503 -5.65114 1.6217
H -10.1569 -5.91631 0.657531
H -11.0685 -5.36411 1.89475
O 3.23274 -10.8965 -2.14618
H 3.83356 -11.5233 -1.65003
H 3.29658 -9.98387 -1.7424
O 7.29867 -3.21318 -8.53636
H 7.65505 -3.94825 -9.11311
H 8.0204 -2.89014 -7.92421
O 8.89331 -6.49755 -3.00503
H 9.80962 -6.73622 -2.6835
H 8.52072 -5.76465 -2.4358
O 12.5327 -14.2834 1.42946
H 12.9985 -13.6209 2.01604
H 12.1311 14.8224 1.99433
O 3.69934 4.36448 4.11544
H 4.00082 4.44487 5.0655
H 3.04781 3.61013 4.03519
O -8.19387 9.47061 -1.43399
H -7.7956 8.5591 -1.5365
H -9.14713 9.45369 -1.73561
O 0.569096 -5.73528 -14.0535
H 1.43364 -6.14911 -14.3386
H 0.547133 -5.66267 -13.0564
O -9.87072 -14.6779 -13.6962
H -10.6372 14.5329 -13.5139
H -10.179 -13.9251 -14.2777
O -7.47466 -4.51557 11.7196
H -8.0015 -5.21376 12.2043
H -7.73411 -3.60981 12.0546
O -10.6055 11.4013 0.245788
H -9.89861 12.1084 0.230259
H -10.4669 10.7746 -0.521093
O -6.13869 14.181 -11.4924
H -6.15429 13.6825 -12.3591
H -6.43349 13.5748 -10.7538
O -3.10157 7.82318 -11.302
H -2.85209 7.57479 -12.238
H -2.66317 7.19251 -10.6617
O -11.0031 4.39537 -12.5397
H -10.9796 3.41882 -12.3258
H -11.2381 4.91146 -11.716
O -8.45928 9.87496 -10.0797
H -9.21595 9.8996 -9.4264
H -7.94086 9.02862 -9.95753
O 7.01787 -0.291462 2.39314
H 6.43704 0.367218 1.91486
H 7.18238 -1.08137 1.8024
O -0.691067 -3.18952 -11.9835
H -1.5703 -3.52238 -12.3243
H -0.260949 -3.89763 -11.4235
O -9.96602 -0.957645 -1.70187
H -10.6263 -0.277476 -1.38339
H -9.60568 -1.46456 -0.918811
O -4.66153 -3.25283 -10.4524
H -5.55679 -3.69506 -10.3984
H -4.30056 -3.1171 -9.52981
O 1.03302 9.49429 6.56573
H 1.663 8.76217 6.30671
H 0.489878 9.20351 7.3534
O 9.90437 -11.9285 -6.10601
H 10.8284 -11.5718 -5.96855
H 9.94806 -12.7665 -6.64991
O -7.01632 -2.33334 -7.82811
H -6.13919 -2.39179 -7.35145
H -7.21454 -3.20828 -8.26989
O 0.971427 1.88181 -10.1785
H 0.478495 1.02401 -10.324
H 1.179 1.98612 -9.20585
O 2.91247 -9.66204 4.82002
H 2.51109 -10.1015 5.62362
H 2.3937 -9.92014 4.00501
O 14.5091 -14.9054 -11.6809
H -14.4164 14.7315 -11.2912
H 13.8037 14.5029 -11.1087
O 9.11673 8.89313 -9.5679
H 9.04273 9.85723 -9.31292
H 8.47881 8.35322 -9.01879
O -6.39748 6.43452 14.7528
H -6.76017 6.03923 13.9089
H -5.8597 5.7459 -14.5874
O 2.41868 8.39445 -6.90402
H 2.55218 8.83586 -7.79133
H 1.48075 8.05382 -6.83896
O -3.61697 6.55597 -4.90796
H -3.56647 7.25314 -5.62307
H -4.52892 6.14571 -4.90623
O 11.4808 8.79668 -7.56229
H 10.945 8.13659 -7.03586
H 10.8834 9.27084 -8.209
O 6.82606 13.8442 -4.59591
H 7.77102 13.5177 -4.61654
H 6.80885 14.8268 -4.78053
O -0.348219 -1.23835 -1.16873
H -0.0358405 -2.15458 -0.917889
H -0.612145 -1.22861 -2.13321
O 4.17727 1.33935 6.5677
H 4.61595 2.19768 6.83377
H 3.84277 0.86887 7.38424
O 8.33316 13.2744 4.96088
H 8.53601 13.9222 4.22662
H 7.71812 12.5642 4.61831
O 8.17153 -11.2503 -9.87916
H 8.752 -11.7403 -10.5295
H 7.78487 -11.8986 -9.22328
O 5.90289 8.48434 8.78599
H 6.48647 9.19967 8.40167
H 4.95078 8.66113 8.53654
O -3.50503 5.8594 13.2507
H -3.34297 6.82817 13.4384
H -2.77304 5.31386 13.6588
O -1.24954 1.78186 -7.66061
H -2.19938 2.09452 -7.65723
H -0.638781 2.57184 -7.7143
O 14.4542 4.79188 1.47829
H 13.6502 4.82429 0.884665
H 14.1706 4.90687 2.43028
O -9.48064 -5.74862 -11.5218
H -8.49114 -5.67605 -11.6467
H -9.85642 -6.38202 -12.1982
O 13.6658 -1.77019 10.332
H 14.0104 -1.08151 9.69409
H 14.2883 -2.55262 10.3462
O 3.98729 4.23231 -14.3963
H 4.68883 4.93616 -14.2848
H 4.42502 3.34031 -14.5089
O -14.2069 -12.6118 -5.89844
H -14.0302 -13.398 -6.49058
H -14.5534 -12.9302 -5.01612
O -0.290485 -7.70963 8.52498
H -0.696557 -7.83708 9.42988
H -0.956081 -7.27349 7.91938
O 13.7761 -7.89711 5.39526
H 13.0469 -7.3611 4.96992
H 13.8698 -8.77064 4.91759
O -11.2479 -5.75605 -9.27032
H -12.0073 -5.10602 -9.24474
H -10.5979 -5.48154 -9.97895
O -14.3518 -8.44833 -13.5101
H -13.7071 -7.9413 -14.0821
H 14.5432 -8.28997 -13.8371
O -10.6259 8.9156 -13.0812
H -9.67873 8.99039 -12.7692
H -10.7801 8.00428 -13.4629
O -3.36736 4.50455 8.49656
H -3.50245 4.0108 9.35559
H -3.0233 5.4232 8.69068
O -8.98233 -13.3759 -5.82079
H -8.18913 -13.5737 -5.24486
H -8.69795 -12.8158 -6.59884
O 2.0175 13.1051 -10.7269
H 2.72284 13.1651 -11.4332
H 1.32302 12.4415 -11.0048
O -1.39896 -8.17672 0.101947
H -1.32915 -7.76286 1.00959
H -2.26579 -8.66951 0.0260959
O -12.5141 14.2916 -3.61956
H -13.3584 14.2068 -3.09049
H -12.1235 -14.6251 -3.4804
O -4.76567 1.34503 9.27661
H -4.15968 1.99135 9.74032
H -4.41864 0.415352 9.4001
O -4.92759 4.68523 -13.5242
H -5.1771 4.70703 -12.5561
H -3.94447 4.84186 -13.6187
O -9.00013 0.584606 -6.23741
H -9.08806 -0.134521 -5.54813
H -8.57001 1.38875 -5.82714
O 14.7241 10.2542 13.6748
H 14.5924 10.0714 14.649
H 14.4055 11.1782 13.463
O -1.80016 -5.93217 14.3899
H -0.873327 -5.77552 14.7311
H -2.3337 -6.41526 -14.7426
O -10.7005 6.57439 -14.2966
H -10.9714 5.84609 -13.6672
H -10.3797 6.1718 14.6727
O 2.30879 4.22497 -10.8848
H 2.40702 3.43465 -10.28
H 2.72175 5.0275 -10.4542
O 9.47693 -9.81624 -2.08693
H 8.54716 -9.51362 -1.87735
H 9.77981 -9.39503 -2.94181
O -12.0263 -10.3846 -4.37812
H -12.1275 -9.52562 -4.88001
H -11.3639 -10.2627 -3.63893
O 11.8741 -11.405 2.33897
H 11.3688 -12.0642 2.89584
H 11.4163 -11.2936 1.45691
O 2.84122 -11.7041 9.87932
H 3.65336 -12.1709 9.52926
H 2.36297 -12.3035 10.5212
O 6.19541 14.5839 1.96943
H 5.38081 -14.7239 2.22866
H 5.93288 13.8305 1.36653
O -4.52492 -1.5541 -5.22518
H -4.47272 -2.14992 -4.42378
H -5.25613 -0.884386 -5.09554
O 3.68254 -6.99404 4.37541
H 3.54385 -7.97971 4.47135
H 3.77744 -6.7635 3.407
O -11.6917 3.71618 -1.13445
H -12.2672 3.99972 -0.367375
H -10.8828 4.30236 -1.17874
O 11.0266 5.28423 10.0764
H 11.8603 5.01507 9.5941
H 11.2636 5.62895 10.9847
O -9.28049 7.36374 -3.95568
H -8.91176 8.25806 -4.20907
H -8.85063 7.05412 -3.10754
O 13.9443 -3.87354 0.279929
H 13.6438 -3.37505 -0.53321
H 14.6307 -4.55265 0.0198556
O 3.7686 11.3308 8.13898
H 2.99972 10.7351 8.3712
H 3.45712 12.2806 8.10877
O -5.58901 8.55045 2.68214
H -5.1054 7.97528 2.02237
H -6.51541 8.73038 2.35141
O -1.15075 11.5326 -5.48836
H -0.282339 11.0574 -5.34676
H -1.10637 12.0628 -6.33504
O -14.5769 -9.12999 -0.240549
H -14.3954 -9.87762 0.398289
H 14.4159 -8.65147 0.0345431
O 2.48061 4.787 13.4758
H 3.00405 4.43166 14.2502
H 1.98992 4.03671 13.0327
O -13.0257 8.57948 9.19477
H -12.0469 8.45642 9.35867
H -13.4118 9.16548 9.90715
O 4.35869 -14.3825 9.64218
H 4.62363 -14.4135 10.6059
H 5.14212 -14.6319 9.07296
O -10.7093 12.6145 -9.90144
H -9.87512 12.166 -9.58057
H -11.2057 11.9975 -10.5121
O -6.6003 13.1282 11.7365
H -5.91084 12.4353 11.9475
H -7.37644 13.0265 12.3588
O -5.01736 -13.6242 5.81669
H -5.89396 -13.1856 6.01459
H -4.59925 -13.1888 5.01946
O -13.1556 -12.4647 0.6032
H -12.7564 -12.6639 1.49818
H -14.1474 -12.3749 0.693129
O 6.27685 -7.63814 -3.03206
H 6.31238 -8.42056 -2.41035
H 7.20542 -7.38739 -3.30568
O 6.95775 10.7394 -3.05331
H 6.10735 10.7544 -2.52741
H 6.74524 10.6953 -4.02946
O -11.9089 1.59043 11.2513
H -11.1285 0.96548 11.2327
H -12.5214 1.38162 10.4889
O 12.0151 -4.81732 14.5863
H 11.9227 -3.83296 14.7361
H 11.5667 -5.31144 -14.4956
O -0.66901 -11.5145 7.16434
H -1.1088 -12.3733 7.42725
H -1.16695 -11.1055 6.39967
O 10.3049 -2.34599 -3.78905
H 11.0294 -2.97903 -4.06187
H 9.46935 -2.85964 -3.59426
O -9.7863 3.9399 6.47552
H -10.0006 4.59845 5.75417
H -10.6146 3.43895 6.72634
O -9.16049 -6.23441 13.0432
H -10.0727 -5.82621 13.0774
H -9.20928 -7.18546 13.3484
O 12.5363 9.19233 -1.05483
H 13.3972 8.71922 -1.24182
H 12.1507 9.53388 -1.91193
O 6.06003 -11.0326 -4.24579
H 5.54992 -11.8688 -4.04415
H 6.80121 -10.9263 -3.58296
O 1.53171 -12.9762 11.6322
H 0.821594 -12.3292 11.3545
H 1.10473 -13.7992 12.0066
O -11.1894 -13.1313 -3.89359
H -11.6822 -12.2937 -4.12938
H -10.4797 -13.3039 -4.57653
O 14.4734 3.20227 7.17831
H -14.3806 3.00229 7.06005
H 14.3101 3.52292 8.11131
O 9.78527 14.2108 -3.32252
H 9.28896 -14.7806 -3.08589
H 10.6566 14.4507 -3.75052
O 6.06974 10.98 -9.07618
H 6.33729 11.9143 -8.84082
H 6.04025 10.4227 -8.2464
O 9.69241 10.657 8.55051
H 9.78719 9.74068 8.93948
H 8.72726 10.8427 8.36612
O -13.594 1.19972 4.90513
H -14.5291 1.24859 5.25597
H -13.4354 1.95748 4.27217
O -11.9747 10.8394 -11.715
H -11.4386 10.1204 -12.1573
H -12.8188 10.4481 -11.3486
O 5.83547 -13.6461 6.1069
H 5.99319 -14.1831 6.93558
H 5.15402 -14.1051 5.5369
O -14.0205 -10.6835 13.8445
H -13.4359 -11.1452 13.1774
H -13.4689 -10.0543 14.3921
O 0.988626 14.4998 6.09063
H 0.523519 13.6186 6.00671
H 0.486788 -14.6344 5.57228
O 7.09344 5.31028 -6.98931
H 7.5956 5.08344 -6.15483
H 7.46747 4.7881 -7.75574
O -14.877 10.3141 -9.65181
H 14.0101 10.6541 -9.61119
H -14.3586 10.6734 -8.87583
O -7.82811 9.69713 -4.54779
H -8.40597 10.5059 -4.43835
H -6.97136 9.8297 -4.04941
O 8.74631 12.2674 -12.8591
H 8.72361 12.4815 -13.8357
H 7.8252 12.3491 -12.4785
O -7.31906 -1.932 12.4391
H -6.37523 -1.879 12.113
H -7.37058 -1.57193 13.3706
O 12.6545 -7.2856 -7.46215
H 12.9432 -8.02443 -8.07107
H 13.3054 -7.202 -6.70764
O 12.5418 3.9078 -11.0299
H 12.5 2.99958 -11.4463
H 13.4877 4.11784 -10.7826
O 5.59771 7.1449 -5.17037
H 4.91369 6.48278 -4.86428
H 6.34638 6.66394 -5.6266
O -1.58509 10.3307 1.0787
H -2.35009 9.87084 0.627802
H -1.05255 10.8356 0.399436
O -8.26247 2.50124 -1.61736
H -7.92481 3.14567 -0.931306
H -9.01386 1.96637 -1.23096
O -0.310324 5.38715 -4.39549
H -0.893172 5.917 -5.01154
H -0.387615 5.7519 -3.46761
O -5.06072 13.4886 7.17969
H -5.86018 13.2701 7.73925
H -5.21339 14.355 6.70424
O -7.38219 -0.124941 3.19201
H -6.45642 0.24904 3.24727
H -7.92316 0.417888 2.54961
O -5.23346 -5.535 0.281218
H -5.2613 -4.5629 0.514064
H -5.91701 -6.02666 0.820668
O 12.7473 1.56092 -4.62848
H 11.8171 1.29502 -4.37531
H 12.8262 1.58951 -5.62494
O -6.37109 -11.9281 -2.76409
H -5.83657 -11.1869 -2.35804
H -7.17356 -12.1103 -2.19592
O -11.616 0.823718 -0.185452
H -12.0927 -0.0325759 0.0133293
H -12.2856 1.5401 -0.381743
O -11.6755 -6.0079 -3.63628
H -11.927 -6.37405 -2.74038
H -11.4431 -5.03937 -3.54725
O -7.31745 -11.9217 -7.7753
H -6.60054 -12.5293 -8.11715
H -7.02237 -11.5101 -6.91305
O 5.7689 -6.40124 -0.655229
H 6.05464 -6.87588 -1.48772
H 6.56231 -6.25968 -0.0632444
O -8.55815 -10.5252 -12.1272
H -8.6805 -11.1121 -11.3268
H -9.33284 -10.643 -12.7485
O -13.6069 -1.28457 -7.91681
H -13.552 -0.614801 -8.65734
H -14.5556 -1.36727 -7.61178
O 4.58939 -5.61903 1.82224
H 5.12142 -5.95471 1.04492
H 5.1996 -5.45255 2.59678
O -13.725 8.33908 -11.1216
H -13.3155 7.47462 -10.8301
H -14.2178 8.74985 -10.3545
O 9.89405 4.31179 -14.6668
H 10.5142 4.10927 14.402
H 9.53835 5.24106 -14.7664
O -12.3791 -4.86479 0.0358705
H -13.2984 -5.2091 -0.154534
H -11.9805 -4.49653 -0.804064
O 7.68699 -11.7435 -14.3288
H 8.36356 -11.6363 -13.6003
H 6.84123 -12.1153 -13.9462
O 10.9417 2.31389 -1.30451
H 10.6724 2.0299 -0.384302
H 10.616 1.64179 -1.96947
O 1.5736 11.2962 -4.96052
H 1.707 12.1192 -4.40845
H 2.20015 10.5813 -4.64999
O 6.47913 -9.76039 -11.5275
H 7.01737 -10.3709 -10.9464
H 5.84556 -10.3004 -12.0815
O -1.02746 -6.79803 2.48636
H -0.193169 -7.04127 2.9811
H -0.934602 -5.8766 2.10909
O -11.8876 -8.47971 -0.355792
H -12.8682 -8.465 -0.551161
H -11.4259 -9.07648 -1.01206
O -9.64635 -10.1913 3.36601
H -10.3907 -9.52362 3.37231
H -9.63165 -10.6823 4.23703
O 14.6041 -8.88017 7.86706
H 14.2025 -8.40283 7.08552
H -14.8054 -8.21446 8.48578
O 14.2202 13.6458 0.469823
H 13.9023 12.7517 0.785193
H 13.5148 14.332 0.647263
O 2.81885 0.0577138 2.5155
H 2.73809 0.481303 1.61327
H 2.47186 0.686617 3.21124
O 7.07133 -6.74413 4.08084
H 7.81589 -6.74879 4.74837
H 6.41127 -6.03293 4.32272
O 0.48697 -10.2209 -6.3447
H 0.362101 -9.63233 -7.14344
H -0.300377 -10.8306 -6.2536
O -8.33581 -13.625 12.8769
H -7.51478 -13.5022 13.4345
H -8.16814 -13.2753 11.9552
O 11.8608 8.02986 7.98141
H 11.4117 8.05619 8.8745
H 11.1684 8.03397 7.25992
O 10.5162 8.72328 -4.01299
H 9.93859 8.26503 -4.68852
H 11.4305 8.86011 -4.39417
O -10.4611 12.0376 10.7847
H -9.71705 12.6 11.1453
H -10.1117 11.1289 10.5564
O -0.95143 5.02374 10.5506
H -0.990375 5.76447 11.2213
H -1.58035 4.29513 10.8218
O -2.20648 -8.96058 -2.76945
H -2.68596 -8.14607 -2.44287
H -1.2256 -8.77246 -2.81909
O -13.3787 5.02922 -3.46607
H -12.6847 4.50402 -2.97357
H -14.0017 4.40216 -3.93357
O -1.60772 12.9302 2.38856
H -1.68071 11.956 2.17504
H -0.650611 13.2137 2.32896
O 12.4502 13.9499 -10.2692
H 12.4873 13.1513 -9.6685
H 11.5966 14.4464 -10.1113
O -4.87988 11.0783 -10.9428
H -5.06511 11.1382 -11.9237
H -5.6628 11.4353 -10.4334
O -10.3074 1.52254 -11.7281
H -9.34045 1.74789 -11.6086
H -10.4497 1.13826 -12.6403
O 13.5686 -12.2644 14.1028
H 12.8934 -11.5571 13.8933
H 14.463 -11.84 14.2438
O 0.24919 -5.52059 -10.9538
H 1.19031 -5.84973 -11.0309
H -0.358986 -6.29137 -10.7641
O 5.07949 -10.7675 6.28924
H 5.06251 -11.7495 6.1011
H 4.31405 -10.3253 5.82177
O -1.57442 12.711 -13.1472
H -0.863065 12.4284 -13.7907
H -2.00373 11.9008 -12.7481
O -9.68814 13.7996 -6.6264
H -9.41045 14.6422 -6.16495
H -8.93613 13.4682 -7.1962
O 10.953 14.6107 -13.4467
H 11.6315 -14.4846 -13.516
H 11.1972 13.9996 -12.6938
O -6.5848 -14.0646 -4.5137
H -6.26919 -13.3581 -3.88031
H -6.44865 14.8607 -4.10241
O -4.14719 -9.79734 -13.0346
H -4.18564 -10.5079 -12.3321
H -4.32131 -10.2051 -13.9309
O 0.0915622 11.1714 -10.1754
H -0.315193 11.6566 -9.40138
H -0.628037 10.7124 -10.6964
O -5.73706 7.6921 -10.8508
H -5.89477 6.7103 -10.745
H -4.75349 7.87193 -10.8662
O 11.6026 -6.31596 -1.24655
H 11.7579 -6.79323 -0.381631
H 11.1834 -5.42631 -1.06573
O 9.71149 7.5669 -11.7928
H 9.50829 7.83273 -10.8504
H 10.031 6.6195 -11.8103
O 6.53442 10.3989 5.03537
H 6.81534 10.7091 4.12714
H 7.03526 9.56669 5.27308
O 5.48021 -5.85724 11.9459
H 4.99871 -6.25397 11.1644
H 6.06768 -5.11144 11.6318
O -14.3733 -3.88251 10.7185
H -14.4399 -4.50122 9.93574
H -14.7571 -4.32671 11.5281
O 4.15726 11.0033 -1.53103
H 3.86293 11.2515 -0.608126
H 3.35491 10.8156 -2.09759
O -13.2007 -10.5031 3.30043
H -12.6034 -9.72171 3.12007
H -14.1505 -10.2442 3.1249
O 8.07705 3.25701 10.9181
H 8.34929 4.17542 10.6311
H 8.4239 3.07905 11.839
O 14.189 0.0863184 -2.52195
H 13.7694 0.648172 -3.2349
H -14.6843 -0.0982652 -2.7609
O -1.16978 13.9504 8.41132
H -1.57156 14.7855 8.03559
H -0.69687 13.4519 7.68479
O 3.78668 -10.9566 -7.82876
H 2.95739 -10.5433 -7.45263
H 3.54992 -11.8011 -8.30908
O 7.74608 5.14261 -10.42
H 8.38141 5.35558 -11.1622
H 8.19859 4.54992 -9.75368
O -2.35895 -11.5461 -0.698348
H -2.56145 -12.5253 -0.68959
H -1.52634 -11.3826 -1.22751
O 8.08104 -3.76075 -2.78464
H 7.5856 -3.51454 -1.95163
H 7.428 -4.01477 -3.49808
O 4.1337 -4.66504 9.08936
H 3.31713 -4.47355 8.54483
H 4.09636 -5.60569 9.42665
O 3.10735 7.35103 8.61042
H 3.01853 7.15435 7.634
H 3.35225 6.51318 9.09827
O -0.910752 -14.4831 -7.02694
H -0.915715 -13.9742 -7.88771
H -0.785968 -13.8478 -6.26482
O -3.07157 -7.17706 -5.10151
H -3.65413 -6.3866 -5.29068
H -2.16774 -6.86305 -4.81088
O -0.14207 -2.53184 -7.05735
H -0.660207 -1.96617 -7.69886
H -0.7372 -3.24405 -6.68512
O -5.80719 -13.812 8.91084
H -6.48485 -13.427 9.53741
H -6.11876 -14.707 8.59178
O -14.7951 -2.7299 6.84555
H -13.871 -2.48117 7.13569
H 14.7646 -3.58858 7.28304
O -11.4801 2.89894 -8.80837
H -11.2894 3.8177 -8.46267
H -10.6221 2.39414 -8.90405
O 6.73475 -7.82572 8.22736
H 5.95281 -7.3921 8.67515
H 6.66325 -7.70131 7.23771
O 0.0192972 -6.7489 -4.86249
H 0.330629 -6.15086 -5.601
H 0.671877 -7.49694 -4.74182
O 2.62526 13.6991 8.28923
H 3.20679 14.4217 8.66284
H 1.85302 14.1099 7.80458
O 10.259 -14.4641 -9.47029
H 9.63247 -14.8121 -8.77293
H 9.73309 -14.0777 -10.228
O -7.05066 -0.450108 -0.374656
H -7.39192 -1.36863 -0.175055
H -7.82126 0.156832 -0.56901
O -3.01298 11.5337 4.30482
H -2.74588 12.3538 3.79878
H -4.00466 11.417 4.25082
O -7.00306 13.9871 -7.6971
H -6.38979 14.7599 -7.86031
H -6.57671 13.3539 -7.05113
O 10.0262 14.4135 9.87955
H 10.9562 14.4621 9.51526
H 9.41467 14.0378 9.1832
O -14.6642 12.013 6.53589
H -13.8121 12.1721 6.0373
H -14.5917 11.1625 7.05679
O 10.7547 0.419972 7.02981
H 11.3722 1.18941 6.86664
H 10.1372 0.642362 7.78426
O -14.6139 2.9257 -4.99937
H 14.523 2.28223 -4.66739
H -14.0671 2.48901 -5.71371
O 6.42785 -2.7541 -0.953608
H 6.68053 -2.9886 -0.014917
H 6.69315 -1.80893 -1.14398
O -5.81204 11.8939 -6.44026
H -5.80559 10.8966 -6.51345
H -5.91859 12.157 -5.48142
O -10.2453 5.74909 12.647
H -9.77941 5.27786 11.8981
H -10.2636 6.73172 12.4624
O -5.98883 11.6593 -13.4805
H -6.41905 12.4805 -13.8552
H -6.13662 10.8915 -14.104
O 12.499 7.95916 11.0449
H 12.5162 8.95483 10.9537
H 13.2813 7.56659 10.5614
O -13.2701 -0.447771 -3.45447
H -12.9963 -0.910646 -4.29754
H -12.8868 -0.932726 -2.6684
O 7.33545 7.38851 13.1951
H 8.12579 7.48429 13.8002
H 6.64177 8.06468 13.4433
O -2.62611 -13.5755 7.58604
H -2.99792 -12.8598 8.1772
H -3.32787 -13.87 6.93734
O -10.5846 -2.19649 13.5478
H -10.8738 -2.50113 12.6403
H -9.91928 -2.84349 13.9203
O 10.8266 5.12986 -6.37387
H 10.9502 4.66799 -7.25214
H 11.6255 4.96533 -5.79538
O 12.2551 14.6939 7.83162
H 12.0062 -14.1647 7.86107
H 12.2926 14.3881 6.88025
O -12.4433 6.4662 7.48616
H -12.3849 5.89966 8.3081
H -12.8535 7.34828 7.7178
O 2.81539 13.913 -0.731192
H 2.9082 13.1537 -0.0871874
H 2.03797 14.4828 -0.464862
O 5.59617 9.28808 -13.8014
H 5.11771 9.93857 -14.3913
H 6.5834 9.39428 -13.92
O 12.4302 11.1904 1.03077
H 13.3379 11.063 1.43047
H 12.3183 10.5713 0.253489
O -9.86609 -14.7371 -10.802
H -9.72393 -14.7058 -11.7913
H -10.0762 14.1519 -10.525
O 11.0018 -5.08254 -6.35612
H 11.3666 -6.00614 -6.47379
H 10.0121 -5.09439 -6.49892
O 0.335894 3.00237 13.8144
H 0.846178 2.56679 13.0729
H 0.771176 2.78869 14.689
O 13.8138 4.28175 9.45385
H 14.1032 5.23672 9.51931
H 14.3399 3.72904 10.1002
O -12.0715 5.7554 -10.3964
H -12.1531 5.78017 -9.40001
H -12.7904 5.17257 -10.7752
O -2.97029 -2.99409 1.13448
H -3.11915 -2.89436 0.150677
H -3.85099 -2.9802 1.60794
O 5.4669 -6.87986 -6.92665
H 4.98495 -7.39224 -6.2159
H 5.65047 -7.48094 -7.70445
O -6.11994 10.5646 0.307498
H -5.14132 10.3819 0.213169
H -6.63688 9.89584 -0.22685
O -9.60349 0.302142 11.724
H -9.40599 -0.584437 12.1423
H -8.80651 0.899067 11.816
O 7.9619 -2.46219 13.8411
H 8.47872 -1.60647 13.8662
H 8.46362 -3.13891 13.3023
O 14.474 7.19023 -3.31773
H -14.8787 6.32301 -3.16543
H 14.593 7.7799 -2.51891
O -3.15345 3.09155 10.9021
H -2.50057 2.3952 11.2001
H -3.7705 3.31465 11.6567
O 11.4279 11.8125 -12.6227
H 10.4431 11.9829 -12.5917
H 11.593 10.8374 -12.7705
O 13.4912 1.9008 13.7772
H 13.4483 0.919453 13.5898
H 13.7006 2.0467 14.744
O 13.4786 -6.42119 -11.1561
H 13.4221 -7.29455 -11.6398
H 13.7902 -6.57877 -10.219
O -4.44333 -3.17421 -3.10489
H -4.62617 -2.88897 -2.16405
H -3.66621 -3.80343 -3.11736
O -1.97318 14.8789 -11.6424
H -1.68122 13.9491 -11.8666
H -1.6046 -14.3104 -12.319
O -1.99515 -13.0537 -4.55543
H -2.82583 -13.5874 -4.39721
H -2.24227 -12.1105 -4.77753
O -3.34988 -14.525 -14.4888
H -3.11657 14.4521 -14.0157
H -2.62929 -14.3 14.6821
O -5.43477 -1.72557 6.01458
H -5.35137 -0.996716 5.33503
H -6.10952 -1.46268 6.7042
O 7.89099 -5.74945 -9.74813
H 8.52552 -5.46522 -10.4669
H 8.40563 -6.13665 -8.98315
O -14.5662 2.46118 -8.62394
H -14.4786 2.96351 -9.48415
H -13.6576 2.20688 -8.29246
O -9.24099 -2.23587 -5.89135
H -9.43923 -3.18242 -5.63695
H -8.41096 -2.20727 -6.44832
O 13.6904 -14.4095 4.37922
H 13.4869 -13.7042 5.05832
H 12.9645 14.7294 4.38521
O 3.26604 -4.23569 -11.4572
H 3.47276 -3.9937 -12.4052
H 4.05107 -4.70645 -11.0546
O -11.901 13.0727 -13.8562
H -11.7832 12.8236 -14.8175
H -11.9835 12.2428 -13.3045
O -14.8327 -1.59522 1.07061
H 14.4697 -0.778439 0.829925
H 14.424 -2.40685 0.942907
O -4.60746 -5.08967 -6.22393
H -4.94457 -5.80993 -6.8302
H -5.15574 -4.26313 -6.35125
O -3.55278 5.4583 -7.6732
H -4.53427 5.30521 -7.55821
H -3.17008 5.82034 -6.82323
O -6.10254 -10.213 4.31695
H -6.52772 -9.78562 3.5191
H -6.22239 -9.62235 5.11493
O -2.56095 -10.559 -5.16354
H -2.56686 -9.96744 -4.35728
H -2.21828 -10.0461 -5.95066
O -7.60896 -9.81365 -14.6522
H -7.66162 -10.0793 -13.6895
H -6.99859 -10.4395 14.6889
O -0.321102 -4.24353 1.4305
H 0.211854 -3.53579 1.89423
H -1.24867 -3.90812 1.26589
O -14.7561 13.9431 -2.36897
H 14.7303 13.1703 -2.90473
H -14.8559 13.7427 -1.39437
O -1.15207 10.637 9.6291
H -1.90997 11.2392 9.37819
H -0.312123 11.1738 9.7086
O 14.0876 8.04448 -8.0761
H 13.2284 8.37241 -7.68341
H 14.4219 8.70682 -8.74657
O -1.37809 -0.784236 -8.50205
H -0.645502 -0.736593 -9.18104
H -1.63092 0.140944 -8.21904
O 4.78078 11.1913 14.1196
H 5.36215 11.88 13.6865
H 4.46484 10.5401 13.4296
O -4.22755 14.7111 -9.95225
H -5.00087 14.6802 -10.5855
H -3.40257 -14.8419 -10.4467
O -8.47449 -9.83022 -9.24982
H -8.38116 -9.88485 -10.2439
H -7.85936 -10.4915 -8.82045
O 3.73382 7.37959 -1.31633
H 2.88234 7.87006 -1.13084
H 3.67504 6.45534 -0.939129
O -2.75777 -9.65044 8.48333
H -2.63939 -9.40101 9.44445
H -1.90032 -10.0219 8.12734
O 1.22585 3.79218 9.93382
H 0.378315 4.21896 10.2493
H 1.33428 2.90097 10.3743
O 8.80007 12.2699 -1.85859
H 9.1167 12.9846 -2.48224
H 8.12506 11.6969 -2.32342
O 5.72857 -0.912517 -8.21812
H 6.30494 -1.72465 -8.30876
H 5.12061 -1.02135 -7.43166
O 10.5521 -9.06103 10.6826
H 10.311 -10.0281 10.7638
H 9.72073 -8.50632 10.7168
O 9.40568 5.28429 7.79618
H 10.0315 5.28172 8.57613
H 9.85551 4.86705 7.00653
O -12.3631 -13.107 3.33848
H -12.3393 -13.5109 4.25297
H -12.5826 -12.134 3.40947
O 9.59485 8.1431 10.1004
H 8.79416 7.55393 10.2088
H 10.4146 7.6475 10.3872
O -2.14076 3.73401 -1.39274
H -1.6486 3.33012 -2.16386
H -2.46697 3.00738 -0.788113
O -14.3398 4.79211 -13.7624
H -13.9584 3.90769 -14.0313
H 14.8315 4.66024 -13.0187
O 9.76811 -10.238 4.41241
H 10.2602 -11.0999 4.28982
H 8.78452 -10.4023 4.33806
O -1.90458 0.8181 5.53735
H -2.53611 1.23605 6.19039
H -2.30022 -0.0312247 5.18793
O -2.36738 4.05653 -11.8609
H -1.40644 3.82044 -12.0052
H -2.44035 4.71153 -11.1088
O 4.51955 -9.34072 -5.56073
H 4.67638 -10.0482 -4.87165
H 4.68769 -9.71895 -6.47103
O 11.3529 3.50398 -8.53148
H 11.9082 2.8941 -7.96604
H 11.7967 3.6322 -9.4184
O -7.73107 8.89214 4.81947
H -8.15877 9.46439 4.11976
H -6.76548 8.7586 4.59639
O 5.94401 10.7392 11.2938
H 6.94303 10.7705 11.2629
H 5.63956 9.78692 11.2715
O -14.8493 -0.143382 -13.9202
H -14.4362 -0.860036 -14.4821
H 14.5306 -0.557578 -13.1272
O 11.9739 -2.10094 -14.5077
H 11.8345 -2.17408 -13.5202
H 11.2414 -1.55026 -14.9079
O -7.19608 13.6567 9.13187
H -8.17925 13.8348 9.17252
H -6.82251 13.6358 10.0592
O -13.1011 3.00217 -11.1349
H -12.4135 2.70385 -10.473
H -13.0852 2.39446 -11.9289
O 5.6719 1.43783 0.777383
H 4.72217 1.15853 0.636
H 5.6944 2.29029 1.29968
O 6.30102 13.0736 -11.5949
H 6.06513 12.7477 -10.6794
H 5.46991 13.3615 -12.0707
O 6.34993 -9.38896 10.9974
H 7.14391 -8.79064 11.1051
H 6.49587 -9.99965 10.2191
O 3.22475 0.649378 -12.4026
H 2.68715 1.29332 -11.8582
H 3.3817 -0.184495 -11.8734
O 11.7248 -1.19702 -8.24347
H 11.028 -1.45504 -7.5742
H 12.6332 -1.36414 -7.86021
O 13.2352 -7.54032 0.826041
H 12.3878 -7.96778 1.14089
H 13.8863 -7.49333 1.58359
O -6.06071 -11.1315 0.453612
H -5.6108 -11.9168 0.878861
H -5.46106 -10.7421 -0.245516
O -2.50773 -4.0829 9.95925
H -3.27766 -4.67179 10.205
H -2.00712 -3.82641 10.786
O -0.401458 6.57388 -1.75776
H -0.0492751 5.93715 -1.07182
H -1.36068 6.77769 -1.56198
O -3.02724 -12.3422 -12.3695
H -3.69886 -13.0707 -12.5044
H -2.33562 -12.3889 -13.0903
O 7.65828 -2.87503 5.61803
H 8.11648 -3.38192 6.34817
H 6.95232 -2.28701 6.01279
O -4.56555 7.02515 0.773734
H -3.88798 7.54142 0.249948
H -4.3884 6.04603 0.674156
O 0.274572 -4.07548 -2.32121
H 0.386026 -3.69113 -3.23764
H 0.646885 -5.00336 -2.30138
O -9.13062 -8.2224 -4.86302
H -9.41297 -8.04112 -5.80504
H -8.46328 -7.53481 -4.57691
O 4.47388 1.61198 10.1664
H 5.12048 2.06301 9.55117
H 3.66451 1.33038 9.651
O -5.07206 -13.1449 -8.17532
H -4.76571 -13.7615 -8.9006
H -4.66893 -13.4278 -7.30501
O -3.19869 -14.8852 3.37382
H -2.82322 14.0747 3.04557
H -3.87726 14.7623 4.08615
O -1.01915 -11.2185 -14.534
H -0.853007 -10.3866 -14.0046
H -1.9024 -11.1478 14.8291
O -7.03218 -6.38244 1.96009
H -7.88923 -5.94189 2.22721
H -7.21262 -7.32987 1.69592
O 3.39615 -6.21736 -14.1245
H 4.17878 -6.02253 -13.5333
H 3.69514 -6.77128 -14.9015
O 3.63219 4.48778 -1.29315
H 2.78559 4.70981 -0.809459
H 3.49522 3.66457 -1.84409
O 7.30844 -4.09595 10.945
H 8.25908 -3.78867 10.988
H 6.82347 -3.58124 10.2379
O -4.1077 -12.0477 3.82051
H -4.31258 -12.4812 2.94295
H -4.79873 -11.3525 4.01825
O 3.08652 -14.5363 -5.47803
H 2.882 -14.6978 -6.44347
H 2.61325 -13.7108 -5.17062
O 3.71559 7.04829 2.72361
H 3.54635 6.28597 3.34827
H 4.68294 7.06348 2.47065
O -12.9942 -1.59192 -0.876441
H -12.3211 -2.1651 -0.40917
H -13.7518 -1.39318 -0.254672
O -12.013 -6.99524 10.8474
H -11.0348 -6.82179 10.7338
H -12.3143 -6.63801 11.7315
O 0.916598 -5.86454 -7.86517
H 0.728179 -5.35661 -8.7057
H 1.75852 -5.52053 -7.44947
O -14.693 -14.5972 7.68391
H 14.4838 14.47 7.71462
H -13.7925 14.9098 7.97881
O 5.61888 13.4737 11.8705
H 6.33872 13.4985 12.5642
H 5.57545 12.5594 11.4678
O 11.3375 -6.32626 4.22756
H 10.5519 -6.41773 4.8395
H 11.3535 -5.40402 3.8413
O -12.0727 -8.2089 -10.5556
H -11.5722 -8.94763 -10.1042
H -12.2918 -7.49788 -9.88746
O -2.22326 1.239 2.47958
H -2.30426 2.23118 2.5745
H -1.77306 0.862368 3.28917
O 6.21274 3.14254 -11.9442
H 6.85363 3.83377 -11.6104
H 5.43715 3.07628 -11.3165
O -5.15129 6.4187 10.9036
H -4.41561 6.15702 11.5284
H -5.45782 7.34577 11.1194
O 6.12445 0.269039 -12.2468
H 7.03459 0.535557 -12.5639
H 5.51616 1.06224 -12.2749
O -2.11888 0.491117 -0.224318
H -1.85512 0.534232 0.739295
H -1.49617 -0.119684 -0.71333
O 12.9086 -6.52184 -3.759
H 12.4842 -6.25691 -2.89313
H 13.159 -7.48937 -3.72517
O 5.13734 5.59267 -10.6468
H 6.12751 5.49568 -10.5461
H 4.91077 5.71277 -11.6134
O 7.55521 6.20983 10.6258
H 7.66667 6.55673 11.557
H 6.59058 6.00534 10.4595
O 13.4932 12.5878 14.8094
H 14.2322 13.2469 -14.8776
H 13.013 12.4374 -14.1531
O -6.97518 -5.04575 7.56609
H -5.98516 -5.11238 7.44201
H -7.41671 -5.84518 7.15872
O -10.0578 7.93152 1.26933
H -10.9886 7.96545 1.63324
H -9.59985 8.80327 1.44346
O -10.7114 11.4637 4.685
H -10.6026 10.9385 5.52901
H -11.5872 11.946 4.70312
O -7.80293 -12.731 4.0726
H -8.5559 -12.5182 3.44992
H -7.59284 -11.9268 4.62862
O 11.8756 9.16094 -13.488
H 11.2822 8.5421 -12.9733
H 11.9281 8.85781 -14.4395
O -8.40375 12.2366 13.67
H -9.39769 12.2811 13.7704
H -7.97497 12.8695 14.3147
O -4.6213 1.569 -0.18646
H -3.68718 1.24029 -0.325538
H -5.19004 0.821533 0.156764
O 14.4501 9.21782 4.00661
H 14.7666 8.35746 3.60713
H 14.5994 9.9623 3.35592
O 8.19474 0.688877 4.6391
H 7.73805 0.372961 3.80747
H 7.78283 0.244793 5.43478
O -9.31905 -5.04127 -5.30902
H -8.92751 -4.79425 -4.42264
H -10.2067 -5.48054 -5.17055
O 7.89929 -9.85758 13.6114
H 7.9528 -10.6455 14.2248
H 7.19934 -10.0229 12.9166
O -2.00493 6.02503 -9.56349
H -2.64743 5.72961 -8.85646
H -1.10021 6.15587 -9.15808
O -9.8575 14.5395 8.54427
H -9.65284 14.6264 7.56932
H -10.6563 13.9504 8.66593
O -7.54328 -4.84881 -1.14448
H -8.20336 -5.59269 -1.24898
H -6.65644 -5.22531 -0.87662
O 11.1611 -7.36174 -10.1609
H 11.7225 -6.62548 -10.5386
H 10.8901 -7.12862 -9.22697
O -6.27853 13.379 2.08503
H -7.26691 13.3018 1.95418
H -5.99851 12.8059 2.85517
O 14.2345 -9.14632 -4.47867
H 13.6024 -9.56457 -5.13093
H 14.5949 -9.84965 -3.86595
O -8.60017 2.72049 -4.59641
H -8.50089 2.69702 -3.60163
H -9.43057 3.22315 -4.83672
O 4.33453 4.75044 6.93684
H 3.81774 4.71369 7.79215
H 5.26493 5.06625 7.12288
O 6.95306 4.6306 13.8268
H 7.81732 4.18462 14.0595
H 7.11171 5.60617 13.6749
O -4.93839 3.64535 12.9925
H -4.58347 4.56929 13.1352
H -5.92852 3.64333 13.1326
O 10.5788 5.1055 5.16916
H 10.4105 6.077 5.33613
H 10.8955 4.97882 4.22915
O -7.06058 -10.4882 -5.44028
H -6.76585 -10.9418 -4.59922
H -7.384 -9.56651 -5.22617
O 9.00195 14.6648 7.21621
H 9.07154 -14.2194 6.88924
H 8.87512 14.0504 6.43753
O -1.2481 -1.93723 3.03772
H -1.65635 -2.13105 3.92976
H -1.92021 -2.11266 2.31836
O 6.46926 -9.79961 -1.52797
H 6.92885 -9.72331 -0.643131
H 5.62915 -10.3316 -1.42242
O 12.1111 -10.0434 8.45564
H 12.9797 -9.54801 8.44044
H 11.4748 -9.58176 9.07367
O 10.1094 -8.79173 6.90617
H 11.0452 -9.01961 7.17512
H 9.84145 -9.35342 6.12344
O -14.6813 -11.8202 -9.28139
H -13.8503 -12.2446 -9.64118
H -14.451 -11.2564 -8.48824
O 2.39342 9.41758 3.0398
H 2.83389 8.59624 2.67738
H 2.78637 9.64046 3.93193
O 8.88695 9.54024 -1.07467
H 9.12306 8.8141 -1.72038
H 8.91342 10.4237 -1.54234
O -13.7343 -3.58484 -3.45172
H -13.2865 -3.36311 -4.31789
H -14.6384 -3.15834 -3.42517
O 13.6362 -2.55262 -2.33226