LAMMPS data file via write_data, version 15 May 2015, timestep = 1009000

2593 atoms
6 atom types
1728 bonds
4 bond types
864 angles
3 angle types
0 dihedrals
3 dihedral types
0 impropers
1 improper types

-1.4921137184298900e+01 1.4921137184298900e+01 xlo xhi
-1.4921137184298900e+01 1.4921137184298900e+01 ylo yhi
-1.4921137184298900e+01 1.4921137184298900e+01 zlo zhi

Masses

1 15.9994
2 1.00794
3 12.0107
4 1.00794
5 12.0107
6 12.0107

Bond Coeffs # harmonic

1 1000 1
2 469 1.4
3 367 1.08
4 469 0.7

Angle Coeffs # harmonic

1 100 109.47
2 35 120
3 63 120

Dihedral Coeffs # opls

1 0 7.25 0 0
2 0 7.25 0 0
3 0 7.25 0 0

Improper Coeffs # cvff

1 2.5 -1 2

Atoms # full

461 154 2 4.0999999999999998e-01 -1.0832055299298158e+01 -7.7866953328867723e+00 -9.5004421123966836e+00 0 -4 0
1832 611 2 4.0999999999999998e-01 -9.4338214922768966e+00 -5.9618850307757469e+00 -1.1842648781067899e+01 -2 0 -1
460 154 1 -8.1999999999999995e-01 -1.1044730358706110e+01 -7.4430248244026060e+00 -1.0415167475109218e+01 0 -4 0
2314 772 1 -8.1999999999999995e-01 -1.0489046783812753e+01 -1.3409227853278027e+01 -1.3562260966186738e+01 0 3 0
2315 772 2 4.0999999999999998e-01 -1.0986046397431803e+01 -1.4267532125173050e+01 -1.3434324712784866e+01 0 3 0
160 54 1 -8.1999999999999995e-01 -7.5340298012129461e+00 -8.3243082193959843e+00 -8.9471158923052094e+00 0 1 -1
161 54 2 4.0999999999999998e-01 -7.1521039349013860e+00 -9.2248882626075144e+00 -9.1548438546318671e+00 0 1 -1
143 48 2 4.0999999999999998e-01 -1.1550333334901541e+01 -1.2376741115632072e+01 -1.2388355819078869e+01 0 2 0
142 48 1 -8.1999999999999995e-01 -1.2253978693972934e+01 -1.2316913651700313e+01 -1.1680283449465696e+01 0 2 0
144 48 2 4.0999999999999998e-01 -1.2356738332058198e+01 -1.3207131827878618e+01 -1.1236420123796918e+01 0 2 0
2253 751 2 4.0999999999999998e-01 -8.4772438105346986e+00 -1.3513015901436521e+01 -1.0708444978332855e+01 1 1 1
462 154 2 4.0999999999999998e-01 -1.0243838451434506e+01 -7.5471522417456436e+00 -1.1004906661134642e+01 0 -4 0
1831 611 1 -8.1999999999999995e-01 -9.8045882800329238e+00 -5.3138166378983342e+00 -1.2507932037669548e+01 -2 0 -1
1039 347 1 -8.1999999999999995e-01 -1.2910111268294106e+01 -9.6698233654441630e+00 -1.0620078905556717e+01 0 1 -1
1040 347 2 4.0999999999999998e-01 -1.2223845664361559e+01 -8.9429038536019370e+00 -1.0593810492602209e+01 0 1 -1
1626 542 2 4.0999999999999998e-01 -3.7267516501850810e+00 -6.5865382863352604e+00 -7.4691939291034632e+00 0 -1 0
846 282 2 4.0999999999999998e-01 -1.3776206141343973e+01 -1.1583660166859296e+01 -1.2236847801218138e+01 -1 1 0
217 73 1 -8.1999999999999995e-01 -1.2410561151553134e+01 -1.4853194151724201e+01 -1.0598057774664392e+01 0 0 -3
2316 772 2 4.0999999999999998e-01 -9.7453914112051763e+00 -1.3548937692079411e+01 -1.4216111484038827e+01 0 3 0
1041 347 2 4.0999999999999998e-01 -1.2491092312601566e+01 -1.0511669365232876e+01 -1.0960344889322291e+01 0 1 -1
2242 748 1 -8.1999999999999995e-01 -6.9569023020517715e+00 -1.1087039405840507e+01 -9.2895707508579353e+00 0 0 0
1624 542 1 -8.1999999999999995e-01 -3.5046028268881440e+00 -5.7450932950178561e+00 -7.9618224197494873e+00 0 -1 0
777 259 2 4.0999999999999998e-01 -9.5049438932599273e+00 -1.1420685340695902e+01 -8.8484664965028834e+00 1 2 -1
190 64 1 -8.1999999999999995e-01 -8.4554246936905155e+00 -8.0590504140551786e+00 -1.1705013556458523e+01 0 1 -1
192 64 2 4.0999999999999998e-01 -8.0905163457362761e+00 -8.0446996617681030e+00 -1.0774047085376164e+01 0 1 -1
1625 542 2 4.0999999999999998e-01 -2.5112697577766045e+00 -5.6455816463609541e+00 -8.0205540199284151e+00 0 -1 0
2251 751 1 -8.1999999999999995e-01 -8.9624310359668549e+00 -1.2668292654703105e+01 -1.0482394881125348e+01 1 1 1
729 243 2 4.0999999999999998e-01 -1.4030352002120678e+01 -1.2353327675800251e+01 -8.4048967186631707e+00 1 0 -1
191 64 2 4.0999999999999998e-01 -7.8994080273284002e+00 -8.6672057139587402e+00 -1.2271630913396351e+01 0 1 -1
2040 680 2 4.0999999999999998e-01 -8.3717683784956929e+00 -1.3432349781829231e+01 -8.5062116549100679e+00 1 1 -1
1660 554 1 -8.1999999999999995e-01 -3.0796169848771573e+00 -1.2373298252445412e+01 -1.4547838290093161e+01 -1 1 -2
438 146 2 4.0999999999999998e-01 -3.0368171622793838e-01 -1.0134908569547253e+01 -7.9303680765376869e+00 1 2 -1
1370 457 2 4.0999999999999998e-01 -1.3061833748142773e+01 -5.5026414705472533e+00 -1.2724962074256773e+01 2 -3 -2
2252 751 2 4.0999999999999998e-01 -9.8919568633826298e+00 -1.2709495521902927e+01 -1.0848927911591957e+01 1 1 1
2244 748 2 4.0999999999999998e-01 -7.7423699243943478e+00 -1.1141954841907816e+01 -9.9060831647240413e+00 0 0 0
1618 540 1 -8.1999999999999995e-01 -1.4138951727511653e+01 -1.0293215418098352e+01 -8.2122041089194902e+00 0 0 -2
1094 365 2 4.0999999999999998e-01 -1.2630503844243210e+01 -6.3318241630703973e+00 -1.0181516846409647e+01 1 0 1
1620 540 2 4.0999999999999998e-01 -1.3920736248689654e+01 -1.0264899945895118e+01 -9.1877259218166945e+00 0 0 -2
1504 502 1 -8.1999999999999995e-01 -8.6054542678569845e-01 -1.0346132367969435e+01 -1.4254667654279219e+01 1 1 1
1050 350 2 4.0999999999999998e-01 -3.6843973224166451e+00 -1.1462271630831998e+01 -1.1842015759963019e+01 0 1 0
1095 365 2 4.0999999999999998e-01 -1.2494910953390468e+01 -5.6131463255826919e+00 -8.7214107701793786e+00 1 0 1
893 298 2 4.0999999999999998e-01 -1.4490553187839602e+01 -1.1771314024733638e+01 -1.4246263128140646e+01 -1 -1 -2
2061 687 2 4.0999999999999998e-01 -3.4980367569748978e+00 -8.7922827035552231e+00 -1.4768217883865983e+01 -2 2 -2
745 249 1 -8.1999999999999995e-01 -5.6275604148776637e-03 -1.3687162856302187e+01 -1.0156151553232634e+01 1 2 -2
1505 502 2 4.0999999999999998e-01 -1.4864626444935389e+00 -9.6363458599887579e+00 -1.4577922039358791e+01 1 1 1
1780 594 1 -8.1999999999999995e-01 -1.0311037477246671e+01 -8.1693532063349572e+00 -7.5895531578971953e+00 0 2 0
1352 451 2 4.0999999999999998e-01 -7.5564455464488312e-01 -5.8636475090129352e+00 -8.8344448249921221e+00 1 1 0
1168 390 1 -8.1999999999999995e-01 -3.7148622703256304e+00 -1.4029940524281159e+01 -7.9014210877361197e+00 -2 0 -1
926 309 2 4.0999999999999998e-01 -3.8777590455861510e+00 -7.9650365989289433e+00 -1.0453868267085385e+01 0 -2 -1
162 54 2 4.0999999999999998e-01 -7.6725328611512218e+00 -8.2405388716106387e+00 -7.9602712970465346e+00 0 1 -1
1697 566 2 4.0999999999999998e-01 -5.4324739224888656e+00 -5.1352901072002233e+00 -7.6584601173654976e+00 -1 0 -1
746 249 2 4.0999999999999998e-01 -9.3387734261167132e-01 -1.3386891722627107e+01 -9.9364876711473471e+00 1 2 -2
78 26 2 4.0999999999999998e-01 -1.3390707606449830e+00 -6.0316733056591332e+00 -1.2270139483643886e+01 0 1 -1
1274 425 2 4.0999999999999998e-01 -7.1933118910524767e+00 -9.8921829449387175e+00 -1.4843170399341449e+01 0 1 0
1093 365 1 -8.1999999999999995e-01 -1.3115953827999837e+01 -6.0944362458680725e+00 -9.3400610982451777e+00 1 0 1
1421 474 2 4.0999999999999998e-01 -7.8230610969088117e+00 -6.5081216021501671e+00 -9.3703975090040910e+00 0 0 -1
1506 502 2 4.0999999999999998e-01 -1.3799890519470583e+00 -1.1059685498015465e+01 -1.3784473090986101e+01 1 1 1
1420 474 1 -8.1999999999999995e-01 -7.8227231794494463e+00 -5.5462412614411871e+00 -9.6439824892231165e+00 0 0 -1
775 259 1 -8.1999999999999995e-01 -1.0099101352373967e+01 -1.0741444885311694e+01 -8.4175697950279691e+00 1 2 -1
596 199 2 4.0999999999999998e-01 -4.5847056414556118e+00 -7.0297976656390349e+00 -1.3654636785315578e+01 1 0 0
77 26 2 4.0999999999999998e-01 -2.5806592584466763e+00 -5.4589778460926048e+00 -1.1377238988104455e+01 0 1 -1
1781 594 2 4.0999999999999998e-01 -1.0058021538268125e+01 -9.0148275505690858e+00 -8.0598920448788505e+00 0 2 0
2243 748 2 4.0999999999999998e-01 -6.2990903731899319e+00 -1.1803116041662408e+01 -9.5231950064153175e+00 0 0 0
273 91 2 4.0999999999999998e-01 -5.0071812117184891e+00 -1.3725454745687291e+01 -9.3016672952216410e+00 -2 0 0
76 26 1 -8.1999999999999995e-01 -2.2181255666360311e+00 -6.2609406342027665e+00 -1.1852094412678907e+01 0 1 -1
2359 787 1 -8.1999999999999995e-01 -6.3848225927460298e+00 -9.6715501078025206e+00 -1.3074055361018754e+01 0 -1 0
1947 649 2 4.0999999999999998e-01 -1.2940828756829017e+00 -8.5329375866891404e+00 -8.4001316023690862e+00 1 0 -2
576 192 2 4.0999999999999998e-01 -2.2044164690649364e+00 -1.1535990392060711e+01 -9.1151278044788242e+00 -1 0 -1
271 91 1 -8.1999999999999995e-01 -5.6205402473044170e+00 -1.3316585064795623e+01 -9.9774475467847985e+00 -2 0 0
189 63 2 4.0999999999999998e-01 -1.4764726687231864e+01 -6.9997688027750700e+00 -1.1690728420005648e+01 -2 -1 0
272 91 2 4.0999999999999998e-01 -6.1033181990570835e+00 -1.4040412169118172e+01 -1.0470461158216960e+01 -2 0 0
1353 451 2 4.0999999999999998e-01 -5.2929245726705609e-01 -6.8584713683242597e+00 -1.0109546288948069e+01 1 1 0
575 192 2 4.0999999999999998e-01 -3.0578030047036631e+00 -1.2916842254771513e+01 -8.9368779697580862e+00 -1 0 -1
1351 451 1 -8.1999999999999995e-01 -5.4287550590843914e-01 -6.8007479228686236e+00 -9.1112747185606935e+00 1 1 0
1945 649 1 -8.1999999999999995e-01 -1.7658593701321816e+00 -9.3985320939811619e+00 -8.5681665831069616e+00 1 0 -2
574 192 1 -8.1999999999999995e-01 -2.3549076878837933e+00 -1.2455502227779849e+01 -9.4783261405476544e+00 -1 0 -1
1048 350 1 -8.1999999999999995e-01 -4.6018007153274763e+00 -1.1216735130073673e+01 -1.1528734045198194e+01 0 1 0
1946 649 2 4.0999999999999998e-01 -2.5718156065026161e+00 -9.2339546319464976e+00 -9.1368592170876290e+00 1 0 -2
595 199 1 -8.1999999999999995e-01 -4.0531167168637872e+00 -7.7796774706598839e+00 -1.3260738295214150e+01 1 0 0
1919 640 2 4.0999999999999998e-01 -2.3851939836301277e+00 -1.3151891555474871e+01 -1.1011960556428416e+01 1 0 1
2361 787 2 4.0999999999999998e-01 -6.0289147392817952e+00 -1.0435862555094824e+01 -1.2536264936805756e+01 0 -1 0
1049 350 2 4.0999999999999998e-01 -4.9638223180139320e+00 -1.1948555356280723e+01 -1.0951289558689901e+01 0 1 0
727 243 1 -8.1999999999999995e-01 -1.3553734210639158e+01 -1.3201974480663811e+01 -8.1753390139985065e+00 1 0 -1
597 199 2 4.0999999999999998e-01 -3.3778111715912367e+00 -7.4101606424599167e+00 -1.2622394897060891e+01 1 0 0
1918 640 1 -8.1999999999999995e-01 -2.4697895791217945e+00 -1.3556240427272975e+01 -1.1922679083139595e+01 1 0 1
1920 640 2 4.0999999999999998e-01 -2.8194854101317190e+00 -1.4489638764410408e+01 -1.1841790037186213e+01 1 0 1
927 309 2 4.0999999999999998e-01 -4.4681637942010450e+00 -9.4875950475592461e+00 -1.0448255621528329e+01 0 -2 -1
1873 625 1 -8.1999999999999995e-01 -5.8573702570614472e+00 -5.2448853791204222e+00 -1.1614228920041258e+01 -1 1 -1
925 309 1 -8.1999999999999995e-01 -4.0460851264875348e+00 -8.7734457739091525e+00 -9.8897728862630601e+00 0 -2 -1
2360 787 2 4.0999999999999998e-01 -5.6286893220039875e+00 -9.2093686960948915e+00 -1.3537427205165805e+01 0 -1 0
1662 554 2 4.0999999999999998e-01 -2.9918215739777185e+00 -1.3047520678188658e+01 -1.3814504342645360e+01 -1 1 -2
1875 625 2 4.0999999999999998e-01 -6.5443775669850073e+00 -5.6466149000615875e+00 -1.1008673800314249e+01 -1 1 -1
728 243 2 4.0999999999999998e-01 -1.2650770138031037e+01 -1.2986969656676745e+01 -7.8031947305482134e+00 1 0 -1
1833 611 2 4.0999999999999998e-01 -1.0783189019308509e+01 -5.4817174559012987e+00 -1.2627148520837295e+01 -2 0 -1
1422 474 2 4.0999999999999998e-01 -8.7102294618258824e+00 -5.1383623727689383e+00 -9.4294362484376890e+00 0 0 -1
776 259 2 4.0999999999999998e-01 -1.0881776966463727e+01 -1.1201408667514203e+01 -7.9981477514116834e+00 1 2 -1
2038 680 1 -8.1999999999999995e-01 -8.6502364121117878e+00 -1.3885593509132056e+01 -7.6594010989591723e+00 1 1 -1
971 324 2 4.0999999999999998e-01 -1.4525853497000512e+01 -1.4062414484015811e+01 -1.2777981459761408e+01 0 1 0
187 63 1 -8.1999999999999995e-01 -1.4568183106800584e+01 -6.3615082922988666e+00 -1.2435078280304747e+01 -2 -1 0
188 63 2 4.0999999999999998e-01 -1.4646969328600564e+01 -6.8369118557782347e+00 -1.3311346954615976e+01 -2 -1 0
844 282 1 -8.1999999999999995e-01 -1.4595644522497304e+01 -1.1247914059520047e+01 -1.2701452896281792e+01 -1 1 0
669 223 2 4.0999999999999998e-01 -8.6088937510684360e-02 -6.2733586629605220e+00 -1.3618170101838505e+01 -1 0 -3
1369 457 1 -8.1999999999999995e-01 -1.2418030046809040e+01 -5.0138122348941909e+00 -1.3313711109755882e+01 2 -3 -2
665 222 2 4.0999999999999998e-01 -8.4491050286241176e+00 -5.0028686036964132e+00 -1.3518837032421963e+01 1 1 -1
1874 625 2 4.0999999999999998e-01 -4.9984578783773657e+00 -5.1311945660139244e+00 -1.1114822775021640e+01 -1 1 -1
1134 378 2 4.0999999999999998e-01 -3.9262024346363162e+00 -4.9754344299492939e+00 -9.5124084406437355e+00 -1 1 0
1698 566 2 4.0999999999999998e-01 -6.8844281325662742e+00 -5.0412967403442703e+00 -8.3999368515572925e+00 -1 0 -1
1619 540 2 4.0999999999999998e-01 -1.3805143944704971e+01 -9.4598227039276228e+00 -7.7716460215781096e+00 0 0 -2
216 72 2 4.0999999999999998e-01 -7.6635303281721878e+00 -1.4810766941011023e+01 -1.2351211898797773e+01 -1 0 -2
1389 463 2 4.0999999999999998e-01 -1.0663550344570623e+01 -8.7650165975332222e+00 -4.2858624785960284e+00 0 0 -1
1388 463 2 4.0999999999999998e-01 -1.1774832704758316e+01 -8.7936431077577453e+00 -3.0896076888344464e+00 0 0 -1
532 178 1 -8.1999999999999995e-01 -9.2209055568810214e+00 -1.3683203940508932e+01 -5.0257645452643818e+00 -1 -1 -1
1387 463 1 -8.1999999999999995e-01 -1.0831414633346212e+01 -8.5571427603362160e+00 -3.3221858748185404e+00 0 0 -1
2114 705 2 4.0999999999999998e-01 -1.1374131600058440e+01 -1.2256869450866727e+01 -5.9981728979665530e+00 1 -1 1
2113 705 1 -8.1999999999999995e-01 -1.1327902370955428e+01 -1.2589596553485205e+01 -6.9400955253179202e+00 1 -1 1
2115 705 2 4.0999999999999998e-01 -1.0607804012339775e+01 -1.3279464374397870e+01 -7.0149496653937327e+00 1 -1 1
901 301 1 -8.1999999999999995e-01 -1.3598440407631511e+01 -6.2362401742538776e+00 -9.4445190947583946e-01 1 2 -1
2116 706 1 -8.1999999999999995e-01 -1.2903837307336106e+01 -1.4154335149566037e+01 -3.2898690360536165e+00 0 1 0
534 178 2 4.0999999999999998e-01 -9.0773181094076634e+00 -1.3824450989915075e+01 -6.0053024299951225e+00 -1 -1 -1
373 125 1 -8.1999999999999995e-01 -9.0471155622059349e+00 -6.0611827209660660e+00 -6.3654035546223433e+00 0 1 -1
2118 706 2 4.0999999999999998e-01 -1.2061749025022317e+01 -1.3630276058553244e+01 -3.1621507477553390e+00 0 1 0
1640 547 2 4.0999999999999998e-01 -1.2717759560092693e+01 -1.1175802967301076e+01 -4.1058498015717628e+00 1 1 -1
1641 547 2 4.0999999999999998e-01 -1.1087157510077599e+01 -1.1244095628095545e+01 -4.0486950458416686e+00 1 1 -1
61 21 1 -8.1999999999999995e-01 -9.4242493359801554e+00 -1.1767133776076705e+01 -2.6372725400330967e+00 0 0 0
375 125 2 4.0999999999999998e-01 -9.4915756555015385e+00 -6.7977716710910236e+00 -6.8752608909275654e+00 0 1 -1
1639 547 1 -8.1999999999999995e-01 -1.1892133604530708e+01 -1.1415041024126388e+01 -4.6168973126945989e+00 1 1 -1
824 275 2 4.0999999999999998e-01 -1.3001513400772980e+01 -9.4769459910113891e+00 -1.2158580903504035e+00 0 1 -2
823 275 1 -8.1999999999999995e-01 -1.3225763698455728e+01 -9.4685567317269843e+00 -2.1903855530846439e+00 0 1 -2
889 297 1 -8.1999999999999995e-01 -1.3613098111341337e+01 -5.2358185746616908e+00 -5.8868867486857095e+00 -2 -3 1
1166 389 2 4.0999999999999998e-01 -8.9250368294406535e+00 -7.8052083097465523e+00 -2.0020190415559931e+00 0 0 -1
374 125 2 4.0999999999999998e-01 -9.4102480912164488e+00 -5.1799685976413770e+00 -6.6681560683480647e+00 0 1 -1
1165 389 1 -8.1999999999999995e-01 -8.2165576021649613e+00 -7.5360519377151425e+00 -1.3495815475717059e+00 0 0 -1
766 256 1 -8.1999999999999995e-01 -1.2947824694063536e+01 -8.2199907563654548e+00 -6.5954626741862903e+00 -2 1 -2
1579 527 1 -8.1999999999999995e-01 -9.4922929941381433e+00 -5.7838037689458055e+00 -3.5044521622630853e+00 0 0 -1
197 66 2 4.0999999999999998e-01 -1.0525217798252474e+01 -1.4917258009443550e+01 -4.9136121679460842e-01 -1 0 0
1167 389 2 4.0999999999999998e-01 -7.6167690086388760e+00 -6.8556215835911001e+00 -1.7706881800892340e+00 0 0 -1
2117 706 2 4.0999999999999998e-01 -1.2880438186216125e+01 -1.4611285014220485e+01 -4.1790888011966363e+00 0 1 0
1410 470 2 4.0999999999999998e-01 -1.4516937149917384e+01 -1.3433420561573016e+01 -2.7953961612405962e+00 0 1 1
1154 385 2 4.0999999999999998e-01 -1.4661039152395684e+01 -1.0614601123732346e+01 -5.4463591485773239e+00 0 0 -1
991 331 1 -8.1999999999999995e-01 -4.1254021149409450e+00 -8.1585283204026400e+00 -6.5600029037528635e+00 0 0 -1
825 275 2 4.0999999999999998e-01 -1.4180899702141534e+01 -9.7373669891480965e+00 -2.3149586156373925e+00 0 1 -2
1782 594 2 4.0999999999999998e-01 -1.1172440195840487e+01 -8.3051819802631268e+00 -7.1000650796155078e+00 0 2 0
2039 680 2 4.0999999999999998e-01 -7.8399255968320576e+00 -1.4099415558872169e+01 -7.1137464633680656e+00 1 1 -1
891 297 2 4.0999999999999998e-01 -1.4060600184479663e+01 -5.5999258624673622e+00 -5.0700450907768833e+00 -2 -3 1
767 256 2 4.0999999999999998e-01 -1.3322375873069927e+01 -8.2246573704836283e+00 -5.6682344013348800e+00 -2 1 -2
2579 860 2 4.0999999999999998e-01 -1.4024770563805019e+01 -6.0773164466794007e+00 -2.7651827652941563e+00 -1 0 0
992 331 2 4.0999999999999998e-01 -4.0230261379699446e+00 -9.0144798262182846e+00 -7.0668844038066823e+00 0 0 -1
62 21 2 4.0999999999999998e-01 -8.4371251704238901e+00 -1.1607124571351610e+01 -2.6305194455586047e+00 0 0 0
517 173 1 -8.1999999999999995e-01 -6.2667236295881228e+00 -1.4409246228048717e+01 -6.0919319945803192e+00 1 1 -2
2577 859 2 4.0999999999999998e-01 -8.8817918298655485e+00 -1.3492747718795519e+01 -2.2741436902760448e-01 -1 3 1
1539 513 2 4.0999999999999998e-01 -4.9285823145099990e+00 -1.3901514121896355e+01 -3.3722549696375648e+00 0 0 0
155 52 2 4.0999999999999998e-01 -7.6996516273125950e+00 -9.4714466908742274e+00 -3.1179654897078972e+00 -1 2 0
22 8 1 -8.1999999999999995e-01 -7.0908975963159664e+00 -1.3514876179386512e+01 -8.1955513107613953e-02 -2 0 -1
903 301 2 4.0999999999999998e-01 -1.2620504632756381e+01 -6.0357713146476826e+00 -8.8515138126574833e-01 1 2 -1
768 256 2 4.0999999999999998e-01 -1.3370787962380353e+01 -7.4825515842987045e+00 -7.1221012677277873e+00 -2 1 -2
533 178 2 4.0999999999999998e-01 -8.4071279278186974e+00 -1.3260169820845787e+01 -4.6271786321309563e+00 -1 -1 -1
1581 527 2 4.0999999999999998e-01 -9.3470903422569407e+00 -5.6674865647582671e+00 -4.4870248920085061e+00 0 0 -1
2575 859 1 -8.1999999999999995e-01 -9.8723277037024957e+00 -1.3423652602465287e+01 -3.4627224103179621e-01 -1 3 1
63 21 2 4.0999999999999998e-01 -9.6774605235805140e+00 -1.2321705187925669e+01 -1.8445573870462688e+00 0 0 0
1678 560 1 -8.1999999999999995e-01 -6.4984626368581164e+00 -9.0863478035413188e+00 -1.1674534550882854e-01 0 1 1
2486 829 2 4.0999999999999998e-01 -6.6099452117508015e+00 -1.2092251484262462e+01 -1.3052219466968502e+00 0 0 -1
1993 665 1 -8.1999999999999995e-01 -1.1046962794106783e+01 -5.9459881503126013e+00 -4.2883393704122597e-01 -2 -1 -1
568 190 1 -8.1999999999999995e-01 -4.5641740459071585e+00 -6.7245842664041717e+00 -2.9573469580770428e-01 -1 -2 -1
1580 527 2 4.0999999999999998e-01 -1.0112203443068234e+01 -6.5527293083946052e+00 -3.3478406155391625e+00 0 0 -1
993 331 2 4.0999999999999998e-01 -5.0679453145156419e+00 -7.8341815887567021e+00 -6.6404649710893882e+00 0 0 -1
1995 665 2 4.0999999999999998e-01 -1.0688443578483097e+01 -6.5840593357551178e+00 -1.1102968081208555e+00 -2 -1 -1
1170 390 2 4.0999999999999998e-01 -4.1113640712965349e+00 -1.3302524942190663e+01 -7.3413179082223978e+00 -2 0 -1
2578 860 1 -8.1999999999999995e-01 -1.4719445698094544e+01 -6.0484244013268729e+00 -3.4839694962611478e+00 -1 0 0
1527 509 2 4.0999999999999998e-01 -4.7851514139636890e+00 -1.2096329839750753e+01 -5.7332228908319944e+00 0 2 0
2485 829 1 -8.1999999999999995e-01 -6.8186954501354151e+00 -1.1286135122025582e+01 -1.8589929547519937e+00 0 0 -1
48 16 2 4.0999999999999998e-01 -1.3120063923927194e+00 -9.8652754574524586e+00 -4.2433986552961578e-01 0 0 0
1153 385 1 -8.1999999999999995e-01 -1.4503956423825127e+01 -1.0212075551657612e+01 -4.5444939586871538e+00 0 0 -1
1069 357 1 -8.1999999999999995e-01 -4.4185351705631302e+00 -7.9318860204631321e+00 -3.1937488168039501e+00 0 -1 -1
519 173 2 4.0999999999999998e-01 -6.1424337027978684e+00 -1.3534135988306563e+01 -5.6241748550272117e+00 1 1 -2
877 293 1 -8.1999999999999995e-01 -1.6753493386732359e+00 -1.2868586825614020e+01 -2.4179773667372864e+00 0 0 -1
367 123 1 -8.1999999999999995e-01 -8.0109130508270461e+00 -1.1217601381846368e+01 -6.4888039713550949e+00 -1 -1 -2
1070 357 2 4.0999999999999998e-01 -4.2348424218323064e+00 -7.6793405672858102e+00 -4.1437700792047458e+00 0 -1 -1
1741 581 1 -8.1999999999999995e-01 -3.8121303062433540e+00 -1.0747886881247350e+01 -2.1713856597288963e+00 -1 -1 -3
878 293 2 4.0999999999999998e-01 -2.6115469909847544e+00 -1.3220067075941708e+01 -2.4103449917403044e+00 0 0 -1
3 1 2 4.0999999999999998e-01 -1.1875305724715748e+00 -1.0779358395839321e+01 -4.7736923699196208e+00 -1 1 -1
879 293 2 4.0999999999999998e-01 -1.6783744241407028e+00 -1.1906251233616132e+01 -2.1460146829164692e+00 0 0 -1
2487 829 2 4.0999999999999998e-01 -6.8871521067408583e+00 -1.0483383704510608e+01 -1.2665688373692383e+00 0 0 -1
493 165 1 -8.1999999999999995e-01 -6.8955432734031952e+00 -7.6294740499854248e+00 -6.2442075946485467e+00 -2 -1 0
2 1 2 4.0999999999999998e-01 -9.3377827916807554e-01 -1.2381471497361991e+01 -4.5849147843874842e+00 -1 1 -1
368 123 2 4.0999999999999998e-01 -7.3769545594357604e+00 -1.0795881945187242e+01 -7.1371187064085166e+00 -1 -1 -2
1526 509 2 4.0999999999999998e-01 -3.2825327198656513e+00 -1.1527383052307398e+01 -6.0251647955679495e+00 0 2 0
176 59 2 4.0999999999999998e-01 -6.4328418885937744e+00 -1.1775454783863516e+01 -3.6274210169650889e+00 0 -1 -2
369 123 2 4.0999999999999998e-01 -8.9123318340983033e+00 -1.1304946507167887e+01 -6.9129237792033376e+00 -1 -1 -2
177 59 2 4.0999999999999998e-01 -6.9928025788754491e+00 -1.1672429787187880e+01 -5.1579840957788896e+00 0 -1 -2
1 1 1 -8.1999999999999995e-01 -5.8673758706963319e-01 -1.1543975511210435e+01 -5.0070828767895588e+00 -1 1 -1
378 126 2 4.0999999999999998e-01 -2.5948404101041636e+00 -8.6414495654678269e+00 -5.3115724753523637e+00 0 0 -1
1912 638 1 -8.1999999999999995e-01 -6.3894731060864274e+00 -5.8146330846977872e+00 -2.3590338871064134e+00 0 1 -1
494 165 2 4.0999999999999998e-01 -7.0802605449344460e+00 -8.1301266188563375e+00 -5.3984598729212134e+00 -2 -1 0
154 52 1 -8.1999999999999995e-01 -7.1840283226757800e+00 -9.1347710340326422e+00 -3.9059024297206690e+00 -1 2 0
495 165 2 4.0999999999999998e-01 -7.4998768678587213e+00 -6.8346463942044000e+00 -6.2998181486227107e+00 -2 -1 0
46 16 1 -8.1999999999999995e-01 -1.2379621106702725e+00 -1.0198148985427560e+01 -1.3644330925925257e+00 0 0 0
47 16 2 4.0999999999999998e-01 -3.5338610426510186e-01 -9.9282698583780977e+00 -1.7448974302037108e+00 0 0 0
156 52 2 4.0999999999999998e-01 -6.3020806611573281e+00 -8.7769985101334527e+00 -3.5989337235109513e+00 -1 2 0
1538 513 2 4.0999999999999998e-01 -4.4457331554513839e+00 -1.2651648912694830e+01 -2.4387201565566219e+00 0 0 0
1742 581 2 4.0999999999999998e-01 -2.8359149988702086e+00 -1.0542904018724361e+01 -2.1003340009849065e+00 -1 -1 -3
377 126 2 4.0999999999999998e-01 -2.3919846376940388e+00 -9.0102611825016954e+00 -3.7337191437110739e+00 0 0 -1
1071 357 2 4.0999999999999998e-01 -4.3632336735149373e+00 -7.1176884991072908e+00 -2.6157465395107042e+00 0 -1 -1
175 59 1 -8.1999999999999995e-01 -6.2478583543953352e+00 -1.2009137618350891e+01 -4.5820078653971699e+00 0 -1 -2
1743 581 2 4.0999999999999998e-01 -4.3156377511299624e+00 -9.9071130712114623e+00 -2.3704894160752819e+00 -1 -1 -3
1525 509 1 -8.1999999999999995e-01 -4.1603402755171626e+00 -1.1765873037869456e+01 -6.4406633281264352e+00 0 2 0
1913 638 2 4.0999999999999998e-01 -5.6471411312976372e+00 -5.6806034848019067e+00 -1.7024960368985962e+00 0 1 -1
1914 638 2 4.0999999999999998e-01 -6.1283495948968714e+00 -5.4239032125758193e+00 -3.2417610201093421e+00 0 1 -1
376 126 1 -8.1999999999999995e-01 -2.0017286491121400e+00 -9.1004153153756757e+00 -4.6500352179587896e+00 0 0 -1
570 190 2 4.0999999999999998e-01 -3.7238883860399454e+00 -6.1896054922562911e+00 -2.0752874093638773e-01 -1 -2 -1
16 6 1 -8.1999999999999995e-01 -3.5249541217512945e+00 -5.2685380471699901e+00 -4.1875968893999609e+00 -3 1 0
1680 560 2 4.0999999999999998e-01 -7.1985970818318066e+00 -8.6406221733181621e+00 -6.7460109376820299e-01 0 1 1
1537 513 1 -8.1999999999999995e-01 -4.3266700306841503e+00 -1.3627478228993285e+01 -2.6221425800922660e+00 0 0 0
902 301 2 4.0999999999999998e-01 -1.4035926203411769e+01 -6.0232944182907566e+00 -7.0768446027981824e-02 1 2 -1
2592 864 2 4.0999999999999998e-01 -2.4752056800544509e-01 -1.3534702706191910e+01 -1.7785590194098919e+00 0 1 -1
2100 700 2 4.0999999999999998e-01 -4.4821741655623963e+00 -1.1198979495291573e+01 -3.0705813970741502e-01 -2 1 -1
1740 580 2 4.0999999999999998e-01 -1.3223370637526429e+01 -1.1411273941321767e+01 -6.4804007484950610e-01 -1 1 -3
2511 837 2 4.0999999999999998e-01 -1.4756508363896758e+01 -1.3395246401583622e+01 -6.9675359590458781e+00 2 0 3
1865 622 2 4.0999999999999998e-01 -1.0775703870586121e+01 -1.0529157117267363e+01 -3.5437160115654009e-02 1 1 0
1169 390 2 4.0999999999999998e-01 -3.8604694428231738e+00 -1.4912245906569405e+01 -7.4537624103907740e+00 -2 0 -1
1687 563 1 -8.1999999999999995e-01 -6.5972641978551572e+00 -9.1730400538486556e+00 6.2865212812321296e+00 0 2 0
1991 664 2 4.0999999999999998e-01 -1.2457459062341091e+01 -7.0941165002057565e+00 5.0791720877533919e+00 1 -1 -1
1749 583 2 4.0999999999999998e-01 -8.0693700685548819e+00 -1.0715118584105467e+01 2.1372253876424310e+00 1 -1 -3
607 203 1 -8.1999999999999995e-01 -9.1028398509538704e+00 -1.2169324758244398e+01 6.3552703032894939e+00 -1 0 -1
1866 622 2 4.0999999999999998e-01 -9.2261036934691667e+00 -1.0459218631435434e+01 4.7509280914976948e-01 1 1 0
609 203 2 4.0999999999999998e-01 -9.8696498509000712e+00 -1.1717584840086904e+01 6.8113361920320656e+00 -1 0 -1
1047 349 2 4.0999999999999998e-01 -1.1290512582238303e+01 -7.1465461813433393e+00 1.5131032722940283e+00 0 1 -2
1864 622 1 -8.1999999999999995e-01 -1.0072253669574852e+01 -9.9387233783379934e+00 3.6030067017570744e-01 1 1 0
397 133 1 -8.1999999999999995e-01 -1.1524462702470379e+01 -1.0596125163606642e+01 6.5941219664664246e+00 0 2 0
399 133 2 4.0999999999999998e-01 -1.1721324619973647e+01 -9.6944976753356702e+00 6.2089260420907841e+00 0 2 0
1747 583 1 -8.1999999999999995e-01 -8.3611127713600784e+00 -1.1528122999940592e+01 1.6332684234818693e+00 1 -1 -3
1748 583 2 4.0999999999999998e-01 -8.3661806906040965e+00 -1.2317149005780758e+01 2.2476583148513036e+00 1 -1 -3
398 133 2 4.0999999999999998e-01 -1.2251955473017579e+01 -1.1233369305936462e+01 6.3396875945076765e+00 0 2 0
608 203 2 4.0999999999999998e-01 -9.4124188651815999e+00 -1.2555373248595959e+01 5.4862535840401065e+00 -1 0 -1
1092 364 2 4.0999999999999998e-01 -1.2547253353506781e+01 -8.8923762543215776e+00 2.0009515555102091e+00 0 1 -2
1751 584 2 4.0999999999999998e-01 -9.9994388322540075e+00 -1.3602030272304177e+01 3.6466519590946262e+00 -1 2 -1
1750 584 1 -8.1999999999999995e-01 -9.0600287180559835e+00 -1.3571558317378669e+01 3.3051220964174348e+00 -1 2 -1
1990 664 1 -8.1999999999999995e-01 -1.1842320645658331e+01 -7.8798149363671710e+00 5.0132528026530316e+00 1 -1 -1
2006 669 2 4.0999999999999998e-01 -1.4794965047631880e+01 -8.6739146765311652e+00 1.0926741262646225e+00 1 1 -1
888 296 2 4.0999999999999998e-01 -2.9240999461125465e+00 -9.5301974088230175e+00 7.3956552017663242e+00 -1 1 -4
1090 364 1 -8.1999999999999995e-01 -1.3324077076989914e+01 -9.4391464714575193e+00 1.6884617136257134e+00 0 1 -2
2576 859 2 4.0999999999999998e-01 -1.0222177208291953e+01 -1.2666260697560158e+01 2.0511282041216994e-01 -1 3 1
1091 364 2 4.0999999999999998e-01 -1.2991571077377843e+01 -1.0213432250779345e+01 1.1499601444649770e+00 0 1 -2
1992 664 2 4.0999999999999998e-01 -1.1581877031428153e+01 -8.0200128950714902e+00 4.0579643037634625e+00 1 -1 -1
1902 634 2 4.0999999999999998e-01 -4.1027048951184728e+00 -1.2683737036061599e+01 2.1235090113463961e+00 1 -1 0
23 8 2 4.0999999999999998e-01 -6.5786596134526416e+00 -1.4325087546220740e+01 2.0305743069279636e-01 -2 0 -1
1045 349 1 -8.1999999999999995e-01 -1.1164252628891388e+01 -7.9643256174653132e+00 2.0746705379171040e+00 0 1 -2
1046 349 2 4.0999999999999998e-01 -1.0686218136346930e+01 -8.6633651512459107e+00 1.5427975172668411e+00 0 1 -2
2285 762 2 4.0999999999999998e-01 -7.9143098144026380e+00 -1.3798140281883695e+01 6.5256386102935160e+00 1 1 1
2449 817 1 -8.1999999999999995e-01 -1.2887487590356551e+01 -1.2611388478503169e+01 3.2889397812993941e+00 -1 2 -2
778 260 1 -8.1999999999999995e-01 -6.5066560963279763e-01 -5.7199798828923640e+00 4.1046386651127875e+00 -2 1 0
2450 817 2 4.0999999999999998e-01 -1.2980369129473853e+01 -1.3303041520559509e+01 2.5726635064000689e+00 -1 2 -2
39 13 2 4.0999999999999998e-01 -1.4583385539587042e+00 -5.5282271147471924e+00 2.2017437715618620e+00 0 0 0
2560 854 1 -8.1999999999999995e-01 -1.3649514795512653e+01 -1.2608371525362740e+01 6.4058201022946442e+00 2 0 0
2217 739 2 4.0999999999999998e-01 -1.4534373216486850e+01 -5.4929014042359974e+00 7.2383720523566737e+00 1 1 -2
2451 817 2 4.0999999999999998e-01 -1.3645473918694655e+01 -1.1962144979619127e+01 3.2256762577013838e+00 -1 2 -2
2584 862 1 -8.1999999999999995e-01 -1.1101115086803084e+01 -1.4442554511597024e+01 4.9873481294196260e+00 0 0 0
2586 862 2 4.0999999999999998e-01 -1.1925259415938129e+01 -1.3971880132568238e+01 4.6722067413110793e+00 0 0 0
2347 783 1 -8.1999999999999995e-01 -1.3432711256657388e+01 -1.4171957689622880e+01 7.0024301597772087e-01 0 2 -1
37 13 1 -8.1999999999999995e-01 -1.6739951341164083e+00 -5.4444188834731353e+00 1.2288454953059542e+00 0 0 0
999 333 2 4.0999999999999998e-01 -1.4612924276799609e+01 -6.8310204015568932e+00 5.3513256646848824e+00 -2 -1 0