LAMMPS data file via write_data, version 15 May 2015, timestep = 18500000

2593 atoms
6 atom types
1728 bonds
4 bond types
864 angles
3 angle types
0 dihedrals
3 dihedral types
0 impropers
1 improper types

-1.5047412511647266e+01 1.5047412511647266e+01 xlo xhi
-1.5047412511647266e+01 1.5047412511647266e+01 ylo yhi
-1.5047412511647266e+01 1.5047412511647266e+01 zlo zhi

Masses

1 15.9994
2 1.00794
3 12.0107
4 1.00794
5 12.0107
6 12.0107

Bond Coeffs # harmonic

1 1000 1
2 469 1.4
3 367 1.08
4 469 0.7

Angle Coeffs # harmonic

1 100 109.47
2 35 120
3 63 120

Dihedral Coeffs # opls

1 0 7.25 0 0
2 0 7.25 0 0
3 0 7.25 0 0

Improper Coeffs # cvff

1 2.5 -1 2

Atoms # full

1687 563 1 -8.1999999999999995e-01 -8.5283920198491945e+00 -6.0139874441059149e+00 -1.1677475545619032e+01 8 4 -2
1850 617 2 4.0999999999999998e-01 -1.1215878945198853e+01 -8.9604306316217723e+00 -1.0270259341512473e+01 0 1 1
1849 617 1 -8.1999999999999995e-01 -1.1861930920251249e+01 -9.4672080264836591e+00 -9.6994578434543666e+00 0 1 1
1851 617 2 4.0999999999999998e-01 -1.1781667152052277e+01 -1.0445055864539301e+01 -9.8928286228490059e+00 0 1 1
1681 561 1 -8.1999999999999995e-01 -1.0453270347479219e+01 -7.9428748415886128e+00 -1.1446965575496705e+01 -3 0 -3
2559 853 2 4.0999999999999998e-01 -9.9137892563026391e+00 -1.1124067984790607e+01 -1.1039925033674587e+01 1 2 5
2557 853 1 -8.1999999999999995e-01 -9.4128982928434670e+00 -1.0331552549952839e+01 -1.1387845498086286e+01 1 2 5
1682 561 2 4.0999999999999998e-01 -1.0071758428671490e+01 -8.8199930906468520e+00 -1.1738741742652545e+01 -3 0 -3
2558 853 2 4.0999999999999998e-01 -8.5730284203304947e+00 -1.0638365757823163e+01 -1.1835623781769190e+01 1 2 5
1688 563 2 4.0999999999999998e-01 -7.6692638533026809e+00 -6.3949617923861997e+00 -1.2019204198333648e+01 8 4 -2
1683 561 2 4.0999999999999998e-01 -9.7157792074806437e+00 -7.2746290754327845e+00 -1.1349111795139942e+01 -3 0 -3
2292 764 2 4.0999999999999998e-01 -9.0480295055912912e+00 -1.0333544319323025e+01 -8.7836956428409323e+00 1 2 6
1666 556 1 -8.1999999999999995e-01 -9.6026476760866135e+00 -6.9605729951811401e+00 -8.1939725219812782e+00 -5 8 4
1667 556 2 4.0999999999999998e-01 -8.6756395522713596e+00 -6.6021335826455392e+00 -8.3044183105959579e+00 -5 8 4
499 167 1 -8.1999999999999995e-01 -1.0790974810289505e+01 -1.2250178541890447e+01 -1.0118877022956994e+01 3 1 0
2291 764 2 4.0999999999999998e-01 -8.9888105461547170e+00 -8.7466663156749789e+00 -8.4029146229433991e+00 1 2 6
500 167 2 4.0999999999999998e-01 -1.1286041189811879e+01 -1.2308564487690827e+01 -9.2519736152492982e+00 3 1 0
501 167 2 4.0999999999999998e-01 -1.0939216431808411e+01 -1.3087923777713970e+01 -1.0644451462568025e+01 3 1 0
1525 509 1 -8.1999999999999995e-01 -8.9223576437306988e+00 -1.3648631330587643e+01 -1.2166616920864783e+01 1 -6 -2
1527 509 2 4.0999999999999998e-01 -9.4654113948708236e+00 -1.3012359990586043e+01 -1.2714588196207382e+01 1 -6 -2
1526 509 2 4.0999999999999998e-01 -9.5328857239018490e+00 -1.4236314024510337e+01 -1.1635669056176841e+01 1 -6 -2
2135 712 2 4.0999999999999998e-01 -1.3679063848028699e+01 -1.4889483048025841e+01 -8.4489306110983904e+00 -4 3 1
1549 517 1 -8.1999999999999995e-01 -1.4142027851210273e+01 -8.7417750307152691e+00 -1.3856924293849481e+01 0 5 7
2569 857 1 -8.1999999999999995e-01 -1.1111011484525440e+01 -1.4963877714514195e+01 -1.0487007053765360e+01 5 2 1
2127 709 2 4.0999999999999998e-01 -1.3349250424906032e+01 -9.6723133234999832e+00 -1.0858127442501896e+01 2 0 3
377 126 2 4.0999999999999998e-01 -1.3532260450543472e+01 -1.2456728634541943e+01 -8.1642904968121996e+00 3 -2 -1
1551 517 2 4.0999999999999998e-01 -1.4174712470192196e+01 -8.9831252649022382e+00 -1.2887025898331178e+01 0 5 7
1380 460 2 4.0999999999999998e-01 -1.1836920037921967e+01 -6.9658990675378760e+00 -1.0980772608098286e+01 -6 2 3
1378 460 1 -8.1999999999999995e-01 -1.2472792372068632e+01 -6.5073842871068681e+00 -1.0359925020014689e+01 -6 2 3
1917 639 2 4.0999999999999998e-01 -1.4341158400059763e+01 -1.2481720486384738e+01 -1.2658538198648506e+01 0 6 1
1379 460 2 4.0999999999999998e-01 -1.2703953258540723e+01 -7.1221117987191276e+00 -9.6058057565439050e+00 -6 2 3
376 126 1 -8.1999999999999995e-01 -1.2786046728612211e+01 -1.1813956825310980e+01 -7.9909970261676575e+00 3 -2 -1
2290 764 1 -8.1999999999999995e-01 -8.4894801255930545e+00 -9.6125903383572915e+00 -8.3734895346890745e+00 1 2 6
1257 419 2 4.0999999999999998e-01 -1.0607282193841943e+01 -1.0887638443568004e+01 -1.3389031754858445e+01 1 2 8
1668 556 2 4.0999999999999998e-01 -1.0174670849663627e+01 -6.2731968178745454e+00 -7.7463963003285512e+00 -5 8 4
1916 639 2 4.0999999999999998e-01 -1.4481157834146726e+01 -1.1566745304535235e+01 -1.4003864344412349e+01 0 6 1
1915 639 1 -8.1999999999999995e-01 -1.4174535108106088e+01 -1.2447934307850494e+01 -1.3643990404529687e+01 0 6 1
1548 516 2 4.0999999999999998e-01 -1.4609580687315669e+01 -1.3126411818454645e+01 -1.0315129579766399e+01 3 2 -3
2070 690 2 4.0999999999999998e-01 -7.6361684003179100e+00 -1.4717709813510460e+01 -1.3924548093910374e+01 1 3 2
1255 419 1 -8.1999999999999995e-01 -1.0537024716038552e+01 -1.1829710395391556e+01 -1.3717033975558657e+01 1 2 8
1499 500 2 4.0999999999999998e-01 -1.2717266432180878e+01 -1.3989967983059177e+01 -1.3575745899737278e+01 5 -3 2
1256 419 2 4.0999999999999998e-01 -1.1079010029920374e+01 -1.1933587144159956e+01 -1.4550990018000366e+01 1 2 8
1498 500 1 -8.1999999999999995e-01 -1.2258511448047301e+01 -1.4691449159427842e+01 -1.4121171536481315e+01 5 -3 2
2125 709 1 -8.1999999999999995e-01 -1.4245002410718385e+01 -9.9225839682003585e+00 -1.1225570116004006e+01 2 0 3
2504 835 2 4.0999999999999998e-01 -1.1206405353463664e+01 -8.0775800325017819e+00 -1.4921640639417786e+01 -1 -5 6
2134 712 1 -8.1999999999999995e-01 -1.4361587165872308e+01 -1.4306583850448732e+01 -8.8898519142025947e+00 -4 3 1
2000 667 2 4.0999999999999998e-01 -1.4187310163203165e+01 -6.0245625307555297e+00 -1.0523092375623708e+01 0 2 0
1689 563 2 4.0999999999999998e-01 -8.5298772306646207e+00 -5.0228957810964250e+00 -1.1810728025150473e+01 8 4 -2
779 260 2 4.0999999999999998e-01 -1.1939230175770646e+01 -5.4122640208318327e+00 -9.3530500141476800e+00 2 -1 -5
1550 517 2 4.0999999999999998e-01 -1.4604355795326006e+01 -9.4487822492098381e+00 -1.4392101620160147e+01 0 5 7
1137 379 2 4.0999999999999998e-01 -1.2187690075784523e+01 -8.5414493929631412e+00 -8.3806559608234537e+00 0 1 -2
2126 709 2 4.0999999999999998e-01 -1.4544928329979868e+01 -1.0783699642608285e+01 -1.0815027337619767e+01 2 0 3
1796 599 2 4.0999999999999998e-01 -1.0260958740000362e+01 -1.5022379646005341e+01 -7.6999635819746581e+00 -1 3 0
2505 835 2 4.0999999999999998e-01 -1.2777380417279629e+01 -7.6348067040710994e+00 -1.4869956370302482e+01 -1 -5 6
1115 372 2 4.0999999999999998e-01 -6.8999921436581282e+00 -1.4958135262810083e+01 -8.7885403333466776e+00 4 1 0
1007 336 2 4.0999999999999998e-01 -2.7704296997925120e+00 -1.3197114268227480e+01 -1.4135485189065321e+01 6 -2 5
1571 524 2 4.0999999999999998e-01 -7.0531551501851837e+00 -7.3184143768219680e+00 -1.4875952665327931e+01 -1 1 3
787 263 1 -8.1999999999999995e-01 -3.5253432837783194e-01 -6.7024864652200122e+00 -1.2855605085694645e+01 -2 -4 -3
222 74 2 4.0999999999999998e-01 -4.0262643439920609e-01 -1.3028722738681985e+01 -1.3261766329718062e+01 -5 -2 3
1939 647 1 -8.1999999999999995e-01 -2.4693059837714078e+00 -1.4662310262893726e+01 -9.4381565270645016e+00 4 0 4
1940 647 2 4.0999999999999998e-01 -3.3082394904120864e+00 -1.4626351814531128e+01 -9.9812205639019389e+00 4 0 4
322 108 1 -8.1999999999999995e-01 -2.5943166293757827e+00 -6.4351993426629228e+00 -1.0966706419696667e+01 -3 0 3
328 110 1 -8.1999999999999995e-01 -2.6815961337411363e+00 -5.2815527781278799e+00 -1.4731123402830820e+01 1 -5 -1
2454 818 2 4.0999999999999998e-01 -1.4827102844684781e+00 -8.8258429134105398e+00 -8.6884824235893028e+00 -4 -3 2
2374 792 1 -8.1999999999999995e-01 -1.6103584247124605e+00 -1.0710740936074821e+01 -1.3302330308323636e+01 -4 7 2
2563 855 1 -8.1999999999999995e-01 -6.5895550839773787e+00 -1.3843225924742207e+01 -1.0478625723222091e+01 -5 2 4
2564 855 2 4.0999999999999998e-01 -7.3672228018720798e+00 -1.3812714801734248e+01 -1.1106577228119869e+01 -5 2 4
2496 832 2 4.0999999999999998e-01 -4.5595038537130232e+00 -1.1843870130034924e+01 -7.8129782599884701e+00 0 7 1
1837 613 1 -8.1999999999999995e-01 -3.7518861122074725e+00 -8.7247043459344056e+00 -1.0200087372441011e+01 -6 -3 0
1941 647 2 4.0999999999999998e-01 -2.1751293327375976e+00 -1.3732426152613870e+01 -9.2172565829141195e+00 4 0 4
788 263 2 4.0999999999999998e-01 -1.2441706872849938e+00 -6.6676295547233639e+00 -1.2404173452602958e+01 -2 -4 -3
2376 792 2 4.0999999999999998e-01 -6.9511838676631577e-01 -1.0957399243657045e+01 -1.2983713779813920e+01 -4 7 2
2535 845 2 4.0999999999999998e-01 -1.7141360708673670e+00 -1.1199612796320530e+01 -8.6519106714299454e+00 -4 -2 0
330 110 2 4.0999999999999998e-01 -2.6196516160619527e+00 -6.2489397663552904e+00 -1.4485468316266827e+01 1 -5 -1
752 251 2 4.0999999999999998e-01 -3.8086408267573759e+00 -1.4571931693604917e+01 -1.2530932731227125e+01 -6 1 4
2453 818 2 4.0999999999999998e-01 -2.2803407812814314e-01 -9.5514261285559829e+00 -9.4408116585020032e+00 -4 -3 2
2452 818 1 -8.1999999999999995e-01 -1.2246971200667076e+00 -9.5108016554061230e+00 -9.3698647663442198e+00 -4 -3 2
1630 544 1 -8.1999999999999995e-01 -6.6836483890205365e+00 -1.2642275999815741e+01 -1.4133330531988991e+01 0 0 5
375 125 2 4.0999999999999998e-01 -6.8627280028216937e+00 -9.0589917362349972e+00 -1.3002645161264981e+01 -6 -6 4
1632 544 2 4.0999999999999998e-01 -5.8052843529723805e+00 -1.2912572150808550e+01 -1.4527586177270416e+01 0 0 5
373 125 1 -8.1999999999999995e-01 -6.3764189700281140e+00 -8.1941837918009561e+00 -1.3127672669470414e+01 -6 -6 4
1732 578 1 -8.1999999999999995e-01 -6.9548886978104214e+00 -6.0030220248474500e+00 -7.8158861754089113e+00 1 -2 3
1838 613 2 4.0999999999999998e-01 -3.2047528813124497e+00 -9.4853338905149371e+00 -9.8506463301364153e+00 -6 -3 0
2565 855 2 4.0999999999999998e-01 -5.7588251889578039e+00 -1.4068796456573336e+01 -1.0987572565636720e+01 -5 2 4
1678 560 1 -8.1999999999999995e-01 -2.9360259357187797e+00 -8.3614552574529455e+00 -1.4327756772479175e+01 1 -2 8
10 4 1 -8.1999999999999995e-01 -4.6445727734447431e+00 -1.1983900821216535e+01 -9.5762629157825057e+00 2 1 -3
1554 518 2 4.0999999999999998e-01 -3.7502918249633552e+00 -9.9752325040986065e+00 -1.1499295983890452e+01 2 5 2
1553 518 2 4.0999999999999998e-01 -3.1704654835259021e+00 -1.1129477207894700e+01 -1.2498397202224792e+01 2 5 2
374 125 2 4.0999999999999998e-01 -5.3932165683853608e+00 -8.3472558543375150e+00 -1.3028158806192934e+01 -6 -6 4
1464 488 2 4.0999999999999998e-01 -5.3199642630293837e+00 -8.5592677168488986e+00 -9.2407160120743228e+00 2 4 4
11 4 2 4.0999999999999998e-01 -4.5452947413489557e+00 -1.1570394555222997e+01 -1.0481347165287829e+01 2 1 -3
881 294 2 4.0999999999999998e-01 -5.8170283956275615e+00 -1.0703267910922909e+01 -1.1927585915447363e+01 -3 0 6
1680 560 2 4.0999999999999998e-01 -2.3035192919208445e+00 -8.3696102515287016e+00 -1.3553231299653541e+01 1 -2 8
2534 845 2 4.0999999999999998e-01 -3.0573840197557214e+00 -1.2064332610118729e+01 -8.9904768955096888e+00 -4 -2 0
880 294 1 -8.1999999999999995e-01 -6.7883985852719704e+00 -1.0856705196456112e+01 -1.2109019305811204e+01 -3 0 6
1463 488 2 4.0999999999999998e-01 -6.9263375394438160e+00 -8.6396033706727842e+00 -8.9582382988435842e+00 2 4 4
12 4 2 4.0999999999999998e-01 -5.4570419590939938e+00 -1.2566781316822411e+01 -9.5634075096287532e+00 2 1 -3
1006 336 1 -8.1999999999999995e-01 -3.6985323026380712e+00 -1.3297336330488664e+01 -1.4494096722131466e+01 6 -2 5
1552 518 1 -8.1999999999999995e-01 -3.9589539027425644e+00 -1.0840277677136854e+01 -1.1955561381580392e+01 2 5 2
1462 488 1 -8.1999999999999995e-01 -6.0351588963706355e+00 -8.4362613658420145e+00 -8.5526846785822777e+00 2 4 4
2375 792 2 4.0999999999999998e-01 -1.5884797830399826e+00 -1.0553599540233769e+01 -1.4289674760850335e+01 -4 7 2
2533 845 1 -8.1999999999999995e-01 -2.1471201746986548e+00 -1.2097973701895539e+01 -8.5777918820113435e+00 -4 -2 0
1839 613 2 4.0999999999999998e-01 -3.1810585754222522e+00 -7.9062943567062085e+00 -1.0266285130095515e+01 -6 -3 0
220 74 1 -8.1999999999999995e-01 -1.1483383455019229e+00 -1.3663577373763376e+01 -1.3463989590868763e+01 -5 -2 3
1008 336 2 4.0999999999999998e-01 -4.1088142261337381e+00 -1.2393334088999024e+01 -1.4614387013480755e+01 6 -2 5
882 294 2 4.0999999999999998e-01 -6.8894576530748193e+00 -1.1573677334305756e+01 -1.2798772262373529e+01 -3 0 6
1733 578 2 4.0999999999999998e-01 -6.3975776619144096e+00 -6.6427318113242304e+00 -8.3452224986197709e+00 1 -2 3
221 74 2 4.0999999999999998e-01 -1.0538219285486292e+00 -1.4480752615583352e+01 -1.2895383983672469e+01 -5 -2 3
324 108 2 4.0999999999999998e-01 -3.1248338805939824e+00 -5.8150862271696475e+00 -1.1544661680414340e+01 -3 0 3
323 108 2 4.0999999999999998e-01 -1.9845706077471572e+00 -5.9033445514937171e+00 -1.0379031842062584e+01 -3 0 3
1631 544 2 4.0999999999999998e-01 -7.2629111411382326e+00 -1.2249578656993558e+01 -1.4847658602283554e+01 0 0 5
1223 408 2 4.0999999999999998e-01 -3.6913455823530512e+00 -1.5005615578214702e+01 -1.4962414624292721e+01 -3 -1 6
1679 560 2 4.0999999999999998e-01 -3.5417399141215391e+00 -9.1551822447999278e+00 -1.4271819477855848e+01 1 -2 8
1413 471 2 4.0999999999999998e-01 -9.6152816627046960e+00 -6.6871687627039851e+00 -4.4853958565527421e+00 0 -1 -1
1412 471 2 4.0999999999999998e-01 -9.3886133897096364e+00 -8.0997364383840953e+00 -5.2727692665704602e+00 0 -1 -1
1411 471 1 -8.1999999999999995e-01 -9.9738100898673245e+00 -7.6099777334471295e+00 -4.6264703048233695e+00 0 -1 -1
2114 705 2 4.0999999999999998e-01 -1.2129360830153045e+01 -1.1230895693305742e+01 -3.1535831032276462e+00 2 -3 4
1407 469 2 4.0999999999999998e-01 -1.2010204750886526e+01 -7.8329467720361086e+00 -2.3441748720085016e+00 2 0 0
1406 469 2 4.0999999999999998e-01 -1.1354983858237061e+01 -7.9307223317515136e+00 -3.8367592281522214e+00 2 0 0
1405 469 1 -8.1999999999999995e-01 -1.2099389623758265e+01 -8.2483937662150062e+00 -3.2494212128147382e+00 2 0 0
1947 649 2 4.0999999999999998e-01 -8.1130419405509624e+00 -9.6521932914372286e+00 -4.0626004571636063e+00 -3 1 -2
1945 649 1 -8.1999999999999995e-01 -8.2938364098205195e+00 -1.0462456019177797e+01 -3.5050982951769036e+00 -3 1 -2
1169 390 2 4.0999999999999998e-01 -1.0217660924691273e+01 -1.3879277929929454e+01 -3.3762395071721798e+00 -5 -1 0
1187 396 2 4.0999999999999998e-01 -8.9450306333703882e+00 -1.0664237031825481e+01 -6.9943918920060035e+00 -3 5 1
1470 490 2 4.0999999999999998e-01 -1.4773087831760417e+01 -7.3533211912424701e+00 -4.9499838131272753e+00 9 3 1
2242 748 1 -8.1999999999999995e-01 -9.6522814341498524e+00 -8.7035272965014503e+00 -1.6166337776658288e+00 0 2 -1
24 8 2 4.0999999999999998e-01 -1.2161881810746692e+01 -9.4886145187199205e+00 -4.7877711922275115e+00 0 -2 2
2113 705 1 -8.1999999999999995e-01 -1.2520911286708264e+01 -1.1731691691284361e+01 -2.3816292757317861e+00 2 -3 4
22 8 1 -8.1999999999999995e-01 -1.2007811438102566e+01 -1.0461424356600709e+01 -4.9607579494332263e+00 0 -2 2
23 8 2 4.0999999999999998e-01 -1.1055554632822266e+01 -1.0605362475424810e+01 -5.2300346253200001e+00 0 -2 2
2244 748 2 4.0999999999999998e-01 -9.8272199182830136e+00 -9.2934117237488607e+00 -2.4049572887137831e+00 0 2 -1
1946 649 2 4.0999999999999998e-01 -7.7471075510476144e+00 -1.1228470405413196e+01 -3.8432263737397285e+00 -3 1 -2
2446 816 1 -8.1999999999999995e-01 -1.3684589450455020e+01 -6.6075988098869267e+00 -6.1955408478167193e+00 0 -4 1
1201 401 1 -8.1999999999999995e-01 -1.3817346036989990e+01 -1.2679208454698644e+01 -4.8699409179160540e+00 1 2 -1
2448 816 2 4.0999999999999998e-01 -1.2906966038952493e+01 -7.0267639129135624e+00 -6.6641804104185454e+00 0 -4 1
2243 748 2 4.0999999999999998e-01 -8.6939021426445997e+00 -8.4180137581339363e+00 -1.6201312710498197e+00 0 2 -1
2115 705 2 4.0999999999999998e-01 -1.1814285935844214e+01 -1.1884883055634884e+01 -1.6908080633725096e+00 2 -3 4
785 262 2 4.0999999999999998e-01 -1.4279898150647158e+01 -1.1838840744037377e+01 -2.3282602912427866e+00 -7 -4 3
441 147 2 4.0999999999999998e-01 -1.2914278896175357e+01 -6.2442747279492945e+00 -1.0661120219631908e+00 0 2 5
1203 401 2 4.0999999999999998e-01 -1.3016970816821086e+01 -1.2092024889411700e+01 -4.9909204768592410e+00 1 2 -1
1202 401 2 4.0999999999999998e-01 -1.4421556112582216e+01 -1.2281070584140885e+01 -4.1796963572047510e+00 1 2 -1
1188 396 2 4.0999999999999998e-01 -8.6766448827005842e+00 -1.1719448902671758e+01 -5.7773546206553998e+00 -3 5 1
1186 396 1 -8.1999999999999995e-01 -9.3775272891928800e+00 -1.1297088006225438e+01 -6.3521556626867497e+00 -3 5 1
1168 390 1 -8.1999999999999995e-01 -9.6266721622999221e+00 -1.4000962280465156e+01 -4.1737019006594274e+00 -5 -1 0
439 147 1 -8.1999999999999995e-01 -1.2273190362399230e+01 -6.5233251562558827e+00 -3.5115926385204688e-01 0 2 5
1170 390 2 4.0999999999999998e-01 -1.0189196098026105e+01 -1.4076386110235607e+01 -4.9970482119165087e+00 -5 -1 0
819 273 2 4.0999999999999998e-01 -1.0529217507476911e+01 -1.2854186183635321e+01 -6.8778091575790157e+00 1 8 4
1469 490 2 4.0999999999999998e-01 -1.3826521021079014e+01 -8.3279478166872565e+00 -4.0440054044647091e+00 9 3 1
1468 490 1 -8.1999999999999995e-01 -1.4764742917723163e+01 -8.0227435614363856e+00 -4.2071344509669792e+00 9 3 1
1865 622 2 4.0999999999999998e-01 -8.2182972483196934e+00 -1.3962804867021639e+01 -3.2647125799800918e+00 -4 0 3
587 196 2 4.0999999999999998e-01 -1.0051952057198530e+01 -1.0121558453885189e+01 -1.7592070015111716e-01 -1 5 1
817 273 1 -8.1999999999999995e-01 -1.0721466313571307e+01 -1.3834916856575500e+01 -6.8427558908152086e+00 1 8 4
2447 816 2 4.0999999999999998e-01 -1.4464855952782974e+01 -6.5624619686701102e+00 -6.8193741520180851e+00 0 -4 1
678 226 2 4.0999999999999998e-01 -1.4086753219240403e+01 -6.3915453765288657e+00 -3.2914985202881510e+00 5 4 0
676 226 1 -8.1999999999999995e-01 -1.4359221542594547e+01 -5.8797137111939293e+00 -2.4767529181148884e+00 5 4 0
2147 716 2 4.0999999999999998e-01 -9.3047677933175983e+00 -1.4919145878066697e+01 -1.5691062603071444e+00 5 1 -4
2411 804 2 4.0999999999999998e-01 -8.5076825845366955e+00 -1.2765009005967535e+01 -2.9404372268143497e-01 -1 -1 2
2148 716 2 4.0999999999999998e-01 -1.0436616472448367e+01 -1.4711999879594108e+01 -4.1036046333963405e-01 5 1 -4
1307 436 2 4.0999999999999998e-01 -8.0801135797281116e+00 -5.5513979832905509e+00 -2.9264620060189515e+00 -2 1 1
818 273 2 4.0999999999999998e-01 -1.1710322567288888e+01 -1.3981822166641940e+01 -6.8673118763960481e+00 1 8 4
1136 379 2 4.0999999999999998e-01 -1.1130892806777439e+01 -8.1150775819678813e+00 -7.2110109647056015e+00 0 1 -2
2146 716 1 -8.1999999999999995e-01 -1.0176493973890466e+01 -1.4481798231849151e+01 -1.3481048806982319e+00 5 1 -4
191 64 2 4.0999999999999998e-01 -1.3453274266625755e+01 -1.4187135873288195e+01 -3.4279883021675985e+00 2 0 3
190 64 1 -8.1999999999999995e-01 -1.3873785740343429e+01 -1.4989209911220437e+01 -3.0038792971445645e+00 2 0 3
1290 430 2 4.0999999999999998e-01 -7.9754879002798802e+00 -1.4822962695789430e+01 -4.8641582717213225e+00 -2 -5 2
2028 676 2 4.0999999999999998e-01 -1.3289222994800948e+01 -5.2667612225386495e+00 -5.4658486001607862e+00 1 1 0
1699 567 1 -8.1999999999999995e-01 -9.1156429879883962e+00 -5.1003041688141977e+00 -4.2329825784527415e+00 1 2 6
1135 379 1 -8.1999999999999995e-01 -1.2095551382552410e+01 -8.1293726040202969e+00 -7.4741659150435185e+00 0 1 -2
617 206 2 4.0999999999999998e-01 -1.5039231714623959e+01 -1.3322087914951798e+01 -5.9526647595144535e+00 -3 -2 6
378 126 2 4.0999999999999998e-01 -1.3121078088579635e+01 -1.1058108129621102e+01 -7.4284424217977749e+00 3 -2 -1
388 130 1 -8.1999999999999995e-01 -1.9869137248889910e+00 -8.0442942502692247e+00 -7.4003141332812223e+00 -4 1 1
1973 658 2 4.0999999999999998e-01 -1.4066313397469408e+00 -1.2610663259871895e+01 -7.0406202043039094e+00 4 0 -2
141 47 2 4.0999999999999998e-01 -4.7195946693012001e+00 -1.4207697582001455e+01 -3.7416692203555630e+00 -1 -1 5
583 195 1 -8.1999999999999995e-01 -1.1463095758689619e+00 -1.3842130928762401e+01 -3.2770359216104872e+00 7 2 3
1972 658 1 -8.1999999999999995e-01 -8.0602761407807932e-01 -1.2926523405593688e+01 -6.3060940385599586e+00 4 0 -2
1864 622 1 -8.1999999999999995e-01 -7.4913453071287996e+00 -1.4188575398063385e+01 -2.6161840932611646e+00 -4 0 3
389 130 2 4.0999999999999998e-01 -2.6338313713657406e+00 -8.1872957712706800e+00 -6.6512686061802171e+00 -4 1 1
2412 804 2 4.0999999999999998e-01 -7.2530503367855532e+00 -1.2827931397019340e+01 -1.3374138611649844e+00 -1 -1 2
711 237 2 4.0999999999999998e-01 -5.2976111294999892e+00 -8.7285097802240621e+00 -6.9653213111146961e+00 4 5 4
584 195 2 4.0999999999999998e-01 -9.4650739924656335e-01 -1.4789868924950616e+01 -3.5258185338056371e+00 7 2 3
1974 658 2 4.0999999999999998e-01 -1.0050921326729014e+00 -1.3884964957520870e+01 -6.1016824453985556e+00 4 0 -2
585 195 2 4.0999999999999998e-01 -1.2192117099437763e+00 -1.3288103502917053e+01 -4.1063488741368790e+00 7 2 3
1886 629 2 4.0999999999999998e-01 -5.3006416373228760e+00 -7.8428153958214910e+00 -3.6095229466011780e-01 -4 2 0
1327 443 1 -8.1999999999999995e-01 -6.7680351547109687e+00 -1.1952886279673475e+01 -5.1107583378807728e+00 6 0 -5
2410 804 1 -8.1999999999999995e-01 -7.5158349855107449e+00 -1.2675330433917610e+01 -3.8469238087308355e-01 -1 -1 2
1306 436 1 -8.1999999999999995e-01 -7.3188552299865828e+00 -5.5656392104985635e+00 -2.2781533940444909e+00 -2 1 1
1422 474 2 4.0999999999999998e-01 -1.3807218470544314e+00 -5.0534733925568904e+00 -5.9337695616359927e+00 -3 -9 6
984 328 2 4.0999999999999998e-01 -6.0662664807076894e+00 -8.4907485118069168e+00 -5.0600592220694445e+00 -2 -5 -3
2555 852 2 4.0999999999999998e-01 -5.4280391609669820e-01 -5.5242567943461189e+00 -2.4784606818921677e+00 3 1 1
983 328 2 4.0999999999999998e-01 -7.0154644737949461e+00 -7.1883582200683822e+00 -4.7964582533129576e+00 -2 -5 -3
175 59 1 -8.1999999999999995e-01 -3.6768593783288619e+00 -1.4604359408448161e+01 -6.3407450909458589e+00 -3 1 -3
1857 619 2 4.0999999999999998e-01 -3.5450608117087707e+00 -1.2355925943999541e+01 -7.7932462902255395e-01 -2 0 2
1329 443 2 4.0999999999999998e-01 -5.8984209541737993e+00 -1.2129644167185500e+01 -4.6497281033356099e+00 6 0 -5
1885 629 1 -8.1999999999999995e-01 -4.6843736211485467e+00 -7.0791585626029692e+00 -1.6843444761629200e-01 -4 2 0
1763 588 2 4.0999999999999998e-01 -7.1755532424131863e+00 -1.1064158487237954e+01 -1.0252302951169945e-01 -1 4 3
1311 437 2 4.0999999999999998e-01 -4.2076154028639579e-01 -1.3752564897863099e+01 -1.6920430547905418e+00 2 -7 1
1328 443 2 4.0999999999999998e-01 -6.5928185008518909e+00 -1.1562133923629396e+01 -6.0144357247264342e+00 6 0 -5
1734 578 2 4.0999999999999998e-01 -6.6238020538268767e+00 -5.9739658940322542e+00 -6.8727220702084200e+00 1 -2 3
246 82 2 4.0999999999999998e-01 -3.0818315669064269e+00 -8.5677076057523145e+00 -1.0141614980705658e+00 -4 5 -4
982 328 1 -8.1999999999999995e-01 -6.9446649428114213e+00 -8.1808105971210772e+00 -4.6962244047252923e+00 -2 -5 -3
2182 728 1 -8.1999999999999995e-01 -2.9388107893740703e+00 -8.2189629606288133e+00 -4.3325452544920182e+00 4 -1 2
244 82 1 -8.1999999999999995e-01 -2.9524018183116052e+00 -9.1192794378599622e+00 -1.8381988367117916e+00 -4 5 -4
1308 436 2 4.0999999999999998e-01 -7.0951964462609807e+00 -6.5126187417079837e+00 -2.0474422962999714e+00 -2 1 1
2495 832 2 4.0999999999999998e-01 -4.2499015204488746e+00 -1.2644103388966613e+01 -6.4235697526874667e+00 0 7 1
2494 832 1 -8.1999999999999995e-01 -4.6650743255666249e+00 -1.1824657209439918e+01 -6.8187414202872407e+00 0 7 1
2369 790 2 4.0999999999999998e-01 -9.4359429789313332e-01 -8.9943970149884986e+00 -4.7735134549747471e+00 -1 1 3
1153 385 1 -8.1999999999999995e-01 -7.0318357157565110e+00 -8.2611345632214537e+00 -1.8967928224447572e+00 0 -1 0
1155 385 2 4.0999999999999998e-01 -6.8833737561220509e+00 -8.5273685927161509e+00 -2.8492106049459558e+00 0 -1 0
709 237 1 -8.1999999999999995e-01 -4.8952307652450955e+00 -9.0678869072090258e+00 -6.1150658671881519e+00 4 5 4
2184 728 2 4.0999999999999998e-01 -2.9312158913734851e+00 -8.5064522899281929e+00 -3.3747806609210631e+00 4 -1 2
1154 385 2 4.0999999999999998e-01 -6.8931256942688304e+00 -9.0541174375880527e+00 -1.3035316619644917e+00 0 -1 0
721 241 1 -8.1999999999999995e-01 -1.7741785403521941e+00 -5.7462185669524679e+00 -4.1551976670474122e+00 -4 2 0
2288 763 2 4.0999999999999998e-01 -3.5659153236216632e+00 -1.2642088835735221e+01 -4.4657700205815747e+00 4 -2 4
1856 619 2 4.0999999999999998e-01 -2.3008954150081706e+00 -1.2387626913416218e+01 -1.8365522187024421e+00 -2 0 2
2289 763 2 4.0999999999999998e-01 -4.0529339218514515e+00 -1.1925201548049975e+01 -3.0817296125040698e+00 4 -2 4
1855 619 1 -8.1999999999999995e-01 -3.0417175162101184e+00 -1.1828720575525466e+01 -1.4639566409613902e+00 -2 0 2
2287 763 1 -8.1999999999999995e-01 -4.3506221404613434e+00 -1.2264714679134894e+01 -3.9739928381232463e+00 4 -2 4
2338 780 1 -8.1999999999999995e-01 -5.4433452730680365e+00 -5.8294586800194246e+00 -5.4407539194842052e+00 0 1 2
2554 852 1 -8.1999999999999995e-01 -1.2565383578396094e-01 -5.6377773880823892e+00 -1.5767290269691827e+00 3 1 1
1309 437 1 -8.1999999999999995e-01 -2.1143691914702956e-01 -1.3685050216456997e+01 -7.1651954195798062e-01 2 -7 1
710 237 2 4.0999999999999998e-01 -4.7402159812122733e+00 -1.0052993602925568e+01 -6.1896048885852473e+00 4 5 4
723 241 2 4.0999999999999998e-01 -2.1153666079831037e+00 -6.6800445446679735e+00 -4.0475837916192123e+00 -4 2 0
2183 728 2 4.0999999999999998e-01 -3.6663717836322878e+00 -8.7019576517510906e+00 -4.8197741947314849e+00 4 -1 2
1580 527 2 4.0999999999999998e-01 -4.4494076050042128e+00 -5.8034839608448436e+00 -1.5260613801885761e+00 -1 1 3
245 82 2 4.0999999999999998e-01 -2.8000626003907900e+00 -1.0073340283389332e+01 -1.5801643454374190e+00 -4 5 -4
2339 780 2 4.0999999999999998e-01 -4.7705461675053726e+00 -6.4209545803109780e+00 -4.9963498263042307e+00 0 1 2
1420 474 1 -8.1999999999999995e-01 -1.8476083883738319e+00 -5.0707546038695668e+00 -6.8179298304334957e+00 -3 -9 6
722 241 2 4.0999999999999998e-01 -2.3487552733601138e+00 -5.1187826618102630e+00 -3.6296438679928773e+00 -4 2 0
2264 755 2 4.0999999999999998e-01 -2.0168508970670374e-01 -6.6420721939237826e+00 -1.6723785144354508e-01 -4 2 1
390 130 2 4.0999999999999998e-01 -1.4761305502672837e+00 -7.1991226677402080e+00 -7.2428133465510305e+00 -4 1 1
177 59 2 4.0999999999999998e-01 -4.0124005618735161e+00 -1.4955889940099564e+01 -5.4667546148907604e+00 -3 1 -3
871 291 1 -8.1999999999999995e-01 -1.4342919961790916e+01 -1.0613318452907532e+01 6.2139572349484453e+00 -3 2 -1
1994 665 2 4.0999999999999998e-01 -1.0334442205270280e+01 -8.1734029814829547e+00 5.0596875016148246e+00 -4 -4 1
1993 665 1 -8.1999999999999995e-01 -9.8324283463577800e+00 -8.9976972442010208e+00 5.3214931136391961e+00 -4 -4 1
1995 665 2 4.0999999999999998e-01 -9.9173395186108237e+00 -9.6833927879250847e+00 4.5985596319335826e+00 -4 -4 1
30 10 2 4.0999999999999998e-01 -9.5081478109871149e+00 -5.9135488729450341e+00 3.7427667901224773e+00 -4 -1 1
1028 343 2 4.0999999999999998e-01 -1.2260712565717029e+01 -8.1379217794450387e+00 3.6975097012172675e+00 -4 -3 -1
2232 744 2 4.0999999999999998e-01 -1.1938336604053488e+01 -1.0585018802092744e+01 7.0978533773183194e-01 0 5 7
1270 424 1 -8.1999999999999995e-01 -8.4057907440735615e+00 -1.3253298443531184e+01 2.2002009012944370e+00 -1 0 -1
2333 778 2 4.0999999999999998e-01 -1.4852195991866573e+01 -1.2185657921032730e+01 3.4236983334292539e+00 0 2 1
872 291 2 4.0999999999999998e-01 -1.3995979858901341e+01 -1.1509306728983924e+01 6.4911909926372999e+00 -3 2 -1
873 291 2 4.0999999999999998e-01 -1.4036165833919366e+01 -9.9205678239773292e+00 6.8666589314770157e+00 -3 2 -1
1027 343 1 -8.1999999999999995e-01 -1.1802129472292840e+01 -7.2621683725230994e+00 3.5465836928260508e+00 -4 -3 -1
1029 343 2 4.0999999999999998e-01 -1.2453032835584203e+01 -6.6067376882968780e+00 3.1634957312536116e+00 -4 -3 -1
2231 744 2 4.0999999999999998e-01 -1.3217467211469739e+01 -9.6236713169881032e+00 3.8371999850052774e-01 0 5 7
734 245 2 4.0999999999999998e-01 -1.2744353430105132e+01 -1.0387763318370862e+01 3.2222857870307848e+00 -2 -1 0
733 245 1 -8.1999999999999995e-01 -1.2257246192285740e+01 -1.0105409462319454e+01 4.0487382799233309e+00 -2 -1 0
126 42 2 4.0999999999999998e-01 -1.0540913953503818e+01 -1.3816152811439951e+01 5.3718229562898969e+00 -7 -2 5
2230 744 1 -8.1999999999999995e-01 -1.2909196229741230e+01 -1.0428332499074092e+01 8.9117465631316151e-01 0 5 7
588 196 2 4.0999999999999998e-01 -9.3890035933608207e+00 -1.1154555191380458e+01 9.0115860716193374e-01 -1 5 1
735 245 2 4.0999999999999998e-01 -1.2830933429790711e+01 -1.0278519525009880e+01 4.8493236922425993e+00 -2 -1 0
1435 479 1 -8.1999999999999995e-01 -1.4194261997907654e+01 -1.3200766059438038e+01 7.3158548043291383e+00 2 2 1
1721 574 2 4.0999999999999998e-01 -8.2559388849297708e+00 -5.5642578070196471e+00 6.3406331415501214e+00 1 0 3
124 42 1 -8.1999999999999995e-01 -1.0499028235673570e+01 -1.3619000510395075e+01 4.3923345197521080e+00 -7 -2 5
2060 687 2 4.0999999999999998e-01 -1.2278818613104907e+01 -1.4287067015098462e+01 3.4122130365713694e+00 -2 4 -2
125 42 2 4.0999999999999998e-01 -9.9501886480699469e+00 -1.2796876073555328e+01 4.2409820416326518e+00 -7 -2 5
1556 519 2 4.0999999999999998e-01 -1.3810934420375208e+01 -1.1834216375582679e+01 1.2607587812119938e+00 1 4 -1
1512 504 2 4.0999999999999998e-01 -1.4561336377710463e+01 -5.3627471720194926e+00 1.6660371316845506e+00 -2 3 -1
2167 723 1 -8.1999999999999995e-01 -1.1046929822391998e+01 -1.4011505658539601e+01 7.1169965099687325e+00 0 4 1