2593
Atoms. Timestep: 18495000
O -9.59743 -0.21747 -8.86769
H -9.65856 0.740537 -9.14795
H -9.84036 -0.806415 -9.63853
O 8.5128 7.75823 3.78313
H 7.65034 7.6389 4.27506
H 9.24468 7.28554 4.27401
O 8.2326 2.47555 11.6427
H 7.93359 3.395 11.3873
H 7.85499 1.81104 10.9978
O -3.00997 -13.2327 -9.34962
H -3.21283 -13.928 -8.66007
H -3.43134 -12.3659 -9.08295
O 13.9994 -0.297478 5.80583
H 13.9277 0.609202 5.39008
H -14.9301 -0.575517 5.83561
O 1.19787 -1.50722 2.70686
H 1.63455 -0.632434 2.91689
H 0.295552 -1.54103 3.13668
O 6.43887 8.22789 -9.28708
H 7.06898 8.1997 -10.0631
H 5.92124 7.3732 -9.2468
O -12.7091 -12.0915 -4.12626
H -11.7689 -12.0634 -4.46573
H -13.3402 -11.8925 -4.87597
O 14.8348 10.5485 -6.13083
H 14.2443 11.3309 -5.933
H -14.2661 10.5624 -5.51635
O -11.7687 -7.43231 2.64533
H -12.7331 -7.26341 2.84903
H -11.6918 -8.20163 2.01107
O 4.00012 -1.82105 -7.86732
H 4.04886 -1.77008 -8.86486
H 3.52618 -1.01397 -7.51508
O 5.97644 -8.78931 -2.93316
H 5.01718 -9.03522 -3.07243
H 6.55815 -9.3963 -3.47467
O 11.6993 -14.2557 7.96788
H 12.4757 -13.6812 8.22731
H 11.7457 14.767 8.46406
O 0.824623 -13.7908 10.7847
H 1.39232 -13.8921 11.6017
H 1.35765 -14.0386 9.97566
O -11.7537 12.9745 -2.96832
H -11.7651 13.9585 -2.79037
H -11.9047 12.4792 -2.11276
O 0.722102 2.27728 12.8875
H 0.718328 2.80585 12.0386
H 1.65485 2.22675 13.2446
O 9.50671 -2.32379 -3.7046
H 9.14595 -1.92837 -2.85988
H 8.90198 -3.05775 -4.01391
O 8.66539 -3.23657 9.08089
H 9.23318 -2.59401 8.56631
H 8.7721 -4.15491 8.69968
O 14.404 12.9186 5.18393
H 14.232 12.048 4.72308
H 14.2563 13.6707 4.54154
O -2.73544 -7.7362 5.45258
H -1.86932 -8.20457 5.62733
H -2.6597 -6.77952 5.73382
O -4.16582 0.367414 -14.769
H -3.52733 -0.394692 -14.6614
H -3.65349 1.22203 -14.8539
O -9.57679 8.78461 -4.88519
H -10.2802 9.40268 -4.53417
H -9.50051 7.99001 -4.28282
O 5.68317 -13.927 10.7548
H 5.54845 -14.8077 10.3006
H 5.32296 -13.9739 11.6865
O -0.721266 3.70076 14.5816
H -0.175565 3.41295 13.7945
H -0.583152 4.67787 14.7435
O -8.06867 9.64277 -2.57522
H -7.94634 10.5543 -2.18243
H -8.60204 9.71196 -3.4183
O 5.98268 7.6063 0.0203484
H 6.64595 7.2412 -0.632981
H 6.00074 8.60572 -0.00961288
O -6.04705 4.73583 6.70861
H -5.51778 5.54133 6.97524
H -5.94004 4.02244 7.4012
O 10.3733 -11.9287 4.939
H 10.2312 -11.0947 5.47216
H 10.5611 -11.6877 3.9868
O 4.69377 -5.80916 14.1196
H 5.19672 -5.01875 14.4694
H 5.26908 -6.31117 13.4738
O 13.1786 -4.23264 14.2224
H 13.3619 -4.48841 -14.7181
H 13.7047 -3.41454 13.9901
O 2.74227 -10.1161 4.73128
H 2.53071 -9.20912 5.09566
H 3.58553 -10.4546 5.1488
O -9.30147 -3.21337 12.3219
H -8.39556 -3.48153 12.6497
H -9.26712 -3.06203 11.334
O 2.4758 -8.20914 -8.94382
H 2.47281 -8.69638 -8.07052
H 2.69198 -8.84868 -9.68159
O -0.728882 2.03492 6.48515
H -1.15077 1.70966 5.63883
H -0.498247 1.25312 7.06451
O 1.00775 -5.10412 11.5249
H 0.358968 -4.37405 11.7397
H 1.66553 -4.77656 10.8466
O 0.224949 9.58775 -5.34327
H 0.188238 9.552 -4.34456
H 1.16258 9.77566 -5.63584
O -5.23803 6.74303 -8.44043
H -6.14064 7.15407 -8.5685
H -5.16339 5.92036 -9.00407
O -6.56693 -3.90522 -3.3065
H -7.07003 -3.13663 -3.70174
H -6.80002 -4.7443 -3.79811
O -11.1956 9.0483 13.3321
H -10.7659 9.92578 13.1189
H -11.6918 9.12159 14.1972
O -7.39309 3.31477 -12.1671
H -8.30274 2.9812 -12.4148
H -6.7011 2.67424 -12.5002
O -7.22064 3.61196 -9.30825
H -8.19412 3.49551 -9.11117
H -7.07463 3.58042 -10.2971
O -11.059 -14.4196 3.79844
H -10.2265 -13.9107 4.01736
H -10.8331 14.5061 3.65768
O 0.7244 3.84759 10.5033
H 1.21765 3.43315 9.73843
H 0.747674 4.8434 10.4145
O -14.3933 14.8897 10.738
H -14.8959 14.4287 11.4695
H -13.734 14.2548 10.3351
O -2.41086 -12.3675 7.71255
H -2.13525 -13.328 7.75135
H -3.29025 -12.2541 8.17504
O -10.9281 12.6959 3.61499
H -11.3574 12.28 4.41673
H -10.476 11.987 3.0736
O -7.62088 12.2432 -1.7847
H -6.89893 11.9827 -1.1436
H -8.40661 12.596 -1.27651
O 10.1761 10.6676 -0.389093
H 10.418 9.70692 -0.252688
H 9.18226 10.7545 -0.458487
O 10.5242 9.68695 7.18382
H 11.1583 8.92066 7.28748
H 9.66136 9.46969 7.64032
O -8.80471 -3.14955 4.64547
H -9.48434 -2.71244 5.23463
H -8.69185 -2.61108 3.81038
O 5.53049 11.0368 12.3679
H 5.11468 10.3922 11.7264
H 5.33814 11.9725 12.072
O 0.518542 6.418 10.9752
H -0.291878 6.77849 11.4371
H 0.649104 6.8982 10.1078
O 13.2678 -8.4994 8.63156
H 13.1139 -9.48724 8.65514
H 14.2429 -8.31685 8.50573
O -0.899427 7.42762 0.0817192
H -0.0896288 6.93654 0.402843
H -1.72113 6.99091 0.447981
O -12.8662 5.52383 14.2211
H -13.7217 5.83719 14.6334
H -12.69 6.04231 13.3843
O 11.4666 9.26448 2.02036
H 12.0024 9.39087 1.18549
H 10.5164 9.52537 1.84934
O -9.04514 2.20247 14.2291
H -8.64022 2.67227 13.4446
H -9.17079 2.85258 -14.9112
O -2.90013 13.2914 -0.724934
H -2.1311 13.8989 -0.923772
H -3.71988 13.8372 -0.551285
O -6.40466 13.5181 -3.99227
H -5.50666 13.1675 -3.7262
H -7.10225 13.1472 -3.37915
O 2.18462 14.1271 -14.2768
H 2.97868 14.7205 -14.4084
H 2.48786 13.1775 -14.1962
O 2.43248 -2.44966 0.559404
H 1.92264 -2.12361 1.35552
H 3.27511 -2.89474 0.862621
O 14.2475 12.5916 8.07823
H -14.6914 12.7172 8.36175
H 14.1947 12.5914 7.07959
O -4.34271 -14.1247 2.31572
H -3.34904 -14.0559 2.40483
H -4.63017 14.8262 2.50595
O 14.9081 13.9435 -2.44021
H 14.7086 13.614 -1.51731
H 14.5245 14.8596 -2.55725
O 4.93051 5.77395 -9.3105
H 5.64622 5.44816 -9.9283
H 4.05532 5.36513 -9.56926
O 11.1272 0.20662 -11.9683
H 11.5395 -0.703907 -11.9998
H 11.6663 0.795937 -11.3664
O 0.0433983 0.163723 -5.70642
H -0.565825 0.667555 -6.31884
H -0.409759 -0.673451 -5.40007
O 6.72551 -5.34104 -10.0684
H 6.91768 -4.39719 -9.79957
H 6.09038 -5.34487 -10.8408
O 10.461 -3.29284 5.29168
H 9.69245 -3.62112 4.74243
H 11.052 -4.06294 5.5319
O -14.1034 -0.922914 -5.4112
H -13.304 -0.322101 -5.41631
H -14.1937 -1.3499 -4.51143
O -9.83411 4.9268 12.0872
H -9.20105 5.70053 12.1123
H -10.0816 4.66822 13.021
O -11.2996 4.47513 -10.8405
H -11.447 3.84015 -11.5989
H -11.6176 5.38641 -11.1022
O 6.63499 12.5443 -4.39203
H 6.63109 13.515 -4.15135
H 6.72328 12.4471 -5.38339
O -1.76205 -13.3751 -11.9469
H -1.07713 -14.1036 -11.9646
H -2.13355 -13.2894 -11.0224
O -8.97398 9.93547 3.56226
H -9.76758 9.33914 3.44126
H -8.65538 9.87847 4.50846
O -8.44346 5.39974 -6.0008
H -9.32992 5.68783 -6.36308
H -8.21714 4.49266 -6.35581
O -7.50411 2.72077 1.74085
H -7.79666 2.19066 2.53675
H -8.16613 2.60349 1.00057
O -11.5365 -8.18748 13.2869
H -11.1308 -8.48561 12.4229
H -10.8166 -7.854 13.8956
O 6.74292 -6.56101 7.0709
H 7.34594 -6.17432 7.76867
H 6.56491 -5.87404 6.36632
O 5.71939 1.41208 -14.2871
H 5.09348 2.11957 -13.9588
H 6.10705 0.921719 -13.5065
O 10.9768 -13.9182 13.46
H 11.0988 -13.1792 14.1227
H 10.3019 -14.5693 13.8073
O -1.7342 -9.14653 -0.0300644
H -1.11823 -9.7607 -0.523455
H -1.75577 -9.40196 0.936553
O -10.9136 -3.37116 2.57033
H -11.5376 -2.74238 2.10632
H -10.9785 -3.23606 3.55906
O 6.87858 -6.7353 -4.80472
H 6.32373 -6.74423 -5.63665
H 6.37789 -7.18539 -4.06527
O 3.01283 9.53391 8.01664
H 3.21897 8.83385 7.33292
H 2.94496 9.1086 8.91917
O 3.94931 5.88148 -12.4334
H 4.27891 6.15009 -13.3386
H 3.55777 6.67736 -11.9715
O -6.89324 5.12877 12.2932
H -6.03589 5.57676 12.0396
H -7.12716 5.36609 13.2361
O 8.43856 -13.4694 -5.71839
H 8.30807 -12.6663 -6.29976
H 8.75903 -14.2356 -6.27545
O -14.44 4.47472 5.65426
H -14.8723 3.63423 5.32765
H -14.9012 4.78561 6.48534
O 7.45579 -7.99607 4.77012
H 7.15277 -7.52271 3.94298
H 7.13941 -7.4951 5.57572
O 14.8973 9.20026 0.366208
H 14.6014 10.0672 -0.0349744
H -14.0948 8.95317 0.0010281
O 14.4178 -4.27563 6.00412
H -14.5843 -4.54029 5.62694
H 14.0981 -3.44325 5.55138
O 9.58059 -9.53116 6.20414
H 10.3767 -8.9518 6.02933
H 8.77579 -9.13355 5.76339
O -0.609073 -5.87175 -14.1241
H 0.366729 -5.68316 -14.0132
H -0.982444 -6.21435 -13.262
O 8.68382 -12.4233 -8.17314
H 9.30852 -12.1423 -8.9017
H 8.20305 -13.2557 -8.44897
O -10.3081 5.08285 0.29331
H -10.3873 4.2848 0.890723
H -9.68844 4.87293 -0.462977
O 2.22883 -6.89603 13.3535
H 3.11409 -6.45112 13.4893
H 1.63326 -6.29688 12.8184
O 4.26212 -0.570139 -4.04819
H 3.39124 -0.560568 -4.53965
H 4.0896 -0.639595 -3.0656
O -0.781551 10.3739 1.8108
H -0.399985 9.49233 1.53268
H -0.119784 10.8578 2.38349
O 13.104 -1.93884 -12.2785
H 12.6727 -2.07311 -13.1707
H 13.2759 -2.82792 -11.8542
O -3.21189 -10.588 -14.1932
H -3.16812 -10.1434 14.8018
H -2.67486 -10.0626 -13.5332
O 13.3705 -8.73441 -7.57978
H 13.4105 -8.97029 -6.6088
H 13.5643 -9.54759 -8.12862
O 7.88717 -14.7712 -9.25049
H 6.91483 -14.5398 -9.21807
H 8.15319 14.9282 -10.1955
O 7.44217 12.2224 1.6058
H 7.81873 12.5231 0.729542
H 6.72397 12.8554 1.89482
O 4.50519 11.5712 -6.83673
H 5.10703 11.0704 -6.2146
H 5.02527 11.8659 -7.63844
O 9.05832 0.978845 -0.00428958
H 8.85693 1.85468 -0.442937
H 10.009 0.972245 0.30598
O -4.99504 0.999339 4.76419
H -4.51358 0.574317 3.99763
H -5.1285 0.324064 5.48962
O -3.79452 -5.65134 -9.23572
H -3.38251 -5.11406 -8.49975
H -3.31783 -5.46151 -10.0941
O 8.84204 13.871 11.738
H 8.30969 13.6235 10.9284
H 8.34281 14.556 12.2686
O -3.1272 -6.32078 14.3663
H -2.16212 -6.31222 14.6282
H -3.37773 -7.23463 14.0467
O 7.38977 12.0411 -7.05966
H 8.28414 12.488 -7.03862
H 7.01289 12.093 -7.9845
O 12.4314 5.74902 -13.1934
H 11.703 5.06389 -13.1954
H 12.0472 6.6434 -12.9642
O -7.62733 13.3957 4.76349
H -8.11523 12.9452 5.51116
H -6.99472 12.7474 4.33979
O 13.1249 1.84513 11.7062
H 12.5656 2.63223 11.9666
H 13.023 1.67347 10.7263
O 10.9984 14.139 -12.131
H 10.9257 13.5573 -11.3207
H 11.8834 14.6047 -12.1287
O -5.73885 9.46221 -14.3449
H -5.58652 9.01211 -13.465
H -6.13202 10.3689 -14.1919
O -1.99395 -13.4251 0.0470746
H -1.68097 -14.308 -0.302859
H -1.20288 -12.8613 0.284688
O 12.6323 11.9036 -5.33182
H 12.2904 12.0894 -4.41059
H 11.898 11.5136 -5.88747
O 12.7786 4.19093 -6.16094
H 12.2161 3.39272 -5.94508
H 12.2083 4.89658 -6.58158
O -13.5898 7.33885 -6.22879
H -14.2247 6.86567 -5.61804
H -14.0095 7.44258 -7.13054
O -1.19747 -11.8181 10.2395
H -0.45601 -12.4716 10.3923
H -1.59317 -11.9689 9.33354
O 14.3475 7.94277 10.7475
H 14.6055 8.60665 10.0455
H -14.7179 7.5803 11.1825
O -9.57188 -5.26572 7.68672
H -10.3813 -4.733 7.43967
H -8.90448 -5.2221 6.94326
O -13.0905 11.7124 -12.5069
H -13.7972 12.4191 -12.542
H -12.9776 11.4005 -11.5635
O -6.23897 -6.72662 -11.783
H -5.99468 -7.65432 -12.0654
H -5.50356 -6.0972 -12.0341
O -14.3341 13.2717 -9.60737
H -14.5283 13.4659 -10.569
H -14.0448 14.1123 -9.1494
O 9.67713 -2.67659 1.33638
H 8.68895 -2.56944 1.22651
H 9.98832 -2.12441 2.10989
O -5.2923 4.36364 2.12602
H -5.13074 4.21612 3.10183
H -6.05708 3.79399 1.82493
O 6.15329 -12.0061 -11.7615
H 6.8592 -11.4609 -11.3093
H 5.25154 -11.638 -11.5348
O -1.66715 -7.80168 -6.64323
H -1.94365 -8.09887 -5.72929
H -1.40268 -6.83769 -6.61447
O 7.40928 5.90325 -10.933
H 7.82922 6.71178 -11.3453
H 7.47995 5.1318 -11.5654
O -11.6209 9.05103 -13.2688
H -11.8657 10.0206 -13.2604
H -11.2104 8.80333 -12.3912
O 11.3805 -9.5401 -1.07131
H 10.4569 -9.24079 -0.831389
H 11.3488 -10.074 -1.9163
O 12.1061 -8.05876 5.92838
H 11.9189 -7.07948 5.85071
H 12.5921 -8.23841 6.78368
O 5.38641 12.5494 -1.55967
H 5.57263 11.8568 -0.862752
H 6.03629 12.4475 -2.31289
O 4.02419 -10.9515 10.9475
H 4.64182 -11.7291 10.8297
H 3.36475 -10.9327 10.196
O 12.1469 7.65486 3.95867
H 13.0618 7.79695 4.33682
H 11.9036 8.42949 3.3749
O 14.4575 3.38231 -11.8597
H 14.5328 4.31207 -12.2202
H -14.6456 2.84329 -12.161
O 11.4169 -13.6706 -4.20235
H 10.6701 -13.2716 -3.67037
H 12.2852 -13.5042 -3.73487
O 9.79403 -6.21384 -2.21733
H 10.6485 -6.02269 -1.73415
H 9.91765 -7.00881 -2.8113
O -8.59005 8.88134 10.0657
H -9.13039 9.54924 9.55381
H -7.61768 9.03237 9.88747
O -5.33731 2.84861 -5.71524
H -4.77523 2.53854 -4.94844
H -4.87078 3.59484 -6.19017
O 10.2947 -1.69096 7.34321
H 10.2676 -2.13989 6.45002
H 11.2278 -1.71857 7.70197
O 4.63102 -8.59951 7.72086
H 5.35423 -7.91003 7.68033
H 3.75719 -8.15481 7.91763
O 4.3189 -5.87517 4.22629
H 3.69434 -5.20218 3.82997
H 5.10412 -5.40465 4.62892
O 12.4809 -12.5552 11.1348
H 12.0411 -12.9079 11.9608
H 12.6214 -13.3036 10.4865
O -12.7066 -7.39724 -0.447083
H -13.5283 -7.6853 0.0447691
H -12.5865 -7.96878 -1.25886
O 6.85039 -0.0111571 -3.56966
H 7.13739 -0.511234 -2.75258
H 5.87299 -0.156589 -3.7233
O 2.6315 -2.6549 -13.4341
H 1.84464 -3.26709 -13.5125
H 3.42547 -3.17187 -13.1141
O -5.54368 -0.346434 -4.33145
H -5.06064 0.458403 -3.98653
H -5.2869 -0.5062 -5.28465
O -8.51878 0.763558 7.18419
H -8.54398 0.605602 8.17134
H -9.44883 0.906639 6.84567
O 9.35795 10.8198 -4.45146
H 9.2708 11.8155 -4.48443
H 8.96182 10.4229 -5.27949
O -3.17636 8.18635 10.4942
H -3.60189 7.49952 11.0835
H -2.605 7.73153 9.81106
O -8.70868 -9.63204 -0.519526
H -9.3591 -9.17244 0.0852763
H -7.79805 -9.6118 -0.106736
O 3.96043 -1.18829 -10.6836
H 4.58074 -1.05998 -11.4574
H 3.06058 -0.816982 -10.9126
O 12.647 5.69234 10.0784
H 12.0815 5.3087 10.8086
H 12.6982 6.68553 10.1834
O 3.09906 6.58092 -1.45941
H 3.27427 7.56288 -1.38793
H 2.69382 6.37868 -2.351
O 4.1864 6.41465 14.3052
H 5.12542 6.65523 14.0594
H 3.67982 7.24472 14.5385
O -9.68231 7.00727 8.33821
H -9.20703 7.51973 9.05345
H -9.28925 7.23552 7.44744
O -5.56239 4.96522 -0.915176
H -5.28667 5.9054 -1.11542
H -5.1331 4.66632 -0.0628731
O 2.78414 4.31651 2.6383
H 3.73036 4.25526 2.95606
H 2.16448 4.23698 3.41917
O 8.38637 2.45855 -2.68076
H 8.01405 1.65221 -3.14039
H 8.70364 3.11538 -3.36484
O 9.3366 -4.34699 -8.33497
H 8.88962 -5.12706 -7.89705
H 10.0265 -3.96857 -7.71785
O 8.61125 6.24423 1.66314
H 8.71384 6.91244 2.40004
H 8.35128 6.71506 0.820054
O -8.69822 2.25282 -2.33227
H -8.18934 2.07205 -3.17395
H -9.1557 1.41544 -2.03299
O -7.57728 8.94411 -6.5748
H -8.36187 8.95889 -5.95491
H -6.99036 8.16594 -6.35111
O -12.3074 -13.9809 -10.1904
H -13.0931 -13.8246 -9.59178
H -12.5437 -14.6672 -10.8782
O 11.9019 11.3764 14.1571
H 12.8346 11.0721 13.9635
H 11.3409 11.275 13.3355
O 5.99532 7.68879 2.78528
H 5.09281 7.25878 2.80999
H 6.36361 7.63765 1.85695
O 3.46035 -9.37574 -6.54896
H 3.37958 -9.50508 -5.56063
H 3.94546 -10.1537 -6.94839
O 6.52751 -1.86129 9.78248
H 7.27463 -2.25496 9.24686
H 6.23978 -2.5141 10.4833
O 13.0247 1.38233 8.80156
H 13.9168 1.77916 8.58541
H 12.3027 2.02289 8.53988
O 8.38522 -12.8016 11.1841
H 7.54079 -13.2966 10.9791
H 9.17145 -13.359 10.9172
O 7.35944 -11.7081 5.75701
H 7.59533 -11.2868 4.88127
H 8.08069 -12.3471 6.0245
O 2.05288 11.8284 12.8598
H 2.34787 12.3903 12.087
H 2.65997 11.9873 13.6384
O -8.88499 -12.559 4.42181
H -8.18187 -11.9313 4.75585
H -9.28885 -12.1918 3.5839
O 10.4316 -3.84483 11.455
H 9.6341 -4.0477 10.8868
H 11.2321 -3.71182 10.8706
O -7.03657 -3.46753 1.96392
H -7.59091 -4.29818 2.0167
H -7.55971 -2.69432 2.32243
O -3.12275 -2.55998 -10.6149
H -3.44537 -3.19939 -11.3129
H -2.31346 -2.93791 -10.1652
O 4.36753 -4.41979 -3.50785
H 5.11616 -4.9667 -3.133
H 4.63639 -3.45682 -3.52906
O -9.8957 6.58439 5.32755
H -10.0019 7.39596 4.75298
H -9.46992 5.85259 4.79534
O 14.266 1.13187 -8.16818
H 13.7909 0.380198 -7.71065
H 13.7095 1.46334 -8.93006
O 3.70202 -0.803849 -1.43753
H 4.21547 -0.107409 -0.936135
H 3.30941 -1.45828 -0.791286
O -1.77414 11.8807 4.71851
H -1.94983 11.0767 4.15039
H -2.4722 11.9438 5.4318
O 13.1336 -4.71514 -3.17235
H 13.0103 -5.2777 -3.98989
H 12.8022 -5.21394 -2.37142
O 10.5439 -5.25637 13.7486
H 11.3322 -4.77131 14.1272
H 10.2324 -4.7907 12.9202
O -4.05787 -8.45944 10.9062
H -3.18655 -8.21432 10.4811
H -4.7663 -7.82021 10.607
O 3.67454 2.81531 10.7815
H 4.32387 2.21641 11.2503
H 3.30383 3.47872 11.4315
O 10.7347 7.66519 13.5225
H 10.3483 7.65681 12.6002
H 10.2053 7.05428 14.1113
O 10.9951 10.3705 -7.3442
H 11.7875 9.85189 -7.02282
H 10.3117 9.7404 -7.71312
O -3.82961 -2.71853 -3.68041
H -4.16536 -1.78415 -3.7998
H -4.60561 -3.34646 -3.62047
O 4.62124 -5.78043 -11.9899
H 3.87049 -5.64413 -11.3435
H 4.48801 -5.1888 -12.7851
O 11.3842 12.2176 -2.36241
H 10.8261 11.9349 -3.14254
H 10.9505 11.913 -1.5144
O -8.4026 -0.944592 -6.42015
H -9.02912 -1.24373 -5.7004
H -8.92758 -0.665435 -7.22422
O -2.98067 -14.8838 -7.02876
H -3.87043 -14.8579 -6.573
H -2.81223 14.0845 -7.37906
O -10.789 -12.5872 -0.143317
H -10.4675 -12.0925 -0.950757
H -10.0056 -12.8524 0.418896
O 6.48779 0.820306 1.15727
H 5.78053 1.10797 0.51144
H 7.36205 0.737118 0.678944
O -14.5253 -5.49361 -7.13002
H -14.292 -4.52798 -7.24498
H -14.3912 -5.97436 -7.9966
O 6.03226 2.02628 -10.5832
H 5.98389 1.08498 -10.9173
H 6.18416 2.02172 -9.59475
O 4.08124 0.27237 8.60332
H 3.76918 -0.677585 8.61933
H 3.88569 0.672411 7.7079
O 1.31227 9.56208 4.47583
H 1.04121 8.62781 4.70762
H 1.88331 9.54953 3.65497
O 4.28848 -5.20282 10.5427
H 4.68518 -6.11144 10.6734
H 4.79951 -4.535 11.084
O 12.8173 -0.758364 -6.99053
H 12.642 -1.383 -7.75155
H 13.1656 -1.27526 -6.2085
O 1.03573 13.5689 0.733311
H 1.70583 14.2499 1.02869
H 0.691862 13.0722 1.53021
O 6.13653 -7.32635 12.4421
H 6.96343 -7.47089 11.8986
H 5.34162 -7.65856 11.9344
O 14.6142 13.885 -5.19387
H 13.8153 13.3404 -5.44904
H 14.666 13.9543 -4.19759
O -12.6021 -0.233423 5.20433
H -12.9759 -0.200769 6.13128
H -11.9454 0.510949 5.08336
O 5.81724 -3.47442 12.0438
H 5.17112 -2.90534 12.5525
H 6.27119 -4.10631 12.6721
O 8.58854 6.301 -4.20897
H 7.86815 6.95282 -4.44607
H 9.45291 6.78906 -4.08759
O -2.15414 -4.6852 -2.60841
H -2.95035 -5.12791 -2.19597
H -2.43486 -3.82606 -3.03635
O -12.725 13.0297 -5.57666
H -12.3349 12.9272 -4.66157
H -13.7217 13.0779 -5.51063
O -4.51989 11.785 -10.6995
H -4.15424 10.8636 -10.5678
H -5.41675 11.8533 -10.2624
O -3.09704 7.41487 -12.0413
H -2.78307 8.16369 -11.4576
H -4.0962 7.37626 -12.0254
O 5.00967 14.6734 -14.3591
H 5.77114 -14.5904 -14.1904
H 5.3379 13.7298 -14.3155
O 11.5237 5.70418 2.10133
H 10.5451 5.74493 1.89948
H 11.7721 6.46421 2.70192
O -5.6087 8.41264 -3.07088
H -6.36476 8.94793 -2.69419
H -5.85548 8.08256 -3.98204
O 8.62041 13.5621 4.75168
H 8.85115 12.6012 4.5989
H 9.2624 14.1428 4.25091
O 13.1858 7.10235 -0.858869
H 13.5947 6.27849 -0.466309
H 13.674 7.90854 -0.524619
O 1.60781 5.53804 -3.53913
H 0.782353 6.0377 -3.27642
H 1.37033 4.59003 -3.7511
O -6.75041 -12.1982 13.1724
H -5.76143 -12.302 13.0665
H -7.19401 -13.0857 13.0475
O 5.89793 12.1605 6.77693
H 5.89527 11.7988 5.84462
H 6.79717 12.547 6.98194
O -2.6707 -6.70414 2.13997
H -3.41236 -6.04636 2.00831
H -2.54116 -7.23276 1.30102
O -5.82379 7.3743 -12.1674
H -6.43529 7.37941 -11.3762
H -5.3624 6.48903 -12.2264
O 7.24965 3.92269 2.18378
H 7.67747 4.82586 2.22006
H 6.92151 3.74634 1.25573
O -12.6087 6.12605 -12.801
H -12.3148 6.69113 -13.5719
H -13.5105 6.42763 -12.4913
O -13.859 -4.78742 -2.92853
H -14.8349 -4.88298 -3.12486
H -13.3367 -5.38694 -3.53504
O -9.39363 11.6298 1.461
H -8.85758 11.1903 2.18175
H -9.66276 10.9467 0.782062
O 13.123 -7.38722 -1.33522
H 13.8887 -7.90064 -1.7227
H 12.3347 -7.99346 -1.22935
O 14.3061 1.96833 4.18899
H 14.8769 1.66471 3.42605
H 13.6342 2.63161 3.85927
O -4.05035 7.65867 5.43046
H -4.54109 7.76937 4.56618
H -3.65165 8.53468 5.70195
O 6.29027 1.20812 -7.88415
H 6.31777 0.208674 -7.86413
H 5.65359 1.53809 -7.18714
O -0.80088 -9.74892 11.8349
H -0.564938 -10.4981 11.2159
H -1.77096 -9.80481 12.0713
O -7.71688 -9.06844 -14.1738
H -6.83667 -9.1284 -13.703
H -7.57582 -9.17099 14.7312
O -1.53891 -1.94129 -8.05221
H -1.37989 -1.53876 -7.15069
H -1.41446 -1.24197 -8.75615
O -2.16205 3.88273 10.9503
H -2.36806 2.94305 11.2235
H -1.1848 3.96653 10.7554
O 13.8595 -9.75759 -5.06449
H 14.4264 -9.52491 -4.27422
H 14.3836 -10.3324 -5.693
O -4.97573 -11.981 -7.08866
H -5.80212 -11.7507 -6.57471
H -5.03846 -11.5972 -8.00998
O 0.450954 14.2083 -4.01799
H -0.070591 -14.913 -4.38906
H 0.356212 13.4179 -4.62322
O -2.30424 4.0222 7.05171
H -2.74979 4.40514 6.24245
H -1.54593 3.43509 6.76829
O 9.26612 -11.7155 -12.6569
H 9.09096 -10.9752 -12.0078
H 8.66379 -11.614 -13.4487
O -3.272 -8.63686 -4.49563
H -4.15034 -8.23073 -4.7479
H -3.33494 -9.63291 -4.5587
O -11.2353 0.113571 -2.92039
H -11.5026 -0.165993 -3.84259
H -11.8834 0.793446 -2.57718
O -0.971369 -4.78096 -10.2894
H -0.678506 -5.7358 -10.2387
H -0.207358 -4.18447 -10.0434
O 10.2629 10.9669 11.87
H 9.91182 11.9028 11.9015
H 10.9725 10.9005 11.1685
O -13.3779 -12.7335 2.95647
H -12.4388 -13.045 3.1018
H -13.8381 -12.6391 3.83925
O 2.88698 8.87265 14.1737
H 3.35076 9.65119 14.5966
H 2.46386 9.16281 13.3153
O -12.786 1.84484 -1.34651
H -12.1983 2.4285 -0.786123
H -13.194 1.13424 -0.77329
O 8.58847 13.2425 -0.565589
H 9.13514 13.0871 -1.38843
H 9.16807 13.6298 0.151428
O -11.141 -2.23039 14.0792
H -11.3724 -1.25777 14.0573
H -10.604 -2.46359 13.2684
O 6.91236 8.20199 -5.33982
H 6.32605 7.51377 -5.76719
H 6.34952 8.83789 -4.81172
O -5.92702 -14.699 -14.4723
H -5.19294 -14.1793 -14.0351
H -5.53567 14.4216 14.9121
O 4.76121 1.61737 -0.948624
H 4.49302 2.45385 -0.470689
H 4.6785 1.75622 -1.93551
O 8.58664 10.5557 -13.7406
H 9.53464 10.346 -13.9802
H 8.56169 11.0227 -12.8567
O 10.7639 4.52085 11.9501
H 10.1865 3.73878 11.7155
H 11.0197 4.46863 12.9154
O -1.24427 -0.921174 -14.4435
H -1.2583 -0.609865 14.4959
H -1.38355 -1.91105 -14.415
O -0.721332 14.5126 -1.25603
H -0.162376 14.1526 -0.509048
H -0.197861 14.4843 -2.10764
O -14.21 -2.63424 -7.60254
H -14.2723 -1.89986 -6.92662
H -13.9238 -2.25422 -8.48218
O 11.8807 -5.33954 6.33881
H 11.6568 -5.34729 7.31342
H 12.8237 -5.03012 6.21589
O -1.50722 -1.97745 -5.12334
H -2.45398 -2.26273 -4.97391
H -0.894707 -2.74694 -4.94231
O -11.696 -5.52949 -11.0256
H -12.3382 -5.34029 -11.7684
H -11.485 -6.50685 -11.0082
O 3.4396 -10.7802 -10.4278
H 2.70415 -11.3849 -10.7336
H 3.8279 -10.3027 -11.216
O 13.6592 -13.466 -2.59878
H 14.3705 -12.7836 -2.43002
H 13.1931 -13.6808 -1.74052
O 0.458639 -7.33104 -10.595
H 0.895978 -7.83537 -9.85043
H 0.739329 -7.72135 -11.4719
O 2.56516 -13.6962 -1.84836
H 1.78426 -13.3506 -1.32796
H 2.24194 -14.3217 -2.55852
O 12.4474 -5.62304 -8.11184
H 12.0852 -5.14534 -7.31142
H 13.4241 -5.42811 -8.20271
O -12.1303 2.71932 3.97573
H -12.0627 3.68055 3.70831
H -11.4763 2.53033 4.70825
O 7.05651 -6.16135 -1.50283
H 7.81982 -6.0437 -2.13811
H 6.59639 -7.02893 -1.69166
O -10.2035 9.9323 -0.637681
H -11.0689 9.47005 -0.83149
H -9.57592 9.80017 -1.40494
O 3.63461 7.69861 5.84723
H 3.27316 7.68925 4.91485
H 3.26316 6.92227 6.35653
O 2.54318 -9.41839 1.31975
H 2.10761 -9.3494 2.21728
H 2.81576 -10.3661 1.15349
O -0.929318 3.78388 2.52816
H -1.44233 4.36527 3.15971
H -0.732685 4.2938 1.69067
O 0.620959 12.5258 3.26466
H -0.199674 12.4404 3.82975
H 1.41351 12.6933 3.85106
O -10.6404 13.6586 -8.66336
H -11.484 13.1897 -8.40175
H -10.7346 14.6382 -8.48547
O 14.0041 2.14473 0.828975
H 14.1735 1.19338 0.5715
H 13.3131 2.17659 1.55113
O -0.829661 14.0684 11.8691
H -0.240384 14.7636 11.4573
H -0.807847 14.1602 12.8647
O 4.55481 -4.03263 1.05751
H 5.47309 -4.2175 0.707281
H 4.05225 -4.89271 1.14556
O 0.796844 14.693 -12.0684
H 1.47012 14.353 -12.725
H 0.133143 13.9723 -11.8681
O -2.79472 -11.6154 3.11886
H -3.50533 -11.8108 3.79483
H -2.81222 -10.6424 2.88852
O -3.73219 1.67702 8.53456
H -4.65484 2.06218 8.51414
H -3.07484 2.37065 8.23989
O 6.28565 -0.525825 -12.3554
H 7.04596 -0.114781 -11.8524
H 6.4708 -1.49725 -12.5041
O -12.4305 8.35547 7.70304
H -12.5192 8.55599 6.72734
H -12.4388 7.36516 7.8419
O 10.8402 8.25226 10.3357
H 9.93546 7.88151 10.1258
H 10.7623 8.92467 11.0718
O -7.14321 -9.93262 8.45244
H -6.63187 -9.10178 8.67221
H -7.26999 -9.99391 7.46238
O -4.79111 -14.6932 10.7404
H -5.55428 14.7497 10.2735
H -4.34791 14.5436 11.3546
O -3.25375 2.99009 14.7705
H -2.27165 3.13858 14.6544
H -3.75844 3.70599 14.288
O 4.26507 4.21906 0.0187432
H 4.03945 5.02089 -0.534631
H 4.01437 4.39038 0.971558
O 10.4699 3.7628 -12.8347
H 10.7612 2.85141 -13.1256
H 9.4738 3.78285 -12.749
O -9.90338 -7.45305 4.70513
H -10.2853 -7.77949 5.56978
H -10.6439 -7.29713 4.05138
O 2.15956 13.5955 -6.67593
H 2.89429 12.9324 -6.53273
H 2.02039 14.1248 -5.83891
O -11.5241 5.74137 9.99039
H -10.9828 6.31032 9.37123
H -10.9126 5.23904 10.6018
O -13.4339 -9.12525 6.21245
H -13.6412 -9.91148 6.79462
H -12.6226 -8.65649 6.56186
O 10.5569 3.19802 -9.45753
H 10.1823 2.34542 -9.09317
H 10.2073 3.96969 -8.92616
O 8.0334 7.545 10.4151
H 8.01354 8.30424 11.0656
H 7.59142 7.82472 9.56275
O -6.19268 -11.7394 -11.8246
H -5.61626 -12.3647 -12.3506
H -7.08725 -11.6607 -12.2646
O 10.493 -11.8166 -9.9616
H 11.1206 -12.5942 -9.92338
H 11.0146 -10.9733 -10.0914
O 4.87236 -11.0107 6.68634
H 5.85755 -11.1584 6.59891
H 4.70565 -10.1426 7.15379
O -6.88742 14.0125 9.37258
H -6.42864 13.2549 8.90827
H -6.8209 14.8371 8.81073
O -12.4546 9.7328 -5.3704
H -12.8615 8.83791 -5.55407
H -12.792 10.079 -4.49498
O -0.767318 -10.6564 6.39973
H -0.238169 -11.1606 5.71721
H -1.34389 -11.2933 6.9116
O 2.25656 4.73216 6.83435
H 2.14918 4.47756 5.87325
H 2.36613 3.9064 7.38768
O -14.4867 7.27782 -8.84664
H -14.2997 6.39513 -9.27784
H 14.444 7.52228 -8.98993
O -6.1129 6.68861 -5.54944
H -5.41032 6.28086 -6.13268
H -6.90025 6.07431 -5.49691
O 10.8984 -7.00569 -9.96112
H 11.3925 -6.41079 -9.32711
H 9.99631 -7.21754 -9.58501
O 0.425319 -0.703412 -10.0891
H -0.202284 -0.523594 -10.8466
H 0.821225 0.158593 -9.77242
O 11.3763 -2.32818 -9.29887
H 11.7041 -2.22891 -10.2384
H 11.4522 -3.28517 -9.01873
O 5.34957 -13.9703 6.44067
H 5.61016 -13.0057 6.39907
H 6.15352 -14.5403 6.27113
O -6.96894 8.63138 5.11161
H -7.36895 8.20203 5.92137
H -6.90972 7.95971 4.37309
O -3.73305 0.128847 -10.7573
H -4.04677 -0.0151258 -9.81874
H -3.25274 -0.687877 -11.0772
O 5.10424 4.31166 3.90998
H 5.81495 4.04698 3.25815
H 5.51243 4.44172 4.8136
O -13.95 1.81338 11.3462
H -14.8437 2.17211 11.6157
H -13.2461 2.18123 11.954
O 1.64624 -13.1891 -10.7077
H 2.36454 -13.5124 -10.0916
H 1.38278 -13.9272 -11.3289
O -5.46677 -3.02249 4.48972
H -6.09823 -2.85989 3.73152
H -5.39078 -4.0058 4.65519
O 8.74697 8.36256 -7.58033
H 8.10908 8.54912 -8.32755
H 8.25826 8.39667 -6.70851
O -7.08714 7.12291 14.4523
H -7.76556 7.47944 13.8099
H -7.09761 7.67286 -14.6022
O 1.89907 -14.1698 2.71138
H 2.51015 -14.6711 3.32406
H 1.23981 -13.6474 3.25227
O 11.3018 3.48944 8.73058
H 11.4372 4.37848 9.16801
H 10.5545 3.55368 8.06921
O -7.41968 14.8732 12.6768
H -7.77068 14.7844 13.6089
H -8.1157 14.5658 12.0278
O -4.28004 -0.925374 -6.91728
H -5.11622 -1.43566 -7.11846
H -3.51543 -1.32603 -7.42215
O 5.73179 10.2433 4.64582
H 6.18492 9.5287 4.11284
H 5.22869 9.8262 5.40276
O 3.23862 -3.11409 6.13647
H 4.19679 -2.8291 6.16361
H 3.04227 -3.53943 5.25296
O -12.9374 1.12009 -8.37679
H -12.4656 0.270585 -8.14059
H -13.9259 0.977511 -8.32626
O -14.2453 -2.77832 14.8832
H -14.7935 -2.06312 -14.5728
H -14.055 -2.52366 13.9351
O -8.22823 4.76859 -1.47908
H -7.2384 4.8881 -1.40157
H -8.43073 3.82389 -1.73714
O 2.65817 9.75124 1.87351
H 2.90333 10.6855 2.13253
H 2.25083 9.75455 0.960209
O -14.8462 4.71555 0.136342
H 14.7724 3.75701 0.224408
H -13.9216 4.76712 -0.241031
O -1.42319 14.5666 5.09059
H -1.34655 14.9367 4.16473
H -1.91544 13.6966 5.06209
O 14.0121 13.7592 12.7061
H 13.8201 12.7952 12.5221
H 14.1648 13.8875 13.686
O -7.30148 -9.6577 -6.38266
H -7.99432 -9.00271 -6.68434
H -6.4223 -9.19139 -6.28441
O 3.60287 2.06707 5.38475
H 2.86955 1.69927 4.81289
H 3.79108 3.0124 5.11831
O 5.74881 11.0489 -9.44737
H 4.79347 11.1349 -9.73016
H 5.97449 10.0823 -9.32526
O -7.68355 1.74621 -4.96216
H -7.01611 2.28405 -5.47725
H -7.55353 0.774785 -5.16087
O 5.65806 -1.87559 6.08805
H 6.11853 -1.30536 6.76839
H 5.66276 -1.4088 5.20367
O -6.44185 -2.58906 -6.80252
H -6.81264 -3.29433 -7.4068
H -7.17041 -1.95451 -6.54444
O -10.5108 2.42556 1.30826
H -10.4771 1.50264 0.924673
H -11.2578 2.48427 1.97048
O 4.32624 12.2664 3.38419
H 4.67751 11.4158 3.77554
H 3.56023 12.5959 3.93619
O -4.12285 -13.0524 -13.4316
H -3.27812 -13.2988 -12.9564
H -4.09454 -12.0845 -13.6815
O -6.66014 12.215 -8.70719
H -6.22921 11.9584 -7.84203
H -6.69652 13.2118 -8.77863
O 7.79284 -2.91681 -9.9415
H 8.45686 -3.43942 -9.4067
H 7.79982 -1.96293 -9.6413
O -0.680856 10.957 -9.77071
H 0.166384 10.6203 -10.1817
H -0.4839 11.7652 -9.21572
O -11.4537 -2.94556 -13.2286
H -12.0804 -3.71214 -13.0884
H -11.4669 -2.67598 -14.1915
O 1.78481 0.502075 10.6422
H 2.77593 0.441802 10.7609
H 1.33013 -0.013261 11.3687
O -1.19132 1.64513 -7.67664
H -0.620489 1.88564 -8.46173
H -1.88607 2.35149 -7.54081
O -11.1293 -10.2465 1.47394
H -12.1247 -10.2523 1.37881
H -10.721 -10.7875 0.738619
O 0.836725 -7.94144 3.17522
H 1.62724 -7.76993 3.76321
H 0.751329 -7.20196 2.50743
O 2.73333 4.90114 12.3291
H 1.90182 5.36335 12.0208
H 3.07346 5.34479 13.1582
O 8.56066 -13.6814 7.39586
H 9.47525 -13.5037 7.75917
H 8.36022 -14.659 7.46121
O -12.019 -13.4156 13.3066
H -12.1972 -12.4318 13.3277
H -11.6687 -13.6716 12.4056
O 8.02464 8.97529 7.98046
H 7.36978 9.60564 8.39746
H 7.54019 8.17115 7.6359
O 2.59679 12.8136 5.33929
H 2.62379 12.2721 6.17959
H 2.54945 13.7854 5.57038
O 14.5788 6.48446 -14.7769
H 13.9037 6.19412 -14.0987
H 14.1183 6.97408 14.3724
O -13.7797 11.0078 -3.17961
H -13.2972 11.8461 -2.92556
H -14.6832 11.0002 -2.75103
O -5.04163 4.71456 -12.3862
H -4.44958 3.926 -12.2198
H -5.99283 4.41116 -12.4429
O 5.54067 -3.30907 -13.4586
H 5.66222 -2.74129 -14.2728
H 6.4124 -3.38965 -12.9752
O 13.8241 -13.7576 1.40658
H 14.5308 -13.2405 0.923593
H 13.3009 -14.3006 0.749769
O 2.22715 6.61909 -6.00125
H 1.96348 6.53527 -5.04026
H 3.22177 6.5525 -6.08102
O 2.12963 5.95911 -8.65573
H 1.44325 6.458 -9.18493
H 2.10033 6.26135 -7.70292
O -13.4475 -12.6028 10.362
H -12.4682 -12.7017 10.5383
H -13.9263 -13.4252 10.6695
O -12.2216 11.9963 -0.397248
H -11.5428 11.2736 -0.26717
H -12.2587 12.5699 0.421036
O 10.3683 -8.1605 -6.78946
H 9.77691 -7.65735 -7.41963
H 11.3085 -8.14409 -7.12979
O 6.10218 -0.40147 3.78233
H 6.09217 0.352617 4.43908
H 6.43144 -0.0693192 2.89841
O -14.2622 -11.243 -6.59079
H -14.5703 -11.7865 -7.37163
H -13.6282 -10.5367 -6.90575
O 8.33433 -7.00576 -8.38107
H 7.79618 -7.80024 -8.09955
H 7.84411 -6.50759 -9.09632
O 14.5731 6.84798 2.08445
H 14.3793 7.69452 1.58861
H 14.5344 6.07466 1.45156
O 9.21483 -7.89746 -14.3263
H 9.39115 -7.11724 -14.9265
H 10.0768 -8.36046 -14.1196
O -10.2183 -2.00999 -10.9258
H -10.6144 -2.22006 -11.8197
H -9.31432 -2.43162 -10.8544
O -5.90967 -1.24337 6.52307
H -5.78875 -1.84105 5.73047