2593
Atoms. Timestep: 1000000
O -2.82262 -14.8565 -6.58249
H -3.74096 14.636 -6.68811
H -2.27562 14.7979 -7.39036
O -14.0077 -13.3819 14.254
H -13.4336 -12.7985 14.8285
H -14.0355 -13.0116 13.3255
O -12.6081 6.47745 14.169
H -13.1596 6.01412 14.8626
H -13.2105 6.9388 13.5176
O 13.328 3.56702 -5.37483
H 12.7525 4.32318 -5.6863
H 12.8958 3.11982 -4.59176
O -13.1511 -2.03831 5.90698
H -12.377 -2.65715 6.04066
H -13.996 -2.49714 6.18194
O -3.21498 -3.74354 -5.25619
H -3.46925 -2.79208 -5.0828
H -3.61547 -4.32928 -4.55156
O 11.0614 10.703 9.87842
H 10.1076 11.0025 9.90169
H 11.644 11.4148 10.2707
O -8.81869 12.6696 0.805412
H -8.76415 13.2695 0.00725996
H -8.5867 11.7348 0.536226
O -1.809 4.57415 -12.2893
H -2.51578 4.8875 -11.655
H -1.34746 3.77441 -11.9054
O -2.26271 1.13715 -9.6621
H -1.47749 1.29889 -9.06439
H -2.57424 0.192977 -9.55499
O 4.96973 -4.38152 10.0163
H 4.45484 -5.23044 10.1356
H 5.69467 -4.33208 10.7033
O 11.0323 -0.588454 10.7903
H 10.8132 -1.55556 10.9195
H 10.2451 -0.11875 10.3908
O -6.42946 -4.11328 -2.08419
H -6.46035 -3.75556 -1.15087
H -5.52712 -4.50646 -2.26075
O -7.3869 1.14861 -8.06504
H -6.59595 1.59107 -7.6424
H -7.56166 1.56149 -8.95889
O 11.2023 3.77244 7.91614
H 11.9498 4.43555 7.95506
H 10.6082 3.98501 7.14033
O -2.64326 -8.79494 1.73178
H -1.64959 -8.76331 1.83955
H -3.07008 -8.17854 2.39351
O 3.06448 1.88168 3.54835
H 3.24296 2.62212 4.19634
H 2.35388 2.16603 2.90477
O 6.19249 9.19982 14.3699
H 6.87165 8.57371 13.9869
H 6.27702 10.0935 13.9292
O -13.5469 -3.91346 0.457825
H -12.7116 -4.45125 0.343898
H -13.4039 -3.22134 1.16529
O 2.77337 -10.0334 -14.5468
H 2.32843 -10.632 14.661
H 2.21737 -9.98671 -13.717
O -12.1454 -13.1857 1.79323
H -12.2269 -12.9861 2.76972
H -12.8972 -12.7482 1.29975
O 0.0488726 -0.448828 11.7258
H 0.61514 -1.11266 12.2143
H -0.718366 -0.174552 12.3055
O 8.21185 2.71926 11.5456
H 8.76398 3.08211 12.2963
H 7.32944 3.18922 11.5234
O 11.4948 -10.7845 -13.4204
H 12.4232 -10.4734 -13.2172
H 11.5108 -11.7601 -13.6397
O -0.527063 -4.61404 -13.6014
H -0.364001 -5.24112 -14.3631
H -1.43025 -4.1965 -13.7009
O -6.08969 -10.7026 -9.64644
H -6.74705 -10.7167 -8.893
H -5.78648 -9.76328 -9.80669
O -4.91399 -14.099 11.0614
H -3.99911 -13.8727 10.727
H -5.58309 -13.9393 10.3355
O 9.58527 -5.85719 -2.03789
H 10.5674 -5.99475 -1.90933
H 9.09272 -6.67656 -1.7446
O -2.49889 -10.6597 10.8956
H -1.84697 -11.0249 10.231
H -2.72764 -11.369 11.5624
O 4.20003 -13.9796 -3.96426
H 4.96246 -13.345 -3.83774
H 3.40564 -13.4812 -4.31144
O -4.11657 9.10891 12.3981
H -3.4301 9.72467 12.7848
H -3.6704 8.45183 11.7905
O 4.85371 6.7946 1.19284
H 3.96216 6.61846 1.61011
H 4.83825 6.50095 0.237062
O -2.71258 -3.38429 13.2938
H -3.50328 -3.1764 12.718
H -2.81415 -4.30052 13.6813
O 3.19411 -7.29342 -14.819
H 3.03263 -8.27832 -14.7566
H 4.17837 -7.11691 -14.8274
O 1.77228 -2.66306 12.904
H 2.0433 -2.14776 13.717
H 2.44592 -3.3798 12.7237
O 10.7714 6.76612 9.76018
H 11.6381 6.60744 9.28735
H 10.0219 6.38408 9.21948
O -11.4493 10.5698 -6.48152
H -11.4758 11.4646 -6.03596
H -10.7559 10.5766 -7.20208
O 9.54106 6.85548 -0.877366
H 9.24318 6.97927 0.0691736
H 8.7705 7.01901 -1.49339
O 3.81721 -7.09598 -9.74794
H 4.29365 -7.58532 -9.0175
H 3.00785 -6.64366 -9.37332
O 3.06964 -3.91902 -2.65425
H 3.03197 -3.80512 -1.66148
H 3.92675 -3.53823 -3.00116
O 10.4115 13.4511 6.71952
H 10.6276 12.9873 5.86033
H 11.2583 13.6525 7.21174
O -6.96994 7.5188 5.23203
H -6.68908 8.47853 5.22612
H -7.42649 7.29979 4.36971
O 6.70846 -13.0454 1.95355
H 5.77507 -12.7952 1.69626
H 6.74073 -14.0172 2.18706
O 12.8006 12.6056 10.8305
H 12.0336 12.7856 11.4463
H 13.5657 12.2285 11.3524
O -11.9594 -7.47682 12.1601
H -11.5978 -7.19129 13.0476
H -12.7011 -6.86315 11.8894
O -3.42999 12.0894 5.02392
H -2.97757 12.1084 4.13232
H -2.74 12.0801 5.74768
O -7.58583 14.1699 -12.8794
H -8.02726 14.2667 -13.7715
H -8.02125 13.4271 -12.3709
O -13.3936 -13.0242 -10.9668
H -13.2915 -13.8606 -10.4283
H -14.2093 -13.0949 -11.5409
O -7.67214 -3.34571 9.64199
H -7.04765 -4.04255 9.99472
H -7.91125 -3.56095 8.69515
O -10.4255 5.10974 -3.50252
H -9.91055 5.7952 -2.98778
H -9.91929 4.86393 -4.32915
O 11.6093 10.3295 -3.38466
H 12.2213 9.61098 -3.05415
H 11.0481 10.6637 -2.62749
O -8.36992 -10.2503 -8.16681
H -8.75884 -9.68322 -8.89287
H -8.92807 -10.1642 -7.34155
O -2.7917 4.25465 -5.68616
H -3.05134 4.75801 -4.86202
H -1.95508 3.73591 -5.51019
O -9.89901 -8.17439 -9.6038
H -9.75578 -7.56848 -8.82127
H -10.7793 -8.63918 -9.50872
O -6.62972 7.06478 -5.16258
H -7.02371 7.62228 -5.89331
H -6.59721 6.10859 -5.45348
O -3.16286 -13.4976 5.20543
H -3.81307 -14.1893 5.51966
H -3.1985 -13.4353 4.20801
O 8.16358 -10.2153 12.0018
H 7.48583 -9.49679 11.8455
H 8.64269 -10.0401 12.8619
O 3.61157 13.1722 -3.5406
H 4.46419 12.7028 -3.31096
H 3.77204 14.1588 -3.57137
O -3.56361 -12.5469 -2.57918
H -4.34776 -12.585 -1.95979
H -3.05518 -13.4064 -2.52654
O 10.9685 -7.84474 7.73733
H 10.5192 -8.56068 8.27167
H 11.8088 -7.56147 8.19966
O -10.2751 -4.55019 -6.21771
H -10.438 -4.16278 -7.12511
H -10.2381 -3.81351 -5.5425
O -9.77126 2.39191 7.54957
H -9.62793 1.42843 7.32337
H -9.87851 2.48962 8.53898
O 13.6266 -6.39313 -8.91212
H 14.1197 -5.58359 -8.59351
H 13.4615 -6.3173 -9.89549
O -6.09839 -6.46922 -11.3751
H -5.66706 -7.13789 -10.7694
H -6.1926 -5.59692 -10.8952
O -9.04439 -1.86976 14.5728
H -8.45435 -1.12297 14.8796
H -8.83756 -2.08757 13.6189
O -14.0154 14.0006 -0.700323
H -13.0396 13.7926 -0.768466
H -14.1926 14.4924 0.152117
O 4.08056 4.85417 9.22209
H 4.57356 4.56565 8.4013
H 3.1285 5.05036 8.98737
O -13.2624 7.32812 0.61458
H -12.8123 8.12375 0.209067
H -12.6834 6.52139 0.49617
O -6.91912 3.33453 6.4271
H -7.82273 3.59609 6.08788
H -6.96639 3.17596 7.41332
O -3.33117 -6.43192 3.49648
H -4.0952 -6.01298 3.00584
H -2.53664 -5.82606 3.45588
O 2.39315 -9.06672 0.294798
H 2.60179 -8.13955 -0.0163467
H 2.28526 -9.6677 -0.497149
O -5.43906 13.1038 -14.5571
H -6.12587 13.5316 -13.9695
H -5.87383 12.7818 14.4758
O -11.2285 -12.6396 -7.83197
H -11.203 -13.2488 -7.03935
H -11.8218 -13.0318 -8.53488
O -2.88124 -5.43145 7.6504
H -2.57386 -4.80587 8.36745
H -2.09028 -5.89467 7.25064
O 9.21194 5.83415 -7.4423
H 8.79516 5.17758 -8.07095
H 9.00013 5.57421 -6.50019
O 11.6627 9.3228 -7.36399
H 11.7505 9.22758 -6.37242
H 12.5231 9.06167 -7.80148
O 13.1658 11.7557 -4.97148
H 12.5737 11.9196 -5.76047
H 12.6271 11.3623 -4.22646
O -1.62192 8.05039 13.0641
H -1.13694 7.76199 12.2385
H -1.46918 7.38119 13.7913
O -12.0647 3.89018 6.50936
H -11.9183 3.36303 7.34641
H -12.8905 4.44586 6.60559
O -14.4027 5.21913 6.74343
H 14.8049 4.61306 6.30906
H -14.7767 6.14526 6.79229
O 8.90711 1.00257 -14.9267
H 9.54908 1.05282 -14.1616
H 8.82635 1.90318 14.5202
O -13.1721 4.50514 -13.8611
H -13.8914 3.88281 -13.5526
H -12.3752 3.97551 -14.1519
O -6.56229 -7.7842 9.40653
H -6.1383 -7.06708 9.95967
H -6.34377 -8.67882 9.79628
O 13.253 -0.85262 7.98565
H 12.3472 -1.04301 7.60722
H 13.2581 0.0595971 8.39532
O 1.39797 -9.69262 -5.92293
H 1.91453 -10.3271 -6.49793
H 0.709411 -10.1986 -5.40349
O -14.6373 -5.55229 4.07302
H 14.4121 -4.98898 4.12601
H -14.596 -5.99944 3.17951
O 2.93889 0.958546 10.2255
H 1.97628 1.22433 10.1732
H 3.07133 0.0901158 9.74772
O 14.2473 0.854622 -5.64491
H -14.9034 0.84725 -4.9544
H 14.0127 1.79986 -5.87183
O 8.71326 1.76075 -10.2614
H 9.68006 1.51353 -10.326
H 8.4324 2.22952 -11.0989
O 11.3808 -1.42314 6.15596
H 10.6305 -2.08426 6.14882
H 11.3655 -0.892477 5.30851
O -2.76863 13.7342 -10.9022
H -3.14655 12.9808 -10.3641
H -2.12532 13.372 -11.5768
O 6.33553 5.96671 -10.5058
H 6.83834 6.82164 -10.6334
H 6.88113 5.33878 -9.95079
O 7.57894 4.03873 -8.90666
H 7.92286 3.17185 -9.26752
H 6.98333 3.86084 -8.12334
O -5.41863 7.63945 0.313254
H -5.27796 6.93722 1.01116
H -5.7453 8.47937 0.746637
O -13.5639 6.90157 4.7625
H -13.7974 6.21104 5.44707
H -12.6033 6.80212 4.50294
O -10.318 6.13412 5.97538
H -10.0696 6.43255 6.89694
H -10.3184 5.13484 5.93743
O 0.741947 -12.0548 10.9075
H 0.00760301 -11.7203 10.3168
H 0.838064 -13.0435 10.7925
O 13.0194 -0.864892 -0.359134
H 13.8307 -1.43055 -0.506782
H 12.408 -0.947257 -1.1461
O -4.98798 10.6376 -11.9065
H -4.41813 10.9855 -12.6509
H -5.20826 11.384 -11.2785
O 13.0065 13.6701 8.24841
H 12.9244 13.2764 9.16396
H 12.8299 14.6535 8.29137
O -1.51867 6.35936 -14.5539
H -1.55268 7.24739 -14.0953
H -1.68339 5.63311 -13.8865
O 3.01166 -1.51921 -0.706223
H 3.29357 -1.05915 -1.54817
H 2.92997 -0.846999 0.0296167
O 2.96001 -9.06301 -11.2334
H 2.50456 -8.47065 -11.898
H 3.59553 -8.52061 -10.684
O 0.845646 -5.0676 -3.80492
H 1.12027 -5.76455 -4.46737
H 1.66053 -4.65908 -3.39374
O -0.00379477 -6.91058 -9.74344
H 0.390685 -6.79053 -10.6545
H 0.0563118 -7.87294 -9.47837
O 6.92849 -2.23175 -5.62983
H 6.31649 -2.7822 -5.06197
H 6.45128 -1.95667 -6.46445
O 14.7626 12.8016 6.49413
H 14.5345 13.387 5.71608
H 14.1163 12.9698 7.23847
O -6.72685 6.20139 -13.465
H -6.0744 6.54058 -14.1427
H -7.64619 6.51654 -13.7005
O 2.08061 -13.6818 7.35609
H 2.76821 -13 7.60577
H 2.36575 -14.5804 7.68965
O 11.0401 1.23933 -13.2095
H 11.1944 1.1178 -12.229
H 11.5509 0.544616 -13.7159
O 3.48914 -4.76396 12.9734
H 3.57938 -5.45035 12.2518
H 3.84725 -5.13295 13.831
O 4.21158 0.299781 1.63999
H 5.17525 0.38917 1.89166
H 3.65017 0.826621 2.27815
O 1.81067 12.4982 6.01183
H 2.56327 12.9977 5.5827
H 1.15881 12.2103 5.31027
O 6.99031 -4.38256 11.9501
H 6.65018 -3.8546 12.7283
H 7.76004 -3.90076 11.5313
O 14.3844 14.1888 -10.7765
H 13.6887 14.3771 -10.0834
H 14.416 -14.9296 -11.4309
O 7.11421 -4.97844 3.20771
H 7.22724 -3.99692 3.36212
H 7.92085 -5.33699 2.73785
O -1.79291 12.8183 13.9893
H -1.01775 13.4302 13.8322
H -2.4309 12.8848 13.2221
O -14.7309 8.40289 12.6233
H 14.3429 8.98717 12.7588
H -14.8577 7.84954 11.8001
O 0.602532 3.07873 -7.23505
H 0.56031 2.22859 -7.75989
H 0.21169 2.92948 -6.32678
O -14.898 8.68426 -14.3844
H 14.4356 7.96404 -13.9493
H -14.6659 8.40932 14.5565
O 0.818209 -11.5522 2.86447
H 0.349064 -12.4344 2.82461
H 0.233646 -10.8843 3.32519
O -10.0927 5.16556 11.0671
H -9.85327 5.40673 12.0075
H -10.8322 5.75863 10.7488
O -7.61861 -12.3717 -5.99909
H -7.70637 -11.601 -6.63022
H -7.85607 -12.074 -5.07444
O -14.7299 12.4789 -14.6331
H -13.7647 12.7212 -14.7316
H -14.8533 11.9311 -13.8057
O -11.0138 -5.80264 -3.9272
H -10.379 -5.43234 -4.60531
H -11.861 -6.08003 -4.3803
O -3.6515 -6.16923 -6.43427
H -3.85896 -5.21628 -6.21327
H -2.79656 -6.213 -6.95113
O -4.42132 3.63551 -3.35142
H -5.26626 3.8434 -3.84422
H -4.46135 2.69971 -3.00119
O 3.72798 12.1178 -6.91588
H 3.73253 12.6254 -7.77744
H 3.35576 12.6963 -6.19011
O 8.38033 5.68882 8.80653
H 7.95217 4.8715 9.19209
H 8.41436 5.60885 7.81032
O 7.69849 -8.86008 4.30141
H 7.78261 -9.33154 3.42354
H 8.21486 -9.35812 4.99805
O -8.31064 11.2829 6.34036
H -7.40229 10.9222 6.12885
H -8.76579 10.6779 6.99362
O 3.67572 10.3059 13.9479
H 3.09626 10.4936 14.741
H 4.58812 10.0383 14.2576
O -12.9522 -10.1469 5.80957
H -13.9413 -10.2825 5.75235
H -12.7208 -9.75219 6.69876
O -5.12009 1.47578 -1.76121
H -5.5681 0.656805 -2.11978
H -5.73478 1.93974 -1.12333
O -4.30892 -0.996905 6.37308
H -4.97574 -0.434215 6.86167
H -3.48136 -1.08933 6.92678
O -0.472793 -10.5733 -4.08633
H -1.03231 -11.1777 -4.65345
H -1.06747 -10.0038 -3.51887
O 9.17733 -13.5607 -2.57382
H 8.38236 -14.0393 -2.94651
H 9.94078 -13.6325 -3.21568
O 6.9997 11.2934 0.822342
H 6.44974 10.5636 0.416262
H 7.85515 10.9111 1.17168
O -9.67117 -9.0727 11.698
H -9.91215 -9.90589 11.2003
H -10.4967 -8.53365 11.865
O 4.46884 -10.314 1.44243
H 4.27678 -11.2928 1.51334
H 3.62099 -9.8213 1.24649
O 13.676 -4.87624 0.180386
H 14.5543 -4.41886 0.0411204
H 13.8133 -5.70212 0.727261
O 11.7161 -4.21383 9.28064
H 12.5289 -3.63671 9.36005
H 11.9892 -5.17582 9.27975
O -0.295839 -3.25544 -5.54612
H 0.0574048 -3.88853 -4.85734
H -1.29411 -3.30984 -5.56806
O 1.16813 3.74439 -13.3078
H 1.69802 4.52803 -13.632
H 0.427594 4.06431 -12.7168
O 5.13393 -13.484 10.7197
H 4.6786 -14.2867 11.1048
H 4.91499 -12.6795 11.2719
O 1.38316 -13.9718 -9.43274
H 0.552334 -14.5104 -9.29279
H 1.93653 -13.9901 -8.60001
O 11.5946 -4.816 -5.6783
H 11.9305 -3.88177 -5.55838
H 10.6382 -4.86589 -5.39038
O 6.83179 -14.0479 8.66402
H 7.1138 14.8739 8.78187
H 6.11766 -13.8271 9.32831
O 1.68198 -10.1535 6.75278
H 2.39815 -10.1516 6.05486
H 0.787882 -10.2364 6.31266
O -14.5099 -2.24906 -1.98518
H -14.1849 -2.82763 -1.23707
H -13.8975 -1.46563 -2.09084
O 3.39272 -4.23351 4.48695
H 4.00231 -4.59451 3.7812
H 2.46738 -4.14985 4.11717
O -1.75835 12.6347 9.81922
H -2.46992 12.7563 10.5112
H -0.911419 12.3382 10.2605
O 2.10416 6.55047 1.73007
H 1.80676 5.67144 1.35743
H 1.72176 7.29245 1.17941
O -12.6675 -8.9248 -9.34825
H -12.8077 -8.04402 -8.89595
H -13.1713 -9.63555 -8.85724
O -0.0639524 -6.55376 7.84625
H 0.804643 -6.53919 7.35094
H 0.101445 -6.36749 8.81472
O -14.0638 3.35966 -1.6328
H -13.2563 2.89385 -1.27086
H -13.7773 4.14118 -2.18702
O -1.51162 7.40265 -5.19913
H -0.607619 6.98111 -5.12794
H -1.98694 7.32198 -4.32303
O -6.38693 2.20985 2.5105
H -6.00669 2.80015 3.22251
H -6.98261 1.52423 2.92891
O 9.36962 -11.3125 -0.933505
H 8.52004 -11.0197 -0.494733
H 9.2015 -12.1428 -1.46472
O -7.83411 5.45355 -0.235909
H -8.79235 5.72751 -0.317925
H -7.25215 6.26652 -0.25574
O -5.37808 -14.1264 8.05371
H -4.57705 -13.5374 8.16062
H -5.21829 -14.7745 7.30904
O 5.84581 -2.82274 13.8981
H 6.62352 -2.21676 14.0653
H 5.1222 -2.3151 13.4304
O 14.3946 6.58337 -5.90045
H 14.7826 5.69114 -6.13136
H 14.1545 7.06989 -6.74047
O -1.95186 14.0548 1.25743
H -2.52202 13.51 0.642471
H -1.18469 14.4414 0.745633
O -6.20803 -6.8705 -6.72038
H -5.25862 -6.5673 -6.80202
H -6.64844 -6.38707 -5.96385
O 12.8748 6.41688 14.1843
H 12.8811 5.49585 13.7949
H 12.2422 6.99322 13.667
O -7.01798 -5.98167 4.78542
H -6.269 -6.24664 5.39272
H -7.23466 -6.7414 4.17234
O 14.8947 -11.6241 -1.92326
H 14.1935 -11.8901 -1.26179
H 14.5219 -11.6899 -2.84883
O -13.0821 0.804845 5.67526
H -13.251 -0.155665 5.45415
H -13.8211 1.14842 6.25474
O 9.63718 -0.290197 -0.88687
H 10.156 -0.725459 -1.62264
H 10.2257 -0.175841 -0.0865195
O -14.857 0.419307 -12.9951
H 14.4614 0.199866 -13.7971
H -14.7987 1.41222 -12.8915
O 1.20626 -6.93879 -12.6301
H 1.86793 -7.03393 -13.3739
H 0.392175 -6.46557 -12.9668
O -8.81011 -14.7378 -0.777358
H -7.85673 -14.9269 -1.01245
H -8.85155 -14.3019 0.121682
O 2.36928 10.9943 -13.5286
H 1.48236 10.8986 -13.9804
H 2.27048 10.7922 -12.5542
O 13.8321 3.7192 11.6122
H 14.7737 3.87381 11.3133
H 13.8289 3.09831 12.3961
O -6.00683 -9.25005 4.62228
H -5.42118 -10.0185 4.88017
H -5.74152 -8.4391 5.14378
O -5.88353 -1.15482 13.7345
H -5.63229 -1.93654 13.1637
H -6.6765 -0.693081 13.337
O -11.2204 14.4543 -2.1341
H -11.376 13.4874 -1.93146
H -10.3851 14.7603 -1.67734
O -13.1325 0.923405 2.05288
H -12.8816 0.088012 2.54196
H -14.1073 0.899912 1.83123
O -8.62371 8.18424 1.62622
H -8.26113 7.41312 2.14959
H -8.92048 8.90338 2.25452
O 7.94074 11.3555 4.86414
H 7.75969 10.4536 4.47185
H 8.90774 11.5818 4.74718
O 4.77496 -8.98486 -7.59333
H 4.28 -9.82667 -7.37805
H 5.74909 -9.18734 -7.69366
O -6.20278 2.58677 8.97703
H -6.47414 2.69469 9.93343
H -5.26415 2.24463 8.93345
O -3.52279 -6.06807 11.0407
H -2.90151 -5.60132 10.4113
H -3.18839 -5.96419 11.9774
O 12.9012 7.15301 -13.0271
H 12.578 6.59034 -13.788
H 12.2602 7.90482 -12.8727
O -1.93747 -12.8535 -5.00994
H -2.33414 -12.9584 -4.09799
H -2.13814 -13.6667 -5.5562
O -10.2642 -1.45103 1.41853
H -9.88795 -0.572365 1.71242
H -11.2531 -1.45665 1.56725
O -8.64085 7.21467 -2.72768
H -8.9067 7.73812 -3.53721
H -7.67954 6.94972 -2.80296
O -6.61943 -1.84653 -11.871
H -6.91333 -1.60396 -10.9465
H -7.13333 -2.64465 -12.1855
O -6.01724 -8.06329 -1.00021
H -6.85616 -8.18056 -0.468741
H -5.4613 -8.89176 -0.932622
O -14.4602 12.6529 -3.87207
H 14.557 12.4104 -4.32735
H -14.5666 13.5325 -3.40834
O -3.30955 11.1857 -9.75067
H -3.39696 10.5246 -10.4958
H -3.76235 10.8288 -8.93361
O -10.4298 5.87675 -0.304704
H -10.4378 6.79001 -0.712008
H -10.82 5.91858 0.615058
O -6.87654 2.88648 -0.2184
H -6.68295 2.61177 0.723435
H -7.13142 3.85325 -0.237927
O 12.1556 1.49068 -3.33143
H 12.2035 0.493021 -3.28281
H 12.1464 1.86943 -2.40598
O -7.57027 10.8248 -4.71396
H -8.31264 11.3954 -4.3629
H -7.94881 9.97758 -5.08675
O 14.4221 7.7509 6.94956
H 14.823 8.46472 6.37535
H 13.84 8.17097 7.64578
O 5.50749 13.9194 2.44833
H 5.26009 13.0196 2.08908
H 5.07324 14.0536 3.33906
O -5.31486 -11.3857 -13.1005
H -5.20712 -10.4839 -12.6818
H -4.99182 -11.3547 -14.0464
O 10.7751 11.5483 4.66398
H 11.3976 11.0093 5.23134
H 11.2412 11.8181 3.8214
O -9.18315 12.8114 13.1072
H -9.89702 12.9729 12.4258
H -9.11023 13.6072 13.7084
O 14.5492 4.11864 3.08723
H -14.3972 3.75981 2.98268
H 14.5183 5.06304 2.75991
O -12.0271 -12.4697 4.47708
H -11.0279 -12.4349 4.49749
H -12.398 -11.7133 5.01597
O 12.383 -12.241 11.2186
H 12.1625 -12.8687 11.9651
H 11.7588 -11.4602 11.2443
O -1.05686 0.250124 5.24265
H -1.8482 0.19998 4.63334
H -0.239519 -0.0537913 4.75318
O -0.541311 -14.1432 3.20633
H -0.66966 -14.4548 4.14784
H -0.906705 -14.8281 2.57587
O 11.1588 -9.69881 11.7692
H 11.8939 -9.02203 11.8098
H 10.6822 -9.7264 12.648
O 11.2168 4.45517 11.9565
H 12.2094 4.52173 11.8551
H 10.7729 5.05954 11.2949
O -10.0799 5.2872 13.7968
H -11.0108 5.64965 13.7523
H -10.1061 4.29059 13.7189
O 13.7899 0.591237 1.95548
H 13.4159 1.50012 1.77086
H 13.6079 -0.00860261 1.17631
O -0.108275 2.84747 9.80282
H 0.105281 1.95596 9.40332
H 0.143219 2.84787 10.7707
O -2.86003 -12.4468 -11.5967
H -2.81211 -13.4261 -11.7934
H -3.45827 -12.0018 -12.2631
O -10.8823 -12.0869 13.1586
H -11.3464 -12.067 14.0442
H -9.91106 -11.8865 13.2866
O -5.00103 2.86228 -6.92191
H -4.74189 1.9054 -7.05322
H -4.38487 3.2864 -6.25824
O -2.46949 8.93018 -13.2642
H -2.81515 8.51321 -12.4236
H -2.91628 9.81345 -13.4063
O 6.72344 3.24944 5.1329
H 6.96997 3.6233 4.23878
H 7.52112 2.80385 5.5393
O 6.44747 13.984 -6.70344
H 5.75047 13.3009 -6.92138
H 7.30891 13.5242 -6.48779
O -12.6083 -9.28242 8.82265
H -11.783 -9.06648 8.30079
H -12.3845 -9.93758 9.54422
O 2.56327 10.1046 -1.59573
H 2.25398 9.16521 -1.74354
H 2.08744 10.7156 -2.22837
O 6.27294 11.5655 13.3614
H 6.18076 11.5771 12.3657
H 5.91708 12.4203 13.739
O 10.5497 -0.0901781 -7.42562
H 9.82935 0.587104 -7.27625
H 11.1473 -0.123385 -6.62449
O -8.48606 -6.5968 -14.8693
H -9.36332 -7.07241 -14.8043
H -8.56633 -5.69111 -14.453
O -4.10257 -8.71491 -12.6923
H -4.65294 -8.05709 -13.2064
H -3.21748 -8.83295 -13.1425
O -3.38435 -0.343228 3.89615
H -3.89107 -0.391346 3.03539
H -3.92357 -0.766112 4.62445
O 0.890221 11.7428 0.280288
H 1.53995 11.9426 1.01373
H 0.867411 12.5085 -0.362501
O 8.35912 4.98944 -5.00244
H 7.97498 4.1368 -4.64828
H 8.9967 5.37109 -4.33323
O 7.26352 2.97261 8.2587
H 7.86979 2.72183 7.50402
H 6.42398 2.43191 8.20559
O 2.2907 6.60123 -7.16403
H 3.24312 6.46522 -7.43681
H 1.82935 7.17627 -7.83967
O -3.08255 7.39236 10.3178
H -2.08841 7.28903 10.3493
H -3.50986 6.48996 10.2623
O 1.24713 3.07692 1.99034
H 1.36608 3.12803 0.998755
H 0.411587 3.56047 2.25118
O -6.02927 12.308 -10.0778
H -5.88984 13.2733 -9.85724
H -5.8135 11.7487 -9.27745
O 4.57117 6.83911 6.83701
H 4.9545 7.66393 7.25261
H 3.65658 7.03759 6.48469
O -9.70663 3.3265 1.13636
H -10.4328 3.99404 1.30102
H -8.93126 3.77922 0.696086
O 8.8899 -10.4704 6.63199
H 8.7517 -11.4602 6.59845
H 9.23523 -10.2124 7.53433
O -12.0806 8.62144 8.35449
H -12.3866 8.97161 7.46922
H -11.7209 9.37501 8.90472
O -9.35377 12.6201 -3.86111
H -9.46607 13.5273 -3.45575
H -9.45951 12.683 -4.85351
O 9.80308 -3.53298 -11.0657
H 9.63466 -2.90295 -10.3076
H 8.98326 -3.59643 -11.6348
O 2.40458 4.59957 -3.24153
H 3.01219 4.49873 -4.02934
H 2.50541 3.80763 -2.63931
O -8.80383 -14.8035 14.5878
H -8.14655 -14.4536 13.9203
H -9.45682 -14.0831 14.8217
O -7.85159 9.45794 11.9287
H -7.76142 9.67925 12.8998
H -7.6393 8.4912 11.7861
O 8.96254 1.55326 6.24581
H 9.09221 1.12986 5.3492
H 9.70989 1.28353 6.85301
O 3.96999 11.398 7.14802
H 3.08979 11.7853 6.87378
H 3.82834 10.4829 7.52556
O 12.9831 -12.0279 -4.34757
H 12.7673 -11.1361 -4.7453
H 13.9136 -12.2903 -4.60282
O 9.93058 3.37975 2.02604
H 9.77513 4.31685 2.33856
H 9.32599 3.18102 1.2547
O 0.238669 -6.45062 14.3491
H 1.0899 -6.05757 14.0014
H 0.289819 -7.44833 14.3051
O 7.82554 -7.97308 -6.42036
H 8.4079 -7.34908 -5.89933
H 7.94587 -7.8029 -7.3984
O 3.28847 -6.56959 11.0523
H 3.21133 -7.31254 11.7171
H 2.412 -6.4465 10.5868
O 0.983613 -3.38739 3.36141
H 0.376449 -3.94069 3.93168
H 0.650926 -3.39186 2.41838
O -0.464222 13.0655 -12.5427
H -0.38198 12.2847 -13.1621
H 0.155702 12.9429 -11.7677
O 6.37727 -4.01627 -8.92178
H 7.02706 -4.47756 -8.31764
H 6.51765 -4.32709 -9.86182
O 9.51347 -8.41736 1.2415
H 8.79557 -9.06405 1.49922
H 10.3404 -8.60939 1.76992
O -9.87912 2.6667 13.5785
H -8.9849 2.38128 13.2337
H -10.5931 2.35524 12.9514
O 7.66264 11.6394 -9.63878
H 8.65409 11.7625 -9.68212
H 7.40422 11.3358 -8.72168
O 7.50183 -1.32087 -13.3019
H 7.94729 -1.06932 -14.1611
H 6.86438 -0.598802 -13.0331
O -11.2564 8.58739 -9.74875
H -12.0969 8.09526 -9.522
H -10.7013 8.03153 -10.3675
O -13.3892 -6.46425 -6.17017
H -13.6364 -5.55423 -5.83743
H -13.0093 -6.39015 -7.09223
O 11.6333 -8.93238 2.93798
H 12.2568 -8.60587 3.64843
H 11.65 -9.93194 2.91358
O 13.1156 -7.85336 11.7883
H 13.9887 -8.18231 12.1482
H 12.859 -7.00819 12.2571
O -10.6583 -10.4106 -6.33114
H -11.5473 -10.0437 -6.05718
H -10.7935 -11.218 -6.90541
O -2.03028 -8.82232 7.77592
H -1.99913 -8.00281 8.34812
H -2.34324 -8.57658 6.8585
O -0.783532 6.99553 -1.62108
H -1.25458 7.87624 -1.67058
H -1.41209 6.30051 -1.27199
O 13.2873 -13.7369 -8.79651
H 13.4404 -14.102 -7.87822
H 13.4226 -12.7462 -8.78817
O -8.97662 12.7258 -6.89457
H -8.82728 11.7545 -7.07981
H -9.12131 13.2112 -7.75682
O -11.674 -14.7442 12.5674
H -11.3086 -13.8219 12.6933
H -11.898 -14.8852 11.603
O -7.17267 4.45909 13.9242
H -7.17529 4.11645 14.8637
H -7.24113 5.4567 13.9331
O 14.2663 10.6006 -12.6298
H -14.876 10.9283 -12.0319
H 14.5826 9.79694 -13.1338
O 0.528206 5.30039 13.4097
H -0.203468 5.74382 13.9274
H 0.279852 4.3485 13.2302
O -7.37045 -13.1802 9.8583
H -6.83474 -13.1998 9.01414
H -7.97008 -13.9798 9.89118
O -12.0673 -4.11954 3.8713
H -12.7574 -4.83904 3.9488
H -11.2346 -4.40381 4.34652
O -14.6804 -13.0269 6.94842
H -14.725 -12.0928 6.59425
H -13.8795 -13.1213 7.53983
O 10.1539 -3.36531 14.2498
H 9.41271 -4.02939 14.3478
H 9.77898 -2.48995 13.9446
O 6.10722 9.22458 10.284
H 6.04376 8.97251 9.31843
H 5.35567 8.80049 10.7893
O 3.52122 9.04744 11.6153
H 3.00225 8.20462 11.7578
H 3.53161 9.57961 12.4619
O -1.42869 7.26502 2.92618
H -2.352 7.51946 3.21388
H -0.758873 7.76621 3.47403
O 14.2605 -8.21348 -3.46143
H -14.7043 -8.62649 -3.40634
H 13.5711 -8.8889 -3.19962
O 11.5231 -1.133 -3.01736
H 12.2514 -1.72923 -3.35504
H 10.6955 -1.27772 -3.55973
O 2.15919 9.76568 -10.8103
H 2.75157 8.96003 -10.8136
H 2.42199 10.3696 -10.0578
O -3.00219 4.52214 -9.7053
H -3.59391 5.32774 -9.67569
H -2.18809 4.68588 -9.14814
O 2.93106 13.8022 8.95089
H 3.43029 14.0788 9.77202
H 3.40147 13.0332 8.51798
O 8.69111 9.01987 -13.5143
H 8.47885 8.99817 -12.5373
H 9.43993 8.38568 -13.7068
O 12.833 -13.4915 8.70272
H 13.7945 -13.3667 8.4581
H 12.6766 -13.145 9.62764
O 13.4536 -10.8211 -9.3801
H 12.621 -10.6271 -8.8613
H 14.2512 -10.5321 -8.85066
O 8.28382 -1.26238 13.5336
H 8.41025 -0.386005 13.9983
H 8.04663 -1.10052 12.5757
O -0.894726 12.0216 7.21917
H -0.105461 12.6261 7.11133
H -1.18533 12.0203 8.17601
O 4.16037 -0.0815865 5.83901
H 3.38721 -0.710081 5.92393
H 3.90368 0.684997 5.25041
O 4.27782 13.7486 11.2484
H 4.88862 13.0138 10.9536
H 4.30278 13.823 12.2453
O 11.6507 -0.863588 3.24237
H 12.3776 -0.700466 2.57533
H 11.5069 -1.84789 3.34465
O 7.37228 8.69632 3.94078
H 7.28855 7.82748 3.45282
H 6.46127 9.07104 4.11296
O 14.9031 7.61268 9.94346
H -14.7352 8.24198 9.20289
H -14.1931 7.01273 10.1312
O 9.05099 -12.5368 8.93392
H 8.14558 -12.9344 9.08261
H 9.66137 -13.231 8.55247
O -9.76168 10.346 3.11507
H -8.88047 10.8068 3.22038
H -10.4779 10.8932 3.54816
O 0.190213 8.4637 7.43705
H 0.502375 8.74931 8.34313
H -0.688961 7.99448 7.51999
O -0.309542 -12.5076 0.416912
H 0.316623 -11.8214 0.787003
H -1.03773 -12.0525 -0.0955591
O 5.72873 -14.2251 -12.4042
H 6.13426 -13.4671 -11.8934
H 6.16354 14.7913 -12.1293
O 5.15419 9.66763 -0.447206
H 4.98412 8.71132 -0.684962
H 4.32569 10.2037 -0.60901
O -6.4633 -10.2329 10.5883
H -6.11165 -9.81569 11.4263
H -7.45457 -10.3428 10.6612
O 13.4463 -2.86298 -3.6469
H 14.144 -2.46343 -3.05228
H 13.6112 -3.84476 -3.74125
O 13.8432 -10.3015 -12.0783
H 13.6678 -10.7451 -11.1994
H 14.7004 -9.78902 -12.0277
O 0.346881 0.491179 -8.20751
H 0.448869 -0.0351778 -7.36339
H -0.00684464 -0.102825 -8.93003
O 5.51497 10.4542 -5.49587
H 6.28622 10.4842 -6.13169
H 4.74943 10.9735 -5.8757
O -12.9638 -8.86374 -3.14222
H -12.0315 -8.76171 -3.48924
H -12.9402 -9.31839 -2.25187
O -9.97894 2.3176 -13.4935
H -9.09314 1.85788 -13.5569
H -10.5086 2.13612 -14.3221
O 8.06293 8.85039 -10.9281
H 8.77013 8.76934 -10.2258
H 7.56924 9.71144 -10.8062
O 8.19855 13.4339 8.59815
H 9.05752 13.3749 8.08954
H 7.44339 13.1399 8.01226
O -7.98881 6.0699 3.22049
H -8.60314 5.30824 3.42659
H -7.05333 5.72841 3.12968
O -12.8552 -6.19217 -9.0416
H -12.0929 -5.60112 -8.77781
H -13.2467 -5.86694 -9.90236
O 13.2487 8.43764 -2.14801
H 13.924 7.86808 -2.61657
H 12.597 7.85281 -1.66503
O 12.1162 5.15204 -7.72027
H 11.124 5.16353 -7.84407
H 12.4871 4.29571 -8.07965
O -4.22049 -12.5787 -9.1979
H -3.55896 -12.745 -9.92914
H -4.89286 -11.9045 -9.50365
O 1.38689 9.14709 9.67542
H 1.23757 10.0779 9.34188
H 2.15713 9.14108 10.3131
O -6.68697 0.339031 6.51737
H -6.92166 -0.0623556 5.63204
H -6.58666 1.32905 6.41841
O 6.234 -9.76787 7.67228
H 7.0337 -10.1301 7.19343
H 5.66223 -9.25913 7.02865
O -10.1379 -1.19995 7.40342
H -10.2853 -2.16821 7.2016
H -9.39675 -1.10717 8.06831
O -8.79319 -1.9096 11.7063
H -8.39004 -2.58277 11.0864
H -8.38503 -1.0128 11.5356
O 1.37838 -2.75882 -12.9221
H 0.52175 -3.27451 -12.938
H 2.14958 -3.39132 -12.9941
O -3.33826 12.5954 -0.639062
H -2.56029 12.7822 -1.23894
H -3.38789 11.614 -0.45351
O 12.8397 9.51033 8.24236
H 13.6261 10.0124 8.60209
H 12.0441 9.67479 8.82553
O 8.53521 2.96928 -0.398454
H 8.99617 2.30339 -0.985053
H 7.96983 3.57328 -0.96017
O 7.98188 6.69178 13.5631
H 8.08279 7.20291 12.7096
H 8.87221 6.33387 13.8446
O 12.9887 -6.97675 9.24022
H 13.7086 -7.33925 8.64838
H 13.1295 -7.30348 10.1748
O -3.04056 -3.27373 -13.3496
H -2.86208 -2.43438 -13.863
H -3.98795 -3.55862 -13.4955
O 3.59255 2.89394 12.0137
H 3.42588 2.17276 11.3413
H 4.42098 3.39604 11.7656
O -4.40757 -9.04995 12.538
H -4.25898 -9.97294 12.8929
H -3.87203 -8.92376 11.7029
O 14.3411 -13.2581 -12.6248
H 14.177 -12.3053 -12.8803
H 14.1404 -13.8515 -13.4044
O 9.90583 -9.78547 14.1522
H 9.25557 -9.19181 14.6262
H 10.5708 -10.1424 14.8082
O -13.2022 11.0055 -8.77395
H -13.3785 11.2363 -7.81705
H -12.3825 10.4359 -8.83392
O 2.94944 -4.0489 0.245355
H 3.41018 -4.53093 0.990574
H 3.24581 -3.09391 0.232567
O -5.16962 -7.10453 6.78397
H -4.4095 -6.5807 7.16843
H -5.64507 -7.58958 7.51791
O -10.577 -3.39384 -11.5088
H -10.2415 -2.51023 -11.1822
H -10.0337 -3.68646 -12.2957
O 11.218 -11.28 0.925543
H 10.6119 -11.3262 1.71955
H 10.6812 -11.3926 0.0893912
O -5.00656 -7.98315 -9.32297
H -4.15054 -8.44956 -9.10006
H -5.54192 -7.85229 -8.48855
O 8.61065 7.9918 6.36625
H 8.43548 8.48517 5.51426
H 8.09749 7.1335 6.36595
O 14.7085 -5.22182 7.30501
H 13.9318 -5.35208 7.92135
H 14.7326 -4.27122 6.99553
O 0.671494 3.43282 -0.86739
H 0.399479 4.31177 -1.25913
H 0.327807 2.69075 -1.44289
O 5.15534 1.26095 7.85213
H 5.00889 0.666185 7.06169
H 4.27672 1.62137 8.1654
O 7.02422 -14.0642 -8.79425
H 6.8 -14.3057 -7.85011
H 7.39882 -14.8642 -9.26292
O -13.4545 -3.50446 -5.81732
H -13.4901 -2.91899 -5.00741
H -12.9422 -3.04175 -6.54084
O -13.3235 -2.05893 2.37559
H -12.9048 -2.78272 2.92411
H -13.8579 -1.45752 2.96943
O -9.69743 4.27541 -11.7016
H -10.1418 4.06994 -10.8296
H -10.0097 3.62686 -12.3958
O 10.5828 -14.3869 -7.0736
H 11.4111 -14.2151 -7.60692
H 10.1726 -13.5153 -6.80501
O 2.20612 8.05366 5.76021
H 1.80552 7.39329 5.12505
H 1.50501 8.36825 6.40011
O 10.0155 -14.0047 3.98181
H 9.18609 -14.5211 4.19493
H 10.8124 -14.6022 4.07129
O 14.2847 -2.76218 6.51059
H 13.8078 -2.87758 5.63922
H 13.8588 -2.01985 7.02786
O -7.58426 9.51906 -11.7947
H -6.81787 10.0451 -11.426
H -7.38712 9.26115 -12.7405
O 0.943726 -5.98371 5.16825
H 1.7553 -6.3689 5.60754
H 0.145777 -6.13395 5.75195
O -2.73882 -5.99655 13.8189
H -3.30406 -6.55368 14.4272
H -1.82458 -6.39652 13.7541
O -14.0909 -10.8115 -7.93129
H -13.4889 -11.5897 -7.75213
H -14.0105 -10.1494 -7.18618
O -13.5485 -9.00951 -12.1756
H -13.5418 -8.90985 -11.1806
H -12.6255 -9.22365 -12.4953
O -11.0265 -6.77098 4.36371
H -10.3459 -6.53816 3.66906
H -11.5053 -7.60658 4.09436
O -7.49082 -13.0553 -12.7634
H -6.58519 -12.7144 -13.0156
H -7.50696 -14.0517 -12.8467
O -13.7985 12.0563 -11.2508
H -14.4775 12.7795 -11.1248
H -13.6197 11.6105 -10.3737
O -1.46851 0.0625998 -3.89567
H -0.897354 -0.719597 -4.14455
H -0.919546 0.89802 -3.92222
O -9.21587 4.83658 -6.08148
H -8.35134 4.45392 -6.40728
H -9.38846 5.70824 -6.54018
O -7.24682 -13.9614 12.5359
H -6.43729 -14.4099 12.1571
H -7.77841 -13.5516 11.7946
O -6.95677 8.94953 -7.19911
H -7.35818 9.00553 -8.11329
H -6.4047 9.76536 -7.02695
O 9.51878 3.55874 13.9681
H 9.72987 3.91654 14.8777
H 10.1622 3.93802 13.3031
O -2.09053 -8.8825 -2.60922
H -1.77893 -8.21371 -1.93423
H -2.76153 -8.45607 -3.21578
O 9.05331 10.1819 1.95676
H 8.61068 9.63978 2.67103
H 9.97524 10.4328 2.25185
O 2.90016 -6.45233 -1.28438
H 2.51338 -5.62145 -0.884348
H 2.57317 -6.55332 -2.224
O 10.2124 -3.92578 6.98445
H 9.3846 -3.38865 7.14648
H 10.6923 -4.06784 7.85017
O 12.4507 -3.29596 -14.3171
H 12.3794 -3.52255 -13.3457
H 11.5719 -3.46386 -14.7638
O 7.04951 -0.17366 -0.5544
H 6.63579 -1.08389 -0.536759
H 8.02329 -0.254209 -0.76717
O -11.314 5.299 2.19006
H -11.9451 4.71972 2.70598
H -11.0892 6.11019 2.72988
O -14.7973 -7.0577 1.83754
H 14.451 -7.73923 1.45795
H -13.8537 -7.32976 1.64885
O 12.0542 -2.93079 -8.27752
H 12.1688 -2.39703 -7.43969
H 11.0988 -2.89106 -8.56996