LAMMPS data file via write_data, version 15 May 2015, timestep = 23005000

2611 atoms
6 atom types
1749 bonds
4 bond types
894 angles
3 angle types
44 dihedrals
3 dihedral types
10 impropers
1 improper types

-1.4946430729915681e+01 1.4946430729915681e+01 xlo xhi
-1.4946430729915681e+01 1.4946430729915681e+01 ylo yhi
-1.4946430729915681e+01 1.4946430729915681e+01 zlo zhi

Masses

1 15.9994
2 1.00794
3 12.0107
4 1.00794
5 12.0107
6 12.0107

Bond Coeffs # harmonic

1 1000 1
2 469 1.4
3 367 1.08
4 469 0.7

Angle Coeffs # harmonic

1 100 109.47
2 35 120
3 63 120

Dihedral Coeffs # opls

1 0 7.25 0 0
2 0 7.25 0 0
3 0 7.25 0 0

Improper Coeffs # cvff

1 2.5 -1 2

Atoms # full

583 195 1 -8.1999999999999995e-01 -1.1092625027337972e+01 -7.9064969627083670e+00 -9.7745728110902306e+00 0 5 1
585 195 2 4.0999999999999998e-01 -1.0190206102316100e+01 -7.9660289838637235e+00 -1.0201286851472759e+01 0 5 1
2001 667 2 4.0999999999999998e-01 -9.2917646590175664e+00 -1.0910464689996441e+01 -1.1666023396409742e+01 -6 -1 3
1537 513 1 -8.1999999999999995e-01 -1.1318191847220110e+01 -1.4088746995174134e+01 -1.1788566209103418e+01 2 2 5
2000 667 2 4.0999999999999998e-01 -9.4878867914555283e+00 -1.0706433302049831e+01 -1.0057762216841759e+01 -6 -1 3
1999 667 1 -8.1999999999999995e-01 -8.8960940075859689e+00 -1.0510004234900631e+01 -1.0839545931125354e+01 -6 -1 3
165 55 2 4.0999999999999998e-01 -1.0786539324759911e+01 -1.4223416351147179e+01 -8.1025272692791894e+00 -1 6 -3
481 161 1 -8.1999999999999995e-01 -9.7337872090629602e+00 -1.1895121565720952e+01 -1.3106093850753263e+01 -2 -5 12
483 161 2 4.0999999999999998e-01 -9.5764987475391088e+00 -1.1544619790788690e+01 -1.4029347707206481e+01 -2 -5 12
2117 706 2 4.0999999999999998e-01 -1.1774927762069474e+01 -6.8405971386328890e+00 -1.2815863801079011e+01 -1 1 2
2118 706 2 4.0999999999999998e-01 -1.3202889648027925e+01 -7.4002336619537621e+00 -1.2255213715275248e+01 -1 1 2
2116 706 1 -8.1999999999999995e-01 -1.2491465107666698e+01 -7.5257642203744792e+00 -1.2946665880680355e+01 -1 1 2
1430 477 2 4.0999999999999998e-01 -8.5978531086015959e+00 -6.1812102272479876e+00 -1.0014819427817741e+01 -2 3 7
1539 513 2 4.0999999999999998e-01 -1.2084650258797756e+01 -1.3498006759313776e+01 -1.2040670001276006e+01 2 2 5
444 148 2 4.0999999999999998e-01 -1.2192159265046369e+01 -9.0191496770173707e+00 -1.3716422754970750e+01 2 2 4
2288 763 2 4.0999999999999998e-01 -1.4447932008422148e+01 -1.3726274859950310e+01 -9.2080928133521791e+00 -1 6 5
163 55 1 -8.1999999999999995e-01 -1.1054137645032320e+01 -1.4935409299510571e+01 -8.7517160244385774e+00 -1 6 -3
442 148 1 -8.1999999999999995e-01 -1.2134046172097861e+01 -9.8747500758607938e+00 -1.4230776435301809e+01 2 2 4
638 213 2 4.0999999999999998e-01 -1.0795272547037829e+01 -9.5955701271646561e+00 -8.5757227701930994e+00 1 5 6
1494 498 2 4.0999999999999998e-01 -1.2078836536342838e+01 -8.2676403192482724e+00 -8.3097655156841235e+00 -2 2 13
482 161 2 4.0999999999999998e-01 -1.0643572266979266e+01 -1.2307216500128135e+01 -1.3056518298434172e+01 -2 -5 12
1965 655 2 4.0999999999999998e-01 -8.3013368994066958e+00 -1.2918859598535271e+01 -1.2072807794236699e+01 0 2 6
443 148 2 4.0999999999999998e-01 -1.1242759375993696e+01 -9.9334889472101402e+00 -1.4680383469336817e+01 2 2 4
31 11 1 -8.1999999999999995e-01 -1.3469301935427863e+01 -1.2334049225422902e+01 -1.1747287323213062e+01 4 5 9
33 11 2 4.0999999999999998e-01 -1.3610815290656548e+01 -1.1573067601379758e+01 -1.1114144506820674e+01 4 5 9
637 213 1 -8.1999999999999995e-01 -1.0280616767582142e+01 -1.0367658622377428e+01 -8.2028988808324428e+00 1 5 6
584 195 2 4.0999999999999998e-01 -1.1489090698954431e+01 -7.0068480901319541e+00 -9.9574272181234882e+00 0 5 1
735 245 2 4.0999999999999998e-01 -1.1487079699320706e+01 -5.1238535831859231e+00 -1.4317220167706541e+01 -1 4 7
2289 763 2 4.0999999999999998e-01 -1.4036692655732651e+01 -1.3884646870881124e+01 -1.0780478643920086e+01 -1 6 5
2270 757 2 4.0999999999999998e-01 -1.4595373357733394e+01 -7.0217115967838888e+00 -1.0241865116743032e+01 -6 7 0
32 11 2 4.0999999999999998e-01 -1.3984759114537253e+01 -1.2168397286765551e+01 -1.2588032335258747e+01 4 5 9
597 199 2 4.0999999999999998e-01 -1.3617644936890445e+01 -1.0938546115860667e+01 -1.4345920762167474e+01 1 3 4
53 18 2 4.0999999999999998e-01 -1.3882405527204316e+01 -8.3872780401719638e+00 -1.3994328619736311e+01 0 8 6
2269 757 1 -8.1999999999999995e-01 -1.4542575371985583e+01 -7.2244383693579683e+00 -1.1219670343317182e+01 -6 7 0
1429 477 1 -8.1999999999999995e-01 -8.0501344519334346e+00 -5.9252705471027447e+00 -9.2182718706147035e+00 -2 3 7
2236 746 1 -8.1999999999999995e-01 -8.9721256561410740e+00 -6.7196380982851061e+00 -1.1580944301108772e+01 3 6 0
2238 746 2 4.0999999999999998e-01 -8.5521408152500324e+00 -7.2328237053918443e+00 -1.2329437577032182e+01 3 6 0
1881 627 2 4.0999999999999998e-01 -1.4700069786461819e+01 -1.3965821390384805e+01 -1.4041434499031606e+01 5 8 3
1646 549 2 4.0999999999999998e-01 -1.4426601732765564e+01 -1.1267679748354681e+01 -8.5453387524321887e+00 -3 6 9
1256 419 2 4.0999999999999998e-01 -9.1840256800696221e+00 -5.7421428089814590e+00 -7.9470301210881207e+00 -4 10 7
595 199 1 -8.1999999999999995e-01 -1.4277641083309270e+01 -1.1665189517110159e+01 -1.4155176647094217e+01 1 3 4
2237 746 2 4.0999999999999998e-01 -8.9927433563989929e+00 -5.7473572432526492e+00 -1.1813825683950277e+01 3 6 0
52 18 1 -8.1999999999999995e-01 -1.4750432900048343e+01 -8.5347239960815617e+00 -1.4468435156691466e+01 0 8 6
787 263 1 -8.1999999999999995e-01 -8.0986401051830796e+00 -7.8835380411047842e+00 -1.3948726811526939e+01 -2 6 7
856 286 1 -8.1999999999999995e-01 -1.1482545786552320e+01 -5.3314089866567009e+00 -1.0568928670865137e+01 2 11 1
1215 405 2 4.0999999999999998e-01 -9.5953591808853496e+00 -6.8413814595614664e+00 -1.4305558620512219e+01 3 3 6
789 263 2 4.0999999999999998e-01 -7.8934640462102328e+00 -7.5200112046767256e+00 -1.4857429114468561e+01 -2 6 7
1431 477 2 4.0999999999999998e-01 -7.5518881618750315e+00 -6.7257798049043096e+00 -8.8852185683482183e+00 -2 3 7
2287 763 1 -8.1999999999999995e-01 -1.4079470920793540e+01 -1.4350726258831722e+01 -9.8967768543117174e+00 -1 6 5
1538 513 2 4.0999999999999998e-01 -1.1397487163012276e+01 -1.4344701990745870e+01 -1.0825140998408811e+01 2 2 5
858 286 2 4.0999999999999998e-01 -1.1224346129756132e+01 -5.0265160079618845e+00 -1.1485641335293270e+01 2 11 1
1112 371 2 4.0999999999999998e-01 -1.0453725043768713e+01 -1.1903975572277247e+01 -7.6269520510273630e+00 4 5 7
1502 501 2 4.0999999999999998e-01 -2.8543982643438959e-01 -9.2756506810810393e+00 -1.0810286484955771e+01 -2 1 9
1566 522 2 4.0999999999999998e-01 -2.8951901843856422e+00 -9.3601912974783410e+00 -1.4581028626150925e+01 -4 4 1
651 217 2 4.0999999999999998e-01 -7.2115527657553349e+00 -8.4102087987376635e+00 -7.6892531957308066e+00 3 1 0
2523 841 2 4.0999999999999998e-01 -1.4772835234716464e+00 -5.5756853745428341e+00 -1.4823323917723711e+01 -7 14 7
1963 655 1 -8.1999999999999995e-01 -7.3756734511355084e+00 -1.3296865254996343e+01 -1.2088547598769566e+01 0 2 6
1503 501 2 4.0999999999999998e-01 -3.4063082261127420e-02 -1.0818518485840006e+01 -1.0338094342612441e+01 -2 1 9
202 68 1 -8.1999999999999995e-01 -4.5789013872755842e+00 -6.9398394968295349e+00 -1.0299032150937595e+01 -2 10 9
275 92 2 4.0999999999999998e-01 -1.1594369338548454e+00 -8.5957979690276662e+00 -8.3831192533424499e+00 3 1 0
1144 382 1 -8.1999999999999995e-01 -2.7512974549701443e+00 -9.4184732203897994e+00 -7.9636334293726785e+00 -6 11 6
2314 772 1 -8.1999999999999995e-01 -2.9892136338733017e+00 -1.3277248752502286e+01 -1.0929238211880243e+01 -8 3 2
1950 650 2 4.0999999999999998e-01 -6.4169875984248925e-01 -1.0991030306206829e+01 -1.3282937570683046e+01 0 8 6
274 92 1 -8.1999999999999995e-01 -3.6655030510632258e-01 -8.0635570303669262e+00 -8.6798332920289170e+00 3 1 0
1270 424 1 -8.1999999999999995e-01 -6.6821813927127032e+00 -1.3380779871901883e+01 -1.4798786310634448e+01 -7 1 2
1948 650 1 -8.1999999999999995e-01 -1.2375440417054193e+00 -1.0245172587071753e+01 -1.3580684985502248e+01 0 8 6
1031 344 2 4.0999999999999998e-01 -2.3308482163258084e+00 -7.7704077779211129e+00 -1.1303936187165366e+01 -4 -1 2
1586 529 2 4.0999999999999998e-01 -7.0730279391638726e+00 -1.0432109654897435e+01 -1.1061310744205922e+01 2 0 0
1585 529 1 -8.1999999999999995e-01 -6.2447171764931788e+00 -9.8808942020559662e+00 -1.1161568761588146e+01 2 0 0
1587 529 2 4.0999999999999998e-01 -5.9945542901319211e+00 -9.8279704348522543e+00 -1.2128319223612252e+01 2 0 0
1457 486 2 4.0999999999999998e-01 -6.1729104012178322e+00 -1.2784027381304350e+01 -1.0384127455623592e+01 2 2 -3
1030 344 1 -8.1999999999999995e-01 -2.0738479097091655e+00 -8.6991307987025159e+00 -1.1571168721323472e+01 -4 -1 2
650 217 2 4.0999999999999998e-01 -6.8006601758879928e+00 -8.6577454233093682e+00 -9.2501790822814343e+00 3 1 0
1565 522 2 4.0999999999999998e-01 -4.3524813111402789e+00 -8.6462558849051057e+00 -1.4398832340288260e+01 -4 4 1
2205 735 2 4.0999999999999998e-01 -3.9564578022492984e+00 -1.1388736032922422e+01 -1.0215332239749111e+01 1 4 -2
204 68 2 4.0999999999999998e-01 -4.2332009137246924e+00 -6.0062261105687380e+00 -1.0204978687584953e+01 -2 10 9
459 153 2 4.0999999999999998e-01 -2.2979844883187202e+00 -5.4526764317934013e+00 -1.0740401122793308e+01 -4 7 4
649 217 1 -8.1999999999999995e-01 -6.6796325095403031e+00 -8.0579042528711184e+00 -8.4592734581859848e+00 3 1 0
2561 854 2 4.0999999999999998e-01 -3.2545749154653958e+00 -1.3251698133623387e+01 -1.2820470674353466e+01 3 7 6
2204 735 2 4.0999999999999998e-01 -4.7038655864540555e+00 -9.9881041079228847e+00 -1.0597704635679140e+01 1 4 -2
457 153 1 -8.1999999999999995e-01 -1.7684875078823197e+00 -5.7302884667338070e+00 -1.1541995399442591e+01 -4 7 4
1146 382 2 4.0999999999999998e-01 -3.1992258525463892e+00 -9.9214242738103433e+00 -8.7028148971845880e+00 -6 11 6
520 174 1 -8.1999999999999995e-01 -6.9784832774585182e+00 -1.0301703439772993e+01 -1.4781355872849447e+01 9 6 0
2386 796 1 -8.1999999999999995e-01 -5.1909738191620267e+00 -7.9279264912935341e+00 -1.3021225623777378e+01 -3 4 4
203 68 2 4.0999999999999998e-01 -5.3292874464620379e+00 -7.0839816325285199e+00 -9.6539487125976251e+00 -2 10 9
2387 796 2 4.0999999999999998e-01 -5.5026462733281871e+00 -7.2466845953334342e+00 -1.3683614176746818e+01 -3 4 4
522 174 2 4.0999999999999998e-01 -6.8585707855657425e+00 -1.1269870994915943e+01 -1.4561671064480803e+01 9 6 0
2316 772 2 4.0999999999999998e-01 -3.8794268023218770e+00 -1.3053462573477219e+01 -1.0532464838892379e+01 -8 3 2
1032 344 2 4.0999999999999998e-01 -2.7810932522248404e+00 -9.3397606704499410e+00 -1.1272193395376627e+01 -4 -1 2
1964 655 2 4.0999999999999998e-01 -7.0325400858443299e+00 -1.3299244736122896e+01 -1.3027825365013197e+01 0 2 6
1458 486 2 4.0999999999999998e-01 -5.5297776922038206e+00 -1.2757809921455470e+01 -8.8833644158818093e+00 2 2 -3
788 263 2 4.0999999999999998e-01 -7.3921601380437449e+00 -8.5403603601071207e+00 -1.3685175436468707e+01 -2 6 7
1949 650 2 4.0999999999999998e-01 -1.4282343499669974e+00 -9.6415867545291114e+00 -1.2806533696270535e+01 0 8 6
1132 378 1 -8.1999999999999995e-01 -3.2018337482642956e-01 -1.3197295569011549e+01 -1.0149026144921391e+01 4 4 2
1134 378 2 4.0999999999999998e-01 -3.5613250413005915e-01 -1.2764537326575713e+01 -9.2482393658660538e+00 4 4 2
1777 593 1 -8.1999999999999995e-01 -9.1633849490512631e-01 -1.1758070961296966e+01 -7.8038809087345102e+00 -1 2 5
458 153 2 4.0999999999999998e-01 -8.8240914718372387e-01 -6.0888970375929095e+00 -1.1248305242658095e+01 -4 7 4
2388 796 2 4.0999999999999998e-01 -4.7993542653199857e+00 -7.4649013566310209e+00 -1.2226096238791150e+01 -3 4 4
2315 772 2 4.0999999999999998e-01 -2.2727453407768614e+00 -1.3122712416179048e+01 -1.0248958467058337e+01 -8 3 2
2203 735 1 -8.1999999999999995e-01 -3.8210754795392905e+00 -1.0416087894786511e+01 -1.0404054584604637e+01 1 4 -2
2562 854 2 4.0999999999999998e-01 -2.7230990186920074e+00 -1.1809859169452549e+01 -1.3372947382052356e+01 3 7 6
1456 486 1 -8.1999999999999995e-01 -5.3618413198826964e+00 -1.2997565269443410e+01 -9.8395566644814494e+00 2 2 -3
2560 854 1 -8.1999999999999995e-01 -3.1285292072032540e+00 -1.2685583418786413e+01 -1.3635096641760482e+01 3 7 6
1609 537 1 -8.1999999999999995e-01 -4.8506042989302109e+00 -5.9237195686277833e+00 -1.4875402703227495e+01 0 -2 9
1779 593 2 4.0999999999999998e-01 -1.6339372406040447e+00 -1.1065326879793156e+01 -7.8756205010298670e+00 -1 2 5
1610 537 2 4.0999999999999998e-01 -4.3980876585014190e+00 -5.1266872929847818e+00 -1.4475456346170390e+01 0 -2 9
1163 388 2 4.0999999999999998e-01 -3.8070595273678141e+00 -1.3062103746992381e+01 -1.4942851177954827e+01 -6 6 1
2033 678 2 4.0999999999999998e-01 -1.0780646487809113e+01 -1.2301487899703027e+01 -2.4811761747936565e+00 5 3 4
2032 678 1 -8.1999999999999995e-01 -1.1432707337885745e+01 -1.1602371455014548e+01 -2.7745048106498658e+00 5 3 4
2034 678 2 4.0999999999999998e-01 -1.1583027060185756e+01 -1.0953031222532259e+01 -2.0290183418147159e+00 5 3 4
1557 519 2 4.0999999999999998e-01 -1.4396290289752715e+01 -7.4519497959596848e+00 -3.0020515878493956e+00 -1 1 6
2468 823 2 4.0999999999999998e-01 -7.8171091892643343e+00 -1.3881423662113681e+01 -7.3651593672616533e+00 -3 6 4
439 147 1 -8.1999999999999995e-01 -1.3229883882324469e+01 -1.1620833706132466e+01 -5.0591543666048988e+00 -5 2 3
441 147 2 4.0999999999999998e-01 -1.2625488821638383e+01 -1.1429430221661965e+01 -4.2858108647390107e+00 -5 2 3
27 9 2 4.0999999999999998e-01 -8.8563017506661641e+00 -1.2817589307956585e+01 -1.8686360491230225e+00 -5 5 5
843 281 2 4.0999999999999998e-01 -1.2703936516503841e+01 -6.6625980339867770e+00 -6.5638884220743261e+00 -5 3 6
1867 623 1 -8.1999999999999995e-01 -8.9942695683746781e+00 -1.2745154442449458e+01 -4.5708313599902635e+00 4 4 2
1843 615 1 -8.1999999999999995e-01 -8.8315066652562102e+00 -7.9740905994994415e+00 -2.7369371489751586e+00 -3 7 5
1844 615 2 4.0999999999999998e-01 -8.8926921899167084e+00 -7.2118436344886501e+00 -2.0925578067600803e+00 -3 7 5
2332 778 1 -8.1999999999999995e-01 -1.0418482897028820e+01 -7.5644911864148661e+00 -5.0491855820064853e+00 -6 8 -3
1532 511 2 4.0999999999999998e-01 -8.9101540355869471e+00 -9.2919628655126267e+00 -5.1749222641546062e+00 -2 6 2
2334 778 2 4.0999999999999998e-01 -1.0621028629155944e+01 -7.7548163849675076e+00 -6.0097793657698073e+00 -6 8 -3
2333 778 2 4.0999999999999998e-01 -1.0799578535550683e+01 -6.6746972137330314e+00 -4.7981443488473783e+00 -6 8 -3
1735 579 1 -8.1999999999999995e-01 -1.3850725453162614e+01 -4.9966843732939363e+00 -3.5761327439506125e+00 -4 6 -3
1845 615 2 4.0999999999999998e-01 -9.4165357362407711e+00 -7.7905190540194580e+00 -3.5268936776019633e+00 -3 7 5
1241 414 2 4.0999999999999998e-01 -1.4226922365060512e+01 -9.0676300483124201e+00 -1.8048772733527940e+00 -6 3 4
1240 414 1 -8.1999999999999995e-01 -1.4069606566888377e+01 -9.8292356447557836e+00 -1.1762299055821082e+00 -6 3 4
1869 623 2 4.0999999999999998e-01 -9.3546912630980827e+00 -1.1813991867136549e+01 -4.5158651197227933e+00 4 4 2
2417 806 2 4.0999999999999998e-01 -1.3917938392834554e+01 -1.2720302104911848e+01 -7.9181832817640441e-01 2 2 9
1868 623 2 4.0999999999999998e-01 -8.0076042970491557e+00 -1.2730767568701459e+01 -4.4087403173453534e+00 4 4 2
1242 414 2 4.0999999999999998e-01 -1.4072525717598404e+01 -1.0688999908936815e+01 -1.6869017639987760e+00 -6 3 4
2510 837 2 4.0999999999999998e-01 -1.1411978263533001e+01 -8.4395155680689964e+00 -1.6569320287873790e+00 0 10 4
1531 511 1 -8.1999999999999995e-01 -8.3661858480396205e+00 -9.3410510223726675e+00 -6.0125843607871037e+00 -2 6 2
1641 547 2 4.0999999999999998e-01 -9.9460065572247274e+00 -1.4785989768128198e+01 -2.8197592156622768e+00 0 4 4
1113 371 2 4.0999999999999998e-01 -1.0946673109052783e+01 -1.2522027157318160e+01 -6.1981024216045224e+00 4 5 7
2467 823 1 -8.1999999999999995e-01 -8.1229228643438987e+00 -1.4451041231764433e+01 -6.6022683716348656e+00 -3 6 4
440 147 2 4.0999999999999998e-01 -1.3565529566059508e+01 -1.2560644529869776e+01 -4.9952291478684572e+00 -5 2 3
1781 594 2 4.0999999999999998e-01 -1.3451136898783993e+01 -6.7105815479270472e+00 -1.3483161390379106e+00 5 3 5
1255 419 1 -8.1999999999999995e-01 -9.7631845257748786e+00 -5.5808137351996248e+00 -7.1479451161520213e+00 -4 10 7
25 9 1 -8.1999999999999995e-01 -9.6793374460776640e+00 -1.3173584120912631e+01 -1.4260653685215257e+00 -5 5 5
2511 837 2 4.0999999999999998e-01 -1.0190250003481843e+01 -9.5001669137629943e+00 -1.8782814305221596e+00 0 10 4
1006 336 1 -8.1999999999999995e-01 -1.4549058536286415e+01 -1.0053016980646628e+01 -6.9922946053507840e+00 6 6 5
1008 336 2 4.0999999999999998e-01 -1.4211850561116506e+01 -1.0570050441159889e+01 -6.2055569768596381e+00 6 6 5
513 171 2 4.0999999999999998e-01 -1.3967775366479453e+01 -1.4884744525584562e+01 -5.6853555339751196e+00 0 7 8
1782 594 2 4.0999999999999998e-01 -1.2459845317809963e+01 -6.2512003946662880e+00 -2.5619498283369406e+00 5 3 5
511 171 1 -8.1999999999999995e-01 -1.4452773420867974e+01 -1.4471697565255282e+01 -4.9145391231698508e+00 0 7 8
842 281 2 4.0999999999999998e-01 -1.2426990317865481e+01 -5.0535820288922100e+00 -6.5328238494460145e+00 -5 3 6
2509 837 1 -8.1999999999999995e-01 -1.0861087504299780e+01 -9.1525335063847049e+00 -1.2232112838143330e+00 0 10 4
1492 498 1 -8.1999999999999995e-01 -1.2297161723293403e+01 -8.1509365711730304e+00 -7.3408984852115307e+00 -2 2 13
1780 594 1 -8.1999999999999995e-01 -1.2767981873657945e+01 -7.0244126193295333e+00 -2.0077083885012232e+00 5 3 5
841 281 1 -8.1999999999999995e-01 -1.3059313375129102e+01 -5.7786547695869075e+00 -6.2600127322616821e+00 -5 3 6
60 20 2 4.0999999999999998e-01 -1.4827458302556071e+01 -5.2429771777625938e+00 -5.9693643376447891e+00 -2 6 7
1111 371 1 -8.1999999999999995e-01 -1.0808121156484457e+01 -1.2719055891429743e+01 -7.1686547817212185e+00 4 5 7
1493 498 2 4.0999999999999998e-01 -1.3121937288871646e+01 -8.6714680508929778e+00 -7.1200341004274774e+00 -2 2 13
423 141 2 4.0999999999999998e-01 -8.5772226593219578e+00 -5.0004283075007390e+00 -5.7002397945842702e+00 -2 2 5
1978 660 1 -8.1999999999999995e-01 -1.4725821115050522e+01 -1.2281569310962723e+01 -2.2308865297328069e+00 -1 11 7
1447 483 1 -8.1999999999999995e-01 -9.0219007467421690e+00 -5.6501259186331971e+00 -9.9368521912615826e-01 -4 3 9
639 213 2 4.0999999999999998e-01 -9.7252851020457207e+00 -1.0056737042276115e+01 -7.4315861327372223e+00 1 5 6
1980 660 2 4.0999999999999998e-01 -1.4459744841317294e+01 -1.2806460774257273e+01 -3.0393920861310804e+00 -1 11 7
26 9 2 4.0999999999999998e-01 -9.6012052782378774e+00 -1.3059282666527945e+01 -4.3570207199402944e-01 -5 5 5
2469 823 2 4.0999999999999998e-01 -8.5453683011128234e+00 -1.3873648781423119e+01 -5.9035934358269184e+00 -3 6 4
1448 483 2 4.0999999999999998e-01 -9.3857273098913225e+00 -6.0004263518790566e+00 -1.3060426542134529e-01 -4 3 9
1737 579 2 4.0999999999999998e-01 -1.3302085406897566e+01 -5.0154760429311178e+00 -4.4119735198021530e+00 -4 6 -3
852 284 2 4.0999999999999998e-01 -1.2413341872636874e+01 -1.4722012237808437e+01 -2.0987784168228707e-01 4 4 5
88 30 1 -8.1999999999999995e-01 -1.4439042176346417e+01 -6.4417453761642705e+00 -4.3435553959682238e-02 -8 10 2
838 280 1 -8.1999999999999995e-01 -6.4586733909124128e+00 -5.8210795231196499e+00 -2.3535422427452168e+00 2 4 3
2119 707 1 -8.1999999999999995e-01 -4.1898407578400487e-01 -5.8146909857603699e+00 -2.3421600550967661e+00 0 11 9
225 75 2 4.0999999999999998e-01 -5.2122590742900421e+00 -7.7964513053069213e+00 -7.3938696847719347e+00 -5 5 4
1889 630 2 4.0999999999999998e-01 -2.1177678847208483e+00 -5.5830684570872382e+00 -1.6466897553159239e+00 -1 0 0
1778 593 2 4.0999999999999998e-01 -2.1043449213614984e-01 -1.1442324802437453e+01 -7.1698519349859851e+00 -1 2 5
969 323 2 4.0999999999999998e-01 -4.0113770806488525e-01 -6.8971979939655323e+00 -7.4705579736248717e+00 3 7 -5
98 33 2 4.0999999999999998e-01 -3.5574885628624635e+00 -8.2319061209535427e+00 -8.5075211051942290e-01 4 3 3
1533 511 2 4.0999999999999998e-01 -7.4651480370460215e+00 -9.7208401850286315e+00 -5.8031090418172866e+00 -2 6 2
2540 847 2 4.0999999999999998e-01 -3.6652400341427818e+00 -1.3762987122246876e+01 -3.4645212004044765e+00 3 10 3
99 33 2 4.0999999999999998e-01 -3.7374315361285806e+00 -6.6460625439450300e+00 -5.0532848245216755e-01 4 3 3
2430 810 2 4.0999999999999998e-01 -6.8900226371833835e+00 -1.1296007416597199e+01 -1.7350120218529241e+00 -2 1 7
1218 406 2 4.0999999999999998e-01 -1.0220868781670269e+00 -1.0646368318941722e+01 -4.9318318385762812e+00 -3 4 -2
495 165 2 4.0999999999999998e-01 -5.8638956303379821e+00 -1.4053512673807454e+01 -4.3844737767882496e+00 -2 8 2
311 104 2 4.0999999999999998e-01 -1.3579072244545483e+00 -8.9139768773097874e+00 -1.2182254965013026e+00 5 6 3
2428 810 1 -8.1999999999999995e-01 -7.2031911134191748e+00 -1.2245478142336248e+01 -1.7554990714018963e+00 -2 1 7
673 225 1 -8.1999999999999995e-01 -6.6109789985540495e+00 -9.5696742147205267e+00 -1.8736914047788762e+00 5 5 4
493 165 1 -8.1999999999999995e-01 -6.4289871381728982e+00 -1.3241180710342883e+01 -4.2403306396541112e+00 -2 8 2
2429 810 2 4.0999999999999998e-01 -7.2275914609089398e+00 -1.2608575395297688e+01 -8.2407331037671483e-01 -2 1 7
967 323 1 -8.1999999999999995e-01 -1.3762040514978580e-01 -6.4689379981816391e+00 -6.6061848615064047e+00 3 7 -5
494 165 2 4.0999999999999998e-01 -6.7423707150214245e+00 -1.3217322266569475e+01 -3.2910096362857484e+00 -2 8 2
1145 382 2 4.0999999999999998e-01 -3.4343312634375778e+00 -8.8930056707929879e+00 -7.4563489573168287e+00 -6 11 6
505 169 1 -8.1999999999999995e-01 -2.1761946730420387e+00 -1.2320834918185506e+01 -7.5607566730251996e-01 6 1 5
2574 858 2 4.0999999999999998e-01 -4.5897925235962926e+00 -1.2787782742343406e+01 -6.9611160849028630e+00 -4 5 10
2541 847 2 4.0999999999999998e-01 -2.1802855595727593e+00 -1.3482638578510413e+01 -4.0833197234637559e+00 3 10 3
507 169 2 4.0999999999999998e-01 -1.3999419623045082e+00 -1.1697338007148035e+01 -8.4920015575342234e-01 6 1 5
1575 525 2 4.0999999999999998e-01 -4.4728948488914604e+00 -7.3975096187252172e+00 -4.0723235252250678e+00 1 3 3
1793 598 2 4.0999999999999998e-01 -5.3066334669375710e+00 -9.9947048161535328e+00 -4.7698742271276995e+00 2 5 1
223 75 1 -8.1999999999999995e-01 -4.6720644912884737e+00 -8.0832015398918937e+00 -6.6026977168234939e+00 -5 5 4
2539 847 1 -8.1999999999999995e-01 -2.7067762793231385e+00 -1.3587579985325860e+01 -3.2396470087609011e+00 3 10 3
312 104 2 4.0999999999999998e-01 -1.2019332927660962e+00 -9.0394092706645406e+00 -2.8388844795692467e+00 5 6 3
1217 406 2 4.0999999999999998e-01 -1.3451959650621053e+00 -9.7222549096991244e+00 -6.2388175368585692e+00 -3 4 -2
674 225 2 4.0999999999999998e-01 -7.3921566418154674e+00 -9.0859674946511966e+00 -2.2683788299644103e+00 5 5 4
875 292 2 4.0999999999999998e-01 -5.0763065447776761e+00 -9.1688845486412411e+00 -2.7607254126032323e+00 0 2 2
840 280 2 4.0999999999999998e-01 -7.3105225900812982e+00 -5.6461803940461941e+00 -1.8598297036887406e+00 2 4 3
968 323 2 4.0999999999999998e-01 -7.1115898537682831e-01 -6.8258861564077513e+00 -5.8688719174318074e+00 3 7 -5
1659 553 2 4.0999999999999998e-01 -2.8114976065318515e+00 -1.4507439474847809e+01 -6.5451977823064453e+00 1 6 4
675 225 2 4.0999999999999998e-01 -6.3757349586567695e+00 -9.1597571549607917e+00 -9.9243258458056083e-01 5 5 4
1658 553 2 4.0999999999999998e-01 -2.1124685632058871e+00 -1.3147399063138947e+01 -7.1181246585798812e+00 1 6 4
310 104 1 -8.1999999999999995e-01 -1.8495437665336549e+00 -9.0573714256463767e+00 -2.0771319850207064e+00 5 6 3
2573 858 2 4.0999999999999998e-01 -5.8428877950433513e+00 -1.1801339637155735e+01 -6.6100050502758290e+00 -4 5 10
876 292 2 4.0999999999999998e-01 -3.4565229578427044e+00 -9.1276464774128439e+00 -2.9636965109713849e+00 0 2 2
1792 598 1 -8.1999999999999995e-01 -5.9583504702154872e+00 -1.0622332025889119e+01 -5.1957120631376839e+00 2 5 1
1657 553 1 -8.1999999999999995e-01 -2.9581393849420650e+00 -1.3541460870363949e+01 -6.7582009966629641e+00 1 6 4
1573 525 1 -8.1999999999999995e-01 -4.5570855765124865e+00 -6.4335215658105280e+00 -4.3245690463159274e+00 1 3 3
506 169 2 4.0999999999999998e-01 -2.2583883722355846e+00 -1.2876638965168494e+01 -1.5833089535758553e+00 6 1 5
2572 858 1 -8.1999999999999995e-01 -5.4166329986227524e+00 -1.2357565976857913e+01 -7.3233828946192459e+00 -4 5 10
1794 598 2 4.0999999999999998e-01 -5.9579104037534023e+00 -1.1490526476924591e+01 -4.6994993649754981e+00 2 5 1
874 292 1 -8.1999999999999995e-01 -4.3384049873475217e+00 -8.9325429566220969e+00 -3.3928905675641641e+00 0 2 2
224 75 2 4.0999999999999998e-01 -4.4806880094212129e+00 -7.2900045584287581e+00 -6.0245951819117405e+00 -5 5 4
1071 357 2 4.0999999999999998e-01 -2.7082507761355235e+00 -6.7680798365951897e+00 -4.5154520682169785e+00 -2 7 5
1070 357 2 4.0999999999999998e-01 -1.8254425002334074e+00 -8.1398409162042409e+00 -4.5897365530422931e+00 -2 7 5
1069 357 1 -8.1999999999999995e-01 -1.7842450436251500e+00 -7.1407584971451934e+00 -4.6009675482870662e+00 -2 7 5
1216 406 1 -8.1999999999999995e-01 -1.2018539861584010e+00 -9.7152581546595371e+00 -5.2491746989334285e+00 -3 4 -2
1574 525 2 4.0999999999999998e-01 -5.2139021783162942e+00 -5.9862701274406067e+00 -3.7174883688231510e+00 1 3 3
2121 707 2 4.0999999999999998e-01 -6.1828474597736793e-01 -6.2777968119730101e+00 -3.2057577988565669e+00 0 11 9
97 33 1 -8.1999999999999995e-01 -4.1808915358830081e+00 -7.5420643414005548e+00 -4.8268158297327091e-01 4 3 3
1888 630 1 -8.1999999999999995e-01 -2.7941910447362801e+00 -5.2382236600014060e+00 -9.9590360042943615e-01 -1 0 0
839 280 2 4.0999999999999998e-01 -5.6922798006150952e+00 -5.4278102848014029e+00 -1.8456357576364368e+00 2 4 3
470 157 2 4.0999999999999998e-01 -9.0946983447366883e+00 -5.4898467450225166e+00 5.4526076356856823e+00 -3 8 3
1627 543 1 -8.1999999999999995e-01 -1.3455355878232959e+01 -8.8434446261173143e+00 1.1452307243227029e+00 -6 4 3
2090 697 2 4.0999999999999998e-01 -1.2351519038818269e+01 -1.0682762151574192e+01 2.9185492217380453e+00 -1 9 4
2089 697 1 -8.1999999999999995e-01 -1.2545109799586413e+01 -1.0217034505204929e+01 3.7820358887549279e+00 -1 9 4
2091 697 2 4.0999999999999998e-01 -1.1978633061234177e+01 -9.3959548757843514e+00 3.8521871513461416e+00 -1 9 4
1165 389 1 -8.1999999999999995e-01 -1.0463079355581502e+01 -7.4158011674708781e+00 1.1737551622831663e+00 -2 3 3
1756 586 1 -8.1999999999999995e-01 -1.2544258967880639e+01 -5.1824494260484304e+00 4.4834189056774658e+00 3 3 3
16 6 1 -8.1999999999999995e-01 -1.1278593789640240e+01 -7.6435704579978561e+00 4.0724609774169469e+00 5 1 2
1166 389 2 4.0999999999999998e-01 -1.1004634870615480e+01 -7.5913443287654498e+00 1.9958811156962764e+00 -2 3 3
1167 389 2 4.0999999999999998e-01 -1.0855906899568005e+01 -7.9167855925128254e+00 4.0259370913724979e-01 -2 3 3
117 39 2 4.0999999999999998e-01 -9.9901057303057037e+00 -1.3480306564607879e+01 1.8764046848552365e+00 -8 4 5
18 6 2 4.0999999999999998e-01 -1.0286782405609763e+01 -7.6718119247527250e+00 4.1969659149198204e+00 5 1 2
1117 373 1 -8.1999999999999995e-01 -1.2131919380926540e+01 -1.1236458713311894e+01 1.1761640490071361e+00 -3 2 4
17 6 2 4.0999999999999998e-01 -1.1603194936618845e+01 -6.7055585329451670e+00 4.1939376076830914e+00 5 1 2
116 39 2 4.0999999999999998e-01 -9.0219377634942024e+00 -1.2214642360820438e+01 1.5195550648349450e+00 -8 4 5
1118 373 2 4.0999999999999998e-01 -1.1237730294350978e+01 -1.1678029850849082e+01 1.2498501767821057e+00 -3 2 4
1119 373 2 4.0999999999999998e-01 -1.2775825340130796e+01 -1.1859625770265639e+01 7.3227579227580009e-01 -3 2 4
469 157 1 -8.1999999999999995e-01 -8.6484916181418914e+00 -6.1057359621421572e+00 4.8033242949026178e+00 -3 8 3
620 207 2 4.0999999999999998e-01 -1.0292578798367021e+01 -1.2524850955607402e+01 4.9879592678712559e+00 -4 0 2
115 39 1 -8.1999999999999995e-01 -9.7585689864642617e+00 -1.2800061322473326e+01 1.1809580738655452e+00 -8 4 5
619 207 1 -8.1999999999999995e-01 -1.0105901808204521e+01 -1.3282821060106304e+01 4.3629617804905383e+00 -4 0 2
1751 584 2 4.0999999999999998e-01 -8.1192671856005596e+00 -9.1165241171316360e+00 5.6614834443019824e-01 -3 8 5
622 208 1 -8.1999999999999995e-01 -9.4527496010046974e+00 -1.0229103929589481e+01 3.7114333765153713e+00 -4 8 0
623 208 2 4.0999999999999998e-01 -8.6939395986786074e+00 -1.0727071003088252e+01 4.1312250652233029e+00 -4 8 0
2217 739 2 4.0999999999999998e-01 -1.3944870381388528e+01 -9.2188174629641324e+00 4.1264837226311482e+00 -2 6 1
1221 407 2 4.0999999999999998e-01 -1.4825040390678229e+01 -1.1977434873329720e+01 2.5076190830596463e+00 -1 7 8
624 208 2 4.0999999999999998e-01 -9.2293701027569170e+00 -1.0022387641836890e+01 2.7588795348789592e+00 -4 8 0
1750 584 1 -8.1999999999999995e-01 -8.7758547030826080e+00 -9.8117330356101693e+00 8.5866539656707808e-01 -3 8 5
2277 759 2 4.0999999999999998e-01 -8.4472762045018008e+00 -1.2624269357307728e+01 4.2114157195416322e+00 3 7 9
2481 827 2 4.0999999999999998e-01 -1.1898377293512992e+01 -1.0999280547445936e+01 5.2883130325717769e+00 4 3 2
563 188 2 4.0999999999999998e-01 -1.1323587925013857e+01 -8.4993114930474096e+00 5.8605404746074701e+00 1 0 2
90 30 2 4.0999999999999998e-01 -1.4130972177192564e+01 -5.6473625452820588e+00 4.8005052282068306e-01 -8 10 2
2275 759 1 -8.1999999999999995e-01 -7.5102376609883326e+00 -1.2332984575495797e+01 4.4040314457758623e+00 3 7 9
471 157 2 4.0999999999999998e-01 -7.7923566316101223e+00 -6.4411027521643529e+00 5.1964538438514882e+00 -3 8 3
2591 864 2 4.0999999999999998e-01 -1.3831625473908389e+01 -1.3406316308284639e+01 4.9508444429869041e+00 0 5 1
2418 806 2 4.0999999999999998e-01 -1.4161514153586216e+01 -1.3996155597150349e+01 1.9786117706354567e-01 2 2 9
1628 543 2 4.0999999999999998e-01 -1.2658501134245324e+01 -9.3878227700329369e+00 1.4072684624284424e+00 -6 4 3