LAMMPS data file via write_data, version 15 May 2015, timestep = 8008000

2611 atoms
6 atom types
1749 bonds
4 bond types
894 angles
3 angle types
44 dihedrals
3 dihedral types
10 impropers
1 improper types

-1.4932185031152560e+01 1.4932185031152560e+01 xlo xhi
-1.4932185031152560e+01 1.4932185031152560e+01 ylo yhi
-1.4932185031152560e+01 1.4932185031152560e+01 zlo zhi

Masses

1 15.9994
2 1.00794
3 12.0107
4 1.00794
5 12.0107
6 12.0107

Bond Coeffs # harmonic

1 1000 1
2 469 1.4
3 367 1.08
4 469 0.7

Angle Coeffs # harmonic

1 100 109.47
2 35 120
3 63 120

Dihedral Coeffs # opls

1 0 7.25 0 0
2 0 7.25 0 0
3 0 7.25 0 0

Improper Coeffs # cvff

1 2.5 -1 2

Atoms # full

1396 466 1 -8.1999999999999995e-01 -1.2790304793630884e+01 -1.2530825903555323e+01 -1.1544457021101145e+01 -1 6 6
931 311 1 -8.1999999999999995e-01 -8.4282364835378836e+00 -1.0294072824036075e+01 -8.1467173361217640e+00 -1 2 4
1398 466 2 4.0999999999999998e-01 -1.2997146968917081e+01 -1.2612944282342063e+01 -1.0569544020679036e+01 -1 6 6
1397 466 2 4.0999999999999998e-01 -1.1890280752315915e+01 -1.2925806088721830e+01 -1.1728657635069245e+01 -1 6 6
1544 515 2 4.0999999999999998e-01 -1.3585339101134577e+01 -1.0751683818942167e+01 -1.4062927254449860e+01 -2 2 1
166 56 1 -8.1999999999999995e-01 -1.3552704997732667e+01 -1.2377695096826226e+01 -8.7631412931180925e+00 -3 5 7
168 56 2 4.0999999999999998e-01 -1.4390122636155967e+01 -1.2897635448270204e+01 -8.5946890156466935e+00 -3 5 7
1211 404 2 4.0999999999999998e-01 -9.5242761832420122e+00 -1.0039488892695914e+01 -1.3491378661974013e+01 -3 3 0
1210 404 1 -8.1999999999999995e-01 -1.0046609277649914e+01 -9.2410362537033706e+00 -1.3192006096675655e+01 -3 3 0
1212 404 2 4.0999999999999998e-01 -9.4173102691168786e+00 -8.5016574565080809e+00 -1.2952664970554924e+01 -3 3 0
807 269 2 4.0999999999999998e-01 -1.2938320756304618e+01 -1.0999885706847145e+01 -1.2014813115930332e+01 -3 4 3
571 191 1 -8.1999999999999995e-01 -1.0339440301529802e+01 -1.3805513255030982e+01 -1.1738211146917720e+01 0 3 1
1478 493 2 4.0999999999999998e-01 -1.3670394379242417e+01 -5.6956384342634205e+00 -1.4005556575873516e+01 -2 4 5
2007 669 2 4.0999999999999998e-01 -1.3648470814082190e+01 -1.3367765340879140e+01 -1.2754852790740483e+01 0 3 6
1378 460 1 -8.1999999999999995e-01 -8.7129436326672653e+00 -1.2974292591865112e+01 -8.4541314814081545e+00 0 1 0
1380 460 2 4.0999999999999998e-01 -9.4837201572472161e+00 -1.3501621271905602e+01 -8.8116373451534145e+00 0 1 0
86 29 2 4.0999999999999998e-01 -7.8564709006378104e+00 -7.7134178855009452e+00 -1.4141479773613156e+01 0 5 4
33 11 2 4.0999999999999998e-01 -1.0759537090750262e+01 -8.3794971379269079e+00 -1.1614172029034524e+01 1 3 6
572 191 2 4.0999999999999998e-01 -1.0145106356981255e+01 -1.4625767020825320e+01 -1.1200251564997007e+01 0 3 1
805 269 1 -8.1999999999999995e-01 -1.3371976115930551e+01 -1.0123522582915824e+01 -1.2224367770215983e+01 -3 4 3
550 184 1 -8.1999999999999995e-01 -1.3196829575449717e+01 -9.6710054928571374e+00 -9.3156058497623597e+00 -2 4 2
933 311 2 4.0999999999999998e-01 -8.5522854848389080e+00 -1.1243252515598835e+01 -8.4359442206193140e+00 -1 2 4
2486 829 2 4.0999999999999998e-01 -1.3994492823813205e+01 -8.6069580082414987e+00 -8.0033482417914605e+00 2 4 0
806 269 2 4.0999999999999998e-01 -1.3086639780704566e+01 -9.4410858667310293e+00 -1.1551429684904988e+01 -3 4 3
32 11 2 4.0999999999999998e-01 -1.0914905557869488e+01 -7.2298193578672239e+00 -1.0464963028808612e+01 1 3 6
2005 669 1 -8.1999999999999995e-01 -1.4274987409102161e+01 -1.3800825999207090e+01 -1.3402863339753134e+01 0 3 6
373 125 1 -8.1999999999999995e-01 -9.5910777759159984e+00 -1.3306731582832702e+01 -1.4677779959508868e+01 0 2 1
375 125 2 4.0999999999999998e-01 -9.1747075639954652e+00 -1.2403011769258580e+01 -1.4578236907289067e+01 0 2 1
2357 786 2 4.0999999999999998e-01 -1.3405294429217633e+01 -7.5272491863382163e+00 -1.0597290869471260e+01 -3 6 2
551 184 2 4.0999999999999998e-01 -1.2282111218899926e+01 -9.4569748287737205e+00 -9.6583355385041738e+00 -2 4 2
2356 786 1 -8.1999999999999995e-01 -1.4188309097679365e+01 -6.9805104312307371e+00 -1.0300731918958524e+01 -3 6 2
2149 717 1 -8.1999999999999995e-01 -7.5562519727473836e+00 -5.3281417210171824e+00 -9.8526209642986675e+00 -1 1 1
258 86 2 4.0999999999999998e-01 -9.2090660564066340e+00 -5.8826839038358418e+00 -9.8327819804825580e+00 -2 5 3
256 86 1 -8.1999999999999995e-01 -1.0134449567553354e+01 -6.0485281929180381e+00 -9.4919837137172962e+00 -2 5 3
552 184 2 4.0999999999999998e-01 -1.3264687166874914e+01 -1.0652611968143944e+01 -9.1372060409746592e+00 -2 4 2
31 11 1 -8.1999999999999995e-01 -1.1382218962367011e+01 -7.9710907145059258e+00 -1.0946748684501385e+01 1 3 6
265 89 1 -8.1999999999999995e-01 -8.5607228083913949e+00 -7.1320328556583421e+00 -1.2549663094155985e+01 -3 2 2
167 56 2 4.0999999999999998e-01 -1.2884844668841287e+01 -1.2580274775676278e+01 -8.0469663730122960e+00 -3 5 7
267 89 2 4.0999999999999998e-01 -8.3231898030771028e+00 -7.4557927844896135e+00 -1.1633835622258722e+01 -3 2 2
1805 602 2 4.0999999999999998e-01 -7.4976798199382069e+00 -1.2641038576332416e+01 -9.8529281474784334e+00 -3 7 3
1914 638 2 4.0999999999999998e-01 -8.3878714403783050e+00 -8.9157514901582431e+00 -9.7538404182622092e+00 -1 3 3
1912 638 1 -8.1999999999999995e-01 -7.7670207865239886e+00 -8.2528798694217382e+00 -1.0172323553587395e+01 -1 3 3
306 102 2 4.0999999999999998e-01 -7.4721917085676752e+00 -1.1213478979436976e+01 -1.3852232423281126e+01 -2 4 1
304 102 1 -8.1999999999999995e-01 -8.1156387858124166e+00 -1.0969093292596840e+01 -1.4577652202159324e+01 -2 4 1
573 191 2 4.0999999999999998e-01 -1.0072661981172489e+01 -1.3959871879528453e+01 -1.2689518201147461e+01 0 3 1
2358 786 2 4.0999999999999998e-01 -1.4504226579585703e+01 -7.3066041698636983e+00 -9.4097540998657561e+00 -3 6 2
431 144 2 4.0999999999999998e-01 -1.1517348224349576e+01 -5.0229571379986169e+00 -1.2244580602609524e+01 -1 4 3
2485 829 1 -8.1999999999999995e-01 -1.4459391535400929e+01 -7.7826415176965424e+00 -7.6803095811461208e+00 2 4 0
932 311 2 4.0999999999999998e-01 -9.3045641093588358e+00 -9.9213843792286980e+00 -7.8415359920935384e+00 -1 2 4
1477 493 1 -8.1999999999999995e-01 -1.4164703179699670e+01 -6.5099949226622265e+00 -1.4309636389011402e+01 -2 4 5
2070 690 2 4.0999999999999998e-01 -1.1381541806827805e+01 -8.7995069851780947e+00 -1.4268380077936222e+01 -2 4 2
1913 638 2 4.0999999999999998e-01 -7.7216918565730355e+00 -7.4325826831231083e+00 -9.6022006205632664e+00 -1 3 3
1536 512 2 4.0999999999999998e-01 -1.3191608312442176e+01 -1.4660009721018023e+01 -1.4686565006827694e+01 2 -1 0
1379 460 2 4.0999999999999998e-01 -8.3172209160968293e+00 -1.3452271099086975e+01 -7.6699615375535943e+00 0 1 0
266 89 2 4.0999999999999998e-01 -8.9573969387227983e+00 -6.2162264130713076e+00 -1.2486968696986436e+01 -3 2 2
257 86 2 4.0999999999999998e-01 -1.0482358652734899e+01 -5.2190713764892998e+00 -9.0550133386962059e+00 -2 5 3
1530 510 2 4.0999999999999998e-01 -1.1362823201567050e+01 -6.3177237504287902e+00 -8.1307261402512800e+00 -1 4 2
1479 493 2 4.0999999999999998e-01 -1.3525931893504596e+01 -7.2744091409541989e+00 -1.4396955199931186e+01 -2 4 5
2068 690 1 -8.1999999999999995e-01 -1.2125837234012174e+01 -8.7100974017410540e+00 -1.4930205202417291e+01 -2 4 2
2292 764 2 4.0999999999999998e-01 -1.4571982727218309e+00 -8.4839236651524317e+00 -7.6288743396956171e+00 0 5 5
1722 574 2 4.0999999999999998e-01 -8.6126736956441086e-01 -1.1641955020053796e+01 -1.4844335636923617e+01 0 0 5
235 79 1 -8.1999999999999995e-01 -6.8570572816682507e-01 -8.9342445906196879e+00 -1.0334187556572523e+01 -1 4 4
1443 481 2 4.0999999999999998e-01 -5.0964088685701903e-01 -1.0036856245752865e+01 -1.4204264174516853e+01 0 5 2
273 91 2 4.0999999999999998e-01 -1.9485902688438568e+00 -1.4412330031599232e+01 -8.8417680860256525e+00 -2 4 3
41 14 2 4.0999999999999998e-01 -6.0472462428813998e+00 -7.8614924590747872e+00 -1.0732632526819064e+01 -1 3 1
2391 797 2 4.0999999999999998e-01 -5.1004782060155076e+00 -9.5528696860638806e+00 -8.5827911214727255e+00 -1 2 1
2578 860 1 -8.1999999999999995e-01 -2.0291781965513245e-01 -1.4368829497833159e+01 -1.1212659070434981e+01 1 7 2
426 142 2 4.0999999999999998e-01 -4.4401360532459826e+00 -1.4142943573033287e+01 -1.4262967212916207e+01 -1 2 -1
707 236 2 4.0999999999999998e-01 -4.6522340437187992e-01 -5.8989721345856143e+00 -8.3113383846036903e+00 0 1 1
1823 608 2 4.0999999999999998e-01 -1.9983337968355848e+00 -1.1220970904980039e+01 -1.2854290219429535e+01 -1 6 2
2151 717 2 4.0999999999999998e-01 -6.8067449238802258e+00 -5.8880519266952565e+00 -1.0205781229839285e+01 -1 1 1
236 79 2 4.0999999999999998e-01 -6.6601668325094998e-01 -8.1634750394013942e+00 -9.6973915967050850e+00 -1 4 4
42 14 2 4.0999999999999998e-01 -5.1823343869685559e+00 -7.0387135232172735e+00 -1.1846877554151675e+01 -1 3 1
78 26 2 4.0999999999999998e-01 -3.8122551489360230e+00 -9.7988331106718096e+00 -1.0738812960923468e+01 0 3 3
40 14 1 -8.1999999999999995e-01 -5.5629627094777057e+00 -7.0074834316893044e+00 -1.0922686443444160e+01 -1 3 1
425 142 2 4.0999999999999998e-01 -5.8808717546760398e+00 -1.4566596239096556e+01 -1.3621579247808379e+01 -1 2 -1
656 219 2 4.0999999999999998e-01 -5.4754501780248646e+00 -1.0432986440508936e+01 -1.3215923499878860e+01 -4 3 3
1822 608 1 -8.1999999999999995e-01 -2.0511253850749025e+00 -1.0995726091161369e+01 -1.3827152127549370e+01 -1 6 2
2533 845 1 -8.1999999999999995e-01 -6.3905136744887070e+00 -1.1777041971645028e+01 -1.2822307332429840e+01 0 2 3
312 104 2 4.0999999999999998e-01 -3.9008159113807697e+00 -1.4188881004647472e+01 -1.0861037432094587e+01 0 5 4
76 26 1 -8.1999999999999995e-01 -3.2251168497078169e+00 -9.4716168799280780e+00 -1.1479205130953739e+01 0 3 3
1652 551 2 4.0999999999999998e-01 -1.0621963525765885e+00 -1.2888428525553580e+01 -1.1226923393651006e+01 -1 3 3
1461 487 2 4.0999999999999998e-01 -3.4971592183453257e+00 -1.1281426268910879e+01 -9.1033410856751011e+00 -1 2 0
655 219 1 -8.1999999999999995e-01 -4.8542008321104291e+00 -9.7401666698883300e+00 -1.3582027868323886e+01 -4 3 3
1824 608 2 4.0999999999999998e-01 -3.0100784764960196e+00 -1.0947493281961410e+01 -1.4106553082748556e+01 -1 6 2
1451 484 2 4.0999999999999998e-01 -2.1789372682818673e+00 -1.4128217450274338e+01 -1.4131074573309862e+01 -6 2 3
465 155 2 4.0999999999999998e-01 -1.1361753180492986e+00 -1.1549806415322246e+01 -7.9039634326998671e+00 -3 5 2
1460 487 2 4.0999999999999998e-01 -2.0843033816317522e+00 -1.1701897185623590e+01 -9.8059236740601499e+00 -1 2 0
424 142 1 -8.1999999999999995e-01 -5.4091010949255107e+00 -1.3903296605805707e+01 -1.4202482258969452e+01 -1 2 -1
1459 487 1 -8.1999999999999995e-01 -2.5714595245087875e+00 -1.1620822752832892e+01 -8.9363902961614627e+00 -1 2 0
708 236 2 4.0999999999999998e-01 -1.9446381321044388e+00 -6.2355022890228256e+00 -8.9152084876539792e+00 0 1 1
310 104 1 -8.1999999999999995e-01 -4.8686409603185847e+00 -1.4083194685493229e+01 -1.1089351860888520e+01 0 5 4
877 293 1 -8.1999999999999995e-01 -2.1174255209490642e+00 -5.3920576353807750e+00 -1.2807330187515559e+01 1 3 3
1651 551 1 -8.1999999999999995e-01 -1.2429097486219209e+00 -1.1921833982177098e+01 -1.1408637694993228e+01 -1 3 3
2534 845 2 4.0999999999999998e-01 -6.2457253925661895e+00 -1.2667718504860950e+01 -1.3253252901926666e+01 0 2 3
1806 602 2 4.0999999999999998e-01 -5.9703726903835133e+00 -1.3062701141655086e+01 -1.0248039905620118e+01 -3 7 3
2389 797 1 -8.1999999999999995e-01 -4.9202321575415908e+00 -1.0025036488944178e+01 -9.4456655556577918e+00 -1 2 1
590 197 2 4.0999999999999998e-01 -3.3486531478725805e+00 -6.2849777036709629e+00 -1.3495495262031515e+01 2 3 1
1258 420 1 -8.1999999999999995e-01 -3.5988665634281958e+00 -5.7062826698611673e+00 -9.3702306816474366e+00 -1 2 4
706 236 1 -8.1999999999999995e-01 -1.0432726011936797e+00 -6.6139109423651465e+00 -8.7046627173146049e+00 0 1 1
1653 551 2 4.0999999999999998e-01 -4.4326495994215875e-01 -1.1379181427714341e+01 -1.1151579734293492e+01 -1 3 3
657 219 2 4.0999999999999998e-01 -4.2227595378670770e+00 -9.4461412972093086e+00 -1.2864522914691442e+01 -4 3 3
77 26 2 4.0999999999999998e-01 -2.3070497356960331e+00 -9.2961012139317365e+00 -1.1123776525857759e+01 0 3 3
1260 420 2 4.0999999999999998e-01 -4.4411754270199069e+00 -6.1898363197303325e+00 -9.6082937232986083e+00 -1 2 4
1804 602 1 -8.1999999999999995e-01 -6.6104580695429753e+00 -1.2299165953166236e+01 -1.0162675009157610e+01 -3 7 3
2390 797 2 4.0999999999999998e-01 -5.6118965555793050e+00 -1.0732856029718356e+01 -9.5891027616720539e+00 -1 2 1
2535 845 2 4.0999999999999998e-01 -6.4232851828288489e+00 -1.1888700412527392e+01 -1.1829110038665011e+01 0 2 3
2097 699 2 4.0999999999999998e-01 -3.1485781712351368e-01 -6.9538477777152838e+00 -1.2352750699484522e+01 -2 2 3
1450 484 1 -8.1999999999999995e-01 -2.8682933115861360e+00 -1.4848043112881713e+01 -1.4049700783650424e+01 -6 2 3
272 91 2 4.0999999999999998e-01 -3.2173783472264965e+00 -1.4114968312404063e+01 -7.8577292218088042e+00 -2 4 3
463 155 1 -8.1999999999999995e-01 -2.5479128936008166e-01 -1.1257208708576769e+01 -7.5331114360130149e+00 -3 5 2
589 197 1 -8.1999999999999995e-01 -4.2207963913998725e+00 -6.7104761581537247e+00 -1.3736948543786337e+01 2 3 1
591 197 2 4.0999999999999998e-01 -4.0823480774182581e+00 -7.6882410330500681e+00 -1.3894398029253079e+01 2 3 1
87 29 2 4.0999999999999998e-01 -6.5052811654070286e+00 -8.4180776651732430e+00 -1.4728268129948713e+01 0 5 4
271 91 1 -8.1999999999999995e-01 -2.9235025751849477e+00 -1.4578451632011447e+01 -8.6936733867022067e+00 -2 4 3
311 104 2 4.0999999999999998e-01 -5.1900269780305912e+00 -1.4901601262129763e+01 -1.1565696346053185e+01 0 5 4
879 293 2 4.0999999999999998e-01 -2.0591921657712504e+00 -5.4485470851898228e+00 -1.1810635567375167e+01 1 3 3
664 222 1 -8.1999999999999995e-01 -1.1439071290532441e+01 -1.1851920378009794e+01 -6.4724720150062378e+00 -2 4 2
666 222 2 4.0999999999999998e-01 -1.2072337652706054e+01 -1.1409583647839948e+01 -5.8374173952402622e+00 -2 4 2
197 66 2 4.0999999999999998e-01 -1.2094974804190338e+01 -7.7163989392264449e+00 -4.5181494049686606e+00 -1 2 1
665 222 2 4.0999999999999998e-01 -1.0932998559907620e+01 -1.1153802785186704e+01 -6.9789348971761243e+00 -2 4 2
408 136 2 4.0999999999999998e-01 -9.8267921109844885e+00 -9.5299120835285276e+00 -1.6501912713645055e+00 -3 4 3
196 66 1 -8.1999999999999995e-01 -1.1890001942209281e+01 -8.6735110133661379e+00 -4.3134422516412769e+00 -1 2 1
2288 763 2 4.0999999999999998e-01 -1.0697937970870445e+01 -9.3223633444384788e+00 -5.7139654405760609e+00 3 5 4
407 136 2 4.0999999999999998e-01 -1.1254140261546969e+01 -9.1731199975853261e+00 -9.4170249620456303e-01 -3 4 3
406 136 1 -8.1999999999999995e-01 -1.0750455881088365e+01 -9.1796412790019541e+00 -1.8055554753602561e+00 -3 4 3
198 66 2 4.0999999999999998e-01 -1.1389924224076944e+01 -8.7298368334754883e+00 -3.4493056300401381e+00 -1 2 1
667 223 1 -8.1999999999999995e-01 -1.1410605201898164e+01 -5.9344432005281131e+00 -4.7422368085818505e+00 -4 2 1
1948 650 1 -8.1999999999999995e-01 -1.4674061392479858e+01 -8.9576130559860783e+00 -3.2481485109090400e+00 -2 4 3
1949 650 2 4.0999999999999998e-01 -1.3738119437098813e+01 -8.9504786388044888e+00 -3.6002055826063781e+00 -2 4 3
696 232 2 4.0999999999999998e-01 -9.2411331667375372e+00 -1.2131899680211827e+01 -1.1367008717268376e+00 -4 4 2
322 108 1 -8.1999999999999995e-01 -1.3564268457349399e+01 -7.5692138325497105e+00 -1.1911027348799994e+00 -2 3 2
594 198 2 4.0999999999999998e-01 -1.2430561355800631e+01 -1.1887184063798724e+01 -3.1806466190492184e+00 -3 3 -2
239 80 2 4.0999999999999998e-01 -1.1472668062525067e+01 -6.7327170402728580e+00 -1.3272493561119489e+00 -1 1 0
592 198 1 -8.1999999999999995e-01 -1.2195857300101226e+01 -1.2409999626571503e+01 -2.3611587809049173e+00 -3 3 -2
694 232 1 -8.1999999999999995e-01 -9.5797948125159813e+00 -1.2995775241818713e+01 -1.5095410091156296e+00 -4 4 2
695 232 2 4.0999999999999998e-01 -9.1344469433373288e+00 -1.3177841597959807e+01 -2.3861820536805087e+00 -4 4 2
856 286 1 -8.1999999999999995e-01 -1.1851938002618107e+01 -1.4567354458629231e+01 -6.6684787567265822e+00 0 6 4
2289 763 2 4.0999999999999998e-01 -1.0859281396805333e+01 -8.4372572550339378e+00 -7.0767328760467150e+00 3 5 4
593 198 2 4.0999999999999998e-01 -1.1248999179165946e+01 -1.2218005135413007e+01 -2.1031273077926826e+00 -3 3 -2
324 108 2 4.0999999999999998e-01 -1.3914108089829316e+01 -7.8081376499180717e+00 -2.0969228492315306e+00 -2 3 2
858 286 2 4.0999999999999998e-01 -1.1531949263847778e+01 -1.3620822955221273e+01 -6.6276403293064803e+00 0 6 4
1254 418 2 4.0999999999999998e-01 -1.4269604669661911e+01 -1.2612237794498581e+01 -5.0219491213877436e+00 -2 3 5
1252 418 1 -8.1999999999999995e-01 -1.4004600139081301e+01 -1.1682825497527954e+01 -4.7651460277078126e+00 -2 3 5
669 223 2 4.0999999999999998e-01 -1.1409786929359964e+01 -5.8491604520626161e+00 -3.7458891713716032e+00 -4 2 1
1529 510 2 4.0999999999999998e-01 -1.1579276832167231e+01 -6.1515365062675009e+00 -6.5207233299350307e+00 -1 4 2
1528 510 1 -8.1999999999999995e-01 -1.1830888956571906e+01 -6.6861279709220582e+00 -7.3274981837186584e+00 -1 4 2
238 80 1 -8.1999999999999995e-01 -1.0859041448775585e+01 -6.1347563857034793e+00 -1.8428924943871543e+00 -1 1 0
240 80 2 4.0999999999999998e-01 -9.9557358629396049e+00 -6.5590182712894691e+00 -1.9063219121771819e+00 -1 1 0
668 223 2 4.0999999999999998e-01 -1.0657507499498376e+01 -5.3981365497586964e+00 -5.1232898767722901e+00 -4 2 1
1829 610 2 4.0999999999999998e-01 -8.2919975470187737e+00 -1.4717624082396100e+01 -3.7910415923551550e+00 -1 4 -1
1830 610 2 4.0999999999999998e-01 -8.0272230459451901e+00 -1.4353672084472054e+01 -5.3607591127047449e+00 -1 4 -1
857 286 2 4.0999999999999998e-01 -1.2626150984814785e+01 -1.4684590610663019e+01 -6.0465203055582322e+00 0 6 4
1047 349 2 4.0999999999999998e-01 -1.1988550569816089e+01 -1.4254979563585952e+01 -2.4654505324033593e+00 1 4 0
2487 829 2 4.0999999999999998e-01 -1.3787568232357360e+01 -7.1510262079979929e+00 -7.2934014485892300e+00 2 4 0
2287 763 1 -8.1999999999999995e-01 -1.0607180469735738e+01 -9.3326735836457573e+00 -6.7097762622813022e+00 3 5 4
2476 826 1 -8.1999999999999995e-01 -7.9976684220691387e+00 -1.0830594594851327e+01 -1.2112226209075754e+00 1 5 2
2477 826 2 4.0999999999999998e-01 -7.8267340639930314e+00 -1.0513594478089885e+01 -2.7833744039866559e-01 1 5 2
1828 610 1 -8.1999999999999995e-01 -8.2809440778719399e+00 -1.3981614197035679e+01 -4.4679091606153492e+00 -1 4 -1
1253 418 2 4.0999999999999998e-01 -1.4673359460355732e+01 -1.1311485805244665e+01 -4.1210573386208207e+00 -2 3 5
670 224 1 -8.1999999999999995e-01 -1.4196982954478557e+01 -1.4489160762152745e+01 -4.8417536094477462e+00 -1 -2 0
2206 736 1 -8.1999999999999995e-01 -8.0416867104921756e+00 -6.8678472958329024e+00 -1.7561041697589630e+00 -2 4 4
2208 736 2 4.0999999999999998e-01 -7.9362439019003173e+00 -7.6364447022462896e+00 -2.3870735035160315e+00 -2 4 4
2471 824 2 4.0999999999999998e-01 -7.5846225603125479e+00 -1.2359524111963806e+01 -4.0272449278718554e+00 -7 5 -1
672 224 2 4.0999999999999998e-01 -1.3461452883705626e+01 -1.4712865742490607e+01 -4.2022741028984960e+00 -1 -2 0
2253 751 2 4.0999999999999998e-01 -1.3552221175779591e+01 -1.2518528602420457e+01 -7.2622659209712737e-01 2 3 4
323 108 2 4.0999999999999998e-01 -1.3187459629956006e+01 -8.3855305072980197e+00 -7.5335332452414683e-01 -2 3 2
1128 376 2 4.0999999999999998e-01 -8.3777293732394433e+00 -5.1591867539968597e+00 -6.1711096431124961e+00 -1 2 1
2178 726 2 4.0999999999999998e-01 -3.0111606359291567e+00 -1.2060459211365053e+01 -7.0558952650877558e+00 -1 3 1
2231 744 2 4.0999999999999998e-01 -4.3062593845591035e+00 -7.4246725589900437e+00 -7.2608407052503443e+00 2 2 3
1411 471 1 -8.1999999999999995e-01 -2.1424858905573885e-01 -1.3347709528729588e+01 -3.1311666269448182e+00 0 6 5
2536 846 1 -8.1999999999999995e-01 -5.6284980226797163e+00 -5.9154662999225813e+00 -4.4195521971492369e-01 -3 3 1
569 190 2 4.0999999999999998e-01 -1.3702494923582726e+00 -1.4356889319101784e+01 -3.8574328158982603e+00 0 7 4
2230 744 1 -8.1999999999999995e-01 -4.1731480470871070e+00 -8.4082250592472079e+00 -7.1388231482029703e+00 2 2 3
2110 704 1 -8.1999999999999995e-01 -2.4272963739692397e+00 -1.4442103161969976e+01 -9.6335612631400558e-01 -3 2 3
1249 417 1 -8.1999999999999995e-01 -1.3131542033491197e+00 -5.5522609485049248e+00 -2.6421315763069284e+00 1 5 0
1250 417 2 4.0999999999999998e-01 -4.5701563524548305e-01 -5.1780894964043078e+00 -2.2857540587984797e+00 1 5 0
2577 859 2 4.0999999999999998e-01 -1.6656961227366356e+00 -1.0962063588383469e+01 -3.7452812604169488e+00 -3 5 3
2347 783 1 -8.1999999999999995e-01 -1.0215545302022591e+00 -8.9816383057366984e+00 -1.3617294116207681e+00 4 2 -1
2576 859 2 4.0999999999999998e-01 -6.3856693775485951e-01 -9.9652223900429355e+00 -2.9592196725863626e+00 -3 5 3
2478 826 2 4.0999999999999998e-01 -7.3991796374094161e+00 -1.0340290064520440e+01 -1.8447800621813037e+00 1 5 2
2349 783 2 4.0999999999999998e-01 -1.2780697802854721e+00 -9.9451732535881767e+00 -1.2856849538065536e+00 4 2 -1
2348 783 2 4.0999999999999998e-01 -1.5662357753203864e+00 -8.4401681096727792e+00 -7.2132736340223502e-01 4 2 -1
19 7 1 -8.1999999999999995e-01 -5.2172983355696090e-01 -6.4290345384523704e+00 -5.4642256260885134e+00 -4 2 1
2337 779 2 4.0999999999999998e-01 -3.9131758007586832e+00 -7.9529132028936695e+00 -2.9328315117348556e+00 -2 3 1
2207 736 2 4.0999999999999998e-01 -7.1476201509403223e+00 -6.6151242422690792e+00 -1.3862954342270584e+00 -2 4 4
330 110 2 4.0999999999999998e-01 -6.1491094577198560e+00 -6.0412840307393232e+00 -6.0550034117315992e+00 -3 3 3
570 190 2 4.0999999999999998e-01 -2.2631638680123913e+00 -1.4412462101591123e+01 -5.2235203873843066e+00 0 7 4
2177 726 2 4.0999999999999998e-01 -3.0194045006884966e+00 -1.2421108229202208e+01 -5.4632735367351533e+00 -1 3 1
2470 824 1 -8.1999999999999995e-01 -6.9125388294166417e+00 -1.1645310665815646e+01 -3.8318349851350977e+00 -7 5 -1
17 6 2 4.0999999999999998e-01 -7.4304288773973592e+00 -9.9449816400678035e+00 -6.7581492320481615e+00 1 4 3
2472 824 2 4.0999999999999998e-01 -6.6810318499948789e+00 -1.1165018660311469e+01 -4.6778293864879217e+00 -7 5 -1
485 162 2 4.0999999999999998e-01 -6.9162963917132920e+00 -9.6261483781213109e+00 -3.5752107474695229e+00 -1 2 4
328 110 1 -8.1999999999999995e-01 -6.9521698885885117e+00 -5.7855220465358688e+00 -6.5932061675618350e+00 -3 3 3
2575 859 1 -8.1999999999999995e-01 -8.2638165854738865e-01 -1.0424661567322945e+01 -3.8273345655597044e+00 -3 5 3
1541 514 2 4.0999999999999998e-01 -4.7778815539689710e+00 -8.1388942819515186e+00 -1.5812181953807247e-01 0 3 1
21 7 2 4.0999999999999998e-01 -5.7417616732313803e-01 -5.6645752825602624e+00 -6.1067471361923218e+00 -4 2 1
18 6 2 4.0999999999999998e-01 -6.0206774361062205e+00 -9.1726576712621579e+00 -6.4705798280891997e+00 1 4 3
627 209 2 4.0999999999999998e-01 -5.6503238039382229e+00 -1.4679517458013315e+01 -2.7206416557508177e+00 0 6 3
1884 628 2 4.0999999999999998e-01 -4.1040730269783356e+00 -6.5175116761526137e+00 -4.9828522847761842e+00 -1 5 4
561 187 2 4.0999999999999998e-01 -3.9725008007042337e+00 -6.6144996923700088e+00 -1.1927813395579925e+00 -1 -1 0
58 20 1 -8.1999999999999995e-01 -3.1421318774128757e+00 -1.1979081371272203e+01 -3.8049452475344339e+00 -3 5 3
484 162 1 -8.1999999999999995e-01 -6.7642082562087893e+00 -8.8322675094369174e+00 -2.9864792593871208e+00 -1 2 4
16 6 1 -8.1999999999999995e-01 -6.7293131210174355e+00 -9.7542368505595078e+00 -6.0711007737630016e+00 1 4 3
755 252 2 4.0999999999999998e-01 -5.6650050273833372e+00 -1.1413411933026563e+01 -1.7124444817019651e+00 -3 3 0
2176 726 1 -8.1999999999999995e-01 -2.8936799433104348e+00 -1.2791384228487168e+01 -6.3836383534939927e+00 -1 3 1
93 31 2 4.0999999999999998e-01 -2.0398407537859811e+00 -1.1878600468736963e+01 -4.6739418120210985e-02 2 7 1
59 20 2 4.0999999999999998e-01 -2.7153790682052463e+00 -1.2839509433887603e+01 -3.5265068179625558e+00 -3 5 3
20 7 2 4.0999999999999998e-01 -8.4336105124535088e-01 -7.2633732237289257e+00 -5.9119027113827602e+00 -4 2 1
2290 764 1 -8.1999999999999995e-01 -1.4747786323808363e+00 -8.9024311924841371e+00 -6.7208408936929391e+00 0 5 5
754 252 1 -8.1999999999999995e-01 -4.8126475726588414e+00 -1.1068477365273448e+01 -1.3193934762253257e+00 -3 3 0
2336 779 2 4.0999999999999998e-01 -3.5601148367200679e+00 -8.3990828254740695e+00 -4.4634719945349381e+00 -2 3 1
2111 704 2 4.0999999999999998e-01 -1.7970624273639029e+00 -1.4123078726160099e+01 -1.6711774136255801e+00 -3 2 3
756 252 2 4.0999999999999998e-01 -4.9909760287085998e+00 -1.0210555343902449e+01 -8.3757277345267944e-01 -3 3 0
2335 779 1 -8.1999999999999995e-01 -4.2178113101544419e+00 -7.9170621895010420e+00 -3.8846163339261501e+00 -2 3 1
92 31 2 4.0999999999999998e-01 -3.0626167695870681e+00 -1.1261100866588997e+01 -1.1599344165037824e+00 2 7 1
2232 744 2 4.0999999999999998e-01 -3.2108167969203354e+00 -8.5920177346731492e+00 -6.9385202441627971e+00 2 2 3
60 20 2 4.0999999999999998e-01 -3.9040313559288329e+00 -1.1771099712974992e+01 -3.1915650729128853e+00 -3 5 3
2291 764 2 4.0999999999999998e-01 -9.9090011552567425e-01 -9.7771483793381080e+00 -6.7475597059853190e+00 0 5 5
486 162 2 4.0999999999999998e-01 -5.8701212813740966e+00 -8.4330913725515586e+00 -3.1895785874562108e+00 -1 2 4
560 187 2 4.0999999999999998e-01 -2.5086317757238827e+00 -6.9390571349612848e+00 -1.8395653271725418e+00 -1 -1 0
1251 417 2 4.0999999999999998e-01 -1.1727850817124281e+00 -5.8716248662156492e+00 -3.5793005272243157e+00 1 5 0
559 187 1 -8.1999999999999995e-01 -3.2912396015414398e+00 -7.3285594446319369e+00 -1.3539776837435724e+00 -1 -1 0
91 31 1 -8.1999999999999995e-01 -2.1058912130072933e+00 -1.1323182995934101e+01 -8.7567320454683006e-01 2 7 1
1882 628 1 -8.1999999999999995e-01 -4.3405718175685521e+00 -5.6890384238286824e+00 -5.4904769754232685e+00 -1 5 4
1413 471 2 4.0999999999999998e-01 -3.2092329878972592e-02 -1.2612266834493580e+01 -3.7837963656065625e+00 0 6 5
2112 704 2 4.0999999999999998e-01 -3.2957904661911233e+00 -1.4704374269813243e+01 -1.3839679082653369e+00 -3 2 3
568 190 1 -8.1999999999999995e-01 -2.1430016672804797e+00 -1.4801640379233135e+01 -4.3102385455126839e+00 0 7 4
329 110 2 4.0999999999999998e-01 -6.6900733100553627e+00 -5.1103674192071828e+00 -7.2827378855709606e+00 -3 3 3
626 209 2 4.0999999999999998e-01 -5.3041259691963809e+00 -1.4853127053384195e+01 -1.1342663944006510e+00 0 6 3
1485 495 2 4.0999999999999998e-01 -9.4948090722971923e+00 -9.9849075246475252e+00 1.8943421077483045e+00 1 5 4
967 323 1 -8.1999999999999995e-01 -1.2343936643167915e+01 -1.2938072818671413e+01 5.7553352981081680e+00 0 3 -1
2024 675 2 4.0999999999999998e-01 -1.3012414756448587e+01 -1.0502028754915280e+01 4.1421526048781132e-02 -4 6 4
1915 639 1 -8.1999999999999995e-01 -1.2768875207086051e+01 -5.5532111859092428e+00 5.0486685611241136e+00 3 4 3
968 323 2 4.0999999999999998e-01 -1.2880156295272645e+01 -1.3476910527460179e+01 6.4050312689374884e+00 0 3 -1
383 128 2 4.0999999999999998e-01 -1.0567505311907283e+01 -7.3305041810876643e+00 2.7782298510312486e+00 -1 3 3
382 128 1 -8.1999999999999995e-01 -1.1166433026448557e+01 -7.6601063874316084e+00 3.5080451832682442e+00 -1 3 3
2590 864 1 -8.1999999999999995e-01 -9.0276160520388977e+00 -7.4062241845316690e+00 1.5617700982038834e+00 1 4 0
384 128 2 4.0999999999999998e-01 -1.0694139255993484e+01 -8.3686501522891774e+00 4.0323416774730845e+00 -1 3 3
985 329 1 -8.1999999999999995e-01 -8.6879037233009271e+00 -6.4187231066919512e+00 5.6028916721200801e+00 -3 2 7
817 273 1 -8.1999999999999995e-01 -1.2350617513773429e+01 -1.0158096768727841e+01 5.6098406324596155e+00 -1 3 6
1448 483 2 4.0999999999999998e-01 -9.9692012505517624e+00 -9.5679233094407614e+00 5.6328734549411088e+00 0 1 2
1917 639 2 4.0999999999999998e-01 -1.2263225370882036e+01 -6.2581185677595990e+00 4.5512690571693888e+00 3 4 3
567 189 2 4.0999999999999998e-01 -1.2778175510507223e+01 -7.8492319196777904e+00 2.9259024209425952e+00 -1 4 6
1447 483 1 -8.1999999999999995e-01 -9.5389203671648772e+00 -9.4405015279805973e+00 4.7392268010044560e+00 0 1 2
1916 639 2 4.0999999999999998e-01 -1.2871418220610076e+01 -5.8284275861142643e+00 6.0045573145430993e+00 3 4 3
1449 483 2 4.0999999999999998e-01 -8.7277178442829531e+00 -1.0021600340329812e+01 4.6739805347659242e+00 0 1 2
1483 495 1 -8.1999999999999995e-01 -1.0304287745428489e+01 -1.0482903460898223e+01 1.5833328368876813e+00 1 5 4
2252 751 2 4.0999999999999998e-01 -1.4197734706075599e+01 -1.2978486136275119e+01 7.0147471625111102e-01 2 3 4
2591 864 2 4.0999999999999998e-01 -8.9102554364540509e+00 -6.7808500552294486e+00 7.9033242573643214e-01 1 4 0
2592 864 2 4.0999999999999998e-01 -8.3028502843982501e+00 -8.0950195928436131e+00 1.5457111335550948e+00 1 4 0
1484 495 2 4.0999999999999998e-01 -1.0567621354263796e+01 -1.1155843334319075e+01 2.2745562252302776e+00 1 5 4
969 323 2 4.0999999999999998e-01 -1.1584173131432777e+01 -1.3489989380519631e+01 5.4116349362113176e+00 0 3 -1
730 244 1 -8.1999999999999995e-01 -1.2512229636832767e+01 -1.2472091479357857e+01 2.8158192522183363e+00 1 4 1
566 189 2 4.0999999999999998e-01 -1.3587993066226254e+01 -8.1517775224605380e+00 1.5405355407209029e+00 -1 4 6
731 244 2 4.0999999999999998e-01 -1.3103242887101835e+01 -1.2415822771872653e+01 3.6205052686324315e+00 1 4 1
2571 857 2 4.0999999999999998e-01 -1.1439242259161839e+01 -1.3617459247952452e+01 2.0263843072981231e+00 1 5 0
987 329 2 4.0999999999999998e-01 -8.7271957814903338e+00 -6.6316682521836068e+00 4.6266268958082861e+00 -3 2 7
732 244 2 4.0999999999999998e-01 -1.2886920917335727e+01 -1.1899789983567928e+01 2.0863949254123497e+00 1 4 1
986 329 2 4.0999999999999998e-01 -7.8805224306998971e+00 -5.8590738892225289e+00 5.7897355693868953e+00 -3 2 7
818 273 2 4.0999999999999998e-01 -1.2271307350090911e+01 -9.7315838883225467e+00 6.5108284547581512e+00 -1 3 6