2611
Atoms. Timestep: 23000000
O 4.83602 7.08162 1.75362
H 4.00977 6.55411 1.95116
H 4.68188 7.65305 0.94758
O 6.99783 -3.22654 13.2663
H 6.25834 -2.62263 12.9689
H 7.65631 -3.33858 12.522
O 5.78282 2.24283 3.3301
H 5.80015 2.60039 4.26382
H 5.90521 2.99514 2.68278
O -4.6829 2.50871 -4.49814
H -3.85508 3.02629 -4.71449
H -4.86752 2.57003 -3.51726
O -10.8714 -3.56157 5.4043
H -9.87864 -3.65201 5.3251
H -11.271 -4.45234 5.62062
O -10.4363 -9.32007 3.47935
H -9.68397 -9.01132 2.89744
H -10.1314 -9.34852 4.43128
O 4.30066 7.03527 6.17843
H 3.8217 7.86936 6.45206
H 4.8873 7.23038 5.39245
O -5.31676 10.3321 12.6251
H -5.62069 10.0089 13.5213
H -4.85793 11.2148 12.7272
O -9.94451 -10.5053 -1.61098
H -10.3813 -9.62688 -1.41727
H -10.6357 -11.228 -1.61308
O -5.4932 2.20415 6.43888
H -6.06873 2.24752 7.2555
H -5.64332 3.02074 5.88155
O 13.2604 -13.485 -12.0561
H 13.8423 -13.161 -12.802
H 12.3055 -13.4826 -12.3532
O 10.4416 6.71762 -4.33024
H 10.6091 6.40208 -5.26423
H 9.56603 7.19934 -4.29319
O 12.5396 11.5916 -2.5441
H 12.6022 10.7093 -3.01053
H 12.137 12.2673 -3.16163
O -14.0976 -1.69077 -12.927
H -13.722 -2.61536 -12.9902
H -14.3857 -1.5116 -11.9863
O 12.2292 9.1781 2.85706
H 12.804 9.80797 2.33466
H 11.4206 8.94048 2.31891
O -12.5467 5.58978 -0.208177
H -12.4997 5.9785 0.711968
H -12.5312 4.59163 -0.149524
O 4.46727 -9.64673 12.837
H 5.17806 -10.2158 12.4237
H 4.74914 -9.37797 13.7581
O -12.3104 -12.4589 13.5095
H -11.6311 -12.2844 12.7967
H -12.006 -12.0463 14.3681
O -5.14615 -12.9532 -13.2073
H -5.57628 -12.5097 -12.4211
H -4.57157 -12.2921 -13.6898
O 14.8333 -4.2079 -9.47918
H 14.3521 -3.61749 -10.1272
H 14.1858 -4.55597 -8.80121
O -11.4663 11.8793 3.21372
H -11.1752 11.1716 2.57003
H -11.2275 11.6021 4.14435
O -7.95266 -14.5231 14.4914
H -8.08369 14.3439 14.127
H -8.66811 -14.3246 -14.6277
O -10.5737 3.49042 5.55026
H -10.5685 4.32066 4.9929
H -10.0871 2.76207 5.06783
O 0.122869 -5.94599 8.91943
H -0.327978 -6.44041 9.66258
H 0.834013 -5.35291 9.29694
O 2.22627 -5.21258 10.6593
H 2.89 -5.35916 9.92587
H 2.43598 -5.82059 11.425
O 14.202 -2.44632 -5.55964
H 13.4315 -1.88259 -5.2621
H -14.8338 -1.85549 -5.84862
O 8.5268 -6.11524 7.23585
H 7.55997 -6.26608 7.4419
H 8.62028 -5.31633 6.64172
O 13.7859 -10.1679 9.86603
H 14.3763 -10.4169 9.09832
H 14.2661 -10.3414 10.7258
O 7.97492 -7.93598 2.81579
H 8.61787 -7.18007 2.69252
H 8.25835 -8.71026 2.24998
O 14.5141 -6.38579 0.377752
H 14.7978 -7.32122 0.588647
H 14.359 -5.88457 1.22906
O 6.98385 2.39141 -9.56094
H 7.28118 1.77014 -10.2859
H 6.98362 1.90695 -8.68614
O 11.3682 12.182 0.690117
H 12.251 11.7286 0.812779
H 11.4982 13.0323 0.180263
O -5.7159 -3.95602 3.51787
H -6.09593 -3.63995 2.64858
H -5.00333 -4.6354 3.34275
O 7.62832 -7.10127 -9.99883
H 7.6937 -6.11531 -9.84524
H 7.30406 -7.2729 -10.9291
O 1.63879 -2.06266 -0.663436
H 1.66456 -3.03658 -0.88879
H 0.687975 -1.75658 -0.615905
O 12.3742 -5.58364 -8.6769
H 12.0557 -6.31258 -8.07091
H 12.0979 -5.78667 -9.61629
O -13.3421 9.031 3.06634
H -14.0614 8.36892 3.27645
H -13.4412 9.83022 3.65913
O 9.53545 -8.76981 6.8894
H 9.43184 -7.77876 6.9734
H 10.3041 -9.07349 7.45234
O -10.6781 -14.2648 1.82174
H -9.74924 -14.462 1.5082
H -10.6498 -13.5466 2.51696
O -0.0308727 -2.73575 5.76316
H 0.286026 -3.0137 6.66997
H -0.879612 -3.21726 5.54461
O -12.9712 13.943 1.59458
H -12.7751 12.9801 1.77998
H -12.1172 14.4632 1.59557
O -10.5385 -13.8233 -13.2642
H -10.8801 -12.9229 -12.9948
H -10.2026 -14.3077 -12.4564
O -9.00724 1.83917 1.61012
H -9.4895 1.00619 1.33891
H -8.82957 1.81612 2.59393
O -0.946862 12.0946 -8.41621
H -1.03064 11.8119 -9.37174
H -1.82578 12.4468 -8.0945
O -12.4916 -14.6247 5.62424
H -13.3347 14.6397 5.74154
H -11.7041 14.5728 5.79735
O 8.93925 -2.94668 11.0566
H 9.01589 -3.90924 10.7967
H 8.93861 -2.37827 10.2339
O 10.7688 14.2267 4.69579
H 11.4242 14.7038 4.11029
H 10.6723 13.2807 4.38622
O 8.67521 5.56111 -7.09717
H 8.01929 5.50204 -6.34467
H 9.60109 5.42835 -6.74349
O 11.6356 -7.79517 -7.12439
H 11.0772 -8.26337 -7.80918
H 11.1237 -7.72488 -6.26826
O 10.5281 5.31572 -11.6975
H 10.1393 5.99204 -12.3232
H 9.86279 5.10227 -10.9821
O -9.62738 14.4171 -11.2803
H -9.62667 13.4203 -11.3599
H -10.1297 14.6856 -10.4584
O -6.49627 -8.40921 12.6088
H -7.036 -9.22076 12.385
H -5.52875 -8.5946 12.437
O 8.42621 0.636204 9.75004
H 8.52255 0.858164 10.7203
H 8.79739 -0.276351 9.57842
O 9.37619 14.299 -2.26193
H 8.73448 13.6231 -2.62417
H 10.2449 14.2304 -2.75249
O -10.9566 -14.0211 -9.41137
H -11.759 -13.6398 -9.87049
H -10.3761 -13.2767 -9.08157
O -10.0439 9.99722 12.7972
H -9.85165 9.47013 13.625
H -9.23101 10.0119 12.2151
O -4.13469 -13.985 12.3958
H -3.38329 -13.8663 11.7467
H -4.32236 14.8289 12.5138
O 10.1366 10.7591 -5.53522
H 10.973 10.2741 -5.27978
H 10.0651 10.7981 -6.53189
O 7.25981 -9.33098 8.41288
H 6.52381 -9.98723 8.2467
H 7.86483 -9.30016 7.61727
O 9.74053 8.0613 -14.7764
H 10.1266 8.90778 14.646
H 9.36205 7.51618 14.2646
O -10.2023 8.57509 -14.4967
H -10.5555 7.6761 -14.2378
H -9.34366 8.74748 -14.0139
O -12.5046 1.15217 2.18584
H -12.574 1.65595 3.04687
H -11.7577 0.490042 2.24631
O 7.43429 13.0878 14.8735
H 6.74683 12.4964 14.452
H 8.29937 12.9975 14.3801
O -4.66066 14.8908 9.10344
H -4.27235 14.5003 9.93812
H -5.43603 14.3346 8.80457
O 12.4489 -0.995388 13.5314
H 13.0072 -1.6387 14.0553
H 12.4848 -0.0942889 13.9635
O 3.53381 -14.738 -4.33585
H 3.38388 14.3142 -3.67652
H 4.48588 -14.7528 -4.64135
O -11.2712 -4.28835 -2.85046
H -11.5065 -4.20651 -3.81893
H -10.3347 -3.96855 -2.7068
O -5.32496 -5.28685 -11.0332
H -6.04541 -5.17379 -10.349
H -5.72707 -5.25899 -11.9484
O 7.05333 -14.4065 -11.1332
H 7.23608 14.4443 -10.8395
H 7.89648 -13.9955 -11.48
O 8.11962 13.8318 3.32916
H 7.77049 12.9042 3.46215
H 9.01406 13.9174 3.76807
O -11.1507 -3.27883 8.64683
H -10.7877 -4.20745 8.72355
H -10.4454 -2.62216 8.91405
O -2.24058 -8.76423 13.9123
H -2.78194 -8.49097 13.1172
H -1.34367 -9.0869 13.61
O 5.9212 5.14912 11.0426
H 5.76589 5.93712 11.6383
H 6.70144 4.62356 11.3817
O -2.52219 12.4947 -13.1619
H -2.03914 12.4003 -14.0324
H -3.25907 11.8203 -13.1148
O -3.8312 -10.3477 -6.09443
H -4.29458 -10.0696 -5.25305
H -4.48279 -10.3372 -6.85291
O 14.6052 3.66756 13.6019
H 14.4333 2.69148 13.7349
H -14.22 3.80849 13.3756
O 8.16569 6.03928 13.575
H 7.24172 6.41821 13.5234
H 8.3084 5.40427 12.8158
O 4.72398 10.2955 4.53817
H 4.64029 11.2786 4.37528
H 5.05031 10.1387 5.47032
O -2.68307 10.455 7.54689
H -2.15216 9.84469 6.959
H -3.03178 11.2197 7.00504
O -7.15207 8.08057 -10.6694
H -6.74526 7.31541 -10.1704
H -6.7605 8.93953 -10.3395
O -0.0127221 6.41358 6.93007
H 0.130652 7.08505 7.65709
H 0.860805 5.98963 6.6909
O -10.3052 -0.694122 2.18161
H -10.7405 -1.4828 2.6158
H -9.33015 -0.877962 2.05749
O 5.17887 -5.33387 -8.39028
H 4.39324 -4.71725 -8.33986
H 5.91016 -4.89967 -8.91627
O -9.64573 13.3995 -4.89617
H -9.30099 14.2712 -5.24446
H -8.93369 12.7024 -4.9793
O -2.89485 4.13576 -13.5241
H -2.82897 3.91067 -14.4962
H -2.52379 5.05115 -13.3681
O 13.0342 3.96106 2.80426
H 13.4659 3.82065 3.69529
H 13.5827 4.60031 2.26523
O -9.6176 4.00737 14.8231
H -8.89324 4.65277 -14.7236
H -9.20907 3.15384 14.4997
O 12.7011 2.33958 -1.8934
H 11.7162 2.17046 -1.85848
H 13.192 1.49887 -1.66482
O -10.6218 -11.962 11.3565
H -10.4067 -12.9367 11.4178
H -10.8666 -11.7334 10.4143
O -14.6448 11.4815 -1.00658
H 14.4412 11.3753 -1.70983
H -14.0303 12.2286 -1.25969
O 14.2916 -0.606325 -10.5249
H 13.8018 0.202775 -10.2002
H 13.6793 -1.3967 -10.5056
O 1.68655 -9.16206 -9.20787
H 1.72844 -9.68153 -10.0613
H 2.11618 -8.26878 -9.33995
O -12.3374 13.4242 -7.92616
H -11.689 12.7766 -7.5257
H -11.8389 14.2047 -8.30336
O -4.6576 4.90167 7.00302
H -4.68613 5.35844 6.1139
H -4.80393 5.57447 7.72822
O 3.82665 -11.0451 -13.3736
H 4.27956 -10.2742 -13.8214
H 4.39587 -11.3742 -12.6201
O 11.6572 -8.9259 8.48994
H 12.0897 -9.54529 9.14515
H 12.2325 -8.11745 8.36575
O -3.40861 -5.41113 2.74641
H -2.83058 -5.35467 1.93236
H -2.84593 -5.6456 3.53913
O 12.6192 -11.8899 1.48041
H 11.6631 -12.1804 1.44197
H 12.7057 -10.9751 1.08573
O -12.3759 11.1191 -11.5064
H -12.7634 10.399 -10.9308
H -12.8565 11.9788 -11.3333
O 12.4219 13.2537 11.7164
H 12.7047 13.9698 12.3545
H 11.9513 13.6683 10.9375
O 0.90122 -8.40319 14.1244
H 1.42868 -7.76415 13.5646
H 0.809163 -8.03744 -14.7385
O 2.28886 -3.64638 3.93059
H 1.42176 -3.61964 4.428
H 2.96703 -3.09191 4.41291
O -5.55873 -14.8535 -2.46739
H -6.31889 14.3281 -2.69793
H -4.73433 14.3923 -2.30855
O -1.82649 -9.76979 -1.70053
H -0.978459 -9.68645 -1.17719
H -1.66021 -10.3192 -2.51935
O -13.4936 10.6539 7.4954
H -13.6805 11.3307 8.20746
H -13.8022 9.75352 7.80207
O -0.818761 -14.0499 -3.11341
H -0.66924 -14.2162 -4.08807
H 0.0579701 -13.8688 -2.66785
O 6.61186 11.8538 -1.87679
H 5.95904 11.1643 -1.56318
H 7.38717 11.8899 -1.24626
O -1.41147 7.13086 -9.40843
H -1.03275 7.83476 -10.0093
H -2.25735 6.77405 -9.80485
O -5.3307 13.4599 4.55622
H -5.82862 12.7105 4.11986
H -5.90553 14.278 4.5709
O 6.20476 7.6479 4.22548
H 5.69633 8.50867 4.20176
H 6.71485 7.53846 3.37236
O 4.88325 3.54305 -4.66154
H 4.81889 3.01502 -5.50831
H 4.03604 4.05602 -4.5234
O -2.38155 -4.43077 6.0838
H -3.20537 -3.87888 5.95449
H -2.49305 -5.01234 6.88961
O -8.9082 13.8175 8.4886
H -8.7927 14.5327 9.17784
H -8.03257 13.6447 8.03762
O -10.7994 -14.874 11.7603
H -11.5451 14.6733 11.1395
H -11.097 14.7833 12.7059
O 14.1099 -7.06868 5.68002
H 13.3513 -7.56166 5.25401
H -14.8177 -7.35618 5.26124
O -6.30775 1.10279 13.5605
H -6.31365 1.99152 13.1021
H -7.15689 0.987998 14.076
O 10.0392 -5.70471 -2.10371
H 9.62024 -4.81088 -1.94394
H 10.9892 -5.68803 -1.79201
O 8.16011 8.34001 -7.79386
H 7.29478 8.71686 -7.46343
H 8.25677 7.39738 -7.47438
O -3.65373 13.113 -0.129859
H -3.06944 13.6486 -0.739613
H -3.70228 13.5604 0.763161
O -7.06442 -14.0517 -10.6084
H -6.91967 -13.0865 -10.8262
H -8.03963 -14.2645 -10.669
O 7.40337 12.8139 -10.4454
H 7.50065 12.4087 -11.3544
H 6.59667 12.4316 -9.99469
O 4.89065 13.064 4.28521
H 5.73206 13.5925 4.17261
H 4.10411 13.6811 4.26491
O 3.12527 -7.05449 -9.90214
H 3.93771 -6.69349 -9.44431
H 2.56082 -6.2956 -10.2269
O -14.2611 -10.1813 12.1802
H 14.7567 -10.1621 12.8164
H -13.4869 -10.6469 12.6089
O -0.674035 11.5307 -11.1015
H 0.30535 11.6336 -11.2752
H -1.19048 11.9134 -11.8675
O 9.63796 3.57938 -3.83786
H 10.0007 2.99626 -3.11099
H 9.63759 4.53156 -3.53235
O 0.570836 14.5284 12.1844
H -0.256631 14.1231 12.573
H 1.33047 13.884 12.2722
O 8.02707 9.74468 13.0594
H 7.19259 10.2923 13.1206
H 7.86963 8.96367 12.455
O -7.91102 -1.88482 12.6797
H -7.35104 -1.91044 13.5078
H -8.87606 -1.97115 12.9272
O 0.578218 -13.8101 8.85329
H 1.0958 -13.5822 9.67799
H 0.813259 -13.1675 8.12404
O 0.46474 10.7608 1.33477
H 1.45758 10.8797 1.32432
H 0.149282 10.6748 2.27979
O 2.88008 12.9371 -2.67918
H 2.05078 12.8902 -2.12237
H 3.62985 13.3062 -2.13005
O -12.9886 2.87528 0.0317967
H -13.7487 2.54296 -0.526554
H -12.8137 2.22945 0.77495
O -0.0356703 7.92458 -5.26778
H -1.00417 7.69237 -5.1779
H 0.0993877 8.88733 -5.03356
O -2.20827 3.57256 -2.10365
H -2.81256 3.16976 -1.41621
H -2.64923 3.53144 -3.00023
O 1.96903 5.7697 1.87928
H 1.0689 6.13965 1.64933
H 1.86145 4.87024 2.30282
O -9.25319 -6.06307 -6.06541
H -9.91569 -5.64662 -6.68802
H -8.47626 -5.4454 -5.94362
O 8.50074 6.9793 2.16269
H 8.73162 7.32039 1.25146
H 9.05974 6.17636 2.36954
O 6.92053 14.1947 1.04213
H 7.22162 14.1646 1.99524
H 7.01245 13.2862 0.634667
O 1.77286 8.51902 14.049
H 2.63107 8.87826 14.4157
H 1.93575 7.62255 13.637
O -5.51279 -6.19556 -7.23225
H -4.68204 -6.51636 -6.77737
H -5.99189 -6.97355 -7.63868
O -8.37623 -0.809081 -6.7956
H -7.69522 -0.0773831 -6.76696
H -8.35678 -1.24754 -7.69412
O 1.62042 -10.126 -11.6406
H 2.27617 -10.6264 -12.2059
H 0.69009 -10.3759 -11.909
O 9.81944 -13.6529 12.7879
H 10.8024 -13.5139 12.9079
H 9.58828 -14.6017 13.0031
O -14.8405 -8.38794 -4.38741
H 14.5207 -8.94677 -5.09783
H -14.5514 -7.51456 -4.77934
O 9.92651 5.0231 -14.5498
H 9.06874 5.34309 14.8369
H 9.84476 4.0538 -14.318
O -12.5338 -11.6142 -6.52897
H -12.9719 -12.512 -6.57449
H -12.5905 -11.2627 -5.59453
O -11.8682 -10.6165 -14.2608
H -11.3219 -10.0009 -14.8288
H -12.4799 -10.0793 -13.6801
O 6.08652 -13.4364 -7.07251
H 6.40319 -14.3593 -6.85342
H 6.69239 -12.7658 -6.64458
O -3.00188 8.23294 5.75653
H -2.44012 7.45108 5.48616
H -3.51106 8.56759 4.96361
O -12.7367 13.4476 -1.69946
H -12.4002 13.0905 -2.5708
H -12.0252 14.0039 -1.27013
O 1.85209 -10.7957 12.5079
H 2.76731 -10.403 12.4174
H 1.23011 -10.1084 12.883
O 0.067222 -2.45553 -7.92578
H 0.946726 -2.93139 -7.92871
H -0.437008 -2.69214 -7.09527
O -5.98247 -2.10252 -11.151
H -6.78839 -2.63924 -11.4008
H -6.15225 -1.13632 -11.3449
O -9.19604 5.89836 -1.06672
H -9.98466 5.30102 -0.920973
H -8.67203 5.57254 -1.85363
O -2.32035 3.92119 7.91746
H -3.10671 4.27991 7.41453
H -2.04972 3.04044 7.52885
O -9.59854 -6.61176 6.47117
H -9.42931 -7.50921 6.06383
H -8.93123 -5.95507 6.11984
O 10.2203 -1.29775 8.88529
H 11.0231 -1.49766 9.44692
H 10.4457 -0.581913 8.22442
O -6.45385 3.48227 12.6164
H -6.37351 4.1464 13.3596
H -5.75583 3.66948 11.9252
O -5.95132 -10.0651 6.53918
H -5.54543 -10.9469 6.29892
H -6.29837 -10.1022 7.47628
O -9.26906 -10.1876 -13.0499
H -10.1121 -10.6008 -13.3943
H -8.48171 -10.6927 -13.4034
O -3.68466 12.6951 13.13
H -2.70382 12.6788 13.3241
H -4.16591 13.145 13.8823
O -5.18488 -2.93041 -2.41241
H -5.01472 -2.16875 -3.03764
H -5.76906 -3.60631 -2.86171
O 12.6758 1.27593 5.44957
H 12.4953 0.796703 4.59064
H 13.2039 2.10466 5.26428
O -5.78113 -12.6345 -3.9054
H -6.74386 -12.3652 -3.93051
H -5.66272 -13.3887 -3.25957
O -5.48444 3.59643 -2.07623
H -5.99471 4.26971 -2.61129
H -5.22178 3.99776 -1.19877
O 14.2589 7.37043 3.49232
H 14.1615 6.78854 2.68492
H 13.4284 7.914 3.61358
O -6.41525 6.57512 12.9714
H -7.14703 6.80411 12.3295
H -5.53837 6.57437 12.4908
O -4.46083 -12.7619 -0.612195
H -4.97416 -13.4921 -1.06303
H -3.48249 -12.963 -0.661175
O 2.79784 5.5089 -4.14787
H 2.68349 6.46167 -4.42918
H 2.29413 5.34928 -3.29889
O -13.7365 -14.0902 -6.38106
H -14.1095 -14.3405 -5.48763
H -13.1544 -14.83 -6.71838
O -9.60157 -4.82558 11.683
H -8.60666 -4.89391 11.6091
H -10.0159 -5.01741 10.7933
O 7.19424 -8.21503 -12.5807
H 7.95798 -7.78723 -13.0641
H 7.52374 -9.01405 -12.0777
O -3.85121 -10.9163 -14.8332
H -3.27264 -10.1164 14.7967
H -3.31693 -11.7487 14.8086
O 7.40041 -7.08752 11.0068
H 8.21964 -7.66097 11.0053
H 6.77452 -7.39854 10.2916
O -13.4691 -1.87603 -9.34286
H -14.1865 -1.38038 -9.83238
H -13.7778 -2.80806 -9.15319
O 12.3349 13.9039 -14.6841
H 13.2675 13.6832 -14.3987
H 11.7218 13.8421 -13.8964
O -1.86174 12.5312 8.94978
H -2.23798 11.6699 8.60841
H -1.71397 13.1571 8.18402
O 12.9278 4.82099 -13.9857
H 13.5019 4.8984 -14.8008
H 11.9817 5.04229 -14.2222
O 8.93288 11.3013 -8.31648
H 8.52336 10.3909 -8.25671
H 8.42691 11.8514 -8.9808
O -1.344 3.10104 4.68638
H -1.48706 2.47372 5.45187
H -0.372917 3.12062 4.44848
O -5.19062 10.8135 -12.2947
H -5.49913 11.7621 -12.3652
H -5.53113 10.4147 -11.4432
O 5.92018 9.92335 -11.2775
H 6.69768 10.2686 -11.8032
H 5.73348 8.97699 -11.5413
O 10.8458 -3.15812 -9.2763
H 11.2746 -3.94332 -8.82959
H 10.1427 -2.77629 -8.67638
O 4.83829 6.76897 -6.87427
H 4.15338 6.17272 -7.29304
H 5.55034 6.21085 -6.44827
O 2.38387 -4.3661 -10.1227
H 2.80595 -4.19501 -11.0129
H 2.69056 -3.67354 -9.46977
O -2.56993 -6.60409 -5.20669
H -2.07999 -7.44814 -5.42472
H -3.53046 -6.81392 -5.0241
O -9.36937 -9.44248 5.94334
H -8.73473 -10.1514 5.6358
H -9.49325 -9.51262 6.93315
O 9.02243 -0.434977 14.0998
H 8.16741 -0.667903 14.5631
H 9.2815 -1.17931 13.4843
O -5.61213 -7.82634 8.85622
H -4.6873 -7.55593 8.58874
H -5.66742 -8.82371 8.90285
O 8.86646 -12.4432 -2.57435
H 7.92359 -12.2286 -2.31954
H 8.97378 -13.4345 -2.6504
O 13.7753 -13.1397 10.089
H 14.2956 -13.0337 10.9364
H 12.8326 -12.8409 10.2371
O 5.04747 13.9877 -1.40552
H 5.68664 13.3216 -1.78977
H 5.53115 14.5809 -0.761934
O -5.95535 -10.4318 9.41081
H -5.12784 -10.8362 9.80036
H -6.7355 -10.6337 10.0029
O -11.9424 -5.54467 -10.2855
H -12.5882 -5.26154 -10.9946
H -11.2452 -6.1383 -10.6874
O 6.88048 -11.1389 -13.9051
H 7.77157 -10.8924 -14.2861
H 6.42241 -11.7826 -14.5181
O 11.5218 4.24461 11.3283
H 11.9943 3.42378 11.6492
H 11.5945 4.96297 12.0202
O 10.5322 9.43648 0.49799
H 10.5698 10.4304 0.394752
H 10.3812 9.01403 -0.395714
O -14.2118 -13.1435 -13.5354
H -14.0093 -12.6657 -14.3902
H -13.7182 -12.7059 -12.7839
O 5.91256 -7.05241 7.62955
H 6.38117 -7.90803 7.84936
H 5.06157 -7.25356 7.14444
O 4.1589 3.16778 -0.400078
H 4.98865 3.44959 0.0816697
H 3.49783 3.91805 -0.392221
O -7.31714 -1.16308 2.28217
H -6.79659 -0.661981 2.97347
H -6.76195 -1.26648 1.45692
O -0.44826 -10.8097 5.17776
H -0.825695 -10.9206 4.25841
H -0.64854 -11.625 5.72093
O -5.33405 9.20935 -14.4675
H -4.46744 8.84581 -14.8093
H -5.16533 9.75943 -13.6496
O -3.16097 -7.14588 7.93592
H -2.36125 -6.89992 8.48358
H -3.09713 -8.1065 7.66552
O 5.0516 -10.242 -10.42
H 4.6182 -9.39679 -10.1074
H 4.36703 -10.9694 -10.4688
O -10.5492 -12.6074 4.0211
H -9.71088 -12.4522 4.54376
H -11.2382 -13.0259 4.61278
O -8.05706 -11.7149 5.1276
H -7.64762 -11.9848 5.9991
H -7.39934 -11.1736 4.60378
O 14.5325 5.45475 1.28583
H -14.291 5.70656 1.35282
H 14.3179 5.20527 0.341545
O 8.20315 -12.2685 3.11201
H 8.68164 -11.7559 3.82493
H 7.45495 -11.7139 2.74788
O -8.76361 2.02946 -1.25546
H -9.54836 2.50903 -1.64811
H -8.75889 2.15449 -0.263328
O 13.9929 1.94029 -4.06469
H 13.3861 2.11756 -3.28983
H 14.3639 1.01451 -3.99248
O -10.3566 -8.72327 -7.24016
H -11.1943 -8.21139 -7.43073
H -9.77742 -8.19535 -6.61903
O -4.69363 -3.46534 -14.8202
H -4.48375 -3.05915 14.0795
H -4.45023 -4.4352 -14.8309
O 12.8376 8.20946 14.2283
H 13.1826 9.12433 14.0185
H 12.4516 8.20218 -14.6383
O 5.11614 -5.00042 9.17007
H 4.71001 -5.48646 9.9439
H 5.42483 -5.66146 8.48617
O -8.24675 -6.07052 -9.60966
H -9.01168 -6.68609 -9.79923
H -7.53211 -6.5684 -9.11834
O 1.08857 -14.0175 -11.0421
H 0.500749 -13.94 -10.2369
H 0.750347 -13.4107 -11.7614
O -1.11036 -0.399553 -9.76846
H -1.02254 -0.495844 -10.7599
H -0.373564 -0.903772 -9.31805
O -1.31715 -1.52801 -12.3142
H -1.33582 -2.42482 -11.8722
H -2.11917 -1.43005 -12.9034
O -5.10503 6.5575 9.29037
H -6.09296 6.44828 9.40013
H -4.75639 7.16928 10.0004
O -12.5524 6.35491 2.39795
H -11.9826 5.97491 3.1266
H -12.5937 7.34965 2.4916
O 8.72696 4.58236 -9.81095
H 8.23115 3.76607 -9.51459
H 8.674 5.28165 -9.09808
O 2.32999 -2.48343 -5.62523
H 1.61211 -1.90162 -5.24297
H 2.26421 -3.39865 -5.22772
O -6.52272 -8.77462 -0.275833
H -7.21009 -8.23398 -0.760824
H -6.40166 -8.40925 0.647117
O 13.8536 10.8072 1.46012
H 14.1137 10.9535 0.505717
H 14.4231 11.3774 2.05205
O -10.3705 -0.957223 -13.2626
H -10.6105 -0.963574 -12.2919
H -10.9907 -0.346796 -13.7553
O 5.8555 10.2651 7.27092
H 5.06935 10.8199 7.54329
H 6.61134 10.4235 7.90621
O -2.38659 8.72245 0.944151
H -3.19337 9.31274 0.91871
H -2.16537 8.42019 0.0169622
O 5.09901 -14.3222 -9.38791
H 5.68244 -14.1032 -10.17
H 5.39007 -13.7872 -8.59479
O -6.41513 5.73578 -8.88547
H -6.84746 4.88271 -8.59337
H -5.90602 6.13039 -8.12057
O 2.29352 8.76939 -9.91682
H 1.99127 8.75419 -8.96372
H 2.62857 7.86318 -10.1747
O 13.0814 -4.30032 -13.0523
H 12.1712 -4.4617 -13.4338
H 13.6935 -3.97906 -13.7748
O -11.9318 -3.47878 -5.431
H -11.454 -2.64073 -5.1676
H -11.7485 -3.67845 -6.39356
O -7.12651 -3.51772 10.6521
H -6.33015 -3.99751 11.0203
H -7.54959 -2.97081 11.3745
O -5.22574 -2.3591 -8.53453
H -4.93699 -3.26985 -8.23935
H -5.45561 -2.38135 -9.50749
O -12.3662 -7.69895 8.11112
H -12.7676 -7.78187 9.02327
H -11.6466 -7.00473 8.12547
O -5.76015 10.4024 9.0702
H -5.46564 9.92983 8.23956
H -5.044 11.0346 9.36569
O -9.18808 -1.99618 -9.18217
H -8.72026 -2.59666 -9.83066
H -10.0015 -1.60747 -9.61492
O 6.36515 -0.423471 14.8148
H 5.9913 -0.604802 -14.0646
H 5.7589 -0.813056 14.1215
O 12.2589 1.93064 14.3805
H 11.3257 2.25683 14.5312
H 12.7071 1.78364 -14.5268
O 12.8306 -5.08025 12.2683
H 12.8608 -6.07953 12.2459
H 12.2252 -4.74875 11.5447
O 8.30319 12.9926 -5.04561
H 8.99078 12.2665 -5.04085
H 8.28878 13.4321 -5.94372
O 5.30709 -0.651711 -8.80921
H 5.99965 -1.12132 -9.35674
H 5.52636 0.322641 -8.75879
O -10.4961 -2.62675 12.8628
H -10.4881 -2.88885 13.8278
H -10.34 -3.43592 12.2963
O 10.5187 -4.55426 -14.1366
H 10.8473 -3.98192 -14.8879
H 9.57804 -4.83897 -14.3213
O -4.57894 10.6136 0.978646
H -4.01231 11.3155 0.547091
H -5.32337 11.0502 1.48375
O -4.21384 7.67038 11.6729
H -3.31743 7.94972 11.3288
H -4.83442 8.45443 11.6614
O 5.84883 7.19104 13.0216
H 5.78387 8.145 12.7288
H 5.10721 6.98732 13.6607
O -6.88102 -1.0278 -14.6182
H -6.9348 -0.730538 -13.6649
H -6.37531 -0.349227 14.6381
O -1.6131 1.46804 14.6124
H -1.42599 1.14178 -14.2501
H -1.24094 2.38961 14.502
O 1.88981 -5.21888 -4.64253
H 1.76513 -5.91018 -5.35425
H 1.09753 -5.22199 -4.0324
O -7.65359 9.2572 4.97993
H -7.05874 8.63967 5.49451
H -7.89639 10.0402 5.55257
O 2.53474 6.14068 12.9764
H 2.56995 5.93613 11.9982
H 2.11647 5.3734 13.4625
O 14.3895 -3.20952 4.86253
H 14.7012 -2.32406 4.51791
H -14.6986 -3.6005 5.4591
O -0.661749 3.84736 11.8738
H -1.21715 3.03784 11.6835
H -0.911815 4.57955 11.2402
O -10.6144 4.19592 1.86978
H -11.5271 3.7877 1.85285
H -9.93422 3.50134 1.6355
O -0.177096 -5.62974 -14.783
H -1.13062 -5.86424 14.8168
H 0.171256 -5.03826 14.2788
O 2.55048 5.02084 -6.96506
H 2.56217 4.1307 -7.42059
H 2.27233 4.90375 -6.0117
O 5.51984 11.3064 -9.11247
H 5.53288 10.7923 -9.97012
H 5.61112 10.6738 -8.34334
O -14.6427 5.46815 -6.4011
H 14.1736 5.30205 -6.56327
H -14.5216 5.8868 -5.50108
O -13.2367 -0.604763 -6.82341
H -13.2115 -0.85449 -7.79139
H -12.5304 -1.11207 -6.32978
O -7.26471 -6.88198 -13.2743
H -7.86902 -7.48279 -12.751
H -6.61024 -7.43476 -13.7901
O 11.6301 13.8266 -4.13103
H 12.418 13.5718 -4.69155
H 11.3749 14.7737 -4.32564
O -13.8042 9.75381 -9.40971
H -14.2584 9.20055 -10.108
H -13.6377 9.19461 -8.59757
O -14.2861 10.8609 4.78205
H -14.1897 10.6858 5.76185
H -14.2647 11.8468 4.61597
O 9.34912 1.39314 12.1497
H 9.16306 0.961738 13.0324
H 10.3244 1.31936 11.9416
O -10.6689 6.73415 12.1072
H -10.2593 7.49327 11.6013
H -10.0209 5.97366 12.1496
O 6.63961 -13.9891 5.01964
H 7.13508 -14.1305 5.87667
H 7.29082 -13.9401 4.26234
O -11.2768 12.4237 8.43369
H -11.0638 11.5579 7.98098
H -10.4268 12.8969 8.66481
O 4.84151 -2.90906 5.06037
H 4.88398 -2.43447 4.1812
H 4.92195 -3.8946 4.91136
O 3.64399 1.4215 -10.7517
H 4.25233 2.14853 -10.4333
H 3.02605 1.78528 -11.4486
O 5.95801 2.27593 11.1926
H 4.97433 2.20927 11.3597
H 6.13616 3.01301 10.5407
O -10.3044 7.44033 -7.60783
H -10.0392 7.64675 -8.54967
H -10.3484 6.44906 -7.4836
O 11.4777 6.06322 -6.71636
H 11.8442 5.39007 -7.35864
H 11.7378 6.98233 -7.01228
O 3.45416 5.82837 -10.3189
H 2.49815 5.62423 -10.1083
H 3.97576 4.97617 -10.3599
O 11.2418 1.18749 -11.4482
H 12.0873 0.765894 -11.7759
H 11.4251 2.1309 -11.1719
O 4.8512 -10.006 -0.666871
H 4.89775 -9.10663 -1.10154
H 3.91318 -10.1845 -0.369816
O -3.59923 1.1506 12.8399
H -4.49106 1.23416 13.2845
H -2.8844 1.08638 13.5362
O -7.27189 -4.69167 -3.00168
H -7.38254 -4.24811 -3.89106
H -7.78516 -4.18387 -2.30981
O -13.9163 -6.06427 -5.65645
H -13.5857 -5.2966 -5.10749
H -13.3734 -6.13378 -6.49337
O 2.18923 0.132634 -14.7391
H 2.10691 -0.629448 -14.0969
H 2.25877 -0.222952 14.1179
O 6.9435 2.06671 13.9918
H 6.99656 2.17714 12.9994
H 6.7267 1.11524 14.2102
O -11.5607 -13.0932 -2.38997
H -12.2946 -13.0408 -1.71273
H -11.7632 -12.4751 -3.14948
O -5.15985 5.36373 -12.4424
H -5.27977 4.72926 -11.6788
H -4.49198 4.98895 -13.0854
O -10.3786 -6.68289 -13.6854
H -11.3734 -6.62275 -13.7687
H -9.97894 -5.77355 -13.8008
O 10.8982 -12.5398 10.2524
H 10.6461 -12.083 11.1055
H 10.2729 -12.2566 9.52524
O 8.54713 -5.13399 -6.14796
H 9.37353 -4.8864 -5.64225
H 7.90674 -4.36604 -6.13654
O -13.5691 -2.49526 13.389
H -12.9441 -1.78617 13.7153
H -13.2966 -2.7831 12.4709
O 4.03627 -13.1541 8.47248
H 3.33013 -13.2625 9.1722
H 3.98958 -12.2305 8.0921
O -3.80923 -10.1222 11.9088
H -4.09395 -11.0397 12.1865
H -3.16182 -10.1896 11.1497
O -4.32068 -8.07024 -1.63303
H -5.01028 -8.40969 -0.993336
H -3.46835 -8.57712 -1.50422
O -5.63776 -8.32422 4.57405
H -5.70095 -9.04877 5.26037
H -4.67771 -8.08427 4.43012
O 1.86885 -9.36365 -3.26519
H 2.43619 -10.1662 -3.44952
H 1.7276 -8.85336 -4.1135
O -4.41037 -2.9077 5.52618
H -4.99246 -2.2534 6.00893
H -4.95604 -3.40483 4.85158
O 10.3598 7.76471 9.35613
H 10.0716 8.15803 8.48307
H 11.0451 7.05519 9.19205
O -6.42468 12.9552 0.0827365
H -5.47664 13.2638 0.00551708
H -7.03042 13.7491 0.135118
O -1.87089 5.87425 5.17336
H -2.35949 5.01501 5.02186
H -1.17333 5.74135 5.87744
O 11.6477 10.4873 -10.5034
H 11.2563 9.74883 -9.95445
H 11.8411 10.151 -11.4251
O 0.296215 4.5154 -2.85187
H -0.498491 4.11213 -2.39822
H 0.122409 5.4839 -3.03013
O 8.82972 3.95409 0.477933
H 8.95746 3.31988 -0.284588
H 9.54507 3.80337 1.16024
O 11.4298 -3.11292 6.00124
H 12.3121 -2.9498 5.55982
H 11.5782 -3.3896 6.95067
O -14.615 5.93066 -3.40139
H -14.1087 6.61846 -2.88123
H 14.5346 5.45809 -2.7949
O 5.70037 9.49169 -6.86141
H 5.29865 8.61568 -6.59456
H 6.03622 9.96604 -6.04767
O 7.37754 10.5422 9.63888
H 8.14351 11.0912 9.97329
H 7.50464 9.58952 9.9151
O 6.01612 -0.717699 10.4046
H 6.48051 -1.52899 10.0494
H 6.51552 0.101906 10.1238
O 13.7456 -12.852 -7.71693
H 13.1445 -12.2454 -7.19668
H 14.3409 -13.3513 -7.08748
O 12.6076 5.53372 6.58836
H 12.0773 6.27472 6.1765
H 12.7954 5.75074 7.54629
O 12.2412 -4.31636 8.59231
H 12.9066 -5.02572 8.35984
H 11.4196 -4.74158 8.97207
O 3.50424 8.47402 -5.10978
H 3.66559 8.18392 -6.05307
H 3.02131 9.34967 -5.10834
O 13.1315 -10.1206 13.2412
H 12.8111 -9.56491 14.0084
H 12.3498 -10.5601 12.7986
O 1.05069 1.58096 6.20645
H 0.541143 2.19616 6.80801
H 2.02333 1.62108 6.43522
O -14.5758 -14.7505 -3.87681
H 14.5615 -14.6823 -3.12143
H -13.8408 14.4081 -3.62705
O 9.99753 12.1058 10.3481
H 10.7072 11.5451 10.7748
H 10.4252 12.8356 9.81474
O 6.41203 -10.4271 1.53384
H 5.98381 -10.4861 0.632098
H 6.16945 -9.55645 1.96173
O 8.16907 0.581976 1.33283
H 7.41167 0.113197 1.78734
H 7.86899 0.908959 0.436716
O -8.59844 2.08062 4.28284
H -8.24102 1.2431 4.6961
H -7.87316 2.76783 4.24174
O 5.78736 -10.4639 5.97878
H 5.30275 -11.3186 5.79284
H 6.61685 -10.423 5.42176
O -1.47751 6.74589 -13.5955
H -1.78561 7.28679 -12.8129
H -2.00303 7.00353 -14.4063
O 10.3389 1.06787 -5.35736
H 10.1468 2.00078 -5.05271
H 9.4837 0.619545 -5.61753
O -13.9234 13.5225 -10.781
H -14.1366 13.0585 -9.92123
H -14.1291 14.4972 -10.6936
O 10.3337 -10.2118 -12.0627
H 11.0411 -10.4931 -11.4144
H 9.44572 -10.2005 -11.603
O 1.35712 -7.75965 -5.40921
H 0.411074 -7.91776 -5.69202
H 1.96867 -8.33006 -5.95748
O -14.4231 13.5776 11.8315
H -13.78 13.4514 11.0762
H -13.9837 13.3155 12.6907
O 5.4735 -7.58961 -1.76788
H 5.29173 -6.82204 -2.38253
H 5.96922 -7.26229 -0.963452
O 1.89577 2.12878 -12.8468
H 0.90961 2.20297 -12.6986
H 2.09035 1.31424 -13.3933
O 7.37804 5.50983 -12.1934
H 7.04153 4.99605 -12.9826
H 7.66156 4.87241 -11.477
O 2.56635 -2.85615 11.9763
H 2.53784 -3.56819 11.2748
H 2.33494 -1.97421 11.5657
O -3.15875 14.6656 -11.3052
H -3.55864 -14.4069 -11.8769
H -2.92728 13.8761 -11.8736
O 8.68391 -3.43054 6.17817
H 9.67376 -3.36268 6.30293
H 8.35451 -2.62673 5.68283
O -11.3465 -6.37353 3.84008
H -12.1627 -6.91121 3.62892
H -10.9299 -6.71666 4.68192
O 3.19081 10.4944 0.715529
H 4.01912 10.0518 0.372019
H 3.34593 11.4794 0.790694
O -3.1652 -13.0482 3.5611
H -3.61236 -12.2621 3.13435
H -2.24791 -12.7871 3.8618
O 6.82747 -2.88456 8.6654
H 7.55008 -3.05127 7.99456
H 6.22436 -3.68094 8.7105
O 14.0517 0.752465 -13.3049
H 14.6225 1.51742 -13.0064
H 14.5042 -0.109727 -13.0771
O -13.4977 -9.48147 -7.76404
H -14.3967 -9.35495 -7.34495
H -13.1046 -10.3474 -7.45479
O 7.91326 -5.24689 -14.7083
H 7.43565 -4.50852 14.6046
H 7.91622 -6.06613 14.5073
O 14.251 3.45598 5.42539
H 14.7366 3.1262 6.23492
H 13.7818 4.31167 5.64372
O -1.82313 0.432739 -5.98161
H -2.63668 0.0653822 -5.53087
H -2.03258 0.628403 -6.93964
O -1.30171 12.7351 3.27719
H -1.97855 13.352 2.87553
H -1.69375 11.819 3.36062
O 5.40278 -3.563 1.02147
H 6.11742 -3.03112 1.47574
H 5.1361 -3.10641 0.172707
O 5.02367 9.98503 11.0252
H 4.46559 9.26107 10.6197
H 5.79271 10.1914 10.4202
O 9.20069 -3.05014 -1.57487
H 9.13523 -2.44528 -0.78124
H 8.478 -2.82294 -2.22761
O 1.30364 -7.37642 -12.2265
H 1.38358 -8.26094 -11.7669
H 0.344912 -7.20348 -12.4522
O -7.20719 3.13668 -8.7308
H -7.06495 2.84009 -7.78645
H -7.67789 2.41568 -9.2393
O 0.205173 -1.20582 -4.86909
H 0.770156 -0.728533 -4.19606
H -0.500527 -0.585674 -5.2117
O 11.7257 11.5469 4.45574
H 12.4327 11.8129 5.11094
H 12.036 10.7515 3.93507
O 6.03075 4.09018 -14.1777
H 6.28371 3.50838 14.8383
H 5.13673 4.50362 -14.3502
O 4.39993 0.659014 0.23755
H 4.0639 0.36471 1.13223
H 4.22871 1.6375 0.12257
O -2.08576 -7.46202 10.4122
H -2.64855 -6.97711 11.0816
H -2.36368 -8.42193 10.376
O -2.21924 1.90576 10.5195
H -2.98303 1.59807 11.0869
H -1.76091 1.11242 10.1189
O 2.48843 9.41798 7.08368
H 2.15256 9.51168 6.14645
H 2.82543 10.3022 7.40695
O -8.21873 10.8877 -0.260916
H -8.59939 11.108 -1.159
H -7.50537 11.5493 -0.0298703
O 14.1783 -2.72551 9.41934
H 14.3395 -2.0256 8.72354
H 13.3103 -3.18608 9.23404
O 3.68436 14.7538 14.8388
H 4.63629 -14.8667 -14.6945
H 3.23649 14.2187 -14.234
O -4.49598 9.343 -7.35339
H -4.83675 9.74452 -6.5033
H -3.50327 9.454 -7.39996
O -1.17001 -8.96096 -5.67465
H -0.949056 -9.52192 -4.87685
H -1.82225 -9.4488 -6.2548
O -8.1493 11.0203 -4.60858
H -8.25464 10.3724 -5.36296
H -8.79814 10.7942 -3.88201
O 2.91116 6.17529 -0.898132
H 2.21284 6.37336 -1.58596
H 2.53509 6.33572 0.0144532
O 10.3291 -12.1065 -9.17481
H 9.69026 -11.5893 -8.6052
H 10.6381 -12.917 -8.67739
O -10.9079 -0.597365 -10.6747
H -11.1279 0.376404 -10.7324
H -11.7195 -1.10608 -10.3876
O -5.80446 -0.674522 6.65293
H -6.68422 -0.909614 6.23972
H -5.74606 0.316724 6.77126
O 4.23993 -3.27793 -12.2676
H 4.75136 -4.13459 -12.2001
H 3.49594 -3.38501 -12.9272
O 0.276935 10.1786 9.49024
H 1.08133 10.608 9.90083
H -0.400916 10.8807 9.27224
O -2.39743 -1.16789 7.66668
H -3.16822 -1.13176 8.30274
H -2.7201 -1.46684 6.76863
O 1.26691 -11.9768 -6.21903