2611
Atoms. Timestep: 8000000
O -11.6872 -14.3754 -3.12211
H -12.4654 -14.5892 -2.53164
H -11.1091 14.9589 -3.21817
O -4.07789 12.5634 -5.96517
H -3.48792 12.9091 -5.23551
H -4.23436 13.2865 -6.63801
O -3.04537 4.16682 -13.7793
H -3.08952 3.17794 -13.6375
H -2.36858 4.37222 -14.4863
O 8.8175 11.7308 -12.9921
H 9.01305 12.269 -13.8119
H 7.92817 11.9989 -12.6216
O -9.63648 3.45179 -1.66193
H -8.66806 3.55248 -1.88994
H -9.73162 2.84697 -0.871287
O -5.44087 -9.82827 -5.85455
H -6.28281 -9.35976 -6.12212
H -4.68765 -9.17105 -5.82819
O -0.827507 -5.12503 -4.73702
H 0.105167 -5.20387 -5.08898
H -1.07567 -5.96752 -4.25892
O -12.3726 12.8174 6.51254
H -12.6197 12.9417 7.47352
H -12.4486 11.8499 6.27138
O -3.26398 -3.80975 8.74511
H -3.65445 -4.60443 8.28036
H -3.99619 -3.28315 9.17701
O -8.15872 11.7857 10.8242
H -8.32054 10.8202 10.6206
H -8.25265 11.9393 11.8078
O -11.2857 -5.72859 -11.5949
H -11.2425 -5.00169 -10.9095
H -11.5476 -6.58713 -11.1541
O 12.3768 6.99708 11.6777
H 11.8497 6.38288 11.0905
H 12.9882 6.45967 12.2586
O -5.34977 1.69271 -7.77049
H -6.26397 1.50303 -7.4124
H -4.68665 1.08889 -7.32818
O -4.78215 -5.83378 -9.55886
H -5.14356 -4.95264 -9.254
H -5.52827 -6.49669 -9.62071
O -1.66142 -9.91429 6.44796
H -1.42215 -10.7272 6.97891
H -2.30703 -9.35482 6.96772
O 2.095 10.4471 -11.9638
H 1.62911 11.2948 -12.2176
H 2.39419 9.97087 -12.7907
O 12.3598 -12.3218 -13.9825
H 12.1315 -11.5488 -13.3906
H 11.8643 -13.1344 -13.6757
O -9.81751 11.6606 -5.59131
H -10.3981 11.9646 -6.34656
H -8.90364 12.0532 -5.69452
O 9.29262 5.22405 -4.5488
H 8.30429 5.07265 -4.53315
H 9.65638 5.14695 -3.62052
O -2.77064 -12.4479 -2.97968
H -2.75482 -13.3462 -2.54053
H -3.71763 -12.1807 -3.15783
O 9.56798 6.02455 3.04344
H 9.40228 6.97301 2.77337
H 10.4674 5.73664 2.71466
O -6.97006 -6.97366 9.50491
H -7.08949 -7.41387 8.61501
H -6.76463 -6.00404 9.37223
O -8.51511 0.411628 -1.38742
H -9.36116 -0.0631863 -1.62975
H -8.05805 0.724163 -2.22012
O 6.47271 7.73017 -1.80001
H 5.64278 8.27391 -1.67543
H 7.27501 8.31799 -1.69626
O -0.159576 -3.22251 11.383
H -1.00311 -2.6943 11.48
H 0.527143 -2.87402 12.0209
O -3.48194 -7.99209 -12.6359
H -3.53938 -7.00876 -12.4634
H -3.35654 -8.47565 -11.7696
O 12.4346 6.86287 1.56997
H 12.2 7.75844 1.19196
H 12.9008 6.98277 2.44645
O 0.800814 14.4141 1.54842
H 0.306686 14.566 2.40441
H 0.862203 -14.8705 1.04183
O -5.82635 -5.9366 13.5889
H -5.01752 -5.76863 13.0254
H -6.40612 -6.61958 13.1447
O 10.2039 14.7056 -6.5452
H 10.6245 14.2981 -7.35581
H 10.5139 -14.4932 -6.44857
O -1.42829 -12.1426 0.816634
H -1.31672 -11.7777 -0.107658
H -2.36186 -11.9722 1.13185
O 11.0134 -2.70404 11.8312
H 11.0068 -2.33631 12.7611
H 11.9559 -2.75964 11.5014
O 2.00403 -9.35215 1.99279
H 2.24502 -8.63324 1.34083
H 2.81438 -9.61047 2.51871
O 14.2849 -13.6916 -1.97522
H 13.4827 -13.9735 -1.44901
H 14.2033 -12.7241 -2.21464
O -8.9879 11.9642 5.63185
H -9.45526 11.6898 6.47224
H -8.40092 12.7519 5.81886
O -8.62877 9.13229 10.6932
H -8.97408 8.55385 9.95415
H -8.4439 8.56917 11.4986
O 10.1291 -2.40312 -1.81886
H 11.0461 -2.76261 -1.99202
H 10.1802 -1.41481 -1.67531
O -10.4288 0.226854 -13.4147
H -10.2832 -0.656319 -13.8605
H -11.3783 0.292761 -13.1078
O -7.21501 7.51992 0.162112
H -7.76337 6.68371 0.16802
H -7.70142 8.24097 0.655526
O 14.3985 -11.1536 -2.47487
H 14.9805 -10.954 -3.26322
H 14.097 -10.2963 -2.05761
O 6.51632 4.93024 12.1306
H 6.7868 5.51125 11.3629
H 5.69714 4.41237 11.8842
O -0.687703 5.78932 1.41868
H -1.38065 5.18519 1.02521
H 0.146669 5.26781 1.59706
O 0.21423 11.3435 -5.28675
H 1.11706 11.0242 -4.99874
H -0.405247 11.3438 -4.50175
O -8.61976 -9.00534 1.2624
H -9.53091 -9.06868 0.855266
H -8.64129 -9.38317 2.18801
O -3.66789 -2.26334 4.52031
H -3.93569 -1.99264 3.59566
H -2.72245 -2.58896 4.51163
O -6.3831 10.6595 1.98138
H -6.58953 10.4234 2.93092
H -7.23601 10.7476 1.46685
O -0.256687 9.52854 12.0479
H -0.311348 8.96469 11.2238
H -1.17651 9.67991 12.4098
O 10.277 5.56005 -2.0474
H 9.50676 5.46944 -1.41616
H 10.4818 6.52892 -2.18639
O 3.27516 -2.5393 12.5273
H 4.01992 -1.87255 12.5
H 3.64259 -3.44013 12.7586
O -13.617 2.06215 1.91635
H -13.8866 2.4214 1.02291
H -14.435 1.86273 2.45601
O 10.7793 9.82086 -4.31019
H 11.0693 9.43194 -5.18463
H 10.848 9.12401 -3.59629
O 5.05848 -6.26037 -10.207
H 4.98073 -5.8983 -11.1359
H 5.96137 -6.67233 -10.0843
O 1.3365 12.9481 11.2087
H 0.429389 12.9624 11.6293
H 1.94408 12.3636 11.7465
O -9.79583 6.33787 -1.52576
H -9.86739 5.35441 -1.69203
H -10.7081 6.71689 -1.37036
O -11.0451 9.43314 -11.4394
H -10.2402 9.22749 -10.8828
H -10.8935 10.2835 -11.9433
O -12.0628 -12.0078 -10.6669
H -12.0338 -11.7587 -9.69883
H -11.1648 -12.3433 -10.9517
O -6.91346 2.31611 -3.09097
H -6.11967 2.74619 -2.66096
H -7.05716 2.71281 -3.99759
O -3.79128 -8.00649 8.2275
H -3.99511 -8.1947 9.18823
H -4.35422 -8.59385 7.64606
O 7.38811 4.76547 -12.5539
H 7.70098 3.85678 -12.8303
H 7.01163 5.24392 -13.3472
O -9.89406 10.7651 7.78564
H -9.63921 11.5574 8.33999
H -10.5818 10.2257 8.2715
O -0.811276 -8.7076 2.37898
H 0.163756 -8.63673 2.1686
H -1.01319 -9.62648 2.71791
O 10.6761 2.23624 -0.317407
H 9.7349 2.30608 0.0131165
H 10.672 1.96714 -1.28049
O 2.48217 0.466446 4.09297
H 2.86366 -0.118984 4.80831
H 2.8886 1.37792 4.15623
O -5.88456 -12.811 13.2596
H -6.22054 -11.9384 13.614
H -6.59935 -13.5046 13.3491
O -13.7299 14.6276 -1.77877
H -14.0296 13.8352 -2.31006
H -14.3159 -14.7343 -1.98819
O -13.0561 -7.1172 -2.50066
H -12.0638 -6.9937 -2.50613
H -13.4463 -6.71707 -3.32986
O 5.7685 -14.6181 -14.4194
H 4.82808 -14.548 -14.0867
H 5.76617 -14.6628 14.7262
O 4.47492 -9.16824 -2.33415
H 5.1036 -8.92505 -1.59552
H 3.69288 -9.66401 -1.95654
O -3.94674 -11.4603 8.61854
H -3.68941 -11.5647 9.5792
H -4.94344 -11.4366 8.54115
O -3.43689 -1.5617 -9.97341
H -3.41324 -0.691664 -10.4658
H -2.56018 -1.70961 -9.51574
O 0.402826 8.61682 -5.9455
H 0.0369919 9.54745 -5.95397
H 0.316415 8.23306 -5.02614
O 10.316 -0.737579 -13.2803
H 9.61627 -0.602375 -12.5788
H 11.2226 -0.636542 -12.8706
O -9.93514 3.45541 5.12687
H -10.7532 4.02815 5.07442
H -9.13066 4.00098 4.89208
O 13.2452 -10.5591 13.1239
H 14.2311 -10.7265 13.1221
H 12.8532 -10.8675 12.2571
O 5.25364 13.6164 6.99687
H 4.46555 14.2264 7.07946
H 5.35267 13.0841 7.8376
O -8.40473 7.56038 13.1236
H -8.43019 7.20965 14.0597
H -9.2429 7.29696 12.646
O 7.45031 1.81059 -13.1865
H 7.83374 1.00391 -12.7369
H 6.83025 1.5223 -13.9162
O -4.66212 12.1267 5.31256
H -4.01456 12.2335 6.06703
H -5.52166 12.5823 5.54403
O 0.318994 -6.80925 -7.94567
H 0.922124 -6.41873 -7.25018
H -0.456707 -6.19642 -8.09632
O -7.52355 -4.7977 -3.75864
H -8.28098 -5.31797 -3.36419
H -6.75055 -4.80147 -3.12427
O -10.064 14.4962 -9.47095
H -10.3435 14.0876 -10.3398
H -10.8722 14.8228 -8.98093
O 6.72406 2.70038 -6.69377
H 6.3416 2.27263 -7.51275
H 6.12423 2.52238 -5.91372
O -11.8839 -0.572709 6.90125
H -12.5823 -1.2009 6.55844
H -11.3056 -0.271405 6.14313
O -6.24144 -9.27872 6.61744
H -6.3312 -8.31971 6.3487
H -7.03904 -9.79041 6.2981
O 12.1732 14.832 2.78281
H 11.2874 -14.9083 2.55489
H 12.4126 14.1451 2.09665
O -11.3224 -3.73386 -9.41175
H -11.9248 -3.02016 -9.76911
H -10.3947 -3.37203 -9.32035
O -3.64999 -12.0602 11.7447
H -4.39434 -12.385 12.3281
H -3.28633 -11.2048 12.1135
O 0.228236 2.71782 -10.4001
H 1.16559 3.06615 -10.4032
H 0.226195 1.76381 -10.6998
O -7.44024 -5.31179 -11.4294
H -7.31962 -6.11801 -10.8502
H -6.55513 -5.03433 -11.803
O 2.938 14.9995 -13.6307
H 2.61941 14.9158 -14.5748
H 2.64068 -14.2672 -13.2552
O -3.7259 11.0709 -8.61737
H -3.73965 11.5401 -7.73437
H -2.88354 11.3017 -9.10434
O 9.29008 12.3701 14.408
H 8.87606 13.1449 13.9302
H 9.60785 11.6976 13.7396
O 13.8406 10.3813 -4.31014
H 13.0514 9.86146 -4.63718
H 14.6228 10.2121 -4.90964
O -10.329 13.6583 1.0972
H -11.0903 13.8056 1.72853
H -9.65508 13.0544 1.52284
O -3.85811 10.5626 10.2914
H -3.72982 10.0197 11.1213
H -4.3833 10.0336 9.62484
O -1.26691 6.51666 9.74083
H -1.05078 7.2005 9.04397
H -1.40156 5.62707 9.3044
O 0.598175 13.8135 8.25319
H -0.395555 13.7845 8.14533
H 1.02759 13.2676 7.53379
O -14.4017 -1.73825 6.28376
H -14.8812 -2.60766 6.40276
H -15.0689 -0.997167 6.20877
O -12.0984 3.11432 -8.02814
H -11.5021 3.14478 -8.83029
H -11.881 2.3055 -7.48176
O 9.49352 -4.97514 11.2312
H 10.0811 -5.31051 10.4948
H 9.9951 -4.30579 11.7792
O -9.592 -4.78264 -1.12951
H -9.89257 -5.54387 -0.554927
H -8.78456 -4.35605 -0.722034
O -4.78807 -10.3199 -13.5956
H -4.3936 -9.41839 -13.4176
H -4.16348 -11.0279 -13.2663
O -0.921219 15.0565 3.47067
H -0.189351 -14.7742 4.07551
H -1.7866 15.047 3.97167
O -3.41311 -13.2859 -6.24292
H -3.40073 -12.4206 -5.74184
H -2.65433 -13.86 -5.93537
O 11.0963 -8.74133 10.7628
H 11.0319 -7.96181 10.1398
H 10.3534 -8.69643 11.4307
O -9.1013 -6.18336 -13.2355
H -9.98671 -6.19332 -12.7708
H -8.39512 -5.87027 -12.6004
O 4.65012 8.59913 1.32084
H 5.10221 8.96265 0.506323
H 3.66143 8.57901 1.1723
O -13.7727 -5.33449 -0.252155
H -13.8779 -6.23634 0.166848
H -12.9875 -5.34423 -0.87137
O -9.58444 13.5327 9.35684
H -8.88443 13.0079 9.8412
H -10.3565 13.7031 9.96911
O -6.01614 -3.51759 -7.92625
H -5.08889 -3.16746 -7.79363
H -6.18467 -4.26612 -7.28495
O 11.461 8.47159 -6.84017
H 11.4521 9.05229 -7.65422
H 11.9767 7.63659 -7.03203
O 6.21747 12.5179 -11.871
H 6.52179 12.0885 -11.0207
H 5.62117 13.292 -11.6586
O -11.0945 4.61815 9.46414
H -11.8547 4.54439 8.81875
H -11.4168 4.39987 10.3852
O 3.08917 9.8477 -14.4992
H 3.5638 10.721 -14.6089
H 3.74589 9.14277 -14.2313
O -5.75882 1.88765 13.4978
H -6.55698 2.48549 13.4237
H -5.96979 0.998207 13.0924
O 6.3359 -1.70643 2.80524
H 5.87322 -2.21305 3.53273
H 7.13252 -2.22413 2.49321
O 6.38868 6.44923 -4.63452
H 6.25458 7.42637 -4.46969
H 5.50335 5.98447 -4.62168
O -12.618 -5.54851 5.15936
H -12.0943 -4.87779 5.68457
H -13.4708 -5.75511 5.63896
O 5.28567 -13.3133 12.6396
H 5.74062 -14.0082 12.0826
H 5.8754 -12.5094 12.7168
O 4.49153 3.45328 11.3253
H 3.74252 4.05383 11.0455
H 4.15823 2.7988 12.004
O -5.05925 5.33993 7.83409
H -5.44902 5.51689 8.73783
H -5.61702 5.78983 7.13663
O -11.649 2.43436 -3.596
H -12.0354 3.34862 -3.71759
H -10.7808 2.50211 -3.10439
O 6.21718 -4.63114 -3.55588
H 7.1561 -4.4568 -3.25921
H 6.19404 -5.45522 -4.12185
O -4.99654 14.4478 12.6174
H -4.27185 -15.0216 12.7553
H -4.59552 13.5885 12.3001
O -6.79031 -10.2547 14.4222
H -7.32759 -9.42639 14.5808
H -6.12444 -10.3664 -14.9848
O -7.6797 8.52123 7.27898
H -7.89031 9.26943 7.90812
H -8.53115 8.12084 6.94032
O 11.9891 6.79903 -10.4233
H 11.1932 6.86315 -9.82136
H 11.9576 5.93557 -10.9267
O -11.3303 -6.76147 3.14836
H -11.9328 -6.5906 3.92801
H -10.4062 -6.44766 3.36618
O 7.54208 -11.8198 12.0329
H 7.45034 -11.7125 11.0429
H 8.33917 -12.3892 12.2339
O -3.93652 5.80522 1.60578
H -3.85426 6.7921 1.7446
H -4.40978 5.39711 2.38645
O -3.46088 0.516537 -11.8191
H -4.39801 0.859982 -11.8808
H -2.81982 1.27788 -11.9159
O -14.5293 12.5418 -3.35212
H -14.3812 13.1413 -4.13866
H 14.9175 11.8621 -3.57783
O 9.19075 -10.9248 -7.93198
H 9.45516 -10.0479 -8.33334
H 9.90397 -11.2315 -7.30171
O 5.91419 -12.9103 -4.67546
H 5.79236 -12.1822 -5.34996
H 6.87358 -12.9488 -4.39606
O 8.05022 -11.1377 -14.5897
H 7.15464 -11.1336 -15.0346
H 8.62806 -10.4306 -14.9973
O -10.2864 -6.73756 -2.75135
H -10.0752 -6.05507 -2.05166
H -9.89046 -7.61751 -2.48894
O 7.68774 5.74301 -0.768989
H 7.27848 6.43808 -1.36005
H 7.79859 4.89211 -1.28247
O 12.9785 -8.81241 -8.19789
H 12.5087 -8.02529 -8.59751
H 13.8493 -8.95499 -8.6684
O -13.0707 6.60796 2.70906
H -14.0327 6.69941 2.96632
H -12.8943 5.6715 2.40588
O -7.46481 -6.69113 6.58548
H -7.05113 -5.92413 6.09503
H -8.35876 -6.89779 6.18783
O 2.29848 -11.3861 -4.28737
H 1.92646 -12.3023 -4.4365
H 3.00887 -11.4252 -3.58466
O -5.53476 -14.0912 -12.3168
H -5.63531 -14.6417 -13.1456
H -4.5711 -13.8581 -12.1864
O 1.91384 14.2485 -2.7987
H 2.6059 13.8135 -3.3747
H 1.57842 13.5896 -2.12541
O -12.4725 -5.87513 -14.1194
H -11.7184 -6.04825 -13.4858
H -13.2288 -5.44398 -13.6274
O -9.43191 -6.35794 11.4405
H -8.99426 -6.26862 10.5458
H -8.9415 -7.03837 11.985
O -6.94058 2.53995 0.614452
H -7.85648 2.14725 0.531547
H -6.91397 3.42482 0.149395
O -10.4176 0.460341 8.93372
H -10.1965 1.2859 8.41455
H -11.0608 -0.0996169 8.41143
O -12.9213 5.56954 -7.48877
H -12.6335 4.61937 -7.60858
H -13.5234 5.833 -8.2424
O 10.2318 -4.10006 -11.2628
H 9.59599 -3.87796 -12.002
H 10.5579 -3.25529 -10.8386
O 3.84627 13.1484 -4.12207
H 4.81654 12.9083 -4.15167
H 3.4768 13.1581 -5.05124
O 10.0022 11.9322 -0.183721
H 10.9568 11.9352 0.114101
H 9.42024 12.2624 0.559394
O 3.79483 8.58518 11.0409
H 3.27344 8.08034 11.7288
H 4.11898 7.95239 10.3377
O -14.097 1.43048 6.81663
H -13.3192 0.839065 7.02911
H -14.7403 1.42308 7.58223
O -9.40025 -2.6587 -14.168
H -8.65675 -3.0361 -14.7201
H -10.2403 -3.17133 -14.3452
O 0.632274 -9.16943 -5.76968
H 1.20553 -9.9624 -5.56341
H 0.630281 -9.00723 -6.75642
O -11.7384 0.147964 2.6065
H -12.1909 -0.694869 2.89774
H -12.416 0.773714 2.22012
O -8.17756 5.48579 -14.652
H -8.78365 4.71429 -14.8454
H -7.24529 5.15105 -14.5149
O -4.92595 9.309 -13.7057
H -5.39209 8.49778 -13.3527
H -3.94138 9.13806 -13.7426
O -7.29019 5.06513 -1.91213
H -7.85274 5.86666 -2.11472
H -6.3423 5.35039 -1.77036
O 2.00496 13.7102 14.1711
H 1.69577 14.6567 14.0791
H 1.22911 13.0923 14.0439
O 9.05219 13.7855 4.35847
H 8.32959 13.1457 4.62017
H 9.94072 13.4117 4.62452
O -5.47573 -5.17411 -2.20586
H -5.09452 -6.09854 -2.21527
H -4.76898 -4.52498 -1.9246
O -3.68015 3.64795 -11.0764
H -4.48071 3.81606 -10.5013
H -3.75915 4.17788 -11.9208
O -6.32807 -4.21246 9.66911
H -5.76503 -3.48843 10.0675
H -6.85921 -3.84079 8.90771
O -10.0777 -2.34375 11.2644
H -9.18041 -2.61778 11.6106
H -10.2396 -1.38147 11.483
O 13.0025 -8.68169 -12.9267
H 13.4991 -8.21064 -12.1977
H 13.303 -8.33249 -13.8143
O 6.06024 5.27644 -7.47401
H 6.28846 6.00682 -6.83024
H 6.30925 4.39283 -7.07754
O 0.868502 -0.948973 6.88802
H 1.84942 -1.05766 6.72689
H 0.71221 -0.715763 7.84779
O -1.77677 7.85943 2.90083
H -1.04136 8.489 3.15137
H -1.39214 7.07315 2.4173
O -6.6007 11.3928 8.58246
H -7.18508 11.6033 9.36615
H -6.06961 12.2033 8.33552
O -0.150742 7.52104 -3.60597
H -1.09197 7.4134 -3.92608
H -0.124895 7.43073 -2.6104
O 3.56188 10.7921 2.80937
H 2.75782 11.0529 2.27514
H 4.3853 10.9206 2.25673
O 10.3817 9.81116 -9.2069
H 9.57293 9.35521 -9.57829
H 11.0621 9.925 -9.93087
O 3.01142 5.35733 -7.64169
H 3.41142 4.82887 -8.39048
H 3.33651 6.30179 -7.68945
O -12.0697 9.07324 2.23906
H -12.4058 9.39255 1.35303
H -12.5804 8.25916 2.51557
O -5.54325 7.33142 5.54211
H -6.04355 7.97194 6.12469
H -5.09648 7.83351 4.80165
O 6.25729 -11.4263 9.51317
H 5.93858 -11.4014 8.56567
H 5.49979 -11.6841 10.113
O 6.99938 8.97428 8.73616
H 6.04205 9.10202 8.47699
H 7.3861 9.84996 9.02533
O -0.52911 -5.62114 1.54466
H 0.0896652 -5.50038 2.32087
H -1.44704 -5.8331 1.87999
O 14.1842 -14.2225 12.0167
H 13.9289 -14.3943 11.0653
H 13.3628 -14.0251 12.5518
O -1.85211 6.61255 5.91232
H -0.937282 6.37781 5.58374
H -2.35141 7.09444 5.19228
O -11.4704 1.31404 -5.99729
H -11.7148 1.74462 -5.12846
H -11.9037 0.414768 -6.05708
O 7.5954 13.8559 9.65336
H 7.76061 14.8068 9.392
H 6.61283 13.7065 9.76388
O -14.4379 -9.01845 -9.88531
H -14.0313 -8.54224 -9.10567
H -13.8276 -8.94783 -10.6743
O -14.1128 -14.851 -14.2241
H 15.0412 -14.7589 -14.1228
H -13.6681 -14.0026 -13.9369
O 13.9664 -9.18143 9.15456
H 13.2609 -9.77315 8.76465
H 13.5619 -8.60213 9.86221
O -4.17074 -3.71101 0.698059
H -3.58583 -3.67636 -0.112278
H -4.11646 -2.83974 1.18582
O 9.75722 -13.901 3.2083
H 9.28132 -14.628 3.70324
H 10.2201 -13.3012 3.86096
O -14.0868 -4.3335 2.8629
H -13.9156 -4.67728 1.93961
H -13.4519 -4.76637 3.50281
O -1.26391 14.923 -5.31172
H -0.549414 14.4407 -5.81852
H -1.88742 14.2582 -4.90039
O -9.08643 -13.0785 -8.90055
H -9.5521 -13.8423 -9.34741
H -8.12282 -13.0733 -9.16778
O -1.46752 7.85963 -10.6307
H -2.38947 8.1654 -10.393
H -1.4254 6.86155 -10.5856
O -5.6803 7.99848 9.42176
H -4.87409 8.04086 8.83167
H -6.45951 8.4131 8.95177
O 1.72511 8.19299 13.7256
H 2.17331 8.72415 14.4446
H 1.19134 8.80532 13.1424
O 2.78203 -6.89531 3.81355
H 2.73704 -5.99125 3.38856
H 1.94212 -7.06316 4.32965
O 7.76669 -12.3189 1.7108
H 7.86376 -11.5039 2.2821
H 8.43651 -13.0056 1.99317
O -2.987 -3.99811 14.0161
H -2.61718 -4.00314 14.9452
H -2.54665 -4.71693 13.4782
O -14.0163 -9.24416 -0.259762
H -14.2156 -8.51407 0.393865
H -13.8375 -8.84628 -1.15961
O -10.0205 -9.49753 13.2352
H -10.7524 -9.25101 12.5999
H -9.13632 -9.4032 12.7778
O 1.92295 -12.8553 -12.5872
H 1.0853 -12.6706 -13.1012
H 1.7331 -12.7938 -11.6073
O 1.91749 0.50095 -8.53988
H 2.78509 0.0145535 -8.43668
H 1.63696 0.482195 -9.49953
O -7.64034 -0.402628 12.3377
H -7.57706 -0.507949 11.3452
H -7.59911 -1.30258 12.7716
O 1.55146 -5.2455 13.8696
H 2.13444 -5.89621 13.3831
H 1.55785 -5.4581 14.8467
O 4.39067 7.7082 -8.44053
H 5.03161 6.94991 -8.55948
H 4.89972 8.56477 -8.35605
O -8.62471 -2.26477 -3.79902
H -8.72444 -1.96581 -2.84999
H -8.0234 -3.06292 -3.8356
O -11.1474 -4.49336 12.606
H -10.4992 -5.17291 12.2624
H -10.9695 -3.61195 12.1685
O 1.23433 -5.1493 -2.4986
H 0.414528 -5.62947 -2.18662
H 1.31608 -5.2396 -3.49114
O 3.16252 5.51553 -1.10385
H 3.51814 4.66711 -0.711818
H 3.92191 6.06773 -1.44789
O -4.95439 -11.6429 -0.591072
H -5.43414 -10.7727 -0.47922
H -5.10907 -11.9924 -1.51513
O -5.71289 0.915009 7.10417
H -6.4034 0.309663 7.50005
H -6.05795 1.2992 6.24784
O -13.0711 -1.79527 3.8266
H -13.4765 -1.74851 4.73957
H -13.3043 -2.67052 3.40285
O -8.25322 14.9916 -3.60279
H -8.97437 14.333 -3.38794
H -8.2412 -14.9814 -4.58787
O 8.82151 -9.36881 12.3115
H 9.58058 -9.4165 12.9607
H 8.30149 -10.2223 12.3434
O 11.5458 9.62932 12.782
H 11.9992 10.3885 12.3152
H 11.7118 8.7815 12.2784
O 2.32131 -5.44436 -9.4035
H 3.20887 -5.80958 -9.68428
H 1.74248 -6.1908 -9.07524
O 6.85356 12.643 -0.76906
H 6.7257 13.6279 -0.885618
H 7.17986 12.4567 0.157631
O 0.936082 -13.828 -4.24084
H -0.0334065 -13.9239 -4.46638
H 1.25182 -14.6518 -3.77002
O 6.02026 -3.97263 -8.56897
H 5.54958 -4.43022 -7.81463
H 6.78 -3.43148 -8.20851
O -2.00443 -7.96091 14.9254
H -1.51469 -7.24566 14.4268
H -2.38281 -7.57985 -14.3757
O 8.81812 -6.72452 -6.55587
H 8.7639 -6.08515 -5.78891
H 9.22322 -6.26403 -7.34569
O 5.57525 -2.13754 -14.5634
H 6.27151 -2.83604 -14.7286
H 4.67164 -2.51182 -14.7716
O -10.6394 -10.2289 -4.05141
H -9.67041 -10.4207 -4.20713
H -10.9985 -10.8619 -3.36562
O -9.58033 -6.43115 -6.03794
H -10.3686 -6.02768 -6.50248
H -9.84756 -6.72139 -5.11907
O -11.9015 -13.478 -6.11809
H -12.5915 -13.4756 -5.39424
H -11.016 -13.2149 -5.73534
O 9.45794 1.0121 9.47327
H 10.4289 1.24768 9.51358
H 9.28182 0.222601 10.0612
O -2.25309 -12.7883 6.44611
H -2.98363 -12.4745 7.05258
H -2.53693 -13.6325 5.99142
O 12.91 1.04959 13.9179
H 12.5221 1.95073 14.1115
H 13.8572 1.01889 14.2369
O -9.42505 8.2609 2.16059
H -9.30007 7.29462 1.93555
H -10.3616 8.53544 1.94271
O -14.3861 6.46668 -2.81979
H 14.8565 6.03752 -2.77371
H -14.4893 7.46128 -2.81143
O 3.45237 -1.14207 6.39611
H 4.33334 -0.769555 6.68784
H 3.57881 -2.07762 6.06638
O 1.36684 -5.72939 6.41433
H 1.17148 -6.70987 6.43603
H 0.621756 -5.23118 6.85773
O -9.45669 -11.627 -0.69944
H -9.52222 -12.5842 -0.417495
H -8.67776 -11.5138 -1.31623
O -1.40511 11.8174 -9.6399
H -0.998844 10.963 -9.96364
H -0.732736 12.322 -9.09835
O -14.8332 -2.63503 -0.641035
H -14.5705 -3.56321 -0.377539
H -14.0217 -2.05097 -0.65766
O -3.74796 -9.45162 3.08022
H -2.8271 -9.06711 3.01597
H -3.71739 -10.4277 2.86486
O -3.01815 -6.70291 -7.66083
H -2.40916 -5.91583 -7.75885
H -3.84653 -6.55263 -8.20043
O 8.39723 14.297 12.416
H 8.84559 -14.954 12.4381
H 8.13291 14.0799 11.4764
O -6.69847 -10.3907 9.8525
H -7.47199 -10.9696 10.1104
H -6.71106 -10.2384 8.86426
O 1.98639 9.29057 0.206545
H 2.54139 9.33236 -0.624233
H 1.15989 9.8398 0.0832164
O -13.8005 12.8379 9.08257
H -13.8894 11.89 8.77658
H -14.1781 12.9274 10.0042
O -7.55666 -0.447278 9.62541
H -8.53139 -0.445324 9.40207
H -7.08483 -1.11756 9.05265
O 12.9604 -0.743961 -4.18128
H 13.8562 -0.396038 -4.45788
H 13.0634 -1.66123 -3.7966
O 8.936 7.56226 -6.46397
H 9.85423 7.94848 -6.55144
H 8.89751 6.97366 -5.65648
O -11.7665 -12.8313 2.75118
H -12.2915 -13.5266 3.24204
H -11.5914 -13.1434 1.81742
O -5.94848 1.58458 2.85383
H -6.33691 0.673873 2.99416
H -6.18789 1.91183 1.93974
O -11.5231 5.90597 5.12588
H -12.0004 6.49488 4.47373
H -10.8654 6.45 5.64682
O 6.32032 1.90752 -9.13185
H 6.38142 2.71137 -9.72352
H 6.05696 1.11164 -9.677
O -11.2369 -4.18912 7.28107
H -10.919 -5.02708 7.72465
H -10.4668 -3.73802 6.83003
O 9.00155 -5.11285 7.65597
H 8.31091 -4.39056 7.69176
H 9.34706 -5.19764 6.72141
O -14.8183 3.54324 -4.42026
H 14.8278 3.8212 -3.59916
H -13.9453 4.02919 -4.46065
O 13.0277 -5.19725 2.22976
H 13.6076 -4.39144 2.10959
H 13.0929 -5.7787 1.41881
O -4.73068 -10.502 -3.40998
H -4.98781 -10.3178 -4.35862
H -4.62343 -9.63706 -2.91973
O -5.13348 5.97658 -0.846625
H -5.64529 6.76574 -0.507139
H -4.40526 5.74851 -0.200369
O -7.68611 14.9931 12.7731
H -6.83495 14.8013 12.2845
H -8.17249 14.1364 12.9444
O 13.5042 -6.04002 -0.558659
H 14.423 -5.74188 -0.817399
H 13.3686 -6.98853 -0.844892
O -2.86467 -9.77541 12.9978
H -2.42791 -9.12036 13.6143
H -3.63646 -9.33656 12.5377
O -1.87803 14.339 9.86024
H -1.22105 15.0093 10.2054
H -2.69056 14.813 9.5209
O -11.6317 9.35128 -4.69604
H -10.9666 10.0267 -5.01449
H -11.5228 8.50483 -5.21721
O 4.29815 12.0631 -8.15809
H 5.13861 11.9799 -8.69352
H 3.57679 11.5162 -8.58298
O -8.13912 2.12557 -9.75856
H -9.11486 2.33482 -9.82268
H -7.97114 1.56438 -8.94812
O -2.41457 8.75237 -13.3198
H -1.88278 8.21151 -13.9715
H -2.20067 8.45705 -12.3887
O -10.1278 13.1451 -3.29146
H -9.78512 12.4576 -3.93175
H -10.6967 12.7014 -2.59905
O 14.1744 -1.18367 1.20609
H 14.6857 -1.8593 0.675069
H 13.5252 -0.712453 0.609043
O 1.39719 11.1854 8.90306
H 1.5196 11.6913 8.04917
H 1.36401 11.8275 9.66898
O 13.0001 0.185305 -0.930431
H 12.3774 0.737192 -1.48499
H 13.945 0.393734 -1.18305
O -0.453786 12.1833 13.2884
H -1.17002 11.8649 13.9094
H -0.0836194 11.4059 12.7799
O -10.1055 3.36628 14.1746
H -9.99854 3.24029 -14.9838
H -9.932 2.49949 13.7071
O 2.83783 9.52113 5.41865
H 2.74278 8.53311 5.54012
H 3.44248 9.70504 4.6437
O 15.0077 -11.1534 -13.7119
H 14.115 -11.6031 -13.6835
H 14.8829 -10.1747 -13.8749
O -7.83516 0.917931 -7.38991
H -8.13889 1.73856 -6.90589
H -7.60307 0.206467 -6.72664
O 7.33105 1.27467 2.40162
H 7.38448 2.02792 3.05717
H 6.9175 0.477976 2.84233
O -2.76519 -13.5989 -11.9505
H -2.42486 -12.6589 -11.9281
H -2.45092 -14.0866 -11.136
O -13.498 -9.92894 9.27457
H -14.3141 -9.38334 9.46514
H -13.6855 -10.5563 8.51876
O 4.74362 -4.39837 -12.5701
H 4.0377 -4.30246 -13.2719
H 4.65398 -3.65812 -11.9038
O 8.45387 -0.728654 7.21215
H 7.70474 -0.947934 6.58708
H 8.18377 0.0321991 7.80216
O -8.58875 -14.0712 -6.33467
H -8.58891 -13.2109 -6.84448
H -8.52411 -14.8374 -6.97391
O 14.9094 -1.57772 -13.0339
H -14.9206 -1.62501 -13.9819
H 14.9286 -2.49244 -12.6303
O 1.24674 3.93277 1.93689
H 2.23293 3.87555 1.78157
H 0.859921 3.0111 1.96636
O 0.214748 -4.46883 4.13069
H -0.0712393 -3.52497 4.29595
H 0.891553 -4.73693 4.81627
O 11.4328 3.22692 -4.85518
H 10.6267 3.8187 -4.85454
H 11.9571 3.37884 -5.69301
O 1.849 -3.5014 9.50647
H 2.4347 -2.78514 9.88581
H 1.06617 -3.64699 10.1114
O 3.94111 -3.22536 -10.083
H 4.80113 -3.66541 -9.82476
H 3.1759 -3.82297 -9.8437
O 2.68042 -6.31392 9.59327
H 2.55519 -5.33446 9.43534
H 1.87654 -6.80992 9.26503
O 3.12722 -11.0738 -6.82764
H 4.12641 -11.1028 -6.85486
H 2.81293 -11.2791 -5.9008
O -4.74215 0.355178 9.63594
H -4.19685 1.14393 9.91963
H -5.05262 0.485892 8.6944
O -12.7752 -11.5985 -8.05733
H -12.7969 -12.1574 -7.22839
H -13.7091 -11.4435 -8.37937
O 10.4926 5.55745 10.2657
H 10.3496 4.65205 9.86594
H 10.0871 6.25197 9.67138
O 12.1951 -14.0391 13.7426
H 12.2949 -13.3552 14.4652
H 12.0184 -14.9339 14.1526
O 11.418 12.6069 -3.47678
H 12.0598 12.7397 -4.232
H 11.1684 11.6404 -3.4174
O 5.44869 0.60934 15.0695
H 4.68994 0.944752 14.5111
H 5.21685 -0.289427 -14.703
O -3.36632 1.56986 2.51663
H -2.72962 1.82817 3.24318
H -4.30493 1.72112 2.82663
O 12.946 -1.37866 5.45166
H 12.5624 -1.01983 4.6007
H 12.2838 -1.26042 6.19162
O -2.76154 -3.68283 -13.1322
H -2.14726 -2.946 -12.8499
H -2.79657 -4.38024 -12.4164
O -11.9637 12.695 -0.825802
H -11.363 13.1178 -0.147299
H -12.6067 13.3776 -1.17302
O -2.42262 -2.90728 -4.34123
H -1.8871 -3.71246 -4.59592
H -1.81365 -2.12075 -4.23869
O 8.22276 1.19388 -4.53113
H 7.22932 1.30545 -4.55551
H 8.64718 2.05005 -4.23649
O 7.46083 -7.23518 -9.98013
H 8.12171 -7.94222 -9.72856
H 7.63163 -6.93842 -10.9197
O -2.49367 -14.3539 12.9678
H -1.56861 -14.64 13.2175
H -2.46402 -13.4336 12.5776
O 9.07374 3.98712 -7.20747
H 9.34374 4.68265 -6.54167
H 8.12928 3.70822 -7.03373
O 5.90229 10.8746 10.9887
H 5.45589 9.98007 10.9642
H 5.99029 11.1772 11.9377
O -2.43846 4.43044 8.166
H -2.12495 5.121 7.51423
H -3.43661 4.45373 8.22193
O 14.2963 -12.8759 -7.83694
H 14.4808 -12.0765 -7.2652
H 14.3449 -12.6146 -8.80095
O 14.4133 9.13564 10.6177
H 13.8309 9.93735 10.7523
H 14.4383 8.5968 11.4598
O 10.7173 14.9738 -9.98828
H 10.9413 -14.1976 -9.93616
H 10.2009 14.795 -10.8257
O 13.2549 -7.28582 4.18171
H 12.7626 -6.66296 3.57371
H 14.1092 -6.85788 4.47653
O 3.55156 -13.89 7.00631
H 3.66224 -13.5569 7.94266
H 2.62657 -14.2512 6.88817
O -3.8269 -5.63831 11.6311
H -2.82972 -5.58886 11.575
H -4.22472 -5.34181 10.7629
O -7.09594 8.3816 -5.02659
H -6.44516 8.74581 -5.69278
H -7.17428 9.01482 -4.25661
O 13.4601 4.48879 -2.62917
H 12.638 4.43087 -3.19552
H 13.208 4.40008 -1.66557
O 13.7492 12.8236 -13.2068
H 14.6684 12.4325 -13.163
H 13.0745 12.1124 -13.0094
O -8.01923 -8.89342 -7.2772
H -8.08754 -7.91928 -7.06188
H -8.93209 -9.30157 -7.26822
O -0.679153 -4.11016 7.83619
H -1.55021 -4.08308 8.32658
H -0.171266 -3.26691 8.01209
O 14.085 7.58891 -4.90276
H 14.7857 7.05916 -4.42486
H 13.7214 7.05105 -5.66333
O 1.67376 6.29274 8.2911
H 0.943447 6.84501 7.88909
H 2.46572 6.87355 8.47936
O -8.18751 11.104 -10.9144
H -7.35565 11.5037 -10.5295
H -8.42862 11.5841 -11.7578
O -12.3903 -14.9728 -8.14968
H -13.3676 14.9656 -8.10271
H -12.116 -14.4697 -7.33013
O 10.1978 8.1158 5.35916
H 10.831 7.34422 5.2979
H 9.65806 8.03829 6.19738
O 9.74182 9.44958 3.17204
H 10.4267 10.1687 3.28895
H 9.81177 8.79688 3.9264
O 9.3059 -3.15654 0.861652
H 8.95387 -4.09221 0.885605
H 9.53562 -2.91085 -0.0800704
O 13.7129 -2.93584 -8.61789
H 12.9404 -2.71474 -9.21316
H 13.476 -3.71735 -8.04077
O -7.53489 -6.02729 3.34931
H -7.84543 -6.38922 2.47036
H -6.64693 -6.42577 3.57888
O 13.4824 -4.00372 7.73933
H 13.2803 -3.89105 6.76648
H 12.7207 -3.64852 8.28128
O -13.4426 -14.3046 4.17659
H -14.2739 -13.92 3.77536
H -13.5403 -14.3451 5.17097
O -9.97723 12.3233 -12.7468
H -9.89677 13.3199 -12.7649
H -10.5916 12.0252 -13.4774
O 14.1253 5.59953 13.3951
H 14.7637 5.15693 12.7653
H 14.6382 6.1076 14.087
O 11.795 9.27001 0.498958
H 10.9308 9.51821 0.936431
H 12.0641 9.99053 -0.140106
O 9.26848 -11.5549 -1.55602
H 8.36349 -11.8027 -1.21026
H 9.86351 -12.3584 -1.53843
O 3.78898 -13.2302 9.61787
H 3.54837 -12.4635 10.2131
H 3.6084 -14.091 10.0936
O -9.02226 -3.11271 5.78154
H -8.91853 -2.12117 5.85936
H -8.97626 -3.37808 4.8185
O -7.7188 -4.58594 -15.0341
H -6.98722 -5.01482 14.5805
H -8.11774 -5.2589 -14.4113
O -10.5145 10.3593 13.087
H -10.5521 10.1771 12.1045
H -9.67403 10.8567 13.3019
O 1.23743 7.80542 -11.2576
H 0.289372 7.72253 -10.9505
H 1.44204 8.76468 -11.4523
O 7.69389 -6.94189 13.7165
H 7.9309 -7.7358 13.1566
H 8.47636 -6.32094 13.7626
O -9.74161 5.18985 -11.6801
H -10.5247 4.67966 -11.3245
H -9.77514 5.19809 -12.6795
O 0.484449 -7.93 9.3365
H -0.00239425 -7.17942 9.78326
H 0.231831 -8.79543 9.76914
O 1.59935 3.01702 -7.21013
H 2.09937 3.85813 -7.41623
H 1.98266 2.2624 -7.74267
O 10.8172 -14.4624 -13.0519
H 9.87013 -14.1526 -13.136
H 10.983 14.9378 -13.6988
O -13.4886 -11.9954 7.03578
H -13.6998 -12.7671 7.63579
H -14.3248 -11.6875 6.582
O -12.1533 4.65812 -0.591604
H -11.7209 4.23889 -1.38989
H -12.2679 5.63863 -0.751076
O 12.6192 -4.9053 -6.44697
H 12.8716 -5.65368 -5.8336
H 11.9652 -4.30416 -5.98783
O 1.35481 -3.08801 -7.70037
H 2.01251 -3.82385 -7.86143
H 1.71466 -2.46553 -7.00539
O -14.7859 6.46121 6.63354
H -14.0725 5.89336 7.04411
H 14.4979 6.32027 7.12254
O 8.53585 11.5057 8.24014
H 8.36786 12.2675 8.86571
H 8.12902 11.7096 7.34971
O -11.8836 4.19758 2.00524
H -11.8119 4.33846 1.01782
H -12.456 3.3981 2.18718
O 2.3068 -11.3222 -1.28501
H 2.92773 -11.9565 -1.74559
H 2.77429 -10.905 -0.50572
O 13.5247 -11.3042 5.37585
H 14.2122 -10.5943 5.22315
H 13.5593 -11.968 4.62874
O 3.8568 -13.1439 -2.87657
H 4.7965 -13.3476 -3.15119
H 3.26673 -13.9173 -3.10822
O 12.343 -7.58328 7.01933
H 12.4844 -7.53471 6.03057
H 12.297 -8.54114 7.3028
O -11.7352 -11.9101 -2.19693
H -11.6939 -12.7434 -2.74826
H -10.8641 -11.7803 -1.72328
O -11.6716 7.9739 13.6859
H -11.7183 8.87876 13.2628
H -11.0494 8.00345 14.4681
O 7.81737 10.1952 -4.74066
H 7.4866 9.96907 -5.65687
H 8.78963 9.97144 -4.67267
O -11.1474 -12.1316 5.6247
H -12.0207 -12.1003 6.11069
H -11.3087 -12.0347 4.64259
O -6.55761 -12.2354 7.62837
H -7.29018 -11.6304 7.31638
H -5.97084 -12.4747 6.85481
O -10.7764 2.57581 -10.2581
H -11.4367 2.72914 -10.9933
H -10.5458 1.60375 -10.2146
O 7.17344 2.58506 6.54744
H 7.90902 2.98882 6.0035
H 6.31602 3.06228 6.35492
O 10.0428 -8.9699 -1.15318
H 9.85771 -9.95133 -1.10335
H 10.2189 -8.71173 -2.10309
O 10.4514 -2.70034 3.2833
H 10.5574 -3.55832 3.7859
H 9.99042 -2.87809 2.41391
O 7.95795 -9.84326 2.85784
H 8.72859 -9.50063 2.32054
H 7.89132 -9.32713 3.71173
O 4.22479 3.5652 -15.0104
H 3.46789 4.21523 15.0669
H 5.08169 4.06377 -14.8795
O 5.39459 8.45532 4.07235
H 5.00987 8.474 3.14951
H 5.59676 7.51051 4.3301
O 3.5788 -9.30937 7.26823
H 3.93592 -8.51748 7.76356
H 2.69373 -9.07839 6.86417
O -14.0529 11.1228 -10.0173
H -13.7407 11.6743 -9.24381
H -14.4266 10.2584 -9.68096
O 7.3091 -4.91927 -12.5885
H 6.32336 -4.96455 -12.4265
H 7.6242 -5.78765 -12.9714
O 1.79412 2.06876 7.476
H 0.811028 2.22908 7.38764
H 1.99899 1.11798 7.24361
O -1.47752 11.0195 -14.4424
H -0.853892 11.5136 -13.8366
H -1.63396 10.1 -14.0816