Aspirin-Meloxicam 4x4x4 Cocrystal

14592 atoms
30 atom types
15104 bonds
31 bond types
24320 angles
46 angle types
32256 dihedrals
69 dihedral types

0.0 27.2103996 xlo xhi
0.0 76.6320038 ylo yhi
0.0 74.7562104 zlo zhi
0.0 -6.427269 0.0 xy xz yz

Masses

1 32.06
2 32.06
3 14.0067
4 14.0067
5 14.0067
6 15.9994
7 15.9994
8 15.9994
9 15.9994
10 1.008
11 1.008
12 1.008
13 1.008
14 12.011
15 12.011
16 12.011
17 12.011
18 12.011
19 12.011
20 12.011
21 12.011
22 12.011
23 12.011
24 15.9994
25 15.9994
26 15.9994
27 15.9994
28 1.008
29 1.008
30 1.008

Pair Coeffs # lj/cut/coul/long

1 0.249833 3.55
2 0.249833 3.55
3 0.169886 3.25
4 0.169886 3.25
5 0.169886 3.25
6 0.169886 3.07
7 0.20986 2.96
8 0.169886 2.96
9 0.169886 2.96
10 0.0299799 2.5
11 0.0299799 2.42
12 0 0
13 0 0
14 0.0699532 3.55
15 0.10493 3.75
16 0.0699532 3.55
17 0.0659559 3.5
18 0.0699532 3.55
19 0.0699532 3.55
20 0.0699532 3.55
21 0.10493 3.75
22 0.10493 3.75
23 0.0659559 3.5
24 0.169886 3
25 0.20986 2.96
26 0.169886 3
27 0.20986 2.96
28 0.0299799 2.42
29 0.01499 2.42
30 0 0

Bond Coeffs # harmonic

1 433.71 1.67
2 699.532 1.44
3 339.773 1.77
4 249.833 1.76
5 249.833 1.74
6 449.699 1.364
7 552.63 0.945
8 426.714 1.381
9 468.686 1.4
10 366.755 1.08
11 476.681 1.343
12 487.674 1.335
13 336.775 1.449
14 409.726 1.394
15 519.652 1.37
16 316.788 1.504
17 339.773 1.09
18 433.71 1.01
19 569.619 1.229
20 489.672 1.335
21 799.465 1.49
22 899.398 1.364
23 1139.24 1.229
24 937.373 1.4
25 733.509 1.08
26 899.398 1.364
27 679.545 1.09
28 633.576 1.522
29 427.714 1.327
30 1139.24 1.229
31 1105.26 0.945

Angle Coeffs # harmonic

1 3.20382 122.745
2 34.9766 105.3
3 49.9666 118
4 69.9532 120.1
5 84.9432 120
6 79.9465 122.9
7 79.9465 120.4
8 69.9532 115.5
9 62.9579 120
10 34.9766 120
11 69.9532 120
12 34.9766 109.5
13 32.9779 107.8
14 119.92 107
15 73.9505 107.2
16 103.93 119
17 99.9331 103
18 49.9666 120
19 49.9666 108.6
20 73.9505 90
21 69.9532 120.2
22 34.9766 119.8
23 69.9532 110
24 69.9532 115
25 69.9532 126.2
26 84.9432 119.4
27 69.9532 111
28 69.9532 130.7
29 34.9766 128.2
30 34.9766 120
31 69.9532 106.3
32 34.9766 109.5
33 139.906 120
34 159.893 120.4
35 159.893 121
36 169.886 120
37 125.916 120
38 69.9532 120
39 139.906 120
40 69.9532 109.5
41 65.9559 107.8
42 159.893 120.4
43 161.892 111.4
44 165.889 123.4
45 69.9532 113
46 165.889 116.9

Dihedral Coeffs # opls

1 0 20 0 0
2 0 20 0 0
3 0 0 0 0
4 0 0 0 0
5 0 7.24515 0 0
6 0 7.24515 0 0
7 0 7.24515 0 0
8 0 7.24515 0 0
9 0 7.24515 0 0
10 0 0 0 0
11 0 0 0 0
12 0 0 0 0
13 0 0 0 0
14 0 0 0 0
15 0 1.68088 0 0
16 0 0 0 0
17 0 0 0 0
18 1.65489 -0.767486 -0.116921 0
19 0 4.64689 0 0
20 0 4.64689 0 0
21 0 9.99331 0 0
22 0 9.99331 0 0
23 0 7.24515 0 0
24 0 7.24515 0 0
25 0 0 0 0
26 0 0 0 0
27 1.36109 -1.45603 0.148901 0
28 0 0 0 0
29 0 7.24515 0 0
30 0 7.24515 0 0
31 0 10.7428 0 0
32 0 10.7428 0 0
33 0 10.7428 0 0
34 0 10.7428 0 0
35 0 4.79679 0 0
36 0 4.79679 0 0
37 2.29846 6.08493 0 0
38 0 6.08493 0 0
39 0 4.89672 0 0
40 0 4.89672 0 0
41 0 9.99331 0 0
42 0 4.64689 0 0
43 0 0 0 0
44 0 0 0 0
45 0 0 0 0
46 0 0 0 0
47 0 0 0 0
48 0 0 0 0
49 0 0 0 0
50 2.07261 -2.96402 2.47135 0
51 0 7.24515 0 0
52 0 7.24515 0 0
53 3.99732 4.99666 0 0
54 0 2.0986 0 0
55 0 2.0986 0 0
56 0 7.24515 0 0
57 0 7.24515 0 0
58 0 7.24515 0 0
59 0 7.24515 0 0
60 0 7.24515 0 0
61 0 7.24515 0 0
62 0 7.24515 0 0
63 0 7.24515 0 0
64 0 2.49833 0 0
65 -2.3885e-06 0 0.131912 0
66 0 0 0 0
67 0 5.49632 0 0
68 0.649565 -0.249833 0.669552 0
69 0 5.12057 0 0

Atoms # full

1 1 1 0.283063 3.149246 5.3840761 16.6122303
2 1 2 -0.035452 -0.570027 11.0070457 16.2336922
3 1 6 -0.26712 0.496876 7.0351481 19.5240402
4 1 7 -0.278352 0.22778 9.0159969 17.992529
5 1 3 0.066869 1.559435 9.2318497 16.1431027
6 1 4 0.020329 3.068449 7.0167542 16.9005376
7 1 8 -0.274505 1.940106 4.9877248 15.9250584
8 1 9 -0.310562 4.435463 5.0806732 16.0275002
9 1 14 0.034559 1.933907 7.4030981 17.6692124
10 1 15 0.071346 1.195635 8.5895882 17.2886925
11 1 14 0.023282 2.250798 5.456903 19.1825714
12 1 5 -0.37444 1.383153 10.9606048 14.5723639
13 1 16 0.162657 0.91399 10.3341341 15.633976
14 1 14 0.050215 3.093576 4.776834 18.2777786
15 1 14 -0.072357 3.848938 3.6761511 18.6647873
16 1 14 0.046084 1.541464 6.668314 18.7736721
17 1 14 -0.080038 2.9044422 3.86017 20.884552
18 1 17 -0.024277 4.3323641 7.6997729 17.2327938
19 1 18 0.012265 -0.550481 12.1859894 14.954196
20 1 19 -0.043828 0.563966 11.9936018 14.1897373
21 1 14 -0.126286 3.753593 3.2189169 19.9787388
22 1 14 -0.056663 2.1567741 4.9673382 20.493908
23 1 17 -0.041802 -1.616467 13.2155714 14.7999544
24 1 10 0.007862 4.1404848 8.7771006 17.2239418
25 1 10 0.070707 4.6884089 7.416338 18.2343598
26 1 11 0.114615 1.5146461 5.4845181 21.2042675
27 1 12 0.088316 2.3204041 8.8461572 15.5292397
28 1 11 0.11525 4.3212328 2.3456271 20.2927837
29 1 11 0.158528 4.4908791 3.1791811 17.937542
30 1 11 0.14652 0.83414 12.6027298 13.3304005
31 1 11 0.10166 2.8418282 3.497237 21.9107876
32 1 10 0.076716 -1.374408 13.856391 13.9430218
33 1 10 -0.024856 -1.702596 13.8466778 15.6968117
34 1 10 0.05739 5.0831699 7.4621029 16.4764061
35 1 10 0.071394 -2.594225 12.7495613 14.6129027
36 1 13 0.230911 0.168491 7.910543 19.0952835
37 2 20 0.142533 5.447937 8.9859858 13.0388546
38 2 20 0.11758 6.0641608 9.6767569 11.9794798
39 2 20 -0.115037 7.3197041 9.3048134 11.5114241
40 2 20 -0.155184 7.994266 8.238286 12.0985441
41 2 20 -0.134433 7.401608 7.5256982 13.1409302
42 2 20 -0.165746 6.1412311 7.89534 13.5908098
43 2 21 0.384574 4.1203361 9.3087788 13.6385203
44 2 22 0.50216 4.3118181 10.5857439 10.655901
45 2 23 -0.144281 3.784051 11.8860912 10.1477308
46 2 24 -0.363793 3.6387661 10.5086584 13.3945561
47 2 25 -0.473558 3.539809 8.4719401 14.353363
48 2 26 -0.347748 5.4823108 10.7810126 11.3571997
49 2 27 -0.426879 3.826195 9.4848538 10.4866257
50 2 28 0.161444 7.766943 9.8533058 10.6839781
51 2 28 0.141852 8.9852858 7.979322 11.7322493
52 2 28 0.146101 7.925973 6.6971159 13.6164093
53 2 28 0.151121 5.6569 7.34127 14.3935862
54 2 29 0.061145 4.5151992 12.3512507 9.471716
55 2 29 0.056927 2.8496672 11.7101889 9.6083327
56 2 29 0.086062 3.6267131 12.5794611 10.9864894
57 2 30 0.375161 2.691685 10.6452036 13.8818914
58 3 1 0.283063 1.243128 14.9630756 11.4213476
59 3 2 -0.035452 4.962401 20.5860462 11.7998858
60 3 6 -0.26712 3.895498 16.6141472 8.5095406
61 3 7 -0.278352 4.1645942 18.5949955 10.0410509
62 3 3 0.066869 2.8329389 18.8108502 11.8904782
63 3 4 0.020329 1.323925 16.5957546 11.1330423
64 3 8 -0.274505 2.4522679 14.5667248 12.1085215
65 3 9 -0.310562 -0.043089 14.6596728 12.0060797
66 3 14 0.034559 2.458467 16.9820976 10.3643685
67 3 15 0.071346 3.196739 18.1685886 10.7448893
68 3 14 0.023282 2.1415761 15.035903 8.8510076
69 3 5 -0.37444 3.0092211 20.5396042 13.461215
70 3 16 0.162657 3.478384 19.9131336 12.3996029
71 3 14 0.050215 1.298798 14.355834 9.7558022
72 3 14 -0.072357 0.543436 13.2551508 9.3687906
73 3 14 0.046084 2.85091 16.2473145 9.2599087
74 3 14 -0.080038 1.487932 13.4391699 7.1490288
75 3 17 -0.024277 0.06001 17.2787724 10.8007851
76 3 18 0.012265 4.942855 21.764988 13.0793839
77 3 19 -0.043828 3.828408 21.5726013 13.8438436
78 3 14 -0.126286 0.638781 12.7979174 8.054842
79 3 14 -0.056663 2.2356 14.5463381 7.539671
80 3 17 -0.041802 6.008841 22.7945729 13.2336264
81 3 10 0.007862 0.251889 18.3561001 10.8096371
82 3 10 0.070707 -0.296035 16.9953384 9.7992201
83 3 11 0.114615 2.877728 15.0635176 6.8293109
84 3 12 0.088316 2.0719709 18.4251557 12.5043392
85 3 11 0.11525 0.071141 11.9246274 7.7407942
86 3 11 0.158528 -0.098505 12.7581806 10.0960379
87 3 11 0.14652 3.558234 22.1817303 14.7031803
88 3 11 0.10166 1.5505461 13.0762367 6.1227918
89 3 10 0.076716 5.7667818 23.4353924 14.0905571
90 3 10 -0.024856 6.0949702 23.4256783 12.3367682
91 3 10 0.05739 -0.690796 17.0411034 11.5571728
92 3 10 0.071394 6.986599 22.3285599 13.4206763
93 3 13 0.230911 4.2238832 17.4895439 8.9382954
94 4 20 0.142533 -1.055563 -0.593014 14.9947244
95 4 20 0.11758 -1.671787 0.097757 16.0541
96 4 20 -0.115037 -2.92733 -0.274187 16.5221558
97 4 20 -0.155184 -3.601892 -1.340714 15.9350348
98 4 20 -0.134433 -3.009234 -2.0533021 14.8926488
99 4 20 -0.165746 -1.748857 -1.6836601 14.4427691
100 4 21 0.384574 0.272038 -0.270221 14.3950586
101 4 22 0.50216 0.080556 1.006744 17.3776798
102 4 23 -0.144281 0.608323 2.307091 17.8858472
103 4 24 -0.363793 0.753608 0.929658 14.6390229
104 4 25 -0.473558 0.852565 -1.10706 13.6802159
105 4 26 -0.347748 -1.089937 1.202013 16.6763783
106 4 27 -0.426879 0.56618 -0.094146 17.5469513
107 4 28 0.161444 -3.374569 0.274306 17.3496018
108 4 28 0.141852 -4.5929122 -1.5996781 16.3013306
109 4 28 0.146101 -3.5335989 -2.8818842 14.4171705
110 4 28 0.151121 -1.264526 -2.23773 13.6399927
111 4 29 0.061145 -0.122825 2.7722509 18.5618649
112 4 29 0.056927 1.542707 2.1311891 18.4252453
113 4 29 0.086062 0.765661 3.0004611 17.0470905
114 4 30 0.375161 1.7006901 1.066204 14.1516886
115 5 1 0.283063 2.0465369 13.7739239 2.076822
116 5 2 -0.035452 5.76581 8.1509543 2.45536
117 5 6 -0.26712 4.698906 12.1228523 -0.834986
118 5 7 -0.278352 4.9680018 10.1420031 0.696524
119 5 3 0.066869 3.636348 9.9261504 2.5459509
120 5 4 0.020329 2.1273341 12.1412458 1.788515
121 5 8 -0.274505 3.255677 14.1702747 2.763995
122 5 9 -0.310562 0.76032 14.0773268 2.6615529
123 5 14 0.034559 3.2618749 11.7549019 1.019841
124 5 15 0.071346 4.0001478 10.5684119 1.400362
125 5 14 0.023282 2.944985 13.7010966 -0.493519
126 5 5 -0.37444 3.81263 8.1973953 4.1166892
127 5 16 0.162657 4.2817931 8.8238659 3.0550771
128 5 14 0.050215 2.102206 14.3811665 0.411275
129 5 14 -0.072357 1.346845 15.4818487 0.024265
130 5 14 0.046084 3.6543191 12.489686 -0.084618
131 5 14 -0.080038 2.2913411 15.2978296 -2.195498
132 5 17 -0.024277 0.863419 11.4582272 1.456259
133 5 18 0.012265 5.7462631 6.9720112 3.7348571
134 5 19 -0.043828 4.6318159 7.1643982 4.4993162
135 5 14 -0.126286 1.4421901 15.9390832 -1.289685
136 5 14 -0.056663 3.0390091 14.1906624 -1.804855
137 5 17 -0.041802 6.8122492 5.9424292 3.889099
138 5 10 0.007862 1.055297 10.3808994 1.465111
139 5 10 0.070707 0.507374 11.7416621 0.454694
140 5 11 0.114615 3.6811359 13.673482 -2.5152161
141 5 12 0.088316 2.8753792 10.3118429 3.1598129
142 5 11 0.11525 0.87455 16.8123722 -1.603732
143 5 11 0.158528 0.704904 15.978819 0.751511
144 5 11 0.14652 4.3616429 6.5552702 5.3586531
145 5 11 0.10166 2.353955 15.6607628 -3.221735
146 5 10 0.076716 6.5701909 5.3016091 4.7460308
147 5 10 -0.024856 6.8983788 5.3113222 2.992241
148 5 10 0.05739 0.112612 11.6958971 2.212646
149 5 10 0.071394 7.7900081 6.4084392 4.0761499
150 5 13 0.230911 5.0272918 11.2474566 -0.406231
151 6 20 0.142533 -0.252154 10.1720142 5.650198
152 6 20 0.11758 -0.868379 9.4812432 6.7095728
153 6 20 -0.115037 -2.1239221 9.8531866 7.177629
154 6 20 -0.155184 -2.7984829 10.919714 6.590509
155 6 20 -0.134433 -2.2058251 11.6323023 5.5481229
156 6 20 -0.165746 -0.945448 11.26266 5.0982432
157 6 21 0.384574 1.075447 9.8492212 5.0505328
158 6 22 0.50216 0.883965 8.5722561 8.0331516
159 6 23 -0.144281 1.411732 7.2719092 8.5413218
160 6 24 -0.363793 1.557017 8.6493416 5.294497
161 6 25 -0.473558 1.6559741 10.68606 4.33569
162 6 26 -0.347748 -0.286528 8.3769875 7.3318529
163 6 27 -0.426879 1.369588 9.6731463 8.2024269
164 6 28 0.161444 -2.5711601 9.3046942 8.0050755
165 6 28 0.141852 -3.7895031 11.1786776 6.9568038
166 6 28 0.146101 -2.7301901 12.4608841 5.0726442
167 6 28 0.151121 -0.461117 11.8167296 4.2954669
168 6 29 0.061145 0.680583 6.8067489 9.2173367
169 6 29 0.056927 2.3461151 7.4478112 9.08072
170 6 29 0.086062 1.56907 6.5785389 7.7025638
171 6 30 0.375161 2.504098 8.5127964 4.8071618
172 7 1 0.283063 3.952654 4.1949239 7.267705
173 7 2 -0.035452 0.233382 -1.428046 6.8891668
174 7 6 -0.26712 1.300285 2.5438521 10.179512
175 7 7 -0.278352 1.031189 0.563003 8.6480017
176 7 3 0.066869 2.362844 0.34715 6.7985749
177 7 4 0.020329 3.871857 2.5622461 7.5560112
178 7 8 -0.274505 2.743515 4.5912752 6.5805321
179 7 9 -0.310562 5.2388721 4.4983268 6.6829729
180 7 14 0.034559 2.7373159 2.1759019 8.3246851
181 7 15 0.071346 1.999043 0.989412 7.9441638
182 7 14 0.023282 3.0542071 4.122097 9.8380461
183 7 5 -0.37444 2.1865611 -1.381605 5.2278381
184 7 16 0.162657 1.7173981 -0.755134 6.2894502
185 7 14 0.050215 3.8969852 4.802166 8.9332514
186 7 14 -0.072357 4.6523471 5.9028492 9.320262
187 7 14 0.046084 2.344872 2.910686 9.4291439
188 7 14 -0.080038 3.707851 5.7188301 11.5400238
189 7 17 -0.024277 5.1357732 1.879227 7.888268
190 7 18 0.012265 0.252928 -2.6069889 5.6096692
191 7 19 -0.043828 1.367375 -2.4146021 4.8452102
192 7 14 -0.126286 4.5570011 6.3600831 10.6342106
193 7 14 -0.056663 2.960182 4.6116619 11.1493816
194 7 17 -0.041802 -0.813058 -3.636571 5.4554272
195 7 10 0.007862 4.943894 0.801899 7.879416
196 7 10 0.070707 5.491817 2.162662 8.8898336
197 7 11 0.114615 2.3180549 4.0944819 11.8597422
198 7 12 0.088316 3.123812 0.732843 6.1847138
199 7 11 0.11525 5.1246419 7.2333732 10.9482594
200 7 11 0.158528 5.2942872 6.3998189 8.5930147
201 7 11 0.14652 1.6375491 -3.02373 3.985873
202 7 11 0.10166 3.645237 6.0817628 12.5662613
203 7 10 0.076716 -0.5709991 -4.277391 4.598496
204 7 10 -0.024856 -0.899188 -4.2676778 6.3522849
205 7 10 0.05739 5.886579 2.1168971 7.1318798
206 7 10 0.071394 -1.790817 -3.1705611 5.2683768
207 7 13 0.230911 0.9719 1.6684571 9.7507582
208 8 20 0.142533 6.2513461 19.7510147 3.694329
209 8 20 0.11758 6.86757 19.0602436 2.634953
210 8 20 -0.115037 8.1231127 19.4321881 2.1668971
211 8 20 -0.155184 8.7976742 20.4987145 2.7540181
212 8 20 -0.134433 8.2050171 21.2113018 3.7964039
213 8 20 -0.165746 6.9446392 20.8416596 4.246284
214 8 21 0.384574 4.9237452 19.4282208 4.293994
215 8 22 0.50216 5.1152258 18.1512566 1.311374
216 8 23 -0.144281 4.5874601 16.8509084 0.803205
217 8 24 -0.363793 4.4421749 18.2283421 4.0500302
218 8 25 -0.473558 4.3432169 20.2650604 5.0088372
219 8 26 -0.347748 6.2857189 17.955988 2.0126741
220 8 27 -0.426879 4.6296029 19.2521458 1.1421
221 8 28 0.161444 8.5703507 18.8836938 1.339451
222 8 28 0.141852 9.7886944 20.7576771 2.387723
223 8 28 0.146101 8.7293816 22.0398846 4.2718821
224 8 28 0.151121 6.4603081 21.3957291 5.0490599
225 8 29 0.061145 5.3186078 16.3857498 0.127189
226 8 29 0.056927 3.653076 17.0268116 0.263807
227 8 29 0.086062 4.4301219 16.1575394 1.641963
228 8 30 0.375161 3.4950931 18.0917969 4.537364
229 9 1 0.283063 1.542429 5.3840761 35.3012848
230 9 2 -0.035452 -2.1768439 11.0070457 34.9227448
231 9 6 -0.26712 -1.109941 7.0351481 38.213089
232 9 7 -0.278352 -1.379037 9.0159969 36.6815834
233 9 3 0.066869 -0.047382 9.2318497 34.8321572
234 9 4 0.020329 1.461632 7.0167542 35.589592
235 9 8 -0.274505 0.333289 4.9877248 34.6141129
236 9 9 -0.310562 2.828646 5.0806732 34.7165566
237 9 14 0.034559 0.32709 7.4030981 36.3582649
238 9 15 0.071346 -0.411182 8.5895882 35.9777452
239 9 14 0.023282 0.643981 5.456903 37.871624
240 9 5 -0.37444 -0.223664 10.9606048 33.2614174
241 9 16 0.162657 -0.692827 10.3341341 34.3230286
242 9 14 0.050215 1.486759 4.776834 36.9668312
243 9 14 -0.072357 2.242121 3.6761511 37.3538399
244 9 14 0.046084 -0.065353 6.668314 37.4627228
245 9 14 -0.080038 1.297625 3.86017 39.5736046
246 9 17 -0.024277 2.7255471 7.6997729 35.9218484
247 9 18 0.012265 -2.1572981 12.1859894 33.6432495
248 9 19 -0.043828 -1.042851 11.9936018 32.8787918
249 9 14 -0.126286 2.146776 3.2189169 38.6677933
250 9 14 -0.056663 0.549957 4.9673382 39.1829605
251 9 17 -0.041802 -3.223284 13.2155714 33.4890099
252 9 10 0.007862 2.5336681 8.7771006 35.9129944
253 9 10 0.070707 3.0815921 7.416338 36.9234086
254 9 11 0.114615 -0.092171 5.4845181 39.8933182
255 9 12 0.088316 0.713587 8.8461572 34.2182922
256 9 11 0.11525 2.7144161 2.3456271 38.9818382
257 9 11 0.158528 2.8840622 3.1791811 36.6265946
258 9 11 0.14652 -0.772677 12.6027298 32.0194511
259 9 11 0.10166 1.235011 3.497237 40.5998383
260 9 10 0.076716 -2.981225 13.856391 32.6320763
261 9 10 -0.024856 -3.309413 13.8466778 34.3858643
262 9 10 0.05739 3.476353 7.4621029 35.1654587
263 9 10 0.071394 -4.2010422 12.7495613 33.3019562
264 9 13 0.230911 -1.438326 7.910543 37.7843361
265 10 20 0.142533 3.84112 8.9859858 31.7279072
266 10 20 0.11758 4.4573441 9.6767569 30.6685314
267 10 20 -0.115037 5.7128868 9.3048134 30.2004757
268 10 20 -0.155184 6.3874488 8.238286 30.7875958
269 10 20 -0.134433 5.7947912 7.5256982 31.8299847
270 10 20 -0.165746 4.5344138 7.89534 32.2798653
271 10 21 0.384574 2.5135191 9.3087788 32.3275719
272 10 22 0.50216 2.7050011 10.5857439 29.3449535
273 10 23 -0.144281 2.1772339 11.8860912 28.8367844
274 10 24 -0.363793 2.031949 10.5086584 32.0836067
275 10 25 -0.473558 1.932992 8.4719401 33.0424156
276 10 26 -0.347748 3.875494 10.7810126 30.0462513
277 10 27 -0.426879 2.219378 9.4848538 29.1756802
278 10 28 0.161444 6.1601262 9.8533058 29.3730316
279 10 28 0.141852 7.378469 7.979322 30.4213028
280 10 28 0.146101 6.3191562 6.6971159 32.3054619
281 10 28 0.151121 4.0500832 7.34127 33.0826416
282 10 29 0.061145 2.908382 12.3512507 28.1607685
283 10 29 0.056927 1.24285 11.7101889 28.2973862
284 10 29 0.086062 2.019896 12.5794611 29.6755429
285 10 30 0.375161 1.084868 10.6452036 32.5709458
286 11 1 0.283063 -0.363689 14.9630756 30.1103993
287 11 2 -0.035452 3.3555839 20.5860462 30.4889393
288 11 6 -0.26712 2.288681 16.6141472 27.1985931
289 11 7 -0.278352 2.557777 18.5949955 28.7301045
290 11 3 0.066869 1.226122 18.8108502 30.5795326
291 11 4 0.020329 -0.282892 16.5957546 29.8220959
292 11 8 -0.274505 0.845451 14.5667248 30.7975731
293 11 9 -0.310562 -1.6499061 14.6596728 30.6951313
294 11 14 0.034559 0.85165 16.9820976 29.0534191
295 11 15 0.071346 1.589922 18.1685886 29.4339428
296 11 14 0.023282 0.534759 15.035903 27.5400601
297 11 5 -0.37444 1.402404 20.5396042 32.1502686
298 11 16 0.162657 1.871567 19.9131336 31.0886555
299 11 14 0.050215 -0.308019 14.355834 28.4448567
300 11 14 -0.072357 -1.063381 13.2551508 28.0578442
301 11 14 0.046084 1.244093 16.2473145 27.9489614
302 11 14 -0.080038 -0.118885 13.4391699 25.8380814
303 11 17 -0.024277 -1.5468071 17.2787724 29.4898377
304 11 18 0.012265 3.3360381 21.764988 31.7684365
305 11 19 -0.043828 2.221591 21.5726013 32.5328942
306 11 14 -0.126286 -0.968036 12.7979174 26.7438965
307 11 14 -0.056663 0.628783 14.5463381 26.2287235
308 11 17 -0.041802 4.4020238 22.7945729 31.92268
309 11 10 0.007862 -1.354928 18.3561001 29.4986897
310 11 10 0.070707 -1.9028522 16.9953384 28.4882717
311 11 11 0.114615 1.270911 15.0635176 25.518364
312 11 12 0.088316 0.465154 18.4251557 31.1933918
313 11 11 0.11525 -1.535676 11.9246274 26.4298477
314 11 11 0.158528 -1.7053221 12.7581806 28.7850914
315 11 11 0.14652 1.951417 22.1817303 33.392231
316 11 11 0.10166 -0.056271 13.0762367 24.8118439
317 11 10 0.076716 4.159965 23.4353924 32.7796097
318 11 10 -0.024856 4.488153 23.4256783 31.0258198
319 11 10 0.05739 -2.2976129 17.0411034 30.2462254
320 11 10 0.071394 5.3797822 22.3285599 32.1097298
321 11 13 0.230911 2.6170659 17.4895439 27.627348
322 12 20 0.142533 -2.66238 -0.593014 33.6837769
323 12 20 0.11758 -3.278604 0.097757 34.7431565
324 12 20 -0.115037 -4.5341468 -0.274187 35.2112084
325 12 20 -0.155184 -5.2087088 -1.340714 34.6240883
326 12 20 -0.134433 -4.6160512 -2.0533021 33.5817032
327 12 20 -0.165746 -3.355674 -1.6836601 33.1318207
328 12 21 0.384574 -1.334779 -0.270221 33.0841103
329 12 22 0.50216 -1.526261 1.006744 36.0667267
330 12 23 -0.144281 -0.998494 2.307091 36.5749016
331 12 24 -0.363793 -0.853209 0.929658 33.3280754
332 12 25 -0.473558 -0.754252 -1.10706 32.3692665
333 12 26 -0.347748 -2.696754 1.202013 35.3654328
334 12 27 -0.426879 -1.040637 -0.094146 36.2360077
335 12 28 0.161444 -4.9813862 0.274306 36.0386505
336 12 28 0.141852 -6.199729 -1.5996781 34.9903832
337 12 28 0.146101 -5.1404162 -2.8818842 33.1062241
338 12 28 0.151121 -2.871343 -2.23773 32.3290444
339 12 29 0.061145 -1.7296421 2.7722509 37.2509194
340 12 29 0.056927 -0.06411 2.1311891 37.114296
341 12 29 0.086062 -0.841156 3.0004611 35.736145
342 12 30 0.375161 0.093873 1.066204 32.8407402
343 13 1 0.283063 0.43972 13.7739239 20.7658768
344 13 2 -0.035452 4.1589928 8.1509543 21.1444111
345 13 6 -0.26712 3.0920889 12.1228523 17.8540688
346 13 7 -0.278352 3.3611851 10.1420031 19.3855763
347 13 3 0.066869 2.029531 9.9261504 21.2350044
348 13 4 0.020329 0.520517 12.1412458 20.4775677
349 13 8 -0.274505 1.64886 14.1702747 21.4530487
350 13 9 -0.310562 -0.846497 14.0773268 21.3506069
351 13 14 0.034559 1.6550581 11.7549019 19.7088948
352 13 15 0.071346 2.3933311 10.5684119 20.0894165
353 13 14 0.023282 1.338168 13.7010966 18.1955338
354 13 5 -0.37444 2.2058129 8.1973953 22.8057423
355 13 16 0.162657 2.6749761 8.8238659 21.7441292
356 13 14 0.050215 0.495389 14.3811665 19.1003284
357 13 14 -0.072357 -0.259972 15.4818487 18.7133179
358 13 14 0.046084 2.047502 12.489686 18.6044369
359 13 14 -0.080038 0.684524 15.2978296 16.4935551
360 13 17 -0.024277 -0.743398 11.4582272 20.1453114
361 13 18 0.012265 4.1394458 6.9720112 22.4239102
362 13 19 -0.043828 3.0249989 7.1643982 23.1883678
363 13 14 -0.126286 -0.164627 15.9390832 17.3993683
364 13 14 -0.056663 1.432192 14.1906624 16.8841972
365 13 17 -0.041802 5.2054319 5.9424292 22.5781517
366 13 10 0.007862 -0.55152 10.3808994 20.1541634
367 13 10 0.070707 -1.099443 11.7416621 19.1437473
368 13 11 0.114615 2.0743189 13.673482 16.1738377
369 13 12 0.088316 1.268562 10.3118429 21.8488656
370 13 11 0.11525 -0.732267 16.8123722 17.0853195
371 13 11 0.158528 -0.901913 15.978819 19.4405632
372 13 11 0.14652 2.7548261 6.5552702 24.0477066
373 13 11 0.10166 0.747138 15.6607628 15.4673176
374 13 10 0.076716 4.9633742 5.3016091 23.4350834
375 13 10 -0.024856 5.2915621 5.3113222 21.6812935
376 13 10 0.05739 -1.494205 11.6958971 20.9016992
377 13 10 0.071394 6.1831908 6.4084392 22.7652035
378 13 13 0.230911 3.420475 11.2474566 18.2828217
379 14 20 0.142533 -1.858971 10.1720142 24.3392525
380 14 20 0.11758 -2.4751959 9.4812432 25.3986263
381 14 20 -0.115037 -3.7307391 9.8531866 25.8666822
382 14 20 -0.155184 -4.4053002 10.919714 25.279562
383 14 20 -0.134433 -3.8126421 11.6323023 24.2371769
384 14 20 -0.165746 -2.552265 11.26266 23.7872963
385 14 21 0.384574 -0.53137 9.8492212 23.7395859
386 14 22 0.50216 -0.722852 8.5722561 26.7222042
387 14 23 -0.144281 -0.195085 7.2719092 27.2303753
388 14 24 -0.363793 -0.0498 8.6493416 23.9835492
389 14 25 -0.473558 0.049157 10.68606 23.024744
390 14 26 -0.347748 -1.893345 8.3769875 26.0209064
391 14 27 -0.426879 -0.237229 9.6731463 26.8914796
392 14 28 0.161444 -4.1779771 9.3046942 26.6941281
393 14 28 0.141852 -5.3963199 11.1786776 25.6458569
394 14 28 0.146101 -4.3370071 12.4608841 23.7616959
395 14 28 0.151121 -2.067934 11.8167296 22.98452
396 14 29 0.061145 -0.926234 6.8067489 27.9063892
397 14 29 0.056927 0.739298 7.4478112 27.7697716
398 14 29 0.086062 -0.037747 6.5785389 26.3916168
399 14 30 0.375161 0.897281 8.5127964 23.4962158
400 15 1 0.283063 2.3458371 4.1949239 25.9567586
401 15 2 -0.035452 -1.373435 -1.428046 25.5782204
402 15 6 -0.26712 -0.306532 2.5438521 28.8685646
403 15 7 -0.278352 -0.575628 0.563003 27.3370552
404 15 3 0.066869 0.756027 0.34715 25.487629
405 15 4 0.020329 2.2650399 2.5622461 26.2450638
406 15 8 -0.274505 1.136698 4.5912752 25.2695847
407 15 9 -0.310562 3.6320551 4.4983268 25.3720265
408 15 14 0.034559 1.130499 2.1759019 27.0137386
409 15 15 0.071346 0.392226 0.989412 26.6332169
410 15 14 0.023282 1.44739 4.122097 28.5270996
411 15 5 -0.37444 0.579744 -1.381605 23.9168912
412 15 16 0.162657 0.110581 -0.755134 24.9785042
413 15 14 0.050215 2.2901681 4.802166 27.6223049
414 15 14 -0.072357 3.0455301 5.9028492 28.0093155
415 15 14 0.046084 0.738055 2.910686 28.1181965
416 15 14 -0.080038 2.1010339 5.7188301 30.2290764
417 15 17 -0.024277 3.528956 1.879227 26.5773201
418 15 18 0.012265 -1.353889 -2.6069889 24.2987213
419 15 19 -0.043828 -0.239442 -2.4146021 23.5342636
420 15 14 -0.126286 2.9501842 6.3600831 29.3232632
421 15 14 -0.056663 1.353365 4.6116619 29.8384362
422 15 17 -0.041802 -2.4198749 -3.636571 24.1444798
423 15 10 0.007862 3.3370769 0.801899 26.5684681
424 15 10 0.070707 3.885 2.162662 27.5788861
425 15 11 0.114615 0.7112381 4.0944819 30.5487957
426 15 12 0.088316 1.516995 0.732843 24.873768
427 15 11 0.11525 3.5178249 7.2333732 29.637312
428 15 11 0.158528 3.68747 6.3998189 27.2820683
429 15 11 0.14652 0.030732 -3.02373 22.6749268
430 15 11 0.10166 2.03842 6.0817628 31.2553139
431 15 10 0.076716 -2.1778159 -4.277391 23.2875481
432 15 10 -0.024856 -2.5060051 -4.2676778 25.041338
433 15 10 0.05739 4.2797618 2.1168971 25.8209324
434 15 10 0.071394 -3.397634 -3.1705611 23.95743
435 15 13 0.230911 -0.634917 1.6684571 28.4398117
436 16 20 0.142533 4.6445289 19.7510147 22.3833828
437 16 20 0.11758 5.2607532 19.0602436 21.3240051
438 16 20 -0.115037 6.5162959 19.4321881 20.8559494
439 16 20 -0.155184 7.1908569 20.4987145 21.4430714
440 16 20 -0.134433 6.5981999 21.2113018 22.4854565
441 16 20 -0.165746 5.337822 20.8416596 22.9353352
442 16 21 0.384574 3.3169279 19.4282208 22.9830476
443 16 22 0.50216 3.508409 18.1512566 20.0004272
444 16 23 -0.144281 2.980643 16.8509084 19.4922581
445 16 24 -0.363793 2.8353579 18.2283421 22.7390843
446 16 25 -0.473558 2.7363999 20.2650604 23.6978894
447 16 26 -0.347748 4.6789022 17.955988 20.7017288
448 16 27 -0.426879 3.0227859 19.2521458 19.831152
449 16 28 0.161444 6.963534 18.8836938 20.0285034
450 16 28 0.141852 8.1818771 20.7576771 21.0767765
451 16 28 0.146101 7.1225648 22.0398846 22.9609356
452 16 28 0.151121 4.8534908 21.3957291 23.7381115
453 16 29 0.061145 3.7117911 16.3857498 18.8162422
454 16 29 0.056927 2.0462589 17.0268116 18.95286
455 16 29 0.086062 2.8233049 16.1575394 20.3310166
456 16 30 0.375161 1.888276 18.0917969 23.2264156
457 17 1 0.283063 -0.064389 5.3840761 53.9903374
458 17 2 -0.035452 -3.7836621 11.0070457 53.6118012
459 17 6 -0.26712 -2.716759 7.0351481 56.9021454
460 17 7 -0.278352 -2.9858552 9.0159969 55.370636
461 17 3 0.066869 -1.6542 9.2318497 53.5212097
462 17 4 0.020329 -0.145186 7.0167542 54.2786446
463 17 8 -0.274505 -1.2735291 4.9877248 53.3031654
464 17 9 -0.310562 1.221828 5.0806732 53.4056091
465 17 14 0.034559 -1.2797281 7.4030981 55.0473213
466 17 15 0.071346 -2.0179999 8.5895882 54.6668015
467 17 14 0.023282 -0.962837 5.456903 56.5606804
468 17 5 -0.37444 -1.830482 10.9606048 51.9504738
469 17 16 0.162657 -2.299645 10.3341341 53.0120811
470 17 14 0.050215 -0.120059 4.776834 55.6558838
471 17 14 -0.072357 0.635303 3.6761511 56.0428925
472 17 14 0.046084 -1.672171 6.668314 56.1517754
473 17 14 -0.080038 -0.309193 3.86017 58.2626572
474 17 17 -0.024277 1.118729 7.6997729 54.6109009
475 17 18 0.012265 -3.7641161 12.1859894 52.3323021
476 17 19 -0.043828 -2.649669 11.9936018 51.5678444
477 17 14 -0.126286 0.539958 3.2189169 57.3568459
478 17 14 -0.056663 -1.056861 4.9673382 57.8720132
479 17 17 -0.041802 -4.830102 13.2155714 52.1780586
480 17 10 0.007862 0.92685 8.7771006 54.602047
481 17 10 0.070707 1.474774 7.416338 55.6124649
482 17 11 0.114615 -1.6989891 5.4845181 58.5823708
483 17 12 0.088316 -0.893231 8.8461572 52.9073448
484 17 11 0.11525 1.107598 2.3456271 57.670887
485 17 11 0.158528 1.277244 3.1791811 55.3156471
486 17 11 0.14652 -2.3794949 12.6027298 50.7085037
487 17 11 0.10166 -0.371807 3.497237 59.2888909
488 17 10 0.076716 -4.5880432 13.856391 51.3211289
489 17 10 -0.024856 -4.9162312 13.8466778 53.0749207
490 17 10 0.05739 1.869535 7.4621029 53.8545152
491 17 10 0.071394 -5.8078599 12.7495613 51.9910088
492 17 13 0.230911 -3.0451441 7.910543 56.4733925
493 18 20 0.142533 2.2343021 8.9859858 50.4169617
494 18 20 0.11758 2.8505262 9.6767569 49.3575859
495 18 20 -0.115037 4.1060691 9.3048134 48.8895264
496 18 20 -0.155184 4.7806311 8.238286 49.4766464
497 18 20 -0.134433 4.187973 7.5256982 50.5190392
498 18 20 -0.165746 2.9275962 7.89534 50.9689218
499 18 21 0.384574 0.906701 9.3087788 51.0166245
500 18 22 0.50216 1.098183 10.5857439 48.034008
501 18 23 -0.144281 0.570416 11.8860912 47.5258408
502 18 24 -0.363793 0.425131 10.5086584 50.7726631
503 18 25 -0.473558 0.326174 8.4719401 51.7314682
504 18 26 -0.347748 2.2686761 10.7810126 48.7353058
505 18 27 -0.426879 0.61256 9.4848538 47.864727
506 18 28 0.161444 4.553308 9.8533058 48.0620842
507 18 28 0.141852 5.7716508 7.979322 49.1103554
508 18 28 0.146101 4.712338 6.6971159 50.9945146
509 18 28 0.151121 2.443265 7.34127 51.7716866
510 18 29 0.061145 1.301564 12.3512507 46.849823
511 18 29 0.056927 -0.363968 11.7101889 46.9864388
512 18 29 0.086062 0.413078 12.5794611 48.3645973
513 18 30 0.375161 -0.52195 10.6452036 51.2599983
514 19 1 0.283063 -1.970507 14.9630756 48.7994538
515 19 2 -0.035452 1.748766 20.5860462 49.1779938
516 19 6 -0.26712 0.681863 16.6141472 45.8876496
517 19 7 -0.278352 0.950959 18.5949955 47.4191589
518 19 3 0.066869 -0.380696 18.8108502 49.2685852
519 19 4 0.020329 -1.88971 16.5957546 48.5111466
520 19 8 -0.274505 -0.761367 14.5667248 49.4866295
521 19 9 -0.310562 -3.2567241 14.6596728 49.3841858
522 19 14 0.034559 -0.755168 16.9820976 47.7424774
523 19 15 0.071346 -0.016896 18.1685886 48.1229973
524 19 14 0.023282 -1.072059 15.035903 46.2291145
525 19 5 -0.37444 -0.204414 20.5396042 50.8393212
526 19 16 0.162657 0.264749 19.9131336 49.7777062
527 19 14 0.050215 -1.914837 14.355834 47.1339073
528 19 14 -0.072357 -2.6701989 13.2551508 46.7468949
529 19 14 0.046084 -0.362725 16.2473145 46.638012
530 19 14 -0.080038 -1.725703 13.4391699 44.5271302
531 19 17 -0.024277 -3.153625 17.2787724 48.1788864
532 19 18 0.012265 1.7292201 21.764988 50.457489
533 19 19 -0.043828 0.614773 21.5726013 51.2219467
534 19 14 -0.126286 -2.5748539 12.7979174 45.4329491
535 19 14 -0.056663 -0.978035 14.5463381 44.9177742
536 19 17 -0.041802 2.7952061 22.7945729 50.6117287
537 19 10 0.007862 -2.961746 18.3561001 48.1877441
538 19 10 0.070707 -3.50967 16.9953384 47.1773262
539 19 11 0.114615 -0.335907 15.0635176 44.2074165
540 19 12 0.088316 -1.141664 18.4251557 49.8824426
541 19 11 0.11525 -3.142494 11.9246274 45.1189003