LAMMPS data file via write_data, version 15 May 2015, timestep = 23005000

2611 atoms
6 atom types
1749 bonds
4 bond types
894 angles
3 angle types
44 dihedrals
3 dihedral types
10 impropers
1 improper types

-1.4933992381415814e+01 1.4933992381415814e+01 xlo xhi
-1.4933992381415814e+01 1.4933992381415814e+01 ylo yhi
-1.4933992381415814e+01 1.4933992381415814e+01 zlo zhi

Masses

1 15.9994
2 1.00794
3 12.0107
4 1.00794
5 12.0107
6 12.0107

Bond Coeffs # harmonic

1 1000 1
2 469 1.4
3 367 1.08
4 469 0.7

Angle Coeffs # harmonic

1 100 109.47
2 35 120
3 63 120

Dihedral Coeffs # opls

1 0 7.25 0 0
2 0 7.25 0 0
3 0 7.25 0 0

Improper Coeffs # cvff

1 2.5 -1 2

Atoms # full

2312 771 2 4.0999999999999998e-01 -7.5472649666633718e+00 -1.3416463204037441e+01 -9.9484543968336716e+00 1 -7 -2
366 122 2 4.0999999999999998e-01 -8.4538008554219441e+00 -1.3443741924544032e+01 -1.3334516380922732e+01 2 4 -1
2311 771 1 -8.1999999999999995e-01 -8.4758683254199383e+00 -1.3584336962615701e+01 -9.6175059305636488e+00 1 -7 -2
364 122 1 -8.1999999999999995e-01 -7.7002524144540470e+00 -1.3236374352563848e+01 -1.3958356123477248e+01 2 4 -1
1238 413 2 4.0999999999999998e-01 -8.8000408435917095e+00 -7.9364384511459152e+00 -1.0386317122132290e+01 5 -6 -8
1237 413 1 -8.1999999999999995e-01 -8.9457477985469662e+00 -7.5495675178323944e+00 -9.4757608474479831e+00 5 -6 -8
1478 493 2 4.0999999999999998e-01 -9.5732787146619600e+00 -8.0139329758412607e+00 -7.9071638963754758e+00 7 -4 1
1294 432 1 -8.1999999999999995e-01 -8.9708253151798303e+00 -9.8438751333539969e+00 -1.4647508202052983e+01 8 0 1
1302 434 2 4.0999999999999998e-01 -1.3486521554734555e+01 -1.2655523040437725e+01 -1.0925567434291040e+01 7 4 -3
291 97 2 4.0999999999999998e-01 -1.0873564197801048e+01 -7.9325013990996851e+00 -9.9051636095323410e+00 4 2 0
289 97 1 -8.1999999999999995e-01 -1.1664585120465652e+01 -8.4081454862018798e+00 -1.0289950753881495e+01 4 2 0
792 264 2 4.0999999999999998e-01 -1.1280843738763185e+01 -1.3015730206052826e+01 -1.2091690127080632e+01 7 3 1
790 264 1 -8.1999999999999995e-01 -1.0468788124936353e+01 -1.2953039152319704e+01 -1.2671904009221922e+01 7 3 1
2045 682 2 4.0999999999999998e-01 -7.5978420283729893e+00 -1.0492854858197308e+01 -1.0089000139075896e+01 4 -3 -2
294 98 2 4.0999999999999998e-01 -1.4791882255838084e+01 -6.7339981026197950e+00 -8.9768463412190513e+00 2 1 -5
420 140 2 4.0999999999999998e-01 -8.4989927667063476e+00 -1.0213191882829001e+01 -1.1895925863468259e+01 10 1 -6
290 97 2 4.0999999999999998e-01 -1.1495831504063879e+01 -9.3937962489431523e+00 -1.0284716981222331e+01 4 2 0
148 50 1 -8.1999999999999995e-01 -8.2960240286552676e+00 -8.4605440532629999e+00 -1.2149644740137347e+01 0 -1 -4
419 140 2 4.0999999999999998e-01 -9.1123080065535937e+00 -1.1724275920484020e+01 -1.1980362214514209e+01 10 1 -6
418 140 1 -8.1999999999999995e-01 -8.7093780486991754e+00 -1.1039373038930856e+01 -1.1373264113659545e+01 10 1 -6
1296 432 2 4.0999999999999998e-01 -8.6910987898665617e+00 -1.0802315233183759e+01 -1.4591311483203167e+01 8 0 1
1377 459 2 4.0999999999999998e-01 -1.0170369120664148e+01 -1.1176408682820863e+01 -1.0203576108530713e+01 0 -7 -7
2313 771 2 4.0999999999999998e-01 -8.6248975015723524e+00 -1.3074809176699189e+01 -8.7700483268514624e+00 1 -7 -2
149 50 2 4.0999999999999998e-01 -8.7851594674094287e+00 -8.5686521318941935e+00 -1.3015134111166358e+01 0 -1 -4
469 157 1 -8.1999999999999995e-01 -1.2058187824222852e+01 -6.8618552068071654e+00 -1.4606802713067879e+01 0 -3 -6
723 241 2 4.0999999999999998e-01 -1.3661338038852971e+01 -7.9559899966847265e+00 -1.0480348056828934e+01 1 2 -2
721 241 1 -8.1999999999999995e-01 -1.4497466839943064e+01 -7.4074907454466530e+00 -1.0473285854690147e+01 1 2 -2
1375 459 1 -8.1999999999999995e-01 -1.1133958278249484e+01 -1.1048656380418427e+01 -9.9686551171382014e+00 0 -7 -7
1239 413 2 4.0999999999999998e-01 -8.6755415546889907e+00 -6.5867585616824513e+00 -9.4755350999930599e+00 5 -6 -8
1172 391 2 4.0999999999999998e-01 -1.3198546346902937e+01 -1.4012216777179772e+01 -9.1482928962513093e+00 4 3 -1
1376 459 2 4.0999999999999998e-01 -1.1707218819654294e+01 -1.1426090876752422e+01 -1.0695929612483656e+01 0 -7 -7
293 98 2 4.0999999999999998e-01 -1.4039762215801460e+01 -5.9243160905902474e+00 -7.7746024703861201e+00 2 1 -5
512 171 2 4.0999999999999998e-01 -1.2188777094654654e+01 -1.1369168877186363e+01 -8.3061766679636122e+00 6 -1 -6
1300 434 1 -8.1999999999999995e-01 -1.3074570175770122e+01 -1.2056959969110302e+01 -1.1612612504145680e+01 7 4 -3
470 157 2 4.0999999999999998e-01 -1.1414981200200479e+01 -6.5301140569359823e+00 -1.3916697174660932e+01 0 -3 -6
1554 518 2 4.0999999999999998e-01 -1.1407726434466328e+01 -5.5545639169637298e+00 -1.1823762241294645e+01 -1 4 -6
150 50 2 4.0999999999999998e-01 -7.8599346954135809e+00 -7.5610180801816931e+00 -1.2123342040779097e+01 0 -1 -4
791 264 2 4.0999999999999998e-01 -1.0589148722942348e+01 -1.2214241656863049e+01 -1.3335005972042811e+01 7 3 1
1301 434 2 4.0999999999999998e-01 -1.3575167509747025e+01 -1.2144170782233124e+01 -1.2473895792590374e+01 7 4 -3
2113 705 1 -8.1999999999999995e-01 -1.4798909243380191e+01 -1.2498106184899019e+01 -1.3662844143884570e+01 5 0 -6
1553 518 2 4.0999999999999998e-01 -1.2950998101331031e+01 -5.8768178802073585e+00 -1.1398174259794468e+01 -1 4 -6
2591 864 2 4.0999999999999998e-01 -7.5085780025294140e+00 -5.6185999463290557e+00 -1.1041437944577991e+01 -1 2 6
365 122 2 4.0999999999999998e-01 -7.6364077688399767e+00 -1.3952375002224207e+01 -1.4653539232055131e+01 2 4 -1
1639 547 1 -8.1999999999999995e-01 -1.1463553900781712e+01 -1.4428566199257922e+01 -9.0642176733262634e+00 4 5 0
1855 619 1 -8.1999999999999995e-01 -1.1675093161851558e+01 -5.3437443082312033e+00 -8.5928377905579989e+00 2 -7 -1
1640 547 2 4.0999999999999998e-01 -1.0781792452392995e+01 -1.3731979651122051e+01 -9.2877820928426580e+00 4 5 0
1173 391 2 4.0999999999999998e-01 -1.4713620650658225e+01 -1.3672299403647560e+01 -8.6426584052610469e+00 4 3 -1
292 98 1 -8.1999999999999995e-01 -1.4919987425642772e+01 -6.2689270803025590e+00 -8.1008836751418691e+00 2 1 -5
1171 391 1 -8.1999999999999995e-01 -1.4105858735219918e+01 -1.3705666665620601e+01 -9.4360843423019638e+00 4 3 -1
1552 518 1 -8.1999999999999995e-01 -1.2227489509856962e+01 -5.1866214234572805e+00 -1.1384877881067919e+01 -1 4 -6
2114 705 2 4.0999999999999998e-01 -1.4597693644018527e+01 -1.2215516807329657e+01 -1.4600750437503072e+01 5 0 -6
1856 619 2 4.0999999999999998e-01 -1.1761455694035204e+01 -5.8591444944552631e+00 -9.4454319861781801e+00 2 -7 -1
849 283 2 4.0999999999999998e-01 -8.7263348766446747e+00 -1.4913573361791469e+01 -1.1108703869952723e+01 5 2 -8
636 212 2 4.0999999999999998e-01 -8.7732495418216914e+00 -5.2204730429858248e+00 -1.3065674991169210e+01 2 -2 -7
513 171 2 4.0999999999999998e-01 -1.3418256853744602e+01 -1.2127984184492387e+01 -7.5450994448448165e+00 6 -1 -6
1767 589 2 4.0999999999999998e-01 -2.5569155882701011e+00 -1.4265726177251802e+01 -7.9575649635410359e+00 4 -1 -5
236 79 2 4.0999999999999998e-01 -1.0842811990356616e-01 -8.3618322139249237e+00 -1.1730030685389337e+01 -2 2 -1
859 287 1 -8.1999999999999995e-01 -1.3260868147333404e-01 -1.2435137580488451e+01 -1.2428498576953775e+01 6 -4 -7
1022 341 2 4.0999999999999998e-01 -3.7408409482816296e-01 -1.0514580176865298e+01 -1.3669819386335757e+01 7 -1 -6
2516 839 2 4.0999999999999998e-01 -3.8692955786739098e+00 -6.5729171401680091e+00 -1.4620436711412049e+01 5 -2 -3
1028 343 2 4.0999999999999998e-01 -6.3283185788481795e+00 -5.7207756718077558e+00 -1.4437176087335779e+01 6 -1 -4
959 320 2 4.0999999999999998e-01 -1.0125170982109566e-01 -7.6829755862949476e+00 -9.9499586846787835e+00 3 -2 -5
2515 839 1 -8.1999999999999995e-01 -4.5842378017691168e+00 -5.8762197403463574e+00 -1.4679452675130374e+01 5 -2 -3
1325 442 2 4.0999999999999998e-01 -2.0042045813060785e+00 -9.9910211890753136e+00 -7.5205114077791775e+00 1 -2 -4
2517 839 2 4.0999999999999998e-01 -4.2836371625657623e+00 -5.0490954021540304e+00 -1.4204566111615158e+01 5 -2 -3
958 320 1 -8.1999999999999995e-01 -4.7810881533290051e-01 -7.5133498533454386e+00 -9.0393443180977968e+00 3 -2 -5
2046 682 2 4.0999999999999998e-01 -7.2929738253043999e+00 -1.0219085062333644e+01 -8.5082517712720964e+00 4 -3 -2
860 287 2 4.0999999999999998e-01 -7.6706545685067695e-01 -1.3113472838234131e+01 -1.2057906575154082e+01 6 -4 -7
1932 644 2 4.0999999999999998e-01 -6.3424469520477569e+00 -1.2131520842806893e+01 -1.3289997621550595e+01 5 -3 -8
1363 455 1 -8.1999999999999995e-01 -4.6863595033868428e+00 -6.2779222255452254e+00 -1.0055097200171133e+01 4 1 0
2061 687 2 4.0999999999999998e-01 -5.6649415182022160e+00 -1.4239707045772700e+01 -1.1124474233178296e+01 11 -1 -7
2044 682 1 -8.1999999999999995e-01 -6.8906223694842037e+00 -1.0492387665599344e+01 -9.3819974697591100e+00 4 -3 -2
2144 715 2 4.0999999999999998e-01 -1.1933546435489237e+00 -1.0679712908622294e+01 -1.2055745722912196e+01 5 0 -2
1930 644 1 -8.1999999999999995e-01 -5.6296150877110449e+00 -1.1541752261114443e+01 -1.2910449939787812e+01 5 -3 -8
1027 343 1 -8.1999999999999995e-01 -7.3064283698616004e+00 -5.7106293662502647e+00 -1.4229303912791043e+01 6 -1 -4
2542 848 1 -8.1999999999999995e-01 -2.4696290982651394e+00 -7.7416175527814985e+00 -1.4755787143196008e+01 0 -3 -6
2534 845 2 4.0999999999999998e-01 -5.3173811908901314e+00 -9.2597356368131116e+00 -9.0955476155216459e+00 0 -3 2
2590 864 1 -8.1999999999999995e-01 -6.9680471437889260e+00 -6.1848460685049655e+00 -1.1663695479509958e+01 -1 2 6
960 320 2 4.0999999999999998e-01 -3.2602836078932640e-01 -6.5573497051221548e+00 -8.7884500975612170e+00 3 -2 -5
2521 841 1 -8.1999999999999995e-01 -3.7333739531179777e+00 -1.3277985777658309e+01 -1.3241025264413031e+01 4 1 3
2592 864 2 4.0999999999999998e-01 -7.0929936929571600e+00 -5.8618450756221581e+00 -1.2601816703871911e+01 -1 2 6
1365 455 2 4.0999999999999998e-01 -5.5353337470892878e+00 -6.2883926432909760e+00 -1.0583439670151524e+01 4 1 0
2282 761 2 4.0999999999999998e-01 -2.6167694791396965e+00 -1.2348450826320564e+01 -9.1458892112975487e+00 3 2 6
1765 589 1 -8.1999999999999995e-01 -2.8304700778978766e+00 -1.4478866968927742e+01 -8.8955155260793966e+00 4 -1 -5
2143 715 1 -8.1999999999999995e-01 -1.9350581071776407e+00 -1.0394519138980559e+01 -1.1448659940643013e+01 5 0 -2
26 9 2 4.0999999999999998e-01 -3.4061499852431414e+00 -5.1698620450356039e+00 -9.5024477578032176e+00 4 1 -2
1023 341 2 4.0999999999999998e-01 -1.6210550813927860e-01 -9.2914272311173214e+00 -1.4730772855907045e+01 7 -1 -6
2281 761 1 -8.1999999999999995e-01 -2.4666848334358669e+00 -1.1366275510480417e+01 -9.0326691079780481e+00 3 2 6
557 186 2 4.0999999999999998e-01 -2.5298697611727956e+00 -1.4010807637589812e+01 -1.2275397120540944e+01 6 -1 -3
1967 656 2 4.0999999999999998e-01 -1.8150442792918700e+00 -6.6403141853473731e+00 -1.1999220624006929e+01 -5 -1 -6
182 61 2 4.0999999999999998e-01 -4.8423867887064027e+00 -1.0389783371530715e+01 -1.4470117200975851e+01 3 1 -1
1968 656 2 4.0999999999999998e-01 -3.2255065882421761e+00 -7.4565482816587894e+00 -1.1894253510276799e+01 -5 -1 -6
2522 841 2 4.0999999999999998e-01 -4.3222701474097800e+00 -1.2485742551574694e+01 -1.3081135826560008e+01 4 1 3
2060 687 2 4.0999999999999998e-01 -4.9046515814608309e+00 -1.4302175664264933e+01 -1.2568329107350941e+01 11 -1 -7
2544 848 2 4.0999999999999998e-01 -2.2930402050760144e+00 -7.9634675735363274e+00 -1.3796823321732070e+01 0 -3 -6
2535 845 2 4.0999999999999998e-01 -3.7514686855614201e+00 -9.2651241981544086e+00 -8.6323530144064424e+00 0 -3 2
556 186 1 -8.1999999999999995e-01 -1.9693024343523557e+00 -1.4511909248957883e+01 -1.1616098896575400e+01 6 -1 -3
1931 644 2 4.0999999999999998e-01 -6.0343703921405893e+00 -1.0917241524109574e+01 -1.2242488770485163e+01 5 -3 -8
1364 455 2 4.0999999999999998e-01 -4.4869541367950685e+00 -7.2010544515006885e+00 -9.7263464734607865e+00 4 1 0
2145 715 2 4.0999999999999998e-01 -2.1263515690096781e+00 -9.4231582583785389e+00 -1.1589647663012794e+01 5 0 -2
2533 845 1 -8.1999999999999995e-01 -4.5321009346965990e+00 -8.6850730990528664e+00 -8.8650903005555719e+00 0 -3 2
1966 656 1 -8.1999999999999995e-01 -2.2406122017015768e+00 -7.5441561745383385e+00 -1.2043653874678682e+01 -5 -1 -6
2523 841 2 4.0999999999999998e-01 -3.2279424109157517e+00 -1.3150769741282474e+01 -1.4094469895320715e+01 4 1 3
2059 687 1 -8.1999999999999995e-01 -5.4741783393809254e+00 -1.4810989239295768e+01 -1.1922759044670093e+01 11 -1 -7
299 100 2 4.0999999999999998e-01 -6.1515577152500232e+00 -1.2095056325381341e+01 -9.7200048209122762e+00 6 2 -2
298 100 1 -8.1999999999999995e-01 -5.8932201813705412e+00 -1.3056749955408561e+01 -9.8117641270192273e+00 6 2 -2
300 100 2 4.0999999999999998e-01 -5.5000636107231600e+00 -1.3379867314752969e+01 -8.9509297818302400e+00 6 2 -2
2283 761 2 4.0999999999999998e-01 -2.2735976448081150e+00 -1.0953788394545466e+01 -9.9229410702193306e+00 3 2 6
558 186 2 4.0999999999999998e-01 -2.3559151100746369e+00 -1.4404437042756468e+01 -1.0700133385875645e+01 6 -1 -3
1021 341 1 -8.1999999999999995e-01 -2.1996602773056750e-01 -9.5307897207706525e+00 -1.3761561597951344e+01 7 -1 -6
1326 442 2 4.0999999999999998e-01 -1.3199213481998910e+00 -8.5378109522029497e+00 -7.8147846217348214e+00 1 -2 -4
191 64 2 4.0999999999999998e-01 -1.1936959114002422e+01 -1.2258253657145474e+01 -2.5144653790239424e-01 4 0 -9
247 83 1 -8.1999999999999995e-01 -1.0394742345842548e+01 -1.0191046400449478e+01 -3.0930505365182928e+00 6 0 -2
248 83 2 4.0999999999999998e-01 -9.7662725367563965e+00 -9.5278185515563596e+00 -3.4994581254936126e+00 6 0 -2
249 83 2 4.0999999999999998e-01 -1.0468498783250116e+01 -1.0989706015066737e+01 -3.6903070960161006e+00 6 0 -2
937 313 1 -8.1999999999999995e-01 -1.2260553430571644e+01 -1.0336588065167245e+01 -9.2110568326889641e-01 4 -4 -6
1509 503 2 4.0999999999999998e-01 -1.1562524779454112e+01 -1.3203734152842692e+01 -4.7730746653448790e+00 9 1 -2
1650 550 2 4.0999999999999998e-01 -1.1422996255886870e+01 -5.5932459344558776e+00 -5.6011641271856423e+00 5 1 0
938 313 2 4.0999999999999998e-01 -1.3208743671016641e+01 -1.0117774966910764e+01 -1.1514718412642786e+00 4 -4 -6
440 147 2 4.0999999999999998e-01 -1.0485263521063205e+01 -1.2922584179261214e+01 -3.1690837282254058e+00 6 2 -10
190 64 1 -8.1999999999999995e-01 -1.2047764516319678e+01 -1.3251025068144092e+01 -2.9770365454607628e-01 4 0 -9
439 147 1 -8.1999999999999995e-01 -1.0066541112063762e+01 -1.3508142858859888e+01 -2.4749618299633926e+00 6 2 -10
2237 746 2 4.0999999999999998e-01 -1.3003318279784629e+01 -9.3263210140896451e+00 -4.7472267607060488e+00 -2 -7 -1
441 147 2 4.0999999999999998e-01 -1.0560758149563153e+01 -1.3407222286024620e+01 -1.6114937247500301e+00 6 2 -10
1188 396 2 4.0999999999999998e-01 -8.0621765325520691e+00 -1.1318291238164008e+01 -3.2815138056958411e+00 9 6 2
939 313 2 4.0999999999999998e-01 -1.1728591189807371e+01 -1.0439580648804663e+01 -1.7615944006427604e+00 4 -4 -6
2252 751 2 4.0999999999999998e-01 -1.3090450064963195e+01 -1.4176570037131569e+01 -1.4782109299810937e+00 5 1 -5
1508 503 2 4.0999999999999998e-01 -1.1689890791457261e+01 -1.1591158460296963e+01 -4.9967661763775020e+00 9 1 -2
2236 746 1 -8.1999999999999995e-01 -1.3883819374250191e+01 -8.9832867666191234e+00 -4.4200296659001683e+00 -2 -7 -1
625 209 1 -8.1999999999999995e-01 -1.4666347438982589e+01 -5.2618319379511505e+00 -4.5464273026009749e+00 5 -2 -4
1674 558 2 4.0999999999999998e-01 -7.5752394149474442e+00 -6.0384497514457216e+00 -5.9549151707188059e+00 5 -3 6
1829 610 2 4.0999999999999998e-01 -1.2938644718658264e+01 -7.4624735655094350e+00 -3.9027144758857855e+00 1 1 0
2251 751 1 -8.1999999999999995e-01 -1.3688700155562001e+01 -1.4708534302863413e+01 -2.0774800773473654e+00 5 1 -5
511 171 1 -8.1999999999999995e-01 -1.2556190688797098e+01 -1.1637948273446106e+01 -7.4157962725642657e+00 6 -1 -6
2342 781 2 4.0999999999999998e-01 -1.4883982210744543e+01 -1.0628908394480506e+01 -7.5626986303193533e-02 8 -3 -8
626 209 2 4.0999999999999998e-01 -1.3697236034607478e+01 -5.5083375062936781e+00 -4.5380280657882803e+00 5 -2 -4
1672 558 1 -8.1999999999999995e-01 -8.0603504213932204e+00 -5.2281333546724884e+00 -6.2836511084506359e+00 5 -3 6
1232 411 2 4.0999999999999998e-01 -8.0729945808990848e+00 -1.4018641111426685e+01 -6.2469300184051288e+00 10 3 -4
1673 558 2 4.0999999999999998e-01 -9.0454604603811966e+00 -5.3991180177435982e+00 -6.2653428978204655e+00 5 -3 6
1830 610 2 4.0999999999999998e-01 -1.2569855834243818e+01 -6.4412146842819897e+00 -2.6830074686170668e+00 1 1 0
1507 503 1 -8.1999999999999995e-01 -1.1112506398996590e+01 -1.2321850093790575e+01 -4.6324453196263775e+00 9 1 -2
1010 337 2 4.0999999999999998e-01 -8.9678276983978957e+00 -7.1526222211526882e+00 -2.4816477816771094e+00 -5 -4 -2
803 268 2 4.0999999999999998e-01 -1.0808986234243870e+01 -9.2818364338374408e+00 -1.4584739712628192e-02 5 0 -1
1828 610 1 -8.1999999999999995e-01 -1.2429383673874227e+01 -6.6388248179126013e+00 -3.6531777143501429e+00 1 1 0
765 255 2 4.0999999999999998e-01 -9.9386734022512897e+00 -1.2467918458410171e+01 -6.1408873596066886e+00 1 -1 -5
1009 337 1 -8.1999999999999995e-01 -8.4075555218609281e+00 -7.2018545572478265e+00 -1.6547959454059278e+00 -5 -4 -2
1011 337 2 4.0999999999999998e-01 -8.8606753057148033e+00 -7.7835564416695062e+00 -9.7928273644299324e-01 -5 -4 -2
325 109 1 -8.1999999999999995e-01 -8.4639684158859243e+00 -1.1254646675029026e+01 -2.9224916974399484e-01 -3 -5 1
1281 427 2 4.0999999999999998e-01 -1.3776300719864686e+01 -6.0013599420693229e+00 -3.4997446834998591e-01 4 1 1
764 255 2 4.0999999999999998e-01 -8.5703036816924154e+00 -1.1786001135240513e+01 -6.7146584354204997e+00 1 -1 -5
2538 846 2 4.0999999999999998e-01 -8.4648720448759249e+00 -1.4592634855851783e+01 -2.7276977143926135e+00 5 3 -7
2238 746 2 4.0999999999999998e-01 -1.4517754980543883e+01 -8.9049102354277956e+00 -5.1894419986712581e+00 -2 -7 -1
763 255 1 -8.1999999999999995e-01 -9.1299798558045886e+00 -1.2614709842370534e+01 -6.7105183828395543e+00 1 -1 -5
1852 618 1 -8.1999999999999995e-01 -8.1769007318397904e+00 -8.1304967133765054e+00 -4.8408752379869799e+00 -1 -3 -3
1854 618 2 4.0999999999999998e-01 -8.7255005737578610e+00 -8.3077863258056492e+00 -5.6579549514343039e+00 -1 -3 -3
1138 380 1 -8.1999999999999995e-01 -1.1494043700484166e+01 -9.7797373172349094e+00 -5.9259325701890937e+00 0 5 -3
1648 550 1 -8.1999999999999995e-01 -1.0642738119951641e+01 -5.6039330548596737e+00 -6.2265404883150985e+00 5 1 0
2253 751 2 4.0999999999999998e-01 -1.4226524344271985e+01 -1.4087717162337317e+01 -2.6478691709891624e+00 5 1 -5
1649 550 2 4.0999999999999998e-01 -1.0963653482571747e+01 -5.4584085665702045e+00 -7.1624082427176905e+00 5 1 0
1140 380 2 4.0999999999999998e-01 -1.0659685933734011e+01 -9.4393520209313149e+00 -6.3595195283514165e+00 0 5 -3
1 1 1 -8.1999999999999995e-01 -1.2732850385939987e+01 -1.4589900403157099e+01 -4.8605550798451365e+00 -1 -2 -5
1139 380 2 4.0999999999999998e-01 -1.1952410938909779e+01 -1.0420267597464555e+01 -6.5420763099298203e+00 0 5 -3
1479 493 2 4.0999999999999998e-01 -1.0060107343622633e+01 -7.2588548260381751e+00 -6.5435234573220065e+00 7 -4 1
2537 846 2 4.0999999999999998e-01 -7.7137952899609452e+00 -1.4930224800402412e+01 -4.1378668448260818e+00 5 3 -7
326 109 2 4.0999999999999998e-01 -7.6231707187391899e+00 -1.1076033582945085e+01 -8.0329594624366862e-01 -3 -5 1
1231 411 1 -8.1999999999999995e-01 -7.6875177635867216e+00 -1.4851808389716016e+01 -5.8503791930658817e+00 10 3 -4
1795 599 1 -8.1999999999999995e-01 -1.4717125246900984e+01 -9.8957292446851497e+00 -1.7555702291290842e+00 3 2 -7
1137 379 2 4.0999999999999998e-01 -1.4381309836317079e+01 -1.3518022670777318e+01 -5.9241111643337430e+00 4 -2 -7
2064 688 2 4.0999999999999998e-01 -8.0124102960978583e+00 -5.4334799841675796e+00 -1.1025023567695094e+00 8 3 -6
804 268 2 4.0999999999999998e-01 -9.2080006342469325e+00 -9.6032478958079004e+00 -2.8729202237322227e-02 5 0 -1
1279 427 1 -8.1999999999999995e-01 -1.2840405995021891e+01 -6.1373299998743711e+00 -6.7497563168816477e-01 4 1 1
1477 493 1 -8.1999999999999995e-01 -9.7741299304509788e+00 -8.1335440326323187e+00 -6.9348652402538500e+00 7 -4 1
1797 599 2 4.0999999999999998e-01 -1.4535700691220933e+01 -9.7210870777087202e+00 -2.7233501037117716e+00 3 2 -7
1280 427 2 4.0999999999999998e-01 -1.2480481698389227e+01 -6.9941081683739545e+00 -3.0565421758001143e-01 4 1 1
3 1 2 4.0999999999999998e-01 -1.2903740599598279e+01 -1.4915985047518548e+01 -3.9307821126116398e+00 -1 -2 -5
1135 379 1 -8.1999999999999995e-01 -1.4910882370543979e+01 -1.3479832948102219e+01 -6.7715230378829503e+00 4 -2 -7
29 10 2 4.0999999999999998e-01 -1.5592147225576962e+00 -1.4382311640694171e+01 -6.1815103495006181e+00 1 -1 0
1186 396 1 -8.1999999999999995e-01 -7.2400734881979263e+00 -1.1046806579122045e+01 -3.7819688818871615e+00 9 6 2
1213 405 1 -8.1999999999999995e-01 -7.2854062029658824e+00 -1.0751010308431905e+01 -6.5415266706017317e+00 6 0 4
1265 422 2 4.0999999999999998e-01 -1.5980381357535176e+00 -1.2051751623350594e+01 -1.9347425481864633e-01 2 2 -2
711 237 2 4.0999999999999998e-01 -4.8084347558872818e+00 -1.2927064061955189e+01 -6.8068255273063993e+00 6 0 -3
1187 396 2 4.0999999999999998e-01 -6.5362091282225716e+00 -1.0755882449503289e+01 -3.1339327652717888e+00 9 6 2
28 10 1 -8.1999999999999995e-01 -2.4786560869231060e+00 -1.3996610127104244e+01 -6.2581507675273222e+00 1 -1 0
2320 774 1 -8.1999999999999995e-01 -4.7866549601461656e+00 -6.8043579272380619e+00 -6.7585669296284383e+00 1 1 -4
2339 780 2 4.0999999999999998e-01 -4.0659157109738313e+00 -5.5839389474390018e+00 -4.4838274787479904e-01 0 -1 -2
1214 405 2 4.0999999999999998e-01 -7.1784661343194349e+00 -1.0630165106206334e+01 -5.5546260357684467e+00 6 0 4
565 189 1 -8.1999999999999995e-01 -1.0078858729927198e-01 -1.3343267028163218e+01 -4.9137474264614944e-01 5 0 -6
1436 479 2 4.0999999999999998e-01 -9.5582266283480699e-01 -1.1246962079819202e+01 -4.3641091763538515e+00 -2 3 -3
2429 810 2 4.0999999999999998e-01 -5.2001940951944405e+00 -7.7319798093576546e+00 -1.2471382674429226e+00 3 1 -3
1437 479 2 4.0999999999999998e-01 -2.5115307001444886e+00 -1.1676012623469150e+01 -4.1144127288852754e+00 -2 3 -3
1324 442 1 -8.1999999999999995e-01 -1.9775174245812650e+00 -9.0302062284233546e+00 -7.2445855512273694e+00 1 -2 -4
834 278 2 4.0999999999999998e-01 -4.3222795236055731e+00 -1.3749066149855642e+01 -7.4953959588759211e-01 2 -2 -3
2350 784 1 -8.1999999999999995e-01 -5.8817302292726925e+00 -1.0940217817609478e+01 -1.1981430893284859e+00 3 3 -2
2351 784 2 4.0999999999999998e-01 -5.6688805701831679e+00 -9.9893853777345800e+00 -1.4231428434328794e+00 3 3 -2
2352 784 2 4.0999999999999998e-01 -5.0327853304775161e+00 -1.1440498473556069e+01 -1.0277781517419307e+00 3 3 -2
2322 774 2 4.0999999999999998e-01 -3.9822109891237556e+00 -6.4058666309472816e+00 -7.1991196583125960e+00 1 1 -4
1853 618 2 4.0999999999999998e-01 -7.2917169831133632e+00 -8.5875018719551033e+00 -4.9281028816449233e+00 -1 -3 -3
1729 577 1 -8.1999999999999995e-01 -5.0467638611981958e+00 -1.4673956693870611e+01 -6.7642793928713054e+00 6 -6 1
1097 366 2 4.0999999999999998e-01 -4.4591652932365911e-01 -1.3900126936431034e+01 -3.4709826928028438e+00 -1 3 -4
968 323 2 4.0999999999999998e-01 -1.4082798073552265e+00 -9.6530736091962943e+00 -2.6825510578832503e+00 7 -3 3
1264 422 1 -8.1999999999999995e-01 -2.5644117395566930e+00 -1.1890907489901396e+01 -3.9413196761634595e-01 2 2 -2
832 278 1 -8.1999999999999995e-01 -4.8773265998850288e+00 -1.3546888977446738e+01 -1.5564223825765211e+00 2 -2 -3
709 237 1 -8.1999999999999995e-01 -4.7149622856624980e+00 -1.1978711781674011e+01 -7.1099814052178747e+00 6 0 -3
1233 411 2 4.0999999999999998e-01 -6.7199299812867181e+00 -1.4919950161182619e+01 -6.0935730147020806e+00 10 3 -4
377 126 2 4.0999999999999998e-01 -5.3382863871182842e+00 -1.1891568284267201e+01 -4.3847867205758888e+00 -3 4 -7
579 193 2 4.0999999999999998e-01 -2.5498862587709183e+00 -1.0768642849214192e+01 -1.9355075865850164e+00 4 -4 -4
1908 636 2 4.0999999999999998e-01 -4.5425481981505396e+00 -5.7368406413502324e+00 -5.5161915638886168e+00 7 -4 -3
577 193 1 -8.1999999999999995e-01 -2.9627897896467825e+00 -1.0111590804116295e+01 -2.5662261736060472e+00 4 -4 -4
2428 810 1 -8.1999999999999995e-01 -5.6411093985154714e+00 -8.4154539844848983e+00 -1.8289193374585277e+00 3 1 -3
2430 810 2 4.0999999999999998e-01 -5.9300211477289260e+00 -7.9877030434861940e+00 -2.6854073074488536e+00 3 1 -3
1215 405 2 4.0999999999999998e-01 -6.4728482200820707e+00 -1.1200828086584025e+01 -6.9122369813075899e+00 6 0 4
378 126 2 4.0999999999999998e-01 -4.8243195247090984e+00 -1.2640436521390827e+01 -3.0276962591428198e+00 -3 4 -7
969 323 2 4.0999999999999998e-01 -1.6715392238593196e-01 -8.9668508171358656e+00 -3.4920971240560608e+00 7 -3 3
578 193 2 4.0999999999999998e-01 -3.8064658002334415e+00 -1.0495107305546318e+01 -2.9419103281792385e+00 4 -4 -4
794 265 2 4.0999999999999998e-01 -7.4984518220953333e-01 -8.7964094640897059e+00 -5.8725772783712102e+00 8 0 3
30 10 2 4.0999999999999998e-01 -2.5182238661009713e+00 -1.3128445972111159e+01 -5.7634407454146288e+00 1 -1 0
376 126 1 -8.1999999999999995e-01 -4.5350050373164592e+00 -1.2138440510726968e+01 -3.8427483005762451e+00 -3 4 -7
2338 780 1 -8.1999999999999995e-01 -4.7873799163378212e+00 -6.1702816963300542e+00 -8.0002219958966947e-02 0 -1 -2
2047 683 1 -8.1999999999999995e-01 -5.2933025080426592e+00 -8.4660708897821717e+00 -4.6138129511858459e+00 -3 -1 -6
2049 683 2 4.0999999999999998e-01 -4.4937452106652866e+00 -9.0574762882119586e+00 -4.5091208159037457e+00 -3 -1 -6
2048 683 2 4.0999999999999998e-01 -5.1566229850955931e+00 -7.8558202519918892e+00 -5.3941496662158706e+00 -3 -1 -6
967 323 1 -8.1999999999999995e-01 -4.4447769856453867e-01 -9.3916010144088418e+00 -2.6303016129858836e+00 7 -3 3
1435 479 1 -8.1999999999999995e-01 -1.6815332432716037e+00 -1.1880019057936577e+01 -4.6335448962105179e+00 -2 3 -3
1095 365 2 4.0999999999999998e-01 -5.9549896748496067e-01 -5.1122957425251361e+00 -5.7297297027782843e+00 12 3 0
833 278 2 4.0999999999999998e-01 -5.8462470833358520e+00 -1.3633702197893207e+01 -1.3247563100796373e+00 2 -2 -3
110 37 2 4.0999999999999998e-01 -3.0021191121292468e+00 -5.0857888797387520e+00 -3.9716103255157567e+00 3 -4 -5
875 292 2 4.0999999999999998e-01 -2.0100174087606852e+00 -5.0893631535817487e+00 -1.7584642412969718e+00 1 -5 -3
1638 546 2 4.0999999999999998e-01 -7.1707469589238810e+00 -7.5715846436175456e+00 -1.3468440912005875e-01 1 -6 -4
874 292 1 -8.1999999999999995e-01 -2.3944440989584805e+00 -5.0698522842522067e+00 -8.3550809468775888e-01 1 -5 -3
793 265 1 -8.1999999999999995e-01 -6.6642043237203907e-02 -8.4926000451923809e+00 -5.2085396199392182e+00 8 0 3
111 37 2 4.0999999999999998e-01 -1.3802314863348961e+00 -5.1810920710238388e+00 -4.1361036786950010e+00 3 -4 -5
109 37 1 -8.1999999999999995e-01 -2.1260949036467487e+00 -4.9799859111868514e+00 -3.5010787008815942e+00 3 -4 -5
567 189 2 4.0999999999999998e-01 -8.3391074851085101e-01 -1.3862149823780246e+01 -5.1709922154062227e-02 5 0 -6
710 237 2 4.0999999999999998e-01 -3.7907425568393034e+00 -1.1830892455025065e+01 -7.4620892384985389e+00 6 0 -3
2321 774 2 4.0999999999999998e-01 -5.3200236345962715e+00 -7.3120724910458774e+00 -7.4351438903769491e+00 1 1 -4
126 42 2 4.0999999999999998e-01 -7.5363721797372021e+00 -7.9026229466511033e+00 5.2646693654145960e+00 3 3 -3
192 64 2 4.0999999999999998e-01 -1.1952817328950703e+01 -1.3640061898204538e+01 6.1861946699745296e-01 4 0 -9
309 103 2 4.0999999999999998e-01 -1.0146627139039332e+01 -1.3113459547137138e+01 4.5755345291332343e+00 7 6 -3
308 103 2 4.0999999999999998e-01 -1.0918786894986958e+01 -1.1687889668375323e+01 4.7709314446764335e+00 7 6 -3
920 307 2 4.0999999999999998e-01 -8.6738632297057805e+00 -6.6359738196620519e+00 1.3643953426971986e+00 -2 -4 -5
2134 712 1 -8.1999999999999995e-01 -8.6837742890672125e+00 -6.7028926702561851e+00 4.2596748763456294e+00 8 2 -1
1485 495 2 4.0999999999999998e-01 -1.2143517754002223e+01 -1.4875758183336737e+01 2.7001923856326133e+00 6 7 -4
307 103 1 -8.1999999999999995e-01 -1.0647697994570393e+01 -1.2385436341864995e+01 4.1076425946114785e+00 7 6 -3
946 316 1 -8.1999999999999995e-01 -1.0935894748148264e+01 -1.0902190204543341e+01 6.8126936058220213e+00 5 -5 1
2135 712 2 4.0999999999999998e-01 -7.9755162177546781e+00 -6.2066934649878842e+00 3.7575101491412486e+00 8 2 -1
1047 349 2 4.0999999999999998e-01 -1.4381158590592298e+01 -6.1310880231781582e+00 5.6176452274904225e+00 5 1 -1
209 70 2 4.0999999999999998e-01 -1.2989646872953095e+01 -9.7545599233892943e+00 3.4270015567213488e+00 0 -2 -4
2136 712 2 4.0999999999999998e-01 -9.5810667059539654e+00 -6.4787641434614311e+00 3.8793523530850198e+00 8 2 -1
921 307 2 4.0999999999999998e-01 -8.4612660603770529e+00 -5.1579184760037720e+00 7.0347540450266699e-01 -2 -4 -5
1819 607 1 -8.1999999999999995e-01 -1.1314812657580974e+01 -9.5249280043575979e+00 2.6223616918225137e+00 -2 0 -5
1821 607 2 4.0999999999999998e-01 -1.0759415876561770e+01 -1.0289729276712599e+01 2.9488980124788124e+00 -2 0 -5
2171 724 2 4.0999999999999998e-01 -9.1671257139583773e+00 -1.2735364828298808e+01 2.7930966102728529e+00 4 3 -4
210 70 2 4.0999999999999998e-01 -1.3582589058200082e+01 -1.0582472914425979e+01 4.7035749723088021e+00 0 -2 -4
208 70 1 -8.1999999999999995e-01 -1.3747303701247242e+01 -9.8213343312277193e+00 4.0762395669260965e+00 0 -2 -4
690 230 2 4.0999999999999998e-01 -1.2887235371361491e+01 -1.2749803920493175e+01 5.7634815353092517e+00 5 7 -1
637 213 1 -8.1999999999999995e-01 -9.2148832854169758e+00 -7.4355954670115194e+00 7.1901242794008464e+00 5 -1 -2
688 230 1 -8.1999999999999995e-01 -1.3524552584688719e+01 -1.2030883647765599e+01 5.4860052612690833e+00 5 7 -1
749 250 2 4.0999999999999998e-01 -1.1680402022656949e+01 -7.8814929865334067e+00 3.2472105246759124e+00 3 2 -6
1820 607 2 4.0999999999999998e-01 -1.0982085640256237e+01 -9.2299010010418989e+00 1.7266695238164811e+00 -2 0 -5