LAMMPS data file via write_data, version 15 May 2015, timestep = 8008000

2611 atoms
6 atom types
1749 bonds
4 bond types
894 angles
3 angle types
44 dihedrals
3 dihedral types
10 impropers
1 improper types

-1.4953507084475572e+01 1.4953507084475572e+01 xlo xhi
-1.4953507084475572e+01 1.4953507084475572e+01 ylo yhi
-1.4953507084475572e+01 1.4953507084475572e+01 zlo zhi

Masses

1 15.9994
2 1.00794
3 12.0107
4 1.00794
5 12.0107
6 12.0107

Bond Coeffs # harmonic

1 1000 1
2 469 1.4
3 367 1.08
4 469 0.7

Angle Coeffs # harmonic

1 100 109.47
2 35 120
3 63 120

Dihedral Coeffs # opls

1 0 7.25 0 0
2 0 7.25 0 0
3 0 7.25 0 0

Improper Coeffs # cvff

1 2.5 -1 2

Atoms # full

317 106 2 4.0999999999999998e-01 -1.1645397978906940e+01 -1.1429286994308875e+01 -1.4316947836080809e+01 8 0 -2
1268 423 2 4.0999999999999998e-01 -1.4181892328002172e+01 -9.8643511767388112e+00 -1.4227852125319812e+01 3 -2 2
1267 423 1 -8.1999999999999995e-01 -1.3695940477075617e+01 -9.1057283001930731e+00 -1.4661807693712351e+01 3 -2 2
1269 423 2 4.0999999999999998e-01 -1.3613583198396531e+01 -8.3484997597441648e+00 -1.4013889853039549e+01 3 -2 2
1579 527 1 -8.1999999999999995e-01 -1.4249600230689989e+01 -7.0856145638060530e+00 -1.2710822622541713e+01 0 2 -3
1078 360 1 -8.1999999999999995e-01 -8.8264407631916164e+00 -1.3775420250207816e+01 -1.3954459048086811e+01 3 -1 -1
423 141 2 4.0999999999999998e-01 -7.9020889901784015e+00 -8.8927335382445456e+00 -1.3189822002872869e+01 5 1 -1
316 106 1 -8.1999999999999995e-01 -1.1771032255022607e+01 -1.1454748063892653e+01 -1.3325210437040694e+01 8 0 -2
318 106 2 4.0999999999999998e-01 -1.2016190298767976e+01 -1.2382539096013144e+01 -1.3044004743247045e+01 8 0 -2
962 321 2 4.0999999999999998e-01 -1.0376461649994514e+01 -7.0024446160845928e+00 -9.0823282685687108e+00 3 2 -1
1691 564 2 4.0999999999999998e-01 -1.2637628013403553e+01 -1.2385355985642619e+01 -8.7261589388746259e+00 1 1 0
421 141 1 -8.1999999999999995e-01 -8.8987661183036266e+00 -8.8125194157416580e+00 -1.3203077277761235e+01 5 1 -1
1537 513 1 -8.1999999999999995e-01 -9.8018166221909588e+00 -6.2115959958516154e+00 -1.1970177519389251e+01 2 1 -1
1489 497 1 -8.1999999999999995e-01 -1.3099942337263299e+01 -1.3907671415034519e+01 -1.2504522882402277e+01 4 0 0
1539 513 2 4.0999999999999998e-01 -9.9650240966130177e+00 -7.0915175117115030e+00 -1.2416357697922059e+01 2 1 -1
497 166 2 4.0999999999999998e-01 -1.0821180826966790e+01 -1.0773453340312866e+01 -1.1955468822853627e+01 3 0 2
422 141 2 4.0999999999999998e-01 -9.2454366942218194e+00 -9.1116857430827185e+00 -1.4092062277661796e+01 5 1 -1
2525 842 2 4.0999999999999998e-01 -1.3299871435549578e+01 -8.3841642856200149e+00 -1.0518563929152968e+01 -1 1 -2
2524 842 1 -8.1999999999999995e-01 -1.3122071600057367e+01 -7.4906951557461134e+00 -1.0106161882994451e+01 -1 1 -2
1755 585 2 4.0999999999999998e-01 -1.2854346270646481e+01 -1.0600751790992552e+01 -1.1657896285514353e+01 3 1 -1
2526 842 2 4.0999999999999998e-01 -1.3468776102070889e+01 -7.4815732193785909e+00 -9.1682449971532236e+00 -1 1 -2
1753 585 1 -8.1999999999999995e-01 -1.3235741568299964e+01 -1.0215668770523694e+01 -1.0817524940478467e+01 3 1 -1
961 321 1 -8.1999999999999995e-01 -1.0987626912824988e+01 -6.2386090098171749e+00 -9.2897107609730831e+00 3 2 -1
498 166 2 4.0999999999999998e-01 -9.4660614239320680e+00 -9.8666785871462288e+00 -1.2044752584454027e+01 3 0 2
2230 744 1 -8.1999999999999995e-01 -1.0824444775545036e+01 -5.5470088174220216e+00 -1.4506004091122881e+01 2 5 1
1038 346 2 4.0999999999999998e-01 -8.3035530553304699e+00 -1.2846252614209483e+01 -1.2283873116876354e+01 3 2 0
496 166 1 -8.1999999999999995e-01 -1.0050350045219739e+01 -1.0403964362966814e+01 -1.1436553486409629e+01 3 0 2
1036 346 1 -8.1999999999999995e-01 -7.9832848165820502e+00 -1.2360341010588215e+01 -1.1470673583669805e+01 3 2 0
1538 513 2 4.0999999999999998e-01 -1.0196013795425033e+01 -6.2256385365983693e+00 -1.1051272354384380e+01 2 1 -1
1754 585 2 4.0999999999999998e-01 -1.3279393755042600e+01 -1.0926132767663152e+01 -1.0115164132032920e+01 3 1 -1
963 321 2 4.0999999999999998e-01 -1.1868552288351202e+01 -6.5924259993838259e+00 -9.6039707756272854e+00 3 2 -1
618 206 2 4.0999999999999998e-01 -1.0283252703767722e+01 -1.3253677448274724e+01 -8.3775596735062230e+00 2 2 0
2314 772 1 -8.1999999999999995e-01 -9.0109369858368265e+00 -1.0894968616254259e+01 -1.4908078804022871e+01 1 0 -2
908 303 2 4.0999999999999998e-01 -9.6683627539522856e+00 -9.2599575394278872e+00 -9.7966477063338466e+00 4 -1 0
1037 346 2 4.0999999999999998e-01 -8.5266416938157548e+00 -1.1530688118268639e+01 -1.1342553747571635e+01 3 2 0
2315 772 2 4.0999999999999998e-01 -9.0865583104765726e+00 -1.1607108681482188e+01 -1.4210143817266930e+01 1 0 -2
1079 360 2 4.0999999999999998e-01 -7.8903527923800842e+00 -1.3995896128585175e+01 -1.4228512011997870e+01 3 -1 -1
2232 744 2 4.0999999999999998e-01 -1.0588961907270873e+01 -5.6545725699089928e+00 -1.3540109084605923e+01 2 5 1
2540 847 2 4.0999999999999998e-01 -8.3223005020386278e+00 -1.2330535315991822e+01 -9.7041672792087148e+00 2 1 -3
1581 527 2 4.0999999999999998e-01 -1.4370658755980706e+01 -6.7666362115561522e+00 -1.1770837012619150e+01 0 2 -3
907 303 1 -8.1999999999999995e-01 -9.1763532190545014e+00 -8.6849181805395936e+00 -9.1430181025055965e+00 4 -1 0
1490 497 2 4.0999999999999998e-01 -1.4069358578413413e+01 -1.3816201641180644e+01 -1.2276837200907677e+01 4 0 0
1690 564 1 -8.1999999999999995e-01 -1.3466710039579025e+01 -1.1870738679620933e+01 -8.5076015519716570e+00 1 1 0
2539 847 1 -8.1999999999999995e-01 -8.4126843638495181e+00 -1.2391053682830851e+01 -8.7101131570490473e+00 2 1 -3
1692 564 2 4.0999999999999998e-01 -1.3372334155514920e+01 -1.1455227821856312e+01 -7.6029362908755100e+00 1 1 0
1080 360 2 4.0999999999999998e-01 -9.4530780400432235e+00 -1.4458923911751075e+01 -1.4328790141805561e+01 3 -1 -1
909 303 2 4.0999999999999998e-01 -9.4963521015927874e+00 -8.8842769801613066e+00 -8.2168258529949547e+00 4 -1 0
1491 497 2 4.0999999999999998e-01 -1.2653946321817111e+01 -1.4498427501164723e+01 -1.1832161275350947e+01 4 0 0
859 287 1 -8.1999999999999995e-01 -1.4775504804527724e+01 -1.1811148675291774e+01 -1.4387725008337778e+01 4 1 -1
365 122 2 4.0999999999999998e-01 -7.9468226235339436e+00 -5.6401430971721265e+00 -1.2240273507486769e+01 2 3 -1
616 206 1 -8.1999999999999995e-01 -1.1151590183195976e+01 -1.3713471364404386e+01 -8.1916702190568031e+00 2 2 0
2541 847 2 4.0999999999999998e-01 -7.5411243546252997e+00 -1.2678667833030882e+01 -8.3130784226778189e+00 2 1 -3
2220 740 2 4.0999999999999998e-01 -7.6613650338827384e+00 -8.4605101283712401e+00 -1.0346460963906605e+01 4 2 -2
861 287 2 4.0999999999999998e-01 -1.4265430376885508e+01 -1.2464713024352864e+01 -1.4946878845449383e+01 4 1 -1
2554 852 1 -8.1999999999999995e-01 -4.3515064237597976e+00 -8.4686957249798311e+00 -8.3725958727019041e+00 6 1 -2
510 170 2 4.0999999999999998e-01 -1.6787973944570567e-01 -9.9322992464260107e+00 -1.3092809987600321e+01 0 2 -1
2166 722 2 4.0999999999999998e-01 -6.4106887653659683e+00 -4.9873966323757717e+00 -1.1087271799287691e+01 6 -1 -3
2284 762 1 -8.1999999999999995e-01 -6.2865698836826258e+00 -6.7979659856441792e+00 -1.4643290856685669e+01 4 2 -1
2061 687 2 4.0999999999999998e-01 -2.1650428765783190e+00 -1.2482718459189531e+01 -1.2402773781852545e+01 6 1 -2
1720 574 1 -8.1999999999999995e-01 -6.4953316170218685e+00 -9.7548278411604166e+00 -1.4639465834573253e+01 4 0 -2
2349 783 2 4.0999999999999998e-01 -5.6268163811925653e-01 -1.3800323478787107e+01 -1.3253157692364018e+01 -1 -2 0
1885 629 1 -8.1999999999999995e-01 -6.0580568288351397e+00 -1.3246106650556799e+01 -7.7982800189979740e+00 6 0 -1
364 122 1 -8.1999999999999995e-01 -7.3775813049670553e+00 -5.1293211106324321e+00 -1.2884478862151036e+01 2 3 -1
1721 574 2 4.0999999999999998e-01 -7.3907509772326589e+00 -1.0077468332304775e+01 -1.4946227299939823e+01 4 0 -2
1647 549 2 4.0999999999999998e-01 -6.4152294435770703e+00 -5.7846784625406169e+00 -8.9185424305696532e+00 5 1 0
2556 852 2 4.0999999999999998e-01 -4.8969523664002903e+00 -7.6312762969947663e+00 -8.4071321873019222e+00 6 1 -2
1887 629 2 4.0999999999999998e-01 -5.1349671617296941e+00 -1.3464547647710113e+01 -8.1147674746852658e+00 6 0 -1
2517 839 2 4.0999999999999998e-01 -4.3961472069763570e+00 -5.4583593897421494e+00 -1.2052278141540109e+01 5 0 1
1645 549 1 -8.1999999999999995e-01 -5.9533769177325517e+00 -6.2466608388093317e+00 -8.1614163814866032e+00 5 1 0
39 13 2 4.0999999999999998e-01 -6.3413762955662456e-01 -8.0609782951692228e+00 -1.0354288828831717e+01 3 0 0
2347 783 1 -8.1999999999999995e-01 -4.0106592062382163e-01 -1.2976371269008105e+01 -1.3796258440794801e+01 -1 -2 0
2348 783 2 4.0999999999999998e-01 -3.3450229451079494e-01 -1.3222290127920061e+01 -1.4763247840871859e+01 -1 -2 0
1315 439 1 -8.1999999999999995e-01 -2.1119721980482566e+00 -8.9478191899048234e+00 -1.0150946136630294e+01 2 -1 -2
665 222 2 4.0999999999999998e-01 -2.4746683026738996e+00 -6.6388415509101364e+00 -1.4167207981200834e+01 7 1 1
1563 521 2 4.0999999999999998e-01 -1.2669758312777795e+00 -1.1615064890639415e+01 -9.0275774549046588e+00 5 -2 0
1682 561 2 4.0999999999999998e-01 -3.3960568728703677e-01 -5.5940184582892822e+00 -1.4036968866569930e+01 1 0 2
1683 561 2 4.0999999999999998e-01 -9.6160668387513404e-01 -5.7386524584038838e+00 -1.2534052899261644e+01 1 0 2
1846 616 1 -8.1999999999999995e-01 -4.5538703891453274e+00 -7.1789208801227042e+00 -1.1469899815972232e+01 5 2 1
1358 453 2 4.0999999999999998e-01 -4.0117747769846090e+00 -1.4325480611260279e+01 -1.0704451686157533e+01 2 -1 1
1316 439 2 4.0999999999999998e-01 -1.8862780712769176e+00 -9.9052702145743936e+00 -9.9711545842997005e+00 2 -1 -2
912 304 2 4.0999999999999998e-01 -6.2070156779300270e+00 -1.2310936454434779e+01 -1.1978999268759463e+01 2 0 1
1561 521 1 -8.1999999999999995e-01 -2.2368294157164215e+00 -1.1692854687901592e+01 -9.2584628767189372e+00 5 -2 0
1562 521 2 4.0999999999999998e-01 -2.3336007673043042e+00 -1.2155540540505012e+01 -1.0139673656125385e+01 5 -2 0
2218 740 1 -8.1999999999999995e-01 -6.8975759140724886e+00 -8.8436728243130887e+00 -1.0865872017902941e+01 4 2 -2
2285 762 2 4.0999999999999998e-01 -6.5026019593380227e+00 -7.7674010351346823e+00 -1.4759485262602887e+01 4 2 -1
2555 852 2 4.0999999999999998e-01 -4.8520132484165739e+00 -9.2110778133332616e+00 -8.8179463727040606e+00 6 1 -2
2004 668 2 4.0999999999999998e-01 -1.6123424093674341e+00 -9.0891328675866205e+00 -1.4088966285297507e+01 1 2 -5
366 122 2 4.0999999999999998e-01 -6.8627086750929642e+00 -5.7695385300273081e+00 -1.3454569355299800e+01 2 3 -1
391 131 1 -8.1999999999999995e-01 -3.0379555889852377e+00 -9.0621875502825802e+00 -1.3567766843148387e+01 4 0 -1
1681 561 1 -8.1999999999999995e-01 -9.2395215673476550e-01 -6.1491878958271258e+00 -1.3445106193432711e+01 1 0 2
1357 453 1 -8.1999999999999995e-01 -4.3453588730898343e+00 -1.4467388675100910e+01 -9.7724865287155378e+00 2 -1 1
911 304 2 4.0999999999999998e-01 -5.3348537254161972e+00 -1.1526431759198633e+01 -1.3114977504372581e+01 2 0 1
2219 740 2 4.0999999999999998e-01 -6.7771408392248755e+00 -9.8056616748721304e+00 -1.0620824796003705e+01 4 2 -2
1254 418 2 4.0999999999999998e-01 -4.4377876466381601e+00 -1.1225996355303860e+01 -9.5826884746455612e+00 3 3 -1
910 304 1 -8.1999999999999995e-01 -5.4099973040244205e+00 -1.2368077808994414e+01 -1.2580224594937450e+01 2 0 1
1847 616 2 4.0999999999999998e-01 -3.8770794807579083e+00 -7.7798053721821656e+00 -1.1044614974391484e+01 5 2 1
2059 687 1 -8.1999999999999995e-01 -2.7972080808176454e+00 -1.2688707365659027e+01 -1.1655839364268104e+01 6 1 -2
1317 439 2 4.0999999999999998e-01 -2.6512333996547444e+00 -8.5841861336245699e+00 -9.3913780572119911e+00 2 -1 -2
1252 418 1 -8.1999999999999995e-01 -5.3593717173855584e+00 -1.0976793057780254e+01 -9.2851051713117894e+00 3 3 -1
2002 668 1 -8.1999999999999995e-01 -7.0728721684213625e-01 -8.7888457982971389e+00 -1.4390094288958080e+01 1 2 -5
392 131 2 4.0999999999999998e-01 -3.2614253253490340e+00 -9.0289786570120079e+00 -1.2593634538119808e+01 4 0 -1
393 131 2 4.0999999999999998e-01 -3.6272590113078600e+00 -8.4268204412046366e+00 -1.4066771269782802e+01 4 0 -1
2003 668 2 4.0999999999999998e-01 -5.5021924330259786e-01 -7.8487890909879079e+00 -1.4087442115954744e+01 1 2 -5
38 13 2 4.0999999999999998e-01 -5.8929717507622392e-01 -6.4554711858549396e+00 -1.0649071620248257e+01 3 0 0
2060 687 2 4.0999999999999998e-01 -3.7210629622321392e+00 -1.2405688992638019e+01 -1.1913459373032039e+01 6 1 -2
37 13 1 -8.1999999999999995e-01 -3.5834393031498379e-02 -7.2806457147211496e+00 -1.0536194378244762e+01 3 0 0
1253 418 2 4.0999999999999998e-01 -5.8136015238185408e+00 -1.1779796879286392e+01 -8.8993131835072461e+00 3 3 -1
1848 616 2 4.0999999999999998e-01 -5.3899332654189465e+00 -7.6958831829096557e+00 -1.1653541181442147e+01 5 2 1
1294 432 1 -8.1999999999999995e-01 -6.2025609552349952e+00 -1.4291733116779412e+01 -1.4340952219627964e+01 5 -1 2
1295 432 2 4.0999999999999998e-01 -5.6615413347176080e+00 -1.3668991246694539e+01 -1.3775739290417556e+01 5 -1 2
1731 577 2 4.0999999999999998e-01 -4.3854610557770357e-01 -1.4910283861284800e+01 -1.1173630708027634e+01 4 0 2
664 222 1 -8.1999999999999995e-01 -3.2390903797945700e+00 -6.4505842796663959e+00 -1.4783806242377540e+01 7 1 1
1061 354 2 4.0999999999999998e-01 -4.6082618001121869e+00 -5.1607759184927016e+00 -9.5821563122669815e+00 2 0 1
617 206 2 4.0999999999999998e-01 -1.1373640271452791e+01 -1.3626406730709222e+01 -7.2205426168888831e+00 2 2 0
1422 474 2 4.0999999999999998e-01 -1.4112544342084218e+01 -7.5421786984301011e+00 -7.3942698748275850e+00 4 1 -2
969 323 2 4.0999999999999998e-01 -1.2086191618398214e+01 -1.0376609521286468e+01 -5.5502135259395367e+00 6 -1 -1
967 323 1 -8.1999999999999995e-01 -1.2739202352448999e+01 -1.1044044493625615e+01 -5.9081001686823651e+00 6 -1 -1
968 323 2 4.0999999999999998e-01 -1.2469059662693251e+01 -1.1962543988842700e+01 -5.6193841892009448e+00 6 -1 -1
348 116 2 4.0999999999999998e-01 -1.4881258010176824e+01 -1.4290051814705917e+01 -7.0620154834601578e-01 2 0 0
811 271 1 -8.1999999999999995e-01 -1.1762001880927148e+01 -1.3542602821730258e+01 -5.2513020409468769e+00 4 0 -1
536 179 2 4.0999999999999998e-01 -1.4373542779632285e+01 -1.0412147697393044e+01 -6.1071625535631071e+00 3 -1 -2
1726 576 1 -8.1999999999999995e-01 -1.0360002936376279e+01 -9.0417855985342044e+00 -3.8893505944933615e-01 0 3 -1
813 271 2 4.0999999999999998e-01 -1.2493653669422358e+01 -1.4159050928384454e+01 -4.9603506545143201e+00 4 0 -1
812 271 2 4.0999999999999998e-01 -1.1063096813433033e+01 -1.3494636168506187e+01 -4.5377151771232054e+00 4 0 -1
2176 726 1 -8.1999999999999995e-01 -1.0061549914941676e+01 -1.3062171376320503e+01 -1.9607135041124941e+00 4 0 -1
164 55 2 4.0999999999999998e-01 -1.3445660380367483e+01 -9.6320158124846387e+00 -1.5315004216782224e+00 4 -1 -2
506 169 2 4.0999999999999998e-01 -8.9492669089624659e+00 -7.5997005483284434e+00 -4.4960078251077711e+00 0 6 -1
1911 637 2 4.0999999999999998e-01 -1.2744145295930137e+01 -7.4541444645765260e+00 -3.0559985642920005e+00 2 1 -1
165 55 2 4.0999999999999998e-01 -1.2948723256329881e+01 -9.9740757070934087e+00 -3.0489354804682112e+00 4 -1 -2
163 55 1 -8.1999999999999995e-01 -1.3130836107178196e+01 -9.2392792513437776e+00 -2.3955715865818661e+00 4 -1 -2
505 169 1 -8.1999999999999995e-01 -9.7717420871667890e+00 -7.1906659993233344e+00 -4.1007855675506661e+00 0 6 -1
507 169 2 4.0999999999999998e-01 -9.6298014900116016e+00 -7.0349222562380982e+00 -3.1232519108984871e+00 0 6 -1
1151 384 2 4.0999999999999998e-01 -9.4552574047805695e+00 -1.3516739875327879e+01 -3.4807367547372223e+00 1 -2 -1
2543 848 2 4.0999999999999998e-01 -1.0843589278327585e+01 -6.3185199297607024e+00 -1.8440114419426425e+00 1 1 -2
1987 663 1 -8.1999999999999995e-01 -1.0247162468084611e+01 -1.0283926613725498e+01 -3.1795421102657553e+00 3 -2 -4
1407 469 2 4.0999999999999998e-01 -1.0629774143020907e+01 -5.4802036620725101e+00 -4.7842684388922230e+00 0 -3 -4
2088 696 2 4.0999999999999998e-01 -1.2212923434215352e+01 -8.0730454496369539e+00 -6.0482163660589663e+00 1 1 0
2177 726 2 4.0999999999999998e-01 -1.0281456904767669e+01 -1.2191983448505230e+01 -2.4016093935483802e+00 4 0 -1
2086 696 1 -8.1999999999999995e-01 -1.1631143083239076e+01 -8.6491216983988579e+00 -5.4740708189277658e+00 1 1 0
1532 511 2 4.0999999999999998e-01 -8.2129823672909552e+00 -1.0876341908457899e+01 -6.8841732081389342e+00 2 -2 -1
1531 511 1 -8.1999999999999995e-01 -8.4394906758156978e+00 -1.0076066596539690e+01 -6.3289897127616168e+00 2 -2 -1
2087 696 2 4.0999999999999998e-01 -1.1026191144228243e+01 -8.0710329157684022e+00 -4.9265109352425789e+00 1 1 0
1533 511 2 4.0999999999999998e-01 -9.2086580102304794e+00 -1.0294019662508935e+01 -5.7282789888111498e+00 2 -2 -1
2178 726 2 4.0999999999999998e-01 -1.0494869764452751e+01 -1.3098451006815560e+01 -1.0602175219816825e+00 4 0 -1
1420 474 1 -8.1999999999999995e-01 -1.3136317495089411e+01 -7.3858927480144150e+00 -7.2441660888158559e+00 4 1 -2
1421 474 2 4.0999999999999998e-01 -1.2961267332435421e+01 -6.4031006612600248e+00 -7.1854084171843313e+00 4 1 -2
1988 663 2 4.0999999999999998e-01 -1.0854594655417149e+01 -9.7090137130851417e+00 -3.7276995668583286e+00 3 -2 -4
706 236 1 -8.1999999999999995e-01 -1.4498736369348887e+01 -6.4530337677713430e+00 -3.1554692090523417e-01 5 -1 -2
1125 375 2 4.0999999999999998e-01 -1.4559607982586023e+01 -5.5107501017323095e+00 -4.0147020181366191e+00 2 1 -3
383 128 2 4.0999999999999998e-01 -8.5658290822028214e+00 -5.1698722991740098e+00 -8.6500473877109663e-01 3 4 -5
1989 663 2 4.0999999999999998e-01 -1.0301306629964991e+01 -1.0006354868953233e+01 -2.2203770310118269e+00 3 -2 -4
1833 611 2 4.0999999999999998e-01 -8.3531586165352305e+00 -1.1497175111736478e+01 -5.1727381158121588e-01 3 2 -2
1033 345 1 -8.1999999999999995e-01 -1.4316959257681818e+01 -1.0451881135662980e+01 -7.9473554368981070e-02 1 1 -2
1909 637 1 -8.1999999999999995e-01 -1.2874193379900502e+01 -6.5378282742535418e+00 -2.6772803942354209e+00 2 1 -1
1124 375 2 4.0999999999999998e-01 -1.4302299388888704e+01 -5.5935211688420576e+00 -5.6251373229195654e+00 2 1 -3
2542 848 1 -8.1999999999999995e-01 -1.0243766455101362e+01 -5.5917598062579099e+00 -1.5093360514803091e+00 1 1 -2
1910 637 2 4.0999999999999998e-01 -1.3347744956362943e+01 -6.6042744597374448e+00 -1.7990383219640744e+00 2 1 -1
1152 384 2 4.0999999999999998e-01 -8.2628720210802911e+00 -1.2815416629900318e+01 -4.3484483634493003e+00 1 -2 -1
1150 384 1 -8.1999999999999995e-01 -8.9633795037079942e+00 -1.3529038694966186e+01 -4.3512999005500959e+00 1 -2 -1
587 196 2 4.0999999999999998e-01 -7.7435550641470785e+00 -8.4434071304127336e+00 -6.1392081768320068e+00 4 0 -2
586 196 1 -8.1999999999999995e-01 -7.5192748992202594e+00 -7.5792845640040012e+00 -5.6886907962241899e+00 4 0 -2
1772 591 2 4.0999999999999998e-01 -7.4775582267856056e+00 -1.0602838179715757e+01 -3.2306677766420151e+00 6 2 -1
588 196 2 4.0999999999999998e-01 -7.7287302374350233e+00 -6.8187787543141720e+00 -6.3032920409221322e+00 4 0 -2
382 128 1 -8.1999999999999995e-01 -7.5711666615731765e+00 -5.2718158904065948e+00 -8.8015367433082403e-01 3 4 -5
1210 404 1 -8.1999999999999995e-01 -8.3245998832398129e+00 -5.0944095389261861e+00 -6.7855691435471197e+00 2 3 0
1727 576 2 4.0999999999999998e-01 -1.0084841312058257e+01 -8.1314358217017393e+00 -7.9864406293660650e-02 0 3 -1
1728 576 2 4.0999999999999998e-01 -9.6855205716542425e+00 -9.7148094683250719e+00 -8.5475448614040772e-02 0 3 -1
1838 613 2 4.0999999999999998e-01 -5.8888065088548203e-01 -1.1222301405077062e+01 -8.4511444861143303e-01 2 -2 1
1955 652 2 4.0999999999999998e-01 -4.3591101200992437e+00 -8.5555011839932860e+00 -6.1770611094257077e-01 1 2 0
840 280 2 4.0999999999999998e-01 -2.6133717070636653e+00 -8.0203167369561594e+00 -4.9145872641131270e+00 2 1 -3
624 208 2 4.0999999999999998e-01 -3.0959411873742066e+00 -1.2249880151771727e+01 -6.6259575076664881e+00 0 2 -3
1186 396 1 -8.1999999999999995e-01 -5.6201491150061731e+00 -6.9816941411477131e+00 -3.2424828954417837e+00 2 3 1
406 136 1 -8.1999999999999995e-01 -3.8489757924592549e+00 -1.4108810378167018e+01 -4.2928782754038952e+00 1 2 0
1773 591 2 4.0999999999999998e-01 -6.5914207703909025e+00 -1.0824624248214906e+01 -4.5842304752484591e+00 6 2 -1
408 136 2 4.0999999999999998e-01 -3.5587786465303974e+00 -1.3529437028511600e+01 -5.0545129984916919e+00 1 2 0
1956 652 2 4.0999999999999998e-01 -5.4853359594771511e+00 -7.8555716726207629e+00 -1.5707405720880381e+00 1 2 0
1462 488 1 -8.1999999999999995e-01 -2.3950076030740775e-01 -1.4867294473592503e+01 -1.6628024393663203e+00 6 2 -1
1771 591 1 -8.1999999999999995e-01 -7.2130678793241794e+00 -1.1262104095422650e+01 -3.9345062590723288e+00 6 2 -1
1463 488 2 4.0999999999999998e-01 -1.0620025109339721e+00 -1.4326116190468872e+01 -1.8377089199733891e+00 6 2 -1
2441 814 2 4.0999999999999998e-01 -1.6889321903474102e+00 -8.4955959613413317e+00 -1.3292162218738834e+00 6 -2 0
2120 707 2 4.0999999999999998e-01 -2.7819443687781877e+00 -1.2351800616512737e+01 -1.9739884666851246e+00 3 2 0
2579 860 2 4.0999999999999998e-01 -4.2341060330091587e+00 -1.0090130222164461e+01 -1.9204515116938037e+00 2 0 -1
1555 519 1 -8.1999999999999995e-01 -6.5874011931060679e+00 -1.2872147178986069e+01 -1.6114521489415345e-01 5 0 -3
2578 860 1 -8.1999999999999995e-01 -3.3724669768776590e+00 -1.0574127933749949e+01 -2.0730937580823472e+00 2 0 -1
1646 549 2 4.0999999999999998e-01 -5.9305237968703501e+00 -5.6413395919540186e+00 -7.3657787534642782e+00 5 1 0
2121 707 2 4.0999999999999998e-01 -2.6537411948960141e+00 -1.3550915566199413e+01 -3.0750097724892100e+00 3 2 0
839 280 2 4.0999999999999998e-01 -2.5237338857900333e+00 -7.9667667549102319e+00 -3.2849682601071635e+00 2 1 -3
838 280 1 -8.1999999999999995e-01 -3.1424006415640502e+00 -7.9374123299108374e+00 -4.0700574804049960e+00 2 1 -3
2119 707 1 -8.1999999999999995e-01 -2.3586548209161577e+00 -1.3235638124005170e+01 -2.1730677083407954e+00 3 2 0
1188 396 2 4.0999999999999998e-01 -6.3245024412481570e+00 -7.5635749739125888e+00 -3.6490248947194512e+00 2 3 1
1187 396 2 4.0999999999999998e-01 -4.7214175664541198e+00 -7.2601286327965076e+00 -3.5812027958584167e+00 2 3 1
728 243 2 4.0999999999999998e-01 -1.4373148439099754e+00 -1.1728814699196842e+01 -4.3713442417956383e+00 6 1 0
384 128 2 4.0999999999999998e-01 -7.3133405765901349e+00 -5.9191253385037008e+00 -1.5974342982425895e+00 3 4 -5
1021 341 1 -8.1999999999999995e-01 -5.9982277627277725e+00 -1.4088792869183294e+01 -2.4906641447636204e+00 5 1 -1
1978 660 1 -8.1999999999999995e-01 -2.3129261389857714e+00 -9.2689320119692695e+00 -6.5320171308424335e+00 5 2 -1
1980 660 2 4.0999999999999998e-01 -3.1060804437219023e+00 -8.9982093185333714e+00 -7.0775359548316654e+00 5 2 -1
2580 860 2 4.0999999999999998e-01 -2.7042626952896427e+00 -9.9469857030889663e+00 -2.4733074041152925e+00 2 0 -1
1979 660 2 4.0999999999999998e-01 -1.4781027403739664e+00 -9.1248880923813083e+00 -7.0633329907548177e+00 5 2 -1
623 208 2 4.0999999999999998e-01 -2.3023651345756981e+00 -1.1025712642104349e+01 -5.8923284510479235e+00 0 2 -3
2442 814 2 4.0999999999999998e-01 -3.5559052093804056e-01 -8.2027589515997530e+00 -2.2253228637590681e+00 6 -2 0
727 243 1 -8.1999999999999995e-01 -6.2433262370418596e-01 -1.1193696576113787e+01 -4.1418146909785296e+00 6 1 0
2440 814 1 -8.1999999999999995e-01 -1.3244554676904592e+00 -8.4479702449232263e+00 -2.2591967681037577e+00 6 -2 0
1954 652 1 -8.1999999999999995e-01 -5.2926235104839598e+00 -8.6301494225914670e+00 -9.6835653362619745e-01 1 2 0
729 243 2 4.0999999999999998e-01 -7.9817231194213356e-01 -1.0662363368852834e+01 -3.3126946210137476e+00 6 1 0
622 208 1 -8.1999999999999995e-01 -2.6738354804693003e+00 -1.1946283909190690e+01 -5.7717728639508383e+00 0 2 -3
1023 341 2 4.0999999999999998e-01 -5.3571160049323865e+00 -1.4297322428301166e+01 -3.2292211576621845e+00 5 1 -1
1886 629 2 4.0999999999999998e-01 -6.3655187460383047e+00 -1.3948932139503132e+01 -7.1568138771760097e+00 6 0 -1
1022 341 2 4.0999999999999998e-01 -6.3684427827130392e+00 -1.3168971258174876e+01 -2.6204499248155670e+00 5 1 -1
1557 519 2 4.0999999999999998e-01 -6.3157683654543053e+00 -1.3539261858356406e+01 -8.5479420413588691e-01 5 0 -3
785 262 2 4.0999999999999998e-01 -7.4430467409542826e+00 -1.4806428460322154e+01 -5.1978533527887443e+00 0 2 2
1395 465 2 4.0999999999999998e-01 -9.7368607520356107e+00 -9.8041812117483715e+00 2.7462646408533544e+00 2 1 -2
690 230 2 4.0999999999999998e-01 -1.3139078325513447e+01 -1.2004918171222883e+01 2.0301272337199201e+00 1 4 -2
688 230 1 -8.1999999999999995e-01 -1.2386963246187200e+01 -1.1409933762384838e+01 1.7467691540950447e+00 1 4 -2
2029 677 1 -8.1999999999999995e-01 -1.1070621634880695e+01 -1.3390375203988947e+01 5.8994830052563429e-01 4 1 1
2031 677 2 4.0999999999999998e-01 -1.0451148564561585e+01 -1.3718870587941195e+01 1.3029133804066753e+00 4 1 1
2030 677 2 4.0999999999999998e-01 -1.1519067926893243e+01 -1.2551555967370787e+01 8.9858003519952589e-01 4 1 1
533 178 2 4.0999999999999998e-01 -1.2571808963826896e+01 -1.1669789433954186e+01 6.9333887604861459e+00 1 1 0
689 230 2 4.0999999999999998e-01 -1.2037146537912845e+01 -1.0913568415890857e+01 2.5412658621125637e+00 1 4 -2
1861 621 1 -8.1999999999999995e-01 -1.4233157790007203e+01 -1.3192642681494698e+01 2.3481794143331385e+00 2 2 0
1048 350 1 -8.1999999999999995e-01 -9.3953815018652413e+00 -6.7976516044337387e+00 1.2114408744349667e+00 0 4 -2
1050 350 2 4.0999999999999998e-01 -9.1615932398283633e+00 -7.3107169929883495e+00 2.0373235939765415e+00 0 4 -2
2464 822 1 -8.1999999999999995e-01 -1.4850844609093290e+01 -1.0810942665282052e+01 4.7346571823910715e+00 3 0 -6
2569 857 1 -8.1999999999999995e-01 -1.0223092916822942e+01 -1.1304559321574535e+01 5.4430589835868410e+00 2 0 0
2571 857 2 4.0999999999999998e-01 -1.0952118228387194e+01 -1.1972917462577588e+01 5.5906896000449393e+00 2 0 0
1333 445 1 -8.1999999999999995e-01 -1.3911088928540005e+01 -8.4162719572944731e+00 3.8228068344017743e+00 0 4 0
1335 445 2 4.0999999999999998e-01 -1.4265002093130612e+01 -9.2976787543162907e+00 4.1356052425721828e+00 0 4 0
1334 445 2 4.0999999999999998e-01 -1.3470483079692006e+01 -7.9440932402929496e+00 4.5862785444867598e+00 0 4 0
2570 857 2 4.0999999999999998e-01 -9.3359150038880419e+00 -1.1739652698907603e+01 5.5966311401440869e+00 2 0 0
1607 536 2 4.0999999999999998e-01 -1.2588622763770060e+01 -1.3537172719881264e+01 7.0456690568593565e+00 0 -1 2
1285 429 1 -8.1999999999999995e-01 -1.1974876364988333e+01 -5.7324291342153977e+00 1.2635979689246213e+00 2 5 2
1049 350 2 4.0999999999999998e-01 -1.0349096426569769e+01 -6.5012568604155554e+00 1.2619713444079359e+00 0 4 -2
1287 429 2 4.0999999999999998e-01 -1.2802172010554496e+01 -6.2927614651392147e+00 1.2237872315623015e+00 2 5 2
1394 465 2 4.0999999999999998e-01 -8.4037740028139076e+00 -9.4753974737258222e+00 3.6301999297316740e+00 2 1 -2
2148 716 2 4.0999999999999998e-01 -7.5724228838926102e+00 -8.4783077527540396e+00 1.3731743389252529e+00 3 3 0
2466 822 2 4.0999999999999998e-01 -1.4908090349763729e+01 -1.0679117822209152e+01 5.7242633869633579e+00 3 0 -6
2338 780 1 -8.1999999999999995e-01 -1.2824811994072043e+01 -7.3081219220796783e+00 6.2389058159425765e+00 4 1 0
2339 780 2 4.0999999999999998e-01 -1.1945865999645841e+01 -6.8506661168520431e+00 6.1041339502168128e+00 4 1 0
2340 780 2 4.0999999999999998e-01 -1.2999557582533445e+01 -7.4125359204913783e+00 7.2179548554739057e+00 4 1 0
2138 713 2 4.0999999999999998e-01 -1.0075881799750258e+01 -9.7844272943241251e+00 6.4181285103038164e+00 -1 1 -2
1034 345 2 4.0999999999999998e-01 -1.3562809736656311e+01 -1.0738121649224938e+01 5.1154267789472563e-01 1 1 -2
1862 621 2 4.0999999999999998e-01 -1.4189022104569029e+01 -1.4068375492978832e+01 2.8289281913712792e+00 2 2 0
1321 441 1 -8.1999999999999995e-01 -8.4134122072945470e+00 -1.3786790468334832e+01 6.5616279805953930e+00 3 1 -4
1035 345 2 4.0999999999999998e-01 -1.4896691390267549e+01 -9.8014915154853846e+00 4.1132103953052557e-01 1 1 -2
2317 773 1 -8.1999999999999995e-01 -1.0281936807251249e+01 -6.3668165209597429e+00 6.4141922237304279e+00 -2 -1 -1
1606 536 1 -8.1999999999999995e-01 -1.1723695409094052e+01 -1.3510645609974539e+01 6.5444981327728584e+00 0 -1 2
1844 615 2 4.0999999999999998e-01 -8.0357840524324473e+00 -1.4139808020002242e+01 2.5978590862755766e+00 2 -1 1
368 123 2 4.0999999999999998e-01 -8.1036152619532373e+00 -5.1377956455916358e+00 1.5125397457948822e+00 -1 3 -2
2137 713 1 -8.1999999999999995e-01 -9.7501858215579027e+00 -8.9554924042260229e+00 6.8728420508108528e+00 -1 1 -2
1393 465 1 -8.1999999999999995e-01 -9.0972713066981612e+00 -9.0871466222590875e+00 3.0233242728316974e+00 2 1 -2
1831 611 1 -8.1999999999999995e-01 -8.6360674842279703e+00 -1.0901077153378878e+01 2.3412827806264858e-01 3 2 -2
1832 611 2 4.0999999999999998e-01 -7.8281819329539202e+00 -1.0486646240717096e+01 6.5310711789449449e-01 3 2 -2
260 87 2 4.0999999999999998e-01 -8.1213788824064395e+00 -9.4885402109287593e+00 6.5756480475366210e+00 6 3 1
2318 773 2 4.0999999999999998e-01 -1.0018030426418269e+01 -7.3276607785623984e+00 6.3298888680429712e+00 -2 -1 -1
708 236 2 4.0999999999999998e-01 -1.4855985935865915e+01 -7.2284840928086673e+00 2.0505354242661511e-01 5 -1 -2
1323 441 2 4.0999999999999998e-01 -8.0530053490072486e+00 -1.4390245872474134e+01 5.8503447738643537e+00 3 1 -4
1628 543 2 4.0999999999999998e-01 -1.2894493342825937e+01 -1.4829457588192248e+01 5.4185510122880274e+00 2 4 -1
2252 751 2 4.0999999999999998e-01 -1.4740280134647014e+01 -7.1521151375681660e+00 6.0799627041564754e+00 8 0 -3
1608 536 2 4.0999999999999998e-01 -1.1057608827560401e+01 -1.4103078283820235e+01 6.9976289159593570e+00 0 -1 2
1863 621 2 4.0999999999999998e-01 -1.4666884693281419e+01 -1.3323308338654250e+01 1.4566735073180972e+00 2 2 0
2319 773 2 4.0999999999999998e-01 -9.7678073562179044e+00 -5.9442017677166010e+00 7.1605453569120172e+00 -2 -1 -1