2611
Atoms. Timestep: 23000000
O -14.0296 13.5092 -6.4033
H -14.0508 12.6307 -5.92596
H -14.5446 14.1865 -5.87798
O -13.9766 -3.17629 -5.02616
H -13.3949 -3.13577 -5.83859
H -13.6905 -3.94136 -4.44922
O -14.1296 8.39834 5.3323
H -14.5202 9.26221 5.01416
H -13.7442 8.52343 6.24655
O 4.09685 -1.27205 -1.65938
H 3.70899 -1.98765 -2.24035
H 3.72926 -1.35876 -0.733434
O -1.94622 7.06389 -4.72425
H -2.29126 7.98987 -4.57077
H -2.6156 6.39942 -4.39194
O 1.4306 -11.9859 14.288
H 1.34386 -12.9078 14.6656
H 0.880425 -11.9132 13.4561
O 4.02284 -13.4782 9.22554
H 3.52011 -13.356 8.36976
H 4.759 -12.8035 9.27896
O 7.21125 -12.8652 6.94159
H 6.54416 -13.1085 6.23744
H 8.09135 -13.289 6.72763
O -4.00815 -5.81587 -10.0201
H -4.52871 -6.60027 -10.3574
H -4.4218 -5.48034 -9.17371
O -1.32973 -11.9146 -4.59109
H -1.83256 -12.4617 -3.92185
H -1.94173 -11.2325 -4.99134
O 2.13637 5.60453 0.322675
H 1.82668 6.55413 0.273953
H 2.5395 5.34003 -0.553432
O 3.0383 -5.57118 8.28137
H 2.66491 -5.92918 9.13719
H 3.69505 -4.84437 8.48246
O 4.28076 -11.9217 -2.68381
H 3.87263 -12.7262 -2.25236
H 3.68327 -11.5976 -3.41731
O 10.9946 -7.87693 12.8026
H 10.3123 -8.56681 13.0444
H 10.5428 -7.10167 12.3611
O 1.47424 -0.823442 8.58052
H 1.06687 0.0891985 8.61467
H 2.2882 -0.803626 7.99991
O 3.05236 13.3897 -9.48664
H 3.39786 13.1816 -8.57157
H 2.25064 13.9829 -9.41329
O -1.47098 3.98314 4.07569
H -0.574647 4.29975 3.76524
H -2.10539 3.96856 3.30281
O 5.67851 11.7764 -9.90445
H 4.68446 11.7596 -10.0121
H 6.09281 12.2151 -10.7019
O 2.80577 4.04896 -2.09144
H 3.65599 3.83732 -2.57348
H 2.07499 4.20289 -2.75649
O -9.46063 0.894521 -9.51319
H -8.85968 1.62692 -9.19306
H -8.95159 0.034236 -9.54179
O 4.21669 11.0539 12.6051
H 3.70795 10.2656 12.9513
H 3.99587 11.8602 13.1538
O 14.118 12.7858 8.75415
H 14.4599 12.2994 9.5582
H 13.6261 12.1471 8.16238
O -6.84245 2.74473 13.4018
H -7.49218 2.05293 13.0867
H -7.28153 3.32745 14.0856
O 10.6761 -2.09176 -0.726793
H 10.5568 -1.16359 -0.37428
H 11.124 -2.054 -1.6201
O 9.33086 3.01249 0.826085
H 10.3119 3.05931 1.01417
H 9.1274 3.52003 -0.0111897
O 12.5565 -11.5441 -12.9414
H 12.5263 -10.5528 -12.8127
H 13.0516 -11.7558 -13.7841
O -4.61572 13.9894 9.37614
H -5.20801 13.5307 10.0385
H -5.10471 14.0976 8.51057
O -2.58077 4.5453 -0.789938
H -2.47183 5.24825 -1.49281
H -2.12417 3.7058 -1.08453
O 9.91965 -5.68181 11.4272
H 9.06916 -5.62918 10.9039
H 10.4918 -4.8898 11.2141
O 3.27282 -1.66024 -10.5357
H 3.34969 -2.5302 -10.0486
H 4.18719 -1.31137 -10.7412
O -4.08216 -3.12695 -7.6266
H -3.34627 -3.14122 -8.30357
H -4.57414 -2.25844 -7.68734
O 3.30028 -1.41848 1.24397
H 4.20606 -1.04259 1.43967
H 2.60538 -0.877263 1.71749
O -11.1352 3.95364 8.57586
H -11.4234 4.24668 9.4875
H -10.9019 4.75577 8.02617
O 6.07878 -7.09034 0.27757
H 6.07517 -6.28769 0.874029
H 6.84552 -7.68391 0.522152
O 6.78461 2.33967 2.10343
H 6.48673 3.27249 2.30624
H 7.70275 2.36156 1.70774
O -0.873541 -3.74775 12.7904
H -1.33927 -4.07094 13.6142
H 0.011356 -4.20591 12.7063
O -3.69834 -3.79703 -4.91399
H -4.56518 -4.16731 -4.58005
H -3.69401 -3.80877 -5.91392
O 1.30428 -8.97686 5.00616
H 1.42073 -8.42861 4.17798
H 2.20179 -9.20975 5.38067
O 12.5639 -8.4055 5.78179
H 12.4235 -8.55328 4.80278
H 12.4501 -7.43448 5.99201
O 7.60165 -2.54175 -13.5752
H 8.41874 -2.62059 -14.1463
H 6.82653 -2.25796 -14.1397
O 3.13421 4.80932 -12.3036
H 2.4899 4.92648 -11.5478
H 2.68338 5.04266 -13.1652
O -7.85437 -8.18115 4.34172
H -7.04851 -7.59014 4.37816
H -7.63748 -9.06627 4.75347
O 6.63685 9.35427 -8.92337
H 5.8549 8.73146 -8.94957
H 6.47325 10.121 -9.54418
O 6.58697 -9.19002 9.37108
H 6.29607 -8.42548 8.79586
H 7.17547 -8.85014 10.1047
O -7.48392 6.28932 3.7043
H -6.84086 6.30403 4.46998
H -8.07393 5.48546 3.77994
O -10.712 -0.699645 -6.29796
H -10.7208 0.300132 -6.31784
H -10.5919 -1.01325 -5.35602
O 11.9221 -13.696 -11.4907
H 11.8581 -12.9364 -12.1379
H 11.3291 -14.4423 -11.793
O 6.56784 -4.96187 2.63463
H 7.54404 -4.77668 2.52166
H 6.16128 -4.26108 3.22084
O -10.8544 -5.07126 9.26355
H -11.1706 -4.46811 8.53128
H -10.6234 -4.52513 10.0688
O -9.50123 -8.60609 -12.5157
H -9.56318 -8.83622 -13.4869
H -8.58348 -8.26525 -12.3118
O -10.5281 14.3878 0.196572
H -11.5032 14.4948 0.00228168
H -10.1845 -14.5871 0.642431
O -8.86698 -2.41192 -7.04632
H -9.66511 -1.81923 -6.93795
H -9.10574 -3.34501 -6.77734
O 0.647401 -4.10677 -10.6898
H 0.678232 -3.73173 -11.6163
H 1.57515 -4.32659 -10.3881
O -6.63454 1.64773 -11.8923
H -5.79008 2.13318 -12.1187
H -6.56814 0.700021 -12.2045
O -5.42232 12.6778 -13.5846
H -6.18531 13.3038 -13.423
H -4.93517 12.5175 -12.7261
O -4.48112 -12.0173 7.59122
H -4.93801 -11.8397 6.71958
H -3.91384 -12.8367 7.50935
O -14.5232 -5.48156 -13.2143
H -13.6164 -5.55285 -13.6297
H 14.644 -5.06763 -13.8674
O 8.46178 6.06989 2.19103
H 8.70261 5.11154 2.34463
H 9.26918 6.64304 2.3311
O 6.26803 -13.4105 -7.46035
H 6.07066 -13.4855 -6.48288
H 6.3208 -14.3253 -7.86083
O 11.735 8.43597 14.0571
H 11.1461 9.13114 14.4692
H 12.1175 8.78723 13.2025
O -5.88788 -10.6323 14.8955
H -5.93243 -11.2476 -14.1189
H -4.9495 -10.5984 14.5516
O 13.0782 8.08469 -7.88195
H 13.4951 8.54972 -8.66296
H 13.3349 7.11824 -7.8936
O 10.5518 7.49482 -2.79102
H 11.0605 6.9192 -2.15081
H 10.4989 8.42662 -2.43187
O -12.9368 -13.291 -2.67013
H -13.5624 -12.5116 -2.63676
H -12.9693 -13.7821 -1.7996
O -10.8692 -0.421209 9.04944
H -11.0492 -0.951728 9.8778
H -9.94939 -0.626805 8.71524
O 1.93893 -1.57648 4.56919
H 1.39733 -2.34321 4.22448
H 1.94967 -0.843523 3.88899
O 8.48663 -3.61908 7.7452
H 8.15858 -4.48921 8.11303
H 8.13857 -2.86776 8.30591
O -13.7504 -4.71875 10.6609
H -12.9071 -5.19386 10.4096
H -13.9295 -3.9872 10.003
O 4.44945 -5.42725 13.7115
H 4.4132 -5.38832 14.7101
H 4.91038 -6.26794 13.4272
O -13.6495 -10.4184 4.28159
H -12.9655 -10.5703 3.56815
H -13.8859 -11.2914 4.7081
O -7.73003 -14.5181 12.9398
H -6.9777 -13.9082 12.6907
H -8.59896 -14.0331 12.8411
O 3.57014 -8.04051 -14.6578
H 4.1723 -7.4688 -14.1005
H 3.97009 -8.15882 14.2347
O 12.951 -1.45049 -8.55803
H 13.6239 -2.18976 -8.53198
H 12.1852 -1.71725 -9.14327
O -14.1469 11.4505 -11.3641
H -13.5225 11.2435 -12.1173
H -13.62 11.6188 -10.531
O -11.5682 7.35393 -11.9775
H -11.3528 6.69732 -12.7003
H -12.361 7.03181 -11.46
O -4.84061 3.65207 -8.44421
H -4.22056 3.61488 -7.66051
H -5.28289 4.54837 -8.47707
O -8.67732 12.7232 -7.24819
H -8.16957 13.5841 -7.21472
H -8.33012 12.1604 -7.99835
O 13.2693 7.29587 6.55273
H 13.1911 6.73042 5.73165
H 14.0307 7.9353 6.44579
O 1.33262 -9.91658 -11.3841
H 1.032 -10.8302 -11.1103
H 1.87083 -9.9807 -12.2245
O 3.23278 -9.95274 -5.86905
H 2.35228 -9.85481 -6.33291
H 3.50852 -10.914 -5.8768
O -10.0013 -13.1332 12.037
H -10.5008 -12.2678 11.9971
H -10.594 -13.8429 12.4178
O 0.66799 13.788 9.78596
H -0.0399657 13.2041 9.38866
H 1.22597 13.2515 10.4191
O -9.08739 -9.28352 -4.56603
H -8.82304 -9.19381 -3.60577
H -8.84838 -8.44588 -5.0572
O 2.7615 13.2434 14.5949
H 1.95108 13.7767 14.8374
H 3.45397 13.8489 14.2027
O 6.57968 4.71866 5.06447
H 6.0436 3.91842 5.3333
H 7.46421 4.42176 4.70463
O 1.13987 12.1152 -0.665777
H 1.42091 11.2044 -0.363345
H 0.556585 12.0328 -1.47387
O 3.41699 -4.11597 1.28298
H 3.40337 -3.11616 1.26793
H 2.69036 -4.45022 1.88324
O 13.3232 10.4696 -6.31646
H 12.5718 11.1286 -6.34992
H 13.0026 9.58152 -6.64586
O -5.36198 5.58731 -12.3293
H -5.28783 4.71256 -11.8504
H -4.55337 6.1429 -12.1357
O -7.806 12.9717 14.8069
H -7.97959 13.7817 14.2467
H -6.82059 12.8606 -14.8654
O -3.91793 7.99096 10.6719
H -3.59723 8.82694 10.2266
H -4.24667 8.20798 11.5911
O 1.89488 -6.59522 -7.76555
H 2.0671 -5.90762 -8.47095
H 1.9116 -7.50644 -8.17717
O -2.14163 1.60759 8.20019
H -1.15985 1.41856 8.18019
H -2.32656 2.46181 7.71425
O 3.34271 -14.339 -12.3948
H 3.88731 -14.2785 -11.5583
H 3.72969 -13.7322 -13.0891
O -5.77072 6.47812 14.7043
H -6.54973 6.16768 -14.5523
H -5.48345 5.74634 14.0862
O -11.5626 14.8315 13.266
H -11.8037 14.5591 14.1975
H -11.0356 14.1014 12.8311
O -13.6119 -9.88715 -10.0518
H -14.1397 -10.6968 -10.3086
H -12.6386 -10.1159 -10.0332
O 13.4872 -7.39443 -8.9751
H 14.1017 -7.38775 -9.76403
H 13.4441 -8.31798 -8.59402
O 11.5044 8.11775 -11.0747
H 11.3244 8.86159 -11.7183
H 12.4119 8.23767 -10.6721
O -6.8001 -13.7528 -9.86204
H -7.43989 -13.1645 -9.36752
H -5.95634 -13.2482 -10.0448
O 8.64086 5.90691 11.6437
H 9.02277 5.50941 12.478
H 7.76995 5.46355 11.4316
O 14.5117 12.2751 11.6019
H 13.7968 12.9709 11.671
H 14.5414 11.7426 12.4478
O -9.49205 -10.7595 3.15358
H -10.0757 -10.2463 3.78295
H -8.83945 -11.308 3.67633
O 7.08711 0.930097 14.8167
H 6.50136 1.50864 -14.417
H 6.52441 0.430402 14.1582
O 1.74995 -2.40796 11.0478
H 1.81629 -1.89476 10.1921
H 0.788107 -2.50917 11.3021
O 2.7085 8.60407 -12.8095
H 2.46578 9.43125 -12.3027
H 3.6786 8.40268 -12.6739
O 11.1747 3.11073 -11.5839
H 11.1848 2.4385 -12.3242
H 11.3715 4.01823 -11.955
O 8.51424 7.11861 -10.5884
H 7.9974 7.33589 -9.76034
H 9.41131 7.55855 -10.5465
O -6.90512 -11.8149 -0.406646
H -6.31429 -12.6055 -0.567864
H -6.52169 -11.0132 -0.865186
O 13.058 -5.04932 -7.56447
H 13.058 -5.83071 -8.18853
H 13.8483 -4.46802 -7.75813
O 7.16688 -11.9631 -9.71086
H 7.72994 -11.2245 -10.0815
H 7.31431 -12.0317 -8.72416
O 6.47585 -12.6237 -12.5045
H 5.7937 -12.4222 -13.2075
H 6.02911 -13.0539 -11.7201
O -2.96028 0.459855 4.2959
H -3.05385 -0.483894 3.97871
H -2.23527 0.5103 4.98281
O -6.23449 4.49566 0.200824
H -5.86749 5.31892 0.633934
H -7.11341 4.2634 0.617463
O -1.57751 -3.13438 -8.94936
H -1.09375 -3.18548 -8.07564
H -1.03019 -3.57685 -9.65978
O -12.6965 -1.18429 -3.05463
H -11.785 -1.37706 -3.41785
H -13.3423 -1.08298 -3.81141
O -7.62056 9.13209 0.421192
H -8.36616 9.07715 -0.242957
H -7.01641 8.34299 0.310094
O -14.5499 -13.8062 2.17966
H 14.5102 -14.4641 2.31296
H -14.0829 -13.6494 3.04991
O 3.36462 -5.01825 -13.6521
H 3.49161 -5.77548 -13.0114
H 2.64169 -4.41471 -13.3158
O 9.89462 -7.8106 -0.755771
H 10.4905 -7.68697 0.0377123
H 9.42197 -6.95207 -0.954651
O -13.9357 5.10001 14.6644
H -14.5285 5.88959 14.5059
H -13.0351 5.27409 14.266
O -8.49375 -12.2541 -14.0805
H -8.59166 -11.3323 -14.4556
H -9.39829 -12.6641 -13.9634
O 6.74122 6.38751 0.259594
H 7.5336 6.21181 0.843795
H 6.51391 7.36087 0.290071
O -13.9719 0.794777 5.34683
H -14.7455 0.615238 5.95455
H -13.1541 0.976492 5.89299
O -8.17133 14.1422 8.65982
H -7.72582 -14.8321 9.00255
H -9.01544 13.9818 9.17147
O -6.84273 -12.7632 -3.45894
H -7.07488 -12.4864 -4.3914
H -7.40001 -13.5511 -3.19664
O -5.91081 -1.43039 -12.2458
H -5.75846 -2.16101 -11.5802
H -6.75797 -1.60728 -12.7469
O 4.96766 -3.86053 8.84058
H 5.02651 -3.83951 9.83864
H 4.77218 -2.9413 8.49878
O -9.29456 10.5934 7.40044
H -9.63435 11.2923 8.02984
H -8.42335 10.2365 7.73752
O 14.1055 -2.6651 -13.9614
H -14.8552 -2.69466 -13.4207
H 13.3296 -2.92274 -13.3856
O -11.241 12.8358 -10.5251
H -10.3931 12.5426 -10.9668
H -11.2401 13.8312 -10.4293
O -13.2728 -4.39876 -10.8174
H -13.0011 -5.2471 -10.3629
H -13.6917 -4.61276 -11.6999
O 7.26485 -0.251596 -0.552265
H 7.16296 -0.759195 -1.40783
H 6.79792 -0.74178 0.183756
O 5.65508 4.89322 13.9583
H 6.16513 5.7379 14.1207
H 4.67763 5.06525 14.0808
O -10.6431 -1.36771 1.30978
H -10.5208 -2.34158 1.11834
H -10.8973 -1.24596 2.26926
O 6.56484 -13.547 3.82881
H 7.39761 -13.1355 3.45842
H 6.14538 -14.1325 3.13511
O -11.5379 13.5509 5.57188
H -10.6 13.2186 5.4726
H -11.6323 14.4283 5.10139
O -13.8621 6.92359 -10.532
H -13.3166 6.62475 -9.74898
H -14.449 6.17286 -10.8354
O -2.07849 -9.29599 9.58317
H -1.74359 -9.37114 10.5224
H -2.41491 -8.36808 9.42248
O -11.0945 -11.0533 -11.4065
H -10.8496 -10.145 -11.7456
H -11.1139 -11.6998 -12.1692
O -0.0909736 14.3445 3.18678
H 0.459656 14.7009 3.94163
H -0.854779 -14.8363 3.00935
O -14.6544 2.00499 11.4529
H 14.7776 2.84597 11.0576
H -14.1532 2.22257 12.2904
O -8.30857 -3.45124 11.1974
H -8.51387 -3.59466 12.1656
H -8.5265 -2.50803 10.9467
O -6.42951 -0.0829219 1.98945
H -6.07857 -0.891977 1.51796
H -6.99362 -0.367367 2.76462
O 7.4307 13.717 -14.7389
H 7.58783 12.8042 14.6855
H 8.30714 14.1325 -14.4954
O 3.68179 -6.66145 -11.3566
H 3.68359 -7.46372 -10.7596
H 4.47363 -6.69789 -11.9662
O -10.6654 -13.4431 -4.44331
H -11.2481 -13.7268 -5.20493
H -11.2346 -13.0812 -3.70505
O 2.95775 -4.69366 -5.7572
H 2.15579 -5.20193 -6.07114
H 3.59503 -5.32038 -5.30874
O 4.61871 -10.3233 2.82774
H 4.15809 -9.95006 2.0224
H 5.28861 -9.66183 3.16501
O 8.82515 -14.7295 5.65375
H 9.72573 14.6875 5.45071
H 8.24726 14.3674 6.06586
O -6.35461 3.34263 9.20494
H -6.47169 4.29481 9.4872
H -7.17375 2.82107 9.4437
O 2.6829 13.8108 2.02129
H 3.28437 13.5102 2.76149
H 2.23602 14.6667 2.28166
O 8.41695 -10.4587 -7.56923
H 7.64457 -9.96515 -7.16938
H 8.63065 -11.2564 -7.00538
O 0.30255 -3.14039 7.15705
H 0.38007 -2.94136 6.18012
H 0.222849 -2.28356 7.66648
O -0.621111 -12.9061 11.8735
H -0.762688 -13.1439 10.9126
H -1.32146 -13.3491 12.4332
O -0.318557 12.6984 -7.04088
H -1.13376 12.9947 -6.5432
H 0.0875688 11.9112 -6.57675
O -13.885 -10.0391 -14.0315
H -14.5336 -10.4046 -13.3638
H -13.2309 -10.7517 -14.2853
O -9.79897 5.79227 -0.12216
H -9.49521 4.88452 0.167259
H -10.5913 6.06785 0.422121
O 0.406331 1.64883 8.34036
H 0.557314 1.70245 9.32745
H 1.10779 2.1812 7.86647
O -11.9288 8.6744 -5.66287
H -11.036 8.26936 -5.8598
H -11.8668 9.66979 -5.73627
O -0.439528 11.2321 8.239
H -1.14998 11.0984 8.92996
H -0.679288 12.0121 7.66095
O 4.2733 13.3149 -6.75932
H 4.22981 13.5337 -5.78449
H 5.20389 13.4648 -7.09336
O 0.426199 -10.7399 8.95016
H -0.332351 -10.1579 9.24316
H 0.174929 -11.7004 9.07004
O 7.40893 6.09027 -7.46475
H 8.01033 6.88545 -7.54238
H 7.95677 5.27515 -7.27639
O 11.584 -3.29068 11.1801
H 11.7483 -2.37241 10.8197
H 12.0829 -3.40584 12.039
O -1.96097 -7.01952 -1.33361
H -2.38251 -6.13843 -1.54813
H -2.40051 -7.73904 -1.87131
O 12.7663 6.21111 3.59821
H 12.5497 6.7923 2.81379
H 13.5119 5.58983 3.35693
O 0.157106 1.32229 -11.9559
H 0.387636 0.915924 -11.0717
H -0.428338 0.69444 -12.4688
O -8.08481 1.83887 -1.47368
H -7.68405 2.70474 -1.17417
H -8.4907 1.37034 -0.688973
O 12.1649 -5.59508 3.61892
H 12.6287 -4.87203 3.107
H 12.527 -5.62885 4.55046
O 14.3648 -12.5877 -8.00052
H 14.4526 -13.4071 -8.56705
H 14.0194 -12.8424 -7.09728
O 2.57497 7.5084 11.9851
H 2.44473 8.16577 12.7273
H 3.25987 7.85855 11.3461
O 6.587 8.95662 -6.23456
H 7.21353 9.58843 -5.77816
H 6.70293 9.02966 -7.22514
O 11.2433 14.1038 -4.39226
H 11.7728 14.663 -5.03027
H 10.2898 14.0689 -4.69172
O -8.49173 -4.05087 2.48053
H -8.76638 -3.44133 1.73685
H -8.83038 -4.97379 2.29737
O 10.7532 -2.61368 -9.80617
H 10.403 -3.4871 -9.46776
H 10.1728 -1.8704 -9.47341
O -8.86986 12.2967 -1.90493
H -9.45944 12.7045 -1.20769
H -8.97253 12.799 -2.76355
O -8.9113 4.1246 4.13343
H -9.07922 3.84843 3.18709
H -9.54906 3.64742 4.73807
O -0.255968 12.1593 -13.9718
H 0.550695 12.1311 -13.3814
H -0.170566 11.465 -14.6863
O -2.8887 -3.94578 11.1008
H -2.42998 -4.37581 10.3232
H -2.24107 -3.84577 11.8562
O -1.77162 7.19275 -13.9433
H -1.14378 7.35206 -13.1814
H -2.70826 7.38213 -13.6486
O -4.0755 -11.7417 10.4074
H -3.63619 -10.8501 10.5167
H -3.85918 -12.1114 9.50374
O 12.1586 11.4665 13.6319
H 11.8878 11.9983 14.4343
H 12.8091 10.7579 13.9056
O 8.49549 -8.51129 -3.14711
H 7.53507 -8.2695 -3.00872
H 8.95962 -8.55271 -2.2623
O -5.12783 2.13479 4.94939
H -4.29394 1.58293 4.93891
H -5.34105 2.43427 4.0194
O -2.58204 13.7582 -11.3714
H -3.46807 14.216 -11.4449
H -2.55866 13.2094 -10.5357
O -0.0168232 10.3637 13.8463
H -0.703413 10.9424 13.4061
H -0.140695 9.41631 13.5512
O 11.0777 3.80432 3.12748
H 10.2361 3.52666 3.59068
H 11.4757 4.58959 3.60179
O -2.01255 -14.5714 -0.871883
H -1.23711 -14.3942 -0.265811
H -2.10921 14.2443 -1.00999
O -7.53743 -1.38962 13.813
H -7.63608 -1.31407 14.8053
H -7.42201 -0.477715 13.4192
O -12.7692 11.2015 -9.12233
H -12.167 11.6636 -9.77349
H -12.396 11.2947 -8.19925
O -3.31727 6.88106 -10.418
H -4.04406 6.70589 -9.75382
H -3.2532 7.86399 -10.5905
O -5.46811 -10.5853 -2.4333
H -5.9286 -11.4072 -2.76852
H -4.47872 -10.6952 -2.52841
O 2.33451 14.103 7.13495
H 1.82469 13.8824 7.96648
H 2.30191 -14.7116 6.97595
O 2.14779 0.154009 -3.90746
H 2.27338 -0.54551 -4.61097
H 3.00956 0.29514 -3.42015
O -14.3464 -5.13976 -1.4941
H -14.3537 -4.50184 -0.724017
H -13.4867 -5.04633 -1.99621
O -6.42012 0.336171 -2.95612
H -5.68679 0.347794 -2.27634
H -7.16265 0.934855 -2.65568
O 9.65773 4.96031 8.63207
H 8.97854 4.23498 8.74443
H 9.28628 5.82145 8.97919
O 9.92103 -4.39958 -7.79372
H 10.0602 -4.29295 -6.8092
H 10.7345 -4.81337 -8.20249
O 13.3075 -10.212 -8.45849
H 13.8264 -11.0518 -8.61794
H 12.5454 -10.4035 -7.83987
O 1.7669 -12.2255 -0.056386
H 1.11808 -12.9768 0.0641407
H 1.35397 -11.3736 0.265836
O 5.52651 9.60819 -14.5155
H 5.94966 9.93682 -13.6711
H 4.76581 10.2084 -14.7627
O 11.4941 -5.24514 -1.01911
H 12.323 -4.96246 -1.50184
H 10.8406 -4.48829 -1.00755
O 7.24232 -1.07547 -7.35629
H 6.90837 -0.215444 -6.97047
H 8.04043 -0.895212 -7.93122
O -5.30493 -13.9908 -0.690918
H -5.81029 -14.8224 -0.460539
H -4.9839 -14.047 -1.63633
O 1.56351 11.7543 11.3807
H 0.819998 11.4149 11.957
H 2.42009 11.3124 11.6473
O -9.46491 -3.28572 13.6936
H -10.3313 -3.02625 14.1203
H -8.73089 -2.70889 14.0521
O 5.98271 -7.88869 -2.32916
H 5.74758 -7.41047 -1.48297
H 5.83418 -8.87035 -2.20956
O 12.3589 -5.97625 -5.03921
H 13.0638 -6.52677 -4.59198
H 12.7001 -5.65015 -5.92085
O 13.1088 4.0285 6.00002
H 13.8125 3.96934 5.29189
H 13.5438 4.13974 6.8936
O 4.33923 11.8234 7.09204
H 4.88421 11.2679 6.46395
H 3.40822 11.4609 7.13546
O -11.4429 -6.88227 -11.5682
H -10.5937 -7.37299 -11.7632
H -11.6533 -6.26556 -12.3268
O -10.0092 -6.71306 5.41586
H -9.51474 -6.53072 6.26573
H -9.37319 -7.06507 4.72913
O -3.3419 -3.54141 -14.4525
H -3.27931 -3.2636 -13.4939
H -3.76365 -2.80774 14.8161
O 9.86754 1.54784 7.1709
H 10.3939 1.73741 6.34205
H 9.33001 2.35464 7.41621
O -10.1701 8.32095 13.9575
H -10.2578 8.89559 14.7712
H -9.46914 8.70182 13.3544
O -4.24907 5.41408 -3.8258
H -4.68719 4.64497 -3.36045
H -4.81218 5.69885 -4.60159
O 9.57049 -13.801 12.7674
H 8.73519 -13.3194 12.5022
H 10.3559 -13.3818 12.312
O 8.4413 -5.41258 -0.862617
H 7.53545 -5.83543 -0.836907
H 8.45748 -4.70171 -1.56577
O 0.439166 -3.83297 4.09232
H -0.0116247 -4.05358 3.22736
H 0.875272 -4.65438 4.4599
O 11.1639 -10.2509 10.6254
H 10.7751 -10.3 9.70543
H 11.7377 -9.43539 10.7017
O 10.7404 11.3389 5.19785
H 11.0793 10.6189 4.59221
H 9.9267 11.0137 5.67959
O -6.33303 -4.50466 -4.47605
H -6.73274 -4.96243 -3.68188
H -6.66616 -3.56281 -4.52054
O 13.2317 8.70188 11.2865
H 12.6032 7.96858 11.0271
H 13.6364 9.10066 10.4636
O -1.2354 5.35641 -10.3503
H -1.99443 5.92846 -10.6612
H -1.57215 4.68655 -9.68854
O 1.87081 10.6011 6.9396
H 1.6569 10.761 5.97592
H 1.09031 10.871 7.50353
O -14.8221 -3.15007 -8.70607
H -14.2512 -3.49904 -9.44926
H -14.2413 -2.88137 -7.93761
O 11.0337 -4.52036 7.77861
H 11.6436 -4.26153 8.52759
H 10.0986 -4.24271 7.99912
O 5.70416 -9.59495 -12.0389
H 5.15783 -10.4213 -11.9021
H 6.66915 -9.84349 -12.1229
O -14.3118 -13.2375 5.34505
H 14.8351 -13.8756 5.75053
H -13.3981 -13.6437 5.35862
O -0.84235 -10.1215 12.0178
H -1.46949 -9.87118 12.7555
H -0.815235 -11.117 11.9268
O 6.10497 1.99886 5.69386
H 5.19317 1.58937 5.66281
H 6.69854 1.44678 6.27945
O 0.0731191 9.31804 -2.33954
H -0.781381 9.67861 -2.71349
H 0.27947 8.43832 -2.76796
O 10.6255 3.47434 -3.12777
H 10.8688 2.61846 -3.58418
H 10.0401 4.01806 -3.72913
O 8.8988 -12.9263 -5.61642
H 8.33061 -12.4109 -4.97484
H 8.5558 -13.8629 -5.68734
O 0.797716 -6.29752 5.92893
H 1.17265 -5.92783 6.7791
H 1.26189 -7.15445 5.70479
O -4.41442 -11.3118 -6.82174
H -3.8502 -12.1249 -6.96483
H -4.10434 -10.831 -6.00151
O -3.74056 13.566 6.04502
H -4.44244 14.2378 6.28187
H -3.67767 13.4863 5.05017
O 13.6798 4.14289 1.8274
H 14.1249 3.73615 2.62515
H 12.7199 3.86356 1.80283
O 1.83014 -8.37114 -4.0611
H 2.32636 -7.52011 -3.88922
H 2.24894 -8.85135 -4.83183
O 14.4905 -7.76709 -11.6715
H -14.8316 -7.10059 -12.2426
H -14.7583 -8.59677 -11.5924
O -8.86844 12.3546 5.37642
H -8.98031 11.6831 6.10897
H -8.6555 11.8823 4.52105
O 12.3907 2.30221 -9.18079
H 11.955 2.40297 -10.0753
H 12.6583 3.20236 -8.83709
O 11.8478 9.89075 3.33295
H 11.5511 10.6 2.69341
H 11.5307 8.9984 3.01167
O 12.8831 5.74934 8.97969
H 13.105 6.37748 8.23389
H 12.1572 6.14401 9.54302
O 14.7997 -11.0209 12.7004
H 14.713 -10.2655 12.0509
H 14.3233 -10.7878 13.5482
O -2.8983 -13.9145 13.2442
H -3.70934 -13.4257 13.5656
H -2.33029 -14.1687 14.027
O -12.4116 14.2803 -13.836
H -13.0813 14.4466 -13.1121
H -12.1665 13.3108 -13.8469
O -8.57235 -3.15506 4.88127
H -8.13769 -3.52363 4.05953
H -7.9331 -3.2074 5.64851
O -14.4232 -7.55966 0.942146
H -13.7433 -8.14827 0.504662
H -14.7989 -8.02364 1.74435
O 11.999 0.609616 -6.97904
H 12.4758 -0.232389 -7.23154
H 12.3128 1.35827 -7.56311
O -4.40344 2.45943 -14.324
H -5.17845 3.03895 -14.5761
H -3.54929 2.93825 -14.527
O 5.5249 -7.10819 8.0191
H 5.97395 -6.63316 7.26231
H 4.55138 -6.87959 8.02539
O 7.13937 7.48353 14.5704
H 7.67452 7.86053 13.8144
H 6.44532 8.14667 14.8507
O -8.98355 -13.6219 -7.90624
H -9.39326 -12.8178 -7.47545
H -9.56853 -14.4179 -7.75056
O 5.5951 -10.6817 13.4511
H 5.83625 -9.79521 13.8461
H 6.19265 -10.8733 12.6724
O -8.31004 -5.48096 -10.2568
H -8.77443 -4.66147 -10.5927
H -7.69516 -5.2325 -9.50832
O 4.04547 2.87157 3.30439
H 4.19261 3.61377 2.65055
H 4.89586 2.35912 3.42385
O -8.85576 -14.7237 4.69793
H -8.72226 14.1482 5.04173
H -8.39598 -14.6255 3.81533
O 3.3756 -10.0272 8.17434
H 2.3905 -9.8587 8.13928
H 3.83877 -9.43448 7.51537
O 5.94915 -2.3847 -5.38632
H 6.53472 -1.88508 -6.02469
H 5.8526 -3.3314 -5.69369
O 1.34532 11.4934 3.83684
H 1.5617 10.9587 3.01996
H 0.447415 11.92 3.72786
O 13.0202 -8.78679 2.98807
H 13.0269 -9.72174 2.63331
H 12.6114 -8.17592 2.31004
O -11.1567 -12.8767 -13.5395
H -11.6747 -12.4999 -14.3075
H -11.3132 -13.8628 -13.4838
O -0.11585 -10.1645 -2.72592
H -0.553769 -10.7697 -3.39078
H 0.693439 -9.74624 -3.13836
O -2.23284 4.1497 6.89152
H -3.1372 4.57644 6.88437
H -1.83786 4.19027 5.97371
O -5.51585 -8.89337 10.9028
H -5.53575 -9.37745 10.028
H -5.24618 -7.94237 10.7515
O -13.0986 -9.58822 -0.0307681
H -13.7372 -10.3474 0.0952179
H -12.657 -9.66893 -0.924357
O 11.5977 -6.8501 1.19485
H 11.627 -6.15513 0.476392
H 11.7031 -6.41149 2.08735
O 0.506238 -14.7408 0.45181
H 0.875858 14.2824 -0.0558745
H 0.598264 14.8924 1.43327
O 4.53589 1.99674 -14.5992
H 5.06011 2.55491 -13.956
H 3.99567 2.59217 14.6075
O -12.4943 3.06663 -1.86703
H -12.667 3.32294 -0.915991
H -12.1116 2.14329 -1.89915
O -6.85215 9.35303 -12.2416
H -5.97117 8.91916 -12.0527
H -6.71913 10.3359 -12.369
O 2.51778 -14.045 -2.28602
H 2.29334 -13.5528 -1.44493
H 1.72382 -14.0453 -2.89402
O 13.8107 11.3802 1.70569
H 13.9731 12.2972 2.07008
H 13.6145 11.4404 0.726959
O -2.46077 11.8994 -8.92055
H -1.73398 12.0486 -8.25007
H -2.35498 10.9935 -9.33082
O -2.58851 -0.904384 -2.6276
H -2.11979 -0.0537797 -2.38927
H -2.07394 -1.37988 -3.34114
O -7.45085 13.8113 0.194354
H -7.36676 13.2305 -0.6153
H -7.32813 13.2562 1.01704
O -12.8898 -2.56811 -0.85548
H -13.0132 -2.2495 -1.79532
H -12.992 -1.79764 -0.226219
O -7.82715 -13.0659 10.2081
H -6.95292 -12.7344 10.5628
H -8.45246 -13.2372 10.9694
O -4.4249 3.46213 -11.0181
H -3.42786 3.44163 -11.0925
H -4.68787 3.43512 -10.0537
O 4.07012 11.9498 -13.3529
H 4.87961 12.417 -12.9972
H 3.74406 12.424 -14.1707
O -5.76404 13.3733 -8.64462
H -5.38267 12.7717 -9.34653
H -6.03434 14.2415 -9.06072
O 8.4979 9.72593 -4.06583
H 9.22627 9.77095 -3.3821
H 7.6661 9.36569 -3.6435
O 12.5607 10.8165 7.52304
H 11.7263 11.2512 7.86201
H 12.4827 10.6689 6.53705
O -2.08322 5.71669 11.6109
H -2.47613 6.58755 11.3155
H -1.4522 5.38137 10.9113
O 0.909031 -12.586 -11.0293
H 0.414905 -13.2889 -11.541
H 1.88658 -12.6537 -11.2289
O 4.6931 1.2441 -3.29168
H 4.92479 0.816202 -2.41803
H 5.20502 2.09738 -3.39105
O 0.897421 -10.8398 2.2371
H 1.11036 -10.426 3.1222
H 0.0868999 -10.4002 1.84998
O -3.68363 8.58184 -1.22397
H -4.41158 7.89725 -1.26205
H -3.15089 8.4557 -0.387127
O 2.74323 2.9141 -6.74686
H 3.02965 1.95665 -6.71096
H 3.51451 3.4822 -7.03395
O -3.45241 -5.04969 -2.35695
H -3.41871 -4.91339 -3.34706
H -3.76235 -4.20789 -1.91497
O 6.27985 -10.5501 -1.6406
H 5.50394 -11.0791 -1.98438
H 6.76749 -11.0841 -0.949921
O 12.1776 3.91564 -0.974416
H 11.5253 3.87254 -1.73113
H 12.9732 3.34839 -1.18744
O -5.21708 14.1002 3.41788
H -6.12163 14.39 3.10516
H -4.99474 13.2115 3.0169
O 2.392 5.46283 7.55816
H 1.50247 5.85978 7.78442
H 2.97209 5.45877 8.37272
O -3.6269 -9.68002 13.0248
H -3.31972 -8.9301 13.6107
H -4.18143 -9.31359 12.2776
O -8.25442 -0.480603 7.87897
H -8.18669 -1.44438 7.62094
H -7.42563 0.000161191 7.5926
O 14.5173 2.97253 -7.08555
H 14.0581 3.18934 -6.22409
H 14.598 1.98024 -7.17975
O 11.9976 -10.4557 0.3664
H 11.0991 -10.8177 0.117965
H 12.1644 -9.60586 -0.133504
O -12.277 2.34997 -12.8148
H -13.1933 2.73869 -12.9111
H -12.3282 1.50285 -12.2858
O -1.79403 -6.56566 6.11814
H -0.837009 -6.50241 5.83507
H -2.04068 -7.52615 6.24717
O 14.7413 -9.88662 -6.0185
H 14.4597 -9.10348 -5.46402
H 14.1082 -9.99737 -6.78466
O -1.03699 -0.654625 -13.3131
H -1.99694 -0.557817 -13.0502
H -0.975342 -0.807021 -14.2995
O -12.5094 -0.120439 -11.2021
H -12.2725 0.248664 -10.3033
H -13.5026 -0.212161 -11.2735
O 6.33409 -9.2758 4.94954
H 6.90142 -8.85705 4.24045
H 6.75047 -9.11931 5.84517
O -11.2801 -6.59566 0.133563
H -10.7195 -7.42235 0.181907
H -12.1778 -6.82328 -0.243644
O 8.90279 13.6767 -1.61924
H 9.80632 13.3054 -1.83339
H 8.20434 13.1607 -2.11521
O -1.76553 14.5348 -14.3353
H -1.25472 13.6763 -14.381
H -2.3225 14.5474 -13.5049
O 1.59831 -6.37713 10.5759
H 2.06162 -5.75553 11.2075
H 1.39112 -7.23563 11.045
O 8.61724 7.77503 8.00317
H 9.10255 8.38321 8.63136
H 8.99027 7.88135 7.08145
O 7.66667 -5.43529 -8.58379
H 7.8433 -6.35529 -8.93367
H 8.53276 -5.00056 -8.33698
O -12.2454 -10.1068 -2.9607
H -13.203 -10.389 -3.01775
H -11.7449 -10.4646 -3.74909
O -7.52667 -9.43586 7.29971
H -7.64621 -8.4695 7.5275
H -6.55359 -9.66539 7.32079
O 6.49808 -1.74637 -2.84163
H 6.24245 -1.98679 -3.77805
H 5.68992 -1.78879 -2.25417
O -10.7212 -9.7149 5.26774
H -11.1917 -9.1948 5.98055
H -9.87428 -10.0968 5.63785
O -4.74738 -2.62768 6.77554
H -4.44315 -1.91265 7.40499
H -4.24345 -2.55089 5.9152
O -4.79317 11.37 7.5394
H -4.56952 12.3234 7.33679
H -5.4884 11.047 6.89725
O -10.5093 7.10079 -2.46554
H -10.359 6.62239 -1.60033
H -10.3148 8.07443 -2.34621
O -0.273618 -8.43574 -9.50943
H 0.148408 -8.60768 -10.3996
H -1.12127 -7.92057 -9.63636
O -1.54473 -6.90837 1.30269
H -1.96748 -6.80438 0.402415
H -0.67946 -6.40751 1.32447
O 1.56825 5.31309 -10.2997
H 2.17451 5.74746 -9.63349
H 0.635093 5.29729 -9.9405
O -2.76951 -9.76484 -2.00934
H -3.08841 -10.0521 -1.10613
H -1.77201 -9.82574 -2.04556
O 14.52 -2.09886 1.46724
H -14.8871 -3.01709 1.4293
H 14.5636 -1.75592 2.4056
O 10.6496 -2.93567 14.819
H 10.8641 -2.97267 -14.0064
H 11.4297 -3.27487 14.2932
O 10.0176 -11.8774 5.45289
H 10.7078 -12.2144 4.81251
H 9.81519 -12.5865 6.12835
O -12.4384 -2.49164 -7.09222
H -12.1798 -1.71258 -6.5211
H -11.9269 -2.45987 -7.95088
O 11.8976 11.6838 -9.83249
H 12.6891 11.5926 -9.22814
H 12.1452 11.3834 -10.7536
O -5.17109 10.7814 -0.895799
H -4.40727 10.1451 -1.00424
H -5.98675 10.2776 -0.611316
O 9.24768 -10.3332 12.485
H 9.5466 -10.8376 13.2951
H 9.95427 -10.3868 11.7794
O 4.01408 -8.32307 5.68602
H 4.84501 -8.82289 5.44156
H 3.9571 -7.4853 5.14295
O 11.2557 5.68899 14.6
H 11.8844 5.07173 14.127
H 11.2887 6.59156 14.1706
O -4.09714 0.317825 -9.7436
H -4.1364 0.299382 -10.7427
H -3.43236 1.00424 -9.44876
O -3.53425 -8.60369 4.21779
H -3.26191 -9.10462 3.39625
H -2.81635 -8.6824 4.90949
O 3.38835 8.4966 7.62119
H 2.77412 9.15188 7.18146
H 4.27256 8.50331 7.1541
O -5.45367 4.0089 6.79128
H -5.5921 3.54819 7.66799
H -5.41802 3.32859 6.05921
O -9.59403 -4.25757 -3.90379
H -8.94837 -4.73006 -3.30387
H -9.55432 -4.65943 -4.81865
O 2.22308 0.455428 2.76449
H 3.03215 0.976591 3.03622
H 1.52264 1.08171 2.42217
O -0.89719 -0.653485 13.5178
H -1.02251 -1.6449 13.5556
H -1.63922 -0.243695 12.9872
O -3.07414 -13.2556 -2.94127
H -2.69165 -13.6906 -2.1261
H -3.85951 -13.7841 -3.26366
O -1.0159 -10.6306 -13.2345
H -0.0787514 -10.8866 -13.4716
H -1.08525 -9.63459 -13.1781
O 13.2192 -3.77581 13.5228
H 13.5785 -3.43718 14.3924
H 13.604 -4.67893 13.3322
O -6.74146 -7.0271 -14.7141
H -5.9586 -6.4218 -14.8583
H -6.4862 -7.96441 14.85
O 5.12802 -7.87732 12.7794
H 4.61062 -8.49601 12.1882
H 5.99877 -7.65004 12.3434
O -12.8132 3.57554 -8.04567
H -13.7152 3.34298 -7.68177
H -12.7913 4.54567 -8.2873
O -1.09249 4.16383 9.54804
H -1.28425 4.36637 8.58771
H -0.595623 3.29846 9.6134
O 14.6516 9.76703 9.05326
H -14.2937 9.46599 8.63317
H 14.035 10.1098 8.3445
O 12.9291 -10.0637 14.4888
H 12.8615 -9.09865 14.742
H 12.0111 -10.4418 14.3687
O -14.2642 -6.49082 7.26332
H -14.6672 -7.12609 6.60445
H -14.0604 -5.62381 6.8086
O 0.867586 14.8284 -8.99519
H 0.566457 14.106 -8.37269
H 0.536407 -14.089 -8.66506
O 7.05593 -11.0571 -4.56275
H 7.25656 -10.8226 -3.61155
H 6.67769 -10.2582 -5.03037
O 13.2781 3.99028 -5.04022
H 12.6584 4.76483 -4.91362
H 13.4934 3.58685 -4.15089
O 12.8488 -5.57662 6.14097
H 12.0135 -5.21108 6.55174
H 13.6199 -4.98194 6.3684
O 1.39232 -3.31291 -13.2493
H 1.3102 -2.46422 -13.7718
H 0.944117 -4.05547 -13.7471
O -0.628292 8.51582 7.56845
H -0.451948 9.48731 7.72701
H -0.185835 7.97557 8.28426
O -11.105 -10.4493 11.7914
H -10.2234 -10.0786 11.4994
H -11.73 -10.4768 11.0113
O -1.44021 -9.72763 1.70079
H -1.5312 -8.75427 1.49023
H -2.19881 -10.2306 1.28658
O 9.42611 -12.8465 -12.6331
H 9.72095 -12.4926 -11.7455
H 8.42769 -12.8255 -12.6854
O -5.82539 -12.4501 12.3148
H -5.06722 -12.187 11.7181
H -5.81928 -11.8767 13.1341
O 4.97124 -6.73953 -7.48372
H 5.0945 -5.80047 -7.16278
H 4.00394 -6.98684 -7.42718
O -14.2895 -7.77537 3.9502
H 14.5358 -7.99267 3.95461
H -13.7595 -8.62059 4.0193
O -1.23284 4.64158 -7.5454
H -0.703186 5.48776 -7.48644
H -0.649636 3.90674 -7.89168
O -7.31216 1.71907 -5.82137
H -6.65148 1.00319 -5.5954
H -8.23926 1.37852 -5.66472
O -10.6361 -0.600907 3.92505
H -11.1095 -1.37139 4.35199
H -9.67892 -0.596005 4.21451
O 0.372322 -4.02024 -3.7156