LAMMPS data file via write_data, version 15 May 2015, timestep = 1009000

2593 atoms
6 atom types
1728 bonds
4 bond types
864 angles
3 angle types
0 dihedrals
3 dihedral types
0 impropers
1 improper types

-1.4948876250424618e+01 1.4948876250424618e+01 xlo xhi
-1.4948876250424618e+01 1.4948876250424618e+01 ylo yhi
-1.4948876250424618e+01 1.4948876250424618e+01 zlo zhi

Masses

1 15.9994
2 1.00794
3 12.0107
4 1.00794
5 12.0107
6 12.0107

Bond Coeffs # harmonic

1 1000 1
2 469 1.4
3 367 1.08
4 469 0.7

Angle Coeffs # harmonic

1 100 109.47
2 35 120
3 63 120

Dihedral Coeffs # opls

1 0 7.25 0 0
2 0 7.25 0 0
3 0 7.25 0 0

Improper Coeffs # cvff

1 2.5 -1 2

Atoms # full

1456 486 1 -8.1999999999999995e-01 -9.1182184570773455e+00 -1.0197039148759604e+01 -1.0838049029310344e+01 0 0 3
589 197 1 -8.1999999999999995e-01 -1.0679397651346484e+01 -1.3086629821966369e+01 -8.1526576088769183e+00 1 1 2
2011 671 1 -8.1999999999999995e-01 -7.1258621709170047e+00 -1.1944480297746463e+01 -1.0009838051655118e+01 2 2 1
1964 655 2 4.0999999999999998e-01 -9.3315238541315235e+00 -1.0263805427289075e+01 -1.4183666117804107e+01 -1 0 -1
1027 343 1 -8.1999999999999995e-01 -1.3925472093499836e+01 -1.4023480386488663e+01 -1.0649614012026285e+01 2 2 0
2013 671 2 4.0999999999999998e-01 -7.9065650976341564e+00 -1.1319631130881817e+01 -9.9978739272425976e+00 2 2 1
1458 486 2 4.0999999999999998e-01 -8.7352633049359323e+00 -9.2942210908128882e+00 -1.1033860048728542e+01 0 0 3
833 278 2 4.0999999999999998e-01 -9.9853201441310038e+00 -1.4767455859555310e+01 -1.0456280482711854e+01 0 2 0
1965 655 2 4.0999999999999998e-01 -9.8354401097624979e+00 -1.0626216272266284e+01 -1.2673183178832703e+01 -1 0 -1
1963 655 1 -8.1999999999999995e-01 -1.0097787077520620e+01 -1.0603035424981574e+01 -1.3637918247117732e+01 -1 0 -1
591 197 2 4.0999999999999998e-01 -9.7061071126827869e+00 -1.3185802249817259e+01 -8.3598950670507310e+00 1 1 2
1850 617 2 4.0999999999999998e-01 -8.1328563688487847e+00 -1.3301002534377851e+01 -1.3296913254864391e+01 -1 1 2
618 206 2 4.0999999999999998e-01 -1.2537355750548425e+01 -1.0835419583405130e+01 -9.7352145331761015e+00 -1 1 2
1470 490 2 4.0999999999999998e-01 -1.3872265106092328e+01 -9.9054802969094631e+00 -8.7048743639164101e+00 1 3 1
1849 617 1 -8.1999999999999995e-01 -8.8331821799828241e+00 -1.4010490400834945e+01 -1.3217870437524811e+01 -1 1 2
2452 818 1 -8.1999999999999995e-01 -9.0269276909552261e+00 -6.8270576919165045e+00 -1.4363813698594296e+01 -3 -1 1
2012 671 2 4.0999999999999998e-01 -7.1891472464180541e+00 -1.2571882782511498e+01 -9.2336691649782221e+00 2 2 1
456 152 2 4.0999999999999998e-01 -5.7549126900987666e+00 -1.2273104050158349e+01 -1.3006925949556486e+01 0 2 0
455 152 2 4.0999999999999998e-01 -6.9320275229270898e+00 -1.2010019777501832e+01 -1.1906008454781803e+01 0 2 0
454 152 1 -8.1999999999999995e-01 -6.7301317266416074e+00 -1.2090181754946693e+01 -1.2882168903239368e+01 0 2 0
1655 552 2 4.0999999999999998e-01 -1.4297482607318507e+01 -1.4534977833286852e+01 -1.4873190163822242e+01 -1 3 0
776 259 2 4.0999999999999998e-01 -1.0510807134456208e+01 -1.0285807777541063e+00 -8.0498069565847210e+00 1 2 1
294 98 2 4.0999999999999998e-01 -1.4532571739988509e+01 -1.2427990729105055e+01 -1.3292954744531158e+01 2 1 1
1199 400 2 4.0999999999999998e-01 -1.4235832533729120e+01 -1.3310520060538639e+01 -8.4870190696105929e+00 0 1 -1
2309 770 2 4.0999999999999998e-01 -1.0596255858582911e+01 -1.2892334601029267e+01 -1.2123603432437942e+01 1 3 1
1450 484 1 -8.1999999999999995e-01 -1.2838307293501378e+01 -8.4405274047001271e+00 -7.8717125778552202e+00 3 1 -1
1457 486 2 4.0999999999999998e-01 -1.0047397684920140e+01 -1.0095043394395931e+01 -1.0482662324043996e+01 0 0 3
1938 646 2 4.0999999999999998e-01 -8.4794693991914656e+00 -4.5262409220487676e-01 -8.1234432615963961e+00 0 1 -1
293 98 2 4.0999999999999998e-01 -1.4034053424258236e+01 -1.0884885080356330e+01 -1.3485662859035315e+01 2 1 1
292 98 1 -8.1999999999999995e-01 -1.4114493815835694e+01 -1.1642045935959739e+01 -1.2837346703030862e+01 2 1 1
1943 648 2 4.0999999999999998e-01 -8.0428477693263538e+00 -1.4233399174057636e+01 -9.2666278677013008e+00 -1 1 1
189 63 2 4.0999999999999998e-01 -7.3887880592620485e+00 -1.0028929056027405e+01 -1.4513988029658604e+01 0 0 1
616 206 1 -8.1999999999999995e-01 -1.1563314831381826e+01 -1.0902575352114766e+01 -9.9515740104193640e+00 -1 1 2
1028 343 2 4.0999999999999998e-01 -1.3398135879496476e+01 -1.3419598188048820e+01 -1.1247376391090091e+01 2 2 0
2516 839 2 4.0999999999999998e-01 -1.1805094201484334e+01 -1.0079612241178133e+01 -1.3998856300372630e+01 1 0 2
2515 839 1 -8.1999999999999995e-01 -1.2708016609413679e+01 -9.7875764309208897e+00 -1.4314329373924332e+01 1 0 2
617 206 2 4.0999999999999998e-01 -1.1192071898449079e+01 -1.1744383803937014e+01 -9.5596374745642549e+00 -1 1 2
1942 648 1 -8.1999999999999995e-01 -7.8657917137281688e+00 -1.4049130251037035e+01 -8.2997912105028728e+00 -1 1 1
2310 770 2 4.0999999999999998e-01 -1.1941007555957853e+01 -1.1969150784519076e+01 -1.2202384685907820e+01 1 3 1
2132 711 2 4.0999999999999998e-01 -1.3252629818248931e+01 -8.3617902561375548e+00 -1.3455192424750001e+01 1 1 2
2308 770 1 -8.1999999999999995e-01 -1.1590008449420518e+01 -1.2905005320787886e+01 -1.2234834195824948e+01 1 3 1
12 4 2 4.0999999999999998e-01 -1.0174264495955370e+01 -7.2829076580179484e+00 -9.7413374984033538e+00 1 1 1
2251 751 1 -8.1999999999999995e-01 -7.7264521028159345e+00 -7.5654872456341575e+00 -1.0483062354304138e+01 3 2 2
834 278 2 4.0999999999999998e-01 -8.7916973183709590e+00 -1.4460170379323630e+01 -1.1527575114554082e+01 0 2 0
930 310 2 4.0999999999999998e-01 -1.3087344304795938e+01 -4.7716089398777992e+00 -7.8030561793727067e+00 3 0 3
1851 617 2 4.0999999999999998e-01 -9.0842244763155673e+00 -1.4334158335848660e+01 -1.4130171788910037e+01 -1 1 2
612 204 2 4.0999999999999998e-01 -5.1442371595105190e+00 -4.9336896945419362e+00 -1.0915353930732802e+01 0 0 1
2445 815 2 4.0999999999999998e-01 -5.9658607984030994e+00 -1.0513298678577605e+01 -1.0059068213081659e+01 0 2 2
1468 490 1 -8.1999999999999995e-01 -1.4343507396983068e+01 -1.0404847820717603e+01 -9.4319505797196008e+00 1 3 1
1200 400 2 4.0999999999999998e-01 -1.2876118797827193e+01 -1.2688655868485871e+01 -7.8302881904240031e+00 0 1 -1
856 286 1 -8.1999999999999995e-01 -1.4056130517600270e+01 -4.0363841968806646e-01 -8.6858323400725297e+00 0 4 1
929 310 2 4.0999999999999998e-01 -1.4491178858270622e+01 -5.4714073780387871e+00 -8.2573275695858062e+00 3 0 3
26 9 2 4.0999999999999998e-01 -1.1488625596255474e+01 -1.3431551098395786e+00 -1.3846546678655923e+01 0 1 1
2416 806 1 -8.1999999999999995e-01 -1.4219461913964858e+01 -2.0853104160159344e+00 -1.4373403477386091e+01 4 1 1
2418 806 2 4.0999999999999998e-01 -1.4083248872079665e+01 -2.9837977487457898e+00 -1.3955978510636720e+01 4 1 1
25 9 1 -8.1999999999999995e-01 -1.1981327914853168e+01 -6.2326495887270994e-01 -1.4335504378328396e+01 0 1 1
858 286 2 4.0999999999999998e-01 -1.4751366926811396e+01 -1.0740609045337948e+00 -8.4264925980305350e+00 0 4 1
1936 646 1 -8.1999999999999995e-01 -8.7604616689028614e+00 -1.0584958219970915e+00 -8.8677817944199937e+00 0 1 -1
361 121 1 -8.1999999999999995e-01 -7.6341872947681138e+00 -7.2144082830169598e+00 -7.8016456540969994e+00 -1 1 -1
805 269 1 -8.1999999999999995e-01 -5.0941671916342930e+00 -1.2496617697006052e+00 -1.0464549148173589e+01 -1 3 1
1944 648 2 4.0999999999999998e-01 -7.4818511451809355e+00 -1.4866201619004515e+01 -7.8696040222066506e+00 -1 1 1
1469 490 2 4.0999999999999998e-01 -1.4942188465760704e+01 -9.7791596920474788e+00 -9.9321229489812755e+00 1 3 1
1512 504 2 4.0999999999999998e-01 -9.4121401292924105e+00 -7.2524028288951889e+00 -1.1373613834022880e+01 0 1 0
1029 343 2 4.0999999999999998e-01 -1.4874053340928713e+01 -1.4058639547055209e+01 -1.0964311499356661e+01 2 2 0
1511 504 2 4.0999999999999998e-01 -1.0271233025202340e+01 -7.1442024514294404e+00 -1.2758201840395913e+01 0 1 0
1451 484 2 4.0999999999999998e-01 -1.2106508924352283e+01 -7.9215116620605999e+00 -8.3134940596624034e+00 3 1 -1
1514 505 2 4.0999999999999998e-01 -6.3852050679506061e+00 -3.1940838541405618e+00 -8.6796967558324063e+00 1 2 -2
1513 505 1 -8.1999999999999995e-01 -6.9770798677160037e+00 -2.8153166078440819e+00 -7.9681515222814108e+00 1 2 -2
610 204 1 -8.1999999999999995e-01 -5.1864798533948075e+00 -4.6710437330822518e+00 -9.9513468287928095e+00 0 0 1
2163 721 2 4.0999999999999998e-01 -8.1238148212511625e+00 -1.2361655663680917e+00 -1.2188479358514218e+01 0 -1 3
2417 806 2 4.0999999999999998e-01 -1.4854519442252299e+01 -1.5512614404127056e+00 -1.3815218295564566e+01 4 1 1
1357 453 1 -8.1999999999999995e-01 -5.3115257688141195e+00 -5.7967710381219693e+00 -1.2540412162803491e+01 0 1 1
203 68 2 4.0999999999999998e-01 -1.3441053589294615e+01 -2.1114990784476575e+00 -9.7464165558215701e+00 1 -1 2
2008 670 1 -8.1999999999999995e-01 -1.3637914677012896e+01 -4.2154907563082187e+00 -1.2689937394939630e+01 1 2 2
27 9 2 4.0999999999999998e-01 -1.2940483264127741e+01 -8.8678804024906910e-01 -1.4438720821590913e+01 0 1 1
2010 670 2 4.0999999999999998e-01 -1.3309495540016083e+01 -3.7458780437118939e+00 -1.1870375432523177e+01 1 2 2
202 68 1 -8.1999999999999995e-01 -1.2899411035320078e+01 -2.6532725003251691e+00 -1.0389208781617175e+01 1 -1 2
160 54 1 -8.1999999999999995e-01 -1.0621169157719002e+01 -2.2799849479505827e+00 -1.2396414058476170e+01 -1 1 0
1205 402 2 4.0999999999999998e-01 -1.1225029433654228e+01 -5.3389297631442592e+00 -8.6827412993420019e+00 2 1 2
2009 670 2 4.0999999999999998e-01 -1.2987337064689088e+01 -4.9297626659418210e+00 -1.2948087332429189e+01 1 2 2
2131 711 1 -8.1999999999999995e-01 -1.3330001296213268e+01 -7.7010045250227410e+00 -1.2708564705627911e+01 1 1 2
1204 402 1 -8.1999999999999995e-01 -1.1553483495262928e+01 -4.3967710356611303e+00 -8.6154221206104058e+00 2 1 2
2533 845 1 -8.1999999999999995e-01 -7.0913817032789028e+00 -3.7371139265998412e+00 -1.4204297513631694e+01 0 0 1
1358 453 2 4.0999999999999998e-01 -5.9969196090574393e+00 -5.2388128179447992e+00 -1.3008381152426047e+01 0 1 1
1206 402 2 4.0999999999999998e-01 -1.0789162855939747e+01 -3.7926329193398463e+00 -8.3897937758710981e+00 2 1 2
2162 721 2 4.0999999999999998e-01 -6.7166966382597462e+00 -1.4733381821574998e+00 -1.1394376394399373e+01 0 -1 3
161 54 2 4.0999999999999998e-01 -9.7702802647422526e+00 -2.5329744246458219e+00 -1.1935913162813955e+01 -1 1 0
1937 646 2 4.0999999999999998e-01 -8.3206782753340214e+00 -1.9496879020595728e+00 -8.7562285225657988e+00 0 1 -1
2252 751 2 4.0999999999999998e-01 -7.6076802740020044e+00 -7.4672514636400384e+00 -9.4949732682420436e+00 3 2 2
204 68 2 4.0999999999999998e-01 -1.2378896770529522e+01 -3.3439239294423260e+00 -9.8870707906066606e+00 1 -1 2
2133 711 2 4.0999999999999998e-01 -1.2621301277743379e+01 -7.8836220279484053e+00 -1.2027042787927183e+01 1 1 2
2535 845 2 4.0999999999999998e-01 -7.3278913650631887e+00 -3.2843814884862592e+00 -1.3344545500747415e+01 0 0 1
2161 721 1 -8.1999999999999995e-01 -7.4266676652984485e+00 -1.9109682753171171e+00 -1.1946189860310971e+01 0 -1 3
162 54 2 4.0999999999999998e-01 -1.1387413870347061e+01 -2.3857856777599160e+00 -1.1762574762276296e+01 -1 1 0
11 4 2 4.0999999999999998e-01 -9.5566298233590814e+00 -6.8244563751002332e+00 -8.3007884140435060e+00 1 1 1
775 259 1 -8.1999999999999995e-01 -1.1395303745974239e+01 -1.0047180045647313e+00 -7.5837883588834520e+00 1 2 1
10 4 1 -8.1999999999999995e-01 -1.0390377799587210e+01 -6.8850359935091898e+00 -8.8496704089452276e+00 1 1 1
777 259 2 4.0999999999999998e-01 -1.2039826803058268e+01 -4.5933301715743369e-01 -8.1197195753099631e+00 1 2 1
1198 400 1 -8.1999999999999995e-01 -1.3772565709394307e+01 -1.3084139666698931e+01 -7.6301568679379912e+00 0 1 -1
2253 751 2 4.0999999999999998e-01 -6.9305921750205837e+00 -7.1847503988728070e+00 -1.0953937579398028e+01 3 2 2
1510 504 1 -8.1999999999999995e-01 -1.0330998288624810e+01 -7.1737828715992444e+00 -1.1760389373727069e+01 0 1 0
2443 815 1 -8.1999999999999995e-01 -5.3772790141344444e+00 -9.7615225183783316e+00 -9.7616103979218565e+00 0 2 2
832 278 1 -8.1999999999999995e-01 -9.0503693225147366e+00 -1.4428708211668443e+01 -1.0562082499267422e+01 0 2 0
928 310 1 -8.1999999999999995e-01 -1.4078850725783076e+01 -4.7726363333946242e+00 -7.6727067032075595e+00 3 0 3
2454 818 2 4.0999999999999998e-01 -8.4543261161683994e+00 -7.5853301654111549e+00 -1.4675626634455639e+01 -3 -1 1
1772 591 2 4.0999999999999998e-01 -5.5843461169352864e+00 -5.4798825640590056e+00 -8.3473561439251753e+00 0 0 1
590 197 2 4.0999999999999998e-01 -1.1039264183252254e+01 -1.3957426883134813e+01 -7.8175672111802319e+00 1 1 2
2453 818 2 4.0999999999999998e-01 -8.5468622096827467e+00 -5.9628653925657513e+00 -1.4514763387862660e+01 -3 -1 1
2168 723 2 4.0999999999999998e-01 -1.1454922299550233e+01 -1.4663084453811472e+01 -1.2711753503253583e+01 0 2 0
2534 845 2 4.0999999999999998e-01 -6.5466789150950326e+00 -3.1168527812155080e+00 -1.4768790221243995e+01 0 0 1
2444 815 2 4.0999999999999998e-01 -5.1609275805051524e+00 -9.8713717405744781e+00 -8.7914546150764963e+00 0 2 2
1840 614 1 -8.1999999999999995e-01 -9.7369228477888505e+00 -1.0511970820025669e+01 -2.7717716751486670e+00 1 0 1
1841 614 2 4.0999999999999998e-01 -9.2006706501757662e+00 -9.6791263055298842e+00 -2.9091785701667039e+00 1 0 1
363 121 2 4.0999999999999998e-01 -7.7189040820313259e+00 -8.0833223665271898e+00 -7.3139075477032511e+00 -1 1 -1
1828 610 1 -8.1999999999999995e-01 -9.7956092066188383e+00 -1.4621205791576045e+01 -4.5554158767919848e+00 1 1 2
316 106 1 -8.1999999999999995e-01 -1.4808046737544151e+01 -9.6766238912871003e+00 -5.4475347737585658e+00 2 3 3
1842 614 2 4.0999999999999998e-01 -9.7256386442752731e+00 -1.1057721846699650e+01 -3.6096890491072031e+00 1 0 1
1826 609 2 4.0999999999999998e-01 -1.3226450955283577e+01 -1.4419515157542952e+01 -2.5932118641870172e+00 2 1 0
2513 838 2 4.0999999999999998e-01 -9.7121538091825244e+00 -1.2148882473199757e+01 -2.0466377954078556e+00 1 0 0
2512 838 1 -8.1999999999999995e-01 -9.3706077635759328e+00 -1.3016224791679743e+01 -1.6845043367403747e+00 1 0 0
2514 838 2 4.0999999999999998e-01 -9.2291893095708666e+00 -1.3659166973711411e+01 -2.4373012591465208e+00 1 0 0
1096 366 1 -8.1999999999999995e-01 -1.0389173998653719e+01 -7.8745289130364489e+00 -5.1512238082662272e+00 0 1 1
1098 366 2 4.0999999999999998e-01 -9.4285320669058663e+00 -7.8059741391136157e+00 -4.8818835601289550e+00 0 1 1
104 35 2 4.0999999999999998e-01 -1.2377771327151960e+01 -7.7612021908895388e+00 -4.1421032883802820e+00 0 0 1
1097 366 2 4.0999999999999998e-01 -1.0583405983876883e+01 -8.8059945970745712e+00 -5.4589938631369233e+00 0 1 1
103 35 1 -8.1999999999999995e-01 -1.3301445712791669e+01 -7.9300566112239057e+00 -3.7980238458506168e+00 0 0 1
1193 398 2 4.0999999999999998e-01 -9.2209085721348423e+00 -1.3494505670921619e+01 -1.9902962199789087e-01 0 1 2
2348 783 2 4.0999999999999998e-01 -1.0346702440410326e+01 -1.1510345577368662e+01 -5.7365171477741992e+00 1 3 2
2365 789 1 -8.1999999999999995e-01 -6.7862092661891875e+00 -1.1114643591176716e+01 -1.6562786770599711e+00 1 2 0
2367 789 2 4.0999999999999998e-01 -7.0053443257537458e+00 -1.0153806060835585e+01 -1.4864315007015261e+00 1 2 0
2366 789 2 4.0999999999999998e-01 -7.6328085325904595e+00 -1.1634111159953113e+01 -1.7724689883730509e+00 1 2 0
973 325 1 -8.1999999999999995e-01 -1.3056989971126919e+01 -2.0330399802140846e+00 -1.2245195205579780e+00 0 3 2
2185 729 1 -8.1999999999999995e-01 -1.4573377054924576e+01 -5.6654383123814807e+00 -5.1955143963484236e+00 0 0 1
1347 449 2 4.0999999999999998e-01 -1.1997681854473212e+01 -9.7149839586091815e+00 -7.0922754352430841e+00 0 1 0
2406 802 2 4.0999999999999998e-01 -1.3521588694126647e+01 -1.1809361669760293e+01 -1.7812713470230968e+00 2 0 2
1472 491 2 4.0999999999999998e-01 -8.0656515946814302e+00 -8.4939220434800937e+00 -2.0693314559593396e+00 0 3 1
1471 491 1 -8.1999999999999995e-01 -8.2689886722500567e+00 -8.4148300933832800e+00 -3.0452799873498577e+00 0 3 1
650 217 2 4.0999999999999998e-01 -6.7408906391787262e+00 -2.7458130985130271e+00 -4.2319443246435764e+00 1 2 -1
2405 802 2 4.0999999999999998e-01 -1.4898944034653059e+01 -1.2666738890852093e+01 -1.9673587468419207e+00 2 0 2
1829 610 2 4.0999999999999998e-01 -9.6405329004369360e+00 -1.3640745331369393e+01 -4.6767653715561561e+00 1 1 2
654 218 2 4.0999999999999998e-01 -6.2491910950066707e+00 -1.4293554658783146e+01 -3.2072587315786407e+00 -1 0 1
1935 645 2 4.0999999999999998e-01 -7.3194577205739408e+00 -8.9470746688517870e+00 -4.9783011005198059e+00 0 1 3
1933 645 1 -8.1999999999999995e-01 -7.7921648664373420e+00 -9.2575172125188168e+00 -5.8030739843268062e+00 0 1 3
2297 766 2 4.0999999999999998e-01 -1.1140328847658692e+01 -1.0457646211550411e+01 -1.9172906453872045e+00 1 2 3
1934 645 2 4.0999999999999998e-01 -7.5742334131855271e+00 -1.0219105888594145e+01 -5.9701971855082387e+00 0 1 3
2404 802 1 -8.1999999999999995e-01 -1.3902675960926342e+01 -1.2694124711586552e+01 -2.0496812991702704e+00 2 0 2
1345 449 1 -8.1999999999999995e-01 -1.1686076732421380e+01 -1.0260226117562286e+01 -6.3140143654735290e+00 0 1 0
751 251 1 -8.1999999999999995e-01 -1.3557969602836073e+01 -1.2069709635485513e+01 -5.0927529510504659e+00 1 1 2
1374 458 2 4.0999999999999998e-01 -1.2270302421211627e+01 -2.4914368887930873e+00 -4.2262608217584710e+00 0 3 0
2296 766 1 -8.1999999999999995e-01 -1.1977538288956334e+01 -1.0618652069839495e+01 -1.3945723003850272e+00 1 2 3
742 248 1 -8.1999999999999995e-01 -7.5061040739538649e+00 -8.8432923282823950e+00 -4.4658914490918100e-01 0 1 0
1926 642 2 4.0999999999999998e-01 -5.7580825224826988e+00 -1.2330561840478474e+01 -2.4333315394037793e+00 -2 4 1
1827 609 2 4.0999999999999998e-01 -1.1730170566793905e+01 -1.4788522753342145e+01 -3.1334065286395507e+00 2 1 0
105 35 2 4.0999999999999998e-01 -1.3804417024012414e+01 -8.4916621629922950e+00 -4.4550596476185280e+00 0 0 1
335 112 2 4.0999999999999998e-01 -6.3298389080837172e+00 -1.2137820539481092e+01 -6.3840027175977028e+00 -1 1 2
2298 766 2 4.0999999999999998e-01 -1.2508777339839670e+01 -9.7727120702563894e+00 -1.3471627361661227e+00 1 2 3
334 112 1 -8.1999999999999995e-01 -7.3193562070625511e+00 -1.2031910220966488e+01 -6.4825700247008200e+00 -1 1 2
2347 783 1 -8.1999999999999995e-01 -9.6663983978290133e+00 -1.1889277965165931e+01 -5.1090829318041759e+00 1 3 2
1473 491 2 4.0999999999999998e-01 -8.2907150112395271e+00 -7.4490936937989103e+00 -3.3040427991038577e+00 0 3 1
2349 783 2 4.0999999999999998e-01 -8.7943710297951441e+00 -1.1994878055409202e+01 -5.5870933524303119e+00 1 3 2
1346 449 2 4.0999999999999998e-01 -1.2458009843073109e+01 -1.0769472096341683e+01 -5.9334032010737285e+00 0 1 0
336 112 2 4.0999999999999998e-01 -7.6772338215019360e+00 -1.2765690664660026e+01 -7.0601225616857120e+00 -1 1 2
753 251 2 4.0999999999999998e-01 -1.3970137055840993e+01 -1.2459366434918120e+01 -5.9163806555596992e+00 1 1 2
317 106 2 4.0999999999999998e-01 -1.4760972888009860e+01 -1.0641341484860956e+01 -5.1883416672814864e+00 2 3 3
975 325 2 4.0999999999999998e-01 -1.2426311039794735e+01 -2.2853980669786527e+00 -1.9584380203157163e+00 0 3 2
1924 642 1 -8.1999999999999995e-01 -5.2402665798012702e+00 -1.2946682309367763e+01 -3.0269132697831118e+00 -2 4 1
235 79 1 -8.1999999999999995e-01 -8.9601983912448979e+00 -4.0537355261003540e+00 -6.5599709777328155e+00 1 1 1
2045 682 2 4.0999999999999998e-01 -5.6881604904535958e+00 -3.9089012764754969e+00 -6.8292628707775727e-01 1 0 -1
120 40 2 4.0999999999999998e-01 -9.6753530504292762e+00 -2.1083064011819168e+00 -4.0621671948481772e+00 0 1 1
2178 726 2 4.0999999999999998e-01 -7.2783485222284368e+00 -5.3320883272135617e+00 -4.4593340925308311e+00 0 1 2
664 222 1 -8.1999999999999995e-01 -1.3165282748241522e+01 -1.6097826393512840e+00 -5.4670567501491849e+00 1 1 1
2115 705 2 4.0999999999999998e-01 -1.0542210297867751e+01 -4.7887384247575806e+00 -5.8021966248509553e+00 0 -1 3
2114 705 2 4.0999999999999998e-01 -1.1070258557952648e+01 -6.2028952501699717e+00 -5.1791737770417168e+00 0 -1 3
752 251 2 4.0999999999999998e-01 -1.3934555257432688e+01 -1.2523316388872502e+01 -4.2849774785283881e+00 1 1 2
1136 379 2 4.0999999999999998e-01 -1.3307152833749793e+01 -7.5653268013378838e+00 -7.3024430718657563e-01 1 1 0
649 217 1 -8.1999999999999995e-01 -5.8074555935746712e+00 -2.5681960515649429e+00 -3.9201298627893735e+00 1 2 -1
1581 527 2 4.0999999999999998e-01 -1.0876816349186052e+01 -3.8950869256388696e+00 -1.4442662680548271e+00 1 1 1
1579 527 1 -8.1999999999999995e-01 -1.0326520273922430e+01 -4.7038147032057278e+00 -1.2363946149339231e+00 1 1 1
2177 726 2 4.0999999999999998e-01 -8.5172076808212687e+00 -5.6210700271147029e+00 -5.4833210299797361e+00 0 1 2
118 40 1 -8.1999999999999995e-01 -8.8193895625561840e+00 -2.0924046675759236e+00 -4.5790334177766052e+00 0 1 1
2176 726 1 -8.1999999999999995e-01 -8.0617516427871543e+00 -5.9248333802344000e+00 -4.6464431483646074e+00 0 1 2
236 79 2 4.0999999999999998e-01 -8.9653746457030650e+00 -3.2631749962399290e+00 -5.9475460206873176e+00 1 1 1
2186 729 2 4.0999999999999998e-01 -1.4393547440853400e+01 -5.0549044617130274e+00 -5.9668682626325538e+00 0 0 1
2113 705 1 -8.1999999999999995e-01 -1.0991601229967710e+01 -5.2188760263094434e+00 -5.0191854773893692e+00 0 -1 3
55 19 1 -8.1999999999999995e-01 -5.3863392624297202e+00 -9.2049927158861067e-01 -6.0436690209807562e+00 0 0 0
666 222 2 4.0999999999999998e-01 -1.2628112052156153e+01 -1.7371639155769483e+00 -6.3009024614745286e+00 1 1 1
1373 458 2 4.0999999999999998e-01 -1.1193099654496692e+01 -3.7148168821437544e+00 -4.1272277447947854e+00 0 3 0
2187 729 2 4.0999999999999998e-01 -1.3706998341375478e+01 -5.9369908624072991e+00 -4.7763196970012594e+00 0 0 1
974 325 2 4.0999999999999998e-01 -1.3785575784769605e+01 -2.7151799108290682e+00 -1.1618714445119487e+00 0 3 2
1137 379 2 4.0999999999999998e-01 -1.3751149471799994e+01 -8.1237246959513030e+00 -2.1992204058334011e+00 1 1 0
1771 591 1 -8.1999999999999995e-01 -5.4364564782441143e+00 -5.8666888284340679e+00 -7.4370888045077486e+00 0 0 1
1135 379 1 -8.1999999999999995e-01 -1.3464879915791510e+01 -8.3870585996739528e+00 -1.2779267250383111e+00 1 1 0
1580 527 2 4.0999999999999998e-01 -1.0027297755980324e+01 -5.1316247004277731e+00 -2.0893433460578006e+00 1 1 1
1372 458 1 -8.1999999999999995e-01 -1.1526495463833545e+01 -2.8825678155265315e+00 -3.6841862268731731e+00 0 3 0
119 40 2 4.0999999999999998e-01 -8.7074168174482551e+00 -1.1974443121843450e+00 -5.0109883709582039e+00 0 1 1
651 217 2 4.0999999999999998e-01 -5.3112566564721995e+00 -2.0614442484972368e+00 -4.6251591510250289e+00 1 2 -1
665 222 2 4.0999999999999998e-01 -1.3226095836185532e+01 -6.3427235419305283e-01 -5.2554946575146158e+00 1 1 1
545 182 2 4.0999999999999998e-01 -1.4624259438898076e+01 -9.8337918870083563e+00 -1.1339636254039824e+00 1 0 1
354 118 2 4.0999999999999998e-01 -1.4009812267871631e+01 -1.6466563541582957e-01 -1.7217052689387575e+00 -1 2 0
2430 810 2 4.0999999999999998e-01 -5.3369363295244838e+00 -4.4201293665107180e+00 -2.7338695962473540e+00 2 2 0
1452 484 2 4.0999999999999998e-01 -1.3312178630749591e+01 -7.8548482188458610e+00 -7.2140630548554334e+00 3 1 -1
237 79 2 4.0999999999999998e-01 -8.2652292908689908e+00 -3.9230494360655896e+00 -7.2670891844888903e+00 1 1 1
744 248 2 4.0999999999999998e-01 -7.0979508591767999e+00 -7.9787065690734682e+00 -1.5336655121956255e-01 0 1 0
2559 853 2 4.0999999999999998e-01 -1.3023552823375073e+01 -1.3452308168844951e+01 -1.2081441008918326e-01 2 2 2
1515 505 2 4.0999999999999998e-01 -6.4327036096236583e+00 -2.6148543102477309e+00 -7.1535680366922643e+00 1 2 -2
1925 642 2 4.0999999999999998e-01 -5.0511849274125176e+00 -1.2490831789361398e+01 -3.8966979818751852e+00 -2 4 1
2046 682 2 4.0999999999999998e-01 -7.2626442858484861e+00 -3.8639657399115670e+00 -2.5186566163313806e-01 1 0 -1
362 121 2 4.0999999999999998e-01 -6.8949466916330913e+00 -6.6758480888868750e+00 -7.3972284078000925e+00 -1 1 -1
505 169 1 -8.1999999999999995e-01 -6.6345043694027996e+00 -1.1968124568939604e+01 4.5864498476614735e+00 0 1 0
507 169 2 4.0999999999999998e-01 -6.3863182762954089e+00 -1.1967071260834803e+01 3.6176983006134726e+00 0 1 0
506 169 2 4.0999999999999998e-01 -6.6487344823655210e+00 -1.2908691755234397e+01 4.9258727449399515e+00 0 1 0
141 47 2 4.0999999999999998e-01 -1.1082531931652625e+01 -1.2114355307952589e+01 3.0739533753122927e+00 0 1 3
356 119 2 4.0999999999999998e-01 -1.3905735026216888e+01 -1.2948776000291435e+01 5.4378528674992381e+00 1 2 -2
355 119 1 -8.1999999999999995e-01 -1.3387253851696471e+01 -1.3475772100359162e+01 4.7644069689005626e+00 1 2 -2
140 47 2 4.0999999999999998e-01 -1.0993050949887129e+01 -1.3739542931770343e+01 3.2065819894631602e+00 0 1 3
139 47 1 -8.1999999999999995e-01 -1.1321038600489373e+01 -1.2983345170874767e+01 2.6403081116994329e+00 0 1 3
357 119 2 4.0999999999999998e-01 -1.2886380006353189e+01 -1.2850568480116335e+01 4.1658062426071325e+00 1 2 -2
2558 853 2 4.0999999999999998e-01 -1.2817320102493630e+01 -1.3043654495623514e+01 1.4467639838626347e+00 2 2 2
1591 531 1 -8.1999999999999995e-01 -1.4254037320369301e+01 -1.0307061499247132e+01 4.0052248845839955e+00 1 0 -1
2508 836 2 4.0999999999999998e-01 -1.1303885319277311e+01 -9.5086255426912949e+00 3.7865407965930729e+00 1 3 0
1536 512 2 4.0999999999999998e-01 -5.7307126419235797e+00 -1.1013094742056202e+01 5.8185841248679928e+00 -1 1 1
338 113 2 4.0999999999999998e-01 -1.0494803211909934e+01 -8.9901314045219465e+00 1.6876891322271028e+00 -1 3 3
2192 731 2 4.0999999999999998e-01 -6.8864126099320266e+00 -1.3447751271852452e+01 6.9956186079445253e+00 1 1 2
2507 836 2 4.0999999999999998e-01 -1.0685590047579065e+01 -1.0659360215142419e+01 4.7665163608391374e+00 1 3 0
115 39 1 -8.1999999999999995e-01 -5.8857969738050944e+00 -7.9579082069925233e+00 7.2222262701169200e+00 -1 -1 0
89 30 2 4.0999999999999998e-01 -1.3420720630462190e+01 -8.0636016985225680e+00 5.9690559063673128e+00 1 1 3
1592 531 2 4.0999999999999998e-01 -1.4172957794069216e+01 -9.9170400874222508e+00 3.0879536737569211e+00 1 0 -1
88 30 1 -8.1999999999999995e-01 -1.4188213259060296e+01 -7.8701719501683955e+00 5.3578136945998516e+00 1 1 3
116 39 2 4.0999999999999998e-01 -5.4786764558274843e+00 -8.8591466820782365e+00 7.0735685141412112e+00 -1 -1 0
90 30 2 4.0999999999999998e-01 -1.4542387051825997e+01 -8.7281595114500163e+00 4.9856641718991419e+00 1 1 3
1103 368 2 4.0999999999999998e-01 -1.4218491583014089e+01 -5.2947488234302096e+00 6.3496193747918817e-01 0 1 -1
465 155 2 4.0999999999999998e-01 -8.3040356938094035e+00 -1.4490561421001077e+01 6.1330202055260017e+00 1 2 1
676 226 1 -8.1999999999999995e-01 -9.9894227661318915e+00 -1.3821853649524531e+01 6.6264821206568811e+00 1 3 1
1986 662 2 4.0999999999999998e-01 -5.8838321719723545e+00 -1.4841265293004708e+01 3.3135241544656502e-01 0 1 2
1974 658 2 4.0999999999999998e-01 -7.4876414270368725e+00 -1.0200869063366740e+01 4.0497742995649695e+00 3 2 0
1972 658 1 -8.1999999999999995e-01 -7.8371689232966713e+00 -9.4000194445867304e+00 3.5634128707873067e+00 3 2 0
1973 658 2 4.0999999999999998e-01 -8.5359589006657650e+00 -9.6867922120424268e+00 2.9080267485461206e+00 3 2 0
2506 836 1 -8.1999999999999995e-01 -1.1210547634185568e+01 -1.0493671511392350e+01 3.9316249777406043e+00 1 3 0
678 226 2 4.0999999999999998e-01 -1.0625379058461622e+01 -1.3056694127590896e+01 6.5256478693482052e+00 1 3 1
774 258 2 4.0999999999999998e-01 -5.6804292092694695e+00 -2.3131948354469021e+00 7.2086826417241028e+00 -1 2 2
766 256 1 -8.1999999999999995e-01 -1.1533436155020270e+01 -1.1142491316202237e+01 7.0088949368951425e+00 -2 3 0
1814 605 2 4.0999999999999998e-01 -1.2148245108594548e+01 -1.8413226722413398e+00 2.4739000148509760e-01 -2 0 1
1658 553 2 4.0999999999999998e-01 -9.9004666672908570e+00 -5.2499756379263225e+00 4.2373419612246899e-01 2 1 1
2034 678 2 4.0999999999999998e-01 -8.3824222365345218e+00 -8.1251046439892907e+00 4.6237142950852359e+00 0 1 3
535 179 1 -8.1999999999999995e-01 -1.3399760640749577e+01 -9.1366402101927271e+00 1.6982410642371200e+00 1 2 1
537 179 2 4.0999999999999998e-01 -1.4228034112964558e+01 -8.8229690222471611e+00 1.2338592077349801e+00 1 2 1
536 179 2 4.0999999999999998e-01 -1.2839663201116613e+01 -8.3473978810807203e+00 1.9501623498770932e+00 1 2 1
463 155 1 -8.1999999999999995e-01 -7.5760235690718236e+00 -1.4696913772421915e+01 5.4791899836111959e+00 1 2 1
117 39 2 4.0999999999999998e-01 -5.2092369057394947e+00 -7.2493225060244244e+00 7.0216026929766748e+00 -1 -1 0
2557 853 1 -8.1999999999999995e-01 -1.3491353800855171e+01 -1.3274408898522362e+01 7.4497482421340244e-01 2 2 2
337 113 1 -8.1999999999999995e-01 -9.9529296023360594e+00 -9.6715766384215662e+00 1.1956703838475775e+00 -1 3 3
1981 661 1 -8.1999999999999995e-01 -5.9479933715854845e+00 -4.8116257017070829e+00 4.6699899658685986e+00 1 2 1
1985 662 2 4.0999999999999998e-01 -7.5135187427717831e+00 -1.4927990891410996e+01 3.8993784707695944e-01 0 1 2
1398 466 2 4.0999999999999998e-01 -5.5366498778528666e+00 -1.4695918726491039e+01 5.8590846595898256e+00 1 3 3
1593 531 2 4.0999999999999998e-01 -1.3345094296251727e+01 -1.0389101757684987e+01 4.4140877412338071e+00 1 0 -1
992 331 2 4.0999999999999998e-01 -6.3551223611479735e+00 -1.2518597632623976e+01 1.5357231937435074e+00 1 0 0
768 256 2 4.0999999999999998e-01 -1.1535948488186273e+01 -1.0149002775213249e+01 6.8946527978202461e+00 -2 3 0
2386 796 1 -8.1999999999999995e-01 -1.1440348046581402e+01 -8.3117707242952772e+00 6.4111774977108986e+00 2 2 0
939 313 2 4.0999999999999998e-01 -5.5390286357172105e+00 -9.6130511083853172e+00 4.8166832555919470e-01 0 1 0
586 196 1 -8.1999999999999995e-01 -5.8750068428096309e+00 -1.0852754949505439e-01 3.3819965411291300e+00 0 0 -1
1194 398 2 4.0999999999999998e-01 -1.0109394807640951e+01 -1.3697587303639549e+01 1.1560283055628275e+00 0 1 2
993 331 2 4.0999999999999998e-01 -7.8263507330772830e+00 -1.2159595556167487e+01 2.1468176032741439e+00 1 0 0