LAMMPS data file via write_data, version 15 May 2015, timestep = 18500000

2593 atoms
6 atom types
1728 bonds
4 bond types
864 angles
3 angle types
0 dihedrals
3 dihedral types
0 impropers
1 improper types

-1.4950426602669914e+01 1.4950426602669914e+01 xlo xhi
-1.4950426602669914e+01 1.4950426602669914e+01 ylo yhi
-1.4950426602669914e+01 1.4950426602669914e+01 zlo zhi

Masses

1 15.9994
2 1.00794
3 12.0107
4 1.00794
5 12.0107
6 12.0107

Bond Coeffs # harmonic

1 1000 1
2 469 1.4
3 367 1.08
4 469 0.7

Angle Coeffs # harmonic

1 100 109.47
2 35 120
3 63 120

Dihedral Coeffs # opls

1 0 7.25 0 0
2 0 7.25 0 0
3 0 7.25 0 0

Improper Coeffs # cvff

1 2.5 -1 2

Atoms # full

1219 407 1 -8.1999999999999995e-01 -1.4680230342252857e+01 -6.6959143321597789e+00 -1.3413166110066607e+01 -3 5 5
1953 651 2 4.0999999999999998e-01 -8.8412023620215372e+00 -8.1632551092782357e+00 -1.2570563003419986e+01 -2 -6 8
1951 651 1 -8.1999999999999995e-01 -8.5332215295255320e+00 -8.5206010944326671e+00 -1.3452285484590146e+01 -2 -6 8
1952 651 2 4.0999999999999998e-01 -8.3028511175558357e+00 -9.4890524189604726e+00 -1.3357341361198769e+01 -2 -6 8
1615 539 1 -8.1999999999999995e-01 -7.7222608860001394e+00 -1.1321185090172765e+01 -1.3250367020794442e+01 -2 3 3
986 329 2 4.0999999999999998e-01 -1.2249395078043634e+01 -7.8740490616454784e+00 -1.1650487896626817e+01 2 6 3
985 329 1 -8.1999999999999995e-01 -1.2033888797726634e+01 -6.9003040847158950e+00 -1.1723705115338266e+01 2 6 3
210 70 2 4.0999999999999998e-01 -8.9457438901654900e+00 -1.1180918511229095e+01 -7.6287027495399959e+00 -4 -3 9
2465 822 2 4.0999999999999998e-01 -1.0145231722129985e+01 -1.0080678282420863e+01 -1.2101529342268130e+01 1 0 1
2466 822 2 4.0999999999999998e-01 -1.1098555930510207e+01 -1.0954672027648831e+01 -1.1104589480631986e+01 1 0 1
2464 822 1 -8.1999999999999995e-01 -1.0663898494774347e+01 -1.0065368559307206e+01 -1.1246699926500149e+01 1 0 1
1617 539 2 4.0999999999999998e-01 -8.7129204023676365e+00 -1.1324670392649285e+01 -1.3386618761354898e+01 -2 3 3
890 297 2 4.0999999999999998e-01 -8.2274013272824718e+00 -8.9532208804529763e+00 -9.7725546749210856e+00 -2 -1 4
1270 424 1 -8.1999999999999995e-01 -1.1763235253201927e+01 -1.2450088468728376e+01 -1.0846195743718670e+01 -1 0 5
2145 715 2 4.0999999999999998e-01 -1.4856836482084439e+01 -9.9612820244579936e+00 -9.0856406888931609e+00 1 3 7
2143 715 1 -8.1999999999999995e-01 -1.4087721530646361e+01 -1.0109794423080475e+01 -8.4640386221772204e+00 1 3 7
889 297 1 -8.1999999999999995e-01 -8.7981348461169553e+00 -8.4437951893703858e+00 -1.0416551238037878e+01 -2 -1 4
891 297 2 4.0999999999999998e-01 -9.6511997902997173e+00 -8.9418636123641058e+00 -1.0572085609232817e+01 -2 -1 4
1272 424 2 4.0999999999999998e-01 -1.2694787317867064e+01 -1.2390316908393251e+01 -1.0487558054933825e+01 -1 0 5
1220 407 2 4.0999999999999998e-01 -1.3788913635619139e+01 -6.4520327531413511e+00 -1.3030989201506367e+01 -3 5 5
1271 424 2 4.0999999999999998e-01 -1.1781560842722982e+01 -1.2871288878990079e+01 -1.1752968785664969e+01 -1 0 5
2196 732 2 4.0999999999999998e-01 -1.3932143885156513e+01 -6.0471229110658360e+00 -7.9694442201410505e+00 -1 5 3
2194 732 1 -8.1999999999999995e-01 -1.4910527151705889e+01 -6.0183453715590751e+00 -7.7646979200833917e+00 -1 5 3
530 177 2 4.0999999999999998e-01 -1.0756891409600934e+01 -1.3687518161819472e+01 -1.0022530676702962e+01 2 -1 2
2416 806 1 -8.1999999999999995e-01 -1.0366804150849161e+01 -1.1048877963067984e+01 -1.3806011395692300e+01 5 7 6
1811 604 2 4.0999999999999998e-01 -1.2912264694966275e+01 -1.2586773145531277e+01 -1.3834630893116771e+01 3 -1 2
1416 472 2 4.0999999999999998e-01 -8.6836078630264666e+00 -1.4881425774102627e+01 -1.0502621352453566e+01 -3 4 6
705 235 2 4.0999999999999998e-01 -8.8719714237836627e+00 -6.6114765455753304e+00 -8.3211934956680800e+00 -2 1 7
1810 604 1 -8.1999999999999995e-01 -1.2045440388291658e+01 -1.3058864493407892e+01 -1.3674230421891927e+01 3 -1 2
2417 806 2 4.0999999999999998e-01 -1.1005486655867871e+01 -1.1804945992863827e+01 -1.3663082490997988e+01 5 7 6
1539 513 2 4.0999999999999998e-01 -7.9858938224032023e+00 -1.4260050092243969e+01 -1.4489255422474940e+01 0 -4 2
1932 644 2 4.0999999999999998e-01 -9.0864080829658374e+00 -6.7773896010906061e+00 -1.0452130861898311e+01 -2 -4 1
529 177 1 -8.1999999999999995e-01 -1.0106871219928767e+01 -1.4321829610539899e+01 -9.6040744624772181e+00 2 -1 2
631 211 1 -8.1999999999999995e-01 -1.2305574177509882e+01 -6.0055766021209998e+00 -8.6390804915811721e+00 0 4 8
633 211 2 4.0999999999999998e-01 -1.1569699445676804e+01 -5.3484093595596285e+00 -8.8021830792237985e+00 0 4 8
1812 604 2 4.0999999999999998e-01 -1.1990859090672219e+01 -1.3864902250933312e+01 -1.4263557993181111e+01 3 -1 2
1930 644 1 -8.1999999999999995e-01 -9.3914170666673993e+00 -5.8919115440952119e+00 -1.0101586914437110e+01 -2 -4 1
1752 584 2 4.0999999999999998e-01 -1.4600478799515427e+01 -1.1773872998637561e+01 -8.2062131550866226e+00 3 3 1
2144 715 2 4.0999999999999998e-01 -1.4388739488630666e+01 -9.9667910755011597e+00 -7.5212124714065025e+00 1 3 7
531 177 2 4.0999999999999998e-01 -1.0170048678399414e+01 -1.4255129285362512e+01 -8.6083121739897130e+00 2 -1 2
140 47 2 4.0999999999999998e-01 -1.3734367439907492e+01 -1.4040884304854725e+01 -1.1331907124780628e+01 -4 1 9
987 329 2 4.0999999999999998e-01 -1.1975265612993239e+01 -6.5021510901252721e+00 -1.0808270580463072e+01 2 6 3
2055 685 2 4.0999999999999998e-01 -1.1364031122851520e+01 -5.5377554048308646e+00 -1.2646862216214801e+01 -5 2 2
139 47 1 -8.1999999999999995e-01 -1.3365717062905883e+01 -1.4872696777711445e+01 -1.0916976000589292e+01 -4 1 9
632 211 2 4.0999999999999998e-01 -1.1969754808506103e+01 -6.7435252241610524e+00 -8.0537258598394850e+00 0 4 8
1931 644 2 4.0999999999999998e-01 -8.7386841428162931e+00 -5.1839289976119218e+00 -1.0371185326430238e+01 -2 -4 1
2418 806 2 4.0999999999999998e-01 -1.0229736402017251e+01 -1.0909207240288326e+01 -1.4786668005688107e+01 5 7 6
1346 449 2 4.0999999999999998e-01 -1.2372836156440709e+01 -1.0266597733270185e+01 -7.4993407965905350e+00 0 -1 6
2191 731 1 -8.1999999999999995e-01 -7.2088045261657152e+00 -9.9314444675226774e+00 -8.2088703275817387e+00 -2 1 5
2193 731 2 4.0999999999999998e-01 -7.0806656804981980e+00 -8.9412636433360824e+00 -8.2645952854184728e+00 -2 1 5
1415 472 2 4.0999999999999998e-01 -7.3887693479232794e+00 -1.4239082221122796e+01 -1.1262469310561096e+01 -3 4 6
1616 539 2 4.0999999999999998e-01 -7.3398253617197593e+00 -1.2190849831815424e+01 -1.3562471586649554e+01 -2 3 3
643 215 1 -8.1999999999999995e-01 -1.1395251020296548e-01 -1.1680150744172158e+01 -1.2859491227746636e+01 -7 4 3
78 26 2 4.0999999999999998e-01 -5.7253177094281540e+00 -1.2965738295564766e+01 -1.4697373292871829e+01 4 3 4
1203 401 2 4.0999999999999998e-01 -2.4839383891061821e+00 -7.5458052206725155e+00 -1.4551708734309624e+01 6 -3 1
578 193 2 4.0999999999999998e-01 -1.2577534342970456e+00 -5.0501160169312271e+00 -1.1665099249212339e+01 -1 2 6
204 68 2 4.0999999999999998e-01 -4.1425685577002600e+00 -1.1371097211321047e+01 -1.2343510467575317e+01 -5 -1 7
424 142 1 -8.1999999999999995e-01 -2.3099637177895644e+00 -1.4869297012218432e+01 -1.1294071174032313e+01 -4 8 2
4 2 1 -8.1999999999999995e-01 -2.4066297290170091e-01 -9.5123457507148057e+00 -1.0358859745689950e+01 -1 1 3
2265 755 2 4.0999999999999998e-01 -1.6082066233706094e+00 -8.3705321636145733e+00 -1.2493689336215764e+01 2 3 3
2153 718 2 4.0999999999999998e-01 -7.3500714298136263e+00 -1.1849415689476587e+01 -1.1518877230966490e+01 -1 6 3
1847 616 2 4.0999999999999998e-01 -6.0803581653550527e+00 -6.7419337801282264e+00 -1.3716935774409933e+01 2 -1 6
1846 616 1 -8.1999999999999995e-01 -5.9155536568960159e+00 -5.8217488570706681e+00 -1.3361855394795583e+01 2 -1 6
878 293 2 4.0999999999999998e-01 -5.2345710573079103e+00 -1.2676861207472070e+01 -1.0198285359062583e+01 0 4 1
6 2 2 4.0999999999999998e-01 -2.8406248015386382e-01 -9.4496742047186881e+00 -9.3617781943427314e+00 -1 1 3
429 143 2 4.0999999999999998e-01 -4.1900838133292115e+00 -6.7162137388966698e+00 -8.2440600282391792e+00 2 4 5
2532 844 2 4.0999999999999998e-01 -4.6846443577477892e-01 -7.0725328473913320e+00 -1.4407544328660064e+01 0 2 0
1861 621 1 -8.1999999999999995e-01 -5.3686516723934830e+00 -5.7138810300688956e+00 -1.0584059220762562e+01 1 9 7
1863 621 2 4.0999999999999998e-01 -5.3762333663343398e+00 -6.4608967863400277e+00 -9.9193090033986095e+00 1 9 7
2264 755 2 4.0999999999999998e-01 -3.0543454347772325e+00 -9.0278364169286256e+00 -1.2115252483382733e+01 2 3 3
425 142 2 4.0999999999999998e-01 -2.1736515711075892e+00 -1.3908967505237049e+01 -1.1050824207227379e+01 -4 8 2
1848 616 2 4.0999999999999998e-01 -5.6650940207862703e+00 -5.8773482987010954e+00 -1.2395335064566819e+01 2 -1 6
428 143 2 4.0999999999999998e-01 -4.6361677627683964e+00 -8.2799334635104653e+00 -8.3936279668190181e+00 2 4 5
5 2 2 4.0999999999999998e-01 -1.0025591069665900e+00 -9.0025368801130448e+00 -1.0758349607915193e+01 -1 1 3
202 68 1 -8.1999999999999995e-01 -4.8194209560192505e+00 -1.0647800055142779e+01 -1.2206780953386801e+01 -5 -1 7
2192 731 2 4.0999999999999998e-01 -6.3209418781773863e+00 -1.0376360106058524e+01 -8.0916829962382621e+00 -2 1 5
2531 844 2 4.0999999999999998e-01 -6.5420008818298037e-01 -8.6829328999053459e+00 -1.4604254226591818e+01 0 2 0
359 120 2 4.0999999999999998e-01 -3.4201883377071063e-01 -1.3957441011805926e+01 -1.4883928884573399e+01 4 2 5
324 108 2 4.0999999999999998e-01 -6.8390636737391333e+00 -8.5918046587592141e+00 -1.3823203482056709e+01 5 4 3
2436 812 2 4.0999999999999998e-01 -3.9409013086781837e+00 -1.0401553437574201e+01 -8.1718713936290186e+00 -1 0 4
2434 812 1 -8.1999999999999995e-01 -4.6798942280823344e+00 -1.0881864601735302e+01 -7.6994589288547033e+00 -1 0 4
1187 396 2 4.0999999999999998e-01 -3.5351462592259786e+00 -1.3817856421963908e+01 -8.2637259240312702e+00 -1 3 4
203 68 2 4.0999999999999998e-01 -5.4669786493572463e+00 -1.0926989609498827e+01 -1.1497763951993409e+01 -5 -1 7
2263 755 1 -8.1999999999999995e-01 -2.2117369678583465e+00 -8.6388405937766102e+00 -1.1742860078097404e+01 2 3 3
1186 396 1 -8.1999999999999995e-01 -2.8251594699354019e+00 -1.3943790832984737e+01 -7.5708751815275139e+00 -1 3 4
877 293 1 -8.1999999999999995e-01 -4.5613905371794488e+00 -1.3021158660145547e+01 -9.5438618561594382e+00 0 4 1
2154 718 2 4.0999999999999998e-01 -7.3583746946380026e+00 -1.2126473388625310e+01 -9.9096068378763746e+00 -1 6 3
2127 709 2 4.0999999999999998e-01 -2.3353446954206447e+00 -8.9020084286092107e+00 -8.4549599538006923e+00 0 5 3
2125 709 1 -8.1999999999999995e-01 -3.0102126052209233e+00 -9.4145927319107940e+00 -8.9858024571782984e+00 0 5 3
77 26 2 4.0999999999999998e-01 -5.2571407555486669e+00 -1.4179099482424496e+01 -1.3709878484267024e+01 4 3 4
76 26 1 -8.1999999999999995e-01 -6.0370740165938130e+00 -1.3640215821348450e+01 -1.4028141626980693e+01 4 3 4
322 108 1 -8.1999999999999995e-01 -5.8446614774209813e+00 -8.5308285134743471e+00 -1.3737011190718722e+01 5 4 3
1503 501 2 4.0999999999999998e-01 -4.9531294711116551e+00 -1.4792771056079214e+01 -9.9236789374387762e+00 0 7 6
843 281 2 4.0999999999999998e-01 -2.2613105128299829e+00 -1.2282445169881964e+01 -1.3072016086933802e+01 -6 -6 6
842 281 2 4.0999999999999998e-01 -3.3353014423478395e+00 -1.3475448185460570e+01 -1.3371796473344110e+01 -6 -6 6
2152 718 1 -8.1999999999999995e-01 -6.8539571379332092e+00 -1.2272408049736939e+01 -1.0760635009405522e+01 -1 6 3
879 293 2 4.0999999999999998e-01 -4.2793223786467731e+00 -1.2279947323934925e+01 -8.9347426746749825e+00 0 4 1
2126 709 2 4.0999999999999998e-01 -2.9726082783550130e+00 -9.1241499771075318e+00 -9.9419467164877471e+00 0 5 3
2530 844 1 -8.1999999999999995e-01 -5.0787952205240217e-01 -7.9535059201650498e+00 -1.3936040594258976e+01 0 2 0
323 108 2 4.0999999999999998e-01 -5.5378171480228815e+00 -9.1224749870556288e+00 -1.2991502051832517e+01 5 4 3
841 281 1 -8.1999999999999995e-01 -3.2085227847375020e+00 -1.2578324826342193e+01 -1.2948618254904357e+01 -6 -6 6
645 215 2 4.0999999999999998e-01 -4.6056875821832755e-01 -1.1097768115507177e+01 -1.2124188207542618e+01 -7 4 3
427 143 1 -8.1999999999999995e-01 -4.9367097709364973e+00 -7.3317271830622959e+00 -8.4964006264819947e+00 2 4 5
1202 401 2 4.0999999999999998e-01 -4.0937472183450740e+00 -7.4825707368042673e+00 -1.4818350243809848e+01 6 -3 1
488 163 2 4.0999999999999998e-01 -9.4151861681460858e-01 -1.3025939551334703e+01 -7.5223013919055219e+00 -4 9 6
534 178 2 4.0999999999999998e-01 -5.8344336405754760e+00 -1.0410764050438898e+01 -1.4818418571979048e+01 1 0 6
902 301 2 4.0999999999999998e-01 -1.1940817587830210e+00 -5.0237921271770887e+00 -1.4779850043219023e+01 0 3 0
73 25 1 -8.1999999999999995e-01 -3.3868967819907034e+00 -5.3976456302880464e+00 -7.6181767217991236e+00 -1 -3 6
1345 449 1 -8.1999999999999995e-01 -1.2179705417067204e+01 -9.9759746283988289e+00 -6.5622060218462135e+00 0 -1 6
1210 404 1 -8.1999999999999995e-01 -1.1724647646473429e+01 -7.3861373822551863e+00 -1.6847884513816904e+00 -1 2 2
1211 404 2 4.0999999999999998e-01 -1.2684869462658591e+01 -7.1221608838037538e+00 -1.5938305012719507e+00 -1 2 2
1212 404 2 4.0999999999999998e-01 -1.1212879382025260e+01 -7.0612464999846143e+00 -8.8947591108330748e-01 -1 2 2
1760 587 2 4.0999999999999998e-01 -9.6621727576184337e+00 -1.0854025892431816e+01 -1.6847212580477837e+00 -3 6 2
1162 388 1 -8.1999999999999995e-01 -7.6043576114749811e+00 -1.0052224165419915e+01 -2.8559733603130368e+00 -2 8 3
789 263 2 4.0999999999999998e-01 -1.3480605663910580e+01 -5.7684742300037151e+00 -4.0084509474980567e+00 -8 3 5
787 263 1 -8.1999999999999995e-01 -1.4051568590348488e+01 -5.9865842703157046e+00 -3.2169888526070629e+00 -8 3 5
520 174 1 -8.1999999999999995e-01 -9.6674442207646134e+00 -1.3101125316450837e+01 -3.3613703653014220e+00 1 2 5
522 174 2 4.0999999999999998e-01 -8.7625957328561075e+00 -1.2839075427801077e+01 -3.6968729418284223e+00 1 2 5
369 123 2 4.0999999999999998e-01 -1.0848631948349910e+01 -1.2740192632395392e+01 -4.6807357277019577e+00 1 7 -1
1940 647 2 4.0999999999999998e-01 -1.2424344139420098e+01 -1.3411851065155561e+01 -1.0738965936246689e+00 4 5 5
474 158 2 4.0999999999999998e-01 -1.2734299085076309e+01 -1.0571100426269375e+01 -1.2322359308511359e+00 2 2 4
472 158 1 -8.1999999999999995e-01 -1.3606340810807797e+01 -1.0287059364225200e+01 -1.6307917688057696e+00 2 2 4
1093 365 1 -8.1999999999999995e-01 -1.3544666633905255e+01 -1.2350966177139760e+01 -3.6783834778684774e+00 2 3 4
1095 365 2 4.0999999999999998e-01 -1.3847215668213654e+01 -1.2097941082203034e+01 -2.7594573486224974e+00 2 3 4
1761 587 2 4.0999999999999998e-01 -1.0769990957920751e+01 -1.1607220852702239e+01 -7.5090264271779184e-01 -3 6 2
368 123 2 4.0999999999999998e-01 -1.2446742583441671e+01 -1.2832824497049218e+01 -5.0032919131984102e+00 1 7 -1
1094 365 2 4.0999999999999998e-01 -1.4338325151010485e+01 -1.2597615764590859e+01 -4.2344886867504794e+00 2 3 4
367 123 1 -8.1999999999999995e-01 -1.1529169982957184e+01 -1.2915759694198847e+01 -5.3920915595617078e+00 1 7 -1
1759 587 1 -8.1999999999999995e-01 -9.8210072221600253e+00 -1.1296077093470602e+01 -8.0191592324514005e-01 -3 6 2
1476 492 2 4.0999999999999998e-01 -1.4226883631529029e+01 -9.0172086704814873e+00 -3.0033234406070441e+00 0 2 -2
473 158 2 4.0999999999999998e-01 -1.4342147316637980e+01 -1.0450542089350598e+01 -9.7364259394718999e-01 2 2 4
604 202 1 -8.1999999999999995e-01 -1.2733950025106672e+01 -1.4580107336734519e+01 -2.5610346018142938e+00 6 5 5
1475 492 2 4.0999999999999998e-01 -1.4713928506571357e+01 -7.5055350078168095e+00 -3.3830746744293414e+00 0 2 -2
1441 481 1 -8.1999999999999995e-01 -1.1069714003355607e+01 -7.2537061087669796e+00 -6.3515241233377306e+00 0 1 6
1474 492 1 -8.1999999999999995e-01 -1.4897845004907671e+01 -8.4796983289633872e+00 -3.5140840940441969e+00 0 2 -2
788 263 2 4.0999999999999998e-01 -1.3975874139331205e+01 -5.2548678334642105e+00 -2.5396083951974031e+00 -8 3 5
1443 481 2 4.0999999999999998e-01 -1.0086224615422118e+01 -7.2351985888553880e+00 -6.5314935211333598e+00 0 1 6
1347 449 2 4.0999999999999998e-01 -1.2919509634989730e+01 -1.0277280425492318e+01 -5.9606352487790346e+00 0 -1 6
863 288 2 4.0999999999999998e-01 -8.0877616602330580e+00 -1.2049022848572804e+01 -6.1166335369392044e-01 1 3 6
1446 482 2 4.0999999999999998e-01 -1.4860020784589898e+01 -9.4967073662673300e+00 -5.0015194700130916e+00 -3 2 0
1442 481 2 4.0999999999999998e-01 -1.1418615340544548e+01 -8.1788107688254357e+00 -6.5012977407282762e+00 0 1 6
1164 388 2 4.0999999999999998e-01 -8.1338708237764674e+00 -9.2474378112727429e+00 -3.1241478352944458e+00 -2 8 3
2444 815 2 4.0999999999999998e-01 -1.4752543057250916e+01 -1.3424749846468437e+01 -4.2038331892437952e-01 -1 4 2
209 70 2 4.0999999999999998e-01 -1.0033585898781880e+01 -1.1913828497736072e+01 -6.6560653374628469e+00 -4 -3 9
605 202 2 4.0999999999999998e-01 -1.2985974529910267e+01 -1.3701005722752903e+01 -2.9655675266050103e+00 6 5 5
512 171 2 4.0999999999999998e-01 -9.9445941924746926e+00 -7.6238737247152901e+00 -3.1407791934869334e+00 -3 1 4
511 171 1 -8.1999999999999995e-01 -8.9455569671929389e+00 -7.5805861094922236e+00 -3.1349771192736497e+00 -3 1 4
704 235 2 4.0999999999999998e-01 -8.2528844635001413e+00 -6.1644881798871367e+00 -6.8777554114224966e+00 -2 1 7
513 171 2 4.0999999999999998e-01 -8.6507425067010040e+00 -6.7475258019962983e+00 -2.6669196235582753e+00 -3 1 4
208 70 1 -8.1999999999999995e-01 -9.4398958376799094e+00 -1.2032137733674180e+01 -7.4520037428796337e+00 -4 -3 9
478 160 1 -8.1999999999999995e-01 -8.3245269134262880e+00 -1.4181886720280298e+01 -6.2140737299012052e+00 -2 2 7
1939 647 1 -8.1999999999999995e-01 -1.2307844082420109e+01 -1.2571744371235615e+01 -5.4415008965800027e-01 4 5 5
479 160 2 4.0999999999999998e-01 -8.6537881813951856e+00 -1.3487329225169331e+01 -6.8537297208530212e+00 -2 2 7
536 179 2 4.0999999999999998e-01 -1.1999768321327062e+01 -6.0457948515664057e+00 -5.4391813288503332e+00 2 4 5
521 174 2 4.0999999999999998e-01 -9.8105689986883746e+00 -1.2713154622679619e+01 -2.4508886708834066e+00 1 2 5
606 202 2 4.0999999999999998e-01 -1.1894644785138381e+01 -1.4915516648967758e+01 -2.9888782364707129e+00 6 5 5
703 235 1 -8.1999999999999995e-01 -8.7215751698530699e+00 -6.8951719169313428e+00 -7.3741556071721499e+00 -2 1 7
535 179 1 -8.1999999999999995e-01 -1.2674498325310328e+01 -5.3149838168998258e+00 -5.3360424178555785e+00 2 4 5
1315 439 1 -8.1999999999999995e-01 -8.0582120498469898e+00 -5.1763463167746817e+00 -2.0247056659507372e+00 1 5 4
480 160 2 4.0999999999999998e-01 -9.0816530748283988e+00 -1.4781106398767859e+01 -5.9539224027932409e+00 -2 2 7
401 134 2 4.0999999999999998e-01 -7.5077407749473224e+00 -1.3210707497008091e+01 -5.0273119002298117e+00 -1 1 4
2445 815 2 4.0999999999999998e-01 -1.4230777037818042e+01 -1.4230311286581236e+01 -1.7415236673888010e+00 -1 4 2
539 180 2 4.0999999999999998e-01 -7.9503406897416466e+00 -8.5322490733272751e+00 -1.9226561974647716e-01 -3 1 1
66 22 2 4.0999999999999998e-01 -1.1459020574236588e+01 -1.4380856372638462e+01 -6.3373564194814271e+00 -2 -1 3
1163 388 2 4.0999999999999998e-01 -7.3954751943591797e+00 -1.0599099513649961e+01 -3.6667005557100492e+00 -2 8 3
709 237 1 -8.1999999999999995e-01 -7.5608627628849945e-01 -5.4204126755267144e+00 -6.3924789147758716e+00 3 0 5
1161 387 2 4.0999999999999998e-01 -3.1295097058433896e-01 -1.1483884521045610e+01 -8.5578865488619549e-01 -4 9 4
2419 807 1 -8.1999999999999995e-01 -1.8294241222574286e+00 -8.3077069924923634e+00 -1.3319875616954668e-01 -3 7 4
612 204 2 4.0999999999999998e-01 -5.8861924522446145e+00 -7.0162576247496196e+00 -8.7450007843318645e-01 -1 6 6
2420 807 2 4.0999999999999998e-01 -2.6028804410331876e+00 -8.8406430558841720e+00 -4.7631302391671149e-01 -3 7 4
1586 529 2 4.0999999999999998e-01 -6.4091668453771753e+00 -9.1455044537680141e+00 -1.8680567778789214e+00 -4 -2 3
1642 548 1 -8.1999999999999995e-01 -2.3012321406750669e+00 -1.2605860208492308e+01 -3.9738426620417453e+00 -2 1 6
74 25 2 4.0999999999999998e-01 -2.5956397739049049e+00 -5.5442522138557866e+00 -7.0245423499050217e+00 -1 -3 6
1317 439 2 4.0999999999999998e-01 -7.4129040330567086e+00 -5.6970092744227507e+00 -1.4657150038513933e+00 1 5 4
2435 812 2 4.0999999999999998e-01 -4.3358238055510441e+00 -1.1259806242614388e+01 -6.8399482655168740e+00 -1 0 4
2096 699 2 4.0999999999999998e-01 -3.2267220428907706e-01 -1.0037636759061769e+01 -4.8383113598981993e+00 -3 7 3
2016 672 2 4.0999999999999998e-01 -2.7365997015895438e+00 -1.3540383188407590e+01 -7.0030405226139791e-02 -4 -3 2
680 227 2 4.0999999999999998e-01 -2.4776085511837209e-01 -1.4202925767064732e+01 -1.7487284810889019e+00 -6 2 5
1188 396 2 4.0999999999999998e-01 -3.2414564883211998e+00 -1.4271563017620320e+01 -6.7227919397504223e+00 -1 3 4
670 224 1 -8.1999999999999995e-01 -4.5993802464027276e+00 -1.4364266591170754e+01 -5.4331985786753663e+00 -2 5 5
1587 529 2 4.0999999999999998e-01 -5.5124734040091319e+00 -9.3148636960276381e+00 -5.1386355961968455e-01 -4 -2 3
400 134 1 -8.1999999999999995e-01 -7.0135634919594647e+00 -1.2535391600723537e+01 -4.4798448915496945e+00 -1 1 4
872 291 2 4.0999999999999998e-01 -5.0791168181425057e+00 -1.3374554020238284e+01 -2.6831152807607488e+00 -6 0 6
862 288 1 -8.1999999999999995e-01 -7.4397017690445253e+00 -1.2790747781984903e+01 -7.8442201112143195e-01 1 3 6
864 288 2 4.0999999999999998e-01 -6.7065263259259211e+00 -1.2461004066363387e+01 -1.3791537104484224e+00 1 3 6
402 134 2 4.0999999999999998e-01 -6.1824563467839297e+00 -1.2258878567901489e+01 -4.9623221906131718e+00 -1 1 4
2448 816 2 4.0999999999999998e-01 -5.7935960531792041e-01 -7.6162531304259176e+00 -7.2275416401664057e+00 -2 0 7
2447 816 2 4.0999999999999998e-01 -1.1676877446618317e+00 -8.8761366206600734e+00 -6.3713031153199076e+00 -2 0 7
672 224 2 4.0999999999999998e-01 -4.9899939847509103e+00 -1.4247950958126797e+01 -4.5200312982178623e+00 -2 5 5
1866 622 2 4.0999999999999998e-01 -6.5375464813925479e+00 -7.9101354000347532e+00 -5.6604076504357792e+00 -3 6 7
2190 730 2 4.0999999999999998e-01 -5.1511400859842027e+00 -6.6586111588566599e+00 -3.9136176441227448e+00 -3 -1 0
871 291 1 -8.1999999999999995e-01 -5.3544846168441609e+00 -1.4322263522790417e+01 -2.8443672058008502e+00 -6 0 6
348 116 2 4.0999999999999998e-01 -4.8714306169634582e+00 -1.1085411480581069e+01 -2.7291488409961815e+00 1 -2 7
2095 699 1 -8.1999999999999995e-01 -1.2892852349921622e+00 -9.8101057194107604e+00 -4.7205326848624729e+00 -3 7 3
1644 548 2 4.0999999999999998e-01 -2.1135209193236069e+00 -1.2789529384575674e+01 -3.0089525209074761e+00 -2 1 6
2188 730 1 -8.1999999999999995e-01 -4.4010822914963086e+00 -6.4556115415327984e+00 -3.2841834996463675e+00 -3 -1 0
2097 699 2 4.0999999999999998e-01 -1.7697134156047092e+00 -1.0591921163137581e+01 -4.3231205670771633e+00 -3 7 3
366 122 2 4.0999999999999998e-01 -8.4647463218077235e-01 -6.4596332214008232e+00 -4.8414738527100347e+00 -4 -1 5
2294 765 2 4.0999999999999998e-01 -3.6230466659555738e+00 -1.1894082238616457e+01 -4.6466216337908932e+00 4 -3 7
1643 548 2 4.0999999999999998e-01 -2.2094192003636230e+00 -1.3452341130132305e+01 -4.4982694857278975e+00 -2 1 6
2293 765 1 -8.1999999999999995e-01 -4.3682129389539650e+00 -1.1372718871507628e+01 -5.0624224981366730e+00 4 -3 7
365 122 2 4.0999999999999998e-01 -1.2937562574452617e+00 -7.8789915271932935e+00 -4.1692075932215964e+00 -4 -1 5
2046 682 2 4.0999999999999998e-01 -8.3558123546346863e-01 -6.2555916239947358e+00 -2.1973380003164067e+00 2 -2 -2
1451 484 2 4.0999999999999998e-01 -4.5633662643526076e+00 -8.6541842764356804e+00 -2.9051979417533271e+00 -1 4 4
1452 484 2 4.0999999999999998e-01 -3.2860199899121501e+00 -9.3488487977199561e+00 -3.6484398024634093e+00 -1 4 4
2189 730 2 4.0999999999999998e-01 -4.7083671396942002e+00 -5.7914553034563880e+00 -2.6026738567066587e+00 -3 -1 0
1585 529 1 -8.1999999999999995e-01 -5.9251612712588138e+00 -8.6559519049278464e+00 -1.1427569750252218e+00 -4 -2 3
1450 484 1 -8.1999999999999995e-01 -4.1872582667569684e+00 -9.5149164397982062e+00 -3.2482224096464716e+00 -1 4 4
1864 622 1 -8.1999999999999995e-01 -6.4054025881060550e+00 -7.7900344934726675e+00 -4.6764885632774007e+00 -3 6 7
2044 682 1 -8.1999999999999995e-01 -1.2674834709539038e+00 -5.9481180368581068e+00 -1.3494562748524324e+00 2 -2 -2
1865 622 2 4.0999999999999998e-01 -7.2929759083095709e+00 -7.8088964728830383e+00 -4.2162269356348663e+00 -3 6 7
2295 765 2 4.0999999999999998e-01 -4.5453722806598122e+00 -1.0552656202681195e+01 -4.5182766987490677e+00 4 -3 7
347 116 2 4.0999999999999998e-01 -4.4919632543375965e+00 -1.1554357877505721e+01 -1.2116921648769701e+00 1 -2 7
1159 387 1 -8.1999999999999995e-01 -1.9342676572736828e-01 -1.2157691710862865e+01 -1.5849530865533410e+00 -4 9 4
610 204 1 -8.1999999999999995e-01 -5.9316382377685652e+00 -6.0582868672219767e+00 -5.9128713983269776e-01 -1 6 6
364 122 1 -8.1999999999999995e-01 -8.7517266301694541e-01 -6.9880804404281909e+00 -3.9930029839083350e+00 -4 -1 5
2045 682 2 4.0999999999999998e-01 -1.5523639802285150e+00 -6.7427119469869279e+00 -8.1331589166386564e-01 2 -2 -2
346 116 1 -8.1999999999999995e-01 -5.0866309247855028e+00 -1.1730624418657907e+01 -1.9960922036457660e+00 1 -2 7
2446 816 1 -8.1999999999999995e-01 -1.0714465699200684e+00 -8.4847911726321872e+00 -7.2864912212425690e+00 -2 0 7
873 291 2 4.0999999999999998e-01 -6.3478233102961035e+00 -1.4367302562358429e+01 -2.9503513050105088e+00 -6 0 6
848 283 2 4.0999999999999998e-01 -3.1095424602158168e+00 -5.0822833104271137e+00 -3.6909296635325557e+00 -2 0 3
1957 653 1 -8.1999999999999995e-01 -1.0729915152268074e+01 -1.1272120339862360e+01 6.7529891176065533e+00 -4 -5 -2
1061 354 2 4.0999999999999998e-01 -1.2348380600803097e+01 -9.7504494033312099e+00 2.5961868965549613e+00 0 2 4
272 91 2 4.0999999999999998e-01 -1.1137536362551907e+01 -1.1365313776102679e+01 4.6993088842688913e+00 -6 -2 5
271 91 1 -8.1999999999999995e-01 -1.1793284132070672e+01 -1.1460033314433801e+01 3.9503055874781801e+00 -6 -2 5
273 91 2 4.0999999999999998e-01 -1.2690700135113833e+01 -1.1698921438547231e+01 4.3211963888202121e+00 -6 -2 5
1291 431 1 -8.1999999999999995e-01 -8.8126420380825081e+00 -1.1355791066492811e+01 1.7305682458852267e+00 5 1 2
1060 354 1 -8.1999999999999995e-01 -1.2035240753394369e+01 -8.9416679983066913e+00 2.0983928247398609e+00 0 2 4
1062 354 2 4.0999999999999998e-01 -1.1861654853455219e+01 -8.1988212609801820e+00 2.7449448701487604e+00 0 2 4
1293 431 2 4.0999999999999998e-01 -9.3635505518074691e+00 -1.0538533394109690e+01 1.8996024669055380e+00 5 1 2
2007 669 2 4.0999999999999998e-01 -9.0261350520138706e+00 -5.2586085867188057e+00 5.5911676269896056e+00 2 4 4
2004 668 2 4.0999999999999998e-01 -1.4337816408856837e+01 -1.2419971104128194e+01 2.7003851787707305e+00 0 3 9
2005 669 1 -8.1999999999999995e-01 -9.9303379826347999e+00 -5.5427448819059144e+00 5.9100197438393351e+00 2 4 4
2003 668 2 4.0999999999999998e-01 -1.4642944114413513e+01 -1.1341842974129168e+01 1.5124804695165999e+00 0 3 9
38 13 2 4.0999999999999998e-01 -1.2546069347240993e+01 -8.0332434049578065e+00 6.9092725169147577e+00 2 -2 6
494 165 2 4.0999999999999998e-01 -8.4019923342017684e+00 -1.3268441433266185e+01 2.0816330583681726e+00 -2 2 8
1730 577 2 4.0999999999999998e-01 -1.0478955959152596e+01 -7.1218972364321722e+00 6.5433881273833485e+00 4 1 6
540 180 2 4.0999999999999998e-01 -9.1075952282200063e+00 -7.6105634507879172e+00 4.9899296418086614e-01 -3 1 1
538 180 1 -8.1999999999999995e-01 -8.2076508691542465e+00 -8.0261153086585502e+00 6.3090081471375292e-01 -3 1 1
1292 431 2 4.0999999999999998e-01 -9.1273806803408419e+00 -1.1802583274220609e+01 8.9313217625148589e-01 5 1 2
1620 540 2 4.0999999999999998e-01 -1.4049842189663853e+01 -1.2690543969088324e+01 5.4542901935597286e+00 2 2 3
1817 606 2 4.0999999999999998e-01 -9.0519966719452345e+00 -1.1011034267834612e+01 6.4763611016116620e+00 -3 6 3
1816 606 1 -8.1999999999999995e-01 -8.1134229800874849e+00 -1.1219646595068550e+01 6.2015098685142647e+00 -3 6 3
2322 774 2 4.0999999999999998e-01 -1.2535423073370106e+01 -1.3548276434754829e+01 7.2156077190555088e+00 1 2 6
1818 606 2 4.0999999999999998e-01 -7.5417172147938372e+00 -1.1318317798920710e+01 7.0160031931609943e+00 -3 6 3
2002 668 1 -8.1999999999999995e-01 -1.4528443101597674e+01 -1.2312335868734705e+01 1.7246500790740242e+00 0 3 9
493 165 1 -8.1999999999999995e-01 -8.3203113178742889e+00 -1.4075515839734628e+01 2.6663911200025332e+00 -2 2 8
279 93 2 4.0999999999999998e-01 -1.1841077663973348e+01 -1.4602597801611260e+01 3.2753026629406428e+00 4 8 3
527 176 2 4.0999999999999998e-01 -1.1343982209679089e+01 -6.2132565584558659e+00 4.3403145918349963e+00 0 -1 2
37 13 1 -8.1999999999999995e-01 -1.3536040555404728e+01 -7.9454923141053957e+00 6.7986394629847382e+00 2 -2 6
1618 540 1 -8.1999999999999995e-01 -1.4284318283777038e+01 -1.2268810105227042e+01 4.5784223791719114e+00 2 2 3
2320 774 1 -8.1999999999999995e-01 -1.3456305111813105e+01 -1.3412323819965755e+01 6.8502638597413323e+00 1 2 6
526 176 1 -8.1999999999999995e-01 -1.1836253450218088e+01 -6.7800635758829504e+00 3.6797225790246131e+00 0 -1 2
278 93 2 4.0999999999999998e-01 -1.1165638799311246e+01 -1.3188669051292763e+01 3.7348339181449894e+00 4 8 3
1729 577 1 -8.1999999999999995e-01 -1.0764612610985598e+01 -7.7675066661438850e+00 7.2516053627650940e+00 4 1 6
495 165 2 4.0999999999999998e-01 -9.1095244950566645e+00 -1.4124866394340847e+01 3.2785103639278930e+00 -2 2 8
1697 566 2 4.0999999999999998e-01 -1.1128517895425631e+01 -7.4599560721280200e+00 1.0254243699542496e+00 -1 2 3
528 176 2 4.0999999999999998e-01 -1.2321944417861603e+01 -6.1922614264094680e+00 3.0327481390235533e+00 0 -1 2
2495 832 2 4.0999999999999998e-01 -7.5566480159633169e+00 -7.2189508407644549e+00 1.9624158733340167e+00 -5 1 0
1250 417 2 4.0999999999999998e-01 -7.7688744677149586e+00 -1.4427818670624749e+01 5.8871787838848562e+00 -3 1 1