2593
Atoms. Timestep: 1000000
O 2.84605 -13.3149 11.7311
H 2.51845 -13.1823 12.6666
H 2.55555 -14.2128 11.4004
O 10.2163 -3.26969 5.32506
H 9.6688 -2.86067 4.59503
H 9.63983 -3.87344 5.87565
O -5.16967 -9.02361 -9.58549
H -5.86085 -9.52211 -10.1087
H -5.51594 -8.11346 -9.35818
O -10.7199 -6.91384 -7.72149
H -10.7577 -7.5605 -8.48331
H -11.224 -7.28673 -6.94249
O 14.2727 -1.69789 8.14649
H 14.2595 -1.99077 9.10253
H 13.6173 -2.24163 7.62225
O -1.63944 11.0338 -11.5051
H -1.34762 10.2887 -10.9053
H -1.75778 10.686 -12.4351
O -1.25608 10.47 -1.80643
H -2.06549 10.117 -2.27569
H -1.15543 11.4452 -2.00342
O -3.84324 -7.5137 8.62625
H -3.39006 -6.70799 8.2449
H -4.83316 -7.37232 8.62258
O -9.89718 -1.41029 -13.2729
H -10.5354 -1.98978 -12.7662
H -10.3947 -0.901325 -13.9753
O -2.25743 -5.46954 -14.4833
H -2.92029 -4.80469 -14.8276
H -2.6192 -5.90456 -13.6588
O 2.9933 -10.5084 1.63127
H 2.32698 -10.8854 2.2746
H 3.91469 -10.6153 2.00491
O 1.40458 -10.0348 -6.78706
H 0.75134 -10.5342 -7.35618
H 2.33602 -10.2877 -7.04871
O -6.51789 9.98632 -5.8796
H -6.05928 10.8747 -5.85847
H -7.43961 10.078 -5.50277
O -10.9293 8.10279 0.067279
H -10.3761 7.40519 -0.388077
H -11.6514 7.6607 0.599258
O -0.935565 -14.7975 8.59423
H -0.508856 -13.9358 8.86879
H -1.37978 14.6126 9.38605
O 6.58842 8.12093 9.06679
H 6.72885 7.8036 10.0046
H 7.13082 7.56082 8.44066
O 13.1017 9.49335 -14.4269
H 12.9698 8.84844 -13.6741
H 12.3049 10.0937 -14.495
O -10.8374 -7.46612 0.595274
H -11.7466 -7.6608 0.963239
H -10.2263 -7.19958 1.34055
O -7.91559 1.49746 -3.99402
H -7.40657 1.06512 -3.24974
H -8.50277 2.2166 -3.62252
O -0.844605 -9.41983 3.34954
H -1.61993 -9.6522 2.76231
H -0.587871 -10.2183 3.8941
O 5.02621 -4.04717 -0.949481
H 5.28314 -3.35091 -0.279281
H 5.7782 -4.1824 -1.5946
O 9.65778 8.89853 -14.545
H 10.1996 8.07695 -14.7221
H 9.37002 8.90802 -13.5874
O -10.7843 -10.3051 11.6551
H -9.82989 -10.5187 11.4465
H -11.2668 -10.0755 10.8099
O 1.0379 -8.12102 5.42304
H 1.22894 -8.62313 4.57963
H 0.246281 -8.52636 5.88021
O -5.22385 4.90511 -1.59406
H -4.5165 4.33338 -1.17844
H -5.04684 5.86502 -1.37677
O 9.78365 -14.214 -12.9164
H 9.59472 -13.7934 -12.0291
H 8.92082 -14.4265 -13.375
O -6.14387 -4.4898 -1.12522
H -5.31262 -4.26848 -0.615322
H -6.56175 -5.31277 -0.74044
O -2.93863 11.0388 0.606674
H -2.37649 10.7054 -0.150183
H -2.75679 10.4911 1.42334
O -0.108188 -12.1456 8.99823
H 0.714422 -11.8429 8.51692
H -0.680073 -11.3534 9.21143
O 14.0372 -10.6608 4.42315
H -14.8456 -10.8906 4.19599
H 13.5294 -10.4708 3.58289
O -3.75331 11.0425 -9.88012
H -4.35992 10.4961 -10.4576
H -2.94167 11.3036 -10.4026
O -14.53 1.23656 -14.5879
H -14.7156 1.01977 14.2829
H -14.2745 2.2 -14.5076
O 10.0599 -12.3019 -10.6657
H 9.98128 -11.3147 -10.8038
H 11.0021 -12.5302 -10.4208
O 1.10756 -4.23025 -2.00834
H 0.701682 -4.46084 -1.124
H 1.26755 -5.06808 -2.53027
O -14.3235 -9.80649 -4.67456
H -14.4842 -10.3596 -3.8571
H 14.6473 -9.69386 -5.17491
O -0.294045 9.88485 10.3067
H -0.873524 9.3182 10.8924
H 0.637953 9.52245 10.3091
O -13.3896 3.2435 -6.91926
H -13.0392 3.80882 -7.666
H -14.3868 3.3119 -6.88901
O 9.71355 -3.51483 -8.87492
H 9.46912 -2.55871 -8.71353
H 10.6419 -3.56393 -9.24327
O -7.64838 -6.29901 6.76222
H -7.37291 -7.25596 6.85354
H -7.11184 -5.73626 7.39102
O -6.87942 0.159355 -1.82391
H -6.02628 -0.241785 -1.49045
H -7.62133 -0.503423 -1.72259
O -0.966138 8.99359 1.0662
H -0.503755 9.30091 1.89789
H -0.760093 9.62413 0.317909
O 5.3027 -1.32573 -0.373369
H 5.26719 -0.684131 -1.13956
H 5.18199 -0.826966 0.484898
O 3.43021 4.18404 10.6225
H 4.12077 4.31954 9.91208
H 3.86479 4.22625 11.5221
O -1.29949 2.3168 3.35334
H -1.31093 1.35818 3.63772
H -0.357688 2.65292 3.35226
O -12.2987 12.2297 -6.28274
H -12.8403 12.3887 -7.10818
H -12.684 11.4596 -5.77445
O 7.80814 -10.5507 -13.1825
H 7.5675 -9.77617 -12.5975
H 8.78888 -10.5296 -13.3766
O -12.4382 -10.7885 3.86327
H -12.1279 -11.4397 4.5558
H -11.7036 -10.1405 3.66216
O 13.0477 -8.65057 2.39833
H 12.1304 -8.96755 2.15744
H 13.4934 -8.27234 1.58701
O 10.5758 12.709 -6.00703
H 10.749 12.3543 -5.08825
H 11.379 13.2111 -6.32738
O 3.09402 -5.98484 -0.781342
H 2.18387 -5.68456 -0.496002
H 3.75639 -5.25744 -0.602151
O -1.73925 14.1689 -8.76518
H -2.62392 13.7942 -8.48787
H -1.06498 13.4319 -8.8119
O 8.08153 -5.82081 10.8761
H 7.39604 -5.15687 11.1749
H 8.99124 -5.4097 10.9342
O -1.97112 7.22949 9.10148
H -2.64303 7.25441 8.36129
H -1.04978 7.28956 8.71744
O -9.16045 -0.744872 -9.33824
H -10.1208 -1.02291 -9.35945
H -9.10263 0.243491 -9.19768
O 0.129871 -13.7503 -7.95614
H -0.358449 -13.0921 -7.38313
H -0.524735 -14.3852 -8.36636
O 8.9176 -1.28665 -3.1235
H 9.23612 -1.83005 -2.34682
H 9.58877 -1.33693 -3.86307
O 10.1463 5.39817 -1.85622
H 9.71158 4.69307 -1.29602
H 10.9254 5.00358 -2.34327
O 7.99578 -2.76646 -13.8115
H 7.19107 -2.23238 -14.0707
H 8.48902 -3.04689 -14.635
O 7.77934 -12.9015 3.51538
H 7.30984 -13.6183 4.03086
H 7.86926 -12.0851 4.08587
O 14.8541 4.03235 -14.2954
H 14.7149 4.90385 -13.8252
H -14.1349 4.07575 -14.8359
O -3.127 -6.52969 -12.3167
H -2.27491 -7.03915 -12.4365
H -3.90322 -7.12485 -12.5246
O -9.81043 1.95063 -10.586
H -8.87221 1.76033 -10.8749
H -10.4129 1.22025 -10.9077
O -7.3299 -9.67465 -13.1495
H -6.64975 -10.289 -12.7495
H -6.8796 -8.84002 -13.4666
O 10.2689 -10.3757 10.5376
H 11.0481 -10.928 10.8339
H 9.41844 -10.8287 10.8048
O -3.08499 -3.15625 -0.0503395
H -3.30551 -2.43772 -0.709913
H -2.85256 -2.74132 0.829302
O -2.51261 10.5 -14.0958
H -3.30171 9.92663 -14.3161
H -2.00863 10.7096 14.8955
O 3.36844 -8.84869 6.47303
H 2.5818 -8.454 5.99829
H 3.85864 -8.12747 6.96243
O 14.6725 -2.5047 -7.5695
H 14.6362 -2.59869 -6.57461
H 14.6464 -1.53539 -7.81389
O 13.5715 11.8421 4.90082
H 12.6504 11.7384 5.27595
H 14.0881 10.9985 5.04742
O -3.87968 -2.74755 -13.9464
H -3.77865 -1.80303 -14.2589
H -3.46461 -2.84562 -13.0419
O -0.05022 -13.2244 1.98646
H -0.553943 -12.3966 1.73945
H 0.842086 -12.9723 2.3609
O -8.27909 -13.6312 -3.33869
H -9.02867 -13.8822 -3.95111
H -8.37301 -12.6718 -3.07276
O 9.27361 -0.956933 13.0258
H 9.94757 -1.68406 13.1562
H 8.46722 -1.32853 12.5657
O -5.55651 4.59223 7.8134
H -5.70796 5.27286 7.09661
H -6.37799 4.51468 8.37831
O 1.17916 2.91502 9.3577
H 1.27615 2.83703 8.36549
H 2.05503 3.18431 9.75807
O -4.21402 -14.6572 2.54676
H -5.13148 -14.6928 2.94294
H -3.60117 14.5813 3.07159
O 13.8002 11.5979 2.02201
H 14.4116 10.8428 1.78558
H 13.9107 11.8258 2.98939
O 0.09602 -0.112481 9.17782
H 0.859704 -0.72829 9.37154
H 0.431074 0.828334 9.12716
O -4.51053 -1.38329 -9.45731
H -5.4356 -1.59985 -9.76924
H -4.38415 -1.72528 -8.52616
O 12.8774 -6.13214 11.6728
H 13.3169 -7.01188 11.8541
H 12.702 -5.66253 12.538
O -4.25594 -2.43593 8.90283
H -3.33249 -2.15367 8.64294
H -4.90912 -1.72864 8.63256
O -13.4233 0.630775 -0.836153
H -14.1751 0.407677 -1.45652
H -12.5737 0.711149 -1.35745
O 8.40634 2.68972 7.58853
H 8.56069 1.72065 7.78098
H 9.22952 3.20993 7.81592
O 9.49084 9.39538 6.58784
H 9.75937 8.62236 6.01312
H 8.65062 9.80164 6.22877
O 7.28065 -7.80072 0.609497
H 7.28767 -8.76162 0.886262
H 8.07942 -7.61261 0.0380509
O -4.98237 6.06144 -14.6772
H -4.52454 6.01227 -13.7895
H -5.76109 5.43415 -14.6858
O 11.0765 11.9492 1.92286
H 12.0505 12.055 1.72231
H 10.7286 12.7894 2.33866
O -14.8687 -5.55096 -3.78102
H 14.3142 -4.89688 -4.17397
H -13.941 -5.32015 -4.07447
O -1.76514 -1.44708 7.83701
H -2.13714 -0.856748 7.12071
H -1.26718 -0.890741 8.50221
O -0.0931767 3.47874 11.6226
H -0.886562 3.98826 11.2896
H 0.484102 3.21781 10.8489
O -0.41566 1.57559 -5.49037
H -0.234157 1.02667 -6.30628
H -0.506574 2.53724 -5.74906
O -0.0247926 13.1934 -12.2511
H -0.620097 12.414 -12.0559
H 0.624665 12.945 -12.9698
O -7.85811 -6.6437 10.2559
H -7.36677 -7.51441 10.2355
H -8.72564 -6.739 9.7678
O 12.358 -13.5382 -14.3358
H 11.4903 -13.3912 -13.8608
H 12.1847 -13.9733 14.6099
O -6.58474 -0.558425 3.66102
H -6.31581 -0.673181 2.70475
H -6.67931 -1.45641 4.09073
O -14.2841 -13.2622 8.34222
H 14.5773 -13.0422 8.21939
H -14.1621 -13.7615 9.19998
O -6.02874 -14.8863 -9.97277
H -5.94754 14.8285 -10.9629
H -5.73872 -13.9635 -9.71896
O 12.7536 -12.9539 -9.64374
H 13.6371 -12.6513 -10.0012
H 12.4327 -13.7409 -10.1707
O 13.2393 -9.67588 -14.8946
H 12.7106 -8.82747 14.9091
H 13.7151 -9.79838 14.0636
O 9.01236 7.68432 11.0417
H 9.00536 6.70463 10.8414
H 9.43422 8.17713 10.2807
O 11.2011 -7.38098 -9.83459
H 11.6062 -6.7207 -9.20225
H 10.226 -7.47833 -9.63533
O 9.32975 -0.0737616 -13.8896
H 8.53047 0.506122 -13.7319
H 9.04209 -1.02985 -13.9454
O 2.53146 -14.185 7.23312
H 1.77239 -14.4518 6.63937
H 2.75253 14.8897 7.85098
O 4.68109 12.944 11.9513
H 5.58193 12.8022 12.3615
H 4.09511 12.1596 12.1543
O 8.73826 -2.54164 8.89007
H 9.63979 -2.63539 9.31246
H 8.10377 -2.13275 9.54596
O 13.2663 -9.87959 -6.33284
H 12.5534 -10.4135 -6.78743
H 13.133 -8.90858 -6.53116
O -8.44194 10.0425 7.7771
H -8.25404 10.225 6.81205
H -9.24416 9.45049 7.85429
O 5.91167 -6.21648 2.28363
H 6.35563 -6.79334 1.598
H 4.93671 -6.14066 2.07465
O -0.867669 1.77769 -11.1959
H -1.27054 1.43877 -10.3458
H 0.0447199 1.38524 -11.3121
O -1.68122 13.5232 -2.2483
H -1.37571 14.2506 -2.86271
H -2.38724 13.8788 -1.63589
O 11.0382 -6.207 6.81027
H 10.8963 -6.99679 7.40697
H 11.0809 -6.51155 5.85875
O -5.59953 -12.5221 -8.61964
H -4.6007 -12.5701 -8.61816
H -5.94559 -12.7515 -7.7099
O -10.3213 -10.1537 0.172542
H -10.5289 -9.17939 0.259656
H -11.1456 -10.6881 0.359644
O -8.99784 10.6597 -12.7061
H -8.98412 11.4747 -13.2854
H -9.22499 9.85976 -13.2614
O 7.28935 4.99516 -6.1191
H 6.87037 4.56072 -6.9164
H 6.62645 5.60522 -5.68512
O -1.62846 -0.228504 4.08817
H -2.38761 -0.437878 4.70445
H -1.22036 -1.08061 3.76055
O 11.349 -7.0948 -12.7658
H 10.3752 -7.05354 -12.9894
H 11.4592 -7.29086 -11.7914
O -9.1821 -1.3324 -1.1886
H -9.79937 -1.0551 -0.452361
H -9.19297 -2.32856 -1.27523
O -11.3434 -12.5842 5.42428
H -11.3095 -12.0067 6.23994
H -11.6737 -13.4945 5.67385
O 2.75943 11.0174 11.7878
H 1.9233 11.3394 12.2318
H 2.63732 10.069 11.495
O -9.99921 -4.25879 -8.26028
H -9.39502 -3.77669 -7.62586
H -10.1034 -5.2084 -7.96474
O 13.6687 0.527862 -12.5797
H 14.158 0.693394 -13.436
H 13.0266 1.27605 -12.4127
O -3.05231 -1.95605 -3.49834
H -3.72697 -1.92961 -2.76071
H -2.96547 -1.0459 -3.90338
O 14.4795 -14.0103 -12.8673
H 13.8021 -13.7216 -13.5437
H -14.7025 -13.2655 -12.7048
O 9.64432 -11.1606 6.99389
H 10.3257 -10.4577 7.19789
H 9.14379 -11.3917 7.82818
O 2.51198 -13.7163 -6.56548
H 2.25159 -14.1353 -5.69565
H 1.70206 -13.6178 -7.14364
O -12.5998 11.8293 4.44795
H -12.0953 12.6161 4.09248
H -12.0598 10.9985 4.31285
O 11.4172 -12.9554 -2.49073
H 10.4239 -13.0515 -2.55481
H 11.8167 -13.0056 -3.40609
O 7.39653 -8.26899 -11.6617
H 7.88516 -7.72564 -12.3443
H 7.99325 -8.43193 -10.876
O -12.2008 9.44672 -1.75266
H -11.7126 9.0995 -0.952003
H -12.7175 10.2645 -1.49926
O 11.6256 -1.18455 -11.1809
H 11.2506 -1.94774 -11.7071
H 12.3527 -0.742818 -11.7063
O -3.72117 -14.2317 -6.25008
H -2.85438 -14.5224 -5.84499
H -3.61783 -14.1593 -7.24207
O -0.15097 8.60309 6.63064
H -0.513688 9.29618 7.25356
H 0.0824215 9.02967 5.75685
O 3.61303 -11.4588 -1.13931
H 3.23466 -11.0262 -0.321021
H 4.41172 -12.0056 -0.888189
O 2.21145 11.0609 0.80247
H 2.79516 11.858 0.957307
H 2.7618 10.311 0.435461
O -9.79961 5.47107 -14.4578
H -10.5982 5.93429 -14.842
H -9.89234 4.48391 -14.5877
O 11.1284 -9.03333 -2.74345
H 10.8136 -9.7846 -3.32348
H 11.3974 -8.25958 -3.31698
O 4.29091 9.10438 8.38548
H 5.13289 8.71481 8.75865
H 4.33638 10.1023 8.43147
O -2.53445 -9.47369 -8.82824
H -3.47743 -9.43332 -9.15856
H -2.15203 -8.55022 -8.79807
O 3.84029 10.1567 -5.37256
H 4.74281 10.0293 -5.7839
H 3.81502 9.70858 -4.47895
O 0.436196 -5.08842 0.429316
H 0.0976836 -4.57529 1.21803
H 0.14679 -6.04274 0.503386
O -0.854046 -5.82918 10.1863
H -0.963074 -6.27792 11.0733
H -1.67463 -5.97779 9.63449
O 9.02745 1.57495 -2.18233
H 8.84744 0.614521 -2.39476
H 8.84448 2.13499 -2.99032
O 12.8188 -12.4 12.3197
H 12.5583 -12.5898 11.3731
H 12.0226 -12.5147 12.9138
O 1.26903 -14.7226 -10.5847
H 0.887896 14.3068 -11.0485
H 0.615483 -14.3882 -9.90579
O 7.97406 13.8029 -14.5633
H 7.11541 14.312 -14.5046
H 7.80958 12.922 14.822
O -7.90604 4.95417 12.3495
H -8.6554 5.61136 12.2687
H -7.05419 5.38103 12.046
O -3.69142 -9.89046 14.675
H -2.72695 -9.63936 14.757
H -4.19062 -9.1523 14.2213
O 5.42549 -5.36309 12.2656
H 4.57446 -5.71301 11.8741
H 5.43665 -5.53903 13.2499
O 12.6664 4.20659 3.46787
H 12.613 3.35819 2.94124
H 12.9672 4.95075 2.87147
O 4.92675 -9.03525 -10.8344
H 5.16302 -9.86533 -10.3293
H 5.7473 -8.66515 -11.2699
O -5.60142 -11.6373 -11.7033
H -5.92181 -11.5857 -10.7574
H -5.57577 -12.5934 -11.9949
O 0.0894371 12.5792 -5.28368
H 0.574805 11.7293 -5.48886
H 0.508075 13.0185 -4.48892
O -9.94498 6.8421 11.5918
H -9.95433 7.83565 11.479
H -10.5111 6.42088 10.8832
O -8.07252 -12.9395 5.54758
H -8.83188 -13.2926 6.09408
H -8.42895 -12.5252 4.71018
O -13.9039 10.3311 -9.77057
H -13.0243 10.3659 -9.29618
H -13.9936 9.45413 -10.2426
O -2.57203 -4.00531 -5.96579
H -3.24426 -3.26662 -6.01491
H -1.99694 -3.87942 -5.15747
O -12.5848 -6.74909 12.5807
H -11.6153 -6.98157 12.6585
H -12.8318 -6.10347 13.3032
O -5.71444 5.76969 10.5846
H -5.47562 6.45274 9.89437
H -5.35698 4.87759 10.3083
O -7.65944 3.55387 0.453493
H -6.86121 4.00947 0.0595182
H -8.01359 4.09954 1.21296
O -5.5399 -14.4504 9.79968
H -6.52051 -14.2846 9.90392
H -5.27789 14.5787 10.3394
O 1.02389 -2.05817 -10.3955
H 0.252715 -1.98783 -11.0282
H 0.724823 -2.50851 -9.55427
O -1.9953 -7.22708 -2.86031
H -1.108 -6.87729 -3.16081
H -2.40027 -6.5896 -2.2049
O -0.358907 11.3034 7.65731
H -0.286824 11.1401 8.64123
H 0.531854 11.584 7.29988
O -1.46475 -11.403 -6.41086
H -1.0297 -11.5262 -5.51895
H -2.4205 -11.1386 -6.28185
O -2.158 -2.41598 -10.5706
H -3.07301 -2.03499 -10.438
H -2.13648 -3.35678 -10.2323
O -14.4472 0.0152455 1.88431
H -14.1763 0.100436 0.925495
H 14.5375 0.527985 2.03892
O 6.71444 2.93948 10.1087
H 6.0006 3.5377 9.74468
H 7.56949 3.10326 9.61677
O -9.49243 -11.0011 2.74979
H -9.72643 -10.2412 3.35628
H -9.45144 -10.6737 1.80582
O 8.35207 -4.37967 0.989413
H 9.23741 -4.75758 1.26019
H 7.62909 -4.79701 1.53993
O -2.94159 3.87812 4.89947
H -2.90855 3.58919 5.85623
H -2.30073 3.32894 4.36313
O 0.786053 8.71364 -1.15905
H 0.221855 9.31621 -1.72345
H 0.264832 8.42457 -0.356099
O 3.26071 5.19576 14.6954
H 3.94572 5.40617 13.998
H 2.59117 4.55369 14.322
O -11.4296 13.4553 12.2898
H -10.9093 14.2589 12.001
H -12.0456 13.1748 11.5537
O 7.67443 -11.0594 11.615
H 7.88082 -11.4909 12.4932
H 6.87466 -10.4674 11.7143
O 14.1826 -7.26864 -6.85746
H -14.8311 -7.27351 -7.43628
H 13.548 -6.56716 -7.18164
O -11.499 5.24982 6.73372
H -10.5639 5.54726 6.92585
H -11.6799 4.38974 7.21072
O 9.06888 4.89473 10.8625
H 9.64821 4.08617 10.7596
H 8.23838 4.64835 11.362
O -13.3617 -8.01404 1.01376
H -13.7283 -7.70351 1.89076
H -13.9245 -8.76271 0.663524
O 4.34931 9.221 -2.54698
H 5.16339 9.77644 -2.37754
H 3.89561 9.02098 -1.67859
O -9.85101 10.322 14.082
H -9.31759 10.4722 13.2496
H -10.3557 11.1548 14.3092
O 14.5838 -9.77319 -0.517893
H 14.6835 -10.5851 -1.0931
H 14.5494 -8.95765 -1.09553
O -4.65845 -4.08621 5.94579
H -3.99907 -4.80197 6.17575
H -5.06545 -3.72584 6.7851
O -11.1578 -1.3502 0.570559
H -10.948 -1.84291 1.41508
H -11.7733 -1.90134 0.00722612
O -0.128645 -8.86325 9.39294
H 0.586271 -8.18706 9.57077
H -0.382771 -9.31269 10.2493
O 7.0017 -0.808289 5.28569
H 7.80537 -0.545073 5.81934
H 6.36317 -1.30929 5.86985
O 14.3661 -1.62453 14.0374
H -14.8384 -1.52582 13.2628
H 13.9023 -0.754533 14.2044
O -14.363 -0.0805851 -10.5269
H 14.8994 0.314934 -11.2496
H -14.7974 0.0751092 -9.63981
O -14.7205 -2.34667 5.35483
H 14.9001 -2.1857 6.31949
H 14.6461 -3.17848 5.04812
O -3.24761 8.50811 -5.62957
H -4.14234 8.11784 -5.84664
H -3.03087 9.23047 -6.28621
O -0.365346 -0.460487 -7.51523
H -0.181075 -1.43685 -7.62799
H -1.09145 -0.183481 -8.14452
O 11.5837 14.6131 -10.7521
H 11.1777 14.893 -11.6221
H 12.1946 13.8361 -10.904
O 10.1702 -13.7215 2.45066
H 10.8749 -13.0402 2.25301
H 9.41901 -13.2891 2.94944
O 8.84197 3.66115 -4.04585
H 9.80951 3.90544 -4.11033
H 8.31757 4.19968 -4.70535
O -6.57591 -6.89012 -8.93998
H -6.97466 -7.31212 -8.12581
H -7.09285 -6.06732 -9.17606
O -9.28722 -0.18392 3.51656
H -8.28966 -0.242258 3.47858
H -9.62232 0.318228 2.71937
O -10.0891 -12.0513 -9.77145
H -10.6682 -11.2794 -10.0337
H -10.6317 -12.7152 -9.25679
O -2.80207 10.7628 9.39854
H -2.99731 9.9498 9.94712
H -1.85782 10.7253 9.07149
O 10.8061 7.31055 0.0114237
H 10.1607 8.0232 0.286336
H 10.3192 6.59553 -0.490299
O -1.33261 -3.89774 -3.57826
H -0.680822 -3.95925 -2.82238
H -1.98974 -3.16708 -3.39311
O 9.72638 2.81096 -11.5914
H 9.46355 1.967 -11.1238
H 9.02416 3.05381 -12.2606
O 5.43072 -6.13628 14.8722
H 5.93962 -5.74945 -14.188
H 5.03704 -7.01519 -14.6878
O -14.2756 -7.30193 3.37658
H -14.112 -7.26604 4.36244
H 14.5985 -7.5439 3.20578
O -3.34566 0.371826 -11.9254
H -2.73091 0.181087 -11.1601
H -4.2809 0.469728 -11.5852
O -5.24979 2.45974 1.42637
H -4.6893 2.20955 0.636933
H -6.18908 2.6291 1.12802
O -11.64 -7.42576 -10.5503
H -11.1883 -6.6356 -10.9646
H -11.5324 -8.22151 -11.1463
O -4.23436 -2.89145 11.6326
H -4.32808 -2.95087 10.6388
H -5.10415 -2.60279 12.0328
O -11.4532 2.18847 11.2278
H -12.0218 1.40221 11.4697
H -10.6057 2.16266 11.7579
O 7.75889 -8.3974 10.1641
H 8.10639 -9.13847 10.7386
H 7.93397 -7.51973 10.6102
O 7.28642 -9.56434 -1.98329
H 7.40983 -10.4233 -1.48643
H 7.80933 -8.84068 -1.53291
O 12.0674 6.80684 -10.0639
H 12.6702 6.22417 -9.51883
H 11.5973 7.45396 -9.46374
O -2.72062 7.74491 -12.4105
H -2.35142 7.87708 -11.4906
H -3.37921 8.46973 -12.6126
O -6.68247 12.2049 12.3242
H -7.65183 12.1261 12.0916
H -6.45231 11.5311 13.0263
O -7.18986 8.13847 -10.5865
H -7.87273 8.11215 -11.3166
H -7.0633 7.21866 -10.2152
O -1.24425 -10.917 0.416373
H -0.794047 -10.1988 -0.114149
H -2.22948 -10.888 0.247762
O -12.4566 4.4864 -2.27982
H -12.4073 3.97434 -3.13734
H -12.177 3.89616 -1.52261
O -8.94472 -4.00255 -1.34079
H -9.37207 -4.8581 -1.63295
H -8.00545 -3.96566 -1.68193
O -6.02481 -14.7604 -3.14053
H -5.57164 -14.5243 -2.28096
H -6.98024 -14.4674 -3.10505
O -2.41546 4.4277 10.2199
H -2.48772 5.40984 10.0462
H -3.18491 4.13178 10.7859
O -0.512703 4.91212 -3.43881
H -0.279878 4.51001 -4.32428
H -1.36297 5.43182 -3.52198
O 1.9231 -10.2076 -2.93913
H 2.49773 -10.523 -2.18394
H 2.42502 -9.53333 -3.48081
O -11.4646 -1.55291 -3.4695
H -10.4708 -1.65384 -3.51624
H -11.691 -0.684928 -3.02758
O -1.5711 -6.51353 13.0164
H -1.58899 -5.81213 13.7289
H -1.71631 -7.41239 13.4298
O 14.1446 6.97362 -6.19812
H 13.9551 7.16714 -5.23552
H 14.305 7.832 -6.68537
O -0.623958 7.35957 -6.64479
H 0.13657 8.0053 -6.57706
H -1.44834 7.77391 -6.25919
O -9.99103 -13.877 7.69442
H -10.6879 -14.5939 7.71227
H -10.4073 -13.0013 7.93909
O -3.26754 3.3288 7.63039
H -4.18344 3.71276 7.74724
H -2.79518 3.31928 8.51172
O 0.461162 8.70642 13.8673
H 0.337062 8.39214 14.8084
H -0.340655 9.23195 13.5829
O 2.93557 7.61501 6.68657
H 2.29399 7.06122 7.21728
H 3.62193 8.00806 7.29843
O 5.69798 11.8161 -2.72584
H 4.98614 12.3728 -3.15399
H 6.36519 11.5388 -3.41717
O 11.8935 11.8505 -3.82463
H 12.6882 12.2057 -3.33251
H 11.5533 11.032 -3.36173
O 12.4594 -3.09549 -9.32099
H 13.1058 -2.90971 -8.58099
H 12.4159 -2.30498 -9.93187
O -12.2531 13.9429 -0.783213
H -12.2353 -14.8941 -0.659499
H -12.3059 13.7296 -1.75874
O 6.33437 -13.3119 -9.60242
H 6.64903 -13.0669 -10.5194
H 5.44959 -13.7735 -9.6659
O 6.49513 6.19428 3.20663
H 6.71157 7.05891 2.75327
H 6.59144 5.44259 2.55421
O -1.05857 12.0236 4.32386
H -0.696218 11.4218 3.61213
H -0.71651 11.7283 5.21593
O 4.41686 -11.0494 -7.17353
H 4.26002 -11.8725 -6.62776
H 5.36119 -10.7437 -7.0519
O 7.6651 10.0671 -9.21283
H 8.13473 10.8532 -8.81101
H 8.30238 9.30003 -9.28647
O 12.6939 2.41455 -9.27635
H 13.1173 2.96808 -9.99352
H 12.7544 2.89775 -8.40295
O 0.462004 5.65101 -8.60813
H -0.0699435 6.02473 -7.84831
H -0.152016 5.41887 -9.36248
O 2.62271 -0.652115 -7.60005
H 3.26422 -1.41908 -7.61343
H 1.71365 -0.982334 -7.34601
O -0.279189 -11.44 5.37484
H -0.0125397 -12.2991 5.81168
H -0.636033 -10.8114 6.06585
O -14.7769 -10.7772 12.3643
H -14.1684 -11.1555 13.0619
H 14.1813 -11.2683 12.3799
O 13.7619 2.35719 -3.50064
H 13.7575 1.39002 -3.24662
H 14.1184 2.89992 -2.74015
O 3.6965 9.74093 -8.68417
H 4.41229 9.82046 -7.99043
H 3.43137 10.6534 -8.99568
O 10.3131 -13.2517 13.5271
H 10.0218 -13.877 12.8032
H 9.51921 -12.755 13.878
O 3.35866 8.72791 -0.271361
H 3.34751 8.02757 0.442338
H 2.46945 8.75247 -0.728159
O -7.20539 -6.84763 -0.489064
H -6.8035 -7.6214 0.000540027
H -8.07031 -7.12905 -0.904607
O 10.5626 -8.50245 -6.76248
H 10.2945 -9.23117 -7.3926
H 10.1761 -7.63412 -7.07332
O 8.56344 -14.5327 11.4926
H 8.39526 14.3334 11.7027
H 7.80903 -13.9783 11.844
O -13.5577 -12.3521 -6.54903
H -13.9687 -11.4492 -6.4236
H -12.9875 -12.5717 -5.75745
O 6.16437 -1.1669 9.3965
H 6.07089 -1.6072 8.50355
H 5.65498 -0.306387 9.39878
O 11.6619 11.0881 -11.7474
H 10.8006 11.3156 -12.2016
H 12.4148 11.5625 -12.2036
O 3.87357 6.66637 -12.9475
H 3.843 5.97275 -12.2278
H 3.72203 6.23225 -13.8355
O -6.11191 -0.228478 8.2966
H -7.03376 -0.324776 7.92124
H -5.58207 0.396222 7.72304
O -11.8682 -11.7428 8.20926
H -12.8427 -11.9197 8.34768
H -11.669 -10.787 8.42571
O 6.82865 8.1034 1.30943
H 7.36445 8.2113 0.472034
H 5.956 8.58161 1.21071
O -8.15438 -2.51213 7.07635
H -8.92037 -1.91894 6.82866
H -7.67281 -2.79805 6.24792
O -11.4836 1.13683 -7.39367
H -12.2885 1.63667 -7.71337
H -11.4378 0.249878 -7.85322
O 12.2848 5.53889 9.54812
H 12.8622 6.35423 9.50552
H 12.2528 5.20191 10.4891
O 12.9389 8.49526 -11.9002
H 12.4662 9.37601 -11.872
H 12.5424 7.88211 -11.217
O -2.58152 11.6731 -4.31705
H -2.27263 11.5551 -5.26077
H -2.04214 12.3911 -3.87714
O 8.28874 -7.49578 13.5897
H 7.80193 -8.34144 13.8085
H 7.70744 -6.91421 13.0207
O 6.64145 14.7489 4.97338
H 6.44848 14.6037 5.94377
H 7.14413 13.9634 4.61236
O 1.13091 14.3386 14.4312
H 0.484496 14.3594 13.6686
H 1.48014 13.4087 14.5468
O 6.60125 -12.9432 -12.3207
H 6.11883 -13.4579 -13.0295
H 7.00495 -12.1211 -12.7223
O -7.96508 14.6969 -8.09838
H -7.234 -14.8819 -8.73303
H -8.81368 14.5531 -8.60747
O 9.61521 -14.1018 6.36405
H 9.64361 -13.109 6.4799
H 10.1024 -14.3539 5.52793
O -6.80799 1.47438 -11.1979
H -6.74488 2.43181 -11.4795
H -6.77453 1.41752 -10.2001
O 7.66763 -12.1669 14.0758
H 7.41778 -13.0554 14.4608
H 7.39625 -11.4414 14.7082
O 6.60298 11.0435 9.03558
H 7.01719 10.1333 9.03724
H 7.02301 11.6021 9.75072
O 11.4113 1.48976 -0.0583534
H 10.8332 0.846872 0.444127
H 11.0286 1.63972 -0.969987
O 1.63716 -9.23024 -9.66105
H 2.49815 -9.49148 -10.0974
H 0.907774 -9.83985 -9.97144
O 1.21412 5.32938 -12.6308
H 1.7193 5.60323 -13.4492
H 1.8587 5.05055 -11.919
O -4.24746 -14.6525 14.5546
H -4.259 -13.7389 14.1483
H -3.4696 -14.7302 -14.651
O -4.25986 7.8403 13.2813
H -4.43287 7.12651 13.9599
H -5.08342 8.39519 13.1639
O -0.0394357 4.15257 -0.691443
H 0.926408 4.36607 -0.544723
H -0.258368 4.2491 -1.66238
O -4.26347 13.3368 -8.31246
H -4.90483 13.8048 -8.92037
H -4.12422 12.3997 -8.63255
O 10.9219 6.77643 2.79938
H 11.0389 6.77235 1.80626
H 11.0974 7.69562 3.15188
O 4.42992 -9.72599 11.9312
H 4.18678 -8.77371 11.7469
H 3.65194 -10.3163 11.7161
O -4.55407 -12.2763 1.35485
H -5.17945 -12.606 0.647631
H -4.42981 -12.9868 2.04747
O 6.55932 -0.234481 -3.71118
H 7.46221 -0.565758 -3.43732
H 6.65027 0.357587 -4.51189
O -9.21477 -12.3388 -14.1558
H -9.60269 -11.4858 -13.8066
H -8.92295 -12.9107 -13.3891
O 10.0585 4.06408 14.1273
H 9.38369 3.40356 13.7982
H 10.9003 3.58488 14.3757
O 9.23244 -7.62855 -1.2337
H 9.97096 -8.24708 -1.502
H 9.49645 -6.68591 -1.43786
O 14.1399 0.291628 -8.36445
H 14.0352 0.308252 -7.37011
H 13.6471 1.06436 -8.76445
O 10.3379 -7.73831 9.07546
H 9.41955 -7.82252 9.46213
H 10.8173 -8.61164 9.1618
O -8.22817 -11.3798 11.0039
H -8.36124 -11.9415 10.1874
H -8.41982 -11.9261 11.8192
O -7.55012 13.7718 7.76138
H -7.36549 14.6313 8.23792
H -6.86119 13.0939 8.0178
O -1.52619 -14.5104 -4.35164
H -0.921426 14.8378 -4.98637
H -1.36203 -13.5261 -4.41601
O -11.5694 -2.64811 13.3903
H -11.1456 -3.54588 13.51
H -11.5916 -2.17021 14.2684
O -2.80195 0.285593 -5.01553
H -1.80918 0.360924 -5.10878
H -3.24121 1.03287 -5.51412
O 9.69537 -10.6908 -4.83631
H 9.86921 -9.86493 -5.37263
H 8.74007 -10.7015 -4.54095
O 11.9605 -7.0493 -4.57347
H 11.4057 -7.70629 -5.08394
H 12.8633 -6.97523 -4.997
O -3.6697 -0.199794 12.323
H -2.82017 0.162053 11.9392
H -3.83427 -1.11764 11.9618
O 8.67308 -6.69425 -13.7586
H 7.87897 -6.16951 -13.452
H 8.66085 -6.76518 -14.756
O -6.94822 6.38836 6.00304
H -6.36747 7.18924 5.85714
H -6.8698 5.77252 5.21911
O 10.6373 -3.23496 -12.6558
H 11.1871 -3.52465 -13.4392
H 9.67733 -3.16976 -12.9283
O 10.2428 -6.15475 1.96634
H 10.5313 -6.92622 1.39928
H 11.0353 -5.58388 2.18065
O 5.02256 -1.11732 -11.8752
H 4.12035 -1.25158 -12.285
H 5.10431 -1.68488 -11.0559
O 9.58971 -13.2912 -6.61355
H 9.89242 -13.2643 -5.66088
H 9.92935 -14.1255 -7.04774
O 6.01047 -8.04052 -3.71865
H 6.42735 -8.35803 -2.86696
H 5.27946 -7.39087 -3.51
O 2.90228 13.7224 4.70843
H 2.14657 13.6972 4.05404
H 3.18865 14.6699 4.85052
O 7.77149 12.2854 11.1301
H 8.6047 12.1226 10.6017
H 7.69491 11.5976 11.8519
O 2.2424 -4.69913 -9.13511
H 2.57686 -5.3508 -8.45435
H 2.86651 -4.68339 -9.91626
O 11.5222 -2.50761 9.73868
H 12.4417 -2.89002 9.82969
H 11.5816 -1.51283 9.65593
O 10.7116 -5.25328 -1.32002
H 10.4359 -4.65315 -0.569131
H 11.491 -4.85042 -1.79974
O 4.38359 -13.5301 4.33461
H 5.24922 -13.9785 4.55718
H 4.40805 -12.5821 4.65194
O -12.7663 -14.7279 6.30713
H -13.368 -14.2644 6.95757
H -13.3178 14.58 5.65589
O -11.5621 -3.84271 -5.01228
H -12.2775 -3.86896 -5.71043
H -11.4675 -2.90905 -4.66687
O 4.92678 5.70976 5.53962
H 4.28541 6.42061 5.82823
H 5.44986 6.033 4.75103
O 3.07517 -6.82695 11.367
H 2.8867 -6.69955 10.3932
H 2.33282 -7.35103 11.7844
O -6.37072 -9.0925 0.393963
H -6.18533 -10.0227 0.710739
H -5.82846 -8.90502 -0.425035
O -9.94998 -5.88114 -12.3024
H -9.38985 -6.6981 -12.1653
H -9.59388 -5.35902 -13.0773
O -9.45011 13.2797 5.93295
H -8.79064 13.7759 6.49766
H -9.04766 12.415 5.63247
O 14.2081 5.73481 -8.69056
H 14.2303 6.2084 -7.81011
H -14.7233 5.33581 -8.8771
O -6.47991 -13.314 -0.433779
H -7.23432 -12.8077 -0.851446
H -6.78375 -13.7104 0.432558
O 13.574 3.95995 -11.678
H 13.9018 3.77786 -12.605
H 12.6874 4.42028 -11.7224
O 5.45774 10.4207 1.78929
H 5.15035 11.2681 1.35638
H 5.24818 10.4507 2.7666
O 4.68634 0.506209 1.75251
H 4.12022 1.1632 1.25469
H 4.1322 0.0479147 2.44739
O -3.81888 -7.66191 -4.83352
H -3.02879 -7.80193 -4.23676
H -4.55552 -7.2279 -4.31491
O 12.5971 8.98909 12.1021
H 12.3302 8.51831 12.943
H 12.381 9.96216 12.1819
O 12.6617 -6.40717 14.4908
H 12.5411 -6.65897 -14.3781
H 11.9212 -6.80226 13.9471
O 2.54833 -7.73611 1.17684
H 2.88007 -8.67919 1.19931
H 2.87396 -7.28799 0.344304
O 13.8391 0.106519 -1.90411
H 13.2721 -0.424991 -1.27489
H 14.4675 -0.505376 -2.38441
O 12.538 12.6865 8.62536
H 13.1328 11.9443 8.93402
H 12.4875 12.6798 7.62668
O 7.64286 -10.6465 0.534797
H 6.70721 -10.9351 0.737818
H 8.27134 -11.4036 0.713249
O 3.16558 -14.7775 -13.5595
H 2.67327 -14.0817 -13.0365
H 2.54771 14.6382 -14.2282
O -11.939 3.15639 8.53094
H -12.9346 3.22651 8.59199
H -11.5736 2.83166 9.4033
O -1.27229 -12.7856 -1.91891
H -1.25286 -12.6119 -0.934328
H -2.20867 -12.9924 -2.20247
O -8.28108 -11.3205 -1.50558
H -8.89828 -11.0125 -0.781601
H -7.80459 -10.5324 -1.89508
O -8.06569 10.922 -3.36743
H -8.58943 11.6949 -3.00927
H -7.15891 11.2357 -3.64901
O -4.42906 -0.883241 -1.11176
H -4.97356 -1.06791 -0.293604
H -3.94949 -0.0124724 -1.00343
O -7.96133 1.8163 7.37666
H -7.32793 2.35466 6.82084
H -8.87067 1.83816 6.96124
O 8.70845 2.82031 4.60529
H 7.83466 2.37838 4.40246
H 8.746 3.05439 5.57676
O -12.1646 -8.54979 -14.2452
H -13.1448 -8.42725 -14.09
H -11.725 -7.65498 -14.3228
O 6.94081 3.22452 12.9261
H 6.54572 3.15226 12.0103
H 6.37231 2.71911 13.5752
O 12.251 13.9271 10.9154
H 12.4192 13.3022 10.1531
H 11.9721 13.4035 11.7204
O 0.423193 12.5003 -8.10395
H 1.34568 12.5449 -8.48734
H 0.450363 12.7608 -7.13889
O -13.6896 11.4642 -0.75548
H -13.2387 12.304 -0.453158
H -14.4634 11.695 -1.34531
O -3.91562 5.09377 -12.3631
H -3.40277 5.92816 -12.1613
H -3.34496 4.29625 -12.1675
O -8.53138 13.3549 -1.97058
H -9.374 13.2572 -1.44105
H -8.15822 14.2729 -1.8368
O 13.6762 12.0105 -6.78735
H 13.4019 11.2013 -7.3069
H 13.4107 11.8977 -5.82988
O 10.488 0.68425 -9.58163
H 10.8742 0.0194439 -10.2211
H 11.1894 1.3513 -9.3304
O 10.098 -4.57582 -4.47165
H 10.1895 -4.85892 -3.51695
H 10.5209 -5.26111 -5.06452
O -13.9808 -2.51837 11.825
H -13.1916 -2.59847 12.4339
H -13.8227 -1.77948 11.17
O 5.44904 4.69824 8.7921
H 6.4404 4.70036 8.66113
H 5.00338 5.0509 7.96931
O 4.93003 2.34358 -10.7683
H 5.18703 1.4785 -11.1991
H 5.22717 2.34171 -9.81352
O -9.32623 -2.56637 9.90829
H -9.55415 -1.59824 9.80474
H -8.51563 -2.77819 9.36238
O -13.6378 -14.6712 2.41816
H -12.7129 14.8144 2.25536
H -14.0024 14.75 3.25515
O 4.31819 14.6203 -1.23374
H 4.96963 14.8216 -1.96522
H 3.39434 14.8545 -1.53639
O -0.516318 5.97085 12.7329
H -1.21392 5.57932 13.3329
H 0.0400518 6.62194 13.2491
O -9.61565 10.9196 -6.46797
H -8.87822 11.5947 -6.44714
H -10.1669 11.0024 -5.63777
O -7.61155 -14.1172 1.96134
H -7.14822 -14.2919 2.83011
H -8.59517 -14.0311 2.11958
O -1.08308 -7.12825 -8.85574
H -0.170193 -7.49718 -8.68114
H -1.49067 -6.82566 -7.99418
O -3.73082 -14.232 5.91456
H -4.67959 -14.2966 5.60532
H -3.12637 -14.1547 5.1217
O -12.6468 -13.1045 11.7073
H -13.2429 -13.7582 11.2411
H -12.6436 -12.2396 11.2054
O 3.8816 -7.33295 -8.76475
H 4.44046 -8.01851 -9.23127
H 3.01072 -7.74203 -8.49241
O 4.33322 0.817893 10.1507
H 5.0239 1.53407 10.0507
H 3.7989 0.983571 10.9796
O 14.1414 12.6876 -2.7363
H 14.5086 13.3173 -3.42088
H 14.0142 13.173 -1.87129
O -1.95692 14.909 -13.323
H -1.20695 14.3176 -13.0267
H -1.68201 -14.4189 -14.1434
O 2.15938 -10.7596 11.0893
H 1.99833 -10.7124 10.1035
H 2.42538 -11.6906 11.3393
O 2.12953 -10.8475 8.05938
H 2.23847 -9.97678 7.57985
H 2.96498 -11.3884 7.96217
O 4.64143 8.86214 -11.6984