2593
Atoms. Timestep: 18495000
O 1.5758 7.06514 -0.653538
H 1.23454 6.3396 -1.25117
H 2.26019 6.68843 -0.0292593
O -2.47943 -12.3345 -10.6809
H -2.00538 -12.0829 -9.8371
H -3.422 -12.593 -10.4693
O 13.7846 -14.0058 0.630529
H 14.6859 -14.2667 0.976236
H 13.749 -14.1597 -0.356925
O 0.848929 -14.1906 -12.9676
H 1.75422 -14.0689 -12.5605
H 0.362531 -13.3169 -12.9659
O -7.18145 -2.85428 -13.7736
H -7.5153 -2.24677 -13.0529
H -7.32661 -3.80555 -13.5015
O 2.99377 10.2947 -10.4477
H 3.73822 10.0124 -9.84263
H 2.64284 11.1833 -10.1524
O -0.892918 3.284 -9.22486
H -0.0822123 3.54213 -8.69936
H -0.931055 2.28846 -9.31131
O 11.8953 -9.90903 -9.68288
H 11.9457 -9.95971 -8.68543
H 11.6981 -8.96843 -9.95931
O -2.01092 -2.03633 -13.337
H -2.90663 -2.05107 -13.7815
H -2.1039 -2.34219 -12.3895
O -0.81268 -7.80804 -1.88466
H -0.70728 -8.80249 -1.88355
H -1.72231 -7.56889 -1.54495
O -11.0037 -4.8422 10.3397
H -10.9744 -5.43439 11.145
H -11.9017 -4.91398 9.90569
O 4.78677 -4.67225 -8.91377
H 4.99968 -3.89735 -9.50894
H 3.81591 -4.65217 -8.67489
O -14.7981 -7.52181 7.04955
H -13.8642 -7.87841 7.07678
H -14.7756 -6.54429 6.83985
O -9.92238 0.94754 -12.7619
H -9.03691 1.40314 -12.8535
H -10.2698 0.7088 -13.6687
O 9.60268 11.6953 11.8261
H 10.3886 11.1068 11.636
H 9.84166 12.6455 11.626
O -8.77866 -1.72161 14.102
H -8.10685 -2.24774 14.6235
H -9.53599 -2.31825 13.8365
O -7.63353 -3.87359 -2.7136
H -7.7149 -3.73764 -3.70099
H -7.83651 -3.01588 -2.2412
O 4.51147 6.69866 -6.3372
H 4.4751 7.20003 -7.20168
H 3.87462 7.11097 -5.68571
O 11.7278 -11.9132 11.921
H 11.8801 -10.9253 11.8931
H 10.8051 -12.0988 12.2589
O 4.76177 10.9453 -12.3376
H 5.60878 10.5256 -12.0113
H 4.02277 10.7493 -11.693
O -9.27628 8.03307 1.70821
H -9.69982 8.5127 2.47671
H -8.97295 7.12805 2.00649
O -10.7521 14.5641 -5.36382
H -11.7235 14.6201 -5.13305
H -10.2832 -14.3336 -5.03294
O 1.59369 -10.7577 3.72748
H 1.615 -10.1358 2.94468
H 1.61054 -11.7033 3.4025
O 9.90452 3.69442 3.87095
H 10.5848 3.78534 3.14361
H 9.09721 4.23842 3.6422
O -2.76632 -5.26938 -7.78632
H -2.12554 -5.34391 -7.0222
H -2.84814 -4.31116 -8.06045
O -7.65373 -12.9205 -14.057
H -7.56216 -13.8182 -13.6259
H -7.33939 -12.2131 -13.424
O 6.16621 10.4222 -1.43516
H 5.82259 9.62634 -0.93656
H 6.73459 10.1169 -2.19921
O 8.68653 -0.606138 -12.2896
H 8.52409 -0.216132 -11.3832
H 9.4946 -1.19448 -12.2593
O 11.8559 1.28009 2.92855
H 11.6919 0.815367 3.79869
H 12.4832 2.04551 3.07251
O -6.58419 1.30215 11.715
H -6.27487 2.17745 11.3432
H -7.04537 0.779696 10.9978
O -11.0824 -7.93475 10.122
H -10.2083 -8.05452 9.65127
H -11.7214 -8.64399 9.82404
O 8.74036 13.7946 -0.992401
H 8.49419 14.7512 -0.83642
H 7.94228 13.2143 -0.830061
O 6.89241 -10.0678 2.84394
H 6.40382 -10.2065 3.70537
H 6.75488 -9.12822 2.53031
O 3.74223 11.382 3.61115
H 3.78357 12.353 3.37546
H 4.22917 11.2267 4.47067
O 7.09103 13.052 -13.3954
H 7.05015 13.3321 -14.3545
H 6.88229 12.0766 -13.3238
O 2.65168 3.73997 5.2576
H 2.33308 4.54211 4.75255
H 2.60155 3.92275 6.23949
O 11.642 -4.50489 6.57052
H 10.897 -3.89025 6.82963
H 11.4731 -4.86526 5.65312
O -2.88287 -2.5362 -8.38447
H -2.06492 -2.4775 -7.81216
H -3.55378 -1.86128 -8.07724
O 11.4677 -3.33525 -5.94382
H 10.4702 -3.26433 -5.95702
H 11.7995 -3.19525 -5.01091
O -0.0396422 -11.6456 8.32208
H -0.648108 -10.9272 7.98478
H -0.115018 -11.7061 9.31742
O 3.41994 -9.79089 12.8745
H 2.8025 -9.90973 13.6521
H 4.30123 -9.44658 13.1983
O -8.23568 13.4171 10.6896
H -9.10231 13.2738 11.1676
H -7.66935 12.5972 10.7732
O -14.3202 -4.38209 12.1458
H -13.6189 -4.72123 12.7728
H -13.956 -4.36765 11.2146
O -12.8619 3.78 2.41671
H -13.5527 4.49909 2.34123
H -12.8646 3.41144 3.34632
O 6.71902 -5.71008 -11.3496
H 5.77177 -6.00036 -11.2136
H 6.90859 -4.91229 -10.7772
O 9.49995 8.09552 4.94651
H 8.92952 7.72362 4.21415
H 8.93243 8.63165 5.57142
O -12.3764 12.5851 -10.4443
H -12.6891 13.4086 -10.9177
H -12.3002 12.7723 -9.46492
O 0.00576153 8.06138 5.21727
H -0.0674622 8.69286 5.98921
H -0.848991 8.06888 4.69826
O 8.12349 -7.96549 -10.8835
H 8.32208 -7.78887 -9.91942
H 7.76486 -7.13395 -11.3077
O 2.0934 4.04973 -0.498992
H 1.34201 3.9794 0.157126
H 2.78224 3.35479 -0.292645
O 3.22777 11.8096 7.97676
H 2.30674 12.182 8.09107
H 3.19735 11.0321 7.34859
O 13.1966 3.88325 7.34565
H 12.2971 3.75581 7.76364
H 13.188 4.70868 6.78119
O -0.0517189 -10.843 10.8767
H 0.231599 -11.0242 11.8184
H -0.0504195 -9.85656 10.7122
O -11.0685 6.27465 0.0800616
H -10.8385 7.1209 0.560697
H -11.174 5.53313 0.742654
O 7.93608 7.16514 -4.13722
H 7.79961 6.18783 -4.2993
H 7.09785 7.66092 -4.36437
O 4.52301 11.7515 12.8963
H 3.94364 11.8876 12.0927
H 5.1481 12.5262 12.9917
O 13.8266 12.8197 -2.97764
H 14.561 12.1728 -2.77227
H 13.1398 12.3731 -3.55117
O 6.92876 9.73216 -11.2342
H 6.48232 8.84792 -11.0969
H 7.29551 10.0592 -10.3632
O -13.9283 2.29919 14.7916
H -14.4237 3.16764 14.8111
H -14.3121 1.71248 14.0785
O 7.09191 -3.38817 -9.60584
H 7.57957 -2.70746 -10.1525
H 7.67657 -3.69282 -8.85392
O 1.90315 -1.9965 6.55082
H 2.58883 -1.28794 6.38405
H 1.97074 -2.30934 7.49824
O -13.1175 8.55761 -9.77188
H -13.8062 8.27452 -10.4393
H -12.9132 7.79396 -9.15939
O 14.8019 2.41018 -1.3133
H -14.053 2.33716 -1.8152
H -14.7497 2.84725 -0.42915
O 5.23243 8.73362 -3.83624
H 4.66917 9.19697 -3.15209
H 4.70526 8.61604 -4.67784
O -1.70732 10.4129 1.40262
H -2.36756 10.8735 0.809382
H -0.882177 10.9724 1.48061
O -11.505 14.3425 13.5398
H -12.4016 14.1202 13.1567
H -10.9087 13.542 13.4787
O -4.15895 -3.46815 -14.1892
H -4.1085 -4.46155 -14.2923
H -4.97428 -3.22873 -13.662
O -4.70589 -11.4716 -12.3237
H -3.87562 -11.3018 -11.7928
H -4.89772 -12.453 -12.3377
O 6.53229 9.22422 2.35819
H 6.11503 9.11948 1.45545
H 6.83245 8.33076 2.69235
O -10.5775 -12.116 -7.8237
H -11.1805 -12.4468 -8.5496
H -11.1226 -11.8797 -7.01932
O -13.355 9.75922 12.6889
H -12.7123 9.17062 12.1984
H -12.8671 10.5497 13.0592
O -2.44464 4.37883 -2.70915
H -2.20621 3.70156 -3.40519
H -3.38848 4.23363 -2.41231
O 9.27259 2.90449 12.5909
H 8.80635 2.90421 13.4756
H 8.59395 2.89448 11.8565
O 2.09316 4.23141 8.12589
H 1.99574 4.32494 9.11674
H 2.03592 3.26505 7.87508
O 6.24714 3.05749 -6.92367
H 5.26895 2.91241 -6.77497
H 6.62137 2.29332 -7.44906
O 14.1063 -1.17936 9.90124
H 13.7086 -2.08116 10.0702
H -14.6833 -1.14865 10.2749
O -3.11695 -13.9147 -5.92403
H -3.66721 -14.4607 -6.55582
H -3.30532 -14.2014 -4.98468
O 6.12997 -9.76555 5.49691
H 6.8635 -9.6436 6.16556
H 5.5673 -10.5497 5.75868
O -8.84849 12.849 6.73517
H -8.03068 12.5336 6.25381
H -8.71632 13.7946 7.03252
O -3.06077 10.9574 5.71856
H -3.28053 10.6103 4.80681
H -3.88912 11.3196 6.14593
O -6.47839 -0.509258 0.576056
H -5.77846 -1.17055 0.845915
H -6.79459 -0.717591 -0.349491
O -8.55341 10.334 -11.8189
H -9.43958 10.2795 -11.3587
H -7.95676 9.60637 -11.4803
O -8.69699 -1.61428 -11.7302
H -9.39187 -1.96417 -11.102
H -9.07613 -0.852843 -12.2561
O -13.3049 -14.2351 -5.32349
H -13.8184 -13.4014 -5.52632
H -13.9345 14.7063 -5.27246
O 2.99353 -9.35564 -3.34998
H 2.57607 -9.9963 -3.99442
H 3.74541 -9.80789 -2.87022
O -2.50241 11.9419 14.7034
H -3.11032 12.5593 14.2041
H -3.02615 11.4472 -14.3198
O 4.25495 3.83806 -12.554
H 4.75132 3.41627 -11.7953
H 4.88768 4.38284 -13.1044
O 13.5181 -3.76864 10.2795
H 13.9029 -3.8986 11.1933
H 12.779 -4.42605 10.1325
O -1.64501 12.6404 8.28237
H -0.731391 12.9843 8.49939
H -1.65244 11.6433 8.35761
O -1.07751 -8.24359 -5.9303
H -0.954204 -8.93899 -5.22232
H -1.03541 -8.67452 -6.83172
O -12.7294 -11.491 3.68304
H -12.1495 -11.2736 4.46819
H -13.1453 -12.3909 3.81488
O -9.88764 0.133989 -8.47599
H -9.48556 -0.659671 -8.93257
H -9.15863 0.738102 -8.15407
O -11.924 13.0647 3.08218
H -12.0433 13.2887 4.04947
H -12.4728 12.2599 2.85624
O 11.145 -7.98452 -5.24959
H 11.7471 -7.18613 -5.23989
H 11.424 -8.60344 -5.98387
O -1.16333 -6.22453 12.2171
H -0.259794 -6.49746 12.5474
H -1.08584 -5.37152 11.7009
O 6.9674 -8.8713 9.42463
H 6.03819 -9.12999 9.68859
H 7.58416 -9.00701 10.2
O -9.62307 1.45424 3.14848
H -9.03116 0.653075 3.06012
H -10.3331 1.27075 3.8284
O -14.5529 6.81526 8.6805
H 14.2 6.69584 8.91929
H -14.3952 7.76021 8.39373
O 12.3917 7.37752 1.40997
H 12.2313 7.52525 2.38591
H 13.1701 7.93049 1.1127
O 1.9965 1.255 4.91563
H 2.4743 0.638026 4.29027
H 2.58366 2.03665 5.12608
O -2.54945 4.42881 -11.2357
H -1.96685 4.02994 -10.5275
H -2.13262 4.28093 -12.1326
O -12.6725 12.4794 -13.1776
H -13.644 12.6866 -13.2926
H -12.5342 12.0007 -12.3106
O -3.04976 1.18416 -14.758
H -3.13222 0.657785 14.1124
H -2.11499 1.52818 -14.6692
O -14.1158 12.284 8.77194
H -13.1608 12.5237 8.94677
H -14.4347 12.7612 7.95302
O -10.5333 10.1675 0.32185
H -10.075 10.9703 -0.059637
H -9.88327 9.40994 0.382258
O 11.1432 -13.0218 -6.13778
H 10.4184 -13.5752 -6.54816
H 10.9953 -12.9578 -5.15084
O 13.5745 3.40908 -12.1839
H 13.5583 2.46827 -12.5225
H 14.5116 3.75706 -12.2112
O -6.84893 -9.68696 13.8944
H -5.87963 -9.87843 14.0487
H -7.35115 -9.79723 14.7521
O -12.2547 7.746 4.00496
H -13.1552 8.17255 3.91964
H -11.5527 8.38294 3.6865
O 9.97423 9.13778 -2.79662
H 9.49256 8.3021 -2.53269
H 9.34839 9.74134 -3.29065
O 9.9414 -8.94272 -12.8214
H 9.40623 -8.67865 -12.019
H 10.0892 -9.93171 -12.8128
O -0.726743 6.84777 -11.75
H -1.28216 6.79643 -10.92
H -0.884619 6.03283 -12.3077
O -4.86938 10.1338 3.33539
H -4.5335 9.19978 3.21388
H -5.74122 10.2394 2.85708
O 12.1184 10.2683 -1.81022
H 11.8122 11.0484 -1.26463
H 11.3268 9.82281 -2.22845
O 3.84964 -7.50899 2.92809
H 3.26809 -8.15075 2.42812
H 3.50061 -7.3983 3.85866
O -6.31962 -11.7573 -3.29073
H -6.78437 -11.9592 -2.42859
H -5.67705 -11.0033 -3.15441
O 5.86803 -0.453772 -12.8155
H 6.77055 -0.684491 -12.4519
H 5.1704 -0.991177 -12.3417
O 3.74689 -2.37788 13.0036
H 3.10105 -3.02352 12.5961
H 3.26099 -1.77493 13.6363
O 3.1284 12.6559 10.6659
H 3.27057 12.4267 9.70294
H 2.20668 13.024 10.7883
O 0.327346 14.6828 14.1316
H 0.415368 -14.6974 -14.6476
H 0.214698 13.6892 14.1432
O -11.6379 0.564582 14.6118
H -11.9207 -0.347665 -14.8086
H -12.3855 1.21113 14.7637
O -1.2074 -10.3282 -4.26226
H -0.564218 -11.0884 -4.17024
H -2.06555 -10.663 -4.65156
O -10.2481 -12.6314 -4.44547
H -11.0624 -12.1833 -4.07664
H -9.53074 -11.9504 -4.59274
O -13.6595 -13.9551 7.88737
H -14.3111 -13.4652 7.30818
H -14.1236 -14.7153 8.34208
O 9.80235 3.57109 6.58194
H 9.65962 4.50294 6.91557
H 9.81619 3.57351 5.58202
O 6.42615 5.83378 -1.11694
H 5.97153 4.9631 -1.30473
H 6.9173 5.77274 -0.24799
O -0.246868 -8.45259 -8.41883
H -0.343042 -7.79199 -9.16341
H 0.200526 -9.27857 -8.76177
O -10.0338 0.370421 12.618
H -9.27392 0.0167897 13.1634
H -10.8027 0.588118 13.2192
O 13.1143 5.96753 5.41719
H 12.328 6.42709 5.83025
H 13.9586 6.38742 5.7502
O -9.38854 10.428 -8.27552
H -10.1525 10.1505 -8.85806
H -8.63259 9.78303 -8.38748
O 8.8599 -10.6517 11.1573
H 8.56253 -10.2146 12.0062
H 8.43515 -11.5537 11.0803
O 5.87794 2.41472 6.16775
H 5.88247 3.33096 6.56839
H 5.96207 1.73279 6.89433
O -2.37988 -10.7783 2.46591
H -2.93294 -11.5805 2.24111
H -2.16566 -10.7842 3.44269
O -7.11633 -8.68233 -6.64678
H -6.8324 -8.71727 -7.605
H -6.43612 -8.17698 -6.11578
O -11.963 -11.9599 8.63946
H -12.6549 -12.5873 8.28215
H -12.2399 -11.6391 9.54524
O 5.64382 12.705 -4.3098
H 4.77966 12.9129 -3.85148
H 5.59027 12.9895 -5.26701
O 8.39221 12.9843 -10.451
H 9.0421 13.7441 -10.432
H 7.7787 13.09 -11.2336
O 14.6022 13.646 -5.81026
H 13.9067 13.9495 -5.15889
H 14.8268 12.6873 -5.63557
O 9.61404 0.559878 -6.07541
H 9.78884 0.340466 -5.11555
H 10.2853 1.23028 -6.39167
O 5.50143 9.68187 -8.58198
H 5.20967 8.73716 -8.73174
H 6.46463 9.69467 -8.31345
O 0.153003 9.83784 9.51693
H -0.271543 9.82474 8.61161
H 0.921984 9.19877 9.53375
O -1.50881 12.8793 -12.1945
H -0.704026 12.849 -12.7873
H -2.24518 12.341 -12.6044
O -4.4335 -6.44243 -9.39817
H -4.24246 -7.42156 -9.4678
H -3.83701 -6.03479 -8.70676
O -12.2603 8.07365 6.70456
H -11.9621 7.75514 5.80476
H -11.6019 7.77952 7.39735
O -6.90954 -4.41881 2.23271
H -6.63946 -5.38157 2.21886
H -7.89577 -4.34711 2.08356
O 10.9595 4.60659 11.5613
H 10.5804 3.82553 12.0575
H 11.7315 4.30361 11.0025
O -0.740057 10.3975 6.81557
H -0.0243545 10.9739 6.42106
H -1.62942 10.6747 6.45193
O -3.60534 -6.77889 13.0145
H -2.7325 -6.37952 12.734
H -4.27832 -6.65482 12.2853
O -4.89355 5.85063 0.268428
H -4.36032 5.06498 0.582192
H -4.91566 5.86063 -0.731291
O 11.9813 -14.0833 5.44676
H 11.9047 -13.8973 4.4672
H 11.9427 -13.2221 5.95361
O 1.46323 -6.97988 12.7622
H 2.21571 -6.93586 12.1051
H 1.71056 -7.59423 13.5115
O 7.79901 14.0021 5.62016
H 7.94271 13.4099 4.82725
H 6.81873 14.0899 5.79729
O 13.0309 1.36604 10.9645
H 12.7582 2.20193 10.4881
H 13.3082 0.676427 10.2955
O 4.7135 14.1129 -7.13869
H 3.76962 14.2753 -7.4263
H 5.18373 13.5664 -7.8317
O 2.60154 10.126 -7.3473
H 2.26798 11.0442 -7.13385
H 3.50822 10.1893 -7.76438
O 11.5109 -13.8585 -12.1276
H 12.4866 -13.9303 -11.9207
H 10.9806 -14.2382 -11.3695
O 0.659989 0.477255 -6.63162
H 0.245404 0.19575 -7.49701
H 0.0671747 0.204696 -5.87379
O -13.0178 -9.07676 -1.96943
H -13.9689 -9.01517 -1.66678
H -12.4098 -8.88513 -1.19896
O -9.67283 3.97019 10.5246
H -10.3528 4.46191 11.0686
H -9.96213 3.01992 10.4092
O -6.65147 -12.1958 -7.19102
H -6.25323 -12.6921 -6.41955
H -7.61707 -12.0124 -7.00664
O -7.7165 3.6219 -10.6806
H -6.74338 3.48029 -10.4989
H -7.90942 3.41834 -11.6405
O 8.78843 0.0770341 4.34903
H 8.81381 0.867484 3.73701
H 9.20221 -0.710959 3.89309
O 0.829467 -10.4111 -10.6244
H 0.062342 -10.6642 -11.2139
H 1.55606 -11.0926 -10.7119
O 11.8056 5.62346 -4.29072
H 12.4638 4.88686 -4.13478
H 11.7371 6.18873 -3.46865
O -13.1955 -14.6876 1.72287
H -12.6513 14.3998 2.27773
H -12.7947 -13.7725 1.76689
O 6.19336 -3.32811 5.1731
H 5.37144 -3.22992 4.61201
H 5.96619 -3.8194 6.01397
O 7.46126 2.78881 -4.23798
H 8.28597 3.32272 -4.42453
H 6.9743 2.61743 -5.09445
O -0.142854 -4.80586 -13.1902
H 0.681208 -4.25879 -13.043
H -0.939065 -4.30849 -12.8457
O 6.9857 -7.17811 4.88075
H 6.53463 -8.07004 4.84869
H 6.30217 -6.4642 5.0329
O 0.266871 0.99147 6.93475
H -0.553341 1.55134 6.81718
H 1.01608 1.38125 6.39923
O -5.26324 -6.18277 -5.69759
H -5.59539 -5.8863 -6.59303
H -5.06091 -5.38115 -5.135
O 4.62055 -12.4705 8.35035
H 3.87826 -12.5479 7.68473
H 4.23913 -12.4547 9.27463
O 9.43395 0.678844 1.43603
H 10.4162 0.642577 1.61991
H 9.05931 -0.248325 1.44178
O -8.22871 -11.074 -5.19441
H -7.56946 -11.2667 -4.46757
H -7.89098 -10.3215 -5.75984
O -7.36063 -12.238 -0.900865
H -7.93298 -11.437 -1.07659
H -7.5932 -12.6245 -0.00838002
O -12.2742 -5.63394 1.65232
H -12.6325 -5.96603 2.52489
H -12.9549 -5.04661 1.21438
O -10.1296 14.8054 -7.89044
H -10.231 14.326 -7.01871
H -10.1941 -13.9251 -7.73793
O -5.40484 -12.968 14.194
H -4.74711 -13.3454 14.8459
H -6.33277 -13.0994 14.5429
O -8.21991 -3.95614 -5.73327
H -7.50346 -4.24762 -6.36712
H -9.11635 -4.15797 -6.12785
O -8.84475 -7.56619 2.25649
H -9.3042 -6.67799 2.2619
H -9.44492 -8.25441 2.66415
O 14.4561 -9.83381 14.1825
H -14.3685 -9.61818 13.7855
H 13.7567 -9.2532 13.7657
O 12.068 -7.12088 -12.2815
H 12.1457 -6.58916 -13.1249
H 11.3501 -7.80909 -12.3863
O 7.83902 -9.44383 13.3365
H 6.91965 -9.05051 13.3455
H 7.84548 -10.2884 13.8719
O 0.350871 9.49928 -5.71371
H 1.22965 9.67881 -6.15591
H 0.31779 8.54625 -5.4126
O 2.96247 13.2269 -3.58645
H 2.67504 12.3028 -3.33453
H 2.16328 13.8271 -3.61991
O 6.9943 -3.38671 -1.15941
H 6.27625 -2.94164 -0.624305
H 7.69025 -3.75442 -0.542588
O -7.3592 10.2533 0.017772
H -7.52614 11.2248 0.185867
H -7.43623 9.74823 0.877431
O 14.1715 9.03928 10.6072
H 14.7472 9.14804 9.79678
H 14.7504 8.94466 11.4171
O -4.22614 0.00204896 -7.70993
H -4.76365 -0.41013 -8.4456
H -4.7277 0.77648 -7.32428
O -8.59873 6.33121 -14.6623
H -8.8866 7.09552 14.4774
H -8.40141 5.53627 14.4807
O -9.86155 10.0927 -3.01557
H -9.09516 10.7347 -2.99299
H -9.51354 9.15639 -2.96819
O -0.55698 10.6836 -10.7825
H -1.23916 9.963 -10.9067
H -0.910167 11.5439 -11.1501
O -0.352317 -6.60547 -10.5331
H 0.121191 -5.72659 -10.4748
H -1.25409 -6.47162 -10.944
O 2.88652 -13.7773 5.17076
H 2.29206 -14.0796 5.9159
H 3.29508 -12.8956 5.40708
O 0.0751547 -7.77411 5.00763
H 0.955337 -7.42006 4.69147
H 0.139091 -8.76443 5.13091
O 8.34966 -1.43357 13.4352
H 7.53182 -1.59177 12.8819
H 8.99349 -0.86479 12.9233
O 7.05621 13.4569 13.5127
H 7.6309 12.8161 13.0036
H 6.65977 14.1232 12.8811
O 11.7243 8.06336 -12.98
H 11.2137 8.79832 -12.5338
H 12.0699 8.38514 -13.8615
O 14.8454 9.57354 -14.7375
H 13.8558 9.4348 -14.7755
H -14.4957 9.55073 14.0527
O -5.64384 -0.442178 4.50822
H -6.44834 -0.888742 4.11657
H -5.90195 0.455097 4.86641
O -11.598 6.98974 -12.661
H -11.1038 7.18279 -13.5086
H -10.9474 6.91672 -11.905
O -10.5097 -13.7297 -1.87237
H -10.0919 -13.3657 -2.70481
H -11.4049 -14.1181 -2.09108
O -13.3789 5.02061 -12.059
H -12.7436 5.76805 -12.2532
H -12.8916 4.28108 -11.5947
O -6.22434 -5.9283 -1.67451
H -6.8725 -5.28375 -2.08006
H -6.71823 -6.57963 -1.09843
O -1.05166 3.27202 11.3755
H -1.45977 3.26484 10.4626
H -1.77092 3.17157 12.0629
O -14.4246 -0.335564 -7.34597
H -13.8878 0.190911 -6.68669
H -14.6066 -1.24657 -6.97587
O -2.23236 -0.847034 10.186
H -2.28212 -1.64563 10.7858
H -3.05359 -0.805966 9.61682
O 5.97957 -6.87149 -1.47436
H 5.22958 -7.51959 -1.60671
H 5.6196 -5.93856 -1.48443
O 1.0825 8.2622 -8.6204
H 1.61238 8.89484 -8.05557
H 1.28118 8.43089 -9.58585
O 7.22683 -4.41189 -13.7095
H 6.85027 -4.78048 -12.8596
H 6.55582 -4.51514 -14.4438
O -11.6744 -6.7582 -7.268
H -11.0762 -7.40335 -6.79267
H -11.2658 -5.84574 -7.24498
O 5.18848 -5.42393 7.13297
H 5.81332 -5.63911 7.88351
H 4.31503 -5.11074 7.50583
O 2.80073 4.34775 -10.2174
H 2.86213 3.40723 -9.8832
H 3.18584 4.39988 -11.1388
O -3.73568 11.2822 -12.3446
H -3.84002 10.2921 -12.2511
H -4.49938 11.7421 -11.8915
O -0.643736 -11.4862 -12.5967
H -0.907364 -11.5579 -13.5587
H -1.43294 -11.6932 -12.0185
O -7.94561 2.05914 -7.70909
H -7.05133 2.17575 -7.27701
H -7.91103 2.40704 -8.646
O -2.29047 4.54508 0.52414
H -1.42693 4.04946 0.617331
H -2.10388 5.49713 0.28162
O -2.84551 12.3475 3.09825
H -3.68779 11.9126 2.77976
H -2.10762 11.6728 3.11476
O 7.22072 5.36754 -9.64592
H 7.30059 5.34993 -8.64926
H 8.02717 5.81095 -10.0371
O 11.0965 -4.84814 -1.42953
H 10.237 -5.23194 -1.0919
H 11.5185 -5.48893 -2.07088
O -13.3405 10.4776 0.0513137
H -12.3633 10.2654 0.0589361
H -13.5599 11.0659 0.829631
O 1.1097 -1.3177 -9.32633
H 2.02295 -0.926125 -9.21378
H 0.428917 -0.585342 -9.31182
O 11.6267 -7.12329 -9.55265
H 11.8685 -6.92312 -10.5021
H 11.312 -6.28615 -9.10526
O -4.42528 14.4892 -8.13689
H -4.16693 13.6187 -8.55599
H -5.28937 14.3791 -7.64571
O -13.907 10.6948 -8.28221
H -13.4933 9.93939 -8.79037
H -13.4499 11.5502 -8.52587
O -12.7315 14.3 -1.42692
H -12.5297 13.5367 -2.04068
H -12.7337 13.9755 -0.481023
O -4.18553 14.4772 -3.20167
H -3.51682 -14.7469 -2.6447
H -4.31854 13.559 -2.82842
O 5.68677 7.34467 -11.579
H 6.38104 6.71293 -11.9238
H 4.81419 7.16027 -12.0313
O 0.206896 3.6838 1.53935
H 0.109418 2.92764 2.18646
H 0.130452 4.55282 2.02821
O -4.33277 7.10242 12.4881
H -4.15953 7.9279 13.0253
H -3.4677 6.63407 12.3083
O 3.80205 -14.2323 -12.6603
H 4.44904 -14.1405 -13.4172
H 3.8774 14.5683 -12.2666
O -11.1474 4.92314 6.96327
H -11.2617 4.04291 6.50266
H -11.7722 4.97529 7.74233
O 1.68431 -7.78661 -6.1205
H 2.47554 -8.386 -5.99923
H 0.945839 -8.29496 -6.56353
O -9.65456 -1.56875 -3.14425
H -10.1821 -1.84767 -3.94672
H -9.05558 -0.805898 -3.38777
O -6.53935 -4.61833 -8.14946
H -5.92542 -5.09052 -8.78204
H -7.39481 -4.39726 -8.61779
O 13.4375 -6.22562 3.00627
H 13.3626 -7.20286 2.80771
H 12.541 -5.86945 3.26997
O -0.535074 -5.40827 -5.81507
H 0.379744 -5.26489 -6.19266
H -0.655813 -6.37562 -5.59217
O -1.28994 8.10129 -2.73871
H -0.803546 7.71939 -3.52459
H -1.425 7.38762 -2.05135
O 5.6626 -1.20183 -5.89151
H 5.76315 -2.18176 -5.71935
H 4.92371 -0.83786 -5.32443
O 2.49251 -5.40676 7.87592
H 2.17935 -5.85612 8.7126
H 1.79032 -4.77043 7.55648
O 9.35633 -8.09228 3.64181
H 9.1716 -8.20839 2.66589
H 8.54785 -7.71221 4.09118
O 11.5994 -11.9859 -2.08788
H 11.6384 -12.9851 -2.07384
H 11.5312 -11.6418 -1.15141
O -7.2539 8.13246 -4.7171
H -6.71675 7.33873 -5.00255
H -6.90018 8.47939 -3.84845
O 14.3737 0.965216 5.10436
H 13.4342 0.814761 5.41212
H -14.7097 0.517569 5.7357
O 8.86351 -7.2549 -8.4573
H 9.84425 -7.06118 -8.48284
H 8.38335 -6.48843 -8.0307
O -5.51105 1.40889 -13.5726
H -6.31709 1.344 -14.1609
H -4.68443 1.33178 -14.1301
O -14.1057 -5.32716 -1.64276
H -13.8089 -4.66176 -0.957831
H -14.7544 -5.96545 -1.22816
O -10.9308 5.61587 3.06789
H -11.5498 6.37611 3.26499
H -11.4641 4.78722 2.89786
O -6.09366 1.3084 7.71409
H -6.63486 1.53971 6.90562
H -6.70562 1.12241 8.48282
O 3.64092 13.9619 3.14217
H 3.54005 14.541 2.33318
H 3.74929 14.5375 3.95272
O -4.79076 9.04147 10.1841
H -4.33217 9.87216 10.4998
H -4.6079 8.29576 10.8248
O 11.4111 -5.2658 9.5329
H 11.8618 -4.76303 8.79526
H 10.465 -5.4605 9.27401
O 3.53912 7.33476 -13.3444
H 2.83644 7.05521 -12.69
H 3.13918 7.95678 -14.0175
O -12.5553 4.90594 14.0995
H -13.5419 4.77364 14.0036
H -12.1737 4.17228 14.6618
O 7.69596 13.6355 2.08928
H 8.31294 14.3014 1.66983
H 7.12448 13.2191 1.38218
O 8.76461 -6.14249 6.77728
H 8.85706 -5.14779 6.73209
H 8.51828 -6.4957 5.87474
O -13.5751 -4.29007 9.39591
H -14.5703 -4.21532 9.45792
H -13.2715 -3.96478 8.50032
O -11.9216 0.369069 -10.6921
H -11.3779 -0.131802 -10.0186
H -11.3395 0.631583 -11.4617
O -10.7393 5.05961 -2.32915
H -10.7758 5.48247 -1.42367
H -10.5089 5.75306 -3.01183
O 3.01261 -9.49851 0.991909
H 2.64909 -8.94695 0.241131
H 3.71168 -10.121 0.640066
O 9.24964 6.50948 -10.9849
H 10.2125 6.23999 -11.0032
H 9.00966 6.94777 -11.8511
O 1.03193 12.6535 -7.38591
H 0.184636 13.1721 -7.27104
H 1.57754 13.0641 -8.11652
O -12.3113 -6.44347 -3.48721
H -12.8459 -6.152 -2.69396
H -11.8876 -7.32898 -3.29647
O -9.97039 6.86004 -10.573
H -9.06997 7.29507 -10.5691
H -9.86155 5.8693 -10.6543
O -11.1716 -3.96052 -6.82895
H -11.5455 -4.18808 -5.92982
H -11.8701 -3.49479 -7.37227
O 8.13806 10.1459 -8.72252
H 8.49056 9.39853 -8.15936
H 8.81864 10.8771 -8.77005
O -4.9381 -4.83132 10.8401
H -5.81335 -4.35093 10.8967
H -4.20744 -4.17275 10.66
O 8.97922 -9.78455 -7.25084
H 9.95685 -9.62883 -7.10932
H 8.60145 -9.04594 -7.8092
O 3.62667 -11.1104 5.67011
H 2.87997 -11.0363 5.00906
H 3.58242 -10.3434 6.31028
O 9.63934 -11.7726 8.86352
H 9.6115 -11.0179 9.51904
H 8.71739 -11.9485 8.51843
O 2.64908 5.187 13.3226
H 2.91672 4.25735 13.5758
H 3.31395 5.83716 13.6904
O 1.20837 11.8335 5.52587
H 2.19157 11.9878 5.62361
H 0.830283 12.4937 4.87679
O 13.8152 11.4665 -10.7483
H 13.4059 10.8486 -10.0769
H 14.5319 10.984 -11.2518
O 11.0252 -2.4423 0.0298611
H 11.0714 -3.33722 -0.41401
H 10.6713 -1.76709 -0.617303
O 12.3364 1.31258 -1.81636
H 11.6207 1.96878 -1.57724
H 13.1953 1.58288 -1.38132
O -0.934469 4.45082 -13.6495
H -0.518783 5.08279 -14.3036
H -0.717445 3.51025 -13.9107
O 13.108 -0.662429 -5.27576
H 12.2955 -0.788805 -4.70674
H 13.4539 -1.55477 -5.56584
O -6.22121 3.53966 -4.15058
H -7.20249 3.6941 -4.03539
H -5.80319 3.3715 -3.25783
O 14.0355 -11.4264 -10.1605
H 14.792 -10.8672 -10.4996
H 13.2314 -10.8489 -10.0192
O -4.52264 7.52789 2.75638
H -4.67894 7.10898 1.86189
H -4.52365 6.81865 3.46136
O -3.39674 -14.1921 -13.9746
H -2.5934 -14.0845 -13.3888
H -4.21086 -14.3087 -13.4057
O 10.9829 -1.59066 4.23621
H 11.6886 -2.19059 4.61318
H 11.1005 -0.667222 4.60156
O -3.29956 -3.53975 -2.73306
H -3.2212 -4.50471 -2.48259
H -3.89134 -3.45032 -3.5342
O 12.4054 -8.90503 12.5733
H 12.3762 -8.6231 11.6143
H 11.5049 -8.772 12.9874
O -14.821 -2.70577 -6.27582
H 14.7281 -2.89955 -7.24244
H -14.7052 -3.56569 -5.77868
O 2.79292 -14.3988 -8.6761
H 3.37339 -13.5869 -8.61309
H 2.22744 -14.3412 -9.49886
O 9.19138 10.5848 -12.9499
H 8.40552 10.5883 -12.3315
H 10.0271 10.7552 -12.4279
O -8.38972 14.3452 -2.07452
H -9.21799 -14.8174 -2.15859
H -7.58931 -14.7726 -2.04863
O -14.7687 5.75463 1.99861
H -14.7331 5.97909 1.02476
H -14.6919 6.59377 2.5371
O 7.56126 -10.9859 -3.35997
H 8.5274 -10.7457 -3.45444
H 7.45021 -11.9729 -3.47628
O -6.35441 -14.0431 -4.82604
H -6.62408 -13.1858 -4.38747
H -5.73682 -14.5467 -4.2219
O 13.9036 -11.3508 4.34405
H 13.3457 -11.0161 5.1035
H 14.4157 -10.5897 3.94583
O -4.83787 -12.5282 -9.34966
H -5.17921 -11.7995 -8.75602
H -4.92564 -13.4077 -8.8819
O 4.28632 -9.50404 -6.58072
H 5.16982 -9.87729 -6.29763
H 4.41885 -8.88358 -7.3537
O 8.35556 -7.20936 -4.25513
H 7.43395 -7.20629 -4.64327
H 9.00941 -7.50593 -4.95122
O 0.758499 14.0488 11.1288
H 1.34497 14.1578 11.9314
H -0.186303 13.9053 11.4234
O -9.09705 -6.90384 -9.69011
H -9.60842 -7.70967 -9.39152
H -8.12159 -7.12155 -9.72338
O 10.7444 0.532486 12.2949
H 11.601 0.837188 11.8786
H 10.2594 1.32045 12.6743
O -3.7868 -6.26559 0.945037
H -2.95004 -6.01963 0.455795
H -4.55877 -6.25885 0.3094
O -5.45174 -1.67628 13.2509
H -6.28985 -2.14296 12.9684
H -5.01858 -2.18878 13.9923
O -0.78708 -7.20276 -14.1369
H -1.77736 -7.34132 -14.1238
H -0.559539 -6.37502 -13.6239
O -11.2641 10.2233 -11.1903
H -11.777 9.42334 -10.8788
H -11.6546 11.0489 -10.783
O -0.209736 14.2106 -4.75886
H -0.353688 14.4129 -5.72757
H -0.314259 13.2281 -4.60436
O -8.09621 -12.7894 2.0266
H -7.6167 -12.1274 2.60266
H -9.0771 -12.5954 2.04145
O 6.33772 12.5745 0.0848118
H 5.42296 12.9658 0.185335
H 6.29644 11.7828 -0.524649
O 7.38457 -13.062 4.97265
H 7.77648 -13.9651 5.14836
H 8.05725 -12.4931 4.49955
O 5.04902 5.52371 -14.6957
H 5.62263 5.79208 14.247
H 4.58137 6.32944 -14.3322
O 8.31456 0.23805 -9.87813
H 7.87454 0.0355363 -9.00326
H 8.60356 1.19529 -9.89219
O -13.9704 2.84204 -7.09977
H -14.8382 2.45577 -6.78693
H -14.1249 3.76376 -7.45559
O -5.7456 -0.714258 -11.0972
H -6.30668 -0.176402 -11.7265
H -6.31094 -1.03437 -10.337
O 4.78577 8.98739 11.9782
H 4.80727 9.08812 10.9835
H 4.93119 9.87914 12.4067
O 12.0277 -5.27033 -14.6954
H 12.5054 -4.39302 -14.7418
H 11.0501 -5.1261 -14.8491
O -0.920797 11.3749 -4.58872
H -0.38496 10.6117 -4.9498
H -1.87817 11.2661 -4.85638
O -5.37808 6.0239 -5.20897
H -5.39229 5.02407 -5.19613
H -5.14647 6.34218 -6.12825
O -7.44558 1.79942 5.37332
H -6.96827 2.6716 5.48062
H -8.04388 1.8431 4.57322
O 1.71016 12.7542 -12.7678
H 1.62334 13.7471 -12.8496
H 2.42286 12.4296 -13.3896
O 10.9059 10.5904 8.71062
H 11.6514 10.3477 8.08988
H 11.2148 10.493 9.65672
O 5.55779 0.203863 -0.595519
H 6.41476 0.686621 -0.775994
H 4.79969 0.855975 -0.603998
O 4.44029 -4.15845 -2.4626
H 5.30437 -3.74548 -2.17478
H 3.70639 -3.48352 -2.3858
O 14.0291 0.716091 -13.1311
H 13.2991 0.319268 -13.6876
H 14.7821 1.00195 -13.7238
O 2.52222 -3.70391 -13.5892
H 2.36237 -3.42425 -14.5359
H 2.2328 -2.97217 -12.9721
O 8.73151 -11.3038 1.22877
H 8.2096 -12.0396 0.797251
H 8.31702 -11.073 2.1091
O -3.52421 0.921348 11.743
H -4.44809 0.597903 11.9476
H -3.05351 0.247303 11.1737
O -2.5553 -14.3671 9.7023
H -2.24178 -14.2621 8.75853
H -2.84844 -13.4792 10.0569
O -3.62131 9.32081 -1.66807
H -4.24166 8.56072 -1.86163
H -2.69109 9.06786 -1.93402
O -0.016135 1.57485 3.33484
H 0.597081 1.65606 4.12059
H -0.918872 1.2776 3.64587
O 7.65988 -12.2618 -8.17552
H 8.09783 -12.6652 -8.97891
H 8.05037 -11.3577 -8.00179
O 11.1291 7.57402 7.21394
H 10.5182 7.8413 6.46873
H 11.9383 8.16162 7.2086
O -11.272 -8.30976 -11.9222
H -11.5333 -7.36145 -11.7419
H -11.6231 -8.58803 -12.8163
O 12.554 11.5589 -5.09984
H 13.2099 10.9061 -5.47874
H 11.6738 11.4537 -5.56275
O -14.0506 13.8442 12.9559
H -14.4847 13.7911 13.8552
H -14.7299 13.6571 12.2463
O -2.61566 -3.69004 8.33541
H -3.13536 -4.35364 7.79729
H -2.76008 -2.77306 7.96351
O -3.47838 9.09431 14.0197
H -3.4573 10.0425 13.7025
H -2.70893 8.93236 14.6376
O 3.53956 -0.33856 3.13247
H 3.41102 -1.32999 3.15651
H 4.49824 -0.122168 3.31724
O 6.45103 -1.80184 11.608
H 5.56672 -2.13069 11.9395
H 6.67772 -2.26273 10.75
O -5.04317 -3.45768 -11.4071
H -5.2362 -2.52961 -11.0886
H -4.05425 -3.5847 -11.4841
O 7.08877 -12.7783 7.67938
H 7.12166 -12.5915 6.69752
H 6.1402 -12.7423 7.99395
O 10.6854 -0.299113 -3.77549
H 11.3568 0.315916 -3.3619
H 9.97818 -0.520547 -3.10409
O -13.7268 0.0109559 7.05317
H -13.8729 0.936705 7.40198
H -13.1103 -0.482845 7.66639
O 14.3203 -12.1922 -4.12264
H 14.0298 -11.2823 -3.82631
H 14.2281 -12.2645 -5.11576
O 3.28945 9.26933 6.62425
H 2.62834 8.7206 6.11254
H 4.17501 9.24233 6.16049
O 0.701126 1.4134 13.0181
H 1.59564 1.80664 12.8054
H 0.0710347 1.59011 12.2619
O -5.56563 -9.63328 5.49448
H -5.95446 -8.87581 6.01896
H -6.2938 -10.0988 4.99138
O -8.67066 -5.29549 4.61277
H -7.79163 -5.65677 4.30165
H -8.8239 -4.39508 4.20559
O 11.5845 5.29824 -12.1382
H 12.4641 4.82409 -12.0984
H 11.734 6.2589 -12.3724
O 5.16164 -3.73898 -5.49393
H 5.93487 -4.03435 -4.93277
H 4.31577 -3.82455 -4.96743
O 5.02851 3.82859 -2.97881
H 4.46817 3.01 -3.10512
H 5.89807 3.71469 -3.45935
O -5.80974 0.512213 -4.20684
H -5.25036 1.1798 -4.69822
H -6.76848 0.795071 -4.23563
O 1.9506 -2.55961 9.20053
H 2.16539 -2.6991 10.1672
H 1.19594 -1.90878 9.11731
O -13.4305 10.7962 5.2721
H -12.5502 11.2108 5.50294
H -13.6946 10.1528 5.99061
O -2.72521 14.2524 0.870612
H -2.28233 13.7126 1.58648
H -2.72451 13.7353 0.0146522
O -14.1387 9.52235 8.23386
H -14.1391 10.5217 8.1972
H -13.4445 9.16614 7.60842
O -12.5772 2.72636 -2.99947
H -12.741 3.69194 -3.20169
H -11.8035 2.64389 -2.3713
O -10.3357 -9.07657 3.92639
H -10.4914 -9.87823 4.50357
H -10.9269 -8.32864 4.22827
O 10.0936 13.949 -3.49793
H 9.4548 13.5669 -2.83008
H 10.488 13.2091 -4.04304
O 8.28059 -14.7953 9.13508
H 7.70554 14.1043 9.09549
H 8.08202 -14.2096 8.34923
O 7.49475 10.5708 -4.28262
H 6.75907 9.9574 -4.56984
H 7.10154 11.4133 -3.91421
O -8.29399 -12.2994 11.2195
H -8.59072 -12.4194 12.1669
H -7.30894 -12.1284 11.1978
O 3.31712 2.48439 13.2641
H 3.9185 2.205 14.0126
H 3.8153 2.43106 12.3986
O -11.7197 -6.02928 -10.3174
H -12.3128 -5.90455 -9.52198
H -10.8172 -6.33619 -10.0153
O 0.380324 -0.432998 9.24825
H 0.303111 -0.0937752 8.3107
H -0.491734 -0.307001 9.72118
O 9.43 -3.21173 7.41441
H 8.97009 -2.45712 6.94637
H 9.2926 -3.12517 8.40115
O -9.86797 5.59186 -6.86297
H -9.00106 5.62598 -7.36029
H -9.98786 4.68271 -6.4641
O 7.60929 2.78708 1.9491
H 6.77856 2.42485 2.37182
H 8.26621 2.045 1.81569
O -12.6746 -11.7069 -3.5312
H -13.6322 -11.9569 -3.67406