LAMMPS data file Created by LigParGen - (Written by Leela S. Dodda)

       19 atoms
       17 bonds
       26 angles
       14 dihedrals
       2 impropers
 
       19 atom types
       17 bond types
       26 angle types
       14 dihedral types
       2 improper types
 
   -50.0    50.0 xlo xhi
   -50.0    50.0 ylo yhi
   -50.0    50.0 zlo zhi

Masses

       1     12.011  
       2     12.011  
       3     15.999  
       4     12.011  
       5     15.999  
       6     15.999  
       7      1.008  
       8      1.008  
       9      1.008  
      10      1.008  
      11      1.008  
      12     12.011  
      13     12.011  
      14     15.999  
      15     15.999  
      16     15.999  
      17      1.008  
      18      1.008  
      19      1.008  

Pair Coeffs 

       1      0.066  3.5000000 
       2      0.070  3.5500000 
       3      0.210  2.9600000 
       4      0.066  3.5000000 
       5      0.140  2.9000000 
       6      0.140  2.9000000 
       7      0.030  2.5000000 
       8      0.030  2.5000000 
       9      0.030  2.5000000 
      10      0.030  2.5000000 
      11      0.030  2.5000000 
      12      0.066  3.5000000 
      13      0.070  3.5500000 
      14      0.210  2.9600000 
      15      0.140  2.9000000 
      16      0.140  2.9000000 
      17      0.030  2.5000000 
      18      0.030  2.5000000 
      19      0.030  2.5000000 

Bond Coeffs 

       1   317.0000     1.5220 
       2   570.0000     1.2290 
       3   317.0000     1.5220 
       4   320.0000     1.4100 
       5   469.2840     1.3226 
       6   340.0000     1.0900 
       7   340.0000     1.0900 
       8   340.0000     1.0900 
       9   340.0000     1.0900 
      10   340.0000     1.0900 
      11   317.0000     1.5220 
      12   570.0000     1.2290 
      13   214.0000     1.3270 
      14   469.2840     1.3226 
      15   340.0000     1.0900 
      16   340.0000     1.0900 
      17   340.0000     1.0900 

Angle Coeffs 

       1     80.000    120.400
       2     70.000    116.000
       3     50.000    109.500
       4     85.022    110.040
       5     35.000    109.500
       6     35.000    109.500
       7     35.000    109.500
       8     35.000    109.500
       9     35.000    109.500
      10     33.000    107.800
      11     33.000    107.800
      12     80.000    120.400
      13     33.000    107.800
      14     33.000    107.800
      15     35.000    109.500
      16     35.000    109.500
      17     80.000    120.400
      18     81.000    111.400
      19     85.022    110.040
      20     35.000    109.500
      21     35.000    109.500
      22     35.000    109.500
      23     33.000    107.800
      24     33.000    107.800
      25     83.000    123.400
      26     33.000    107.800

Dihedral Coeffs  

       1      1.711     -0.500      0.663      0.000 
       2      0.650     -0.250      0.670      0.000 
       3      0.000      0.000      0.275      0.000 
       4      0.000      0.000      0.275      0.000 
       5      0.000      0.000      0.275      0.000 
       6      1.757      0.000      1.475      0.000 
       7      0.000      0.000      0.760      0.000 
       8      0.000      0.000      0.275      0.000 
       9      0.000      0.000      0.275      0.000 
       10      4.669      5.124      0.000      0.000 
       11      0.000      0.000      0.132      0.000 
       12      0.000      5.124      0.000      0.000 
       13      0.000      0.000      0.132      0.000 
       14      0.000      0.000      0.132      0.000 

Improper Coeffs 

       1     10.500      -1       2 
       2     10.500      -1       2 

Atoms 

   1  1  1    -0.3013    -0.6103    -0.1338     1.8855
   2  1  2     0.3677    -0.7785    -0.6104     0.4669
   3  1  3    -0.4269    -1.4121    -1.6336     0.2085
   4  1  4     0.0299    -0.2069     0.2733    -0.6270
   5  1  5    -0.1510     1.1722     0.5044    -0.3725
   6  1  6    -0.1450     1.6118     1.4247    -1.4100
   7  1  7     0.1234    -1.0808    -0.8464     2.5682
   8  1  8     0.1234    -1.0919     0.8400     2.0030
   9  1  9     0.1234     0.4517    -0.0658     2.1327
  10  1 10     0.1282    -0.7556     1.2211    -0.6298
  11  1 11     0.1282    -0.3256    -0.2267    -1.5936
  12  2 12    -0.2764    34.8783    -1.6498    -0.8551
  13  2 13     0.5714    35.2239    -0.3183    -0.2596
  14  2 14    -0.3932    36.3158     0.2206    -0.3789
  15  2 15    -0.1510    34.1344     0.1664     0.4190
  16  2 16    -0.1450    34.5098     1.4598     0.9845
  17  2 17     0.1314    35.7455    -2.0395    -1.3958
  18  2 18     0.1314    34.0508    -1.5363    -1.5601
  19  2 19     0.1314    34.6180    -2.3549    -0.0615

Bonds 

     1      1      2      1
     2      2      3      2
     3      3      4      2
     4      4      5      4
     5      5      6      5
     6      6      7      1
     7      7      8      1
     8      8      9      1
     9      9     10      4
    10     10     11      4
    11     11     13     12
    12     12     14     13
    13     13     15     13
    14     14     16     15
    15     15     17     12
    16     16     18     12
    17     17     19     12

Angles 

     1      1      1      2      3
     2      2      1      2      4
     3      3      2      4      5
     4      4      4      5      6
     5      5      2      1      7
     6      6      2      1      8
     7      7      2      1      9
     8      8      2      4     10
     9      9      2      4     11
    10     10      8      1      9
    11     11      7      1      8
    12     12      3      2      4
    13     13      7      1      9
    14     14     10      4     11
    15     15      5      4     10
    16     16      5      4     11
    17     17      12      13      14
    18     18      12      13      15
    19     19      13      15      16
    20     20      13      12      17
    21     21      13      12      18
    22     22      13      12      19
    23     23      18      12      19
    24     24      17      12      18
    25     25      14      13      15
    26     26      17      12      19

Dihedrals

     1      1      5      4      2      1 
     2      2      6      5      4      2 
     3      3     11      4      2      1 
     4      4     10      4      2      1 
     5      5      9      1      2      4 
     6      6     10      4      5      6 
     7      7     11      4      5      6 
     8      8      8      1      2      4 
     9      9      7      1      2      4 
     10      10      16      15      13      12 
     11      11      19      12      13      15 
     12      12      16      15      13      14 
     13      13      17      12      13      15 
     14      14      18      12      13      15 

Impropers

     1      1      2      1      3      4 
     2      2      13     12     14     15 
