LAMMPS data file via write_data, version 18 Jun 2019, timestep = 600000

10000 atoms
3 atom types
11000 bonds
1 bond types

-1.1371830097629800e+01 1.1371830097629811e+01 xlo xhi
-1.1371830097629800e+01 1.1371830097629811e+01 ylo yhi
-1.1371830097629800e+01 1.1371830097629811e+01 zlo zhi

Masses

1 1
2 1
3 1

Pair Coeffs # lj/expand

1 1 1 0
2 1 1 0
3 1 1 0

Bond Coeffs # fene

1 30 1.5 1 1

Atoms # bond

9906 991 1 -1.0906866571968020e+01 -1.1079143601987132e+01 -1.0649697371920965e+01 0 1 1
9907 991 1 -9.8686460732843351e+00 -1.1110823524207765e+01 -1.0808439872018056e+01 0 1 1
915 92 1 -8.6260739345097299e+00 -1.0722527437599139e+01 -1.0823416105341645e+01 0 1 0
9039 904 3 -6.5392570592486834e+00 -1.1073517759730077e+01 -1.1012611185819020e+01 0 0 1
939 94 1 -3.7812883000669992e+00 -1.0983751602743965e+01 -1.1173467783560293e+01 0 1 0
936 94 1 -1.9792912297132708e+00 -1.0595263206380103e+01 -1.0942553904390325e+01 0 1 0
861 87 3 -7.5344216572791667e-01 -1.1298652852167898e+01 -1.0907763628256104e+01 0 1 0
1954 196 1 3.7009157090217643e-01 -1.0831557122986194e+01 -1.0736405034270195e+01 0 1 0
866 87 3 1.7074481150589917e+00 -1.1295097638187542e+01 -1.1020302670278733e+01 0 1 0
1980 198 3 3.0673948456821880e+00 -1.1180369013146576e+01 -1.1246588546289187e+01 0 1 0
1979 198 1 3.9237854465298088e+00 -1.1334148019932861e+01 -1.0889893628283229e+01 0 1 0
997 100 1 7.5596669310736662e+00 -1.1108231475163246e+01 -1.0808382401944545e+01 0 1 0
198 20 1 -1.0401709012425417e+01 -1.0242870149688303e+01 -1.0973836641631014e+01 1 0 0
9026 903 1 -7.5030123326186606e+00 -1.0373194571043998e+01 -1.0811205886801840e+01 0 0 1
31 4 3 -5.5270180209136859e+00 -1.0422926085584617e+01 -1.0683585502309816e+01 0 0 0
1040 104 3 -3.1962558894891742e+00 -9.8092485008060351e+00 -1.0602594364490859e+01 0 0 0
1955 196 1 -3.5829673295907977e-01 -1.0316537697974262e+01 -1.0736809649673798e+01 0 1 0
870 87 3 2.5709234596655230e+00 -1.0350855924126355e+01 -1.1357180895607936e+01 0 1 0
9060 906 3 4.5066708918795682e+00 -9.8285666116429304e+00 -1.1134851378917139e+01 0 0 1
1972 198 1 5.2856968367062303e+00 -1.0562109157271578e+01 -1.1166161774331808e+01 0 1 0
986 99 1 7.3146773042333733e+00 -1.0280532580781260e+01 -1.1339158969299588e+01 0 1 0
987 99 3 8.0365997840339620e+00 -1.0019734073262097e+01 -1.0692113629995561e+01 0 1 0
900 90 3 9.5744881875828352e+00 -1.0103337399175965e+01 -1.0863429565682953e+01 0 1 0
199 20 1 -1.0993938930427436e+01 -9.5634750118523471e+00 -1.1270099483508753e+01 1 0 0
9015 902 1 -9.4042435347328794e+00 -9.7215628229116753e+00 -1.0770660434810045e+01 0 0 1
8022 803 1 -7.7858858704766538e+00 -9.3893036850675777e+00 -1.1099426197773100e+01 0 0 1
8023 803 1 -6.8780902550461800e+00 -9.4050280692026238e+00 -1.1176040618434699e+01 0 0 1
115 12 1 -5.8849207481860262e+00 -9.1124347666174614e+00 -1.0919984895907385e+01 0 0 0
117 12 1 -4.6916889151256429e+00 -9.1851911913890270e+00 -1.0770866295187158e+01 0 0 0
9032 904 1 -3.6559933501280186e+00 -9.0513705592304419e+00 -1.1265030153513681e+01 0 0 1
9156 916 1 9.7305798675405875e-01 -9.2808860569091358e+00 -1.1209390255116196e+01 0 0 1
9157 916 1 1.8623626660801629e+00 -9.3396578008288937e+00 -1.0724612730661288e+01 0 0 1
9182 919 1 1.0455404560360110e+01 -9.4851846635927348e+00 -1.0737884333272175e+01 0 0 1
9003 901 1 -1.0960462365885535e+01 -8.5733425282014295e+00 -1.1043393642307386e+01 0 0 1
9014 902 1 -9.4851876928007588e+00 -8.7725209963716146e+00 -1.1043508845698547e+01 0 0 1
1019 102 1 -7.3987243407066794e+00 -8.2841525466417849e+00 -1.0893313773944053e+01 0 0 0
118 12 3 -5.0044835231997995e+00 -8.3541438327694699e+00 -1.0731359471234274e+01 0 0 0
159 16 1 -2.6844076933269432e+00 -8.7314423446275615e+00 -1.0743102582041564e+01 0 0 0
160 16 3 -1.7648437600638303e+00 -8.6407265750692108e+00 -1.1235638869851405e+01 0 0 0
9241 925 3 2.8481991391070677e-01 -8.5786173058711128e+00 -1.0895563548494740e+01 0 0 1
174 18 3 2.3642520490529799e+00 -8.3235465311542676e+00 -1.0646140991240211e+01 0 0 0
9267 927 3 3.6396634989513625e+00 -8.7088099585283434e+00 -1.1172491814459253e+01 0 0 1
8173 818 1 4.8472775873221448e+00 -8.8536270355604820e+00 -1.0971482707873738e+01 0 0 1
8171 818 3 5.9698301485417735e+00 -8.5876790872749069e+00 -1.1244527841167383e+01 0 0 1
273 28 3 7.1340410970896091e+00 -8.7850780410953533e+00 -1.0860231246642973e+01 0 0 0
275 28 1 8.0135611201071857e+00 -8.2730440323618399e+00 -1.0885858615127344e+01 0 0 0
8389 839 1 8.9480879179688610e+00 -8.7200808206459026e+00 -1.1290175295162467e+01 0 0 1
119 12 3 -5.0502585394380564e+00 -7.6724741183946019e+00 -1.1351575130504475e+01 0 0 0
8040 804 3 -3.7593482870770649e+00 -7.8852560777628549e+00 -1.1136762683427792e+01 0 0 1
244 25 1 -1.1162016662937377e+00 -7.5479465603133473e+00 -1.0946062498080002e+01 0 0 0
9160 916 3 1.8414055098652644e+00 -7.8267030345561359e+00 -1.1343427953228131e+01 0 0 1
9266 927 1 3.3959226597254215e+00 -7.9211810996055352e+00 -1.0625649556987788e+01 0 0 1
274 28 1 7.2347387694227576e+00 -7.9073083807508420e+00 -1.1227035064628271e+01 0 0 0
9188 919 1 1.0658187258364938e+01 -8.1951230457097122e+00 -1.0738811101525640e+01 0 0 1
9096 910 1 -9.6150917282726898e+00 -7.4027284300900806e+00 -1.0637241410512967e+01 1 0 1
9111 912 3 -9.0985490939092344e+00 -6.7420172398941336e+00 -1.1321235105684130e+01 0 0 1
112 12 3 -7.0805453225724566e+00 -6.8033892091405086e+00 -1.0950842975930222e+01 0 0 0
148 15 3 -3.6319684739617144e+00 -7.0145480784370724e+00 -1.0698549661835399e+01 0 0 0
150 15 3 -2.1762202395284165e+00 -6.6883092489046279e+00 -1.1243397703990370e+01 0 0 0
149 15 1 -2.6479905084572377e+00 -7.3467397554943359e+00 -1.0665785991272015e+01 0 0 0
243 25 1 -2.7673080450367354e-01 -7.3171990914532383e+00 -1.1371047581676590e+01 0 0 0
9248 925 1 7.9806961867405934e-01 -7.2964351339410003e+00 -1.1001045445388113e+01 0 0 1
176 18 1 2.4933912923108670e+00 -7.2422335057701632e+00 -1.0714546703792301e+01 0 0 0
9265 927 1 3.6719227845671121e+00 -7.0473010862522871e+00 -1.0733376652907502e+01 0 0 1
110 11 3 7.0945431597784356e+00 -7.0129914839748313e+00 -1.0593805339668943e+01 -1 0 0
8386 839 1 8.2891828436943200e+00 -7.1146275766619844e+00 -1.0743257940678872e+01 0 0 1
1096 110 1 9.2272097456662259e+00 -6.8908360702684934e+00 -1.1343052542605884e+01 0 0 0
9187 919 1 1.0149859391952711e+01 -7.4045619634455768e+00 -1.0847318185876270e+01 0 0 1
1001 101 3 -1.1009216879277453e+01 -5.9767153510917304e+00 -1.0814479156582962e+01 0 0 0
8221 823 3 -7.7415355464970386e+00 -6.0227852792980743e+00 -1.1197232637688449e+01 0 0 1
8144 815 1 -4.7698532680188626e+00 -6.2608388041198335e+00 -1.0704292206036506e+01 0 0 1
8143 815 1 -3.9637484038597046e+00 -6.0524414989913851e+00 -1.1124524654256055e+01 0 0 1
147 15 3 -2.9479955766339283e+00 -6.3190540389074643e+00 -1.0848451092608776e+01 0 0 0
142 15 1 -1.1424853189997550e+00 -6.4839540861150464e+00 -1.0665229155892975e+01 0 0 0
252 26 1 1.4068628897539330e+00 -6.1665937801841926e+00 -1.0614883582571437e+01 0 0 0
179 18 3 3.7455489288005146e+00 -5.9619219449286280e+00 -1.1139364054569873e+01 0 0 0
9380 938 3 5.0653926912928187e+00 -6.0928437194827350e+00 -1.1122991990108709e+01 0 0 1
1280 128 3 6.1976312256596140e+00 -6.2531734342901322e+00 -1.0642160205941732e+01 0 0 0
9099 910 1 1.0758856649961366e+01 -6.3986675264580848e+00 -1.1086495705754819e+01 0 0 1
9394 940 3 -1.0433736492019223e+01 -5.1105214043519744e+00 -1.1240854749786426e+01 1 0 1
9113 912 1 -9.3647784264714709e+00 -5.1163377107885477e+00 -1.1186797588314876e+01 0 0 1
8222 823 1 -7.3429515836849744e+00 -5.2354416218860713e+00 -1.0946620405371998e+01 0 0 1
8141 815 3 -5.3876860492291963e+00 -5.4908123780284654e+00 -1.0674965763352573e+01 0 0 1
8142 815 1 -4.6060637671664084e+00 -5.4292947223041770e+00 -1.1304122599521431e+01 0 0 1
1144 115 3 -1.3244306312692173e+00 -5.4874127497223242e+00 -1.1307473226814702e+01 0 0 0
253 26 1 8.4995803811101101e-01 -5.8548150446736811e+00 -1.1365369408653363e+01 0 0 0
178 18 3 2.8247944184893243e+00 -5.6586874322090202e+00 -1.0804369803611436e+01 0 0 0
1279 128 1 5.9301772856094299e+00 -5.4321870966581196e+00 -1.1010035856079826e+01 0 0 0
1278 128 3 6.8079399359727644e+00 -5.8134297025931394e+00 -1.1192309406274690e+01 0 0 0
102 11 1 8.1095616599338793e+00 -5.2464494915199618e+00 -1.1028847370133878e+01 -1 0 0
1098 110 1 9.8091620902837917e+00 -5.8195460857940198e+00 -1.1234859515905651e+01 0 0 0
210 21 3 -1.1154311036156040e+01 -5.0174810881408005e+00 -1.0633248981649869e+01 0 0 0
9114 912 3 -8.3746402681485979e+00 -5.0371142062106662e+00 -1.1094582155570460e+01 0 0 1
8223 823 1 -6.8138686528340680e+00 -4.4967981305541365e+00 -1.1248497019863475e+01 0 0 1
8224 823 1 -5.9645593957657708e+00 -4.6360261392814586e+00 -1.0923109668217416e+01 0 0 1
9350 935 3 -4.2519203184700016e+00 -4.6507043246665694e+00 -1.0686701662235492e+01 0 0 1
1148 115 1 -2.6920129467020120e+00 -5.0024483315010890e+00 -1.0786467071550769e+01 0 0 0
1149 115 1 -1.7888453935683510e+00 -4.7463346444887069e+00 -1.0704266613496936e+01 0 0 0
9236 924 1 -5.1443134308863625e-01 -4.7450025998766101e+00 -1.0815183194274255e+01 0 0 1
9169 917 1 1.2327172785275669e+00 -4.5384170876653895e+00 -1.0830100731251454e+01 0 0 1
351 36 3 3.4760088843583667e+00 -4.3980653339867635e+00 -1.0722444795356601e+01 0 0 0
9371 938 3 4.2029969444607804e+00 -5.0359034525816364e+00 -1.1104446256589858e+01 0 0 1
270 27 3 5.2389671388724661e+00 -4.6886804115545333e+00 -1.0735685444069878e+01 0 0 0
1277 128 1 6.8404956699170771e+00 -5.0801253673319824e+00 -1.0632674193814950e+01 0 0 0
1091 110 3 9.2519210681249273e+00 -4.9307145576824007e+00 -1.1317564120593895e+01 0 0 0
9191 920 3 1.0509911938384834e+01 -4.9825947162662043e+00 -1.1082843829951205e+01 0 0 1
1213 122 1 -1.0814689920864391e+01 -3.7021028423912785e+00 -1.0738796839230030e+01 0 0 0
1214 122 1 -1.0012481740497673e+01 -4.2840093886012935e+00 -1.0837729753640254e+01 0 0 0
9229 923 1 -4.9854023524586637e+00 -4.0109379967414478e+00 -1.0760615014373691e+01 0 0 1
9170 917 3 7.7018657826353742e-01 -3.7618802386023265e+00 -1.1154619440783920e+01 0 0 1
356 36 3 1.6919940422082318e+00 -3.7109758076158608e+00 -1.1158654497568081e+01 0 0 0
355 36 1 2.6110084423862694e+00 -3.7651128766465187e+00 -1.0789184591719875e+01 0 0 0
9372 938 3 4.2133402658968508e+00 -4.0825584201593355e+00 -1.1181903158585987e+01 0 0 1
269 27 3 5.9349430178506024e+00 -4.1442155962434093e+00 -1.0982913607027362e+01 0 0 0
9281 929 3 6.8115207577306416e+00 -3.7442077164758567e+00 -1.0740357560977030e+01 0 0 1
382 39 1 7.7714781146664969e+00 -3.5307976685246567e+00 -1.1015974364292084e+01 0 0 0
212 22 1 1.1011895410651302e+01 -3.5986048779812352e+00 -1.1123471774180770e+01 -1 0 0
2 1 1 -9.9332919699998428e+00 -3.1092320450408044e+00 -1.0601880187805730e+01 0 0 0
1426 143 3 -7.7836959689667120e+00 -2.7475931759275700e+00 -1.0797576332628040e+01 0 0 0
9228 923 1 -5.2262331709416179e+00 -3.2883601156527851e+00 -1.1343978344423773e+01 0 0 1
9344 935 1 -4.3777545337250734e+00 -2.8104707961997324e+00 -1.1032081452931575e+01 0 0 1
9345 935 1 -3.9242806200885307e+00 -3.4956592456719857e+00 -1.0680112233446991e+01 0 0 1
347 35 1 -3.1121725814466523e+00 -2.7658332030611197e+00 -1.1247310381396440e+01 0 0 0
348 35 1 -2.5519204933708530e+00 -3.4505601636800165e+00 -1.0955172049512397e+01 0 0 0
350 35 3 -1.4541924459141773e+00 -2.9510346296104495e+00 -1.1067758897212244e+01 0 0 0
354 36 1 3.3705568590328436e+00 -3.1171035342530748e+00 -1.0824706716579534e+01 0 0 0
8365 837 1 4.9602519990680616e+00 -2.9974075854908184e+00 -1.1226846860218535e+01 0 0 1
407 41 1 8.6767684019478768e+00 -2.7669755314624185e+00 -1.1004948826807809e+01 -1 0 0
386 39 1 9.7430814316201104e+00 -3.1751441221517815e+00 -1.0850236820491837e+01 0 0 0
214 22 1 -1.1033387964787638e+01 -2.3935894541424623e+00 -1.0690471274599222e+01 0 0 0
1427 143 1 -8.6336534329664847e+00 -2.4650325610020354e+00 -1.1129553080173357e+01 0 0 0
1251 126 3 -1.7682929582730608e-01 -2.6931218562057770e+00 -1.0903697194140653e+01 0 0 0
461 47 3 2.7182884976329049e+00 -2.2371003022139941e+00 -1.1158959980239572e+01 0 0 0
8366 837 1 4.0908385249424217e+00 -2.5626273928640582e+00 -1.1286273603022728e+01 0 0 1
292 30 1 7.5678660290587851e+00 -2.1167490280337877e+00 -1.0627680083707348e+01 0 0 0
389 39 1 9.4661510157528017e+00 -2.0664620753665255e+00 -1.0859421166420974e+01 0 0 0
388 39 1 1.0460490324228324e+01 -2.2928445576401399e+00 -1.0930171711515655e+01 0 0 0
1288 129 1 -1.0072191016457486e+01 -1.7035694307705533e+00 -1.0603923352932659e+01 1 0 0
317 32 1 -7.9724893920957056e+00 -1.4418941172456246e+00 -1.1313328382913353e+01 0 0 0
316 32 1 -7.3491484622768182e+00 -1.3053590408414888e+00 -1.0659804854862225e+01 0 0 0
314 32 3 -5.5458396980550573e+00 -1.3006715505233206e+00 -1.0734906766456289e+01 0 0 0
9457 946 1 -2.8487527996230120e+00 -1.4807812604881763e+00 -1.0673501468820010e+01 0 0 1
454 46 1 -3.8657052174875495e-01 -1.7469154582653434e+00 -1.1088443389328246e+01 0 0 0
455 46 1 5.7747738732873899e-01 -1.9198291316647438e+00 -1.0944099405794269e+01 0 0 0
263 27 1 5.3403357375012490e+00 -1.9592272949090854e+00 -1.1104527685696310e+01 0 0 0
293 30 1 7.7165643296509439e+00 -1.2749654704174322e+00 -1.1136029147808253e+01 0 0 0
294 30 1 8.6409995270433662e+00 -1.2694949758019625e+00 -1.0957190090132533e+01 0 0 0
1408 141 3 -1.0720278544924470e+01 -4.6076327342733325e-01 -1.1329375493377791e+01 0 0 0
9315 932 1 -9.0192386797725366e+00 -1.1603947316298762e+00 -1.1326903577152715e+01 0 0 1
315 32 1 -6.4137006386903632e+00 -1.0828765345336304e+00 -1.0852139940608405e+01 0 0 0
435 44 1 -3.8057378588758510e+00 -6.2866068421619625e-01 -1.0629116675856620e+01 0 0 0
9455 946 1 -1.6897669467243146e+00 -5.8262914979056879e-01 -1.0619657948615110e+01 0 0 1
452 46 1 -3.9770757287458020e-01 -7.4695402081294038e-01 -1.0834911565072344e+01 0 0 0
1470 147 3 1.0836551846039046e+00 -6.2872309590962883e-01 -1.0900625427417442e+01 0 0 0
567 57 1 2.6992256281307943e+00 -7.1866696781907513e-01 -1.1342624292816252e+01 0 0 0
566 57 1 3.4827440493932356e+00 -1.1649974165007262e+00 -1.0909944069131001e+01 0 0 0
262 27 1 5.2043556834834011e+00 -1.0308983777193073e+00 -1.1030595034932084e+01 0 0 0
9487 949 1 6.5946442899491826e+00 -1.0843057172068677e+00 -1.1098437243245181e+01 0 0 1
299 30 1 9.1916605153479427e+00 -4.7357462337920825e-01 -1.1252689733939464e+01 0 0 0
1404 141 1 1.0357313486193613e+01 -4.9008347129903712e-01 -1.1303624702205070e+01 -1 0 0
591 60 3 -9.8577080232612904e+00 -1.9387272828358276e-01 -1.1061628898647060e+01 1 0 0
319 32 1 -7.5984672886302000e+00 -3.6573351806897175e-01 -1.1085523737946362e+01 0 0 0
529 53 1 -6.3942022380711236e+00 -5.8206434964627699e-02 -1.0934822213044319e+01 0 0 0
443 45 1 -4.9790752899830277e+00 -2.4718417139950527e-01 -1.0870584017609668e+01 0 0 0
434 44 3 -3.1354682936348928e+00 -7.8037448967244209e-03 -1.0916263959637353e+01 0 0 0
9454 946 3 -1.3966611478896711e+00 2.0176354507188146e-01 -1.1024210246723840e+01 0 0 1
477 48 1 4.4034604869399798e+00 1.9521748964211369e-01 -1.1146960852826593e+01 0 0 0
476 48 3 5.3890351036917883e+00 3.2520917466873839e-01 -1.1191460145175856e+01 0 0 0
298 30 1 8.7535369847938398e+00 3.6649540959092286e-01 -1.1132914285095874e+01 0 0 0
1504 151 1 9.9165562956156581e+00 2.8546323880633173e-01 -1.0788116525555690e+01 -1 0 0
1409 141 1 1.1249980186845429e+01 -2.6903459987821193e-01 -1.0742880025075833e+01 -1 0 0
598 60 3 -9.1261011296297312e+00 7.3503958696341931e-01 -1.1267601055485597e+01 1 0 0
527 53 1 -7.2742231362338670e+00 9.5734795097732828e-01 -1.1020966487463919e+01 0 0 0
528 53 3 -6.3429073822730517e+00 8.8319218151798051e-01 -1.1090117514247504e+01 0 0 0
332 34 1 -3.9875300142426324e+00 6.7069698177813275e-01 -1.0720311963914632e+01 0 0 0
9451 946 3 -2.5490601574178382e+00 7.0377198789596496e-01 -1.0816516058117228e+01 0 0 1
9453 946 1 -1.4661031878632906e+00 1.1587796684007008e+00 -1.0861862185940936e+01 0 0 1
1458 146 1 7.4818286802083633e-01 5.6750038136109482e-01 -1.0728565445341738e+01 0 0 0
471 48 3 6.8324958602592849e+00 8.5132569192083174e-01 -1.1145084402995426e+01 0 0 0
526 53 1 -7.5349344323943646e+00 1.8832666143086123e+00 -1.0745093752427463e+01 0 0 0
9623 963 1 -5.6581158275457497e+00 1.4996630513418203e+00 -1.0627566708201472e+01 0 0 1
334 34 1 -4.4487974571438258e+00 1.5345190389688521e+00 -1.1164796294437718e+01 0 0 0
333 34 1 -3.4850313518461977e+00 1.3307049448688018e+00 -1.1216175052101541e+01 0 0 0
9653 966 1 -5.5998350575272537e-01 1.7508945854936546e+00 -1.0889734871044556e+01 0 0 1
9549 955 1 2.5408519625742381e+00 1.2747440451881293e+00 -1.1067227035007296e+01 0 0 1
562 57 1 5.1661226203602064e+00 1.4285101062339143e+00 -1.0911198872264329e+01 0 0 0
9681 969 3 6.4933496119292178e+00 1.9382030713903182e+00 -1.1107434070370733e+01 0 0 1
609 61 1 8.5223528801735178e+00 1.8213127823925233e+00 -1.1295380400921962e+01 -1 0 0
601 61 3 1.0302579825793613e+01 1.2550653248036672e+00 -1.0736772763211221e+01 -1 0 0
508 51 1 1.1216567097190699e+01 1.9162837932690975e+00 -1.1281819257559247e+01 -1 0 0
521 53 3 -8.8077140143622135e+00 2.1062308494200295e+00 -1.0753112638985870e+01 0 0 0
1537 154 3 -1.8560117912719740e+00 2.3708600867261294e+00 -1.0766833482006204e+01 0 0 0
9651 966 3 -1.0242206807938030e+00 2.7016945549811999e+00 -1.1063383503753764e+01 0 0 1
8467 847 1 1.6390176789918498e+00 2.0143983663822849e+00 -1.0783230110557405e+01 0 0 1
1382 139 1 3.7187941677315548e+00 2.1645957559901845e+00 -1.1271379440394128e+01 0 0 0
9574 958 1 4.5416959608966812e+00 2.2532324931723906e+00 -1.0699051882766394e+01 0 0 1
506 51 1 1.0322250288204165e+01 2.7154286928032190e+00 -1.0958315317378830e+01 -1 0 0
1512 152 1 -9.6150619963035879e+00 2.9881270246975249e+00 -1.0592023896313410e+01 0 0 0
9607 961 1 -7.3495958690879881e+00 3.3063942465460516e+00 -1.1069522588723023e+01 0 0 1
9625 963 1 -5.3803545077207202e+00 2.8220074743769237e+00 -1.1305952272594146e+01 0 0 1
636 64 3 -4.3289184608353715e+00 2.8210518349347797e+00 -1.0736226222903760e+01 0 0 0
638 64 1 -3.5101629313794063e+00 3.4568671796224208e+00 -1.1036642235341210e+01 0 0 0
1538 154 3 -2.4361668095419469e+00 2.9763417574469528e+00 -1.1342108556988604e+01 0 0 0
1539 154 1 -1.7742845994436638e+00 3.4425274280226068e+00 -1.0790706726937644e+01 0 0 0
660 66 3 1.9629496111978331e-01 2.8307954885139841e+00 -1.1050127784558521e+01 0 0 0
490 49 3 1.9521973939093848e+00 2.8631416115565882e+00 -1.1300502569827600e+01 0 0 0
9667 967 3 2.7193263971789756e+00 3.4419424741658053e+00 -1.0983866118605803e+01 0 0 1
1384 139 3 4.1975640734292279e+00 3.0778395267085834e+00 -1.1245188822149260e+01 0 0 0
1385 139 1 5.1739241456074563e+00 3.0592018827156910e+00 -1.1224690584172599e+01 0 0 0
9779 978 3 6.2315797575873448e+00 2.7657787180629305e+00 -1.0814897835093953e+01 0 0 1
619 62 1 9.5709818242125007e+00 3.3932356770947223e+00 -1.0639223115258476e+01 -1 0 0
1513 152 1 -1.0409020772516140e+01 3.6095912841839635e+00 -1.0594560658095363e+01 0 0 0
9605 961 3 -8.9233202688768536e+00 3.5416167321349779e+00 -1.1089258665991178e+01 0 0 1
9606 961 1 -8.0775390723079106e+00 3.8794289805359417e+00 -1.0739593482321286e+01 0 0 1
9608 961 3 -6.6722075252900224e+00 3.9868487914034976e+00 -1.1182648321380396e+01 0 0 1
621 63 3 -5.8387015570308813e+00 4.1338809919436033e+00 -1.0700206865827601e+01 0 0 0
1540 154 3 -2.5894534668035170e+00 3.9309132909519580e+00 -1.0894635607028341e+01 0 0 0
1555 156 1 -7.0849730370530550e-01 3.6111960255611368e+00 -1.0773904262895829e+01 0 0 0
572 58 1 4.9348285407056725e-01 3.8055490527008291e+00 -1.0829811849399679e+01 0 0 0
580 58 3 4.2828902052803368e+00 3.9900958681231229e+00 -1.0981463134794353e+01 0 0 0
775 78 1 5.6116264209116009e+00 4.3020171132064480e+00 -1.1176767124195592e+01 0 0 0
9780 978 3 6.5073368784857299e+00 3.6538210611669419e+00 -1.1040067502333036e+01 0 0 1
620 62 3 9.1113981707496183e+00 4.1829338482489167e+00 -1.0943972598908790e+01 -1 0 0
1518 152 1 1.0680857730999598e+01 4.2746711001794901e+00 -1.0817715351170007e+01 -1 0 0
1517 152 1 -1.1169947544500237e+01 4.4306929466640899e+00 -1.0659632096244579e+01 0 0 0
9812 982 3 -8.8050671426068732e+00 4.5107569278847874e+00 -1.0810387763609297e+01 0 0 1
9609 961 1 -7.2409342800634171e+00 4.6339610592904883e+00 -1.0819455807843092e+01 0 0 1
9559 956 3 -4.1330943093636252e+00 5.0178245827818095e+00 -1.1153293350865114e+01 0 0 1
9558 956 1 -3.3729498432139815e+00 4.4640538362559976e+00 -1.1335443264758709e+01 0 0 1
1557 156 1 -1.3746346108834933e+00 4.4818422170808816e+00 -1.0645540828039522e+01 0 0 0
1644 165 3 -3.0535222943932971e-01 4.5298177544083238e+00 -1.1095918073391088e+01 0 0 0
9869 987 1 9.1643865202747987e-01 4.8109466691478238e+00 -1.0813590801601823e+01 0 0 1
8682 869 3 2.6246941237520440e+00 5.0043518658407677e+00 -1.1325404219246755e+01 0 0 1
774 78 3 6.5121986168708341e+00 4.5858070786423770e+00 -1.0875059765034225e+01 0 0 0
8603 861 3 1.0105228681687947e+01 5.0788783387425287e+00 -1.1067960694964736e+01 -1 0 1
539 54 1 -6.7971340675404193e+00 5.6083108000475814e+00 -1.0865619286954956e+01 0 0 0
538 54 1 -6.0681028722614796e+00 5.1555626610646810e+00 -1.1159042635271593e+01 0 0 0
535 54 3 -4.8141906326619690e+00 5.8662927029324372e+00 -1.0696108718180554e+01 0 0 0
9737 974 1 -2.1448187735736712e+00 5.7362280653413045e+00 -1.1125024033201912e+01 0 0 1
1558 156 1 -1.0573602243889715e+00 5.4173670882654283e+00 -1.0614984901984164e+01 0 0 0
8950 895 3 1.5510999858180316e-01 5.3471363804859662e+00 -1.1191073228809381e+01 0 0 1
1650 165 3 1.8400503552898710e+00 5.2541682880858662e+00 -1.0819790165055590e+01 0 0 0
780 78 3 2.9045901036086339e+00 5.7642491383646366e+00 -1.0746628695420945e+01 0 0 0
779 78 1 3.7281943512450759e+00 5.2916386379101166e+00 -1.0626408059098612e+01 0 0 0
777 78 1 4.8370618473793430e+00 5.1413497137161857e+00 -1.0736069193485228e+01 0 0 0
776 78 1 5.7259790003927318e+00 5.1772131213226347e+00 -1.0832305201585802e+01 0 0 0
795 80 1 7.9336933336878648e+00 5.3730287322266923e+00 -1.1060107353803780e+01 0 0 0
8601 861 3 9.2117430996841350e+00 5.3909764161654676e+00 -1.1199192212892910e+01 -1 0 1
705 71 1 1.1349682062697488e+01 5.1974294845605140e+00 -1.1229064384022340e+01 -1 0 0
706 71 1 -1.1089603501504406e+01 6.0871741167091740e+00 -1.1159025376430085e+01 0 0 0
812 82 3 -1.0134715105409819e+01 6.5539290336965381e+00 -1.0690285983472162e+01 0 0 0
728 73 1 -8.8240236668488752e+00 6.1806368476397147e+00 -1.0956768990855938e+01 0 0 0
9720 972 3 -7.7460077047900660e+00 6.2829899747864157e+00 -1.0836079055000821e+01 0 0 1
537 54 1 -5.8936723787362295e+00 6.0616819411528953e+00 -1.1023576732711900e+01 0 0 0
9560 956 3 -3.8551089798096543e+00 5.9037540522249188e+00 -1.0830294954131380e+01 0 0 1
8949 895 1 -4.1903460798100478e-01 6.0759255742113751e+00 -1.1253770277416095e+01 0 0 1
8943 895 1 8.2407617359835417e-01 6.1531711184721836e+00 -1.1356160622391181e+01 0 0 1
8690 869 3 4.0702910023295527e+00 6.3661311294803102e+00 -1.0911499720800332e+01 0 0 1
1896 190 3 5.5196509322591227e+00 6.5313857090328025e+00 -1.0959727042510480e+01 0 0 0
772 78 3 6.6742804280957237e+00 6.0216486566523146e+00 -1.0889701837543059e+01 0 0 0
796 80 1 7.8751332867244423e+00 6.2166649208862692e+00 -1.0744189065326934e+01 0 0 0
797 80 1 8.8184635810799374e+00 6.2001392551185104e+00 -1.0786808308635546e+01 0 0 0
703 71 1 1.0031805789341838e+01 6.0966441560900266e+00 -1.0669716408971125e+01 -1 0 0
707 71 3 -1.1084088085875061e+01 6.9202391986471827e+00 -1.0778950737823967e+01 0 0 0
724 73 1 -8.3044604142756953e+00 7.1778284317363745e+00 -1.1070385079341296e+01 0 0 0
9718 972 1 -6.2980288902263233e+00 7.2572966385522308e+00 -1.1250575841469661e+01 0 0 1
9713 972 1 -5.3442805733033687e+00 6.9804737491882793e+00 -1.0786946805309457e+01 0 0 1
9714 972 1 -4.5677690990134403e+00 6.7420227722613859e+00 -1.1229478033143613e+01 0 0 1
822 83 1 -3.0768674284295892e+00 6.6711761049943936e+00 -1.1045238846949843e+01 0 0 0
9733 974 1 -1.1534811220320447e+00 6.8918703864066329e+00 -1.1137811366850888e+01 0 0 1
8944 895 3 2.8993009980385859e-01 6.7759183090695423e+00 -1.0801727597118537e+01 0 0 1
968 97 3 1.7416879595940853e+00 6.8270697930691426e+00 -1.1186066002203106e+01 0 0 0
9974 998 1 4.9352572487821558e+00 7.3047092362039843e+00 -1.0608215799072752e+01 0 0 1
1895 190 1 5.9514890882463742e+00 7.3746858540955005e+00 -1.0763894014770067e+01 0 0 0
9787 979 3 8.5609367250608468e+00 7.2213814379366816e+00 -1.0760642705341390e+01 0 0 1
702 71 1 1.0545549070776456e+01 6.8147500070351716e+00 -1.0993712155716139e+01 -1 0 0
708 71 1 -1.0638626532675922e+01 7.5772686682473420e+00 -1.1260750406810740e+01 0 0 0
9818 982 3 -8.8395045827849383e+00 8.1075673879946990e+00 -1.0631057307269133e+01 0 0 1
723 73 1 -7.3901100073199419e+00 7.5062072538040949e+00 -1.0915551938269997e+01 0 0 0
9715 972 1 -4.5822285717740687e+00 7.6709747614928627e+00 -1.1138828827075439e+01 0 0 1
824 83 1 -2.8209827119044291e+00 8.0169479907291699e+00 -1.1225442254148019e+01 0 0 0
8945 895 1 -2.3120809655711308e-01 7.4687666931892762e+00 -1.1260518384440813e+01 0 0 1
969 97 1 1.6647266910355667e+00 7.7518356022178780e+00 -1.0935635365061293e+01 0 0 0
7681 769 3 2.6881835528523128e+00 8.0570733352567014e+00 -1.1320169176438117e+01 0 0 1
765 77 3 3.1556549704513017e+00 7.6904150641115656e+00 -1.0619654664196052e+01 0 0 0
9972 998 1 5.3126390000754657e+00 8.2137126003209513e+00 -1.1108413739884332e+01 0 0 1
9786 979 1 7.6980301706436336e+00 7.5789526018004869e+00 -1.0819195958886684e+01 0 0 1
9781 979 3 8.5687647126715749e+00 8.1152062294926939e+00 -1.1063862505123742e+01 0 0 1
701 71 3 1.0972687537812046e+01 7.6066552019098177e+00 -1.0607771671907013e+01 -1 0 0
9820 982 3 -9.5946950747125541e+00 8.5778353501452749e+00 -1.1010624277756085e+01 0 0 1
9826 983 3 -7.3304801868473728e+00 8.8192256059248439e+00 -1.0770741949891105e+01 0 0 1
9824 983 1 -6.0056112071983270e+00 8.7329064791602971e+00 -1.1092633552548019e+01 0 0 1
9823 983 1 -5.1771633385660749e+00 8.8105887002174548e+00 -1.0636144190229947e+01 0 0 1
825 83 1 -3.0685063397399031e+00 8.8669642835421651e+00 -1.0867042589930721e+01 0 0 0
9952 996 3 -1.6787584657447572e+00 8.2942851221700593e+00 -1.1025050749681036e+01 0 0 1
965 97 1 1.4039079419311851e+00 8.8061014139740852e+00 -1.1140789188453324e+01 0 0 0
9782 979 1 7.7181348263908909e+00 8.5136919103497792e+00 -1.1233699156567496e+01 0 0 1
1816 182 1 9.4025486101569182e+00 8.8298169581864805e+00 -1.1316939922318346e+01 -1 0 0
1812 182 1 1.0370679711992075e+01 8.2975763063525783e+00 -1.1016137125770582e+01 -1 0 0
1811 182 3 1.1002443703052666e+01 8.9103687527558701e+00 -1.0767571145636984e+01 -1 0 0
2894 290 1 -1.0932975160328429e+01 9.5835452370230723e+00 -1.0792880423152351e+01 1 0 0
9819 982 3 -8.7300639712460537e+00 9.0630173345746954e+00 -1.1010655379387210e+01 0 0 1
9825 983 1 -6.6789505776976315e+00 9.3757460058684021e+00 -1.1094948341639673e+01 0 0 1
1839 184 1 -5.5332789017562485e+00 9.7869709652970265e+00 -1.0781973020088527e+01 0 0 0
826 83 1 -3.9795744762195797e+00 9.0374479846140936e+00 -1.0772744264192132e+01 0 0 0
9954 996 1 -2.2208392706314162e+00 9.5305412262820930e+00 -1.0652631558781497e+01 0 0 1
2941 295 3 2.5611544243516460e-01 9.0884991922094063e+00 -1.0795146837237045e+01 0 0 0
964 97 3 1.5638626987205524e+00 9.6072871219557623e+00 -1.0629969021592160e+01 0 0 0
763 77 1 2.7189721905624427e+00 9.0416722368587212e+00 -1.0677182669765150e+01 0 0 0
2876 288 1 3.5554248127661601e+00 9.5594477929929731e+00 -1.0852413169272371e+01 0 0 0
1668 167 3 5.9077324193979370e+00 9.0846890642974607e+00 -1.0844536784056848e+01 0 0 0
1982 199 3 7.6178293778179649e+00 9.5716914527032344e+00 -1.0716197953895387e+01 0 0 0
1819 182 3 8.8496536400152479e+00 9.4403414554388121e+00 -1.0595484687788227e+01 -1 0 0
1820 182 3 9.7339480877075957e+00 9.7730176049140063e+00 -1.0721300483302013e+01 -1 0 0
919 92 1 -9.4809521181264991e+00 9.8665377678902271e+00 -1.1159278293092184e+01 0 0 0
6030 603 3 -6.9960125588523177e+00 1.0440377465814423e+01 -1.0938995743894111e+01 0 -1 1
1840 184 3 -4.9355580053366852e+00 1.0427344268474048e+01 -1.1088076229280992e+01 0 0 0
1834 184 1 -3.6327671447199030e+00 1.0165291462863104e+01 -1.0653762928685286e+01 0 0 0
9956 996 1 -2.3673813069103633e+00 1.0438567385777704e+01 -1.1365661169363062e+01 0 0 1
955 96 1 -1.2164516775915974e+00 1.0375859493933172e+01 -1.1054709883112452e+01 0 0 0
863 87 1 5.4542776842627949e-01 1.0140741939941393e+01 -1.1196320245868245e+01 0 0 0
1669 167 1 5.5430089805177341e+00 9.9070108361016498e+00 -1.0677364208408250e+01 0 0 0
2893 290 3 1.1037304530485777e+01 1.0110571931958207e+01 -1.0978118808849979e+01 0 0 0
2891 290 3 -1.1015338670718554e+01 1.0805077161348962e+01 -1.1273049264852510e+01 1 0 0
917 92 1 -8.0022957036846041e+00 1.0899218817339136e+01 -1.1134162987218330e+01 0 0 0
1833 184 3 -4.0782393209345740e+00 1.0653657133144709e+01 -1.1348683994692960e+01 0 0 0
862 87 1 -1.6720186481359964e-01 1.0728524925604678e+01 -1.0879684002996244e+01 0 0 0
2880 288 3 2.4251056034349547e+00 1.0674331829901105e+01 -1.1078837507558239e+01 0 0 0
1974 198 1 4.7069649914504206e+00 1.0701118061136233e+01 -1.0843075553028250e+01 0 0 0
983 99 1 6.3013804001423672e+00 1.1312538864173975e+01 -1.0707408823289587e+01 0 0 0
996 100 1 7.7898463684934134e+00 1.0654444377963291e+01 -1.0691240405482894e+01 0 0 0
1990 199 3 8.7974812253757388e+00 1.0892722797592306e+01 -1.1224618133650747e+01 0 0 0
914 92 3 -9.2460735920098678e+00 -1.0760771848766638e+01 -1.0151692645929284e+01 0 1 0
916 92 1 -7.9342976959115985e+00 -1.1230521964176193e+01 -1.0416519645575557e+01 0 1 0
19 2 1 -6.0832022509490216e+00 -1.1337760008629276e+01 -1.0075205198516016e+01 0 0 0