LAMMPS data file via write_data, version 18 Jun 2019, timestep = 600000

2560 atoms
3 atom types
3072 bonds
1 bond types

-7.2206620239124497e+00 7.2206620239124391e+00 xlo xhi
-7.2206620239124497e+00 7.2206620239124391e+00 ylo yhi
-7.2206620239124497e+00 7.2206620239124391e+00 zlo zhi

Masses

1 1
2 1
3 1

Pair Coeffs # lj/expand

1 1 1 0
2 1 1 0
3 1 1 0

Bond Coeffs # fene

1 30 1.5 1 1

Atoms # bond

1861 373 3 -4.6510184136233050e+00 -6.9856481673849968e+00 -7.0466932101449755e+00 0 1 1
2528 506 1 -2.2817513835728946e+00 -6.8572311920565072e+00 -7.1594346533856239e+00 0 1 1
213 43 3 -1.4256421605131433e+00 -6.5288211954601305e+00 -6.8467930162839252e+00 0 1 0
311 63 3 -6.1877566229815639e-01 -7.0855299243313752e+00 -6.5030165977236347e+00 0 1 0
223 45 3 7.3540550737566790e-01 -6.9246386478755779e+00 -6.5972733800348635e+00 0 1 0
899 180 3 2.8310332018874402e+00 -6.9168882617782064e+00 -7.1044244293216989e+00 0 1 1
900 180 3 3.8386390536051955e+00 -6.8185509650692389e+00 -7.0781397000306843e+00 0 1 1
1886 378 3 6.2420262329259666e+00 -6.6627474574716770e+00 -6.4693227631659651e+00 -1 1 1
1726 346 3 -7.1666153909502643e+00 -6.3272122784762752e+00 -6.9268955019829397e+00 0 1 1
205 41 3 -6.0783316197667947e+00 -6.4139939201803831e+00 -6.5957170504427127e+00 0 1 0
1862 373 3 -5.1595308242069917e+00 -6.1309388362568251e+00 -7.1736147495226428e+00 0 1 1
942 189 3 -4.1955585155568569e+00 -5.8721064979750563e+00 -6.5465309219947203e+00 0 1 0
2529 506 3 -2.9160422160502932e+00 -6.3788481725506676e+00 -6.6718400332826535e+00 0 1 1
1256 252 3 -5.8585298914111927e-01 -5.6176666668222754e+00 -6.5489455974894977e+00 0 1 0
224 45 1 3.4868951847137925e-01 -6.0481914046811509e+00 -6.5934884431253522e+00 0 1 0
594 119 3 1.5292874624448409e+00 -5.6318282259176504e+00 -6.6292116406061776e+00 0 1 0
1606 322 3 6.5663336430213137e+00 -5.6931083461098950e+00 -6.8175452486409993e+00 -1 0 1
204 41 1 -6.4370189917531393e+00 -5.5377847362432773e+00 -6.5983023995649628e+00 0 1 0
2210 442 3 -5.6268035869473820e+00 -4.9172866954427468e+00 -6.6983831123149198e+00 0 1 1
943 189 3 -3.7021233051824369e+00 -5.1050015433108866e+00 -6.5696393854091406e+00 0 1 0
593 119 1 7.8152447895948474e-01 -5.1689514628928572e+00 -7.0071292706203687e+00 0 1 0
1537 308 3 2.1095259157564668e+00 -5.0470288030527257e+00 -7.1269287297059032e+00 0 1 1
6 2 3 5.3662945732428415e+00 -5.4925822990821871e+00 -6.9197377149537074e+00 -1 0 0
203 41 1 -6.5926727058991901e+00 -4.5994213779077215e+00 -6.9034909546890626e+00 0 1 0
2327 466 1 -4.5166738550842558e+00 -4.5322611067565131e+00 -7.1492911968565931e+00 0 0 1
945 189 3 -3.3107357495863710e+00 -4.1850707301386363e+00 -6.6995649601727871e+00 0 1 0
2535 507 3 -2.0388520844640925e+00 -4.7222796528790312e+00 -6.9938693364008628e+00 0 1 1
542 109 3 -1.1228539933593671e+00 -4.4152420236444918e+00 -6.9984518522020620e+00 0 1 0
2148 430 3 5.9204504320054596e-01 -4.0232837927151399e+00 -6.9914012689651051e+00 0 1 1
2265 453 3 1.4586211542175807e+00 -4.4739156140757572e+00 -6.6471372602490186e+00 0 0 1
870 174 3 3.0016401889015878e+00 -4.5530256128650404e+00 -6.9377960583908109e+00 0 1 0
262 53 1 3.9578300103968251e+00 -4.0660647591364674e+00 -6.8942164986453873e+00 0 1 0
263 53 1 4.8460005442335090e+00 -4.4710037518938304e+00 -7.0066604358148306e+00 0 1 0
76 16 3 6.5828258443305820e+00 -4.4951391505594431e+00 -6.6574563878145439e+00 0 0 0
2207 442 1 -6.3087968133669303e+00 -3.4952871093047477e+00 -6.5778174699321426e+00 0 1 1
2209 442 1 -5.2056326300054607e+00 -3.9884282918885852e+00 -6.5444282216404215e+00 0 1 1
2330 466 3 -3.8953787015209671e+00 -3.2220875261915949e+00 -6.5486856749019386e+00 0 0 1
543 109 3 -1.1448752298939191e+00 -3.4642008396586199e+00 -6.9770155330179575e+00 0 1 0
106 22 3 1.4937380388386878e+00 -3.2145957997730297e+00 -7.1315765883756557e+00 0 0 0
2264 453 3 2.3301333641347295e+00 -3.9881867056161657e+00 -6.5215203277642191e+00 0 0 1
1828 366 1 5.3404425213722693e+00 -3.6566649087160608e+00 -7.1659112915562480e+00 0 1 1
1829 366 3 6.1130479711389851e+00 -3.3557849662469832e+00 -6.6728688391831916e+00 0 1 1
370 74 3 7.0594110418228162e+00 -3.5658169842369447e+00 -6.7517518972086936e+00 -1 0 0
2208 442 3 -5.4773931191436347e+00 -3.1129473874050766e+00 -6.8929267593602201e+00 0 1 1
1299 260 1 -4.9996318332168088e-01 -2.7586305434737817e+00 -6.5482029805210482e+00 0 0 1
2147 430 3 6.7762103496432868e-01 -3.1224839959821775e+00 -6.6390610233243699e+00 0 1 1
305 61 3 2.5086288614893846e+00 -2.6161556706735394e+00 -6.9915563885397516e+00 0 1 0
304 61 3 3.1796876922404413e+00 -3.0414779793904825e+00 -6.4522089558990263e+00 0 1 0
1827 366 1 4.5389313732847780e+00 -3.1412637688733360e+00 -6.8648928172252965e+00 0 1 1
378 76 3 -3.9997862654155805e+00 -2.0009132123674132e+00 -6.9029310852978023e+00 0 0 0
380 76 3 -2.9644511548759236e+00 -2.2091958050243141e+00 -7.1372334542456626e+00 0 0 0
1298 260 3 -1.4595660514006772e-01 -1.9826935104774634e+00 -6.9281004211799821e+00 0 0 1
1376 276 3 1.1068763128740664e+00 -1.6849893217981271e+00 -6.4691599290300754e+00 0 0 1
2239 448 3 2.3258948995300801e+00 -1.8189033573857019e+00 -6.4299066713071831e+00 0 1 1
2237 448 3 3.9365633621948883e+00 -1.7570596612083733e+00 -7.0084114323823350e+00 0 1 1
37 8 3 4.9875912985570698e+00 -1.9142054677121447e+00 -6.7545162750977701e+00 0 0 0
1925 385 3 6.3367215784670714e+00 -2.2827454242112233e+00 -7.2171141052933718e+00 -1 0 1
402 81 3 7.2132953020170971e+00 -2.3704194010667319e+00 -6.8752298962714384e+00 -1 0 0
1880 376 3 -6.4805779219381447e+00 -1.2513553024407715e+00 -6.9622657249501758e+00 1 0 1
1970 394 3 -3.5102816468062468e+00 -1.2445872441071522e+00 -6.9642880047829703e+00 0 0 1
2550 510 3 -1.8225514931490534e+00 -1.3589330234688406e+00 -7.0050246480052278e+00 0 1 1
26 6 3 -9.4614788252259630e-01 -9.2896499061926929e-01 -6.4662495058544271e+00 0 0 0
635 127 3 1.9541951729034739e+00 -8.5899832987448077e-01 -6.8930605569727526e+00 0 1 0
2240 448 3 2.9385385973181117e+00 -1.5846036807090489e+00 -7.1431570762845196e+00 0 1 1
2236 448 3 4.4816473443239087e+00 -1.1572704877034112e+00 -6.4613852797702238e+00 0 1 1
1634 327 1 6.7523909242214257e+00 -1.3742556244345858e+00 -6.7415418743443558e+00 0 0 1
1879 376 3 -5.9457768098917034e+00 -3.7928904472372660e-01 -6.9195110126944979e+00 1 0 1
176 36 3 -4.3139252949027780e+00 -6.1848140330146661e-01 -7.1697881070685270e+00 0 0 0
298 60 3 -1.7960981995521881e+00 -4.8918132056612756e-01 -6.6447111042973264e+00 0 1 0
633 127 3 4.0166206882550581e-01 -5.6333822671733913e-01 -6.9515192733014786e+00 0 1 0
2009 402 3 2.9512551597799619e+00 -5.7330183024162107e-01 -6.8800058274982989e+00 -1 0 1
467 94 3 4.5380558412146996e+00 -2.0937813621780091e-01 -6.9388916559772289e+00 0 0 0
468 94 3 5.2785488842886696e+00 -4.0302883605588778e-02 -6.4346377780556629e+00 0 0 0
466 94 3 5.3610875160462292e+00 -7.6399239578963429e-01 -7.1234509751436779e+00 0 0 0
2551 511 3 -6.7439453460842707e+00 6.1739502839659399e-01 -7.1281391799375733e+00 1 1 1
180 36 3 -4.3508519500358105e+00 3.3757381907699718e-01 -6.6287863298363048e+00 0 0 0
406 82 3 -2.5734546262633038e+00 2.7892723048861173e-02 -6.5263013706528739e+00 0 0 0
631 127 3 -4.7488414785309768e-01 5.1005743090803846e-01 -6.9053568925863509e+00 0 1 0
2006 402 3 1.3496335184624819e+00 2.2258097674086710e-01 -6.4696935296908791e+00 -1 0 1
2008 402 3 2.7889586734758729e+00 3.2307245129205497e-01 -6.6495701914881744e+00 -1 0 1
67 14 1 5.0714008868204106e+00 7.7142700286424404e-01 -7.2088550660429176e+00 0 0 0
470 94 3 6.7406138116328789e+00 4.3767552763287615e-01 -6.6591894877457571e+00 0 0 0
2552 511 3 -6.8433674915561591e+00 1.5644600690704769e+00 -7.0590749013468024e+00 1 1 1
2115 423 3 -5.4361356466992419e+00 8.0761960474088668e-01 -6.9510745976736334e+00 1 0 1
5 1 3 -3.7114878516589775e+00 1.1570899668663752e+00 -6.7035473751858410e+00 0 0 0
2 1 3 -1.9979004678473953e+00 1.2687847971866051e+00 -6.7748048897157469e+00 0 0 0
192 39 3 1.2457058148013123e-01 1.2216788630490416e+00 -6.5104199132127398e+00 0 0 0
191 39 3 7.6848098492614825e-01 1.0692702484784813e+00 -7.2005964235427182e+00 0 0 0
491 99 3 1.4186709257255383e+00 1.4132789970682293e+00 -6.4712954856611944e+00 0 0 0
1351 271 3 3.4218445257883925e+00 1.4921702515181314e+00 -7.0475181261716990e+00 0 0 1
69 14 3 4.1265772380643515e+00 8.5817301761089559e-01 -7.0136312027123404e+00 0 0 0
1637 328 1 6.0112404520817240e+00 1.3570904993778852e+00 -6.7323706666356751e+00 0 0 1
770 154 3 -5.7718986523017239e+00 2.1040108257263799e+00 -6.7199230118717113e+00 0 0 0
904 181 3 -4.0718910810318647e+00 2.1142212033327796e+00 -6.6981787439709457e+00 0 0 0
126 26 3 -3.2395863405642302e+00 2.2563883562304174e+00 -7.0371306516248318e+00 0 0 0
127 26 3 -2.3419211060188494e+00 2.2869641496537794e+00 -6.8414914510229163e+00 0 0 0
193 39 3 -4.9881104982911345e-01 1.8833193616366521e+00 -6.8594621769578223e+00 0 0 0
492 99 1 8.8259582393814751e-01 2.2570219423885707e+00 -6.5373383200543369e+00 0 0 0
459 92 1 2.1763220530697369e+00 2.1340710462839887e+00 -7.1266829937956722e+00 0 0 0
1230 246 3 4.7779712234731857e+00 1.6444793650340552e+00 -6.7155997876848339e+00 0 0 1
1636 328 3 6.6373752651282460e+00 2.0062914876564162e+00 -6.8331476952130572e+00 0 0 1
769 154 3 -5.8454062911997129e+00 2.9892196223036933e+00 -6.9620087799357293e+00 0 0 0
768 154 3 -4.9253861073399516e+00 2.9806201898280089e+00 -6.7571672885552676e+00 0 0 0
129 26 3 -1.1862684505835830e+00 2.7782927033724154e+00 -6.6844595340907080e+00 0 0 0
2437 488 3 3.0842139098440264e+00 2.5150301297188955e+00 -6.9640969334080491e+00 0 0 1
1229 246 1 4.5627070850090989e+00 2.5134467792657120e+00 -7.0222733924653884e+00 0 0 1
681 137 3 5.6985599641110758e+00 2.4309762048058281e+00 -6.9923775260456376e+00 -1 0 0
902 181 1 -3.5765348497607108e+00 3.2874843869757564e+00 -7.0469973231313769e+00 0 0 0
2538 508 1 -2.5394140905594820e+00 3.3939171306875737e+00 -6.7026678746790580e+00 0 0 1
2060 412 3 -2.3376990889495108e-01 3.3681245712027907e+00 -6.9157008411342487e+00 0 0 1
147 30 1 1.0156581309729782e+00 3.4652585490211578e+00 -6.5200349773858335e+00 0 0 0
2068 414 1 2.7990330836477528e+00 3.6546885091854784e+00 -6.5331443596654832e+00 0 0 1
89 18 3 5.4704953121024129e+00 3.3618617364101580e+00 -6.9814908544427627e+00 -1 0 0
86 18 3 6.6652317563643599e+00 3.2876387132175182e+00 -6.5471647865521030e+00 -1 0 0
2163 433 1 -5.8547716915031849e+00 4.1349553948085509e+00 -7.1491621819450826e+00 0 0 1
533 107 3 -4.6491451680052931e+00 4.0887997827881835e+00 -6.4413890008242474e+00 0 0 0
2405 481 3 -2.6732411176707247e+00 4.6528482287159569e+00 -6.5006041576725755e+00 -1 0 1
2403 481 3 -1.7673871118330526e+00 4.0449387469426101e+00 -7.2127079164832741e+00 -1 0 1
2402 481 3 -1.7559945779248869e+00 4.6233140258063452e+00 -6.4479439880006888e+00 -1 0 1
2059 412 3 -7.4797479772331621e-01 4.1507633818632304e+00 -7.1874402845671534e+00 0 0 1
148 30 3 1.4211171050902447e+00 4.3205164177787445e+00 -6.8363707715319100e+00 0 0 0
149 30 1 2.1973415143433299e+00 4.6644871245649240e+00 -7.1882279306040822e+00 0 0 0
2070 414 3 4.0351988528346716e+00 4.0698783401755767e+00 -6.6888178205665207e+00 0 0 1
88 18 1 5.5623212606561232e+00 4.2010880639745247e+00 -6.6188986252166435e+00 -1 0 0
87 18 3 6.4153503003280736e+00 4.1017853837499567e+00 -7.0769182967046849e+00 -1 0 0
2398 480 3 -7.0432693722723281e+00 5.5692401232550983e+00 -6.7272543405423226e+00 1 0 1
2165 433 3 -6.2279181204352252e+00 5.2123829064523175e+00 -6.8228009821711506e+00 0 0 1
2164 433 1 -5.3169235539437354e+00 4.9431019602525019e+00 -7.1580836549292020e+00 0 0 1
830 166 3 -2.9236458715358000e+00 5.5468906689169755e+00 -6.7786153593443226e+00 0 0 0
2401 481 3 -1.0598362010902282e+00 5.0524295463900959e+00 -6.9367747254956713e+00 -1 0 1
2469 494 1 1.2679006608397778e+00 5.4745113395195784e+00 -7.1767183490509927e+00 0 0 1
2507 502 3 3.6431584456347346e+00 5.2403220873144942e+00 -6.6192029044270573e+00 0 0 1
1838 368 3 5.4437307902954961e+00 5.6069425610281316e+00 -7.0209659700488771e+00 0 0 1
2415 483 3 -5.6089985876682009e+00 6.1393262831229087e+00 -6.7337801335696801e+00 0 0 1
163 33 3 -4.6433957372750720e+00 5.8578965527741449e+00 -6.8527582089724204e+00 0 0 0
164 33 1 -3.7809053980572975e+00 6.1518404993785563e+00 -6.6442513475024532e+00 0 0 0
211 43 3 -1.4333090595218982e+00 6.0416105006188703e+00 -6.8307043837083912e+00 0 0 0
2467 494 3 3.1278558326838055e-02 5.6911502304443280e+00 -7.0005411365968397e+00 0 0 1
2470 494 3 1.7106620596352069e+00 6.2712426745631786e+00 -7.0060414154792241e+00 0 0 1
1837 368 1 6.3718666091028986e+00 5.9446162284217756e+00 -7.1934755846283478e+00 0 0 1
169 34 3 -6.9665410297985817e+00 7.0228532961201529e+00 -6.4781099853624422e+00 0 0 0
170 34 3 -6.5020106207640014e+00 6.5883500558879042e+00 -7.1890033643041011e+00 0 0 0
309 62 3 -3.1787354664462790e+00 6.9428594512286308e+00 -6.9074099973478651e+00 0 0 0
212 43 1 -1.6047127762971443e+00 6.9836691374915363e+00 -6.6637672342470120e+00 0 0 0
313 63 3 -5.1443558556454771e-01 6.4825785804538150e+00 -6.7111322618005627e+00 0 0 0
2243 449 1 3.9976769239689673e+00 6.4800585259878503e+00 -6.6691631989856193e+00 -1 -1 1
2119 424 1 5.5357127875932415e+00 6.8375929829853943e+00 -6.5137090165955742e+00 0 0 1
168 34 3 -6.3457815419272272e+00 -6.9895169785263906e+00 -5.8681986390489698e+00 0 1 0
172 35 3 -5.1402515107913942e+00 -6.4926980049839385e+00 -6.0285450727919336e+00 0 1 0
1260 252 3 -2.7217057976618220e+00 -6.7880756725665705e+00 -5.7566445897375891e+00 0 1 0
1258 252 3 -1.4814070714985428e+00 -7.0447433657219891e+00 -5.7122547880702790e+00 0 1 0
896 180 3 1.6467026119220152e+00 -6.6604907530585047e+00 -6.3825909579216411e+00 0 1 1
898 180 1 2.7676618957749892e+00 -6.6767167840885078e+00 -6.1253758369135225e+00 0 1 1
2241 449 3 4.1499244980360226e+00 -6.6246808561487356e+00 -5.6171175313404476e+00 -1 0 1
2118 424 1 5.5698627265978153e+00 -7.1085259368578786e+00 -5.7348785432910550e+00 0 1 1
700 140 3 -3.9365084601667348e+00 -5.9948465843391476e+00 -5.7002166029441952e+00 0 0 0
1257 252 3 -1.0679617050920469e+00 -6.1873716764888567e+00 -5.8139863267969361e+00 0 1 0
225 45 3 -5.5969537488650217e-02 -6.2940426918756733e+00 -5.7964366037089974e+00 0 1 0
591 119 3 9.9122050855098043e-01 -6.1060572291741382e+00 -5.7633259926160028e+00 0 1 0
868 174 3 3.8725667113991982e+00 -6.0486545871730462e+00 -6.3665126735250617e+00 0 1 0
867 174 3 4.8076328252170857e+00 -6.0908634278505067e+00 -6.3955388398312731e+00 0 1 0
1607 322 1 6.7605044985093707e+00 -5.9821462969163575e+00 -5.9216616938974216e+00 -1 0 1
202 41 3 -7.1296663156293132e+00 -4.9119526574012768e+00 -6.1525510415105957e+00 0 1 0
173 35 3 -5.3630420026077621e+00 -5.5430482130489231e+00 -6.0156538950699936e+00 0 1 0
174 35 1 -4.7379972332680111e+00 -4.8620347539902040e+00 -6.1303955673996908e+00 0 1 0
1066 214 3 -2.7029394931035391e+00 -5.4102222013803631e+00 -6.3416925859672331e+00 0 0 0
2533 507 3 -1.9911112034103171e+00 -4.8907124205217807e+00 -5.9126945082391051e+00 0 1 1
2532 507 3 -1.0294575589678361e+00 -4.8997217284255816e+00 -5.9597051381080712e+00 0 1 1
592 119 3 6.1684904830466625e-01 -5.2192107761324245e+00 -5.9836447389367695e+00 0 1 0
1536 308 3 2.1092179725828641e+00 -5.0452472893709306e+00 -6.1810959087649220e+00 0 1 1
869 174 1 3.2221918435677903e+00 -5.3159023700720685e+00 -6.3452350262455832e+00 0 1 0
264 53 3 4.8948595227921929e+00 -5.0160107924098476e+00 -6.1823509343911107e+00 0 1 0
201 41 3 -6.9796202070548370e+00 -4.1156257669210667e+00 -5.6592266146699304e+00 0 1 0
2534 507 3 -2.1105264670536408e+00 -4.0504328541828505e+00 -6.3077411699831289e+00 0 1 1
2541 509 3 -2.2811685530027501e-01 -4.5820242890157061e+00 -6.3820862509534280e+00 0 1 1
2262 453 3 1.5425608076801003e+00 -4.1430968323467399e+00 -5.6643919126556312e+00 0 0 1
77 16 3 6.0535158444348447e+00 -4.1691081970201447e+00 -5.9373056009349110e+00 0 0 0
2206 442 3 -5.8453917316369806e+00 -3.9847016363293886e+00 -5.8103508746804762e+00 0 1 1
292 59 3 -4.5173018548359014e+00 -3.6861895915036320e+00 -5.6784603580796604e+00 0 1 0
1659 332 3 -2.6513468129893458e+00 -3.2715178816019264e+00 -5.9406666077010826e+00 0 0 0
544 109 3 -1.1899420558237155e+00 -3.9306786406233782e+00 -6.0834420184203761e+00 0 1 0
1300 260 3 -5.3809826447461340e-01 -3.3023168938047247e+00 -5.8011097680989554e+00 0 0 1
2146 430 3 7.9074102090012088e-01 -3.5444668183884089e+00 -5.7826109740077163e+00 0 1 1
2263 453 1 1.8970076042633610e+00 -3.2996836260232683e+00 -6.0451251259878775e+00 0 0 1
1826 366 3 4.0977245949316332e+00 -3.4606727724464990e+00 -6.1056510877151418e+00 0 1 1
403 81 3 -6.5358215816979186e+00 -2.6245123439761588e+00 -6.2335593445248838e+00 0 0 0
405 81 3 -5.6195067681844844e+00 -2.6810281946981740e+00 -6.0308609792575369e+00 0 0 0
377 76 1 -4.6309375909814277e+00 -2.4684637711672051e+00 -6.3628765614217357e+00 0 0 0
379 76 1 -3.3829522360414899e+00 -2.4089992433206420e+00 -6.3019053675355181e+00 0 0 0
545 109 3 -1.5655339273036073e+00 -3.0382075277464988e+00 -5.9633257333531251e+00 0 1 0
1703 341 1 1.0146209972292377e+00 -2.4299258016327978e+00 -5.6602048233998179e+00 0 0 1
38 8 3 5.5356248033953745e+00 -2.4591856191025396e+00 -6.1381086279111567e+00 0 0 0
1830 366 3 6.7025924643638923e+00 -3.1509152246220733e+00 -5.8757805982704276e+00 0 1 1
404 81 3 -5.9728596178341062e+00 -1.8186081906709581e+00 -6.2493520982467867e+00 0 0 0
376 76 3 -5.0621414902263684e+00 -1.8353461103515292e+00 -5.6476952837916263e+00 0 0 0
1656 332 3 -2.3948450100650533e+00 -2.3328068851232269e+00 -5.8872535671926585e+00 0 0 0
300 60 3 -1.4721077321378400e+00 -2.0336033591886968e+00 -6.3820414093928797e+00 0 1 0
2238 448 3 3.3020008819437905e+00 -1.9516334906643786e+00 -6.3445788172449102e+00 0 1 1
36 8 3 4.3170881323382702e+00 -2.2502952225668142e+00 -6.1297642905595495e+00 0 0 0
39 8 3 6.0854683001772161e+00 -1.8910725220352638e+00 -5.6274433532012083e+00 0 0 0
401 81 3 7.1470456061295220e+00 -2.0928380088621417e+00 -5.9200849517998178e+00 -1 0 0
395 79 3 -7.1313805790286677e+00 -9.4687868119449581e-01 -5.7608788056636699e+00 1 0 0
95 19 3 -5.9497658854433340e+00 -9.4118424953946589e-01 -5.8613420009484818e+00 0 0 0
1045 209 3 -4.5353984857805729e+00 -9.2058175686431221e-01 -6.0737859134696981e+00 0 0 0
1969 394 1 -2.9770949427208326e+00 -1.4292566124443167e+00 -6.1412688506953792e+00 0 0 1
299 60 3 -1.9345528554504707e+00 -1.2311437212194487e+00 -6.0544906602340953e+00 0 1 0
1705 341 3 1.4545632806348852e-01 -1.0938371371404310e+00 -6.2210285588522201e+00 0 0 1
40 8 3 5.6707741797575437e+00 -1.2478356333913478e+00 -6.2115982806980643e+00 0 0 0
1968 394 3 -2.7848660716890032e+00 -5.3091370756231815e-01 -5.6960390048668934e+00 0 0 1
634 127 3 1.1097565089053472e+00 -7.2486351750322753e-01 -6.3925881038378014e+00 0 1 0
2007 402 3 2.1775339538773393e+00 -3.2292488134958125e-01 -6.1807822452984258e+00 -1 0 1
2351 471 3 3.0587366537802505e+00 -7.8649265695993431e-01 -5.9120398805352208e+00 0 0 1
1635 327 3 6.5190698518952752e+00 -5.5850103436152942e-01 -6.3938812927884587e+00 0 0 1
392 79 3 -6.9102989039970248e+00 8.8843297087255718e-02 -6.1320311088542203e+00 1 0 0
2286 458 3 -5.9098514229578498e+00 9.9739752793052791e-02 -6.0964723005019632e+00 0 0 1
777 156 3 -4.8036921818687324e+00 2.0639187944824073e-02 -5.8382817742790536e+00 0 0 0
407 82 3 -3.4799354980826993e+00 6.4274160450462345e-02 -6.2804867534565085e+00 0 0 0
1 1 3 -1.5683502519038464e+00 5.5259529142764630e-01 -6.2871734993062622e+00 0 0 0
632 127 1 -1.8896141410357722e-02 9.4318990665187702e-03 -6.2847235985654697e+00 0 1 0
70 14 3 3.7356214698396184e+00 2.4243664751006175e-01 -6.4060906521950320e+00 0 0 0
469 94 3 6.0671994776298890e+00 3.7615010314238284e-01 -6.0111457385985512e+00 0 0 0
391 79 3 -7.1873351612804344e+00 9.3799194512399031e-01 -5.8513274436203560e+00 1 0 0
2114 423 3 -6.0082482462274065e+00 1.3031160386164800e+00 -6.3399779686754005e+00 1 0 1
778 156 1 -5.0102355686349807e+00 8.9920744957284293e-01 -5.9968651055776823e+00 0 0 0
408 82 1 -3.6152016526768125e+00 8.2536464337032922e-01 -5.6793150453490977e+00 0 0 0
3 1 1 -2.7804944732900911e+00 1.1376028454692404e+00 -6.2078076661473780e+00 0 0 0
2383 477 1 -1.8718147099142128e+00 1.4747738749621173e+00 -5.7489376562050651e+00 0 0 1
2382 477 3 -1.0204401644956100e+00 1.1311779052640107e+00 -5.6877503516888765e+00 0 0 1
457 92 3 2.1283043745706802e+00 9.6011539098151444e-01 -5.9758579971599959e+00 0 0 0
790 158 3 4.2134467357173611e+00 9.6173183779520244e-01 -5.6666315519592869e+00 0 0 0
905 181 3 -4.8826079099438351e+00 2.2296997534595464e+00 -6.1441068807864934e+00 0 0 0
494 99 3 -3.4380851928545442e-01 1.9304489209592317e+00 -5.6722010933084075e+00 0 0 0
458 92 1 2.4675569464678380e+00 1.8209217768163846e+00 -6.2088724683769092e+00 0 0 0
2066 414 3 3.8285777234325917e+00 2.3578928562741486e+00 -6.3692500568545327e+00 0 0 1
1638 328 3 5.4594032884335491e+00 1.8214962696336690e+00 -6.0652827025578491e+00 0 0 1
125 25 3 -6.6931558554320061e+00 2.8346942509948665e+00 -6.4037314466079005e+00 0 0 0
2110 422 3 -2.8145419701120638e+00 2.8147404098941609e+00 -5.7749390403209739e+00 0 0 1
128 26 1 -1.8728957365807897e+00 2.5829488130994123e+00 -6.1021694349025237e+00 0 0 0
495 99 3 -4.4604032963898188e-01 2.7580326506494344e+00 -6.0332625195590364e+00 0 0 0
460 92 3 1.9708485827443847e+00 2.7109384952094389e+00 -6.3989607802477826e+00 0 0 0
2067 414 1 3.4696064261789101e+00 3.1691594904831599e+00 -6.0964728513809039e+00 0 0 1
603 121 3 4.8352991793398568e+00 2.7005686343265900e+00 -5.7229273399756933e+00 -1 0 0
682 137 3 5.9802207140268546e+00 2.8611987615746730e+00 -6.0939541172607861e+00 -1 0 0
124 25 3 -6.7377268846473708e+00 3.4951335314593841e+00 -5.7761344329343176e+00 0 0 0
123 25 1 -5.7829923716203533e+00 3.4052660210767662e+00 -5.8487631719440456e+00 0 0 0
443 89 1 -4.2070145479399237e+00 3.3184025625370173e+00 -5.9869235579443885e+00 0 0 0
2539 508 3 -2.4910740965946223e+00 3.8399085735552716e+00 -5.8327907435281405e+00 0 0 1
130 26 3 -1.3202081917426605e+00 3.5631280820870388e+00 -6.1085534676124098e+00 0 0 0
218 44 3 1.9173022505905086e+00 3.5700381850838827e+00 -5.8942220214913883e+00 0 0 0
115 23 3 4.9262413637470726e+00 3.5330392515611657e+00 -6.1418300431040862e+00 0 0 0
2400 480 3 -6.3589130660950666e+00 4.3439096605327245e+00 -5.9921255090041052e+00 1 0 1
532 107 1 -5.3533466260894320e+00 4.7051103414289770e+00 -6.1120028748099715e+00 0 0 0
534 107 1 -4.2400767399475265e+00 4.7818948327660840e+00 -5.9269966093602635e+00 0 0 0
535 107 3 -3.6606896917243694e+00 4.1504226660638226e+00 -6.3258584558704190e+00 0 0 0
2389 478 3 -1.1710638447038696e-01 4.0356887500519250e+00 -5.7411891402189035e+00 0 0 1
2390 478 3 -6.5605279249614101e-01 4.7627947971835392e+00 -5.9936088603176199e+00 0 0 1
220 44 3 9.9569529855082484e-01 4.3680013099650505e+00 -5.9716041098942210e+00 0 0 0
217 44 1 2.2144832328829924e+00 4.3779424273784793e+00 -6.1766323239370999e+00 0 0 0
2506 502 3 3.7468259808986502e+00 4.6825773242269078e+00 -5.8152175009750424e+00 0 0 1
1232 247 1 4.7266050308228182e+00 4.7900784996557606e+00 -6.3657015395026084e+00 0 0 1
519 104 1 6.7537579012261650e+00 4.5004091910088828e+00 -6.0207930318032812e+00 0 0 0
2399 480 1 -6.8707503494188567e+00 5.1000784759843016e+00 -5.8949133837285741e+00 1 0 1
829 166 1 -3.2840221983697240e+00 5.2047137172879694e+00 -5.8955218743804245e+00 0 0 0
2101 421 3 2.8161148036198895e+00 5.2290993017681817e+00 -5.9526089422083226e+00 0 0 1
518 104 3 5.9902297466436565e+00 5.0548142358151651e+00 -6.2686370593692118e+00 0 0 0
2414 483 3 -6.1219279598811172e+00 6.2396485946595011e+00 -5.9550854355999956e+00 0 0 1
2412 483 1 -5.1294529505589015e+00 5.7772846328716003e+00 -5.6996721159427741e+00 0 0 1
2411 483 3 -4.1746078129052169e+00 5.7743254941440414e+00 -5.7984461453635054e+00 0 0 1
828 166 3 -2.7611705326585265e+00 5.9994521811188219e+00 -5.6644801290290809e+00 0 0 0
746 150 3 -1.6467823873055878e+00 6.2641960467964362e+00 -5.6198390783824790e+00 0 0 0
747 150 3 -9.5039676956897545e-01 5.6739651758940157e+00 -5.8188253409202302e+00 0 0 0
315 63 3 2.0233210582637864e-01 5.6211218208122506e+00 -6.0524643776871949e+00 0 0 0
2105 421 3 1.3069881341788478e+00 6.0131741501090001e+00 -6.0484421861579980e+00 0 0 1
2102 421 3 2.2577689792452458e+00 6.0242792566645411e+00 -6.2588634950006643e+00 0 0 1
1231 247 3 4.6757880991095373e+00 5.7505794284702842e+00 -6.3704681455003582e+00 0 0 1
2120 424 3 5.5173029703169876e+00 6.1337565202562763e+00 -5.8381030613726992e+00 0 0 1
171 35 3 -5.3847285534058384e+00 7.1162739635165488e+00 -6.3765209917411969e+00 0 0 0
259 52 3 -4.4345711475773912e+00 6.7335345397132782e+00 -5.8401926235399291e+00 0 0 0
260 52 3 -3.5026604168795838e+00 6.9462876733011347e+00 -6.0140540077868501e+00 0 0 0
310 62 3 -2.5503846331153217e+00 6.7646411288869110e+00 -6.2169013106916609e+00 0 0 0
314 63 3 4.7118942243895134e-01 6.4698828223058724e+00 -6.4099811987164781e+00 0 0 0
897 180 1 2.1404279720349768e+00 7.0959673143811370e+00 -5.8609881507028385e+00 0 0 1
2244 449 1 3.4049778939254107e+00 6.8366105403721145e+00 -6.0413379985265827e+00 -1 -1 1
2242 449 1 4.4726987582528874e+00 7.1557827312648667e+00 -6.2896292771648339e+00 -1 -1 1
2116 424 3 6.5457350270371464e+00 6.8290045189159079e+00 -6.2143768223276803e+00 0 0 1
1608 322 3 -7.1038035869947729e+00 -6.4604997058096956e+00 -5.3074850457635323e+00 0 0 1
258 52 3 -4.5823155896416781e+00 -7.0399593987031288e+00 -5.1382732074011441e+00 0 1 0
256 52 3 -3.4795911374036965e+00 -6.8762950278794683e+00 -4.8830286358509767e+00 0 1 0
940 188 3 -1.3897254022941905e+00 -6.6850873346673945e+00 -4.8716486638822740e+00 0 1 0
247 50 3 6.8050190008629874e-01 -6.7538453476878981e+00 -5.1426531855055524e+00 -1 1 0
250 50 3 2.2995358373478592e+00 -6.6105050047736658e+00 -4.9967238820441358e+00 -1 1 0
316 64 3 -5.7201002572930744e+00 -6.3040426956710265e+00 -5.2266229601209071e+00 1 1 0
937 188 3 -2.7939522158851720e+00 -6.1525862251005004e+00 -4.8428075324751090e+00 0 1 0
936 188 3 -2.0738888399201478e+00 -5.7504706180770233e+00 -5.3100840193532948e+00 0 1 0
352 71 3 3.2315342693232978e+00 -5.7757625487453845e+00 -5.0655737625559798e+00 0 0 0
866 174 3 4.6290401394934966e+00 -5.6256587802661944e+00 -5.5338861105476358e+00 0 1 0
2483 497 3 5.2319938854212404e+00 -6.4177522129021538e+00 -4.8406876796007907e+00 -1 1 1
2484 497 1 5.7554246835003431e+00 -5.8616386729154053e+00 -5.4425945584652844e+00 -1 1 1
2516 504 3 -6.9205587920890190e+00 -5.5356711226625590e+00 -5.1292474655018818e+00 1 1 1
699 140 3 -4.3203595219303805e+00 -5.2474587681227787e+00 -5.2712874078433378e+00 0 0 0
1067 214 3 -2.8611419112599332e+00 -5.2840716421360376e+00 -5.4062175009051652e+00 0 0 0
2531 507 3 -1.7537679351317770e-01 -5.2654478283515491e+00 -5.4904862745445300e+00 0 1 1
2191 439 3 1.5126800575014472e+00 -5.0998537109765341e+00 -5.3151848314194226e+00 0 1 1
761 153 3 3.6882940304654377e+00 -4.9396886541488572e+00 -5.3246602782650658e+00 -1 0 0
2485 497 3 6.1180559888852750e+00 -4.9589082915986697e+00 -5.3996510201072194e+00 -1 1 1
2517 504 3 -6.4941812520206543e+00 -4.6708525463581338e+00 -5.0744361618043667e+00 1 1 1
175 35 3 -5.1690948185356014e+00 -4.6887606996166031e+00 -5.2928254788280782e+00 0 1 0
291 59 3 -4.0838423041870646e+00 -4.0770860477497912e+00 -4.9495440594949391e+00 0 1 0
1068 214 1 -3.4870458015418135e+00 -4.6062726182327527e+00 -5.5623550152578574e+00 0 0 0
818 164 1 -1.3493758007558758e+00 -4.6996401483667105e+00 -4.9597535461069411e+00 0 1 0
610 122 3 2.7557282320963367e-01 -4.1920462222180666e+00 -5.2416786087398650e+00 0 1 0
2192 439 3 2.2620115222048800e+00 -4.6824812106478539e+00 -4.8991594320833132e+00 0 1 1
762 153 3 4.3989364783829181e+00 -4.4931019189281391e+00 -4.8955447170997184e+00 -1 0 0
265 53 3 5.2394277196120482e+00 -4.5097740550271652e+00 -5.4086305645024524e+00 0 1 0
2518 504 3 -6.1192746021945545e+00 -3.8341977413846093e+00 -4.9020426994684927e+00 1 1 1
2520 504 3 -5.2352022970470040e+00 -3.4003041504854279e+00 -5.1397731910092226e+00 1 1 1
1658 332 1 -3.3747055160734067e+00 -3.4586472957468102e+00 -5.3577817837280257e+00 0 0 0
1660 332 3 -2.3575872013859169e+00 -3.9655258057436789e+00 -5.3990606417758613e+00 0 0 0
763 153 3 3.8180099267789656e+00 -3.7883252634104703e+00 -5.2200129747514135e+00 -1 0 0
79 16 1 5.0313896131501012e+00 -3.3728016071483147e+00 -5.3133104713442139e+00 0 0 0
78 16 3 5.9753524228306043e+00 -3.4293445133824334e+00 -5.2255846905576488e+00 0 0 0
436 88 3 -6.9295607501592773e+00 -3.1752848847432844e+00 -4.9905173334472801e+00 1 0 0
93 19 3 -6.3363434471759330e+00 -2.4137280900644091e+00 -5.1802956880751561e+00 0 0 0
293 59 3 -4.2878719971560981e+00 -2.8642149696117229e+00 -5.1882458082410166e+00 0 1 0
1657 332 1 -3.2192424420482473e+00 -2.4872100557773207e+00 -5.2884839323853265e+00 0 0 0
1620 324 3 -1.9578310439483244e+00 -3.1826408749779347e+00 -4.8797485314510283e+00 0 0 1
1619 324 3 -1.1391137299043712e+00 -2.8514043012542092e+00 -5.1442838749353674e+00 0 0 1
1617 324 3 2.6385976163204405e-01 -2.6480030356406568e+00 -5.0254335566226338e+00 0 0 1
765 153 3 2.8084656639946672e+00 -3.1297562283725595e+00 -5.5422195437551016e+00 -1 0 0
764 153 1 3.7054390701853395e+00 -2.8362954593478977e+00 -5.2736208512599916e+00 -1 0 0
80 16 3 5.0372536456682706e+00 -2.4629976170851400e+00 -5.3136494828911536e+00 0 0 0
440 88 3 6.4566989115280986e+00 -2.5474839680544101e+00 -4.8909139778964743e+00 0 0 0
92 19 3 -5.4384546232912916e+00 -2.3523424740438035e+00 -4.9434501027071240e+00 0 0 0
294 59 1 -4.1677184296443910e+00 -1.8644672199771515e+00 -5.2150718063852981e+00 0 1 0
2349 470 1 -1.6121484424191299e+00 -1.9523034842830076e+00 -4.8142415969379311e+00 0 0 1