LAMMPS data file via write_data, version 15 May 2015, timestep = 18500000

2593 atoms
6 atom types
1728 bonds
4 bond types
864 angles
3 angle types
0 dihedrals
3 dihedral types
0 impropers
1 improper types

-1.5087239346917247e+01 1.5087239346917247e+01 xlo xhi
-1.5087239346917247e+01 1.5087239346917247e+01 ylo yhi
-1.5087239346917247e+01 1.5087239346917247e+01 zlo zhi

Masses

1 15.9994
2 1.00794
3 12.0107
4 1.00794
5 12.0107
6 12.0107

Bond Coeffs # harmonic

1 1000 1
2 469 1.4
3 367 1.08
4 469 0.7

Angle Coeffs # harmonic

1 100 109.47
2 35 120
3 63 120

Dihedral Coeffs # opls

1 0 7.25 0 0
2 0 7.25 0 0
3 0 7.25 0 0

Improper Coeffs # cvff

1 2.5 -1 2

Atoms # full

1994 665 2 4.0999999999999998e-01 -1.2975843182282265e+01 -9.7301320028308425e+00 -1.2346115686320669e+01 2 4 -2
1995 665 2 4.0999999999999998e-01 -1.4154270026707861e+01 -8.6001577201563251e+00 -1.2315462230275635e+01 2 4 -2
1993 665 1 -8.1999999999999995e-01 -1.3296008415782490e+01 -8.8731891260690858e+00 -1.2749953452724625e+01 2 4 -2
1229 410 2 4.0999999999999998e-01 -1.1689728239046923e+01 -1.0025900912731522e+01 -8.5784387333801106e+00 3 2 -2
821 274 2 4.0999999999999998e-01 -1.3585468987494581e+01 -1.1976150014877522e+01 -1.0995008669861502e+01 -3 2 -1
820 274 1 -8.1999999999999995e-01 -1.2897555603932286e+01 -1.1296006162138182e+01 -1.1248230560545704e+01 -3 2 -1
822 274 2 4.0999999999999998e-01 -1.2586686609671279e+01 -1.0815169283324714e+01 -1.0428414614416321e+01 -3 2 -1
1228 410 1 -8.1999999999999995e-01 -1.1156255602848066e+01 -1.0842958690871594e+01 -8.7969915656123128e+00 3 2 -2
785 262 2 4.0999999999999998e-01 -1.1381628328904702e+01 -1.3922062179454809e+01 -9.3677424944859737e+00 0 -1 0
2537 846 2 4.0999999999999998e-01 -1.4121418286515196e+01 -6.7576348493216969e+00 -9.6546073744543435e+00 4 -1 4
1824 608 2 4.0999999999999998e-01 -1.0372356528852443e+01 -7.8061973973540644e+00 -1.2525650140374768e+01 1 -4 -2
1822 608 1 -8.1999999999999995e-01 -1.0824897172883235e+01 -7.6432046569039036e+00 -1.3402338312843185e+01 1 -4 -2
1823 608 2 4.0999999999999998e-01 -1.1793637955212665e+01 -7.8792272950875057e+00 -1.3326335504187139e+01 1 -4 -2
784 262 1 -8.1999999999999995e-01 -1.0739502029645227e+01 -1.3503307980005557e+01 -8.7256673043879616e+00 0 -1 0
824 275 2 4.0999999999999998e-01 -1.1634650434576885e+01 -1.1675820354314391e+01 -1.2474129647866103e+01 0 2 -2
823 275 1 -8.1999999999999995e-01 -1.0890073395787617e+01 -1.1933580963322159e+01 -1.3089845775037924e+01 0 2 -2
1230 410 2 4.0999999999999998e-01 -1.0181992556884474e+01 -1.0617998606190543e+01 -8.7848963406121499e+00 3 2 -2
1451 484 2 4.0999999999999998e-01 -1.0585212572122177e+01 -1.3449582604436142e+01 -1.3923711002041786e+01 1 1 2
1678 560 1 -8.1999999999999995e-01 -1.4117228105762225e+01 -1.3856840752432490e+01 -1.0395139546949899e+01 -1 -3 0
2088 696 2 4.0999999999999998e-01 -1.4844098110135228e+01 -9.1832362230095477e+00 -8.3991398065316893e+00 0 2 0
1558 520 1 -8.1999999999999995e-01 -9.8481222004938154e+00 -6.8572834662245477e+00 -1.0839833052111107e+01 0 3 2
1559 520 2 4.0999999999999998e-01 -1.0542060318850982e+01 -6.2814685533369463e+00 -1.1272070146481401e+01 0 3 2
1706 569 2 4.0999999999999998e-01 -7.9247838989346437e+00 -1.4722004555763421e+01 -1.2276149978218696e+01 -2 0 2
1560 520 2 4.0999999999999998e-01 -1.0224179436557693e+01 -7.2645788404376317e+00 -1.0007587144858153e+01 0 3 2
1452 484 2 4.0999999999999998e-01 -9.8062785555388388e+00 -1.4806236203995935e+01 -1.3455497191304994e+01 1 1 2
825 275 2 4.0999999999999998e-01 -1.0047908976541358e+01 -1.2050942578126534e+01 -1.2563607064462454e+01 0 2 -2
2569 857 1 -8.1999999999999995e-01 -8.2461955310841830e+00 -1.0509070771123682e+01 -8.8591984690057544e+00 3 6 1
1679 560 2 4.0999999999999998e-01 -1.3554350767913199e+01 -1.4598786893554816e+01 -1.0759319241669962e+01 -1 -3 0
1858 620 1 -8.1999999999999995e-01 -8.5498290675073818e+00 -1.1282358794650822e+01 -1.1496158476186752e+01 -5 -1 3
1859 620 2 4.0999999999999998e-01 -8.8593804137930512e+00 -1.1016872264642302e+01 -1.0583121409195529e+01 -5 -1 3
153 51 2 4.0999999999999998e-01 -1.4946176404356452e+01 -1.2788328994160706e+01 -9.2785036785138217e+00 -7 5 0
724 242 1 -8.1999999999999995e-01 -1.0744996059199067e+01 -7.2911375526983955e+00 -8.1367127847466385e+00 2 3 -1
786 262 2 4.0999999999999998e-01 -1.1028626952177389e+01 -1.2566606677526192e+01 -8.5283369020167452e+00 0 -1 0
2155 719 1 -8.1999999999999995e-01 -9.9684860864855658e+00 -5.2861882480588065e+00 -1.4532120765938624e+01 -1 1 1
2388 796 2 4.0999999999999998e-01 -9.8210096781966225e+00 -1.1619626343820064e+01 -1.4327048402247721e+01 5 1 -4
275 92 2 4.0999999999999998e-01 -1.3021476961790595e+01 -1.1079515561233578e+01 -1.4774367184521426e+01 -5 -4 -1
1680 560 2 4.0999999999999998e-01 -1.4888231901568137e+01 -1.3690797951534780e+01 -1.1009895291769869e+01 -1 -3 0
975 325 2 4.0999999999999998e-01 -9.0774750876574934e+00 -1.3913717292878701e+01 -8.5601533300317989e+00 -4 1 -1
1860 620 2 4.0999999999999998e-01 -7.9110238844473963e+00 -1.0596220795408687e+01 -1.1844130344899641e+01 -5 -1 3
2531 844 2 4.0999999999999998e-01 -8.1484730013577771e+00 -6.9386595217109246e+00 -1.0963906845567081e+01 -1 0 4
1077 359 2 4.0999999999999998e-01 -1.2523622044999794e+01 -5.4269627596600571e+00 -1.0145128287566340e+01 -2 1 0
2570 857 2 4.0999999999999998e-01 -7.6405592168362793e+00 -9.7139152062692169e+00 -8.8296331337873895e+00 3 6 1
983 328 2 4.0999999999999998e-01 -1.2207428167910431e+01 -1.5070069331661999e+01 -1.4106125436016958e+01 -2 3 -2
2157 719 2 4.0999999999999998e-01 -1.0459532800761099e+01 -6.0723202539715739e+00 -1.4156872305873316e+01 -1 1 1
1450 484 1 -8.1999999999999995e-01 -1.0442553737405852e+01 -1.4419105200173021e+01 -1.4122749261301752e+01 1 1 2
2536 846 1 -8.1999999999999995e-01 -1.4153048010342916e+01 -5.8156521123137370e+00 -9.3205267831414975e+00 4 -1 4
2538 846 2 4.0999999999999998e-01 -1.5062414249466102e+01 -5.4338499974364201e+00 -9.4855175583299598e+00 4 -1 4
726 242 2 4.0999999999999998e-01 -1.1543414546236690e+01 -6.9177244929972908e+00 -7.6644496859280453e+00 2 3 -1
2571 857 2 4.0999999999999998e-01 -7.8848864518059152e+00 -1.1225604208161077e+01 -8.2625600673032480e+00 3 6 1
1075 359 1 -8.1999999999999995e-01 -1.2021325094041647e+01 -5.2657207071852472e+00 -1.0994622594238113e+01 -2 1 0
973 325 1 -8.1999999999999995e-01 -8.2216651056723826e+00 -1.3975557593884215e+01 -8.0466293642162974e+00 -4 1 -1
809 270 2 4.0999999999999998e-01 -1.4163136567622237e+01 -1.0929628727195627e+01 -7.7294458633550036e+00 3 2 1
970 324 1 -8.1999999999999995e-01 -6.5839690451868655e+00 -1.3274957676589683e+01 -1.2039225288662399e+01 -4 -6 0
2347 783 1 -8.1999999999999995e-01 -6.0890247035499403e+00 -1.4688542131014339e+01 -9.7338410512874489e+00 -1 3 0
1596 532 2 4.0999999999999998e-01 -6.4557033157014487e+00 -7.6509287576648184e+00 -8.0105161383156158e+00 -2 6 1
629 210 2 4.0999999999999998e-01 -4.2725643130240876e-01 -1.0400510502562508e+01 -1.1655443690944924e+01 0 1 3
471 157 2 4.0999999999999998e-01 -4.0677991380026963e+00 -5.7196982169413815e+00 -7.6554201630699010e+00 2 0 -2
2295 765 2 4.0999999999999998e-01 -3.2305081704212846e-01 -1.3488410048770007e+01 -9.1794829747550395e+00 -3 3 9
2471 824 2 4.0999999999999998e-01 -6.6954636951257207e-01 -1.1701794274243335e+01 -1.3377344027168720e+01 0 6 4
630 210 2 4.0999999999999998e-01 -1.9221311966999206e+00 -1.0914806880376052e+01 -1.1246396059833938e+01 0 1 3
1968 656 2 4.0999999999999998e-01 -1.0313590669046278e+00 -1.0838347207736930e+01 -9.1905221540747544e+00 -4 1 4
1543 515 1 -8.1999999999999995e-01 -2.1272932209621516e+00 -8.3559974119726395e+00 -7.5988968258932390e+00 1 2 -2
972 324 2 4.0999999999999998e-01 -7.1389701800055247e+00 -1.2533895254327568e+01 -1.1661413089145499e+01 -4 -6 0
1058 353 2 4.0999999999999998e-01 -3.4052275406129056e+00 -8.7955118152796032e+00 -1.4462511655647537e+01 -5 0 0
1966 656 1 -8.1999999999999995e-01 -8.9218626187168226e-01 -1.1087278891831138e+01 -8.2320829380158465e+00 -4 1 4
1594 532 1 -8.1999999999999995e-01 -6.5010055605577257e+00 -8.5223773986566762e+00 -8.4988467319639760e+00 -2 6 1
974 325 2 4.0999999999999998e-01 -7.4788741009217814e+00 -1.4229513622293345e+01 -8.6660723719159236e+00 -4 1 -1
125 42 2 4.0999999999999998e-01 -7.2050599260336190e+00 -8.4943779192158733e+00 -1.2290339398724107e+01 -3 1 0
203 68 2 4.0999999999999998e-01 -9.5864702390934298e-01 -8.2270877747969706e+00 -1.4596862445437475e+01 -1 3 2
678 226 2 4.0999999999999998e-01 -5.1620957474230060e+00 -1.3992601250901133e+01 -7.8236763074925779e+00 2 3 3
2277 759 2 4.0999999999999998e-01 -4.2568333958653035e+00 -5.5398357943562271e+00 -9.8552039490430445e+00 5 0 -4
971 324 2 4.0999999999999998e-01 -6.8124027041233841e+00 -1.3403826953256528e+01 -1.3004187782275659e+01 -4 -6 0
2530 844 1 -8.1999999999999995e-01 -7.2707502695684942e+00 -6.6769556313253489e+00 -1.1365224270232281e+01 -1 0 4
2532 844 2 4.0999999999999998e-01 -7.3073485219561620e+00 -5.7195098489699880e+00 -1.1651405883957228e+01 -1 0 4
1417 473 1 -8.1999999999999995e-01 -3.4014182605767278e+00 -1.2504934237390447e+01 -1.0684669640830052e+01 0 10 -1
2275 759 1 -8.1999999999999995e-01 -5.0952206527344295e+00 -5.6430303582204466e+00 -9.3200409150893648e+00 5 0 -4
126 42 2 4.0999999999999998e-01 -6.7411372931416658e+00 -9.2969722867174340e+00 -1.3634619627201555e+01 -3 1 0
2470 824 1 -8.1999999999999995e-01 -1.3331966462867388e+00 -1.2161602517302120e+01 -1.3967332608546318e+01 0 6 4
683 228 2 4.0999999999999998e-01 -2.0013783690774289e-01 -9.2128153951452809e+00 -9.9224000105807448e+00 -7 -2 1
589 197 1 -8.1999999999999995e-01 -2.2148510339790395e+00 -5.0325643728515974e+00 -9.6889546356449685e+00 1 2 5
682 228 1 -8.1999999999999995e-01 -4.3165526573305968e-02 -8.3709745896709471e+00 -9.4060613750873010e+00 -7 -2 1
2489 830 2 4.0999999999999998e-01 -4.3011100967598654e+00 -9.6534281317928627e+00 -1.0375417261569305e+01 -5 2 2
681 227 2 4.0999999999999998e-01 -2.3154492115964960e+00 -1.5076127968788583e+01 -1.0867775649565093e+01 -2 2 0
1418 473 2 4.0999999999999998e-01 -3.6516610163197551e+00 -1.1911664047523180e+01 -1.1449751896463191e+01 0 10 -1
1057 353 1 -8.1999999999999995e-01 -2.4641743615706986e+00 -9.0854992813793150e+00 -1.4636488572522140e+01 -5 0 0
1419 473 2 4.0999999999999998e-01 -3.8177307980272541e+00 -1.3405298287603951e+01 -1.0811043122053032e+01 0 10 -1
1414 472 1 -8.1999999999999995e-01 -4.4323953563489411e+00 -1.2001605434303654e+01 -1.4551332614678964e+01 2 2 -1
2276 759 2 4.0999999999999998e-01 -5.7279386223090025e+00 -6.2467936183973496e+00 -9.8048910130162525e+00 5 0 -4
1671 557 2 4.0999999999999998e-01 -4.4969959954653476e+00 -5.9676800168491742e+00 -1.2800013112262494e+01 2 -2 0
2488 830 1 -8.1999999999999995e-01 -4.0387630323495980e+00 -8.9477539255292395e+00 -9.7172837420840033e+00 -5 2 2
124 42 1 -8.1999999999999995e-01 -6.9778959208416467e+00 -9.3920973254888178e+00 -1.2667749218598388e+01 -3 1 0
628 210 1 -8.1999999999999995e-01 -1.1035274118664695e+00 -1.0442255847737066e+01 -1.0920014088231056e+01 0 1 3
2294 765 2 4.0999999999999998e-01 -1.7621114525800703e+00 -1.2997004652546448e+01 -9.7745431207269444e+00 -3 3 9
2472 824 2 4.0999999999999998e-01 -1.5497834476142422e+00 -1.1573771444300473e+01 -1.4746746889089303e+01 0 6 4
591 197 2 4.0999999999999998e-01 -1.7795768702613284e+00 -5.5268011913522344e+00 -1.0441422671650395e+01 1 2 5
1416 472 2 4.0999999999999998e-01 -5.2706022076640302e+00 -1.2524698773623857e+01 -1.4397305269988459e+01 2 2 -1
834 278 2 4.0999999999999998e-01 -3.4965450726700489e+00 -7.3930422302090415e+00 -1.0969488020219947e+01 -2 -2 0
832 278 1 -8.1999999999999995e-01 -3.5312289211143106e+00 -7.1345563244629826e+00 -1.1934850059586518e+01 -2 -2 0
1544 515 2 4.0999999999999998e-01 -1.4533784606421527e+00 -8.2150210600515621e+00 -8.3240908645653704e+00 1 2 -2
1670 557 2 4.0999999999999998e-01 -5.8296258935975427e+00 -5.1249902370349218e+00 -1.3224798770715614e+01 2 -2 0
2349 783 2 4.0999999999999998e-01 -6.2120895624431149e+00 -1.4062644934630601e+01 -1.0503938161747952e+01 -1 3 0
480 160 2 4.0999999999999998e-01 -6.1882906293352313e-01 -5.4284132997809049e+00 -8.5842282703080812e+00 0 -1 7
2490 830 2 4.0999999999999998e-01 -3.2550379212281477e+00 -9.2648478065378690e+00 -9.1832723389427251e+00 -5 2 2
2540 847 2 4.0999999999999998e-01 -5.0248184123785737e+00 -9.9009547260168596e+00 -1.2339310184915155e+01 0 -4 7
833 278 2 4.0999999999999998e-01 -3.0486368899487744e+00 -7.8193744170909936e+00 -1.2480808773920346e+01 -2 -2 0
1669 557 1 -8.1999999999999995e-01 -4.8572209354947038e+00 -5.2637933662840179e+00 -1.3412159678033278e+01 2 -2 0
1595 532 2 4.0999999999999998e-01 -5.5757006797733712e+00 -8.8753101757592603e+00 -8.6373787958802133e+00 -2 6 1
559 187 1 -8.1999999999999995e-01 -7.1029348436575255e+00 -1.3138986945566819e+01 -1.4770641914002399e+01 0 1 0
2541 847 2 4.0999999999999998e-01 -4.1062750503424326e+00 -1.1012024032791004e+01 -1.3106300700117510e+01 0 -4 7
2293 765 1 -8.1999999999999995e-01 -1.2419486420330106e+00 -1.3783359364794581e+01 -9.4413483742082818e+00 -3 3 9
2539 847 1 -8.1999999999999995e-01 -4.1584337539014715e+00 -1.0399791944204726e+01 -1.2317381717424709e+01 0 -4 7
684 228 2 4.0999999999999998e-01 -2.6737353268073250e-01 -7.5822275505456327e+00 -9.9783818235813460e+00 -7 -2 1
1967 656 2 4.0999999999999998e-01 -8.5475814277574003e-01 -1.0258096747268464e+01 -7.6744110984135645e+00 -4 1 4
202 68 1 -8.1999999999999995e-01 -2.8747466243892461e-02 -7.8851833198988519e+00 -1.4461474066834453e+01 -1 3 2
478 160 1 -8.1999999999999995e-01 -7.5822411625104458e-01 -5.4841115972569980e+00 -7.5955885372337164e+00 0 -1 7
2502 834 2 4.0999999999999998e-01 -1.1247153156286542e+01 -1.4358554439325582e+01 -5.9534414711183441e+00 -6 3 3
1709 570 2 4.0999999999999998e-01 -1.3699751422414112e+01 -7.9648783557043945e+00 -6.7115536362384010e+00 -2 2 -3
1708 570 1 -8.1999999999999995e-01 -1.3180420159624520e+01 -7.3018529969858719e+00 -6.1724486031937396e+00 -2 2 -3
850 284 1 -8.1999999999999995e-01 -7.8468434870476882e+00 -9.5558609793591742e+00 -4.7700839744404018e+00 5 7 6
2475 825 2 4.0999999999999998e-01 -1.0805030995563573e+01 -1.1154124427523103e+01 -5.7253648440461244e+00 -1 -2 5
851 284 2 4.0999999999999998e-01 -8.6551794468022116e+00 -9.1730951442703237e+00 -5.2173256368400018e+00 5 7 6
1710 570 2 4.0999999999999998e-01 -1.3762417936359057e+01 -6.9322185069087006e+00 -5.4481622182702854e+00 -2 2 -3
2126 709 2 4.0999999999999998e-01 -1.0434007860559175e+01 -8.2557226391784617e+00 -2.7678582652148318e+00 -2 6 2
1198 400 1 -8.1999999999999995e-01 -9.5744645928759375e+00 -1.2640783009746634e+01 -5.7321815231444209e+00 1 5 4
1199 400 2 4.0999999999999998e-01 -9.4093328509540175e+00 -1.3088145619664992e+01 -6.6111240706045589e+00 1 5 4
2473 825 1 -8.1999999999999995e-01 -1.1486275544078001e+01 -1.0435165318083301e+01 -5.5877222904836934e+00 -1 -2 5
2111 704 2 4.0999999999999998e-01 -1.2489789972023178e+01 -9.3894851293883299e+00 -2.5441067608781704e+00 -1 -2 0
2474 825 2 4.0999999999999998e-01 -1.1649624942800813e+01 -1.0313802881960935e+01 -4.6086768595217080e+00 -1 -2 5
341 114 2 4.0999999999999998e-01 -1.1055535654149974e+01 -1.2452822665516084e+01 -1.2067979584323414e+00 -4 6 0
810 270 2 4.0999999999999998e-01 -1.3022436399881270e+01 -1.0500913533916535e+01 -6.6424878808972867e+00 3 2 1
340 114 1 -8.1999999999999995e-01 -1.1450824029562533e+01 -1.2509575211220433e+01 -2.1235684276189222e+00 -4 6 0
2125 709 1 -8.1999999999999995e-01 -9.8750579438280752e+00 -7.4285994536363189e+00 -2.8260308866572714e+00 -2 6 2
342 114 2 4.0999999999999998e-01 -1.1187101621232062e+01 -1.3376143307520909e+01 -2.5471862393312410e+00 -4 6 0
2112 704 2 4.0999999999999998e-01 -1.1626831272674238e+01 -1.0770208976245497e+01 -2.6681037476917417e+00 -1 -2 0
2110 704 1 -8.1999999999999995e-01 -1.1694638795087391e+01 -9.8197480086701070e+00 -2.9713657984558726e+00 -1 -2 0
2380 794 1 -8.1999999999999995e-01 -1.1812515507180567e+01 -5.4147300843218300e+00 -4.2816147669987821e+00 5 1 0
1541 514 2 4.0999999999999998e-01 -9.9475247811892267e+00 -7.5209885708395268e+00 -4.7824878027669939e+00 4 3 2
308 103 2 4.0999999999999998e-01 -1.4191734577630934e+01 -9.9532634443995462e+00 -2.5160448697195488e+00 -3 3 4
808 270 1 -8.1999999999999995e-01 -1.3874246280472670e+01 -1.0221313704714937e+01 -7.0854163446751972e+00 3 2 1
566 189 2 4.0999999999999998e-01 -1.4812656122373550e+01 -1.2644138512727622e+01 -8.5371884051085090e-01 -1 1 -1
1540 514 1 -8.1999999999999995e-01 -9.8810120103152421e+00 -8.0083643824619060e+00 -5.6531098094149801e+00 4 3 2
2127 709 2 4.0999999999999998e-01 -1.0034689484282447e+01 -6.8609676967787134e+00 -2.0184085850312616e+00 -2 6 2
1373 458 2 4.0999999999999998e-01 -1.4424434005584631e+01 -1.1924556837645564e+01 -3.2265181542837507e+00 -4 3 0
2381 794 2 4.0999999999999998e-01 -1.1077263720719671e+01 -5.9846886448269192e+00 -3.9148807181138743e+00 5 1 0
160 54 1 -8.1999999999999995e-01 -8.6354273807550825e+00 -1.0077565310975038e+01 -1.5960795255866369e+00 0 3 2
1542 514 2 4.0999999999999998e-01 -1.0696597310587437e+01 -8.5722844234118760e+00 -5.7825571706614749e+00 4 3 2
162 54 2 4.0999999999999998e-01 -8.7170311792495241e+00 -1.0328883585213630e+01 -2.5605077334265758e+00 0 3 2
351 117 2 4.0999999999999998e-01 -1.4810295258294378e+01 -7.2495138731117272e+00 -3.4136794354033491e+00 0 0 2
2233 745 1 -8.1999999999999995e-01 -9.1430257912764574e+00 -1.4198693880875441e+01 -3.4259898964924513e+00 1 -3 0
2382 794 2 4.0999999999999998e-01 -1.2260273615622500e+01 -5.8934713569437704e+00 -5.0367712326022804e+00 5 1 0
1372 458 1 -8.1999999999999995e-01 -1.4007561357287249e+01 -1.1793982301116035e+01 -2.3270131058727870e+00 -4 3 0
1200 400 2 4.0999999999999998e-01 -9.4361014697126038e+00 -1.3298823311501648e+01 -4.9920596379953395e+00 1 5 4
307 103 1 -8.1999999999999995e-01 -1.4486844255622565e+01 -9.0576538462347767e+00 -2.1832753484712200e+00 -3 3 4
1107 369 2 4.0999999999999998e-01 -1.4896613625158702e+01 -5.7878355899746321e+00 -3.0777412425091200e-01 1 3 5
1428 476 2 4.0999999999999998e-01 -8.3178468417998701e+00 -8.6364106594584733e+00 -9.1240002272438048e-01 -4 1 -2
161 54 2 4.0999999999999998e-01 -8.9130401308442373e+00 -1.0850489852619951e+01 -1.0255879508835299e+00 0 3 2
1374 458 2 4.0999999999999998e-01 -1.3069490499364818e+01 -1.2140059553212375e+01 -2.3409912256008720e+00 -4 3 0
229 77 1 -8.1999999999999995e-01 -1.4958280940773985e+01 -1.1456244131931895e+01 -4.7725567820524617e+00 6 0 -3
230 77 2 4.0999999999999998e-01 -1.4883323094997976e+01 -1.0915297592733657e+01 -5.6102321240433284e+00 6 0 -3
2235 745 2 4.0999999999999998e-01 -8.5166318153064946e+00 -1.4633361662442395e+01 -4.0730110189691722e+00 1 -3 0
2234 745 2 4.0999999999999998e-01 -9.7418071670438628e+00 -1.4891883456382780e+01 -3.0248778520783706e+00 1 -3 0
1346 449 2 4.0999999999999998e-01 -7.8357283579454347e+00 -5.3685746209961476e+00 -6.7329817062142769e+00 0 6 -3
1347 449 2 4.0999999999999998e-01 -8.4994475817624995e+00 -6.8582177392611214e+00 -6.8161173023361741e+00 0 6 -3
1345 449 1 -8.1999999999999995e-01 -7.6622625606614170e+00 -6.3286182480881656e+00 -6.9524530740538122e+00 0 6 -3
309 103 2 4.0999999999999998e-01 -1.5031361305095764e+01 -9.1735733884557291e+00 -1.3526095845769390e+00 -3 3 4
725 242 2 4.0999999999999998e-01 -1.0035298059680153e+01 -7.5121964497246250e+00 -7.4678304775569515e+00 2 3 -1
1426 476 1 -8.1999999999999995e-01 -8.1262321225541179e+00 -7.8903308809428472e+00 -2.7475545174045024e-01 -4 1 -2
140 47 2 4.0999999999999998e-01 -9.5144810855191544e+00 -6.8542490164005283e+00 -1.4521506988398158e-01 -5 2 0
139 47 1 -8.1999999999999995e-01 -1.0382743704278308e+01 -6.3593883782352876e+00 -1.7949070083158425e-01 -5 2 0
1522 508 1 -8.1999999999999995e-01 -7.6062946432362466e-01 -6.4070950160237903e+00 -3.3869685021433735e+00 3 3 0
1524 508 2 4.0999999999999998e-01 -1.1092854536682957e+00 -5.7120017502366753e+00 -2.7582983513342487e+00 3 3 0
1427 476 2 4.0999999999999998e-01 -7.1516310321086323e+00 -7.6684967490252953e+00 -3.0448989078669264e-01 -4 1 -2
2121 707 2 4.0999999999999998e-01 -4.1090669980752512e+00 -1.0627877450768977e+01 -4.5885099117683339e+00 -3 5 -4
852 284 2 4.0999999999999998e-01 -7.0559101387503560e+00 -8.9727139171012205e+00 -4.9553020855397669e+00 5 7 6
663 221 2 4.0999999999999998e-01 -5.6796135161091996e+00 -6.0239201690510331e+00 -2.4024184069720445e+00 1 5 5
1393 465 1 -8.1999999999999995e-01 -6.1386861481117627e+00 -1.1347403102067332e+01 -6.2646132140697048e+00 7 0 8
1809 603 2 4.0999999999999998e-01 -1.7197954280652610e+00 -1.2070556846546733e+01 -7.1199896021102331e+00 0 1 2
1882 628 1 -8.1999999999999995e-01 -3.8947209975384727e+00 -1.2091635778791424e+01 -1.3606872512954435e+00 0 -1 -8
1883 628 2 4.0999999999999998e-01 -4.3319864874352199e+00 -1.1530128626838737e+01 -6.5822703039758146e-01 0 -1 -8
1808 603 2 4.0999999999999998e-01 -3.0119533021045761e+00 -1.2979400299614854e+01 -6.7067064563750005e+00 0 1 2
1394 465 2 4.0999999999999998e-01 -5.7047730664159619e+00 -1.0526823060294440e+01 -6.6365132397823956e+00 7 0 8
444 148 2 4.0999999999999998e-01 -1.9789660025486064e+00 -1.1173244039983503e+01 -1.1270874272280729e-01 0 -1 4
1773 591 2 4.0999999999999998e-01 -7.4493613869514421e+00 -1.4709969522698822e+01 -6.2514738889261068e+00 -1 0 2
1545 515 2 4.0999999999999998e-01 -2.5637679340285455e+00 -7.4844908148673266e+00 -7.3754960570629846e+00 1 2 -2
2119 707 1 -8.1999999999999995e-01 -3.7053906462324431e+00 -1.1318349797438563e+01 -3.9883140109940349e+00 -3 5 -4
661 221 1 -8.1999999999999995e-01 -5.4390678354270641e+00 -5.2741779711303103e+00 -3.0188324003443103e+00 1 5 5
2120 707 2 4.0999999999999998e-01 -3.2736236245505772e+00 -1.2030149468971022e+01 -4.5422636855930971e+00 -3 5 -4
990 330 2 4.0999999999999998e-01 -6.4649622929745103e+00 -1.2110789973182699e+01 -3.6269828488633351e+00 -4 -2 4
442 148 1 -8.1999999999999995e-01 -1.1715338570733778e+00 -1.0741752755451675e+01 -5.1496540112869660e-01 0 -1 4
373 125 1 -8.1999999999999995e-01 -2.6580037816979551e+00 -1.4395461855028870e+01 -2.9503921378015985e+00 -2 1 3
408 136 2 4.0999999999999998e-01 -3.8575995723596872e+00 -1.3444018557111788e+01 -3.4964430144272285e-01 -1 7 0
469 157 1 -8.1999999999999995e-01 -3.5286669427511104e+00 -6.0651039780638367e+00 -6.8873230593128731e+00 2 0 -2
1946 649 2 4.0999999999999998e-01 -6.9858328986598295e-01 -1.4607963460612302e+01 -5.3190924065270977e+00 -3 -1 0
1547 516 2 4.0999999999999998e-01 -6.7700911180540420e+00 -9.2187578487174839e+00 -2.1014148707118387e+00 -2 2 -4
538 180 1 -8.1999999999999995e-01 -5.8224199565191661e+00 -7.3339603207298243e+00 -4.8762220866128185e+00 -3 -1 3
1807 603 1 -8.1999999999999995e-01 -2.1640597473157648e+00 -1.2566666683043760e+01 -6.3740364706710260e+00 0 1 2
443 148 2 4.0999999999999998e-01 -1.4459465568752314e+00 -1.0190023062454802e+01 -1.3025146695197556e+00 0 -1 4
1884 628 2 4.0999999999999998e-01 -4.1905732997816063e+00 -1.1784198618841698e+01 -2.2650630797573097e+00 0 -1 -8
1947 649 2 4.0999999999999998e-01 -9.7145386216200436e-01 -1.4717485407667152e+01 -3.7128489858786828e+00 -3 -1 0
1945 649 1 -8.1999999999999995e-01 -2.7717087482710845e-01 -1.4783740365797257e+01 -4.4294543508231286e+00 -3 -1 0
1482 494 2 4.0999999999999998e-01 -2.6528310609915380e+00 -9.6914559817961372e+00 -3.3014732733383756e+00 -7 1 1
676 226 1 -8.1999999999999995e-01 -4.6457612926209055e+00 -1.3484255874743525e+01 -7.1345278971512345e+00 2 3 3
479 160 2 4.0999999999999998e-01 -1.7192818401932932e+00 -5.3065545769218243e+00 -7.3839676933388922e+00 0 -1 7
677 226 2 4.0999999999999998e-01 -5.2450962402763022e+00 -1.2814836994909891e+01 -6.6956454624209965e+00 2 3 3
1523 508 2 4.0999999999999998e-01 -1.2703317674679671e+00 -6.3650782310498446e+00 -4.2462588844942850e+00 3 3 0
375 125 2 4.0999999999999998e-01 -2.8216911680647634e+00 -1.3771209568114477e+01 -2.1865483452735965e+00 -2 1 3
540 180 2 4.0999999999999998e-01 -6.5058270167866326e+00 -7.2828920480417025e+00 -5.6044312908559082e+00 -3 -1 3
1481 494 2 4.0999999999999998e-01 -1.4899759823778833e+00 -8.5503037729843623e+00 -3.1918783256883785e+00 -7 1 1
1480 494 1 -8.1999999999999995e-01 -1.9647116253457106e+00 -9.2818541444575828e+00 -2.7025911499929798e+00 -7 1 1
1977 659 2 4.0999999999999998e-01 -4.3993032117786051e+00 -8.2621082260072232e+00 -5.7559572064616411e+00 5 4 3
988 330 1 -8.1999999999999995e-01 -6.6524911128942108e+00 -1.2827147710324228e+01 -2.9549662437659077e+00 -4 -2 4
1976 659 2 4.0999999999999998e-01 -3.1141236223254687e+00 -9.1347130675394759e+00 -6.2592915786817205e+00 5 4 3
989 330 2 4.0999999999999998e-01 -7.4045732800095632e+00 -1.3400443055602555e+01 -3.2799995630768866e+00 -4 -2 4
2567 856 2 4.0999999999999998e-01 -5.2990795618252324e+00 -1.4986018620369087e+01 -2.5937692129227319e+00 -5 5 -4
1395 465 2 4.0999999999999998e-01 -6.9773058977428981e+00 -1.1092073348301080e+01 -5.7835046513542387e+00 7 0 8
1975 659 1 -8.1999999999999995e-01 -3.9280723575483183e+00 -9.1406716514812416e+00 -5.6784355373822635e+00 5 4 3
1546 516 1 -8.1999999999999995e-01 -5.7966719546244754e+00 -8.9979452573630816e+00 -2.0410929864027096e+00 -2 2 -4
1548 516 2 4.0999999999999998e-01 -5.5037351543090320e+00 -8.5492724827827047e+00 -2.8853811934704474e+00 -2 2 -4
539 180 2 4.0999999999999998e-01 -5.5147575432315215e+00 -6.4116268407358632e+00 -4.6425843395254365e+00 -3 -1 3
611 204 2 4.0999999999999998e-01 -5.3388225937897271e+00 -1.0029977479295784e+01 -5.4512705922716087e-01 -4 -1 -5
470 157 2 4.0999999999999998e-01 -3.5756496970808467e+00 -5.4156824588931602e+00 -6.1283855549762798e+00 2 0 -2
75 25 2 4.0999999999999998e-01 -7.0437976401385374e+00 -1.4031163894358635e+01 -7.5966810059610168e-01 -1 -1 -7
2261 754 2 4.0999999999999998e-01 -1.2451706463523315e-01 -1.0114614207563790e+01 -3.2841654564933869e+00 1 3 -3
640 214 1 -8.1999999999999995e-01 -1.2883937384304403e+01 -6.6894924445314103e+00 3.7025024158922193e+00 3 2 -2
1082 361 2 4.0999999999999998e-01 -9.9142543951681112e+00 -1.0909879199396206e+01 4.0489866289142036e+00 -3 1 -4
955 319 1 -8.1999999999999995e-01 -1.1950244029808191e+01 -9.9542507830904619e+00 1.1966174165507582e+00 1 3 -2
956 319 2 4.0999999999999998e-01 -1.2895289692416686e+01 -1.0171009934756480e+01 9.5198300002869374e-01 1 3 -2
641 214 2 4.0999999999999998e-01 -1.2853471183026937e+01 -6.7580646746356461e+00 2.7053507401355894e+00 3 2 -2
893 298 2 4.0999999999999998e-01 -9.4076696742473160e+00 -1.3759679810972884e+01 2.9615318075292052e+00 2 -4 -3
1851 617 2 4.0999999999999998e-01 -1.0510241043762761e+01 -1.2570102884356105e+01 8.8118190305925914e-01 -3 1 -1
1849 617 1 -8.1999999999999995e-01 -1.0313697971303736e+01 -1.1812856992582164e+01 2.5837274675930821e-01 -3 1 -1
1850 617 2 4.0999999999999998e-01 -1.0801483474542000e+01 -1.0995042597395910e+01 5.6363776293667556e-01 -3 1 -1
892 298 1 -8.1999999999999995e-01 -1.0193158308463858e+01 -1.3272516180227489e+01 2.5799285765594036e+00 2 -4 -3
1901 634 2 4.0999999999999998e-01 -8.9095480445154447e+00 -8.3018669748946934e+00 1.4467645696048201e+00 -2 -3 0
1083 361 2 4.0999999999999998e-01 -1.1221464031045478e+01 -1.1494556091075721e+01 3.2642400122079920e+00 -3 1 -4
30 10 2 4.0999999999999998e-01 -1.2011355337248391e+01 -1.3438396796808240e+01 6.2308950392746922e+00 1 -2 5
28 10 1 -8.1999999999999995e-01 -1.2075301312101031e+01 -1.2443463699967552e+01 6.3081012347182437e+00 1 -2 5
567 189 2 4.0999999999999998e-01 -1.4971238713347839e+01 -1.2180013488612900e+01 7.0381472425751568e-01 -1 1 -1
642 214 2 4.0999999999999998e-01 -1.3154056830822999e+01 -5.7631109858396101e+00 3.9647897352171100e+00 3 2 -2
29 10 2 4.0999999999999998e-01 -1.1624917015455519e+01 -1.2018592462242262e+01 5.5228750080361237e+00 1 -2 5
2372 791 2 4.0999999999999998e-01 -1.4739060605453767e+01 -8.5847439646751358e+00 4.9287860886112114e+00 -4 -2 1
2409 803 2 4.0999999999999998e-01 -1.4861879483610764e+01 -1.3857572126769103e+01 6.1044089000940147e+00 5 1 -3
1081 361 1 -8.1999999999999995e-01 -1.0905972073351865e+01 -1.1030655360421378e+01 4.0920097605159427e+00 -3 1 -4
542 181 2 4.0999999999999998e-01 -1.1656504715215707e+01 -6.8754124903270757e+00 6.1194799698817093e-01 1 6 2
541 181 1 -8.1999999999999995e-01 -1.2491928567746655e+01 -7.2825291855334591e+00 9.8108867947138378e-01 1 6 2
2582 861 2 4.0999999999999998e-01 -8.2818026949767738e+00 -9.6580542043046353e+00 3.4558734730632743e+00 -6 -2 2
1900 634 1 -8.1999999999999995e-01 -9.4379198672599749e+00 -8.4984992744050132e+00 2.2726585012656919e+00 -2 -3 0
1280 427 2 4.0999999999999998e-01 -9.8364985048305336e+00 -6.8612014921237190e+00 3.5215040763845522e+00 -6 0 4
1902 634 2 4.0999999999999998e-01 -9.9427896975815742e+00 -9.3528736973051103e+00 2.1498064680834439e+00 -2 -3 0
543 181 2 4.0999999999999998e-01 -1.3286683547744738e+01 -6.7835986670564274e+00 6.3558225408084645e-01 1 6 2
1279 427 1 -8.1999999999999995e-01 -1.0162990541711702e+01 -6.1495527453477479e+00 4.1435176098168967e+00 -6 0 4
2522 841 2 4.0999999999999998e-01 -1.2239985882735276e+01 -9.8588694306154352e+00 4.6790894879017202e+00 -3 1 2
957 319 2 4.0999999999999998e-01 -1.1811636311933839e+01 -8.9651666579288865e+00 1.1471974389582975e+00 1 3 -2
7 3 1 -8.1999999999999995e-01 -9.0886562318008153e+00 -1.2877160780691245e+01 7.1481655341893315e+00 -3 7 2
894 298 2 4.0999999999999998e-01 -1.1027422266989475e+01 -1.3794476574773709e+01 2.7574189195150289e+00 2 -4 -3
1643 548 2 4.0999999999999998e-01 -1.1767074199271116e+01 -7.2957027495837705e+00 6.3912061597111034e+00 5 4 2
1338 446 2 4.0999999999999998e-01 -8.3722843774156175e+00 -1.0205230951245618e+01 6.0004344908631921e+00 -2 2 0
2521 841 1 -8.1999999999999995e-01 -1.2791223728681480e+01 -9.1277653209438618e+00 5.0810415065542394e+00 -3 1 2
2523 841 2 4.0999999999999998e-01 -1.2792141998712333e+01 -8.3364570920833145e+00 4.4696723451806655e+00 -3 1 2
1281 427 2 4.0999999999999998e-01 -1.1158167794410192e+01 -6.2069744743995319e+00 4.2226806515234081e+00 -6 0 4