LAMMPS data file via write_data, version 15 May 2015, timestep = 1009000

2593 atoms
6 atom types
1728 bonds
4 bond types
864 angles
3 angle types
0 dihedrals
3 dihedral types
0 impropers
1 improper types

-1.4914901846931800e+01 1.4914901846931800e+01 xlo xhi
-1.4914901846931800e+01 1.4914901846931800e+01 ylo yhi
-1.4914901846931800e+01 1.4914901846931800e+01 zlo zhi

Masses

1 15.9994
2 1.00794
3 12.0107
4 1.00794
5 12.0107
6 12.0107

Bond Coeffs # harmonic

1 1000 1
2 469 1.4
3 367 1.08
4 469 0.7

Angle Coeffs # harmonic

1 100 109.47
2 35 120
3 63 120

Dihedral Coeffs # opls

1 0 7.25 0 0
2 0 7.25 0 0
3 0 7.25 0 0

Improper Coeffs # cvff

1 2.5 -1 2

Atoms # full

1420 474 1 -8.1999999999999995e-01 -1.1276224904135251e+01 -1.0053006047210459e+01 -1.1622143049719108e+01 -1 1 0
1566 522 2 4.0999999999999998e-01 -1.3669414608159743e+01 -1.4590561549995655e+01 -1.3973741814214140e+01 1 1 3
827 276 2 4.0999999999999998e-01 -1.4149051863861704e+01 -1.1090444873811828e+01 -9.5899433843295157e+00 0 0 1
2128 710 1 -8.1999999999999995e-01 -1.3708764560336082e+01 -9.3955727013628021e+00 -1.0380664385595399e+01 1 1 1
1565 522 2 4.0999999999999998e-01 -1.4247466579228425e+01 -1.4104815024136242e+01 -1.2525709954983054e+01 1 1 3
1442 481 2 4.0999999999999998e-01 -8.7072065342943628e+00 -6.4405941429368152e+00 -9.4969767308692372e+00 0 1 2
1422 474 2 4.0999999999999998e-01 -1.2101002012220565e+01 -9.7158216160918798e+00 -1.1168107578425341e+01 -1 1 0
1581 527 2 4.0999999999999998e-01 -1.0289047296077188e+01 -1.4066459563670710e+01 -9.4789342107197143e+00 0 1 0
1421 474 2 4.0999999999999998e-01 -1.1531664310926823e+01 -1.0704783425176235e+01 -1.2336310965371368e+01 -1 1 0
2130 710 2 4.0999999999999998e-01 -1.3971848352491998e+01 -8.8851176132794478e+00 -1.1199396036417728e+01 1 1 1
1443 481 2 4.0999999999999998e-01 -8.2424173924749056e+00 -5.9386273053498773e+00 -1.0979842375647763e+01 0 1 2
1580 527 2 4.0999999999999998e-01 -9.8429732356439157e+00 -1.2539225316201044e+01 -9.1108804648508634e+00 0 1 0
487 163 1 -8.1999999999999995e-01 -1.3701860065578622e+01 -1.4568502608454152e+01 -9.5628740751365697e+00 -2 -1 1
469 157 1 -8.1999999999999995e-01 -1.2146280931112083e+01 -1.2025081591601536e+01 -1.3347049599416810e+01 0 3 2
1644 548 2 4.0999999999999998e-01 -1.4368927772018253e+01 -5.8663889678465431e+00 -1.0448906477463034e+01 -1 0 3
1947 649 2 4.0999999999999998e-01 -5.9311121437806911e+00 -1.4053160111697267e+01 -1.4329673826040782e+01 1 1 0
2001 667 2 4.0999999999999998e-01 -1.0845829053131478e+01 -8.7598732988676389e+00 -8.9145259118419489e+00 0 1 0
1999 667 1 -8.1999999999999995e-01 -1.1635783143214233e+01 -8.1485760866230823e+00 -8.9633836272628287e+00 0 1 0
737 246 2 4.0999999999999998e-01 -1.4103194727642160e+01 -9.5816175797477214e+00 -1.3331312138978067e+01 0 1 0
2000 667 2 4.0999999999999998e-01 -1.1322676094598521e+01 -7.2105534803637923e+00 -9.1123010136182536e+00 0 1 0
1933 645 1 -8.1999999999999995e-01 -2.0775293856331896e+00 -5.1104940359078643e+00 -1.0546057301894660e+01 0 1 3
239 80 2 4.0999999999999998e-01 -9.7834679204307893e+00 -6.8540353364073088e+00 -1.1991514704232902e+01 -1 0 1
1486 496 1 -8.1999999999999995e-01 -4.3164170367868238e-01 -8.9300453416277108e+00 -1.2416731694569116e+01 0 1 0
1308 436 2 4.0999999999999998e-01 -1.0996765214078025e+01 -1.0951406105675524e+01 -1.0024217318625265e+01 3 -1 0
1579 527 1 -8.1999999999999995e-01 -9.5234456161194529e+00 -1.3481562465045579e+01 -9.2108888910434761e+00 0 1 0
1523 508 2 4.0999999999999998e-01 -1.2844257679724326e+01 -8.6649947435118939e+00 -7.4913955010117332e+00 1 3 1
240 80 2 4.0999999999999998e-01 -1.0543378617175161e+01 -8.2965486026060624e+00 -1.2084150684904365e+01 -1 0 1
238 80 1 -8.1999999999999995e-01 -1.0390450020405295e+01 -7.4230349047938891e+00 -1.2546412065098794e+01 -1 0 1
1306 436 1 -8.1999999999999995e-01 -1.1123925151426466e+01 -1.1245559987555033e+01 -9.0769039222657213e+00 3 -1 0
738 246 2 4.0999999999999998e-01 -1.3430725750416990e+01 -1.0979713902136865e+01 -1.3841216184440695e+01 0 1 0
96 32 2 4.0999999999999998e-01 -1.3610715217166087e+01 -1.4732451878019589e+01 -7.9198352275043389e+00 -1 1 1
1945 649 1 -8.1999999999999995e-01 -6.7801420616064654e+00 -1.3788626083641589e+01 -1.3872214765039194e+01 1 1 0
1733 578 2 4.0999999999999998e-01 -1.0951884170051700e+01 -6.8348923193821136e+00 -1.3986848409615975e+01 1 -1 1
1732 578 1 -8.1999999999999995e-01 -1.1510803376800004e+01 -6.5330845116262140e+00 -1.4759260383522813e+01 1 -1 1
488 163 2 4.0999999999999998e-01 -1.3831871696511458e+01 -1.3577044561522728e+01 -9.5484953265173722e+00 -2 -1 1
915 305 2 4.0999999999999998e-01 -1.2121980499869197e+01 -5.4846713361360386e+00 -7.7586269957644207e+00 -1 -1 1
471 157 2 4.0999999999999998e-01 -1.2534706160673991e+01 -1.2776513281524380e+01 -1.2813593812388836e+01 0 3 2
1307 436 2 4.0999999999999998e-01 -1.2099718984316791e+01 -1.1252284066151374e+01 -8.8580889198282087e+00 3 -1 0
2129 710 2 4.0999999999999998e-01 -1.3043473021474773e+01 -8.8642846347610202e+00 -9.8560511850474484e+00 1 1 1
736 246 1 -8.1999999999999995e-01 -1.4091787207027195e+01 -1.0262928088262351e+01 -1.4063285274529413e+01 0 1 0
1131 377 2 4.0999999999999998e-01 -6.4284078792144221e+00 -5.4696794419862744e+00 -1.2358277838973136e+01 2 3 1
79 27 1 -8.1999999999999995e-01 -1.4299501830101216e+01 -7.8195525101434695e+00 -1.2466854202359926e+01 -3 -3 1
1441 481 1 -8.1999999999999995e-01 -9.0227423119428938e+00 -6.2148980464443326e+00 -1.0418712856368742e+01 0 1 2
1140 380 2 4.0999999999999998e-01 -2.2296205584579027e+00 -1.0675040379020675e+01 -9.7711223481413807e+00 -1 1 0
1475 492 2 4.0999999999999998e-01 -1.2020847641936525e+01 -5.4600039734381234e+00 -9.8040780514619463e+00 1 1 1
80 27 2 4.0999999999999998e-01 -1.4254558605117550e+01 -7.1432120963917649e+00 -1.3202138249624381e+01 -3 -3 1
1642 548 1 -8.1999999999999995e-01 -1.3589255084652304e+01 -5.2906192004186217e+00 -1.0695277279508140e+01 -1 0 3
117 39 2 4.0999999999999998e-01 -8.2460393847974061e+00 -1.3707769462216321e+01 -1.0072521458983426e+01 -1 -1 2
1476 492 2 4.0999999999999998e-01 -1.0393225827497586e+01 -5.5863715859390197e+00 -9.7620230276520026e+00 1 1 1
1484 495 2 4.0999999999999998e-01 -8.2900501875884878e+00 -1.0309849609364125e+01 -1.3099286271647101e+01 -1 1 2
1485 495 2 4.0999999999999998e-01 -8.4608757831925985e+00 -1.1913148749944058e+01 -1.2840171445869125e+01 -1 1 2
115 39 1 -8.1999999999999995e-01 -7.3703277050183438e+00 -1.4059564931113352e+01 -1.0403380832318465e+01 -1 -1 2
509 170 2 4.0999999999999998e-01 -4.5880746345736121e+00 -6.1127337382531639e+00 -8.3226295814859732e+00 -3 0 1
2221 741 1 -8.1999999999999995e-01 -5.2211249788212033e+00 -1.1847459032656834e+01 -1.2363387253075068e+01 -1 2 2
270 90 2 4.0999999999999998e-01 -6.6701644293107876e+00 -8.1975660042987624e+00 -1.1476089919598385e+01 0 1 0
269 90 2 4.0999999999999998e-01 -6.8739617364924612e+00 -7.5994673532609545e+00 -1.2981956682107198e+01 0 1 0
508 170 1 -8.1999999999999995e-01 -3.7597281140451670e+00 -6.6269732722920143e+00 -8.1001468572734883e+00 -3 0 1
1487 496 2 4.0999999999999998e-01 -1.0554168223905993e+00 -9.6819303946709461e+00 -1.2630442734830947e+01 0 1 0
1414 472 1 -8.1999999999999995e-01 -7.3787139686546448e+00 -8.2873988813350152e+00 -1.4346458805054395e+01 0 2 2
1173 391 2 4.0999999999999998e-01 -4.5496376170706778e+00 -9.5056099455708321e+00 -1.4484035468651751e+01 0 0 1
1006 336 1 -8.1999999999999995e-01 -4.3797226628121066e-01 -1.3363081878155578e+01 -8.8699769195402087e+00 -1 0 0
1474 492 1 -8.1999999999999995e-01 -1.1218646194702970e+01 -5.4811139531798343e+00 -9.2073150284070735e+00 1 1 1
103 35 1 -8.1999999999999995e-01 -2.1541033609940889e+00 -1.0873580860805269e+01 -1.2928825781462512e+01 0 0 1
1892 631 2 4.0999999999999998e-01 -7.4441403674056712e+00 -1.0912354585992656e+01 -8.8586068978132548e+00 -1 1 2
405 135 2 4.0999999999999998e-01 -1.1216725733160278e+00 -1.4178634557871609e+01 -1.0504758834740530e+01 1 2 0
1893 631 2 4.0999999999999998e-01 -7.5786626737764582e+00 -1.0851926737149377e+01 -1.0484996319870994e+01 -1 1 2
294 98 2 4.0999999999999998e-01 -5.7721186853992101e+00 -1.3534776402029465e+01 -1.0225473513828781e+01 0 1 0
268 90 1 -8.1999999999999995e-01 -6.5066503396478446e+00 -7.4106484309926390e+00 -1.2071172027465796e+01 0 1 0
510 170 2 4.0999999999999998e-01 -3.6443734853519931e+00 -7.3731145297999916e+00 -8.7559405534223025e+00 -3 0 1
1416 472 2 4.0999999999999998e-01 -8.1494767430027366e+00 -8.8703950523139685e+00 -1.4603634040073374e+01 0 2 2
2185 729 1 -8.1999999999999995e-01 -3.3428104111116141e+00 -8.4673067713888344e+00 -1.3963720358432719e+01 -1 0 2
1891 631 1 -8.1999999999999995e-01 -7.1013749886313731e+00 -1.0476061699790847e+01 -9.6906281316067577e+00 -1 1 2
1483 495 1 -8.1999999999999995e-01 -8.1047363643030792e+00 -1.1058372273176627e+01 -1.2462519873123952e+01 -1 1 2
104 35 2 4.0999999999999998e-01 -1.6621564310009695e+00 -1.1285382059914506e+01 -1.3695967758322876e+01 0 0 1
292 98 1 -8.1999999999999995e-01 -4.7839282163661103e+00 -1.3684446710829066e+01 -1.0191162740944510e+01 0 1 0
293 98 2 4.0999999999999998e-01 -4.3213972173463588e+00 -1.2981777633407315e+01 -1.0731921517456197e+01 0 1 0
763 255 1 -8.1999999999999995e-01 -3.4817427328872110e+00 -7.6610368322785387e+00 -1.0735953860618032e+01 -1 -2 4
1139 380 2 4.0999999999999998e-01 -1.3834235557344563e+00 -1.1872665509083934e+01 -9.0524187906151603e+00 -1 1 0
1564 522 1 -8.1999999999999995e-01 -1.3425851588627062e+01 -1.4373997664234082e+01 -1.3028291674225372e+01 1 1 3
2222 741 2 4.0999999999999998e-01 -5.5189323868716755e+00 -1.2780951713459519e+01 -1.2563389950544867e+01 -1 2 2
2223 741 2 4.0999999999999998e-01 -5.9716884315130034e+00 -1.1212015150832002e+01 -1.2544948382351679e+01 -1 2 2
765 255 2 4.0999999999999998e-01 -4.3901557066423020e+00 -7.4869161313237571e+00 -1.1116173141273508e+01 -1 -2 4
2186 729 2 4.0999999999999998e-01 -2.5433778089192760e+00 -9.0492023287520595e+00 -1.3814041019776699e+01 -1 0 2
1935 645 2 4.0999999999999998e-01 -1.4810019556979643e+00 -5.1829781262147296e+00 -1.1345432009593157e+01 0 1 3
1222 408 1 -8.1999999999999995e-01 -4.1536183848773511e+00 -1.0459756204666803e+01 -1.0179546560320514e+01 0 2 1
676 226 1 -8.1999999999999995e-01 -6.0242189798946768e+00 -5.0121428793984588e+00 -8.8592588235254546e+00 -1 2 1
1223 408 2 4.0999999999999998e-01 -4.8752499847467483e+00 -1.0164874277683978e+01 -9.5531351053180913e+00 0 2 1
1934 645 2 4.0999999999999998e-01 -2.6267637302082001e+00 -5.9421339463551703e+00 -1.0463500903428528e+01 0 1 3
105 35 2 4.0999999999999998e-01 -2.9991532796481728e+00 -1.1382079808825289e+01 -1.2763241125878942e+01 0 0 1
1138 380 1 -8.1999999999999995e-01 -1.6355849424246891e+00 -1.0906318489306068e+01 -9.0005829429903912e+00 -1 1 0
328 110 1 -8.1999999999999995e-01 -2.4893414081912528e+00 -5.9807632975557379e+00 -1.4549652116345332e+01 0 1 1
403 135 1 -8.1999999999999995e-01 -1.3572464834116413e+00 -1.4632339765525057e+01 -1.1364267629146511e+01 1 2 0
330 110 2 4.0999999999999998e-01 -1.7050839997320111e+00 -5.8319645390692383e+00 -1.3947241913311995e+01 0 1 1
764 255 2 4.0999999999999998e-01 -3.2974363611994928e+00 -8.6438604523356393e+00 -1.0749656556947087e+01 -1 -2 4
1224 408 2 4.0999999999999998e-01 -4.5657299451725422e+00 -1.0863893537303543e+01 -1.0996208023926412e+01 0 2 1
489 163 2 4.0999999999999998e-01 -1.2824753159333284e+01 -1.4783473618702562e+01 -9.9924899030496306e+00 -2 -1 1
2187 729 2 4.0999999999999998e-01 -3.2235004606822830e+00 -7.6042532183652893e+00 -1.3472800270952968e+01 -1 0 2
1172 391 2 4.0999999999999998e-01 -6.1690173458690634e+00 -9.3974738869917864e+00 -1.4665159353724182e+01 0 0 1
678 226 2 4.0999999999999998e-01 -6.8019151510492168e+00 -5.3829958131351443e+00 -8.3515624080036055e+00 -1 2 1
470 157 2 4.0999999999999998e-01 -1.2050611040141240e+01 -1.2308392958276979e+01 -1.4301345554514324e+01 0 3 2
2354 785 2 4.0999999999999998e-01 -5.7913350576473022e-01 -9.5516056090158514e+00 -9.4227183252272866e+00 1 0 1
116 39 2 4.0999999999999998e-01 -7.5336891232369396e+00 -1.4766600203814047e+01 -1.1091503671685043e+01 -1 -1 2
826 276 1 -8.1999999999999995e-01 -1.4303359179099989e+01 -1.1998274465114186e+01 -9.1999004001277989e+00 0 0 1
1007 336 2 4.0999999999999998e-01 -6.6768221419529361e-01 -1.3880240327795416e+01 -8.0454289257671849e+00 -1 0 0
1488 496 2 4.0999999999999998e-01 -2.7787291779666035e-01 -8.8949572838732749e+00 -1.1429197982758307e+01 0 1 0
691 231 1 -8.1999999999999995e-01 -8.4715247073439901e+00 -6.0701016330818245e+00 -7.6470745690974606e+00 -1 2 1
1636 546 1 -8.1999999999999995e-01 -1.6073163472228558e-01 -5.2015421957877876e+00 -1.2696047288064198e+01 -2 1 1
2386 796 1 -8.1999999999999995e-01 -1.1189757853576243e+01 -1.4654194125287084e+01 -1.1183621599743041e+01 1 2 1
1946 649 2 4.0999999999999998e-01 -7.4860601953172390e+00 -1.3609158895869516e+01 -1.4557466505051099e+01 1 1 0
1649 550 2 4.0999999999999998e-01 -1.0374229756821052e-01 -6.0000929984960116e+00 -9.3479908161873695e+00 -1 2 2
828 276 2 4.0999999999999998e-01 -1.4647923956822085e+01 -1.1905515605108532e+01 -8.2656788036602222e+00 0 0 1
2387 796 2 4.0999999999999998e-01 -1.1880961956713648e+01 -1.4580732132444997e+01 -1.1902606345418636e+01 1 2 1
2456 819 2 4.0999999999999998e-01 -9.9713525099564144e+00 -1.1301293583588514e+01 -7.4687967096011567e+00 2 1 0
285 95 2 4.0999999999999998e-01 -3.6997298231999931e+00 -1.4848301269332408e+01 -1.4788345164716871e+01 -2 0 2
2242 748 1 -8.1999999999999995e-01 -9.7865438755035026e+00 -1.4183639800183022e+01 -2.2646704033114595e+00 0 0 0
2152 718 1 -8.1999999999999995e-01 -1.1740893421043634e+01 -6.3296198349164019e+00 -2.2077381963211327e+00 1 3 2
2153 718 2 4.0999999999999998e-01 -1.1482443048032254e+01 -7.2941358630864084e+00 -2.2626115812121554e+00 1 3 2
2244 748 2 4.0999999999999998e-01 -9.1337866711211699e+00 -1.4710649083413919e+01 -1.7203652267445815e+00 0 0 0
2243 748 2 4.0999999999999998e-01 -1.0671132674204010e+01 -1.4650106428501463e+01 -2.2678978793158464e+00 0 0 0
2300 767 2 4.0999999999999998e-01 -7.5964227844028667e+00 -1.4228229353819691e+01 -5.5899442451512282e+00 0 2 3
1948 650 1 -8.1999999999999995e-01 -7.8157597700245391e+00 -1.1192033222064557e+01 -1.6551779890540761e+00 -2 2 1
2409 803 2 4.0999999999999998e-01 -5.4203849274126839e+00 -7.8632190653445644e+00 -6.0047695590870482e+00 1 1 1
1949 650 2 4.0999999999999998e-01 -8.3511965416251890e+00 -1.1742399885667927e+01 -2.2958829463452837e+00 -2 2 1
318 106 2 4.0999999999999998e-01 -1.4496246038687522e+01 -1.1613481851659788e+01 -9.1384836966649452e-01 1 2 2
2565 855 2 4.0999999999999998e-01 -1.3429635532138388e+01 -1.0371114663381741e+01 -2.6540794514103467e+00 0 1 2
2563 855 1 -8.1999999999999995e-01 -1.3229501084377191e+01 -1.0259352926496005e+01 -3.6275035056932570e+00 0 1 2
45 15 2 4.0999999999999998e-01 -1.3090225980471129e+01 -1.4762218878527067e+01 -2.2002939434308697e+00 -2 0 2
1116 372 2 4.0999999999999998e-01 -3.2694583252955312e-01 -1.1795366976269424e+01 -5.4224006653197261e+00 0 0 2
2342 781 2 4.0999999999999998e-01 -9.9652459059241156e+00 -8.4174204900647958e+00 -2.6830305599428907e+00 0 -1 -1
2385 795 2 4.0999999999999998e-01 -8.2936018574221055e+00 -7.6127144657991748e+00 -9.3170753622441183e-01 0 2 1
2075 692 2 4.0999999999999998e-01 -9.7184968423627822e+00 -8.2294468771203597e+00 -5.8626162106563910e+00 0 1 1
2383 795 1 -8.1999999999999995e-01 -8.2781838549820499e+00 -7.6293185710522184e+00 -1.9315002392541967e+00 0 2 1
1834 612 1 -8.1999999999999995e-01 -1.4147074371538931e+01 -7.9391470915406570e+00 -2.3316867757639237e+00 1 0 0
2564 855 2 4.0999999999999998e-01 -1.2293476918966949e+01 -1.0559255443109693e+01 -3.8119382150505210e+00 0 1 2
1836 612 2 4.0999999999999998e-01 -1.3320872114558039e+01 -7.3826999199040353e+00 -2.2430570761067550e+00 1 0 0
1835 612 2 4.0999999999999998e-01 -1.4005556400808150e+01 -8.6363922200477816e+00 -3.0344817843396523e+00 1 0 0
1115 372 2 4.0999999999999998e-01 -6.2548284697930612e-01 -1.2938477370842644e+01 -4.2949857890499281e+00 0 0 2
692 231 2 4.0999999999999998e-01 -8.7188257379818186e+00 -6.9831767185490365e+00 -7.3226750719004237e+00 -1 2 1
2540 847 2 4.0999999999999998e-01 -1.3263768104159643e+01 -5.7925455412511635e+00 -3.9329907870735017e+00 1 1 1
2341 781 1 -8.1999999999999995e-01 -1.0876077955650842e+01 -8.7678515893209017e+00 -2.9013924099972552e+00 0 -1 -1
2343 781 2 4.0999999999999998e-01 -1.0839417178949686e+01 -9.7639451262270711e+00 -2.9823397590325857e+00 0 -1 -1
167 56 2 4.0999999999999998e-01 -1.0641879569801137e+01 -1.2454751410583857e+01 -3.2167510208069832e+00 -1 0 0
446 149 2 4.0999999999999998e-01 -6.3471972492722628e+00 -1.4774381110075426e+01 -2.4994158474958041e+00 -1 0 0
168 56 2 4.0999999999999998e-01 -1.0406637772558767e+01 -1.1741101249348146e+01 -4.6666664591181686e+00 -1 0 0
166 56 1 -8.1999999999999995e-01 -1.0501541457342778e+01 -1.1581759274683156e+01 -3.6839649176150218e+00 -1 0 0
1149 383 2 4.0999999999999998e-01 -1.2258843239603088e+01 -1.3014361532643083e+01 -6.2960465935513135e+00 0 3 2
1950 650 2 4.0999999999999998e-01 -8.4300394414398436e+00 -1.0613324425088248e+01 -1.1186563535330354e+00 -2 2 1
164 55 2 4.0999999999999998e-01 -1.1294705930859028e+01 -8.1455101012598767e+00 -4.5191872624896803e+00 0 -3 2
407 136 2 4.0999999999999998e-01 -3.0976711277855475e+00 -1.4048890093088252e+01 -4.2688766615337865e+00 -1 3 3
1147 383 1 -8.1999999999999995e-01 -1.1949633376503535e+01 -1.2068924981947623e+01 -6.1929067529686961e+00 0 3 2
2154 718 2 4.0999999999999998e-01 -1.0944064538698363e+01 -5.7591529003110260e+00 -2.4070622708369473e+00 1 3 2
693 231 2 4.0999999999999998e-01 -8.5804501915482909e+00 -5.4110923045502108e+00 -6.9028025891453932e+00 -1 2 1
1148 383 2 4.0999999999999998e-01 -1.2738923835882341e+01 -1.1475392195888446e+01 -6.0353052906994087e+00 0 3 2
163 55 1 -8.1999999999999995e-01 -1.1441260383887993e+01 -7.8892344890081674e+00 -5.4746680107522110e+00 0 -3 2
467 156 2 4.0999999999999998e-01 -4.0719768475437483e+00 -5.0239850074056864e+00 -1.6008192052987074e+00 1 1 0
1117 373 1 -8.1999999999999995e-01 -1.8523432242101077e+00 -6.4699447999043205e+00 -9.4805200217126639e-01 0 1 0
2076 692 2 4.0999999999999998e-01 -8.7538337403473534e+00 -9.3421562398315814e+00 -6.5684440542925895e+00 0 1 1
1022 341 2 4.0999999999999998e-01 -6.1934993591914456e+00 -9.8733142757287524e+00 -5.8960622903904802e+00 -2 1 1
2455 819 1 -8.1999999999999995e-01 -9.1809741941453247e+00 -1.1315962997580570e+01 -6.8562725843549455e+00 2 1 0
422 141 2 4.0999999999999998e-01 -2.7492120640183160e-01 -9.2410027009039624e+00 -8.7920922072925656e-01 -3 2 2
1634 545 2 4.0999999999999998e-01 -6.9162939480457712e+00 -1.0208294107062819e+01 -2.8717761440195240e+00 1 1 2
2384 795 2 4.0999999999999998e-01 -8.0881053975039752e+00 -6.7103902362266314e+00 -2.2772454217890932e+00 0 2 1
165 55 2 4.0999999999999998e-01 -1.2251825146186647e+01 -8.3585730595544980e+00 -5.8251034027308286e+00 0 -3 2
2299 767 1 -8.1999999999999995e-01 -8.5162172229825686e+00 -1.4377789920500229e+01 -5.2270273241108285e+00 0 2 3
2074 692 1 -8.1999999999999995e-01 -8.8212563341538761e+00 -8.3886370813072872e+00 -6.2745831645129737e+00 0 1 1
2301 767 2 4.0999999999999998e-01 -8.4674084688700706e+00 -1.4501756383411156e+01 -4.2358921996174814e+00 0 2 3
94 32 1 -8.1999999999999995e-01 -1.3563818402063500e+01 -1.4517014473911471e+01 -6.9443936573840261e+00 -1 1 1
102 34 2 4.0999999999999998e-01 -2.4710643785875259e+00 -1.0525210410177833e+01 -5.2307631056247992e+00 0 2 -1
2310 770 2 4.0999999999999998e-01 -1.4819593614059624e+01 -1.0573016630964510e+01 -4.3231661849496348e+00 0 1 0
914 305 2 4.0999999999999998e-01 -1.1999320163726514e+01 -6.1763402211209524e+00 -6.2843683457444186e+00 -1 -1 1
755 252 2 4.0999999999999998e-01 -6.9167623470369097e+00 -4.9898534811718207e+00 -2.0310388922934219e+00 -1 1 0
2346 782 2 4.0999999999999998e-01 -2.4516463664421195e-01 -1.4403509653758766e+01 -5.5544143940356179e+00 1 1 2
2448 816 2 4.0999999999999998e-01 -1.2630773581045695e+01 -5.2795409304077765e+00 -8.6390593365641699e-01 0 1 0
100 34 1 -8.1999999999999995e-01 -3.2246592622567363e+00 -1.0616034977163114e+01 -4.5796529222225626e+00 0 2 -1
913 305 1 -8.1999999999999995e-01 -1.2450809918608424e+01 -5.4585882269258938e+00 -6.8145455811074083e+00 -1 -1 1
2337 779 2 4.0999999999999998e-01 -4.9357693110176601e+00 -1.4446082154377539e+01 -6.1731201672101061e+00 0 2 1
406 136 1 -8.1999999999999995e-01 -3.6851417558022863e+00 -1.3466340574239679e+01 -4.8306712851226887e+00 -1 3 3
607 203 1 -8.1999999999999995e-01 -2.1538863192053608e+00 -5.2595623800971119e+00 -5.9205874266581535e+00 -1 1 1
2407 803 1 -8.1999999999999995e-01 -5.8732960627315567e+00 -7.2165175861367867e+00 -5.3909719219851482e+00 1 1 1
1119 373 2 4.0999999999999998e-01 -1.0014295728916593e+00 -6.9704873040121118e+00 -7.8835857260981435e-01 0 1 0
1879 627 1 -8.1999999999999995e-01 -5.3126342798585764e+00 -6.7135078067280318e+00 -3.0028694601085171e-01 0 2 -2
609 203 2 4.0999999999999998e-01 -2.4596761664438453e+00 -5.9203362096296654e+00 -6.6061305523013303e+00 -1 1 1
2457 819 2 4.0999999999999998e-01 -8.9882127899982436e+00 -1.2258545296559852e+01 -6.5833615022509804e+00 2 1 0
993 331 2 4.0999999999999998e-01 -5.3841506538937534e+00 -5.4197494855042585e+00 -5.4846443769353765e+00 0 0 1
1877 626 2 4.0999999999999998e-01 -6.6346293120320610e+00 -1.1572411868671750e+01 -4.2970724787662071e+00 1 1 -1
608 203 2 4.0999999999999998e-01 -2.0680157149172320e+00 -5.7144869660629514e+00 -5.0341514454707372e+00 -1 1 1
567 189 2 4.0999999999999998e-01 -4.5798280769487025e+00 -1.1365532007083143e+01 -9.5712861334159349e-01 0 2 0
767 256 2 4.0999999999999998e-01 -1.4724312070403478e+01 -1.3144196759792671e+01 -6.6623053025917773e+00 -3 2 0
732 244 2 4.0999999999999998e-01 -1.9262856280679674e+00 -1.0688523841898908e+01 -8.7282780750294187e-01 -2 1 1
1409 470 2 4.0999999999999998e-01 -1.4704643728540425e+00 -1.3857756417511451e+01 -2.5584673974564804e+00 -1 0 1
838 280 1 -8.1999999999999995e-01 -8.6016571303992251e-01 -1.0209118459807001e+01 -6.0482230535845094e+00 -2 4 1
1635 545 2 4.0999999999999998e-01 -6.8237313960797703e+00 -8.8960231699511283e+00 -3.8393851223791930e+00 1 1 2
566 189 2 4.0999999999999998e-01 -6.1253134252838439e+00 -1.1886760788324235e+01 -1.0388945547199295e+00 0 2 0
754 252 1 -8.1999999999999995e-01 -7.3440099155701404e+00 -5.2362000335697108e+00 -2.9010226364042744e+00 -1 1 0
730 244 1 -8.1999999999999995e-01 -9.8272408091670016e-01 -1.0826580996711076e+01 -5.7161251177303463e-01 -2 1 1
408 136 2 4.0999999999999998e-01 -3.3310971117994388e+00 -1.2531079821499283e+01 -4.8244434902646631e+00 -1 3 3
1878 626 2 4.0999999999999998e-01 -5.4953660856926536e+00 -1.2706761990571794e+01 -4.5838112306143923e+00 1 1 -1
359 120 2 4.0999999999999998e-01 -2.5700833676040631e+00 -6.9927347908337447e+00 -3.4966253985156364e+00 0 0 1
2408 803 2 4.0999999999999998e-01 -6.8507576799271543e+00 -7.1869907703477560e+00 -5.6002463005146677e+00 1 1 1
1410 470 2 4.0999999999999998e-01 -1.0692124570597468e+00 -1.2563277735611269e+01 -1.6473077613331117e+00 -1 0 1
360 120 2 4.0999999999999998e-01 -1.1203963465633393e+00 -7.5612831703600785e+00 -3.9886114823232788e+00 0 0 1
358 120 1 -8.1999999999999995e-01 -1.6403586009501492e+00 -6.7375538264282415e+00 -3.7623195303683410e+00 0 0 1
1540 514 1 -8.1999999999999995e-01 -4.4044977471497990e+00 -7.4485621829714610e+00 -3.0167089253440107e+00 2 1 1
1021 341 1 -8.1999999999999995e-01 -5.5267193658789253e+00 -9.7888648015657225e+00 -6.6365834338688714e+00 -2 1 1
565 189 1 -8.1999999999999995e-01 -5.2809707534775256e+00 -1.1915974577740579e+01 -5.0379562782034526e-01 0 2 0
661 221 1 -8.1999999999999995e-01 -3.5545455579015339e+00 -1.0365649444306596e+01 -1.7860107051616900e+00 1 1 1
101 34 2 4.0999999999999998e-01 -3.9992559528180447e+00 -1.0063243942990562e+01 -4.8870953813240021e+00 0 2 -1
1876 626 1 -8.1999999999999995e-01 -6.4564840057591795e+00 -1.2463432665873398e+01 -4.7147386657981780e+00 1 1 -1
1542 514 2 4.0999999999999998e-01 -4.8682313256951542e+00 -7.2983192936818906e+00 -2.1435095856150586e+00 2 1 1
1633 545 1 -8.1999999999999995e-01 -6.6817167587082960e+00 -9.8846269561734630e+00 -3.7884614444968907e+00 1 1 2
663 221 2 4.0999999999999998e-01 -3.6820725669566965e+00 -9.3789879637406344e+00 -1.6843504948978953e+00 1 1 1
1522 508 1 -8.1999999999999995e-01 -1.3448916145201029e+01 -9.0302116926373017e+00 -6.7835087846585065e+00 1 3 1
1118 373 2 4.0999999999999998e-01 -2.0338203576549727e+00 -6.4259277349015598e+00 -1.9305118546300033e+00 0 1 0
662 221 2 4.0999999999999998e-01 -3.5708351760798305e+00 -1.0605591747652284e+01 -2.7567120827267146e+00 1 1 1
1541 514 2 4.0999999999999998e-01 -5.0774552967673472e+00 -7.4450938355660954e+00 -3.7564487133534730e+00 2 1 1
1408 470 1 -8.1999999999999995e-01 -9.9337297219121190e-01 -1.2978859171258277e+01 -2.5537509925472630e+00 -1 0 1
2208 736 2 4.0999999999999998e-01 -2.4356839427538475e+00 -1.4221777343539156e+01 -5.9798042808164809e-01 2 0 -1
840 280 2 4.0999999999999998e-01 -1.2544871604628600e+00 -1.0156833948772480e+01 -6.9657609212979450e+00 -2 4 1
1193 398 2 4.0999999999999998e-01 -7.3608653948584104e+00 -1.4402392678566400e+01 -1.5975696662291483e-02 0 1 2
316 106 1 -8.1999999999999995e-01 -1.3638848857436338e+01 -1.1139225192026979e+01 -7.1372460508426983e-01 1 2 2
1524 508 2 4.0999999999999998e-01 -1.4383699992231369e+01 -8.7156209310323334e+00 -6.9487681487903306e+00 1 3 1
839 280 2 4.0999999999999998e-01 -1.3618561378236826e-01 -9.5252719307131137e+00 -5.9570879772857346e+00 -2 4 1
2335 779 1 -8.1999999999999995e-01 -5.8170173511059939e+00 -1.4803790885532798e+01 -6.4822240255879979e+00 0 2 1
659 220 2 4.0999999999999998e-01 -1.2794171558635108e+01 -9.6076353999341020e+00 -5.4249773474373164e-01 0 1 -1
1880 627 2 4.0999999999999998e-01 -6.2153411205357401e+00 -6.2988335511211275e+00 -1.8511477164951096e-01 0 2 -2
1114 372 1 -8.1999999999999995e-01 -2.7218198061181376e-01 -1.2772281239274724e+01 -5.2156682654962658e+00 0 0 2
1023 341 2 4.0999999999999998e-01 -5.4491282499832501e+00 -1.0662780302912816e+01 -7.1165314738746721e+00 -2 1 1
658 220 1 -8.1999999999999995e-01 -1.2211748285091424e+01 -8.8944006125840325e+00 -1.5239758300988093e-01 0 1 -1
271 91 1 -8.1999999999999995e-01 -1.3383752509235192e+01 -7.6839787466481155e+00 6.0878293711825098e+00 -2 1 3
272 91 2 4.0999999999999998e-01 -1.3879487676159066e+01 -6.8816757727446056e+00 5.7551801733419179e+00 -2 1 3
610 204 1 -8.1999999999999995e-01 -1.2235513690495196e+01 -8.4872997633883038e+00 3.7643187836416789e+00 0 0 0
611 204 2 4.0999999999999998e-01 -1.2691002216830892e+01 -9.3573953733506414e+00 3.5757379124004434e+00 0 0 0
683 228 2 4.0999999999999998e-01 -8.3617037876028526e+00 -1.1338482564047856e+01 3.7170459533240550e+00 -1 1 0
612 204 2 4.0999999999999998e-01 -1.2322953596691963e+01 -7.8862240285883214e+00 2.9698623342256969e+00 0 0 0
1371 457 2 4.0999999999999998e-01 -1.4147425301072854e+01 -1.0987371424267081e+01 3.3257516643978509e+00 2 -1 0
1369 457 1 -8.1999999999999995e-01 -1.3149716608174417e+01 -1.1055124887139382e+01 3.3164959254176640e+00 2 -1 0
976 326 1 -8.1999999999999995e-01 -1.1030825447730248e+01 -1.1520714029730087e+01 5.3706587635654568e+00 0 2 1
1370 457 2 4.0999999999999998e-01 -1.2857041672727682e+01 -1.1553843889040383e+01 2.5005795294686148e+00 2 -1 0
978 326 2 4.0999999999999998e-01 -1.0636882817249754e+01 -1.2338357291681225e+01 4.9506972037529611e+00 0 2 1
498 166 2 4.0999999999999998e-01 -1.0675478013642820e+01 -6.6633934429977550e+00 3.9740261817905296e+00 -1 0 1
1884 628 2 4.0999999999999998e-01 -8.3017568290126640e+00 -5.2440684030545341e+00 5.6329417018731984e+00 0 -1 -2
287 96 2 4.0999999999999998e-01 -4.4787073829451280e+00 -1.1372397714935840e+01 6.8736271817258423e+00 0 2 2
977 326 2 4.0999999999999998e-01 -1.1901951362163956e+01 -1.1305874839799340e+01 4.9289772073749187e+00 0 2 1
2503 835 1 -8.1999999999999995e-01 -9.6239034730345061e+00 -7.1607775470963704e+00 6.5024062779778191e-01 -1 1 1
47 16 2 4.0999999999999998e-01 -1.6453887638742692e-01 -1.4262219794479385e+01 2.0187391970145185e-02 -2 1 2
2472 824 2 4.0999999999999998e-01 -6.3927557134906827e+00 -1.3689041401154018e+01 6.9616027534289326e+00 -2 3 0
841 281 1 -8.1999999999999995e-01 -1.1632847597874203e+01 -1.2140273655488924e+01 1.1833357518114713e+00 -1 0 1
2447 816 2 4.0999999999999998e-01 -1.3321628098923869e+01 -5.6586510434402051e+00 5.6643863139707662e-01 0 1 0
1399 467 1 -8.1999999999999995e-01 -9.7215511324769572e+00 -1.0271966476105906e+01 2.3724096751780621e-01 1 -1 0
1952 651 2 4.0999999999999998e-01 -2.6780644023468447e-01 -1.4473883645416342e+01 4.7675524774329414e+00 -1 1 0
1784 595 2 4.0999999999999998e-01 -5.3588184733188289e+00 -9.2060469613504949e+00 4.9036903942323544e+00 0 2 1
1387 463 1 -8.1999999999999995e-01 -4.6496682572708359e-01 -9.6417009738533324e+00 5.6871183368668543e+00 -1 2 -2
273 91 2 4.0999999999999998e-01 -1.3008299615656449e+01 -8.1895754645423064e+00 5.3109728674029153e+00 -2 1 3
1589 530 2 4.0999999999999998e-01 -1.4297982145553505e+01 -1.3985488820045056e+01 3.7855126302709348e+00 1 0 0
2470 824 1 -8.1999999999999995e-01 -5.6499732646440961e+00 -1.3020717924883025e+01 7.0030380509062748e+00 -2 3 0
2576 859 2 4.0999999999999998e-01 -8.3356139463284862e+00 -7.8003854717048169e+00 1.8152494688348160e+00 -1 3 2
538 180 1 -8.1999999999999995e-01 -1.3930510079095210e+01 -7.2681888092219067e+00 1.5194593006946402e+00 -1 1 0
1401 467 2 4.0999999999999998e-01 -9.3689334779062765e+00 -1.0390042184498764e+01 1.1655824070379150e+00 1 -1 0
843 281 2 4.0999999999999998e-01 -1.1009519030255454e+01 -1.1548357314433197e+01 6.7226295828032079e-01 -1 0 1
2207 736 2 4.0999999999999998e-01 -2.3344815816197233e+00 -1.3011379238387910e+01 4.9361680408577335e-01 2 0 -1
539 180 2 4.0999999999999998e-01 -1.3857952284495628e+01 -6.3523154017559804e+00 1.9144404666922821e+00 -1 1 0