2593
Atoms. Timestep: 1000000
O 3.22325 -10.2712 14.5624
H 2.51139 -10.9074 14.8597
H 3.1375 -10.1109 13.579
O -11.8614 6.88445 -0.0356704
H -11.3688 6.05422 -0.2964
H -11.3295 7.38764 0.645398
O 3.60219 -6.7044 12.8833
H 4.22673 -7.48532 12.8924
H 3.97272 -5.9746 13.4578
O -5.20467 13.7385 -6.04725
H -5.20425 14.7306 -6.17254
H -5.24662 13.2899 -6.93994
O 14.7164 -1.01011 3.87901
H -14.9531 -1.6396 4.59927
H 13.7504 -1.16475 3.67199
O -12.5758 5.33858 -11.3893
H -13.0275 5.12099 -12.2545
H -11.6181 5.56873 -11.562
O -10.567 11.3477 -8.29402
H -11.0486 10.7567 -7.64692
H -9.58964 11.1372 -8.27396
O 10.831 -14.6016 0.799406
H 11.4045 14.5868 0.526873
H 11.3596 -13.7552 0.735552
O -3.12532 -11.7646 4.31565
H -2.91191 -10.9333 3.80241
H -2.2814 -12.1551 4.6834
O 8.54955 11.0066 -11.4979
H 8.53945 11.9507 -11.1685
H 9.23352 10.4835 -10.9894
O 4.76446 12.7136 -5.39782
H 5.44585 12.9676 -6.08423
H 4.30688 13.5368 -5.06182
O -11.4396 9.61338 -6.40583
H -11.4709 9.8939 -5.44651
H -12.08 8.85972 -6.5538
O 8.11008 -10.4705 -0.976478
H 8.77975 -10.5284 -0.236105
H 8.42027 -11.0226 -1.75037
O -8.2897 1.59527 -5.68396
H -8.49508 2.46525 -5.23574
H -7.9201 0.953309 -5.01221
O -10.762 -12.7404 -7.05857
H -10.3137 -13.4504 -7.6015
H -11.2254 -13.1603 -6.27824
O 1.08588 -14.924 -2.72534
H 0.221323 14.7734 -3.15319
H 1.07136 14.7804 -1.75895
O 2.93089 11.4444 -8.67448
H 2.92424 10.4735 -8.43502
H 3.87427 11.7751 -8.69931
O -6.31844 13.8987 -14.4796
H -5.8218 14.6895 -14.1218
H -6.24473 13.1387 -13.8339
O -7.32489 5.66031 6.12356
H -6.60118 5.92028 5.48432
H -7.83512 4.88474 5.7519
O -4.55093 -0.621196 14.7482
H -4.95994 -0.845687 -14.3282
H -5.12975 -0.975512 14.0138
O 11.8692 -9.30793 -0.492793
H 11.714 -8.65367 -1.23295
H 11.0042 -9.49625 -0.0276037
O 9.89961 -2.85308 1.35195
H 9.22411 -3.57506 1.50163
H 9.43916 -2.02904 1.02193
O -7.97656 -13.9257 7.49848
H -7.95908 -13.7713 8.48632
H -8.15699 -14.8921 7.31528
O 14.4279 2.22618 1.72019
H 14.0638 1.6065 2.41547
H -14.933 2.89828 2.15405
O -4.97309 1.97042 5.34454
H -5.08562 2.64191 4.61214
H -5.13336 1.0522 4.98239
O -3.50398 -11.9535 -8.7945
H -3.4794 -12.886 -9.1548
H -2.90023 -11.3703 -9.33784
O -11.6745 -7.80368 11.7679
H -11.8879 -8.02749 12.7189
H -11.8499 -8.60101 11.1904
O -9.6627 6.89969 5.3282
H -9.08701 7.45689 4.72982
H -9.1114 6.54065 6.08127
O -7.30925 6.06371 -5.63
H -6.88932 6.11998 -6.5358
H -8.04879 6.73348 -5.56329
O 0.697306 10.7536 -4.90554
H 1.21123 11.018 -4.08949
H 0.888175 11.4006 -5.64378
O 5.46694 -9.91688 -1.08614
H 6.39327 -10.1494 -0.789793
H 4.81446 -10.5477 -0.666234
O -10.2146 14.4997 -7.63671
H -9.839 14.4357 -6.71218
H -10.5071 13.5932 -7.94113
O 7.85724 11.7549 -14.0462
H 6.87198 11.9251 -14.0623
H 8.08615 11.197 -13.2485
O -4.8887 -8.94768 -3.87736
H -4.31061 -9.61438 -3.40695
H -4.65327 -8.92922 -4.84906
O -1.56509 -11.6531 -14.4273
H -1.96108 -11.1689 -13.6471
H -0.881335 -12.3063 -14.1021
O 11.7092 13.8585 -7.62201
H 12.6386 13.6733 -7.94131
H 11.1319 13.0607 -7.79577
O -8.83174 0.738623 4.79228
H -8.20473 -0.017088 4.60325
H -8.74604 1.01105 5.75061
O -13.5208 9.49111 3.73821
H -13.2923 8.77105 3.08303
H -12.9129 9.42681 4.5296
O -7.79182 9.80561 -13.9798
H -7.61566 10.0594 -14.9309
H -8.31193 10.5327 -13.5317
O 0.651631 -0.819948 -6.06567
H 0.972074 -1.23905 -5.21619
H 0.600677 -1.51574 -6.78209
O 1.35265 -0.374636 -10.3004
H 0.861976 -0.843905 -9.56625
H 1.60529 0.544457 -9.99808
O 5.93062 5.55859 14.24
H 6.49456 6.07862 13.5985
H 5.01906 5.42612 13.8508
O 13.3463 -13.9477 -14.4329
H 13.6053 -13.1968 -13.8253
H 14.0585 -14.0792 14.8385
O 3.25341 12.4732 7.62729
H 2.95322 13.427 7.6172
H 3.12034 12.0723 6.72091
O 8.60495 4.02397 9.06134
H 9.0314 3.1692 9.35709
H 7.64122 4.02541 9.32818
O -2.67016 8.99749 -11.5544
H -3.03862 9.00631 -12.484
H -2.27194 9.89059 -11.3452
O 12.8398 10.6142 -6.25982
H 12.2329 10.9654 -6.97274
H 12.2996 10.3595 -5.45784
O 0.951816 1.73987 9.25687
H 0.452527 1.02979 9.75332
H 1.71849 1.32665 8.76553
O -11.5017 5.17275 6.22665
H -12.3703 5.61764 6.00825
H -10.7621 5.84407 6.17902
O 11.1407 1.84574 -12.0395
H 12.0046 2.34662 -12.0926
H 11.0077 1.50857 -11.1076
O -1.71403 5.08392 -14.3831
H -0.823263 4.7903 -14.0363
H -1.64449 5.27307 14.5984
O 8.9505 9.63154 11.9552
H 8.46436 9.905 11.1252
H 9.56324 8.86926 11.7467
O 3.76307 2.00207 -4.14351
H 3.35977 1.56111 -3.34172
H 3.47107 1.52149 -4.97039
O 9.88389 11.7792 -7.74138
H 9.72389 11.6327 -6.76522
H 9.39824 11.081 -8.26724
O -12.6048 -10.1001 -9.97773
H -12.5526 -11.0317 -10.3373
H -12.9881 -9.49462 -10.6752
O -5.71484 -10.5842 -7.83602
H -5.04711 -11.0847 -8.38704
H -5.23562 -9.99992 -7.18113
O 13.1186 6.99919 13.5157
H 14.0246 6.57856 13.5617
H 12.9071 7.23221 12.5665
O -0.733004 0.00259636 10.4795
H -1.57831 -0.233233 10.9589
H -0.111827 -0.780916 10.4941
O -1.55959 0.542482 -5.34782
H -0.654273 0.171347 -5.55425
H -1.68356 1.40803 -5.83303
O -10.2598 -3.69863 -8.2671
H -9.27431 -3.79226 -8.40837
H -10.443 -3.52726 -7.29909
O -2.55552 -3.4848 -14.5896
H -1.85592 -3.06897 14.7903
H -3.44894 -3.39943 14.9303
O -13.5057 14.1594 -0.798307
H -13.6437 13.2104 -0.514976
H -12.5517 14.4174 -0.645518
O 9.24429 -4.56188 12.8207
H 8.92335 -5.2014 12.1222
H 10.2161 -4.37361 12.679
O -1.04111 7.49187 5.23347
H -0.320343 6.95837 4.79092
H -1.39725 8.16932 4.58989
O 13.7054 10.5943 -14.7774
H 13.114 10.5146 14.3811
H 13.4464 11.4046 -14.2517
O 10.8079 5.67747 -0.529469
H 10.4984 6.34399 0.14869
H 11.6758 5.27886 -0.233033
O 6.75208 -12.8331 -4.57416
H 6.83931 -11.8375 -4.54051
H 6.23806 -13.1498 -3.777
O 13.0544 11.8795 -2.0792
H 12.415 11.2365 -2.50084
H 13.8838 11.393 -1.80469
O 6.26864 7.72938 0.303851
H 6.64919 6.93169 0.771647
H 5.83246 7.43955 -0.548038
O 5.67656 3.6903 -9.01678
H 5.27851 4.34849 -8.37779
H 5.9619 4.16486 -9.84945
O 10.6112 3.87532 4.92645
H 11.1444 4.72022 4.96895
H 9.73532 4.01026 5.38973
O 4.35378 -9.90434 -11.5431
H 5.02817 -10.2185 -10.8749
H 3.61903 -10.5786 -11.6173
O 8.87772 -13.658 10.0557
H 8.66129 -12.841 9.5213
H 9.35246 -13.3916 10.8945
O 2.76226 9.80769 8.83457
H 3.54783 9.36336 9.26517
H 3.02994 10.7139 8.50729
O -1.13767 1.86936 13.1294
H -0.833342 2.79592 13.3504
H -0.747086 1.59058 12.2521
O -3.01758 -4.96889 5.26811
H -3.61807 -5.42453 5.9252
H -2.92455 -5.53807 4.4512
O -5.94003 -11.9581 3.91452
H -6.32065 -11.7397 4.81307
H -4.94268 -11.8952 3.95078
O -4.48589 9.22649 -9.165
H -3.61153 9.56367 -8.81605
H -4.32194 8.60881 -9.93412
O -13.603 4.3236 1.25211
H -12.6399 4.10895 1.41411
H -13.859 4.03216 0.330423
O -12.3982 -9.05864 14.0855
H -13.2615 -8.86497 14.5516
H -11.878 -9.73027 14.6129
O -11.1532 10.6107 9.25316
H -11.5003 10.5976 10.1909
H -10.6231 9.78017 9.08229
O 0.175233 -0.992339 -13.037
H -0.479901 -0.32006 -13.3817
H 0.105054 -1.04581 -12.0409
O 12.6558 7.50317 2.17389
H 12.8833 8.40482 2.54159
H 11.6656 7.43277 2.05286
O -9.32746 -5.78148 -12.5766
H -8.94499 -5.19678 -11.8612
H -8.67339 -5.85871 -13.329
O -14.5893 5.34618 13.526
H -14.6223 4.68902 12.773
H -13.7477 5.88264 13.4635
O -13.3761 4.1457 -2.05096
H -13.7489 3.26222 -1.76737
H -12.3882 4.06377 -2.18277
O 5.5659 -14.7663 1.71208
H 6.19885 -14.6288 2.47394
H 5.58773 14.2356 1.42955
O -2.3103 14.6551 -7.95153
H -3.1059 14.8889 -8.51036
H -2.04587 -14.5145 -7.4004
O -0.26679 12.8565 7.99794
H -0.129357 12.2169 8.75422
H 0.040081 12.4348 7.14476
O -4.95945 -7.34453 -14.7588
H -4.92092 -8.04371 14.4883
H -5.68368 -7.57226 -14.108
O -11.6607 -7.99428 6.83858
H -12.1454 -8.44258 6.08754
H -11.0153 -7.32665 6.46739
O 8.29828 -6.52923 -10.4902
H 7.53236 -6.72512 -11.1025
H 8.82362 -5.75803 -10.8497
O 1.3749 8.90013 5.70611
H 0.519763 8.49098 6.02438
H 2.13847 8.29582 5.93357
O 10.4539 3.02129 2.43198
H 10.4767 3.30734 3.3899
H 10.8033 2.08755 2.35454
O -4.88052 -14.3433 12.328
H -4.13194 -14.0749 12.9343
H -5.65377 -13.7228 12.4583
O -4.57285 -14.7662 4.81065
H -5.04469 -14.1158 5.40595
H -5.11808 14.3604 4.73014
O -14.2246 -1.49003 13.088
H -14.9087 -1.67238 13.7943
H -14.4766 -0.662949 12.5856
O -6.86021 -13.9084 -10.8452
H -7.08091 -12.965 -11.0924
H -7.58875 -14.5153 -11.1628
O 12.439 -1.40861 -4.15013
H 13.4269 -1.2685 -4.0839
H 12.0734 -1.63604 -3.24761
O -9.32218 8.16909 13.9033
H -10.1754 7.83398 14.3029
H -8.78576 8.63605 14.6063
O -12.2559 6.5485 11.418
H -12.1646 5.5559 11.4978
H -11.3553 6.95471 11.2636
O 4.6588 5.38741 -7.05985
H 4.78967 6.29346 -7.46223
H 5.1776 5.32319 -6.20739
O 3.70563 -12.0284 0.0716276
H 3.0314 -12.5828 0.559494
H 4.60731 -12.1619 0.482862
O -6.46575 -0.575079 7.27845
H -7.06634 0.216106 7.1632
H -5.69298 -0.324779 7.86167
O 9.93119 -5.2734 -3.66899
H 10.2696 -4.66801 -4.38938
H 8.94879 -5.13106 -3.54821
O -14.2886 -10.3242 -0.890477
H -14.3171 -9.33093 -1.00254
H -13.7864 -10.7314 -1.65334
O 11.594 -13.3912 -1.98347
H 12.0568 -14.2776 -1.9755
H 12.1316 -12.7297 -1.46056
O -14.4758 3.08076 11.9354
H -14.1593 3.06358 10.9869
H -14.9778 2.23918 12.1345
O 8.71969 3.21112 -12.3088
H 7.94452 2.62778 -12.5512
H 9.4952 2.64006 -12.0396
O -3.61546 -6.50134 -10.8735
H -3.37023 -6.50312 -11.8429
H -3.16337 -5.73521 -10.4167
O -5.11025 -12.8902 6.61624
H -5.60807 -12.0826 6.93245
H -4.17435 -12.6321 6.37653
O -5.30037 8.66603 -3.23393
H -4.44323 9.16397 -3.36559
H -6.03053 9.31222 -3.01196
O -3.74376 -14.3216 -1.97342
H -4.49393 -14.2145 -2.62592
H -3.85108 -13.6605 -1.23081
O 7.43215 -5.9322 10.889
H 7.42673 -6.53284 10.0895
H 6.51401 -5.56409 11.0356
O -7.20061 12.3067 8.67263
H -7.8166 11.8009 8.0687
H -6.76847 13.0496 8.16153
O 0.625326 4.09293 -4.44091
H 1.43257 3.98875 -5.02184
H -0.0606911 3.41246 -4.69842
O -10.7326 11.4456 3.61872
H -11.3635 11.5163 2.8461
H -10.1109 12.2288 3.61413
O 14.4728 11.6951 1.74119
H 13.9969 11.0273 2.31349
H 14.5822 12.5503 2.2477
O -8.29604 -1.21165 -1.69426
H -9.12009 -0.667396 -1.53711
H -8.52011 -2.18366 -1.62377
O -4.29177 -3.55898 -2.35887
H -3.79255 -3.89817 -3.15617
H -4.19732 -2.56495 -2.30459
O 5.15734 7.16338 -2.08629
H 5.0283 6.22543 -2.40809
H 4.31952 7.68699 -2.24076
O -8.5717 1.36102 7.43303
H -9.47129 1.79661 7.40166
H -7.92271 1.96909 7.89022
O 9.98288 4.49927 13.9583
H 10.5289 3.93772 14.58
H 10.1859 5.46553 14.1167
O 7.40112 0.744412 -2.12159
H 6.9944 1.54372 -1.67926
H 7.08638 0.691711 -3.06929
O 3.60383 13.0459 -12.1154
H 3.92348 12.2142 -11.6615
H 3.87397 13.8442 -11.5772
O -5.12069 11.7711 -8.1749
H -4.85472 12.0873 -9.08553
H -5.11133 10.7714 -8.15326
O -7.19541 10.7438 13.164
H -8.1128 10.9282 12.8113
H -6.55332 11.4119 12.7881
O -10.4891 -2.51771 -5.37773
H -10.9836 -2.19567 -4.57038
H -9.61058 -2.04437 -5.44134
O 0.311934 10.6903 10.335
H 0.616073 10.3699 11.2321
H 0.976703 10.416 9.64011
O -13.8178 12.5773 -5.7959
H -13.3907 13.033 -5.01496
H -14.0216 11.6278 -5.55721
O 13.9055 1.24302 -5.51418
H 13.3882 1.92137 -4.99243
H 14.6587 1.69417 -5.99274
O -14.6733 -9.44343 7.23674
H -14.6701 -10.3167 6.74957
H -14.5781 -8.69517 6.58024
O 2.44287 9.83183 -14.0392
H 2.1161 9.03269 -13.5346
H 3.35303 10.0842 -13.7107
O 7.35493 2.15513 -7.45776
H 7.97906 2.87908 -7.16396
H 6.82236 2.47232 -8.24245
O 0.137805 -12.7195 -10.4588
H -0.0821559 -13.474 -11.0771
H 0.114436 -13.0455 -9.51368
O -3.8256 -8.81691 -6.48233
H -3.99846 -8.78111 -7.46661
H -2.93583 -8.4054 -6.28499
O 13.2672 -7.48151 1.0768
H 12.6547 -7.98714 0.469259
H 13.2038 -6.504 0.87575
O 7.68262 0.790749 -12.775
H 7.94819 0.723241 -13.7367
H 8.10927 0.0483523 -12.2585
O -9.26828 7.61058 -6.15343
H -10.0376 8.24927 -6.16908
H -8.89581 7.51474 -7.07649
O 11.8711 4.77035 -9.44185
H 12.5709 5.26733 -9.95502
H 11.4984 4.03721 -10.0106
O 2.59972 -8.20806 -2.73743
H 2.49827 -9.14469 -2.40217
H 2.93767 -7.62451 -1.99904
O 2.12037 -5.16752 4.4918
H 1.25724 -5.50574 4.11686
H 2.22679 -5.49457 5.43078
O -8.56831 11.011 -4.48161
H -9.04971 11.2601 -5.32195
H -7.58255 11.1025 -4.62255
O 7.31638 9.90011 -1.11228
H 6.85863 9.37512 -0.394775
H 7.60769 9.28254 -1.84283
O -4.32831 -14.5565 -9.68411
H -5.19342 -14.27 -10.0958
H -4.17112 14.4363 -9.87867
O 12.4745 -11.8793 7.75873
H 12.801 -12.5648 8.40946
H 12.5876 -10.9666 8.15125
O 11.3373 14.8869 11.0159
H 11.1163 -14.1014 11.0868
H 11.4905 14.5124 11.9303
O 7.45842 -3.35743 -10.1655
H 6.9904 -3.73474 -10.9646
H 7.23559 -3.90532 -9.35922
O -2.96142 -11.6725 -5.46438
H -3.63551 -11.0806 -5.90622
H -2.86954 -11.4133 -4.50296
O 10.4462 0.375209 -3.75791
H 9.5869 -0.0945679 -3.96013
H 11.213 -0.177077 -4.08499
O 5.36804 2.77658 7.11541
H 6.23527 2.63984 6.63668
H 5.53144 3.28001 7.96383
O 10.1048 13.5497 8.44656
H 9.85573 14.1892 7.71925
H 10.1394 14.0353 9.32
O 12.6853 -8.43074 5.92011
H 13.1569 -8.72179 6.75245
H 11.7886 -8.87097 5.87384
O -8.08924 5.67603 13.121
H -7.15125 6.01448 13.0462
H -8.71454 6.44857 13.2312
O -6.27534 -9.03812 12.9595
H -6.71632 -9.29447 12.0994
H -5.79845 -9.831 13.3388
O -7.13588 -4.21699 -3.54324
H -8.07172 -4.20385 -3.19111
H -6.49954 -3.98603 -2.80724
O -9.52958 -13.0345 -13.8672
H -9.24905 -13.7114 -14.5477
H -10.0798 -13.48 -13.161
O 13.5128 -4.48301 8.83769
H 14.3803 -4.8412 8.49239
H 13.6861 -3.67329 9.39831
O 6.05906 8.48262 -11.5094
H 5.68338 7.84147 -12.1785
H 7.02037 8.26416 -11.3417
O -14.0496 13.3071 -11.4469
H -13.9505 12.5802 -12.1265
H 14.9402 13.4727 -11.2753
O 4.74208 -4.28149 2.97028
H 4.11794 -4.97304 3.33383
H 4.55165 -3.40025 3.40286
O -9.85615 7.43175 10.835
H -9.21292 8.09122 11.224
H -9.4364 6.9819 10.0468
O -11.209 -14.4503 -12.4837
H -11.3728 14.979 -11.6527
H -11.7468 -14.8323 -13.2352
O -11.9956 10.2291 11.6706
H -12.8748 10.6085 11.3824
H -12.1507 9.48157 12.3164
O -3.99171 -6.19093 7.71106
H -3.28682 -5.94013 8.37453
H -4.79036 -6.55089 8.19328
O -9.57343 -6.81827 5.45588
H -9.43682 -6.40173 4.55711
H -8.75411 -6.68433 6.01333
O 14.8408 11.4504 8.69395
H -14.5407 11.5318 7.88305
H 13.9316 11.8145 8.49183
O 1.39667 4.04308 4.89594
H 1.13827 4.36005 5.80848
H 1.14492 4.73482 4.21912
O 4.52229 -6.0252 6.79427
H 5.01607 -6.21732 5.94619
H 4.14291 -6.8755 7.159
O 0.729106 -5.69146 -11.42
H 1.20816 -5.8936 -12.2742
H -0.0263864 -5.06224 -11.6025
O 5.48542 14.4353 5.77751
H 4.8963 14 5.09677
H 5.27632 -14.5489 5.82343
O 8.89253 -8.74934 3.3298
H 9.36702 -7.90939 3.06655
H 7.95886 -8.73079 2.97219
O 9.44008 -13.6195 -5.48499
H 8.62034 -13.6108 -4.91236
H 10.0576 -14.341 -5.17207
O 2.58505 1.02519 -6.42642
H 1.86796 0.438541 -6.05014
H 2.63279 0.89942 -7.41731
O 7.44077 10.3377 9.52243
H 8.35284 10.609 9.21506
H 6.83113 11.1299 9.49715
O -3.60764 8.40497 8.40184
H -4.05115 8.91049 9.14192
H -4.08536 7.53849 8.25705
O -14.3941 -13.5599 9.61361
H -13.8565 -14.1818 10.183
H 14.6774 -13.9726 9.41739
O -8.04073 8.29785 3.69991
H -7.319 7.66005 3.43105
H -7.63104 9.16608 3.97971
O 1.49848 -5.7388 -3.76412
H 1.95386 -6.56523 -3.43307
H 1.32863 -5.12141 -2.99604
O -11.8921 -4.02973 4.41823
H -11.8717 -4.25675 3.44457
H -12.742 -4.36853 4.82176
O 12.0834 -6.03966 -9.80794
H 11.6297 -6.36056 -8.97662
H 12.806 -5.39258 -9.5647
O 9.43813 -14.6776 3.65805
H 9.56727 14.9508 2.72385
H 9.89586 14.666 4.29783
O 6.8286 5.89491 4.96783
H 6.86031 4.92842 5.2225
H 5.94609 6.2814 5.23573
O -13.9861 -4.84654 13.0308
H -13.246 -4.4583 13.58
H -14.0074 -4.39951 12.1366
O -10.9181 3.07974 1.264
H -11.574 2.32614 1.30648
H -10.2175 2.87368 0.580893
O -1.00362 14.8293 13.9695
H -0.710871 13.9777 13.5347
H -0.389683 -14.3905 13.6978
O 8.73633 -3.97941 8.7272
H 8.72393 -4.0156 9.72645
H 7.80671 -4.09669 8.37787
O 0.958934 4.87948 7.80653
H 0.31663 5.59379 7.52872
H 0.455015 4.04212 8.01832
O -4.35939 -12.3438 -0.191053
H -4.65523 -12.802 0.647105
H -4.71439 -11.4091 -0.203014
O -12.6556 -3.2829 -12.1096
H -12.815 -2.386 -12.5221
H -12.2654 -3.89959 -12.7933
O 2.49243 -3.7723 -1.80651
H 2.86279 -2.93925 -1.39563
H 2.63596 -4.54263 -1.18526
O 6.96005 9.50467 2.39679
H 6.69076 8.89249 1.65336
H 6.21391 9.57312 3.05902
O 7.09186 -1.73039 14.3578
H 7.21715 -0.759762 14.1525
H 7.97711 -2.14243 14.5735
O 13.7183 6.0657 -3.02357
H 14.3254 6.29131 -2.26165
H 12.892 6.62627 -2.96866
O 11.8479 1.00949 -7.89939
H 12.0691 0.237816 -8.49566
H 11.4491 0.669118 -7.04787
O 4.7996 -14.9554 -10.6669
H 4.69541 -14.3141 -9.90674
H 5.59604 -14.6975 -11.2138
O 5.54863 -9.32662 5.01208
H 5.18091 -9.05811 4.12177
H 6.0242 -10.2021 4.926
O -1.12634 8.85619 -5.57036
H -0.803403 7.93607 -5.79182
H -0.377605 9.38503 -5.17074
O -11.7405 7.65277 -14.726
H -12.676 7.92135 -14.9555
H -11.6537 6.65866 -14.7906
O -7.38864 -11.4406 6.41856
H -7.47205 -12.4367 6.44703
H -8.29185 -11.0271 6.53328
O -12.3281 7.8602 8.25042
H -11.7325 7.05896 8.30745
H -12.1354 8.47388 9.0161
O 3.29787 6.05813 7.80574
H 2.48978 5.46942 7.7862
H 3.78668 5.92471 8.66784
O -1.82181 -3.87335 -6.83317
H -1.41289 -4.56834 -6.24178
H -2.34476 -3.22784 -6.27657
O -12.4602 -10.2349 4.23804
H -11.642 -10.7988 4.35042
H -12.4381 -9.79021 3.34265
O 13.7626 12.721 12.6291
H 13.4277 13.4498 13.2263
H 13.0313 12.0575 12.4707
O -6.91439 3.10117 -2.32535
H -6.1747 2.45556 -2.13556
H -6.56772 4.03625 -2.25172
O 1.71173 -10.1306 4.22651
H 1.70468 -9.96192 3.24088
H 2.07392 -11.0453 4.40554
O 10.1845 -9.57475 5.69433
H 10.2121 -10.5665 5.81967
H 9.67641 -9.35819 4.86069
O 12.897 -14.679 5.09867
H 13.2158 -14.3465 5.98627
H 13.3507 -14.1678 4.36874
O 1.33165 12.5141 -10.5352
H 1.92782 12.7871 -11.2902
H 1.88318 12.1159 -9.80223
O 13.2011 5.11589 9.0423
H 13.1616 4.57929 8.1994
H 12.273 5.34794 9.33348
O -4.17418 1.7404 -9.99409
H -4.44786 1.22266 -9.18352
H -4.80519 1.54314 -10.7443
O 9.27994 -5.98079 -14.2694
H 9.44881 -5.46887 14.8494
H 8.66456 -6.74519 -14.4616
O 5.20756 -12.0411 14.3977
H 5.5824 -11.9492 13.4752
H 4.42918 -11.4224 14.5044
O 7.25794 -7.66072 8.77287
H 6.84465 -6.91768 8.24652
H 8.02935 -8.04141 8.26299
O -14.9712 -1.89121 -3.39232
H -14.1364 -2.19012 -3.85448
H 14.6972 -2.59463 -2.74454
O 6.01178 -10.1698 -3.67243
H 5.53729 -9.38605 -4.07303
H 5.85168 -10.1876 -2.68551
O -14.8039 10.7772 -0.737852
H 14.9609 11.2291 0.132349
H -13.8157 10.7617 -0.890022
O 12.0594 0.886627 7.19205
H 11.3755 0.204632 6.93288
H 12.605 1.13257 6.39098
O -11.0931 -6.93365 0.460236
H -10.5347 -7.6173 0.93014
H -11.0762 -7.10896 -0.524116
O -3.80703 -6.1871 -1.39343
H -4.06279 -5.49899 -2.07244
H -2.83715 -6.40931 -1.49308
O 2.11048 -2.08882 8.62641
H 2.03121 -2.33646 7.66082
H 2.20903 -1.09715 8.70916
O -12.2593 -3.03967 14.39
H -11.6645 -2.66623 -14.8591
H -12.9202 -2.34382 14.109
O -5.58518 9.37414 10.7545
H -6.50377 9.73335 10.9192
H -4.9616 10.1309 10.5584
O 7.32862 -0.564071 7.84171
H 8.30019 -0.448871 8.04848
H 6.78515 -0.309723 8.64165
O -7.20057 -4.90245 -11.2519
H -6.5294 -4.4964 -11.872
H -6.87888 -5.80151 -10.9549
O -12.4264 10.5037 -3.55661
H -12.0397 9.62352 -3.28137
H -13.3279 10.3587 -3.96432
O -9.61252 -12.2376 4.6682
H -10.0522 -13.0783 4.98411
H -9.71839 -11.5251 5.36184
O 8.14685 -9.95237 -5.93839
H 8.49892 -9.01946 -5.86294
H 7.18069 -9.96585 -5.68088
O 4.20143 10.1777 -5.04904
H 4.29623 11.1654 -5.17331
H 3.2708 9.89964 -5.28689
O -11.1802 -6.25125 -8.45926
H -10.8431 -6.85216 -9.18397
H -10.714 -5.36834 -8.51453
O -1.35399 5.04611 -10.4372
H -2.0037 4.61556 -9.81075
H -1.04933 4.37587 -11.1139
O -1.74875 -4.72475 12.1891
H -1.29825 -4.00255 12.7139
H -1.57931 -5.60867 12.6249
O 3.52338 5.54626 13.1507
H 3.31017 4.57847 13.2845
H 2.91806 6.10269 13.7199
O -0.746219 -4.43683 6.83933
H -0.0683587 -3.89096 6.3469
H -1.56605 -4.53778 6.27573
O -11.7425 -4.27423 -1.7787
H -12.2488 -3.81402 -1.0494
H -12.3866 -4.70018 -2.41403
O 13.0697 -0.463341 -0.468794
H 12.5308 -1.26501 -0.727393
H 12.6572 0.357268 -0.864317
O -6.9182 -13.0512 -7.95701
H -6.70612 -13.0783 -8.93387
H -6.98087 -12.0998 -7.65575
O 10.2742 9.49259 -10.1107
H 10.184 8.82719 -9.3697
H 11.2197 9.8151 -10.1557
O 6.55097 5.45301 -5.09053
H 6.8719 6.38099 -4.90129
H 7.30708 4.90543 -5.4489
O 12.1273 10.533 12.4994
H 11.2292 10.6589 12.9207
H 12.1806 9.62012 12.0946
O -8.77552 12.0208 -12.5204
H -8.5173 11.4593 -11.7342
H -8.9628 12.9547 -12.2158
O 10.2919 12.4344 2.88526
H 9.90448 11.5242 3.03185
H 10.7436 12.4647 1.99363
O -2.45658 -10.58 -2.84378
H -1.72177 -11.1832 -2.5336
H -2.90395 -10.1651 -2.05156
O 9.40542 0.515352 11.3343
H 10.0671 1.25789 11.4378
H 9.46355 0.143897 10.4077
O -14.621 -14.1741 13.6866
H -14.4633 -13.191 13.5939
H -14.0594 -14.6659 13.0212
O 11.7567 12.6907 0.516922
H 11.2639 12.1137 -0.134387
H 12.6963 12.3612 0.609522
O 2.16843 1.3268 5.43679
H 1.47404 0.657777 5.17184
H 1.82219 2.25012 5.27074
O 9.92337 -10.6155 1.52961
H 9.32129 -10.1472 2.17629
H 10.5061 -11.2605 2.02387
O -11.6556 -1.70123 -3.14215
H -11.5548 -2.41157 -2.44557
H -11.6161 -0.801073 -2.70841
O 7.717 10.175 -8.88569
H 7.87744 9.93818 -9.84389
H 7.03069 10.9003 -8.832
O -6.96585 -2.42072 -6.06807
H -6.71817 -3.10702 -5.38425
H -7.32669 -2.87617 -6.8819
O 6.3203 -2.79925 -0.614927
H 5.53006 -2.18654 -0.623816
H 7.09474 -2.33812 -0.181848
O -12.1747 1.27065 12.6015
H -13.0946 1.21313 12.2137
H -11.5328 0.781572 12.0109
O -3.58003 -8.67733 -9.11942
H -3.05272 -9.47922 -9.40028
H -3.53652 -7.98187 -9.83664
O -13.1811 -13.9285 -8.52763
H -12.2415 -13.8059 -8.20835
H -13.2729 -14.8273 -8.95631
O -6.225 3.16842 11.6948
H -5.45314 2.80882 12.2191
H -7.08047 2.82821 12.0852
O -12.2906 -1.89254 -9.70224
H -11.8657 -2.38295 -8.94136
H -12.4892 -2.53426 -10.443
O -10.9679 -3.15041 11.9488
H -11.4222 -3.48501 12.7744
H -11.637 -2.6952 11.3614
O 7.01617 12.6856 7.51896
H 7.62166 12.325 6.80951
H 6.30132 13.2423 7.09573
O -6.53227 13.1887 4.35478
H -7.5202 13.2845 4.47644
H -6.33592 12.3261 3.88863
O 6.20271 -5.15779 -4.90058
H 6.73772 -4.82905 -4.12234
H 5.28887 -5.41945 -4.5901
O -14.3075 0.818038 -3.4161
H -14.6414 -0.124216 -3.44139
H -14.8785 1.38992 -4.00503
O -3.96677 -10.526 8.99484
H -3.32246 -9.78954 9.20073
H -3.72649 -11.3376 9.52732
O 3.18807 3.53182 -12.0156
H 3.90697 2.86778 -12.2211
H 2.68824 3.75177 -12.8533
O 3.7795 -1.58478 -0.339326
H 3.80406 -1.12325 -1.22609
H 3.66307 -0.906617 0.386276
O 5.24285 -0.815217 -10.0199
H 4.87568 0.0266578 -9.62446
H 4.60529 -1.16731 -10.7051
O 12.1749 -3.07079 -12.2386
H 12.6613 -3.65666 -12.8867
H 11.2595 -3.43987 -12.0776
O 8.24312 -0.829907 -4.94743
H 8.81558 -1.09275 -5.72407
H 7.71478 -0.0144309 -5.18369
O -13.6385 -6.75712 2.61485
H -14.3588 -6.08582 2.7892
H -12.7635 -6.28586 2.50368
O 11.9844 -3.4565 2.77839
H 11.8545 -2.9776 3.64659
H 11.2061 -3.27426 2.17755
O 10.9198 -3.61835 -8.3431
H 10.3105 -4.03796 -9.01582
H 11.7681 -3.33693 -8.79161
O 9.93475 -1.24125 -7.16235
H 9.2752 -0.847821 -7.8028
H 10.3356 -2.06589 -7.56136
O 3.75557 1.71204 -9.16032
H 4.50619 2.37151 -9.2009
H 2.93015 2.12228 -9.54807
O 10.661 3.40709 11.5086
H 10.244 3.81407 12.3213
H 10.9945 4.13239 10.9064
O -12.8925 -12.1816 -12.2461
H -12.4077 -13.0561 -12.2571
H -13.8785 -12.3473 -12.2261
O -2.27131 11.8198 -13.2425
H -1.50752 11.5903 -12.6392
H -2.469 12.7975 -13.1727
O -6.13118 -0.850671 -0.0308529
H -6.81957 -1.06569 -0.723564
H -5.71879 -1.69808 0.303519
O -1.71918 11.9262 3.19493
H -1.80707 12.5925 3.93542
H -2.16533 11.0717 3.46075
O 0.010818 -7.65844 -9.1321
H 0.648461 -8.32313 -9.52141
H 0.0546852 -6.80794 -9.65621
O -11.982 -11.8522 0.79332
H -11.1816 -12.0418 0.22466
H -12.8014 -11.8351 0.220413
O -13.5648 4.67952 -8.82672
H -13.3946 5.08573 -9.72448
H -13.3763 5.35515 -8.11401
O 3.11353 -14.9703 -4.61663
H 2.33549 -14.9412 -3.98912
H 2.95683 -14.3335 -5.37158
O -1.43019 11.8226 -10.4256
H -1.50994 11.3621 -9.54153
H -0.541286 12.2767 -10.4859
O 0.761972 -8.9956 9.76742
H 0.851999 -9.16128 8.78537
H 1.19635 -8.12539 9.99982
O -5.80387 11.5919 -1.90198
H -4.86601 11.5197 -1.56259
H -6.39805 10.9881 -1.37058
O -4.27357 4.04302 -4.33123
H -4.44953 4.14791 -5.31
H -4.80197 4.72295 -3.82284
O -0.478761 3.20492 -12.2848
H 0.412736 3.05386 -12.7119
H -0.905858 2.3233 -12.0841
O 13.5434 -9.82607 2.28164
H 12.6763 -9.68744 2.75992
H 13.7414 -9.02814 1.71236
O -14.0808 -7.16084 -0.376227
H -13.1433 -7.42773 -0.153105
H -14.6533 -7.24084 0.439758
O 2.25614 6.76924 -14.7949
H 2.22632 7.02841 -13.8296
H 2.11271 7.58008 14.5986
O 5.45502 -10.033 12.1584
H 4.50443 -10.0648 11.8496
H 5.88256 -10.9253 12.0134
O 1.58408 13.3493 -6.97192
H 2.1701 13.5656 -6.19106
H 2.15228 13.0997 -7.75605
O 12.8786 10.1507 -10.8568
H 13.672 10.3427 -10.2792
H 13.0327 9.30258 -11.3637
O -6.67237 14.5596 0.150305
H -6.38013 14.6925 -0.796747
H -6.27569 -14.6856 0.725069
O 6.30597 -9.58785 2.10639
H 5.88349 -9.06899 1.36325
H 6.60188 -10.4796 1.76406
O -8.32402 -2.86448 11.9383
H -9.28237 -3.12405 11.8194
H -7.773 -3.68484 12.0911
O 8.01557 -2.33783 11.6648
H 8.18414 -3.13533 12.244
H 8.60576 -1.58449 11.9548
O -3.48091 1.31959 -3.17605
H -2.79112 0.949898 -3.79853
H -3.75183 2.23202 -3.48271
O 14.5365 -11.3739 -4.89341
H 13.9191 -11.19 -5.65827
H 14.4894 -12.3434 -4.65279
O 1.75532 -10.7731 -2.0112
H 0.877283 -11.2516 -2.01091
H 2.168 -10.8332 -1.10233
O 6.04515 2.79226 -1.12596
H 6.76806 3.16924 -0.546937
H 5.43832 3.52918 -1.42373
O -11.3422 2.58841 -10.0593
H -11.9204 2.13507 -9.38097
H -11.8888 3.24683 -10.5766
O -8.83934 -4.25254 9.07885
H -7.86005 -4.35162 8.90238
H -9.11644 -4.89688 9.79159
O -11.7954 -7.27741 -5.8988
H -10.9014 -7.61511 -5.6044
H -11.7296 -6.93215 -6.83497
O -7.98788 11.1117 -7.62063
H -7.58158 10.2742 -7.25527
H -7.31253 11.8487 -7.5945
O 14.4575 13.2178 -7.91166
H 14.4358 12.4946 -8.60192
H -14.8475 12.9764 -7.19649
O -9.74077 5.43589 -12.308
H -9.77054 4.61395 -12.8767
H -8.79963 5.76939 -12.2532
O -0.851008 -5.78402 -5.11294
H -0.929298 -6.47934 -5.82734
H 0.0491543 -5.84855 -4.68224
O -8.53813 -13.2015 2.21166
H -8.72111 -12.5992 2.9886
H -7.6492 -13.6428 2.33418
O -2.06144 -1.14239 7.70911
H -2.83354 -1.66795 8.06632
H -1.56727 -0.718365 8.46803
O -11.3959 -9.2954 9.35297
H -11.4412 -8.9088 8.43185
H -12.2635 -9.74267 9.5698
O 5.85098 -1.01086 10.2122
H 5.09311 -1.64219 10.0478
H 6.57286 -1.48155 10.7195
O -5.3019 4.7497 -0.728039
H -5.92443 4.80251 0.0527537
H -5.00495 3.80318 -0.854125
O 4.8644 4.57406 -3.0565
H 4.65593 3.69588 -3.48697
H 5.56408 5.04908 -3.59013
O -8.90925 6.03613 8.4055
H -8.91235 5.2676 9.04528
H -8.43173 5.77067 7.56796
O -13.724 6.76945 5.29259
H -14.0068 6.70829 4.33538
H -13.5052 7.7194 5.51544
O 7.53619 -8.33845 12.6452
H 7.05335 -9.12443 12.2591
H 7.5774 -7.60594 11.9657
O -8.35346 -9.88294 10.6006
H -9.19928 -9.52667 10.2036
H -7.68171 -10.0322 9.87508
O 3.23852 0.563225 8.02727
H 4.07573 1.05077 8.27497
H 2.92643 0.871968 7.12881
O 13.9881 1.24095 5.39711
H 14.4653 1.98694 4.93267
H 14.2588 0.36815 4.99108
O -6.493 -9.86859 8.61978
H -5.54987 -10.0956 8.86253
H -6.75294 -10.3656 7.79189
O 12.4872 3.80473 -6.98041
H 12.2588 4.2638 -7.83895
H 12.3743 2.81723 -7.0902
O -0.449336 -6.85953 3.83971
H -1.32998 -6.55023 3.48087
H -0.60233 -7.52173 4.57323
O -8.9317 0.838924 -12.848
H -9.15607 0.236247 -12.0822
H -9.77354 1.22083 -13.2293
O -11.2233 -14.4086 5.18718
H -11.5535 -13.9803 4.34604
H -11.9586 -14.4232 5.86465
O 10.2693 10.5366 -1.10984
H 11.0465 10.1748 -0.594978
H 9.41929 10.3059 -0.636275
O -3.3302 5.98945 -12.0557
H -2.60825 5.93596 -11.3658
H -3.0191 5.55022 -12.8985
O 10.5243 -5.08312 -0.98218
H 10.2199 -5.26195 -1.91777
H 9.93905 -5.57914 -0.340723
O -10.725 0.490182 -6.78694
H -9.77212 0.480651 -6.48391
H -11.2893 0.9451 -6.09804
O -6.94703 -3.87777 -8.44985
H -7.19043 -4.76309 -8.05371
H -6.90533 -3.95836 -9.44571
O 14.662 -11.9499 6.22402
H 13.7119 -11.888 6.52989
H 14.6887 -11.988 5.22512
O 10.2665 14.2505 -13.2859
H 9.9255 14.5604 -12.3984
H 10.8391 13.4407 -13.1587
O 8.83821 7.99521 -11.4851
H 9.17073 7.0745 -11.281
H 9.55225 8.66224 -11.2725
O 3.87177 -13.0465 -13.0757
H 4.32759 -13.6763 -12.4468
H 4.4779 -12.8476 -13.8458
O 2.76929 -13.0501 -6.51587
H 2.81689 -12.3191 -5.83517
H 1.9495 -12.9311 -7.07599
O 2.15551 -3.79198 -9.58997
H 2.52359 -3.06469 -10.1692
H 1.90358 -4.57532 -10.1582
O -3.24737 -13.0033 10.0121
H -4.11654 -13.4976 10.0274
H -2.58796 -13.4703 10.6012
O 11.0073 14.7805 -4.10958
H 11.3274 -14.5384 -3.41295
H 11.7937 14.3581 -4.56016
O -3.5179 11.1231 14.1554
H -4.11951 11.8761 13.889
H -3.11459 11.3189 -14.9117
O -6.27376 -11.1944 -2.72386
H -7.07983 -10.67 -2.99803
H -6.05181 -10.9904 -1.77041
O 13.6584 14.5285 -2.04883
H 14.5531 14.4479 -1.6094
H 13.2749 13.6164 -2.19383
O 4.87616 -13.8394 -8.14176
H 4.21741 -13.7425 -7.39568
H 5.78067 -14.0374 -7.76413
O -8.4734 2.23786 -0.209704
H -8.00013 2.39157 -1.07709
H -7.86525 1.75576 0.420936
O -8.89051 14.184 -5.23317
H -8.06408 14.3523 -4.69589
H -9.65282 14.7 -4.84256
O -11.7574 -12.0237 11.6875
H -12.446 -11.9255 10.9691
H -11.5137 -12.9885 11.7859
O -7.33643 -0.393692 -4.05555
H -7.71901 -0.762077 -3.20827
H -7.32542 -1.10851 -4.75475
O -5.83137 -0.548701 -10.1386
H -5.15527 -1.15129 -9.71459
H -6.49434 -0.254962 -9.44998
O -14.6384 8.09904 11.6187
H -13.7449 7.67147 11.482
H 14.9623 8.40735 10.7383
O -7.48231 -6.55431 11.1712
H -7.51247 -7.45204 11.6107
H -8.41424 -6.21767 11.0365
O 1.74245 7.61897 -12.32
H 0.950592 7.61261 -11.7093
H 2.51584 7.17498 -11.8675
O 14.17 -9.16268 -10.2453
H 14.4863 -8.56053 -9.51224
H 14.8748 -9.84336 -10.4449
O 9.98495 -8.84082 -13.1689
H 9.43937 -9.49774 -12.6485
H 10.3801 -8.16708 -12.5445
O -6.13967 -9.87143 -0.289259
H -6.53579 -8.98398 -0.524831
H -6.42159 -10.1274 0.63539
O 5.38571 -11.6221 -9.52179
H 5.01862 -12.4595 -9.11672
H 5.9137 -11.1231 -8.83462
O 5.33669 1.68989 11.5646
H 6.15035 1.95711 12.0808
H 5.48254 0.789238 11.1553
O 13.2469 -10.7197 -7.22829
H 13.3216 -9.73735 -7.39937
H 12.2821 -10.982 -7.20772
O -3.61115 5.09023 4.05046
H -3.11419 4.92886 4.90308
H -2.98542 5.46329 3.36544
O 6.51075 -12.3898 11.9604
H 6.38411 -13.3685 11.7987
H 7.31028 -12.0688 11.4527
O -0.862157 -12.8353 5.50802
H -0.971844 -13.8282 5.55238
H -0.280303 -12.5302 6.26191
O -7.63459 7.61882 -8.53843
H -6.78549 8.14558 -8.49932
H -7.42261 6.64206 -8.50723
O -10.23 12.9154 -14.9098
H -9.93427 12.2809 -14.1957
H -11.2161 13.0643 -14.8359
O 1.57919 6.04197 -2.18543
H 2.1204 5.34859 -2.66113
H 1.85216 6.95124 -2.49955
O -11.9751 9.01273 5.89271
H -12.2113 8.70431 6.81416
H -11.0681 8.66964 5.6486
O -14.0882 -6.11202 8.53684