2593
Atoms. Timestep: 18495000
O 5.00081 2.75032 -2.27995
H 4.19542 2.59923 -2.85306
H 5.64075 1.99099 -2.39753
O -13.6456 7.1925 -10.1435
H -12.7796 7.50056 -10.5372
H -13.616 7.29777 -9.14951
O -11.297 -14.045 11.6803
H -11.0041 -13.4571 10.9262
H -10.6954 -13.9033 12.4664
O -14.5628 14.8554 1.05472
H 14.9675 14.5655 1.91633
H 14.8754 14.4614 0.289334
O 1.69433 -14.9539 -8.14732
H 2.63597 14.6911 -7.99868
H 1.24622 14.3794 -8.79736
O 10.2444 -10.5079 4.83705
H 9.33347 -10.6695 4.45754
H 10.8777 -10.2794 4.09773
O -7.30604 8.5638 -4.03896
H -8.25715 8.73155 -4.29817
H -7.10442 7.58811 -4.12441
O 5.25101 -2.45572 -14.1019
H 5.56767 -2.16987 -13.1975
H 4.84547 -1.67395 -14.5755
O -7.11767 11.6077 10.9561
H -7.20154 12.1441 10.1164
H -7.28433 12.1974 11.7463
O -12.5536 -12.128 5.82886
H -11.9015 -11.7316 6.47498
H -12.156 -12.9462 5.41364
O -5.81808 0.488752 3.06688
H -5.28896 -0.292161 2.735
H -5.582 0.669759 4.02158
O -13.861 3.83788 9.86711
H -13.5054 4.36659 9.09638
H -14.1025 2.91829 9.55732
O -4.34839 -7.75058 -0.951535
H -5.19152 -7.21753 -0.881313
H -3.80664 -7.62849 -0.119945
O 10.4312 -6.71583 7.99914
H 9.95588 -6.27479 7.23791
H 10.408 -6.1161 8.79896
O -1.26068 -8.1116 7.82729
H -0.451626 -8.48052 7.36982
H -1.30429 -7.12326 7.68167
O -1.85764 -0.75817 -13.5478
H -2.34863 -0.228736 -12.856
H -2.06243 -1.72998 -13.4312
O -1.37125 -5.92139 1.48032
H -1.32734 -5.83637 0.484941
H -2.25466 -6.30932 1.74306
O 3.40409 11.3547 3.07988
H 4.136 11.8438 2.60552
H 2.75257 12.0133 3.45633
O 4.02818 -6.91039 -12.508
H 3.42631 -6.44954 -13.1602
H 4.04609 -7.8904 -12.706
O -12.3396 -13.9517 0.228442
H -11.5563 -13.902 0.848009
H -13.1111 -14.3787 0.700123
O -3.42366 -14.2373 9.1318
H -2.93359 -13.7287 8.42393
H -3.87688 -13.5953 9.75016
O 6.21193 13.1317 -1.81292
H 7.05972 13.3725 -1.3405
H 6.36534 13.1458 -2.80095
O 3.53931 -13.4588 -1.6478
H 2.79235 -13.4595 -0.982985
H 3.40361 -12.7138 -2.30083
O -3.23044 9.57253 -4.41827
H -2.77734 9.8147 -5.27617
H -3.18583 8.58239 -4.28571
O -8.07041 14.6244 1.77011
H -8.41609 13.7454 1.44179
H -7.54323 14.4833 2.60802
O -11.9803 -6.21186 10.5434
H -11.7403 -6.64248 9.67344
H -11.926 -6.8894 11.2769
O 13.8781 -0.102808 12.4202
H 13.9918 -0.574662 11.5459
H 14.7313 -0.152779 12.9393
O -13.4074 10.3655 -13.6669
H -14.0464 10.4184 -12.8995
H -13.5353 9.49818 -14.1479
O 3.55435 3.15756 10.0236
H 3.88424 2.83316 9.13707
H 3.18468 2.38766 10.5437
O 8.31731 11.5697 -7.92838
H 8.40029 12.5201 -8.22815
H 8.01117 11.0042 -8.69415
O 13.5258 12.6803 -11.062
H 13.6568 13.615 -11.3922
H 12.7617 12.6587 -10.4172
O -8.91497 -3.56099 -0.268248
H -8.85668 -2.63116 0.095014
H -8.65541 -4.21374 0.443426
O -8.70241 4.15148 -8.21913
H -8.5756 4.73308 -7.41563
H -8.55439 4.69109 -9.04789
O 12.9489 4.0115 6.92538
H 12.8353 4.962 7.2145
H 12.3393 3.82214 6.15567
O -7.87852 6.638 -0.830862
H -8.31181 7.27271 -0.191062
H -7.54438 5.83827 -0.332142
O 5.34069 1.85417 -8.6541
H 5.43235 0.978697 -9.12855
H 5.12987 1.69054 -7.6904
O 2.12364 -13.205 12.4982
H 2.15189 -13.4327 11.5249
H 2.42319 -12.2599 12.6283
O -9.46344 -3.69816 -7.9197
H -8.78068 -3.43967 -8.60305
H -10.3561 -3.79408 -8.36011
O 9.8013 -13.4785 -1.86398
H 9.26609 -12.9274 -1.22388
H 10.7105 -13.644 -1.48198
O 13.6157 -8.98719 9.2
H 13.0453 -9.60892 9.73671
H 14.4981 -8.86769 9.65513
O -13.7866 5.77812 -14.7898
H -13.6212 5.60754 -13.8184
H -13.6227 6.74378 14.9557
O -4.46007 -7.52912 -11.1901
H -4.10927 -7.89399 -10.3276
H -4.77348 -6.58968 -11.0516
O -4.31402 -4.21605 10.1382
H -4.4319 -3.34197 10.6094
H -4.39574 -4.96365 10.7972
O 5.30633 10.4838 -1.10119
H 5.12634 10.5609 -0.120572
H 5.63784 11.3608 -1.4491
O 13.8761 -2.16316 -1.25898
H 13.5153 -2.39815 -2.16149
H 14.8342 -1.88958 -1.34396
O -9.2637 12.3829 6.97738
H -8.43039 12.3999 7.52987
H -9.98053 11.89 7.47047
O -10.1535 -6.1335 -0.833203
H -10.7085 -6.23454 -0.00757024
H -9.74513 -5.22088 -0.850664
O 4.01708 12.9883 -8.53823
H 4.48401 12.7662 -9.39416
H 3.22291 12.3908 -8.4271
O -9.12895 9.49241 -12.4253
H -9.50513 10.0342 -13.1769
H -8.14068 9.39765 -12.5448
O 0.893173 -11.5188 10.505
H 1.47621 -11.2646 11.2766
H 0.0239363 -11.8754 10.8474
O -14.7458 -13.2787 -7.42057
H 14.8263 -14.1707 -7.1679
H 14.7588 -12.9563 -8.25749
O 12.9834 7.59275 14.5307
H 13.3882 6.73363 14.2177
H 12.1213 7.74998 14.049
O 9.61028 -13.7523 8.42217
H 9.71418 -12.9399 8.99599
H 10.4739 -13.9437 7.95593
O -8.69842 -11.1357 1.02073
H -9.40493 -11.1542 1.72815
H -7.85585 -11.5364 1.38056
O -5.64076 -0.421348 6.91975
H -5.55794 -0.875865 7.8066
H -6.31856 -0.900158 6.36184
O 5.15845 -13.7047 -4.73081
H 4.16835 -13.7812 -4.8483
H 5.35754 -13.2845 -3.84553
O 11.0904 -14.1538 -10.3987
H 10.2735 -13.5913 -10.2717
H 11.3829 -14.5211 -9.51582
O 11.5006 -4.07453 6.47124
H 11.6788 -4.5265 5.59722
H 10.5148 -4.04527 6.63644
O -8.86383 -10.5638 4.25333
H -8.18755 -11.2444 3.97159
H -9.56787 -10.4817 3.54797
O 5.37659 -5.56804 -10.6716
H 5.14451 -6.27679 -11.3377
H 4.54434 -5.09153 -10.3883
O -13.9023 1.46425 -2.55054
H -13.2846 1.78315 -3.26941
H -13.6814 1.92681 -1.69194
O -6.38987 3.38539 -3.08301
H -6.25162 2.55324 -3.61999
H -5.82186 3.34972 -2.26081
O -3.94763 12.4066 14.2901
H -4.01777 13.1202 13.593
H -3.65613 11.5508 13.8629
O -2.33393 -0.860083 13.459
H -1.53267 -1.1011 12.9114
H -2.12425 -0.983673 14.4289
O -12.2089 3.84693 -1.07736
H -12.2003 4.29703 -1.97025
H -11.5924 3.05986 -1.09486
O -14.4468 -3.35216 13.6869
H -14.6768 -3.80753 12.8269
H -14.2304 -4.03931 14.3804
O 11.1251 -9.4899 -9.51753
H 10.4113 -9.18155 -8.88881
H 11.7071 -10.1607 -9.05789
O -0.266541 -5.79591 13.6934
H -1.01103 -5.57833 14.3245
H -0.327708 -5.2046 12.8893
O 3.88656 5.53232 2.18605
H 4.72296 6.07344 2.27305
H 3.75122 5.2796 1.22805
O 3.43804 3.41804 5.03966
H 3.4665 2.66991 5.70255
H 2.50105 3.53689 4.71123
O -6.4613 11.0063 6.0734
H -6.98699 10.2068 5.78286
H -5.60916 10.707 6.50254
O 0.341289 3.4842 5.11733
H 0.343839 3.98014 5.98565
H 0.500872 2.51197 5.28832
O 6.38918 -2.22339 4.80261
H 6.09673 -3.16058 4.61259
H 6.86657 -2.19479 5.6808
O -5.15524 5.73703 11.4128
H -4.3376 6.14282 11.0045
H -4.98135 5.53519 12.3766
O 2.54748 7.98429 -6.52073
H 2.29514 7.18091 -7.06003
H 3.16879 7.71105 -5.78639
O 7.21179 0.0683342 -0.729641
H 6.99317 -0.277503 0.182795
H 7.00122 -0.632587 -1.41104
O -14.3587 -12.5183 -4.59048
H -14.2735 -12.2718 -5.55583
H -13.5165 -12.2757 -4.10896
O 0.564341 -4.47385 8.02847
H 1.0703 -4.5013 8.89056
H 1.20681 -4.38207 7.26772
O -14.3544 3.19339 6.78358
H 14.6716 3.53686 6.968
H -14.0906 2.54625 7.49882
O 9.42667 -9.87581 -5.5036
H 8.9615 -9.53121 -4.68824
H 10.3187 -9.43242 -5.59085
O -1.50155 -4.51654 11.2006
H -1.37986 -3.5494 11.4237
H -2.37602 -4.64313 10.7324
O 8.75729 -2.8887 9.91136
H 9.25376 -3.7567 9.91676
H 9.36066 -2.15763 10.2298
O 8.55844 2.0393 -2.05699
H 7.9985 1.41522 -1.51207
H 8.17193 2.9604 -2.01087
O 4.71902 -10.9297 8.33917
H 4.77521 -11.8974 8.58467
H 3.76529 -10.6849 8.16466
O 6.4779 7.14345 0.558984
H 6.68652 6.97298 1.52198
H 6.11633 6.30884 0.143475
O 9.94795 -6.19062 13.5808
H 9.87981 -5.86668 14.5244
H 10.909 -6.33909 13.348
O 10.1504 0.973679 -4.36066
H 9.88011 1.42174 -3.50855
H 10.9379 0.381323 -4.1905
O 10.2742 12.7681 9.76375
H 10.8119 13.3812 9.18507
H 9.45239 13.2428 10.0789
O 9.88104 8.50775 -0.167266
H 9.0914 8.72744 -0.740113
H 10.0649 7.52602 -0.215452
O 11.3873 -14.5923 6.27549
H 10.6013 -14.7289 5.6726
H 11.355 -13.6704 6.66147
O 2.04052 5.71613 13.1272
H 1.44587 5.32998 12.422
H 1.6325 6.5566 13.4837
O -13.529 -14.8798 14.4884
H -12.6349 -14.8889 14.936
H -13.6119 -14.057 13.9262
O -2.22382 10.9527 -2.17014
H -2.39463 10.965 -3.15533
H -2.86399 10.324 -1.72868
O 2.20274 -10.0339 8.38109
H 1.52282 -9.62442 7.77286
H 1.73858 -10.4974 9.13585
O -14.0947 -0.902487 7.30888
H -14.2796 -1.7351 7.83089
H -14.6734 -0.884826 6.49358
O -0.154364 9.23093 -2.39704
H -0.220281 9.08696 -3.38439
H -0.953274 9.74242 -2.08072
O 8.45757 6.62624 10.9363
H 7.64518 6.45915 10.3777
H 9.22757 6.10442 10.5692
O 14.5775 9.09456 0.693832
H 14.5789 9.64604 -0.14032
H -14.4444 9.05982 1.07206
O -0.651654 -2.04261 -6.32873
H 0.159426 -2.23642 -5.77689
H -1.4539 -2.4571 -5.89915
O 5.00027 -2.76336 -8.8364
H 4.20051 -3.33403 -9.02255
H 5.10578 -2.64939 -7.84857
O -14.5419 -10.3644 -13.8406
H 14.5109 -10.738 -13.5937
H -14.6327 -9.79499 -14.6576
O -5.92163 -3.54938 3.89209
H -6.32508 -2.98212 4.60999
H -5.51334 -4.36508 4.30182
O -12.0247 -12.0447 -2.12939
H -12.8516 -11.7534 -1.64851
H -11.9523 -13.0414 -2.09431
O 9.79272 -9.03908 14.7863
H 9.52865 -8.70861 -14.2545
H 8.97777 -9.33842 14.2901
O 12.8554 -3.44679 0.920721
H 13.142 -2.91573 0.123362
H 12.924 -4.42263 0.713459
O -4.16109 8.31837 -12.1792
H -3.41714 8.05295 -12.7924
H -4.10047 7.78903 -11.333
O 12.4191 -5.46663 -7.64647
H 12.217 -4.5605 -7.27495
H 13.2563 -5.42421 -8.19163
O 9.03048 6.5396 -7.32813
H 9.53636 6.63066 -8.18588
H 8.15346 7.01356 -7.40649
O -2.73918 -0.576029 4.31207
H -2.44079 -0.551221 5.26616
H -2.25742 0.130467 3.7937
O 12.2135 11.0435 -7.30333
H 12.0006 10.3225 -7.96267
H 12.4677 10.6309 -6.42866
O -14.8931 14.1577 9.4507
H -14.6093 -14.8372 9.56514
H -14.3777 13.578 10.0817
O 2.33034 -4.49049 10.3336
H 2.16567 -4.13424 11.2533
H 2.39822 -3.7294 9.68853
O -2.27315 2.32494 9.44392
H -2.0455 2.1056 10.3926
H -3.23716 2.11877 9.27626
O -9.12582 -13.6235 -1.31092
H -9.4848 -13.8901 -0.416468
H -9.61533 -14.1198 -2.02788
O 7.09037 9.65317 -11.1708
H 6.83891 8.71013 -11.3885
H 7.58348 10.0534 -11.9432
O 6.63209 -13.8992 -11.0559
H 6.93784 -14.799 -11.3669
H 5.9516 -13.5394 -11.6941
O -13.0735 -8.88442 -3.76893
H -12.1205 -9.01801 -3.49697
H -13.6412 -8.77786 -2.95269
O 1.49152 -4.67548 -0.529645
H 0.991931 -3.82311 -0.375315
H 2.32226 -4.4849 -1.05261
O -1.11377 -3.70647 -11.2426
H -0.213193 -3.55396 -11.6496
H -1.82199 -3.3797 -11.8684
O 3.86157 -6.63363 14.0146
H 4.39248 -7.45595 14.2192
H 3.49238 -6.69733 13.0874
O 11.8121 4.43178 1.28256
H 12.6455 4.7623 1.72537
H 11.9353 3.47759 1.01007
O 10.4291 -5.1892 10.3734
H 11.3973 -5.43776 10.3447
H 10.0716 -5.34694 11.2938
O -10.9017 -1.82044 2.56785
H -10.1578 -1.47321 3.13884
H -11.4267 -1.05247 2.20116
O -13.4249 -6.26707 -6.29961
H -13.6178 -7.24825 -6.30436
H -13.2826 -5.95992 -5.35869
O -0.933833 -14.125 -0.864394
H -0.946808 14.8232 -0.912398
H -1.84157 -13.7917 -0.609646
O 9.43009 -14.4127 3.72141
H 8.96405 -13.7175 4.26869
H 8.76989 14.8425 3.42883
O -13.5796 1.3154 8.84719
H -14.1612 0.54525 8.58546
H -12.6275 1.01322 8.89397
O -14.4171 -11.498 -0.198516
H 14.5629 -11.7474 -0.250831
H -13.8612 -12.3276 -0.147674
O -2.76518 13.5262 -7.9204
H -3.41995 14.276 -7.82504
H -2.47324 13.2213 -7.01389
O 6.42241 -12.7234 -2.14137
H 7.07456 -12.4152 -1.44881
H 5.83905 -13.438 -1.7553
O 1.41095 11.2642 -5.42334
H 1.87858 11.5945 -4.60349
H 1.06324 10.341 -5.2596
O 10.8311 11.4068 12.0953
H 11.7502 11.0847 12.3222
H 10.8303 11.7882 11.1709
O -3.27977 10.2951 12.5196
H -3.76215 9.67103 11.9049
H -2.66819 10.8805 11.9875
O 4.67192 12.6399 13.4123
H 4.06521 12.701 14.2049
H 5.22373 11.8086 13.4783
O 11.8399 -1.39686 5.86736
H 11.2439 -1.26132 5.07591
H 11.7091 -2.31995 6.22892
O -5.20954 -14.427 1.86639
H -5.9476 -13.7543 1.91925
H -4.94742 -14.5597 0.91057
O -11.2885 -14.0243 -11.4443
H -11.3911 14.9283 -11.4725
H -11.9546 -13.6029 -12.0597
O -8.35608 14.7455 10.1858
H -8.68231 -14.8607 9.304
H -9.12598 14.3755 10.7057
O -13.8751 4.62048 0.691526
H -13.2586 4.33635 -0.0427746
H -14.8082 4.68321 0.337726
O -6.60172 11.3402 -9.62149
H -6.69752 10.7625 -10.4321
H -5.65577 11.3076 -9.29893
O -5.07575 2.18679 5.98754
H -5.23024 1.28568 6.39261
H -4.86612 2.84552 6.71008
O 7.20103 -0.942863 -6.76169
H 7.00259 -0.222293 -6.09736
H 6.51911 -1.66954 -6.67889
O -11.6185 6.12613 10.7789
H -12.0943 5.71247 11.5551
H -11.7187 5.53939 9.9754
O 13.7903 -0.733897 1.29372
H 13.6761 -1.31362 0.48699
H 14.0631 -1.2976 2.07332
O 12.1737 -1.41539 -4.06092
H 12.5333 -0.593386 -3.61935
H 12.7365 -1.63964 -4.85649
O 4.56705 -0.271047 4.04818
H 3.69349 -0.447559 4.5017
H 5.25477 -0.912331 4.38837
O -3.87884 1.03967 -3.22871
H -3.39697 0.272426 -3.65189
H -4.86019 0.951989 -3.39959
O 1.57428 -13.2588 0.433005
H 0.755767 -13.4289 -0.115641
H 1.66277 -13.9709 1.12937
O 13.5694 3.85826 -11.3302
H 13.254 3.18866 -10.6578
H 13.312 3.55572 -12.2479
O -12.5792 12.3632 -7.88497
H -12.6378 11.8583 -8.74607
H -11.9836 13.1575 -8.0042
O -7.90829 8.60494 5.38371
H -7.30559 8.34212 6.13712
H -8.85801 8.42077 5.63682
O -6.14718 2.81337 12.2162
H -5.54953 3.58738 12.4252
H -5.62492 1.96285 12.278
O 11.2294 5.71386 12.1035
H 12.22 5.72193 12.24
H 11.0244 5.43335 11.1658
O -4.98834 9.72666 10.2588
H -5.58431 8.9642 10.5106
H -5.29616 10.5575 10.7224
O -9.48996 13.1377 13.9202
H -9.80072 13.3868 13.003
H -8.49651 13.2381 13.9743
O 9.67489 4.84025 -13.341
H 9.03999 4.0939 -13.1415
H 9.87143 5.34442 -12.5001
O -2.67255 -5.56993 -7.15165
H -2.66949 -4.6841 -6.68771
H -3.27445 -5.5265 -7.949
O 6.24706 -6.83869 -8.44425
H 5.88903 -6.38518 -9.26038
H 5.4892 -7.22217 -7.91649
O 4.27704 2.50375 -5.97369
H 3.63591 2.4179 -5.21111
H 5.20275 2.63222 -5.61801
O 1.81231 -1.76342 -11.0374
H 1.85856 -2.76138 -11.0807
H 0.866689 -1.48021 -10.8776
O -5.57169 -10.9796 12.9829
H -6.14891 -11.0477 13.7966
H -5.01834 -10.1483 13.0354
O 0.475307 4.5946 7.58385
H 0.762868 4.09259 8.39947
H 0.328916 5.55561 7.81833
O 12.7494 -14.4135 -12.4122
H 12.0589 -14.6044 -13.1098
H 12.3006 -14.0934 -11.5779
O 12.28 11.0573 8.76468
H 11.7609 10.2057 8.69281
H 11.7547 11.7242 9.29313
O 7.59465 13.5577 10.1999
H 6.73282 13.836 10.6239
H 7.63921 13.9176 9.26805
O -14.578 4.34268 -3.30685
H -14.4457 3.82351 -4.15118
H -14.2025 5.26265 -3.41896
O 14.7493 10.6848 -1.72226
H -14.2039 10.5757 -1.74518
H 14.4713 11.3525 -2.41277
O 7.6953 -2.60046 7.17877
H 8.19161 -3.3041 6.67034
H 8.18937 -2.38732 8.02163
O 13.3344 -0.465831 -6.5164
H 13.2817 -0.379809 -7.51127
H 14.248 -0.202275 -6.20702
O -2.11439 3.55903 7.19314
H -2.0881 3.03296 8.04314
H -1.24608 4.03991 7.07179
O 12.3525 2.67223 9.43128
H 11.7448 2.00876 8.99492
H 12.9112 3.12136 8.7341
O -0.363947 0.0173935 -9.61171
H 0.170571 0.525586 -10.287
H -1.19843 0.524751 -9.39686
O 14.0018 3.98012 -1.05074
H 13.0031 4.02701 -1.06737
H 14.3575 4.12096 -1.97463
O -4.03757 7.41463 -9.6393
H -3.20601 7.08426 -9.19286
H -4.11363 8.40359 -9.51236
O 14.284 11.018 6.73097
H 14.0996 10.1175 6.33734
H 13.5776 11.2389 7.40337
O -1.02137 14.5416 12.2888
H -0.0925954 14.5894 12.6562
H -1.66898 14.8711 12.9758
O 8.37094 14.1468 -8.37947
H 7.85315 14.2796 -7.53436
H 8.58982 -14.9101 -8.77954
O 1.9343 12.6394 11.5492
H 2.79996 12.2541 11.2295
H 1.73343 12.2929 12.4654
O -12.5133 -0.152661 0.903741
H -12.3365 -0.288594 -0.0710462
H -13.1931 0.571211 1.02143
O -3.56281 -9.68067 -2.51438
H -3.84703 -8.90775 -1.94715
H -3.08027 -9.34175 -3.32198
O -12.8683 -7.49703 1.94005
H -12.9329 -8.49276 2.00553
H -13.4974 -7.16785 1.23591
O 13.9778 14.1403 -14.6798
H 14 14.3921 -13.7123
H 14.8859 14.2686 14.8684
O 6.67756 -1.35404 1.67605
H 6.17862 -1.23513 2.53446
H 7.13785 -2.24177 1.6783
O 10.8329 -7.45411 1.53442
H 11.7302 -7.12794 1.83176
H 10.5732 -6.98969 0.687782
O 8.86018 -7.99798 3.48969
H 8.87562 -7.16148 4.03738
H 9.52118 -7.91999 2.7434
O -0.715329 6.57307 -1.80144
H -0.321418 6.40849 -0.897181
H -0.412531 7.46402 -2.13977
O -5.65517 -13.8224 -14.5247
H -6.56294 -13.8087 -14.1056
H -5.74747 -13.9033 14.4298
O 11.7732 14.7048 2.73947
H 10.8129 14.7473 3.0151
H 12.1652 13.8322 3.03053
O -12.8269 13.5873 -1.39408
H -13.5967 13.9906 -1.88874
H -12.4824 14.2426 -0.722
O -13.6974 -11.908 13.3888
H -14.5895 -11.5714 13.69
H -13.6668 -11.9226 12.3894
O 9.59573 -9.75854 7.53276
H 10.2062 -9.13596 8.02236
H 9.97919 -9.96133 6.63178
O -7.68429 -6.70115 11.409
H -7.75833 -5.8157 11.8677
H -8.19504 -6.67509 10.5497
O 0.9523 -7.43923 -0.428307
H 1.13402 -6.47513 -0.234863
H -0.00400512 -7.55045 -0.698588
O 6.4802 6.87942 3.37573
H 5.8811 6.40952 4.02397
H 7.36728 6.41874 3.34748
O -13.3296 5.36688 -6.12555
H -12.541 5.78787 -5.67739
H -13.0177 4.63205 -6.72777
O 10.3821 8.02111 13.4662
H 10.4143 7.31006 12.7638
H 9.62603 7.8356 14.0938
O -2.26288 -2.8696 -8.72663
H -1.70852 -3.02832 -9.5436
H -1.66337 -2.68872 -7.94701
O -5.55169 -4.87795 7.57855
H -5.12022 -5.59902 7.03648
H -4.94563 -4.61824 8.33033
O 3.37717 2.14312 -10.5036
H 4.00395 2.26484 -11.2731
H 3.87737 2.25658 -9.64514
O -4.60338 2.74761 -1.03322
H -4.09839 2.84549 -0.175698
H -4.01677 2.31524 -1.71798
O -14.8941 10.7276 9.51186
H -14.6042 11.0503 8.61088
H 14.1551 11.1104 9.73002
O 3.40683 -7.35003 -1.87831
H 2.47417 -7.4564 -1.53367
H 4.05696 -7.63454 -1.17381
O 12.0659 -13.1203 11.6103
H 12.4119 -13.9028 11.0925
H 11.1347 -13.3114 11.9206
O -2.50463 -12.0447 2.16677
H -1.58714 -11.7228 1.93322
H -3.0206 -12.2181 1.32793
O 7.46465 13.6688 -11.9775
H 7.38258 13.8259 -12.9616
H 8.29931 13.1506 -11.7912
O 3.9904 12.4588 7.0957
H 4.94217 12.4883 6.79042
H 3.56528 13.3519 6.94836
O 8.8808 -5.1227 3.43937
H 8.16454 -5.34493 2.77792
H 9.48152 -4.4207 3.05691
O 9.79479 12.0145 14.6519
H 10.6863 11.9231 -14.8514
H 9.86605 11.7249 13.6975
O 5.17912 -0.383677 -3.77974
H 4.28696 -0.234575 -4.20607
H 5.86245 0.194246 -4.22582
O -1.37594 -10.4806 -7.38792
H -0.59343 -11.0232 -7.69314
H -2.16272 -11.0811 -7.24543
O 3.95181 -11.951 2.30286
H 3.55726 -11.6114 1.4491
H 3.22133 -12.1138 2.96605
O 1.21939 6.53234 -13.4457
H 1.12108 5.68848 -12.9183
H 1.97044 7.0749 -13.0696
O -13.996 -0.136615 14.065
H -13.5911 -0.896563 14.5734
H -13.9014 0.70647 14.5943
O -12.1429 -8.76548 5.18406
H -12.9951 -8.30232 5.42753
H -11.8949 -8.53429 4.24332
O 2.80509 -10.8762 0.0565766
H 2.88911 -10.4491 -0.843649
H 2.33379 -11.7536 -0.0334833
O 7.25926 2.04707 12.7378
H 7.55803 2.77594 13.3537
H 7.92648 1.30244 12.7542
O 8.73027 -13.2128 -9.48518
H 7.9061 -13.5137 -9.96492
H 8.60771 -12.2717 -9.17016
O 7.18236 -6.97822 12.7915
H 6.86602 -7.00357 13.7398
H 8.16954 -6.8198 12.7736
O 5.1739 0.267979 12.645
H 5.32187 0.925889 13.3834
H 4.24822 0.376282 12.2826
O 5.3671 -10.4375 4.71692
H 4.48236 -10.9036 4.71622
H 5.87328 -10.6846 5.54317
O -5.08498 -4.96637 -3.44868
H -5.71967 -4.2329 -3.69186
H -5.30294 -5.30604 -2.53377
O -9.24645 -14.5009 7.32286
H -9.02783 14.4703 7.33614
H -10.2112 -14.3724 7.55255
O 14.9004 0.0351391 -11.2403
H -14.5292 0.722602 -10.7306
H 14.4605 0.46561 -12.0284
O -6.28084 -3.04256 -7.82994
H -5.5045 -3.59958 -8.12483
H -6.81988 -2.77304 -8.6279
O -1.75674 12.2209 -5.06264
H -2.49662 12.7435 -4.63905
H -0.876574 12.5608 -4.73138
O -4.88655 -14.5771 -7.52983
H -5.29046 14.8966 -6.74698
H -5.61432 -14.2129 -8.11094
O -5.05326 12.6991 -13.2324
H -4.46583 13.1179 -12.5399
H -4.59005 12.7186 -14.1184
O 0.30252 -8.35333 -6.2331
H -0.394196 -9.00618 -6.53027
H 0.677332 -7.87998 -7.03022
O 13.3489 10.1563 -4.67881
H 12.616 9.76851 -4.11994
H 13.7051 10.9795 -4.23685
O -7.48729 5.70195 -3.58572
H -7.75833 6.07872 -2.69998
H -6.98452 4.84904 -3.44535
O -2.02579 -12.314 7.57684
H -2.1618 -12.3778 6.58822
H -1.73896 -11.3861 7.81465
O -8.57571 -1.6711 -12.3111
H -8.68402 -0.928894 -12.9724
H -9.35197 -2.29736 -12.3828
O 11.8085 4.07716 -5.15407
H 12.4963 4.57523 -5.68204
H 12.1662 3.17694 -4.90596
O 13.64 3.03305 -7.68119
H 13.8188 4.00743 -7.54488
H 12.6685 2.89628 -7.87446
O -3.12976 -3.51314 5.64337
H -4.03366 -3.21036 5.34136
H -2.52222 -3.58885 4.85273
O -1.58118 -5.4541 6.73612
H -1.05319 -5.14694 7.52784
H -2.17999 -4.71501 6.42773
O -14.2089 -13.0073 7.94592
H -13.8627 -12.4752 7.17328
H 14.8357 -12.6654 8.20851
O 8.61355 10.2154 -13.439
H 8.78401 9.26077 -13.6831
H 9.06315 10.8142 -14.1017
O -3.78278 -8.81272 13.7931
H -2.96534 -9.17363 13.3442
H -3.86973 -9.21797 14.7031
O 4.90858 -2.3094 -6.13556
H 4.11634 -1.71622 -5.99262
H 5.259 -2.61648 -5.25076
O -10.1501 6.59824 -13.4404
H -9.38438 6.10978 -13.8587
H -10.3054 7.45631 -13.9298
O -10.7045 -8.18423 -7.38135
H -11.5817 -7.70737 -7.32564
H -10.8478 -9.16349 -7.23831
O -5.06693 11.5631 -5.25314
H -4.49584 12.3687 -5.09552
H -4.6338 10.7616 -4.84083
O -1.74138 11.3027 -14.3497
H -2.56421 11.8659 -14.4257
H -2.00151 10.3392 -14.2875
O -0.793622 -7.41229 10.5658
H -0.661581 -7.66375 9.60697
H -1.25533 -6.5268 10.6176
O 13.3706 -11.4485 13.5947
H 12.677 -11.7588 14.2448
H 13.2615 -11.9403 12.7309
O -12.0824 4.05953 5.86256
H -13.0182 4.04835 6.2149
H -12.0944 4.3018 4.89246
O 6.78867 -4.22151 14.3289
H 6.18601 -3.55014 14.7602
H 6.30688 -4.66489 13.5731
O 6.96515 -10.7181 6.86242
H 7.87604 -10.4805 7.19977
H 6.31634 -10.7138 7.62332
O -6.09292 10.1776 -12.2016
H -5.41125 9.47582 -12.4082
H -5.81453 11.0446 -12.6149
O 14.5554 5.88982 10.4536
H 14.7207 6.25723 11.3689
H -14.9353 5.00464 10.3624
O 10.6801 -2.77987 2.68558
H 10.1215 -1.95102 2.71616
H 11.4618 -2.63285 2.07949
O 1.03944 -14.6965 14.4366
H 0.967281 -14.1348 -14.6862
H 1.55078 -14.1976 13.7369
O 0.90195 12.5664 14.4032
H -0.0688977 12.4789 14.6262
H 1.17301 13.5269 14.4655
O -4.13252 -12.0462 10.7501
H -4.22583 -11.333 10.0555
H -4.64409 -11.7837 11.5682
O 9.2712 1.03104 -7.40211
H 9.73619 0.703303 -6.57972
H 8.3596 0.623362 -7.45441
O 2.70028 -0.56735 -5.17127
H 2.22587 -1.32823 -4.72863
H 2.21279 -0.310879 -6.00585
O -10.926 4.63713 -11.7369
H -11.8911 4.82056 -11.5503
H -10.6348 5.16436 -12.5352
O 11.9697 7.76013 -6.6941
H 11.1826 7.34062 -7.14623
H 12.5549 8.19452 -7.37877
O -13.1754 6.14147 3.82448
H -13.7651 6.6926 3.23415
H -12.7314 5.42938 3.2807
O -10.5772 10.8718 -14.4992
H -10.3366 11.6112 14.8189
H -11.3935 11.1271 -13.9813
O -9.85813 -11.8413 -9.27746
H -10.6487 -12.2637 -9.72074
H -9.81967 -10.8715 -9.51834
O -12.0875 8.79174 10.6126
H -11.1838 9.18185 10.4363
H -12.0637 7.80627 10.4446
O -2.18178 4.21795 -9.59861
H -1.2229 4.11641 -9.33367
H -2.75657 4.20725 -8.78042
O -0.782344 11.5318 3.91074
H -1.57882 11.7874 4.4587
H -0.590523 10.5584 4.03533
O 13.5418 -6.49749 -3.45427
H 12.9679 -6.84553 -4.19555
H 13.9644 -5.63622 -3.73624
O -2.59109 -10.1325 -13.4227
H -1.85614 -10.5064 -13.9884
H -2.20111 -9.71989 -12.5995
O -11.3369 4.99267 8.31921
H -10.5252 5.55773 8.4666
H -11.3161 4.61429 7.39383
O -6.93969 4.19518 0.0467255
H -7.35608 3.90463 0.9082
H -6.27607 3.50891 -0.250872
O -11.9108 -10.775 -7.05724
H -11.9113 -11.1342 -7.99047
H -11.6613 -11.5038 -6.4197
O 13.9374 14.3421 -1.33078
H 13.3755 -14.9329 -0.848453
H 14.3717 14.7758 -2.12019
O 8.15898 -4.12157 -1.0173
H 8.60782 -3.27027 -1.2889
H 7.81918 -4.59347 -1.8308
O -5.81275 0.31173 -11.5502
H -6.58702 -0.000476421 -10.9997
H -5.73034 1.30554 -11.4761
O -12.8635 -11.3771 -9.8844
H -13.4654 -12.165 -10.0139
H -13.4157 -10.553 -9.75807
O -7.97924 -11.36 -12.0875
H -8.75485 -11.1545 -11.4907
H -7.1857 -11.6047 -11.5303
O 7.71847 -10.5995 3.47825
H 6.87683 -10.7781 3.98784
H 7.87432 -9.61305 3.42741
O 2.89888 -12.2589 -9.86555
H 2.63263 -11.6959 -9.0832
H 2.58094 -13.1966 -9.72503
O -1.83976 -6.85757 -12.1001
H -2.6463 -7.38983 -11.8429
H -1.8565 -5.97712 -11.6263
O 1.38745 1.86251 13.5214
H 1.70488 2.67962 14.0025
H 1.16451 1.14969 14.1863
O -4.92464 4.61975 -13.5757
H -4.12743 5.15067 -13.2884
H -5.16781 3.9683 -12.8571
O 4.22048 11.842 10.0363
H 4.12884 11.8139 9.04094
H 5.08272 11.4121 10.3039
O -6.35587 9.66605 -1.86299
H -6.55102 9.25096 -2.75156
H -6.21291 10.649 -1.97846
O -13.3416 10.7233 -9.75145
H -13.761 10.4953 -10.6301
H -13.7669 10.1795 -9.02801
O -8.58713 -11.6371 -4.18063
H -9.18084 -10.8847 -3.89566
H -7.96581 -11.8728 -3.4334
O 3.99699 8.65195 0.596327
H 3.36108 8.99303 -0.0959276
H 4.92214 8.63055 0.217392
O 5.77925 7.31652 10.4624
H 5.06567 6.65838 10.7024
H 5.53601 7.77498 9.60771
O -1.99463 8.69421 1.66304
H -2.96895 8.54491 1.83143
H -1.84687 9.64138 1.37848
O -14.2344 -2.45676 -12.419
H -14.5894 -3.15817 -13.037
H -14.9283 -1.74948 -12.2839
O 11.5112 2.41351 -1.57201
H 10.5176 2.49157 -1.65275
H 11.7369 1.68568 -0.924466
O -7.14848 -3.03479 8.94017
H -6.46772 -2.35794 9.22011
H -6.68614 -3.83006 8.54808
O -13.8652 -4.77649 -1.27672
H -14.7658 -4.45952 -1.57405
H -13.5106 -4.16065 -0.573166
O 10.7832 8.92419 8.44879
H 10.3015 8.4212 7.73119
H 10.1697 9.06604 9.2256
O 7.17489 -6.8667 -5.86036
H 6.6565 -7.60673 -5.43192
H 7.04905 -6.90212 -6.85175
O 14.5872 -8.43765 -2.2381
H 14.1025 -7.74225 -2.76856
H 14.5693 -9.30661 -2.73259
O -0.212202 -2.02152 12.2336
H 0.203805 -1.46471 11.5146
H 0.490452 -2.58619 12.6664
O 6.92608 -5.04388 1.51585
H 6.01609 -5.45413 1.57539
H 7.17607 -4.92544 0.554901
O 6.35897 3.8497 7.70153
H 6.1336 4.7209 8.1376
H 7.32757 3.84202 7.45313
O -10.3292 -13.7626 2.22347
H -10.7214 -14.2594 2.99759
H -9.51885 -14.2464 1.89302
O 5.079 -10.105 11.3335
H 4.54905 -10.329 10.5156
H 5.66246 -9.31471 11.1465
O 2.34688 3.87303 -14.8266
H 1.68508 3.88763 -14.0771
H 2.23357 4.69322 14.5596
O -12.8682 4.96959 12.7131
H -12.9582 3.99523 12.9191
H -12.9932 5.50047 13.5512
O -11.1161 -0.726417 -7.02588
H -10.6522 -0.781833 -7.91001
H -11.0291 -1.60075 -6.54848
O -14.5954 1.90152 4.22453
H -14.7597 2.28258 5.13433
H -14.942 0.964231 4.18818
O -10.4325 9.66776 -1.05267
H -10.2306 9.7441 -2.02906
H -9.57813 9.57079 -0.542203
O -7.59626 -1.96231 5.6358
H -8.4086 -1.60021 5.17872
H -7.86599 -2.68579 6.27122
O 1.34382 11.3162 0.782739
H 1.85158 10.9186 0.0185414
H 1.74554 11.0093 1.6455
O 7.55462 9.3088 4.19116
H 6.94332 9.68079 4.88964
H 7.17936 8.44976 3.84307
O -9.45112 -5.94316 -6.32472
H -9.97579 -6.72569 -6.65984
H -9.61862 -5.15267 -6.91379
O -1.7868 11.9865 11.0479
H -0.910223 11.5076 11.0017
H -1.67717 12.8328 11.5692
O 8.893 -1.69421 -2.46894
H 9.0124 -0.784884 -2.07043
H 9.62633 -1.86912 -3.12589
O -0.146206 6.70017 0.804596
H 0.695287 6.54086 1.32079
H -0.505899 7.60678 1.02508
O -3.98859 -6.49597 6.06221
H -4.11294 -7.48335 6.16004
H -3.06587 -6.2456 6.35518
O 5.82915 -7.90873 1.73976
H 6.67697 -8.42896 1.63731
H 5.0599 -8.45717 1.41201
O -9.49834 -9.12751 12.9232
H -9.65017 -9.9207 13.5129
H -9.32558 -8.32055 13.4879
O -13.2966 -11.4689 10.3096
H -13.7201 -11.9224 9.52546
H -12.3015 -11.5037 10.2174
O -11.9937 11.3887 1.16478
H -12.2076 10.4748 0.819754
H -12.2367 12.0707 0.475077
O 9.03173 7.94866 6.43703
H 8.92952 8.21694 5.47916
H 8.35944 8.43687 6.99346
O 2.49783 -6.86561 11.5794
H 1.59959 -7.28834 11.4594
H 2.516 -5.9826 11.1105
O -13.5582 -10.1718 1.97203
H -14.1599 -10.4247 2.72966
H -13.8744 -10.6148 1.13316
O -0.57607 8.63425 11.4413
H -0.341951 9.53366 11.0723
H -0.158037 8.5249 12.3431
O 6.53107 -3.53921 11.3336
H 7.16195 -3.10873 10.6882
H 7.0514 -4.05051 12.0176
O 13.5764 -11.8685 -9.4069
H 13.9374 -10.9371 -9.36178
H 13.6517 -12.2102 -10.3437
O 3.04315 -5.08916 -3.64682
H 2.99596 -5.88074 -3.03763
H 3.70769 -5.26636 -4.37271
O -5.41061 -14.379 -10.9809
H -5.76049 -14.3091 -11.915
H -5.17865 -13.467 -10.6427
O -8.40582 -13.7 -7.68885
H -7.93761 -14.4852 -8.09407
H -8.79946 -13.1357 -8.41451
O 10.0994 -0.929164 11.12
H 9.51289 -0.404417 11.737
H 11.0481 -0.632889 11.2297
O 9.10662 -14.8187 -4.17415
H 9.342 14.1754 -3.98279
H 9.27319 -14.264 -3.35895
O -11.0686 14.5543 -14.201
H -11.18 14.0695 -13.3335
H -10.4016 14.0722 -14.7689
O -12.0823 2.30934 13.3233
H -12.4742 1.39231 13.397
H -11.2835 2.28314 12.7224
O -6.77345 -12.5329 -2.07002
H -6.29049 -11.9175 -1.44711
H -7.64765 -12.7993 -1.66412
O -5.26707 -0.966093 9.54906
H -4.9896 -1.35842 10.426
H -5.37288 0.0235997 9.64524
O 2.59033 -10.399 12.4252
H 3.51886 -10.1739 12.1301
H 2.21677 -9.63991 12.9583
O -2.84764 13.1782 8.88375
H -3.09674 14.1374 9.01723
H -2.57105 12.7808 9.7587
O 3.03387 10.4409 -10.8745
H 2.58835 10.5546 -9.98655
H 3.94631 10.8489 -10.8443
O 3.51252 -0.212735 -14.6251
H 2.52685 -0.118603 -14.7649
H 3.9338 0.693837 -14.6009
O -8.44231 -0.176754 11.9631
H -8.76264 0.735626 12.2179
H -7.52043 -0.318994 12.3235
O -0.825869 12.8819 7.26689
H -0.819825 13.4203 6.42421
H -1.67659 13.0512 7.76444
O -1.13305 -14.3122 -12.4871
H -1.92942 -13.8353 -12.859
H -1.06411 -14.1309 -11.5061
O 6.57146 -6.58956 6.96699
H 6.40172 -7.11128 6.13097
H 6.46285 -7.18768 7.76096
O -3.62923 4.24826 -6.97772
H -3.24293 3.67439 -6.25564
H -4.44253 3.80597 -7.3557
O 11.9815 -5.05838 4.14738
H 12.5568 -5.65803 3.59119
H 11.6302 -4.31352 3.58018
O 13.5231 1.22402 -13.2394
H 14.2776 1.66311 -13.7272
H 12.6557 1.619 -13.5422
O 9.21354 4.66166 -5.52715
H 9.09861 5.545 -5.98152
H 10.1729 4.38385 -5.57636
O -1.23444 11.235 1.3494
H -1.20127 11.5112 2.30988
H -0.326728 11.3355 0.942115
O -3.72772 13.4194 -3.54867
H -3.54218 13.1919 -2.59277
H -4.50158 14.0509 -3.59682
O -6.01732 -0.0792369 13.2342
H -5.46676 -0.891199 13.4279
H -6.12993 0.454818 14.0721
O 10.1929 3.88296 13.8446
H 9.79544 4.28949 14.6672
H 10.5843 4.60362 13.2724
O 11.4831 4.16187 4.2903
H 12.2429 3.98431 3.66489
H 10.639 3.79094 3.90312
O 2.02117 -7.15699 -10.5462
H 2.8637 -7.18011 -11.0843
H 1.36218 -7.8033 -10.9309
O -6.21705 3.23405 -11.5201
H -5.98407 3.69308 -10.6628
H -7.2105 3.22425 -11.6336
O 14.4217 -0.736015 5.00068
H 13.4931 -0.790278 5.36751
H 14.567 -1.48094 4.34958
O -11.0407 8.0302 -11.1002
H -10.6279 7.47591 -11.8229
H -10.6667 8.95689 -11.1361
O -0.109173 -9.13194 -11.5639
H -0.554427 -8.24089 -11.4761
H 0.385969 -9.17297 -12.4318
O 12.1524 3.38043 -14.0314
H 11.2846 3.76121 -13.7124
H 12.5725 4.01001 -14.6849
O 7.41978 -13.1772 5.47119
H 6.55792 -13.5348 5.11165
H 7.23008 -12.5321 6.21132
O -11.7609 4.23609 2.41201
H -11.3628 3.32646 2.53052
H -12.4252 4.21442 1.66491
O 13.0056 -11.4841 -12.2877
H 12.8255 -10.6691 -11.7371
H 12.5218 -11.4109 -13.1598
O -2.46734 -1.38661 7.31874
H -3.25105 -0.928455 7.73804
H -2.78552 -1.98669 6.58483
O -10.7474 -3.2205 -12.2447
H -11.4033 -2.57864 -11.8474
H -10.9118 -4.13557 -11.8765
O 9.07812 9.55846 -4.12028
H 9.27847 10.2863 -4.77612
H 9.75606 8.8294 -4.21403
O -10.4016 -10.6539 6.57844
H -9.80176 -10.8353 5.7992
H -11.0089 -9.88985 6.36074
O 0.250308 7.43083 14.2902
H 0.537607 6.8539 -14.8921
H -0.73075 7.31473 14.1353
O 5.01129 5.34593 -13.4637
H 4.9671 5.39743 -14.4613
H 4.22576 5.82346 -13.0701
O 10.1517 5.84638 -0.508186
H 10.8334 5.42502 0.0897707
H 10.5659 6.04815 -1.39569
O -2.87111 -3.48705 -13.1614