LAMMPS data file via write_data, version 15 May 2015, timestep = 1000000

4560 atoms
7 atom types
5040 bonds
3 bond types
7200 angles
2 angle types
10560 dihedrals
3 dihedral types
2400 impropers
1 improper types

-1.0763502675555259e-01 4.1387635026745990e+01 xlo xhi
-4.0433884491974936e-02 3.5938433884472119e+01 ylo yhi
-3.5711112484589691e-01 2.9555111124838550e+01 zlo zhi
-6.7234083837551181e-02 -1.7036217651000683e+01 -4.1707816797290791e-02 xy xz yz

Masses

1 12.0107
2 1.008
3 12.0107
4 12.0107
5 12.0107
6 12.0107
7 12.0107

Pair Coeffs # lj/cut/coul/long

1 0.07 3.55
2 0.03 2.42
3 0.07 3.55
4 0.07 3.55
5 0.07 3.55
6 0 0
7 0.07 3.55

Bond Coeffs # harmonic

1 469 1.4
2 367 1.08
3 469 0.7

Angle Coeffs # harmonic

1 35 120
2 63 120

Dihedral Coeffs # opls

1 0 7.25 0 0
2 0 7.25 0 0
3 0 7.25 0 0

Improper Coeffs # cvff

1 2.5 -1 2

Atoms # full

219 13 3 0.0000000000000000e+00 -4.4876093553885132e-01 3.0169917610882111e+00 3.7036834699962782e+00 1 0 0
220 13 4 -1.1500000000000000e-01 2.9166873833119022e-01 4.0698634829195379e+00 2.9990998549452410e+00 1 0 0
224 13 2 1.1500000000000000e-01 7.2209826510753317e-01 4.9157586324184050e+00 3.5061303042787988e+00 1 0 0
580 33 4 -1.1500000000000000e-01 2.6002579955332181e+00 7.2334875984337401e+00 3.6818056842913585e+00 1 0 0
228 13 3 0.0000000000000000e+00 -9.7634398193414740e-01 1.9549970836126287e+00 2.9441479139123694e+00 1 0 0
989 53 4 -1.1500000000000000e-01 -1.4809702063734602e+00 6.7458617316314839e+00 3.9596248775748615e+00 1 0 0
600 34 2 1.1500000000000000e-01 1.9515938246143971e-01 5.1191004228314707e+00 7.3727818689334983e+00 1 0 0
601 34 2 1.1500000000000000e-01 -1.2468916910209042e+00 6.8247401389969307e+00 8.2290436397407234e+00 1 0 0
993 53 2 1.1500000000000000e-01 -1.7156664451792434e+00 5.7651738685656628e+00 3.5717533613039243e+00 1 0 0
1004 54 1 -1.1500000000000000e-01 -4.5358567462787072e+00 8.6338129850075269e+00 8.0121353469428112e+00 1 0 0
733 13 6 0.0000000000000000e+00 -7.5711080440904666e-01 2.5610408109521114e+00 3.3006907223645392e+00 1 0 0
988 53 3 0.0000000000000000e+00 -9.9445600154034364e-01 7.8022761080918839e+00 3.1152375141675557e+00 1 0 0
230 13 1 -1.1500000000000000e-01 4.9201547203466411e-01 3.9932360013609869e+00 1.6120867160677590e+00 1 0 0
217 13 7 -1.1500000000000000e-01 -1.5776673398124699e+00 2.2534881812082341e+00 5.7063728565365262e+00 1 0 0
218 13 5 -1.1500000000000000e-01 -7.5038064814732586e-01 3.2227274980726839e+00 5.0439785443983043e+00 1 0 0
221 13 1 -1.1500000000000000e-01 -1.9333887210902234e+00 1.0615276352362191e+00 4.9957371614274235e+00 1 0 0
222 13 2 1.1500000000000000e-01 -1.9601740475096410e+00 2.4415701867829642e+00 6.7279918153056171e+00 1 0 0
223 13 2 1.1500000000000000e-01 -5.7087177326362593e-01 4.0828558389341865e+00 5.6713054366322950e+00 1 0 0
4390 233 1 -1.1500000000000000e-01 2.5463346268536915e+00 2.7675579707459874e-01 5.2880340271872184e+00 1 1 0
4380 233 4 -1.1500000000000000e-01 2.9639487144849364e+00 8.8755207224068622e-01 4.0922106890949310e+00 1 1 0
982 53 2 1.1500000000000000e-01 -1.3705836898882642e+00 8.4505852526547756e+00 6.8831336013651283e+00 1 0 0
603 34 2 1.1500000000000000e-01 7.9566081432618851e-01 3.0443638648525662e+00 8.8142843177206327e+00 1 0 0
991 53 2 1.1500000000000000e-01 -6.3214791533141884e-02 8.2253111550273221e+00 -2.0068152958637034e-01 1 0 0
977 53 7 -1.1500000000000000e-01 -1.2918363607977761e+00 8.2961424235652181e+00 5.8222337412266105e+00 1 0 0
579 33 3 0.0000000000000000e+00 3.3733875232899004e+00 6.2356488992330430e+00 2.9578830606739954e+00 1 0 0
252 14 2 1.1500000000000000e-01 -3.7783329295939834e+00 4.9118733438755351e+00 8.2059294162382965e+00 1 0 0
581 33 1 -1.1500000000000000e-01 4.9036577953829683e+00 4.3289951091326770e+00 1.5988120228884537e+00 1 0 0
226 13 1 -1.1500000000000000e-01 -2.7931495410870810e-02 2.9331959872723998e+00 8.8758409165098717e-01 1 0 0
577 33 7 -1.1500000000000000e-01 4.4663948779245057e+00 5.4703005492524515e+00 9.2758794188744909e-01 1 0 0
588 33 3 0.0000000000000000e+00 3.6151540354112779e+00 4.9855356267718332e+00 3.5304932178233184e+00 1 0 0
589 33 4 -1.1500000000000000e-01 4.4190269145809253e+00 4.0378012930153968e+00 2.8684529720357892e+00 1 0 0
593 33 2 1.1500000000000000e-01 4.7065373335736869e+00 3.1090024410305084e+00 3.4535008690850861e+00 1 0 0
753 33 6 0.0000000000000000e+00 3.5789881529265033e+00 5.6985736673375778e+00 3.3478243830809800e+00 1 0 0
4383 233 2 1.1500000000000000e-01 3.4005227403769815e+00 1.6613758310563296e+00 1.5622889838582001e+00 1 1 0
592 33 2 1.1500000000000000e-01 3.4422400304933523e+00 3.7730348619981537e+00 5.2426594288353288e+00 1 0 0
578 33 5 -1.1500000000000000e-01 3.8096922659405323e+00 6.4396820105989434e+00 1.6011265255268852e+00 1 0 0
248 14 1 -1.1500000000000000e-01 -4.1981089412099317e+00 4.0022942322324813e+00 8.7098528063354532e+00 1 0 0
4384 233 2 1.1500000000000000e-01 2.6987810412069346e+00 1.9246419643188406e+00 3.7667571863260569e+00 1 1 0
586 33 1 -1.1500000000000000e-01 2.5377269793155270e+00 5.7092231325704610e+00 5.5965279548259179e+00 1 0 0
587 33 4 -1.1500000000000000e-01 3.3009040665018339e+00 4.7665944608631818e+00 4.9050281063265153e+00 1 0 0
4396 234 5 -1.1500000000000000e-01 -4.7838370238649475e-01 9.2062005148439208e-02 9.1483602678075329e+00 1 1 0
244 14 1 -1.1500000000000000e-01 -4.6082781366176526e+00 2.7582133832840303e+00 8.1584680876551694e+00 1 0 0
987 53 4 -1.1500000000000000e-01 -7.5166518913247637e-01 7.5305937634891587e+00 1.7239380953354315e+00 1 0 0
590 33 1 -1.1500000000000000e-01 2.1488653929136761e+00 6.8770691637826324e+00 4.9518116341975658e+00 1 0 0
584 33 2 1.1500000000000000e-01 2.2858541136739188e+00 8.1325028231197276e+00 3.2241484512350951e+00 1 0 0
4378 233 5 -1.1500000000000000e-01 3.7568413270184284e+00 6.7845520338354282e-01 1.7936934915534812e+00 1 1 0
227 13 4 -1.1500000000000000e-01 -7.2703348692541703e-01 1.9161838438367735e+00 1.5898508142281540e+00 1 0 0
585 33 2 1.1500000000000000e-01 5.5335615974643328e+00 3.6388210230335076e+00 1.0647030362381720e+00 1 0 0
985 53 2 1.1500000000000000e-01 -1.7112555167464576e+00 6.2726454092927506e+00 6.0386161106190404e+00 1 0 0
1493 53 6 0.0000000000000000e+00 -7.9265496301595118e-01 8.5277036011184943e+00 3.1770299980824031e+00 1 0 0
234 13 2 1.1500000000000000e-01 9.1408768476944890e-01 4.7760328424007765e+00 9.7966857133529173e-01 1 0 0
594 33 2 1.1500000000000000e-01 1.5781284911826532e+00 7.5731306352041177e+00 5.5623261564669653e+00 1 0 0
595 34 7 -1.1500000000000000e-01 -9.1321060961023548e-02 5.0505464672498590e+00 8.3936002690149607e+00 1 0 0
981 53 1 -1.1500000000000000e-01 -1.6168277354772271e+00 7.0223891722395635e+00 5.2968960506699210e+00 1 0 0
229 13 4 -1.1500000000000000e-01 -1.6766515342397565e+00 9.3386905490807648e-01 3.5698538171719538e+00 1 0 0
986 53 1 -1.1500000000000000e-01 -2.5197031313681006e-01 8.4924143230190907e+00 8.3439465197805829e-01 1 0 0
583 33 2 1.1500000000000000e-01 3.6026341438377525e+00 7.3952972347468027e+00 1.1584585645908902e+00 1 0 0
4379 233 3 0.0000000000000000e+00 3.5926097656378513e+00 1.0117623953373550e-01 3.1097016540843456e+00 1 1 0
4394 233 2 1.1500000000000000e-01 1.9527109654691621e+00 9.1083032521362728e-01 5.9089095569518388e+00 1 1 0
1081 58 2 1.1500000000000000e-01 3.7440297561505123e+00 7.8565430933526637e+00 6.9174909764480512e+00 1 0 0
1082 58 2 1.1500000000000000e-01 2.7217030391608281e+00 6.3485290529269722e+00 8.5290196862593586e+00 1 0 0
225 13 2 1.1500000000000000e-01 -2.5731792981291637e+00 3.5371464008265485e-01 5.4794716184685086e+00 1 0 0
591 33 2 1.1500000000000000e-01 2.4101088435648141e+00 5.4802417218512698e+00 6.6398588505385696e+00 1 0 0
245 14 4 -1.1500000000000000e-01 -5.1311529741067723e+00 1.6917998948714164e+00 8.8686928807294549e+00 1 0 0
599 34 1 -1.1500000000000000e-01 2.4444386617173475e-01 3.9088739662249270e+00 9.1932543103414304e+00 1 0 0
582 33 2 1.1500000000000000e-01 4.6789154443653729e+00 5.5531438290226927e+00 -1.1556930442786298e-01 1 0 0
596 34 5 -1.1500000000000000e-01 -7.9970680073479006e-01 6.1171281015035053e+00 8.9094229476722262e+00 1 0 0
4401 234 2 1.1500000000000000e-01 -7.3177272527974324e-01 7.9139854506647000e-01 8.3618498776484174e+00 1 1 0
4382 233 2 1.1500000000000000e-01 4.6342941252056074e+00 3.1072855087922624e-01 -1.5560261103334164e-01 1 1 0
231 13 2 1.1500000000000000e-01 2.4610276985209750e-01 2.8191246691897880e+00 -1.8542568270091450e-01 1 0 0
1064 57 2 1.1500000000000000e-01 7.1158924485535513e+00 6.1010577969533157e+00 1.4642736239196872e+00 1 0 0
1005 54 4 -1.1500000000000000e-01 -5.3123359768401883e+00 7.7731466831175799e+00 8.8453769238486863e+00 1 0 0
992 53 2 1.1500000000000000e-01 -9.9717232950612189e-01 6.5747457627346906e+00 1.3256173674054070e+00 1 0 0
235 14 7 -1.1500000000000000e-01 -5.7343600926951490e+00 2.2746898316293267e+00 1.3001925012286913e+01 1 0 0
236 14 5 -1.1500000000000000e-01 -5.1927903049776774e+00 3.3706245038779281e+00 1.2245398963980097e+01 1 0 0
597 34 3 0.0000000000000000e+00 -1.0952134258639017e+00 6.0834349428351100e+00 1.0323290020835605e+01 1 0 0
734 14 6 0.0000000000000000e+00 -5.1690586968516703e+00 2.4795631502251725e+00 1.0721678421993834e+01 1 0 0
239 14 1 -1.1500000000000000e-01 -5.9587436655942518e+00 9.5550024737297468e-01 1.2453392012100993e+01 1 0 0
240 14 2 1.1500000000000000e-01 -5.9985983870797419e+00 2.3538097547877346e+00 1.4025301942389618e+01 1 0 0
995 54 7 -1.1500000000000000e-01 -5.7977625461550755e+00 8.7240513886043072e+00 1.2952089706217173e+01 1 0 0
243 14 2 1.1500000000000000e-01 -6.3464465814135123e+00 1.2224723091193390e-01 1.3067275351466298e+01 1 0 0
4412 234 2 1.1500000000000000e-01 -2.7069109639514757e+00 2.3958588195143999e+00 1.2388789031498533e+01 1 1 0
237 14 3 0.0000000000000000e+00 -4.9067561759710685e+00 3.1457833973463476e+00 1.0885597808328694e+01 1 0 0
4402 234 2 1.1500000000000000e-01 -2.1203595823770280e+00 1.9978404168363122e+00 1.0073144549747155e+01 1 1 0
1029 55 2 1.1500000000000000e-01 -9.7897779704752388e+00 6.1890895740767533e+00 1.8310374831404427e+01 1 0 0
1007 54 4 -1.1500000000000000e-01 -6.0362825131927060e+00 7.1383527405320644e+00 1.1053958789131363e+01 1 0 0
255 15 3 0.0000000000000000e+00 -8.8592379440790765e+00 2.9156842313501472e+00 1.8607077070128891e+01 1 0 0
256 15 4 -1.1500000000000000e-01 -8.2208358734913478e+00 3.6392882600727865e+00 1.7614141426936555e+01 1 0 0
260 15 2 1.1500000000000000e-01 -7.7000855530780825e+00 4.5390982519156724e+00 1.7964056758457236e+01 1 0 0
1006 54 3 0.0000000000000000e+00 -5.4639556765010227e+00 8.0493712944424978e+00 1.0198772957941573e+01 1 0 0
1495 55 6 0.0000000000000000e+00 -8.7326021577348723e+00 8.7554947234049845e+00 1.8074178264389360e+01 1 0 0
264 15 3 0.0000000000000000e+00 -9.5690409430344516e+00 1.7576960157957859e+00 1.8262208587409241e+01 1 0 0
1027 55 2 1.1500000000000000e-01 -8.1001205584597056e+00 8.2432667231567205e+00 1.4720946274703568e+01 1 0 0
266 15 1 -1.1500000000000000e-01 -8.2707828904969691e+00 3.2204834643599582e+00 1.6281666937851732e+01 1 0 0
263 15 4 -1.1500000000000000e-01 -9.4481371812559001e+00 1.2553756070295150e+00 1.6965351930376936e+01 1 0 0
620 35 2 1.1500000000000000e-01 -6.3948654696438725e+00 7.5935006117469959e+00 1.8113786308263922e+01 1 0 0
1371 74 2 1.1500000000000000e-01 5.7069106921931656e-01 8.8159791208518179e+00 1.0050356775902728e+01 1 0 0
735 15 6 0.0000000000000000e+00 -9.2596031473189235e+00 2.3476312649999107e+00 1.8532099427336160e+01 1 0 0
999 54 1 -1.1500000000000000e-01 -6.3010960725907550e+00 7.5059851446338399e+00 1.2417585382842622e+01 1 0 0
1028 55 2 1.1500000000000000e-01 -9.0702438494945383e+00 6.7778350388518884e+00 1.6247743029993138e+01 1 0 0
604 34 1 -1.1500000000000000e-01 -1.7420497656672191e+00 6.0832229469180170e+00 1.3026437375027719e+01 1 0 0
605 34 4 -1.1500000000000000e-01 -1.0360417015306993e+00 4.9973004788493220e+00 1.2472072707136952e+01 1 0 0
606 34 3 0.0000000000000000e+00 -6.9879696831401983e-01 4.9792777445352439e+00 1.1109002009528965e+01 1 0 0
611 34 2 1.1500000000000000e-01 3.4851655604726872e-01 3.0962608174501072e+00 1.1180684007538147e+01 1 0 0
4397 234 3 0.0000000000000000e+00 -9.1156256293104221e-01 2.2556876861022593e-01 1.0511054106011873e+01 1 1 0
754 34 6 0.0000000000000000e+00 -9.6037162029298262e-01 5.4947811508488789e+00 1.0668486437863423e+01 1 0 0
4416 235 4 -1.1500000000000000e-01 -5.8624988135778215e+00 6.2490900600266042e-01 1.8506770999256595e+01 1 1 0
241 14 2 1.1500000000000000e-01 -5.1679981748405295e+00 4.3480144082752297e+00 1.2705711931139279e+01 1 0 0
4409 234 2 1.1500000000000000e-01 -1.9552124066699443e+00 9.3405670353078363e-01 1.4238265259554952e+01 1 1 0
598 34 4 -1.1500000000000000e-01 -1.8313186015291327e+00 7.1704658026098036e+00 1.0831560889251648e+01 1 0 0
265 15 4 -1.1500000000000000e-01 -1.0277698083513600e+01 1.0616064347140912e+00 1.9257452344576183e+01 1 0 0
609 34 2 1.1500000000000000e-01 -1.9714570818579107e+00 5.9898633209566849e+00 1.4054232124926340e+01 1 0 0
613 35 7 -1.1500000000000000e-01 -4.1901534736791062e+00 5.0161729538137632e+00 1.5898683094025106e+01 1 0 0
618 35 2 1.1500000000000000e-01 -4.0710773894767440e+00 5.0954808054787097e+00 1.4835593342408140e+01 1 0 0
615 35 3 0.0000000000000000e+00 -5.1784833435118669e+00 5.7838328624962543e+00 1.8010770735418657e+01 1 0 0
617 35 1 -1.1500000000000000e-01 -3.8105882769640287e+00 3.7782899074921867e+00 1.6525533112259083e+01 1 0 0
621 35 2 1.1500000000000000e-01 -3.3117260981611665e+00 3.0175567160795866e+00 1.5907943200750783e+01 1 0 0
624 35 3 0.0000000000000000e+00 -4.8084902777041005e+00 4.6128262901886865e+00 1.8660125388771714e+01 1 0 0
625 35 4 -1.1500000000000000e-01 -4.1108689894650938e+00 3.6333381630455897e+00 1.7920152761676917e+01 1 0 0
629 35 2 1.1500000000000000e-01 -3.9061489224011794e+00 2.7344925232006783e+00 1.8344600038125968e+01 1 0 0
755 35 6 0.0000000000000000e+00 -4.7995968144295071e+00 5.2745192391416378e+00 1.8341107439211999e+01 1 0 0
270 15 2 1.1500000000000000e-01 -7.6848040907499682e+00 3.7461815606399660e+00 1.5612198030171024e+01 1 0 0
242 14 2 1.1500000000000000e-01 -4.1310888123917717e+00 5.1101509881951603e+00 1.0597217095937751e+01 1 0 0
616 35 4 -1.1500000000000000e-01 -6.1038526989561763e+00 6.6853392940488403e+00 1.8648014199831483e+01 1 0 0
614 35 5 -1.1500000000000000e-01 -4.7656139921518790e+00 6.0470924593677324e+00 1.6681874880351508e+01 1 0 0
247 14 4 -1.1500000000000000e-01 -5.6049794189507542e+00 7.7640341053083706e-01 1.1120085998221777e+01 1 0 0
4419 235 2 1.1500000000000000e-01 -5.1704710687684408e+00 7.3803993904460174e-01 1.5924055536403159e+01 1 1 0
4398 234 4 -1.1500000000000000e-01 -1.7577856986898519e+00 1.3052761754924962e+00 1.0855840094744803e+01 1 1 0
608 34 1 -1.1500000000000000e-01 -2.1905191994222406e+00 7.1515089695293383e+00 1.2191862931863556e+01 1 0 0
1024 55 3 0.0000000000000000e+00 -8.9680635486820535e+00 8.0867649216641748e+00 1.7960804649364700e+01 1 0 0
612 34 2 1.1500000000000000e-01 -2.7596042703604819e+00 7.9292570577865291e+00 1.2709171426958054e+01 1 0 0
607 34 4 -1.1500000000000000e-01 -1.1551588711267158e-02 3.9267975497861354e+00 1.0545232862647946e+01 1 0 0
1003 54 2 1.1500000000000000e-01 -6.8903508413997638e+00 6.7811638942193282e+00 1.2989805503860900e+01 1 0 0
1025 55 4 -1.1500000000000000e-01 -9.5718962540605794e+00 7.0992478891933644e+00 1.8815781118582489e+01 1 0 0
1023 55 4 -1.1500000000000000e-01 -8.7615962578130446e+00 7.7557545223054198e+00 1.6589699551992819e+01 1 0 0
602 34 2 1.1500000000000000e-01 -2.2304153694069595e+00 7.8954407664275390e+00 1.0192677590225218e+01 1 0 0
619 35 2 1.1500000000000000e-01 -5.1142567424160816e+00 6.9274580204613745e+00 1.6207758039701485e+01 1 0 0
262 15 1 -1.1500000000000000e-01 -8.8448610145636586e+00 1.9700958761014906e+00 1.5961504145557971e+01 1 0 0
4408 234 1 -1.1500000000000000e-01 -2.1520325405766245e+00 1.4754051410863600e+00 1.2258045950079916e+01 1 1 0
610 34 2 1.1500000000000000e-01 -7.7285596401878998e-01 4.2506488564817841e+00 1.3227878697251747e+01 1 0 0
246 14 3 0.0000000000000000e+00 -5.2252053602072026e+00 1.8814126885490241e+00 1.0314208365300304e+01 1 0 0
4404 234 1 -1.1500000000000000e-01 -1.6757326381174051e+00 6.4647527250055103e-01 1.3231190169661696e+01 1 1 0
4420 235 2 1.1500000000000000e-01 -6.2361161916374703e+00 1.4944767526124043e+00 1.7992939251823255e+01 1 1 0
1494 54 6 0.0000000000000000e+00 -5.0513756984108049e+00 8.5842465192927158e+00 1.0481899528625956e+01 1 0 0
1022 55 1 -1.1500000000000000e-01 -8.1886132309788078e+00 8.6723646242655636e+00 1.5735617157403635e+01 1 0 0
269 15 2 1.1500000000000000e-01 -1.0719815956299112e+01 5.0737502998529527e-02 1.9096161576713961e+01 1 0 0
238 14 4 -1.1500000000000000e-01 -4.3894907638560143e+00 4.1905385678815463e+00 1.0110063004557459e+01 1 0 0
4414 235 5 -1.1500000000000000e-01 -4.7308876529924095e+00 -2.8829965282335328e-02 1.6476567285549581e+01 1 1 0
1011 54 2 1.1500000000000000e-01 -6.3737442961282245e+00 6.1443022042235382e+00 1.0645864998818778e+01 1 0 0
4436 236 2 1.1500000000000000e-01 -8.0026397153293587e+00 1.2176712549875962e-01 2.2249530855152262e+01 1 1 0
4432 236 5 -1.1500000000000000e-01 -9.1087713051682577e+00 5.8818581128227210e-01 2.4025607787090511e+01 1 1 0
258 15 2 1.1500000000000000e-01 -9.8055742342793479e+00 3.1139049175593452e+00 2.1856421758068276e+01 1 0 0
634 36 4 -1.1500000000000000e-01 -9.9743000387232179e+00 6.8301947740977624e+00 2.6311547711150773e+01 1 0 0
279 16 2 1.1500000000000000e-01 -1.5079450005647653e+01 1.3018876957200427e+00 2.9300819961911781e+01 1 0 0
257 15 1 -1.1500000000000000e-01 -1.0380166373090361e+01 1.5997435830690960e+00 2.0555605019453708e+01 1 0 0
284 16 1 -1.1500000000000000e-01 -1.2539138580194026e+01 2.1345680720995692e+00 2.3736126585348288e+01 1 0 0
648 36 2 1.1500000000000000e-01 -1.0866086172915166e+01 7.0316011416780766e+00 2.8367534494610549e+01 1 0 0
253 15 7 -1.1500000000000000e-01 -9.7169428441744330e+00 2.7838439173498637e+00 2.0914231196103916e+01 1 0 0
288 16 2 1.1500000000000000e-01 -1.1994834711887725e+01 2.5555550386953967e+00 2.2907032265693008e+01 1 0 0
271 16 7 -1.1500000000000000e-01 -1.4054612073903886e+01 2.9430969433907461e+00 2.8304723911387981e+01 1 0 0
272 16 5 -1.1500000000000000e-01 -1.3378152266105962e+01 3.3871737335083307e+00 2.7101944406353436e+01 1 0 0
273 16 3 0.0000000000000000e+00 -1.3252641083660279e+01 2.4951311538224781e+00 2.6020286455728584e+01 1 0 0
274 16 4 -1.1500000000000000e-01 -1.2657052203028202e+01 2.9370941074319883e+00 2.4840602972829338e+01 1 0 0
281 16 4 -1.1500000000000000e-01 -1.3683868029247787e+01 3.4279994499314675e-01 2.4992933322348986e+01 1 0 0
622 35 1 -1.1500000000000000e-01 -5.8359513046383258e+00 5.4204486746265053e+00 2.0691083703024724e+01 1 0 0
277 16 2 1.1500000000000000e-01 -1.3050761290393449e+01 4.4338460447947394e+00 2.7048979980086219e+01 1 0 0
278 16 2 1.1500000000000000e-01 -1.2286984030292357e+01 3.9087344489394114e+00 2.4775376619145433e+01 1 0 0
275 16 1 -1.1500000000000000e-01 -1.4616397019753549e+01 1.6693911544551279e+00 2.8361783665431020e+01 1 0 0
282 16 3 0.0000000000000000e+00 -1.3832896652976533e+01 1.1809415081797394e+00 2.6125351694775237e+01 1 0 0
1043 56 4 -1.1500000000000000e-01 -1.4102780063203394e+01 7.1211987919033977e+00 2.6796836396945146e+01 1 0 0
736 16 6 0.0000000000000000e+00 -1.3676989994813226e+01 1.8879674667279105e+00 2.6008794030161937e+01 1 0 0
632 36 5 -1.1500000000000000e-01 -8.9913323070531064e+00 6.4570000157544882e+00 2.4163816458406277e+01 1 0 0
636 36 2 1.1500000000000000e-01 -8.4026716112088753e+00 5.8907490898422461e+00 2.2180232280450454e+01 1 0 0
4438 236 2 1.1500000000000000e-01 -1.0577478341653013e+01 1.9648249929410058e+00 2.5887843169817604e+01 1 1 0
1045 56 2 1.1500000000000000e-01 -1.2163221388210260e+01 7.6633946089718528e+00 2.2648011199054110e+01 1 0 0
261 15 2 1.1500000000000000e-01 -1.0997203440329759e+01 1.1141701508849824e+00 2.1298775805372184e+01 1 0 0
1035 56 1 -1.1500000000000000e-01 -1.4277325006413189e+01 7.7071710328689829e+00 2.8088423766651221e+01 1 0 0
644 36 1 -1.1500000000000000e-01 -1.0257989810590683e+01 6.3977919402125583e+00 2.7625291019555394e+01 1 0 0
631 36 7 -1.1500000000000000e-01 -8.4314979601536990e+00 5.5766871875837385e+00 2.3218266451366816e+01 1 0 0
635 36 1 -1.1500000000000000e-01 -7.8941154615724836e+00 4.2975617110966295e+00 2.3527809747836013e+01 1 0 0
638 36 2 1.1500000000000000e-01 -1.0382468294048332e+01 7.7517684815863914e+00 2.5993849743312481e+01 1 0 0
639 36 2 1.1500000000000000e-01 -7.4180150764289481e+00 3.7608478022072158e+00 2.2748498040718957e+01 1 0 0
630 35 2 1.1500000000000000e-01 -6.9544865213941600e+00 7.3607492163634411e+00 2.0323156540621177e+01 1 0 0
1046 56 2 1.1500000000000000e-01 -1.3562200659418956e+01 6.3512417643984307e+00 2.4218821793541558e+01 1 0 0
646 36 2 1.1500000000000000e-01 -8.7484556235552162e+00 3.2677494686537649e+00 2.7441180586839991e+01 1 0 0
1017 55 1 -1.1500000000000000e-01 -9.7564023445416268e+00 7.2995547412011321e+00 2.0129237141651128e+01 1 0 0
633 36 3 0.0000000000000000e+00 -9.2894129334468154e+00 6.0188803220153622e+00 2.5412096316964622e+01 1 0 0
4437 236 2 1.1500000000000000e-01 -9.3468541114011909e+00 1.5573059616199796e+00 2.3583920834180237e+01 1 1 0
640 36 1 -1.1500000000000000e-01 -9.8109777131339193e+00 5.1247132528924588e+00 2.7995494016674563e+01 1 0 0
641 36 4 -1.1500000000000000e-01 -9.1368139879112000e+00 4.2754393829075594e+00 2.7104769934110966e+01 1 0 0
642 36 3 0.0000000000000000e+00 -8.8046755498360607e+00 4.7230194575158793e+00 2.5810336137725947e+01 1 0 0
643 36 4 -1.1500000000000000e-01 -8.0565884659337357e+00 3.8791828539410700e+00 2.4875600058655628e+01 1 0 0
626 35 1 -1.1500000000000000e-01 -6.3806978921927060e+00 6.5530543082619728e+00 2.0011109060349522e+01 1 0 0
1040 56 1 -1.1500000000000000e-01 -1.2560693948512743e+01 8.1276948704264314e+00 2.3554474641113824e+01 1 0 0
647 36 2 1.1500000000000000e-01 -7.7484238068526379e+00 2.8848890252297559e+00 2.5226049082909725e+01 1 0 0
756 36 6 0.0000000000000000e+00 -9.1703128184473428e+00 5.3221284993618179e+00 2.5582511581853325e+01 1 0 0
1041 56 4 -1.1500000000000000e-01 -1.3236013913583546e+01 7.3673143444162337e+00 2.4504593767880387e+01 1 0 0
4434 236 4 -1.1500000000000000e-01 -1.0252976662756964e+01 9.6909264306229648e-01 2.6165108012293125e+01 1 1 0
4430 235 2 1.1500000000000000e-01 -7.0376058347891464e+00 1.1291367871111320e+00 2.0155479939322422e+01 1 1 0
1042 56 3 0.0000000000000000e+00 -1.3541157499084505e+01 7.8545020948171000e+00 2.5808221922361799e+01 1 0 0
627 35 2 1.1500000000000000e-01 -6.0079838832569870e+00 5.1855934754124142e+00 2.1743357191918101e+01 1 0 0
1021 55 2 1.1500000000000000e-01 -1.0171345826376353e+01 6.4803899280284130e+00 2.0653290705676369e+01 1 0 0
1039 56 2 1.1500000000000000e-01 -1.4791039391659297e+01 7.1422702876818072e+00 2.8873508502192884e+01 1 0 0
276 16 2 1.1500000000000000e-01 -1.4129419553090987e+01 3.5141658665722959e+00 2.9237199737607746e+01 1 0 0
285 16 2 1.1500000000000000e-01 -1.2792945884264007e+01 1.7704693168949631e-01 2.2928623365758529e+01 1 0 0
4444 236 1 -1.1500000000000000e-01 -1.0500229500084849e+01 5.1637642998042610e-01 2.7497292196741945e+01 1 1 0
4448 236 2 1.1500000000000000e-01 -1.1187442790761732e+01 1.1243844542065158e+00 2.8084367372981944e+01 1 1 0
1496 56 6 0.0000000000000000e+00 -1.3365615438308806e+01 8.5338828948898708e+00 2.5930154854527334e+01 1 0 0
645 36 2 1.1500000000000000e-01 -1.0088844982760527e+01 4.7424030179787842e+00 2.9033763162953694e+01 1 0 0
637 36 2 1.1500000000000000e-01 -9.4661930673012122e+00 7.4331342188448764e+00 2.3802935754385992e+01 1 0 0
623 35 4 -1.1500000000000000e-01 -5.0929972239422350e+00 4.4484167935198267e+00 1.9993010421227876e+01 1 0 0
283 16 4 -1.1500000000000000e-01 -1.4514393935165359e+01 7.9961077040795459e-01 2.7279909979128490e+01 1 0 0
4426 235 1 -1.1500000000000000e-01 -6.2414428385791947e+00 4.1088142642394093e-01 1.9815602467052663e+01 1 1 0
628 35 2 1.1500000000000000e-01 -4.8227208513499473e+00 3.5176820004734068e+00 2.0540456866723897e+01 1 0 0
259 15 2 1.1500000000000000e-01 -8.5836566010051900e+00 4.4640736450747767e+00 2.0164056577521880e+01 1 0 0
280 16 1 -1.1500000000000000e-01 -1.2900638969876818e+01 8.4165115888500741e-01 2.3842640303026261e+01 1 0 0
1013 55 7 -1.1500000000000000e-01 -9.3488438055864940e+00 8.5115416042503504e+00 2.0697180650141764e+01 1 0 0
4433 236 3 0.0000000000000000e+00 -9.5405626742811105e+00 1.3579261138404167e-01 2.5324170884488524e+01 1 1 0
1047 56 2 1.1500000000000000e-01 -1.4330528926450915e+01 6.0781575921068542e+00 2.6506645502286229e+01 1 0 0
254 15 5 -1.1500000000000000e-01 -8.9230657850217838e+00 3.4478224037050147e+00 1.9955589670457684e+01 1 0 0
1018 55 2 1.1500000000000000e-01 -9.4466599075335722e+00 8.7429476101747401e+00 2.1743218945749963e+01 1 0 0
1118 60 2 1.1500000000000000e-01 -5.5435165982779884e+00 6.8807872061726707e+00 2.3414638374068037e+01 1 0 0
2097 113 7 -1.1500000000000000e-01 4.1395241204088409e+00 1.7486572739726878e+01 1.1319742895580904e+00 1 0 0
980 53 4 -1.1500000000000000e-01 -1.5430695891185398e-01 1.0091384480866477e+01 2.7085473902392958e+00 1 0 0
984 53 2 1.1500000000000000e-01 2.3902925033453482e-02 1.1028182506691232e+01 3.0745783604576662e+00 1 0 0
1752 93 2 1.1500000000000000e-01 -1.1031728117535422e+00 1.2524729723926448e+01 1.9112334215304858e+00 1 0 0
1747 93 4 -1.1500000000000000e-01 -7.8821525777351031e-01 1.3427563413559131e+01 2.2784963286950264e+00 1 0 0
2253 93 6 0.0000000000000000e+00 -1.0433584824803213e+00 1.4378535699849262e+01 3.7935534325334999e+00 1 0 0
1342 73 2 1.1500000000000000e-01 5.2459422529150670e+00 1.2056996471606940e+01 -1.2250586102179364e-01 1 0 0
1741 93 1 -1.1500000000000000e-01 -2.3637522848911203e+00 1.3262815886059975e+01 5.6254801335325775e+00 1 0 0
2105 113 2 1.1500000000000000e-01 4.9804051910841913e+00 1.5560984080959038e+01 8.9529635308075739e-01 1 0 0
983 53 2 1.1500000000000000e-01 -5.0718899088272673e-01 1.0348349972519395e+01 5.3824545618643320e+00 1 0 0
979 53 3 0.0000000000000000e+00 -6.3243614221873412e-01 9.0898643795972305e+00 3.6056863032874844e+00 1 0 0
2106 113 1 -1.1500000000000000e-01 2.5121145814311618e+00 1.7213637802049643e+01 5.8597430212948645e+00 1 0 0
1751 93 2 1.1500000000000000e-01 1.9988792878540629e-01 1.3950868177330285e+01 5.5444714508724136e-01 1 0 0
1746 93 1 -1.1500000000000000e-01 -7.3006579518124726e-02 1.4341007225017552e+01 1.5351624770913650e+00 1 0 0
1338 73 5 -1.1500000000000000e-01 3.9225307679008932e+00 1.2495568241269263e+01 1.6057355894470553e+00 1 0 0
1339 73 3 0.0000000000000000e+00 3.3729673536057128e+00 1.2035555158451519e+01 2.8060693061672826e+00 1 0 0
1340 73 4 -1.1500000000000000e-01 2.3221888357603580e+00 1.2722273137404658e+01 3.3595060249389155e+00 1 0 0
1341 73 1 -1.1500000000000000e-01 5.1099104313607180e+00 1.0387296096800124e+01 1.3049674994446496e+00 1 0 0
1337 73 7 -1.1500000000000000e-01 4.8175001506595079e+00 1.1704920372364258e+01 8.4122947751722976e-01 1 0 0
1343 73 2 1.1500000000000000e-01 3.5949083082990012e+00 1.3383107197974327e+01 1.1121151879315236e+00 1 0 0
1348 73 3 0.0000000000000000e+00 3.7952546564610641e+00 1.0798429344802125e+01 3.3121503924966613e+00 1 0 0
1349 73 4 -1.1500000000000000e-01 4.6723628123482381e+00 1.0012796133158160e+01 2.5541120767775478e+00 1 0 0
1513 73 6 0.0000000000000000e+00 3.6353690715068305e+00 1.1356781303542165e+01 2.9107273050813012e+00 1 0 0
978 53 5 -1.1500000000000000e-01 -8.1519921289282937e-01 9.4148337912985998e+00 4.9507062975836380e+00 1 0 0
1354 73 2 1.1500000000000000e-01 1.0343318255392480e+00 1.2918160681223187e+01 5.0940034423628990e+00 1 0 0
1346 73 1 -1.1500000000000000e-01 2.2805192571721937e+00 1.1116064416226855e+01 5.1665787082670880e+00 1 0 0
1347 73 4 -1.1500000000000000e-01 3.3095825072100360e+00 1.0381256666249888e+01 4.5409176783052834e+00 1 0 0
1350 73 1 -1.1500000000000000e-01 1.7838574338744211e+00 1.2304974920844066e+01 4.5496326328747365e+00 1 0 0
2112 113 2 1.1500000000000000e-01 3.4514788184095058e+00 1.5337898276782004e+01 5.4072303191604369e+00 1 0 0
1352 73 2 1.1500000000000000e-01 3.4483640373621336e+00 9.4195828604914347e+00 5.0276369016332314e+00 1 0 0
1745 93 2 1.1500000000000000e-01 -2.8575640540652456e+00 1.2514545082805370e+01 6.2065527518908654e+00 1 0 0
1355 74 7 -1.1500000000000000e-01 -2.9921435753605508e-02 1.1539868863154574e+01 8.2682552603832367e+00 1 0 0
990 53 1 -1.1500000000000000e-01 7.6223877952232955e-02 9.7848728679976915e+00 1.3934935078633262e+00 1 0 0
1360 74 2 1.1500000000000000e-01 1.1825007291417489e-01 1.1883259364291927e+01 7.2706504214730190e+00 1 0 0
2119 114 1 -1.1500000000000000e-01 -5.7270416813010705e-02 1.6540204257212093e+01 8.8958822570359395e+00 1 0 0
1748 93 3 0.0000000000000000e+00 -1.2636046876944906e+00 1.3799102223758844e+01 3.5308384654965468e+00 1 0 0
2102 113 2 1.1500000000000000e-01 4.4136635094685852e+00 1.7745971167490723e+01 6.0262050731714312e-02 1 0 0
1345 73 2 1.1500000000000000e-01 5.8087170634345933e+00 9.7546474348179917e+00 7.7196937340169480e-01 1 0 0
2101 113 1 -1.1500000000000000e-01 4.5094466577709724e+00 1.6194451159306531e+01 1.5828894218030951e+00 1 0 0
1749 93 4 -1.1500000000000000e-01 -2.0547937828561329e+00 1.2925218172071062e+01 4.2775012537563919e+00 1 0 0
1754 93 2 1.1500000000000000e-01 9.3981061368894792e-01 1.6239720051730533e+01 1.5400466912079189e+00 1 0 0
1344 73 2 1.1500000000000000e-01 1.9185550279393169e+00 1.3628453286296917e+01 2.9709411326699859e+00 1 0 0
1737 93 7 -1.1500000000000000e-01 -1.8468179368877382e+00 1.4449356181145310e+01 6.2232010672452818e+00 1 0 0
1740 93 4 -1.1500000000000000e-01 -4.6353740037246904e-02 1.5925687999525085e+01 3.4083650511249339e+00 1 0 0
1744 93 2 1.1500000000000000e-01 3.8584491128153164e-01 1.6797234224781594e+01 3.9196658307778804e+00 1 0 0