LAMMPS (15 May 2015)
Reading data file ...
  triclinic box = (-0.107635 -0.0404339 -0.357111) to (41.3876 35.9384 29.5551) with tilt (-0.0672341 -17.0362 -0.0417078)
  5 by 4 by 3 MPI processor grid
  reading atoms ...
  4560 atoms
  reading velocities ...
  4560 velocities
  scanning bonds ...
  3 = max bonds/atom
  scanning angles ...
  3 = max angles/atom
  scanning dihedrals ...
  8 = max dihedrals/atom
  scanning impropers ...
  1 = max impropers/atom
  reading bonds ...
  5040 bonds
  reading angles ...
  7200 angles
  reading dihedrals ...
  10560 dihedrals
  reading impropers ...
  2400 impropers
Finding 1-2 1-3 1-4 neighbors ...
 Special bond factors lj:   0          0          0         
 Special bond factors coul: 0          0          0         
  4 = max # of 1-2 neighbors
  8 = max # of 1-3 neighbors
  20 = max # of 1-4 neighbors
  16 = max # of special neighbors
4560 atoms in group all
720 atoms in group C
480 atoms in group S
1920 atoms in group H
720 atoms in group Si
240 atoms in group Na
240 atoms in group Ba
240 atoms in group O
4560 atoms in group naphthalene
1200 atoms in group fixed
960 atoms in group CO
Setting atom values ...
  720 settings made for charge
Setting atom values ...
  720 settings made for charge
Setting atom values ...
  1920 settings made for charge
Setting atom values ...
  480 settings made for charge
Setting atom values ...
  240 settings made for charge
Setting atom values ...
  240 settings made for charge
Setting atom values ...
  240 settings made for charge
Finding 1-2 1-3 1-4 neighbors ...
 Special bond factors lj:   0          0          0.5       
 Special bond factors coul: 0          0          0.5       
  4 = max # of 1-2 neighbors
  8 = max # of 1-3 neighbors
  20 = max # of 1-4 neighbors
  16 = max # of special neighbors
PPPM initialization ...
  G vector (1/distance) = 0.246499
  grid = 16 16 20
  stencil order = 5
  estimated absolute RMS force accuracy = 0.00242397
  estimated relative force accuracy = 7.2997e-06
  using double precision FFTs
  3d grid and FFT values/proc = 1053 112
Neighbor list info ...
  4 neighbor list requests
  update every 1 steps, delay 0 steps, check yes
  master list distance cutoff = 12
Setting up run ...
Memory usage per processor = 13.288 Mbytes
Step Temp Density PotEng E_vdwl E_tail E_coul E_long Press Volume Xy Xz Yz E_mol E_bond E_angle E_dihed 14[1] 14[2] 14[3] msd[4] msd2[4] msd3[4] msd4[4] naphthal Cella Cellb Cellc CellAlpha CellBeta CellGamma 27[2] 27[3] 28[1] 28[2] 28[3] 
       0          298    1.2509986    2087.5869   -1173.1339   -211.49952    2070.8667    -2308.979    790.88859    44657.537 -0.067234084   -17.036218 -0.041707817     3498.833    1521.0094     935.4334    889.67826    28.379601    18.846571    14.337846 2.3535127e-29 2.3910021e-29 2.7538641e-29 3.294809e-29          298     41.49527    35.978931    34.423473    90.016431    119.66323    90.107069    18.846182    14.337739    28.379557    18.849013    14.339638 
    1000    297.97099    1.2509986    2120.5178   -1131.2743   -211.49952    2072.7219   -2309.3534    -422.2699    44657.537 -0.067234084   -17.036218 -0.041707817    3488.4235    1540.0761    925.33853    875.60108    28.379601    18.846571    14.337846   0.17734569   0.17734428   0.14328268    0.1432696    297.97099     41.49527    35.978931    34.423473    90.016431    119.66323    90.107069    18.847265    14.338083    28.383095    18.848739     14.34034 
    2000    299.45257    1.2509986    2051.4942   -1197.4991   -211.49952      2075.46   -2309.2556   -1530.8734    44657.537 -0.067234084   -17.036218 -0.041707817     3482.789    1526.2566     964.8339    842.57438    28.379601    18.846571    14.337846   0.24072173   0.24071369   0.20501971   0.20485076    299.45257     41.49527    35.978931    34.423473    90.016431    119.66323    90.107069    18.848503    14.336222    28.385803    18.856096    14.330708 
    3000    296.00997    1.2509986    2204.3537   -1160.9096   -211.49952    2076.0383   -2308.8803    701.53424    44657.537 -0.067234084   -17.036218 -0.041707817    3598.1053    1580.6372    945.28338    908.66286    28.379601    18.846571    14.337846   0.28924204   0.28923622   0.24630718   0.24621248    296.00997     41.49527    35.978931    34.423473    90.016431    119.66323    90.107069     18.84614    14.338017    28.371178    18.844074    14.339296 
    4000    293.18683    1.2509986    2116.5725   -1187.9765   -211.49952    2068.5185   -2310.0453   -1656.6551    44657.537 -0.067234084   -17.036218 -0.041707817    3546.0759     1541.472    978.66251    881.51126    28.379601    18.846571    14.337846   0.28536518   0.28536085   0.23786572   0.23775311    293.18683     41.49527    35.978931    34.423473    90.016431    119.66323    90.107069    18.845355    14.337408    28.388919    18.845226     14.33638 
    5000    293.59443    1.2509986    2090.2815   -1159.9296   -211.49952    2074.9148   -2309.7241   -227.90252    44657.537 -0.067234084   -17.036218 -0.041707817    3485.0205    1525.1187     932.0667    877.78999    28.379601    18.846571    14.337846   0.29080376   0.29080051   0.23695774   0.23691838    293.59443     41.49527    35.978931    34.423473    90.016431    119.66323    90.107069     18.84795    14.338086    28.380252    18.851086    14.333757 
    6000    292.09082    1.2509986    2061.7345   -1158.8333   -211.49952    2071.3267   -2309.6231    1428.7598    44657.537 -0.067234084   -17.036218 -0.041707817    3458.8642    1532.9391    937.40328    844.60079    28.379601    18.846571    14.337846    0.3042213   0.30421358   0.24525504    0.2451699    292.09082     41.49527    35.978931    34.423473    90.016431    119.66323    90.107069    18.846565    14.336649    28.374221    18.849733    14.332144 
    7000    299.39926    1.2509986    2175.3751   -1138.1666   -211.49952    2076.7454   -2308.5894    1517.9623    44657.537 -0.067234084   -17.036218 -0.041707817    3545.3857    1555.3942    977.49227    864.22448    28.379601    18.846571    14.337846   0.32252432   0.32252265   0.27114929   0.27112159    299.39926     41.49527    35.978931    34.423473    90.016431    119.66323    90.107069    18.845911    14.338955    28.378287    18.844609    14.342224 
    8000    301.20173    1.2509986    2131.3558   -1204.1228   -211.49952    2073.4546   -2309.6736   -2348.7603    44657.537 -0.067234084   -17.036218 -0.041707817    3571.6976    1585.9315      972.911    866.22169    28.379601    18.846571    14.337846   0.33478336   0.33478228   0.28693676    0.2868427    301.20173     41.49527    35.978931    34.423473    90.016431    119.66323    90.107069    18.845852    14.338438    28.379175    18.840223     14.34372 
    9000    302.54481    1.2509986    2308.8539   -1116.4231   -211.49952    2075.8606   -2308.7095    446.94113    44657.537 -0.067234084   -17.036218 -0.041707817    3658.1259    1623.2371    998.51485    886.34445    28.379601    18.846571    14.337846   0.32165844   0.32165658    0.2753004    0.2752707    302.54481     41.49527    35.978931    34.423473    90.016431    119.66323    90.107069    18.847185    14.336815    28.381412    18.846134      14.3354 
   10000    296.22683    1.2509986    2122.2746   -1188.0295   -211.49952    2075.8485   -2309.1259    -891.7076    44657.537 -0.067234084   -17.036218 -0.041707817    3543.5815    1594.5661    931.66982    872.24247    28.379601    18.846571    14.337846    0.3035959   0.30359355   0.25432297   0.25421109    296.22683     41.49527    35.978931    34.423473    90.016431    119.66323    90.107069    18.847458    14.336898    28.381953    18.845605    14.329916 
   11000    293.21334    1.2509986    2157.2064   -1196.0969   -211.49952    2072.4301   -2309.4053   -1410.4753    44657.537 -0.067234084   -17.036218 -0.041707817    3590.2786    1620.1668    960.39739    858.59682    28.379601    18.846571    14.337846   0.31321609   0.31320484   0.24671589   0.24660023    293.21334     41.49527    35.978931    34.423473    90.016431    119.66323    90.107069    18.843886    14.337199    28.380146    18.838531     14.34197 
   12000     298.5782    1.2509986    2250.7246   -1163.3312   -211.49952    2080.5452   -2309.0776   -326.36105    44657.537 -0.067234084   -17.036218 -0.041707817    3642.5882    1638.2081    968.05579    885.76123    28.379601    18.846571    14.337846   0.34906597   0.34904747     0.290411   0.29022908     298.5782     41.49527    35.978931    34.423473    90.016431    119.66323    90.107069     18.84806    14.338814    28.392724    18.850173    14.336958 
   13000    303.79692    1.2509986    2154.8812   -1169.3113   -211.49952    2077.3862   -2309.4797   -341.91674    44657.537 -0.067234084   -17.036218 -0.041707817     3556.286    1570.5983    953.16036     880.1382    28.379601    18.846571    14.337845   0.32253762   0.32253304   0.27284185   0.27280801    303.79692     41.49527    35.978931    34.423473    90.016431    119.66323    90.107069    18.846989    14.337842    28.374111    18.850371    14.341169 
   14000    299.27699    1.2509986    2185.2208   -1160.1989   -211.49952    2078.5831   -2309.5066    389.10982    44657.537 -0.067234084   -17.036218 -0.041707817    3576.3432    1597.0444    925.68825    902.21943    28.379601    18.846571    14.337845   0.30934733   0.30934584   0.24873438   0.24870242    299.27699     41.49527    35.978931    34.423473    90.016431    119.66323    90.107069    18.846945    14.337652     28.38519    18.848585    14.339853 
   15000    294.69991    1.2509986    2063.3723   -1145.9261   -211.49952    2083.1589   -2309.3167      1787.26    44657.537 -0.067234084   -17.036218 -0.041707817    3435.4562    1488.2903     937.7722    860.41335    28.379601     18.84657    14.337845   0.31917117   0.31917068   0.25241427   0.25238137    294.69991     41.49527    35.978931    34.423473    90.016431    119.66323    90.107069    18.846596    14.338141    28.377908    18.850997    14.344761 
   16000    291.67363    1.2509986    2206.1094   -1180.1086   -211.49952    2076.3303   -2309.8041    184.63103    44657.537 -0.067234084   -17.036218 -0.041707817    3619.6917    1620.8932    931.71039      908.995    28.379601     18.84657    14.337845   0.30367609   0.30365888   0.24064834   0.24030594    291.67363     41.49527    35.978931    34.423473    90.016431    119.66323    90.107069    18.847248    14.339635    28.395488     18.84716    14.348867 
   17000    298.76157    1.2509986     2140.018   -1172.1006   -211.49952    2074.0679     -2309.44   -460.39596    44657.537 -0.067234084   -17.036218 -0.041707817    3547.4907    1547.7787     948.4835    895.62039    28.379601     18.84657    14.337845   0.31767284   0.31767152   0.25703929   0.25697442    298.76157     41.49527    35.978931    34.423473    90.016431    119.66323    90.107069    18.845804    14.337641    28.372445    18.845384    14.340705 
   18000    302.95451    1.2509986    2134.5242     -1163.93   -211.49952    2078.6616   -2309.1187   -148.54021    44657.537 -0.067234084   -17.036218 -0.041707817    3528.9114    1555.1495    948.55685    873.22231    28.379601     18.84657    14.337845   0.34467332   0.34467083   0.29784252   0.29777455    302.95451     41.49527    35.978931    34.423473    90.016431    119.66323    90.107069    18.846062      14.3393    28.381888    18.844293    14.345983 
   19000    306.87034    1.2509986    2163.2126   -1190.6358   -211.49952    2076.3892   -2309.4789   -1763.5922    44657.537 -0.067234084   -17.036218 -0.041707817     3586.938    1621.0788    933.18391    880.67232    28.379601     18.84657    14.337845   0.32166375   0.32165814   0.26456619   0.26455375    306.87034     41.49527    35.978931    34.423473    90.016431    119.66323    90.107069    18.847558    14.337991     28.37778    18.851492    14.337865 
   20000    293.76005    1.2509986    2115.1555   -1200.4585   -211.49952    2077.5042   -2309.5054   -1386.9298    44657.537 -0.067234084   -17.036218 -0.041707817    3547.6152    1578.5544     958.8756    860.94053    28.379601     18.84657    14.337845   0.30948041   0.30947972   0.26997632   0.26981857    293.76005     41.49527    35.978931    34.423473    90.016431    119.66323    90.107069    18.846714    14.337384    28.370545    18.846114    14.331384 
   21000    297.29558    1.2509986    2055.4549   -1183.8475   -211.49952    2082.2595   -2308.8992   -1985.8865    44657.537 -0.067234084   -17.036218 -0.041707817    3465.9422    1523.3848    935.64423    857.20514    28.379601     18.84657    14.337845   0.32074962   0.32074528   0.26650551   0.26641508    297.29558     41.49527    35.978931    34.423473    90.016431    119.66323    90.107069    18.847166    14.339573    28.372201    18.849327    14.345657 
   22000    300.80483    1.2509986    2126.0118   -1196.1964   -211.49952    2073.7332   -2309.5191   -488.05626    44657.537 -0.067234084   -17.036218 -0.041707817    3557.9941    1616.0573    921.55828    868.42383    28.379601     18.84657    14.337845   0.32282871   0.32282494   0.26872361   0.26869736    300.80483     41.49527    35.978931    34.423473    90.016431    119.66323    90.107069    18.847589    14.338882    28.379024    18.851471    14.344101 
   23000    295.64301    1.2509986    2122.5395   -1196.7442   -211.49952    2078.1779   -2309.4488   -574.55248    44657.537 -0.067234084   -17.036218 -0.041707817    3550.5546    1583.0287     946.3514    871.60324    28.379601     18.84657    14.337845     0.310633   0.31063062   0.26134465   0.26124183    295.64301     41.49527    35.978931    34.423473    90.016431    119.66323    90.107069    18.846105    14.337486    28.370433    18.844878    14.341215 
   24000    294.06388    1.2509986    2128.7313   -1194.8813   -211.49952    2075.4217   -2309.2329   -1616.4819    44657.537 -0.067234084   -17.036218 -0.041707817    3557.4237    1589.7879    945.02641    872.48963    28.379601     18.84657    14.337845   0.32187541   0.32187507   0.26180215   0.26177509    294.06388     41.49527    35.978931    34.423473    90.016431    119.66323    90.107069    18.845692    14.337944    28.378101    18.844138     14.34072 
   25000     304.7035    1.2509986    2041.9476   -1196.0277   -211.49952    2076.4689   -2309.6255   -6.2257202    44657.537 -0.067234084   -17.036218 -0.041707817    3471.1319    1549.2958    912.17728     861.0109    28.379601     18.84657    14.337845   0.31680546   0.31679265   0.26475911   0.26463273     304.7035     41.49527    35.978931    34.423473    90.016431    119.66323    90.107069     18.84717    14.336479    28.370489    18.852574    14.334028 
   26000    302.40526    1.2509986    2100.2329   -1161.5195   -211.49952    2077.8278   -2309.4064    173.73134    44657.537 -0.067234084   -17.036218 -0.041707817    3493.3309    1542.5772    971.46092    834.23356    28.379601     18.84657    14.337845   0.31968089   0.31967887   0.26763968   0.26758204    302.40526     41.49527    35.978931    34.423473    90.016431    119.66323    90.107069    18.846604    14.336928    28.377375    18.845538    14.333251 
   27000    300.81956    1.2509986    2086.3757   -1186.9966   -211.49952    2074.3388   -2309.7077   -585.45782    44657.537 -0.067234084   -17.036218 -0.041707817    3508.7411     1572.563    942.15012    851.84391    28.379601     18.84657    14.337845   0.32378808   0.32378787   0.26652725   0.26650146    300.81956     41.49527    35.978931    34.423473    90.016431    119.66323    90.107069     18.84593    14.337351    28.382958    18.846845    14.336552 
   28000    302.86269    1.2509986    2135.4809   -1175.4421   -211.49952    2078.3592   -2309.8116    1096.2539    44657.537 -0.067234084   -17.036218 -0.041707817    3542.3754    1567.6697     933.5052    882.60015    28.379601     18.84657    14.337845   0.32826892   0.32826209   0.28168641   0.28142433    302.86269     41.49527    35.978931    34.423473    90.016431    119.66323    90.107069      18.8484    14.336998    28.367386    18.856445    14.331974 
   29000    305.14146    1.2509986    2219.3512   -1189.4464   -211.49952    2072.4725   -2310.0329   -1351.6865    44657.537 -0.067234084   -17.036218 -0.041707817    3646.3581    1650.2225    939.47602    901.91196    28.379601     18.84657    14.337845   0.33655715   0.33654945   0.28549597   0.28521746    305.14146     41.49527    35.978931    34.423473    90.016431    119.66323    90.107069    18.845641    14.335758    28.384827    18.842055    14.325415 
   30000    301.52031    1.2509986    2204.1989    -1150.196   -211.49952    2075.3593   -2309.6138    1810.7806    44657.537 -0.067234084   -17.036218 -0.041707817    3588.6494    1576.0488    969.37081    889.95297    28.379601     18.84657    14.337845   0.35041417   0.35039853   0.29935856    0.2991628    301.52031     41.49527    35.978931    34.423473    90.016431    119.66323    90.107069    18.845757    14.336114    28.373904    18.840453    14.330123 
   31000    298.13634    1.2509986    2022.5304    -1177.115   -211.49952    2085.3355   -2308.8434    1421.0159    44657.537 -0.067234084   -17.036218 -0.041707817    3423.1534    1515.8289    908.54122    846.68113    28.379601     18.84657    14.337845   0.34846711   0.34846537   0.29305327   0.29302612    298.13634     41.49527    35.978931    34.423473    90.016431    119.66323    90.107069    18.847107    14.338425    28.381719    18.852496    14.342854 
   32000    298.96804    1.2509986    2171.5384   -1169.3825   -211.49952    2078.1688    -2309.542    807.65539    44657.537 -0.067234084   -17.036218 -0.041707817    3572.2941    1556.5903    977.75788    886.00572    28.379601     18.84657    14.337845   0.37263267   0.37262826   0.32125003   0.32115783    298.96804     41.49527    35.978931    34.423473    90.016431    119.66323    90.107069    18.846439    14.338495    28.388352    18.845375    14.340909 
   33000    295.89775    1.2509986    2103.2141   -1191.8139   -211.49952    2072.3503   -2309.6396   -1286.8558    44657.537 -0.067234084   -17.036218 -0.041707817    3532.3173    1591.5945    896.02018    891.10687    28.379601     18.84657    14.337845   0.36933678   0.36932868   0.34028233   0.34004021    295.89775     41.49527    35.978931    34.423473    90.016431    119.66323    90.107069    18.846418    14.338478    28.394917    18.846711    14.340586 
   34000    298.94415    1.2509986    2097.1403   -1173.3057   -211.49952    2074.6284    -2309.344   -166.57221    44657.537 -0.067234084   -17.036218 -0.041707817    3505.1617    1558.1291    922.76108    873.69333    28.379601     18.84657    14.337845   0.37287153   0.37286871   0.31279776   0.31276312    298.94415     41.49527    35.978931    34.423473    90.016431    119.66323    90.107069    18.847129    14.338084    28.379975    18.849796     14.33382 
   35000     293.3492    1.2509986    2145.6048   -1194.1628   -211.49952    2079.3725   -2309.0447   -1512.5084    44657.537 -0.067234084   -17.036218 -0.041707817    3569.4398    1559.1123    953.05575    903.87188    28.379601     18.84657    14.337845   0.39793625   0.39793547   0.34193017   0.34191144     293.3492     41.49527    35.978931    34.423473    90.016431    119.66323    90.107069    18.846463    14.337567     28.37696    18.845553    14.339501 
   36000    301.16525    1.2509986    2235.3625   -1150.4156   -211.49952    2078.7676   -2309.7743    1104.6145    44657.537 -0.067234084   -17.036218 -0.041707817    3616.7848    1608.9259    963.87527    890.90827    28.379601     18.84657    14.337845   0.39562386   0.39561953    0.3399311   0.33986695    301.16525     41.49527    35.978931    34.423473    90.016431    119.66323    90.107069    18.846886    14.337514     28.38585    18.844747    14.342159 
   37000    299.50177    1.2509986    2083.7661   -1184.3668   -211.49952    2075.0256   -2309.3805    -204.6232    44657.537 -0.067234084   -17.036218 -0.041707817    3502.4878    1563.4537    949.67714    843.31587    28.379601     18.84657    14.337845   0.38988063   0.38987583   0.33605589   0.33579424    299.50177     41.49527    35.978931    34.423473    90.016431    119.66323    90.107069    18.847315    14.336295     28.37923    18.849767    14.323483 
   38000    299.20444    1.2509986    2042.9994   -1133.2054   -211.49952      2072.95   -2309.5307    1374.6493    44657.537 -0.067234084   -17.036218 -0.041707817    3412.7855    1535.7064    900.74072    831.88433    28.379601     18.84657    14.337845   0.40453004   0.40452884   0.35775261   0.35770144    299.20444     41.49527    35.978931    34.423473    90.016431    119.66323    90.107069    18.846719    14.336816    28.385235     18.84574    14.336773 
   39000    293.62318    1.2509986    2141.4556   -1161.2037   -211.49952    2078.1701   -2309.1941    95.836657    44657.537 -0.067234084   -17.036218 -0.041707817    3533.6833    1542.0982    948.75002    886.54633    28.379601     18.84657    14.337845   0.38513521   0.38512467   0.32307985   0.32301999    293.62318     41.49527    35.978931    34.423473    90.016431    119.66323    90.107069    18.847238    14.339062    28.384593    18.844411    14.343287 
   40000    299.12104    1.2509986    2208.6255    -1147.146   -211.49952    2071.3449   -2310.1915    1038.1916    44657.537 -0.067234084   -17.036218 -0.041707817     3594.618    1559.7591    969.17646    912.08147    28.379601     18.84657    14.337845   0.38307935   0.38307551   0.33372221   0.33340335    299.12104     41.49527    35.978931    34.423473    90.016431    119.66323    90.107069    18.846311    14.336702    28.365115    18.844501    14.330154 
   41000     303.3816    1.2509986    2035.8742   -1185.5448   -211.49952    2077.1397    -2309.637    357.02768    44657.537 -0.067234084   -17.036218 -0.041707817    3453.9162    1551.1114    886.07249    873.06811    28.379601     18.84657    14.337845   0.36605842   0.36604892   0.31211079   0.31193935     303.3816     41.49527    35.978931    34.423473    90.016431    119.66323    90.107069    18.848574    14.337752    28.386201     18.85957     14.33566 
   42000    301.76828    1.2509986    2123.5746   -1193.2756   -211.49952    2074.1361   -2309.9277    -2103.399    44657.537 -0.067234084   -17.036218 -0.041707817    3552.6418    1560.7318    941.34134     892.3268    28.379601     18.84657    14.337845   0.35966943   0.35965337   0.29967174   0.29951273    301.76828     41.49527    35.978931    34.423473    90.016431    119.66323    90.107069    18.846072    14.337481    28.369054    18.842385    14.341826 
   43000     295.5445    1.2509986    2058.9492   -1182.8582   -211.49952    2073.2792    -2309.369     1372.869    44657.537 -0.067234084   -17.036218 -0.041707817    3477.8972    1520.9723    927.59407     877.7313    28.379601     18.84657    14.337845   0.36369913   0.36369641   0.30342584   0.30336554     295.5445     41.49527    35.978931    34.423473    90.016431    119.66323    90.107069    18.845842    14.338081    28.384669    18.845241    14.335173 
   44000    300.52354    1.2509986     2204.046    -1171.115   -211.49952     2074.475      -2309.4    -314.5621    44657.537 -0.067234084   -17.036218 -0.041707817    3610.0861    1614.3733    949.29268    897.55062    28.379601     18.84657    14.337845   0.37851321   0.37851034   0.31856259   0.31855638    300.52354     41.49527    35.978931    34.423473    90.016431    119.66323    90.107069     18.84726    14.338664    28.381722    18.848853    14.338416 
   45000    298.07918    1.2509986    2209.2286   -1188.2016   -211.49952    2081.5156   -2309.4695   -393.63274    44657.537 -0.067234084   -17.036218 -0.041707817     3625.384    1605.6604    952.42425    907.20737    28.379601     18.84657    14.337845   0.34807353   0.34806469   0.29187826   0.29186839    298.07918     41.49527    35.978931    34.423473    90.016431    119.66323    90.107069    18.846343    14.337387    28.379987    18.846236    14.338233 
   46000    299.72485    1.2509986    2109.7226   -1193.0642   -211.49952    2083.1461   -2309.0065   -1143.1539    44657.537 -0.067234084   -17.036218 -0.041707817    3528.6473    1584.6068    894.73869     896.1873    28.379601     18.84657    14.337845   0.36245309   0.36244358   0.30368433   0.30356401    299.72485     41.49527    35.978931    34.423473    90.016431    119.66323    90.107069    18.846097    14.337457    28.368783    18.848117    14.337779 
   47000    299.28645    1.2509986    2165.1358   -1176.1511   -211.49952    2076.1541   -2309.0133   -535.91608    44657.537 -0.067234084   -17.036218 -0.041707817    3574.1461    1574.6845    956.15741     890.9339    28.379601     18.84657    14.337845   0.34670424   0.34670264   0.31337795   0.31331346    299.28645     41.49527    35.978931    34.423473    90.016431    119.66323    90.107069    18.846297     14.33742    28.379851    18.846963    14.331879 
   48000     296.6705    1.2509986    2208.6876   -1146.4726   -211.49952    2072.9478   -2309.3813    1584.9258    44657.537 -0.067234084   -17.036218 -0.041707817    3591.5937    1594.1212    954.82586    885.51261    28.379601     18.84657    14.337845   0.35179845   0.35178606   0.30817681   0.30812966     296.6705     41.49527    35.978931    34.423473    90.016431    119.66323    90.107069    18.849168    14.338777    28.380949    18.855645    14.340749 
   49000    299.71988    1.2509986    2182.8531   -1131.3159   -211.49952    2071.1553   -2309.6126    1121.8637    44657.537 -0.067234084   -17.036218 -0.041707817    3552.6262    1570.3324    963.00256    870.59118    28.379601     18.84657    14.337845   0.36853915   0.36853224   0.32144895   0.32136956    299.71988     41.49527    35.978931    34.423473    90.016431    119.66323    90.107069    18.847405     14.33592    28.379065    18.848293    14.330771 
   50000    297.57161    1.2509986    2117.8409   -1182.6892   -211.49952    2081.8899   -2308.8499   -59.085178    44657.537 -0.067234084   -17.036218 -0.041707817    3527.4901    1618.6758    888.53057    872.13284    28.379601     18.84657    14.337845   0.36618669   0.36618363   0.31222509   0.31213074    297.57161     41.49527    35.978931    34.423473    90.016431    119.66323    90.107069    18.846679    14.338884    28.388872    18.846432    14.338681 
   51000     302.5316    1.2509986    2227.1594   -1135.0271   -211.49952    2076.7769   -2309.6497    1530.9362    44657.537 -0.067234084   -17.036218 -0.041707817    3595.0593    1592.0105    968.46796    878.45046    28.379601     18.84657    14.337845   0.36033292   0.36033239   0.29606793   0.29593736     302.5316     41.49527    35.978931    34.423473    90.016431    119.66323    90.107069    18.845959     14.33712    28.374763    18.844674    14.330216 
   52000    300.37189    1.2509986     2159.848   -1160.0181   -211.49952    2077.5372   -2309.0527    1428.8991    44657.537 -0.067234084   -17.036218 -0.041707817    3551.3816    1558.7722    957.16525    880.57223    28.379601     18.84657    14.337845   0.37702718    0.3770262   0.31313519   0.31308307    300.37189     41.49527    35.978931    34.423473    90.016431    119.66323    90.107069    18.847013    14.337226    28.385531    18.847526    14.335869 
   53000    297.63768    1.2509986    2114.9988   -1167.0615   -211.49952    2078.9646   -2308.9758   -510.79003    44657.537 -0.067234084   -17.036218 -0.041707817    3512.0715    1609.3731    905.47053    856.35285    28.379601     18.84657    14.337845   0.36056587    0.3605633   0.31010433   0.30997408    297.63768     41.49527    35.978931    34.423473    90.016431    119.66323    90.107069    18.847328    14.336661    28.380947    18.847523    14.328409 
   54000    293.03847    1.2509986    2122.4575   -1138.7218   -211.49952    2076.5027   -2309.1711    911.15104    44657.537 -0.067234084   -17.036218 -0.041707817    3493.8477    1541.7166     938.2536    867.99031    28.379601     18.84657    14.337845   0.36778291   0.36777786   0.30590731   0.30574954    293.03847     41.49527    35.978931    34.423473    90.016431    119.66323    90.107069    18.846429    14.337445    28.370275    18.842989    14.333693 
   55000    299.08272    1.2509986    2167.6414   -1139.5882   -211.49952    2078.1854   -2309.7258    3221.1103    44657.537 -0.067234084   -17.036218 -0.041707817    3538.7701    1516.2397     966.9029    896.09936    28.379601     18.84657    14.337845   0.37677009   0.37676677   0.30854197   0.30847885    299.08272     41.49527    35.978931    34.423473    90.016431    119.66323    90.107069    18.846336    14.337325     28.37883    18.842548    14.335078 
   56000    306.47685    1.2509986    2188.8695   -1185.7117   -211.49952    2077.3502    -2308.768   -1284.1776    44657.537 -0.067234084   -17.036218 -0.041707817     3605.999    1587.9823    966.84028    891.33378    28.379601     18.84657    14.337845   0.34303151   0.34302679   0.28419108   0.28412881    306.47685     41.49527    35.978931    34.423473    90.016431    119.66323    90.107069    18.846331    14.338558     28.38739    18.849929    14.339898 
   57000    293.12493    1.2509986    2125.2695   -1144.5925   -211.49952    2074.8281   -2309.4058    702.65004    44657.537 -0.067234084   -17.036218 -0.041707817    3504.4397    1562.2576     937.8536    854.68262    28.379602     18.84657    14.337845   0.35736694   0.35736145   0.30147872   0.30140368    293.12493     41.49527    35.978931    34.423473    90.016431    119.66323    90.107069    18.848406    14.338365    28.386176    18.853769    14.336707 
   58000     298.5682    1.2509986    2177.0833    -1167.135   -211.49952    2075.9946   -2309.7828   -628.95609    44657.537 -0.067234084   -17.036218 -0.041707817    3578.0065    1581.2212    945.42134    898.64295    28.379602     18.84657    14.337845   0.32263942   0.32263596   0.26418021   0.26405648     298.5682     41.49527    35.978931    34.423473    90.016431    119.66323    90.107069    18.847009    14.336828    28.388884    18.847269    14.333834 
   59000    300.47152    1.2509986    2129.7939   -1188.1022   -211.49952    2075.4097   -2309.4994   -326.06285    44657.537 -0.067234084   -17.036218 -0.041707817    3551.9859    1579.6089    930.96631    888.36373    28.379602     18.84657    14.337845   0.34978864   0.34978712   0.29048878   0.29041089    300.47152     41.49527    35.978931    34.423473    90.016431    119.66323    90.107069    18.846743    14.336683     28.37945    18.849486    14.330826 
   60000    298.62328    1.2509986    2113.8637   -1158.9209   -211.49952    2078.5688    -2309.255    275.42565    44657.537 -0.067234084   -17.036218 -0.041707817    3503.4708    1547.7193    950.06757     856.0841    28.379602     18.84657    14.337845   0.38839129   0.38839043   0.34003178   0.33984869    298.62328     41.49527    35.978931    34.423473    90.016431    119.66323    90.107069    18.845515    14.337753    28.369081    18.842246    14.334387 
   61000    294.84985    1.2509986    2138.0371   -1167.1821   -211.49952    2076.0766   -2309.0572   -404.63549    44657.537 -0.067234084   -17.036218 -0.041707817    3538.1997    1540.6148    945.01674    893.04031    28.379602     18.84657    14.337845   0.36905133   0.36904315   0.32388675   0.32378483    294.84985     41.49527    35.978931    34.423473    90.016431    119.66323    90.107069    18.847029    14.336261    28.381428     18.84928    14.329721 
   62000    286.90141    1.2509986    2183.8099   -1165.3309   -211.49952    2077.8112   -2308.9867   -890.32809    44657.537 -0.067234084   -17.036218 -0.041707817    3580.3163    1590.1458    950.41856    884.63096    28.379602     18.84657    14.337845   0.38182981    0.3818275   0.32516246   0.32509757    286.90141     41.49527    35.978931    34.423473    90.016431    119.66323    90.107069    18.846258    14.337125    28.375601    18.850631    14.332809 
   63000    302.09807    1.2509986    2191.3319   -1187.9204   -211.49952     2071.306   -2309.1791   -461.24394    44657.537 -0.067234084   -17.036218 -0.041707817    3617.1253    1629.5892    957.54526    876.12004    28.379602     18.84657    14.337845    0.3481204   0.34811436   0.29192514   0.29191168    302.09807     41.49527    35.978931    34.423473    90.016431    119.66323    90.107069     18.84654    14.339635    28.381819    18.848928    14.342526 
   64000    301.11088    1.2509986    2104.1487   -1190.6287   -211.49952    2081.6335   -2309.1344    445.01811    44657.537 -0.067234084   -17.036218 -0.041707817    3522.2783    1523.3442    956.70975      883.271    28.379602     18.84657    14.337845   0.35537071   0.35536518   0.28758452   0.28744051    301.11088     41.49527    35.978931    34.423473    90.016431    119.66323    90.107069    18.848303    14.337372    28.370853    18.855865    14.335022 
   65000    296.58733    1.2509986    2138.5991   -1190.8175   -211.49952    2070.3931   -2309.5877   -963.95897    44657.537 -0.067234084   -17.036218 -0.041707817    3568.6111      1594.37    943.77967    882.83727    28.379602     18.84657    14.337845    0.3685212    0.3685211   0.30902728   0.30901265    296.58733     41.49527    35.978931    34.423473    90.016431    119.66323    90.107069    18.846235    14.337977    28.383379    18.848904    14.339579 
   66000    295.58893    1.2509986    2229.0583    -1189.556   -211.49952    2069.2638   -2309.3508   -1443.3717    44657.537 -0.067234084   -17.036218 -0.041707817    3658.7013    1618.1567    966.65601    916.61022    28.379602     18.84657    14.337845   0.35122733   0.35121288   0.29514022   0.29495305    295.58893     41.49527    35.978931    34.423473    90.016431    119.66323    90.107069    18.846126    14.337121    28.366981    18.844909    14.336147 
   67000    298.36714    1.2509986    2122.5498   -1183.0991   -211.49952    2073.7008   -2309.5654   -2011.0938    44657.537 -0.067234084   -17.036218 -0.041707817    3541.5135    1583.5372    950.01394    859.35153    28.379602     18.84657    14.337845   0.37811877   0.37811777   0.32842749   0.32835254    298.36714     41.49527    35.978931    34.423473    90.016431    119.66323    90.107069    18.846727    14.338365    28.387968    18.847955    14.337882 
   68000    304.81795    1.2509986    2092.2699   -1179.3224   -211.49952     2082.489   -2308.7298    155.73593    44657.537 -0.067234084   -17.036218 -0.041707817    3497.8331    1556.4645    920.12628    867.22112    28.379602     18.84657    14.337845   0.38001162   0.38000805   0.32126264    0.3211802    304.81795     41.49527    35.978931    34.423473    90.016431    119.66323    90.107069    18.847452    14.337598     28.38147    18.847502    14.330892 
   69000    296.44779    1.2509986    2088.3223   -1176.6957   -211.49952    2071.8176   -2309.5771   -140.84216    44657.537 -0.067234084   -17.036218 -0.041707817    3502.7775    1534.5334    941.07543    875.51691    28.379602     18.84657    14.337845   0.35566798   0.35566726   0.29986418   0.29985584    296.44779     41.49527    35.978931    34.423473    90.016431    119.66323    90.107069    18.846944    14.337415    28.381635    18.847033    14.339321 
   70000    295.00072    1.2509986    2226.0985   -1172.0861   -211.49952    2077.0137   -2309.4002    551.55736    44657.537 -0.067234084   -17.036218 -0.041707817    3630.5711    1640.6249    935.49298    901.00775    28.379602     18.84657    14.337845    0.3427765   0.34277327   0.29143954   0.29127056    295.00072     41.49527    35.978931    34.423473    90.016431    119.66323    90.107069    18.847124    14.336215    28.377706     18.84824    14.326795 
   71000    302.16852    1.2509986     2128.762    -1148.801   -211.49952    2081.9054   -2308.9552    2222.5167    44657.537 -0.067234084   -17.036218 -0.041707817    3504.6128    1524.9568    972.79796    859.62712    28.379602     18.84657    14.337845   0.36610914   0.36610851   0.32741304    0.3273627    302.16852     41.49527    35.978931    34.423473    90.016431    119.66323    90.107069    18.845457    14.337518     28.38262    18.844407    14.335196 
   72000    298.27324    1.2509986    2180.4117   -1165.9316   -211.49952    2070.4534   -2309.2661   -1320.2222    44657.537 -0.067234084   -17.036218 -0.041707817     3585.156    1600.4767    948.71075    878.36572    28.379602     18.84657    14.337845   0.38126719   0.38126509    0.3310557   0.33093263    298.27324     41.49527    35.978931    34.423473    90.016431    119.66323    90.107069    18.846373    14.339166    28.373208    18.842747    14.346234 
   73000    297.72838    1.2509986    2089.3361   -1171.3245   -211.49952    2075.1902    -2309.877    1208.2825    44657.537 -0.067234084   -17.036218 -0.041707817    3495.3475     1520.892    932.02103    885.13623    28.379602     18.84657    14.337845   0.36874083   0.36872945   0.31071472   0.31048831    297.72838     41.49527    35.978931    34.423473    90.016431    119.66323    90.107069    18.847067    14.340289    28.386005    18.850648    14.353135 
   74000    294.75608    1.2509986    2192.8534   -1151.5548   -211.49952    2072.8946   -2309.9625    1849.8174    44657.537 -0.067234084   -17.036218 -0.041707817    3581.4762    1571.8687      965.924     889.9383    28.379602     18.84657    14.337845   0.34156599   0.34156481   0.28240759   0.28232169    294.75608     41.49527    35.978931    34.423473    90.016431    119.66323    90.107069    18.845309    14.337434    28.385997    18.846798    14.333352 
   75000    295.53082    1.2509986    2151.0321   -1188.2947   -211.49952    2076.0364   -2308.6443   -1298.2847    44657.537 -0.067234084   -17.036218 -0.041707817    3571.9347      1568.92    951.78866    892.40169    28.379602    18.846569    14.337845   0.36893893   0.36893874   0.30543713   0.30537857    295.53082     41.49527    35.978931    34.423473    90.016431    119.66323    90.107069    18.846029    14.337758    28.385547    18.845599     14.33632 
   76000    295.22378    1.2509986    2111.3107   -1165.1371   -211.49952    2077.2563   -2309.4224     107.6127    44657.537 -0.067234084   -17.036218 -0.041707817     3508.614    1559.0062    913.10285    883.14248    28.379602    18.846569    14.337845    0.3447133   0.34470633   0.27842102   0.27838654    295.22378     41.49527    35.978931    34.423473    90.016431    119.66323    90.107069    18.846396    14.338824    28.384411     18.84766    14.336624 
   77000    295.48656    1.2509986    2098.4408   -1209.3302   -211.49952     2079.981    -2309.795    298.23465    44657.537 -0.067234084   -17.036218 -0.041707817     3537.585    1585.4194    955.06753    851.06098    28.379602    18.846569    14.337845   0.35710927   0.35710563   0.29989384   0.29986942    295.48656     41.49527    35.978931    34.423473    90.016431    119.66323    90.107069    18.846013    14.338574    28.384012    18.847784    14.341388 
   78000    299.86063    1.2509986    2122.1831   -1197.7186   -211.49952    2079.3404   -2309.5777    -1804.175    44657.537 -0.067234084   -17.036218 -0.041707817     3550.139    1596.2294    925.19696    877.08844    28.379602    18.846569    14.337845   0.34561984   0.34561917   0.28271162   0.28266284    299.86063     41.49527    35.978931    34.423473    90.016431    119.66323    90.107069    18.846716     14.33795     28.37379    18.849692    14.335757 
   79000    291.91652    1.2509986    2014.7644   -1176.7693   -211.49952    2075.1264   -2309.2582    799.90435    44657.537 -0.067234084   -17.036218 -0.041707817    3425.6655     1516.575    926.01953    841.42357    28.379602    18.846569    14.337845   0.36380695   0.36380631    0.3026422     0.302579    291.91652     41.49527    35.978931    34.423473    90.016431    119.66323    90.107069    18.846746     14.33739    28.386289    18.847325    14.335763 
   80000    294.64558    1.2509986    2083.2853   -1182.1346   -211.49952    2069.6842   -2309.5707   -803.22443    44657.537 -0.067234084   -17.036218 -0.041707817    3505.3064    1528.6141    923.16654    901.84182    28.379602    18.846569    14.337845   0.35767296   0.35766638   0.29256494   0.29236308    294.64558     41.49527    35.978931    34.423473    90.016431    119.66323    90.107069    18.848386    14.338561    28.390541    18.853004    14.347717 
   81000    299.32684    1.2509986    2123.2444   -1155.5141   -211.49952    2078.3746   -2309.0483    2150.1762    44657.537 -0.067234084   -17.036218 -0.041707817    3509.4321    1549.0843    928.96113    881.34626    28.379602    18.846569    14.337845   0.35317765   0.35317683    0.2996821   0.29962545    299.32684     41.49527    35.978931    34.423473    90.016431    119.66323    90.107069    18.846945    14.337368    28.375642    18.848153    14.333268 
   82000    297.20157    1.2509986    2127.3429   -1153.8692   -211.49952    2074.9094   -2309.5065    837.60248    44657.537 -0.067234084   -17.036218 -0.041707817    3515.8091    1524.7495    962.38412    880.73632    28.379602    18.846569    14.337845   0.35163773   0.35163629   0.29791675   0.29775069    297.20157     41.49527    35.978931    34.423473    90.016431    119.66323    90.107069    18.846418    14.338886    28.369658    18.844952    14.346821 
   83000    300.07825    1.2509986    2078.1882   -1189.3897   -211.49952    2068.7958   -2310.0127   -495.52086    44657.537 -0.067234084   -17.036218 -0.041707817    3508.7949    1552.2844    904.62434    891.65528    28.379602    18.846569    14.337845   0.36088573    0.3608794   0.30227347   0.30200243    300.07825     41.49527    35.978931    34.423473    90.016431    119.66323    90.107069    18.845286    14.336332    28.369323    18.843119    14.328167 
   84000    297.52334    1.2509986    2222.6728   -1171.4797   -211.49952    2074.2102   -2309.5879   -588.38595    44657.537 -0.067234084   -17.036218 -0.041707817    3629.5302    1658.3218    937.10361    881.32533    28.379602    18.846569    14.337845   0.35312022     0.353115   0.29686119   0.29659998    297.52334     41.49527    35.978931    34.423473    90.016431    119.66323    90.107069    18.846243    14.336509    28.373848    18.841693    14.326408 
   85000      301.684    1.2509986    2205.6686   -1184.5375   -211.49952    2078.4895   -2308.8578   -1034.1656    44657.537 -0.067234084   -17.036218 -0.041707817    3620.5744    1596.4438    946.87131    916.32412    28.379602    18.846569    14.337845   0.36872131   0.36871555   0.31748843    0.3174197      301.684     41.49527    35.978931    34.423473    90.016431    119.66323    90.107069     18.84698    14.339436      28.3843    18.844307    14.344546 
   86000    299.93489    1.2509986    2084.1823   -1192.4259   -211.49952    2074.8431   -2309.2315    668.51319    44657.537 -0.067234084   -17.036218 -0.041707817    3510.9966    1540.3946    923.95836    895.20421    28.379602    18.846569    14.337845   0.38203515    0.3820349   0.31388462   0.31366935    299.93489     41.49527    35.978931    34.423473    90.016431    119.66323    90.107069    18.846321    14.337548    28.371757    18.846798     14.32741 
   87000    302.26341    1.2509986    2140.3705   -1205.4616   -211.49952    2072.7859   -2310.2075   -1503.4634    44657.537 -0.067234084   -17.036218 -0.041707817    3583.2537    1596.1555    940.85378    888.81571    28.379602    18.846569    14.337845   0.35420436   0.35420005   0.31231398   0.31211736    302.26341     41.49527    35.978931    34.423473    90.016431    119.66323    90.107069    18.845487    14.338089    28.365807    18.846635    14.341019 
   88000    298.05409    1.2509986    2108.2751   -1201.3763   -211.49952    2077.8943   -2309.4291   -549.45644    44657.537 -0.067234084   -17.036218 -0.041707817    3541.1861    1609.9581    914.37451    868.48751    28.379602    18.846569    14.337845   0.37673455   0.37673345   0.31102954   0.31091119    298.05409     41.49527    35.978931    34.423473    90.016431    119.66323    90.107069    18.845696    14.337283    28.388702    18.844495    14.335856 
   89000    291.65668    1.2509986    2156.1011   -1159.9251   -211.49952    2078.7517   -2309.0766    1356.6729    44657.537 -0.067234084   -17.036218 -0.041707817    3546.3511    1601.6814    942.24467    854.61629    28.379602    18.846569    14.337845   0.39907735   0.39907058   0.33602279   0.33600601    291.65668     41.49527    35.978931    34.423473    90.016431    119.66323    90.107069    18.848508    14.338713    28.375756    18.850337    14.340403 
   90000    299.24428    1.2509986    2123.5277   -1184.8916   -211.49952    2083.6164   -2308.9292   -418.94663    44657.537 -0.067234084   -17.036218 -0.041707817    3533.7321    1559.8261    951.11142    877.09593    28.379602    18.846569    14.337845    0.4000751   0.40007255   0.34493569   0.34487757    299.24428     41.49527    35.978931    34.423473    90.016431    119.66323    90.107069    18.845386     14.33829    28.383305    18.843368    14.343133 
   91000    292.52986    1.2509986    2118.4192    -1159.145   -211.49952    2078.9168   -2309.0798   -270.57017    44657.537 -0.067234084   -17.036218 -0.041707817    3507.7272    1531.3086    940.72121    881.64183    28.379602    18.846569    14.337845   0.38567756   0.38567082   0.31616347   0.31607424    292.52986     41.49527    35.978931    34.423473    90.016431    119.66323    90.107069    18.845608    14.337577    28.373542    18.842324    14.336753 
   92000    302.49431    1.2509986    2155.3807   -1176.3052   -211.49952    2071.2038   -2309.2515   -819.33292    44657.537 -0.067234084   -17.036218 -0.041707817    3569.7337    1607.0316    943.03362     871.2242    28.379602    18.846569    14.337845   0.37608348   0.37608181   0.30834377   0.30832546    302.49431     41.49527    35.978931    34.423473    90.016431    119.66323    90.107069    18.846473    14.338886    28.379599    18.845081    14.341325 
   93000    302.32282    1.2509986    2071.9246   -1187.0842   -211.49952    2077.6474   -2309.6529   -441.44433    44657.537 -0.067234084   -17.036218 -0.041707817    3491.0142    1503.7039    947.65294    887.80532    28.379602    18.846569    14.337845   0.39533147   0.39532921   0.33228409   0.33204045    302.32282     41.49527    35.978931    34.423473    90.016431    119.66323    90.107069    18.846565    14.336648    28.380425    18.840642    14.326492 
   94000    296.81236    1.2509986    2068.6167   -1200.3159   -211.49952    2073.1457   -2309.5917   -335.96233    44657.537 -0.067234084   -17.036218 -0.041707817    3505.3786    1576.5829    913.46864    865.75846    28.379602    18.846569    14.337845   0.38979623   0.38979604   0.33398419   0.33388117    296.81236     41.49527    35.978931    34.423473    90.016431    119.66323    90.107069    18.846355     14.33759    28.379362    18.840439    14.334209 
   95000    302.42293    1.2509986    2097.7854    -1172.103   -211.49952    2073.0298    -2309.896    220.46285    44657.537 -0.067234084   -17.036218 -0.041707817    3506.7546    1505.1716    967.78601    884.42978    28.379602    18.846569    14.337845   0.34964025   0.34963995   0.29635104   0.29632427    302.42293     41.49527    35.978931    34.423473    90.016431    119.66323    90.107069    18.846337    14.337996    28.378069    18.844246    14.338286 
   96000     296.7518    1.2509986    2090.6636   -1168.2375   -211.49952    2070.1231   -2309.3147    877.74568    44657.537 -0.067234084   -17.036218 -0.041707817    3498.0927    1549.4796     944.2078    854.87115    28.379602    18.846569    14.337845   0.37154402   0.37153958   0.31708215   0.31698818     296.7518     41.49527    35.978931    34.423473    90.016431    119.66323    90.107069    18.845634    14.339596    28.381554    18.845878    14.348591 
   97000    295.93723    1.2509986    2070.4857   -1155.2224   -211.49952     2072.779   -2309.2025    1866.6239    44657.537 -0.067234084   -17.036218 -0.041707817    3462.1316    1563.5998     909.4788    841.64762    28.379602    18.846569    14.337845   0.41010399   0.41010188   0.34684724   0.34682535    295.93723     41.49527    35.978931    34.423473    90.016431    119.66323    90.107069    18.847327    14.337715    28.383222    18.846359    14.338448 
   98000    299.71569    1.2509986    2147.9881   -1222.0423   -211.49952    2077.9155   -2309.9005   -2339.9004    44657.537 -0.067234084   -17.036218 -0.041707817    3602.0154    1607.3434    913.21179    925.92227    28.379602    18.846569    14.337845   0.42834452   0.42833313   0.36789452   0.36744465    299.71569     41.49527    35.978931    34.423473    90.016431    119.66323    90.107069    18.845437    14.338774    28.362494    18.836811    14.342782 
   99000    295.48708    1.2509986    2184.8383   -1152.1183   -211.49952    2075.3939    -2309.054   -1116.7355    44657.537 -0.067234084   -17.036218 -0.041707817    3570.6167    1581.8331    975.08673    868.90346    28.379602    18.846569    14.337845   0.44248578    0.4424842   0.37607771   0.37604311    295.48708     41.49527    35.978931    34.423473    90.016431    119.66323    90.107069    18.847239    14.337921    28.384575    18.851948    14.338745 
  100000    298.21923    1.2509986    2076.9485   -1179.2735   -211.49952     2080.059    -2309.887    1562.7615    44657.537 -0.067234084   -17.036218 -0.041707817    3486.0499    1528.7022    931.38186    878.43458    28.379602    18.846569    14.337845   0.42093503   0.42092888   0.36763572   0.36754708    298.21923     41.49527    35.978931    34.423473    90.016431    119.66323    90.107069    18.847008    14.336454     28.37847    18.845573    14.330942 
  101000    297.18322    1.2509986    2151.1576   -1168.1348   -211.49952    2080.7784   -2309.4646    1436.8654    44657.537 -0.067234084   -17.036218 -0.041707817    3547.9786    1554.3105    928.79059    906.76208    28.379602    18.846569    14.337845    0.4356569   0.43565542   0.36545714   0.36538946    297.18322     41.49527    35.978931    34.423473    90.016431    119.66323    90.107069    18.846517    14.337795    28.371897    18.846384    14.338189 
  102000    296.38652    1.2509986    2240.3751   -1140.0494   -211.49952    2080.7334   -2309.1693    4.5609171    44657.537 -0.067234084   -17.036218 -0.041707817    3608.8604    1614.0807    917.71241    915.75241    28.379602    18.846569    14.337845   0.43752636   0.43751822   0.36117349   0.36110172    296.38652     41.49527    35.978931    34.423473    90.016431    119.66323    90.107069    18.846857    14.338993    28.386311    18.846126    14.343858 
  103000    293.55285    1.2509986    2110.1392   -1146.5923   -211.49952    2077.5051   -2309.4165    130.42678    44657.537 -0.067234084   -17.036218 -0.041707817    3488.6429    1562.2598    930.47379    844.19654    28.379602    18.846569    14.337845   0.43524796   0.43524659   0.37633296   0.37631221    293.55285     41.49527    35.978931    34.423473    90.016431    119.66323    90.107069    18.846725     14.33868    28.375139    18.847899    14.339641 
  104000    295.35395    1.2509986    2247.5528   -1149.5119   -211.49952    2076.6351   -2308.8637    287.24142    44657.537 -0.067234084   -17.036218 -0.041707817    3629.2933    1576.7734    964.48021    929.19203    28.379602    18.846569    14.337845   0.44277489   0.44277007   0.36400849   0.36378966    295.35395     41.49527    35.978931    34.423473    90.016431    119.66323    90.107069     18.84615    14.336928     28.38626    18.842931    14.327938 
  105000    297.15297    1.2509986      2013.52   -1207.9399   -211.49952    2071.7585   -2310.1048    -1009.396    44657.537 -0.067234084   -17.036218 -0.041707817    3459.8062    1518.4677    940.77363    851.42383    28.379602    18.846569    14.337845   0.44614013   0.44613718    0.3776946   0.37767714    297.15297     41.49527    35.978931    34.423473    90.016431    119.66323    90.107069    18.845701     14.33873    28.376092      18.8477    14.341572 
  106000    304.05398    1.2509986      2175.59   -1177.6789   -211.49952    2078.3667   -2309.8434   -1612.8227    44657.537 -0.067234084   -17.036218 -0.041707817    3584.7457    1614.3092    974.94382    845.93787    28.379602    18.846569    14.337845    0.4542095   0.45420157   0.38696862   0.38670541    304.05398     41.49527    35.978931    34.423473    90.016431    119.66323    90.107069    18.846315    14.335222    28.382203    18.845981    14.323921 
  107000    292.11752    1.2509986    2153.1048   -1186.5853   -211.49952    2076.8409   -2309.4392    -2028.035    44657.537 -0.067234084   -17.036218 -0.041707817    3572.2883    1614.3965    959.34989    856.84574    28.379602    18.846569    14.337845   0.41887616     0.418868   0.35358658   0.35354234    292.11752     41.49527    35.978931    34.423473    90.016431    119.66323    90.107069    18.845075    14.337546     28.37812    18.842744    14.341332 
  108000    295.09037    1.2509986    2162.2197   -1174.3603   -211.49952    2079.4001   -2309.0069   -1473.0014    44657.537 -0.067234084   -17.036218 -0.041707817    3566.1869    1555.9983    968.81706    888.90471    28.379602    18.846569    14.337845   0.42662438   0.42661363   0.36752162   0.36747582    295.09037     41.49527    35.978931    34.423473    90.016431    119.66323    90.107069    18.848655     14.33827    28.380221    18.853275    14.344852 
  109000    295.21556    1.2509986     2125.203    -1180.736   -211.49952    2080.9042   -2309.3342   -793.69842    44657.537 -0.067234084   -17.036218 -0.041707817     3534.369    1551.5664    951.35204    881.37794    28.379602    18.846569    14.337845   0.43199732   0.43198823   0.36895461   0.36891814    295.21556     41.49527    35.978931    34.423473    90.016431    119.66323    90.107069    18.847354    14.338847    28.385257    18.847027    14.339805 
  110000    296.50348    1.2509986    2200.5971   -1147.9684   -211.49952    2073.9639   -2309.3069    803.30664    44657.537 -0.067234084   -17.036218 -0.041707817    3583.9085    1594.0267    967.17085      873.963    28.379602    18.846569    14.337845   0.47055843   0.47054742   0.41116812   0.41110709    296.50348     41.49527    35.978931    34.423473    90.016431    119.66323    90.107069    18.848608    14.336181    28.384943    18.851103     14.33438 
  111000    297.35584    1.2509986    2103.9865   -1174.2123   -211.49952     2077.784   -2309.1804    16.498724    44657.537 -0.067234084   -17.036218 -0.041707817    3509.5952    1528.6524    951.56926    875.98566    28.379602    18.846569    14.337845   0.44127664   0.44126648    0.3923958   0.39228241    297.35584     41.49527    35.978931    34.423473    90.016431    119.66323    90.107069     18.84546    14.336394    28.372636    18.847721    14.331649 
  112000    297.46021    1.2509986    2144.9944   -1165.4887   -211.49952    2072.0645   -2309.5485   -265.77756    44657.537 -0.067234084   -17.036218 -0.041707817    3547.9671    1569.7071    938.65714    885.27839    28.379602    18.846569    14.337845   0.41074947   0.41073836   0.35431162   0.35419717    297.46021     41.49527    35.978931    34.423473    90.016431    119.66323    90.107069    18.846671    14.336797    28.370197      18.8462    14.335286 
  113000    304.90822    1.2509986    2126.8661   -1164.4187   -211.49952    2070.6067   -2309.1942   -80.404059    44657.537 -0.067234084   -17.036218 -0.041707817    3529.8723    1537.3776    954.26274     886.1749    28.379602    18.846569    14.337845   0.39012627   0.39012318    0.3391362   0.33902731    304.90822     41.49527    35.978931    34.423473    90.016431    119.66323    90.107069    18.846864    14.338011    28.377304    18.839911     14.33506 
  114000    301.49171    1.2509986     2197.992   -1144.1387   -211.49952    2073.2228   -2308.9949    227.99944    44657.537 -0.067234084   -17.036218 -0.041707817    3577.9028     1560.721    970.47448    892.20519    28.379602    18.846569    14.337845   0.42721151   0.42720771   0.37668847   0.37665294    301.49171     41.49527    35.978931    34.423473    90.016431    119.66323    90.107069    18.847712    14.337572    28.384833    18.851462     14.33834 
  115000    297.62255    1.2509986     2262.672    -1169.942   -211.49952    2075.6886   -2309.4096    -183.8004    44657.537 -0.067234084   -17.036218 -0.041707817     3666.335    1630.6707    954.46023    919.68669    28.379602    18.846569    14.337845   0.40284987   0.40284439   0.34770569   0.34762517    297.62255     41.49527    35.978931    34.423473    90.016431    119.66323    90.107069    18.845221    14.337354    28.378372     18.84175    14.334504 
  116000    304.14561    1.2509986    2135.5857    -1169.709   -211.49952    2080.9567   -2309.6399   -10.148244    44657.537 -0.067234084   -17.036218 -0.041707817    3533.9779    1584.9546    933.91992    862.73241    28.379602    18.846569    14.337845   0.41844499   0.41844209   0.35448096   0.35424657    304.14561     41.49527    35.978931    34.423473    90.016431    119.66323    90.107069    18.844935    14.337792    28.371393    18.840544    14.329839 
  117000    290.22956    1.2509986     2110.302   -1171.2808   -211.49952    2082.1494   -2309.4697    696.29894    44657.537 -0.067234084   -17.036218 -0.041707817    3508.9032    1543.3706    958.22277     857.7741    28.379602    18.846569    14.337845   0.41723209   0.41722949   0.36432117   0.36431934    290.22956     41.49527    35.978931    34.423473    90.016431    119.66323    90.107069    18.846766    14.337947    28.378809    18.850045    14.339185 
  118000    296.81207    1.2509986    2248.9504   -1155.0025   -211.49952    2074.3604    -2309.023   -1195.2507    44657.537 -0.067234084   -17.036218 -0.041707817    3638.6155    1674.7867     959.7684    859.60742    28.379602    18.846569    14.337845   0.40629246   0.40629198   0.33923065   0.33905885    296.81207     41.49527    35.978931    34.423473    90.016431    119.66323    90.107069    18.846023    14.337647    28.377998    18.836543    14.335914 
  119000    297.34666    1.2509986    2152.9886   -1157.9708   -211.49952    2072.6506   -2309.6572    180.03925    44657.537 -0.067234084   -17.036218 -0.041707817     3547.966    1565.7264    924.88252    905.14481    28.379602    18.846569    14.337845   0.41165337    0.4116522   0.35478588   0.35472491    297.34666     41.49527    35.978931    34.423473    90.016431    119.66323    90.107069    18.846574    14.338538    28.387339    18.848473    14.339972 
  120000    299.25594    1.2509986     2260.261   -1151.5787   -211.49952    2070.7613   -2309.7758    576.52103    44657.537 -0.067234084   -17.036218 -0.041707817    3650.8543    1602.6495    998.90328    892.22575    28.379602    18.846569    14.337845   0.42249122   0.42248754   0.34541965   0.34535754    299.25594     41.49527    35.978931    34.423473    90.016431    119.66323    90.107069     18.84676    14.337823     28.38665    18.850819    14.336718 
  121000    298.66091    1.2509986     2153.123   -1167.5659   -211.49952    2074.1207   -2309.0578   -289.73429    44657.537 -0.067234084   -17.036218 -0.041707817     3555.626     1554.264    941.90153    904.38431    28.379602    18.846569    14.337845   0.41384199   0.41384015   0.34916447   0.34915288    298.66091     41.49527    35.978931    34.423473    90.016431    119.66323    90.107069    18.847229    14.338327    28.380576    18.851244    14.341997 
  122000    304.17779    1.2509986    2199.7159   -1165.0747   -211.49952    2067.5527   -2309.3051    638.51421    44657.537 -0.067234084   -17.036218 -0.041707817     3606.543    1579.5559    981.30834    890.34716    28.379602    18.846569    14.337845   0.40025384   0.40023939   0.35177115   0.35154726    304.17779     41.49527    35.978931    34.423473    90.016431    119.66323    90.107069    18.848519    14.337453    28.392199    18.853535    14.333034 
  123000    288.28427    1.2509986    2053.7387   -1182.1909   -211.49952    2073.0718   -2310.1022     33.19111    44657.537 -0.067234084   -17.036218 -0.041707817      3472.96    1549.2255    939.79847     837.1126    28.379602    18.846569    14.337845   0.37828188   0.37828058   0.33967411    0.3395403    288.28427     41.49527    35.978931    34.423473    90.016431    119.66323    90.107069    18.845206    14.337722    28.390499    18.845391    14.338662 
  124000    300.29962    1.2509986    2058.2188   -1153.9254   -211.49952    2071.9296   -2309.1579    154.90629    44657.537 -0.067234084   -17.036218 -0.041707817    3449.3725    1519.1141    905.28522    877.21486    28.379602    18.846569    14.337845   0.37971234   0.37970656   0.30403917   0.30392174    300.29962     41.49527    35.978931    34.423473    90.016431    119.66323    90.107069    18.844587    14.337487    28.371104    18.842232    14.339661 
  125000    290.64729    1.2509986    2117.3898   -1203.8296   -211.49952    2070.9278   -2309.7575   -148.72554    44657.537 -0.067234084   -17.036218 -0.041707817    3560.0491    1619.7986    951.75266    844.34814    28.379602    18.846569    14.337845    0.3579855   0.35798388   0.31047471   0.31041196    290.64729     41.49527    35.978931    34.423473    90.016431    119.66323    90.107069    18.845873    14.338831    28.383665    18.842872    14.342495 
  126000    294.73148    1.2509986    2190.4103    -1173.092   -211.49952    2071.2621   -2309.9102   -923.96543    44657.537 -0.067234084   -17.036218 -0.041707817    3602.1503    1602.5413    961.02036    887.30379    28.379602    18.846569    14.337845   0.34497285   0.34496423     0.298408   0.29802802    294.73148     41.49527    35.978931    34.423473    90.016431    119.66323    90.107069    18.844832    14.337021    28.394117    18.841967    14.328761 
  127000    295.57624    1.2509986    2162.8028   -1167.9126   -211.49952    2074.5235   -2309.3293   -347.77824    44657.537 -0.067234084   -17.036218 -0.041707817    3565.5211      1567.41     929.7256    911.79138    28.379602    18.846569    14.337845   0.34891525   0.34891248   0.29730242   0.29729406    295.57624     41.49527    35.978931    34.423473    90.016431    119.66323    90.107069     18.84718    14.337865    28.379476    18.849687     14.34245 
  128000    296.41419    1.2509986     2202.684     -1149.37   -211.49952    2075.1387    -2309.403    436.98603    44657.537 -0.067234084   -17.036218 -0.041707817    3586.3183    1570.5072    956.90564      901.112    28.379602    18.846569    14.337845   0.36161251   0.36161207   0.30509628   0.30507768    296.41419     41.49527    35.978931    34.423473    90.016431    119.66323    90.107069    18.846557     14.33726    28.381786    18.848513    14.335981 
  129000    294.34651    1.2509986    2199.7729   -1159.3708   -211.49952    2076.1228   -2309.1025    131.39845    44657.537 -0.067234084   -17.036218 -0.041707817    3592.1234    1624.5207    908.42315    900.79961    28.379602    18.846569    14.337845   0.36561144   0.36561121   0.31936217   0.31931784    294.34651     41.49527    35.978931    34.423473    90.016431    119.66323    90.107069    18.846321    14.337869    28.380966    18.845282    14.334307 
  130000     295.2561    1.2509986    2195.4638   -1150.9987   -211.49952    2079.5901   -2308.9825    929.95566    44657.537 -0.067234084   -17.036218 -0.041707817     3575.855    1558.4747    974.68169    890.39071    28.379602    18.846569    14.337845   0.36923856   0.36923381   0.29971311    0.2996777     295.2561     41.49527    35.978931    34.423473    90.016431    119.66323    90.107069    18.847752     14.33749    28.374347    18.849718    14.336851 
  131000    295.63865    1.2509986    2148.1024   -1160.1283   -211.49952    2071.8966    -2309.066   -957.83266    44657.537 -0.067234084   -17.036218 -0.041707817    3545.4001    1564.5265    926.02632     900.6655    28.379602    18.846569    14.337845   0.38349593   0.38348908   0.31947607   0.31926977    295.63865     41.49527    35.978931    34.423473    90.016431    119.66323    90.107069    18.846303    14.335178    28.383023    18.850389    14.325768 
  132000    303.48952    1.2509986    2103.4959   -1161.5616   -211.49952    2082.6545   -2308.8791    1851.6285    44657.537 -0.067234084   -17.036218 -0.041707817    3491.2821    1555.2489    923.91909    858.78919    28.379602    18.846569    14.337845   0.37194007   0.37193843   0.31402488   0.31400887    303.48952     41.49527    35.978931    34.423473    90.016431    119.66323    90.107069    18.847061    14.337601    28.381352     18.84551    14.340358 
  133000    299.05514    1.2509986    2082.5059   -1164.1007   -211.49952    2078.4494   -2309.6814    1893.3874    44657.537 -0.067234084   -17.036218 -0.041707817    3477.8386      1582.36    871.90293    874.41793    28.379602    18.846569    14.337845   0.36667535   0.36667324   0.32181217   0.32170747    299.05514     41.49527    35.978931    34.423473    90.016431    119.66323    90.107069    18.846287    14.338488    28.382516    18.840826    14.345015 
  134000    299.94206    1.2509986    2103.0836   -1152.2498   -211.49952    2077.2496   -2309.0755   -64.659764    44657.537 -0.067234084   -17.036218 -0.041707817    3487.1593    1539.0263     930.3545    867.17202    28.379602    18.846569    14.337845   0.38679251   0.38679025   0.31098314   0.31078534    299.94206     41.49527    35.978931    34.423473    90.016431    119.66323    90.107069    18.845615    14.337557    28.366646    18.843776    14.341557 
  135000    297.54931    1.2509986    2092.3421   -1196.8618   -211.49952    2077.3088   -2309.9677    197.66405    44657.537 -0.067234084   -17.036218 -0.041707817    3521.8629    1574.2158    940.52695    861.41915    28.379602    18.846569    14.337845   0.36046126   0.36046017    0.2902384   0.29022922    297.54931     41.49527    35.978931    34.423473    90.016431    119.66323    90.107069    18.846728    14.338569    28.378133      18.8469    14.341277 
  136000    296.35917    1.2509986    2246.9106   -1166.2055   -211.49952    2082.3419   -2309.2318   -511.17738    44657.537 -0.067234084   -17.036218 -0.041707817    3640.0059     1596.645    972.84849     914.7494    28.379602    18.846569    14.337845    0.3740004   0.37399531    0.3113332   0.31127945    296.35917     41.49527    35.978931    34.423473    90.016431    119.66323    90.107069    18.848426      14.3375    28.383098    18.853281    14.334843 
  137000    297.57896    1.2509986    2120.9656   -1173.4095   -211.49952    2080.2528    -2309.072    312.24918    44657.537 -0.067234084   -17.036218 -0.041707817    3523.1943    1558.7592    940.47315    872.14895    28.379602    18.846569    14.337845   0.38449353   0.38448402   0.31690706   0.31689565    297.57896     41.49527    35.978931    34.423473    90.016431    119.66323    90.107069    18.848178    14.338494    28.381924    18.851331    14.338978 
  138000    297.83107    1.2509986     2088.749   -1174.1727   -211.49952    2073.9036    -2309.784   -534.33754    44657.537 -0.067234084   -17.036218 -0.041707817    3498.8021    1547.6695    930.32743    870.64081    28.379602    18.846569    14.337845   0.39572937   0.39572685   0.33407007    0.3340461    297.83107     41.49527    35.978931    34.423473    90.016431    119.66323    90.107069    18.847609    14.337416    28.374987    18.847884    14.338293 
  139000    299.70179    1.2509986    2114.5656   -1160.7627   -211.49952    2072.9777   -2309.0661   -1.7649817    44657.537 -0.067234084   -17.036218 -0.041707817    3511.4167    1543.2472    963.24026    857.15249    28.379602    18.846568    14.337845    0.3993108   0.39930109    0.3339759   0.33396567    299.70179     41.49527    35.978931    34.423473    90.016431    119.66323    90.107069    18.848683    14.338512    28.381449    18.851241    14.340935 
  140000     298.8443    1.2509986    2119.8218   -1200.8635   -211.49952    2077.4864   -2309.7702   -1503.3563    44657.537 -0.067234084   -17.036218 -0.041707817    3552.9692    1595.3851    956.75672    852.98064    28.379602    18.846568    14.337845    0.3817245   0.38172164   0.32968564   0.32953382     298.8443     41.49527    35.978931    34.423473    90.016431    119.66323    90.107069     18.84755    14.336814    28.378282    18.846556    14.327631 
  141000    298.02777    1.2509986    2165.7809    -1129.366   -211.49952    2069.7842    -2310.281    395.06769    44657.537 -0.067234084   -17.036218 -0.041707817    3535.6437    1514.2313    962.46382    897.87234    28.379602    18.846568    14.337845   0.40191451   0.40191023    0.3336388   0.33355393    298.02777     41.49527    35.978931    34.423473    90.016431    119.66323    90.107069    18.845916    14.338719     28.38544    18.841963    14.340389 
  142000    292.65647    1.2509986    2132.0416   -1169.8952   -211.49952    2074.7249   -2309.4223    822.04581    44657.537 -0.067234084   -17.036218 -0.041707817    3536.6342    1552.7692    959.76408     871.4944    28.379602    18.846568    14.337845   0.37614287   0.37613634    0.3224423   0.32225766    292.65647     41.49527    35.978931    34.423473    90.016431    119.66323    90.107069    18.844451    14.337544    28.377587    18.835608    14.338602 
  143000    295.39022    1.2509986    2156.3981   -1170.9208   -211.49952    2078.4862   -2309.4027   -2894.9504    44657.537 -0.067234084   -17.036218 -0.041707817    3558.2354    1618.5889    954.90885    840.50548    28.379602    18.846568    14.337845   0.42455394   0.42455186   0.36638163   0.36634266    295.39022     41.49527    35.978931    34.423473    90.016431    119.66323    90.107069    18.846876    14.338951    28.379723    18.845699    14.344925 
  144000      300.898    1.2509986    2156.7833   -1148.0721   -211.49952    2074.8557   -2309.3569   -21.485657    44657.537 -0.067234084   -17.036218 -0.041707817    3539.3566     1619.466    927.90567    845.31224    28.379602    18.846568    14.337845   0.42956922    0.4295663   0.37018009   0.37015585      300.898     41.49527    35.978931    34.423473    90.016431    119.66323    90.107069    18.846514    14.337565    28.382079    18.849214    14.335414 
  145000    293.43116    1.2509986    2118.8691   -1203.2226   -211.49952    2076.0923   -2309.2089   -1079.4786    44657.537 -0.067234084   -17.036218 -0.041707817    3555.2083    1570.7289    916.10198     913.1795    28.379602    18.846568    14.337845   0.39161607    0.3916149   0.34596955   0.34586481    293.43116     41.49527    35.978931    34.423473    90.016431    119.66323    90.107069    18.847262    14.337751    28.389262    18.845952    14.340725 
  146000    293.04012    1.2509986    2169.4012   -1190.4622   -211.49952    2070.8269   -2309.2486   -1344.4187    44657.537 -0.067234084   -17.036218 -0.041707817     3598.285    1609.7926     971.1295     868.3386    28.379602    18.846568    14.337845   0.35636817   0.35635513   0.30501904   0.30481739    293.04012     41.49527    35.978931    34.423473    90.016431    119.66323    90.107069    18.848123    14.338454    28.393124    18.851708    14.336425 
  147000    296.70955    1.2509986    2112.9146   -1181.6978   -211.49952    2075.3459    -2309.411    330.25447    44657.537 -0.067234084   -17.036218 -0.041707817    3528.6775    1537.7355    973.52048    869.21674    28.379602    18.846568    14.337845   0.35136076   0.35135826    0.2920857   0.29208356    296.70955     41.49527    35.978931    34.423473    90.016431    119.66323    90.107069    18.847738    14.337806    28.378216    18.848805    14.340193 
  148000    302.48113    1.2509986    2224.7719   -1169.8953   -211.49952    2076.9229   -2309.2916    391.58747    44657.537 -0.067234084   -17.036218 -0.041707817    3627.0359    1600.8398    950.69337    919.53425    28.379602    18.846568    14.337845   0.36719358   0.36718933   0.31736647   0.31733096    302.48113     41.49527    35.978931    34.423473    90.016431    119.66323    90.107069    18.848117    14.337698    28.382949       18.853    14.342486 
  149000    294.91161    1.2509986    2133.5712   -1175.1542   -211.49952    2073.8043   -2309.0355   -1041.1661    44657.537 -0.067234084   -17.036218 -0.041707817    3543.9567    1565.7457    939.98145     883.6047    28.379602    18.846568    14.337845   0.36554226   0.36554076   0.31767826   0.31760316    294.91161     41.49527    35.978931    34.423473    90.016431    119.66323    90.107069    18.845602    14.337807    28.373558    18.847185    14.333657 
  150000    296.30347    1.2509986    2141.3887   -1207.6552   -211.49952    2070.8615   -2309.7324    -1345.222    44657.537 -0.067234084   -17.036218 -0.041707817    3587.9148     1617.525     916.1641    900.77626    28.379602    18.846568    14.337845    0.3444679    0.3444609   0.28554252   0.28540781    296.30347     41.49527    35.978931    34.423473    90.016431    119.66323    90.107069    18.847419    14.338901    28.390875    18.847544     14.33753 
  151000    303.64261    1.2509986     2119.001   -1209.3358   -211.49952    2081.3118   -2309.0476   -515.66462    44657.537 -0.067234084   -17.036218 -0.041707817    3556.0726    1629.4644    893.18095    883.11518    28.379602    18.846568    14.337845   0.32426489    0.3242546   0.27609522   0.27603265    303.64261     41.49527    35.978931    34.423473    90.016431    119.66323    90.107069    18.846874    14.338153    28.380821    18.849034     14.33183 
  152000    296.69689    1.2509986    2075.4096   -1186.6551   -211.49952    2075.4133   -2309.4458   -30.239287    44657.537 -0.067234084   -17.036218 -0.041707817    3496.0972    1566.2913    919.16929    862.00393    28.379602    18.846568    14.337845   0.33636095   0.33635806   0.27937385   0.27924172    296.69689     41.49527    35.978931    34.423473    90.016431    119.66323    90.107069    18.845895     14.33676    28.376769    18.841446    14.331446 
  153000    292.64097    1.2509986    2076.1154   -1182.9434   -211.49952    2076.4917   -2308.8522    99.695327    44657.537 -0.067234084   -17.036218 -0.041707817    3491.4193    1564.1727    926.56583    856.15256    28.379602    18.846568    14.337845   0.32794736   0.32794265   0.27298055   0.27296317    292.64097     41.49527    35.978931    34.423473    90.016431    119.66323    90.107069    18.848308    14.337531     28.37706     18.84656    14.337373 
  154000    299.24002    1.2509986    2050.3702   -1192.2138   -211.49952    2075.8503   -2309.7747   -496.20079    44657.537 -0.067234084   -17.036218 -0.041707817    3476.5084     1539.069    926.54938    865.00661    28.379602    18.846568    14.337845   0.31169996   0.31169421   0.27239079   0.27237764    299.24002     41.49527    35.978931    34.423473    90.016431    119.66323    90.107069    18.847548    14.338051    28.381219     18.84758    14.336753 
  155000    295.07411    1.2509986    2241.5272   -1136.1933   -211.49952    2075.3073   -2309.1073     1975.713    44657.537 -0.067234084   -17.036218 -0.041707817    3611.5205    1632.4064    925.50329       894.28    28.379602    18.846568    14.337845   0.34196513   0.34196401   0.28913242   0.28910342    295.07411     41.49527    35.978931    34.423473    90.016431    119.66323    90.107069    18.845555    14.338581    28.377239    18.844686    14.341853 
  156000    289.42293    1.2509986    2177.9581   -1169.8282   -211.49952    2075.8059   -2309.4807   -394.91171    44657.537 -0.067234084   -17.036218 -0.041707817    3581.4611    1623.1153    951.93072    858.95224    28.379602    18.846568    14.337845   0.34302568   0.34302526   0.28792035    0.2878899    289.42293     41.49527    35.978931    34.423473    90.016431    119.66323    90.107069    18.846244    14.337368      28.3833    18.850007    14.335707 
  157000    297.33207    1.2509986    2046.4686   -1191.1714   -211.49952    2073.6365   -2309.8473    309.70878    44657.537 -0.067234084   -17.036218 -0.041707817    3473.8508    1574.9349    914.94074    841.15698    28.379602    18.846568    14.337845   0.34095092   0.34095024   0.29597422   0.29591161    297.33207     41.49527    35.978931    34.423473    90.016431    119.66323    90.107069    18.846104    14.336989    28.381987    18.850253    14.332211 
  158000    294.72862    1.2509986    2231.1103   -1167.3717   -211.49952    2073.9018    -2310.271   -1431.1187    44657.537 -0.067234084   -17.036218 -0.041707817    3634.8512    1633.3088    960.56125    887.47936    28.379602    18.846568    14.337845        0.365     0.364997   0.31372593    0.3136597    294.72862     41.49527    35.978931    34.423473    90.016431    119.66323    90.107069    18.846474    14.339091    28.376889     18.84402    14.345485 
  159000    296.89356    1.2509986    2064.6667   -1150.2857   -211.49952    2080.2965   -2308.7899    687.00917    44657.537 -0.067234084   -17.036218 -0.041707817    3443.4458    1510.2842    926.21561    861.29807    28.379602    18.846568    14.337845   0.36667537   0.36666234   0.31628724    0.3162462    296.89356     41.49527    35.978931    34.423473    90.016431    119.66323    90.107069    18.845922    14.336596    28.375153    18.844935    14.337399 
  160000    298.72633    1.2509986    2118.7566   -1175.4845   -211.49952    2074.6648   -2309.2065    1224.2835    44657.537 -0.067234084   -17.036218 -0.041707817    3528.7827    1548.2051    925.76055    894.05632    28.379602    18.846568    14.337845   0.35941888   0.35941594   0.30348153   0.30348142    298.72633     41.49527    35.978931    34.423473    90.016431    119.66323    90.107069    18.847155    14.338888    28.379416    18.849005    14.339333 
  161000    299.74663    1.2509986    2187.9787   -1174.8351   -211.49952    2072.9598   -2309.2244   -642.32527    44657.537 -0.067234084   -17.036218 -0.041707817    3599.0784    1633.9449    945.70871    869.41217    28.379602    18.846568    14.337845   0.35039374    0.3503886   0.28112897   0.28103409    299.74663     41.49527    35.978931    34.423473    90.016431    119.66323    90.107069    18.847192    14.339132      28.3869    18.846789    14.345639 
  162000    297.40397    1.2509986     2105.518   -1199.6937   -211.49952    2080.9576   -2308.8129   -45.656896    44657.537 -0.067234084   -17.036218 -0.041707817     3533.067    1594.3874    936.45129    845.19698    28.379602    18.846568    14.337845   0.35070463   0.35070251    0.2887026   0.28865052    297.40397     41.49527    35.978931    34.423473    90.016431    119.66323    90.107069    18.846549    14.339073    28.382682    18.848091    14.346077 
  163000    302.69137    1.2509986    2072.5595   -1200.1638   -211.49952    2077.6269   -2309.3386   -606.99306    44657.537 -0.067234084   -17.036218 -0.041707817     3504.435    1597.7167    918.11738    840.87661    28.379602    18.846568    14.337845   0.36234107   0.36233654   0.30850869   0.30833911    302.69137     41.49527    35.978931    34.423473    90.016431    119.66323    90.107069    18.847304    14.339308    28.375569    18.854302     14.35085 
  164000    298.51374    1.2509986    2100.0935    -1168.554   -211.49952    2076.8105   -2309.1871     405.2848    44657.537 -0.067234084   -17.036218 -0.041707817     3501.024    1551.8371    960.69149    843.55292    28.379602    18.846568    14.337845   0.36565248   0.36564973   0.31558407   0.31554749    298.51374     41.49527    35.978931    34.423473    90.016431    119.66323    90.107069    18.846345    14.338624    28.377973    18.844521    14.335911 
  165000    300.30735    1.2509986    2065.2207    -1179.065   -211.49952    2072.9845   -2309.0809   -101.73366    44657.537 -0.067234084   -17.036218 -0.041707817    3480.3821     1564.514    904.67787    864.16084    28.379602    18.846568    14.337845   0.37282811   0.37282619   0.31491879   0.31477729    300.30735     41.49527    35.978931    34.423473    90.016431    119.66323    90.107069     18.84694    14.337194    28.369721    18.844479    14.334717 
[...]
  961000    292.86789    1.2509986    2183.0042   -1157.9374   -211.49952    2080.3279   -2309.3783     887.2614    44657.537 -0.067234084   -17.036218 -0.041707817     3569.992    1588.5763     961.5879    870.23736    28.379606    18.846555    14.337842   0.38241504   0.38241467   0.32356584   0.32353339    292.86789     41.49527    35.978931    34.423473    90.016431    119.66323    90.107069    18.845664    14.338031    28.378326    18.844667    14.336166 
  962000    301.16934    1.2509986    2216.5864   -1185.6464   -211.49952    2072.4325   -2310.3214   -683.10502    44657.537 -0.067234084   -17.036218 -0.041707817    3640.1217    1650.1132    973.61813    861.76689    28.379606    18.846555    14.337842   0.37501779    0.3750158   0.32657783   0.32655247    301.16934     41.49527    35.978931    34.423473    90.016431    119.66323    90.107069     18.84531    14.338114    28.380448    18.844178    14.340725 
  963000    301.05264    1.2509986    2074.7281    -1185.643   -211.49952    2076.3798   -2309.8459    -626.9854    44657.537 -0.067234084   -17.036218 -0.041707817    3493.8371    1570.1861    914.06243     861.2983    28.379606    18.846555    14.337842   0.38870896   0.38870454   0.32938081   0.32937697    301.05264     41.49527    35.978931    34.423473    90.016431    119.66323    90.107069    18.848252    14.338102     28.38102      18.8503    14.339838 
  964000    299.20264    1.2509986     2140.032   -1190.0739   -211.49952    2076.6028   -2309.4545   -1479.6871    44657.537 -0.067234084   -17.036218 -0.041707817    3562.9575    1569.7571    922.98442    913.71668    28.379606    18.846555    14.337842   0.36937892   0.36936818   0.31698957    0.3167653    299.20264     41.49527    35.978931    34.423473    90.016431    119.66323    90.107069    18.844785    14.337234    28.389531    18.841881     14.33104 
  965000    303.42254    1.2509986    2131.5962   -1195.0222   -211.49952    2072.9959   -2309.7393    191.94295    44657.537 -0.067234084   -17.036218 -0.041707817    3563.3619    1575.6796    973.04704    864.06039    28.379606    18.846555    14.337842   0.33719803   0.33719694   0.30580777   0.30577747    303.42254     41.49527    35.978931    34.423473    90.016431    119.66323    90.107069      18.8455    14.338422    28.376316     18.84459    14.339146 
  966000    296.73447    1.2509986    2056.7822   -1149.9451   -211.49952    2076.9409   -2309.1129    1566.1176    44657.537 -0.067234084   -17.036218 -0.041707817    3438.8992    1489.7522     941.7657    860.60546    28.379606    18.846555    14.337842   0.35482389   0.35482282   0.29855738   0.29853248    296.73447     41.49527    35.978931    34.423473    90.016431    119.66323    90.107069     18.84598    14.337324    28.378045    18.847658     14.33508 
  967000    304.35805    1.2509986    2127.9579   -1190.4082   -211.49952    2080.2908   -2308.9784   -502.13896    44657.537 -0.067234084   -17.036218 -0.041707817    3547.0537    1626.4615    899.83124    872.11906    28.379606    18.846555    14.337842   0.33644488   0.33642024   0.27481685   0.27455277    304.35805     41.49527    35.978931    34.423473    90.016431    119.66323    90.107069    18.846722    14.339687    28.394608    18.851305    14.345319 
  968000    301.48297    1.2509986    2123.0909   -1152.0942   -211.49952    2072.8005    -2309.561    493.97913    44657.537 -0.067234084   -17.036218 -0.041707817    3511.9456    1561.7467    922.48669     872.6284    28.379606    18.846555    14.337842    0.3599636   0.35995836   0.30443127   0.30443021    301.48297     41.49527    35.978931    34.423473    90.016431    119.66323    90.107069    18.848436    14.338115    28.378762    18.848579    14.340131 
  969000     293.1649    1.2509986    2187.5818   -1154.7846   -211.49952    2075.8762   -2309.3753    431.08797    44657.537 -0.067234084   -17.036218 -0.041707817    3575.8656    1536.3311    960.04692     923.5398    28.379606    18.846555    14.337842   0.35124607   0.35124246   0.30591592   0.30585275     293.1649     41.49527    35.978931    34.423473    90.016431    119.66323    90.107069    18.847652    14.336965    28.385251    18.850272    14.334238 
  970000    301.72893    1.2509986     2104.966   -1181.4925   -211.49952    2074.3823   -2309.4873    655.40217    44657.537 -0.067234084   -17.036218 -0.041707817    3521.5635    1555.4309     944.5601    869.70261    28.379607    18.846555    14.337842   0.35525378   0.35525075   0.31111028   0.31102399    301.72893     41.49527    35.978931    34.423473    90.016431    119.66323    90.107069     18.84748    14.338829    28.385586     18.84574    14.345901 
  971000    296.22817    1.2509986    2217.2923   -1175.9943   -211.49952    2073.2461   -2309.9261   -2007.9881    44657.537 -0.067234084   -17.036218 -0.041707817    3629.9666    1586.7962    979.66926    909.43482    28.379607    18.846555    14.337842   0.38383021   0.38382414    0.3259637   0.32591415    296.22817     41.49527    35.978931    34.423473    90.016431    119.66323    90.107069    18.847217    14.338102    28.376376    18.843641    14.342892 
  972000    289.80447    1.2509986    2080.3466   -1150.3322   -211.49952    2076.7983   -2309.3989    246.92945    44657.537 -0.067234084   -17.036218 -0.041707817    3463.2794    1527.5081     918.2774    866.89504    28.379607    18.846555    14.337842   0.40342754   0.40342275   0.33841988   0.33832239    289.80447     41.49527    35.978931    34.423473    90.016431    119.66323    90.107069     18.84803    14.338404    28.384986    18.856968    14.341811 
  973000    302.36032    1.2509986    2093.3473   -1193.5292   -211.49952    2077.4221   -2309.4172   -492.47033    44657.537 -0.067234084   -17.036218 -0.041707817    3518.8717    1587.2743    906.73624    869.98092    28.379607    18.846555    14.337842   0.36562573     0.365622   0.30533388    0.3052648    302.36032     41.49527    35.978931    34.423473    90.016431    119.66323    90.107069    18.844787    14.337829    28.383342    18.843889    14.334301 
  974000    297.07698    1.2509986    2165.2651   -1201.1774   -211.49952    2075.7121   -2309.4729   -823.86606    44657.537 -0.067234084   -17.036218 -0.041707817    3600.2033    1616.3358     931.4302    895.79267    28.379607    18.846555    14.337842   0.32183097   0.32182665   0.28080646    0.2807073    297.07698     41.49527    35.978931    34.423473    90.016431    119.66323    90.107069    18.844686    14.338981    28.373007    18.848361     14.34711 
  975000    303.44054    1.2509986    2169.1924   -1188.0855   -211.49952    2080.2521   -2309.3729    561.43041    44657.537 -0.067234084   -17.036218 -0.041707817    3586.3988    1632.5236    931.65092    872.44736    28.379607    18.846555    14.337842   0.33764965   0.33764632   0.29598518   0.29572741    303.44054     41.49527    35.978931    34.423473    90.016431    119.66323    90.107069    18.846246    14.339555      28.3681    18.844019    14.349717 
  976000     297.6808    1.2509986    2144.7838   -1150.8191   -211.49952    2075.8444   -2309.1535    516.38678    44657.537 -0.067234084   -17.036218 -0.041707817     3528.912    1548.9073    932.60465    891.05536    28.379607    18.846555    14.337842   0.34865938   0.34865245   0.30705463   0.30675733     297.6808     41.49527    35.978931    34.423473    90.016431    119.66323    90.107069    18.844959    14.336963    28.376913    18.833908    14.331753 
  977000    299.52014    1.2509986    2100.3717    -1160.435   -211.49952    2074.9306   -2309.2305   -443.61331    44657.537 -0.067234084   -17.036218 -0.041707817    3495.1065     1568.818    927.53204    849.61946    28.379607    18.846555    14.337842   0.35256137   0.35255218   0.29859174   0.29837638    299.52014     41.49527    35.978931    34.423473    90.016431    119.66323    90.107069    18.844975    14.338833    28.387352    18.838637    14.346487 
  978000    295.09805    1.2509986    2158.6967   -1146.2112   -211.49952    2071.1058   -2310.0212    1316.3402    44657.537 -0.067234084   -17.036218 -0.041707817    3543.8233    1556.5152    985.10463      852.805    28.379607    18.846555    14.337842   0.35773403   0.35773332   0.30705604   0.30703951    295.09805     41.49527    35.978931    34.423473    90.016431    119.66323    90.107069    18.846981     14.33784    28.383539    18.849796      14.3394 
  979000     299.1798    1.2509986    2166.9386   -1153.0301   -211.49952    2076.6768   -2309.2043    799.74283    44657.537 -0.067234084   -17.036218 -0.041707817    3552.4963    1613.0685    932.61343    857.70845    28.379607    18.846555    14.337842   0.37919511   0.37919479   0.32562842   0.32554247     299.1798     41.49527    35.978931    34.423473    90.016431    119.66323    90.107069    18.846276     14.33723     28.38096    18.843032    14.332695 
  980000    300.25598    1.2509986    2133.2113   -1187.3634   -211.49952    2081.9486   -2309.2471   -882.77705    44657.537 -0.067234084   -17.036218 -0.041707817    3547.8732    1610.3453    902.21525    880.81851    28.379607    18.846555    14.337842   0.37560499   0.37560462   0.31996346   0.31988653    300.25598     41.49527    35.978931    34.423473    90.016431    119.66323    90.107069    18.845797    14.337364    28.380575    18.841521    14.335193 
  981000    290.83875    1.2509986    2147.5863   -1174.4234   -211.49952    2075.1051   -2309.7325   -304.41863    44657.537 -0.067234084   -17.036218 -0.041707817    3556.6372    1574.0874     959.6661    874.70796    28.379607    18.846555    14.337842   0.37741569    0.3774113   0.33387605   0.33374123    290.83875     41.49527    35.978931    34.423473    90.016431    119.66323    90.107069    18.846463    14.338723    28.390171    18.844389    14.340521 
  982000    293.99428    1.2509986    2081.5884   -1180.1043   -211.49952    2075.8625   -2309.3389    682.30716    44657.537 -0.067234084   -17.036218 -0.041707817     3495.169    1528.5269       936.29    877.42009    28.379607    18.846555    14.337842   0.36642417    0.3664226   0.30798599   0.30790169    293.99428     41.49527    35.978931    34.423473    90.016431    119.66323    90.107069    18.846484     14.33819    28.374162    18.841922    14.341856 
  983000    292.99641    1.2509986    2134.5138   -1183.6003   -211.49952    2081.2663   -2308.9384    -126.6096    44657.537 -0.067234084   -17.036218 -0.041707817    3545.7861    1554.5054    973.12584    867.38076    28.379607    18.846555    14.337842   0.39336921   0.39336165   0.33739077   0.33737619    292.99641     41.49527    35.978931    34.423473    90.016431    119.66323    90.107069    18.848914    14.337658    28.382699    18.851142    14.339224 
  984000    297.40868    1.2509986    2154.9184    -1168.948   -211.49952    2076.1237    -2308.419    1001.9518    44657.537 -0.067234084   -17.036218 -0.041707817    3556.1617     1546.701    949.63509    902.56688    28.379607    18.846555    14.337841   0.38798371   0.38797934   0.32944895   0.32931128    297.40868     41.49527    35.978931    34.423473    90.016431    119.66323    90.107069    18.846735    14.336935    28.371656    18.845967    14.331516 
  985000    295.18509    1.2509986    2111.7947   -1169.4848   -211.49952     2078.894   -2309.8932    29.191998    44657.537 -0.067234084   -17.036218 -0.041707817    3512.2786    1548.1467    950.73786    867.60787    28.379607    18.846555    14.337841   0.39263926   0.39263497   0.33379439   0.33342397    295.18509     41.49527    35.978931    34.423473    90.016431    119.66323    90.107069      18.8472    14.336461     28.39176     18.85317    14.325348 
  986000     303.9237    1.2509986    2184.3457   -1173.3626   -211.49952     2073.233   -2309.0094    -371.0819    44657.537 -0.067234084   -17.036218 -0.041707817    3593.4847    1559.1469      979.329    899.85563    28.379607    18.846555    14.337841   0.40814599   0.40813531   0.35369006   0.35357254     303.9237     41.49527    35.978931    34.423473    90.016431    119.66323    90.107069    18.849267    14.338189    28.388954    18.853097    14.343178 
  987000    297.98969    1.2509986    2166.5003   -1177.7724   -211.49952     2071.723   -2309.5403    -1526.817    44657.537 -0.067234084   -17.036218 -0.041707817      3582.09    1583.5557    954.64315    894.89847    28.379607    18.846555    14.337841   0.39725723   0.39725476   0.33618768   0.33603404    297.98969     41.49527    35.978931    34.423473    90.016431    119.66323    90.107069    18.846143     14.33916    28.391183    18.846629    14.343215 
  988000    301.88747    1.2509986    2009.3885   -1167.2415   -211.49952    2075.0072   -2309.2066   -392.51673    44657.537 -0.067234084   -17.036218 -0.041707817    3410.8294    1490.1169    929.45346    848.66188    28.379607    18.846555    14.337841   0.39601131   0.39600718   0.33621233   0.33604057    301.88747     41.49527    35.978931    34.423473    90.016431    119.66323    90.107069    18.846918     14.33806    28.367451    18.844016    14.339144 
  989000    293.92926    1.2509986      2149.58   -1180.3339   -211.49952    2081.2168   -2308.6492   -1789.3027    44657.537 -0.067234084   -17.036218 -0.041707817    3557.3464    1575.2738     977.4561    856.72352    28.379607    18.846555    14.337841   0.39447347   0.39446648   0.33269622   0.33258789    293.92926     41.49527    35.978931    34.423473    90.016431    119.66323    90.107069    18.844545    14.336542    28.381277    18.840699    14.333617 
  990000    302.42976    1.2509986    2151.8151   -1158.5676   -211.49952    2074.2331   -2309.5923    1313.8826    44657.537 -0.067234084   -17.036218 -0.041707817    3545.7419    1576.3103    938.89025    878.55789    28.379607    18.846555    14.337841   0.39098006   0.39097751   0.34593789   0.34590301    302.42976     41.49527    35.978931    34.423473    90.016431    119.66323    90.107069    18.846762    14.338059    28.380558    18.843318    14.340837 
  991000    300.30905    1.2509986    2201.0365   -1159.7027   -211.49952    2075.2281   -2309.4088   -650.87198    44657.537 -0.067234084   -17.036218 -0.041707817    3594.9198    1561.6449    959.75293    917.32979    28.379607    18.846555    14.337841   0.39594751   0.39593346   0.32865527    0.3284032    300.30905     41.49527    35.978931    34.423473    90.016431    119.66323    90.107069    18.845357    14.338203    28.395094    18.846444    14.341657 
  992000    306.76135    1.2509986    2147.8087   -1164.6965   -211.49952    2083.6539   -2309.5346    208.02834    44657.537 -0.067234084   -17.036218 -0.041707817    3538.3859    1547.5301    909.11189    923.64573    28.379607    18.846555    14.337841   0.39132399   0.39132229   0.33860124   0.33853209    306.76135     41.49527    35.978931    34.423473    90.016431    119.66323    90.107069    18.845477    14.337752    28.375802    18.842011    14.337184 
  993000    296.23053    1.2509986    2177.5944   -1153.7584   -211.49952    2078.3842   -2309.3925    565.84071    44657.537 -0.067234084   -17.036218 -0.041707817     3562.361    1544.0267    996.05542    869.94588    28.379607    18.846555    14.337841   0.38451863   0.38451687   0.31896938   0.31893482    296.23053     41.49527    35.978931    34.423473    90.016431    119.66323    90.107069    18.847498    14.337858      28.3784    18.848547    14.333893 
  994000    301.68758    1.2509986    2165.2572   -1187.1146   -211.49952    2072.7741   -2309.5349    725.09852    44657.537 -0.067234084   -17.036218 -0.041707817    3589.1326     1606.759    954.97484    878.07358    28.379607    18.846555    14.337841   0.37461031   0.37459848   0.31359029   0.31348617    301.68758     41.49527    35.978931    34.423473    90.016431    119.66323    90.107069     18.84535    14.339044    28.386006     18.84208     14.34344 
  995000    297.35278    1.2509986    2083.1872   -1182.9632   -211.49952    2074.8812   -2309.3715     479.4105    44657.537 -0.067234084   -17.036218 -0.041707817    3500.6406    1538.9325    951.25389    862.92481    28.379607    18.846555    14.337841   0.38573426     0.385733   0.33172552   0.33158746    297.35278     41.49527    35.978931    34.423473    90.016431    119.66323    90.107069    18.846674    14.338738    28.368009    18.847766    14.341418 
  996000    298.50158    1.2509986    2138.1248   -1199.1851   -211.49952    2079.6364   -2309.4131   -175.40781    44657.537 -0.067234084   -17.036218 -0.041707817    3567.0866    1573.6054    964.20714    879.93252    28.379607    18.846555    14.337841   0.37111174   0.37111059   0.31444779   0.31441823    298.50158     41.49527    35.978931    34.423473    90.016431    119.66323    90.107069    18.846127    14.338121    28.374811    18.846478    14.340421 
  997000    301.06687    1.2509986    2198.7366   -1146.4614   -211.49952    2080.3311   -2308.8912    848.71868    44657.537 -0.067234084   -17.036218 -0.041707817    3573.7581    1565.5365    963.81842    891.92512    28.379607    18.846555    14.337841   0.38847776   0.38847601   0.34375355   0.34366636    301.06687     41.49527    35.978931    34.423473    90.016431    119.66323    90.107069    18.845867    14.338875     28.38232    18.841376    14.344246 
  998000    301.42384    1.2509986    2201.2837   -1198.6031   -211.49952    2073.9887   -2309.2444   -1295.4943    44657.537 -0.067234084   -17.036218 -0.041707817    3635.1426    1608.2023    989.73826    881.55927    28.379607    18.846555    14.337841   0.37086592     0.370865   0.32112801   0.32110555    301.42384     41.49527    35.978931    34.423473    90.016431    119.66323    90.107069    18.847037    14.337855    28.378759    18.844453    14.340655 
  999000    293.91228    1.2509986    2150.7437   -1177.8648   -211.49952    2076.7728   -2309.2348   -1017.4943    44657.537 -0.067234084   -17.036218 -0.041707817    3561.0705    1611.5121    906.57607    891.04981    28.379607    18.846555    14.337841   0.36894041   0.36893829   0.31258788   0.31252782    293.91228     41.49527    35.978931    34.423473    90.016431    119.66323    90.107069    18.847283    14.336813      28.3807    18.848877    14.331974 
 1000000    299.42285    1.2509986    2146.7849   -1136.3488   -211.49952    2076.4667   -2308.6836    150.06286    44657.537 -0.067234084   -17.036218 -0.041707817    3515.3507    1584.2828    931.07185    854.18208    28.379607    18.846555    14.337841   0.38640774   0.38640111   0.32810204   0.32805567    299.42285     41.49527    35.978931    34.423473    90.016431    119.66323    90.107069    18.844941    14.339654    28.378533    18.845414    14.345328 
Loop time of 3125.83 on 60 procs for 1000000 steps with 4560 atoms

Pair  time (%) = 550.978 (17.6266)
Bond  time (%) = 59.1085 (1.89097)
Kspce time (%) = 1650.72 (52.809)
Neigh time (%) = 14.5861 (0.466631)
Comm  time (%) = 579.501 (18.5391)
Outpt time (%) = 3.05403 (0.097703)
Other time (%) = 267.883 (8.56996)

Nlocal:    76 ave 83 max 70 min
Histogram: 5 6 5 9 9 7 10 4 2 3
Nghost:    3989.33 ave 4051 max 3890 min
Histogram: 3 11 4 2 0 0 2 12 16 10
Neighs:    28103.5 ave 30827 max 25636 min
Histogram: 3 5 7 9 7 12 5 5 5 2

Total # of neighbors = 1686207
Ave neighs/atom = 369.782
Ave special neighs/atom = 10.6316
Neighbor list builds = 6581
Dangerous builds = 0
System init for write_data ...
PPPM initialization ...
  G vector (1/distance) = 0.246499
  grid = 16 16 20
  stencil order = 5
  estimated absolute RMS force accuracy = 0.00242397
  estimated relative force accuracy = 7.2997e-06
  using double precision FFTs
  3d grid and FFT values/proc = 1053 112
