LAMMPS data file via write_data, version 15 May 2015, timestep = 23005000

2611 atoms
6 atom types
1749 bonds
4 bond types
894 angles
3 angle types
44 dihedrals
3 dihedral types
10 impropers
1 improper types

-1.4920640431575405e+01 1.4920640431575405e+01 xlo xhi
-1.4920640431575405e+01 1.4920640431575405e+01 ylo yhi
-1.4920640431575405e+01 1.4920640431575405e+01 zlo zhi

Masses

1 15.9994
2 1.00794
3 12.0107
4 1.00794
5 12.0107
6 12.0107

Bond Coeffs # harmonic

1 1000 1
2 469 1.4
3 367 1.08
4 469 0.7

Angle Coeffs # harmonic

1 100 109.47
2 35 120
3 63 120

Dihedral Coeffs # opls

1 0 7.25 0 0
2 0 7.25 0 0
3 0 7.25 0 0

Improper Coeffs # cvff

1 2.5 -1 2

Atoms # full

586 196 1 -8.1999999999999995e-01 -1.3304071952835102e+01 -1.1447319395316814e+01 -1.3140890532239666e+01 4 1 -1
588 196 2 4.0999999999999998e-01 -1.2489873247642258e+01 -1.1204130954314612e+01 -1.3668102672916872e+01 4 1 -1
335 112 2 4.0999999999999998e-01 -5.9058267070585728e+00 -1.4000566506607276e+01 -1.3818417497543724e+01 -4 8 -3
620 207 2 4.0999999999999998e-01 -8.7761668295640085e+00 -1.4596198765981066e+01 -7.7132112759869882e+00 -1 2 1
1239 413 2 4.0999999999999998e-01 -1.3703657565550980e+01 -9.5975601789039366e+00 -8.9671204782861746e+00 3 0 0
2279 760 2 4.0999999999999998e-01 -1.2225745014057964e+01 -1.0009593479634560e+01 -9.6200284370160851e+00 -4 0 3
341 114 2 4.0999999999999998e-01 -1.1243828506461051e+01 -1.1429544783249044e+01 -1.0672483195804546e+01 -3 6 1
1237 413 1 -8.1999999999999995e-01 -1.4589475378067112e+01 -1.0031028061716897e+01 -8.8014546159914300e+00 3 0 0
1469 490 2 4.0999999999999998e-01 -1.2752949826114701e+01 -1.4752401046026476e+01 -8.2802503687943858e+00 -1 -1 1
1974 658 2 4.0999999999999998e-01 -6.7944298904426237e+00 -1.2297505273384312e+01 -8.0790015357925178e+00 -5 3 1
2305 769 1 -8.1999999999999995e-01 -1.1522296146545218e+01 -1.4356500049109661e+01 -1.2218832709051371e+01 5 -1 3
2020 674 1 -8.1999999999999995e-01 -1.1964538192024939e+01 -1.3065653028727166e+01 -8.0342468982750219e+00 -3 3 -1
2022 674 2 4.0999999999999998e-01 -1.1809404148501264e+01 -1.2565132710742713e+01 -8.8859660953755490e+00 -3 3 -1
1452 484 2 4.0999999999999998e-01 -8.9173343710030739e+00 -1.1725132686260178e+01 -9.7289896379669543e+00 -1 1 -5
340 114 1 -8.1999999999999995e-01 -1.2212048298698420e+01 -1.1450168920625464e+01 -1.0423208474681724e+01 -3 6 1
541 181 1 -8.1999999999999995e-01 -1.4280466989698422e+01 -1.4248410143868892e+01 -1.1889368944721905e+01 4 -3 0
942 314 2 4.0999999999999998e-01 -9.0656662286239271e+00 -8.8960166528156819e+00 -9.9770762742141184e+00 2 6 0
1450 484 1 -8.1999999999999995e-01 -9.5429867951373488e+00 -1.1978825672951045e+01 -1.0466696653414024e+01 -1 1 -5
1451 484 2 4.0999999999999998e-01 -9.1977548204968791e+00 -1.2794575497947866e+01 -1.0930787008448609e+01 -1 1 -5
587 196 2 4.0999999999999998e-01 -1.3943444643724703e+01 -1.1946036944215603e+01 -1.3726122259156865e+01 4 1 -1
414 138 2 4.0999999999999998e-01 -5.6254767173648368e+00 -8.7789093681734620e+00 -1.2471889336504228e+01 -6 4 -3
342 114 2 4.0999999999999998e-01 -1.2757632094797927e+01 -1.1693110292849074e+01 -1.1225287397126925e+01 -3 6 1
81 27 2 4.0999999999999998e-01 -6.8371926246041177e+00 -1.1486865886039446e+01 -1.1919248097900793e+01 0 9 2
80 27 2 4.0999999999999998e-01 -7.0636767604029389e+00 -1.2993474601197343e+01 -1.1331459326965183e+01 0 9 2
79 27 1 -8.1999999999999995e-01 -6.4318281663249390e+00 -1.2219458581470965e+01 -1.1372438889364020e+01 0 9 2
1972 658 1 -8.1999999999999995e-01 -7.1326406696297484e+00 -1.1684625992224326e+01 -8.7931480375916511e+00 -5 3 1
443 148 2 4.0999999999999998e-01 -7.1714032825676259e+00 -1.0404249840814781e+01 -7.7457130863484114e+00 -3 2 0
2585 862 2 4.0999999999999998e-01 -5.0950842975790156e+00 -9.3917947316726540e+00 -1.0310564565925230e+01 2 2 1
412 138 1 -8.1999999999999995e-01 -6.3387967121169027e+00 -9.4691936651217414e+00 -1.2350666622551898e+01 -6 4 -3
543 181 2 4.0999999999999998e-01 -1.3331041442267020e+01 -1.3943978934220498e+01 -1.1966346528614009e+01 4 -3 0
542 181 2 4.0999999999999998e-01 -1.4855224929370229e+01 -1.3479787543510470e+01 -1.1608503531214691e+01 4 -3 0
855 285 2 4.0999999999999998e-01 -1.1449929060084571e+01 -8.2983199282941165e+00 -1.3494841306859049e+01 3 0 0
413 138 2 4.0999999999999998e-01 -7.1627051612078168e+00 -9.0364039586354075e+00 -1.1984769434902732e+01 -6 4 -3
950 317 2 4.0999999999999998e-01 -1.4739077196319609e+01 -1.0504167533780992e+01 -1.2319025165656269e+01 0 0 3
853 285 1 -8.1999999999999995e-01 -1.1311643318213735e+01 -7.5340280303863834e+00 -1.2864962139043859e+01 3 0 0
1907 636 2 4.0999999999999998e-01 -7.0183181825897458e+00 -9.1376931308886320e+00 -1.4308849523270418e+01 2 2 0
2307 769 2 4.0999999999999998e-01 -1.1178007119025926e+01 -1.4133123487698304e+01 -1.3130743212673348e+01 5 -1 3
940 314 1 -8.1999999999999995e-01 -9.4143407328298707e+00 -8.8018226653026908e+00 -9.0445708440587538e+00 2 6 0
941 314 2 4.0999999999999998e-01 -8.7174186157113880e+00 -9.1072213927209660e+00 -8.3956918330177714e+00 2 6 0
1213 405 1 -8.1999999999999995e-01 -8.2200216437320819e+00 -1.4479929453721374e+01 -1.1391636521181157e+01 4 3 -5
1973 658 2 4.0999999999999998e-01 -6.7985614210141474e+00 -1.1993897855405558e+01 -9.6835157915028187e+00 -5 3 1
2278 760 1 -8.1999999999999995e-01 -1.2050044235398373e+01 -9.1813652896406470e+00 -9.0878817895788870e+00 -4 0 3
334 112 1 -8.1999999999999995e-01 -5.2173428957227355e+00 -1.4404681169942434e+01 -1.3216176566359627e+01 -4 8 -3
2280 760 2 4.0999999999999998e-01 -1.1089173959817565e+01 -8.9213518697982792e+00 -9.1834542453015029e+00 -4 0 3
1016 339 2 4.0999999999999998e-01 -9.3869211760511604e+00 -8.1201494140454269e+00 -1.1918521385723658e+01 2 -1 0
755 252 2 4.0999999999999998e-01 -1.2966287292613508e+01 -7.4671166181388520e+00 -9.0505624305293662e+00 -7 3 2
1015 339 1 -8.1999999999999995e-01 -8.4484805561587777e+00 -8.1849109097618751e+00 -1.1579186823965122e+01 2 -1 0
294 98 2 4.0999999999999998e-01 -5.2719194786787753e+00 -1.0893924131630317e+01 -1.3393647975619665e+01 -2 1 -1
293 98 2 4.0999999999999998e-01 -5.5439397157607662e+00 -1.2152023830028121e+01 -1.4398561253824813e+01 -2 1 -1
103 35 1 -8.1999999999999995e-01 -1.1991564874178227e+01 -9.1771514642076681e+00 -1.4838229712641400e+01 -3 4 3
670 224 1 -8.1999999999999995e-01 -1.0730914490023615e+01 -1.4279636229180799e+01 -1.4876580501464916e+01 3 -2 -2
1420 474 1 -8.1999999999999995e-01 -6.9911563276470821e+00 -1.3004894209918229e+01 -1.4883490066863663e+01 1 7 1
1391 464 2 4.0999999999999998e-01 -1.0945636926483919e+01 -1.2463707051910720e+01 -1.4846235401535614e+01 1 2 -2
2105 702 2 4.0999999999999998e-01 -1.4390216796808556e+01 -2.9556834803775498e+00 -1.4841921275296455e+01 1 6 -3
2540 847 2 4.0999999999999998e-01 -5.5596832735956365e+00 -3.2713850407351224e+00 -1.3857854968855607e+01 -6 -2 -6
909 303 2 4.0999999999999998e-01 -1.3832989850500740e+01 -5.0343632714609310e+00 -1.1436845170568732e+01 4 2 4
386 129 2 4.0999999999999998e-01 -1.4347663759656296e+01 -1.7491729643296399e+00 -1.0155308497511644e+01 -3 3 -4
850 284 1 -8.1999999999999995e-01 -9.6075604259822107e+00 -4.2277348362284606e-01 -9.2881877265108628e+00 4 4 -2
1065 355 2 4.0999999999999998e-01 -6.5037109532712343e+00 -5.8743544384710074e+00 -1.4119717985794784e+01 -3 -1 2
907 303 1 -8.1999999999999995e-01 -1.3128506129128718e+01 -5.2505247238361754e+00 -1.2112855287123804e+01 4 2 4
1263 421 2 4.0999999999999998e-01 -8.9445533269656892e+00 -8.6090290474579945e-01 -1.1128601511869018e+01 4 3 -1
1958 653 2 4.0999999999999998e-01 -1.1931403612530078e+01 -2.7004819935997677e+00 -1.0371844773607616e+01 3 0 -3
1892 631 2 4.0999999999999998e-01 -6.6024699336443415e+00 -2.9991440660783475e-01 -1.1530593690956108e+01 5 0 1
1415 472 2 4.0999999999999998e-01 -6.8276770259858779e+00 -3.7264099315696484e+00 -9.2637752452717717e+00 -3 6 0
140 47 2 4.0999999999999998e-01 -1.4456127351247162e+01 -1.4204362590472481e+00 -1.3407337979830436e+01 0 -5 3
851 284 2 4.0999999999999998e-01 -1.0117319461631871e+01 -7.6389979652145712e-01 -8.4983831353686323e+00 4 4 -2
18 6 2 4.0999999999999998e-01 -1.0111805195993089e+01 -5.4442693160717148e-01 -1.3585628762321134e+01 -2 0 5
1959 653 2 4.0999999999999998e-01 -1.0666981722268311e+01 -3.5899675598850447e+00 -9.8458095310211142e+00 3 0 -3
1063 355 1 -8.1999999999999995e-01 -6.8459901217148236e+00 -4.9983702010640521e+00 -1.3779851282233050e+01 -3 -1 2
1370 457 2 4.0999999999999998e-01 -1.2793759957075570e+01 -2.6002634078748343e-01 -9.3521670370772405e+00 1 0 1
1371 457 2 4.0999999999999998e-01 -1.1574956139607719e+01 -6.6888016723503796e-01 -1.0359150845247495e+01 1 0 1
1064 355 2 4.0999999999999998e-01 -7.0920893174075452e+00 -5.0884490459428111e+00 -1.2814794920713503e+01 -3 -1 2
1888 630 1 -8.1999999999999995e-01 -7.0186983565622105e+00 -5.7623993691223596e+00 -1.1169345419519516e+01 -1 3 -2
1261 421 1 -8.1999999999999995e-01 -8.1221382465030416e+00 -1.0366424026561010e+00 -1.1669676231947959e+01 4 3 -1
2065 689 1 -8.1999999999999995e-01 -1.4773462417540101e+01 -4.5600144731007806e+00 -1.4289443853590093e+01 -4 -3 0
991 331 1 -8.1999999999999995e-01 -9.8114754094794492e+00 -4.1225525534821763e+00 -8.2428975488198049e+00 -7 -2 3
1889 630 2 4.0999999999999998e-01 -6.1141497013275181e+00 -6.0317240122844247e+00 -1.0838787198267685e+01 -1 3 -2
2067 689 2 4.0999999999999998e-01 -1.4516834846791747e+01 -4.9399889804503854e+00 -1.3400751337395656e+01 -4 -3 0
1262 421 2 4.0999999999999998e-01 -8.3739614061811984e+00 -1.5060027606361057e+00 -1.2516020562186165e+01 4 3 -1
1499 500 2 4.0999999999999998e-01 -9.9206450895910763e+00 -5.6647250216437151e+00 -7.6627127776224473e+00 5 1 -5
612 204 2 4.0999999999999998e-01 -9.8993517643159379e+00 -5.4214560860241416e+00 -1.4272797842226717e+01 -4 7 -3
1500 500 2 4.0999999999999998e-01 -9.6777345735077773e+00 -7.2509982219110141e+00 -7.9650245554632058e+00 5 1 -5
722 241 2 4.0999999999999998e-01 -1.2130459330505836e+01 -2.2842982684043331e+00 -1.4423193623272974e+01 -7 4 -2
1890 630 2 4.0999999999999998e-01 -7.2969027628630494e+00 -4.9117152060818938e+00 -1.0723305562667838e+01 -1 3 -2
723 241 2 4.0999999999999998e-01 -1.1861146387319017e+01 -2.6981782208759881e+00 -1.2866648006291308e+01 -7 4 -2
1017 339 2 4.0999999999999998e-01 -8.1024485626750433e+00 -7.2682982598336459e+00 -1.1378947206642682e+01 2 -1 0
721 241 1 -8.1999999999999995e-01 -1.1431169990634672e+01 -2.3945042647693899e+00 -1.3716892170234335e+01 -7 4 -2
993 331 2 4.0999999999999998e-01 -8.9421353307892737e+00 -3.7315646408384087e+00 -8.5452038095263134e+00 -7 -2 3
1255 419 1 -8.1999999999999995e-01 -8.8256324994881368e+00 -2.7761763068516068e+00 -1.3908499811313479e+01 -2 -1 -1
1163 388 2 4.0999999999999998e-01 -1.0440351260827061e+01 -6.2427417230990656e+00 -1.2500213231288477e+01 -2 2 -1
1257 419 2 4.0999999999999998e-01 -9.8123141725424396e+00 -2.9217271027943568e+00 -1.3835788059268140e+01 -2 -1 -1
1369 457 1 -8.1999999999999995e-01 -1.2380193964700528e+01 -1.0073344780076408e+00 -9.8722694305905527e+00 1 0 1
1416 472 2 4.0999999999999998e-01 -7.5778855338050652e+00 -2.7498731057599457e+00 -1.0336260020775697e+01 -3 6 0
756 252 2 4.0999999999999998e-01 -1.3381749167104914e+01 -6.1566396524572067e+00 -8.1692553879594172e+00 -7 3 2
1162 388 1 -8.1999999999999995e-01 -9.9881104631058761e+00 -5.3683326120110610e+00 -1.2324429912310739e+01 -2 2 -1
908 303 2 4.0999999999999998e-01 -1.2291331297134786e+01 -4.7493922074953669e+00 -1.1893726903451867e+01 4 2 4
1414 472 1 -8.1999999999999995e-01 -7.6675313719183924e+00 -3.5804500759852012e+00 -9.7866071247370634e+00 -3 6 0
1957 653 1 -8.1999999999999995e-01 -1.1280755949142588e+01 -3.4193326202491434e+00 -1.0616638755507193e+01 3 0 -3
1256 419 2 4.0999999999999998e-01 -8.3767739904435388e+00 -3.6411088337160020e+00 -1.4133067204050182e+01 -2 -1 -1
854 285 2 4.0999999999999998e-01 -1.2132121011837901e+01 -6.9625592086839960e+00 -1.2849072032955824e+01 3 0 0
1164 388 2 4.0999999999999998e-01 -1.0383695721210970e+01 -4.9465595882405307e+00 -1.1508566806324826e+01 -2 2 -1
754 252 1 -8.1999999999999995e-01 -1.3392483824584302e+01 -6.5630566528584051e+00 -9.0828870177297887e+00 -7 3 2
992 331 2 4.0999999999999998e-01 -1.0173576088276796e+01 -3.5825031812861390e+00 -7.4831327648217210e+00 -7 -2 3
2104 702 1 -8.1999999999999995e-01 -1.3955533738024238e+01 -2.0570701543408205e+00 -1.4901565498551340e+01 1 6 -3
1685 562 2 4.0999999999999998e-01 -8.3373142354024523e+00 -1.3172099677591451e+01 -5.5212881073310065e+00 4 1 7
1684 562 1 -8.1999999999999995e-01 -8.0854949847509374e+00 -1.2853615069276616e+01 -4.6074131744700946e+00 4 1 7
827 276 2 4.0999999999999998e-01 -1.0991283168511947e+01 -1.3780252999121119e+01 -3.5395877003538327e+00 0 3 2
826 276 1 -8.1999999999999995e-01 -1.0497499520491411e+01 -1.4371454504467932e+01 -4.1772954967368907e+00 0 3 2
828 276 2 4.0999999999999998e-01 -9.6627361280388993e+00 -1.3911512400100358e+01 -4.4800100948971391e+00 0 3 2
763 255 1 -8.1999999999999995e-01 -9.9446776676800255e+00 -1.0318276389473738e+01 -4.5039607507054971e+00 -1 7 -4
2149 717 1 -8.1999999999999995e-01 -1.1977211127455941e+01 -9.9880408292877458e+00 -6.2895602876755756e+00 -4 1 1
690 230 2 4.0999999999999998e-01 -1.3513103136446034e+01 -1.2867290623667783e+01 -4.0527053087880720e+00 -3 3 -2
688 230 1 -8.1999999999999995e-01 -1.4353102600396326e+01 -1.3407274381406182e+01 -3.9994965094918609e+00 -3 3 -2
689 230 2 4.0999999999999998e-01 -1.4377176657593472e+01 -1.4061578382530193e+01 -4.7553533156598036e+00 -3 3 -2
2151 717 2 4.0999999999999998e-01 -1.1807067170504805e+01 -9.4546542495823793e+00 -7.1181510072325258e+00 -4 1 1
1686 562 2 4.0999999999999998e-01 -7.0900615833262899e+00 -1.2785093183893897e+01 -4.5408558624293356e+00 4 1 7
765 255 2 4.0999999999999998e-01 -9.3757371322190401e+00 -1.1138927717518872e+01 -4.5573540166469932e+00 -1 7 -4
510 170 2 4.0999999999999998e-01 -1.2603033919618362e+01 -1.2257668237626033e+01 -1.9498268103831773e+00 -5 -5 1
1920 640 2 4.0999999999999998e-01 -7.2322644622152081e+00 -9.4153161297563770e+00 -2.9375433101920443e+00 -1 1 3
508 170 1 -8.1999999999999995e-01 -1.1913652207615081e+01 -1.2917104228040300e+01 -2.2496764441038675e+00 -5 -5 1
509 170 2 4.0999999999999998e-01 -1.1072563788195055e+01 -1.2781363967729622e+01 -1.7260757816767072e+00 -5 -5 1
2269 757 1 -8.1999999999999995e-01 -1.3612274450098305e+01 -1.0717088288848128e+01 -1.5674403770155116e+00 -1 0 -4
2150 717 2 4.0999999999999998e-01 -1.2859726773915700e+01 -1.0451900258166207e+01 -6.3671059317703094e+00 -4 1 1
78 26 2 4.0999999999999998e-01 -6.4098896417439999e+00 -9.3435210922100715e+00 -4.7898029256284591e+00 -7 5 0
2418 806 2 4.0999999999999998e-01 -1.4697730871372821e+01 -1.2126508252159448e+01 -5.7573979557745414e+00 4 2 -4
1201 401 1 -8.1999999999999995e-01 -6.0652198223578964e+00 -1.3530969969880900e+01 -6.6683018522007309e+00 2 2 -3
2041 681 1 -8.1999999999999995e-01 -1.0469343282011327e+01 -8.5527741716053391e+00 -2.3646968189956521e+00 0 -1 1
2043 681 2 4.0999999999999998e-01 -1.0531828413911908e+01 -9.4246101350202345e+00 -2.8505058891247383e+00 0 -1 1
807 269 2 4.0999999999999998e-01 -7.4977711840099897e+00 -1.3442275691835288e+01 -1.4792892728492344e+00 -8 4 -5
493 165 1 -8.1999999999999995e-01 -5.0991843929303400e+00 -1.2892451624819932e+01 -4.0341632339054563e+00 -1 -2 3
495 165 2 4.0999999999999998e-01 -5.4700916333533911e+00 -1.3217135437443943e+01 -3.1640937060451506e+00 -1 -2 3
76 26 1 -8.1999999999999995e-01 -6.6500510268757385e+00 -8.5090943661107943e+00 -4.2937511830831188e+00 -7 5 0
593 198 2 4.0999999999999998e-01 -5.5844376365939858e+00 -1.0330327518671140e+01 -1.1847808047541690e+00 4 -1 3
77 26 2 4.0999999999999998e-01 -7.5095628562344192e+00 -8.1442272321768527e+00 -4.6516955615869513e+00 -7 5 0
764 255 2 4.0999999999999998e-01 -1.0689884927562460e+01 -1.0385586408154854e+01 -5.1673974824301414e+00 -1 7 -4
805 269 1 -8.1999999999999995e-01 -6.8669799643240328e+00 -1.4186614323426781e+01 -1.6985499080797908e+00 -8 4 -5
1918 640 1 -8.1999999999999995e-01 -7.4525183690040580e+00 -1.0084045744295663e+01 -2.2274012724569943e+00 -1 1 3
2021 674 2 4.0999999999999998e-01 -1.2475791494491915e+01 -1.2488891551978028e+01 -7.3970820933880201e+00 -3 3 -1
444 148 2 4.0999999999999998e-01 -6.2197414354097376e+00 -9.2213525779982835e+00 -7.1442528693451637e+00 -3 2 0
1203 401 2 4.0999999999999998e-01 -6.0283963862756220e+00 -1.4500146513959280e+01 -6.4246758508213624e+00 2 2 -3
1919 640 2 4.0999999999999998e-01 -8.3644884312255670e+00 -1.0458986952828141e+01 -2.3939619866247313e+00 -1 1 3
2337 779 2 4.0999999999999998e-01 -9.4695884829205674e+00 -7.9310427532757242e+00 -1.9569910353654763e-01 3 6 5
2270 757 2 4.0999999999999998e-01 -1.4364064047712978e+01 -1.0784289066217998e+01 -2.2234199660448954e+00 -1 0 -4
1000 334 1 -8.1999999999999995e-01 -9.9304506244032069e+00 -1.2561387141860342e+01 -5.0938854072429152e-02 0 5 0
1337 446 2 4.0999999999999998e-01 -1.3374066966717782e+01 -1.4787017247445918e+01 -3.0693805279562003e+00 0 8 -3
2416 806 1 -8.1999999999999995e-01 -1.4272820944617795e+01 -1.1617513337011459e+01 -6.5059889712391996e+00 4 2 -4
2042 681 2 4.0999999999999998e-01 -1.0069136608369789e+01 -7.8629546760528921e+00 -2.9680180423577909e+00 0 -1 1
1157 386 2 4.0999999999999998e-01 -6.7465709892223753e+00 -7.4663249187788425e+00 -3.2065953173804118e-01 -1 -5 1
533 178 2 4.0999999999999998e-01 -1.2024771928923780e+01 -7.5989572774905607e+00 -2.0084063851839797e+00 8 3 0
442 148 1 -8.1999999999999995e-01 -7.1338932834828856e+00 -9.6259488019222879e+00 -7.1189329805826338e+00 -3 2 0
2547 849 2 4.0999999999999998e-01 -1.2068017473416131e+01 -1.0476829820311885e+01 -4.4666716630672276e-01 2 3 3
2271 757 2 4.0999999999999998e-01 -1.3767606338033659e+01 -9.9371134685173832e+00 -9.6120275439249880e-01 -1 0 -4
619 207 1 -8.1999999999999995e-01 -9.2156064509065452e+00 -1.4210779548726942e+01 -6.9018189107774024e+00 -1 2 1
69 23 2 4.0999999999999998e-01 -1.4228668230797917e+01 -7.8648966793635973e+00 -4.6825601385293680e-01 -3 7 -5
1202 401 2 4.0999999999999998e-01 -5.6431497693891739e+00 -1.2988439121315960e+01 -5.9419893107158153e+00 2 2 -3
621 207 2 4.0999999999999998e-01 -9.9956899855531987e+00 -1.3650223553935941e+01 -7.1797746367824020e+00 -1 2 1
213 71 2 4.0999999999999998e-01 -7.4982742732934575e+00 -1.1028079175204237e+01 -4.6226187334433178e-02 -9 -1 -1
2495 832 2 4.0999999999999998e-01 -6.8744679205698027e+00 -5.7357312376582339e+00 -3.6747589231586328e+00 3 -3 -1
1028 343 2 4.0999999999999998e-01 -5.5108180796150812e+00 -1.3607030612883531e+00 -6.1215603472030686e+00 -6 2 -8
1248 416 2 4.0999999999999998e-01 -4.9862955646221252e+00 -4.7247782111040717e+00 -7.3510834646989380e+00 -3 4 3
1580 527 2 4.0999999999999998e-01 -5.8688036202955853e+00 -2.7172769997588730e+00 -4.5281673466543175e+00 1 2 8
2336 779 2 4.0999999999999998e-01 -8.9748642047342404e+00 -6.3803142035936666e+00 -3.2665474239080083e-01 3 6 5
1523 508 2 4.0999999999999998e-01 -1.4010948537541900e+01 -1.6758527845035740e+00 -4.2651365308075562e-01 -3 2 -1
1498 500 1 -8.1999999999999995e-01 -9.9173013885727315e+00 -6.5810646143357800e+00 -7.2623087671201265e+00 5 1 -5
2529 843 2 4.0999999999999998e-01 -1.0033928012958929e+01 -2.5868264482972716e+00 -7.5218004007528982e-01 5 1 3
1647 549 2 4.0999999999999998e-01 -9.6062666558376790e+00 -3.9604445633988128e+00 -2.4937795430307226e+00 -2 4 6
1784 595 2 4.0999999999999998e-01 -1.1631220768779430e+01 -5.8948712662789600e+00 -6.4783549851250211e+00 0 1 -3
1556 519 2 4.0999999999999998e-01 -1.3825711328505966e+01 -5.6277431389343153e+00 -1.6978728461822801e+00 1 4 3
1834 612 1 -8.1999999999999995e-01 -1.1902289496557005e+01 -2.7706860541088627e+00 -6.3731176481222658e+00 4 6 -2
1148 383 2 4.0999999999999998e-01 -1.3542364291149898e+01 -2.1752172701358123e+00 -6.3738945399045175e+00 -4 2 -3
1785 595 2 4.0999999999999998e-01 -1.2522247613817818e+01 -4.5281307415067698e+00 -6.5472893570761563e+00 0 1 -3
1835 612 2 4.0999999999999998e-01 -1.1251969136993132e+01 -3.1742968596618777e+00 -5.7295382086441560e+00 4 6 -2
1783 595 1 -8.1999999999999995e-01 -1.2551542191650112e+01 -5.5146662542421030e+00 -6.3863475939105143e+00 0 1 -3
1646 549 2 4.0999999999999998e-01 -1.1126941577373806e+01 -3.7495835885287594e+00 -1.9372312694729317e+00 -2 4 6
74 25 2 4.0999999999999998e-01 -8.7305520475930827e+00 -2.6497775214074828e+00 -5.4654622899264194e+00 -4 1 1
1294 432 1 -8.1999999999999995e-01 -1.0312381113887747e+01 -6.8046669043908530e+00 -4.4267254606815509e+00 -1 5 -2
1403 468 2 4.0999999999999998e-01 -1.4138406694530209e+01 -5.8260437277866775e+00 -5.5561256535701471e+00 -4 11 4
75 25 2 4.0999999999999998e-01 -8.5943913356472503e+00 -4.2198586263556397e+00 -5.0377169503033770e+00 -4 1 1
2527 843 1 -8.1999999999999995e-01 -9.3943143511394513e+00 -1.8331261193765407e+00 -6.0104140652122240e-01 5 1 3
1192 398 1 -8.1999999999999995e-01 -8.5044459513460282e+00 -7.2093283129844998e-01 -5.2587414613721393e+00 0 -1 -5
1193 398 2 4.0999999999999998e-01 -9.2343568634774496e+00 -8.0679326718315281e-01 -4.5806037120709462e+00 0 -1 -5
2494 832 1 -8.1999999999999995e-01 -6.1596424394771034e+00 -5.8224700308322515e+00 -2.9808470386536250e+00 3 -3 -1
73 25 1 -8.1999999999999995e-01 -9.1986837155144734e+00 -3.5331251951942093e+00 -5.4417474988687324e+00 -4 1 1
1147 383 1 -8.1999999999999995e-01 -1.4410222471039159e+01 -1.6823156689045682e+00 -6.4362081461938594e+00 -4 2 -3
1567 523 1 -8.1999999999999995e-01 -7.1832039723653756e+00 -1.2603163057124238e+00 -2.0081813495813865e+00 -6 3 -2
532 178 1 -8.1999999999999995e-01 -1.2836629800504662e+01 -7.0409442330009693e+00 -2.1802232016865286e+00 8 3 0
1569 523 2 4.0999999999999998e-01 -6.9423775011993349e+00 -1.9949509143040700e+00 -2.6424742014822282e+00 -6 3 -2
1836 612 2 4.0999999999999998e-01 -1.1673280981278999e+01 -1.8082248347306749e+00 -6.5188442492588461e+00 4 6 -2
1883 628 2 4.0999999999999998e-01 -1.0794465786396877e+01 -1.9924789854622311e+00 -3.4580052828886014e+00 0 4 -3
1882 628 1 -8.1999999999999995e-01 -1.1187148791153483e+01 -1.1204612710026822e+00 -3.7502343856209031e+00 0 4 -3
1568 523 2 4.0999999999999998e-01 -7.9875990821525891e+00 -1.5281620482992242e+00 -1.4778795819701003e+00 -6 3 -2
1581 527 2 4.0999999999999998e-01 -5.7691222737200025e+00 -3.9542436641087768e+00 -3.4667354563556501e+00 1 2 8
1158 386 2 4.0999999999999998e-01 -5.8722065100800371e+00 -6.6901371826937339e+00 -1.4606945871468522e+00 -1 -5 1
1579 527 1 -8.1999999999999995e-01 -6.2054079197370253e+00 -3.0747775379213369e+00 -3.6570165882312420e+00 1 2 8
1027 343 1 -8.1999999999999995e-01 -6.2949871529165211e+00 -1.9157015343533743e+00 -6.3991721505056596e+00 -6 2 -8
1295 432 2 4.0999999999999998e-01 -9.9936151979506995e+00 -6.8248672003152713e+00 -5.3743503985741956e+00 -1 5 -2
1247 416 2 4.0999999999999998e-01 -5.2496619295469049e+00 -3.1131652992092302e+00 -7.3526801370365638e+00 -3 4 3
1029 343 2 4.0999999999999998e-01 -7.1412878770472465e+00 -1.4302486330906827e+00 -6.1798018572439091e+00 -6 2 -8
1645 549 1 -8.1999999999999995e-01 -1.0485204587893296e+01 -3.5163962984071926e+00 -2.6678543705476354e+00 -2 4 6
2450 817 2 4.0999999999999998e-01 -8.4130835002839213e+00 -5.8742502102058900e+00 -6.1876398009976814e+00 -6 4 -1
2451 817 2 4.0999999999999998e-01 -6.7810566185216601e+00 -5.9172614872473623e+00 -6.1515997987919047e+00 -6 4 -1
2449 817 1 -8.1999999999999995e-01 -7.6064350197549446e+00 -5.7776185179773396e+00 -5.6045503317663599e+00 -6 4 -1
1296 432 2 4.0999999999999998e-01 -1.0874272220358613e+01 -5.9903212391258425e+00 -4.2813559641814773e+00 -1 5 -2
115 39 1 -8.1999999999999995e-01 -8.4566627688448328e+00 -4.9604040658998567e+00 -1.6819272050658274e+00 0 3 -4
117 39 2 4.0999999999999998e-01 -7.6707024441608898e+00 -5.3285105059814573e+00 -2.1786935472049382e+00 0 3 -4
116 39 2 4.0999999999999998e-01 -8.1737456464400484e+00 -4.1561529211086174e+00 -1.1592889838045934e+00 0 3 -4
534 178 2 4.0999999999999998e-01 -1.2820200590612448e+01 -6.7102553454921008e+00 -3.1238267760576903e+00 8 3 0
1884 628 2 4.0999999999999998e-01 -1.2052479535931512e+01 -9.6790008272570738e-01 -3.2728032347325762e+00 0 4 -3
2528 843 2 4.0999999999999998e-01 -9.8514788181813451e+00 -1.1054715559253143e+00 -8.9639160139634910e-02 5 1 3
1102 368 1 -8.1999999999999995e-01 -1.1075681056577302e+01 -2.8065955115176067e-01 -6.7998760918222185e+00 0 -1 -3
26 9 2 4.0999999999999998e-01 -5.3216951879680501e+00 -6.5131401016622981e-01 -2.3439451270564273e+00 1 0 4
1149 383 2 4.0999999999999998e-01 -1.4623646801517973e+01 -1.5032775810649941e+00 -7.3966289928201707e+00 -4 2 -3
2152 718 1 -8.1999999999999995e-01 -1.1394110983290329e+01 -3.7438648591820787e+00 -1.1445634510230462e-01 1 6 1
1555 519 1 -8.1999999999999995e-01 -1.4575187368891676e+01 -4.9953765565054020e+00 -1.5018857255085027e+00 1 4 3
2496 832 2 4.0999999999999998e-01 -5.3984602180393626e+00 -6.3548890577294319e+00 -3.3511769914527623e+00 3 -3 -1
1156 386 1 -8.1999999999999995e-01 -5.9740439482859511e+00 -6.8514032315339701e+00 -4.7904536981460488e-01 -1 -5 1
2259 753 2 4.0999999999999998e-01 -5.5980702490662804e+00 -3.2254845764903894e+00 -2.0010502065514046e-01 3 5 -4
1438 480 1 -8.1999999999999995e-01 -1.3043668256552026e+01 -1.3712840390262333e+01 5.9173063354829178e+00 2 -2 4
161 54 2 4.0999999999999998e-01 -1.1957837607474767e+01 -1.2451501330413485e+01 4.8247905239098525e+00 -2 3 -3
816 272 2 4.0999999999999998e-01 -1.3579355753862638e+01 -9.0022071248587707e+00 3.2719562720746342e+00 -1 1 -2
1439 480 2 4.0999999999999998e-01 -1.3947365801792150e+01 -1.3577700814009477e+01 6.3236077600875280e+00 2 -2 4
840 280 2 4.0999999999999998e-01 -7.3829145717495521e+00 -1.3099997478934037e+01 2.9068291465822984e+00 -1 5 -1
814 272 1 -8.1999999999999995e-01 -1.3720624023101731e+01 -8.9792918864717386e+00 4.2616688194113426e+00 -1 1 -2
162 54 2 4.0999999999999998e-01 -1.1451100763522266e+01 -1.1472482865552504e+01 3.6200493973371923e+00 -2 3 -3
839 280 2 4.0999999999999998e-01 -8.0140809515875500e+00 -1.4310287641813483e+01 2.0104546189513375e+00 -1 5 -1
160 54 1 -8.1999999999999995e-01 -1.1334250152994612e+01 -1.2368995378737452e+01 4.0473947197164346e+00 -2 3 -3
1440 480 2 4.0999999999999998e-01 -1.3114767650378118e+01 -1.4351740264276904e+01 5.1513007080597415e+00 2 -2 4
838 280 1 -8.1999999999999995e-01 -7.8359210530078300e+00 -1.3326874511190642e+01 2.0446663262619271e+00 -1 5 -1
2368 790 1 -8.1999999999999995e-01 -8.5123215360278977e+00 -1.2908349830436592e+01 4.7503090280107703e+00 -2 2 3
2370 790 2 4.0999999999999998e-01 -7.9159558006028572e+00 -1.2225713439846080e+01 4.3279724206460894e+00 -2 2 3
530 177 2 4.0999999999999998e-01 -1.1463341665601462e+01 -9.3029026204635521e+00 3.3985588229341896e+00 -3 1 1
2546 849 2 4.0999999999999998e-01 -1.1876802518747056e+01 -9.7996441360165321e+00 1.0269396181124826e+00 2 3 3
2369 790 2 4.0999999999999998e-01 -9.4665395322910619e+00 -1.2688507618475318e+01 4.5474539398810396e+00 -2 2 3
529 177 1 -8.1999999999999995e-01 -1.0757546531706971e+01 -9.6589908401515601e+00 4.0109861118527821e+00 -3 1 1
212 71 2 4.0999999999999998e-01 -7.7214569124971071e+00 -1.1745015466161760e+01 1.4038953098851064e+00 -9 -1 -1
2330 777 2 4.0999999999999998e-01 -1.4338904743874876e+01 -1.4450049734577030e+01 2.6934211018477026e+00 4 0 -2
235 79 1 -8.1999999999999995e-01 -1.1129654095158568e+01 -1.0491701039149326e+01 6.5099437163675251e+00 1 0 2
1232 411 2 4.0999999999999998e-01 -1.2169210067525395e+01 -1.3263047902357201e+01 7.4154150074554845e+00 -3 1 -1
211 71 1 -8.1999999999999995e-01 -7.4809108842918945e+00 -1.0890195603248205e+01 9.4407647547276596e-01 -9 -1 -1
2572 858 1 -8.1999999999999995e-01 -8.3823863442197926e+00 -8.7329635232213203e+00 2.6442374811554021e+00 -3 2 -4
2574 858 2 4.0999999999999998e-01 -7.9966397757217687e+00 -9.5996718000761554e+00 2.3279636437944600e+00 -3 2 -4
1512 504 2 4.0999999999999998e-01 -1.1192387055117795e+01 -1.3664462509444540e+01 2.8560108215161772e+00 1 5 2
531 177 2 4.0999999999999998e-01 -9.8699475501048699e+00 -9.2760536471349546e+00 3.7549783802639265e+00 -3 1 1
2573 858 2 4.0999999999999998e-01 -8.5439707178948154e+00 -8.1340742758083984e+00 1.8598683752556919e+00 -3 2 -4
236 79 2 4.0999999999999998e-01 -1.1052518737481407e+01 -1.0091757117534865e+01 5.5966487208709506e+00 1 0 2
91 31 1 -8.1999999999999995e-01 -6.3110910676213141e+00 -1.1384996727119521e+01 3.2999911307603842e+00 -2 -6 -1
1510 504 1 -8.1999999999999995e-01 -1.1189496320835630e+01 -1.4308022614165228e+01 2.0906123871730617e+00 1 5 2
92 31 2 4.0999999999999998e-01 -6.0177499978643052e+00 -1.1231947155566582e+01 4.2436752049129591e+00 -2 -6 -1
815 272 2 4.0999999999999998e-01 -1.4680139522438797e+01 -8.7761397109940180e+00 4.4567892153748563e+00 -1 1 -2
2140 714 1 -8.1999999999999995e-01 -1.1807815770438939e+01 -8.1227399901828132e+00 1.6912119300832398e+00 4 3 -3
2026 676 1 -8.1999999999999995e-01 -1.3997107208986575e+01 -1.0334166351782702e+01 6.8137705264393187e+00 5 10 -1
2576 859 2 4.0999999999999998e-01 -5.1823211325155434e+00 -8.3076810927658435e+00 6.7880420695241437e+00 -1 5 -6
1313 438 2 4.0999999999999998e-01 -7.7701286692496296e+00 -1.2630027179005879e+01 6.4424327458319315e+00 -4 2 -3
2027 676 2 4.0999999999999998e-01 -1.4397811171382084e+01 -1.0878752554260332e+01 6.0769700560608353e+00 5 10 -1
831 277 2 4.0999999999999998e-01 -5.8493211061048669e+00 -8.5911659574049857e+00 4.6232630005258226e+00 -5 -5 -1
662 221 2 4.0999999999999998e-01 -1.2592443142349582e+01 -7.9842258363925120e+00 5.4218072308206562e+00 -3 -2 2
829 277 1 -8.1999999999999995e-01 -6.7249971587657456e+00 -8.3877299432553674e+00 5.0612333377188126e+00 -5 -5 -1
830 277 2 4.0999999999999998e-01 -7.4592903343622883e+00 -8.4559470618353565e+00 4.3858278119867489e+00 -5 -5 -1
2545 849 1 -8.1999999999999995e-01 -1.1787178029218271e+01 -1.0643847487455293e+01 4.9845032674043388e-01 2 3 3