2611
Atoms. Timestep: 23000000
O 5.25304 2.97397 2.77839
H 5.71361 3.52352 3.47539
H 4.27099 2.95304 2.96564
O 1.20171 11.5288 -3.80689
H 1.94056 11.5345 -4.48067
H 1.26035 12.3511 -3.24098
O 1.26296 -12.3197 -0.0314692
H 1.5899 -13.2647 -0.0262292
H 2.04455 -11.6964 -0.00683791
O -4.59332 -5.36229 -11.5442
H -4.63452 -6.17586 -10.9643
H -4.03685 -4.66206 -11.0971
O 1.6621 1.47138 -7.85702
H 0.892172 1.09394 -7.34256
H 1.51132 2.44728 -8.01452
O -12.128 0.42303 -14.0635
H -13.0402 0.111876 -14.3301
H -11.5007 -0.355565 -14.051
O -2.34725 4.47997 6.18257
H -2.12652 5.29994 6.71064
H -2.31012 4.69234 5.20613
O -0.0436984 -11.7288 2.1585
H 0.412178 -11.9979 1.31018
H -0.895688 -12.243 2.25668
O -4.71702 2.79193 -2.10807
H -4.71528 2.00983 -1.48499
H -4.56127 3.63215 -1.58875
O -8.62195 -3.81127 8.06925
H -7.72989 -4.24894 7.95703
H -8.49467 -2.87202 8.38789
O -3.99147 0.751701 8.4222
H -3.19869 1.36062 8.44786
H -3.68122 -0.197074 8.36306
O 7.30242 4.48121 7.6004
H 8.16093 4.94319 7.82279
H 7.34529 3.53124 7.90967
O 12.701 14.2283 -5.05724
H 12.7642 15.0061 -5.68251
H 11.9137 14.3498 -4.4528
O -1.97609 2.06683 -4.70388
H -1.5513 2.87872 -4.30349
H -2.4339 2.31661 -5.55707
O 11.6357 -0.136193 -0.651397
H 11.1215 0.33853 -1.3656
H 12.1522 -0.889928 -1.05765
O -5.01686 8.97816 14.8602
H -4.05154 9.13552 14.652
H -5.15981 8.01025 -14.9808
O 12.7434 -4.93813 14.3839
H 13.1666 -5.84387 14.3627
H 12.1421 -4.83254 13.5919
O -2.6367 -9.60269 12.4323
H -2.8372 -8.87919 13.0928
H -2.03523 -9.2447 11.7181
O -12.3443 12.9551 12.7702
H -11.6944 12.574 12.1127
H -12.1487 13.9261 12.9076
O 4.28933 3.90541 -14.9995
H 3.90094 3.12323 -14.5124
H 5.0415 4.29084 -14.4651
O -2.34801 6.14917 -9.84144
H -2.24143 6.17731 -8.84757
H -1.85991 5.35653 -10.2067
O 14.7744 7.04123 -3.87434
H 14.0485 7.27574 -3.22781
H 14.8909 7.78742 -4.52974
O 14.3362 -5.94608 1.48867
H -14.7703 -5.60755 1.4906
H 14.2496 -6.68583 0.821446
O 8.95728 -2.79448 2.33092
H 8.06191 -2.73807 2.77256
H 8.89846 -3.39528 1.53374
O -9.01624 -3.50116 -5.97444
H -8.05581 -3.59399 -5.71198
H -9.54695 -4.243 -5.56464
O -4.26772 -12.9 -6.0435
H -4.64929 -12.0385 -6.37845
H -3.32105 -12.7556 -5.75558
O -6.33775 -11.5329 -9.82169
H -7.22749 -11.7641 -10.2151
H -6.1521 -10.5609 -9.96574
O -12.4412 0.467538 3.2992
H -11.7366 0.469882 2.58965
H -13.2231 1.01114 2.99425
O -14.7655 11.5077 0.755227
H -14.3092 12.3466 1.05197
H -14.9702 11.5673 -0.221731
O 2.9196 11.3539 0.733195
H 2.91526 12.3278 0.959815
H 3.73414 11.1409 0.193689
O -6.26706 -13.7472 5.84667
H -5.80399 -12.8611 5.86469
H -6.03075 -14.2297 5.00328
O -14.8238 3.56556 2.81689
H -14.7421 4.5592 2.89392
H 15.019 3.17731 3.71539
O -12.1173 -14.2246 12.471
H -12.2781 -13.6918 11.6403
H -12.2716 -13.647 13.2726
O -9.84658 -5.13675 2.78817
H -9.83614 -4.90522 3.7609
H -9.23339 -5.90913 2.6228
O -9.51067 -8.67694 -10.6734
H -9.54314 -9.57249 -11.117
H -8.95388 -8.05322 -11.2219
O -0.322928 -12.2989 -12.8564
H 0.020782 -12.3123 -11.9175
H 0.293293 -11.7584 -13.4293
O 12.9007 -3.72227 4.34872
H 13.2454 -4.53902 3.88605
H 13.3441 -3.63228 5.24049
O 5.00619 -8.78862 -14.6557
H 5.195 -9.76939 -14.7044
H 5.32042 -8.3466 14.5516
O -10.187 -5.76591 -2.75819
H -9.55271 -5.99125 -3.4977
H -9.7109 -5.826 -1.88088
O 0.00130645 -3.68197 -6.5462
H -0.931692 -3.97014 -6.76161
H 0.326355 -4.17913 -5.74177
O -10.441 11.9351 10.9272
H -10.3236 12.3894 10.0442
H -9.59043 11.9964 11.4494
O -9.70157 13.536 -14.2964
H -10.4262 13.6686 -13.6202
H -9.52306 12.5583 -14.4063
O -12.7483 -14.8869 1.62919
H -12.1066 -14.7 0.885369
H -13.651 14.9604 1.24831
O -7.93113 1.46962 -1.2988
H -7.48604 1.62511 -2.18064
H -8.02322 0.486542 -1.14069
O -1.59635 0.674789 10.2225
H -2.46312 0.185967 10.3208
H -1.67265 1.57722 10.6464
O -13.3085 12.0532 -14.7642
H -13.4901 12.7986 -14.1229
H -12.8953 12.4227 14.451
O -14.2531 -1.0566 -13.9074
H -14.7813 -1.59993 -14.5599
H -13.4719 -1.59068 -13.5843
O 8.46114 1.25932 13.6003
H 8.89617 1.81089 14.3119
H 7.58077 1.66541 13.3554
O -5.49831 9.75448 -10.1704
H -5.98833 8.999 -10.6052
H -5.39337 9.56564 -9.19403
O -12.4089 -2.14539 9.90805
H -11.9067 -2.78717 9.32857
H -11.9179 -1.2751 9.94495
O -14.5405 12.038 5.04519
H -13.6693 12.4777 4.82701
H -14.4383 11.4893 5.87491
O -14.2735 5.69808 12.6139
H -13.8208 6.0662 11.8018
H -14.6831 4.81258 12.3946
O 4.47263 6.34277 11.4254
H 3.56073 6.74572 11.3481
H 4.54865 5.56736 10.7986
O -10.7982 -11.9691 3.92929
H -11.4967 -12.6233 4.21923
H -10.8784 -11.1333 4.47227
O -8.49597 -1.1119 9.32369
H -7.99856 -1.53122 10.0831
H -9.36403 -0.743758 9.65667
O 0.590121 -7.12638 2.09617
H -0.168145 -7.56468 2.57871
H 1.06786 -6.50683 2.71894
O 1.80581 8.76244 8.45291
H 2.70271 8.32819 8.36981
H 1.18085 8.1472 8.93336
O 11.2997 -5.5783 -5.15087
H 12.2614 -5.38771 -4.95414
H 11.234 -6.37449 -5.75227
O 5.14793 -5.14019 2.22476
H 4.93622 -5.57311 3.10093
H 5.7997 -5.70754 1.72153
O 10.3527 -12.7542 -6.65773
H 11.2513 -13.1841 -6.74538
H 10.0578 -12.79 -5.70292
O 1.65039 -2.42972 6.50175
H 0.80062 -2.92374 6.318
H 1.57262 -1.49369 6.15863
O -0.831259 3.33901 1.39806
H -1.78862 3.57199 1.22748
H -0.679369 2.37453 1.18214
O -2.15345 -10.7219 -6.49749
H -2.477 -11.192 -7.31863
H -1.78604 -11.3921 -5.85269
O 9.76835 0.0818814 -12.3882
H 10.4326 -0.294205 -13.0342
H 10.0629 -0.116995 -11.4535
O -5.67325 2.24203 -6.18885
H -6.02 3.09125 -6.58699
H -4.88843 1.92142 -6.71912
O 3.32813 -6.28909 -3.00006
H 4.09211 -6.2154 -3.64101
H 3.60982 -5.94431 -2.10468
O -0.502769 -9.53772 -8.35015
H 0.44402 -9.40103 -8.05889
H -1.08963 -9.62598 -7.54533
O 5.32544 -11.6934 14.7897
H 5.36555 -12.6905 14.8529
H 4.59714 -11.4285 14.1578
O -5.72728 9.36813 11.0333
H -4.78075 9.38163 11.3555
H -5.81881 8.69901 10.2959
O 6.36224 -0.599058 -1.56635
H 7.21231 -1.06976 -1.33026
H 6.54816 0.0969358 -2.25986
O -7.2173 -10.6693 1.84576
H -7.51234 -11.3887 2.47454
H -7.39642 -10.9553 0.90446
O 3.19512 1.244 -14.1824
H 3.80079 0.655358 -14.7178
H 3.15683 0.913295 -13.2395
O 3.94497 -13.5891 -0.257083
H 4.43549 -13.0246 0.406729
H 4.56144 -13.836 -1.00467
O 0.759085 8.29013 -2.82416
H 0.622382 8.85103 -2.00768
H -0.127887 8.0727 -3.2315
O 14.1846 -11.437 6.17401
H 14.1023 -12.1134 5.44205
H 14.0835 -11.8904 7.05956
O -14.5414 -9.06038 13.547
H 14.9105 -8.62801 14.224
H -14.6988 -8.64525 12.651
O -1.27827 0.192325 6.0238
H -0.311622 0.0401423 5.81798
H -1.71286 -0.68013 6.24713
O -1.12244 12.8681 -0.856135
H -0.27914 13.2076 -1.27266
H -1.56885 12.2281 -1.48148
O -10.1172 -9.82389 10.0734
H -9.3142 -10.2596 9.66678
H -10.5369 -9.20932 9.40551
O 1.59081 -3.03462 -8.7185
H 1.45307 -3.6966 -9.45522
H 0.867352 -3.13988 -8.03627
O 0.851874 -4.02158 -13.588
H 1.17557 -3.67073 -14.4666
H 0.0784197 -4.63703 -13.7394
O 6.4708 -12.4093 -7.54562
H 6.51375 -12.9025 -8.41443
H 5.51645 -12.2131 -7.32056
O -13.0844 -5.45768 14.1186
H -13.2908 -4.79352 13.4001
H -12.2856 -5.15124 14.6363
O 6.12481 -11.5231 8.55865
H 6.02435 -10.5302 8.49598
H 6.37992 -11.8895 7.66387
O -7.89681 12.0631 13.2777
H -6.97162 12.3816 13.0714
H -7.85381 11.1419 13.6642
O -4.30853 -5.5496 0.0933249
H -4.32827 -4.99315 -0.737274
H -3.78226 -5.0759 0.799428
O 4.03084 9.76824 12.5251
H 4.19728 9.64927 13.5039
H 3.07428 9.55939 12.3219
O -3.14623 -12.7835 3.03778
H -3.4977 -11.848 3.0744
H -3.90997 -13.4234 2.95359
O -7.48138 11.1833 9.7903
H -7.4568 12.1581 10.0115
H -6.97168 10.6716 10.482
O -0.920316 5.90531 13.2222
H -0.96774 5.96207 14.2195
H -1.49019 5.14773 12.904
O 7.39348 -1.82679 -9.37845
H 7.03594 -2.21968 -8.53126
H 7.88114 -2.53197 -9.89307
O 13.8693 -8.05198 0.0232129
H 13.6205 -8.3779 -0.888804
H 13.2725 -8.47739 0.703514
O 11.1576 -1.67876 3.35864
H 11.562 -2.51617 3.72627
H 10.331 -1.90593 2.84378
O 2.50864 11.9158 9.47714
H 2.99665 11.5945 8.66561
H 3.16881 12.182 10.1794
O -7.87042 2.72588 -13.7915
H -8.76999 2.77439 -13.3575
H -7.17272 3.04184 -13.1486
O -0.9572 -5.97524 -14.2342
H -1.1459 -6.79167 -13.6886
H -0.429743 -6.23048 15.0029
O 3.36294 5.44392 5.94475
H 3.54372 5.80141 6.86096
H 3.1769 6.20334 5.32138
O -6.70548 -11.5556 -14.1128
H -6.5153 -12.5171 -14.311
H -7.29259 -11.1776 -14.8286
O 4.58677 -3.51543 -5.42287
H 4.20048 -4.00431 -6.20499
H 3.87434 -2.96305 -4.99015
O 13.219 -6.15999 6.86083
H 13.2743 -7.03789 7.33639
H 13.0937 -6.31872 5.88153
O 14.052 -5.20441 -9.67606
H 13.1493 -5.53899 -9.40542
H 14.4384 -4.65288 -8.93687
O -3.6686 0.111523 -3.53583
H -4.2863 0.178916 -2.75235
H -3.24655 1.00211 -3.70508
O 4.11945 2.39543 -6.90115
H 4.44807 3.18306 -7.42227
H 3.24618 2.08709 -7.27831
O -8.20352 -7.68128 7.35485
H -8.96942 -7.2178 6.90932
H -8.07192 -7.3024 8.27085
O -2.1696 -7.62923 4.6285
H -3.03542 -7.23549 4.9371
H -2.28919 -8.02508 3.71804
O 11.9319 12.0935 -6.24741
H 12.5118 12.719 -5.72552
H 10.982 12.4026 -6.20096
O 11.2075 -2.88732 9.52108
H 11.382 -2.62998 8.57068
H 10.4441 -3.53214 9.55699
O -4.92643 6.40701 2.25681
H -4.33196 6.13881 1.49879
H -5.17059 5.5979 2.79128
O -3.41028 -11.8732 13.4304
H -3.12493 -11.0252 12.9838
H -2.86605 -12.0138 14.2574
O 12.5113 14.1686 8.08142
H 13.2383 14.04 8.7559
H 12.9164 14.3331 7.18209
O 10.0432 6.97852 -14.8874
H 9.14526 7.33197 14.8981
H 10.1625 7.07128 -13.8989
O -6.2743 -14.8541 -12.4471
H -5.89755 -14.5852 -13.3335
H -5.71915 -14.459 -11.7153
O -1.31191 -14.0278 4.9918
H -1.2873 -13.405 5.77376
H -2.0038 -13.7173 4.34004
O -7.77416 -8.70994 -8.74927
H -8.44979 -8.2519 -9.3269
H -6.89703 -8.74746 -9.22797
O 12.5596 2.13217 -12.2236
H 11.9812 2.04445 -13.0345
H 12.4242 1.33878 -11.6302
O -1.89935 7.49616 -14.11
H -2.64421 7.48113 -13.443
H -1.61407 6.55933 -14.3122
O -2.37716 -2.49718 -4.23583
H -2.83727 -1.6559 -3.95212
H -1.38966 -2.39305 -4.11787
O 7.16417 10.8746 -5.10716
H 8.0536 11.3316 -5.10358
H 6.5516 11.3425 -5.74413
O -3.57715 -2.63956 -9.80315
H -2.75329 -2.9326 -10.2882
H -3.61243 -1.6405 -9.77951
O -12.0394 -7.31633 12.1749
H -12.515 -6.92629 12.9634
H -12.7099 -7.62168 11.4988
O -2.16955 9.29203 0.352782
H -1.49226 9.35382 1.08584
H -3.08803 9.3718 0.740013
O -14.1736 -6.02664 9.0472
H -13.3035 -5.6056 8.79123
H -14.4672 -6.65144 8.32374
O -2.14215 7.97934 -2.68389
H -2.64427 7.11715 -2.75058
H -1.69692 8.0375 -1.79041
O -9.79403 8.08865 -12.9902
H -9.78895 8.9859 -13.4316
H -10.1316 8.17999 -12.0534
O -0.295784 7.64098 4.96583
H -0.511243 7.21613 5.84504
H -1.13719 7.76274 4.4394
O 11.0123 9.25826 -3.09596
H 10.529 8.52895 -3.58012
H 10.6086 10.1414 -3.33486
O -13.641 11.8361 -5.88297
H -13.7098 11.3575 -5.00769
H -13.912 12.7911 -5.7628
O 0.77927 -2.85507 -3.19422
H 0.817 -3.85428 -3.20313
H 1.55088 -2.48775 -3.71347
O 14.0989 -0.930013 -9.27151
H 13.6621 -0.0838893 -8.96612
H 14.2124 -0.906838 -10.2647
O 10.9203 10.8287 9.58233
H 10.8238 11.8127 9.73161
H 11.329 10.6663 8.68426
O -9.32199 10.4648 -13.9813
H -8.52445 10.9592 -13.6357
H -9.11876 10.0972 -14.8888
O 8.79132 4.00789 -5.80812
H 9.50804 4.18284 -6.48312
H 8.10498 3.39634 -6.20163
O 0.606012 -14.9188 2.80725
H 0.285966 -14.5975 3.69849
H 0.0217176 14.3804 2.49316
O -11.5028 10.7088 7.32282
H -11.2708 11.6442 7.05642
H -10.7118 10.2808 7.76007
O -7.1192 5.77774 0.669459
H -7.78922 6.48194 0.434706
H -6.49021 6.13335 1.36071
O 12.6225 -3.70491 -13.2262
H 12.9142 -4.08979 -14.1018
H 13.2805 -3.01229 -12.9308
O 14.5405 1.64869 5.62909
H 14.2968 0.823953 5.11888
H 14.1227 1.61467 6.53694
O -7.31367 -7.36738 -11.6725
H -7.54153 -6.3947 -11.6291
H -7.03057 -7.60222 -12.6024
O 1.46765 -12.6848 6.17598
H 0.728774 -13.2853 6.48159
H 1.08056 -11.8984 5.69461
O -11.4112 14.8596 -4.10115
H -11.7834 -14.3481 -3.70575
H -11.0754 14.2669 -3.36917
O 5.95467 12.7507 -6.66304
H 5.57737 12.4773 -7.5478
H 6.60941 13.4948 -6.79553
O 9.60518 -9.32975 5.90644
H 10.1604 -9.59425 6.69491
H 9.56693 -8.33239 5.84525
O -1.57879 11.6944 -9.89494
H -1.03423 11.3333 -9.13795
H -2.15991 12.4373 -9.56285
O -11.6367 10.9134 -9.4936
H -12.085 11.213 -10.3357
H -12.3209 10.5438 -8.86502
O 7.19203 -7.83491 -4.39297
H 7.88869 -7.13672 -4.22832
H 6.91722 -7.81139 -5.35414
O -1.34761 11.6439 -4.5567
H -1.8664 11.4385 -3.72689
H -0.370384 11.5363 -4.37403
O -14.9231 1.66728 -11.954
H 14.1318 1.77095 -12.0171
H -14.6361 0.873769 -12.4906
O -5.63831 -10.9541 -7.17477
H -5.98898 -11.0304 -8.10811
H -5.42597 -9.99738 -6.97575
O -12.6872 -2.25114 2.38907
H -12.8505 -1.30088 2.65415
H -12.9723 -2.85785 3.13109
O -2.70031 9.63655 -5.62575
H -2.42888 9.08854 -4.83459
H -2.32085 10.5577 -5.53918
O -13.4647 5.90137 3.90692
H -13.8489 6.51802 4.59398
H -12.8052 6.39921 3.34381
O -3.63719 -14.4214 -2.65878
H -4.03603 -14.8868 -1.8687
H -4.05702 -14.7688 -3.49721
O -9.21424 0.125446 14.3525
H -8.32754 0.26943 13.9133
H -9.08741 -0.395702 -14.851
O -2.80634 -9.30194 -3.53053
H -1.82889 -9.38447 -3.33635
H -3.31593 -9.93937 -2.95267
O 5.34354 14.72 2.3146
H 4.68603 14.797 3.06405
H 6.16653 14.2543 2.6398
O -14.3539 -4.19559 -1.5298
H -14.7115 -3.71858 -2.33257
H -14.9369 -4.00316 -0.740506
O 1.84312 4.75026 10.5734
H 1.48464 3.90492 10.1774
H 2.52419 4.52879 11.2713
O 8.66948 3.39519 -3.22876
H 7.72585 3.68239 -3.06446
H 8.91535 3.58616 -4.17902
O -4.66523 3.22067 7.26195
H -4.58359 2.41361 7.84668
H -3.75412 3.5812 7.06238
O -4.05103 -4.94327 12.248
H -3.75227 -5.3719 11.3954
H -5.03544 -4.77223 12.208
O 4.15146 -11.1537 -6.77405
H 3.37758 -11.7753 -6.65342
H 3.81241 -10.2329 -6.96673
O -12.7574 6.44835 8.04697
H -12.188 6.29307 7.23978
H -13.265 7.30292 7.9374
O 3.87005 -10.6141 -11.2762
H 3.34832 -11.4514 -11.4396
H 4.72536 -10.84 -10.81
O 11.1084 2.26011 -14.6653
H 10.929 3.16102 14.9871
H 11.5474 1.67761 14.6981
O -6.59069 -12.3343 -4.38812
H -6.27059 -12.5216 -3.45949
H -5.81053 -12.3222 -5.01352
O 4.49953 8.98357 -9.49607
H 3.68924 9.33139 -9.0245
H 4.2493 8.69561 -10.4204
O 7.34408 -4.45692 14.7958
H 8.15401 -4.88784 -14.8539
H 6.90059 -3.88221 -14.5639
O 1.55293 -4.87708 12.1158
H 1.67978 -3.90793 12.3269
H 1.0851 -5.32563 12.8773
O -0.996526 -8.59287 -13.6136
H -1.76664 -9.05323 -14.0551
H -0.166334 -9.13553 -13.741
O -10.8449 -9.04855 -2.18504
H -11.0693 -8.65819 -3.07789
H -11.6389 -8.97778 -1.58127
O 12.1865 -13.6844 12.0341
H 11.5638 -13.64 11.253
H 12.267 -14.6321 12.3428
O 13.4912 10.5481 3.95637
H 14.2833 11.1322 4.13317
H 13.6647 9.98702 3.14708
O 7.23499 6.84146 -5.15489
H 7.50251 7.309 -4.31242
H 6.87863 5.93374 -4.93359
O 5.23813 -14.452 11.3297
H 4.45142 -14.5965 10.7296
H 5.82762 -13.7435 10.9417
O 3.5442 -11.2107 12.9984
H 3.06185 -12.0668 13.1834
H 2.97385 -10.6244 12.4232
O 0.112512 -10.3648 5.31066
H -0.703868 -10.3915 4.73383
H 0.6591 -9.56052 5.07761
O -9.79924 -10.1401 6.29673
H -9.69124 -9.67955 5.41576
H -9.31737 -9.62337 7.00431
O -13.3523 -6.57666 -2.59167
H -12.3731 -6.56141 -2.79386
H -13.6371 -5.67919 -2.25501
O -0.404039 8.59675 -7.7235
H -0.366355 7.63386 -7.4564
H -1.35055 8.91685 -7.68382
O 9.96195 11.8737 -3.55387
H 9.87817 12.5538 -4.28212
H 9.44771 12.1786 -2.7523
O -12.5957 -12.8606 -14.5634
H -13.3948 -12.6425 14.9239
H -12.6443 -13.8156 -14.2709
O -14.2262 8.64632 -12.8315
H -13.4569 8.02886 -12.9953
H -14.225 9.37061 -13.521
O -3.68248 -7.23476 -9.46189
H -4.13486 -6.62958 -8.8069
H -2.70995 -7.00706 -9.50943
O -2.18592 -12.0362 6.95874
H -2.16432 -11.7089 7.90338
H -2.9327 -11.5878 6.46764
O -8.83234 -3.56596 12.0259
H -9.52311 -3.04483 12.527
H -9.08169 -4.53433 12.0241
O 11.5832 -14.7814 -9.47174
H 12.1287 -14.9898 -10.2835
H 10.8847 -14.1047 -9.70427
O 0.0958214 -9.01306 -11.182
H -0.293999 -9.59853 -10.4712
H -0.453437 -9.08839 -12.0142
O -12.831 -12.6146 10.4148
H -13.6471 -12.0374 10.444
H -12.4373 -12.5889 9.49599
O -13.3545 7.58493 -6.99946
H -13.5687 8.29894 -7.66598
H -13.0493 8.00666 -6.1457
O -6.40205 -8.08567 -4.0608
H -6.02423 -8.55426 -3.26231
H -6.03997 -8.50284 -4.89434
O 9.60821 -4.97149 10.3736
H 8.64807 -4.87624 10.6362
H 9.6857 -5.63319 9.62788
O 0.69171 8.62147 -13.109
H 0.265813 9.28197 -12.4907
H -0.00776886 8.21784 -13.6987
O 11.0265 14.8896 -2.92325
H 10.3714 -14.4159 -3.06602
H 10.853 14.4576 -2.03828
O 4.48098 4.3482 9.12214
H 5.46143 4.17175 9.03554
H 3.97589 3.49535 8.99
O -0.104725 5.88835 0.379586
H -0.257569 4.90863 0.508805
H 0.619871 6.02645 -0.295553
O -12.7961 -10.3229 -11.858
H -13.0705 -10.9089 -12.6204
H -12.6419 -9.39283 -12.1912
O -2.11913 -12.5491 -9.56183
H -1.8073 -13.4982 -9.60554
H -1.53377 -12.0344 -8.93538
O -6.17953 -9.28696 -1.16433
H -7.04905 -9.68762 -1.45302
H -5.46798 -9.98941 -1.17811
O 10.6101 -6.83412 4.62665
H 10.5206 -5.93426 5.05347
H 11.5273 -6.92994 4.24007
O 9.07949 -1.57997 -1.19434
H 9.36363 -0.91954 -1.88934
H 9.83518 -1.74205 -0.559848
O -2.46932 12.0825 -14.0905
H -2.70126 11.4788 -13.3278
H -3.30698 12.4693 -14.4761
O 2.7981 10.235 -11.5943
H 1.98339 10.738 -11.8828
H 2.8647 9.38269 -12.113
O -9.77158 14.7018 10.1453
H -10.0093 -14.8125 10.9572
H -10.6052 14.4638 9.64696
O -9.55526 -8.99563 -13.7498
H -10.2957 -9.48553 -14.2099
H -9.08432 -9.61602 -13.1227
O -9.5631 -2.33222 1.62044
H -10.2562 -2.15086 0.922818
H -9.82322 -3.14214 2.14607
O -14.3574 10.8443 7.6647
H -13.3689 10.922 7.79355
H -14.7765 10.4959 8.50314
O -9.49772 -14.0383 -9.00226
H -9.35115 -14.7677 -9.67036
H -8.96556 -14.2298 -8.1776
O 3.24177 3.39941 12.5932
H 2.50225 2.79626 12.8919
H 3.63885 3.85867 13.3878
O 6.48822 -4.08582 -3.14931
H 5.76087 -4.00495 -3.83074
H 7.30112 -4.48314 -3.57505
O -2.18041 -2.4746 6.49519
H -1.54365 -3.17806 6.17959
H -2.97498 -2.44794 5.88867
O 13.3564 -5.05461 10.535
H 13.8495 -5.63565 9.88761
H 13.442 -4.09803 10.2565
O -5.50736 -8.11931 9.32732
H -6.12161 -7.43217 9.71522
H -5.16112 -7.79741 8.44617
O -0.917905 -6.56915 -10.0676
H -0.578883 -7.44827 -10.4024
H -0.543658 -6.39245 -9.15726
O 6.5937 3.90462 -13.2451
H 7.55213 3.62463 -13.1909
H 6.47065 4.76837 -12.7565
O 4.67917 13.9415 5.88661
H 4.20939 14.7229 5.4761
H 4.29645 13.093 5.52121
O 11.7648 -9.11647 1.77601
H 11.8715 -9.31326 2.75059
H 10.9642 -9.60107 1.42384
O 7.18435 10.6621 2.49162
H 8.09221 10.2504 2.57041
H 6.48722 9.97055 2.68056
O 9.39344 13.0482 -6.08219
H 8.73192 13.795 -6.01459
H 9.62224 12.8916 -7.04294
O 11.4349 -1.58973 -7.30891
H 12.3493 -1.21397 -7.45905
H 11.1093 -1.32209 -6.40211
O 1.3935 -10.7687 -14.3177
H 2.12726 -10.0928 -14.2486
H 1.3134 -11.078 14.7822
O -12.999 -6.09016 4.84828
H -13.4822 -6.81048 5.34591
H -13.2901 -5.19645 5.18954
O 14.2865 -1.90818 2.19964
H -14.9852 -2.52846 2.08403
H 13.8066 -2.12933 3.04857
O 8.94869 9.24303 -8.41713
H 8.48509 8.37329 -8.58611
H 8.33077 9.86125 -7.93144
O -8.8694 -14.4684 13.5697
H -9.10022 14.6762 13.9324
H -8.77811 -13.8193 14.3248
O -5.38951 -14.6904 3.31995
H -5.81055 -14.6607 2.41344
H -5.53561 14.455 3.72591
O 10.7109 -5.02277 -11.7631
H 11.1268 -5.36004 -10.9186
H 11.3698 -4.45364 -12.255
O -0.210114 3.81274 -3.09775
H 0.682489 4.14744 -2.79583
H -0.509365 3.07225 -2.49604
O 14.698 -10.5977 1.87211
H 14.9341 -11.4836 1.47283
H 13.9162 -10.2099 1.38403
O 5.5838 -0.242899 12.7382
H 5.64213 0.740216 12.565
H 6.12411 -0.734316 12.0552
O -11.9163 -13.603 -1.53178
H -12.6059 -13.1853 -0.940351
H -11.5303 -12.9069 -2.13699
O -8.6277 8.489 -3.85966
H -8.91501 9.20963 -4.49059
H -9.43023 8.10956 -3.39935
O 8.29085 7.79355 -2.92537
H 8.1933 7.01301 -2.30798
H 8.72509 8.55138 -2.4385
O 0.747576 -3.97927 2.96326
H 0.680316 -3.31266 2.22094
H 1.6788 -3.97958 3.32759
O 0.0521533 12.6473 9.21904
H 0.995902 12.5014 9.51565
H -0.121833 12.1181 8.38862
O -2.12985 -1.4875 13.403
H -2.29017 -2.41171 13.7495
H -2.62061 -1.36516 12.5404
O -11.9494 11.2057 -12.7035
H -10.9716 11.0277 -12.814
H -12.3481 11.4382 -13.5906
O -7.10432 13.9109 10.49
H -6.74318 14.2051 9.60511
H -8.06652 14.1736 10.5613
O 6.31109 2.4086 -1.08258
H 6.14295 2.20554 -2.04717
H 7.18043 2.00125 -0.802853
O 2.12202 -7.70857 -0.129157
H 1.59082 -7.50329 0.692794
H 2.60894 -6.88687 -0.425179
O 12.3288 13.8066 13.0471
H 13.2465 13.4699 12.8364
H 11.8067 13.087 13.5048
O -12.3671 -2.43641 -12.5156
H -13.0167 -3.08512 -12.1191
H -11.5491 -2.39131 -11.9424
O 0.365167 -12.7831 -3.09788
H 0.724451 -13.5806 -3.58235
H 0.9384 -12.5907 -2.30142
O 12.9028 -0.728268 7.70732
H 12.7639 0.20485 8.03885
H 13.728 -1.11032 8.12318
O -10.5245 2.53861 -13.2106
H -10.6523 2.63064 -12.2232
H -10.8759 1.65192 -13.511
O 13.974 3.21673 10.8786
H 14.8955 3.27916 10.4952
H 14.0324 2.99503 11.8519
O -10.0795 9.77943 3.49541
H -9.26994 9.2241 3.30551
H -10.8855 9.18927 3.54008
O -8.2869 -11.8022 9.49969
H -8.65288 -12.0271 8.59669
H -8.78068 -12.3204 10.198
O 9.03213 13.8323 7.29695
H 8.33622 13.2241 6.91531
H 8.7154 14.192 8.1746
O 11.651 -3.21402 -1.5771
H 12.2966 -3.40197 -0.836954
H 11.0562 -4.00677 -1.70986
O 2.73586 -5.93465 9.37783
H 2.14812 -5.64031 10.1314
H 3.28353 -5.16058 9.06035
O 9.89122 -11.3688 -0.840623
H 9.0916 -11.8064 -0.429409
H 9.70593 -10.3955 -0.975816
O -11.6662 -6.81181 -9.56668
H -12.575 -7.18395 -9.75547
H -11.0098 -7.56152 -9.48302
O 3.22221 -12.4884 8.27889
H 2.74889 -12.7224 7.42969
H 3.13187 -13.2423 8.92949
O -5.18502 6.13646 12.5641
H -4.58841 5.40268 12.2392
H -4.65573 6.97971 12.6574
O -11.0052 -8.79346 -5.04311
H -11.4795 -7.95768 -5.31956
H -10.2032 -8.92946 -5.62466
O -12.0817 6.48545 -10.7049
H -11.4918 7.28994 -10.7738
H -12.3436 6.18469 -11.6219
O 7.32806 13.0709 3.55955
H 7.34858 12.1887 3.08917
H 7.10432 12.9293 4.52382
O -6.03529 9.94304 5.66479
H -5.18153 10.4036 5.42205
H -6.45739 10.411 6.44114
O 1.50469 0.440783 5.41138
H 1.59482 1.41865 5.6
H 2.25002 0.14664 4.81315
O -13.9953 -11.6954 13.1461
H -14.7242 -12.2228 13.5827
H -14.0751 -10.7343 13.4105
O 9.80551 -1.0865 13.0168
H 9.04961 -1.7172 12.8414
H 9.45333 -0.152491 13.0762
O 0.293312 -14.1285 15.0161
H -0.459325 -13.9518 -14.3972
H 1.13579 -14.2808 -14.5147
O 1.46646 4.00736 -8.56171
H 1.47699 4.58767 -7.74743
H 2.10051 4.37559 -9.24164
O 7.09026 1.09245 -9.41772
H 7.11029 0.0953028 -9.34545
H 6.25387 1.3759 -9.88678
O -12.2109 6.56769 10.7893
H -11.9042 7.5194 10.7999
H -12.1314 6.20227 9.86187
O 10.9451 -11.113 4.00076
H 10.3472 -11.8927 3.81511
H 10.4943 -10.4925 4.64234
O 10.5721 4.82889 -7.62764
H 10.5411 5.16795 -8.56785
H 11.445 4.36781 -7.46819
O -9.63764 -6.1215 11.975
H -10.5856 -6.39501 12.138
H -9.06374 -6.44334 12.728
O -6.74557 -12.5783 -1.59127
H -7.43063 -11.8985 -1.85284
H -7.15865 -13.2469 -0.972972
O -6.97088 7.65407 -11.4471
H -7.91474 7.51972 -11.7487
H -6.35237 7.53252 -12.2233
O -9.18522 12.2248 4.50002
H -8.75025 12.0823 5.38908
H -9.60234 11.3697 4.19221
O -14.0297 -8.20636 6.28228
H -14.6334 -8.51039 5.54542
H -14.0697 -8.86072 7.03736
O -4.58899 1.17968 -11.4157
H -3.82909 1.0724 -10.7747
H -5.06774 0.307298 -11.5141
O 3.5009 -14.7626 -9.80984
H 3.27489 -14.9825 -8.8609
H 4.392 -14.3102 -9.844
O 14.5515 3.88831 -3.10379
H -14.6453 4.33799 -2.83159
H 14.7106 3.34515 -3.92816
O -10.9804 -12.1652 -3.57758
H -11.0788 -11.2704 -3.14219
H -10.3573 -12.0903 -4.35608
O -6.28645 -4.41224 3.29089
H -6.54375 -5.27416 2.85408
H -6.39015 -3.66308 2.63673
O 13.2722 6.67408 2.68847
H 13.6348 7.60558 2.71486
H 14.0101 6.03512 2.47142
O -7.58549 -6.18938 9.76398
H -8.45511 -6.25883 10.2527
H -7.05629 -5.42504 10.1323
O -8.50137 -12.9698 3.07541
H -8.59122 -13.9464 2.88029
H -9.39847 -12.5916 3.30367
O -12.6931 1.96295 -9.86046
H -12.5631 0.991499 -10.0587
H -13.5465 2.27676 -10.2766
O 1.91807 -12.5217 -6.41918
H 1.18841 -12.8368 -7.026
H 1.55506 -12.4031 -5.49502
O 14.9234 14.3813 0.607499
H -14.9308 14.1294 -0.34072
H 13.9345 14.4477 0.739817
O -8.30584 2.33399 -9.19242
H -9.19658 2.46707 -8.75791
H -8.40782 2.38978 -10.1856
O -10.9196 -6.30291 -11.9795
H -11.1944 -6.42087 -11.0253
H -11.4944 -6.87438 -12.5651
O 5.92016 1.67983 -4.10441
H 5.11064 1.41458 -4.62809
H 6.69354 1.80348 -4.72612
O -10.7442 1.98669 13.1234
H -11.3661 2.52324 13.6938
H -10.1952 1.3851 13.7036
O -3.1494 -10.2408 -11.6307
H -3.09673 -10.9414 -10.9192
H -3.73658 -9.49348 -11.3198
O 14.4366 9.03057 1.75763
H 14.7013 8.24327 1.20087
H 14.7321 9.87249 1.3062
O 2.99016 9.02481 -4.71638
H 2.19969 9.49371 -4.3224
H 3.831 9.4474 -4.37825
O 4.11894 3.81131 0.264262
H 4.88255 3.33057 -0.166689
H 3.89406 3.3691 1.13248
O -14.6871 14.1468 -5.2763
H -14.3497 -14.9721 -5.12148
H 14.3626 14.1395 -5.21055
O 13.0588 3.64878 -7.05205
H 13.8078 3.60133 -7.71283
H 13.2258 4.39884 -6.41217
O 6.85218 2.12871 -7.04757
H 5.86848 2.26578 -6.93152
H 7.0759 2.1279 -8.02219
O 6.9667 2.07984 9.07813
H 6.93812 1.21534 8.57638
H 6.15495 2.15619 9.65706
O -3.38753 8.23067 11.9464
H -2.91016 7.76926 11.1987
H -2.72632 8.73031 12.5059
O -5.10048 -10.8747 5.79615
H -4.92265 -10.7101 4.82599
H -5.23728 -10.001 6.26286
O -11.9647 13.9606 8.72556
H -12.9133 14.277 8.72716
H -11.6921 13.7291 7.79172
O -5.83699 10.9771 -5.00778
H -5.45018 10.531 -5.81479
H -6.75952 11.3017 -5.2164
O -10.3735 8.61129 -10.3012
H -10.6776 9.5635 -10.2739
H -9.73429 8.44389 -9.55072
O -2.44055 9.69719 14.293
H -2.23665 9.0725 -15.0007
H -2.41953 10.6397 14.6263
O -7.86669 -1.43423 6.04088
H -8.10524 -0.971887 6.89484
H -8.45873 -1.10335 5.30607
O -12.3899 -4.14592 -9.20583
H -11.5115 -3.71553 -9.41357
H -12.2321 -5.04105 -8.78895
O 8.34381 -8.56137 9.72807
H 8.18956 -8.30133 10.6812
H 8.94915 -7.89403 9.2943
O 2.64445 7.63115 -14.4846
H 1.91972 8.14323 -14.0236
H 2.36206 7.42367 14.6263
O 12.8666 14.7072 -11.7224
H 13.1192 14.2575 -12.579
H 13.6672 -14.88 -11.3388
O -6.06355 -4.70382 7.74354
H -5.32831 -4.32687 8.3068
H -5.87903 -5.66867 7.55666
O 8.40734 9.52322 -0.404269
H 7.4237 9.34493 -0.428591
H 8.8868 8.70431 -0.0889568
O 12.8541 1.92586 8.89158
H 13.4339 2.46519 9.50219
H 11.9205 1.90649 9.24935
O -9.22357 14.4533 7.09049
H -9.2003 -14.6886 6.66683
H -9.15437 14.5481 8.08354
O 9.99586 9.23388 3.00815
H 10.305 10.1526 2.76257
H 10.2576 9.03554 3.95266
O -2.85802 13.5894 -8.4295
H -3.42384 14.2459 -8.92821
H -3.06899 13.6413 -7.45343
O 13.8903 8.69667 8.87269
H 13.632 8.8958 7.9274
H 13.7355 7.72733 9.06336
O -8.59732 -9.35052 -6.138
H -7.77514 -9.44453 -5.57665
H -8.33586 -9.25156 -7.09809
O -11.8054 10.7154 -1.15607
H -11.5096 9.87739 -1.6145
H -11.416 10.747 -0.235574
O 5.30824 -14.5518 13.9556
H 5.30847 -14.5477 12.9557
H 6.14768 -14.9822 14.2873
O 14.5656 -9.68334 -11.6705
H -14.5527 -10.0489 -11.7248
H 13.9949 -10.3025 -11.1312
O 4.78011 3.82181 -9.00848
H 5.00176 3.23758 -9.78916
H 5.18676 4.72549 -9.14238
O -1.77263 4.67299 -14.1262
H -2.23697 3.88173 -13.7284
H -0.782973 4.55156 -14.0503
O 7.54126 10.5128 9.29095
H 7.37261 10.8629 10.2123
H 8.52454 10.5131 9.10906
O -10.723 3.65125 -10.7193
H -11.2848 3.23923 -10.0019
H -10.5893 4.62228 -10.5214
O -14.406 -10.5939 9.91211
H -13.7461 -10.3891 9.18926
H -14.8222 -9.74353 10.2341
O 4.94842 10.4852 7.73899
H 5.32389 9.63374 7.37299
H 5.05371 10.4957 8.73333
O 11.1932 1.60839 -6.36419
H 11.9524 2.25419 -6.445
H 10.7506 1.50124 -7.25443
O 11.3955 14.1404 0.0124932
H 11.3121 13.1524 0.141772
H 10.5151 14.5138 -0.279584
O 9.30501 -0.00374693 5.33881
H 9.81807 -0.476901 4.62269
H 9.06986 0.916941 5.02742
O 13.301 6.0294 9.34519
H 12.51 6.50077 9.73519
H 13.3256 5.08722 9.67928
O -4.82093 -8.57158 -6.27801
H -3.89819 -8.67304 -5.90628
H -4.89336 -7.69616 -6.75584
O -1.07568 3.01013 12.9597
H -0.179691 2.60847 13.149
H -1.76256 2.5855 13.5495
O 5.78092 4.60489 -4.12045
H 5.79269 3.61692 -4.27439
H 4.83914 4.938 -4.16527
O -8.65159 -3.39962 -9.09857
H -8.75847 -3.31252 -8.10815
H -7.70669 -3.19183 -9.35138
O 7.17245 0.0303235 -13.4053
H 8.15456 -0.106221 -13.2759
H 7.02106 0.662658 -14.165
O -9.33348 11.7859 -8.43162
H -10.1755 11.5636 -8.92308
H -8.54604 11.4627 -8.95644
O -10.4988 -11.5619 1.21261
H -10.6669 -11.73 2.18392
H -11.2024 -10.9486 0.853873
O 10.6232 13.5526 9.95733
H 11.3308 13.909 10.5674
H 10.8946 13.7049 9.00706
O 7.12938 -7.65541 -13.2897
H 7.62698 -6.80753 -13.4725
H 6.35748 -7.73156 -13.9208
O -5.44088 4.22927 3.79851
H -5.18462 3.3674 4.23604
H -6.3284 4.52948 4.14794
O 4.16129 -5.26307 12.667
H 3.16388 -5.26467 12.5957
H 4.45717 -4.46004 13.1842
O -8.80333 -4.7793 -11.3893
H -9.62921 -5.30463 -11.594
H -8.8856 -4.36936 -10.481
O -3.05624 7.42341 4.53047
H -3.7134 7.1873 5.24624
H -3.49055 7.32847 3.63477
O -7.80411 6.85267 13.0219
H -6.85324 6.56235 12.9148
H -8.33528 6.11031 13.4302
O 9.17145 5.54211 -12.1839
H 9.36262 4.5866 -12.4084
H 9.78052 5.84015 -11.449
O -5.78388 -1.6687 -3.92867
H -4.97685 -1.0827 -3.85633
H -6.60924 -1.1132 -3.82803
O 10.3497 -4.10315 -7.44473
H 10.9933 -3.33877 -7.40696
H 10.4574 -4.67022 -6.62818
O -0.84257 1.05371 -14.2705
H -0.599564 0.0865278 -14.1968
H -0.0738308 1.56189 -14.6587
O -3.97742 -3.92623 -2.15917
H -3.59794 -3.31159 -2.85064
H -4.85305 -4.28788 -2.4792
O 8.74289 0.83554 -5.308
H 8.0213 0.798746 -5.99929
H 9.56994 1.22827 -5.71008
O 7.42583 -14.8451 9.35745
H 7.30522 -14.016 8.81147
H 6.55409 14.9501 9.77737
O 1.42884 -4.25777 -11.0341
H 1.38574 -4.10853 -12.0219
H 1.79046 -5.17182 -10.8505
O 2.42449 14.368 0.71829
H 3.0802 -14.9833 0.426259
H 1.81373 14.7544 1.40938
O 3.30772 11.0931 5.3847
H 3.98574 10.5978 5.92781
H 2.40128 10.967 5.78767
O 9.34093 -8.53588 -8.11546
H 9.20566 -9.48668 -8.39401
H 8.94173 -7.92759 -8.80142
O 12.6399 -12.0615 -0.120077
H 12.8712 -12.4874 -0.994736
H 11.7334 -11.6438 -0.182157
O -1.69542 2.36487 7.96319
H -1.65958 3.14038 7.33293
H -1.65636 1.51123 7.44386
O -8.42473 -7.17013 14.5396
H -8.95992 -7.71336 -14.8611
H -7.85571 -7.77738 13.9851
O 13.1591 -8.49671 8.56168
H 12.9996 -8.45183 9.5478
H 12.4788 -9.09675 8.14091
O 8.39677 2.59156 4.67391
H 9.16053 3.05644 4.22616
H 7.75008 3.27094 5.02054
O -9.65036 10.0479 -5.62167
H -10.6039 10.0854 -5.32277
H -9.31441 10.9761 -5.78128
O -12.9673 -8.02432 -13.0441
H -13.6438 -7.29139 -13.1154
H -12.8529 -8.46025 -13.9367
O 3.52149 7.54176 -11.6698
H 4.2826 6.89391 -11.7003
H 2.69358 7.09982 -12.015
O 14.6838 -2.46611 -4.75957
H 13.703 -2.33277 -4.90177
H 14.9475 -3.37387 -5.08573
O 3.39973 6.73061 -3.61619
H 3.40435 7.49223 -4.26413
H 3.28533 7.08364 -2.68764
O -11.9974 3.82604 14.9591
H -11.8435 4.8006 14.7965
H -11.394 3.51092 -14.3559
O 10.222 -7.36415 13.9199
H 10.702 -6.71813 13.3264
H 9.32977 -7.58101 13.5238
O 7.58196 5.70402 12.6545
H 6.86254 5.70869 13.349