2611
Atoms. Timestep: 8000000
O -14.9479 8.05712 -1.67165
H 14.4546 7.41164 -1.15843
H 14.4648 8.84209 -1.94605
O -14.7244 -8.22234 14.2317
H -13.9073 -8.70098 13.9104
H 14.6455 -8.02606 13.4548
O 10.5313 11.369 -10.9994
H 10.9632 10.4727 -11.1
H 11.2156 12.0382 -10.7097
O 6.27316 -1.38411 -6.6627
H 6.20145 -1.8202 -7.55974
H 5.49528 -1.65664 -6.09645
O -0.381905 11.719 -1.38399
H -0.93457 10.9 -1.53824
H 0.311431 11.7932 -2.10078
O -2.02572 2.0563 4.90925
H -1.18159 1.81966 5.39032
H -2.67338 2.4636 5.55319
O -3.73811 -2.61891 13.2898
H -4.6177 -2.74415 12.8309
H -3.53977 -1.64201 13.3694
O 14.17 14.4789 -2.9651
H 14.3097 -14.5822 -3.36213
H 13.3542 14.4902 -2.38682
O 13.6934 -1.05059 4.88578
H 13.0658 -0.431105 4.41416
H 14.4375 -1.30511 4.26809
O -9.01432 1.4676 -14.9794
H -9.2188 1.79734 14.0672
H -8.08403 1.10155 -14.9551
O -5.104 -7.39777 1.89335
H -5.95097 -7.69046 1.44955
H -4.86674 -8.04456 2.61817
O -2.89169 1.42887 -5.15753
H -1.98343 1.73193 -4.86906
H -3.39945 2.20556 -5.53027
O -4.86313 8.79268 9.90905
H -4.67103 8.40508 9.00746
H -4.53386 9.73629 9.94324
O 4.89282 -9.19624 14.6667
H 4.58247 -9.59968 13.8059
H 5.64239 -9.74293 -14.9284
O -12.6076 3.12879 -0.316896
H -11.7192 2.67805 -0.403111
H -13.1331 2.69271 0.413648
O 13.4411 13.5739 11.7339
H 14.0169 12.8719 12.1531
H 13.133 13.2597 10.8359
O -0.0296506 -10.7717 14.5476
H -0.264216 -10.3311 -14.5541
H 0.795905 -11.3233 14.6669
O 5.68366 -13.5097 0.955788
H 5.30831 -14.2622 0.414605
H 6.66371 -13.6539 1.09249
O -7.91466 -13.3636 9.82464
H -6.97684 -13.4595 9.491
H -8.41485 -12.7291 9.23544
O 0.598509 -7.18134 10.9313
H 1.18059 -6.88286 11.6876
H 1.00393 -6.89163 10.0642
O -0.984861 -8.1594 13.2013
H -0.339953 -7.56812 12.717
H -0.492135 -8.93089 13.6038
O -7.5694 8.78664 10.8592
H -6.69021 8.85007 10.387
H -7.75144 7.83278 11.098
O 2.58135 -3.72655 2.21173
H 1.97974 -4.49324 2.43591
H 3.50129 -3.91278 2.55675
O 14.3996 12.6982 3.70845
H 14.8361 12.7078 4.60813
H 14.0103 13.5992 3.51722
O -9.18844 2.89369 10.2087
H -9.06022 1.91253 10.0642
H -9.93469 3.22124 9.62917
O 10.6774 3.36649 14.1948
H 10.861 3.53082 -14.8043
H 10.4493 4.23128 13.7474
O -1.69502 -9.96131 -8.53377
H -1.65382 -9.85914 -9.52768
H -2.0798 -9.13174 -8.12909
O -11.4047 -2.18128 0.0898387
H -11.8416 -1.30969 -0.132474
H -12.0984 -2.83353 0.395328
O -2.16266 -12.2024 13.638
H -1.49957 -11.654 14.1475
H -2.27777 -13.0884 14.0872
O 1.41549 9.99123 -8.62488
H 0.74115 10.6908 -8.38845
H 2.00254 9.81372 -7.83503
O -2.33497 12.7537 13.1962
H -2.35329 12.5971 12.2087
H -2.49317 11.8894 13.6737
O 7.01419 6.50638 2.676
H 7.98393 6.73683 2.75652
H 6.49324 7.33024 2.45265
O -7.64511 4.15813 7.92358
H -7.63594 3.29038 8.42049
H -8.11834 4.03752 7.05093
O 9.93115 -11.504 -5.4815
H 10.3921 -10.6166 -5.47026
H 10.4632 -12.1491 -6.02994
O 5.41497 -7.59914 -4.74538
H 5.84237 -7.35877 -3.87386
H 5.64022 -8.54544 -4.9773
O -7.60187 12.0532 -7.3983
H -8.11166 11.9593 -6.54314
H -7.68292 11.2095 -7.92901
O -0.112858 -10.508 2.00804
H -0.521537 -9.59606 2.04593
H 0.790436 -10.4865 2.43652
O 0.310115 -14.3856 1.05549
H 0.647221 -14.1947 0.133581
H 0.0661953 14.6155 1.12758
O 10.5034 -13.5407 12.0589
H 10.1722 -12.6155 11.8737
H 9.93675 -14.2021 11.5677
O -10.6973 -3.01828 -9.00725
H -11.2555 -2.86989 -8.19091
H -11.1948 -3.60094 -9.64985
O -13.6155 -2.92951 -10.433
H -13.1904 -3.83017 -10.3434
H -13.8844 -2.78107 -11.3847
O -14.1299 1.8048 1.54318
H -14.4239 0.849829 1.50326
H -14.91 2.40181 1.35598
O 4.99461 4.37752 2.43304
H 5.69131 5.01163 2.76846
H 4.3406 4.87289 1.8613
O 11.3975 9.05053 -6.596
H 11.7675 9.89238 -6.20311
H 11.2998 8.36211 -5.8773
O 1.14476 -8.689 -4.46722
H 1.52639 -9.42077 -3.90254
H 0.774809 -9.07763 -5.31108
O -10.5552 13.8116 1.24675
H -10.5773 12.8852 0.870872
H -9.762 13.9084 1.84802
O -9.92991 12.7069 5.98472
H -10.2629 11.9133 5.47553
H -9.56803 13.3853 5.34532
O 11.7511 -1.84893 -10.4406
H 10.7961 -2.14041 -10.3858
H 11.8043 -0.968331 -10.9115
O 0.661136 9.15633 1.16563
H 0.389486 9.18358 0.203626
H 0.137334 8.44877 1.63997
O -5.71032 -3.65486 11.6771
H -5.60305 -2.85329 11.089
H -6.68345 -3.83889 11.8156
O 7.22803 5.64729 -0.0231736
H 6.39017 5.23703 -0.383296
H 7.19659 5.64658 0.976331
O 5.31691 12.9988 1.28171
H 4.64225 13.1559 2.00292
H 5.17206 13.6549 0.541108
O 8.05666 -9.79695 -4.51984
H 8.70068 -9.26516 -3.9699
H 8.54538 -10.5358 -4.98374
O -13.9849 -13.6814 -6.79945
H -14.5776 -13.0263 -6.33099
H -14.1433 -14.5972 -6.43049
O 8.19457 -2.39476 -2.6762
H 8.54404 -2.28571 -3.60678
H 7.19818 -2.3101 -2.68228
O -3.03943 -9.18482 -4.43788
H -2.85909 -9.26522 -3.45756
H -2.66079 -9.97928 -4.9127
O 2.21105 8.11724 9.09247
H 2.48141 7.57082 8.29979
H 1.37415 8.6216 8.87984
O -2.18163 -3.91223 3.69971
H -2.66755 -3.60903 4.51944
H -1.66272 -3.14744 3.31782
O -0.36085 14.9376 -3.22761
H 0.0658958 14.0689 -3.47931
H -0.0163444 -14.736 -2.33628
O -7.33922 10.8759 2.50971
H -6.94745 9.97575 2.31912
H -7.5694 10.9404 3.48071
O -6.2848 13.1739 1.3621
H -6.93876 13.8926 1.59832
H -6.68617 12.2798 1.56046
O 0.676389 12.9878 -6.53653
H 0.0507396 12.3018 -6.90807
H 0.257512 13.8932 -6.60565
O 5.68326 -3.95667 -13.4814
H 5.62295 -4.90604 -13.7897
H 4.99854 -3.40676 -13.9597
O -0.746337 13.1339 1.07013
H -1.73883 13.0299 1.00572
H -0.305759 12.5638 0.376746
O 2.08524 9.12647 -13.7724
H 2.23053 9.04659 -12.7862
H 1.7216 8.2649 -14.1266
O 6.40083 7.23704 6.86112
H 6.82804 8.13652 6.95289
H 5.88572 7.1985 6.00486
O -11.8619 -14.2396 -8.31354
H -12.0696 -14.1867 -9.29028
H -12.67 -13.9773 -7.78619
O 13.061 0.934126 -10.8087
H 14.0243 0.780356 -11.0287
H 12.9895 1.6261 -10.0903
O 5.17104 -4.31586 -8.34162
H 5.47926 -5.2251 -8.62143
H 4.86879 -3.80423 -9.14591
O -14.6279 -5.91112 -5.56079
H -14.6126 -4.9698 -5.22363
H -14.7059 -6.54079 -4.78786
O 10.9593 -6.76308 -11.178
H 9.97422 -6.75509 -11.35
H 11.3622 -5.90939 -11.5079
O -14.2109 3.90399 -7.6167
H -13.7542 3.82035 -8.50237
H -14.3997 2.99235 -7.25162
O 6.00027 7.16717 -13.7619
H 6.53264 7.36521 -14.5849
H 6.61253 7.11756 -12.9728
O -5.483 -9.79567 -3.60946
H -5.31034 -9.35425 -2.72894
H -4.71231 -9.62669 -4.22385
O -9.17774 -9.42955 -10.2199
H -9.83316 -10.1492 -9.9907
H -8.8948 -9.52789 -11.1739
O -8.59808 2.53138 -8.57416
H -8.69994 1.54369 -8.69289
H -8.50036 2.96638 -9.46927
O -13.7777 -3.50307 -4.92906
H -14.393 -2.76057 -4.66421
H -13.1119 -3.16332 -5.59335
O 1.36928 -6.24856 8.48467
H 2.19448 -6.80864 8.41143
H 1.18195 -5.81424 7.60361
O -0.721171 -10.5862 7.00434
H -0.914581 -9.74148 7.50343
H 0.220411 -10.8712 7.18376
O 7.87929 9.98464 -12.466
H 8.68499 9.64088 -11.9836
H 7.77602 9.49631 -13.3325
O 0.414414 -13.4608 3.97025
H 0.447024 -13.7025 3.00046
H -0.533682 -13.2926 4.24015
O -13.4929 14.2804 11.3215
H -13.5942 -14.7017 11.19
H -13.8244 14.0297 12.231
O 7.51574 9.66502 6.82417
H 6.81741 10.3095 7.13567
H 7.52737 9.64364 5.82447
O -0.607802 -12.8485 11.6526
H 0.210176 -13.0299 12.1985
H -1.32534 -12.4759 12.2411
O 6.98049 -1.86418 14.1212
H 6.30231 -2.54874 13.8539
H 7.83857 -2.03881 13.6383
O -5.60588 2.39734 0.347117
H -6.31362 1.75817 0.648034
H -5.24939 2.89604 1.13719
O -3.50381 0.070364 13.1272
H -4.22246 0.526528 12.6023
H -3.5193 0.400995 14.0708
O 9.67528 12.6664 -13.4893
H 10.577 13.0002 -13.764
H 9.78093 11.9504 -12.7992
O 7.60481 0.0813332 -0.0218834
H 7.16914 0.0497645 -0.921437
H 7.254 0.864809 0.491051
O 5.8099 -13.4406 3.5842
H 5.54527 -13.2199 2.64547
H 6.15961 -14.3768 3.62052
O 10.9723 5.04139 -12.7
H 11.6201 5.46948 -12.0699
H 11.0217 4.0472 -12.6044
O -2.51509 -11.5711 -5.56723
H -1.71311 -11.9703 -5.12289
H -3.10449 -12.3023 -5.91056
O -9.77049 1.36461 -0.870514
H -9.55572 2.08563 -1.52929
H -10.2043 0.59841 -1.34459
O 5.49128 -4.67907 11.7941
H 6.33652 -4.1807 11.6012
H 4.87094 -4.59766 11.014
O 6.82493 8.16289 -6.01222
H 6.81427 8.62616 -5.12607
H 6.24393 8.66111 -6.65581
O -0.319311 7.4687 -9.79376
H 0.258937 8.22149 -9.47923
H -0.465128 7.54989 -10.7797
O -10.6806 -8.04588 11.5118
H -11.6351 -7.77485 11.3874
H -10.6287 -8.78424 12.1842
O -13.6301 -1.9497 3.84395
H -13.7942 -2.50567 3.02911
H -12.7329 -1.5135 3.77472
O -13.6771 9.44071 -7.43859
H -13.1956 10.2864 -7.20849
H -13.0773 8.85278 -7.98135
O 11.737 -13.3008 -0.849182
H 11.4225 -13.9375 -1.55324
H 10.9841 -13.0977 -0.223117
O 10.1248 3.88897 -3.8798
H 10.5992 3.74813 -4.74875
H 9.79759 3.01017 -3.53241
O -1.91824 8.36205 -12.5716
H -1.90449 8.46162 -11.5767
H -1.33616 9.0624 -12.9848
O 8.68372 -9.40839 -13.6395
H 7.94312 -9.47463 -14.3082
H 9.42516 -10.0264 -13.901
O -8.32131 10.0887 8.29781
H -8.54617 9.59275 9.13652
H -8.40641 11.072 8.45905
O 2.14645 -11.3037 4.1857
H 2.32367 -11.2494 5.16837
H 1.61531 -12.1275 3.98779
O 8.45209 -14.9238 14.2771
H 9.44412 14.9541 14.1893
H 8.19599 14.984 -14.7264
O -13.8762 -1.50066 -1.34846
H -14.0626 -1.82942 -2.27429
H -13.9096 -0.501289 -1.3366
O -2.60069 -10.0537 4.84083
H -2.63244 -10.4598 3.92757
H -2.04516 -10.6282 5.44196
O -9.79197 -8.53576 5.68155
H -9.98318 -7.60567 5.99519
H -10.6046 -8.91069 5.2353
O -13.1506 14.8044 2.20955
H -12.1778 14.8559 1.98367
H -13.5164 13.9236 1.90894
O 9.56216 -10.7646 12.6497
H 10.4011 -10.7087 12.1083
H 8.9934 -9.96267 12.4669
O -3.45782 -3.02126 6.24059
H -2.92243 -3.45272 6.96667
H -3.91849 -2.21094 6.60273
O -6.21846 14.5281 7.84755
H -5.52973 14.1367 7.23727
H -5.87479 -14.5833 8.23204
O -2.55069 1.51891 9.16984
H -2.05645 1.40279 8.3083
H -1.9489 1.285 9.93347
O 0.779204 5.68327 2.28864
H 0.341849 5.06739 2.94395
H 0.143846 5.88156 1.54232
O 3.31145 12.0223 -13.1048
H 3.18156 11.0376 -13.2207
H 4.05311 12.1864 -12.4544
O -11.9059 10.3493 -14.2903
H -11.1641 10.1895 -13.639
H -11.6997 9.88402 14.8171
O -7.74788 -12.7374 12.4867
H -8.12046 -13.1245 11.6433
H -6.90834 -12.2348 12.2803
O 0.633968 7.58248 -4.24991
H 1.2847 6.82725 -4.32851
H -0.22767 7.32705 -4.68847
O 4.89404 12.2821 -10.8231
H 5.71099 12.7477 -10.4827
H 4.08123 12.8054 -10.5672
O -0.0615656 13.0497 3.61535
H -0.426345 13.043 2.68429
H -0.442996 13.826 4.11721
O 10.3563 0.97347 -2.37753
H 9.51565 1.47233 -2.16661
H 10.3887 0.131967 -1.83825
O 5.97435 0.694479 12.9346
H 6.68418 1.39704 12.9852
H 6.15944 -0.0157817 13.6138
O -8.13749 -6.40565 -8.42753
H -7.34338 -6.21873 -7.84921
H -8.7026 -7.11116 -7.99988
O 4.56421 7.81881 4.83294
H 3.79397 8.21161 5.33537
H 4.52811 6.82133 4.89402
O -9.57947 -14.0767 -0.587566
H -10.0482 -14.8344 -0.133447
H -9.69882 -14.1561 -1.57724
O -1.8972 12.554 10.6177
H -2.11766 13.4813 10.9201
H -1.27406 12.5973 9.83682
O 6.35533 -14.7202 -5.36507
H 5.7837 14.4285 -5.40485
H 7.08892 -14.7924 -6.04083
O 1.91925 10.0052 -4.19061
H 1.45784 9.12619 -4.07028
H 2.75243 10.0227 -3.63789
O 9.10298 -3.14607 -9.98054
H 9.0533 -3.6889 -10.8189
H 8.39462 -2.44043 -9.99788
O 8.43573 -2.82601 -5.44937
H 8.81735 -3.7484 -5.50914
H 7.55136 -2.80034 -5.91544
O -12.1815 -11.6799 3.18422
H -13.0925 -11.3286 2.96844
H -11.702 -11.9061 2.33631
O 12.9178 9.22933 -4.02605
H 12.6382 8.44583 -3.47109
H 13.481 8.91309 -4.78944
O 12.2841 -4.4951 -11.9674
H 12.3896 -3.99171 -11.1098
H 11.7044 -3.97177 -12.592
O 4.89677 1.76272 -8.84771
H 4.38524 1.47673 -9.65799
H 4.46264 1.38612 -8.02936
O -3.56908 -6.82989 13.9492
H -2.95175 -7.61079 14.0446
H -3.40639 -6.18338 14.6946
O 4.0034 3.52225 8.73678
H 4.93035 3.83409 8.94539
H 3.95989 2.52671 8.82054
O -14.4954 2.43138 6.56299
H 14.5282 2.3689 6.24086
H -14.3045 1.67225 7.18533
O -5.19949 8.01766 -6.80962
H -5.06366 8.10054 -5.82236
H -4.51958 8.57388 -7.28747
O -1.51189 5.17196 -9.0002
H -0.958248 5.97227 -9.23036
H -2.47872 5.38289 -9.14422
O 11.9599 9.4949 13.1815
H 12.4641 9.52219 12.3183
H 12.0818 10.361 13.6662
O -0.656237 8.32959 9.27997
H -0.936792 8.96777 9.99691
H -1.40538 8.20988 8.62846
O 12.1885 -9.33385 -14.3721
H 11.7017 -8.53534 -14.7262
H 12.8758 -9.03807 -13.7087
O -10.4973 -5.43412 7.34637
H -10.004 -5.08774 6.5484
H -10.0322 -5.13725 8.18038
O -0.405808 -7.98512 -2.47198
H -0.759002 -8.87644 -2.18771
H 0.164463 -8.09669 -3.28582
O 11.2306 11.9378 -5.94623
H 11.2531 12.318 -6.87087
H 10.4119 12.2621 -5.47233
O 8.71295 -14.4061 9.66099
H 7.94139 -13.9761 9.19217
H 8.37223 14.8736 10.3012
O 8.75962 9.79361 0.356046
H 8.02122 9.45618 -0.227827
H 8.55725 10.7304 0.641463
O 11.2983 -0.875726 14.9436
H 11.1496 -0.875594 -14.0358
H 12.1619 -1.33541 14.7365
O -0.903754 14.9645 10.0105
H -1.02248 -14.1043 10.4311
H -0.042419 14.5624 10.321
O 0.37197 9.98105 6.94507
H -0.0141947 9.60778 6.10154
H 1.37033 9.9507 6.89659
O 12.4226 13.4869 6.22252
H 11.8374 14.1573 6.67864
H 13.3775 13.7756 6.2926
O -11.7908 12.3488 -1.34805
H -12.4064 12.0724 -0.610061
H -12.2463 13.0261 -1.92587
O -5.19586 -6.40981 -2.89243
H -5.35685 -5.54368 -2.41926
H -4.93417 -6.22816 -3.84033
O -10.313 -5.14333 12.5113
H -9.94356 -5.59071 13.3258
H -10.4741 -5.82704 11.7996
O 0.641619 -10.0942 -6.51691
H -0.146752 -10.1849 -7.12538
H 1.2655 -10.862 -6.66298
O 2.08831 9.03103 -11.0341
H 2.89944 8.46451 -10.8888
H 1.91049 9.57516 -10.2142
O -7.4691 9.7993 -2.73227
H -7.93284 9.60472 -3.59661
H -8.0409 10.4018 -2.17551
O 7.80185 -5.13077 7.54488
H 8.47507 -4.55587 7.07985
H 7.0477 -5.33284 6.92004
O 14.008 -5.72641 5.45113
H 13.6047 -6.53375 5.02041
H 14.6476 -6.01353 6.16423
O -13.4599 -6.37886 -7.96418
H -14.0297 -6.22229 -7.15745
H -13.2687 -7.35643 -8.05258
O -7.26004 -6.79279 8.31823
H -7.47797 -7.75894 8.18013
H -6.64046 -6.48438 7.59642
O 8.45616 -7.0678 -12.0119
H 8.51146 -7.90394 -12.5576
H 7.73708 -7.16575 -11.3239
O 4.43675 5.08116 5.90158
H 3.90782 4.24956 6.07091
H 5.35461 4.83481 5.59041
O -10.6923 -14.4918 -5.67723
H -9.71313 -14.67 -5.57975
H -10.9394 -14.5089 -6.64607
O 9.59542 -6.79241 -3.73618
H 10.1554 -6.63445 -4.54947
H 10.0415 -6.38386 -2.93986
O -4.34685 -8.98188 8.05874
H -5.30856 -9.25429 8.08881
H -3.90284 -9.23083 8.91948
O -10.7938 10.6516 4.42872
H -11.7436 10.3811 4.58547
H -10.2073 9.84225 4.45924
O -12.213 10.6922 -10.7081
H -12.4136 9.80206 -11.1174
H -11.433 10.6059 -10.0884
O -0.740729 -3.35435 -1.6608
H 0.155797 -3.46833 -1.23272
H -1.36394 -2.91141 -1.01628
O 11.8818 -10.4734 -2.61494
H 12.7445 -10.6052 -2.12672
H 11.275 -11.2475 -2.43439
O -13.1331 9.3133 4.90832
H -14.0192 9.18391 4.46326
H -12.6348 8.44633 4.91722
O -10.7495 -11.6082 11.4078
H -11.6719 -11.3911 11.0883
H -10.1488 -11.7495 10.621
O 0.514405 -0.991873 -7.12964
H -0.259916 -0.403404 -7.3623
H 0.419525 -1.31022 -6.18643
O 1.15845 12.6078 -3.9348
H 1.54536 11.6909 -3.83649
H 1.31317 12.9367 -4.86639
O 1.00835 -8.0062 -13.2927
H 1.84147 -8.481 -13.009
H 0.220002 -8.41032 -12.8288
O -12.7563 -14.8995 -14.0819
H -12.3206 14.3131 -14.5709
H -13.75 14.9675 -14.1292
O 8.03661 2.40767 -13.1001
H 7.86722 1.58166 -13.6377
H 7.30164 2.52752 -12.4327
O -4.4384 -2.79342 -0.447434
H -4.90448 -3.08765 -1.28182
H -4.43075 -3.54458 0.212647
O -0.384877 4.1182 4.25017
H -1.22577 3.58518 4.34392
H -0.110261 4.46784 5.1459
O -4.2137 -4.92916 -11.2776
H -4.76333 -4.72937 -12.0888
H -4.65938 -5.64589 -10.7413
O -9.29611 -0.773389 -6.13061
H -8.71494 0.0390926 -6.17666
H -10.243 -0.497013 -5.96618
O -0.539888 1.3307 7.42209
H -0.273481 0.47598 6.97659
H 0.182382 2.01093 7.29712
O 4.40812 -4.48536 9.3741
H 4.35429 -5.36275 8.89736
H 4.75678 -3.78714 8.74887
O -9.47459 -0.15769 10.0935
H -8.80516 -0.417052 10.7896
H -9.73083 -0.964161 9.56061
O 5.50841 -10.6057 -4.44907
H 4.97584 -11.4343 -4.27646
H 6.39354 -10.6766 -3.98916
O 5.61018 0.0112748 8.33297
H 6.43611 0.107292 8.8885
H 4.82604 0.374726 8.83598
O 10.0495 11.7191 8.27921
H 9.2095 12.2148 8.0587
H 9.86416 10.7365 8.28794
O 11.5532 11.8768 2.27294
H 11.7854 12.0025 3.23746
H 10.8638 12.5502 2.00564
O -5.61751 1.73114 9.26258
H -5.69544 1.81847 8.26945
H -4.6714 1.51655 9.5051
O 8.02491 13.4924 11.5435
H 8.16672 13.7235 12.506
H 7.04881 13.5359 11.3306
O -11.642 -3.13801 -3.10981
H -12.1492 -3.60129 -3.83656
H -12.1184 -3.26242 -2.23942
O 9.36622 13.3933 4.88099
H 9.60847 12.478 5.20295
H 10.1986 13.9318 4.75041
O -0.644683 -1.24884 6.28276
H -0.0402872 -1.97954 5.9653
H -1.59195 -1.47966 6.0605
O 8.87167 3.95532 2.37801
H 9.56814 3.23805 2.35675
H 9.22431 4.74767 2.87583
O 12.6746 5.77853 2.67663
H 13.5127 5.77788 3.22222
H 12.6642 6.58296 2.08268
O 8.6503 10.5537 12.1912
H 8.93808 11.1955 11.4803
H 8.65384 11.0153 13.0783
O -10.7576 -1.06416 3.64277
H -10.7532 -0.984814 4.6396
H -9.89004 -1.45525 3.33566
O 6.47509 4.22727 -3.47757
H 5.89147 4.51028 -2.71646
H 7.43482 4.353 -3.22633
O 13.296 4.44873 10.0935
H 13.9043 4.50545 9.30186
H 12.7739 5.29778 10.1742
O 12.568 2.53388 6.69855
H 12.8811 1.88279 7.38996
H 11.8027 3.06462 7.0628
O -9.62272 12.9797 -13.8918
H -9.40512 12.3282 -14.6186
H -9.12577 12.73 -13.0607
O -12.0656 -13.235 -3.48746
H -11.7692 -13.6804 -4.33234
H -11.3793 -12.5646 -3.20557
O -5.0677 -13.2606 9.73465
H -5.09515 -12.8339 10.6386
H -4.22474 -12.9956 9.26647
O -2.98742 4.37651 9.1404
H -2.64629 3.4392 9.0691
H -2.37496 4.9107 9.7231
O -5.23743 5.58878 8.00316
H -4.54192 5.13358 8.55909
H -6.06098 5.02249 7.97026
O 4.23242 -13.337 -13.8616
H 4.40709 -14.0359 -14.5551
H 3.50032 -12.7322 -14.1749
O -8.84199 -2.01178 1.49515
H -8.17624 -1.43195 1.02549
H -9.58718 -2.23886 0.86816
O -3.05715 -6.98244 -0.192661
H -3.16252 -6.76669 -1.16341
H -3.53725 -6.29726 0.355094
O -2.12141 -7.39307 -8.07286
H -2.08726 -7.0864 -9.02406
H -1.70117 -6.70217 -7.48461
O 3.29904 0.1633 -7.22507
H 4.0385 -0.468668 -6.99308
H 2.41828 -0.268381 -7.03038
O -12.2214 -5.50117 -10.214
H -11.3754 -6.00412 -10.3911
H -12.6407 -5.84022 -9.37187
O -11.1928 7.29522 4.6502
H -11.4976 6.71736 5.40731
H -10.9329 6.71936 3.87507
O 6.0584 9.86845 10.7721
H 5.41605 10.2395 11.4427
H 6.98524 10.1697 10.9962
O 0.545766 -6.4372 -0.101349
H -0.35321 -6.76514 -0.39169
H 1.17218 -7.21218 -0.0175877
O 0.16733 -5.44085 14.0659
H -0.39257 -6.26616 14.1393
H -0.421896 -4.65328 13.8855
O 3.81697 10.7417 9.13365
H 3.15215 9.99577 9.1735
H 4.68592 10.4349 9.52193
O 10.726 -11.4924 -14.6937
H 11.3088 -10.7503 -14.3625
H 10.8494 -11.5981 14.2878
O 4.69421 0.833604 3.33756
H 5.44867 0.878005 2.68271
H 5.03784 0.514604 4.22082
O -1.34868 3.36257 -7.01133
H -1.21953 3.94082 -7.8169
H -0.504785 2.86028 -6.82282
O 12.7738 -12.937 8.67896
H 13.4426 -13.2914 8.02541
H 12.2633 -12.1864 8.25954
O -5.60331 12.2181 14.3677
H -5.5822 11.5227 13.6494
H -6.0095 13.0576 14.0069
O -6.6299 14.6822 -0.86592
H -6.3811 14.0135 -0.165244
H -6.49423 -14.3621 -0.508092
O -14.8726 11.0493 -10.4881
H 14.7924 11.1546 -9.54101
H -13.8747 11.1017 -10.5262
O -6.79525 7.83938 6.81173
H -7.2498 8.60495 7.26702
H -6.56899 7.137 7.48661
O 3.46203 1.04967 9.75154
H 3.37758 0.253587 10.3508
H 2.57782 1.51196 9.68484
O 8.12811 -8.61997 12.2696
H 8.45004 -7.76333 12.6728
H 7.21437 -8.48528 11.8863
O -14.1648 -4.1049 8.45883
H -13.5374 -4.04482 7.68252
H -13.7151 -3.75152 9.27908
O 0.942963 1.9711 9.81157
H 0.157205 1.76031 9.23007
H 0.66661 1.93331 10.7719
O 5.07771 5.99682 -5.01793
H 5.51475 5.24443 -4.52508
H 5.63657 6.82149 -4.93086
O 1.43473 3.47618 6.80293
H 1.76739 3.69083 5.88463
H 2.21141 3.38786 7.42661
O -1.35693 7.78543 2.88147
H -1.33146 7.62396 3.86801
H -2.04446 8.48171 2.67532
O 3.81819 -9.66201 2.24304
H 4.29289 -8.91579 2.70976
H 3.31438 -10.2072 2.91305
O 0.941447 -10.1338 10.5608
H 0.262828 -9.54588 10.1206
H 0.475523 -10.8602 11.0661
O -11.8014 -14.4612 -10.9615
H -12.0443 14.838 -11.6638
H -10.9596 -13.9907 -11.2263
O -2.67293 -1.92181 10.0114
H -2.66009 -2.82816 10.4337
H -2.32352 -1.98473 9.07653
O 9.81229 13.9401 1.6876
H 10.0375 14.5836 2.41917
H 9.56835 14.4472 0.860986
O 4.01546 13.2274 -3.37114
H 3.03294 13.348 -3.513
H 4.44874 12.9756 -4.2365
O -2.04243 14.8854 5.15396
H -2.78508 14.2174 5.10672
H -2.17453 -14.3871 4.44793
O 3.89152 2.13109 -1.7739
H 3.99116 2.05601 -2.76608
H 3.44098 1.31099 -1.42114
O 3.35597 8.49275 0.264683
H 2.47917 8.83223 0.605246
H 3.63571 9.03098 -0.530331
O 6.81396 -5.59918 13.8182
H 6.19308 -6.18633 14.3376
H 6.39915 -5.3724 12.937
O -11.2212 -0.17313 12.5799
H -10.6319 -0.317912 11.7851
H -10.7038 -0.355071 13.4161
O -9.22673 8.96714 -4.49199
H -10.1826 9.25765 -4.44878
H -9.00269 8.69626 -5.42817
O 8.34763 -4.6881 -0.898739
H 7.77403 -4.2289 -0.220421
H 8.45733 -4.09676 -1.69767
O 2.79513 -6.22878 3.89735
H 1.82498 -5.98777 3.92422
H 2.96153 -7.00912 4.50017
O -14.4086 1.24267 -1.81826
H -13.5992 1.67976 -1.42585
H -14.8617 1.87935 -2.44217
O 13.5347 -14.854 3.16785
H 13.7042 -14.6808 2.19768
H 14.3111 -14.5257 3.70574
O 1.94851 14.4031 5.29382
H 1.36714 -14.7776 5.0891
H 1.37527 13.6064 5.48504
O -11.2127 -11.2372 -9.3933
H -11.288 -12.2087 -9.1684
H -11.9585 -10.9785 -10.0072
O 9.86534 0.842111 13.53
H 10.0669 1.78167 13.8068
H 10.3864 0.207456 14.1007
O 3.76821 2.06475 12.8421
H 3.98779 3.02538 13.0123
H 4.6045 1.51843 12.8883
O 5.30986 1.40533 -12.7864
H 4.56758 1.02011 -12.2381
H 5.10744 2.36187 -12.9963
O 0.559636 -6.10513 -9.56994
H 0.325311 -5.24651 -9.11402
H 1.03632 -6.70463 -8.927
O -13.3256 4.36992 -5.09327
H -13.6714 4.3287 -6.03065
H -14.0634 4.14819 -4.45571
O 9.58707 -11.8114 -1.8741
H 9.05576 -10.9686 -1.78816
H 9.04719 -12.4975 -2.36175
O -6.8345 -3.41506 2.84399
H -7.66009 -3.12215 2.3617
H -6.20224 -2.64414 2.921
O 7.2688 -2.66671 5.66903
H 7.18097 -3.45255 5.05688
H 7.35885 -1.83083 5.12756
O -11.8965 11.882 12.0008
H -12.1321 12.7231 11.514
H -12.4454 11.1258 11.6447
O 7.33879 9.89258 4.03333
H 8.1686 9.43046 3.72054
H 6.87649 10.3124 3.25227
O 11.4756 2.49697 -13.0865
H 10.9392 1.90155 -13.6847
H 11.9149 1.94726 -12.376
O -13.246 4.22792 -10.21
H -13.753 4.51295 -11.0235
H -12.5224 3.59045 -10.4747
O -6.48279 -9.04873 -9.06874
H -6.06422 -9.90363 -8.76224
H -7.45661 -9.19731 -9.24076
O -0.0312189 2.20657 -4.31753
H -0.479461 2.80191 -3.65072
H 0.297741 2.75525 -5.08613
O -8.1604 10.5703 -14.7442
H -8.31649 10.4821 14.2403
H -7.27767 10.1636 -14.5089
O 8.4064 -13.4705 1.09629
H 8.59974 -13.7777 0.164464
H 8.66848 -12.5102 1.19185
O -3.53323 -7.85178 5.77923
H -2.87112 -8.49501 5.39469
H -3.92828 -8.23841 6.61256
O -7.2853 -12.6221 0.533567
H -7.47388 -11.6445 0.627286
H -8.08518 -13.0802 0.145792
O 5.9033 9.67528 -10.5822
H 5.226 10.3911 -10.7522
H 6.45921 9.54082 -11.4025
O 3.15028 -8.89411 12
H 3.04446 -8.03529 12.5012
H 2.26918 -9.16423 11.6118
O -8.48309 -9.72325 -12.7655
H -7.71476 -10.1677 -13.2261
H -9.3421 -10.1064 -13.1052
O -3.33761 13.3317 0.752229
H -4.24019 13.0383 1.06728
H -3.42211 13.7634 -0.145846
O 6.57456 -13.1046 13.0337
H 6.76857 -12.7759 12.1094
H 7.33299 -13.6739 13.351
O 0.744263 -13.352 -1.44156
H 1.73089 -13.3936 -1.59915
H 0.420293 -12.4194 -1.60068
O 10.5291 1.87307 1.26004
H 10.6554 0.911496 1.01628
H 9.92857 2.31048 0.590675
O 14.2103 -9.58324 9.39289
H 14.7755 -10.3617 9.11964
H 13.3232 -9.63822 8.93456
O -5.25496 -4.31432 -13.7704
H -5.61122 -4.6556 -14.6402
H -5.70453 -3.4508 -13.5418
O -10.0271 -14.2599 -14.1799
H -9.70583 14.7652 -14.2652
H -11.0188 -14.2559 -14.0515
O -1.83241 -3.93834 7.98535
H -1.09622 -4.03607 7.31567
H -1.73065 -4.63402 8.69646
O 9.34667 -6.50995 13.4757
H 9.71322 -6.77013 14.369
H 8.53364 -5.94153 13.6017
O -10.4347 -0.606932 -2.58289
H -9.49542 -0.722611 -2.90586
H -11.0071 -1.33849 -2.95337
O 9.62431 4.80306 -9.47099
H 9.82856 5.41509 -8.70698
H 10.2047 5.03808 -10.2507
O -6.91892 9.03093 0.221287
H -7.67986 8.48527 0.572322
H -7.03313 9.16805 -0.762661
O -1.19849 -0.00941113 11.348
H -1.9002 -0.0732114 12.0576
H -1.33417 -0.739663 10.6784
O 7.67283 -10.8876 5.45465
H 8.3146 -10.3349 5.9863
H 7.96679 -11.8434 5.46646
O -4.36412 8.04456 -0.00699835
H -5.14589 8.66803 0.00339883
H -4.63651 7.17527 -0.419465
O 2.76766 -4.36216 -14.927
H 1.87997 -4.6411 14.6749
H 2.85885 -3.36862 14.9736
O -8.34022 12.8868 8.80795
H -9.21749 13.3566 8.90612
H -7.62816 13.5531 8.58663
O -1.82016 4.55845 11.7347
H -1.39334 3.75944 12.1582
H -1.1191 5.2415 11.5298
O 13.3543 -6.8036 -7.59229
H 12.7484 -6.01814 -7.46613
H 14.181 -6.51287 -8.07402
O -3.29116 4.99874 -5.66757
H -4.04972 5.15589 -6.29994
H -2.49196 4.68138 -6.17803
O 5.93466 -11.1769 -0.596137
H 5.66371 -11.9955 -0.0896154
H 5.11919 -10.7182 -0.949081
O -5.26182 7.85123 -4.1132
H -4.40787 8.00901 -3.61735
H -6.02609 8.22614 -3.58847
O 8.92781 14.0022 -4.51167
H 8.91593 14.0433 -5.51075
H 8.40918 14.7722 -4.14015
O -11.4517 9.02082 13.0606
H -11.8381 8.9085 12.1451
H -10.501 9.32202 12.9865
O -12.424 -6.84702 5.17852
H -12.2984 -6.14192 5.87643
H -13.1625 -7.46189 5.45501
O -7.41448 9.65685 -8.74396
H -6.69481 9.34413 -9.36386
H -8.18236 10.0122 -9.27699
O 10.0552 5.81217 13.6233
H 9.36077 5.43248 14.2346
H 9.61931 6.42269 12.962
O 4.94785 4.59764 -0.97036
H 4.63174 3.70922 -1.30317
H 4.17714 5.10041 -0.578926
O -8.54785 -8.06024 1.98797
H -8.01666 -7.50132 2.62471
H -9.52222 -7.96006 2.18942
O 8.26831 6.29156 -11.9973
H 7.8422 5.69631 -11.316
H 9.06429 5.8315 -12.3907
O 4.455 4.61163 14.0073
H 4.22802 5.52797 13.6775
H 5.32446 4.31979 13.6088
O -0.0708828 12.1579 8.37021
H -0.327888 12.9506 7.8174
H -0.0536876 11.341 7.79374
O 14.2017 -1.46131 7.74786
H 13.727 -1.55303 6.87246
H 14.4554 -2.36755 8.08597
O -5.33613 -0.787074 6.97958
H -5.325 0.193412 6.78331
H -5.62561 -0.934411 7.92535
O -9.23009 11.5747 -1.44767
H -10.1381 11.9905 -1.39596
H -9.00804 11.1489 -0.570537
O -12.1099 -9.58133 -2.29729
H -11.1126 -9.50796 -2.29183
H -12.3918 -10.337 -1.7061
O -7.61727 -9.33062 7.74925
H -7.92701 -10.1229 8.27489
H -8.23051 -9.18528 6.97285
O -13.1001 8.50642 -3.70881
H -12.9631 7.69259 -4.27352
H -13.7233 8.28964 -2.95739
O 12.0578 4.60109 -1.57433
H 12.9001 4.33591 -1.10504
H 11.6093 3.78571 -1.94044
O 3.18577 8.89514 -6.58408
H 2.79202 9.69495 -6.13101
H 4.08399 9.13078 -6.95512
O 10.8102 -5.92533 1.8009
H 11.5614 -6.42824 2.22832
H 10.9388 -4.94473 1.94885
O 7.91291 12.0549 1.3142
H 8.56922 12.798 1.18355
H 6.98942 12.4332 1.37794
O -7.03074 -6.26242 3.83424
H -6.69557 -6.57531 4.72293
H -6.48664 -5.48083 3.52916
O -9.89493 -11.8109 -4.62097
H -9.53516 -11.3764 -3.79531
H -9.2507 -11.6796 -5.37446
O -8.39016 -12.4064 6.08756
H -8.09594 -13.2578 5.65319
H -8.941 -11.8764 5.44289
O -11.5818 -2.81481 -6.43787
H -11.1894 -3.73242 -6.37438
H -11.1075 -2.20482 -5.80311
O -3.67904 3.81423 6.37235
H -3.37299 4.37903 7.13872
H -3.91716 4.40212 5.59925
O 6.23928 14.2391 6.55699
H 6.68389 14.3453 5.66758
H 5.5021 13.5674 6.48303
O -14.7498 5.34951 12.1909
H -14.955 5.5346 13.1519
H 14.6661 4.57819 11.8747
O -12.8602 -0.146889 -9.81011
H -12.9981 -1.13455 -9.73593
H -13.5435 0.23949 -10.4296
O 10.4061 -1.18104 -5.15964
H 10.2855 -0.384446 -4.56726
H 9.56313 -1.71887 -5.17063
O 9.89924 0.727011 6.41167
H 9.78751 -0.0471588 7.03471
H 10.5033 0.46475 5.65915
O -13.0709 1.27387 -7.68269
H -12.7339 0.590742 -8.33056
H -14.0604 1.17431 -7.57801
O 8.17604 14.9156 -12.6424
H 8.85431 14.198 -12.8005
H 8.58313 -14.1604 -12.8375
O 5.41441 4.12471 -12.2477
H 5.9565 4.0453 -11.4112
H 5.26445 5.09095 -12.4573
O 2.36676 -6.33013 -2.439
H 3.18693 -6.73031 -2.03012
H 1.5722 -6.89299 -2.21128
O 4.99304 -6.70096 -1.05586
H 5.66873 -7.03175 -1.71467
H 5.26558 -5.79792 -0.723821
O -2.06965 7.60355 -5.41356
H -2.48547 6.77307 -5.78422
H -2.65732 7.97935 -4.69703
O -12.1527 12.8156 14.6105
H -11.8789 12.708 13.6547
H -11.9829 11.9625 -14.8644
O -7.91181 -8.84327 -4.39695
H -7.78772 -8.01377 -4.94151
H -7.03786 -9.10845 -3.98967
O -6.00037 8.62405 -14.6834
H -5.87018 8.43545 14.3114
H -5.13225 8.5044 -14.2017
O -10.2851 -2.57304 8.67062
H -9.69757 -3.38111 8.62809
H -11.2161 -2.85 8.90844
O -10.8854 -5.48829 -6.91759
H -11.7471 -5.63385 -7.4036
H -10.179 -6.07928 -7.30719
O 11.2032 2.05539 -6.05354
H 11.5762 1.29365 -6.58329
H 10.3037 2.30285 -6.41352
O -13.4565 -11.7912 -0.687679
H -13.6528 -11.9704 -1.6517
H -14.3105 -11.6017 -0.203204
O 10.077 9.26546 3.24989
H 10.3479 10.0762 3.7688
H 10.273 9.40968 2.27994
O 10.4919 8.87498 -14.397
H 9.53961 9.09595 -14.6076
H 11.043 8.94994 14.7402
O 12.0979 4.4805 -6.86758
H 12.5944 4.88226 -6.09807
H 11.8281 3.54528 -6.63836
O -4.29367 9.29682 4.81416
H -3.76558 9.93208 4.25062
H -4.63874 8.55216 4.24284
O -5.43549 -9.0227 12.3543
H -5.09655 -8.30728 12.9653
H -6.12463 -8.63778 11.7404
O -11.2803 -6.54674 -4.04013
H -12.2491 -6.30272 -4.085
H -10.857 -6.39621 -4.93349
O -13.2535 8.14374 -11.0104
H -12.5898 7.43741 -11.2564
H -14.1655 7.86276 -11.3093
O 14.5815 -1.32702 -3.88638
H 13.7162 -1.71031 -4.20942
H 14.4593 -0.356496 -3.67868
O 6.90985 -7.10904 -7.08903
H 7.70743 -7.70349 -6.98664
H 6.20921 -7.37429 -6.42665
O -8.36212 -3.62227 11.7153
H -9.10762 -4.23813 11.9701
H -8.38555 -2.81096 12.2994
O 5.0859 12.7866 -5.76214
H 5.9212 12.2546 -5.9007
H 4.67816 13.0039 -6.649
O -8.82982 -1.62513 14.3661
H -8.25067 -2.04208 -14.9017
H -9.73914 -1.45261 14.7447
O 14.4304 6.58217 -8.2733
H -14.9456 5.77663 -8.25448
H 14.2879 6.86909 -9.2206
O -2.41471 3.3295 -14.8343
H -1.41564 3.32859 -14.7913
H -2.71317 3.8405 14.3278
O 4.87233 14.9277 14.082
H 4.14045 14.7712 13.4187
H 5.54366 -14.4087 13.6947
O -13.0673 -10.4347 -11.4679
H -12.6802 -9.55176 -11.7336
H -13.1842 -11.0055 -12.2806
O -5.43147 10.5792 12.2625
H -6.21128 10.1096 11.8487
H -4.64337 9.96397 12.2812
O 4.42464 1.71729 -4.65485
H 4.33231 2.40183 -5.37795
H 3.56202 1.22184 -4.5528
O -6.64028 -14.7444 -11.7303
H -6.51902 -14.1312 -12.5108
H -5.98687 -14.5036 -11.0126
O -8.99235 3.85036 -2.37844
H -9.28118 4.80774 -2.37976
H -9.4167 3.37313 -3.14797
O 8.58622 -12.3572 -13.13
H 9.40305 -12.2543 -13.6976
H 7.8364 -11.8269 -13.5256
O -5.13621 -1.39202 -11.598
H -4.2437 -0.995148 -11.8123
H -5.52843 -0.922668 -10.8069
O -13.1032 1.97734 12.9987
H -12.3353 1.33747 12.9705
H -13.9526 1.48743 12.8026
O -5.27893 -13.141 2.18362
H -5.89688 -12.9866 1.41272
H -5.68508 -12.7656 3.01675
O 12.044 0.865813 4.15762
H 12.4575 1.5449 4.76413
H 11.9443 1.25396 3.24143
O 10.1124 -1.99576 6.45776
H 10.6479 -2.64828 5.92166
H 9.15769 -2.29205 6.48643
O -1.49615 -8.26522 1.95136
H -2.08431 -8.00981 1.18401
H -1.74489 -7.7259 2.75589
O -1.72435 0.423717 -7.8847
H -1.82611 0.990388 -8.70234
H -2.23047 0.836932 -7.12768
O 0.769388 13.0287 13.4899
H -0.183514 13.0228 13.7931
H 1.14653 12.105 13.5581