LAMMPS data file via write_data, version 15 May 2015, timestep = 8008000

2611 atoms
6 atom types
1749 bonds
4 bond types
894 angles
3 angle types
44 dihedrals
3 dihedral types
10 impropers
1 improper types

-1.4904144288797722e+01 1.4904144288797722e+01 xlo xhi
-1.4904144288797722e+01 1.4904144288797722e+01 ylo yhi
-1.4904144288797722e+01 1.4904144288797722e+01 zlo zhi

Masses

1 15.9994
2 1.00794
3 12.0107
4 1.00794
5 12.0107
6 12.0107

Bond Coeffs # harmonic

1 1000 1
2 469 1.4
3 367 1.08
4 469 0.7

Angle Coeffs # harmonic

1 100 109.47
2 35 120
3 63 120

Dihedral Coeffs # opls

1 0 7.25 0 0
2 0 7.25 0 0
3 0 7.25 0 0

Improper Coeffs # cvff

1 2.5 -1 2

Atoms # full

1367 456 2 4.0999999999999998e-01 -1.1073635117943606e+01 -1.0307928572849576e+01 -1.4715344262679595e+01 2 1 -1
1882 628 1 -8.1999999999999995e-01 -1.1750879531410444e+01 -1.0064427648864964e+01 -1.2855661931047996e+01 2 0 -2
1883 628 2 4.0999999999999998e-01 -1.2712895032766015e+01 -9.9541574385089255e+00 -1.3105368520428737e+01 2 0 -2
201 67 2 4.0999999999999998e-01 -1.1536981372853701e+01 -1.3350333072147386e+01 -1.2294041282371895e+01 0 0 -2
199 67 1 -8.1999999999999995e-01 -1.1795421330348400e+01 -1.2516790774326411e+01 -1.1805776277368931e+01 0 0 -2
200 67 2 4.0999999999999998e-01 -1.2393093483090519e+01 -1.2751317758756267e+01 -1.1039113528194481e+01 0 0 -2
1131 377 2 4.0999999999999998e-01 -1.1617854154585787e+01 -1.1982712799348535e+01 -8.1503420646063471e+00 -1 -2 1
1057 353 1 -8.1999999999999995e-01 -1.4262164706571365e+01 -8.6313502446849419e+00 -1.2991327018235399e+01 2 1 0
862 288 1 -8.1999999999999995e-01 -8.3409938621192197e+00 -1.1532156298317837e+01 -1.2805944957525366e+01 1 -2 1
1059 353 2 4.0999999999999998e-01 -1.3594579123458855e+01 -8.1778141797838906e+00 -1.3581768587019241e+01 2 1 0
1884 628 2 4.0999999999999998e-01 -1.1582530350671645e+01 -1.1013233783720931e+01 -1.2588431370609186e+01 2 0 -2
864 288 2 4.0999999999999998e-01 -8.2731484956543291e+00 -1.0852452969294225e+01 -1.2075611427704661e+01 1 -2 1
1432 478 1 -8.1999999999999995e-01 -9.8644788378089245e+00 -1.1113450467175898e+01 -9.9363025241697933e+00 2 1 4
1434 478 2 4.0999999999999998e-01 -1.0454939831008176e+01 -1.1586882983175958e+01 -1.0589911109799271e+01 2 1 4
2514 838 2 4.0999999999999998e-01 -1.4452395088004829e+01 -1.0301415769376987e+01 -1.2139336480832389e+01 2 1 0
573 191 2 4.0999999999999998e-01 -1.1946551051437512e+01 -9.2908006184668679e+00 -8.1725165259473016e+00 0 -4 2
571 191 1 -8.1999999999999995e-01 -1.2076575893313892e+01 -1.0276686462967662e+01 -8.0671157006479284e+00 0 -4 2
797 266 2 4.0999999999999998e-01 -8.0129605085128333e+00 -7.2387571507914652e+00 -9.2637878622764500e+00 -2 0 0
2106 702 2 4.0999999999999998e-01 -9.9917667375315400e+00 -7.9050543435581639e+00 -1.0493251461612582e+01 1 3 -1
1206 402 2 4.0999999999999998e-01 -1.3003542913538832e+01 -1.3314420636742224e+01 -8.9643877768109128e+00 3 1 -1
2403 801 2 4.0999999999999998e-01 -1.2517626194977730e+01 -7.0217850455500521e+00 -9.1884937405530511e+00 1 -2 5
2401 801 1 -8.1999999999999995e-01 -1.1846953815786129e+01 -7.4996507409141397e+00 -8.6211934556942786e+00 1 -2 5
2392 798 1 -8.1999999999999995e-01 -1.1102909389730231e+01 -7.5665735346812584e+00 -1.1819411631709048e+01 -2 -1 3
2105 702 2 4.0999999999999998e-01 -9.2995823293331377e+00 -9.1479625804828366e+00 -9.6915963958058597e+00 1 3 -1
2402 801 2 4.0999999999999998e-01 -1.0967277784776766e+01 -7.5262228795124777e+00 -9.0960099410263489e+00 1 -2 5
1205 402 2 4.0999999999999998e-01 -1.4591068483195150e+01 -1.3172361240695349e+01 -9.3195956894267482e+00 3 1 -1
1433 478 2 4.0999999999999998e-01 -1.0025389305416230e+01 -1.1476033223973094e+01 -9.0183546733386848e+00 2 1 4
2393 798 2 4.0999999999999998e-01 -1.1735718520123310e+01 -7.0429153309895964e+00 -1.2389781160966866e+01 -2 -1 3
1204 402 1 -8.1999999999999995e-01 -1.3680436588351405e+01 -1.3333174587120531e+01 -9.7002205960904586e+00 3 1 -1
572 191 2 4.0999999999999998e-01 -1.2932668641491192e+01 -1.0548830984530181e+01 -8.5064666538946838e+00 0 -4 2
2104 702 1 -8.1999999999999995e-01 -9.4304539136798660e+00 -8.1566582725562995e+00 -9.7048289393569647e+00 1 3 -1
442 148 1 -8.1999999999999995e-01 -1.2756211230522434e+01 -6.0932209544254210e+00 -1.4013374047971352e+01 1 0 -3
2394 798 2 4.0999999999999998e-01 -1.1168890812932881e+01 -8.5367645632567832e+00 -1.2052569371919411e+01 -2 -1 3
1336 446 1 -8.1999999999999995e-01 -1.4521959514355437e+01 -6.4005519316086747e+00 -1.1216278766937059e+01 4 2 2
1338 446 2 4.0999999999999998e-01 -1.4586887129420782e+01 -7.0535321915966547e+00 -1.1970856713033971e+01 4 2 2
1920 640 2 4.0999999999999998e-01 -7.9242822143301819e+00 -5.5699342914851542e+00 -1.1965682239927698e+01 1 0 0
966 322 2 4.0999999999999998e-01 -1.3953629737633829e+01 -1.4129771635547547e+01 -1.3828322223576230e+01 -1 1 -1
883 295 1 -8.1999999999999995e-01 -1.2306787926041871e+01 -5.1316410252059885e+00 -1.0293195937738222e+01 -1 -1 -2
884 295 2 4.0999999999999998e-01 -1.3043107020449245e+01 -5.5556734350926806e+00 -1.0820469531095149e+01 -1 -1 -2
863 288 2 4.0999999999999998e-01 -8.4554297027994920e+00 -1.2441320784700331e+01 -1.2405556305541243e+01 1 -2 1
1130 377 2 4.0999999999999998e-01 -1.0477970947654015e+01 -1.3138761209960418e+01 -7.9748162733932446e+00 -1 -2 1
443 148 2 4.0999999999999998e-01 -1.3309911716129806e+01 -5.4854396000915422e+00 -1.3444160309970894e+01 1 0 -3
772 258 1 -8.1999999999999995e-01 -1.4655622999057179e+01 -1.0384609238316417e+01 -8.9160493834487582e+00 -3 -2 0
444 148 2 4.0999999999999998e-01 -1.2271340733591396e+01 -5.5545895917357218e+00 -1.4702404950158236e+01 1 0 -3
1129 377 1 -8.1999999999999995e-01 -1.1445121359146103e+01 -1.2967596929382013e+01 -8.1627246504794737e+00 -1 -2 1
965 322 2 4.0999999999999998e-01 -1.4647272489602242e+01 -1.2875377444566665e+01 -1.3046052457370232e+01 -1 1 -1
2512 838 1 -8.1999999999999995e-01 -1.4797681785471303e+01 -1.1239271576050305e+01 -1.2104836153586492e+01 2 1 0
964 322 1 -8.1999999999999995e-01 -1.4584638010372734e+01 -1.3872127033195998e+01 -1.3096588300822621e+01 -1 1 -1
2513 838 2 4.0999999999999998e-01 -1.4386714885754859e+01 -1.1717416955664529e+01 -1.1328646823555335e+01 2 1 0
885 295 2 4.0999999999999998e-01 -1.1455792093746123e+01 -5.6343250604171988e+00 -1.0445187882212014e+01 -1 -1 -2
707 236 2 4.0999999999999998e-01 -1.2842962802127001e+01 -1.4874795085124520e+01 -1.0674715944556173e+01 0 3 3
105 35 2 4.0999999999999998e-01 -1.4553834658646281e-01 -8.0838268539393958e+00 -9.9289056398871338e+00 -1 -2 -1
2511 837 2 4.0999999999999998e-01 -4.2658642850194965e+00 -1.2870771955993440e+01 -7.9016462312901918e+00 0 1 1
1619 540 2 4.0999999999999998e-01 -2.0685537493364077e+00 -1.4370396196974715e+01 -1.0483689592763703e+01 0 2 1
139 47 1 -8.1999999999999995e-01 -6.5995905800812942e+00 -5.6738239673607183e+00 -1.4404916441833317e+01 -1 -3 1
417 139 2 4.0999999999999998e-01 -4.4537280330583524e+00 -1.0307127406821934e+01 -8.5924191130393357e+00 -3 1 4
1519 507 1 -8.1999999999999995e-01 -4.4111173276216142e-01 -1.1105423563878501e+01 -1.4411910279833931e+01 0 -1 1
507 169 2 4.0999999999999998e-01 -5.6655197291727522e+00 -7.8499545221862936e+00 -8.0796988012527500e+00 -1 2 -4
415 139 1 -8.1999999999999995e-01 -4.0006903670690601e+00 -1.0303755931686144e+01 -9.4838966511394940e+00 -3 1 4
748 250 1 -8.1999999999999995e-01 -5.4073289782671381e+00 -5.2110225671551778e+00 -1.2047133760826846e+01 0 -1 5
209 70 2 4.0999999999999998e-01 -4.1053954283314837e+00 -1.4618085534952684e+01 -1.1653162436863855e+01 0 -4 4
1618 540 1 -8.1999999999999995e-01 -1.9606982400426336e+00 -1.3963233200762248e+01 -9.5767319520033070e+00 0 2 1
1180 394 1 -8.1999999999999995e-01 -2.3160915811369378e+00 -1.3163807084573605e+01 -1.4371752373699689e+01 4 3 4
247 83 1 -8.1999999999999995e-01 -4.2602315318794304e+00 -1.1253665160399162e+01 -1.3620965585234048e+01 -1 -1 4
798 266 2 4.0999999999999998e-01 -7.4014784757432066e+00 -6.0661025866101053e+00 -8.3058933128701753e+00 -2 0 0
1266 422 2 4.0999999999999998e-01 -7.3038206663809238e+00 -1.1204339945432078e+01 -1.4313497508557461e+01 -1 2 1
1046 349 2 4.0999999999999998e-01 -5.9429451549265249e+00 -1.2014577728800617e+01 -9.5243882988887840e+00 1 0 2
1265 422 2 4.0999999999999998e-01 -5.7052777222056825e+00 -1.1417835801781520e+01 -1.4569760948015974e+01 -1 2 1
2186 729 2 4.0999999999999998e-01 -2.9670429755688499e+00 -5.2089341244308187e+00 -9.1229219945420574e+00 1 -4 1
167 56 2 4.0999999999999998e-01 -2.3190285147771483e+00 -5.9921856553199166e+00 -1.2782568041446774e+01 -1 0 1
166 56 1 -8.1999999999999995e-01 -1.9660159823755556e+00 -6.5337087236358329e+00 -1.2019599067382803e+01 -1 0 1
1143 381 2 4.0999999999999998e-01 -4.5157002637740646e+00 -1.2321906699961303e+01 -1.2153346492371366e+01 -1 -1 -3
750 250 2 4.0999999999999998e-01 -5.1103224397189138e+00 -5.5917086835782701e+00 -1.1171432942723662e+01 0 -1 5
655 219 1 -8.1999999999999995e-01 -1.7079708947480690e+00 -9.1155382292509124e+00 -9.0001018071152430e+00 0 -2 -2
2510 837 2 4.0999999999999998e-01 -2.9663589280409077e+00 -1.3677851126851543e+01 -8.4730480330465543e+00 0 1 1
1045 349 1 -8.1999999999999995e-01 -6.0558254791984325e+00 -1.2125087236589870e+01 -8.5369510294867084e+00 1 0 2
1047 349 2 4.0999999999999998e-01 -6.7762014637322352e+00 -1.2794831443822403e+01 -8.3567072448943875e+00 1 0 2
852 284 2 4.0999999999999998e-01 -1.9100522216024540e+00 -9.4370698528296337e+00 -1.1099039442646498e+01 0 -1 -3
248 83 2 4.0999999999999998e-01 -3.4562095783666535e+00 -1.1843337701501589e+01 -1.3697265580671935e+01 -1 -1 4
656 219 2 4.0999999999999998e-01 -2.5134492258891026e+00 -9.6950949291634601e+00 -9.1238169033495957e+00 0 -2 -2
1141 381 1 -8.1999999999999995e-01 -4.2630531055643477e+00 -1.2693016494821912e+01 -1.1259795366024422e+01 -1 -1 -3
416 139 2 4.0999999999999998e-01 -4.5668542340869980e+00 -9.8095910802235977e+00 -1.0143628654622756e+01 -3 1 4
657 219 2 4.0999999999999998e-01 -1.7766259123969554e+00 -8.6311878832755724e+00 -8.1279332794101293e+00 0 -2 -2
2570 857 2 4.0999999999999998e-01 -5.5775269144845474e-01 -1.0961007950466458e+01 -9.3647185092989957e+00 -2 -1 0
253 85 1 -8.1999999999999995e-01 -4.8189247770452379e+00 -7.9353348117487608e+00 -1.3184096582041967e+01 -1 -2 -5
2217 739 2 4.0999999999999998e-01 -5.7868241512337146e+00 -8.3536980663767757e+00 -1.1578103651885771e+01 -2 0 2
2185 729 1 -8.1999999999999995e-01 -3.5990728738364002e+00 -5.8841644483476259e+00 -9.5031704717575067e+00 1 -4 1
2187 729 2 4.0999999999999998e-01 -3.1857925423148377e+00 -6.3119400258500544e+00 -1.0307032496837106e+01 1 -4 1
796 266 1 -8.1999999999999995e-01 -7.2173639692587734e+00 -6.9529798397330662e+00 -8.7296117047489776e+00 -2 0 0
1181 394 2 4.0999999999999998e-01 -1.4993528915216352e+00 -1.2615663879478664e+01 -1.4191575740722298e+01 4 3 4
1182 394 2 4.0999999999999998e-01 -2.1315454353428542e+00 -1.4120642266981354e+01 -1.4147261919234762e+01 4 3 4
168 56 2 4.0999999999999998e-01 -1.5782235911021090e+00 -7.3871165270325099e+00 -1.2367878979709896e+01 -1 0 1
249 83 2 4.0999999999999998e-01 -3.9676917278448851e+00 -1.0307136888942626e+01 -1.3484982572347104e+01 -1 -1 4
850 284 1 -8.1999999999999995e-01 -1.2922508525918772e+00 -9.4035595784225752e+00 -1.1884650817728961e+01 0 -1 -3
2569 857 1 -8.1999999999999995e-01 -4.5607164374158238e-01 -1.1879226247394502e+01 -9.7475014830522611e+00 -2 -1 0
255 85 2 4.0999999999999998e-01 -4.5256480947073854e+00 -7.0916852670977431e+00 -1.2734395658685765e+01 -1 -2 -5
141 47 2 4.0999999999999998e-01 -6.2801004024895306e+00 -5.5723856958834173e+00 -1.3462778969237711e+01 -1 -3 1
1521 507 2 4.0999999999999998e-01 -7.1431468318962033e-01 -1.0480301525125443e+01 -1.3680767835326201e+01 0 -1 1
2216 739 2 4.0999999999999998e-01 -6.7093594474838110e+00 -8.3948787916208332e+00 -1.0231320900534497e+01 -2 0 2
254 85 2 4.0999999999999998e-01 -4.1707037358923440e+00 -8.1695513022123301e+00 -1.3908623184197779e+01 -1 -2 -5
1142 381 2 4.0999999999999998e-01 -3.9100847108031775e+00 -1.1957739508662637e+01 -1.0681204157541469e+01 -1 -1 -3
2215 739 1 -8.1999999999999995e-01 -5.9808950522180702e+00 -8.8576490580534504e+00 -1.0736464423647440e+01 -2 0 2
1620 540 2 4.0999999999999998e-01 -1.3087723229012855e+00 -1.3206590261026911e+01 -9.6264388034495401e+00 0 2 1
505 169 1 -8.1999999999999995e-01 -4.7657798707875632e+00 -7.7820629922036826e+00 -7.6486005974384499e+00 -1 2 -4
506 169 2 4.0999999999999998e-01 -4.1944100082993181e+00 -7.1466556522259790e+00 -8.1680047992176199e+00 -1 2 -4
851 284 2 4.0999999999999998e-01 -4.0543519210391210e-01 -9.7877905404687802e+00 -1.1627918967448839e+01 0 -1 -3
140 47 2 4.0999999999999998e-01 -6.9140476389822449e+00 -6.6117694818782873e+00 -1.4551072714666192e+01 -1 -3 1
2076 692 2 4.0999999999999998e-01 -1.6160637238273754e+00 -6.1693254706002119e+00 -1.4871607697152074e+01 -1 -1 2
2509 837 1 -8.1999999999999995e-01 -3.4307286751105881e+00 -1.3358337670935120e+01 -7.6470585853712150e+00 0 1 1
1051 351 1 -8.1999999999999995e-01 -2.8688514645748295e+00 -4.9806512904108580e+00 -1.4129522863892623e+01 1 -2 2
2389 797 1 -8.1999999999999995e-01 -1.2156743295365406e+01 -1.0153585185658333e+01 -5.4349625666060053e+00 2 0 2
2390 797 2 4.0999999999999998e-01 -1.1772788129867983e+01 -1.1001528823560431e+01 -5.0695084051182597e+00 2 0 2
2391 797 2 4.0999999999999998e-01 -1.2152607697505955e+01 -1.0189340225192044e+01 -6.4343079568166193e+00 2 0 2
2232 744 2 4.0999999999999998e-01 -1.0487550352256484e+01 -1.2861624500359945e+01 -5.6046615060956686e+00 1 0 -2
2231 744 2 4.0999999999999998e-01 -1.1757030912426798e+01 -1.3261184583727621e+01 -4.6584258964416509e+00 1 0 -2
2060 687 2 4.0999999999999998e-01 -1.0912761286308237e+01 -9.0063416382251802e+00 -4.1657233970638394e+00 -2 -3 3
2059 687 1 -8.1999999999999995e-01 -1.0228273465480797e+01 -8.9650766492429437e+00 -3.4378770439574851e+00 -2 -3 3
2230 744 1 -8.1999999999999995e-01 -1.0996273505316424e+01 -1.2623160762012766e+01 -4.7774236460617736e+00 1 0 -2
2119 707 1 -8.1999999999999995e-01 -1.2396921383806749e+01 -1.4139105112276726e+01 -1.9321407028676205e+00 2 0 -1
2061 687 2 4.0999999999999998e-01 -9.4220448376677730e+00 -9.4912408777014079e+00 -3.7083087366017384e+00 -2 -3 3
42 14 2 4.0999999999999998e-01 -8.1868158357933680e+00 -8.1536914651110237e+00 -1.2073561553028291e+00 1 2 0
148 50 1 -8.1999999999999995e-01 -9.1292368730605240e+00 -1.2037114908100971e+01 -7.0577045737330790e+00 -1 -1 2
219 73 2 4.0999999999999998e-01 -1.0552699978594958e+01 -1.0615459484624663e+01 -2.4858219116436100e+00 3 1 0
1587 529 2 4.0999999999999998e-01 -1.3821876285510310e+01 -1.3144746811798719e+01 -4.7185403257113929e+00 0 3 -1
2168 723 2 4.0999999999999998e-01 -8.5571747199230686e+00 -8.3754892245297246e+00 -6.7204563483642463e+00 4 -1 1
775 259 1 -8.1999999999999995e-01 -1.1996285833624199e+01 -7.2404824010653313e+00 -1.7563713938088714e+00 0 2 -2
777 259 2 4.0999999999999998e-01 -1.1698711404623790e+01 -7.8208296548946867e+00 -2.5144170709511169e+00 0 2 -2
776 259 2 4.0999999999999998e-01 -1.2869958776133680e+01 -7.5752398360695974e+00 -1.4033561818709313e+00 0 2 -2
2430 810 2 4.0999999999999998e-01 -1.3027395318640865e+01 -7.5656031491508857e+00 -5.6207714872723749e+00 -1 2 -3
2429 810 2 4.0999999999999998e-01 -1.2237812664255062e+01 -6.9248528277980776e+00 -6.8984996807277490e+00 -1 2 -3
359 120 2 4.0999999999999998e-01 -9.5428345150511511e+00 -5.5592888819431945e+00 -5.1076259653245355e+00 1 2 1
2428 810 1 -8.1999999999999995e-01 -1.2632867535290206e+01 -6.7290657356334211e+00 -6.0009553860275258e+00 -1 2 -3
2581 861 1 -8.1999999999999995e-01 -8.0346166856164025e+00 -6.2066334020350666e+00 -4.3378913515313560e+00 -2 0 -1
1263 421 2 4.0999999999999998e-01 -1.3384455659378411e+01 -9.2818185727333287e+00 -4.2560657488388767e+00 2 -1 4
1586 529 2 4.0999999999999998e-01 -1.3242941231869585e+01 -1.4137781107380571e+01 -3.5586661234714363e+00 0 3 -1
1261 421 1 -8.1999999999999995e-01 -1.3801441726388752e+01 -8.6171489491605833e+00 -3.6361273715471878e+00 2 -1 4
1585 529 1 -8.1999999999999995e-01 -1.3386801986527516e+01 -1.4027679834169508e+01 -4.5421133753176743e+00 0 3 -1
41 14 2 4.0999999999999998e-01 -9.7319384027587574e+00 -7.9868617305119756e+00 -1.7087094550130431e+00 1 2 0
1632 544 2 4.0999999999999998e-01 -1.4199330322368844e+01 -5.3746630694408601e+00 -3.0534374148558410e+00 0 2 1
21 7 2 4.0999999999999998e-01 -1.1588756316248297e+01 -6.6540168313617656e+00 -1.2719172730585093e-01 0 -1 1
514 172 1 -8.1999999999999995e-01 -8.0479524236500204e+00 -1.2294642202136160e+01 -3.8914129454490585e+00 0 4 -1
2120 707 2 4.0999999999999998e-01 -1.2142583302483574e+01 -1.3323209938573878e+01 -1.4128971310463552e+00 2 0 -1
150 50 2 4.0999999999999998e-01 -8.2904365444442760e+00 -1.2579497962702760e+01 -7.0105737417299396e+00 -1 -1 2
515 172 2 4.0999999999999998e-01 -8.9822095898372627e+00 -1.2305367593375035e+01 -4.2478329016435303e+00 0 4 -1
67 23 1 -8.1999999999999995e-01 -1.0297711377009957e+01 -1.3332052624451268e+01 -1.9899733398915131e-01 -1 0 3
360 120 2 4.0999999999999998e-01 -1.1143806946966912e+01 -5.5084889139488187e+00 -5.4252698776167172e+00 1 2 1
217 73 1 -8.1999999999999995e-01 -1.0959971222149074e+01 -1.0961887655045430e+01 -1.6407749458182277e+00 3 1 0
1631 544 2 4.0999999999999998e-01 -1.4475012332916201e+01 -6.9759537978239061e+00 -3.2160978518831946e+00 0 2 1
2174 725 2 4.0999999999999998e-01 -1.4006354273085826e+01 -5.4523878974414188e+00 -1.0361696357203041e+00 2 1 2
2583 861 2 4.0999999999999998e-01 -8.2712472694536867e+00 -7.0613381408691760e+00 -3.8758604874049105e+00 -2 0 -1
218 73 2 4.0999999999999998e-01 -1.0499236675014465e+01 -1.1807396922916190e+01 -1.3709148083841214e+00 3 1 0
1174 392 1 -8.1999999999999995e-01 -1.4895739505089601e+01 -1.1958926013023301e+01 -5.2549607212318641e+00 4 3 2
2095 699 1 -8.1999999999999995e-01 -7.6680409303179697e+00 -5.3045193113074873e+00 -6.7690654239470049e-01 0 1 0
2097 699 2 4.0999999999999998e-01 -8.3203740898249237e+00 -6.0527319903850803e+00 -7.9784430624006220e-01 0 1 0
2167 723 1 -8.1999999999999995e-01 -8.5216646935903526e+00 -9.3569053252567578e+00 -6.5319139604286196e+00 4 -1 1
2121 707 2 4.0999999999999998e-01 -1.1621948000908533e+01 -1.4770397064635507e+01 -1.9616951960356932e+00 2 0 -1
1175 392 2 4.0999999999999998e-01 -1.4264604714316910e+01 -1.1277022273521551e+01 -5.6246401458359898e+00 4 3 2
149 50 2 4.0999999999999998e-01 -8.9014805284903016e+00 -1.1065209811271572e+01 -6.9984235316783172e+00 -1 -1 2
69 23 2 4.0999999999999998e-01 -9.2997768648020767e+00 -1.3366360219591298e+01 -1.4480866538627701e-01 -1 0 3
1630 544 1 -8.1999999999999995e-01 -1.4779210121429172e+01 -6.1367293883360006e+00 -2.7653731030007371e+00 0 2 1
2492 831 2 4.0999999999999998e-01 -1.3817281513129471e+01 -1.4246554115500802e+01 -3.6731051607313958e-01 1 -4 1
516 172 2 4.0999999999999998e-01 -8.0385586519017949e+00 -1.1853237592238926e+01 -2.9941613606276167e+00 0 4 -1
1262 421 2 4.0999999999999998e-01 -1.4104276200416027e+01 -9.0817756457000840e+00 -2.8040216103507518e+00 2 -1 4
909 303 2 4.0999999999999998e-01 -1.1765269958214255e+01 -1.0779926515612740e+01 -1.6236914162407956e-01 -1 4 -1
1569 523 2 4.0999999999999998e-01 -1.4316092154353116e+01 -5.5103271528984088e+00 -5.9501447717162126e+00 4 3 2
2169 723 2 4.0999999999999998e-01 -8.2501464442201318e+00 -9.5039788062371073e+00 -5.5807914960797884e+00 4 -1 1
40 14 1 -8.1999999999999995e-01 -8.9939770598926714e+00 -7.5638788868210360e+00 -1.1828907070394195e+00 1 2 0
83 28 2 4.0999999999999998e-01 -1.1449713357223871e+01 -4.9838080883604068e+00 -2.8030170493145512e+00 1 -1 -1
2257 753 1 -8.1999999999999995e-01 -7.3187497256016698e-01 -1.1509125673984110e+01 -6.6181786448084221e+00 0 -3 0
1128 376 2 4.0999999999999998e-01 -2.9426221661707928e+00 -5.4833424495824694e+00 -2.4256425546774736e+00 -1 1 2
2582 861 2 4.0999999999999998e-01 -7.0812090504708571e+00 -6.2425332819427251e+00 -4.6374106968984243e+00 -2 0 -1
2258 753 2 4.0999999999999998e-01 -7.9003236466022031e-02 -1.1420567960831491e+01 -5.8659135714238211e+00 0 -3 0
1213 405 1 -8.1999999999999995e-01 -4.1887235854935057e-01 -1.4215914028423285e+01 -1.0989932516146066e+00 0 -1 1
1389 463 2 4.0999999999999998e-01 -7.0495383922754620e+00 -1.3988221746803809e+01 -3.5269365955601906e-01 3 0 -2
1126 376 1 -8.1999999999999995e-01 -3.7882503625395252e+00 -4.9806361299426616e+00 -2.2462378157133660e+00 -1 1 2
2041 681 1 -8.1999999999999995e-01 -7.3505216975020566e+00 -1.4275892632645126e+01 -7.3778046788518781e+00 3 -1 1
339 113 2 4.0999999999999998e-01 -5.9835606909649108e-01 -6.8782667430349616e+00 -3.1870547783390606e+00 1 3 -1
765 255 2 4.0999999999999998e-01 -4.1442217172313605e+00 -9.0822353678169492e+00 -6.7935566292787968e+00 -2 0 5
764 255 2 4.0999999999999998e-01 -2.7646582731542377e+00 -9.7784738849320654e+00 -6.2656857415419864e+00 -2 0 5
407 136 2 4.0999999999999998e-01 -7.6363024507882571e-01 -7.4624396894152545e+00 -6.0486512390080929e+00 -2 4 2
763 255 1 -8.1999999999999995e-01 -3.7595742334161226e+00 -9.8686844272127594e+00 -6.3103062559486887e+00 -2 0 5
877 293 1 -8.1999999999999995e-01 -6.7574457762899307e+00 -1.4855567805065425e+01 -3.6895605109407690e+00 0 -4 0
878 293 2 4.0999999999999998e-01 -7.1638386741032898e+00 -1.3942064169848841e+01 -3.7080718266751216e+00 0 -4 0
891 297 2 4.0999999999999998e-01 -5.3127832789567737e+00 -1.4463979017401874e+01 -5.1931323653497259e+00 -3 1 1
2399 800 2 4.0999999999999998e-01 -2.7545781439981223e+00 -1.3190352081950914e+01 -3.1711491658640707e+00 2 1 -2
1127 376 2 4.0999999999999998e-01 -4.0722776573848307e+00 -5.1332022918825064e+00 -1.2996445735087576e+00 -1 1 2
890 297 2 4.0999999999999998e-01 -4.3509051103795890e+00 -1.4339103062545808e+01 -6.5068246923406843e+00 -3 1 1
1032 344 2 4.0999999999999998e-01 -7.3614957810709036e+00 -1.0816922974030760e+01 -1.0982189608493478e+00 1 3 1
2042 681 2 4.0999999999999998e-01 -6.4258683504654730e+00 -1.4432633047315868e+01 -7.0307667065192341e+00 3 -1 1
408 136 2 4.0999999999999998e-01 -2.3420890624637902e+00 -7.0762171763073924e+00 -6.2095577277647500e+00 -2 4 2
2400 800 2 4.0999999999999998e-01 -1.9192985348163223e+00 -1.3697693203445281e+01 -1.8629045626639549e+00 2 1 -2
356 119 2 4.0999999999999998e-01 -4.7797614472536409e+00 -1.3509140205910033e+01 -1.6778425196033790e+00 -1 1 -3
1848 616 2 4.0999999999999998e-01 -2.3583481033329630e+00 -1.0298916003832158e+01 -3.4175624372847793e+00 1 -2 -1
1968 656 2 4.0999999999999998e-01 -6.3299390330819350e+00 -1.1602894482736840e+01 -4.5207447109057490e+00 0 4 -1
2179 727 1 -8.1999999999999995e-01 -7.3141453655574509e+00 -9.1076893895945652e+00 -4.1423747246868210e+00 2 -1 -1
2259 753 2 4.0999999999999998e-01 -1.5473534596885976e+00 -1.1990508611601749e+01 -6.2968501375927275e+00 0 -3 0
2330 777 2 4.0999999999999998e-01 -4.6699886217306279e+00 -8.7560891901100639e+00 -1.7824288782056286e+00 5 -4 -4
1847 616 2 4.0999999999999998e-01 -1.0006468419238601e+00 -9.6598252590986320e+00 -2.7735117567681247e+00 1 -2 -1
915 305 2 4.0999999999999998e-01 -4.7839396439368205e+00 -5.9849595066311743e+00 -5.0417936866779449e+00 1 0 2
913 305 1 -8.1999999999999995e-01 -5.3648889222841856e+00 -6.7955305023311912e+00 -5.1156806982432048e+00 1 0 2
337 113 1 -8.1999999999999995e-01 -1.4190064382300918e+00 -6.9353852425818632e+00 -2.6184976860202092e+00 1 3 -1
1065 355 2 4.0999999999999998e-01 -6.7007293447588765e+00 -6.7528253663221243e+00 -1.5319143317442325e+00 -2 4 0
2398 800 1 -8.1999999999999995e-01 -2.8189672541316799e+00 -1.3420439365344471e+01 -2.2001184913417884e+00 2 1 -2
1966 656 1 -8.1999999999999995e-01 -5.3374076054385586e+00 -1.1628207062144517e+01 -4.6400231370321539e+00 0 4 -1
2181 727 2 4.0999999999999998e-01 -7.1905723867595395e+00 -9.7429636801815978e+00 -3.3800472747760342e+00 2 -1 -1
406 136 1 -8.1999999999999995e-01 -1.6593029155331802e+00 -7.7942047589087968e+00 -6.3447746839771550e+00 -2 4 2
338 113 2 4.0999999999999998e-01 -1.9607158250284993e+00 -7.7295314847582857e+00 -2.8939416973627630e+00 1 3 -1
1064 355 2 4.0999999999999998e-01 -5.2571848956055973e+00 -6.6447903389514629e+00 -2.2876251804473196e+00 -2 4 0
1967 656 2 4.0999999999999998e-01 -5.0638459952023460e+00 -1.0933682883563566e+01 -5.3054455212929028e+00 0 4 -1
1031 344 2 4.0999999999999998e-01 -6.0069553382224861e+00 -1.0624580262558524e+01 -1.9897431779344714e+00 1 3 1
1030 344 1 -8.1999999999999995e-01 -6.9867653913560872e+00 -1.0821283497480337e+01 -2.0253353552901672e+00 1 3 1
2180 727 2 4.0999999999999998e-01 -6.5443070331463691e+00 -8.4702033302797624e+00 -4.1731509010338623e+00 2 -1 -1
551 184 2 4.0999999999999998e-01 -3.6588990319755048e+00 -1.1916772780430083e+01 -4.8436181600696084e+00 1 1 -2
2329 777 1 -8.1999999999999995e-01 -4.4675465093456115e+00 -9.7347809318613159e+00 -1.7482770992128973e+00 5 -4 -4
2585 862 2 4.0999999999999998e-01 -1.0776644239130775e+00 -6.9162214530947246e+00 -9.7041974131724196e-01 -1 3 -4
355 119 1 -8.1999999999999995e-01 -5.4717128006545295e+00 -1.4135523369541490e+01 -1.3189076151914048e+00 -1 1 -3
2331 777 2 4.0999999999999998e-01 -3.5507225621423473e+00 -9.8984108922004630e+00 -2.1124827677487996e+00 5 -4 -4
550 184 1 -8.1999999999999995e-01 -2.8080190184628648e+00 -1.2375743598250070e+01 -5.0992266968822904e+00 1 1 -2
1846 616 1 -8.1999999999999995e-01 -1.9907504820920003e+00 -9.5520967162113557e+00 -2.8633786870986775e+00 1 -2 -1
552 184 2 4.0999999999999998e-01 -2.9367445506497525e+00 -1.2858028343337544e+01 -5.9657241604683993e+00 1 1 -2
1063 355 1 -8.1999999999999995e-01 -5.9367475374202670e+00 -7.2746155085835049e+00 -1.9114582363625363e+00 -2 4 0
914 305 2 4.0999999999999998e-01 -5.0790386915952759e+00 -7.3397072618422126e+00 -5.9044442763073945e+00 1 0 2
2584 862 1 -8.1999999999999995e-01 -8.7934711111155828e-01 -6.6179363526741284e+00 -3.6780069636209944e-02 -1 3 -4
689 230 2 4.0999999999999998e-01 -3.0970999347106787e+00 -1.2879400308683817e+01 -4.8778963909794015e-01 0 -1 1
2586 862 2 4.0999999999999998e-01 -6.8785256350523127e-04 -6.1408378832910469e+00 -1.8845840846310580e-02 -1 3 -4
2317 773 1 -8.1999999999999995e-01 -1.0732150658039073e+01 -1.0671869699742874e+01 2.8177987431598712e+00 -2 0 2
2437 813 1 -8.1999999999999995e-01 -1.2408837584455103e+01 -1.0801526267846445e+01 5.0339168153749032e+00 5 2 1
2318 773 2 4.0999999999999998e-01 -1.1220535560326191e+01 -1.0330367892691758e+01 3.6208201711965398e+00 -2 0 2
2439 813 2 4.0999999999999998e-01 -1.1830692576561303e+01 -1.1409121576979555e+01 5.5784928057448742e+00 5 2 1
1890 630 2 4.0999999999999998e-01 -9.6083692365653661e+00 -9.1257654928361909e+00 2.3046238641518553e+00 3 -1 -1
1515 505 2 4.0999999999999998e-01 -1.1704174746773843e+01 -5.3821040651665726e+00 6.3403493946941527e+00 2 -4 -4
2438 813 2 4.0999999999999998e-01 -1.3326315927309732e+01 -1.0770534858040124e+01 5.4304766493711423e+00 5 2 1
746 249 2 4.0999999999999998e-01 -1.3960224574013630e+01 -1.3411622557798770e+01 2.0678722916694010e+00 2 4 -2
1888 630 1 -8.1999999999999995e-01 -9.4634668340309176e+00 -8.1425298893474682e+00 2.1939996041371135e+00 3 -1 -1
2537 846 2 4.0999999999999998e-01 -1.3295991876213867e+01 -1.3578471877800530e+01 4.7685563204082033e+00 -3 3 0
1889 630 2 4.0999999999999998e-01 -9.8044667437026352e+00 -7.8539429137591759e+00 1.2993357836904860e+00 3 -1 -1
745 249 1 -8.1999999999999995e-01 -1.3480904994840486e+01 -1.3361622807787572e+01 2.9440797320769416e+00 2 4 -2
2536 846 1 -8.1999999999999995e-01 -1.3251590429193881e+01 -1.3713704027518613e+01 5.7583681585224742e+00 -3 3 0
2538 846 2 4.0999999999999998e-01 -1.2326959838126434e+01 -1.3994910161096415e+01 6.0152106543192740e+00 -3 3 0
908 303 2 4.0999999999999998e-01 -1.1763357843820707e+01 -1.0725389305301787e+01 1.4696887678907640e+00 -1 4 -1
19 7 1 -8.1999999999999995e-01 -1.1253049267677296e+01 -6.3076233282995062e+00 7.4876441300868279e-01 0 -1 1
2319 773 2 4.0999999999999998e-01 -9.8081853198299065e+00 -1.0948219660451443e+01 3.0821951010619077e+00 -2 0 2
431 144 2 4.0999999999999998e-01 -8.6015749951816112e+00 -1.0613967875110678e+01 5.0927166762422811e+00 2 0 -1
907 303 1 -8.1999999999999995e-01 -1.2341639269199156e+01 -1.0746815026770449e+01 6.5414095750344181e-01 -1 4 -1
20 7 2 4.0999999999999998e-01 -1.1295536585348769e+01 -5.3085344044515761e+00 7.5047026042467024e-01 0 -1 1
2491 831 1 -8.1999999999999995e-01 -1.4474498319108781e+01 -1.3708202546220829e+01 1.6016492632304313e-01 1 -4 1
266 89 2 4.0999999999999998e-01 -1.3164691105185305e+01 -7.8941385378348548e+00 1.5166002004760504e+00 1 -1 1
2282 761 2 4.0999999999999998e-01 -1.0432691321349655e+01 -6.0493305250658427e+00 2.9194922623101238e+00 1 1 1
1209 403 2 4.0999999999999998e-01 -9.0790560851558233e+00 -7.5311808379515384e+00 3.9923962296060740e+00 -3 -1 2
2281 761 1 -8.1999999999999995e-01 -1.0734305286537111e+01 -5.4260797964376621e+00 3.6410005797265672e+00 1 1 1
747 249 2 4.0999999999999998e-01 -1.2987547839673676e+01 -1.2493945271709062e+01 3.0050805564754288e+00 2 4 -2
267 89 2 4.0999999999999998e-01 -1.3325228685515832e+01 -9.3907552427265699e+00 8.8338843369950482e-01 1 -1 1
2028 676 2 4.0999999999999998e-01 -8.5745090833174018e+00 -9.5496219943423402e+00 7.2341303007052620e+00 5 -1 1
2427 809 2 4.0999999999999998e-01 -1.2086938390078943e+01 -6.7172827127837742e+00 4.9681749558370552e+00 -1 1 2
430 144 1 -8.1999999999999995e-01 -9.1571671404149129e+00 -1.0301171854394154e+01 5.8630819929494589e+00 2 0 -1
2425 809 1 -8.1999999999999995e-01 -1.2814834094302967e+01 -6.7256933221507182e+00 5.6538015180131307e+00 -1 1 2
2426 809 2 4.0999999999999998e-01 -1.3643885066971098e+01 -7.1176039708488936e+00 5.2549691847099158e+00 -1 1 2
1208 403 2 4.0999999999999998e-01 -9.0231180031202900e+00 -8.2957692874841040e+00 5.4342237066635501e+00 -3 -1 2
1207 403 1 -8.1999999999999995e-01 -8.7827246264311665e+00 -7.4576150108199135e+00 4.9446369874494653e+00 -3 -1 2
2578 860 1 -8.1999999999999995e-01 -1.0789073434688088e+01 -1.1909450565611813e+01 7.2700500561773200e+00 1 0 -1