LAMMPS data file via write_data, version 15 May 2015, timestep = 23005000

2611 atoms
6 atom types
1749 bonds
4 bond types
894 angles
3 angle types
44 dihedrals
3 dihedral types
10 impropers
1 improper types

-1.4942487008214451e+01 1.4942487008214451e+01 xlo xhi
-1.4942487008214451e+01 1.4942487008214451e+01 ylo yhi
-1.4942487008214451e+01 1.4942487008214451e+01 zlo zhi

Masses

1 15.9994
2 1.00794
3 12.0107
4 1.00794
5 12.0107
6 12.0107

Bond Coeffs # harmonic

1 1000 1
2 469 1.4
3 367 1.08
4 469 0.7

Angle Coeffs # harmonic

1 100 109.47
2 35 120
3 63 120

Dihedral Coeffs # opls

1 0 7.25 0 0
2 0 7.25 0 0
3 0 7.25 0 0

Improper Coeffs # cvff

1 2.5 -1 2

Atoms # full

1477 493 1 -8.1999999999999995e-01 -8.4358107726751506e+00 -7.6398997129959270e+00 -1.1797886368423617e+01 -1 -2 -6
1479 493 2 4.0999999999999998e-01 -9.3258194953863018e+00 -7.2316927001298268e+00 -1.1594625618218798e+01 -1 -2 -6
2164 722 1 -8.1999999999999995e-01 -1.1803345460416210e+01 -9.2474982318030499e+00 -1.3167777021610428e+01 -6 -1 -3
2166 722 2 4.0999999999999998e-01 -1.1341080501731273e+01 -8.4424120449291635e+00 -1.2796009949512456e+01 -6 -1 -3
1478 493 2 4.0999999999999998e-01 -7.8241421518819800e+00 -7.5115967487141901e+00 -1.1017205075876522e+01 -1 -2 -6
2165 722 2 4.0999999999999998e-01 -1.2571490841974802e+01 -8.9569795074802609e+00 -1.3738403879356918e+01 -6 -1 -3
484 162 1 -8.1999999999999995e-01 -1.1661944728811667e+01 -1.1134332175281960e+01 -1.1063169741836328e+01 -3 -6 7
2247 749 2 4.0999999999999998e-01 -1.0186415530275386e+01 -1.0485023285016343e+01 -8.8470750391778950e+00 1 -5 3
486 162 2 4.0999999999999998e-01 -1.1939082349970240e+01 -1.0557473389322809e+01 -1.1831604563720855e+01 -3 -6 7
2441 814 2 4.0999999999999998e-01 -1.4760760693061895e+01 -1.0750564980575206e+01 -9.5286407487637170e+00 -2 5 5
2408 803 2 4.0999999999999998e-01 -1.3884293780588106e+01 -9.1523549346980175e+00 -8.4675015708779906e+00 -5 -6 8
485 162 2 4.0999999999999998e-01 -1.0694340484714729e+01 -1.0980463007321820e+01 -1.0862846197486164e+01 -3 -6 7
70 24 1 -8.1999999999999995e-01 -1.4142971626496898e+01 -1.3178255355798854e+01 -7.6890884258448917e+00 -5 -4 6
2440 814 1 -8.1999999999999995e-01 -1.4404539590942788e+01 -1.0019994886862728e+01 -1.0111253185305447e+01 -2 5 5
964 322 1 -8.1999999999999995e-01 -1.1785464902629464e+01 -6.6978135560859062e+00 -1.2126508640881244e+01 1 -1 3
966 322 2 4.0999999999999998e-01 -1.2754139423028267e+01 -6.9254631224350884e+00 -1.2026966595863717e+01 1 -1 3
965 322 2 4.0999999999999998e-01 -1.1472110459793061e+01 -6.2105126056978257e+00 -1.1311395098298867e+01 1 -1 3
387 129 2 4.0999999999999998e-01 -1.4421757375745146e+01 -9.0592654050958714e+00 -1.4744435926832800e+01 0 6 7
385 129 1 -8.1999999999999995e-01 -1.3861031205689999e+01 -8.2650868612408495e+00 -1.4510064521444654e+01 0 6 7
2442 814 2 4.0999999999999998e-01 -1.3421893608653397e+01 -1.0149192194802396e+01 -1.0244588500715173e+01 -2 5 5
2449 817 1 -8.1999999999999995e-01 -9.0641276337574226e+00 -1.0372739678626736e+01 -1.0501976056435478e+01 3 3 2
1517 506 2 4.0999999999999998e-01 -9.9001741897593583e+00 -1.3552831827814639e+01 -9.3698149788242659e+00 -2 -3 0
1303 435 1 -8.1999999999999995e-01 -1.2856912555308188e+01 -1.4840676300119105e+01 -1.0976118924351017e+01 -1 2 5
2401 801 1 -8.1999999999999995e-01 -1.0490060562483864e+01 -1.1337369308074669e+01 -1.4366716576380369e+01 -7 -2 8
2451 817 2 4.0999999999999998e-01 -8.3337206062001705e+00 -1.0971868844217685e+01 -1.0830020564345011e+01 3 3 2
1304 435 2 4.0999999999999998e-01 -1.2323755156787064e+01 -1.4369271802371237e+01 -1.0273563277829204e+01 -1 2 5
1516 506 1 -8.1999999999999995e-01 -9.1950344042197898e+00 -1.3921733758559853e+01 -9.9754160820855553e+00 -2 -3 0
1694 565 2 4.0999999999999998e-01 -7.6909495737997258e+00 -6.4269872060423339e+00 -1.4433899502260960e+01 0 -2 3
1721 574 2 4.0999999999999998e-01 -1.2372606085826662e+01 -1.3325705887175520e+01 -8.2044928203994569e+00 2 1 4
997 333 1 -8.1999999999999995e-01 -1.3580672993993065e+01 -1.3498366113586208e+01 -1.3377936556920828e+01 1 -2 -2
998 333 2 4.0999999999999998e-01 -1.3246615950626142e+01 -1.3955069160731266e+01 -1.2553381143001268e+01 1 -2 -2
1591 531 1 -8.1999999999999995e-01 -1.0199292720673411e+01 -5.6107388021281253e+00 -1.0175599729279366e+01 -1 -5 -2
2407 803 1 -8.1999999999999995e-01 -1.3421501742072504e+01 -8.9011860245276573e+00 -7.6173244624378951e+00 -5 -6 8
999 333 2 4.0999999999999998e-01 -1.3872195524692183e+01 -1.2569427333417440e+01 -1.3149571137222912e+01 1 -2 -2
2450 817 2 4.0999999999999998e-01 -8.6732893477285593e+00 -9.4998023884322222e+00 -1.0209932752275673e+01 3 3 2
1305 435 2 4.0999999999999998e-01 -1.3824171149258582e+01 -1.4832023673329877e+01 -1.0722348556488768e+01 -1 2 5
1592 531 2 4.0999999999999998e-01 -1.0170734768657770e+01 -6.0762353275672094e+00 -9.2909750963274593e+00 -1 -5 -2
2403 801 2 4.0999999999999998e-01 -9.9048500056430715e+00 -1.1730009191718549e+01 -1.3657191420570374e+01 -7 -2 8
386 129 2 4.0999999999999998e-01 -1.4439345988659518e+01 -7.4505106916787911e+00 -1.4464446032151132e+01 0 6 7
1720 574 1 -8.1999999999999995e-01 -1.1626066693042256e+01 -1.3862075385565570e+01 -8.5982567656449156e+00 2 1 4
2402 801 2 4.0999999999999998e-01 -1.1080036966025403e+01 -1.0638110240171009e+01 -1.3962949322868603e+01 -7 -2 8
1520 507 2 4.0999999999999998e-01 -1.4007524816875096e+01 -5.3940653397833653e+00 -1.2267075392090318e+01 1 -5 1
1593 531 2 4.0999999999999998e-01 -9.3091755127350559e+00 -5.1949533110174304e+00 -1.0362354183045371e+01 -1 -5 -2
2246 749 2 4.0999999999999998e-01 -1.1430373440281315e+01 -9.6234650788726448e+00 -8.2330053819699920e+00 1 -5 3
1722 574 2 4.0999999999999998e-01 -1.1444569866534124e+01 -1.4656486990682861e+01 -8.0185736707330566e+00 2 1 4
822 274 2 4.0999999999999998e-01 -7.6461601244706303e+00 -1.2915629469994418e+01 -1.0410182377494497e+01 -2 -2 5
1519 507 1 -8.1999999999999995e-01 -1.4491785322776845e+01 -6.2429212703843984e+00 -1.2054946369651711e+01 1 -5 1
2245 749 1 -8.1999999999999995e-01 -1.0767234781861902e+01 -1.0347914003192692e+01 -8.0446328737733328e+00 1 -5 3
1231 411 1 -8.1999999999999995e-01 -1.0581505142232320e+01 -6.4574523918070668e+00 -7.6104085673251536e+00 2 2 6
72 24 2 4.0999999999999998e-01 -1.4725867950986142e+01 -1.2967244764201322e+01 -8.4737984486532021e+00 -5 -4 6
1518 506 2 4.0999999999999998e-01 -9.5718169111598357e+00 -1.4685844482714353e+01 -1.0499088849002874e+01 -2 -3 0
1195 399 1 -8.1999999999999995e-01 -4.6081478003885650e+00 -6.2300067777714503e+00 -1.1219565421079549e+01 -5 -10 3
1695 565 2 4.0999999999999998e-01 -7.4173852136079379e+00 -7.3966372753165048e+00 -1.3148700330539315e+01 0 -2 3
1217 406 2 4.0999999999999998e-01 -4.1780589576289557e+00 -1.1986362601721551e+01 -1.4432371400727025e+01 2 -7 2
1210 404 1 -8.1999999999999995e-01 -5.9696355067075064e+00 -9.5161581373376816e+00 -1.4751494454108737e+01 -2 -5 4
886 296 1 -8.1999999999999995e-01 -1.3036683641905533e-01 -5.4296852836188201e+00 -8.7401836819566725e+00 1 -2 -2
1197 399 2 4.0999999999999998e-01 -4.4625225482496766e+00 -6.4166208114349637e+00 -1.2191178475784104e+01 -5 -10 3
1002 334 2 4.0999999999999998e-01 -4.1934145539434518e+00 -1.4313121543290075e+01 -9.2201815803953586e+00 8 -1 1
948 316 2 4.0999999999999998e-01 -4.5595892198375640e+00 -1.0557799208550019e+01 -7.6831769047699066e+00 -1 -3 3
1211 404 2 4.0999999999999998e-01 -6.2753419569454181e+00 -8.5844998443756673e+00 -1.4554975907876912e+01 -2 -5 4
1032 344 2 4.0999999999999998e-01 -4.3910314364987713e-02 -1.1254986977012447e+01 -9.1157852484778665e+00 1 1 -2
1216 406 1 -8.1999999999999995e-01 -3.9010804575334905e+00 -1.1075537929586082e+01 -1.4126193843659401e+01 2 -7 2
4 2 1 -8.1999999999999995e-01 -5.8873845222578503e-01 -1.0753589548752219e+01 -1.4779371668376298e+01 -2 -1 -3
1001 334 2 4.0999999999999998e-01 -3.9801571334250987e+00 -1.3511298037020861e+01 -1.0626736166663015e+01 8 -1 1
947 316 2 4.0999999999999998e-01 -3.0357481155214856e+00 -9.9745152047301247e+00 -7.7501372884548063e+00 -1 -3 3
500 167 2 4.0999999999999998e-01 -2.7554822235986798e+00 -1.1550278913629517e+01 -1.2190811039678726e+01 1 -3 2
2323 775 1 -8.1999999999999995e-01 -1.8190810268049393e+00 -5.3069317911112073e+00 -1.3233664686401985e+01 -3 4 -3
1693 565 1 -8.1999999999999995e-01 -7.0073274782819617e+00 -6.9838141878933291e+00 -1.3962022598106552e+01 0 -2 3
1688 563 2 4.0999999999999998e-01 -5.1130264884900765e+00 -1.0082965605861567e+01 -1.1565083409319371e+01 3 6 4
1687 563 1 -8.1999999999999995e-01 -5.9238195098552300e+00 -9.5005842323127290e+00 -1.1624328781590805e+01 3 6 4
907 303 1 -8.1999999999999995e-01 -4.2814335561442256e+00 -5.8773097611740237e+00 -1.4189990967122807e+01 0 1 0
2324 775 2 4.0999999999999998e-01 -2.6611450674769568e+00 -5.5993509069021936e+00 -1.3686966541290889e+01 -3 4 -3
2392 798 1 -8.1999999999999995e-01 -5.1928792592696560e-01 -1.3940035843241709e+01 -1.1829006887828099e+01 -8 -3 10
1689 563 2 4.0999999999999998e-01 -6.2529251647541972e+00 -9.4824497945216493e+00 -1.2568481289997289e+01 3 6 4
2170 724 1 -8.1999999999999995e-01 -2.4661097221688451e+00 -8.7073739841625475e+00 -1.3969125742745184e+01 -4 1 3
35 12 2 4.0999999999999998e-01 -9.9563341837862573e-01 -1.4098617563735539e+01 -1.4775778643250391e+01 -2 6 0
1218 406 2 4.0999999999999998e-01 -4.4575560535037102e+00 -1.0385001271326814e+01 -1.4588316624535851e+01 2 -7 2
1801 601 1 -8.1999999999999995e-01 -4.7920577141879797e+00 -6.9922417178044141e+00 -8.6365181627948235e+00 4 0 -3
34 12 1 -8.1999999999999995e-01 -1.7533978134815875e-01 -1.3648290272751431e+01 -1.4423093172821405e+01 -2 6 0
1025 342 2 4.0999999999999998e-01 -6.4662533630365076e+00 -1.1617490864724314e+01 -9.0585266982546955e+00 -2 -1 -1
1024 342 1 -8.1999999999999995e-01 -6.2235466134273949e+00 -1.0876804552431180e+01 -8.4319960547874135e+00 -2 -1 -1
820 274 1 -8.1999999999999995e-01 -6.7779663361691664e+00 -1.2485576436343996e+01 -1.0657886091071816e+01 -2 -2 5
6 2 2 4.0999999999999998e-01 -1.4665905054394575e+00 -1.0466804906897359e+01 -1.4395713304306534e+01 -2 -1 -3
2394 798 2 4.0999999999999998e-01 -1.0585468228963304e+00 -1.4691766403089497e+01 -1.1449317036839137e+01 -8 -3 10
1026 342 2 4.0999999999999998e-01 -6.4858851998205811e+00 -9.9999540164920013e+00 -8.8349539249970128e+00 -2 -1 -1
1802 601 2 4.0999999999999998e-01 -3.9383993496844987e+00 -7.5019791914930218e+00 -8.5292868569720248e+00 4 0 -3
1031 344 2 4.0999999999999998e-01 -1.4757616290081543e+00 -1.1328847501073321e+01 -9.8975409553440450e+00 1 1 -2
2125 709 1 -8.1999999999999995e-01 -7.0172672208103526e+00 -8.3828863002137552e+00 -9.5563863048131115e+00 -4 -6 4
2126 709 2 4.0999999999999998e-01 -6.6070952546892574e+00 -8.8534095761658484e+00 -1.0337686654815904e+01 -4 -6 4
908 303 2 4.0999999999999998e-01 -5.0844267722281664e+00 -6.4724152569772304e+00 -1.4223378833806173e+01 0 1 0
2393 798 2 4.0999999999999998e-01 -4.0002082849560949e-01 -1.4078750463070559e+01 -1.2812163536238305e+01 -8 -3 10
888 296 2 4.0999999999999998e-01 -5.7045221434306193e-01 -6.3053309129921811e+00 -8.9392640752405939e+00 1 -2 -2
1287 429 2 4.0999999999999998e-01 -1.7628684321299755e+00 -7.9113914872929429e+00 -1.2346252456098739e+01 3 1 7
36 12 2 4.0999999999999998e-01 -1.8341425111541376e-01 -1.2684509746774484e+01 -1.4689786477320736e+01 -2 6 0
1000 334 1 -8.1999999999999995e-01 -4.6163509499652591e+00 -1.4068117983786969e+01 -1.0092627188205348e+01 8 -1 1
499 167 1 -8.1999999999999995e-01 -2.5497099071914775e+00 -1.2051809277265599e+01 -1.1350460860687907e+01 1 -3 2
1030 344 1 -8.1999999999999995e-01 -1.0096053084675471e+00 -1.0998105364731106e+01 -9.0769488878837272e+00 1 1 -2
2172 724 2 4.0999999999999998e-01 -2.9931376306383211e+00 -9.5334971470522856e+00 -1.3769562569976831e+01 -4 1 3
460 154 1 -8.1999999999999995e-01 -2.6298379947405603e+00 -8.6798644886259808e+00 -9.0455127440965075e+00 -1 -2 0
821 274 2 4.0999999999999998e-01 -6.0620281210411271e+00 -1.3182272988863856e+01 -1.0703818994408458e+01 -2 -2 5
462 154 2 4.0999999999999998e-01 -1.9928365861673676e+00 -9.4502868644753288e+00 -9.0727529859328619e+00 -1 -2 0
1285 429 1 -8.1999999999999995e-01 -1.7616615562758859e+00 -7.6512325490504152e+00 -1.1380654546723163e+01 3 1 7
501 167 2 4.0999999999999998e-01 -2.0323717983246858e+00 -1.2878032027370068e+01 -1.1573576580546939e+01 1 -3 2
1803 601 2 4.0999999999999998e-01 -4.9626696013854055e+00 -6.8284363085423436e+00 -9.6081779979086850e+00 4 0 -3
2171 724 2 4.0999999999999998e-01 -2.7435747585445398e+00 -8.3414702930348099e+00 -1.4857489938066136e+01 -4 1 3
2127 709 2 4.0999999999999998e-01 -6.3060876894245776e+00 -7.8949018042595487e+00 -9.0502656958197427e+00 -4 -6 4
1286 429 2 4.0999999999999998e-01 -2.1199947943412045e+00 -6.7224948445985167e+00 -1.1285224129472438e+01 3 1 7
461 154 2 4.0999999999999998e-01 -2.6000850357861847e+00 -8.1917568539897232e+00 -9.9178252847457564e+00 -1 -2 0
1196 399 2 4.0999999999999998e-01 -4.6779013287608695e+00 -5.2427121238381229e+00 -1.1076572814151504e+01 -5 -10 3
1035 345 2 4.0999999999999998e-01 -1.3549210018458524e-01 -8.3092064013910143e+00 -1.1364869354538023e+01 -8 0 -1
1227 409 2 4.0999999999999998e-01 -3.0414655701580102e+00 -1.4557258046446481e+01 -7.6816343761961763e+00 -1 0 3
2325 775 2 4.0999999999999998e-01 -1.1198281998845765e+00 -5.1136380315369276e+00 -1.3921957033825791e+01 -3 4 -3
502 168 1 -8.1999999999999995e-01 -1.2009898423254079e+01 -8.5728132744986638e+00 -4.3757650501067946e+00 -5 -3 -3
1241 414 2 4.0999999999999998e-01 -1.1108084252639426e+01 -9.9965798936420533e+00 -4.9100535729492965e+00 -4 -2 2
1240 414 1 -8.1999999999999995e-01 -1.0666715812104718e+01 -1.0749263830732861e+01 -5.3986475911635754e+00 -4 -2 2
1242 414 2 4.0999999999999998e-01 -1.0693444882715502e+01 -1.0569457348602857e+01 -6.3820186366278495e+00 -4 -2 2
705 235 2 4.0999999999999998e-01 -1.0514807001461076e+01 -1.2532363105264926e+01 -5.3600350931088094e+00 5 -4 1
103 35 1 -8.1999999999999995e-01 -1.3818574271457459e+01 -1.1867938726948513e+01 -3.7300157147579469e+00 2 -1 1
107 36 2 4.0999999999999998e-01 -8.8747257003731210e+00 -1.1681438737093854e+01 -3.0549391652320086e+00 -6 -5 -4
703 235 1 -8.1999999999999995e-01 -1.0514637504870091e+01 -1.3483053841022755e+01 -5.0497923413293826e+00 5 -4 1
2025 675 2 4.0999999999999998e-01 -1.1588789238235572e+01 -1.4821584541481673e+01 -2.0037230377491557e+00 2 5 -2
704 235 2 4.0999999999999998e-01 -1.1435307658411634e+01 -1.3863066527293302e+01 -5.1393484230884319e+00 5 -4 1
504 168 2 4.0999999999999998e-01 -1.1785165615740809e+01 -7.9618337228972980e+00 -3.6166454693438332e+00 -5 -3 -3
106 36 1 -8.1999999999999995e-01 -8.4670396233487111e+00 -1.1971461903868116e+01 -3.9208155416369781e+00 -6 -5 -4
1232 411 2 4.0999999999999998e-01 -1.0999897293483588e+01 -5.6421544812345150e+00 -7.2100328323058847e+00 2 2 6
1928 643 2 4.0999999999999998e-01 -1.0725357247959519e+01 -1.0105743714089815e+01 -9.5349260744607456e-01 -3 -1 4
1927 643 1 -8.1999999999999995e-01 -1.0527745552910563e+01 -9.1655771761969422e+00 -6.7582383878140462e-01 -3 -1 4
1929 643 2 4.0999999999999998e-01 -1.0779355292246741e+01 -8.5400237257746028e+00 -1.4143621557380204e+00 -3 -1 4
1939 647 1 -8.1999999999999995e-01 -1.0634507771355059e+01 -1.1728097371160638e+01 -1.5833146114431411e+00 -5 -3 5
1941 647 2 4.0999999999999998e-01 -1.0877410539396031e+01 -1.2585501143646550e+01 -2.0370991766208206e+00 -5 -3 5
2024 675 2 4.0999999999999998e-01 -1.2765887323840715e+01 -1.4267799726560549e+01 -2.9909201271473709e+00 2 5 -2
496 166 1 -8.1999999999999995e-01 -1.0993350261290978e+01 -6.8921747136636711e+00 -2.5316596386650545e+00 1 -8 3
1940 647 2 4.0999999999999998e-01 -1.0228262792102672e+01 -1.1926508795417837e+01 -6.9131619044375192e-01 -5 -3 5
105 35 2 4.0999999999999998e-01 -1.2891477741876781e+01 -1.2052422319699435e+01 -3.4036397786238890e+00 2 -1 1
108 36 2 4.0999999999999998e-01 -9.0959470272640246e+00 -1.2587125989945118e+01 -4.3956803644630025e+00 -6 -5 -4
2023 675 1 -8.1999999999999995e-01 -1.2101942396554133e+01 -1.4011792232709007e+01 -2.2882817865307583e+00 2 5 -2
498 166 2 4.0999999999999998e-01 -1.0446597676907306e+01 -6.3832971838296668e+00 -3.1966172670231039e+00 1 -8 3
38 13 2 4.0999999999999998e-01 -8.7753520800703964e+00 -6.4301148551369049e+00 -4.6327089594413220e+00 4 -4 -3
37 13 1 -8.1999999999999995e-01 -8.8266393588238756e+00 -5.6455301473673583e+00 -4.0147608467124076e+00 4 -4 -3
263 88 2 4.0999999999999998e-01 -8.4663203248008578e+00 -1.0261824688133014e+01 -5.4633675370353316e+00 -5 1 -2
497 166 2 4.0999999999999998e-01 -1.0804202503382903e+01 -6.5484478229302070e+00 -1.6118019181035219e+00 1 -8 3
503 168 2 4.0999999999999998e-01 -1.2938545011917984e+01 -8.3816689472960526e+00 -4.6937944835174683e+00 -5 -3 -3
104 35 2 4.0999999999999998e-01 -1.4348123116231218e+01 -1.1433361297850690e+01 -3.0014665392467581e+00 2 -1 1
1872 624 2 4.0999999999999998e-01 -1.3726728275507277e+01 -1.3960834623233358e+01 -5.9278004869410257e+00 -2 -3 8
71 24 2 4.0999999999999998e-01 -1.4199874913392149e+01 -1.2435207992464285e+01 -7.0222255708288408e+00 -5 -4 6
2018 673 2 4.0999999999999998e-01 -9.2483544877103050e+00 -1.4739876408546724e+01 -5.0226723118232677e+00 -2 -2 -2
39 13 2 4.0999999999999998e-01 -7.9459514836285079e+00 -5.5236996164686953e+00 -3.5569294232515620e+00 4 -4 -3
2409 803 2 4.0999999999999998e-01 -1.3672399083568717e+01 -9.5484179716455486e+00 -6.8974600932758587e+00 -5 -6 8
1509 503 2 4.0999999999999998e-01 -1.3577180505363916e+01 -5.1178097376854552e+00 -4.6486197332114028e+00 2 0 2
262 88 1 -8.1999999999999995e-01 -7.7603312211556519e+00 -9.8437908751775893e+00 -6.0351109603433244e+00 -5 1 -2
665 222 2 4.0999999999999998e-01 -8.9797367837270290e+00 -6.9833043428477275e+00 -6.5972294862308196e+00 0 -3 5
1313 438 2 4.0999999999999998e-01 -1.4625527030819343e+01 -9.7304004411967391e+00 -2.0804673483139062e+00 -1 0 2
666 222 2 4.0999999999999998e-01 -7.7721656307425695e+00 -8.0624659165649746e+00 -6.3875215468251234e+00 0 -3 5
2231 744 2 4.0999999999999998e-01 -1.4262849381999853e+01 -1.1216529699107733e+01 -5.2634901468934494e+00 0 -1 -1
664 222 1 -8.1999999999999995e-01 -8.0323607854488284e+00 -7.1009079271544255e+00 -6.2993849732184053e+00 0 -3 5
967 323 1 -8.1999999999999995e-01 -1.4523710229066610e+01 -1.2646257643248365e+01 -1.5503601946442913e-01 0 1 -2
1867 623 1 -8.1999999999999995e-01 -1.4677364849400856e+01 -7.8122284266924309e+00 -4.5003612080878259e+00 2 -5 3
969 323 2 4.0999999999999998e-01 -1.4555170143658659e+01 -1.1658577852466411e+01 -1.5358177807609508e-03 0 1 -2
1870 624 1 -8.1999999999999995e-01 -1.3024350459322465e+01 -1.4448212237749948e+01 -5.4089634303701395e+00 -2 -3 8
264 88 2 4.0999999999999998e-01 -7.7236557305667182e+00 -1.0314241385915791e+01 -6.9168107903482099e+00 -5 1 -2
2230 744 1 -8.1999999999999995e-01 -1.4505891416301839e+01 -1.1082786161066327e+01 -6.2242745469804586e+00 0 -1 -1
1233 411 2 4.0999999999999998e-01 -1.1047695835202632e+01 -7.2734396382280524e+00 -7.2685102196743898e+00 2 2 6
968 323 2 4.0999999999999998e-01 -1.3576562768847367e+01 -1.2930406984703968e+01 -3.0414720902575176e-01 0 1 -2
2349 783 2 4.0999999999999998e-01 -3.2328561195026602e+00 -1.4331038871859946e+01 -2.3917714610185090e+00 1 1 1
1677 559 2 4.0999999999999998e-01 -6.6907428711238097e+00 -1.1734474122844865e+01 -3.9191983320489534e+00 -2 0 -3
564 188 2 4.0999999999999998e-01 -8.4876074365617526e-01 -1.3831798405051844e+01 -3.5462424172895091e+00 2 -2 -1
113 38 2 4.0999999999999998e-01 -5.7647516163319086e+00 -1.0938322289062695e+01 -6.0106966103252191e-01 3 -1 -1
2578 860 1 -8.1999999999999995e-01 -7.5108973788758249e-01 -1.0909231426651225e+01 -6.1414228643273283e+00 -1 -3 0
114 38 2 4.0999999999999998e-01 -5.3651476318843052e+00 -1.1467965195474578e+01 -2.0932461481140177e+00 3 -1 -1
946 316 1 -8.1999999999999995e-01 -3.6910387722500815e+00 -1.0484608358624579e+01 -7.1929456747168317e+00 -1 -3 3
112 38 1 -8.1999999999999995e-01 -5.0090894721710502e+00 -1.1220856270283001e+01 -1.1920118848871031e+00 3 -1 -1
194 65 2 4.0999999999999998e-01 -6.7285044583088709e+00 -6.0604039037036053e+00 -6.0484333760918041e+00 4 -6 3
1538 513 2 4.0999999999999998e-01 -5.2869039257086108e+00 -9.3941843570504737e+00 -4.0682940972532400e+00 -2 -2 3
193 65 1 -8.1999999999999995e-01 -5.9529878971057304e+00 -5.4686248187560249e+00 -6.2685130153304911e+00 4 -6 3
15 5 2 4.0999999999999998e-01 -6.6419569072927978e+00 -8.8692358063605070e+00 -4.9517138971296681e-01 1 2 6
586 196 1 -8.1999999999999995e-01 -8.2548607606097413e-01 -8.5606170567572697e+00 -2.7180457120832955e+00 -1 -3 6
2579 860 2 4.0999999999999998e-01 -9.4028200939807505e-01 -1.0732192763211927e+01 -7.1073043208021129e+00 -1 -3 0
539 180 2 4.0999999999999998e-01 -1.8235975920421268e+00 -7.4438696496602290e+00 -1.5386196987036271e+00 1 -4 7
587 196 2 4.0999999999999998e-01 -1.0288711123414807e+00 -9.4766043308179189e+00 -2.3721191221451647e+00 -1 -3 6
562 188 1 -8.1999999999999995e-01 -8.2990023674502922e-02 -1.3328761320424046e+01 -3.1454778415798152e+00 2 -2 -1
1539 513 2 4.0999999999999998e-01 -6.8109836513912967e+00 -9.4277728596422943e+00 -4.6538266626885303e+00 -2 -2 3
1676 559 2 4.0999999999999998e-01 -5.5837608242159984e+00 -1.2808319191509240e+01 -3.3823155214752259e+00 -2 0 -3
988 330 1 -8.1999999999999995e-01 -6.3456773617442064e+00 -5.9534046013802921e+00 -2.6518526886530971e+00 -1 -1 0
14 5 2 4.0999999999999998e-01 -6.8189056680053639e+00 -8.4856458476439567e+00 -2.0726196747632208e+00 1 2 6
588 196 2 4.0999999999999998e-01 -3.7463964314047260e-01 -8.6328190744880668e+00 -3.6077578833663519e+00 -1 -3 6
1771 591 1 -8.1999999999999995e-01 -1.4030468760766848e+00 -1.0947448915550398e+01 -1.9874001985619589e+00 -1 -1 4
989 330 2 4.0999999999999998e-01 -5.4814124886504683e+00 -6.1121337655376262e+00 -3.1292568414725004e+00 -1 -1 0
217 73 1 -8.1999999999999995e-01 -3.8670296463845730e+00 -1.3280253831135457e+01 -6.6256355347490459e+00 -3 1 -2
538 180 1 -8.1999999999999995e-01 -2.7650983447890862e+00 -7.2756542268613087e+00 -1.2464839057626556e+00 1 -4 7
1537 513 1 -8.1999999999999995e-01 -6.2451545876978720e+00 -9.1952950135807541e+00 -3.8627167174079808e+00 -2 -2 3
990 330 2 4.0999999999999998e-01 -6.5044323710285781e+00 -6.6912083085544349e+00 -1.9957231874936312e+00 -1 -1 0
1661 554 2 4.0999999999999998e-01 -2.8738941142621748e+00 -1.3510527959333896e+01 -5.9418839375763000e-01 0 -5 4
2050 684 1 -8.1999999999999995e-01 -2.7035602331725919e+00 -1.4302900354445356e+01 -4.2070894346918823e+00 -2 -4 1
1772 591 2 4.0999999999999998e-01 -7.1041845754965571e-01 -1.1581918147231207e+01 -2.3305881484615512e+00 -1 -1 4
2347 783 1 -8.1999999999999995e-01 -3.2701092975661616e+00 -1.4720485584920040e+01 -1.4714417183518123e+00 1 1 1
1943 648 2 4.0999999999999998e-01 -2.8103624697294318e+00 -9.5253673649457760e+00 -4.2567557180014735e+00 0 -1 6
1675 559 1 -8.1999999999999995e-01 -5.7146471112297110e+00 -1.1947099108980000e+01 -3.8734694350320247e+00 -2 0 -3
13 5 1 -8.1999999999999995e-01 -6.7987734864573657e+00 -8.1221639720071330e+00 -1.1412019835724188e+00 1 2 6
2052 684 2 4.0999999999999998e-01 -3.1287112588435466e+00 -1.3772967404440756e+01 -4.9409021627176788e+00 -2 -4 1
219 73 2 4.0999999999999998e-01 -4.8621692534453480e+00 -1.3301366712438268e+01 -6.5291220289335214e+00 -3 1 -2
540 180 2 4.0999999999999998e-01 -3.3670843350719739e+00 -7.2765582730163709e+00 -2.0450297551909529e+00 1 -4 7
1942 648 1 -8.1999999999999995e-01 -3.5605961321632211e+00 -9.0732348374048470e+00 -4.7392378865957383e+00 0 -1 6
320 107 2 4.0999999999999998e-01 -6.4370905315752154e+00 -1.2559851164650549e+01 -6.0407401046278224e+00 6 -8 6
76 26 1 -8.1999999999999995e-01 -5.8077903136388933e+00 -1.4404797453200873e+01 -2.1531033169363134e+00 2 -4 -2
659 220 2 4.0999999999999998e-01 -3.7679256408657693e+00 -5.8089004325024014e+00 -4.5677371848294879e+00 -6 -2 3
660 220 2 4.0999999999999998e-01 -3.6970273178198649e+00 -7.3195165505198272e+00 -3.9514515173944389e+00 -6 -2 3
658 220 1 -8.1999999999999995e-01 -3.8201534809788686e+00 -6.3521699751089873e+00 -3.7297670837995014e+00 -6 -2 3
218 73 2 4.0999999999999998e-01 -3.5544493760463673e+00 -1.2330608521821915e+01 -6.6486748472147266e+00 -3 1 -2
2580 860 2 4.0999999999999998e-01 -2.6891779016167128e-01 -1.0126754448663815e+01 -5.7473373453392789e+00 -1 -3 0
321 107 2 4.0999999999999998e-01 -6.4754635713295503e+00 -1.4034906539959522e+01 -5.3410726958691512e+00 6 -8 6
1944 648 2 4.0999999999999998e-01 -3.5746980455721271e+00 -9.3762610377850955e+00 -5.6921490604317562e+00 0 -1 6
319 107 1 -8.1999999999999995e-01 -6.3984097166923739e+00 -1.3544804910256847e+01 -6.2093620072201521e+00 6 -8 6
1773 591 2 4.0999999999999998e-01 -1.9733295680790341e+00 -1.1411347838724785e+01 -1.3094336470040258e+00 -1 -1 4
78 26 2 4.0999999999999998e-01 -5.0285158161102927e+00 -1.4460105106670406e+01 -1.5288152482716413e+00 2 -4 -2
195 65 2 4.0999999999999998e-01 -5.4376281801950359e+00 -5.8635757830760475e+00 -7.0290927047501608e+00 4 -6 3
1660 554 1 -8.1999999999999995e-01 -2.7465594251659518e+00 -1.2610345686019082e+01 -1.7762968702586157e-01 0 -5 4
1662 554 2 4.0999999999999998e-01 -3.6318388964195236e+00 -1.2152337729232432e+01 -9.6559359618426654e-02 0 -5 4
1718 573 2 4.0999999999999998e-01 -6.9547366828509798e+00 -1.4840546841648946e+01 -7.4363211420487572e+00 -6 -1 1
2161 721 1 -8.1999999999999995e-01 -5.2317189014393861e-02 -5.0073308776366332e+00 -3.8367215023721197e+00 -2 -1 3
1265 422 2 4.0999999999999998e-01 -3.8733284216572734e+00 -1.0246766379242942e+01 -9.9320685499280970e-02 -5 0 6
1084 362 1 -8.1999999999999995e-01 -1.1110170789741160e+01 -9.1555112845295490e+00 1.9574599582374308e+00 -6 -3 4
1085 362 2 4.0999999999999998e-01 -1.0799184507588315e+01 -9.3106391112622831e+00 1.0197573983307411e+00 -6 -3 4
197 66 2 4.0999999999999998e-01 -1.4063237709894082e+01 -7.0424699310083687e+00 5.7526965432915933e+00 1 1 0
2254 752 1 -8.1999999999999995e-01 -9.5164012044945423e+00 -1.2309590051097178e+01 7.5574891992711279e-01 3 3 -1
2255 752 2 4.0999999999999998e-01 -1.0271232169200964e+01 -1.2899035423007007e+01 1.0435819072353176e+00 3 3 -1
2330 777 2 4.0999999999999998e-01 -1.0672984769092766e+01 -1.1131498839091648e+01 6.3939452368098895e+00 2 -8 -1
1086 362 2 4.0999999999999998e-01 -1.1112598534932637e+01 -1.0022647687235198e+01 2.4555883229111739e+00 -6 -3 4
912 304 2 4.0999999999999998e-01 -9.2840879138375563e+00 -6.7323680996989168e+00 2.3538523109891560e+00 0 2 4
910 304 1 -8.1999999999999995e-01 -1.0135782671052620e+01 -6.8062837675164491e+00 2.8727125013239121e+00 0 2 4
911 304 2 4.0999999999999998e-01 -1.0673998333027768e+01 -7.5729110977784035e+00 2.5224699587854911e+00 0 2 4
2561 854 2 4.0999999999999998e-01 -9.3444396412154838e+00 -6.9805673092123346e+00 6.0159808191965833e+00 1 -3 2
1981 661 1 -8.1999999999999995e-01 -8.6734603509530928e+00 -5.2351347612871368e+00 6.9995148399248723e+00 -6 -2 0
1585 529 1 -8.1999999999999995e-01 -1.1676309694095359e+01 -1.1695019104135380e+01 3.1310430770025466e+00 -1 3 0
1587 529 2 4.0999999999999998e-01 -1.2660829208467460e+01 -1.1521855542118653e+01 3.1027739893133219e+00 -1 3 0
1531 511 1 -8.1999999999999995e-01 -1.1600128808608297e+01 -1.3916454049038878e+01 1.2195446167419828e+00 -2 -2 -2
288 96 2 4.0999999999999998e-01 -1.2854280795297765e+01 -6.4214946141952076e+00 1.2862535234418235e+00 0 -4 2
713 238 2 4.0999999999999998e-01 -1.0470252268532263e+01 -5.1610120861323558e+00 3.7087909031538988e+00 -6 0 1
286 96 1 -8.1999999999999995e-01 -1.3066126995347616e+01 -7.2470877525779542e+00 1.8093028343550603e+00 0 -4 2
1586 529 2 4.0999999999999998e-01 -1.1395825541900679e+01 -1.1871258800898115e+01 4.0746169259086837e+00 -1 3 0
1533 511 2 4.0999999999999998e-01 -1.1815813699008277e+01 -1.3313042574685513e+01 1.9872932733139752e+00 -2 -2 -2
287 96 2 4.0999999999999998e-01 -1.2293466915068098e+01 -7.8800727928380860e+00 1.7604191912323675e+00 0 -4 2
2397 799 2 4.0999999999999998e-01 -7.9179418371598791e+00 -5.4415555368238504e+00 1.8302305558550298e+00 10 4 1
2546 849 2 4.0999999999999998e-01 -1.4461433501220423e+01 -8.0248798319274854e+00 2.7211842244816555e+00 -4 -3 3
198 66 2 4.0999999999999998e-01 -1.4781348896974730e+01 -5.5867397967927239e+00 5.5739180648411324e+00 1 1 0
1532 511 2 4.0999999999999998e-01 -1.1778507303305219e+01 -1.4865115379229065e+01 1.4808609015878407e+00 -2 -2 -2
1770 590 2 4.0999999999999998e-01 -9.2028368719631484e+00 -7.3583306532265755e+00 3.6024237543072957e-01 1 -2 -1
2562 854 2 4.0999999999999998e-01 -1.0387426519609100e+01 -7.2433560932636976e+00 4.7871944541201277e+00 1 -3 2
2256 752 2 4.0999999999999998e-01 -8.6619648350303962e+00 -1.2644088320505809e+01 1.1533829814780265e+00 3 3 -1
2560 854 1 -8.1999999999999995e-01 -1.0201487169224640e+01 -7.4237589088660245e+00 5.7530851192242611e+00 1 -3 2
745 249 1 -8.1999999999999995e-01 -1.2640681638840165e+01 -8.5411529036365508e+00 6.2112686026158901e+00 -1 1 0
2054 685 2 4.0999999999999998e-01 -8.3177651936333454e+00 -1.0032565016812299e+01 6.3739670845855851e+00 -2 -5 -1
2329 777 1 -8.1999999999999995e-01 -1.1221827579974295e+01 -1.1897207657648440e+01 6.0584978029280716e+00 2 -8 -1
474 158 2 4.0999999999999998e-01 -1.4319125616363554e+01 -6.2795841584094720e+00 7.8989002318447810e-01 -8 2 3
1919 640 2 4.0999999999999998e-01 -9.9663152491671525e+00 -1.3074186602075127e+01 6.2749335165982547e+00 -2 -3 0
2055 685 2 4.0999999999999998e-01 -9.6227422387231307e+00 -9.0673406248422967e+00 6.5533322197074302e+00 -2 -5 -1
746 249 2 4.0999999999999998e-01 -1.1757282269907058e+01 -8.0735343723791679e+00 6.1796163813083513e+00 -1 1 0
2088 696 2 4.0999999999999998e-01 -7.9929469229016838e+00 -1.0725177049537521e+01 3.5377832689123956e-01 -4 3 5
2053 685 1 -8.1999999999999995e-01 -9.2718187293063252e+00 -9.9962919992627572e+00 6.6715062633844848e+00 -2 -5 -1
623 208 2 4.0999999999999998e-01 -1.4294252354355754e+01 -1.0881150338700525e+01 7.1471334553322006e+00 -1 -2 5