2611
Atoms. Timestep: 23000000
O -13.6768 -2.53118 -5.13587
H -13.0421 -1.89451 -5.57382
H -13.7578 -3.3574 -5.69336
O -0.973236 -10.4313 -13.6926
H -1.17868 -9.93077 -14.5336
H -1.80495 -10.5169 -13.144
O -10.6133 5.55777 10.5193
H -10.6905 4.66896 10.0676
H -11.4453 5.7384 11.0439
O -4.99163 -12.6289 1.76391
H -4.57898 -12.0522 2.46896
H -5.95986 -12.3977 1.66869
O -8.08536 -6.45497 -1.36249
H -7.82489 -6.48944 -2.32736
H -8.2798 -7.38012 -1.03648
O 5.92934 -1.23958 0.465776
H 6.29425 -2.1399 0.228587
H 6.20292 -0.575232 -0.22977
O 8.87901 3.62432 -7.7798
H 8.87202 4.27345 -7.01916
H 9.69899 3.05463 -7.72428
O -14.744 -5.69744 13.4498
H -14.1609 -5.80086 12.644
H -14.3317 -6.17841 14.2235
O -14.0503 8.67744 4.55968
H -14.6079 8.75377 5.38631
H -14.6159 8.8681 3.75736
O 5.87903 -14.4894 -3.05695
H 5.11685 -14.0329 -3.51589
H 5.76828 -14.4087 -2.06639
O -3.88567 -4.1785 7.57291
H -3.62652 -5.14417 7.59125
H -3.23022 -3.64725 8.10971
O 0.936315 -13.4087 -14.6078
H 0.452551 -14.029 14.5142
H 0.725297 -12.4625 -14.8533
O -10.3996 -5.67543 -4.95937
H -9.40793 -5.67995 -4.83058
H -10.6136 -5.37466 -5.88873
O 14.5037 2.4697 -5.20278
H 14.3966 3.45626 -5.32619
H -14.3445 2.28016 -4.79065
O -3.80448 -10.4934 3.19597
H -3.34101 -10.3873 4.07569
H -4.29771 -9.65195 2.9754
O -0.484323 -2.77578 -12.1937
H -0.873614 -3.68255 -12.3556
H -0.55113 -2.55316 -11.2211
O -5.29783 7.30081 7.30213
H -5.26025 6.31029 7.17001
H -6.14504 7.65766 6.90859
O 14.1969 8.50143 6.97213
H 13.4994 7.85133 7.27362
H 14.3825 9.15521 7.7057
O 5.27065 -4.21346 -9.71209
H 5.26701 -4.49585 -8.75281
H 5.48971 -4.99951 -10.2901
O 1.36758 0.629013 13.2302
H 1.19831 1.39277 12.6073
H 0.503022 0.17274 13.4408
O 14.852 11.8896 -3.92509
H -14.283 11.3466 -4.50807
H 14.4279 12.6144 -4.46807
O 2.36873 4.31738 -13.4001
H 1.65048 4.93722 -13.7162
H 2.00927 3.38523 -13.3568
O 6.71623 8.89195 8.68625
H 7.49169 9.31013 9.1593
H 6.2729 8.23148 9.29225
O -10.9488 -12.4913 -8.24824
H -10.9485 -11.626 -8.74938
H -11.7699 -12.5472 -7.68021
O 4.63012 8.45546 -4.00446
H 4.8716 8.8097 -4.9079
H 3.66191 8.63043 -3.82572
O -6.10584 14.205 -1.09319
H -6.00092 -14.556 -1.27169
H -7.07836 13.9783 -1.04004
O 4.90969 8.00405 4.40653
H 4.16173 8.51682 4.82799
H 5.64242 7.87383 5.07448
O -2.19847 11.1356 -14.866
H -2.10803 10.1539 14.7055
H -2.74713 11.5489 14.1466
O 8.50262 7.74902 13.1114
H 8.52583 7.06571 13.8411
H 7.57424 8.10972 13.0219
O -5.8178 -8.83165 10.2111
H -5.60726 -9.80782 10.2637
H -6.50175 -8.60042 10.903
O -13.3164 7.4992 8.06414
H -13.4225 7.52986 9.05803
H -14.1433 7.85608 7.62951
O 7.2284 -8.02731 -5.234
H 6.70281 -8.49636 -4.52426
H 7.02526 -7.04853 -5.2072
O 11.9844 3.36785 -14.0163
H 12.6562 3.4215 -14.7551
H 12.4147 3.63613 -13.1544
O 0.649003 3.18209 11.8889
H 1.49404 3.65275 11.6352
H 0.0865394 3.78743 12.4521
O -13.3628 -12.0736 -4.31092
H -13.6941 -11.1526 -4.10577
H -13.4936 -12.2659 -5.28351
O -9.14 -13.1942 -1.68966
H -9.64207 -13.3158 -2.54591
H -9.15175 -14.0498 -1.17209
O -12.426 13.8412 7.41436
H -11.7516 14.0539 6.70737
H -12.3064 14.4641 8.18742
O -5.56057 -9.27295 -2.20268
H -6.11113 -8.83318 -1.49311
H -6.16403 -9.70496 -2.8729
O 7.11631 -14.7122 11.5652
H 6.72367 14.1485 11.8369
H 7.74332 -14.8501 10.7985
O 10.2581 4.36628 -2.17893
H 11.1763 4.12179 -2.49058
H 9.58173 3.82167 -2.67486
O 8.92832 10.7204 -6.13535
H 8.55694 9.83993 -5.84066
H 9.04253 11.3167 -5.34078
O 11.7579 -14.2823 -12.183
H 10.8893 -14.6689 -11.8729
H 12.4229 14.7215 -12.3122
O 8.07674 11.0893 6.58059
H 7.46058 11.3393 7.32748
H 8.60247 10.2789 6.83928
O 4.10847 0.535189 13.7349
H 3.14649 0.606213 13.4712
H 4.40486 1.39564 14.1494
O 7.94038 8.28098 -6.25031
H 7.02936 8.68367 -6.33913
H 7.88531 7.29455 -6.40496
O -11.573 13.7227 -14.4137
H -12.3325 13.6512 -13.7671
H -11.1035 14.5956 -14.2811
O -8.53153 0.585962 11.8872
H -8.60823 1.57132 12.0395
H -8.93574 0.352916 11.0028
O 0.969023 -12.1027 -11.6358
H 1.14395 -12.3394 -12.5915
H 1.80179 -11.7293 -11.2271
O -4.88678 10.0026 -3.11473
H -5.00333 9.01 -3.07973
H -4.01487 10.2205 -3.5532
O 12.1812 -14.8318 5.38774
H 11.4703 14.3194 5.77334
H 12.5538 14.4829 4.56257
O -11.6264 9.46189 -11.3386
H -12.1709 8.85865 -10.7559
H -12.1031 9.60737 -12.2055
O 2.73097 5.19647 -4.31917
H 2.17308 5.6262 -5.02916
H 3.55855 4.81493 -4.73092
O -7.76811 3.32646 4.46431
H -6.7716 3.26903 4.4038
H -8.0229 3.85862 5.2717
O 0.943022 6.95218 6.44584
H 0.98018 6.17447 5.81832
H 1.54769 6.78186 7.22389
O 6.12653 12.3947 11.6929
H 5.54929 12.2818 12.5016
H 5.54923 12.4876 10.8816
O 5.39381 -5.31345 13.8675
H 5.02463 -5.78966 14.6656
H 6.35642 -5.0939 14.0262
O 2.57666 9.03359 5.14517
H 2.28033 9.92474 5.48875
H 1.9802 8.31975 5.51213
O -12.845 8.67677 -13.802
H -12.0909 8.08123 -14.0788
H -13.1964 9.16332 -14.6019
O -5.91085 2.38545 -6.17309
H -6.15125 3.32368 -5.92424
H -6.70618 1.79272 -6.04609
O -1.73248 -10.226 10.7814
H -0.83486 -10.285 11.2182
H -1.68678 -9.5911 10.0101
O 9.47846 -9.05003 11.7223
H 10.3887 -8.84319 12.0811
H 8.78671 -8.77649 12.3906
O 9.94593 0.678384 -9.47073
H 9.38723 0.399614 -10.2518
H 9.61552 0.221744 -8.64471
O -5.5203 1.04049 10.7998
H -5.62028 0.121293 10.4189
H -5.80947 1.71573 10.1213
O 6.90548 7.73844 6.31765
H 6.7258 8.269 7.14603
H 7.89032 7.71115 6.14638
O -4.77413 -6.75568 -6.38058
H -4.04799 -7.07104 -6.99153
H -4.76033 -7.29642 -5.53951
O -13.7367 -8.29585 5.29289
H -13.2729 -8.61924 6.1177
H -13.2928 -7.46143 4.96631
O 2.82634 13.6962 -5.26659
H 3.43096 13.0863 -5.77888
H 2.32693 13.1697 -4.57856
O 1.70808 11.2347 -11.5554
H 0.760793 11.1874 -11.2386
H 2.13133 12.0749 -11.2164
O 1.17468 4.71765 -7.53849
H 0.450723 4.04058 -7.67058
H 1.79042 4.70527 -8.32634
O 7.17947 -13.2285 -13.3489
H 6.41705 -12.6415 -13.6211
H 6.89813 -13.8065 -12.5828
O -0.84706 -5.97214 -3.15424
H -1.32335 -5.37476 -3.79944
H 0.120299 -5.72116 -3.11936
O 9.44181 8.02218 5.7406
H 9.72776 8.53459 6.55033
H 10.0221 7.21464 5.63507
O -1.72616 -10.9597 -5.55714
H -1.4309 -10.0051 -5.59572
H -2.32483 -11.0918 -4.7671
O -4.16104 14.0029 8.71137
H -4.72918 13.1923 8.85344
H -3.25051 13.7226 8.40743
O -13.8308 -10.8147 3.97154
H -14.7559 -10.9143 3.60508
H -13.6299 -9.84495 4.11027
O 8.32975 4.87291 -0.391615
H 8.29227 5.8722 -0.387922
H 9.04493 4.56852 -1.02078
O -6.1425 -7.69141 7.68043
H -6.34406 -6.78024 8.03979
H -6.13098 -8.35105 8.43191
O -2.73318 6.70154 -13.4118
H -2.89008 5.71525 -13.3606
H -3.44698 7.1796 -12.9
O 4.23386 11.9924 -9.38359
H 3.89217 12.5252 -10.1577
H 5.06749 11.5101 -9.65289
O -9.12223 -10.0147 13.7223
H -10.0251 -10.4065 13.5453
H -8.44615 -10.4551 13.1316
O -7.5707 4.74561 -5.464
H -7.56051 5.54763 -4.8668
H -8.02279 3.98673 -4.99526
O -3.63002 9.45818 7.10631
H -4.28441 8.70244 7.13152
H -2.71952 9.10372 6.89336
O 14.7888 9.42461 13.8366
H -14.6255 8.57642 13.4184
H 13.9395 9.71082 13.393
O -9.58909 -3.07754 12.275
H -9.13201 -2.3949 12.8452
H -9.71632 -2.71087 11.3534
O 9.50893 -8.49558 -3.44223
H 8.51264 -8.41879 -3.48117
H 9.78351 -8.81362 -2.53479
O 3.59158 13.7583 2.50098
H 2.81789 14.3882 2.43282
H 4.10019 13.9448 3.34152
O -2.41897 2.02505 -9.70691
H -2.6367 2.58365 -8.90657
H -2.2701 2.61907 -10.4975
O -8.41533 -11.9995 -6.19307
H -9.15186 -12.3168 -6.79041
H -7.53217 -12.2089 -6.6128
O -1.13258 4.79374 -10.2249
H -1.20461 3.97457 -10.7939
H -2.04667 5.15976 -10.0503
O -7.41226 4.26506 -10.414
H -8.23857 4.75169 -10.6975
H -7.56033 3.27967 -10.4981
O -4.63572 -0.656217 8.74926
H -5.15114 -0.368493 7.94207
H -3.68405 -0.362607 8.65918
O 4.77289 -1.93153 -2.46298
H 4.87838 -1.45128 -1.59222
H 4.34468 -2.82099 -2.30332
O -10.4153 -1.58415 -8.66226
H -11.2925 -1.62925 -9.1404
H -9.74469 -1.11818 -9.2394
O 12.6875 13.9237 -4.76859
H 12.2653 14.6084 -4.1745
H 11.9745 13.3655 -5.193
O 3.9171 -5.56978 -3.43727
H 3.94855 -4.99634 -2.61864
H 3.11646 -5.32587 -3.98453
O -13.6198 -8.09569 1.35949
H -12.983 -7.76666 0.662177
H -13.7409 -9.0834 1.26079
O 7.46153 12.3456 4.12367
H 7.05876 11.6377 3.5435
H 7.9831 11.9157 4.86066
O -14.3994 -3.67426 7.4663
H -14.0794 -2.75219 7.24863
H 14.383 -3.63573 7.75389
O 5.65014 -11.4242 14.4359
H 5.20661 -10.53 14.4974
H 5.55626 -11.7796 13.506
O 3.92175 -12.584 5.40487
H 3.80802 -12.054 6.24518
H 3.80133 -11.9844 4.6137
O 11.795 8.27421 -3.35058
H 12.4888 7.89556 -2.73799
H 10.9076 7.86205 -3.14435
O 13.3383 -9.00056 -11.9695
H 13.4889 -8.42162 -11.1682
H 13.9332 -9.80271 -11.9177
O -1.66875 -11.6788 0.385373
H -2.19383 -11.0067 -0.136722
H -2.21926 -12.5033 0.516008
O 3.93096 -0.0678519 5.38166
H 4.3111 0.856857 5.40176
H 2.99951 -0.037508 5.01908
O -7.16681 11.2861 -7.42412
H -6.64867 12.1118 -7.64699
H -7.17534 11.1554 -6.43275
O 14.1581 -0.951817 -9.73293
H 13.7296 -0.188754 -10.2167
H 13.4517 -1.58512 -9.41701
O -4.38414 -11.9256 -4.94342
H -4.94739 -12.4482 -4.30343
H -4.61933 -12.1823 -5.88085
O -14.4139 5.62677 -2.29264
H -14.202 5.1541 -1.43725
H 14.7305 6.40787 -2.10329
O 8.2983 -13.9331 6.128
H 8.79247 -13.1908 6.58042
H 7.32563 -13.871 6.35173
O -12.225 -4.64841 12.1543
H -11.2457 -4.58501 11.9619
H -12.3944 -4.39682 13.1072
O -14.7676 13.3783 5.68746
H -13.9456 13.2245 6.23586
H 14.8059 14.3609 5.60388
O -0.036464 -2.76131 -5.64463
H -0.0396017 -2.5466 -6.6213
H -0.142871 -1.91812 -5.11765
O 10.5671 8.34321 -7.34682
H 9.81196 8.80753 -6.88412
H 10.2107 7.81077 -8.11459
O -5.51332 2.07867 0.873026
H -4.7165 2.66395 0.722963
H -6.33569 2.54533 0.547529
O -11.6169 5.65543 -3.5513
H -10.9539 6.16149 -2.99968
H -12.5435 5.89192 -3.25881
O -11.2736 13.041 0.258034
H -11.5263 12.4982 -0.542908
H -11.2792 12.4584 1.07077
O -13.6769 13.725 2.55556
H -14.3669 13.3018 1.96842
H -13.4707 13.1149 3.32059
O 7.4929 -9.25538 -11.5545
H 7.82085 -9.91935 -12.2265
H 8.17795 -9.1436 -10.8347
O -10.2429 -2.22986 6.56688
H -9.55692 -2.60311 5.94233
H -10.4717 -2.91481 7.25862
O 0.406997 10.5542 13.7954
H -0.338547 11.0326 14.2594
H 1.22337 10.5697 14.3727
O 1.2701 -14.2669 6.40191
H 1.88782 -13.7063 5.85038
H 1.50959 -14.1745 7.3684
O -6.34442 7.21486 -5.78649
H -6.68683 6.48928 -6.38338
H -7.10784 7.78535 -5.48361
O -5.70577 6.06772 -11.6192
H -6.48743 5.4443 -11.6379
H -6.03245 7.00966 -11.5416
O 11.332 8.29479 -14.2841
H 11.9485 8.95817 -14.7083
H 11.8526 7.48868 -14.0026
O -0.140449 -12.0216 2.64555
H -0.696574 -11.8315 1.83651
H -0.737848 -12.2466 3.41531
O -2.8574 8.83551 3.28429
H -2.24619 9.27352 3.94351
H -3.10557 9.49239 2.57232
O 2.87895 4.35974 -9.69652
H 3.46413 4.59365 -10.473
H 3.17549 3.48806 -9.30635
O 13.2241 9.98197 -8.41926
H 12.9031 9.9437 -7.47295
H 12.6309 9.41974 -8.99543
O -11.9056 -6.97281 -13.0917
H -11.3183 -6.21675 -13.3804
H -12.8282 -6.83453 -13.4518
O 10.635 -14.222 12.25
H 9.92665 -13.7657 12.7884
H 10.3814 -14.2048 11.2828
O 3.65412 8.266 -7.95458
H 3.55524 8.54878 -8.90866
H 2.76926 8.33319 -7.49361
O -4.05143 -3.34182 11.2217
H -5.02609 -3.54374 11.3179
H -3.82336 -3.25405 10.252
O 1.9931 -7.91848 3.18287
H 1.32117 -7.25411 2.85559
H 2.37408 -8.4181 2.4049
O 4.57698 -11.1476 7.65229
H 5.37393 -11.487 8.152
H 4.60533 -10.1486 7.6185
O 9.50413 -0.765816 -7.31855
H 10.3785 -0.501877 -6.91126
H 9.09296 -1.50011 -6.77842
O -0.811293 2.47804 8.27111
H -0.203811 3.25631 8.43002
H -1.09771 2.09409 9.14891
O -10.1296 6.26556 3.36734
H -9.42899 6.21768 2.65543
H -10.9148 6.78353 3.02795
O 11.2753 10.2772 1.49392
H 10.6793 9.85942 2.17965
H 11.5648 11.1807 1.80996
O 6.14029 -2.39935 -13.8737
H 6.76596 -2.27657 -14.644
H 5.19981 -2.43908 -14.2112
O 7.82662 10.1715 -8.76405
H 8.70322 9.90913 -9.16745
H 7.96317 10.4262 -7.80672
O 13.0266 -1.3641 3.88942
H 13.3586 -1.38712 2.94644
H 13.5063 -2.05625 4.4287
O 1.85051 -13.5176 9.17954
H 1.19586 -14.2723 9.13711
H 1.40914 -12.7158 9.58237
O -0.633781 0.0216773 -5.11193
H -1.583 0.265127 -4.91266
H -0.0935759 0.854972 -5.22937
O -4.73366 11.2192 9.0693
H -4.82928 10.4325 9.67919
H -4.28158 10.933 8.22449
O 9.54307 -9.70654 -0.660376
H 9.72398 -8.75798 -0.400551
H 10.2795 -10.2915 -0.320454
O -2.22653 -6.06509 4.31201
H -3.18609 -5.83468 4.15031
H -2.07153 -6.17735 5.29353
O 8.77908 0.407566 -12.1016
H 8.99474 1.27597 -12.5481
H 9.07859 -0.349306 -12.6825
O -2.95178 -0.432531 -1.95994
H -2.97177 0.0819421 -2.81721
H -2.17947 -0.124578 -1.40433
O -2.7623 4.47796 7.2092
H -2.37343 4.91665 6.39906
H -2.16593 3.73063 7.5022
O 13.7868 1.41106 0.350238
H 14.724 1.43346 0.698454
H 13.7982 1.18053 -0.622758
O -11.8285 11.2736 7.21977
H -12.0924 12.1955 7.5033
H -11.5117 10.7579 8.01583
O 5.02298 2.74045 2.1802
H 5.42883 1.90837 2.55825
H 5.74164 3.41519 2.01213
O 2.86166 11.1596 1.35635
H 3.57846 11.1292 0.659739
H 3.0517 11.9027 1.99798
O -3.07457 -8.87395 -10.1936
H -3.65718 -8.92529 -11.0047
H -2.11503 -8.93775 -10.4678
O -5.06158 5.08604 10.1389
H -5.93194 5.55014 10.3035
H -4.40285 5.73696 9.76162
O -13.2076 1.57203 1.24004
H -12.9178 1.7187 2.18581
H -12.911 0.666351 0.937156
O 12.5519 -8.51274 -7.74172
H 12.8007 -9.46709 -7.90705
H 13.0288 -7.92582 -8.39602
O 14.1019 -4.79585 2.40474
H 14.4179 -4.32588 3.22891
H 14.2213 -5.78232 2.51706
O -4.57627 8.36211 9.80738
H -5.19985 7.97742 9.12683
H -3.63138 8.19794 9.52415
O 6.91722 -3.72214 0.531038
H 6.00481 -4.01502 0.816912
H 7.33078 -4.43062 -0.0408136
O -8.18789 -14.1625 2.0985
H -7.39945 -14.7429 2.3022
H -7.93498 -13.4881 1.4048
O -9.16981 -11.9136 -12.4157
H -9.83879 -12.6554 -12.3689
H -9.62202 -11.0757 -12.7214
O 4.15628 -4.76098 -7.2424
H 3.27262 -5.21466 -7.12698
H 4.15982 -3.90266 -6.7293
O 0.121045 10.6362 1.84204
H 1.00507 10.7029 1.37938
H -0.571257 10.3189 1.19392
O 13.0301 -9.90244 9.61598
H 13.8616 -9.47069 9.26647
H 12.2613 -9.2699 9.52195
O -12.3676 -6.89494 -2.74657
H -12.7526 -6.06479 -2.34334
H -11.709 -6.64606 -3.45668
O -3.68653 -13.5947 -11.5931
H -4.14338 -12.7211 -11.761
H -3.10971 -13.8252 -12.3768
O -14.1789 -9.11597 -3.15764
H -14.7699 -8.7547 -3.87896
H -13.354 -8.55482 -3.09033
O 0.22143 6.97402 3.23287
H 0.807733 7.76328 3.05035
H 0.787616 6.15795 3.34891
O 13.7358 9.36008 2.7139
H 13.0849 10.0874 2.93158
H 13.9844 9.41378 1.74681
O -14.4659 14.18 -5.97778
H -14.4425 13.4942 -6.7052
H 14.3232 14.4014 -5.75884
O -6.97969 2.12207 -3.52168
H -6.59135 1.20792 -3.638
H -7.85344 2.177 -4.00494
O 0.884203 -0.817072 7.06122
H 0.800556 -1.81356 7.05797
H 1.66074 -0.549634 7.63172
O 13.1161 -8.12107 7.2571
H 13.6811 -7.90203 8.05261
H 12.6794 -7.28754 6.91877
O 13.6543 -10.7825 2.2907
H 13.415 -11.2316 1.42988
H 12.8245 -10.4346 2.72709
O 8.37697 -13.8199 0.986544
H 8.51771 -14.337 1.83082
H 9.0593 -14.0953 0.309352
O 7.68618 1.30588 14.3854
H 7.72065 0.802258 13.5222
H 7.15695 0.784342 -14.6847
O 8.20972 -5.62914 -1.37509
H 9.02223 -6.21205 -1.36779
H 8.46388 -4.70671 -1.66582
O -0.104798 14.7209 13.1136
H -1.05688 14.6849 12.8099
H 0.399778 13.9523 12.7205
O -2.89095 -6.25372 -1.24354
H -2.11188 -6.0753 -1.84456
H -3.73132 -6.27652 -1.78507
O 0.734184 8.97968 -8.08089
H 0.197921 8.82772 -8.91114
H 0.69487 9.94719 -7.83112
O -10.8921 8.04656 6.64079
H -11.6456 7.61676 7.13831
H -11.2574 8.57641 5.87539
O 1.36717 12.5482 11.9457
H 1.58826 12.3511 10.9906
H 0.956249 11.7394 12.3664
O 6.49826 -11.4434 -3.78698
H 7.40346 -11.7358 -3.47857
H 6.54152 -11.1884 -4.75296
O 14.3696 14.5761 14.7273
H 13.8184 13.7621 -14.8287
H -14.6998 14.6969 -14.2796
O 12.0026 -0.844742 -13.6555
H 12.0066 -0.579624 -12.6913
H 12.4966 -0.160154 -14.1915
O 6.51934 3.87576 13.0409
H 5.60675 3.84152 13.4483
H 7.15652 3.35161 13.6059
O 2.36583 -10.9105 -4.38046
H 2.30798 -10.6102 -3.42837
H 2.62491 -11.8759 -4.4103
O -6.37813 0.255241 2.90579
H -7.23603 -0.188514 2.64679
H -6.20267 1.02521 2.29231
O 5.06985 -14.3811 13.9821
H 5.28077 -13.5174 14.44
H 4.78166 -14.1983 13.0422
O 13.2116 6.04423 8.00899
H 12.6298 6.04507 7.19563
H 13.5409 5.11604 8.1823
O 7.91679 14.8017 8.62136
H 8.73801 -14.6008 9.08188
H 8.12245 14.6273 7.6584
O -13.26 -1.23486 0.750338
H -14.2019 -1.01784 1.00695
H -13.2109 -1.3909 -0.236186
O 5.20101 -7.77982 -7.69308
H 5.24852 -8.58466 -7.1015
H 5.07714 -6.961 -7.13257
O 4.01289 -10.0454 -9.43739
H 4.68237 -10.1091 -8.69731
H 3.24256 -9.4802 -9.14225
O 1.56685 -8.98878 -6.30025
H 1.53946 -9.51837 -5.45244
H 1.41238 -9.59738 -7.07854
O 12.6801 -0.0479932 7.29065
H 12.5466 -0.942111 6.86318
H 12.5209 0.671665 6.61483
O 1.73348 11.5763 9.27592
H 0.810563 11.2365 9.09491
H 2.40162 10.9783 8.83325
O -6.50783 0.871928 7.07573
H -6.21263 1.47789 6.33704
H -6.72763 1.41603 7.88544
O 8.82497 -10.5882 9.53051
H 9.76276 -10.8889 9.35691
H 8.81622 -9.95275 10.3026
O -9.62818 10.5057 10.8824
H -8.67492 10.7826 10.7616
H -10.2298 11.266 10.6375
O -4.32189 11.5493 5.25215
H -4.08835 10.659 5.64308
H -5.30752 11.6992 5.32983
O -2.16871 9.21227 -3.0329
H -1.90218 9.13764 -2.07197
H -2.63061 8.37205 -3.31691
O -6.94743 -1.6267 13.1475
H -6.08221 -1.51778 13.6369
H -7.05454 -0.881008 12.4898
O 2.18141 7.26048 14.6677
H 1.4232 7.13009 -14.4329
H 1.82318 7.34387 13.7378
O 11.2592 4.7556 3.79018
H 11.7944 5.46652 3.33397
H 10.8844 4.12993 3.10606
O 10.2486 -9.82358 -10.6761
H 11.1672 -9.43364 -10.7405
H 10.1882 -10.4018 -9.86252
O -14.2127 -12.0076 8.41191
H 14.8074 -11.6939 7.79197
H -14.6169 -12.5673 9.13536
O 9.39771 -11.3744 2.25379
H 9.24916 -12.2811 1.8592
H 8.61006 -11.1224 2.81604
O -10.9969 -3.9666 -12.4098
H -10.7169 -4.07506 -11.456
H -11.2504 -3.01373 -12.5765
O -13.6669 11.8047 -1.60552
H -12.7736 11.3694 -1.71685
H -14.1404 11.8239 -2.48612
O 9.35395 -5.6303 -10.855
H 9.34374 -6.30963 -10.1212
H 8.52223 -5.71912 -11.403
O -13.9036 8.73682 -8.95293
H -14.3264 7.84743 -9.12677
H -14.617 9.42177 -8.80491
O 4.71731 -6.39211 -13.6313
H 5.55491 -6.13197 -13.151
H 3.92313 -6.09249 -13.1027
O 4.40817 -8.9606 14.8258
H 3.56357 -9.48219 -14.7927
H 4.35978 -8.11871 -14.3761
O -4.18337 1.62528 -13.5988
H -3.61557 0.881486 -13.2462
H -5.14693 1.36318 -13.5454
O 12.3422 -5.16127 12.639
H 11.6131 -5.59836 13.1658
H 13.2287 -5.50713 12.9463
O -14.0348 -12.714 -6.98637
H -14.0961 -13.7122 -6.98462
H -14.8113 -12.3333 -7.48847
O -5.38604 -2.04464 -11.9892
H -6.35613 -2.27195 -11.904
H -5.16132 -1.30137 -11.3591
O -5.12168 -5.72653 -3.20206
H -4.8154 -5.2579 -4.03066
H -4.8022 -6.67399 -3.21757
O 14.2271 -0.806291 9.71026
H 13.8636 -0.342188 8.90252
H 13.8077 -0.421735 10.5326
O -8.12219 -7.96699 -6.8575
H -9.08082 -8.13542 -6.62801
H -7.89359 -8.44483 -7.70568
O 11.9763 -5.231 6.00073
H 11.5981 -5.44852 5.10092
H 11.351 -4.62 6.48625
O 5.38791 -12.3558 11.7177
H 6.08783 -13.0077 11.426
H 5.33526 -11.6059 11.0583
O 1.48777 -9.31092 -13.5828
H 2.14779 -9.85246 -13.0621
H 0.601138 -9.77339 -13.58
O -9.38855 11.8833 -11.2622
H -10.0661 11.2358 -11.6108
H -8.84582 12.2397 -12.0227
O -2.98237 13.5593 -5.70555
H -3.82445 13.7915 -5.21878
H -2.71011 14.327 -6.2856
O -10.0839 5.34109 -8.29067
H -9.79616 6.04605 -8.93893
H -10.0572 5.71127 -7.3621
O -9.10059 -14.2288 -7.82609
H -9.46769 14.6679 -8.21995
H -9.75752 -13.4862 -7.95639
O 10.0581 12.9056 -13.3986
H 9.84182 11.9294 -13.3843
H 9.53007 13.3744 -12.6905
O -4.86307 7.68273 -0.785666
H -5.11069 6.88586 -0.234602
H -5.01561 7.47956 -1.75285
O 4.56828 -13.0961 -11.7608
H 4.29829 -12.1552 -11.9655
H 3.95441 -13.7291 -12.2324
O 2.0654 -10.3678 -1.65674
H 1.62119 -10.5916 -0.78921
H 3.00735 -10.7034 -1.64518
O -12.1304 12.7765 -5.13812
H -12.4975 11.9513 -5.56733
H -12.8191 13.5011 -5.16567
O -11.044 -13.8164 -4.07158
H -11.5314 -14.5554 -3.60651
H -11.6554 -13.0332 -4.18451
O 12.9418 14.8554 1.95602
H 13.2126 -14.8145 0.995889
H 13.5951 -14.3829 2.52366
O -0.112472 -6.16643 -8.78848
H -1.07505 -6.40085 -8.65254
H 0.0194291 -5.82603 -9.71946
O -9.81433 -5.16253 5.71983
H -9.82377 -6.11783 5.42433
H -9.0838 -4.67343 5.24328
O 9.27023 2.65484 -13.42
H 10.2577 2.69331 -13.5729
H 8.82484 2.2498 -14.2184
O 11.9523 3.52819 0.275496
H 12.5695 2.74227 0.239105
H 11.0925 3.25702 0.708321
O 9.52434 -9.2314 -6.2091
H 10.1835 -8.93355 -5.51859
H 8.62403 -8.85181 -5.99614
O -7.04263 -3.70517 10.8221
H -6.86348 -4.20693 11.6683
H -7.95434 -3.29644 10.8636
O 6.83904 12.1699 8.70963
H 5.8928 12.2249 9.02838
H 7.21016 13.0927 8.60637
O 3.94098 10.4634 -1.5278
H 4.66156 11.0953 -1.81324
H 3.2733 10.3641 -2.26559
O 2.67746 -11.5783 12.8963
H 1.90147 -11.955 12.3904
H 3.51461 -12.0529 12.6245
O 9.4307 -3.73801 12.8053
H 9.11754 -4.56058 12.3307
H 10.2972 -3.43413 12.4093
O 14.0942 10.035 -11.9687
H 14.8146 9.64359 -12.5411
H 13.7564 9.33863 -11.3354
O 9.94259 -1.55931 0.442877
H 9.64862 -1.74748 1.37998
H 9.84492 -0.582425 0.252718
O -12.6014 -9.13636 7.64401
H -11.6273 -8.97407 7.80151
H -12.8468 -10.0451 7.98166
O 8.52216 -10.5756 -13.698
H 9.27351 -11.0941 -13.2898
H 8.1684 -11.0703 -14.4918
O -11.5688 4.17234 4.69381
H -11.0274 4.83538 4.17688
H -11.8939 4.59475 5.5399
O 11.4346 -13.4414 -7.08545
H 11.7093 -13.7181 -6.1646
H 10.9459 -14.1935 -7.52766
O -9.1366 7.64923 -9.57824
H -9.7724 8.35158 -9.25813
H -8.24219 7.79101 -9.15407
O 11.6052 2.09732 5.89105
H 12.044 2.14675 4.99383
H 10.701 2.52191 5.84373
O 8.54269 -5.8642 11.1493
H 9.27529 -5.75368 10.4777
H 7.87221 -6.52191 10.806
O 3.23663 10.3444 11.478
H 3.21461 10.4949 10.4896
H 3.19479 11.2249 11.9502
O 1.33174 -4.39413 2.48798
H 1.21085 -4.96858 1.67842
H 0.473528 -3.92416 2.69437
O -10.6136 13.5134 -8.94618
H -11.0349 13.0524 -8.16518
H -10.3111 12.8316 -9.61222
O -11.6602 9.7709 4.6713
H -11.7869 10.4619 5.38293
H -12.5531 9.45004 4.35551
O -0.574112 10.5784 8.83752
H -1.31213 10.4127 9.49164
H -0.603163 9.88333 8.11916
O 11.2686 -5.43865 9.73594
H 11.8741 -4.99642 9.07428
H 11.7185 -5.47307 10.6284
O 3.17349 -14.7785 11.162
H 2.76883 -14.0675 10.587
H 2.44629 14.4356 11.6039
O 4.2989 6.44057 12.7472
H 4.90107 5.73953 13.1292
H 3.89702 6.97573 13.4902
O -13.0785 14.6394 13.3683
H -12.5417 14.3226 14.1503
H -14.052 14.5958 13.5928
O 14.7879 6.14754 -12.9241
H -14.6458 5.65098 -13.7365
H -14.1558 6.44573 -12.3968
O 12.8407 7.76245 -10.9349
H 12.0877 7.87765 -11.5828
H 13.5704 7.22941 -11.3633
O 10.2025 -1.74648 5.51026
H 9.95862 -1.7647 4.54063
H 10.0162 -2.64052 5.91767
O -14.7736 11.6476 -14.4849
H -14.5409 10.8206 14.7428
H 13.9731 11.7686 -14.4805
O 1.04884 -14.859 2.23012
H 0.640274 -13.9471 2.26971
H 0.403673 14.2441 1.80708
O 8.92063 4.07528 -10.4775
H 8.67183 3.20354 -10.8996
H 9.19862 3.91934 -9.52969
O 7.45417 -9.14678 7.07149
H 7.20624 -10.0642 6.76035
H 8.44909 -9.07687 7.14382
O -0.554737 1.1314 5.96551
H -0.543469 1.57404 6.86213
H -0.150275 0.21978 6.03873
O -12.6542 -8.74707 14.2112
H -12.7598 -8.80131 13.2182
H -13.5526 -8.63788 14.6365
O -4.32629 -13.9513 -8.9261
H -4.02244 -14.0305 -9.87552
H -3.5444 -13.7301 -8.34323
O -14.6716 4.35374 5.60158
H -13.7973 4.79934 5.79415
H 14.648 4.05857 6.45983
O 14.8492 -3.06077 12.4333
H 14.8217 -3.95323 12.8836
H -14.7216 -3.18579 11.4556
O 6.82451 2.87167 -5.31524
H 5.91608 3.04532 -5.69551
H 7.49192 2.81729 -6.05794
O -8.91298 -3.64524 -3.5876
H -8.08243 -3.34757 -3.11689
H -9.13423 -4.58113 -3.31347
O -2.8768 -1.08727 12.0395
H -3.11172 -2.0333 11.8163
H -3.0129 -0.510991 11.2337
O -1.86956 -3.06556 8.95679
H -1.22283 -3.2953 9.68408
H -1.87032 -2.07614 8.81171
O 4.86994 3.28331 9.31471
H 4.88483 3.72208 8.41624
H 4.07882 3.60974 9.83199
O 9.66252 -6.10619 -4.95039
H 8.68312 -5.9278 -5.045
H 9.80793 -6.80474 -4.24977
O -12.2108 -4.37413 -14.8134
H -11.4675 -4.20271 -14.1668
H -13.0624 -3.99646 -14.45
O -9.32762 6.97352 -2.5786
H -8.78942 6.14212 -2.44037
H -8.94264 7.49728 -3.33851
O 14.7124 -3.61397 4.71162
H -14.1068 -3.58805 5.10229
H 14.1241 -4.18705 5.28212
O -12.5915 7.87099 0.238102
H -12.8609 7.22633 -0.477342
H -12.7448 7.45651 1.13516
O 11.8232 -5.21606 -7.67721
H 10.9967 -5.70736 -7.40243
H 12.6211 -5.80272 -7.53903
O 9.22972 -3.14536 -5.08511
H 9.45984 -3.94994 -4.53768
H 8.27117 -3.19603 -5.3655
O 6.59505 14.0962 -11.4618
H 5.96992 14.6418 -10.9037
H 6.41036 13.1244 -11.3158
O 6.00891 13.1277 -14.0636
H 6.22353 13.4339 -13.1361
H 5.9082 13.9225 -14.662
O -4.04752 3.04271 -2.80352
H -5.03899 2.91487 -2.82887
H -3.81019 3.66074 -2.05404
O 3.07442 -1.74712 -14.4709
H 2.20664 -1.7015 14.7736
H 3.67291 -1.00748 -14.7787
O 12.2321 -8.27206 12.3671
H 12.2015 -8.03546 13.3382
H 13.107 -8.70898 12.1579
O 8.15697 5.95003 10.9564
H 8.36194 6.56133 11.7208
H 8.30866 5.00242 11.2376
O 4.57286 -2.67707 4.79447
H 3.62736 -2.98588 4.89768
H 4.62423 -1.69478 4.97468
O -2.15983 -2.62908 -9.82104
H -1.61182 -2.6013 -8.98503
H -2.94928 -3.22703 -9.68238
O 1.48143 -5.70421 9.01049
H 0.884534 -5.28783 9.6963
H 1.95399 -4.98601 8.49973
O -12.6262 -0.375587 8.87869
H -12.7672 -0.730035 7.95432
H -13.4631 -0.495068 9.4128
O 10.6023 9.09712 11.8983
H 10.138 8.51325 12.5642
H 9.94396 9.41153 11.2144
O 5.94667 3.92251 -1.03596
H 5.47297 4.63546 -1.55299
H 6.7334 4.32014 -0.56379
O -9.68914 8.36251 12.6315
H -8.80783 8.09258 13.0194
H -9.55214 9.10899 11.9804
O -14.3533 1.30189 5.20671
H 14.662 1.22016 4.52185
H -13.9248 2.20241 5.13291
O -4.99794 -5.17797 -12.6071
H -5.98552 -5.33464 -12.6185
H -4.74665 -4.57901 -13.3674
O -9.8297 -7.72202 4.66195
H -10.241 -8.61156 4.86089
H -9.14673 -7.8248 3.93878
O -8.38259 13.2224 -13.7104
H -8.96828 14.0202 -13.5673
H -8.76702 12.6528 -14.4369
O 0.204394 0.573392 -11.2465
H -0.733466 0.23236 -11.3106
H 0.470382 0.638478 -10.2847
O 1.5016 4.85211 4.73936
H 2.47624 4.65634 4.84769
H 1.02246 4.01802 4.46601
O -13.1335 -2.16608 -9.43112
H -13.9886 -1.68012 -9.61199
H -13.2996 -2.89827 -8.77057
O 7.04844 -5.20991 -12.6569
H 6.61339 -4.33855 -12.8838
H 7.50292 -5.57684 -13.4686
O 11.6208 11.6351 -6.31664
H 10.7383 11.5049 -6.76861
H 11.9637 10.7526 -5.99463
O 5.699 -7.32342 -10.4035
H 6.29056 -8.09923 -10.623
H 5.44334 -7.36201 -9.43748
O 14.6638 5.93938 -8.18939
H 13.7243 5.66703 -7.98177
H -14.5774 5.15805 -8.56534
O 7.73035 11.9907 -0.228004
H 7.02669 12.2709 0.424947
H 7.30597 11.4837 -0.978243
O -6.67715 8.66371 -12.3831
H -5.80232 9.1441 -12.3206
H -7.25719 9.11442 -13.0616
O 6.08267 0.336791 -13.4147
H 5.91071 -0.638796 -13.5513
H 5.86796 0.584013 -12.4699
O -1.37966 -8.46525 -6.6897
H -0.384734 -8.39309 -6.61969
H -1.74357 -7.64275 -7.12681
O 2.78993 -3.48534 7.99302
H 2.75675 -3.64999 7.00723
H 3.44381 -2.75403 8.18698
O 8.91902 -12.9726 13.97
H 8.24473 -12.6478 13.3068
H 8.44928 -13.3 14.7898
O -3.84034 -2.90538 -2.64044
H -3.27204 -2.15357 -2.30604
H -3.3764 -3.3617 -3.39973
O -6.71337 10.8685 -4.80634
H -6.45702 11.8334 -4.86382
H -6.17861 10.4238 -4.08783
O 9.12119 1.4547 -0.473584
H 9.10731 2.07348 -1.25903
H 9.44437 1.94823 0.333869
O -11.2784 -7.28634 -10.275
H -10.7167 -6.47976 -10.0909
H -11.5557 -7.28719 -11.2358
O 13.7064 -11.971 -0.201244
H 13.9557 -12.7196 -0.81561
H 13.8371 -11.0974 -0.670075
O 2.75736 -13.4769 -0.710347
H 3.74371 -13.3127 -0.698279
H 2.55965 -14.2773 -1.27624
O 0.0823649 13.0708 5.72113
H -0.825689 13.2046 6.11805
H 0.636365 13.8894 5.87295
O 0.160691 13.7753 -1.23832
H -0.56583 13.3659 -1.79022
H 0.0280981 14.7655 -1.19427
O -5.40855 -8.18592 2.78277
H -5.57734 -7.9378 1.82887
H -5.96751 -7.61129 3.38056
O 3.52017 0.0459094 0.584948
H 4.39705 -0.431781 0.53108
H 2.81731 -0.583847 0.915673
O -3.35927 0.936114 -4.48545
H -4.25598 0.494807 -4.51941
H -3.46788 1.89075 -4.20819
O -6.66516 -3.3307 -2.12534
H -5.68099 -3.45657 -2.25012
H -6.93674 -3.69086 -1.23286
O -1.38775 -8.44848 2.79091
H -2.00625 -7.83378 3.28039
H -1.24244 -9.27615 3.33298
O 12.9399 -3.16927 -12.5519
H 12.2167 -3.81714 -12.7912
H 12.5563 -2.24753 -12.4951
O -14.1427 -12.0612 14.1776
H -14.0726 -12.964 13.7534
H 14.6703 -11.7057 14.0535
O -1.42629 14.4059 -10.2147
H -0.433062 14.5136 -10.2583
H -1.75988 14.036 -11.0818
O -14.4187 -7.80258 9.03205
H -13.6986 -8.19595 8.46045
H -14.0375 -7.54943 9.9212
O -3.10134 -7.55529 7.17677
H -4.02901 -7.56928 7.5499
H -2.91439 -8.42278 6.71578
O -13.1189 11.6537 10.5195
H -13.8905 11.584 9.88721
H -12.6595 12.5323 10.3892
O -8.09072 8.95869 1.37101
H -8.78693 8.57244 0.765944
H -7.99204 9.93614 1.18434
O -13.621 -0.472586 13.3936
H -12.7858 0.067169 13.4991
H -13.4163 -1.30668 12.8813
O 2.39756 -2.24339 -9.27585
H 2.34765 -2.36765 -10.2668
H 3.21217 -2.70359 -8.92284
O 9.70903 6.01882 -14.7877
H 10.2601 5.28092 -14.398
H 9.76098 6.82242 -14.1948
O -5.78115 -11.5881 -7.55506
H -5.51971 -12.2968 -8.21037
H -5.06867 -10.8873 -7.52008
O 3.27731 1.77032 -3.55315
H 3.94365 1.09355 -3.86615
H 3.70864 2.37991 -2.88806
O -0.237464 -9.45326 -10.7394
H 0.344597 -8.8151 -11.2433
H -0.069377 -10.3844 -11.063
O 2.12572 -7.84648 -9.59332
H 2.7372 -7.44847 -10.2772
H 1.35819 -7.22629 -9.43127
O 12.9177 12.8468 11.0593
H 12.6812 13.0887 10.1182
H 13.1858 13.6711 11.558
O -0.0669463 14.7634 -5.91697
H 0.0409279 -14.3248 -5.1658
H 0.729369 14.1595 -5.95151
O -8.92892 -1.23597 -11.4344
H -8.4155 -2.09404 -11.424
H -9.74434 -1.34231 -12.0034
O 6.45069 -5.3504 -4.85745
H 5.77644 -5.666 -4.18978
H 6.1456 -4.48545 -5.25591
O -4.10726 7.05527 12.4986
H -4.13571 7.36824 11.5493
H -4.61966 6.20073 12.5834
O -3.17233 -14.129 0.550592
H -3.31258 14.631 0.695993
H -3.81496 -13.6126 1.1166
O 4.01931 8.00633 -13.3404
H 3.12321 7.7453 -13.6993
H 4.50048 7.19046 -13.0197
O -2.24012 7.40264 -8.0964
H -2.74971 6.7022 -8.59609
H -2.87914 8.06771 -7.70996
O -7.03467 -13.0707 -14.359
H -7.39253 -12.9141 -13.4385
H -6.10172 -13.4255 -14.298
O -11.2424 3.83151 -13.0013
H -10.4356 3.40289 -13.4079
H -11.9686 3.15079 -12.905
O -1.03193 -8.22348 9.10871
H -1.27144 -8.40844 8.1556
H -0.105996 -7.8484 9.15295
O 3.05964 -0.187825 8.43913
H 3.34854 -0.82747 9.15144
H 3.65089 0.618498 8.45547
O 9.13406 -12.2062 -2.96284
H 9.60245 -11.8415 -2.15807
H 9.23367 -13.201 -2.98425
O 14.6714 -4.97526 -10.7196
H -14.3666 -4.42831 -11.1768
H 13.7743 -4.7535 -11.1016
O 11.741 -3.13724 -3.81041
H 10.9062 -3.09523 -3.26135
H 11.5389 -2.84987 -4.74666
O 12.2403 0.501175 -11.2424
H 11.5509 0.806821 -10.5856
H 12.7829 1.28475 -11.545
O -10.4416 -10.7795 1.9877
H -11.2843 -10.8343 1.45212
H -10.6679 -10.6466 2.95263
O -6.75782 6.64237 1.44476
H -6.08024 6.58245 2.17775
H -7.2711 7.49591 1.53429
O 10.7239 -8.06504 9.17581
H 10.9304 -7.09974 9.33558
H 10.0666 -8.38283 9.85922
O -10.9207 -0.766497 -13.6611
H -11.853 -0.597872 -13.3413