2611
Atoms. Timestep: 8000000
O -9.03365 8.24382 -5.17474
H -8.95622 7.47718 -4.53737
H -8.44661 8.07894 -5.96731
O -9.93736 -2.23291 4.62171
H -10.1005 -3.02781 5.20608
H -8.95678 -2.03985 4.5878
O 3.48712 3.41652 3.92
H 2.54921 3.74517 4.03082
H 3.91513 3.32083 4.81867
O -14.27 11.2569 14.4152
H -13.958 11.1996 13.4669
H 14.6067 11.4804 14.4326
O 11.2698 -8.21534 8.06987
H 11.4108 -7.35792 8.56478
H 12.0298 -8.83751 8.25783
O -13.3211 4.02617 2.52235
H -13.3562 4.9022 3.00329
H -12.9055 3.33671 3.11554
O -10.857 -7.07603 0.156531
H -10.2629 -7.10625 -0.64726
H -10.4897 -6.42233 0.818127
O 8.67238 4.96261 9.18369
H 8.8955 5.81074 9.66416
H 7.6872 4.92334 9.01681
O -7.06081 8.18478 -7.36785
H -6.8925 8.87918 -8.06746
H -6.5439 7.35759 -7.58813
O 10.6807 -7.82469 -1.87925
H 10.1195 -8.35796 -2.51224
H 11.6409 -7.88713 -2.15136
O 2.2712 11.7005 -9.16203
H 2.96823 11.0962 -8.77604
H 2.67153 12.2413 -9.90174
O -5.91958 1.60755 -6.85761
H -5.69866 1.20944 -5.96729
H -6.59425 1.03332 -7.32134
O 4.51713 9.9826 -5.45988
H 5.02508 10.7526 -5.0739
H 3.84423 9.65998 -4.79423
O -9.28187 -10.0092 1.53364
H -9.65126 -10.6691 0.879425
H -9.88045 -9.96177 2.33327
O 11.533 8.84879 9.52984
H 12.2725 9.33682 9.99342
H 11.2822 9.3388 8.69498
O -9.9327 -14.6733 12.0495
H -9.344 -13.9349 11.7206
H -9.44287 14.3083 11.9874
O 1.94884 6.26727 2.33808
H 1.6872 5.63266 3.06525
H 2.19516 5.75103 1.51784
O 12.0372 -13.13 14.0896
H 12.0372 -12.2372 13.6393
H 12.9796 -13.4157 14.2636
O -9.18672 14.4125 4.62854
H -8.24607 14.1382 4.42885
H -9.80855 13.9611 3.98857
O 9.80444 3.30374 -9.98321
H 9.46191 2.58498 -10.5882
H 10.0237 4.11683 -10.5224
O 4.40048 2.59268 6.39169
H 5.06572 2.80034 7.10883
H 4.58355 1.68228 6.02072
O -11.4612 14.0215 -2.9598
H -10.4739 14.026 -3.11893
H -11.7382 13.127 -2.60901
O -7.88629 -14.4576 -1.16798
H -8.62847 -14.8554 -1.70726
H -8.25279 -14.101 -0.308603
O -4.15703 11.3555 -12.6892
H -3.20145 11.2522 -12.4133
H -4.64319 11.9034 -12.0085
O 9.31831 -4.95219 4.2934
H 9.19719 -5.02623 3.30355
H 10.2781 -5.11119 4.52457
O 0.798641 -3.34252 0.208734
H 1.51184 -2.64875 0.308776
H 0.422285 -3.30257 -0.716862
O -10.6272 -1.57031 -8.50573
H -10.6628 -1.16952 -9.42119
H -9.73867 -2.00795 -8.36779
O -12.3894 -1.59623 -1.28256
H -13.0753 -0.951184 -0.945709
H -12.8469 -2.38697 -1.68928
O 11.1092 -0.637829 0.310014
H 10.4422 0.0223312 -0.0352936
H 11.8386 -0.153211 0.792896
O 12.7386 -6.61304 -13.9145
H 11.8459 -6.9612 -14.2007
H 13.0499 -7.11643 -13.1085
O 3.33534 -14.3041 -7.38751
H 3.85892 -14.9154 -6.79409
H 2.50763 -14.7706 -7.69939
O 4.31562 14.9195 -2.86298
H 4.57164 14.5869 -3.77063
H 4.10976 14.1418 -2.26893
O 1.96805 -14.6801 5.74858
H 2.19573 14.3725 5.19158
H 2.04417 -14.9166 6.71721
O 6.02146 -6.84035 2.24935
H 6.14777 -6.14337 1.54349
H 6.2031 -6.44129 3.14808
O 1.4159 -10.437 -8.94484
H 1.04664 -10.0097 -8.11961
H 1.8605 -9.74192 -9.50974
O 3.28013 -2.00197 1.19877
H 3.96064 -2.5346 0.695603
H 3.67319 -1.12016 1.45933
O 10.663 -1.14914 12.0639
H 10.2645 -2.01036 11.7485
H 10.9876 -1.25645 13.0036
O -7.30905 5.39672 11.2122
H -6.60631 5.12848 11.8711
H -7.91462 4.62063 11.0363
O 0.865606 -6.03038 2.88089
H 0.368844 -6.43853 3.64679
H 0.246589 -5.91927 2.10343
O -4.2004 -0.812611 -6.91307
H -3.36101 -0.978443 -7.43065
H -4.03799 -0.0952897 -6.23555
O 11.5923 11.904 -9.70062
H 10.6345 11.704 -9.90721
H 12.1559 11.1112 -9.93282
O -0.0525838 -4.16063 -2.15359
H -0.571747 -5.00963 -2.25179
H 0.0594792 -3.73284 -3.05048
O -7.59551 0.868536 9.66582
H -8.3787 0.757504 10.2776
H -7.24119 -0.0312643 9.41129
O -11.2901 8.44162 -12.4813
H -10.6065 8.30224 -11.7648
H -12.1917 8.17934 -12.1374
O 14.036 -1.13102 2.57513
H 13.5059 -1.94816 2.34877
H -14.8392 -1.33699 2.5054
O -9.10655 -1.3089 -11.5485
H -9.97338 -1.56959 -11.9735
H -8.66403 -0.602105 -12.1004
O -5.47007 -8.38 -13.505
H -5.83348 -8.70414 -12.6317
H -4.71092 -7.75107 -13.3374
O -2.9398 0.334373 11.6945
H -2.41302 -0.230967 12.3292
H -2.34961 0.630932 10.9437
O -11.1481 -2.81034 2.20803
H -10.6018 -2.35944 1.50218
H -10.8712 -2.47525 3.10859
O -7.97115 -12.8256 -4.78053
H -7.47531 -12.0063 -4.49268
H -7.32212 -13.5699 -4.93807
O -2.63271 -4.67442 4.39206
H -3.39575 -4.06757 4.61447
H -2.02932 -4.22384 3.73413
O -8.96277 -14.6782 -13.2007
H -8.80744 -14.1811 -12.347
H -9.82133 14.6641 -13.1386
O 6.67309 6.32592 3.76788
H 5.69503 6.52151 3.83932
H 6.87253 5.45508 4.21713
O -3.29813 14.9101 2.11724
H -3.12773 -14.1482 2.70227
H -2.89365 14.0957 2.5334
O 12.4739 1.68478 4.19618
H 11.7876 0.988765 4.40698
H 12.113 2.31003 3.50426
O -1.63926 -7.15414 -8.89843
H -2.26176 -6.3841 -8.75874
H -1.24362 -7.42627 -8.02129
O -5.4997 -5.86 9.51214
H -5.77816 -5.95679 10.4677
H -6.09142 -6.42177 8.934
O -12.8236 -8.81866 14.7974
H -12.8518 -9.8182 14.7875
H -13.0965 -8.48641 -14.151
O 14.7503 -10.5108 -3.11301
H 14.5528 -10.6492 -4.08347
H -14.8173 -11.3779 -2.70364
O -13.0551 -8.82408 4.20444
H -13.4141 -8.50063 3.32899
H -13.8152 -9.0408 4.81689
O 2.43758 -13.2475 -3.66477
H 1.68154 -13.8914 -3.78212
H 3.22047 -13.7223 -3.26281
O 4.71296 -10.5923 -11.4541
H 3.92901 -10.9987 -10.9849
H 5.5592 -10.9653 -11.0738
O -14.5647 5.34 10.1909
H 14.6674 5.86835 9.60995
H -13.689 5.81702 10.2653
O 13.942 12.6142 3.87409
H 14.5189 11.9007 4.2717
H 13.6067 12.3129 2.98151
O -7.97677 8.77039 12.6644
H -8.80265 8.35683 12.2812
H -8.22604 9.57577 13.2022
O -3.06219 8.08643 13.7067
H -2.88998 7.84199 12.7525
H -3.66223 8.88556 13.743
O -13.1811 -11.2542 -11.1359
H -12.9007 -11.1224 -10.1852
H -12.8774 -12.1533 -11.4514
O 9.11596 -10.7698 0.5619
H 9.30418 -11.7003 0.876169
H 8.81903 -10.2104 1.3357
O -0.782199 -6.70634 4.94202
H -1.38323 -5.94533 4.69791
H -1.20765 -7.24771 5.6672
O -5.32737 -14.708 -11.5436
H -5.76168 14.2471 -11.6351
H -5.29923 -14.2585 -12.4365
O -6.93648 -4.18494 2.15735
H -6.08015 -4.66365 2.35101
H -6.8012 -3.55663 1.39126
O 9.9088 6.91297 10.7963
H 10.1044 6.7188 11.7575
H 10.5555 7.59542 10.4557
O -10.7607 -11.7613 -0.450567
H -10.8131 -12.7525 -0.572368
H -10.2028 -11.365 -1.17972
O 14.7191 -11.41 3.35394
H -14.8856 -10.9201 4.19014
H 14.2477 -12.2592 3.59179
O 11.2463 8.51049 14.3469
H 10.6867 7.74887 14.0201
H 10.8381 8.89216 -14.675
O -4.51226 -3.01919 12.8033
H -5.06666 -3.22314 13.6101
H -4.33345 -3.86427 12.2995
O 2.20999 -14.5492 10.7964
H 2.85378 -13.7891 10.7092
H 2.16513 14.8023 9.93139
O 13.2517 1.12345 1.32908
H 12.9709 1.96445 1.79154
H 13.6526 0.494641 1.99528
O 1.77558 -3.41813 3.6071
H 2.18719 -2.85636 2.8895
H 1.63095 -4.34565 3.2625
O 3.69372 -13.8645 -12.787
H 3.52881 -13.0685 -13.3694
H 2.83532 -14.1486 -12.3599
O 9.78428 11.0094 -3.00044
H 9.70791 11.7544 -2.33778
H 10.7388 10.9096 -3.2812
O -11.3216 -1.70737 -3.81395
H -12.0172 -2.38564 -4.05095
H -10.9391 -1.92226 -2.91538
O -1.27994 -9.75102 -14.3201
H -1.9825 -9.3108 -14.8792
H -0.381894 -9.38529 -14.5645
O 1.88025 2.92628 7.49321
H 2.8007 2.64845 7.21836
H 1.20505 2.41337 6.96313
O -8.08358 -10.0821 -13.8532
H -8.72593 -10.8281 -13.6776
H -7.89096 -9.59996 -12.9986
O -2.20426 -3.91587 -13.8138
H -2.51082 -3.07322 -14.2564
H -1.28887 -4.15028 -14.141
O -6.39896 -1.02632 -9.64112
H -6.80931 -1.93672 -9.58857
H -6.86718 -0.412485 -9.00555
O -11.3167 -14.8565 -0.295439
H -11.3616 14.4727 -1.14723
H -10.6918 14.5417 0.340449
O -13.5554 -7.17772 -1.10745
H -12.8393 -6.95625 -0.445529
H -13.236 -7.90686 -1.71265
O -1.76205 10.9132 -11.5924
H -0.910024 10.4127 -11.7457
H -1.5547 11.8707 -11.392
O 3.86058 1.62862 -4.03536
H 3.57952 1.43864 -3.09468
H 4.81154 1.93779 -4.04311
O -11.3994 9.77956 0.805187
H -10.6535 9.90745 1.45889
H -11.9883 9.03247 1.1134
O 5.43899 -2.07344 -12.8177
H 6.20172 -1.69215 -13.34
H 4.88321 -1.32899 -12.4477
O 2.65566 -8.50462 4.01804
H 2.77663 -7.51928 3.89783
H 3.2712 -8.83093 4.7354
O 9.04407 -5.04584 -14.027
H 8.07667 -5.26652 -14.1511
H 9.23118 -4.14087 -14.4091
O 7.2999 -0.0993171 -9.72938
H 6.45917 -0.484359 -9.34874
H 8.03414 -0.169368 -9.05414
O -12.5551 7.31578 2.02191
H -12.4899 6.86309 2.91118
H -11.7486 7.09263 1.4744
O -5.24105 2.04698 4.55065
H -6.07637 1.50198 4.62268
H -4.44774 1.43886 4.52204
O -3.53184 0.642104 -13.1059
H -3.7639 0.709694 -12.1356
H -3.78744 -0.262287 -13.4476
O 13.3223 -14.786 5.5308
H 14.0716 -14.5703 6.15685
H 13.6476 14.4346 4.82621
O -13.0026 6.0306 4.44767
H -13.9099 6.04446 4.86795
H -12.3093 6.21111 5.14532
O -5.96092 0.221399 0.636043
H -6.57367 0.890581 1.0564
H -5.26108 -0.0507008 1.29646
O -9.41203 3.10601 -8.6351
H -10.3377 3.01912 -8.26691
H -9.30784 4.00188 -9.06698
O 1.79629 -1.58427 5.61094
H 2.17405 -2.28005 6.2218
H 1.49313 -2.01576 4.76131
O -8.06959 -0.216849 -13.9392
H -7.72771 -0.027069 -14.8595
H -8.76307 0.460926 -13.6949
O -12.1474 3.52613 13.5316
H -11.3947 4.02674 13.1041
H -12.7749 4.17341 13.9643
O 13.4713 -8.33373 -1.83156
H 13.9196 -9.10924 -2.27605
H 14.1478 -7.80895 -1.31497
O 11.255 -14.0127 7.68485
H 11.8124 -14.1194 6.86147
H 11.4041 -13.1031 8.07268
O -5.02186 -5.90538 3.29575
H -4.5099 -5.7201 4.13451
H -5.38133 -6.83809 3.32383
O 5.49009 -12.4463 -2.33994
H 5.15565 -13.3242 -2.68252
H 4.96883 -11.7038 -2.76073
O 13.7201 13.5268 9.1197
H 14.2212 14.3548 8.86833
H 13.3264 13.1133 8.29873
O 7.82766 0.299391 13.6854
H 7.71466 -0.0549553 12.7572
H 7.15032 1.01557 13.8535
O -1.36944 -6.74222 -2.27055
H -2.24069 -7.13758 -2.56138
H -0.628994 -7.38394 -2.47034
O 11.9931 -4.47569 -7.52907
H 11.2931 -3.76159 -7.53762
H 11.557 -5.37093 -7.62069
O -11.4901 7.50837 -3.12466
H -11.4258 7.87489 -4.05283
H -10.78 7.92043 -2.55367
O -6.87331 7.21958 -1.54664
H -6.11081 7.21853 -2.1936
H -6.52641 7.06058 -0.622339
O 5.57862 -11.1513 11.3784
H 6.08277 -11.9888 11.5893
H 4.76249 -11.3785 10.8471
O -11.3284 11.4674 7.30263
H -11.8111 12.3048 7.04618
H -10.347 11.6515 7.35606
O -3.5978 -11.7316 -0.0451076
H -3.81691 -11.2219 0.786804
H -4.44389 -11.9767 -0.518434
O -10.6807 -4.77021 -2.67859
H -11.1939 -5.19018 -1.93011
H -11.2535 -4.73624 -3.49757
O -4.65605 12.4331 5.27509
H -4.13924 11.6339 4.96824
H -4.02314 13.1768 5.49034
O 9.69459 -1.73718 2.70191
H 8.71919 -1.95742 2.70911
H 9.98974 -1.5617 1.76273
O -9.61931 7.19323 10.7511
H -8.94435 6.54787 11.1087
H -9.35259 7.47851 9.83055
O 6.89436 -6.17997 4.67456
H 6.8128 -7.01918 5.21219
H 7.86109 -5.97292 4.52446
O 12.833 -8.11723 2.34193
H 12.5811 -9.00706 2.72234
H 13.8229 -8.08164 2.2045
O -8.00321 7.87956 8.50296
H -8.11836 8.01001 7.51823
H -7.4098 7.09172 8.66768
O 7.08038 6.72019 -9.10712
H 7.12673 6.8952 -10.0906
H 6.19571 7.02623 -8.75545
O 10.0149 -2.90414 9.40727
H 10.7909 -2.46676 8.95278
H 9.24222 -2.26987 9.43179
O 6.41746 8.77703 -3.01178
H 5.47321 8.77182 -3.34092
H 6.68128 7.85116 -2.74134
O 7.096 5.58784 1.08428
H 6.91871 4.60783 0.994191
H 7.03368 5.85071 2.04708
O 8.33112 -13.8886 -3.71881
H 7.57981 -13.4712 -4.2299
H 7.98557 -14.6667 -3.19427
O -0.611923 13.919 -1.66729
H -0.628619 13.2732 -0.90393
H -0.814168 14.8385 -1.33046
O -3.11751 12.0307 13.4707
H -3.6383 11.2267 13.7575
H -2.38439 11.7495 12.8515
O -7.61923 10.073 5.3391
H -7.44586 10.9343 5.81679
H -6.75052 9.67349 5.04638
O 7.49129 0.602366 -6.44654
H 7.69039 -0.341437 -6.1828
H 8.13339 0.892703 -7.15603
O -4.36528 -4.13311 -5.01188
H -5.03014 -4.33034 -4.29145
H -3.51176 -4.61726 -4.81939
O 13.7999 9.93232 -7.90338
H 13.8748 10.3059 -8.82794
H 12.8366 9.77873 -7.68298
O -14.1413 6.67738 -6.93085
H -13.742 5.84821 -7.32198
H -13.4199 7.22984 -6.51333
O -4.21079 -9.97129 -9.28649
H -5.14407 -10.0954 -9.62348
H -3.79812 -9.17723 -9.73275
O 12.22 -1.77089 8.01546
H 12.4701 -1.11405 7.30416
H 12.9976 -1.91072 8.6284
O 0.464585 4.01325 13.4229
H -0.353292 4.04162 12.8482
H 0.25673 4.40728 14.3182
O -5.313 5.12187 0.0448301
H -4.95753 4.5171 0.75747
H -5.96708 4.62082 -0.521825
O 9.71689 12.0788 -5.60422
H 9.45452 13.0235 -5.80073
H 9.79579 11.9536 -4.61524
O -9.54326 -11.8566 8.69625
H -8.93708 -11.1096 8.42329
H -9.04116 -12.7209 8.6671
O 12.5861 9.32973 0.89801
H 13.314 9.20419 1.57206
H 11.7047 9.10524 1.31357
O 9.55328 -0.00444319 -8.18305
H 9.82954 -0.852716 -7.7313
H 10.3635 0.547969 -8.37902
O 6.4953 11.3263 -9.3295
H 5.65149 10.8495 -9.08332
H 6.44777 11.6159 -10.2855
O -9.30223 -4.96652 -12.4372
H -8.71018 -4.71687 -11.671
H -9.84014 -4.1709 -12.7158
O 0.127681 -9.29724 4.46855
H 1.06148 -8.98271 4.29812
H -0.485448 -8.50893 4.51964
O -7.67815 10.2878 -12.1539
H -6.9587 9.63784 -12.3988
H -7.31979 11.2195 -12.2127
O 3.66452 10.0254 11.7037
H 3.93384 9.45206 10.93
H 4.44818 10.1549 12.3112
O 14.4611 0.0731688 14.4128
H 13.9998 0.8272 13.9453
H -14.4446 0.0114797 14.0934
O -6.04876 6.02816 -11.628
H -5.38759 6.37717 -10.9639
H -6.42198 6.78935 -12.1584
O 0.701131 -1.74701 -14.8065
H -0.109895 -1.17219 -14.915
H 1.45583 -1.36238 14.5133
O -13.3522 -3.52333 4.69623
H -12.823 -4.32069 4.40617
H -13.1956 -3.35544 5.6695
O 10.6592 -0.325851 4.91495
H 11.4154 -0.819771 5.34416
H 10.4304 -0.758953 4.04316
O 0.848948 10.6478 -14.5389
H 0.355087 11.4194 -14.138
H 0.668464 9.82243 -14.004
O -2.65022 7.57748 -4.75024
H -2.05853 6.78669 -4.9068
H -2.36138 8.33179 -5.33978
O 4.68235 3.44843 -0.626177
H 4.80254 2.45654 -0.667107
H 4.57774 3.81001 -1.55261
O 8.53475 3.79548 12.3423
H 9.22962 3.15675 12.012
H 8.70683 4.70284 11.9589
O -8.17108 0.523809 -8.11358
H -8.43327 1.41772 -8.47711
H -8.91825 0.157256 -7.55919
O 5.13633 14.3923 3.66932
H 5.23381 -14.8757 4.47576
H 6.03707 14.065 3.38384
O 7.38837 10.0844 -0.831064
H 6.9927 9.52559 -0.102236
H 7.08189 9.74028 -1.71856
O 10.3906 9.66051 -13.1318
H 9.59757 9.37866 -12.5917
H 10.2284 10.5711 -13.5118
O 14.6454 2.81588 9.17417
H -14.8809 3.67733 9.56444
H -14.7672 2.66492 8.28826
O -3.93978 11.7689 0.771205
H -4.43927 12.6211 0.615567
H -3.43639 11.8302 1.63306
O 10.1656 -9.70468 13.2799
H 9.24928 -10.1004 13.3411
H 10.2367 -8.92977 13.908
O -1.79858 5.40018 3.92486
H -1.65589 4.42911 3.73347
H -2.64066 5.70708 3.48138
O -5.84118 -8.66381 -6.72819
H -4.93218 -8.36784 -6.43476
H -5.81754 -8.89934 -7.69976
O -6.89697 -10.1487 10.4979
H -6.05588 -10.6365 10.2643
H -7.61255 -10.8087 10.7265
O 1.5009 -1.34762 11.4389
H 2.21719 -1.31774 10.7418
H 1.84938 -0.958732 12.2918
O -3.18845 -14.4435 -3.98262
H -3.53522 -13.5533 -3.68734
H -2.25791 -14.3391 -4.33353
O 9.22748 -0.110749 -11.4523
H 8.52185 0.0232002 -10.7565
H 9.98988 -0.624743 -11.0591
O -0.926845 -0.243515 9.95753
H -0.84106 -0.290539 8.96235
H -0.0996314 -0.612563 10.3812
O -1.38627 3.47326 6.21032
H -2.37398 3.58067 6.09692
H -1.12934 2.52675 6.01522
O 9.52964 1.60914 -1.01357
H 10.1602 2.35078 -1.24223
H 8.74987 1.97857 -0.508144
O 5.93765 10.1951 13.0573
H 6.69031 9.99615 12.4297
H 6.05753 11.1103 13.4421
O -13.5271 7.43197 -11.4457
H -14.2062 7.56451 -12.1676
H -13.9837 7.42313 -10.5561
O -0.510613 11.8768 7.51426
H -1.05568 12.3014 8.23718
H -1.01167 11.1008 7.13114
O 14.4477 5.29835 5.74085
H 14.5632 4.36637 6.0844
H 14.0107 5.86058 6.44292
O 14.6707 6.79963 -9.33993
H 13.9357 7.46869 -9.44981
H -14.8503 6.81916 -8.39621
O 10.3454 -6.60612 -7.73811
H 10.4498 -7.08585 -8.60926
H 10.7369 -7.16018 -7.00345
O 13.6208 12.365 -2.51665
H 13.9386 12.804 -3.35703
H 13.0919 11.5481 -2.74679
O -2.44649 -10.6978 -2.18045
H -2.92809 -11.0873 -1.39536
H -1.46968 -10.8982 -2.10517
O -4.22584 -11.8805 10.2238
H -4.63957 -12.3677 10.9928
H -3.25483 -12.1123 10.1659
O 9.25158 10.3382 -9.22647
H 9.68028 9.77553 -8.51965
H 8.45005 10.7988 -8.84522
O 12.1694 -13.9831 -4.68124
H 12.2136 -13.673 -3.73158
H 11.3416 -13.6229 -5.11134
O -2.60045 5.13785 -10.5136
H -1.96507 4.60886 -9.95112
H -2.88084 4.59173 -11.303
O -14.164 -5.53005 14.7086
H -13.4027 -5.31374 14.0974
H 14.8875 -5.78816 14.1665
O 4.76894 -4.17098 12.7629
H 5.59 -3.67689 13.0487
H 4.33124 -4.58107 13.563
O -11.169 -10.1336 -7.83399
H -12.0196 -10.63 -8.00722
H -11.0341 -9.44472 -8.54621
O -5.64383 8.6181 -12.802
H -4.67879 8.5663 -12.5451
H -5.7743 8.18932 -13.6959
O 4.49928 -0.363366 5.7017
H 5.37295 -0.80904 5.89674
H 3.77847 -1.05402 5.64346
O 14.83 -13.3054 -6.83767
H 14.1273 -13.5269 -7.51374
H 14.6531 -13.8131 -5.99449
O 3.311 12.8253 -11.2552
H 3.18982 12.5564 -12.2107
H 3.85266 13.6647 -11.2113
O 0.101545 5.90209 -12.887
H 0.918573 5.35813 -13.0782
H -0.677817 5.51823 -13.3822
O 3.86324 7.39493 -12.8141
H 3.95789 7.31661 -13.8065
H 3.85568 8.36078 -12.5552
O 10.0324 -12.8709 -5.59139
H 9.45744 -13.1257 -4.81391
H 9.4785 -12.3927 -6.27295
O -13.8761 11.0154 -12.4245
H -13.1911 11.4428 -13.0144
H -14.2098 10.1766 -12.8548
O 4.19978 -9.44375 6.00224
H 4.91604 -9.84273 5.42973
H 3.79241 -10.1574 6.57209
O 2.73638 -1.24406 -2.37647
H 2.16103 -0.495817 -2.70673
H 2.50605 -2.08371 -2.8683
O -14.4124 -0.534323 -8.83544
H -14.1606 -1.49177 -8.6946
H -14.8903 -0.192861 -8.02614
O 10.8839 0.0231279 -13.5844
H 10.9669 -0.8822 -14.0009
H 10.1774 0.00110224 -12.8771
O -1.7877 -1.34398 -8.3436
H -2.27819 -1.68268 -9.14651
H -0.806325 -1.32754 -8.53492
O 7.81525 -11.6666 5.31436
H 7.00296 -11.4977 4.75614
H 8.44525 -12.2611 4.81474
O 6.04344 11.3608 -12.5171
H 6.38712 12.1866 -12.9642
H 5.06411 11.2677 -12.6965
O -13.0551 10.8616 -4.32573
H -13.9242 11.0472 -4.78423
H -13.196 10.8516 -3.33577
O -0.135574 2.97581 -13.2109
H -0.462607 2.4364 -12.435
H 0.659274 3.51425 -12.9311
O 11.8578 -14.2397 -11.2594
H 12.6706 -14.6781 -10.8758
H 12.0574 -13.2793 -11.4537
O 2.33408 12.2687 -5.92081
H 1.79812 11.6661 -6.51207
H 2.18308 12.0179 -4.96463
O 1.89907 -0.052749 -6.1451
H 1.94172 0.944298 -6.08151
H 1.05822 -0.378632 -5.71297
O 11.6941 -5.86653 -4.0038
H 12.4854 -5.3277 -4.29263
H 11.5537 -5.75178 -3.02039
O 13.447 6.57414 8.61512
H 13.029 7.26645 9.2033
H 12.8153 5.8072 8.50225
O -6.90128 -5.58403 12.0558
H -7.19604 -4.63829 12.1923
H -6.89533 -6.06146 12.9344
O -4.26222 0.517045 -10.2604
H -4.26443 1.39879 -9.78873
H -5.16682 0.0972721 -10.1866
O 13.6577 -4.33991 4.88857
H 13.3326 -3.70734 5.59152
H 14.5891 -4.09192 4.62198
O 0.720904 -14.3961 -12.1784
H -0.0558105 -13.8358 -12.466
H 0.910962 -14.2307 -11.2106
O -2.26151 7.01723 6.27452
H -2.29357 6.81824 5.29506
H -1.38944 6.70345 6.65002
O -5.58613 -4.88967 -8.39522
H -5.62697 -4.23367 -7.64159
H -6.49521 -4.98979 -8.79959
O -5.70217 -11.2327 7.24115
H -5.23847 -11.6024 6.43599
H -6.0386 -11.9854 7.80697
O -3.86962 6.61771 2.32035
H -4.6104 6.02975 1.99552
H -3.68586 7.32829 1.64118
O 3.46684 -11.8934 7.15079
H 4.03656 -12.5034 6.6001
H 2.61478 -12.3589 7.39015
O 6.61373 -13.7491 11.9308
H 6.37537 -13.6534 12.8972
H 6.54237 -14.7101 11.6635
O -12.4219 9.35589 5.93942
H -12.1223 8.46593 6.28315
H -12.1919 10.0652 6.60575
O -2.00384 7.279 9.95435
H -2.86558 7.09282 10.4263
H -2.02077 6.85382 9.04942
O 5.00051 10.232 7.89684
H 4.39922 9.44192 8.01598
H 5.95085 9.92397 7.85284
O 13.6066 -3.98628 9.0422
H 13.8958 -4.43088 9.88993
H 12.7089 -4.33469 8.7726
O 9.17279 12.0289 5.92545
H 8.64434 12.8709 6.03409
H 9.62819 12.0337 5.03519
O 9.88988 6.44695 -5.0078
H 9.31763 7.22492 -5.26714
H 10.5382 6.73088 -4.30134
O -6.90014 -10.6994 2.53102
H -7.08191 -11.6336 2.83803
H -7.72312 -10.322 2.10649
O 8.3719 12.7547 10.1156
H 8.14127 11.7967 10.286
H 9.26287 12.8079 9.66471
O -7.9273 -0.954456 -4.48227
H -7.57599 -1.36343 -5.32446
H -7.82361 0.0391841 -4.52578
O -12.7092 -8.4357 10.5294
H -12.1647 -9.2733 10.486
H -12.6031 -8.01553 11.4306
O -4.63898 3.44808 -8.24136
H -5.26593 4.17628 -8.51816
H -5.14522 2.7436 -7.74395
O 9.89245 14.7501 -9.7169
H 9.04503 14.5207 -10.1956
H 10.599 -14.8655 -10.3842
O -11.0718 12.9147 -9.88064
H -11.3101 13.8675 -9.69242
H -11.7528 12.3123 -9.46418
O 12.3326 2.88099 7.43801
H 12.2444 2.26685 6.65378
H 12.5071 2.3444 8.2636
O 9.1874 7.56931 -7.37663
H 9.83718 6.81026 -7.41657
H 8.4714 7.43149 -8.06097
O -8.6952 10.5006 9.68166
H -8.87186 11.0814 8.88699
H -8.24484 9.65837 9.38546
O -2.36838 -0.244918 6.3501
H -3.2971 0.0212389 6.60816
H -2.26237 -1.23324 6.45937
O -9.38439 8.77942 -1.61814
H -8.60667 8.15211 -1.65822
H -9.76306 8.78215 -0.69263
O -3.30782 13.21 -2.53077
H -3.27181 14.0059 -3.1351
H -2.59622 13.2891 -1.83268
O 8.97453 2.07933 8.69468
H 9.57474 1.74759 9.42247
H 8.83554 3.06398 8.80016
O 4.82948 12.833 8.87906
H 4.90238 11.8809 8.58219
H 5.51885 13.3829 8.4075
O -6.67321 11.5217 -1.71579
H -6.9204 10.6923 -2.21676
H -5.96678 12.0179 -2.2205
O -7.73884 -3.09632 12.7277
H -7.30972 -2.41171 12.1385
H -8.71179 -3.16347 12.5067
O 6.40042 -8.55685 -12.5761
H 6.93269 -8.37309 -11.7498
H 5.65 -9.18055 -12.3574
O 7.40268 -2.85366 4.44074
H 6.62733 -3.23472 4.94432
H 8.21534 -3.41194 4.60765
O -13.5738 -14.0806 1.1349
H -13.6593 -13.0857 1.08172
H -12.7212 -14.3657 0.696859
O -5.59984 -4.92448 -11.079
H -6.33813 -4.25188 -11.1291
H -5.32392 -5.04618 -10.1256
O -7.14692 -13.2901 3.39319
H -7.56231 -13.1537 4.29253
H -6.55151 -14.0931 3.41936
O -3.0756 14.413 6.18173
H -2.99006 14.8129 7.09427
H -2.29358 14.6882 5.62257
O 6.0453 -10.9703 -7.42268
H 5.88577 -9.99656 -7.58494
H 5.68082 -11.4999 -8.18859
O 12.3296 10.4046 -3.99663
H 13.1124 10.6502 -4.56839
H 12.6313 9.79808 -3.26108
O -3.17694 -7.90556 -5.99794
H -2.58995 -7.0961 -6.01105
H -2.61254 -8.72498 -5.89809
O -4.50189 5.75937 -13.8294
H -4.84069 6.56091 -14.3221
H -4.93636 5.71275 -12.93
O -4.69165 10.1215 14.5456
H -5.63329 9.89685 14.2949
H -4.66703 10.4476 -14.3607
O -13.6035 -11.2415 -8.32616
H -13.9955 -12.0138 -7.82621
H -14.3004 -10.5347 -8.44753
O -6.37475 -8.15559 -2.79842
H -6.06479 -7.68299 -1.97347
H -7.15284 -7.66526 -3.19101
O 8.44668 -12.6165 9.14229
H 8.95127 -12.7411 9.99659
H 7.58664 -13.1248 9.18598
O 0.945383 -13.5787 -9.69569
H 0.561492 -14.2253 -9.0365
H 0.846569 -12.6474 -9.34531
O -7.46968 13.6826 14.8723
H -8.19479 14.269 -14.6179
H -6.66633 14.2387 14.6594
O 7.74834 -5.07557 -10.3816
H 7.12372 -4.45143 -10.851
H 8.59003 -5.16733 -10.9137
O 11.3972 12.4974 11.4998
H 11.4758 12.7378 10.5323
H 10.951 13.2439 11.9935
O 6.89433 -0.551626 -0.0291
H 7.40691 -1.24819 -0.531121
H 6.66883 -0.895904 0.882265
O -8.32308 -3.0065 -7.6538
H -8.77484 -3.68694 -7.07684
H -7.42768 -2.7841 -7.2681
O 8.83907 2.72255 -12.8666
H 9.03485 2.97632 -13.8138
H 7.98429 2.20489 -12.8301
O -14.2458 12.2134 -0.323473
H -13.3005 12.1874 -0.648713
H -14.8685 12.1553 -1.10377
O -5.17825 -1.732 -12.9281
H -5.13087 -2.36805 -13.6982
H -6.13432 -1.50788 -12.7392
O 9.64995 3.96154 -6.23459
H 9.71745 4.86764 -5.817
H 8.69459 3.66616 -6.23741
O -14.891 1.11824 5.10983
H 14.1101 1.41239 4.67295
H -14.5443 0.301667 4.64834
O -7.05453 12.9533 -12.1165
H -7.62686 12.7076 -11.3342
H -7.60899 13.4305 -12.7983
O 4.79015 4.8092 -3.09977
H 4.9072 4.69737 -4.08656
H 5.62184 5.20255 -2.70794
O -1.50664 3.80768 -1.97773
H -1.61521 4.02118 -1.00686
H -0.861563 3.0508 -2.08245
O 13.1471 -1.39992 5.27708
H 13.5473 -1.17452 4.38884
H 13.8764 -1.61572 5.92623
O -6.34784 7.37641 14.2925
H -6.31312 6.4045 14.0598
H -6.87655 7.8664 13.5994
O 14.6662 -1.37803 -4.79417
H 14.5983 -0.768246 -4.00453
H 14.6216 -0.839777 -5.63575
O -5.57196 14.363 0.836859
H -5.90655 14.8964 0.0600069
H -4.79112 14.8308 1.25083
O 13.3933 10.5246 10.602
H 13.0313 11.425 10.8435
H 14.2551 10.6338 10.1067
O 9.27364 -3.47223 13.1226
H 8.30519 -3.33133 13.3281
H 9.37361 -4.25496 12.5083
O 10.2534 8.72378 2.27672
H 9.99263 8.64189 3.23863
H 9.91701 7.92914 1.77138
O -11.5829 6.51217 6.70627
H -11.7839 6.59942 7.68194
H -10.6135 6.69967 6.54761
O -0.348935 -14.88 2.75005
H -0.015427 -14.0521 2.29927
H -0.682314 -14.6505 3.66445
O -2.31323 -11.9599 -10.3772
H -1.40815 -11.5503 -10.4912
H -2.952 -11.2684 -10.04
O -1.55882 -9.90545 11.3935
H -0.664522 -10.1147 11.789
H -2.06114 -9.29747 12.0083
O 7.1966 -0.565338 6.19542
H 7.53365 0.344812 5.95461
H 7.66485 -1.25206 5.63943
O 0.866531 8.12874 -6.48615
H 1.03589 7.17202 -6.72271
H 0.254604 8.53638 -7.16389
O -10.9722 -12.7252 -10.4149
H -9.97607 -12.7633 -10.4937
H -11.26 -13.2092 -9.58858
O 4.65444 2.44555 11.6566
H 4.65107 1.8142 10.8811
H 4.47382 3.37379 11.3314
O -9.77733 11.1087 -2.83313
H -8.98726 11.7066 -2.69805
H -9.61868 10.2369 -2.36969
O -8.68276 7.68841 6.0094
H -8.11563 7.04507 5.49517
H -8.5275 8.61566 5.66873
O -8.50135 12.5848 11.555
H -8.71572 11.9471 10.8152
H -8.63226 12.1296 12.4358
O -8.77009 13.8321 -3.40513
H -9.20647 13.4988 -4.24087
H -7.78298 13.6827 -3.46216
O -7.55286 -7.46175 10.0141
H -7.62574 -6.81453 10.7728
H -7.42827 -8.38593 10.3751
O -10.0431 -6.70052 -8.62619
H -10.4427 -5.92903 -9.12131
H -10.2797 -7.55356 -9.09131
O -4.29204 7.16947 -8.38358
H -3.64948 7.29287 -9.1398
H -3.82527 6.72567 -7.61864
O -4.22511 13.7187 -8.49574
H -4.02477 12.8239 -8.89482
H -3.79204 14.4332 -9.04516
O -2.4101 10.9588 -3.73492
H -2.94987 11.7313 -3.40046
H -2.26226 10.3082 -2.99008
O 9.05666 -5.95293 -4.8135
H 10.0252 -6.01518 -4.57267
H 8.96222 -5.5023 -5.70118
O -11.403 -10.9663 10.8999
H -10.8965 -10.7687 11.7392
H -10.7993 -11.4218 10.2457
O 1.58414 6.3504 -10.3853
H 1.11397 6.33282 -11.2676
H 0.997273 5.9411 -9.68667
O 10.3042 -7.41971 -10.2472
H 9.30885 -7.38384 -10.1576
H 10.5719 -7.05497 -11.139
O -12.2767 -9.36311 0.168156
H -11.8576 -10.1344 -0.310818
H -11.6386 -8.59337 0.182995
O 1.50247 -9.20888 -14.741
H 1.925 -9.85253 14.4722
H 2.21552 -8.73688 -14.2226
O -2.86406 -1.94066 -4.04373
H -3.43653 -2.74704 -4.19203
H -3.17032 -1.46114 -3.22139
O 4.32321 12.8724 13.4767
H 3.41879 12.8811 13.0502
H 5.02595 12.823 12.767
O 14.2639 9.73684 6.69509
H 14.1955 8.7414 6.629
H 14.8369 10.0816 5.95158
O -1.69131 -11.4145 3.94721
H -0.970613 -10.7942 4.25668
H -1.97376 -11.162 3.02178
O 11.6466 -8.3734 -5.94435
H 12.3306 -9.09771 -5.85831
H 11.4445 -7.99671 -5.04035
O 0.953546 -7.99847 -2.1719
H 0.989379 -8.89503 -2.61333
H 1.27664 -8.07808 -1.22891
O -4.35924 11.837 9.48938
H -4.25847 10.9466 9.93318
H -3.55188 12.3963 9.67725
O -7.46007 -13.2012 14.6319
H -6.51212 -13.0531 14.9137
H -7.96962 -13.6201 -14.4678
O -1.52337 -8.11942 2.12076
H -1.38635 -7.36068 1.48397
H -1.29797 -8.98104 1.66604
O 6.41455 -12.5634 1.06517
H 6.4102 -11.5724 0.93085
H 5.6477 -12.8236 1.65185
O 10.5106 -8.56208 5.25444
H 10.7414 -8.53976 6.22717
H 10.8532 -7.7336 4.8115
O 3.24877 9.73088 -11.523
H 2.46013 9.31796 -11.0675
H 3.56437 10.5187 -10.9941
O 4.67498 0.512405 2.46848
H 5.22904 1.19421 1.99085
H 4.65452 0.724597 3.44547
O 5.38036 3.04092 1.88893
H 4.93983 3.0562 0.991343
H 4.6817 3.07211 2.60369
O -10.2272 2.69487 8.4692
H -11.1913 2.43654 8.53087
H -9.87801 2.90009 9.38348
O -11.9224 9.20456 9.30935
H -11.0054 9.59936 9.36721
H -12.5778 9.9186 9.06326
O -9.83338 10.3732 -13.6677
H -9.0534 10.4597 -13.048
H -10.3628 9.56014 -13.4257
O -13.9654 -14.0192 -10.3568
H -14.338 14.9215 -10.5359
H -13.323 -14.0665 -9.59187
O 11.0212 4.14185 -0.0986967
H 11.2942 4.01669 -1.05252
H 10.4568 4.96342 -0.0186001
O -3.37927 14.0266 -14.3498
H -3.26769 13.4784 14.6725
H -3.08308 13.495 -13.5563
O 6.80958 -12.1074 -10.1769
H 7.4545 -12.4764 -10.8461
H 6.57452 -12.8179 -9.51361
O 1.89526 3.0199 10.2051
H 1.70442 2.75137 9.26099
H 2.41013 2.29368 10.6606
O 10.4841 -2.06367 -6.51955
H 9.54002 -2.26729 -6.26016
H 10.8964 -1.46447 -5.83334
O 11.9007 3.63219 2.29126
H 11.3492 3.83563 1.48233
H 12.5405 4.38288 2.45584
O 3.44675 11.4559 -13.7172
H 2.97905 11.4092 -14.5998
H 3.13781 10.7031 -13.136
O 13.4566 9.1158 -1.79896
H 14.4524 9.20707 -1.80741
H 13.117 9.25521 -0.868797
O -8.11247 -0.901477 2.59992
H -7.85537 -1.18491 1.67605
H -8.97648 -0.399164 2.56614
O -8.1198 12.5001 -7.13641
H -8.61547 11.9159 -6.49374
H -7.14159 12.2996 -7.08281
O -5.20384 9.31359 4.13507
H -5.28668 8.3959 3.74654
H -4.24357 9.59253 4.12934
O 9.38874 14.4736 -6.81179
H 9.60789 14.2932 -7.77064
H 9.8456 -14.5381 -6.5177
O -7.19208 0.410684 5.11103
H -7.37116 -0.275519 4.40603
H -7.98042 0.473358 5.72305
O -4.26336 -2.28609 4.66713
H -3.77148 -2.53342 5.50191
H -5.24727 -2.29309 4.84555
O -13.3383 -7.29163 -7.83935
H -12.4431 -7.08489 -7.4446
H -13.8064 -6.43834 -8.06909
O -3.14838 4.91674 12.4552
H -2.73961 5.07134 13.3547
H -2.44273 4.60946 11.8168
O -0.336773 9.37126 3.18518
H -0.747783 9.15228 2.30026
H 0.603155 9.68377 3.04794
O -5.13513 -0.113933 6.8612
H -5.56588 -0.651601 7.586
H -5.82624 0.155795 6.19069
O 6.20303 -1.435 -3.62511
H 7.15302 -1.46325 -3.31414
H 5.59703 -1.67804 -2.86771
O -0.65264 -10.1592 -11.4246
H 0.23007 -9.8571 -11.0647
H -0.70066 -9.95709 -12.4028
O -9.90426 1.80331 -13.1674
H -9.43404 2.13207 -12.3484
H -10.8346 2.16932 -13.1871
O -5.8671 -12.7107 -1.57253
H -5.50669 -12.6587 -2.50385
H -6.54101 -13.4474 -1.51661
O 0.629282 14.3225 12.8383
H 1.003 14.6354 11.9652
H 1.0123 13.4265 13.0629
O -12.9603 13.6798 9.78762
H -12.4742 13.9663 8.962
H -12.7119 14.2819 10.5464
O 11.6737 -1.03494 -10.8614
H 12.3236 -0.286052 -10.9911
H 12.1707 -1.90053 -10.7998
O 12.5519 13.7492 -13.8157
H 13.0339 14.4734 -14.3088
H 13.1457 13.3809 -13.1003
O -7.10058 -13.6494 -8.59325
H -7.98253 -13.5695 -8.12877
H -6.43708 -14.0748 -7.97778
O 12.8102 11.997 14.0309
H 12.6589 12.637 14.7842
H 12.4268 12.3766 13.189
O -3.4069 -2.20867 -10.482
H -3.84471 -1.34685 -10.226
H -3.64847 -2.43805 -11.4249
O -8.9796 10.652 2.31513
H -8.77963 10.1456 3.1539
H -8.15098 10.7163 1.75904
O -11.0794 -7.07458 -12.8587
H -11.9347 -6.56413 -12.7707
H -10.3076 -6.43928 -12.8303
O 3.78469 -13.1224 2.73349
H 3.83763 -14.1077 2.89586
H 2.98888 -12.7484 3.20971
O -5.7869 -6.06238 -0.740765
H -4.89082 -5.95539 -0.309998
H -6.41808 -6.49178 -0.0948617
O 8.10135 14.2637 14.8364
H 8.55944 14.9004 -14.3945
H 7.21547 14.0035 -14.6308
O -13.193 12.6812 2.3458
H -13.569 12.6376 1.42022
H -13.7051 12.0638 2.94298
O -0.663757 4.18585 10.9133
H 0.277125 3.84909 10.8773
H -1.21331 3.71395 10.2239
O -7.23272 1.46602 13.7942
H -8.05521 1.22467 13.2792
H -6.46184 1.56319 13.1648
O 12.4868 -10.6967 6.58216
H 11.6746 -11.2763 6.64776
H 12.7325 -10.3629 7.4922
O -1.15283 -5.2484 13.378
H -1.1184 -6.04694 12.7771
H -1.15169 -4.41504 12.8253
O -2.44208 10.6892 -6.74529
H -3.18664 10.493 -6.10723
H -1.76071 11.2663 -6.29514
O 10.2439 -7.32422 0.841663
H 10.1863 -7.63291 -0.107737
H 11.1103 -7.62716 1.23867
O 10.3025 14.4375 13.1108
H 9.40694 14.1544 13.454
H 10.6985 -14.7368 13.7313
O 7.00491 10.5814 4.72148
H 7.8894 10.9314 5.02994