Brush input 0.01

3602 atoms
1764 bonds

3 atom types
1 bond types
0 angle types

0 60 xlo xhi
0 60 ylo yhi
0 75 zlo zhi

Masses

1 1.0
2 1.0
3 1.0

Atoms
# atom_id, molecule_id, atom_type, charge, x, y, z 
1 1 1 -1 5.0 5.0 0.5
2 1 1 -1 5.0 5.0 1.62246204831
3 1 1 -1 5.0 5.0 2.74492409662
4 1 1 -1 5.0 5.0 3.86738614493
5 1 1 -1 5.0 5.0 4.98984819324
6 1 1 -1 5.0 5.0 6.11231024155
7 1 1 -1 5.0 5.0 7.23477228986
8 1 1 -1 5.0 5.0 8.35723433817
9 1 1 -1 5.0 5.0 9.47969638647
10 1 1 -1 5.0 5.0 10.6021584348
11 1 1 -1 5.0 5.0 11.7246204831
12 1 1 -1 5.0 5.0 12.8470825314
13 1 1 -1 5.0 5.0 13.9695445797
14 1 1 -1 5.0 5.0 15.092006628
15 1 1 -1 5.0 5.0 16.2144686763
16 1 1 -1 5.0 5.0 17.3369307246
17 1 1 -1 5.0 5.0 18.4593927729
18 1 1 -1 5.0 5.0 19.5818548213
19 1 1 -1 5.0 5.0 20.7043168696
20 1 1 -1 5.0 5.0 21.8267789179
21 1 1 -1 5.0 5.0 22.9492409662
22 1 1 -1 5.0 5.0 24.0717030145
23 1 1 -1 5.0 5.0 25.1941650628
24 1 1 -1 5.0 5.0 26.3166271111
25 1 1 -1 5.0 5.0 27.4390891594
26 1 1 -1 5.0 5.0 28.5615512077
27 1 1 -1 5.0 5.0 29.684013256
28 1 1 -1 5.0 5.0 30.8064753044
29 1 1 -1 5.0 5.0 31.9289373527
30 1 1 -1 5.0 5.0 33.051399401
31 1 1 -1 5.0 5.0 34.1738614493
32 1 1 -1 5.0 5.0 35.2963234976
33 1 1 -1 5.0 5.0 36.4187855459
34 1 1 -1 5.0 5.0 37.5412475942
35 1 1 -1 5.0 5.0 38.6637096425
36 1 1 -1 5.0 5.0 39.7861716908
37 1 1 -1 5.0 5.0 40.9086337391
38 1 1 -1 5.0 5.0 42.0310957874
39 1 1 -1 5.0 5.0 43.1535578358
40 1 1 -1 5.0 5.0 44.2760198841
41 1 1 -1 5.0 5.0 45.3984819324
42 1 1 -1 5.0 5.0 46.5209439807
43 1 1 -1 5.0 5.0 47.643406029
44 1 1 -1 5.0 5.0 48.7658680773
45 1 1 -1 5.0 5.0 49.8883301256
46 1 1 -1 5.0 5.0 51.0107921739
47 1 1 -1 5.0 5.0 52.1332542222
48 1 1 -1 5.0 5.0 53.2557162705
49 1 1 -1 5.0 5.0 54.3781783188
50 1 1 -1 5.0 5.0 55.5006403672
51 2 1 -1 5.0 15.0 0.5
52 2 1 -1 5.0 15.0 1.62246204831
53 2 1 -1 5.0 15.0 2.74492409662
54 2 1 -1 5.0 15.0 3.86738614493
55 2 1 -1 5.0 15.0 4.98984819324
56 2 1 -1 5.0 15.0 6.11231024155
57 2 1 -1 5.0 15.0 7.23477228986
58 2 1 -1 5.0 15.0 8.35723433817
59 2 1 -1 5.0 15.0 9.47969638647
60 2 1 -1 5.0 15.0 10.6021584348
61 2 1 -1 5.0 15.0 11.7246204831
62 2 1 -1 5.0 15.0 12.8470825314
63 2 1 -1 5.0 15.0 13.9695445797
64 2 1 -1 5.0 15.0 15.092006628
65 2 1 -1 5.0 15.0 16.2144686763
66 2 1 -1 5.0 15.0 17.3369307246
67 2 1 -1 5.0 15.0 18.4593927729
68 2 1 -1 5.0 15.0 19.5818548213
69 2 1 -1 5.0 15.0 20.7043168696
70 2 1 -1 5.0 15.0 21.8267789179
71 2 1 -1 5.0 15.0 22.9492409662
72 2 1 -1 5.0 15.0 24.0717030145
73 2 1 -1 5.0 15.0 25.1941650628
74 2 1 -1 5.0 15.0 26.3166271111
75 2 1 -1 5.0 15.0 27.4390891594
76 2 1 -1 5.0 15.0 28.5615512077
77 2 1 -1 5.0 15.0 29.684013256
78 2 1 -1 5.0 15.0 30.8064753044
79 2 1 -1 5.0 15.0 31.9289373527
80 2 1 -1 5.0 15.0 33.051399401
81 2 1 -1 5.0 15.0 34.1738614493
82 2 1 -1 5.0 15.0 35.2963234976
83 2 1 -1 5.0 15.0 36.4187855459
84 2 1 -1 5.0 15.0 37.5412475942
85 2 1 -1 5.0 15.0 38.6637096425
86 2 1 -1 5.0 15.0 39.7861716908
87 2 1 -1 5.0 15.0 40.9086337391
88 2 1 -1 5.0 15.0 42.0310957874
89 2 1 -1 5.0 15.0 43.1535578358
90 2 1 -1 5.0 15.0 44.2760198841
91 2 1 -1 5.0 15.0 45.3984819324
92 2 1 -1 5.0 15.0 46.5209439807
93 2 1 -1 5.0 15.0 47.643406029
94 2 1 -1 5.0 15.0 48.7658680773
95 2 1 -1 5.0 15.0 49.8883301256
96 2 1 -1 5.0 15.0 51.0107921739
97 2 1 -1 5.0 15.0 52.1332542222
98 2 1 -1 5.0 15.0 53.2557162705
99 2 1 -1 5.0 15.0 54.3781783188
100 2 1 -1 5.0 15.0 55.5006403672
101 3 1 -1 5.0 25.0 0.5
102 3 1 -1 5.0 25.0 1.62246204831
103 3 1 -1 5.0 25.0 2.74492409662
104 3 1 -1 5.0 25.0 3.86738614493
105 3 1 -1 5.0 25.0 4.98984819324
106 3 1 -1 5.0 25.0 6.11231024155
107 3 1 -1 5.0 25.0 7.23477228986
108 3 1 -1 5.0 25.0 8.35723433817
109 3 1 -1 5.0 25.0 9.47969638647
110 3 1 -1 5.0 25.0 10.6021584348
111 3 1 -1 5.0 25.0 11.7246204831
112 3 1 -1 5.0 25.0 12.8470825314
113 3 1 -1 5.0 25.0 13.9695445797
114 3 1 -1 5.0 25.0 15.092006628
115 3 1 -1 5.0 25.0 16.2144686763
116 3 1 -1 5.0 25.0 17.3369307246
117 3 1 -1 5.0 25.0 18.4593927729
118 3 1 -1 5.0 25.0 19.5818548213
119 3 1 -1 5.0 25.0 20.7043168696
120 3 1 -1 5.0 25.0 21.8267789179
121 3 1 -1 5.0 25.0 22.9492409662
122 3 1 -1 5.0 25.0 24.0717030145
123 3 1 -1 5.0 25.0 25.1941650628
124 3 1 -1 5.0 25.0 26.3166271111
125 3 1 -1 5.0 25.0 27.4390891594
126 3 1 -1 5.0 25.0 28.5615512077
127 3 1 -1 5.0 25.0 29.684013256
128 3 1 -1 5.0 25.0 30.8064753044
129 3 1 -1 5.0 25.0 31.9289373527
130 3 1 -1 5.0 25.0 33.051399401
131 3 1 -1 5.0 25.0 34.1738614493
132 3 1 -1 5.0 25.0 35.2963234976
133 3 1 -1 5.0 25.0 36.4187855459
134 3 1 -1 5.0 25.0 37.5412475942
135 3 1 -1 5.0 25.0 38.6637096425
136 3 1 -1 5.0 25.0 39.7861716908
137 3 1 -1 5.0 25.0 40.9086337391
138 3 1 -1 5.0 25.0 42.0310957874
139 3 1 -1 5.0 25.0 43.1535578358
140 3 1 -1 5.0 25.0 44.2760198841
141 3 1 -1 5.0 25.0 45.3984819324
142 3 1 -1 5.0 25.0 46.5209439807
143 3 1 -1 5.0 25.0 47.643406029
144 3 1 -1 5.0 25.0 48.7658680773
145 3 1 -1 5.0 25.0 49.8883301256
146 3 1 -1 5.0 25.0 51.0107921739
147 3 1 -1 5.0 25.0 52.1332542222
148 3 1 -1 5.0 25.0 53.2557162705
149 3 1 -1 5.0 25.0 54.3781783188
150 3 1 -1 5.0 25.0 55.5006403672
151 4 1 -1 5.0 35.0 0.5
152 4 1 -1 5.0 35.0 1.62246204831
153 4 1 -1 5.0 35.0 2.74492409662
154 4 1 -1 5.0 35.0 3.86738614493
155 4 1 -1 5.0 35.0 4.98984819324
156 4 1 -1 5.0 35.0 6.11231024155
157 4 1 -1 5.0 35.0 7.23477228986
158 4 1 -1 5.0 35.0 8.35723433817
159 4 1 -1 5.0 35.0 9.47969638647
160 4 1 -1 5.0 35.0 10.6021584348
161 4 1 -1 5.0 35.0 11.7246204831
162 4 1 -1 5.0 35.0 12.8470825314
163 4 1 -1 5.0 35.0 13.9695445797
164 4 1 -1 5.0 35.0 15.092006628
165 4 1 -1 5.0 35.0 16.2144686763
166 4 1 -1 5.0 35.0 17.3369307246
167 4 1 -1 5.0 35.0 18.4593927729
168 4 1 -1 5.0 35.0 19.5818548213
169 4 1 -1 5.0 35.0 20.7043168696
170 4 1 -1 5.0 35.0 21.8267789179
171 4 1 -1 5.0 35.0 22.9492409662
172 4 1 -1 5.0 35.0 24.0717030145
173 4 1 -1 5.0 35.0 25.1941650628
174 4 1 -1 5.0 35.0 26.3166271111
175 4 1 -1 5.0 35.0 27.4390891594
176 4 1 -1 5.0 35.0 28.5615512077
177 4 1 -1 5.0 35.0 29.684013256
178 4 1 -1 5.0 35.0 30.8064753044
179 4 1 -1 5.0 35.0 31.9289373527
180 4 1 -1 5.0 35.0 33.051399401
181 4 1 -1 5.0 35.0 34.1738614493
182 4 1 -1 5.0 35.0 35.2963234976
183 4 1 -1 5.0 35.0 36.4187855459
184 4 1 -1 5.0 35.0 37.5412475942
185 4 1 -1 5.0 35.0 38.6637096425
186 4 1 -1 5.0 35.0 39.7861716908
187 4 1 -1 5.0 35.0 40.9086337391
188 4 1 -1 5.0 35.0 42.0310957874
189 4 1 -1 5.0 35.0 43.1535578358
190 4 1 -1 5.0 35.0 44.2760198841
191 4 1 -1 5.0 35.0 45.3984819324
192 4 1 -1 5.0 35.0 46.5209439807
193 4 1 -1 5.0 35.0 47.643406029
194 4 1 -1 5.0 35.0 48.7658680773
195 4 1 -1 5.0 35.0 49.8883301256
196 4 1 -1 5.0 35.0 51.0107921739
197 4 1 -1 5.0 35.0 52.1332542222
198 4 1 -1 5.0 35.0 53.2557162705
199 4 1 -1 5.0 35.0 54.3781783188
200 4 1 -1 5.0 35.0 55.5006403672
201 5 1 -1 5.0 45.0 0.5
202 5 1 -1 5.0 45.0 1.62246204831
203 5 1 -1 5.0 45.0 2.74492409662
204 5 1 -1 5.0 45.0 3.86738614493
205 5 1 -1 5.0 45.0 4.98984819324
206 5 1 -1 5.0 45.0 6.11231024155
207 5 1 -1 5.0 45.0 7.23477228986
208 5 1 -1 5.0 45.0 8.35723433817
209 5 1 -1 5.0 45.0 9.47969638647
210 5 1 -1 5.0 45.0 10.6021584348
211 5 1 -1 5.0 45.0 11.7246204831
212 5 1 -1 5.0 45.0 12.8470825314
213 5 1 -1 5.0 45.0 13.9695445797
214 5 1 -1 5.0 45.0 15.092006628
215 5 1 -1 5.0 45.0 16.2144686763
216 5 1 -1 5.0 45.0 17.3369307246
217 5 1 -1 5.0 45.0 18.4593927729
218 5 1 -1 5.0 45.0 19.5818548213
219 5 1 -1 5.0 45.0 20.7043168696
220 5 1 -1 5.0 45.0 21.8267789179
221 5 1 -1 5.0 45.0 22.9492409662
222 5 1 -1 5.0 45.0 24.0717030145
223 5 1 -1 5.0 45.0 25.1941650628
224 5 1 -1 5.0 45.0 26.3166271111
225 5 1 -1 5.0 45.0 27.4390891594
226 5 1 -1 5.0 45.0 28.5615512077
227 5 1 -1 5.0 45.0 29.684013256
228 5 1 -1 5.0 45.0 30.8064753044
229 5 1 -1 5.0 45.0 31.9289373527
230 5 1 -1 5.0 45.0 33.051399401
231 5 1 -1 5.0 45.0 34.1738614493
232 5 1 -1 5.0 45.0 35.2963234976
233 5 1 -1 5.0 45.0 36.4187855459
234 5 1 -1 5.0 45.0 37.5412475942
235 5 1 -1 5.0 45.0 38.6637096425
236 5 1 -1 5.0 45.0 39.7861716908
237 5 1 -1 5.0 45.0 40.9086337391
238 5 1 -1 5.0 45.0 42.0310957874
239 5 1 -1 5.0 45.0 43.1535578358
240 5 1 -1 5.0 45.0 44.2760198841
241 5 1 -1 5.0 45.0 45.3984819324
242 5 1 -1 5.0 45.0 46.5209439807
243 5 1 -1 5.0 45.0 47.643406029
244 5 1 -1 5.0 45.0 48.7658680773
245 5 1 -1 5.0 45.0 49.8883301256
246 5 1 -1 5.0 45.0 51.0107921739
247 5 1 -1 5.0 45.0 52.1332542222
248 5 1 -1 5.0 45.0 53.2557162705
249 5 1 -1 5.0 45.0 54.3781783188
250 5 1 -1 5.0 45.0 55.5006403672
251 6 1 -1 5.0 55.0 0.5
252 6 1 -1 5.0 55.0 1.62246204831
253 6 1 -1 5.0 55.0 2.74492409662
254 6 1 -1 5.0 55.0 3.86738614493
255 6 1 -1 5.0 55.0 4.98984819324
256 6 1 -1 5.0 55.0 6.11231024155
257 6 1 -1 5.0 55.0 7.23477228986
258 6 1 -1 5.0 55.0 8.35723433817
259 6 1 -1 5.0 55.0 9.47969638647
260 6 1 -1 5.0 55.0 10.6021584348
261 6 1 -1 5.0 55.0 11.7246204831
262 6 1 -1 5.0 55.0 12.8470825314
263 6 1 -1 5.0 55.0 13.9695445797
264 6 1 -1 5.0 55.0 15.092006628
265 6 1 -1 5.0 55.0 16.2144686763
266 6 1 -1 5.0 55.0 17.3369307246
267 6 1 -1 5.0 55.0 18.4593927729
268 6 1 -1 5.0 55.0 19.5818548213
269 6 1 -1 5.0 55.0 20.7043168696
270 6 1 -1 5.0 55.0 21.8267789179
271 6 1 -1 5.0 55.0 22.9492409662
272 6 1 -1 5.0 55.0 24.0717030145
273 6 1 -1 5.0 55.0 25.1941650628
274 6 1 -1 5.0 55.0 26.3166271111
275 6 1 -1 5.0 55.0 27.4390891594
276 6 1 -1 5.0 55.0 28.5615512077
277 6 1 -1 5.0 55.0 29.684013256
278 6 1 -1 5.0 55.0 30.8064753044
279 6 1 -1 5.0 55.0 31.9289373527
280 6 1 -1 5.0 55.0 33.051399401
281 6 1 -1 5.0 55.0 34.1738614493
282 6 1 -1 5.0 55.0 35.2963234976
283 6 1 -1 5.0 55.0 36.4187855459
284 6 1 -1 5.0 55.0 37.5412475942
285 6 1 -1 5.0 55.0 38.6637096425
286 6 1 -1 5.0 55.0 39.7861716908
287 6 1 -1 5.0 55.0 40.9086337391
288 6 1 -1 5.0 55.0 42.0310957874
289 6 1 -1 5.0 55.0 43.1535578358
290 6 1 -1 5.0 55.0 44.2760198841
291 6 1 -1 5.0 55.0 45.3984819324
292 6 1 -1 5.0 55.0 46.5209439807
293 6 1 -1 5.0 55.0 47.643406029
294 6 1 -1 5.0 55.0 48.7658680773
295 6 1 -1 5.0 55.0 49.8883301256
296 6 1 -1 5.0 55.0 51.0107921739
297 6 1 -1 5.0 55.0 52.1332542222
298 6 1 -1 5.0 55.0 53.2557162705
299 6 1 -1 5.0 55.0 54.3781783188
300 6 1 -1 5.0 55.0 55.5006403672
301 7 1 -1 15.0 5.0 0.5
302 7 1 -1 15.0 5.0 1.62246204831
303 7 1 -1 15.0 5.0 2.74492409662
304 7 1 -1 15.0 5.0 3.86738614493
305 7 1 -1 15.0 5.0 4.98984819324
306 7 1 -1 15.0 5.0 6.11231024155
307 7 1 -1 15.0 5.0 7.23477228986
308 7 1 -1 15.0 5.0 8.35723433817
309 7 1 -1 15.0 5.0 9.47969638647
310 7 1 -1 15.0 5.0 10.6021584348
311 7 1 -1 15.0 5.0 11.7246204831
312 7 1 -1 15.0 5.0 12.8470825314
313 7 1 -1 15.0 5.0 13.9695445797
314 7 1 -1 15.0 5.0 15.092006628
315 7 1 -1 15.0 5.0 16.2144686763
316 7 1 -1 15.0 5.0 17.3369307246
317 7 1 -1 15.0 5.0 18.4593927729
318 7 1 -1 15.0 5.0 19.5818548213
319 7 1 -1 15.0 5.0 20.7043168696
320 7 1 -1 15.0 5.0 21.8267789179
321 7 1 -1 15.0 5.0 22.9492409662
322 7 1 -1 15.0 5.0 24.0717030145
323 7 1 -1 15.0 5.0 25.1941650628
324 7 1 -1 15.0 5.0 26.3166271111
325 7 1 -1 15.0 5.0 27.4390891594
326 7 1 -1 15.0 5.0 28.5615512077
327 7 1 -1 15.0 5.0 29.684013256
328 7 1 -1 15.0 5.0 30.8064753044
329 7 1 -1 15.0 5.0 31.9289373527
330 7 1 -1 15.0 5.0 33.051399401
331 7 1 -1 15.0 5.0 34.1738614493
332 7 1 -1 15.0 5.0 35.2963234976
333 7 1 -1 15.0 5.0 36.4187855459
334 7 1 -1 15.0 5.0 37.5412475942
335 7 1 -1 15.0 5.0 38.6637096425
336 7 1 -1 15.0 5.0 39.7861716908
337 7 1 -1 15.0 5.0 40.9086337391
338 7 1 -1 15.0 5.0 42.0310957874
339 7 1 -1 15.0 5.0 43.1535578358
340 7 1 -1 15.0 5.0 44.2760198841
341 7 1 -1 15.0 5.0 45.3984819324
342 7 1 -1 15.0 5.0 46.5209439807
343 7 1 -1 15.0 5.0 47.643406029
344 7 1 -1 15.0 5.0 48.7658680773
345 7 1 -1 15.0 5.0 49.8883301256
346 7 1 -1 15.0 5.0 51.0107921739
347 7 1 -1 15.0 5.0 52.1332542222
348 7 1 -1 15.0 5.0 53.2557162705
349 7 1 -1 15.0 5.0 54.3781783188
350 7 1 -1 15.0 5.0 55.5006403672
351 8 1 -1 15.0 15.0 0.5
352 8 1 -1 15.0 15.0 1.62246204831
353 8 1 -1 15.0 15.0 2.74492409662
354 8 1 -1 15.0 15.0 3.86738614493
355 8 1 -1 15.0 15.0 4.98984819324
356 8 1 -1 15.0 15.0 6.11231024155
357 8 1 -1 15.0 15.0 7.23477228986
358 8 1 -1 15.0 15.0 8.35723433817
359 8 1 -1 15.0 15.0 9.47969638647
360 8 1 -1 15.0 15.0 10.6021584348
361 8 1 -1 15.0 15.0 11.7246204831
362 8 1 -1 15.0 15.0 12.8470825314
363 8 1 -1 15.0 15.0 13.9695445797
364 8 1 -1 15.0 15.0 15.092006628
365 8 1 -1 15.0 15.0 16.2144686763
366 8 1 -1 15.0 15.0 17.3369307246
367 8 1 -1 15.0 15.0 18.4593927729
368 8 1 -1 15.0 15.0 19.5818548213
369 8 1 -1 15.0 15.0 20.7043168696
370 8 1 -1 15.0 15.0 21.8267789179
371 8 1 -1 15.0 15.0 22.9492409662
372 8 1 -1 15.0 15.0 24.0717030145
373 8 1 -1 15.0 15.0 25.1941650628
374 8 1 -1 15.0 15.0 26.3166271111
375 8 1 -1 15.0 15.0 27.4390891594
376 8 1 -1 15.0 15.0 28.5615512077
377 8 1 -1 15.0 15.0 29.684013256
378 8 1 -1 15.0 15.0 30.8064753044
379 8 1 -1 15.0 15.0 31.9289373527
380 8 1 -1 15.0 15.0 33.051399401
381 8 1 -1 15.0 15.0 34.1738614493
382 8 1 -1 15.0 15.0 35.2963234976
383 8 1 -1 15.0 15.0 36.4187855459
384 8 1 -1 15.0 15.0 37.5412475942
385 8 1 -1 15.0 15.0 38.6637096425
386 8 1 -1 15.0 15.0 39.7861716908
387 8 1 -1 15.0 15.0 40.9086337391
388 8 1 -1 15.0 15.0 42.0310957874
389 8 1 -1 15.0 15.0 43.1535578358
390 8 1 -1 15.0 15.0 44.2760198841
391 8 1 -1 15.0 15.0 45.3984819324
392 8 1 -1 15.0 15.0 46.5209439807
393 8 1 -1 15.0 15.0 47.643406029
394 8 1 -1 15.0 15.0 48.7658680773
395 8 1 -1 15.0 15.0 49.8883301256
396 8 1 -1 15.0 15.0 51.0107921739
397 8 1 -1 15.0 15.0 52.1332542222
398 8 1 -1 15.0 15.0 53.2557162705
399 8 1 -1 15.0 15.0 54.3781783188
400 8 1 -1 15.0 15.0 55.5006403672
401 9 1 -1 15.0 25.0 0.5
402 9 1 -1 15.0 25.0 1.62246204831
403 9 1 -1 15.0 25.0 2.74492409662
404 9 1 -1 15.0 25.0 3.86738614493
405 9 1 -1 15.0 25.0 4.98984819324
406 9 1 -1 15.0 25.0 6.11231024155
407 9 1 -1 15.0 25.0 7.23477228986
408 9 1 -1 15.0 25.0 8.35723433817
409 9 1 -1 15.0 25.0 9.47969638647
410 9 1 -1 15.0 25.0 10.6021584348
411 9 1 -1 15.0 25.0 11.7246204831
412 9 1 -1 15.0 25.0 12.8470825314
413 9 1 -1 15.0 25.0 13.9695445797
414 9 1 -1 15.0 25.0 15.092006628
415 9 1 -1 15.0 25.0 16.2144686763
416 9 1 -1 15.0 25.0 17.3369307246
417 9 1 -1 15.0 25.0 18.4593927729
418 9 1 -1 15.0 25.0 19.5818548213
419 9 1 -1 15.0 25.0 20.7043168696
420 9 1 -1 15.0 25.0 21.8267789179
421 9 1 -1 15.0 25.0 22.9492409662
422 9 1 -1 15.0 25.0 24.0717030145
423 9 1 -1 15.0 25.0 25.1941650628
424 9 1 -1 15.0 25.0 26.3166271111
425 9 1 -1 15.0 25.0 27.4390891594
426 9 1 -1 15.0 25.0 28.5615512077
427 9 1 -1 15.0 25.0 29.684013256
428 9 1 -1 15.0 25.0 30.8064753044
429 9 1 -1 15.0 25.0 31.9289373527
430 9 1 -1 15.0 25.0 33.051399401
431 9 1 -1 15.0 25.0 34.1738614493
432 9 1 -1 15.0 25.0 35.2963234976
433 9 1 -1 15.0 25.0 36.4187855459
434 9 1 -1 15.0 25.0 37.5412475942
435 9 1 -1 15.0 25.0 38.6637096425
436 9 1 -1 15.0 25.0 39.7861716908
437 9 1 -1 15.0 25.0 40.9086337391
438 9 1 -1 15.0 25.0 42.0310957874
439 9 1 -1 15.0 25.0 43.1535578358
440 9 1 -1 15.0 25.0 44.2760198841
441 9 1 -1 15.0 25.0 45.3984819324
442 9 1 -1 15.0 25.0 46.5209439807
443 9 1 -1 15.0 25.0 47.643406029
444 9 1 -1 15.0 25.0 48.7658680773
445 9 1 -1 15.0 25.0 49.8883301256
446 9 1 -1 15.0 25.0 51.0107921739
447 9 1 -1 15.0 25.0 52.1332542222
448 9 1 -1 15.0 25.0 53.2557162705
449 9 1 -1 15.0 25.0 54.3781783188
450 9 1 -1 15.0 25.0 55.5006403672
451 10 1 -1 15.0 35.0 0.5
452 10 1 -1 15.0 35.0 1.62246204831
453 10 1 -1 15.0 35.0 2.74492409662
454 10 1 -1 15.0 35.0 3.86738614493
455 10 1 -1 15.0 35.0 4.98984819324
456 10 1 -1 15.0 35.0 6.11231024155
457 10 1 -1 15.0 35.0 7.23477228986
458 10 1 -1 15.0 35.0 8.35723433817
459 10 1 -1 15.0 35.0 9.47969638647
460 10 1 -1 15.0 35.0 10.6021584348
461 10 1 -1 15.0 35.0 11.7246204831
462 10 1 -1 15.0 35.0 12.8470825314
463 10 1 -1 15.0 35.0 13.9695445797
464 10 1 -1 15.0 35.0 15.092006628
465 10 1 -1 15.0 35.0 16.2144686763
466 10 1 -1 15.0 35.0 17.3369307246
467 10 1 -1 15.0 35.0 18.4593927729
468 10 1 -1 15.0 35.0 19.5818548213
469 10 1 -1 15.0 35.0 20.7043168696
470 10 1 -1 15.0 35.0 21.8267789179
471 10 1 -1 15.0 35.0 22.9492409662
472 10 1 -1 15.0 35.0 24.0717030145
473 10 1 -1 15.0 35.0 25.1941650628
474 10 1 -1 15.0 35.0 26.3166271111
475 10 1 -1 15.0 35.0 27.4390891594
476 10 1 -1 15.0 35.0 28.5615512077
477 10 1 -1 15.0 35.0 29.684013256
478 10 1 -1 15.0 35.0 30.8064753044
479 10 1 -1 15.0 35.0 31.9289373527
480 10 1 -1 15.0 35.0 33.051399401
481 10 1 -1 15.0 35.0 34.1738614493
482 10 1 -1 15.0 35.0 35.2963234976
483 10 1 -1 15.0 35.0 36.4187855459
484 10 1 -1 15.0 35.0 37.5412475942
485 10 1 -1 15.0 35.0 38.6637096425
486 10 1 -1 15.0 35.0 39.7861716908
487 10 1 -1 15.0 35.0 40.9086337391
488 10 1 -1 15.0 35.0 42.0310957874
489 10 1 -1 15.0 35.0 43.1535578358
490 10 1 -1 15.0 35.0 44.2760198841
491 10 1 -1 15.0 35.0 45.3984819324
492 10 1 -1 15.0 35.0 46.5209439807
493 10 1 -1 15.0 35.0 47.643406029
494 10 1 -1 15.0 35.0 48.7658680773
495 10 1 -1 15.0 35.0 49.8883301256
496 10 1 -1 15.0 35.0 51.0107921739
497 10 1 -1 15.0 35.0 52.1332542222
498 10 1 -1 15.0 35.0 53.2557162705
499 10 1 -1 15.0 35.0 54.3781783188
500 10 1 -1 15.0 35.0 55.5006403672
501 11 1 -1 15.0 45.0 0.5
502 11 1 -1 15.0 45.0 1.62246204831
503 11 1 -1 15.0 45.0 2.74492409662
504 11 1 -1 15.0 45.0 3.86738614493
505 11 1 -1 15.0 45.0 4.98984819324
506 11 1 -1 15.0 45.0 6.11231024155
507 11 1 -1 15.0 45.0 7.23477228986
508 11 1 -1 15.0 45.0 8.35723433817
509 11 1 -1 15.0 45.0 9.47969638647
510 11 1 -1 15.0 45.0 10.6021584348
511 11 1 -1 15.0 45.0 11.7246204831
512 11 1 -1 15.0 45.0 12.8470825314
513 11 1 -1 15.0 45.0 13.9695445797
514 11 1 -1 15.0 45.0 15.092006628
515 11 1 -1 15.0 45.0 16.2144686763
516 11 1 -1 15.0 45.0 17.3369307246
517 11 1 -1 15.0 45.0 18.4593927729
518 11 1 -1 15.0 45.0 19.5818548213
519 11 1 -1 15.0 45.0 20.7043168696
520 11 1 -1 15.0 45.0 21.8267789179
521 11 1 -1 15.0 45.0 22.9492409662
522 11 1 -1 15.0 45.0 24.0717030145
523 11 1 -1 15.0 45.0 25.1941650628
524 11 1 -1 15.0 45.0 26.3166271111
525 11 1 -1 15.0 45.0 27.4390891594
526 11 1 -1 15.0 45.0 28.5615512077
527 11 1 -1 15.0 45.0 29.684013256
528 11 1 -1 15.0 45.0 30.8064753044
529 11 1 -1 15.0 45.0 31.9289373527
530 11 1 -1 15.0 45.0 33.051399401
531 11 1 -1 15.0 45.0 34.1738614493
532 11 1 -1 15.0 45.0 35.2963234976
533 11 1 -1 15.0 45.0 36.4187855459
534 11 1 -1 15.0 45.0 37.5412475942
535 11 1 -1 15.0 45.0 38.6637096425
536 11 1 -1 15.0 45.0 39.7861716908
537 11 1 -1 15.0 45.0 40.9086337391
538 11 1 -1 15.0 45.0 42.0310957874
539 11 1 -1 15.0 45.0 43.1535578358
540 11 1 -1 15.0 45.0 44.2760198841
541 11 1 -1 15.0 45.0 45.3984819324
542 11 1 -1 15.0 45.0 46.5209439807
543 11 1 -1 15.0 45.0 47.643406029
544 11 1 -1 15.0 45.0 48.7658680773
545 11 1 -1 15.0 45.0 49.8883301256
546 11 1 -1 15.0 45.0 51.0107921739
547 11 1 -1 15.0 45.0 52.1332542222
548 11 1 -1 15.0 45.0 53.2557162705
549 11 1 -1 15.0 45.0 54.3781783188
550 11 1 -1 15.0 45.0 55.5006403672
551 12 1 -1 15.0 55.0 0.5
552 12 1 -1 15.0 55.0 1.62246204831
553 12 1 -1 15.0 55.0 2.74492409662
554 12 1 -1 15.0 55.0 3.86738614493
555 12 1 -1 15.0 55.0 4.98984819324
556 12 1 -1 15.0 55.0 6.11231024155
557 12 1 -1 15.0 55.0 7.23477228986
558 12 1 -1 15.0 55.0 8.35723433817
559 12 1 -1 15.0 55.0 9.47969638647
560 12 1 -1 15.0 55.0 10.6021584348
561 12 1 -1 15.0 55.0 11.7246204831
562 12 1 -1 15.0 55.0 12.8470825314
563 12 1 -1 15.0 55.0 13.9695445797
564 12 1 -1 15.0 55.0 15.092006628
565 12 1 -1 15.0 55.0 16.2144686763
566 12 1 -1 15.0 55.0 17.3369307246
567 12 1 -1 15.0 55.0 18.4593927729
568 12 1 -1 15.0 55.0 19.5818548213
569 12 1 -1 15.0 55.0 20.7043168696
570 12 1 -1 15.0 55.0 21.8267789179
571 12 1 -1 15.0 55.0 22.9492409662
572 12 1 -1 15.0 55.0 24.0717030145
573 12 1 -1 15.0 55.0 25.1941650628
574 12 1 -1 15.0 55.0 26.3166271111
575 12 1 -1 15.0 55.0 27.4390891594
576 12 1 -1 15.0 55.0 28.5615512077
577 12 1 -1 15.0 55.0 29.684013256
578 12 1 -1 15.0 55.0 30.8064753044
579 12 1 -1 15.0 55.0 31.9289373527
580 12 1 -1 15.0 55.0 33.051399401
581 12 1 -1 15.0 55.0 34.1738614493
582 12 1 -1 15.0 55.0 35.2963234976
583 12 1 -1 15.0 55.0 36.4187855459
584 12 1 -1 15.0 55.0 37.5412475942
585 12 1 -1 15.0 55.0 38.6637096425
586 12 1 -1 15.0 55.0 39.7861716908
587 12 1 -1 15.0 55.0 40.9086337391
588 12 1 -1 15.0 55.0 42.0310957874
589 12 1 -1 15.0 55.0 43.1535578358
590 12 1 -1 15.0 55.0 44.2760198841
591 12 1 -1 15.0 55.0 45.3984819324
592 12 1 -1 15.0 55.0 46.5209439807
593 12 1 -1 15.0 55.0 47.643406029
594 12 1 -1 15.0 55.0 48.7658680773
595 12 1 -1 15.0 55.0 49.8883301256
596 12 1 -1 15.0 55.0 51.0107921739
597 12 1 -1 15.0 55.0 52.1332542222
598 12 1 -1 15.0 55.0 53.2557162705
599 12 1 -1 15.0 55.0 54.3781783188
600 12 1 -1 15.0 55.0 55.5006403672
601 13 1 -1 25.0 5.0 0.5
602 13 1 -1 25.0 5.0 1.62246204831
603 13 1 -1 25.0 5.0 2.74492409662
604 13 1 -1 25.0 5.0 3.86738614493
605 13 1 -1 25.0 5.0 4.98984819324
606 13 1 -1 25.0 5.0 6.11231024155
607 13 1 -1 25.0 5.0 7.23477228986
608 13 1 -1 25.0 5.0 8.35723433817
609 13 1 -1 25.0 5.0 9.47969638647
610 13 1 -1 25.0 5.0 10.6021584348
611 13 1 -1 25.0 5.0 11.7246204831
612 13 1 -1 25.0 5.0 12.8470825314
613 13 1 -1 25.0 5.0 13.9695445797
614 13 1 -1 25.0 5.0 15.092006628
615 13 1 -1 25.0 5.0 16.2144686763
616 13 1 -1 25.0 5.0 17.3369307246
617 13 1 -1 25.0 5.0 18.4593927729
618 13 1 -1 25.0 5.0 19.5818548213
619 13 1 -1 25.0 5.0 20.7043168696
620 13 1 -1 25.0 5.0 21.8267789179
621 13 1 -1 25.0 5.0 22.9492409662
622 13 1 -1 25.0 5.0 24.0717030145
623 13 1 -1 25.0 5.0 25.1941650628
624 13 1 -1 25.0 5.0 26.3166271111
625 13 1 -1 25.0 5.0 27.4390891594
626 13 1 -1 25.0 5.0 28.5615512077
627 13 1 -1 25.0 5.0 29.684013256
628 13 1 -1 25.0 5.0 30.8064753044
629 13 1 -1 25.0 5.0 31.9289373527
630 13 1 -1 25.0 5.0 33.051399401
631 13 1 -1 25.0 5.0 34.1738614493
632 13 1 -1 25.0 5.0 35.2963234976
633 13 1 -1 25.0 5.0 36.4187855459
634 13 1 -1 25.0 5.0 37.5412475942
635 13 1 -1 25.0 5.0 38.6637096425
636 13 1 -1 25.0 5.0 39.7861716908
637 13 1 -1 25.0 5.0 40.9086337391
638 13 1 -1 25.0 5.0 42.0310957874
639 13 1 -1 25.0 5.0 43.1535578358
640 13 1 -1 25.0 5.0 44.2760198841
641 13 1 -1 25.0 5.0 45.3984819324
642 13 1 -1 25.0 5.0 46.5209439807
643 13 1 -1 25.0 5.0 47.643406029
644 13 1 -1 25.0 5.0 48.7658680773
645 13 1 -1 25.0 5.0 49.8883301256
646 13 1 -1 25.0 5.0 51.0107921739
647 13 1 -1 25.0 5.0 52.1332542222
648 13 1 -1 25.0 5.0 53.2557162705
649 13 1 -1 25.0 5.0 54.3781783188
650 13 1 -1 25.0 5.0 55.5006403672
651 14 1 -1 25.0 15.0 0.5
652 14 1 -1 25.0 15.0 1.62246204831
653 14 1 -1 25.0 15.0 2.74492409662
654 14 1 -1 25.0 15.0 3.86738614493
655 14 1 -1 25.0 15.0 4.98984819324
656 14 1 -1 25.0 15.0 6.11231024155
657 14 1 -1 25.0 15.0 7.23477228986
658 14 1 -1 25.0 15.0 8.35723433817
659 14 1 -1 25.0 15.0 9.47969638647
660 14 1 -1 25.0 15.0 10.6021584348
661 14 1 -1 25.0 15.0 11.7246204831
662 14 1 -1 25.0 15.0 12.8470825314
663 14 1 -1 25.0 15.0 13.9695445797
664 14 1 -1 25.0 15.0 15.092006628
665 14 1 -1 25.0 15.0 16.2144686763
666 14 1 -1 25.0 15.0 17.3369307246
667 14 1 -1 25.0 15.0 18.4593927729
668 14 1 -1 25.0 15.0 19.5818548213
669 14 1 -1 25.0 15.0 20.7043168696
670 14 1 -1 25.0 15.0 21.8267789179
671 14 1 -1 25.0 15.0 22.9492409662
672 14 1 -1 25.0 15.0 24.0717030145
673 14 1 -1 25.0 15.0 25.1941650628
674 14 1 -1 25.0 15.0 26.3166271111
675 14 1 -1 25.0 15.0 27.4390891594
676 14 1 -1 25.0 15.0 28.5615512077
677 14 1 -1 25.0 15.0 29.684013256
678 14 1 -1 25.0 15.0 30.8064753044
679 14 1 -1 25.0 15.0 31.9289373527
680 14 1 -1 25.0 15.0 33.051399401
681 14 1 -1 25.0 15.0 34.1738614493
682 14 1 -1 25.0 15.0 35.2963234976
683 14 1 -1 25.0 15.0 36.4187855459
684 14 1 -1 25.0 15.0 37.5412475942
685 14 1 -1 25.0 15.0 38.6637096425
686 14 1 -1 25.0 15.0 39.7861716908
687 14 1 -1 25.0 15.0 40.9086337391
688 14 1 -1 25.0 15.0 42.0310957874
689 14 1 -1 25.0 15.0 43.1535578358
690 14 1 -1 25.0 15.0 44.2760198841
691 14 1 -1 25.0 15.0 45.3984819324
692 14 1 -1 25.0 15.0 46.5209439807
693 14 1 -1 25.0 15.0 47.643406029
694 14 1 -1 25.0 15.0 48.7658680773
695 14 1 -1 25.0 15.0 49.8883301256
696 14 1 -1 25.0 15.0 51.0107921739
697 14 1 -1 25.0 15.0 52.1332542222
698 14 1 -1 25.0 15.0 53.2557162705
699 14 1 -1 25.0 15.0 54.3781783188
700 14 1 -1 25.0 15.0 55.5006403672
701 15 1 -1 25.0 25.0 0.5
702 15 1 -1 25.0 25.0 1.62246204831
703 15 1 -1 25.0 25.0 2.74492409662
704 15 1 -1 25.0 25.0 3.86738614493
705 15 1 -1 25.0 25.0 4.98984819324
706 15 1 -1 25.0 25.0 6.11231024155
707 15 1 -1 25.0 25.0 7.23477228986
708 15 1 -1 25.0 25.0 8.35723433817
709 15 1 -1 25.0 25.0 9.47969638647
710 15 1 -1 25.0 25.0 10.6021584348
711 15 1 -1 25.0 25.0 11.7246204831
712 15 1 -1 25.0 25.0 12.8470825314
713 15 1 -1 25.0 25.0 13.9695445797
714 15 1 -1 25.0 25.0 15.092006628
715 15 1 -1 25.0 25.0 16.2144686763
716 15 1 -1 25.0 25.0 17.3369307246
717 15 1 -1 25.0 25.0 18.4593927729
718 15 1 -1 25.0 25.0 19.5818548213
719 15 1 -1 25.0 25.0 20.7043168696
720 15 1 -1 25.0 25.0 21.8267789179
721 15 1 -1 25.0 25.0 22.9492409662
722 15 1 -1 25.0 25.0 24.0717030145
723 15 1 -1 25.0 25.0 25.1941650628
724 15 1 -1 25.0 25.0 26.3166271111
725 15 1 -1 25.0 25.0 27.4390891594
726 15 1 -1 25.0 25.0 28.5615512077
727 15 1 -1 25.0 25.0 29.684013256
728 15 1 -1 25.0 25.0 30.8064753044
729 15 1 -1 25.0 25.0 31.9289373527
730 15 1 -1 25.0 25.0 33.051399401
731 15 1 -1 25.0 25.0 34.1738614493
732 15 1 -1 25.0 25.0 35.2963234976
733 15 1 -1 25.0 25.0 36.4187855459
734 15 1 -1 25.0 25.0 37.5412475942
735 15 1 -1 25.0 25.0 38.6637096425
736 15 1 -1 25.0 25.0 39.7861716908
737 15 1 -1 25.0 25.0 40.9086337391
738 15 1 -1 25.0 25.0 42.0310957874
739 15 1 -1 25.0 25.0 43.1535578358
740 15 1 -1 25.0 25.0 44.2760198841
741 15 1 -1 25.0 25.0 45.3984819324
742 15 1 -1 25.0 25.0 46.5209439807
743 15 1 -1 25.0 25.0 47.643406029
744 15 1 -1 25.0 25.0 48.7658680773
745 15 1 -1 25.0 25.0 49.8883301256
746 15 1 -1 25.0 25.0 51.0107921739
747 15 1 -1 25.0 25.0 52.1332542222
748 15 1 -1 25.0 25.0 53.2557162705
749 15 1 -1 25.0 25.0 54.3781783188
750 15 1 -1 25.0 25.0 55.5006403672
751 16 1 -1 25.0 35.0 0.5
752 16 1 -1 25.0 35.0 1.62246204831
753 16 1 -1 25.0 35.0 2.74492409662
754 16 1 -1 25.0 35.0 3.86738614493
755 16 1 -1 25.0 35.0 4.98984819324
756 16 1 -1 25.0 35.0 6.11231024155
757 16 1 -1 25.0 35.0 7.23477228986
758 16 1 -1 25.0 35.0 8.35723433817
759 16 1 -1 25.0 35.0 9.47969638647
760 16 1 -1 25.0 35.0 10.6021584348
761 16 1 -1 25.0 35.0 11.7246204831
762 16 1 -1 25.0 35.0 12.8470825314
763 16 1 -1 25.0 35.0 13.9695445797
764 16 1 -1 25.0 35.0 15.092006628
765 16 1 -1 25.0 35.0 16.2144686763
766 16 1 -1 25.0 35.0 17.3369307246
767 16 1 -1 25.0 35.0 18.4593927729
768 16 1 -1 25.0 35.0 19.5818548213
769 16 1 -1 25.0 35.0 20.7043168696
770 16 1 -1 25.0 35.0 21.8267789179
771 16 1 -1 25.0 35.0 22.9492409662
772 16 1 -1 25.0 35.0 24.0717030145
773 16 1 -1 25.0 35.0 25.1941650628
774 16 1 -1 25.0 35.0 26.3166271111
775 16 1 -1 25.0 35.0 27.4390891594
776 16 1 -1 25.0 35.0 28.5615512077
777 16 1 -1 25.0 35.0 29.684013256
778 16 1 -1 25.0 35.0 30.8064753044
779 16 1 -1 25.0 35.0 31.9289373527
780 16 1 -1 25.0 35.0 33.051399401
781 16 1 -1 25.0 35.0 34.1738614493
782 16 1 -1 25.0 35.0 35.2963234976
783 16 1 -1 25.0 35.0 36.4187855459
784 16 1 -1 25.0 35.0 37.5412475942
785 16 1 -1 25.0 35.0 38.6637096425
786 16 1 -1 25.0 35.0 39.7861716908
787 16 1 -1 25.0 35.0 40.9086337391
788 16 1 -1 25.0 35.0 42.0310957874
789 16 1 -1 25.0 35.0 43.1535578358
790 16 1 -1 25.0 35.0 44.2760198841
791 16 1 -1 25.0 35.0 45.3984819324
792 16 1 -1 25.0 35.0 46.5209439807
793 16 1 -1 25.0 35.0 47.643406029
794 16 1 -1 25.0 35.0 48.7658680773
795 16 1 -1 25.0 35.0 49.8883301256
796 16 1 -1 25.0 35.0 51.0107921739
797 16 1 -1 25.0 35.0 52.1332542222
798 16 1 -1 25.0 35.0 53.2557162705
799 16 1 -1 25.0 35.0 54.3781783188
800 16 1 -1 25.0 35.0 55.5006403672
801 17 1 -1 25.0 45.0 0.5
802 17 1 -1 25.0 45.0 1.62246204831
803 17 1 -1 25.0 45.0 2.74492409662
804 17 1 -1 25.0 45.0 3.86738614493
805 17 1 -1 25.0 45.0 4.98984819324
806 17 1 -1 25.0 45.0 6.11231024155
807 17 1 -1 25.0 45.0 7.23477228986
808 17 1 -1 25.0 45.0 8.35723433817
809 17 1 -1 25.0 45.0 9.47969638647
810 17 1 -1 25.0 45.0 10.6021584348
811 17 1 -1 25.0 45.0 11.7246204831
812 17 1 -1 25.0 45.0 12.8470825314
813 17 1 -1 25.0 45.0 13.9695445797
814 17 1 -1 25.0 45.0 15.092006628
815 17 1 -1 25.0 45.0 16.2144686763
816 17 1 -1 25.0 45.0 17.3369307246
817 17 1 -1 25.0 45.0 18.4593927729
818 17 1 -1 25.0 45.0 19.5818548213
819 17 1 -1 25.0 45.0 20.7043168696
820 17 1 -1 25.0 45.0 21.8267789179
821 17 1 -1 25.0 45.0 22.9492409662
822 17 1 -1 25.0 45.0 24.0717030145
823 17 1 -1 25.0 45.0 25.1941650628
824 17 1 -1 25.0 45.0 26.3166271111
825 17 1 -1 25.0 45.0 27.4390891594
826 17 1 -1 25.0 45.0 28.5615512077
827 17 1 -1 25.0 45.0 29.684013256
828 17 1 -1 25.0 45.0 30.8064753044
829 17 1 -1 25.0 45.0 31.9289373527
830 17 1 -1 25.0 45.0 33.051399401
831 17 1 -1 25.0 45.0 34.1738614493
832 17 1 -1 25.0 45.0 35.2963234976
833 17 1 -1 25.0 45.0 36.4187855459
834 17 1 -1 25.0 45.0 37.5412475942
835 17 1 -1 25.0 45.0 38.6637096425
836 17 1 -1 25.0 45.0 39.7861716908
837 17 1 -1 25.0 45.0 40.9086337391
838 17 1 -1 25.0 45.0 42.0310957874
839 17 1 -1 25.0 45.0 43.1535578358
840 17 1 -1 25.0 45.0 44.2760198841
841 17 1 -1 25.0 45.0 45.3984819324
842 17 1 -1 25.0 45.0 46.5209439807
843 17 1 -1 25.0 45.0 47.643406029
844 17 1 -1 25.0 45.0 48.7658680773
845 17 1 -1 25.0 45.0 49.8883301256
846 17 1 -1 25.0 45.0 51.0107921739
847 17 1 -1 25.0 45.0 52.1332542222
848 17 1 -1 25.0 45.0 53.2557162705
849 17 1 -1 25.0 45.0 54.3781783188
850 17 1 -1 25.0 45.0 55.5006403672
851 18 1 -1 25.0 55.0 0.5
852 18 1 -1 25.0 55.0 1.62246204831
853 18 1 -1 25.0 55.0 2.74492409662
854 18 1 -1 25.0 55.0 3.86738614493
855 18 1 -1 25.0 55.0 4.98984819324
856 18 1 -1 25.0 55.0 6.11231024155
857 18 1 -1 25.0 55.0 7.23477228986
858 18 1 -1 25.0 55.0 8.35723433817
859 18 1 -1 25.0 55.0 9.47969638647
860 18 1 -1 25.0 55.0 10.6021584348
861 18 1 -1 25.0 55.0 11.7246204831
862 18 1 -1 25.0 55.0 12.8470825314