LAMMPS data file via write_data, version 15 May 2015, timestep = 23005000

2611 atoms
6 atom types
1749 bonds
4 bond types
894 angles
3 angle types
44 dihedrals
3 dihedral types
10 impropers
1 improper types

-1.4926154815879457e+01 1.4926154815879457e+01 xlo xhi
-1.4926154815879457e+01 1.4926154815879457e+01 ylo yhi
-1.4926154815879457e+01 1.4926154815879457e+01 zlo zhi

Masses

1 15.9994
2 1.00794
3 12.0107
4 1.00794
5 12.0107
6 12.0107

Bond Coeffs # harmonic

1 1000 1
2 469 1.4
3 367 1.08
4 469 0.7

Angle Coeffs # harmonic

1 100 109.47
2 35 120
3 63 120

Dihedral Coeffs # opls

1 0 7.25 0 0
2 0 7.25 0 0
3 0 7.25 0 0

Improper Coeffs # cvff

1 2.5 -1 2

Atoms # full

1734 578 2 4.0999999999999998e-01 -1.1963946270573352e+01 -1.0525752779834896e+01 -1.3281133842089581e+01 3 0 -7
1051 351 1 -8.1999999999999995e-01 -1.4525347211232482e+01 -7.3872622947098439e+00 -8.8276780413720637e+00 4 -1 2
2276 759 2 4.0999999999999998e-01 -1.0615261347745474e+01 -1.2946957107037402e+01 -1.4145558120806127e+01 2 -2 0
1873 625 1 -8.1999999999999995e-01 -1.1160231461849698e+01 -7.7502232115261185e+00 -1.4022132221093486e+01 -1 4 -1
1874 625 2 4.0999999999999998e-01 -1.0249523297781558e+01 -8.0766559796081019e+00 -1.3768960399756338e+01 -1 4 -1
2343 781 2 4.0999999999999998e-01 -8.2045694228464718e+00 -9.3277461449218535e+00 -1.2982186403298080e+01 -1 5 -2
1736 579 2 4.0999999999999998e-01 -1.1225516189482885e+01 -1.3930618339524273e+01 -1.1248648058884815e+01 4 -3 -2
868 290 1 -8.1999999999999995e-01 -9.4506313229451351e+00 -8.2355665346281057e+00 -9.2046265715353197e+00 0 5 -4
870 290 2 4.0999999999999998e-01 -9.8637834815188015e+00 -8.8458216556730918e+00 -9.8805982255322746e+00 0 5 -4
650 217 2 4.0999999999999998e-01 -1.2933173009198425e+01 -1.2176735474045667e+01 -1.4783355290303984e+01 2 -2 7
2342 781 2 4.0999999999999998e-01 -7.8800110404693147e+00 -7.9898365216850875e+00 -1.3860481678733857e+01 -1 5 -2
1902 634 2 4.0999999999999998e-01 -1.1575971807624654e+01 -6.3846148875899953e+00 -9.4826582845309737e+00 -4 8 5
869 290 2 4.0999999999999998e-01 -8.7478752605192156e+00 -7.6770080957390912e+00 -9.6452966728024130e+00 0 5 -4
252 84 2 4.0999999999999998e-01 -1.2346014189179929e+01 -9.7330971707117637e+00 -1.0335463737660028e+01 -4 1 -2
250 84 1 -8.1999999999999995e-01 -1.1402244504081283e+01 -9.9801682202280446e+00 -1.0115694873747202e+01 -4 1 -2
1733 578 2 4.0999999999999998e-01 -1.3001806543909122e+01 -9.8473890653743084e+00 -1.2218396030869084e+01 3 0 -7
251 84 2 4.0999999999999998e-01 -1.1380740272988387e+01 -1.0473774875010509e+01 -9.2462503611730291e+00 -4 1 -2
1732 578 1 -8.1999999999999995e-01 -1.2708669540449922e+01 -9.8669545369436609e+00 -1.3174289100223907e+01 3 0 -7
560 187 2 4.0999999999999998e-01 -7.8563663221674620e+00 -1.2147641960327839e+01 -1.1573923280944545e+01 2 -2 4
1987 663 1 -8.1999999999999995e-01 -1.0203005625746972e+01 -1.3337474141825050e+01 -9.5906795488929291e+00 0 1 -1
1901 634 2 4.0999999999999998e-01 -1.2169086033286789e+01 -5.0458507656062466e+00 -1.0205616850415442e+01 -4 8 5
559 187 1 -8.1999999999999995e-01 -7.9284772502714116e+00 -1.3093570803865617e+01 -1.1257596976998336e+01 2 -2 4
2277 759 2 4.0999999999999998e-01 -1.0818250547011871e+01 -1.1509946429899344e+01 -1.4894249350788980e+01 2 -2 0
1875 625 2 4.0999999999999998e-01 -1.1839844613769964e+01 -8.4468937609000534e+00 -1.3792306615802712e+01 -1 4 -1
561 187 2 4.0999999999999998e-01 -8.7282077877470208e+00 -1.3186635983007898e+01 -1.0664458110129189e+01 2 -2 4
2275 759 1 -8.1999999999999995e-01 -1.1176538250392873e+01 -1.2120382394561901e+01 -1.4187820621133724e+01 2 -2 0
1791 597 2 4.0999999999999998e-01 -1.4088869677937190e+01 -5.1718564582612387e+00 -1.4509822460842813e+01 0 3 5
1900 634 1 -8.1999999999999995e-01 -1.2322889564743821e+01 -6.0197510178258415e+00 -1.0038564632841551e+01 -4 8 5
1969 657 1 -8.1999999999999995e-01 -1.4106947256981599e+01 -9.5580103203789051e+00 -1.0586984933735327e+01 3 1 5
1989 663 2 4.0999999999999998e-01 -1.0911187518434899e+01 -1.2802459615795520e+01 -9.1299393285056993e+00 0 1 -1
1608 536 2 4.0999999999999998e-01 -1.2406707967516603e+01 -5.7996256604439367e+00 -1.3335824408648675e+01 0 1 0
200 67 2 4.0999999999999998e-01 -1.4616142624097227e+01 -9.4501086945399635e+00 -1.3763286169473776e+01 2 5 -2
2341 781 1 -8.1999999999999995e-01 -8.5874682155736615e+00 -8.6512362831779814e+00 -1.3611286228436937e+01 -1 5 -2
1988 663 2 4.0999999999999998e-01 -9.7933638863714343e+00 -1.3977825464673360e+01 -8.9409198925546320e+00 0 1 -1
1970 657 2 4.0999999999999998e-01 -1.4614414275331857e+01 -1.0023039347126605e+01 -9.8615410145960389e+00 3 1 5
1735 579 1 -8.1999999999999995e-01 -1.1865048453407860e+01 -1.4531149918515485e+01 -1.1728652182583099e+01 4 -3 -2
1053 351 2 4.0999999999999998e-01 -1.3720694031712423e+01 -6.9791029056102563e+00 -9.2589353083833892e+00 4 -1 2
933 311 2 4.0999999999999998e-01 -1.3816542267872407e+01 -1.4627213652318479e+01 -1.1144684247315247e+01 4 -2 -1
1596 532 2 4.0999999999999998e-01 -1.0488738577072635e+01 -5.4617564302170827e+00 -8.2758150044472867e+00 -2 -1 -3
1606 536 1 -8.1999999999999995e-01 -1.3048066213832385e+01 -5.0940714689288971e+00 -1.3034333904633201e+01 0 1 0
1303 435 1 -8.1999999999999995e-01 -1.1404009205342682e+01 -1.1485921202767532e+01 -7.9110427733572370e+00 0 -2 -6
1737 579 2 4.0999999999999998e-01 -1.1623258976153654e+01 -1.4568676302787782e+01 -1.2698277630720252e+01 4 -3 -2
2193 731 2 4.0999999999999998e-01 -8.8453105843593942e+00 -8.9302219881548126e+00 -7.5228255423252497e+00 2 4 -5
2284 762 1 -8.1999999999999995e-01 -8.6483196413795280e+00 -1.1571283751940378e+01 -7.7384070872590280e+00 4 -2 2
1146 382 2 4.0999999999999998e-01 -1.0764727808156191e+01 -7.6512488426581413e+00 -8.0361297247856029e+00 0 4 -6
1971 657 2 4.0999999999999998e-01 -1.4606000915949314e+01 -8.7391595311251837e+00 -1.0870661786608579e+01 3 1 5
2285 762 2 4.0999999999999998e-01 -8.7012802555065853e+00 -1.1979546090279207e+01 -8.6497581047615633e+00 4 -2 2
1020 340 2 4.0999999999999998e-01 -1.4751542368941019e+01 -1.3278840643100978e+01 -1.4445974766268796e+01 0 2 -3
2333 778 2 4.0999999999999998e-01 -1.4529708736021753e+01 -6.2457791426243290e+00 -1.2681285731756132e+01 -1 5 0
931 311 1 -8.1999999999999995e-01 -1.4775240266336287e+01 -1.4824389332516214e+01 -1.0939590164009051e+01 4 -2 -1
1144 382 1 -8.1999999999999995e-01 -1.1437315019523467e+01 -7.0272888379200120e+00 -7.6382050706228872e+00 0 4 -6
1305 435 2 4.0999999999999998e-01 -1.0452242841598338e+01 -1.1266320390196841e+01 -7.6966600430042122e+00 0 -2 -6
1819 607 1 -8.1999999999999995e-01 -1.3237252060114510e+00 -8.2161031079844093e+00 -9.8896900474968952e+00 -3 0 -1
1202 401 2 4.0999999999999998e-01 -6.9899735554767890e+00 -9.1902371857589955e+00 -7.7374531269108546e+00 1 4 -3
1412 471 2 4.0999999999999998e-01 -6.7018164386533901e+00 -6.6409988468284400e+00 -9.1595089768582856e+00 5 3 -1
708 236 2 4.0999999999999998e-01 -3.2885640643465646e+00 -5.0086618067337145e+00 -1.0528950937755219e+01 -4 0 1
1203 401 2 4.0999999999999998e-01 -5.8256040641790037e+00 -8.1203095007680375e+00 -8.1451800896268498e+00 1 4 -3
1780 594 1 -8.1999999999999995e-01 -3.6086846610416341e+00 -1.3250929801091406e+01 -1.4132786668632074e+01 5 -2 3
1385 462 2 4.0999999999999998e-01 -7.1014590105537430e+00 -1.3743787701404155e+01 -1.3091405645364341e+01 4 0 -3
1411 471 1 -8.1999999999999995e-01 -7.2788432359929400e+00 -6.9146099659026508e+00 -9.9290677283573316e+00 5 3 -1
1413 471 2 4.0999999999999998e-01 -6.9199797768335589e+00 -6.5159094167998060e+00 -1.0773045551729634e+01 5 3 -1
2208 736 2 4.0999999999999998e-01 -3.9615911461039381e+00 -1.4525804210237785e+01 -1.0893085103604637e+01 3 1 -3
1067 356 2 4.0999999999999998e-01 -6.4317936657599795e-01 -1.3481013730440351e+01 -1.3120877680128212e+01 2 0 0
599 200 2 4.0999999999999998e-01 -7.4194916204751040e+00 -9.6899672437981739e+00 -1.1108268672881428e+01 -1 0 1
598 200 1 -8.1999999999999995e-01 -7.3604838533981836e+00 -1.0318236987139125e+01 -1.1884051423881166e+01 -1 0 1
1534 512 1 -8.1999999999999995e-01 -4.7247362697204291e+00 -6.8286522169954864e+00 -7.8350530123831525e+00 -3 -2 1
1821 607 2 4.0999999999999998e-01 -1.4746420680572800e+00 -7.2939379181642039e+00 -1.0245891047270590e+01 -3 0 -1
2110 704 1 -8.1999999999999995e-01 -2.0078003425844120e+00 -7.7623740302118565e+00 -1.3146870038975898e+01 1 -3 -3
1011 337 2 4.0999999999999998e-01 -7.4882451670940675e-01 -1.2086811293246249e+01 -1.0174369237633133e+01 3 1 1
121 41 1 -8.1999999999999995e-01 -2.3477984253961992e-01 -5.6531735054869916e+00 -1.3199300102626228e+01 4 2 5
123 41 2 4.0999999999999998e-01 -7.1809143447318213e-01 -6.4939221192091896e+00 -1.2955178530713054e+01 4 2 5
2052 684 2 4.0999999999999998e-01 -7.0413089756606544e+00 -1.4371581216383696e+01 -1.1358743843864351e+01 5 1 2
707 236 2 4.0999999999999998e-01 -1.9893861525926901e+00 -5.3871315679103589e+00 -9.6148172687502687e+00 -4 0 1
1793 598 2 4.0999999999999998e-01 -3.9771947575895776e+00 -1.1216915712112552e+01 -1.2425749569371130e+01 0 3 -1
1010 337 2 4.0999999999999998e-01 -1.4465841500350116e+00 -1.1112672196232264e+01 -9.0648975729735053e+00 3 1 1
2533 845 1 -8.1999999999999995e-01 -5.1412324596006087e-02 -5.5985725322898787e+00 -9.5372930957265183e+00 1 -1 1
719 240 2 4.0999999999999998e-01 -4.2836512541222547e+00 -8.0303302777500960e+00 -1.0978707278094703e+01 2 6 -6
600 200 2 4.0999999999999998e-01 -6.4176188448115745e+00 -1.0635902277481767e+01 -1.1984739302550077e+01 -1 0 1
1792 598 1 -8.1999999999999995e-01 -4.8863981376287899e+00 -1.1326960153063975e+01 -1.2024148873884496e+01 0 3 -1
1609 537 1 -8.1999999999999995e-01 -4.8925352812681684e+00 -1.2590108927562472e+01 -9.5401853931047818e+00 4 4 -1
1066 356 1 -8.1999999999999995e-01 -5.6717791455105271e-01 -1.2725707600156246e+01 -1.3771861618517159e+01 2 0 0
2118 706 2 4.0999999999999998e-01 -2.1043981646474972e+00 -1.1026736628120243e+01 -1.1687360782794098e+01 -4 1 -5
2112 704 2 4.0999999999999998e-01 -2.0905094596713418e+00 -8.7561036902431653e+00 -1.3071343615012545e+01 1 -3 -3
720 240 2 4.0999999999999998e-01 -5.0461562058589422e+00 -6.5922524650929830e+00 -1.1110090032853787e+01 2 6 -6
1009 337 1 -8.1999999999999995e-01 -1.6165690661332750e+00 -1.1713959330218055e+01 -9.8456680688227820e+00 3 1 1
1475 492 2 4.0999999999999998e-01 -3.7743272904901968e+00 -1.0326408415356333e+01 -1.0058524050198097e+01 0 -3 3
1781 594 2 4.0999999999999998e-01 -3.7192780024888297e+00 -1.3852217409748130e+01 -1.3341416948876084e+01 5 -2 3
1536 512 2 4.0999999999999998e-01 -4.3751777447738736e+00 -6.3412765195858771e+00 -8.6352513978342014e+00 -3 -2 1
706 236 1 -8.1999999999999995e-01 -2.9838347670695988e+00 -5.4605314526771451e+00 -9.6905014326640302e+00 -4 0 1
2576 859 2 4.0999999999999998e-01 -5.9169951243712742e+00 -6.1552412660951514e+00 -1.4002148073234560e+01 5 -2 3
2575 859 1 -8.1999999999999995e-01 -6.4286292513493937e+00 -6.9319203581341329e+00 -1.3634665066716579e+01 5 -2 3
1820 607 2 4.0999999999999998e-01 -2.1735024512693819e+00 -8.5634525793693328e+00 -9.4931164524345206e+00 -3 0 -1
1476 492 2 4.0999999999999998e-01 -4.5856565007008783e+00 -9.2034628466344284e+00 -9.1939541221716823e+00 0 -3 3
1611 537 2 4.0999999999999998e-01 -5.6592257533219605e+00 -1.2276228058974780e+01 -8.9800887826483411e+00 4 4 -1
2116 706 1 -8.1999999999999995e-01 -2.3572177906197922e+00 -1.0828717401526067e+01 -1.2634416371116160e+01 -4 1 -5
1610 537 2 4.0999999999999998e-01 -4.6752014124757562e+00 -1.3537886262339653e+01 -9.3066735596658354e+00 4 4 -1
2577 859 2 4.0999999999999998e-01 -6.0421299030208768e+00 -7.1978373559774251e+00 -1.2751517206125424e+01 5 -2 3
1386 462 2 4.0999999999999998e-01 -6.1198135254910806e+00 -1.2514642810017978e+01 -1.3529946204291740e+01 4 0 -3
1384 462 1 -8.1999999999999995e-01 -6.8609891109832244e+00 -1.3114827001895572e+01 -1.3830747467994158e+01 4 0 -3
718 240 1 -8.1999999999999995e-01 -4.6829566721067017e+00 -7.3732813088146134e+00 -1.1618148850116953e+01 2 6 -6
1474 492 1 -8.1999999999999995e-01 -3.8042235172711667e+00 -9.3614785397290134e+00 -9.7976404703744979e+00 0 -3 3
1154 385 2 4.0999999999999998e-01 -3.2897110782248831e+00 -1.2716332347519424e+01 -7.8628799154849789e+00 4 3 -2
2117 706 2 4.0999999999999998e-01 -1.6434548125075299e+00 -1.1167100639681232e+01 -1.3247672315880916e+01 -4 1 -5
1201 401 1 -8.1999999999999995e-01 -6.2174147674473641e+00 -9.0176282301376709e+00 -8.3485199916559942e+00 1 4 -3
2111 704 2 4.0999999999999998e-01 -2.8970854514117281e+00 -7.3396493095508344e+00 -1.2972171803072165e+01 1 -3 -3
1794 598 2 4.0999999999999998e-01 -4.8894525462784983e+00 -1.2123303361492312e+01 -1.1419275319438466e+01 0 3 -1
2206 736 1 -8.1999999999999995e-01 -3.6616464061565122e+00 -1.4725354042290322e+01 -1.1825960582790316e+01 3 1 -3
1782 594 2 4.0999999999999998e-01 -2.6737774127780014e+00 -1.2896618324811378e+01 -1.4154129615683726e+01 5 -2 3
1811 604 2 4.0999999999999998e-01 -2.9215767881701993e-02 -9.2512397661803405e+00 -1.0690328488049882e+01 3 1 0
115 39 1 -8.1999999999999995e-01 -1.1834547113472663e+01 -1.1538267975666875e+01 -5.1152240367041646e+00 -1 -5 0
116 39 2 4.0999999999999998e-01 -1.1257280361652192e+01 -1.2354834733133163e+01 -5.1101762137840954e+00 -1 -5 0
2192 731 2 4.0999999999999998e-01 -9.2807534289872571e+00 -8.7545223539970181e+00 -5.9587723664925409e+00 2 4 -5
1233 411 2 4.0999999999999998e-01 -1.3214544930090870e+01 -1.2069225608351356e+01 -3.1382027692254013e+00 -2 3 -5
1231 411 1 -8.1999999999999995e-01 -1.3528710711164937e+01 -1.2702800592593565e+01 -2.4311481445371648e+00 -2 3 -5
1232 411 2 4.0999999999999998e-01 -1.3446913581723273e+01 -1.2268407418454995e+01 -1.5341222576178293e+00 -2 3 -5
2399 800 2 4.0999999999999998e-01 -9.5738632175283556e+00 -1.4145506432257186e+01 -6.0222885924560767e+00 1 1 1
1505 502 2 4.0999999999999998e-01 -1.4673094353511008e+01 -1.4421093301077228e+01 -7.8447147563197461e-01 -3 6 0
602 201 2 4.0999999999999998e-01 -1.1834155701141697e+01 -1.4282631450190687e+01 -2.2216243654185828e+00 1 8 0
1133 378 2 4.0999999999999998e-01 -1.1065890524691447e+01 -8.6476679197276418e+00 -4.3104813676261671e+00 1 4 2
1899 633 2 4.0999999999999998e-01 -1.0099574809148331e+01 -1.1896556317537021e+01 -7.1179038881584944e-02 -2 5 -1
603 201 2 4.0999999999999998e-01 -1.0271046536970214e+01 -1.4687012899110197e+01 -1.9768627987094547e+00 1 8 0
1145 382 2 4.0999999999999998e-01 -1.2196846306947648e+01 -7.5546672370025085e+00 -7.2573797457970963e+00 0 4 -6
54 18 2 4.0999999999999998e-01 -1.3735240166498398e+01 -7.9604403352395252e+00 -3.5551652349413665e+00 2 -5 -5
52 18 1 -8.1999999999999995e-01 -1.4670197548060194e+01 -7.7188170023703186e+00 -3.8150047082856737e+00 2 -5 -5
1134 378 2 4.0999999999999998e-01 -1.1330469679070536e+01 -9.9825251036260632e+00 -5.2131978637348411e+00 1 4 2
1132 378 1 -8.1999999999999995e-01 -1.0792844457347790e+01 -9.1429278160915430e+00 -5.1352280849290928e+00 1 4 2
2590 864 1 -8.1999999999999995e-01 -1.1881460155480042e+01 -7.6895202152221769e+00 -3.1313248719678626e+00 3 0 1
119 40 2 4.0999999999999998e-01 -1.1678438774767791e+01 -5.5165981936735413e+00 -6.6011326287963730e+00 2 -1 0
1658 553 2 4.0999999999999998e-01 -1.4005700077433525e+01 -5.7493568448109116e+00 -3.9494189664854442e+00 6 -1 2
1944 648 2 4.0999999999999998e-01 -7.6584740015372210e+00 -7.9803888124796991e+00 -2.4204125153770981e+00 4 -2 8
1304 435 2 4.0999999999999998e-01 -1.1829616696044043e+01 -1.1929308278913044e+01 -7.1221765967858293e+00 0 -2 -6
2592 864 2 4.0999999999999998e-01 -1.1305414490798711e+01 -6.8752830956817874e+00 -3.2036642507558817e+00 3 0 1
117 39 2 4.0999999999999998e-01 -1.2794742403968391e+01 -1.1809285714967757e+01 -5.1831804648240887e+00 -1 -5 0
2398 800 1 -8.1999999999999995e-01 -9.9993358039336400e+00 -1.3674063604101340e+01 -5.2497871867556789e+00 1 1 1
2400 800 2 4.0999999999999998e-01 -9.3006436253180667e+00 -1.3449613401949199e+01 -4.5704529135471379e+00 1 1 1
1995 665 2 4.0999999999999998e-01 -9.2005312468431768e+00 -6.0631665198019249e+00 -1.9301260586292575e+00 1 3 0
1993 665 1 -8.1999999999999995e-01 -8.5672152267432224e+00 -6.3491258400597612e+00 -1.2109724823813952e+00 1 3 0
1994 665 2 4.0999999999999998e-01 -8.2326670826077741e+00 -5.5436273491105066e+00 -7.2179622407736588e-01 1 3 0
2591 864 2 4.0999999999999998e-01 -1.1989220274501495e+01 -7.9371129917038648e+00 -2.1684493733110148e+00 3 0 1
759 253 2 4.0999999999999998e-01 -1.0154968173991721e+01 -5.0794897324273585e+00 -4.6613836340270272e+00 -2 3 1
1247 416 2 4.0999999999999998e-01 -7.6501657090173456e+00 -1.0908839088771424e+01 -8.9561213197129241e-01 -1 0 -3
246 82 2 4.0999999999999998e-01 -1.1899656896236133e+01 -1.0844046070372114e+01 -5.0152013003158835e-01 -3 5 -2
2191 731 1 -8.1999999999999995e-01 -8.5092924337280600e+00 -8.7685315630497591e+00 -6.5949291194124520e+00 2 4 -5
1672 558 1 -8.1999999999999995e-01 -7.8848235511332261e+00 -1.2942686336244078e+01 -3.3014868310893846e+00 -1 3 -1
1599 533 2 4.0999999999999998e-01 -7.6156381430003304e+00 -1.4536919224291605e+01 -3.8585975214853256e+00 -2 7 -2
1673 558 2 4.0999999999999998e-01 -7.6788939348054761e+00 -1.2082816029132834e+01 -3.7686695675578097e+00 -1 3 -1
2286 762 2 4.0999999999999998e-01 -7.7183699781517552e+00 -1.1667672239973049e+01 -7.3835176291129443e+00 4 -2 2
855 285 2 4.0999999999999998e-01 -7.7725455391076110e+00 -1.0112418728125595e+01 -5.3578744430571295e+00 2 9 -1
757 253 1 -8.1999999999999995e-01 -1.0034868058045713e+01 -5.0932574881639301e+00 -3.6686953221192606e+00 -2 3 1
521 174 2 4.0999999999999998e-01 -1.3569906175090082e+01 -8.3711533490468693e+00 -6.6652804742644456e-01 1 0 -1
245 82 2 4.0999999999999998e-01 -1.0915789477665502e+01 -9.5848378299307377e+00 -8.3788659461474602e-01 -3 5 -2
520 174 1 -8.1999999999999995e-01 -1.2647046726128661e+01 -8.3173063194252599e+00 -2.8511668092066778e-01 1 0 -1
1036 346 1 -8.1999999999999995e-01 -1.4581697010195677e+01 -1.1942924424417626e+01 -5.3074827719836009e+00 3 3 1
244 82 1 -8.1999999999999995e-01 -1.1011486621632493e+01 -1.0579489883840854e+01 -8.7729568134585101e-01 -3 5 -2
53 18 2 4.0999999999999998e-01 -1.4864470604863687e+01 -8.0742588700674673e+00 -4.7293147124730783e+00 2 -5 -5
1657 553 1 -8.1999999999999995e-01 -1.3373826725499010e+01 -5.0022262387685235e+00 -3.7430804933066266e+00 6 -1 2
1645 549 1 -8.1999999999999995e-01 -8.7131945779037494e+00 -1.4834007168133674e+01 -4.6196334683474483e-01 -3 3 -3
1898 633 2 4.0999999999999998e-01 -9.3456051479249673e+00 -1.3343765616382813e+01 -1.3329291765356643e-01 -2 5 -1
1246 416 1 -8.1999999999999995e-01 -6.8859324199803602e+00 -1.1059361673427301e+01 -1.5227756452280143e+00 -1 0 -3
533 178 2 4.0999999999999998e-01 -7.8498657595430643e-01 -8.1469401611235206e+00 -1.7635850163908291e+00 -1 -2 -9
2470 824 1 -8.1999999999999995e-01 -1.7821295163571804e+00 -1.4347997321997701e+01 -6.0100984848453720e-02 -3 5 4
1942 648 1 -8.1999999999999995e-01 -6.9111297108354002e+00 -8.5820234285411097e+00 -2.7024691488705308e+00 4 -2 8
1115 372 2 4.0999999999999998e-01 -3.4752278386475481e+00 -5.2512709683797922e+00 -3.3454608659266079e+00 0 1 -1
1683 561 2 4.0999999999999998e-01 -1.2426383700601935e+00 -1.0091022177486469e+01 -6.5110258444753146e+00 -5 11 -4
1984 662 1 -8.1999999999999995e-01 -2.6516966387230845e-01 -1.4411675173190666e+01 -4.5148907992959497e+00 -5 6 -4
2521 841 1 -8.1999999999999995e-01 -3.6522290042328631e+00 -7.8023672169459557e+00 -1.2909607515192256e-01 3 0 1
1473 491 2 4.0999999999999998e-01 -5.9434344547605988e-01 -5.4653581273551612e+00 -6.5047541010604668e+00 7 1 -4
1153 385 1 -8.1999999999999995e-01 -3.3378230638494060e+00 -1.2496910595956956e+01 -6.8884144146027886e+00 4 3 -2
1248 416 2 4.0999999999999998e-01 -6.8803583145764122e+00 -1.0342120420164958e+01 -2.2196096375246288e+00 -1 0 -3
2569 857 1 -8.1999999999999995e-01 -2.4262043164687466e+00 -7.7189497130250224e+00 -6.8512054158718882e+00 -1 3 0
2245 749 1 -8.1999999999999995e-01 -4.3468292848231282e+00 -1.0642145541294234e+01 -3.2383147080309804e-01 -4 -1 -4
959 320 2 4.0999999999999998e-01 -5.2186663207027948e+00 -1.4172886634283882e+01 -3.5824411579583284e+00 -2 -1 -5
1155 385 2 4.0999999999999998e-01 -2.9477281567973836e+00 -1.3249355147327957e+01 -6.3576632193301332e+00 4 3 -2
468 156 2 4.0999999999999998e-01 -7.3192339636418033e+00 -6.9382635432868849e+00 -6.0579866757988157e+00 -1 1 5
2523 841 2 4.0999999999999998e-01 -4.0217121893945293e+00 -7.3736813287281029e+00 -9.5356818978584279e-01 3 0 1
2571 857 2 4.0999999999999998e-01 -2.3815217009084897e+00 -8.7108792530668531e+00 -6.7323653483531718e+00 -1 3 0
126 42 2 4.0999999999999998e-01 -3.1756718461537421e+00 -1.1661132991086445e+01 -9.9902170197689877e-01 4 2 -5
774 258 2 4.0999999999999998e-01 -1.6653756506576993e+00 -1.4921603506268845e+01 -5.2800832992498705e+00 0 1 -4
1674 558 2 4.0999999999999998e-01 -7.4377607744835368e+00 -1.2951412719799761e+01 -2.4070024140077351e+00 -1 3 -1
2246 749 2 4.0999999999999998e-01 -4.1179823337937282e+00 -9.6724139247423295e+00 -2.3843060024161922e-01 -4 -1 -4
2570 857 2 4.0999999999999998e-01 -1.5273475368668752e+00 -7.3749607110587609e+00 -7.1228152222342063e+00 -1 3 0
1682 561 2 4.0999999999999998e-01 -2.5417649007479977e+00 -1.1080444823739100e+01 -6.5035322450243545e+00 -5 11 -4
2477 826 2 4.0999999999999998e-01 -1.8920718123591502e+00 -9.7853496137962175e+00 -2.9414457822064541e+00 4 4 3
1471 491 1 -8.1999999999999995e-01 -2.2592177649638501e-02 -6.1435285041424752e+00 -6.9665214313970649e+00 7 1 -4
125 42 2 4.0999999999999998e-01 -2.2711636763456955e+00 -1.1902049828694306e+01 -2.3371423802289666e+00 4 2 -5
958 320 1 -8.1999999999999995e-01 -4.2233433404913381e+00 -1.4199148009041004e+01 -3.4892407232192646e+00 -2 -1 -5
467 156 2 4.0999999999999998e-01 -6.0175916488044106e+00 -6.1714853722054901e+00 -6.6780847437069557e+00 -1 1 5
2472 824 2 4.0999999999999998e-01 -2.1670202647582109e+00 -1.3450047620062495e+01 -2.7361704972780210e-01 -3 5 4
2476 826 1 -8.1999999999999995e-01 -2.1612573945208240e+00 -1.0627496388351695e+01 -3.4087483249079753e+00 4 4 3
1535 512 2 4.0999999999999998e-01 -3.9872950922861090e+00 -7.3628665988121806e+00 -7.4217261014563531e+00 -3 -2 1
2478 826 2 4.0999999999999998e-01 -2.2832973124169378e+00 -1.0443121454311132e+01 -4.3840205051964833e+00 4 4 3
960 320 2 4.0999999999999998e-01 -3.9495105876562597e+00 -1.3667920449725671e+01 -2.6874573679914135e+00 -2 -1 -5
2226 742 2 4.0999999999999998e-01 -2.6418034127450785e+00 -7.4314498372289028e+00 -3.6454494615564048e+00 8 -2 9
176 59 2 4.0999999999999998e-01 -4.9022797405474847e+00 -5.5316583014831320e+00 -2.0740137547422730e+00 -4 3 -6
124 42 1 -8.1999999999999995e-01 -2.5980195512028512e+00 -1.2315371150381978e+01 -1.4872162559942819e+00 4 2 -5
660 220 2 4.0999999999999998e-01 -6.4030935884977129e+00 -1.1554348802473907e+01 -6.0131704780604398e+00 -3 -3 -3
466 156 1 -8.1999999999999995e-01 -6.8919036133545575e+00 -6.0468367067305611e+00 -6.2089525627185296e+00 -1 1 5
854 285 2 4.0999999999999998e-01 -6.9583815171085091e+00 -9.6380350298966064e+00 -4.0241428545880780e+00 2 9 -1
1943 648 2 4.0999999999999998e-01 -6.0801413261215771e+00 -8.0417011777183340e+00 -2.8349600452262447e+00 4 -2 8
658 220 1 -8.1999999999999995e-01 -6.0653968546324037e+00 -1.2040877955118294e+01 -6.8189582913000226e+00 -3 -3 -3
532 178 1 -8.1999999999999995e-01 -1.7066310548282306e+00 -8.4989260098080610e+00 -1.9270516050308988e+00 -1 -2 -9
534 178 2 4.0999999999999998e-01 -2.3205911944525628e+00 -8.1719851421724190e+00 -1.2085766123119974e+00 -1 -2 -9
1681 561 1 -8.1999999999999995e-01 -2.1785501216104013e+00 -1.0207263246987342e+01 -6.1784587351229696e+00 -5 11 -4
659 220 2 4.0999999999999998e-01 -5.1037191029029625e+00 -1.2280239649295252e+01 -6.6850717884073525e+00 -3 -3 -3
177 59 2 4.0999999999999998e-01 -6.1612880107150403e+00 -6.5228300359860754e+00 -1.7590219925919790e+00 -4 3 -6
2224 742 1 -8.1999999999999995e-01 -3.0896091868898434e+00 -6.7322593969733866e+00 -4.2028060491432750e+00 8 -2 9
853 285 1 -8.1999999999999995e-01 -7.1454240884897144e+00 -1.0406230847684416e+01 -4.6364613587559109e+00 2 9 -1
175 59 1 -8.1999999999999995e-01 -5.1984681210572852e+00 -6.4856369250575874e+00 -2.0266751658981690e+00 -4 3 -6
2225 742 2 4.0999999999999998e-01 -2.6755295586006618e+00 -6.7158177747448242e+00 -5.1129222144197968e+00 8 -2 9
2247 749 2 4.0999999999999998e-01 -5.1499723180970953e+00 -1.0744654199050963e+01 -9.1077003951242119e-01 -4 -1 -4
773 258 2 4.0999999999999998e-01 -3.2466931683349110e+00 -1.4706978560977998e+01 -4.9335087407764107e+00 0 1 -4
356 119 2 4.0999999999999998e-01 -1.5281742922392993e-01 -1.2996195443407514e+01 -2.1821083904500860e-01 0 2 0
2471 824 2 4.0999999999999998e-01 -1.5154520178419535e+00 -1.4806484927141398e+01 -9.0787214631775903e-01 -3 5 4
1844 615 2 4.0999999999999998e-01 -8.8012794104005430e+00 -1.2496018155940749e+01 3.9021052324823344e+00 4 3 -1
2361 787 2 4.0999999999999998e-01 -1.1546363211632581e+01 -1.4260225204686353e+01 5.5376369930866076e+00 -3 0 -1
935 312 2 4.0999999999999998e-01 -1.3938704815810945e+01 -8.4937887261658780e+00 6.8001817916248193e+00 -4 -6 -2
1843 615 1 -8.1999999999999995e-01 -9.3456012399430612e+00 -1.1736090419114767e+01 3.5467641049639305e+00 4 3 -1
102 34 2 4.0999999999999998e-01 -9.2558022054336107e+00 -1.0460395187146684e+01 4.9057043190155447e+00 -1 -3 4
100 34 1 -8.1999999999999995e-01 -8.8245996944014706e+00 -1.0239810297455652e+01 5.7806045672481901e+00 -1 -3 4
101 34 2 4.0999999999999998e-01 -8.5522611807311755e+00 -9.2775951341271750e+00 5.7847703321394093e+00 -1 -3 4
49 17 1 -8.1999999999999995e-01 -1.0974752762210096e+01 -1.4434225227812988e+01 2.3639586558566847e+00 -4 0 2
334 112 1 -8.1999999999999995e-01 -1.1530803668164321e+01 -5.5003754431880676e+00 6.8008295039678295e+00 0 2 -2
1845 615 2 4.0999999999999998e-01 -9.9151742089332515e+00 -1.2058903151658786e+01 2.7908393716593238e+00 4 3 -1
51 17 2 4.0999999999999998e-01 -1.0521462919833420e+01 -1.3927909278071940e+01 1.6303265086158021e+00 -4 0 2
923 308 2 4.0999999999999998e-01 -1.2838362199951174e+01 -1.0498261433682302e+01 5.2480389051280589e+00 -3 1 1
2212 738 1 -8.1999999999999995e-01 -1.3614146846206461e+01 -1.3638725228339771e+01 2.4361614971213186e+00 3 -4 1
2214 738 2 4.0999999999999998e-01 -1.2660273335369554e+01 -1.3928925604529779e+01 2.5133156616665140e+00 3 -4 1
431 144 2 4.0999999999999998e-01 -1.3213630672589034e+01 -9.3006953650067246e+00 2.6815103305141612e+00 2 -1 -3
1506 502 2 4.0999999999999998e-01 -1.4050023143455638e+01 -1.4547546786449450e+01 7.1970093227498744e-01 -3 6 0
430 144 1 -8.1999999999999995e-01 -1.3075422859971045e+01 -8.3499857504827730e+00 2.4038531881604577e+00 2 -1 -3
811 271 1 -8.1999999999999995e-01 -1.3797507301730182e+01 -1.1113495099148381e+01 3.5405199348664382e+00 -1 4 -2
2213 738 2 4.0999999999999998e-01 -1.4209359875453382e+01 -1.4344282559304053e+01 2.8208093524279718e+00 3 -4 1
2016 672 2 4.0999999999999998e-01 -1.1981909910715331e+01 -5.4750750226334741e+00 2.0057720853260790e+00 3 0 3
880 294 1 -8.1999999999999995e-01 -8.7420273284590735e+00 -1.4476664370714138e+01 6.9985110513075028e+00 -1 1 -7
395 132 2 4.0999999999999998e-01 -8.4747823308012862e+00 -6.3992624994137248e+00 6.3805172777562404e+00 3 1 -2
1897 633 1 -8.1999999999999995e-01 -9.8420671983335595e+00 -1.2706366663210938e+01 4.5602177482787809e-01 -2 5 -1
2264 755 2 4.0999999999999998e-01 -8.7794234792132535e+00 -6.9887102855084233e+00 5.2085193874920144e-01 -1 0 -6
2263 755 1 -8.1999999999999995e-01 -8.6954139288388141e+00 -7.3610975464254498e+00 1.4451429416467718e+00 -1 0 -6
2015 672 2 4.0999999999999998e-01 -1.1983998969732047e+01 -5.7832592529264861e+00 4.0210097038673354e-01 3 0 3
2265 755 2 4.0999999999999998e-01 -9.5166769609186943e+00 -7.1379937736347054e+00 1.9703052021775846e+00 -1 0 -6
522 174 2 4.0999999999999998e-01 -1.2700922665729927e+01 -8.2682420067639910e+00 7.1224672085323526e-01 1 0 -1
1959 653 2 4.0999999999999998e-01 -1.3779930634771338e+01 -1.3081616990878871e+01 6.7103988942805728e+00 1 -3 -3
1958 653 2 4.0999999999999998e-01 -1.3943672250212424e+01 -1.4047088075548464e+01 5.4035717787104005e+00 1 -3 -3
432 144 2 4.0999999999999998e-01 -1.3812364026106337e+01 -7.7842040581429695e+00 2.7737889551408905e+00 2 -1 -3
1957 653 1 -8.1999999999999995e-01 -1.3290033657729975e+01 -1.3553670615895133e+01 5.9774528156116880e+00 1 -3 -3
922 308 1 -8.1999999999999995e-01 -1.3219914293958823e+01 -1.0036714386357655e+01 6.0489358842843011e+00 -3 1 1
1169 390 2 4.0999999999999998e-01 -1.4426952847814619e+01 -1.1019374444462446e+01 2.7850290911350584e-01 3 1 -7
2360 787 2 4.0999999999999998e-01 -1.0615543327787661e+01 -1.4612346360325054e+01 4.2429061556692638e+00 -3 0 -1
1170 390 2 4.0999999999999998e-01 -1.3574027685720754e+01 -1.2151852139488430e+01 1.0889077383900450e+00 3 1 -7
1337 446 2 4.0999999999999998e-01 -7.5161432189028963e+00 -1.0896153850567247e+01 6.6499451595098122e+00 0 0 0
813 271 2 4.0999999999999998e-01 -1.3800694695278613e+01 -1.2040389550291826e+01 3.1651531773104367e+00 -1 4 -2
625 209 1 -8.1999999999999995e-01 -1.4265970697469466e+01 -6.0369462507894074e+00 5.9817956706959983e+00 1 3 4
664 222 1 -8.1999999999999995e-01 -1.0843931413003414e+01 -6.9464304640778778e+00 2.9589749124040416e+00 3 4 -2
666 222 2 4.0999999999999998e-01 -1.1578398474919414e+01 -7.6204992398667768e+00 2.8800246966822485e+00 3 4 -2
924 308 2 4.0999999999999998e-01 -1.2548577972319681e+01 -1.0045577307192751e+01 6.7900651965770287e+00 -3 1 1
1257 419 2 4.0999999999999998e-01 -7.6947767841746231e+00 -6.2355025571671661e+00 3.0608387588204131e+00 4 2 -3
812 271 2 4.0999999999999998e-01 -1.4731909815838327e+01 -1.0757629916376914e+01 3.5577205269996561e+00 -1 4 -2
262 88 1 -8.1999999999999995e-01 -7.7451576467618661e+00 -9.3791011451995772e+00 2.8859152998656477e+00 2 1 -4
263 88 2 4.0999999999999998e-01 -8.3454803537733504e+00 -1.0177226101176096e+01 2.8344096070628311e+00 2 1 -4