2611
Atoms. Timestep: 23000000
O -4.11902 -8.81697 8.89239
H -3.98738 -9.32524 8.04135
H -4.10301 -9.45124 9.6653
O -5.02901 10.8782 2.76629
H -4.16118 10.8609 2.2698
H -4.98112 10.2504 3.54317
O 4.85521 -6.33728 5.29393
H 4.95455 -6.81757 6.16536
H 5.1199 -6.94582 4.54589
O 7.72995 -8.29839 4.93173
H 8.50833 -7.92995 4.42351
H 6.9168 -8.28778 4.34982
O -11.2425 3.8674 -13.9773
H -10.6811 3.50786 -14.7226
H -12.0466 3.28574 -13.8552
O 12.5874 8.77524 -12.2982
H 12.3139 9.69825 -12.0276
H 13.495 8.57488 -11.9293
O 14.7401 -3.64226 -5.3014
H 14.0107 -3.12803 -4.85042
H -14.5158 -4.16904 -4.61937
O 11.9923 -12.0618 13.5599
H 12.7157 -12.6222 13.9632
H 12.2181 -11.0942 13.6729
O 4.49844 -11.6809 -9.55541
H 4.18385 -10.7331 -9.60732
H 4.06961 -12.132 -8.77277
O -10.1765 10.4954 6.31045
H -11.0142 11.0089 6.49592
H -9.41339 11.1318 6.19809
O 2.09959 -5.92828 10.4177
H 2.34242 -6.86551 10.6678
H 2.16808 -5.3399 11.2233
O 1.55847 -8.24024 -2.29603
H 0.852891 -8.94737 -2.34146
H 1.29568 -7.55001 -1.62191
O 10.0576 0.852537 -2.11378
H 10.9154 1.09993 -1.66324
H 9.88215 -0.123268 -1.98363
O 0.909462 3.64569 -14.6448
H 0.151337 3.98409 14.5609
H 1.73688 3.59357 14.5591
O 5.12729 9.35699 11.5127
H 5.92719 9.82736 11.1401
H 4.65848 8.86472 10.7793
O -13.6837 11.5999 11.0649
H -12.7806 11.4916 10.6495
H -14.2179 12.258 10.5344
O -11.4084 -12.4038 2.20292
H -11.2634 -13.255 1.69858
H -11.2346 -11.6253 1.59987
O -13.564 -7.36913 -2.85039
H -13.4845 -8.18342 -3.42533
H -12.7024 -7.21789 -2.36587
O 11.6172 11.3861 -12.0417
H 11.7602 11.7483 -12.9627
H 11.4959 12.1438 -11.4006
O 6.67773 -7.48041 -13.5993
H 6.99819 -6.66538 -13.1167
H 6.77563 -7.34407 -14.5851
O 3.22662 -4.62453 -0.487837
H 3.97056 -3.98662 -0.686694
H 3.19069 -4.79833 0.496254
O -11.4605 -1.94336 -5.5918
H -11.4079 -2.94035 -5.64811
H -11.2543 -1.54764 -6.48669
O 7.63106 7.90164 -3.27696
H 8.4761 7.45491 -3.57067
H 6.99331 7.21367 -2.93069
O -0.20764 -2.83056 -10.6301
H -1.02979 -2.27254 -10.5177
H -0.15262 -3.15681 -11.5737
O -13.6224 7.05134 -14.3948
H -14.3514 7.57105 -14.8403
H -13.5821 6.13171 -14.7854
O 4.4101 -8.2454 0.88676
H 3.67429 -8.90561 1.03722
H 4.54859 -8.11877 -0.0954404
O 6.08905 2.33832 -7.02176
H 5.26072 2.03808 -6.54885
H 5.98785 2.18051 -8.004
O 12.6184 -6.51336 7.55
H 13.0518 -5.61848 7.65609
H 12.7106 -7.03127 8.40041
O 4.76503 4.26017 0.234487
H 5.64989 4.71239 0.122907
H 4.90528 3.27652 0.347155
O -2.88 -3.72321 13.0579
H -2.31148 -3.862 13.8687
H -2.6728 -4.4292 12.3807
O 2.95325 4.56387 3.9266
H 2.61908 4.57574 2.98419
H 3.44723 5.41247 4.11577
O 0.502445 2.40335 -8.21575
H -0.225613 2.48373 -8.89649
H 0.415035 1.5305 -7.73572
O -7.80866 -5.79655 -11.43
H -7.30832 -5.24093 -10.766
H -7.50129 -5.56903 -12.354
O -8.75828 -8.69623 4.85032
H -9.07576 -7.82585 4.47406
H -8.2239 -9.18295 4.15931
O 13.1424 -5.16175 11.1002
H 13.0182 -5.52207 12.0247
H 12.3776 -4.55936 10.8717
O -14.0897 2.79192 2.88619
H -13.1549 2.49222 3.07681
H -14.6625 2.62814 3.6893
O -7.4992 -8.64871 9.65394
H -6.71927 -8.19029 10.0799
H -7.31597 -8.78244 8.68004
O 6.58326 -10.9645 -7.96526
H 5.68617 -11.2829 -8.2715
H 6.99174 -10.388 -8.67288
O -13.018 -9.6646 -4.41476
H -12.5417 -10.4221 -4.86104
H -14.0051 -9.77973 -4.52601
O -11.3459 -4.61254 -5.90824
H -10.3969 -4.73779 -5.61926
H -11.7179 -5.48716 -6.21907
O -1.48098 -6.90911 -13.1098
H -1.62911 -6.32128 -12.3145
H -2.34751 -7.3285 -13.3803
O -2.72021 14.1426 0.7831
H -3.5147 14.7352 0.650878
H -2.66028 13.8751 1.74476
O 14.4318 7.3334 0.915854
H -14.5185 7.29353 0.334694
H 13.6855 7.77221 0.415479
O -0.851245 -5.02613 14.842
H -0.952489 -5.68625 -14.1769
H -0.524254 -5.49586 14.022
O 5.10413 0.525141 4.91801
H 4.99828 1.25401 4.24163
H 5.63294 0.86595 5.69527
O -3.38439 14.2471 8.10777
H -2.61444 13.8808 8.63023
H -3.82905 -14.7908 8.6335
O 4.96583 -0.0186439 -1.29596
H 5.63805 -0.0720533 -2.03434
H 4.9259 -0.895798 -0.817487
O -9.91419 6.32587 -13.3095
H -10.4452 5.56822 -13.6889
H -10.1223 7.16404 -13.8136
O 2.68067 -5.70743 -10.2905
H 2.16136 -6.43574 -10.7375
H 2.19429 -5.40642 -9.47024
O 4.36111 10.0559 4.23896
H 5.34851 10.1628 4.35535
H 4.07883 9.16325 4.59038
O 0.834909 -11.7303 -7.33097
H 1.48232 -12.4883 -7.2518
H 1.1471 -10.9651 -6.76796
O 10.2053 10.7968 8.05362
H 9.8349 11.4313 8.73195
H 10.1949 9.86842 8.42499
O -8.4696 5.15701 5.06878
H -8.84437 5.79264 4.39391
H -9.15227 4.98383 5.77864
O 3.38862 3.06444 6.16524
H 3.84991 3.64552 6.83568
H 3.51652 3.44568 5.24969
O -9.19378 5.68642 7.81018
H -9.12253 5.47226 8.78434
H -9.31591 6.67203 7.69366
O -14.7973 2.91669 5.50698
H -14.7172 2.10662 6.08777
H -14.3458 3.69082 5.95056
O 0.0315774 -1.14325 11.3339
H -0.216322 -1.86787 10.691
H -0.734702 -0.508353 11.4322
O -7.28169 -1.95092 -13.8456
H -8.19298 -2.32174 -14.0245
H -7.07116 -1.24393 -14.5208
O -5.40533 -8.75141 -4.77837
H -5.28934 -8.34562 -3.87183
H -6.37231 -8.72949 -5.03212
O -1.56313 11.2682 9.9928
H -0.946642 10.4895 10.1089
H -1.21389 11.865 9.27046
O -2.12034 -8.6896 -3.65317
H -1.47008 -9.31731 -3.22529
H -2.08056 -7.80315 -3.19212
O -2.94922 10.2582 1.23091
H -2.20205 10.8867 1.44674
H -2.57184 9.376 0.949296
O -4.75258 6.07054 3.26593
H -5.3634 6.18461 2.48246
H -5.253 5.6442 4.01942
O -4.9895 -2.78897 3.47521
H -5.27427 -2.11588 4.1577
H -5.07765 -2.39417 2.56072
O 5.19821 6.18224 -14.7196
H 6.00889 5.96353 -14.1766
H 5.30884 7.08515 14.6282
O -11.636 10.0964 -11.5167
H -12.3388 10.5045 -12.0993
H -11.8346 10.3049 -10.5591
O 14.1389 -7.76747 -14.8018
H -14.7864 -8.18248 -14.4472
H 13.7292 -8.37383 14.2798
O -9.33603 8.34543 11.1413
H -9.11267 9.32012 11.1371
H -9.43968 8.0313 12.0849
O 9.23048 10.6474 -11.2276
H 8.6281 11.3912 -10.9382
H 10.1441 11.0104 -11.4106
O 0.321723 -1.4294 5.46783
H 1.11385 -1.18359 4.90923
H 0.38086 -0.966318 6.35213
O 9.28119 1.78518 9.32102
H 9.28208 1.41097 10.2483
H 9.6192 2.72607 9.34096
O 6.60941 -12.2769 9.76765
H 5.72761 -12.7425 9.69265
H 7.0002 -12.1542 8.85542
O 14.6455 10.4729 -7.04181
H 14.4622 10.5681 -8.02022
H 14.4728 11.345 -6.58398
O 14.4051 -3.81761 -1.69119
H 13.5468 -4.26297 -1.94602
H -14.5886 -4.35102 -2.0425
O -4.97523 14.862 5.84411
H -4.4934 14.7476 6.71284
H -5.95455 -14.7968 6.01735
O 6.98724 -13.648 -0.20385
H 7.77493 -14.0653 0.24925
H 6.71207 -14.2131 -0.981581
O 8.35477 -14.583 -12.2737
H 8.64994 -14.3141 -11.3569
H 8.92984 -14.1304 -12.9552
O 10.586 10.371 -5.22103
H 10.1604 9.51883 -5.52547
H 11.3627 10.5857 -5.81305
O 2.075 -12.2125 -2.92854
H 1.51688 -11.9221 -2.15131
H 2.98635 -12.4693 -2.60696
O 10.5693 -11.239 -10.3453
H 9.65576 -10.9595 -10.6404
H 10.9709 -10.52 -9.77806
O 2.45352 4.43579 -5.51279
H 1.56096 4.28779 -5.08693
H 2.34751 4.4674 -6.50662
O -12.228 -9.39895 1.2147
H -12.2199 -9.38833 2.21458
H -13.1639 -9.53621 0.890412
O 2.08038 -6.3546 4.85043
H 3.05112 -6.33006 5.08919
H 1.6924 -5.4371 4.93762
O -13.8699 -9.15782 -11.1243
H -13.2479 -8.74252 -10.4606
H -14.7121 -9.43654 -10.6628
O 1.75699 1.17103 6.96435
H 2.51484 1.80093 6.79455
H 2.02485 0.508089 7.66341
O 1.8098 4.53823 -8.06106
H 2.18603 4.94422 -8.89386
H 1.215 3.77174 -8.30323
O 7.45906 9.00618 1.30241
H 6.8793 9.43789 0.611439
H 6.89708 8.72361 2.07975
O -7.97436 -10.5998 2.9685
H -8.91709 -10.4903 2.65351
H -7.35014 -10.2002 2.29721
O 6.62574 1.92709 6.75491
H 7.39255 1.30142 6.89804
H 5.90105 1.7221 7.41274
O 6.55717 11.7291 10.5824
H 5.92263 12.257 10.018
H 7.49047 12.0522 10.4259
O 5.26111 -0.865021 -9.78706
H 4.53162 -1.54264 -9.87988
H 4.85988 0.0465886 -9.69808
O 8.36351 13.1021 -0.121277
H 7.577 13.3193 -0.699343
H 8.05222 12.9254 0.812434
O 4.82206 5.43555 -5.58585
H 4.01023 4.8748 -5.42327
H 5.0663 5.91989 -4.7458
O -8.7207 1.02295 6.83197
H -9.56136 0.879975 7.35427
H -7.99612 0.44076 7.20071
O -3.93024 -10.5319 6.79055
H -3.50772 -11.3406 6.38131
H -4.79708 -10.7889 7.21775
O -0.424545 5.23106 1.96164
H 0.349344 4.59921 1.91916
H -0.111577 6.15628 1.74731
O -12.4959 2.0779 -10.7976
H -12.8275 1.14765 -10.9545
H -11.6334 2.21107 -11.2858
O 9.90413 -9.98932 -4.3845
H 10.0925 -9.00743 -4.36648
H 8.98909 -10.1599 -4.01906
O 9.97939 10.5964 0.657183
H 9.755 9.65842 0.92147
H 9.23371 10.9758 0.10952
O -1.7841 -4.99669 10.9472
H -2.35612 -5.76519 10.6606
H -1.57755 -4.42156 10.1557
O -6.0672 5.0433 -1.43862
H -5.96846 5.54238 -2.29949
H -5.59352 4.16524 -1.50618
O 9.93401 -6.71245 4.03926
H 10.9191 -6.7259 3.86819
H 9.67687 -5.832 4.43753
O 0.498132 -9.28151 -8.49149
H 0.38523 -10.2618 -8.32931
H 0.220441 -8.77452 -7.67553
O -0.85597 -4.63007 2.33498
H -0.0437033 -4.40302 2.8722
H -1.57767 -4.95816 2.94444
O 0.0526245 12.3355 -11.8794
H -0.100766 12.5371 -10.912
H 0.749674 11.6237 -11.965
O -10.764 2.67374 10.4273
H -9.91823 3.1027 10.1101
H -10.5968 1.70584 10.6148
O 1.88462 -3.55952 8.85267
H 2.04578 -4.5316 9.02303
H 0.970048 -3.31222 9.17256
O -5.38849 -6.96396 10.5298
H -4.70315 -7.33097 9.90087
H -5.31484 -5.96711 10.5583
O -2.81261 7.91737 -5.91225
H -2.96532 7.2847 -6.67143
H -2.62152 8.83039 -6.27254
O 8.74509 -3.97679 -6.62293
H 7.94741 -3.56536 -6.18206
H 9.37339 -3.25577 -6.91499
O -3.42569 7.32758 11.309
H -3.03748 7.79368 10.514
H -4.24514 7.81342 11.6129
O -14.1631 -6.23033 5.60179
H -14.4151 -7.10986 6.00531
H 14.7717 -5.71955 5.37176
O -9.12953 -13.8507 10.0044
H -8.30027 -13.9622 9.45685
H -8.97917 -13.1454 10.6971
O -0.21955 -14.8045 10.3167
H -0.334013 -13.8446 10.0612
H -1.03597 14.6427 10.8
O 9.43319 4.98658 4.47692
H 8.65785 5.07895 3.85221
H 9.10805 4.66611 5.36659
O -8.12539 -6.70324 -14.7297
H -9.05235 -6.94258 -14.441
H -7.82423 -7.33686 14.3208
O 1.70334 14.3806 8.49013
H 0.981459 14.356 9.18166
H 2.49471 13.8633 8.81591
O -9.63882 6.86661 3.12123
H -10.0533 7.70677 3.47084
H -9.43206 6.97647 2.14905
O 1.38471 -12.7922 0.0734708
H 1.95219 -13.3534 0.675955
H 0.576768 -13.3124 -0.203237
O 2.08159 -10.1368 0.177935
H 1.31738 -9.536 0.412288
H 1.77444 -11.0883 0.193644
O 2.05351 -14.6186 -10.437
H 1.9105 14.6353 -11.2856
H 2.83859 14.764 -9.94827
O 8.56445 -11.0338 5.69811
H 9.50291 -11.2933 5.92591
H 8.51263 -10.0425 5.57762
O -8.62345 12.643 5.24553
H -7.66269 12.3674 5.27628
H -8.72001 13.5593 5.6342
O 2.74524 3.85345 12.9818
H 2.33351 3.52321 12.1325
H 2.9266 4.83384 12.9051
O -12.414 -0.620312 -11.7629
H -11.9367 -1.49822 -11.726
H -13.0294 -0.608398 -12.551
O 9.97916 -14.5536 11.0757
H 10.0446 -13.5573 11.1306
H 10.4335 14.8015 11.8676
O 5.0572 10.7977 -13.85
H 4.07564 10.9517 -13.963
H 5.55461 11.6335 -14.0824
O -10.6832 2.54473 -3.14524
H -10.64 1.84777 -2.42947
H -10.0631 2.29694 -3.88958
O 6.74647 -3.54321 13.7865
H 6.44515 -4.12441 13.0306
H 5.95793 -3.28928 14.3466
O 12.2343 -10.1109 -1.60739
H 12.2003 -10.9425 -1.05308
H 11.6737 -9.40196 -1.17952
O 11.982 8.13713 -0.254098
H 11.6875 8.6147 -1.08184
H 11.3598 8.35753 0.497045
O -11.9719 -4.87727 6.85536
H -12.7834 -5.11856 6.32327
H -11.2304 -4.62171 6.23499
O -1.91068 -9.06214 5.42715
H -1.16754 -8.44815 5.69302
H -2.61932 -9.05275 6.13261
O 5.49313 4.21273 12.9147
H 4.57121 3.86761 12.739
H 5.44681 4.97115 13.5648
O -13.0088 7.5186 -4.41734
H -12.3817 7.6718 -3.65369
H -13.0679 8.34866 -4.97181
O 9.84581 -5.77778 8.06248
H 10.6431 -5.99822 7.50062
H 9.02416 -5.78505 7.4926
O 2.54941 6.8722 13.7148
H 3.4722 6.69005 14.0542
H 1.92751 6.99308 14.4884
O 12.2496 1.17051 9.76292
H 11.6923 1.18193 8.93271
H 11.9398 1.89185 10.3823
O 12.5244 4.4554 -4.06213
H 12.473 5.07082 -3.27565
H 12.7987 4.97265 -4.87275
O -9.46035 6.04208 12.9204
H -10.4173 6.10115 13.2044
H -9.41489 5.83657 11.9428
O -3.05899 -1.20891 -3.2258
H -3.64556 -1.72103 -3.85318
H -3.01091 -0.254082 -3.51893
O 4.32499 -2.7993 -14.5864
H 4.39351 -3.36858 -13.7671
H 3.39428 -2.84746 14.8143
O 8.61173 8.80781 6.33228
H 8.48027 7.98919 6.89131
H 9.39195 8.67263 5.72161
O -12.5557 -6.83019 3.59785
H -12.5619 -7.79797 3.84942
H -13.1281 -6.31608 4.23651
O 11.5948 -13.609 -10.8247
H 11.2277 -14.0845 -11.6241
H 11.2383 -12.6751 -10.7996
O 7.94691 -4.49777 10.3464
H 8.4014 -3.84637 9.73888
H 8.59283 -5.21412 10.6101
O 3.15488 -9.19353 -9.80152
H 3.3532 -8.53154 -10.5243
H 2.1823 -9.15531 -9.57226
O -3.66593 2.68325 -1.31407
H -3.63783 3.23244 -0.478883
H -3.88494 1.73544 -1.08251
O 2.798 -3.93646 -5.20291
H 3.6624 -4.41243 -5.36474
H 2.68242 -3.21427 -5.88483
O -8.54468 1.2438 -12.5924
H -8.74676 2.18114 -12.3087
H -9.34587 0.852526 -13.0451
O 6.0424 13.3114 7.701
H 5.36032 13.1668 6.9842
H 6.95912 13.2432 7.30742
O 4.28538 -13.8729 9.52913
H 3.42434 -13.528 9.90274
H 4.39486 -14.8353 9.77779
O -8.81399 10.0165 -10.6003
H -8.608 10.0219 -9.62183
H -9.76843 9.75221 -10.7386
O 9.56011 12.3156 14.557
H 10.2896 12.4791 -14.542
H 8.67215 12.432 -14.7613
O -11.0822 14.5339 -8.37934
H -10.5243 14.6528 -9.20066
H -10.4916 14.3056 -7.6054
O -7.51648 -6.87444 -7.2713
H -6.61415 -6.74797 -7.68329
H -7.93226 -7.71033 -7.62955
O -5.6437 -7.50219 4.47337
H -5.86332 -8.02846 5.29479
H -6.25405 -6.71262 4.41029
O 12.1466 5.52834 -1.45962
H 13.0143 5.15588 -1.13045
H 12.0653 6.48395 -1.17653
O 2.02067 -13.4087 6.56448
H 2.24362 -12.5578 7.0401
H 1.86868 -14.1352 7.23463
O -12.9627 8.80368 3.18758
H -12.9293 9.59613 2.57861
H -13.875 8.39562 3.15388
O -6.28132 3.27091 -5.56708
H -5.8324 2.38034 -5.49426
H -5.74279 3.86801 -6.16155
O -4.86798 2.82424 3.94472
H -5.0159 1.97186 3.44323
H -3.95121 3.17183 3.74811
O 8.0594 11.8345 -4.184
H 7.93966 11.2644 -3.37126
H 8.72505 11.4072 -4.79576
O -6.89864 -8.43098 6.9343
H -6.73672 -9.40719 7.07826
H -7.55229 -8.3081 6.18759
O 11.2686 -13.8659 -3.98562
H 11.7568 -13.1214 -4.44097
H 11.8735 -14.3032 -3.32015
O 7.1902 12.5791 -10.5343
H 7.20805 12.8748 -9.57926
H 7.00989 13.3665 -11.1237
O 13.4817 -10.6188 10.9144
H 13.1327 -11.4863 10.56
H 14.4773 -10.598 10.8237
O 14.1225 5.36945 -6.4683
H 14.3656 6.32745 -6.62027
H -14.8104 4.83725 -6.30231
O 1.06438 -1.08876 -4.85008
H 1.78848 -1.69389 -4.5193
H 1.44497 -0.182197 -5.03235
O 7.63064 5.36404 2.72043
H 7.87081 5.3501 1.74983
H 6.71152 5.7421 2.83096
O 4.49858 -13.0606 -2.2191
H 4.76728 -13.8532 -1.6717
H 4.84351 -12.2263 -1.78926
O 2.39403 -0.87952 -10.8506
H 1.90215 -1.20854 -10.0445
H 2.71479 0.0534597 -10.6875
O -13.3363 1.96562 9.923
H -12.4107 2.34119 9.96906
H -13.9208 2.4379 10.5827
O -13.7427 -5.6368 1.58178
H -14.2886 -6.25177 1.01279
H -13.2966 -6.16156 2.30672
O 3.41514 -5.30043 2.10614
H 4.14278 -4.74658 2.51076
H 3.76522 -6.2153 1.90515
O 10.3476 -8.572 13.1976
H 9.44403 -8.7505 12.8083
H 10.3262 -7.71336 13.7097
O -9.7394 0.408974 -10.0972
H -10.1984 -0.291688 -10.6434
H -9.55643 1.20957 -10.6678
O -0.347613 -10.7 -1.99542
H -0.843125 -11.4121 -2.49273
H -0.427762 -10.8629 -1.01208
O -10.2288 6.03418 -5.15335
H -10.6086 6.17927 -4.23975
H -9.27267 5.75178 -5.07589
O 7.81858 10.337 -1.99891
H 7.62849 9.42922 -2.37271
H 7.0602 10.6215 -1.41251
O 2.18278 -8.6452 -13.6943
H 2.14548 -9.58702 -13.3603
H 1.62307 -8.06083 -13.1068
O 5.69705 2.73723 -12.9205
H 5.0023 2.38977 -13.5502
H 6.57602 2.79635 -13.3936
O 12.4275 12.1877 14.8758
H 12.6209 11.3477 14.3688
H 13.2389 12.7721 14.8743
O 10.6775 3.79948 7.24118
H 10.84 3.56291 6.28328
H 9.69392 3.8792 7.40261
O 6.75767 14.4982 -4.32132
H 7.12906 13.5749 -4.2235
H 7.50893 -14.6065 -4.36657
O 9.5305 1.0086 -7.28416
H 8.76658 1.07453 -6.64228
H 9.26712 1.41576 -8.15868
O -7.17644 -10.3694 -13.0431
H -7.64416 -9.70004 -12.466
H -6.59881 -10.9545 -12.474
O 7.27783 -14.2238 13.9101
H 6.34283 -14.3861 14.2254
H 7.35794 -14.495 12.951
O -8.78378 2.57661 -5.00719
H -9.34017 2.88737 -5.77777
H -7.8554 2.9364 -5.0999
O -7.50309 0.599954 13.4331
H -7.99599 -0.239496 13.2044
H -7.93303 1.3754 12.9708
O 8.92315 -12.6789 -14.3338
H 8.38081 -13.3729 -14.8073
H 8.76446 -11.7865 -14.7563
O 11.5502 -11.6602 -5.6589
H 10.925 -10.9403 -5.35743
H 11.1123 -12.2035 -6.37519
O 12.1701 -5.5421 -1.92689
H 12.0304 -5.53553 -0.936747
H 11.3077 -5.32996 -2.38655
O 11.0526 11.0469 -8.17486
H 11.8723 11.4527 -8.57893
H 10.8777 10.1578 -8.59775
O 2.24357 -10.763 -5.20107
H 2.15942 -11.1554 -4.2852
H 3.18653 -10.8593 -5.51964
O -7.78676 3.47387 13.0091
H -8.64584 3.06882 13.3219
H -7.8393 4.46931 13.0883
O -14.5678 -1.5328 13.6852
H 14.4403 -2.16245 13.8681
H -14.4885 -1.38494 12.6994
O 10.8003 -7.46713 -12.3407
H 10.0023 -7.54124 -11.7427
H 11.614 -7.28324 -11.7894
O -13.5568 14.7513 -9.24953
H -12.6472 14.4939 -8.92342
H -14.0914 -14.643 -8.48921
O -6.80759 -8.51243 -10.6632
H -7.11899 -7.59783 -10.921
H -5.90315 -8.44997 -10.2413
O -10.802 -12.3132 -3.07656
H -11.464 -11.8696 -2.47253
H -9.91139 -12.3521 -2.62357
O 12.6575 -7.15539 -9.66751
H 11.7553 -6.73015 -9.59553
H 13.185 -6.6988 -10.3839
O 10.6748 3.69826 -10.5385
H 11.5471 3.3675 -10.1783
H 10.3649 4.47915 -9.99624
O -7.80632 6.32575 10.2516
H -6.88542 6.66421 10.4448
H -8.45814 7.08193 10.3087
O 7.08663 -14.5294 11.2972
H 6.93548 -13.542 11.2517
H 7.95723 -14.7539 10.8595
O 0.0147491 4.22482 -4.23645
H -0.805067 3.81168 -3.84003
H -0.176109 5.17539 -4.48125
O 8.48878 12.7231 6.72941
H 8.97825 11.8542 6.8027
H 8.97865 13.4261 7.24489
O -3.30914 11.359 -1.37437
H -3.09973 12.3352 -1.42986
H -3.48804 11.11 -0.422551
O 13.4176 -3.45841 7.6618
H 14.0329 -3.81214 8.3662
H 12.7382 -2.85803 8.08361
O -0.658626 13.1832 7.51067
H -0.158263 14.0286 7.69773
H -0.357445 12.8043 6.63566
O -14.8449 9.88399 -10.8426
H -14.3475 9.2743 -10.2256
H -14.4155 9.86724 -11.7455
O 2.45288 -5.43019 13.0402
H 3.14134 -5.83535 13.6417
H 1.64319 -6.01656 13.0179
O 1.63095 4.7159 -2.0353
H 2.21906 3.90901 -2.09
H 1.00413 4.72492 -2.81437
O 13.3656 -4.40233 -11.4879
H 13.4605 -5.31816 -11.878
H 14.1128 -4.23488 -10.8448
O 5.47598 6.3168 -2.23464
H 4.50992 6.27857 -1.97929
H 5.80077 5.39566 -2.44899
O 6.00815 -1.6459 1.58515
H 6.87945 -1.35536 1.98056
H 5.27449 -1.05913 1.92774
O -12.579 -12.0084 13.4541
H -11.8233 -12.3883 13.9876
H -12.3491 -11.0791 13.1653
O -12.9914 1.8274 -14.0367
H -12.8221 1.69048 14.7504
H -13.4346 1.0149 -13.6581
O -6.24754 7.87791 -7.21074
H -5.80668 7.5411 -6.37879
H -6.95722 8.5391 -6.96762
O -4.76334 -13.3126 -5.80148
H -4.04318 -13.9544 -6.06487
H -4.41354 -12.6869 -5.10429
O 14.2116 6.34374 5.55843
H 13.3766 5.88084 5.85583
H -14.837 5.66526 5.38758
O -9.86609 -6.58502 3.3733
H -9.57229 -6.25731 2.4754
H -10.8606 -6.68941 3.38098
O -3.62387 7.0857 14.6614
H -2.78841 7.48407 14.283
H -3.73022 7.37567 -14.1506
O 5.9875 -14.3188 -11.1971
H 6.84838 -14.4884 -11.6768
H 5.5091 -13.5553 -11.6308
O 3.72607 -6.70067 -14.8799
H 4.70972 -6.68199 -14.7009
H 3.32085 -7.49748 -14.4317
O -7.23111 12.4041 -0.15774
H -6.85862 13.0693 0.489229
H -7.11344 11.481 0.208504
O 14.5121 -14.8286 -7.03565
H 14.1028 14.0487 -6.81673
H -14.7044 -14.5132 -6.26
O -14.7988 7.40938 8.8711
H -13.8545 7.52076 9.18075
H 14.8334 7.90846 8.01453
O 4.68939 5.56573 10.011
H 5.38652 6.07601 10.5145
H 4.85111 4.58487 10.1192
O -0.778593 -10.3424 -14.85
H -1.33321 -9.93782 -14.123
H -0.248414 -11.1051 -14.4797
O -1.13559 1.07303 13.9666
H -1.04225 2.04073 13.7325
H -0.26786 0.604705 13.8003
O -4.32114 6.05445 7.59135
H -4.7823 5.55533 6.85775
H -3.33709 6.07277 7.41461
O 7.03466 7.74956 -11.055
H 6.46961 8.55335 -11.2409
H 6.46307 7.01989 -10.6798
O 10.8434 9.71279 -2.24245
H 10.9333 9.9239 -3.21573
H 9.87552 9.70354 -1.9914
O 7.75477 0.395618 -11.3022
H 7.01181 -0.0972985 -10.8495
H 7.93646 -0.0204225 -12.1932
O -3.60341 -3.75435 -9.37048
H -3.13789 -3.11122 -8.76253
H -4.58217 -3.75776 -9.16564
O -6.37044 -12.2409 4.15743
H -5.52417 -12.0495 3.66034
H -7.08683 -11.6149 3.84938
O 2.09299 14.6613 11.5746
H 1.21211 14.7805 11.1166
H 2.38879 -14.2282 11.9609
O 2.5368 10.7022 8.47103
H 1.67375 10.4277 8.89504
H 2.35315 11.344 7.72655
O -3.85879 -7.73077 -10.9205
H -3.70415 -8.2948 -11.7316
H -3.09709 -7.09273 -10.808
O 0.899092 -4.78053 -3.53059
H 1.43891 -4.29575 -4.21871
H 1.48571 -5.0257 -2.75877
O 9.57912 5.72245 -4.98821
H 10.4323 5.60124 -5.49557
H 8.84739 5.21195 -5.43976
O 6.81261 -1.51052 9.73697
H 7.14315 -1.94145 8.89734
H 6.17658 -2.1276 10.2002
O -12.3512 5.73857 13.071
H -13.1482 5.13592 13.0323
H -12.6034 6.64667 12.7369
O 6.63262 -10.202 -13.9626
H 6.71788 -9.2273 -13.7562
H 6.99207 -10.3814 -14.8783
O -6.18744 -0.201289 -6.81578
H -6.76457 -0.0259683 -7.61334
H -6.49226 -1.03822 -6.36129
O -2.04569 6.52093 -8.34173
H -1.69718 5.69087 -8.77702
H -1.46593 7.2966 -8.591
O -12.7537 -2.84072 9.02664
H -12.5424 -2.68249 8.06214
H -13.541 -3.45289 9.09928
O -5.81697 11.9665 12.9304
H -4.88494 11.8688 12.5815
H -6.00041 11.2449 13.5979
O 7.11444 -12.8664 4.02926
H 6.50678 -13.4263 4.59247
H 7.29272 -11.9984 4.49269
O 8.04077 -11.4445 -11.6686
H 8.2879 -12.4131 -11.6437
H 7.74509 -11.1997 -12.592
O 10.4455 -2.91569 6.64977
H 9.75428 -3.28219 6.02697
H 11.3494 -3.24235 6.37394
O -8.48887 -4.14739 -3.41174
H -9.05732 -3.32657 -3.46697
H -8.74042 -4.7771 -4.14666
O -6.15828 -1.2678 -1.20522
H -5.89816 -2.13034 -1.63914
H -6.69541 -0.720508 -1.84701
O -6.0383 -14.8609 10.001
H -6.19757 14.0121 9.57408
H -5.44227 14.7887 10.7959
O 8.99832 12.2583 9.98567
H 9.36698 11.9617 10.8666
H 9.15151 13.2401 9.8738
O 7.32153 -5.00233 -12.6384
H 6.52227 -4.41058 -12.5337
H 8.07863 -4.63896 -12.0955
O -4.01381 13.1734 -4.74969
H -4.74986 12.9831 -4.10008
H -3.13696 13.1741 -4.269
O 4.63684 -3.72372 4.35504
H 5.13747 -3.13273 4.98752
H 4.81252 -4.68121 4.5837
O 3.45685 -0.262355 11.6979
H 4.33226 0.192584 11.8611
H 2.84573 -0.0966713 12.4718
O -14.6526 4.75315 8.22398
H 14.8408 5.71468 8.17246
H -14.5981 4.47316 9.1824
O 1.38678 -8.45376 3.31929
H 1.60572 -7.53158 3.63803
H 0.659395 -8.4059 2.63479
O -3.86246 -4.95861 -3.86796
H -3.12839 -5.38274 -3.33769
H -3.50514 -4.66125 -4.75331
O -8.22782 -1.94373 4.88316
H -7.31452 -2.11283 5.25359
H -8.14868 -1.49313 3.99399
O 0.963005 14.5206 4.9191
H 1.3151 -14.3999 5.32652
H 0.0276006 14.6707 4.59906
O 10.405 -1.82487 13.7474
H 9.53519 -1.57841 13.32
H 10.2368 -2.16843 14.6713
O -4.47341 9.56202 -8.2006
H -5.34749 9.09172 -8.07922
H -4.30236 10.1557 -7.41435
O 13.7568 1.51293 1.42825
H 14.7223 1.55758 1.68462
H 13.2687 2.28708 1.83131
O 10.5417 -1.5624 -7.19001
H 11.278 -1.60128 -7.86547
H 10.0951 -0.668792 -7.2348
O -2.41713 -1.15919 -10.7337
H -3.14721 -1.60506 -10.2159
H -2.74457 -0.94397 -11.6537
O 14.8758 -9.8063 4.96046
H 14.1351 -9.18637 4.70171
H -14.6453 -10.3811 4.1788
O -13.5851 0.740354 -8.00956
H -13.2967 1.60226 -8.42657
H -13.8907 0.909274 -7.07256
O 3.44055 7.20774 4.99146
H 3.78476 6.96273 5.89778
H 2.46311 7.41058 5.04977
O -1.48057 -11.7748 11.3456
H -2.21655 -11.0994 11.3001
H -0.88879 -11.6773 10.5455
O 11.871 2.27594 -6.61892
H 12.4598 2.12813 -5.82431
H 11.0338 1.73848 -6.51799
O -6.08515 -13.3344 14.6554
H -7.00476 -13.7135 14.5528
H -6.13626 -12.3359 14.6723
O -2.17159 -13.373 13.8211
H -1.62962 -13.9919 13.2527
H -2.21049 -12.4719 13.3893
O 7.15978 5.87159 0.0451332
H 7.74288 5.50433 -0.67946
H 6.74787 6.7297 -0.261315
O -9.29386 0.916634 -0.214741
H -8.65575 1.68257 -0.136663
H -10.201 1.20609 0.0906394
O -2.27426 12.8909 -7.01686
H -2.35278 11.9777 -7.41687
H -2.92056 12.9794 -6.25899
O -10.4129 3.31632 6.68976
H -10.0224 4.06656 7.22316
H -9.7736 2.54753 6.6781
O -3.07766 4.70611 1.57325
H -2.1449 4.70145 1.93362
H -3.65926 5.26838 2.16106
O -0.0561341 8.09931 1.94247
H -0.984733 8.10482 1.57151
H -0.056615 7.64931 2.83546
O -12.526 4.67523 5.41832
H -11.8861 4.22327 6.0397
H -12.1627 4.64685 4.48712
O -7.27289 -11.483 -4.16779
H -7.82379 -11.061 -4.88779
H -6.30967 -11.4733 -4.43619
O -1.34092 2.91545 9.75034
H -1.84494 3.68623 10.1399
H -1.68134 2.06153 10.1439
O 7.10687 -9.3018 -10.0851
H 7.30168 -10.1327 -10.6062
H 6.29051 -8.85936 -10.4563
O -11.5556 10.3336 12.8875
H -10.6453 10.5463 12.5325
H -11.9347 11.1417 13.3384
O -10.0216 -12.2379 -12.885
H -9.33956 -12.8027 -12.4205
H -10.7172 -11.9474 -12.2279
O -11.8937 -8.11696 -9.67202
H -11.6749 -7.5324 -10.4533
H -12.0973 -7.54702 -8.87599
O -6.12887 13.5238 2.05533
H -5.57273 14.3245 2.27782
H -5.64367 12.694 2.3309
O -13.7823 1.39091 -1.65938
H -14.1295 0.979932 -2.50229
H -13.8174 2.38737 -1.73538
O -0.029179 -7.35837 5.90571
H -0.072572 -7.50016 6.89462
H 0.903451 -7.1086 5.64541
O -7.79254 -14.15 5.61607
H -7.29153 -13.4915 5.05453
H -8.53586 -13.6825 6.09452
O 12.8872 -6.22266 3.18717
H 13.0159 -7.02252 3.77331
H 13.2771 -5.41677 3.63262
O 1.87067 6.21224 9.17336
H 1.44021 5.55744 8.55218
H 2.7894 5.8947 9.40798
O 6.9756 14.3904 -7.53401
H 7.15055 -14.4672 -7.1474
H 7.76737 13.801 -7.37396
O 4.41842 -10.5232 -1.38787
H 4.59188 -9.75309 -2.00171
H 3.55097 -10.3807 -0.911261
O -8.86716 10.4011 2.11165
H -8.66494 11.3135 2.46731
H -9.48668 9.92877 2.73857
O 3.82364 5.07527 -12.4947
H 4.51454 5.29521 -11.8061
H 4.18086 5.28642 -13.4045
O 2.06727 -12.0716 10.8342
H 2.09861 -11.6628 11.7463
H 1.79874 -11.377 10.1668
O 9.98284 -1.39715 -12.881
H 9.19229 -1.01049 -13.3558
H 9.7057 -1.71042 -11.9727
O 8.55093 1.98392 -4.5581
H 8.9165 2.77111 -5.0547
H 9.22051 1.67594 -3.88226
O -14.799 -4.61273 9.46293
H 14.3256 -4.76317 10.2177
H -14.1303 -5.35587 9.43885
O -7.50764 5.48293 -4.78543
H -6.96418 6.29198 -4.56178
H -6.89976 4.74029 -5.06631
O 10.7888 -10.2672 3.87651
H 11.2549 -11.1516 3.85796
H 9.94196 -10.3255 3.34789
O 14.0002 1.41625 12.2365
H 13.5028 1.16973 11.4048
H 13.4676 1.14185 13.0371
O -13.4546 -8.75498 7.00993
H -13.9216 -9.31803 6.3281
H -12.4653 -8.84303 6.894
O -11.5392 -0.902761 -8.37409
H -12.2945 -0.322305 -8.0698
H -10.8581 -0.343186 -8.84609
O 5.47238 -8.26506 3.49387
H 4.8948 -8.97964 3.88847
H 5.32805 -8.22802 2.50507
O 14.2172 -12.7792 -12.2218
H 13.8254 -12.2049 -11.503
H -14.6521 -13.1176 -11.9279
O -13.0136 -6.65983 9.6211
H -12.1001 -6.42436 9.28949
H -13.5202 -7.12882 8.89766
O -4.81607 14.646 12.6971
H -5.39259 13.8346 12.793
H -5.13291 -14.4069 13.3258
O -3.46433 -11.0656 3.43345
H -3.02041 -11.7052 4.06095
H -3.13834 -10.1383 3.61698
O -13.0771 -13.3083 9.45909
H -13.3604 -13.7713 10.2989
H -12.3437 -13.8293 9.02241
O 14.8484 8.85547 6.62375
H 14.8406 7.90858 6.30239
H 13.9166 9.21841 6.61398
O 8.47215 -13.1189 -4.17942
H 9.45817 -13.2659 -4.10159
H 8.23551 -12.9451 -5.13532
O 0.791457 7.74833 4.98863
H 0.886486 8.31471 5.80724
H -0.132738 7.36829 4.95171
O 13.231 9.58274 9.33526
H 13.9974 8.94641 9.24766
H 12.8565 9.78024 8.42933
O -6.08282 12.0577 -2.9016
H -6.23946 12.3324 -1.95294
H -6.47188 11.1493 -3.05415
O -13.9601 -0.944391 10.9467
H -13.4812 -1.46775 10.2419
H -14.0508 0.00674432 10.6516
O 2.71821 -0.345778 8.93534
H 2.75881 -1.28978 8.60801
H 2.6691 -0.341145 9.93409
O 1.81951 12.3659 6.03513
H 1.5043 13.0997 5.43335
H 1.8129 11.4995 5.53594
O 6.46541 -2.59147 6.94382
H 6.76424 -2.03583 6.16801
H 5.63408 -2.19729 7.33553
O -6.45589 12.9265 -8.5859
H -6.38459 13.8665 -8.25243
H -6.01289 12.8554 -9.47956
O -3.23452 -1.33712 -7.67723
H -3.62535 -0.482323 -8.01854
H -2.35001 -1.15171 -7.24921
O -0.628201 0.511842 -6.3451
H -0.429505 -0.154112 -5.6261
H -1.49533 0.968397 -6.14615
O -9.8289 3.25885 -11.1365
H -10.12 3.77237 -11.9437
H -9.46698 3.89133 -10.4518
O 6.54932 6.41644 5.62048
H 6.32122 6.72206 4.69609
H 5.93901 6.85849 6.27778
O -4.41127 -1.79413 11.8288
H -3.69274 -2.36337 12.2283
H -4.28261 -0.844879 12.1157
O 11.4153 -14.1003 -13.816
H 12.2094 -13.585 -13.4937
H 10.7502 -13.4708 -14.2176
O 12.6275 4.15209 14.2121
H 12.2879 3.89028 -14.6477
H 12.2106 5.01861 13.9376
O 14.501 12.5868 -2.88395
H 14.19 13.5361 -2.83842
H 13.962 12.0289 -2.25296
O 7.11375 -8.53221 7.53183
H 7.14546 -8.41044 6.53982
H 8.03665 -8.70424 7.8762
O -7.75101 2.16228 10.7469
H -7.98344 2.66718 11.5781
H -7.04149 2.65619 10.2443
O 4.02618 9.05133 -3.1355
H 3.55916 8.23162 -2.80398
H 4.98459 8.83613 -3.32279
O 0.378076 -12.5711 -10.3025
H 0.540299 -12.0988 -9.43614
H 1.05108 -13.3022 -10.4146
O 7.92657 2.75795 -0.299639
H 8.43225 3.12241 0.482279
H 8.545 2.22573 -0.877757
O 9.45665 -10.0993 9.06826
H 9.73072 -10.4303 8.16535
H 9.48977 -10.8535 9.72396
O 14.4912 -12.5204 14.721
H 14.426 -12.3827 -14.0538
H -14.8539 -11.7159 14.2992
O 3.94524 -12.1191 2.41013
H 4.04607 -11.5164 3.20165
H 4.53129 -11.7949 1.66756
O 10.5508 -7.26785 -4.44753
H 10.1752 -6.47512 -3.96748
H 11.5451 -7.28082 -4.34244
O -8.74438 10.0382 -7.93372
H -8.61696 11.03 -7.9252
H -9.1796 9.75074 -7.08056
O 6.90734 10.6217 5.05193
H 7.23911 9.76682 5.45068
H 7.24186 11.3936 5.59256
O -11.1421 4.48548 2.67034
H -10.5844 5.24679 3.00101
H -11.152 4.48927 1.67043
O 13.9229 -10.3553 -4.09532
H 13.4544 -10.2234 -3.22181
H 13.2991 -10.7882 -4.74609
O -7.62822 6.77129 -11.8964
H -7.29982 7.7047 -12.0408
H -8.52977 6.66652 -12.3162
O 11.4073 -13.7185 4.8223
H 12.1042 -14.4335 4.76652
H 10.6254 -13.97 4.2519
O 3.32403 10.7302 1.74312
H 3.61226 11.5484 1.24576
H 3.89013 10.62 2.56002
O -13.2151 6.74225 -7.13768
H -13.235 6.84324 -6.14303
H -12.5171 6.07246 -7.3908
O 14.7892 -8.14629 -7.92153
H 14.1301 -7.84114 -8.60885
H 14.352 -8.80589 -7.31021
O -11.1029 -3.10033 11.4518
H -11.1098 -3.78195 12.1834
H -11.6178 -3.44744 10.668
O 4.43558 6.27607 7.41882
H 4.55754 7.08184 7.99831
H 4.71469 5.45828 7.92206
O -0.0203578 -9.14801 -5.74629
H -0.480464 -8.39591 -5.27451
H 0.759952 -9.4554 -5.20171
O 7.42747 -3.41032 -2.56045
H 8.29775 -2.93408 -2.43499
H 7.19245 -3.42465 -3.5323
O 0.854195 -12.3621 -13.302
H 0.774633 -13.3587 -13.3217
H 0.465415 -12.0135 -12.4492
O -5.85609 -3.67685 -2.46656
H -6.78303 -4.00628 -2.646
H -5.2169 -4.1222 -3.09349
O -3.52056 -12.9134 9.65632
H -4.4453 -12.547 9.75902
H -3.02281 -12.8081 10.5172
O 8.02049 -0.052496 -14.1377
H 7.04194 -0.11296 -14.3344
H 8.4736 0.47202 -14.8584
O -9.78576 -1.32335 -3.36287
H -10.2399 -1.25216 -2.47484
H -10.4556 -1.57803 -4.06032
O 12.7914 1.05698 -1.47633
H 13.1749 0.20475 -1.83206
H 13.4177 1.44857 -0.802302
O -9.80184 -10.2466 9.30376
H -8.95945 -9.71447 9.38819
H -10.1584 -10.453 10.2149
O -1.99984 8.5997 8.66767
H -2.49034 9.44954 8.47502
H -1.03145 8.71651 8.44743
O -1.27724 3.83342 13.4381
H -1.65277 4.3915 14.178
H -1.45471 4.27966 12.561
O 10.0195 -6.37938 14.696
H 10.1778 -6.82167 -14.1843
H 9.21326 -5.79112 14.7577
O -8.88752 10.9732 11.7418
H -8.58291 11.3307 10.8589
H -8.09823 10.8574 12.3447
O 4.82922 -4.79575 -9.01068
H 4.10545 -5.11537 -9.62218