2611
Atoms. Timestep: 8000000
O -8.74417 7.74428 5.06315
H -8.42549 7.2849 4.23405
H -9.22552 8.58478 4.81445
O -1.05939 -1.49893 7.78527
H -1.60211 -1.98896 8.4674
H -0.105804 -1.79445 7.84303
O -2.4429 9.14529 -11.9906
H -2.32923 8.82102 -12.9297
H -2.05798 8.47392 -11.3573
O 5.35151 2.78648 3.1688
H 5.30089 3.12512 2.22925
H 6.00892 2.0345 3.2171
O 5.62881 -6.03441 1.58856
H 4.75886 -6.51498 1.47794
H 5.87482 -6.00924 2.5575
O 13.3223 -9.33231 -6.39357
H 14.2133 -9.7627 -6.24881
H 13.3862 -8.35608 -6.18646
O -2.50886 13.6908 6.0969
H -3.42594 13.295 6.14463
H -1.84622 12.9722 5.88606
O -13.023 10.936 0.59797
H -13.6248 11.1416 1.36965
H -13.2879 11.4931 -0.189061
O -13.929 13.1782 10.4227
H -13.6885 13.6839 9.59427
H -14.7289 13.5995 10.8501
O 13.9083 9.89664 -6.72225
H 13.1645 9.80404 -7.38423
H 14.0923 10.8663 -6.56107
O 0.110061 -2.78406 4.69487
H -0.807306 -2.63493 4.32582
H 0.307409 -2.09051 5.38772
O 13.7876 13.3422 -4.42596
H 12.7953 13.4663 -4.42268
H 14.2306 14.1904 -4.13577
O 2.37974 0.970273 -5.27664
H 2.87772 0.220131 -4.84155
H 3.02962 1.65639 -5.60359
O 13.6001 0.276846 -10.0388
H 14.4539 0.757929 -9.83995
H 13.022 0.27269 -9.22281
O -2.12533 7.36834 4.24983
H -2.73658 8.10825 4.53072
H -2.19934 7.23173 3.26198
O 9.8238 3.81558 -13.2381
H 8.9884 3.59031 -12.7368
H 9.62723 4.53028 -13.9094
O 4.31273 14.7692 -0.664908
H 4.7907 -14.3197 -1.14109
H 4.21438 -14.822 0.301891
O 7.99809 6.05172 5.64649
H 8.70904 6.66682 5.98737
H 7.6697 5.47489 6.39443
O 14.2609 -0.510885 10.6766
H 14.7777 -1.33536 10.4459
H 13.4831 -0.75601 11.2553
O 7.0424 -10.2136 5.01754
H 6.57183 -9.36108 4.79018
H 7.9228 -10.2448 4.54433
O 6.23025 -9.30497 -2.22703
H 5.61524 -9.84088 -1.64862
H 6.10258 -9.56851 -3.1832
O -12.6779 -10.8442 -12.2714
H -12.0835 -11.636 -12.4117
H -12.3642 -10.0864 -12.8436
O -12.3042 -2.58797 8.09318
H -13.189 -2.18507 8.32708
H -11.5703 -1.98482 8.40559
O -7.55662 -4.77878 -13.2434
H -6.61302 -4.57788 -13.5065
H -8.14584 -4.01477 -13.5063
O -3.3533 -5.20947 -1.05028
H -2.88969 -5.0225 -0.184199
H -4.12069 -4.57787 -1.16071
O -10.357 -4.22056 3.89052
H -10.1187 -4.64583 4.76366
H -11.3325 -4.34956 3.71212
O -5.06396 -8.2761 7.14321
H -5.40699 -8.0801 8.06186
H -4.06661 -8.20358 7.13732
O 13.811 11.44 12.2124
H 14.4207 10.6777 12.4298
H 13.0588 11.1125 11.6405
O -3.84901 4.34729 4.81806
H -2.84902 4.3492 4.82026
H -4.18221 3.60766 5.40279
O 8.67776 -9.57224 10.3732
H 8.14076 -9.75315 11.1972
H 8.16217 -8.96852 9.76521
O 11.9574 6.53559 3.0934
H 11.3614 7.20195 2.64542
H 12.8833 6.61513 2.72391
O -4.70316 -9.20836 -10.4001
H -3.95926 -9.79667 -10.0831
H -5.57314 -9.55056 -10.0451
O -8.27994 7.72479 -14.9004
H -8.97813 7.07133 -14.608
H -8.70424 8.61571 14.7646
O 8.4737 -12.941 -3.71268
H 8.61608 -13.0461 -4.69689
H 9.13686 -13.5028 -3.21809
O 1.36937 8.02756 -2.64121
H 0.496341 7.53997 -2.6329
H 1.858 7.8218 -3.48909
O 11.2899 12.9977 -1.72841
H 10.6464 13.2686 -1.01252
H 12.2251 13.0756 -1.38289
O 8.73281 5.92181 0.932662
H 8.30315 6.26675 0.0981499
H 8.049 5.86339 1.65998
O 12.724 -9.26479 -11.6138
H 12.909 -8.31195 -11.8544
H 11.9619 -9.60563 -12.1644
O 2.45025 4.94897 12.9156
H 2.01103 4.27518 13.5098
H 1.76724 5.35124 12.3059
O -7.47605 -1.17926 -13.5118
H -7.30317 -1.79171 -12.7405
H -8.22388 -1.54442 -14.0663
O -7.51305 6.5187 10.5621
H -6.56437 6.74487 10.7831
H -7.89649 7.22955 9.97244
O -11.0198 11.7906 -4.95175
H -10.1391 11.6453 -4.50093
H -11.2701 10.9705 -5.46639
O 2.246 12.1867 -9.57237
H 1.82131 11.7516 -8.77844
H 2.68386 11.4895 -10.14
O 7.04686 0.825701 -10.2274
H 7.17807 0.94804 -9.24364
H 7.49219 -0.0203674 -10.5204
O 0.832158 -3.78179 8.36707
H 0.734532 -4.56208 8.98481
H 1.5885 -3.20496 8.67564
O 14.2956 5.10897 -7.62298
H 13.6472 5.24317 -6.87363
H 13.9649 4.38104 -8.2236
O 8.04484 -9.55914 1.86878
H 8.0014 -8.75498 1.27596
H 7.15145 -10.008 1.88759
O 10.1234 -4.11952 -4.23869
H 11.051 -3.83699 -4.48294
H 9.57793 -4.22702 -5.06992
O -7.03008 -2.33821 -5.61932
H -7.07652 -2.37485 -6.61757
H -6.4618 -3.08973 -5.28427
O 1.30072 -8.90209 7.7001
H 0.464317 -8.4558 8.01829
H 2.01403 -8.80719 8.39449
O -0.56684 0.644608 -5.17721
H 0.423194 0.764915 -5.10404
H -0.905317 1.14439 -5.97448
O -13.4778 11.149 -10.383
H -12.955 11.9832 -10.5587
H -13.1935 10.4363 -11.0242
O 5.29622 -1.71286 -12.4678
H 5.62422 -1.74558 -11.5237
H 4.988 -0.78589 -12.6817
O -11.6846 5.41737 -7.3962
H -10.7357 5.10198 -7.38616
H -11.751 6.25713 -7.93507
O -1.85327 2.90226 2.60211
H -2.13401 1.97611 2.85397
H -1.38562 3.33065 3.37528
O -13.1356 3.85199 6.06609
H -13.7876 4.2334 6.72139
H -13.6265 3.52984 5.25659
O -1.01829 6.55978 1.55286
H -0.141212 6.31474 1.96599
H -1.04829 7.54681 1.39516
O -3.4497 -12.999 -0.767291
H -3.4989 -12.2094 -1.37891
H -3.77877 -12.7385 0.140385
O 7.16691 -8.23099 -14.7979
H 7.43813 -9.18906 -14.8903
H 7.97086 -7.64547 -14.9019
O 0.342351 9.63704 -0.667224
H -0.640222 9.71772 -0.834661
H 0.766631 9.12417 -1.41351
O 8.73164 1.30646 -2.32353
H 9.11537 2.04086 -1.7637
H 7.74018 1.27431 -2.19714
O 0.635919 -6.27788 -3.44773
H -0.271655 -5.85944 -3.41295
H 0.71289 -6.96735 -2.72753
O -6.96218 6.56812 -0.571859
H -7.14024 7.52862 -0.358017
H -6.01422 6.4638 -0.872668
O -11.2737 9.49114 10.173
H -11.6399 9.46931 9.24269
H -11.4757 10.3773 10.59
O 6.24023 10.21 -9.47673
H 6.10588 10.8792 -10.2076
H 5.48841 10.2773 -8.82081
O 5.56652 -11.9502 -10.5989
H 4.90962 -12.3487 -9.95878
H 6.09366 -11.238 -10.1353
O 2.24903 -0.0508838 3.40609
H 2.77595 -0.876028 3.20241
H 1.49033 0.0281818 2.75946
O 14.5982 13.8002 3.91419
H 13.7096 14.1608 4.19764
H -14.5002 14.3347 4.34254
O 12.964 6.7748 7.71514
H 12.6607 6.50186 8.6281
H 12.3466 6.38896 7.02958
O -4.7643 -1.27395 10.5176
H -4.2716 -0.716228 11.1855
H -5.59196 -1.64486 10.9388
O 11.1467 -9.30288 -0.484809
H 11.8319 -9.72816 -1.07614
H 10.2732 -9.25309 -0.969064
O 12.4019 3.73156 1.56524
H 11.675 4.17988 2.08545
H 13.2838 3.91291 2.00048
O -13.8003 -10.0694 14.178
H -13.6512 -10.9089 13.6556
H -14.6275 -10.164 14.732
O -11.3249 -3.19228 11.2201
H -10.3371 -3.05504 11.146
H -11.5211 -4.17025 11.2913
O 12.0148 -10.6928 -9.46708
H 12.445 -11.5949 -9.43676
H 12.4309 -10.1493 -10.1961
O 13.0806 2.86999 -8.84892
H 12.1744 2.85642 -9.27135
H 12.9843 2.8942 -7.85387
O -12.9148 0.327509 0.970365
H -13.1745 0.145698 1.91878
H -12.7596 -0.538684 0.495376
O 0.684453 -10.8586 -2.83967
H 0.0473051 -10.9901 -3.59911
H 0.385014 -11.4021 -2.05546
O 11.375 2.4479 13.2963
H 11.1786 2.76542 12.3686
H 11.486 3.23594 13.9018
O -5.35373 -3.57061 -1.60591
H -5.4194 -2.57634 -1.69019
H -6.26805 -3.95558 -1.48019
O -8.17135 -5.48311 -9.64623
H -8.60027 -5.15259 -8.80552
H -7.1789 -5.50865 -9.52632
O -11.5428 -7.57263 2.76309
H -11.6775 -7.0283 1.9351
H -12.3587 -7.51213 3.33811
O -9.51373 10.2646 14.5742
H -9.80951 10.8405 -14.4906
H -10.3142 9.94909 14.0647
O 13.4058 -3.37667 2.70744
H 13.6499 -4.29594 3.01624
H 13.8531 -3.18905 1.83299
O -11.879 -0.389386 11.0448
H -12.1863 -1.18675 11.5643
H -11.5637 -0.681127 10.1418
O 7.80833 -7.26008 0.110907
H 8.09141 -7.53197 -0.80884
H 6.92801 -6.78814 0.0628423
O 8.24476 13.6493 -2.5615
H 8.62314 13.3138 -1.69879
H 8.98095 14.0243 -3.12493
O -3.72738 -13.8453 10.3988
H -4.61626 -14.2914 10.5033
H -3.52023 -13.3179 11.2227
O -6.34507 1.81669 -7.95664
H -5.55258 1.6094 -7.38308
H -7.09874 2.13475 -7.38146
O 5.08906 7.63022 4.7453
H 5.89384 8.03783 4.31382
H 4.37677 8.32491 4.8455
O 7.01769 -11.3879 7.7449
H 6.88209 -11.2434 6.76473
H 6.93302 -12.3623 7.95304
O 13.0598 -10.2533 -2.41699
H 13.4118 -9.32624 -2.5461
H 12.3993 -10.4624 -3.1381
O -3.51076 5.46604 13.4991
H -2.98723 5.35564 14.3439
H -3.42334 6.40747 13.1734
O -5.18106 -0.585059 -1.86708
H -4.44109 -0.60726 -2.53935
H -4.92966 0.0237589 -1.11466
O -9.32549 5.75017 -11.4467
H -8.35185 5.76343 -11.219
H -9.80681 5.14049 -10.8169
O -10.2906 5.74737 -13.8249
H -9.97029 5.44965 -12.9256
H -10.1173 5.0265 -14.4959
O 4.28614 0.263588 -10.5079
H 5.22407 0.576877 -10.3591
H 4.11967 -0.559674 -9.96518
O 8.97645 -14.0541 4.40087
H 9.56286 -13.3882 4.8621
H 8.66495 -13.6764 3.52893
O 0.808407 -12.0461 10.9627
H 0.847953 -12.3527 10.0117
H 1.08171 -12.7953 11.5661
O -5.46957 8.79529 -14.058
H -5.9669 8.26238 -14.7426
H -5.01238 8.17514 -13.4205
O 4.81477 -14.0542 -6.86747
H 5.36384 -13.6891 -6.11566
H 5.14948 14.8631 -7.11352
O -10.2742 -13.7958 -14.4784
H -10.263 -13.2793 14.4923
H -10.2631 -14.7753 -14.6799
O -0.481873 -6.78865 3.75824
H -1.0593 -6.31686 4.42456
H -1.04334 -7.40925 3.21087
O 4.11867 -2.19832 5.15314
H 5.01785 -1.94587 5.51056
H 3.72018 -2.91303 5.72793
O -9.67706 -5.23519 6.16089
H -9.31187 -4.53021 6.76887
H -10.0795 -5.97015 6.70665
O -0.0641271 -5.75335 -0.019688
H 0.356598 -5.10732 -0.656585
H 0.600714 -6.45806 0.228018
O 11.8115 10.5443 10.1912
H 10.8344 10.6323 9.9978
H 12.271 10.131 9.40505
O 3.75303 2.14486 13.5757
H 4.37427 2.23295 12.7971
H 2.95675 1.60281 13.3072
O -4.84984 11.5336 -0.00638429
H -5.38006 10.7515 -0.333887
H -4.53065 12.0704 -0.787352
O 0.749032 -12.473 8.11264
H 0.324747 -11.6825 7.67085
H 0.277931 -13.3074 7.82662
O 9.13177 8.06974 11.5998
H 8.29851 8.54248 11.3131
H 9.30866 8.2619 12.5651
O -13.8481 -7.6059 4.523
H -14.3511 -8.46138 4.6459
H -13.8118 -7.11278 5.3922
O -10.4435 -10.2106 12.3267
H -10.2357 -10.2281 13.3047
H -9.79597 -9.60899 11.859
O 7.88467 -11.9961 -12.1396
H 7.03077 -12.2767 -11.7013
H 7.9116 -12.3503 -13.0744
O 7.72191 -3.28471 14.4606
H 7.45656 -4.10612 -14.8616
H 8.33499 -2.73078 -14.8031
O 10.8024 -13.3842 6.28349
H 11.2066 -12.4948 6.49695
H 11.4046 -14.1116 6.61231
O 4.7519 -0.202597 -3.27411
H 4.72002 -0.659668 -2.38525
H 4.95908 -0.873127 -3.98647
O -6.76872 -9.07914 13.5035
H -5.90062 -9.12269 13.9979
H -7.41471 -8.51123 14.0135
O -4.07903 -7.81792 12.2407
H -4.55072 -6.98369 11.9551
H -4.6421 -8.30807 12.906
O 6.87558 -1.72634 1.85922
H 7.58031 -1.6289 1.15648
H 7.23029 -2.28027 2.61243
O 9.81722 14.1245 -12.5922
H 10.1329 14.848 -11.9783
H 9.21171 14.5159 -13.2851
O -6.32669 12.7054 -3.91429
H -6.90376 12.4028 -3.15571
H -6.72583 13.5217 -4.33172
O -0.654933 -0.85452 11.4648
H -1.48545 -0.506862 11.9
H -0.902721 -1.42539 10.6821
O -8.46722 -7.21585 14.7589
H -7.9101 -6.5063 -14.6366
H -9.31014 -7.34184 -14.545
O 2.42404 10.8116 0.520925
H 1.76866 10.1509 0.154954
H 2.34753 11.6715 0.0162538
O 4.18565 -11.6705 5.95282
H 4.68355 -10.8471 5.68049
H 4.107 -11.6982 6.94933
O -5.32107 8.36828 -9.20754
H -5.4598 8.58416 -8.24102
H -6.20812 8.24087 -9.65126
O -0.274908 -10.2012 -8.00825
H -0.150083 -10.8161 -7.22962
H 0.373369 -10.4421 -8.73053
O 8.59035 -13.3155 -6.45025
H 9.20835 -13.3879 -7.23308
H 7.86413 -12.6603 -6.65842
O -3.44923 3.03711 -7.18076
H -3.57636 3.94357 -6.77807
H -3.98781 2.36698 -6.67002
O 6.843 5.47995 -10.0078
H 6.00232 5.37767 -9.47603
H 6.8658 6.38908 -10.4237
O 5.08528 4.40046 -7.88973
H 4.42121 3.68124 -7.68546
H 5.86475 4.32067 -7.2684
O 12.991 7.4327 -12.5717
H 12.8895 6.44256 -12.4753
H 13.3111 7.82066 -11.7074
O 5.24041 11.8921 -0.803899
H 4.99532 12.8583 -0.724318
H 4.71317 11.4744 -1.54383
O -7.48278 4.35676 7.90545
H -8.43066 4.55485 8.15502
H -7.40171 3.39593 7.64044
O -7.23395 9.34206 12.6208
H -7.69956 8.52264 12.9551
H -7.02693 9.94539 13.391
O 5.97461 2.93212 11.8836
H 6.15499 3.48971 12.6939
H 6.72704 2.28749 11.7483
O 12.8984 -1.20077 -7.51742
H 12.2733 -1.19032 -8.29792
H 13.1523 -2.14469 -7.30635
O -12.4746 -13.0424 -1.5289
H -12.0243 -13.5164 -0.772205
H -11.7848 -12.7125 -2.17332
O -2.04177 14.6628 -6.70296
H -2.67516 14.8862 -5.96209
H -2.22583 -14.5733 -7.48841
O 12.6543 2.74195 5.75378
H 11.7713 2.81133 5.28953
H 12.5569 3.04384 6.70213
O -6.14597 -10.7314 3.86612
H -5.52496 -9.98624 4.1092
H -6.72498 -10.9522 4.65097
O 10.557 13.5968 11.0193
H 11.5438 13.7541 10.9816
H 10.3314 12.7699 10.5042
O -10.5482 11.2748 -12.6547
H -10.8806 12.1423 -12.2846
H -11.2374 10.5648 -12.5099
O -10.3935 2.25865 -10.8126
H -9.96653 1.83359 -10.0145
H -10.7494 1.5473 -11.4187
O -0.837325 9.23049 1.93974
H -1.71463 9.70101 2.03426
H -0.399513 9.51007 1.08525
O 1.05439 11.9014 -5.31917
H 0.45979 11.3078 -4.77684
H 1.13759 12.7906 -4.86932
O 14.3389 -2.99725 0.299531
H -14.8619 -2.21908 0.250827
H 14.843 -3.84237 0.121708
O 12.8563 -0.731994 3.9078
H 12.7797 -1.58829 3.39704
H 13.2692 -0.0320953 3.32503
O -14.783 2.73335 3.96642
H -14.6845 3.44988 3.27587
H 14.1464 2.80999 4.40054
O -8.09708 1.49044 -13.3003
H -7.97224 0.49834 -13.2882
H -9.01588 1.70675 -13.6305
O 10.6919 -0.137769 6.29299
H 11.0248 0.207683 7.17041
H 11.344 0.0986118 5.57267
O -5.20325 -7.6133 -7.456
H -5.36762 -6.87494 -8.11006
H -4.27962 -7.97397 -7.58566
O 13.6955 9.60651 5.08804
H 13.9063 8.76292 5.5819
H 12.721 9.81155 5.17945
O -3.17881 -0.377052 -3.7213
H -2.33193 0.1516 -3.77885
H -2.99669 -1.32695 -3.97532
O 9.57625 12.1903 13.2077
H 8.61167 12.4531 13.1851
H 10.0077 12.4307 12.3381
O 0.764768 -13.6059 -11.5694
H 0.780099 -12.6449 -11.2932
H -0.05675 -13.784 -12.1111
O 12.7348 14.4038 14.8049
H 12.2929 14.0689 -14.1898
H 13.6093 14.8283 -14.7873
O 7.51645 0.817424 -7.63268
H 8.50567 0.932193 -7.72352
H 7.31591 -0.111162 -7.32042
O 0.895781 -2.46384 13.2976
H 0.531479 -1.79122 12.6535
H 1.64722 -2.96422 12.8676
O 2.98962 2.97933 9.21697
H 2.25035 2.78609 8.57189
H 2.75273 3.78168 9.7648
O 13.3243 -14.0321 9.72131
H 13.1411 -13.2312 10.2912
H 13.2073 -14.8626 10.266
O 12.0505 4.71668 -11.6421
H 12.5414 3.84997 -11.5537
H 11.2159 4.57427 -12.1744
O -13.0724 11.4378 14.5931
H -12.6167 11.7109 13.746
H -13.7371 10.7169 14.3966
O 3.05003 -5.33468 9.33014
H 3.70579 -4.58006 9.30734
H 3.44259 -6.1314 8.87066
O 2.3499 12.2218 6.32833
H 2.69996 11.7725 5.50644
H 2.39197 13.2139 6.20939
O 2.93389 -5.40437 -12.4077
H 2.18215 -6.06344 -12.3851
H 2.69137 -4.60321 -11.8606
O 4.67378 13.2396 -8.2154
H 3.7249 13.1809 -8.52551
H 5.28013 13.3035 -9.00803
O 5.53978 -1.89178 -5.55592
H 5.349 -2.85016 -5.34355
H 6.52876 -1.74481 -5.57372
O 3.31689 -3.56871 12.7686
H 3.80087 -3.56412 13.6437
H 3.52387 -4.41495 12.2777
O 9.05928 -6.49696 -7.66587
H 9.01525 -7.27472 -8.29288
H 9.87389 -5.95277 -7.86651
O 0.415876 7.4658 14.1216
H 0.458483 7.0255 13.2248
H 0.999235 6.96956 14.7646
O -1.34076 -14.7004 0.321914
H -2.11023 -14.3975 -0.240382
H -1.18855 14.1485 0.179566
O 14.7463 6.82829 -9.66253
H 14.5007 6.35144 -8.81855
H -14.0851 6.88931 -9.73329
O -14.8663 -8.20047 -8.88917
H 14.2433 -8.50586 -8.263
H 14.6499 -7.38695 -9.38072
O -2.3321 14.0803 -10.4818
H -1.91728 13.2303 -10.8064
H -2.40765 14.7258 -11.2417
O -3.34304 10.3796 2.37377
H -3.50669 10.9688 1.58253
H -4.12825 9.77492 2.50714
O -8.48566 -12.6794 -9.10578
H -8.98771 -13.1174 -8.36005
H -7.7735 -13.2985 -9.43687
O 12.7488 5.94882 -5.43768
H 12.612 6.35423 -4.53385
H 11.8609 5.78837 -5.86886
O 4.81063 -9.38861 -5.2746
H 4.23135 -9.91706 -5.89522
H 4.23586 -8.88829 -4.62705
O 11.0257 1.91049 -10.7724
H 10.2738 1.88093 -11.431
H 11.7991 1.38404 -11.1255
O -7.4183 14.6673 6.04449
H -7.54475 14.8366 5.06707
H -7.99248 13.8988 6.32667
O 1.35567 -14.137 12.8084
H 1.80651 14.7995 12.7476
H 1.66246 -13.6637 13.6342
O 3.31475 9.66876 5.03177
H 2.38897 9.34832 4.83117
H 3.43445 9.74335 6.02177
O 1.53847 6.31784 2.93225
H 2.52401 6.29252 2.76476
H 1.27429 7.23552 3.22903
O 4.6803 5.11284 10.9931
H 3.923 5.1016 11.6461
H 5.05267 4.18959 10.8986
O -0.208085 7.7682 -8.90806
H -0.26208 6.7977 -8.67312
H -0.600666 8.31288 -8.16698
O 6.02287 -7.26483 -6.76105
H 5.72986 -8.02985 -6.18756
H 6.99839 -7.35361 -6.96226
O 7.09192 6.08431 2.96389
H 7.05365 7.06036 2.74975
H 7.34358 5.96335 3.92411
O 3.48206 -14.3566 -13.8388
H 4.3462 -14.6525 -13.4318
H 2.73848 -14.5048 -13.1868
O 6.2033 -12.3631 11.8083
H 6.27997 -13.1472 12.4242
H 6.01355 -12.6851 10.8808
O -6.62073 9.45992 0.0681763
H -7.38505 10.1037 0.105832
H -6.22029 9.36429 0.979493
O -8.62795 -12.6579 0.913218
H -7.84541 -13.0675 1.38213
H -8.31069 -12.1665 0.102118
O -0.823223 -7.87486 9.34183
H -0.271957 -7.15951 9.77122
H -1.40393 -8.30732 10.0316
O -4.44829 13.4575 1.99332
H -4.67558 12.6709 1.41912
H -3.51344 13.3615 2.33515
O 0.266876 -6.60287 -11.7064
H 0.315982 -7.41465 -12.2883
H -0.300341 -5.90881 -12.1498
O -1.29047 -4.69238 -2.61515
H -0.527741 -4.33223 -2.07799
H -2.09142 -4.80003 -2.02619
O -3.5136 5.9385 -6.9627
H -3.68745 6.88168 -7.24586
H -4.22462 5.64602 -6.32325
O -8.47913 -4.36775 1.50222
H -7.778 -5.05344 1.69775
H -8.66354 -3.83473 2.32798
O -13.9392 0.519247 -12.2581
H -13.9584 1.32612 -12.8485
H -13.0487 0.457169 -11.8074
O 12.6231 -9.43426 4.39578
H 12.6265 -9.21538 3.42003
H 13.4566 -9.93563 4.62785
O 6.72327 -1.43557 12.9222
H 7.10234 -2.15055 13.5097
H 5.74382 -1.59261 12.7957
O 9.99825 5.45899 11.8111
H 9.93017 5.21529 12.7785
H 9.48861 6.30285 11.6433
O -8.83642 12.4165 6.31086
H -8.78679 12.0022 7.21961
H -8.75485 11.7035 5.61449
O -5.82284 14.5717 -6.59237
H -5.45025 14.1764 -7.43198
H -5.0732 14.8956 -6.01523
O -3.14246 14.586 -2.40914
H -2.28672 14.0687 -2.39918
H -3.14069 -14.5792 -1.65938
O -12.9685 -4.68481 3.87021
H -13.7243 -5.14164 3.401
H -13.2312 -4.49145 4.8155
O -9.34109 -0.0377407 3.16866
H -8.9135 -0.55075 2.42436
H -10.1079 0.494141 2.80935
O 8.79342 10.0806 6.17535
H 9.02153 9.15142 5.88451
H 8.23952 10.043 7.00708
O -14.1982 -5.44206 0.333625
H -14.1698 -6.31268 -0.157507
H 14.8657 -5.44868 0.979859
O 0.87787 8.76131 4.08005
H 0.285429 8.95901 3.29907
H 0.3677 8.89978 4.9289
O -14.6106 -3.15162 11.2415
H 14.6332 -3.77652 10.7224
H -13.6521 -3.32486 11.0153
O -10.2065 -7.50118 -10.1283
H -9.61055 -6.75249 -9.83797
H -10.904 -7.66202 -9.43006
O -2.89136 -3.10052 -4.38562
H -3.71756 -3.6047 -4.63701
H -2.34863 -3.64686 -3.7477
O 13.7209 12.3507 6.36143
H 12.8202 11.9507 6.19196
H 14.3237 12.1543 5.58806
O 0.63632 -10.9537 -10.6468
H -0.198736 -10.827 -11.1822
H 1.1223 -10.0826 -10.5762
O 9.96786 7.71865 6.48213
H 10.1762 7.90356 7.44255
H 10.5614 6.9868 6.14726
O 0.824475 -6.85177 -7.50959
H 0.238579 -6.21432 -7.00921
H 0.796186 -7.74805 -7.06702
O -5.3193 3.03387 -10.4183
H -5.67771 2.43209 -9.70458
H -4.32694 3.11094 -10.322
O 7.02825 9.97475 -1.79783
H 6.66084 10.8095 -1.38774
H 7.02148 10.0619 -2.794
O -8.68917 0.395462 -9.04599
H -8.56153 -0.590818 -8.94131
H -7.87428 0.873629 -8.71841
O -13.3334 4.97916 14.7833
H -12.5389 5.357 -14.5684
H -13.0986 4.80661 13.8267
O 14.4227 3.8602 -13.6046
H 13.4925 3.99205 -13.9471
H -14.7546 4.29405 -14.2288
O -14.1242 -2.0622 -12.1098
H 14.8611 -2.51248 -11.8118
H -14.3072 -1.09445 -12.2829
O -2.90404 1.58831 9.13187
H -2.48529 2.44538 8.83173
H -3.42268 1.74702 9.972
O 11.717 -11.8039 13.7398
H 11.1125 -12.5872 13.8845
H 12.3723 -12.0178 13.0154
O 11.0693 0.220077 -2.78275
H 10.104 0.468847 -2.86239
H 11.1887 -0.411267 -2.01649
O 5.83352 12.2892 -6.10205
H 5.37703 12.6112 -6.93147
H 6.74105 12.7044 -6.0385
O 1.25063 14.9028 2.75501
H 1.16095 14.0779 3.31307
H 0.52133 -14.2817 2.99027
O 1.77762 13.3828 0.015586
H 1.74472 13.9691 0.824996
H 2.60603 13.5829 -0.507538
O 14.5294 4.45996 -3.70843
H 14.0035 4.8477 -4.46543
H 14.6089 5.13685 -2.97666
O -8.07864 -6.35987 10.4266
H -8.61017 -6.53788 11.2547
H -8.23296 -7.09542 9.76691
O 4.1637 0.401005 9.73747
H 3.87484 1.35332 9.83571
H 4.04285 -0.0754888 10.6083
O 1.55035 -10.7112 4.70155
H 1.76213 -9.86245 4.2171
H 2.36843 -11.0379 5.17486
O 5.10592 -4.51544 -5.30134
H 5.22833 -5.19137 -4.57462
H 4.5388 -4.90515 -6.02694
O -5.3378 -5.38686 -9.01521
H -4.75822 -5.77352 -9.73255
H -5.26586 -4.38956 -9.03
O 5.6242 10.4666 14.254
H 4.67617 10.1804 14.3932
H 6.19467 9.66172 14.0903
O -12.0837 -10.7398 2.06446
H -11.2972 -10.1322 2.17505
H -11.8892 -11.4096 1.3478
O 1.25428 9.59547 -13.0761
H 1.19815 10.5345 -12.7369
H 1.38454 8.97031 -12.3066
O 2.36053 6.39241 7.57271
H 3.2784 6.53657 7.94247
H 2.42548 5.91671 6.69551
O 13.5239 -9.60798 10.955
H 13.2481 -8.8521 11.5488
H 13.3576 -9.35993 10.0007
O 10.1376 3.13723 4.71984
H 9.78763 3.33902 3.80507
H 9.37111 2.98769 5.34444
O -10.7151 7.04138 0.745348
H -11.4466 6.49336 0.339769
H -10.5376 7.83917 0.169115
O -2.56959 -14.3346 3.55613
H -2.18699 14.7468 3.01054
H -2.91884 -14.6986 4.41957
O 8.67656 -6.1376 -12.2011
H 8.17622 -6.83025 -11.6816
H 9.19711 -6.5801 -12.9313
O -3.32058 -7.80659 -5.0737
H -4.15204 -7.67689 -5.61393
H -3.43659 -7.38135 -4.17608
O 7.82245 2.25529 6.42812
H 7.877 1.57084 7.15513
H 6.87472 2.55726 6.32505
O -8.88039 10.981 0.36503
H -9.17168 11.8455 -0.0444193
H -9.58491 10.2872 0.215441
O -3.76946 -11.9438 6.2708
H -4.52442 -12.5878 6.39412
H -2.89964 -12.431 6.34854
O 11.3042 5.0302 14.3626
H 10.3768 5.13883 14.7206
H 11.7018 5.93102 14.1881
O 10.2796 -10.7576 -13.236
H 10.191 -10.4814 -14.193
H 9.39276 -11.0702 -12.8958
O -7.82607 6.94757 -6.42302
H -7.27313 6.93536 -5.58989
H -7.46231 7.63235 -7.05449
O -2.02003 -4.27592 1.09874
H -1.26232 -4.82903 0.752409
H -1.67737 -3.63259 1.78336
O 3.9024 -6.46777 12.3335
H 4.33848 -6.36808 13.2279
H 4.60545 -6.5364 11.6257
O -3.07103 7.96826 12.3227
H -2.33959 8.24526 11.6996
H -3.85634 8.57627 12.2061
O 10.9035 -3.79622 1.62689
H 11.8347 -3.62118 1.94671
H 10.891 -3.80721 0.627033
O 6.68824 -5.72149 4.65668
H 7.50045 -6.16116 5.04008
H 6.93155 -4.81514 4.31127
O 12.5034 -3.99051 -5.12134
H 13.2507 -4.14669 -4.47548
H 12.8733 -3.9155 -6.04735
O -4.28125 -0.559064 7.74129
H -4.77065 -0.577586 8.61315
H -3.31696 -0.350619 7.9047
O 13.7558 -12.2292 11.8978
H 14.6702 -12.5614 12.1292
H 13.7744 -11.2329 11.8141
O 2.78959 13.248 13.2044
H 2.15241 12.5759 13.5815
H 3.61922 13.2704 13.7623
O -4.02105 -11.1897 -12.8006
H -4.09677 -10.5655 -12.023
H -4.34773 -10.7327 -13.6279
O -7.81251 -5.41536 -6.56389
H -8.758 -5.19659 -6.32266
H -7.76152 -6.35948 -6.88952
O -5.01583 10.9488 -10.3619
H -5.27838 11.1647 -11.3023
H -5.00021 9.95647 -10.2396
O -8.06099 -13.3599 -6.18667
H -7.28764 -13.9434 -6.43454
H -7.73885 -12.425 -6.03777
O -12.1697 3.60519 9.6491
H -12.7436 2.80487 9.47543
H -11.7661 3.91876 8.7896
O -5.97813 -13.3548 7.293
H -6.5555 -13.936 6.71956
H -6.218 -13.4913 8.25416
O -9.38378 -2.07695 14.7171
H -9.16489 -1.4689 13.954
H -10.2952 -2.46576 14.5827
O -11.4977 2.60788 3.50075
H -12.4567 2.42857 3.71994
H -11.2257 3.48792 3.89003
O 2.49287 -6.16748 1.5405
H 2.28498 -5.82026 2.45495
H 2.4689 -7.16715 1.55014
O -5.46241 3.45885 -13.2141
H -6.1083 2.74854 -13.4939
H -5.45556 3.52896 -12.2166
O 12.0203 -2.54974 -13.5118
H 12.4429 -2.1857 -12.6818
H 12.6851 -3.10967 -14.0062
O 13.5481 9.49559 2.17959
H 13.8733 9.42622 3.12266
H 13.1059 10.3822 2.04388
O -8.92342 -14.7342 12.6723
H -8.98242 14.1132 12.8645
H -7.96375 -14.4713 12.573
O 10.5674 -7.67452 9.74455
H 10.0302 -8.48572 9.9754
H 9.95657 -6.89055 9.63389
O 5.55549 3.58255 8.52048
H 4.62819 3.44987 8.8705
H 5.52861 3.65179 7.52325
O -6.44359 7.81096 7.31235
H -6.0906 8.7434 7.38955
H -7.44215 7.82731 7.36323
O 9.94229 -9.81617 13.778
H 9.15444 -9.9113 13.1695
H 10.5365 -10.6146 13.6812
O -3.18109 -12.86 12.9683
H -2.87064 -12.0232 13.4192
H -2.53981 -13.6019 13.1643
O -0.0967514 -11.5916 -14.3967
H -0.326487 -12.2302 -13.6623
H 0.782626 -11.8476 -14.7981
O -8.40141 -2.36232 7.36764
H -7.80587 -2.09254 6.61098
H -9.19867 -1.75933 7.39564
O -8.36932 12.4582 12.8275
H -8.90366 11.6275 12.9837
H -7.39727 12.2569 12.9483
O 5.67398 -12.823 -4.68009
H 4.96587 -12.2813 -4.22708
H 6.57508 -12.4652 -4.4351
O -9.84218 6.79661 7.37579
H -9.5859 6.9954 6.42986
H -10.0429 5.8214 7.46883
O -4.01045 -12.3142 2.26137
H -3.71537 -13.0995 2.80571
H -4.83736 -11.9215 2.66384
O -6.82627 5.33379 -10.4476
H -6.13652 4.6119 -10.5034
H -7.36299 5.21807 -9.61177
O 10.7007 -13.5799 -10.8914
H 11.6257 -13.4096 -10.5517
H 10.0399 -13.1013 -10.3132
O -10.6259 1.80072 0.93066
H -10.6127 2.32037 1.78493
H -11.3748 1.13849 0.954882
O 7.87712 -4.35654 -6.24706
H 6.90071 -4.46079 -6.05798
H 8.23107 -5.20152 -6.64796
O 2.26293 -0.419938 -12.7463
H 2.39096 -1.39853 -12.5852
H 3.07225 -0.0483441 -13.2012
O 4.88745 -12.5403 3.44374
H 4.41609 -13.3967 3.233
H 4.56345 -12.1889 4.32212
O 11.7529 12.3019 2.14604
H 12.5485 12.3308 1.54097
H 11.7151 13.1419 2.68733
O 11.7875 -5.83481 14.4046
H 12.5776 -5.40606 14.8427
H 12.1009 -6.45481 13.6853
O -10.3146 -14.2261 3.51049
H -9.38509 -14.3104 3.15134
H -10.3748 -13.4151 4.0923
O -11.3773 -3.9082 -1.84953
H -11.4197 -4.71258 -1.25694
H -11.0187 -4.1723 -2.74486
O 6.49208 8.2177 7.56723
H 6.85676 8.02087 6.65714
H 6.51259 9.20443 7.72828
O -1.96802 -3.30611 -9.78161
H -1.29272 -2.84158 -9.20874
H -1.7847 -4.28916 -9.7824
O -7.66653 -9.32697 10.6736
H -7.72174 -9.30819 11.6719
H -7.07303 -10.0789 10.3867
O 5.59762 -10.3368 2.07107
H 5.29598 -9.6854 2.7673
H 5.42256 -11.2688 2.38845
O -3.79902 -4.89592 9.15812
H -2.9887 -5.20487 8.6602
H -4.54576 -4.73539 8.51267
O -4.87426 13.563 -9.42149
H -5.33978 12.7193 -9.68884
H -3.96332 13.586 -9.83337
O 3.6277 10.0392 -10.9504
H 4.15903 9.8289 -11.771
H 2.85235 9.41107 -10.8852
O -9.72777 6.625 12.0931
H -9.73364 5.83765 12.7095
H -8.96089 6.54412 11.4564
O 4.26914 5.10173 4.01688
H 5.04814 4.50138 3.83594
H 4.60053 6.01034 4.27105
O 9.45079 3.48425 2.15115
H 8.78421 4.10087 1.73227
H 9.71555 2.78141 1.49092
O 7.336 10.0471 -4.79348
H 8.20773 9.96202 -5.27601
H 6.69719 10.5779 -5.35036
O -11.8098 11.7967 11.3566
H -12.5444 12.4405 11.1425
H -10.9266 12.2569 11.2667
O -14.5512 -6.59318 -13.6359
H -14.5826 -7.35384 -14.2843
H -13.9336 -6.82187 -12.8834
O -11.596 -4.5116 -12.0718
H -11.7616 -5.44903 -12.3781
H -12.2941 -4.25071 -11.4049
O 13.5192 11.1009 -10.3792
H 13.3283 10.1212 -10.3175
H 14.4993 11.2577 -10.258
O 7.4101 -10.3466 -9.40695
H 7.90501 -9.55446 -9.76417
H 7.13824 -10.1708 -8.46081
O 3.1823 -7.23605 -4.4609
H 2.41985 -6.69655 -4.10368
H 4.04526 -6.8506 -4.13422
O -12.2636 9.35302 -11.9272
H -12.4516 9.00199 -12.8445
H -11.3577 9.04851 -11.6329
O -8.27545 12.1847 2.96681
H -8.37323 11.7259 2.08371
H -9.18046 12.4123 3.32617
O -2.63463 -8.43992 -7.967
H -1.92947 -8.8636 -7.39845
H -2.32575 -7.53596 -8.26272
O 14.2991 0.398055 6.79656
H -14.5832 0.513617 6.48947
H 13.7093 1.04284 6.31036
O 0.365175 -6.93604 12.8972
H -0.0280089 -7.83924 13.0693
H 1.0972 -6.76022 13.5554
O 12.9133 0.770147 -12.6074
H 13.5823 0.773787 -11.8643
H 13.3901 0.811471 -13.4854
O -14.6847 8.59328 -14.6128
H 14.5705 8.33231 -13.835
H -13.8536 8.03726 -14.6169
O -0.254244 -0.772203 -13.6507
H -0.0240177 -1.44951 -14.3495
H 0.580716 -0.320394 -13.3365
O 3.76075 11.0987 -3.07792
H 4.11899 11.9596 -3.43926
H 3.05146 10.7497 -3.69034
O 5.4151 -6.41835 -3.13615
H 5.77793 -7.29152 -2.8107
H 5.78486 -5.67515 -2.57854
O -5.11359 8.18842 2.01819
H -5.15453 7.42878 1.36914
H -5.17485 7.83343 2.95105
O -7.18987 -11.9025 14.1113
H -6.94765 -10.9965 13.7641
H -6.50489 -12.5675 13.8138
O 2.16942 9.52384 10.4358
H 2.83168 9.3223 11.1575
H 1.56662 8.73638 10.3072
O 1.40632 -3.77864 -1.61759
H 2.15847 -3.65923 -0.969509
H 1.77107 -4.07271 -2.50103
O -8.45723 -1.30651 0.372083
H -8.96394 -1.23579 -0.487128
H -7.72554 -0.624993 0.384599
O -14.0098 -14.4044 8.38702
H 14.8532 -14.2607 8.6112
H -13.8838 -14.3346 7.39746
O -6.01588 13.3799 10.4927
H -5.32782 12.7149 10.7831
H -6.91637 12.9452 10.4829
O 4.61619 13.0957 -14.6064
H 4.22285 13.2845 -13.7066
H 5.00301 12.1736 -14.6143
O -4.49751 1.9524 6.04085
H -5.47809 1.78288 6.1395
H -3.99989 1.45275 6.74987
O -14.6358 3.33361 -10.7889
H 14.442 3.34433 -10.1267
H 14.9041 3.80166 -11.6247
O -1.05148 0.958377 6.86813
H -1.08996 0.000242542 7.15184
H -1.70705 1.49107 7.40336
O -6.42123 7.36149 -4.01253
H -6.78134 7.40889 -3.08083
H -5.83415 6.55697 -4.10242
O 4.52289 4.85601 -3.6017
H 5.50817 5.02618 -3.58559
H 4.19081 4.73147 -2.66671
O -4.10149 11.7314 11.4307
H -4.41263 10.7978 11.2528
H -3.33395 11.9476 10.8273
O 4.64784 -5.87429 6.24168
H 3.9822 -5.14224 6.0967
H 5.41877 -5.75242 5.61653
O -11.6558 8.09609 -2.82764
H -11.6434 7.11152 -2.65314
H -12.4373 8.32173 -3.40925
O -5.16857 4.72013 -5.04038
H -4.47279 4.4919 -4.35936
H -6.01207 4.22412 -4.83426
O -12.1443 -7.07069 -12.2075
H -11.5157 -7.3717 -11.4904
H -11.9846 -7.60592 -13.037
O -2.52058 -9.19529 10.7388
H -2.93957 -9.97395 10.2717
H -3.23084 -8.65746 11.193
O -12.9783 -9.16427 -4.57163
H -13.4758 -9.79929 -3.9807
H -12.1659 -9.61743 -4.93867
O 7.12871 8.93707 3.17798
H 8.11925 9.05393 3.10607
H 6.6699 9.63706 2.63072
O 14.9074 -2.12778 8.0358
H 14.309 -2.75861 7.54189
H 14.7541 -1.19611 7.70642
O 2.42702 -4.18975 6.16257
H 2.06848 -4.15399 7.09539
H 1.77125 -4.65903 5.57118
O -5.1853 12.7897 6.22473
H -5.43221 12.3359 5.36849
H -5.77975 13.5813 6.36593
O 10.5437 -14.3908 13.63
H 11.3414 -14.855 14.0149
H 10.2819 -14.8337 12.7724
O 8.08766 13.8891 -6.81529
H 8.84784 13.4082 -7.2521
H 8.21958 14.8759 -6.90918
O 9.62954 12.7857 8.4643
H 10.5779 13.0105 8.24033
H 9.01599 13.4118 7.98311
O -8.47353 11.2463 8.75911
H -9.21219 11.7742 9.17839
H -8.52883 10.2955 9.06375
O 12.4937 -13.2007 -1.51319
H 12.0239 -13.6092 -2.29571
H 12.5104 -12.2062 -1.61645
O 12.3497 7.34655 11.1367
H 12.7741 8.06212 11.6915
H 11.6017 6.92617 11.6503
O -1.44072 -14.876 9.11935
H -2.11452 -14.4095 9.69237
H -1.68838 -14.7658 8.15679
O -10.6846 1.97157 11.4068
H -11.1383 1.0822 11.3505
H -11.2671 2.66987 10.9909
O -1.27867 5.35636 -13.8667
H -1.18638 5.02469 -12.9278
H -1.4317 6.34454 -13.8576
O -8.10762 -2.58228 -11.0618
H -8.26105 -3.56191 -11.1913
H -7.62778 -2.4315 -10.1975
O -4.25405 5.04413 1.60783
H -4.79167 4.40921 2.16265
H -3.28163 4.83379 1.70864
O 9.79919 -9.78415 4.34758
H 10.7794 -9.60733 4.25887
H 9.40367 -9.93136 3.441
O 13.3332 0.953976 1.67172
H 14.2712 1.30055 1.66516
H 12.7021 1.70417 1.86883
O 12.384 11.514 14.7625
H 13.0676 11.486 14.0332
H 11.5413 11.9243 14.4138
O -11.2003 -0.399797 -8.75717
H -11.9621 0.236773 -8.87727
H -10.3392 0.0708094 -8.94958
O -11.3943 -7.78682 -0.974945
H -11.2758 -7.09734 -0.260403
H -12.3689 -7.97082 -1.10222
O 11.2725 -3.18504 13.7405
H 11.2555 -4.16791 13.9241
H 11.0922 -2.68469 14.5874
O 12.245 9.95216 -4.37539
H 11.9912 10.9194 -4.37642
H 12.9443 9.79036 -5.07165
O -2.49031 -10.6444 14.3179
H -1.78047 -11.1349 14.8233
H -2.06343 -10.0437 13.6419
O -1.69323 -6.18726 -9.72906
H -0.920423 -6.572 -10.2338