LAMMPS data file via write_data, version 15 May 2015, timestep = 1000000

4560 atoms
7 atom types
5040 bonds
3 bond types
7200 angles
2 angle types
10560 dihedrals
3 dihedral types
2400 impropers
1 improper types

-1.0763502675555259e-01 4.1387635026745990e+01 xlo xhi
-4.0433884491974936e-02 3.5938433884472119e+01 ylo yhi
-3.5711112484589691e-01 2.9555111124838550e+01 zlo zhi
-6.7234083837551181e-02 -1.7036217651000683e+01 -4.1707816797290791e-02 xy xz yz

Masses

1 12.0107
2 1.008
3 12.0107
4 12.0107
5 12.0107
6 12.0107
7 12.0107

Pair Coeffs # lj/cut/coul/long

1 0.07 3.55
2 0.03 2.42
3 0.07 3.55
4 0.07 3.55
5 0.07 3.55
6 0 0
7 0.07 3.55

Bond Coeffs # harmonic

1 469 1.4
2 367 1.08
3 469 0.7

Angle Coeffs # harmonic

1 35 120
2 63 120

Dihedral Coeffs # opls

1 0 7.25 0 0
2 0 7.25 0 0
3 0 7.25 0 0

Improper Coeffs # cvff

1 2.5 -1 2

Atoms # full

219 13 3 0.0000000000000000e+00 -2.1715485513767785e-01 2.9511725492533785e+00 2.8205329666577654e+00 1 0 0
220 13 4 -1.1500000000000000e-01 3.8538171016908307e-01 3.7531434915182840e+00 1.8864187244605120e+00 1 0 0
224 13 2 1.1500000000000000e-01 7.5884868744379741e-01 4.8059668660282453e+00 2.0529765552915542e+00 1 0 0
580 33 4 -1.1500000000000000e-01 2.7589315332275341e+00 6.7355768162141461e+00 4.1654311849322152e+00 1 0 0
228 13 3 0.0000000000000000e+00 -7.0023275915787209e-01 1.6726531865490111e+00 2.5529470160051440e+00 1 0 0
989 53 4 -1.1500000000000000e-01 -1.1262929607271717e+00 6.7609010076050895e+00 3.5745293771457569e+00 1 0 0
600 34 2 1.1500000000000000e-01 2.2068621284410739e-01 5.2758603554066674e+00 6.8488205958437307e+00 1 0 0
1004 54 1 -1.1500000000000000e-01 -3.6955901298609852e+00 7.7781429168489140e+00 8.1197310519043295e+00 1 0 0
244 14 1 -1.1500000000000000e-01 -4.3383593197823398e+00 1.8057297523423288e+00 8.0243926028394554e+00 1 0 0
227 13 4 -1.1500000000000000e-01 -4.3842064328044977e-01 1.1261657480322000e+00 1.2867959651039718e+00 1 0 0
733 13 6 0.0000000000000000e+00 -5.8677853672668445e-01 2.3831060031833773e+00 2.6847249307278878e+00 1 0 0
986 53 1 -1.1500000000000000e-01 -1.9073690637919938e-01 8.2296996809652736e+00 2.7976502685374927e-01 1 0 0
230 13 1 -1.1500000000000000e-01 7.1896280936248580e-01 3.0666158438263165e+00 6.7689907707777142e-01 1 0 0
217 13 7 -1.1500000000000000e-01 -9.2393358729537356e-01 2.6514264295213539e+00 5.1904447941683323e+00 1 0 0
218 13 5 -1.1500000000000000e-01 -2.8173590697492612e-01 3.3991100584874330e+00 4.2057419027241743e+00 1 0 0
221 13 1 -1.1500000000000000e-01 -1.4451214350044321e+00 1.3602350392915068e+00 4.9232738538670686e+00 1 0 0
222 13 2 1.1500000000000000e-01 -9.2409897622805426e-01 3.0607872403503973e+00 6.2241201293459953e+00 1 0 0
223 13 2 1.1500000000000000e-01 2.4419807522710624e-01 4.3285759773267394e+00 4.3999761663914851e+00 1 0 0
248 14 1 -1.1500000000000000e-01 -3.8438822156581489e+00 3.1140390932630484e+00 8.4768550160479048e+00 1 0 0
4380 233 4 -1.1500000000000000e-01 2.6420897332416504e+00 9.9354121087200098e-01 4.0452232708605784e+00 1 1 0
987 53 4 -1.1500000000000000e-01 -7.2868108216865846e-01 7.3372733045304512e+00 1.2350106238169187e+00 1 0 0
603 34 2 1.1500000000000000e-01 1.0752497750426437e+00 3.1949123366959293e+00 7.9169018235754756e+00 1 0 0
592 33 2 1.1500000000000000e-01 4.2907587912154792e+00 3.2906190101773252e+00 5.1058856868265181e+00 1 0 0
4394 233 2 1.1500000000000000e-01 1.7655657662222808e+00 1.2878458438022624e+00 5.9244925127500130e+00 1 1 0
579 33 3 0.0000000000000000e+00 3.3673406945529725e+00 5.8919542652977395e+00 3.2031411386384443e+00 1 0 0
252 14 2 1.1500000000000000e-01 -3.2042717156856160e+00 3.7784839789730245e+00 7.8553806745299113e+00 1 0 0
581 33 1 -1.1500000000000000e-01 4.6160445404374588e+00 4.3396874605107616e+00 1.2383230252128083e+00 1 0 0
225 13 2 1.1500000000000000e-01 -1.9139937203082380e+00 7.7218662161781759e-01 5.6637466823117038e+00 1 0 0
577 33 7 -1.1500000000000000e-01 4.0620234056422886e+00 5.5860424926486854e+00 8.5764145433216532e-01 1 0 0
588 33 3 0.0000000000000000e+00 3.7973822554708536e+00 4.6443463133240934e+00 3.5156478574404848e+00 1 0 0
589 33 4 -1.1500000000000000e-01 4.4171935831948295e+00 3.8421522909693859e+00 2.5633010610778530e+00 1 0 0
593 33 2 1.1500000000000000e-01 4.7838296935283058e+00 2.8450763934406194e+00 2.7877088129362355e+00 1 0 0
753 33 6 0.0000000000000000e+00 3.6840225397135447e+00 5.2855128739768631e+00 3.2412217418018270e+00 1 0 0
4383 233 2 1.1500000000000000e-01 3.1221495135563582e+00 1.6609103387118567e+00 1.6013655800100695e+00 1 1 0
1353 73 2 1.1500000000000000e-01 4.8527915303893954e+00 8.6307786519579519e+00 2.9293564195853290e+00 1 0 0
578 33 5 -1.1500000000000000e-01 3.4279544785473188e+00 6.3755748787026878e+00 1.8782233654833322e+00 1 0 0
4401 234 2 1.1500000000000000e-01 -1.3112390613211451e+00 1.6513475250893344e+00 8.9732158658542041e+00 1 1 0
4384 233 2 1.1500000000000000e-01 2.1689051619102040e+00 1.9508748279553747e+00 3.7757998436981470e+00 1 1 0
586 33 1 -1.1500000000000000e-01 3.3879265660613198e+00 5.1470736554233438e+00 5.9512823735297946e+00 1 0 0
587 33 4 -1.1500000000000000e-01 3.8232018408338115e+00 4.2279780246752114e+00 4.9115195102621572e+00 1 0 0
585 33 2 1.1500000000000000e-01 5.1153843090953188e+00 3.5589932197106231e+00 5.5947991332496994e-01 1 0 0
591 33 2 1.1500000000000000e-01 3.5470178798126097e+00 4.9185494041440281e+00 6.9996730732731720e+00 1 0 0
1009 54 2 1.1500000000000000e-01 -3.4977744753210596e+00 7.2754187438868927e+00 7.1932273292769384e+00 1 0 0
590 33 1 -1.1500000000000000e-01 2.8641626531981230e+00 6.3953030042617609e+00 5.5505648479532397e+00 1 0 0
1064 57 2 1.1500000000000000e-01 6.9886700982115357e+00 6.6494801437845057e+00 7.2984608096850567e-01 1 0 0
234 13 2 1.1500000000000000e-01 1.3155673064556199e+00 3.6048093992699441e+00 -6.0567058567927545e-02 1 0 0
229 13 4 -1.1500000000000000e-01 -1.3858568956539374e+00 8.8572180305508774e-01 3.5260128891552407e+00 1 0 0
988 53 3 0.0000000000000000e+00 -6.4243182699457280e-01 7.6856430736069292e+00 2.6257336713555448e+00 1 0 0
985 53 2 1.1500000000000000e-01 -1.5533436981803534e+00 6.4143742461279771e+00 5.7674436897984815e+00 1 0 0
599 34 1 -1.1500000000000000e-01 6.4719457276385661e-01 3.9369709538648112e+00 8.5109452635652545e+00 1 0 0
1493 53 6 0.0000000000000000e+00 -4.2421799193127518e-01 8.3576628694461341e+00 2.7690122490217131e+00 1 0 0
226 13 1 -1.1500000000000000e-01 3.3433872688476413e-01 1.7621074406288928e+00 3.3654420522685324e-01 1 0 0
595 34 7 -1.1500000000000000e-01 1.4234113845009677e-01 5.0922605199788569e+00 7.9335258900003982e+00 1 0 0
981 53 1 -1.1500000000000000e-01 -1.2502866533072667e+00 7.0578812432007441e+00 4.9365826195113645e+00 1 0 0
977 53 7 -1.1500000000000000e-01 -7.5527694451968008e-01 8.3333000293563249e+00 5.2973212722674932e+00 1 0 0
4390 233 1 -1.1500000000000000e-01 2.4030048288566528e+00 6.5405885043783452e-01 5.3510936112285954e+00 1 1 0
583 33 2 1.1500000000000000e-01 3.0387190444875354e+00 7.3345318392067593e+00 1.6146024995675339e+00 1 0 0
245 14 4 -1.1500000000000000e-01 -4.9262322657921160e+00 1.0121776731931147e+00 8.9925784584129929e+00 1 0 0
601 34 2 1.1500000000000000e-01 -9.5215490491311083e-01 6.8889764231862616e+00 8.1078819882953219e+00 1 0 0
4378 233 5 -1.1500000000000000e-01 3.4869866632330435e+00 6.5050150201628187e-01 1.8203082482416484e+00 1 1 0
232 13 2 1.1500000000000000e-01 -7.7666072746698434e-01 1.4573074235884839e-01 1.0549896717491509e+00 1 0 0
1005 54 4 -1.1500000000000000e-01 -4.6981043959071851e+00 7.2335669762116863e+00 8.9208626702686509e+00 1 0 0
594 33 2 1.1500000000000000e-01 2.4862938220775916e+00 7.1053439304680550e+00 6.2723310843993483e+00 1 0 0
596 34 5 -1.1500000000000000e-01 -5.1814236759983867e-01 6.1141258788413220e+00 8.6395095034884726e+00 1 0 0
584 33 2 1.1500000000000000e-01 2.3357491971561335e+00 7.7099427278469319e+00 3.9638466705829538e+00 1 0 0
4379 233 3 0.0000000000000000e+00 3.3235276469950872e+00 2.2300537059163894e-01 3.1215813541089523e+00 1 1 0
4396 234 5 -1.1500000000000000e-01 -8.1312309583181808e-01 6.8719888283468722e-01 9.1509288426423208e+00 1 1 0
982 53 2 1.1500000000000000e-01 -6.9780069866527361e-01 8.5985711429548708e+00 6.2454320990368242e+00 1 0 0
993 53 2 1.1500000000000000e-01 -1.5834314086455348e+00 5.8044702206562313e+00 3.3022264349171473e+00 1 0 0
4400 234 2 1.1500000000000000e-01 -1.0742432160466109e-02 4.5451966821831119e-01 7.1194007435960467e+00 1 1 0
582 33 2 1.1500000000000000e-01 4.0988416092485780e+00 5.8718138913316640e+00 -2.0277609162310678e-01 1 0 0
1010 54 2 1.1500000000000000e-01 -5.1330559648758856e+00 6.2958005495983107e+00 8.7914169460809379e+00 1 0 0
249 14 2 1.1500000000000000e-01 -4.1188734296347809e+00 1.5179535276116269e+00 6.9971573875748589e+00 1 0 0
4382 233 2 1.1500000000000000e-01 4.3539887494949623e+00 2.3779782879631386e-01 -1.3785637542462092e-01 1 1 0
979 53 3 0.0000000000000000e+00 -1.7123644556638018e-01 8.9316535416942191e+00 3.0009042267954658e+00 1 0 0
4395 234 7 -1.1500000000000000e-01 -1.6951482911721616e-01 2.6034314749370291e-02 8.0898545709631495e+00 1 1 0
304 17 2 1.1500000000000000e-01 6.9541579400939701e+00 3.3641214924410362e-01 1.7511638370558407e+00 1 0 0
235 14 7 -1.1500000000000000e-01 -5.3472994223247277e+00 2.3559759861207454e+00 1.3025356762457241e+01 1 0 0
236 14 5 -1.1500000000000000e-01 -4.7286196861578365e+00 3.1471035200315538e+00 1.2072800759112823e+01 1 0 0
597 34 3 0.0000000000000000e+00 -8.4157318409073145e-01 5.8604814103777345e+00 1.0007046723490966e+01 1 0 0
734 14 6 0.0000000000000000e+00 -4.8109901113015630e+00 2.1019423376998625e+00 1.0569998930820823e+01 1 0 0
239 14 1 -1.1500000000000000e-01 -5.7801589930415727e+00 1.0464418253737864e+00 1.2668758064492147e+01 1 0 0
240 14 2 1.1500000000000000e-01 -5.3894730198651644e+00 2.6985805098727922e+00 1.4061511781142070e+01 1 0 0
611 34 2 1.1500000000000000e-01 6.4557726690757633e-01 2.9314827549181146e+00 1.0417682092733255e+01 1 0 0
242 14 2 1.1500000000000000e-01 -3.5165079401916204e+00 4.5641746634993359e+00 1.0137990922412152e+01 1 0 0
4420 235 2 1.1500000000000000e-01 -6.3093182734478308e+00 1.6912511157993049e+00 1.8694988452211192e+01 1 1 0
237 14 3 0.0000000000000000e+00 -4.5829836838879920e+00 2.7524689205858848e+00 1.0725064417898777e+01 1 0 0
4402 234 2 1.1500000000000000e-01 -1.8592978744046658e+00 1.8032779685810101e+00 1.1208415222979978e+01 1 1 0
262 15 1 -1.1500000000000000e-01 -8.6411848937938416e+00 2.3105568762505397e+00 1.5443568920883532e+01 1 0 0
620 35 2 1.1500000000000000e-01 -6.3478128007780761e+00 7.5668202539991070e+00 1.8985070900353765e+01 1 0 0
255 15 3 0.0000000000000000e+00 -8.8982320895505094e+00 3.0848668845297293e+00 1.8132269070875072e+01 1 0 0
256 15 4 -1.1500000000000000e-01 -8.4369552621075314e+00 4.0481264391408969e+00 1.7246882738146795e+01 1 0 0
260 15 2 1.1500000000000000e-01 -8.1377964588308984e+00 5.0545277561155757e+00 1.7598342150802122e+01 1 0 0
1006 54 3 0.0000000000000000e+00 -4.9689536518763369e+00 7.7924496009412110e+00 1.0192765614307655e+01 1 0 0
616 35 4 -1.1500000000000000e-01 -5.8241767812786369e+00 6.7005419933042498e+00 1.9281611215129516e+01 1 0 0
264 15 3 0.0000000000000000e+00 -9.2831724593243248e+00 1.8124854814369309e+00 1.7746197108996178e+01 1 0 0
4414 235 5 -1.1500000000000000e-01 -4.9915082032167311e+00 6.0124433290535617e-01 1.6803690320695278e+01 1 1 0
266 15 1 -1.1500000000000000e-01 -8.4098519616306877e+00 3.6830192596609281e+00 1.5871098901324903e+01 1 0 0
263 15 4 -1.1500000000000000e-01 -9.1224913805815593e+00 1.4017886881189978e+00 1.6399435789499865e+01 1 0 0
238 14 4 -1.1500000000000000e-01 -3.9641395601672662e+00 3.5993845431569436e+00 9.7807821733949591e+00 1 0 0
4418 235 2 1.1500000000000000e-01 -4.1266413824503125e+00 3.0070968487344124e-01 1.4836694415285992e+01 1 1 0
735 15 6 0.0000000000000000e+00 -9.0662642135363800e+00 2.4642569330486239e+00 1.7880462269218821e+01 1 0 0
246 14 3 0.0000000000000000e+00 -4.9870234688261519e+00 1.4484526292895257e+00 1.0323631328297569e+01 1 0 0
265 15 4 -1.1500000000000000e-01 -9.9343976851322680e+00 9.1835768729740086e-01 1.8615582897076454e+01 1 0 0
604 34 1 -1.1500000000000000e-01 -1.2695515686198409e+00 5.4840788634288797e+00 1.2804645466103734e+01 1 0 0
605 34 4 -1.1500000000000000e-01 -5.7839726689354531e-01 4.4984142102262901e+00 1.1989563249323167e+01 1 0 0
606 34 3 0.0000000000000000e+00 -3.1086787375876312e-01 4.7136856486417607e+00 1.0611926244652249e+01 1 0 0
999 54 1 -1.1500000000000000e-01 -6.0293113829886460e+00 7.6480439983194062e+00 1.2418926047798173e+01 1 0 0
1371 74 2 1.1500000000000000e-01 7.9343212283246434e-01 8.8785456720265969e+00 1.0249243843412062e+01 1 0 0
243 14 2 1.1500000000000000e-01 -6.3459920764906510e+00 4.6303828280991133e-01 1.3357040239612875e+01 1 0 0
610 34 2 1.1500000000000000e-01 -3.4047850994917539e-01 3.5719578167930282e+00 1.2499087245287477e+01 1 0 0
241 14 2 1.1500000000000000e-01 -4.3366980798679968e+00 4.0955160960001731e+00 1.2245327524486232e+01 1 0 0
254 15 5 -1.1500000000000000e-01 -9.0199435197510738e+00 3.4915353473356605e+00 1.9491482698140590e+01 1 0 0
598 34 4 -1.1500000000000000e-01 -1.5340332833470223e+00 6.8289564760668187e+00 1.0819752642497887e+01 1 0 0
754 34 6 0.0000000000000000e+00 -6.8365073908829554e-01 5.2775275250738023e+00 1.0322761073441011e+01 1 0 0
609 34 2 1.1500000000000000e-01 -1.5271060400723329e+00 5.3357499922954625e+00 1.3894698159370721e+01 1 0 0
613 35 7 -1.1500000000000000e-01 -4.2686207150242570e+00 5.6863236232212913e+00 1.6081424068162338e+01 1 0 0
618 35 2 1.1500000000000000e-01 -4.1413324197523700e+00 5.9977311533556792e+00 1.5052745850515091e+01 1 0 0
615 35 3 0.0000000000000000e+00 -5.0874685246624134e+00 5.9655027145855204e+00 1.8316299956741219e+01 1 0 0
617 35 1 -1.1500000000000000e-01 -3.8349499181906888e+00 4.3333263841914267e+00 1.6434867192161025e+01 1 0 0
621 35 2 1.1500000000000000e-01 -3.4280548360457752e+00 3.7297034151380410e+00 1.5618831985862588e+01 1 0 0
624 35 3 0.0000000000000000e+00 -4.5843631204011670e+00 4.7496679083640565e+00 1.8690442495314098e+01 1 0 0
625 35 4 -1.1500000000000000e-01 -3.9373780765554436e+00 3.9284299809130863e+00 1.7736673881392132e+01 1 0 0
629 35 2 1.1500000000000000e-01 -3.5221363607596778e+00 2.9671689797903773e+00 1.7945621320696503e+01 1 0 0
755 35 6 0.0000000000000000e+00 -5.0842390671696807e+00 5.3108753245653535e+00 1.8573454002024164e+01 1 0 0
270 15 2 1.1500000000000000e-01 -8.0559137036399253e+00 4.3071278057461173e+00 1.5032771431583582e+01 1 0 0
4398 234 4 -1.1500000000000000e-01 -1.4316655726980470e+00 8.4702803169717589e-01 1.1532942232923865e+01 1 1 0
4412 234 2 1.1500000000000000e-01 -2.4140547348261547e+00 8.0384425886224475e-01 1.3438417030568544e+01 1 1 0
614 35 5 -1.1500000000000000e-01 -4.9654927373697548e+00 6.4325775408393735e+00 1.7051709857885136e+01 1 0 0
247 14 4 -1.1500000000000000e-01 -5.5335665027007561e+00 6.4672799918253954e-01 1.1329098780209872e+01 1 0 0
4419 235 2 1.1500000000000000e-01 -5.4138637158050988e+00 1.5825253038565281e+00 1.6728192682836916e+01 1 1 0
1025 55 4 -1.1500000000000000e-01 -1.0136246853814821e+01 7.0440164371321492e+00 1.8287856534196173e+01 1 0 0
608 34 1 -1.1500000000000000e-01 -1.8111974250575313e+00 6.6774947335827584e+00 1.2187802342142815e+01 1 0 0
1022 55 1 -1.1500000000000000e-01 -8.2107269271590475e+00 8.5743278221254027e+00 1.5480548826389144e+01 1 0 0
612 34 2 1.1500000000000000e-01 -2.3867859835940202e+00 7.4529578061791808e+00 1.2786547765736383e+01 1 0 0
4416 235 4 -1.1500000000000000e-01 -5.9625302054157689e+00 6.8898989339955219e-01 1.8999462674229150e+01 1 1 0
269 15 2 1.1500000000000000e-01 -1.0460477341944086e+01 6.8377883408079709e-02 1.8229139033261699e+01 1 0 0
1007 54 4 -1.1500000000000000e-01 -5.8095997295975703e+00 7.0743413153464418e+00 1.1114960948534241e+01 1 0 0
1024 55 3 0.0000000000000000e+00 -9.2568707637359591e+00 7.8808686877390084e+00 1.7588211496143693e+01 1 0 0
602 34 2 1.1500000000000000e-01 -1.9942673752355429e+00 7.6920784249763550e+00 1.0387222488886598e+01 1 0 0
619 35 2 1.1500000000000000e-01 -5.3216538458962708e+00 7.4347800785381786e+00 1.6691971486074671e+01 1 0 0
4408 234 1 -1.1500000000000000e-01 -1.7815223213495051e+00 2.2213642847864051e-01 1.2768627548179420e+01 1 1 0
1494 54 6 0.0000000000000000e+00 -4.7723592700948299e+00 8.4286522589622415e+00 1.0436089109465739e+01 1 0 0
1003 54 2 1.1500000000000000e-01 -6.6956921058107532e+00 7.0712733637107377e+00 1.3076108116320594e+01 1 0 0
1495 55 6 0.0000000000000000e+00 -9.0144511945764165e+00 8.4922645958221139e+00 1.7843213339319373e+01 1 0 0
1011 54 2 1.1500000000000000e-01 -6.0860468068043083e+00 6.0460381047829088e+00 1.0898693335383889e+01 1 0 0
1027 55 2 1.1500000000000000e-01 -7.9832880231204291e+00 8.3854092596481866e+00 1.4432520350848788e+01 1 0 0
1023 55 4 -1.1500000000000000e-01 -8.9563808936010538e+00 7.6329856917825012e+00 1.6190419928260280e+01 1 0 0
607 34 4 -1.1500000000000000e-01 3.6049254988338308e-01 3.7634946731415506e+00 9.8786396566834682e+00 1 0 0
995 54 7 -1.1500000000000000e-01 -5.5142036066889961e+00 8.8949455143879703e+00 1.2816365423434334e+01 1 0 0
4397 234 3 0.0000000000000000e+00 -9.2334119700107298e-01 1.3850886808820964e-01 1.0416733743916387e+01 1 1 0
1389 75 2 1.1500000000000000e-01 -3.4948002412228840e+00 8.8746173083453783e+00 1.6939568193908972e+01 1 0 0
4415 235 3 0.0000000000000000e+00 -5.2023887996779017e+00 -5.4386414962237992e-02 1.8089740077191191e+01 1 1 0
645 36 2 1.1500000000000000e-01 -9.1696018397771262e+00 4.4454333457470740e+00 2.8952861188083158e+01 1 0 0
1046 56 2 1.1500000000000000e-01 -1.3390458671553720e+01 6.3253730894360833e+00 2.3182211828619177e+01 1 0 0
258 15 2 1.1500000000000000e-01 -9.7083162411526551e+00 2.8006206551470210e+00 2.1414030653560825e+01 1 0 0
634 36 4 -1.1500000000000000e-01 -9.9308629305795186e+00 6.4427896384577510e+00 2.6212812029195621e+01 1 0 0
276 16 2 1.1500000000000000e-01 -1.4145704763546579e+01 2.4902075778343828e+00 2.8943098854922717e+01 1 0 0
628 35 2 1.1500000000000000e-01 -4.4380566497132259e+00 3.1906521068956102e+00 2.0329474903046414e+01 1 0 0
284 16 1 -1.1500000000000000e-01 -1.2166053518358451e+01 3.4484944244061855e+00 2.3462742517127129e+01 1 0 0
261 15 2 1.1500000000000000e-01 -1.0503180837012948e+01 6.3260910085505051e-01 2.0770979027176232e+01 1 0 0
257 15 1 -1.1500000000000000e-01 -1.0039178486424072e+01 1.2620804617309278e+00 1.9981437489058305e+01 1 0 0
288 16 2 1.1500000000000000e-01 -1.1668008660284599e+01 4.2010646736726969e+00 2.2804845641185906e+01 1 0 0
271 16 7 -1.1500000000000000e-01 -1.3860873277342284e+01 2.2343848833045317e+00 2.7943592823812988e+01 1 0 0
272 16 5 -1.1500000000000000e-01 -1.3160324307026904e+01 3.1783490540782298e+00 2.7130307477704427e+01 1 0 0
273 16 3 0.0000000000000000e+00 -1.2995149136039798e+01 2.8758279829063449e+00 2.5738085254763572e+01 1 0 0
274 16 4 -1.1500000000000000e-01 -1.2352257347536765e+01 3.7596579682386504e+00 2.4888927082851076e+01 1 0 0
275 16 1 -1.1500000000000000e-01 -1.4376898070559188e+01 1.0190464760569575e+00 2.7416512060031025e+01 1 0 0
1040 56 1 -1.1500000000000000e-01 -1.2279167722815021e+01 8.0582186695453597e+00 2.2824004707982922e+01 1 0 0
277 16 2 1.1500000000000000e-01 -1.2835470602840099e+01 4.0795359684683339e+00 2.7647873101466107e+01 1 0 0
278 16 2 1.1500000000000000e-01 -1.1875112278618987e+01 4.6095881731992145e+00 2.5326995767208821e+01 1 0 0
1013 55 7 -1.1500000000000000e-01 -9.7419864990606495e+00 8.2231186536526426e+00 2.0311728660462197e+01 1 0 0
282 16 3 0.0000000000000000e+00 -1.3560791422105870e+01 1.7079016247995833e+00 2.5224619471475666e+01 1 0 0
1043 56 4 -1.1500000000000000e-01 -1.4209238257378509e+01 6.9787904835052954e+00 2.5742896448824844e+01 1 0 0
736 16 6 0.0000000000000000e+00 -1.3347967812999949e+01 2.2280466421580001e+00 2.5615871164616447e+01 1 0 0
632 36 5 -1.1500000000000000e-01 -9.3448640981523265e+00 5.9313896764995757e+00 2.3973421904184594e+01 1 0 0
636 36 2 1.1500000000000000e-01 -8.8909033626799339e+00 5.4625682864309368e+00 2.2007908206642785e+01 1 0 0
4438 236 2 1.1500000000000000e-01 -1.0351396754029805e+01 1.8075233260234318e+00 2.5830746522813694e+01 1 1 0
253 15 7 -1.1500000000000000e-01 -9.5263613862493575e+00 2.5242445493817058e+00 2.0359746914548627e+01 1 0 0
285 16 2 1.1500000000000000e-01 -1.2774479199351122e+01 2.1109594399485605e+00 2.1926788234119666e+01 1 0 0
627 35 2 1.1500000000000000e-01 -5.4831079857631684e+00 4.6081189123936008e+00 2.2020977165625002e+01 1 0 0
644 36 1 -1.1500000000000000e-01 -1.0075775406933291e+01 6.0379899889057578e+00 2.7538009603416704e+01 1 0 0
631 36 7 -1.1500000000000000e-01 -8.8254392455466615e+00 5.0991871292455571e+00 2.2996870896084090e+01 1 0 0
635 36 1 -1.1500000000000000e-01 -8.1619260274792929e+00 3.9292376419935287e+00 2.3339925796469711e+01 1 0 0
1018 55 2 1.1500000000000000e-01 -9.8291042275540015e+00 8.3442756454420088e+00 2.1375009118032775e+01 1 0 0
639 36 2 1.1500000000000000e-01 -7.6588440369018240e+00 3.3171831874372124e+00 2.2619790555491942e+01 1 0 0
283 16 4 -1.1500000000000000e-01 -1.4201589343299620e+01 7.2375485341507795e-01 2.6032120131943227e+01 1 0 0
4430 235 2 1.1500000000000000e-01 -6.7983537586971208e+00 8.8391635092540810e-01 2.0880316361063795e+01 1 1 0
1496 56 6 0.0000000000000000e+00 -1.3082622907332778e+01 8.2577645216112163e+00 2.5307766798072628e+01 1 0 0
1045 56 2 1.1500000000000000e-01 -1.1973011303831578e+01 7.6629926261234393e+00 2.1879917890820209e+01 1 0 0
633 36 3 0.0000000000000000e+00 -9.2835542134723585e+00 5.5646898301600771e+00 2.5285596027956259e+01 1 0 0
4437 236 2 1.1500000000000000e-01 -9.4272313094738216e+00 1.0591424066096229e+00 2.3592639670558551e+01 1 1 0
640 36 1 -1.1500000000000000e-01 -9.3717430743493253e+00 4.8629863393174517e+00 2.7919854184882613e+01 1 0 0
641 36 4 -1.1500000000000000e-01 -8.8053107279423823e+00 3.9665720487143332e+00 2.6970245476236233e+01 1 0 0
642 36 3 0.0000000000000000e+00 -8.7291543600407486e+00 4.3339842638904829e+00 2.5610690250223229e+01 1 0 0
643 36 4 -1.1500000000000000e-01 -8.1445383004217682e+00 3.5432079002120478e+00 2.4648151694795022e+01 1 0 0
622 35 1 -1.1500000000000000e-01 -5.3782227448835735e+00 4.9892752009513552e+00 2.1021033800058259e+01 1 0 0
646 36 2 1.1500000000000000e-01 -8.3656453191417235e+00 3.0353938819052511e+00 2.7349072916652762e+01 1 0 0
647 36 2 1.1500000000000000e-01 -7.5952611598363777e+00 2.6467545140661679e+00 2.4894066097328366e+01 1 0 0
756 36 6 0.0000000000000000e+00 -9.1121703638685716e+00 4.9187393265766399e+00 2.5502484114529651e+01 1 0 0
281 16 4 -1.1500000000000000e-01 -1.3492028572183052e+01 1.3676497384162007e+00 2.3815582348016978e+01 1 0 0
4434 236 4 -1.1500000000000000e-01 -1.0059777576522411e+01 8.1196634227395426e-01 2.6202742798778573e+01 1 1 0
259 15 2 1.1500000000000000e-01 -8.8662854607661625e+00 4.4606397736527343e+00 1.9886334881249308e+01 1 0 0
1042 56 3 0.0000000000000000e+00 -1.3373546205198533e+01 7.7682321908632854e+00 2.4901686110885443e+01 1 0 0
648 36 2 1.1500000000000000e-01 -1.0620451151749245e+01 6.6437528056601396e+00 2.8253092421008287e+01 1 0 0
280 16 1 -1.1500000000000000e-01 -1.2804138324105375e+01 2.2761145681876931e+00 2.2962437680026429e+01 1 0 0
1039 56 2 1.1500000000000000e-01 -1.4951962674593046e+01 6.6753259609888449e+00 2.7753681392477247e+01 1 0 0
626 35 1 -1.1500000000000000e-01 -5.8696228089305018e+00 6.2441101342514100e+00 2.0636989412541777e+01 1 0 0
4448 236 2 1.1500000000000000e-01 -1.0475865424329971e+01 1.2721330302644174e+00 2.8239525485753088e+01 1 1 0
4432 236 5 -1.1500000000000000e-01 -8.9771458225245944e+00 1.8361403377187724e-01 2.4009649793928482e+01 1 1 0
4426 235 1 -1.1500000000000000e-01 -6.2818340574471003e+00 2.1393849330915266e-01 2.0213112615109523e+01 1 1 0
630 35 2 1.1500000000000000e-01 -6.3437112958295110e+00 6.7965266210873434e+00 2.1350627111864686e+01 1 0 0
279 16 2 1.1500000000000000e-01 -1.4935912177718636e+01 2.3395529168846874e-01 2.7913514101217618e+01 1 0 0
637 36 2 1.1500000000000000e-01 -9.7863895190540511e+00 6.8451409451653547e+00 2.3628486460833091e+01 1 0 0
4444 236 1 -1.1500000000000000e-01 -1.0182517477350856e+01 5.0490827338653665e-01 2.7567029913780381e+01 1 1 0
1021 55 2 1.1500000000000000e-01 -1.0986006316970961e+01 6.4479219167053490e+00 2.0195987268323133e+01 1 0 0
638 36 2 1.1500000000000000e-01 -1.0427499393199703e+01 7.3491650884860347e+00 2.5836423427612594e+01 1 0 0
1035 56 1 -1.1500000000000000e-01 -1.4491639007905105e+01 7.3937555172015204e+00 2.7089243528682427e+01 1 0 0
1041 56 4 -1.1500000000000000e-01 -1.3056046798273108e+01 7.2597772963990863e+00 2.3634827085519312e+01 1 0 0
231 13 2 1.1500000000000000e-01 -1.6451070526505212e+01 1.2325812739410866e+00 2.9278659984562800e+01 1 0 -1
1047 56 2 1.1500000000000000e-01 -1.4608214563852989e+01 6.0458929629268434e+00 2.5413947092393858e+01 1 0 0
1031 56 7 -1.1500000000000000e-01 -1.4004898359562869e+01 8.6351987453471732e+00 2.7501822333398152e+01 1 0 0
1063 57 2 1.1500000000000000e-01 -8.9860080316245199e+00 8.2562266534434308e+00 2.8888271870808353e+01 1 0 -1
623 35 4 -1.1500000000000000e-01 -4.7368219021010498e+00 4.2250758887465292e+00 2.0011581628416216e+01 1 0 0
1118 60 2 1.1500000000000000e-01 -5.5591467619465806e+00 6.3664677448239191e+00 2.3740928657738344e+01 1 0 0
1017 55 1 -1.1500000000000000e-01 -1.0340592671824952e+01 7.1888045555333937e+00 1.9676580554698656e+01 1 0 0
1765 94 4 -1.1500000000000000e-01 -4.7712847231058255e+00 1.3553159190957761e+01 8.5338643911705052e+00 1 0 0
980 53 4 -1.1500000000000000e-01 4.8113652282605979e-01 9.8068546731231763e+00 2.0939413663361321e+00 1 0 0
984 53 2 1.1500000000000000e-01 8.6587145913638341e-01 1.0697988659240504e+01 2.3342198112384178e+00 1 0 0
1361 74 2 1.1500000000000000e-01 -6.5287650337856729e-01 1.3341480263681152e+01 8.7644621281339248e+00 1 0 0
1752 93 2 1.1500000000000000e-01 -8.7345742479860655e-01 1.2262101981394611e+01 1.3093281956636018e+00 1 0 0
2253 93 6 0.0000000000000000e+00 -4.5943651644306716e-01 1.4489601694679232e+01 2.8912247990748057e+00 1 0 0
2513 133 2 1.1500000000000000e-01 -1.5320786265396897e+00 1.7752214319760519e+01 3.4735190270119345e+00 1 0 0
1741 93 1 -1.1500000000000000e-01 -1.3582956465753206e+00 1.3505962526597850e+01 5.1317879785519507e+00 1 0 0
2112 113 2 1.1500000000000000e-01 4.2269400508424253e+00 1.5691802022892199e+01 5.5955463809184218e+00 1 0 0
983 53 2 1.1500000000000000e-01 5.0455925740682250e-02 1.0237669268720673e+01 4.7600015758007981e+00 1 0 0
1345 73 2 1.1500000000000000e-01 5.3168801189955790e+00 9.1053706643798957e+00 5.6644312200372327e-01 1 0 0
2111 113 2 1.1500000000000000e-01 3.0736809939946159e+00 1.7231930881161251e+01 6.9447443063663190e+00 1 0 0
1745 93 2 1.1500000000000000e-01 -1.9086239967037095e+00 1.2906355478223633e+01 5.9223515500616077e+00 1 0 0
1008 54 1 -1.1500000000000000e-01 -3.1844655629879624e+00 9.0499883159611372e+00 8.4744758565434957e+00 1 0 0
1338 73 5 -1.1500000000000000e-01 3.9042120376385974e+00 1.2105447657390020e+01 1.6012451076060379e+00 1 0 0
1339 73 3 0.0000000000000000e+00 3.5564880174969402e+00 1.1769549732585968e+01 2.9347047233139065e+00 1 0 0
1340 73 4 -1.1500000000000000e-01 2.9075091868532650e+00 1.2710433165618806e+01 3.7855544444806952e+00 1 0 0
1341 73 1 -1.1500000000000000e-01 4.8064980762386869e+00 9.8762610333074861e+00 1.2487114804942188e+00 1 0 0
1337 73 7 -1.1500000000000000e-01 4.4881148884298181e+00 1.1151817675796794e+01 7.4844906753117968e-01 1 0 0
1343 73 2 1.1500000000000000e-01 3.6415722613397534e+00 1.3056134474996314e+01 1.2719904866257192e+00 1 0 0
1348 73 3 0.0000000000000000e+00 3.9336198095514248e+00 1.0500864704534461e+01 3.4286100440479399e+00 1 0 0
1349 73 4 -1.1500000000000000e-01 4.5604988147925525e+00 9.6095397272818026e+00 2.5577059588874658e+00 1 0 0
1513 73 6 0.0000000000000000e+00 3.8896338467846046e+00 1.1271998649218578e+01 3.3654467604117699e+00 1 0 0
1356 74 5 -1.1500000000000000e-01 -3.7200258730198055e-01 1.2382647655916641e+01 9.1312751356041204e+00 1 0 0
1354 73 2 1.1500000000000000e-01 2.1822341987429628e+00 1.2939986151788361e+01 5.9237567354041998e+00 1 0 0
1346 73 1 -1.1500000000000000e-01 3.2422673053049973e+00 1.1151833171218231e+01 5.6503661567274790e+00 1 0 0
1347 73 4 -1.1500000000000000e-01 3.7509798428931642e+00 1.0173390908590465e+01 4.7819989238533802e+00 1 0 0
1350 73 1 -1.1500000000000000e-01 2.7434702599544099e+00 1.2393994212490593e+01 5.1944610423574096e+00 1 0 0
1351 73 2 1.1500000000000000e-01 3.1394079868008395e+00 1.0882197215988940e+01 6.7025357754981085e+00 1 0 0
994 53 2 1.1500000000000000e-01 7.7689075943224073e-01 1.0206707463219944e+01 2.1100963629821945e-02 1 0 0
2115 114 7 -1.1500000000000000e-01 3.0346555570373290e-01 1.7456106718944731e+01 7.8750568052369196e+00 1 0 0
1355 74 7 -1.1500000000000000e-01 2.5209149917910256e-01 1.1587329038708551e+01 8.2712072437796458e+00 1 0 0
1359 74 1 -1.1500000000000000e-01 6.4083134166835176e-01 1.0320883833672648e+01 8.7383055671745620e+00 1 0 0
1360 74 2 1.1500000000000000e-01 3.7285748877049141e-01 1.1784734331195667e+01 7.2702554486547513e+00 1 0 0
1764 94 1 -1.1500000000000000e-01 -4.0679547567719565e+00 1.4540768540369623e+01 7.7438012590707999e+00 1 0 0
1748 93 3 0.0000000000000000e+00 -7.5043035157932247e-01 1.3821697427492207e+01 2.8348196319324406e+00 1 0 0
1747 93 4 -1.1500000000000000e-01 -5.2160666652827703e-01 1.3228711817667111e+01 1.5242641565261603e+00 1 0 0
1746 93 1 -1.1500000000000000e-01 1.0632623099418903e-01 1.4077767312007449e+01 5.4235936177415833e-01 1 0 0
978 53 5 -1.1500000000000000e-01 -2.8255250292412537e-01 9.2860850246790090e+00 4.3516498775528856e+00 1 0 0
1749 93 4 -1.1500000000000000e-01 -1.3659168285525363e+00 1.3023914392571969e+01 3.8110122828020927e+00 1 0 0
2097 113 7 -1.1500000000000000e-01 4.4841060727053534e+00 1.7364388197088410e+01 1.0791156463187417e+00 1 0 0