LAMMPS (15 May 2015)
Reading data file ...
  triclinic box = (-0.107635 -0.0404339 -0.357111) to (41.3876 35.9384 29.5551) with tilt (-0.0672341 -17.0362 -0.0417078)
  5 by 4 by 3 MPI processor grid
  reading atoms ...
  4560 atoms
  reading velocities ...
  4560 velocities
  scanning bonds ...
  3 = max bonds/atom
  scanning angles ...
  3 = max angles/atom
  scanning dihedrals ...
  8 = max dihedrals/atom
  scanning impropers ...
  1 = max impropers/atom
  reading bonds ...
  5040 bonds
  reading angles ...
  7200 angles
  reading dihedrals ...
  10560 dihedrals
  reading impropers ...
  2400 impropers
Finding 1-2 1-3 1-4 neighbors ...
 Special bond factors lj:   0          0          0         
 Special bond factors coul: 0          0          0         
  4 = max # of 1-2 neighbors
  8 = max # of 1-3 neighbors
  20 = max # of 1-4 neighbors
  16 = max # of special neighbors
4560 atoms in group all
720 atoms in group C
480 atoms in group S
1920 atoms in group H
720 atoms in group Si
240 atoms in group Na
240 atoms in group Ba
240 atoms in group O
4560 atoms in group naphthalene
1200 atoms in group fixed
960 atoms in group CO
Setting atom values ...
  720 settings made for charge
Setting atom values ...
  720 settings made for charge
Setting atom values ...
  1920 settings made for charge
Setting atom values ...
  480 settings made for charge
Setting atom values ...
  240 settings made for charge
Setting atom values ...
  240 settings made for charge
Setting atom values ...
  240 settings made for charge
Finding 1-2 1-3 1-4 neighbors ...
 Special bond factors lj:   0          0          0.5       
 Special bond factors coul: 0          0          0.5       
  4 = max # of 1-2 neighbors
  8 = max # of 1-3 neighbors
  20 = max # of 1-4 neighbors
  16 = max # of special neighbors
PPPM initialization ...
  G vector (1/distance) = 0.246499
  grid = 16 16 20
  stencil order = 5
  estimated absolute RMS force accuracy = 0.00242397
  estimated relative force accuracy = 7.2997e-06
  using double precision FFTs
  3d grid and FFT values/proc = 1053 112
Neighbor list info ...
  4 neighbor list requests
  update every 1 steps, delay 0 steps, check yes
  master list distance cutoff = 12
Setting up run ...
Memory usage per processor = 13.288 Mbytes
Step Temp Density PotEng E_vdwl E_tail E_coul E_long Press Volume Xy Xz Yz E_mol E_bond E_angle E_dihed 14[1] 14[2] 14[3] msd[4] msd2[4] msd3[4] msd4[4] naphthal Cella Cellb Cellc CellAlpha CellBeta CellGamma 27[2] 27[3] 28[1] 28[2] 28[3] 
       0          298    1.2509986    2087.5869   -1173.1339   -211.49952    2070.8667    -2308.979    790.88859    44657.537 -0.067234084   -17.036218 -0.041707817     3498.833    1521.0094     935.4334    889.67826    28.379601    18.846571    14.337846 2.3535127e-29 2.3910021e-29 2.7538641e-29 3.294809e-29          298     41.49527    35.978931    34.423473    90.016431    119.66323    90.107069    18.846182    14.337739    28.379557    18.849013    14.339638 
    1000    304.34553    1.2509986    2048.1928   -1231.9568   -211.49952    2068.4737   -2310.0756   -1948.8211    44657.537 -0.067234084   -17.036218 -0.041707817    3521.7515     1582.685    915.58532    871.76447    28.379998    18.846311    14.337786   0.10752347   0.10751885  0.092619481  0.092291753    304.34553     41.49527    35.978931    34.423473    90.016431    119.66323    90.107069    18.846297    14.335642    28.376515    18.848031    14.321819 
    2000    297.11036    1.2509986    2117.5606   -1238.4636   -211.49952    2070.6462   -2310.2469   -1409.2243    44657.537 -0.067234084   -17.036218 -0.041707817    3595.6248     1597.225    958.42978    887.53636    28.380628    18.846267     14.33808   0.12003452    0.1200282   0.10732798   0.10731553    297.11036     41.49527    35.978931    34.423473    90.016431    119.66323    90.107069    18.848589    14.338373     28.37652    18.850461    14.338573 
    3000    301.56988    1.2509986    2055.5553   -1242.3095   -211.49952     2067.309    -2310.501   -991.42098    44657.537 -0.067234084   -17.036218 -0.041707817    3541.0568    1550.6139    947.03744    887.62373     28.38017    18.846234    14.338023   0.12077122   0.12075532   0.10264253    0.1025782    301.56988     41.49527    35.978931    34.423473    90.016431    119.66323    90.107069    18.845513    14.339507    28.387048    18.846154    14.339826 
    4000    301.35102    1.2509986    2047.8169   -1228.5392   -211.49952    2073.3023   -2309.8311   -1255.8309    44657.537 -0.067234084   -17.036218 -0.041707817    3512.8849    1559.2759    895.52273    905.64412    28.379885    18.845885      14.3378   0.12986257   0.12985832   0.12188003   0.12170631    301.35102     41.49527    35.978931    34.423473    90.016431    119.66323    90.107069    18.846439    14.337087    28.389687    18.847481    14.331347 
    5000    298.13004    1.2509986     2067.532   -1219.4448   -211.49952    2075.6085   -2309.8247    -138.0539    44657.537 -0.067234084   -17.036218 -0.041707817     3521.193    1587.9469    943.05939    844.07882    28.379826    18.846054    14.337635   0.12472587   0.12472487   0.11504168   0.11494039    298.13004     41.49527    35.978931    34.423473    90.016431    119.66323    90.107069     18.84668    14.336904    28.387418    18.850799    14.333613 
    6000     297.7131    1.2509986    2034.4734   -1224.3126   -211.49952    2070.9683   -2309.7396   -290.41795    44657.537 -0.067234084   -17.036218 -0.041707817    3497.5573    1524.5918    924.97953    894.13683    28.379601    18.846161    14.337549   0.12126272   0.12125602  0.097501625   0.09743116     297.7131     41.49527    35.978931    34.423473    90.016431    119.66323    90.107069    18.848522    14.337137    28.382177    18.846092    14.332217 
    7000    300.49128    1.2509986    1996.7331    -1252.294   -211.49952    2072.5032   -2310.1423   -298.65591    44657.537 -0.067234084   -17.036218 -0.041707817    3486.6662     1555.072     940.2874    849.65119     28.37928    18.845839    14.337686   0.12987465   0.12987313   0.10885107   0.10870504    300.49128     41.49527    35.978931    34.423473    90.016431    119.66323    90.107069    18.845397    14.336859    28.380928    18.840625    14.331048 
    8000    298.11698    1.2509986    2079.0398   -1240.3822   -211.49952    2071.9223   -2310.3862   -2024.9597    44657.537 -0.067234084   -17.036218 -0.041707817    3557.8859     1563.921    949.56933     891.1035    28.379524     18.84606    14.337783   0.12216795   0.12216027    0.1094187   0.10934148    298.11698     41.49527    35.978931    34.423473    90.016431    119.66323    90.107069    18.848837    14.337983     28.38579    18.851158    14.345449 
    9000    291.77673    1.2509986    2076.2014    -1227.333   -211.49952    2077.9021   -2309.5699   -520.33163    44657.537 -0.067234084   -17.036218 -0.041707817    3535.2021    1555.6611    938.02901    892.75056    28.379886    18.846348    14.338053   0.12293511   0.12292836   0.10208739   0.10205785    291.77673     41.49527    35.978931    34.423473    90.016431    119.66323    90.107069    18.845073    14.339212    28.375411    18.845547    14.339062 
   10000    296.82391    1.2509986    2050.1631   -1228.5023   -211.49952    2076.8518   -2310.0977    1260.1455    44657.537 -0.067234084   -17.036218 -0.041707817    3511.9112    1561.4032    963.16519    844.51237    28.379921    18.846233    14.337844   0.12088117   0.12087961    0.1034265    0.1032915    296.82391     41.49527    35.978931    34.423473    90.016431    119.66323    90.107069    18.845918    14.337643    28.374074    18.839114    14.337001 
   11000    302.71272    1.2509986    2047.6733   -1226.9285   -211.49952    2075.9701   -2309.4767   -436.79546    44657.537 -0.067234084   -17.036218 -0.041707817    3508.1084    1511.9539     934.3082    908.62487     28.37956    18.846339     14.33773   0.12566397    0.1256619   0.10463622   0.10455077    302.71272     41.49527    35.978931    34.423473    90.016431    119.66323    90.107069    18.846821    14.338965    28.373417     18.84911    14.346547 
   12000    296.46806    1.2509986    2091.6096   -1239.8654   -211.49952    2073.4353   -2309.5614   -2440.4978    44657.537 -0.067234084   -17.036218 -0.041707817    3567.6011    1599.6646    943.59496    874.30948    28.379926    18.846143    14.337768   0.12739313   0.12738162   0.10974514   0.10954554    296.46806     41.49527    35.978931    34.423473    90.016431    119.66323    90.107069    18.845719     14.33607    28.369174     18.84267    14.332458 
   13000    301.21812    1.2509986    2028.8265   -1247.5542   -211.49952    2074.9066   -2309.5807   -2044.8061    44657.537 -0.067234084   -17.036218 -0.041707817    3511.0548    1557.9925    947.11056    855.54633    28.379844    18.846088    14.338032   0.12519562   0.12519292   0.10144722   0.10140164    301.21812     41.49527    35.978931    34.423473    90.016431    119.66323    90.107069    18.845078    14.337121    28.374995     18.84727    14.334977 
   14000     296.9405    1.2509986     2139.754   -1222.7765   -211.49952    2076.9841   -2308.9594    364.77483    44657.537 -0.067234084   -17.036218 -0.041707817    3594.5058    1570.0536    955.28864    914.46652    28.379837    18.846243    14.337891   0.12237983   0.12237434   0.10219543    0.1020847     296.9405     41.49527    35.978931    34.423473    90.016431    119.66323    90.107069    18.845466    14.336878    28.386084    18.846132    14.331904 
   15000     294.6559    1.2509986    2110.4804   -1234.6217   -211.49952    2083.2186   -2309.1239   -565.09156    44657.537 -0.067234084   -17.036218 -0.041707817    3571.0073    1569.6689    947.54847    894.70193    28.379796    18.846283     14.33803   0.11841406   0.11841383  0.098851377  0.098727925     294.6559     41.49527    35.978931    34.423473    90.016431    119.66323    90.107069    18.845988    14.337492    28.377176    18.838742    14.336131 
   16000    294.72346    1.2509986    2094.4614   -1206.0138   -211.49952    2076.2516    -2310.156    1680.7503    44657.537 -0.067234084   -17.036218 -0.041707817    3534.3797    1561.8402    931.47558    887.66147    28.379714    18.846148    14.337434   0.11588345   0.11586513   0.10308014   0.10299062    294.72346     41.49527    35.978931    34.423473    90.016431    119.66323    90.107069     18.84798    14.338303    28.388739    18.850545    14.337952 
   17000    293.63538    1.2509986    2058.0707   -1232.7027   -211.49952    2075.3221   -2310.2281   -1167.8295    44657.537 -0.067234084   -17.036218 -0.041707817    3525.6795     1577.347    918.76789    872.86576    28.379898     18.84584     14.33761   0.12258254   0.12258058   0.10718296   0.10709435    293.63538     41.49527    35.978931    34.423473    90.016431    119.66323    90.107069    18.846266    14.337016    28.384033    18.842486    14.334542 
   18000    295.12059    1.2509986    2021.4695   -1234.7494   -211.49952    2077.5134   -2309.7491   -1625.3079    44657.537 -0.067234084   -17.036218 -0.041707817    3488.4546    1559.2548    922.69193    860.81886    28.379374     18.84586    14.337532   0.13264892   0.13264012   0.11895518   0.11892461    295.12059     41.49527    35.978931    34.423473    90.016431    119.66323    90.107069    18.844619    14.338712    28.380274     18.84353    14.339608 
   19000     300.6331    1.2509986     2038.184   -1238.6043   -211.49952    2066.9977   -2310.2338   -998.45476    44657.537 -0.067234084   -17.036218 -0.041707817    3520.0244    1552.8206    936.57305    879.24785    28.379299    18.846123    14.337574   0.11868186   0.11867598   0.10638326   0.10631095     300.6331     41.49527    35.978931    34.423473    90.016431    119.66323    90.107069    18.846835    14.336948    28.381513    18.841448    14.336283 
   20000    290.75566    1.2509986    2047.7225   -1247.9022   -211.49952    2072.2845   -2309.8997    -2515.028    44657.537 -0.067234084   -17.036218 -0.041707817      3533.24     1586.782    933.21876    863.66228    28.379727    18.845891    14.337905    0.1302236   0.13021969   0.10628997   0.10624569    290.75566     41.49527    35.978931    34.423473    90.016431    119.66323    90.107069    18.847395    14.339287    28.379621    18.853102    14.344888 
   21000    303.69093    1.2509986    2070.6538   -1212.0155   -211.49952    2075.9951   -2309.9364   -353.26509    44657.537 -0.067234084   -17.036218 -0.041707817    3516.6105    1556.0694    920.11108    885.62604    28.379855    18.845844    14.337964   0.12272331   0.12271867   0.10464847   0.10453616    303.69093     41.49527    35.978931    34.423473    90.016431    119.66323    90.107069    18.846023     14.33916    28.385637     18.84039    14.340629 
   22000    302.19323    1.2509986    2058.5321   -1229.2811   -211.49952    2073.5711   -2309.6566    588.72922    44657.537 -0.067234084   -17.036218 -0.041707817    3523.8987    1528.9785       940.24    897.32631    28.380008    18.845994    14.337771   0.12913594   0.12913293   0.10962348   0.10949467    302.19323     41.49527    35.978931    34.423473    90.016431    119.66323    90.107069    18.844703    14.337706    28.377978    18.840309    14.332528 
   23000    293.34287    1.2509986    2086.2211   -1238.0857   -211.49952    2074.4956   -2310.0158   -1677.4473    44657.537 -0.067234084   -17.036218 -0.041707817    3559.8271     1608.835    915.51117    885.24341    28.380241    18.846425    14.337852   0.12567099   0.12567067   0.10632232   0.10625769    293.34287     41.49527    35.978931    34.423473    90.016431    119.66323    90.107069    18.846178    14.337738    28.373577    18.844238    14.337174 
   24000    299.54115    1.2509986    2061.4152    -1215.427   -211.49952    2073.8455   -2310.2072    1760.2249    44657.537 -0.067234084   -17.036218 -0.041707817    3513.2039    1580.8449    923.08964    861.00256    28.380195    18.846511    14.337745   0.12297902   0.12297107   0.10757196   0.10750135    299.54115     41.49527    35.978931    34.423473    90.016431    119.66323    90.107069    18.848791    14.336932    28.384988    18.855197    14.337945 
   25000    300.51165    1.2509986     2054.219   -1226.4547   -211.49952    2071.0833   -2309.3902   -999.53468    44657.537 -0.067234084   -17.036218 -0.041707817    3518.9806    1541.0988    970.47871    853.89203     28.38023    18.846166    14.337805   0.12447583   0.12447528   0.10703624   0.10699136    300.51165     41.49527    35.978931    34.423473    90.016431    119.66323    90.107069    18.846866    14.337544    28.377691    18.844496    14.335056 
   26000    299.74119    1.2509986     2045.761   -1233.1105   -211.49952    2066.1845   -2310.1129   -2474.7514    44657.537 -0.067234084   -17.036218 -0.041707817    3522.7998    1589.3275    936.66693    850.13557    28.380231    18.845794    14.337955   0.11635777   0.11635235   0.10215653    0.1020537    299.74119     41.49527    35.978931    34.423473    90.016431    119.66323    90.107069    18.844119    14.337565    28.382384    18.840135    14.335635 
   27000    297.81652    1.2509986    2089.6194   -1243.8806   -211.49952    2075.0519   -2309.8213   -1860.8294    44657.537 -0.067234084   -17.036218 -0.041707817    3568.2694    1627.4091    925.75166    862.98927    28.379632    18.845731    14.337682   0.12050509   0.12050092   0.10546256   0.10542415    297.81652     41.49527    35.978931    34.423473    90.016431    119.66323    90.107069    18.845663    14.338319    28.385352    18.846999     14.34052 
   28000    305.62695    1.2509986    2106.5399   -1228.9361   -211.49952    2072.9714   -2309.5839   -1059.6719    44657.537 -0.067234084   -17.036218 -0.041707817    3572.0884    1574.6043    973.70007    874.47211    28.379736    18.846188    14.337443   0.11956704   0.11956561   0.10382757   0.10380914    305.62695     41.49527    35.978931    34.423473    90.016431    119.66323    90.107069     18.84655    14.338775     28.37744    18.847294    14.342954 
   29000    300.25365    1.2509986    2148.8078   -1247.0418   -211.49952    2070.1701   -2310.2014   -2877.8275    44657.537 -0.067234084   -17.036218 -0.041707817    3635.8809    1619.0695    972.03381    890.05782    28.379782    18.846312    14.337559   0.12707198   0.12706691   0.10585826   0.10574446    300.25365     41.49527    35.978931    34.423473    90.016431    119.66323    90.107069     18.84544    14.338808    28.373063    18.848251    14.348067 
   30000    300.18542    1.2509986    2112.8971   -1225.5004   -211.49952    2076.3166   -2310.0875   -1544.1602    44657.537 -0.067234084   -17.036218 -0.041707817    3572.1684    1596.5783    958.19561    866.55765    28.380157    18.846096    14.337876   0.12614999   0.12614776   0.10275457   0.10271411    300.18542     41.49527    35.978931    34.423473    90.016431    119.66323    90.107069    18.845841    14.338999    28.377074    18.844142     14.34289 
   31000    298.13873    1.2509986    2029.5852   -1225.1835   -211.49952    2069.8837   -2310.1286   -36.100039    44657.537 -0.067234084   -17.036218 -0.041707817    3495.0136    1561.2343    910.62806    875.86587    28.380152    18.846173    14.337848   0.12215703   0.12215085    0.1069649   0.10692478    298.13873     41.49527    35.978931    34.423473    90.016431    119.66323    90.107069    18.846199    14.338571     28.38446    18.847304    14.343266 
   32000     300.7891    1.2509986    2116.3701   -1217.6517   -211.49952    2070.1083   -2309.8389   -1833.9216    44657.537 -0.067234084   -17.036218 -0.041707817    3573.7525     1607.082    941.17989    874.25884     28.38023    18.845951    14.337769   0.11946367   0.11946174   0.10439222   0.10431604     300.7891     41.49527    35.978931    34.423473    90.016431    119.66323    90.107069    18.846976    14.337062    28.382575    18.848154    14.331494 
   33000    305.73146    1.2509986    2024.7098   -1240.7996   -211.49952    2075.9584   -2309.9832    254.15653    44657.537 -0.067234084   -17.036218 -0.041707817    3499.5342    1570.3737    935.60385    849.92841    28.380235    18.845848    14.337927   0.12070962   0.12070423   0.10577533   0.10573191    305.73146     41.49527    35.978931    34.423473    90.016431    119.66323    90.107069    18.845372    14.339037    28.380025    18.842443    14.339849 
   34000    297.93001    1.2509986    1948.4402     -1222.82   -211.49952    2069.6656   -2310.3214    772.97836    44657.537 -0.067234084   -17.036218 -0.041707817    3411.9161    1518.1621    916.25339    832.84549    28.380012    18.846098    14.337569   0.12789836    0.1278974   0.10737554   0.10723146    297.93001     41.49527    35.978931    34.423473    90.016431    119.66323    90.107069    18.845809    14.338531    28.388343    18.843296    14.345487 
   35000    296.11049    1.2509986    2048.4369   -1243.4449   -211.49952    2071.1406   -2310.1691   -823.71717    44657.537 -0.067234084   -17.036218 -0.041707817    3530.9103    1587.0621    930.19337    867.03536    28.379519    18.845972    14.337662   0.12666993   0.12666499   0.10187098   0.10177505    296.11049     41.49527    35.978931    34.423473    90.016431    119.66323    90.107069    18.843986    14.337617    28.374899    18.843068    14.333402 
   36000     296.7717    1.2509986    2033.8806    -1256.783   -211.49952    2070.1329   -2310.1741   -1710.2306    44657.537 -0.067234084   -17.036218 -0.041707817    3530.7048    1584.7965    935.88841    862.23961    28.379582    18.846305     14.33777   0.12407562   0.12406875    0.1061855   0.10596682     296.7717     41.49527    35.978931    34.423473    90.016431    119.66323    90.107069     18.84488    14.338741    28.390211    18.838952     14.34162 
   37000    297.77016    1.2509986    2118.4327   -1220.7751   -211.49952    2073.6301   -2309.7998   -899.73249    44657.537 -0.067234084   -17.036218 -0.041707817    3575.3776    1622.6218    904.27678    893.14154    28.380011    18.846192    14.338003   0.12500175   0.12499191      0.11425   0.11410376    297.77016     41.49527    35.978931    34.423473    90.016431    119.66323    90.107069    18.844509    14.338831    28.387443    18.840659    14.343413 
   38000    294.05023    1.2509986    2062.7721   -1237.3766   -211.49952    2072.2621   -2309.8762    -1074.045    44657.537 -0.067234084   -17.036218 -0.041707817    3537.7627    1572.1822     942.2664     873.3564    28.379256    18.846268    14.337525   0.12796039   0.12796035   0.10970788   0.10966979    294.05023     41.49527    35.978931    34.423473    90.016431    119.66323    90.107069    18.846216    14.337913    28.378595     18.84458    14.335452 
   39000    294.69729    1.2509986    2056.1384   -1237.4014   -211.49952    2072.5783   -2309.6165   -1395.8386    44657.537 -0.067234084   -17.036218 -0.041707817     3530.578    1575.6606    959.00076    846.41671    28.379325    18.846198     14.33745   0.11851679   0.11851591   0.10397944   0.10397351    294.69729     41.49527    35.978931    34.423473    90.016431    119.66323    90.107069    18.846659    14.338361    28.379187    18.846807    14.340604 
   40000    301.93447    1.2509986    2126.4526   -1229.9085   -211.49952    2072.8786   -2310.1139   -830.05339    44657.537 -0.067234084   -17.036218 -0.041707817    3593.5964    1589.0928    945.65793    903.11464    28.379627    18.846335    14.337373    0.1206989   0.12069327   0.10846285   0.10839654    301.93447     41.49527    35.978931    34.423473    90.016431    119.66323    90.107069    18.845862    14.336892    28.372251    18.845568    14.338599 
   41000    302.07467    1.2509986    2074.2321   -1224.2055   -211.49952    2074.6061   -2309.5195   -1269.7285    44657.537 -0.067234084   -17.036218 -0.041707817    3533.3509    1601.0547    945.16552    841.10712    28.379456      18.8464     14.33764   0.12199315   0.12199267   0.10272898   0.10261883    302.07467     41.49527    35.978931    34.423473    90.016431    119.66323    90.107069    18.845605    14.337429    28.386853    18.844668    14.333471 
   42000    289.99946    1.2509986    2071.9949   -1226.3274   -211.49952    2073.4946   -2310.2913   -2583.9768    44657.537 -0.067234084   -17.036218 -0.041707817     3535.119    1596.2169    931.78245    859.00332    28.379659    18.846454    14.337779   0.12093672   0.12093121    0.1029888   0.10294591    289.99946     41.49527    35.978931    34.423473    90.016431    119.66323    90.107069    18.845929    14.337863    28.374213    18.849111    14.335853 
   43000    295.66403    1.2509986    2093.0316   -1253.2298   -211.49952    2074.4691   -2310.1158   -1531.9962    44657.537 -0.067234084   -17.036218 -0.041707817    3581.9081    1571.6839    980.63949    878.54567    28.379614    18.846008    14.337827    0.1265544   0.12655269   0.10018003   0.10011738    295.66403     41.49527    35.978931    34.423473    90.016431    119.66323    90.107069    18.845462    14.337031    28.382892    18.845935    14.333154 
   44000    297.15726    1.2509986    2030.1001    -1246.162   -211.49952    2074.2212   -2309.7881    30.750873    44657.537 -0.067234084   -17.036218 -0.041707817    3511.8291    1566.0212    914.79117    875.70573    28.379947    18.846074    14.337798   0.11655969   0.11655757  0.094759166  0.094637645    297.15726     41.49527    35.978931    34.423473    90.016431    119.66323    90.107069    18.847536    14.337248    28.375456    18.847364    14.329539 
   45000    291.21789    1.2509986    2058.4513   -1237.4343   -211.49952    2073.6003    -2309.721   -1571.8868    44657.537 -0.067234084   -17.036218 -0.041707817    3532.0063    1578.7886    948.12509     856.8976    28.379715    18.846003    14.337667    0.1227157   0.12271371   0.10378754   0.10377537    291.21789     41.49527    35.978931    34.423473    90.016431    119.66323    90.107069    18.847122    14.337786    28.378282    18.848631    14.336414 
   46000     298.4839    1.2509986    2009.5024   -1242.5919   -211.49952    2076.7356   -2309.4562   -1004.4002    44657.537 -0.067234084   -17.036218 -0.041707817    3484.8149    1552.3686    933.11754    844.71925    28.379567    18.846012    14.337684   0.12370546   0.12370019  0.099384281  0.099338315     298.4839     41.49527    35.978931    34.423473    90.016431    119.66323    90.107069    18.847878     14.33912    28.380996    18.852165    14.345465 
   47000     299.0138    1.2509986    2044.0776   -1222.9022   -211.49952    2068.1606   -2310.0151     391.0473    44657.537 -0.067234084   -17.036218 -0.041707817    3508.8342    1526.7461    933.82859    891.42173        28.38    18.846172    14.337587   0.11945668   0.11945517   0.10045208   0.10041408     299.0138     41.49527    35.978931    34.423473    90.016431    119.66323    90.107069    18.845441     14.33794    28.384635     18.84554     14.33925 
   48000    301.86042    1.2509986    2084.8911   -1251.9441   -211.49952      2075.74   -2309.7229   -2138.4061    44657.537 -0.067234084   -17.036218 -0.041707817     3570.818    1595.8704    939.70879    882.59499    28.379411    18.846125    14.337634   0.12572126   0.12571619   0.10527387   0.10516842    301.86042     41.49527    35.978931    34.423473    90.016431    119.66323    90.107069    18.845514    14.337304    28.371574    18.843627    14.343204 
   49000    297.33413    1.2509986    2032.0135   -1243.3247   -211.49952    2072.4388   -2310.0191   -1627.3017    44657.537 -0.067234084   -17.036218 -0.041707817    3512.9185    1592.8713     912.6068    858.64058    28.380233    18.846139    14.337825   0.11676481   0.11675425   0.10344807   0.10340555    297.33413     41.49527    35.978931    34.423473    90.016431    119.66323    90.107069     18.84657    14.339168    28.385587    18.851233    14.340748 
   50000    302.61841    1.2509986    2013.6452   -1237.6321   -211.49952    2074.9813   -2309.6004   -389.65707    44657.537 -0.067234084   -17.036218 -0.041707817    3485.8964    1539.8243    933.52059    863.33534    28.380149    18.845969    14.337755   0.11742367   0.11742038   0.10041901   0.10036027    302.61841     41.49527    35.978931    34.423473    90.016431    119.66323    90.107069    18.844634    14.338635    28.382947    18.842673    14.342293 
   51000    298.84938    1.2509986    2071.9399   -1222.6531   -211.49952     2069.647   -2309.9741   -463.03805    44657.537 -0.067234084   -17.036218 -0.041707817    3534.9201    1559.4339    965.80073    862.05386    28.380003    18.846242    14.337713   0.12226788   0.12225757    0.1030574    0.1029302    298.84938     41.49527    35.978931    34.423473    90.016431    119.66323    90.107069    18.845072    14.336299    28.378492    18.840467    14.332356 
   52000    299.91249    1.2509986    2131.3626   -1224.2187   -211.49952    2080.0645   -2308.8763   -397.87568    44657.537 -0.067234084   -17.036218 -0.041707817    3584.3932    1573.3951    960.80183    891.48102    28.379502    18.845904    14.337422   0.12649092   0.12647536   0.10485958   0.10440451    299.91249     41.49527    35.978931    34.423473    90.016431    119.66323    90.107069    18.847094    14.334862    28.379616    18.852292    14.318559 
   53000     290.2932    1.2509986    2150.2101   -1246.4421   -211.49952    2072.1513   -2309.9495   -1544.6658    44657.537 -0.067234084   -17.036218 -0.041707817    3634.4504    1594.5575    980.00024    910.49429    28.379911    18.846003     14.33795   0.11664735   0.11664215   0.09634219  0.096230371     290.2932     41.49527    35.978931    34.423473    90.016431    119.66323    90.107069    18.847106    14.339615    28.378891    18.848821     14.35019 
   54000    297.31794    1.2509986    2004.2582   -1230.9408   -211.49952    2078.1838   -2309.4004   -142.29109    44657.537 -0.067234084   -17.036218 -0.041707817    3466.4156    1547.5664    945.21591    830.46401    28.379839    18.845841    14.337744   0.11652145   0.11651992   0.10276228   0.10266066    297.31794     41.49527    35.978931    34.423473    90.016431    119.66323    90.107069    18.845412    14.336777    28.386047    18.843305    14.334451 
   55000    299.44194    1.2509986    2118.8814   -1219.3629   -211.49952    2073.8194   -2310.2595   -1796.9251    44657.537 -0.067234084   -17.036218 -0.041707817    3574.6844    1620.6792    926.07538    876.33437    28.379971    18.846806    14.337953   0.11980103    0.1198003  0.098677159  0.098568569    299.44194     41.49527    35.978931    34.423473    90.016431    119.66323    90.107069    18.846202    14.338056    28.386583     18.84526     14.33292 
   56000    296.96062    1.2509986    2034.7666   -1246.0301   -211.49952    2075.8019   -2310.0609   -110.61942    44657.537 -0.067234084   -17.036218 -0.041707817    3515.0556    1540.8913    957.42762    864.70831    28.379306    18.846242    14.337766   0.11845251   0.11845102   0.10495344   0.10491833    296.96062     41.49527    35.978931    34.423473    90.016431    119.66323    90.107069    18.845652    14.338823    28.376902    18.843725    14.339946 
   57000    298.41577    1.2509986    2053.1466   -1235.9608   -211.49952    2070.0821    -2309.814   -1296.6275    44657.537 -0.067234084   -17.036218 -0.041707817    3528.8394    1596.7272    933.48711    852.57982    28.379317    18.846074    14.337627   0.12069617   0.12069404    0.1074183   0.10732956    298.41577     41.49527    35.978931    34.423473    90.016431    119.66323    90.107069    18.845368    14.338883    28.381272    18.842282    14.346001 
   58000    296.51797    1.2509986    2029.9692   -1262.9806   -211.49952     2069.455   -2310.2432   -1850.6407    44657.537 -0.067234084   -17.036218 -0.041707817     3533.738    1578.7435    939.89143    866.84629    28.380005    18.845922    14.337723   0.12475142   0.12474937   0.10892929   0.10885009    296.51797     41.49527    35.978931    34.423473    90.016431    119.66323    90.107069    18.845369    14.337649    28.373546    18.842533    14.340676 
   59000    297.50129    1.2509986    2043.3703   -1266.6771   -211.49952     2067.564   -2310.4046   -3091.8792    44657.537 -0.067234084   -17.036218 -0.041707817     3552.888    1584.8942    945.63706    871.65475     28.37993    18.846407    14.337702   0.12880117   0.12879793   0.10829912   0.10826441    297.50129     41.49527    35.978931    34.423473    90.016431    119.66323    90.107069    18.847209    14.338011    28.382238    18.847568    14.334595 
   60000    296.73585    1.2509986     2108.285   -1216.0026   -211.49952     2070.573   -2310.0774    95.383709    44657.537 -0.067234084   -17.036218 -0.041707817     3563.792    1599.5645    949.53991    866.42846    28.379682    18.846322    14.337681   0.12849824   0.12849244    0.1062277   0.10612329    296.73585     41.49527    35.978931    34.423473    90.016431    119.66323    90.107069    18.845176    14.339512    28.374883    18.844513    14.347533 
   61000     294.8477    1.2509986    2107.3853   -1249.3899   -211.49952    2070.0654   -2310.0686   -3076.8619    44657.537 -0.067234084   -17.036218 -0.041707817    3596.7784    1596.6323    946.33532    897.79349    28.379609    18.846726    14.337707    0.1240001   0.12399718   0.10694015   0.10683047     294.8477     41.49527    35.978931    34.423473    90.016431    119.66323    90.107069    18.847461    14.336609    28.375482    18.845417    14.330686 
   62000    298.69394    1.2509986    2052.5945   -1253.3872   -211.49952    2071.2957   -2309.7716   -864.79685    44657.537 -0.067234084   -17.036218 -0.041707817    3544.4576    1636.8321    901.22187    857.77614    28.379816    18.846506    14.337869   0.11851959   0.11850244   0.10664341   0.10647441    298.69394     41.49527    35.978931    34.423473    90.016431    119.66323    90.107069    18.846845    14.336895    28.369452    18.850571    14.331609 
   63000    294.46401    1.2509986    2019.5168    -1233.798   -211.49952    2072.4683   -2309.7419   -1407.7605    44657.537 -0.067234084   -17.036218 -0.041707817    3490.5885    1548.7454    939.94994    853.82369    28.379843    18.846139    14.337787   0.12524566    0.1252441   0.10717745   0.10712308    294.46401     41.49527    35.978931    34.423473    90.016431    119.66323    90.107069    18.846782    14.338558    28.380701    18.847237    14.346702 
   64000    300.78287    1.2509986    2057.5589   -1256.7603   -211.49952    2073.7228   -2310.4772   -2723.0744    44657.537 -0.067234084   -17.036218 -0.041707817    3551.0736    1600.5906    941.60742    859.33192    28.379885    18.845965    14.337811   0.12197964   0.12197072  0.097536324  0.097487836    300.78287     41.49527    35.978931    34.423473    90.016431    119.66323    90.107069    18.846195    14.337807     28.37515    18.851822     14.34424 
   65000    293.05539    1.2509986    2103.1074   -1248.3064   -211.49952     2068.939   -2310.1608   -2028.2067    44657.537 -0.067234084   -17.036218 -0.041707817    3592.6357    1622.2346    914.48451    899.07898    28.379756    18.845925     14.33775   0.12122653   0.12122175   0.10896523   0.10885629    293.05539     41.49527    35.978931    34.423473    90.016431    119.66323    90.107069    18.844542    14.338591    28.375465    18.840671    14.344392 
   66000    297.53639    1.2509986     2071.906   -1244.6433   -211.49952    2073.0012   -2310.8569    -1282.048    44657.537 -0.067234084   -17.036218 -0.041707817     3554.405    1601.7208    934.59425      868.139    28.379622    18.846296    14.337507   0.12803735   0.12802419   0.10656233   0.10641002    297.53639     41.49527    35.978931    34.423473    90.016431    119.66323    90.107069    18.846987    14.336533    28.386529    18.845731    14.329999 
   67000    298.82155    1.2509986    2107.0998   -1247.4882   -211.49952    2076.7595   -2309.6461   -1863.1813    44657.537 -0.067234084   -17.036218 -0.041707817    3587.4747    1594.1732    944.70702     896.0281    28.379528    18.845951    14.337597   0.13586238    0.1358558   0.11071665   0.11063999    298.82155     41.49527    35.978931    34.423473    90.016431    119.66323    90.107069    18.847021    14.338869     28.38463    18.847918    14.346689 
   68000    298.73083    1.2509986    2114.7425    -1259.783   -211.49952    2072.5557   -2310.2228   -1128.1331    44657.537 -0.067234084   -17.036218 -0.041707817    3612.1926    1637.8578    977.04332    856.09934    28.379906    18.846068    14.337748    0.1310073   0.13100677   0.11234726   0.11230348    298.73083     41.49527    35.978931    34.423473    90.016431    119.66323    90.107069    18.845654    14.338105    28.385165    18.851333    14.337002 
   69000    302.60119    1.2509986    2144.0764   -1248.7799   -211.49952    2074.3863    -2309.692   -2562.8315    44657.537 -0.067234084   -17.036218 -0.041707817     3628.162    1634.6905    952.32537    893.99603     28.37977    18.846054     14.33767   0.12853363   0.12853162   0.10979076   0.10968711    302.60119     41.49527    35.978931    34.423473    90.016431    119.66323    90.107069     18.84555    14.338898     28.37269    18.841743    14.341547 
   70000    300.84671    1.2509986    2043.9518   -1251.9841   -211.49952     2077.554   -2309.7422   -2605.0914    44657.537 -0.067234084   -17.036218 -0.041707817     3528.124    1602.3803    929.62836    848.44373    28.379227    18.846194    14.337658   0.11958947   0.11958678   0.11090257   0.11066145    300.84671     41.49527    35.978931    34.423473    90.016431    119.66323    90.107069    18.846463    14.337894    28.395083    18.849184    14.339702 
   71000    298.85122    1.2509986    2155.3437   -1244.2408   -211.49952    2076.5769   -2309.3003   -1504.2677    44657.537 -0.067234084   -17.036218 -0.041707817    3632.3079     1623.443    953.61542    904.60358    28.379737    18.846171    14.337668   0.11710747   0.11710508   0.10112734   0.10094981    298.85122     41.49527    35.978931    34.423473    90.016431    119.66323    90.107069    18.845259    14.336746     28.37721    18.841743    14.328722 
   72000    299.96273    1.2509986    2119.7622   -1234.0281   -211.49952    2072.8757   -2310.2718    289.97187    44657.537 -0.067234084   -17.036218 -0.041707817    3591.1864    1601.2147     947.8408    891.67334    28.380073    18.846102     14.33761   0.13007253   0.13006966   0.10790293   0.10780408    299.96273     41.49527    35.978931    34.423473    90.016431    119.66323    90.107069    18.846001    14.336982    28.372247    18.847863    14.332998 
   73000    299.35273    1.2509986    2054.9699   -1225.1028   -211.49952    2068.2552   -2310.5728    1477.1006    44657.537 -0.067234084   -17.036218 -0.041707817    3522.3902    1553.6171    941.09043     874.4452    28.380201    18.845957    14.337481   0.12407383   0.12406925  0.098041366  0.097970869    299.35273     41.49527    35.978931    34.423473    90.016431    119.66323    90.107069    18.845404    14.336961    28.383921    18.847611    14.332604 
   74000    291.99207    1.2509986    2167.7279   -1240.8301   -211.49952    2073.8082   -2309.9267   -1053.9635    44657.537 -0.067234084   -17.036218 -0.041707817    3644.6765    1594.5001    972.23309    917.72182     28.38023    18.846058    14.337695   0.12647986   0.12647542   0.10416786   0.10404725    291.99207     41.49527    35.978931    34.423473    90.016431    119.66323    90.107069    18.845898     14.33577    28.379181    18.842367    14.330904 
   75000    296.43977    1.2509986    2038.4048    -1254.786   -211.49952    2073.1149   -2309.2153   -1274.5798    44657.537 -0.067234084   -17.036218 -0.041707817    3529.2912    1613.3443    925.28276    844.52395    28.379918    18.845872    14.337834   0.12992083   0.12991476   0.10649281   0.10644769    296.43977     41.49527    35.978931    34.423473    90.016431    119.66323    90.107069    18.844351    14.338658    28.381928    18.844301    14.343797 
   76000    302.92496    1.2509986    2054.8197   -1206.3615   -211.49952    2069.8459   -2310.4965    671.33018    44657.537 -0.067234084   -17.036218 -0.041707817    3501.8318     1558.279    935.06497    855.45097    28.379616    18.846106     14.33782   0.13457456   0.13457265   0.11876507   0.11869385    302.92496     41.49527    35.978931    34.423473    90.016431    119.66323    90.107069    18.844982       14.338    28.380865    18.840766    14.338412 
   77000    303.05675    1.2509986    2131.8039   -1244.3793   -211.49952    2068.6352   -2309.8512   -1885.9113    44657.537 -0.067234084   -17.036218 -0.041707817    3617.3992    1623.1641    943.28048    892.77704    28.380014    18.846211     14.33801   0.13015055   0.13014752   0.10793895   0.10781423    303.05675     41.49527    35.978931    34.423473    90.016431    119.66323    90.107069    18.846137    14.338374    28.389955    18.845569    14.341813 
   78000    300.99918    1.2509986    2061.8519   -1267.6268   -211.49952    2075.0435   -2310.1942   -2351.3162    44657.537 -0.067234084   -17.036218 -0.041707817    3564.6294    1634.7855    911.71253    870.24217    28.379546    18.846045    14.337661   0.11982153   0.11981892   0.10110295   0.10109507    300.99918     41.49527    35.978931    34.423473    90.016431    119.66323    90.107069    18.847326    14.338431    28.381508    18.849467    14.341603 
   79000    300.72563    1.2509986    2090.2173   -1227.8697   -211.49952     2071.489   -2310.2581   -520.45898    44657.537 -0.067234084   -17.036218 -0.041707817     3556.856     1605.704    933.00145    872.63754    28.380044     18.84595      14.3375    0.1217325   0.12172582     0.105728   0.10569945    300.72563     41.49527    35.978931    34.423473    90.016431    119.66323    90.107069    18.846512    14.336391    28.375646    18.845848     14.33784 
   80000    299.30108    1.2509986    2127.9891   -1218.4766   -211.49952    2069.1741   -2309.5177   -1169.8386    44657.537 -0.067234084   -17.036218 -0.041707817    3586.8094    1597.2103      957.944    874.32203    28.380143    18.845816    14.337739   0.11741146   0.11740098   0.10044823     0.100294    299.30108     41.49527    35.978931    34.423473    90.016431    119.66323    90.107069    18.844596    14.335748    28.375786    18.842916    14.329498 
   81000    294.15299    1.2509986    2118.5398   -1210.9705   -211.49952    2070.1739   -2309.8067   -1054.1074    44657.537 -0.067234084   -17.036218 -0.041707817    3569.1431    1595.3295    919.97217    899.74871    28.380155    18.846074    14.337799   0.12545053   0.12544505   0.10867275   0.10858711    294.15299     41.49527    35.978931    34.423473    90.016431    119.66323    90.107069    18.846396     14.33863    28.388366    18.846179    14.339641 
   82000    301.36143    1.2509986    2055.9617   -1216.0569   -211.49952    2078.9919   -2309.6364   -443.88691    44657.537 -0.067234084   -17.036218 -0.041707817     3502.663    1512.1554    936.01195    894.75711    28.379965    18.846247    14.337733   0.12633646   0.12633629   0.11022987   0.11019068    301.36143     41.49527    35.978931    34.423473    90.016431    119.66323    90.107069    18.846254    14.337581     28.38192    18.846152    14.334597 
   83000    302.37865    1.2509986    2092.5459   -1232.5923   -211.49952    2076.3439   -2309.9579   -856.12326    44657.537 -0.067234084   -17.036218 -0.041707817    3558.7521    1568.9157    948.01601     888.8506    28.379535    18.845761    14.337814   0.12902263   0.12902018   0.10290922   0.10286685    302.37865     41.49527    35.978931    34.423473    90.016431    119.66323    90.107069    18.847496    14.338167    28.383595    18.851486    14.344104 
   84000    295.10427    1.2509986    2121.7462   -1203.1229   -211.49952     2071.961   -2309.6938   -151.60338    44657.537 -0.067234084   -17.036218 -0.041707817     3562.602    1612.3082    920.89686    879.05575     28.38012    18.845832    14.338031   0.12505321   0.12504903   0.11547213   0.11535953    295.10427     41.49527    35.978931    34.423473    90.016431    119.66323    90.107069    18.845567    14.336598    28.383136    18.845848    14.330164 
   85000    300.44826    1.2509986    2069.8795   -1229.3672   -211.49952    2071.1092   -2310.7553    1063.4024    44657.537 -0.067234084   -17.036218 -0.041707817    3538.8928    1579.4526    936.00805    875.73182    28.379843    18.846248    14.337886    0.1275658   0.12755977   0.11261783   0.11245668    300.44826     41.49527    35.978931    34.423473    90.016431    119.66323    90.107069    18.845718    14.338231    28.391011    18.844787     14.33616 
   86000    296.96716    1.2509986    2070.2692   -1231.8587   -211.49952    2077.4275   -2309.9273    -1472.014    44657.537 -0.067234084   -17.036218 -0.041707817    3534.6277    1558.5088    954.70657     871.2745     28.37975    18.846098    14.337876     0.123884   0.12388319   0.10966202   0.10962373    296.96716     41.49527    35.978931    34.423473    90.016431    119.66323    90.107069    18.845783    14.338218    28.384756      18.8465    14.337414 
   87000    302.09596    1.2509986    2022.4297    -1276.584   -211.49952    2074.8093     -2310.05   -3054.9803    44657.537 -0.067234084   -17.036218 -0.041707817    3534.2545    1632.6279    910.09975    846.93438    28.380216    18.846038    14.337898   0.13267039   0.13266931   0.10670174   0.10663692    302.09596     41.49527    35.978931    34.423473    90.016431    119.66323    90.107069    18.845628    14.338462    28.378624    18.841456    14.342253 
   88000    301.77956    1.2509986    2081.6752   -1233.8818   -211.49952    2074.4678   -2309.3759   -599.45774    44657.537 -0.067234084   -17.036218 -0.041707817    3550.4651    1565.2015    971.28432    869.05598     28.37968    18.846259    14.337806   0.12920683   0.12920576   0.11246864   0.11238666    301.77956     41.49527    35.978931    34.423473    90.016431    119.66323    90.107069    18.845799     14.33736    28.379489    18.843913    14.332157 
   89000    298.10832    1.2509986    2037.0893   -1219.5273   -211.49952    2072.1448   -2309.8241     724.5403    44657.537 -0.067234084   -17.036218 -0.041707817     3494.296    1536.2932     948.9467    862.40951    28.379358    18.845969    14.337787   0.12446188   0.12445606   0.10753383   0.10742505    298.10832     41.49527    35.978931    34.423473    90.016431    119.66323    90.107069    18.844291    14.337309    28.373747    18.841564    14.335217 
   90000    299.36624    1.2509986    2002.6231   -1233.5755   -211.49952    2073.5414   -2309.8041   -153.69512    44657.537 -0.067234084   -17.036218 -0.041707817    3472.4613    1535.5455    923.49623    863.90733    28.379681    18.846137    14.337779   0.12047565   0.12047274   0.10615601   0.10594434    299.36624     41.49527    35.978931    34.423473    90.016431    119.66323    90.107069    18.846418    14.337267    28.380575    18.845971    14.325447 
   91000    302.02281    1.2509986    2100.4813   -1231.7536   -211.49952    2073.9741   -2309.8687   -1604.8886    44657.537 -0.067234084   -17.036218 -0.041707817    3568.1295    1595.0359    933.83167    886.95096    28.380017    18.845786    14.337837    0.1304661   0.13046275   0.10548539   0.10542083    302.02281     41.49527    35.978931    34.423473    90.016431    119.66323    90.107069    18.844739    14.338059    28.384651    18.842991    14.338106 
   92000    293.75972    1.2509986    2032.5015   -1236.0238   -211.49952    2069.8918   -2310.3896   -2005.5868    44657.537 -0.067234084   -17.036218 -0.041707817     3509.023     1542.805    948.88453    869.25423    28.379154    18.846113    14.337536     0.125745   0.12574262   0.10890946   0.10885983    293.75972     41.49527    35.978931    34.423473    90.016431    119.66323    90.107069    18.845556    14.337406    28.380243     18.84207    14.338662 
   93000    297.35225    1.2509986    2057.0404   -1220.5438   -211.49952     2075.316    -2309.793   -860.12877    44657.537 -0.067234084   -17.036218 -0.041707817    3512.0612    1549.0239      946.289    868.80279    28.379213    18.846518    14.337415   0.12550127   0.12549979   0.10686721   0.10672313    297.35225     41.49527    35.978931    34.423473    90.016431    119.66323    90.107069    18.845278    14.336993    28.382711    18.840559    14.331723 
   94000    304.21643    1.2509986    2022.1432   -1231.1158   -211.49952    2071.5902    -2309.788    -596.6779    44657.537 -0.067234084   -17.036218 -0.041707817    3491.4568    1554.4083    937.71168    852.31907    28.379621    18.846212    14.337587   0.12711497   0.12711257   0.10123014    0.1012042    304.21643     41.49527    35.978931    34.423473    90.016431    119.66323    90.107069    18.847094    14.338797    28.379427     18.84934    14.344719 
   95000    294.45198    1.2509986    2033.7419   -1229.7564   -211.49952    2068.6956   -2310.0664   -645.77898    44657.537 -0.067234084   -17.036218 -0.041707817    3504.8692    1573.6911    925.97667    853.70889    28.379987    18.845851    14.337587   0.12712422   0.12712323   0.10609071   0.10607397    294.45198     41.49527    35.978931    34.423473    90.016431    119.66323    90.107069    18.846535     14.33763    28.382334    18.847305    14.342111 
   96000    297.73413    1.2509986    2032.2391   -1241.2514   -211.49952    2071.1362   -2309.6999   -1173.9783    44657.537 -0.067234084   -17.036218 -0.041707817    3512.0543    1559.0848    936.40221    870.26542    28.379755    18.846284    14.337794   0.12215195   0.12214899   0.11102468   0.11090112    297.73413     41.49527    35.978931    34.423473    90.016431    119.66323    90.107069    18.844478    14.337752    28.387402    18.841233    14.340855 
   97000    295.95591    1.2509986    2085.7684    -1280.972   -211.49952    2070.1869   -2310.2741    -3552.748    44657.537 -0.067234084   -17.036218 -0.041707817    3606.8276    1586.9192    966.08875    894.20726     28.37943     18.84607    14.337602   0.11741287   0.11741021  0.097947946  0.097825466    295.95591     41.49527    35.978931    34.423473    90.016431    119.66323    90.107069    18.844585    14.337653    28.388828     18.84297    14.339596 
   98000    299.72451    1.2509986    2087.5097   -1237.5191   -211.49952    2063.8646   -2310.7096    -1949.581    44657.537 -0.067234084   -17.036218 -0.041707817    3571.8738    1604.8305    982.76385    836.07407    28.380182    18.846006    14.337712   0.12344998   0.12344861   0.10768091   0.10752411    299.72451     41.49527    35.978931    34.423473    90.016431    119.66323    90.107069    18.845092    14.337316    28.367912    18.847443     14.33531 
   99000     297.8872    1.2509986    2141.4833   -1215.7262   -211.49952    2070.0327   -2310.0407   -821.85442    44657.537 -0.067234084   -17.036218 -0.041707817    3597.2176    1591.3298    942.97098    907.27231    28.379998     18.84621    14.337915   0.12982457   0.12982257   0.11391266   0.11383796     297.8872     41.49527    35.978931    34.423473    90.016431    119.66323    90.107069    18.845438    14.337119      28.3817    18.841209    14.336604 
  100000    296.95316    1.2509986    2083.9244   -1238.5849   -211.49952    2072.5859   -2310.1374   -1592.8991    44657.537 -0.067234084   -17.036218 -0.041707817    3560.0609    1569.9113    930.64266    899.27408    28.379434    18.846198    14.337549   0.12389719    0.1238905   0.10988927   0.10975949    296.95316     41.49527    35.978931    34.423473    90.016431    119.66323    90.107069    18.848052     14.33609    28.380677     18.85749    14.332111 
  101000    299.11983    1.2509986    2084.7036   -1225.7614   -211.49952     2071.273   -2310.0311   -261.37117    44657.537 -0.067234084   -17.036218 -0.041707817    3549.2232    1561.6083     981.3879    857.53603    28.380438    18.846027    14.337873   0.12065918   0.12065051   0.10940148   0.10924278    299.11983     41.49527    35.978931    34.423473    90.016431    119.66323    90.107069    18.846821    14.337935    28.367932    18.852063    14.343413 
  102000    296.72246    1.2509986     2141.378   -1224.0236   -211.49952    2073.4304   -2310.1842    -824.6313    44657.537 -0.067234084   -17.036218 -0.041707817    3602.1554    1590.1909    970.21896    888.08968    28.380226     18.84615    14.337967   0.12776725   0.12776618   0.11292012     0.112802    296.72246     41.49527    35.978931    34.423473    90.016431    119.66323    90.107069    18.846743    14.337206    28.370991    18.848888     14.33295 
  103000    295.69572    1.2509986     2057.211   -1264.5403   -211.49952    2073.9007   -2310.2455   -2324.0795    44657.537 -0.067234084   -17.036218 -0.041707817    3558.0961    1609.8497    923.41257    872.38161    28.379837    18.845735    14.337775   0.12229931   0.12229895   0.11015942   0.11012574    295.69572     41.49527    35.978931    34.423473    90.016431    119.66323    90.107069    18.846234    14.337516    28.375751    18.849328    14.335267 
  104000    299.43597    1.2509986    2111.0848   -1232.4816   -211.49952    2072.4684   -2309.9126   -2335.7557    44657.537 -0.067234084   -17.036218 -0.041707817    3581.0106    1605.5036    972.58182    852.71596    28.380042    18.846125     14.33787   0.13265435   0.13265178   0.10939038   0.10932368    299.43597     41.49527    35.978931    34.423473    90.016431    119.66323    90.107069    18.845914    14.338104    28.371998     18.84672    14.337561 
  105000     297.7139    1.2509986    2097.5168   -1250.2655   -211.49952    2077.2279   -2309.5931   -2033.6449    44657.537 -0.067234084   -17.036218 -0.041707817    3580.1475    1577.0563    960.44935    883.45916    28.380107    18.846222    14.337615   0.12628058   0.12627962   0.10753426   0.10751413     297.7139     41.49527    35.978931    34.423473    90.016431    119.66323    90.107069    18.847051    14.338182     28.38252    18.847381    14.342585 
  106000    296.27139    1.2509986    2063.7311   -1235.8554   -211.49952    2073.4591   -2309.9983   -1802.9136    44657.537 -0.067234084   -17.036218 -0.041707817    3536.1257     1557.185    943.40057    883.66302     28.37959    18.846016    14.337801   0.11681889   0.11681672  0.092371596  0.092254923    296.27139     41.49527    35.978931    34.423473    90.016431    119.66323    90.107069     18.84612    14.338135    28.375682    18.839644    14.335912 
  107000    298.67146    1.2509986     2075.431   -1233.0655   -211.49952    2076.3468   -2310.3315   -960.01023    44657.537 -0.067234084   -17.036218 -0.041707817    3542.4813    1592.0275    921.72081    878.87205     28.37963    18.846666    14.337684   0.12490411   0.12489968   0.10587284   0.10583345    298.67146     41.49527    35.978931    34.423473    90.016431    119.66323    90.107069    18.847569     14.33801    28.373737    18.851306    14.340145 
  108000    302.30584    1.2509986    2073.8853   -1236.7448   -211.49952    2068.7169   -2309.9505   -2750.2382    44657.537 -0.067234084   -17.036218 -0.041707817    3551.8637    1586.8687    968.91038    849.20737    28.379981    18.846285    14.337825    0.1189612   0.11895791  0.098975435   0.09891898    302.30584     41.49527    35.978931    34.423473    90.016431    119.66323    90.107069    18.847248    14.336272    28.381161    18.847558    14.332443 
  109000    301.42729    1.2509986    2075.8697   -1237.2848   -211.49952    2074.4397   -2309.9769   -284.28092    44657.537 -0.067234084   -17.036218 -0.041707817    3548.6917    1595.0349    948.27998    850.33199    28.380099     18.84628    14.337823    0.1281012   0.12809726   0.11066341   0.11051693    301.42729     41.49527    35.978931    34.423473    90.016431    119.66323    90.107069    18.844338    14.338375    28.376983    18.837529    14.342462 
  110000    304.06555    1.2509986    2032.7927   -1234.3316   -211.49952    2077.4669   -2309.5699   -1628.8154    44657.537 -0.067234084   -17.036218 -0.041707817    3499.2274    1573.0351    910.10611    868.81015     28.37933    18.846282    14.337682   0.13115279   0.13115007   0.11074418   0.11047589    304.06555     41.49527    35.978931    34.423473    90.016431    119.66323    90.107069    18.846062    14.336137     28.38087    18.842465    14.324682 
  111000    300.70728    1.2509986    2018.9321   -1244.1715   -211.49952    2077.4414   -2310.0611   -1476.0371    44657.537 -0.067234084   -17.036218 -0.041707817    3495.7233     1527.265    920.71271    892.23889    28.380029    18.846125    14.338012   0.13109471   0.13109258   0.11326098   0.11303003    300.70728     41.49527    35.978931    34.423473    90.016431    119.66323    90.107069     18.84566    14.336376    28.380055    18.843663    14.325423 
  112000    293.74034    1.2509986    2057.2645   -1231.9723   -211.49952    2074.4547   -2309.8233   -1890.6772    44657.537 -0.067234084   -17.036218 -0.041707817    3524.6054    1597.3849    906.05122    869.55575     28.38018    18.846178    14.338097   0.13106624   0.13106437   0.10772477   0.10767034    293.74034     41.49527    35.978931    34.423473    90.016431    119.66323    90.107069    18.845375    14.338831    28.377665    18.843031    14.343521 
  113000    301.45966    1.2509986    2088.0747   -1251.4459   -211.49952    2075.6472   -2309.9289   -194.09881    44657.537 -0.067234084   -17.036218 -0.041707817    3573.8024    1591.6981    948.40019    875.57978    28.379714    18.846182      14.3377   0.12142181   0.12141372    0.1056944   0.10561247    301.45966     41.49527    35.978931    34.423473    90.016431    119.66323    90.107069    18.845561    14.338202    28.375109    18.844147    14.345841 
  114000    302.43251    1.2509986    2027.4536   -1239.9677   -211.49952    2072.4203   -2310.2172   -431.19272    44657.537 -0.067234084   -17.036218 -0.041707817    3505.2181    1560.2737    903.88139    888.19602    28.380017    18.846176    14.337824   0.12970875    0.1297038   0.11032298   0.11014819    302.43251     41.49527    35.978931    34.423473    90.016431    119.66323    90.107069    18.848195    14.338047    28.390864    18.855705    14.341109 
  115000    296.95063    1.2509986    1965.7988   -1238.3455   -211.49952    2069.3193   -2310.4575   -1322.1025    44657.537 -0.067234084   -17.036218 -0.041707817    3445.2824     1551.052    934.83648     821.3403    28.379703    18.846001    14.337823   0.11320054   0.11319583   0.10060857   0.10046572    296.95063     41.49527    35.978931    34.423473    90.016431    119.66323    90.107069    18.847755    14.338367    28.390419    18.853619    14.341543 
  116000    293.88612    1.2509986    2024.9376   -1242.0806   -211.49952    2071.1394   -2309.7857    -1660.568    44657.537 -0.067234084   -17.036218 -0.041707817    3505.6644    1569.1646     934.7044    857.28015    28.379749    18.846019    14.337828   0.12042358   0.12042263  0.096515035  0.096367961    293.88612     41.49527    35.978931    34.423473    90.016431    119.66323    90.107069    18.846702     14.33693    28.380392    18.851475    14.327793 
  117000    302.92334    1.2509986    2043.0483   -1237.1008   -211.49952    2078.9184   -2309.8742   -293.99783    44657.537 -0.067234084   -17.036218 -0.041707817    3511.1049     1600.648    902.84599    855.57391    28.379866    18.846116     14.33772   0.12280774   0.12280464   0.10715399   0.10708821    302.92334     41.49527    35.978931    34.423473    90.016431    119.66323    90.107069    18.846151    14.337128    28.374213    18.843697    14.336643 
  118000    304.09952    1.2509986    2048.1666   -1250.7582   -211.49952    2068.9841   -2310.4449   -2188.3208    44657.537 -0.067234084   -17.036218 -0.041707817    3540.3855    1592.5894    915.22324    880.97089     28.37956    18.846143    14.337667    0.1187382   0.11873169   0.10248101   0.10210214    304.09952     41.49527    35.978931    34.423473    90.016431    119.66323    90.107069    18.846693    14.335523    28.379546     18.85026    14.320214 
  119000    293.00212    1.2509986    2081.9166   -1228.0417   -211.49952    2073.1974   -2309.7697   -789.46767    44657.537 -0.067234084   -17.036218 -0.041707817    3546.5307    1573.0694     955.4954    870.34427    28.379753    18.846282    14.337761   0.12274925   0.12274715   0.10579145   0.10573997    293.00212     41.49527    35.978931    34.423473    90.016431    119.66323    90.107069    18.844984    14.337477    28.380303    18.844723    14.333935 
  120000    302.65219    1.2509986    2075.4665   -1247.3951   -211.49952    2074.8821   -2310.1617   -1417.9541    44657.537 -0.067234084   -17.036218 -0.041707817    3558.1412    1581.7732    940.47616    879.88031    28.379944    18.846406    14.337792   0.12268002   0.12267906   0.10841388   0.10838625    302.65219     41.49527    35.978931    34.423473    90.016431    119.66323    90.107069    18.845249    14.337952    28.379119    18.845911    14.343859 
  121000      297.252    1.2509986    2079.1984   -1232.9449   -211.49952    2069.7895   -2309.6367   -1001.1067    44657.537 -0.067234084   -17.036218 -0.041707817    3551.9904    1533.4598    990.26069    875.26841    28.379249    18.846386    14.337809   0.13097938   0.13097866   0.10440751   0.10440261      297.252     41.49527    35.978931    34.423473    90.016431    119.66323    90.107069    18.846688    14.338202    28.380854    18.848719    14.337867 
  122000    298.43561    1.2509986    2070.3729   -1256.2315   -211.49952    2074.7293   -2309.6351   -2475.2601    44657.537 -0.067234084   -17.036218 -0.041707817    3561.5103    1563.7949    955.33046    885.78402    28.379426    18.846357    14.337844   0.12369104   0.12367668   0.10640885   0.10621767    298.43561     41.49527    35.978931    34.423473    90.016431    119.66323    90.107069    18.846996    14.337551    28.366869    18.843524    14.339896 
  123000    298.65775    1.2509986    2088.9232   -1227.3903   -211.49952    2070.5794   -2309.3954   -200.19456    44657.537 -0.067234084   -17.036218 -0.041707817    3555.1295    1544.7489     944.0563    908.03973    28.379818    18.845983    14.337786   0.12653421   0.12653229   0.11227215   0.11226139    298.65775     41.49527    35.978931    34.423473    90.016431    119.66323    90.107069    18.847416    14.338337    28.382672    18.850033    14.339777 
  124000    299.19994    1.2509986     2050.981   -1223.9962   -211.49952    2073.7881   -2309.9302    162.82748    44657.537 -0.067234084   -17.036218 -0.041707817    3511.1193     1541.151    951.29662    872.26333    28.379448    18.845937    14.337707   0.12973008   0.12972188   0.10556438   0.10549369    299.19994     41.49527    35.978931    34.423473    90.016431    119.66323    90.107069    18.847049    14.336869     28.37349    18.846428    14.334423 
  125000    300.25182    1.2509986    2080.9156   -1231.7883   -211.49952    2076.0404   -2309.8709   -2020.9116    44657.537 -0.067234084   -17.036218 -0.041707817    3546.5343    1573.0471    959.30325    867.51896    28.379691     18.84631    14.337868   0.12176356   0.12176122   0.10412595   0.10409761    300.25182     41.49527    35.978931    34.423473    90.016431    119.66323    90.107069    18.846687    14.338041    28.384808    18.848381    14.339037 
  126000    293.13396    1.2509986    2079.6599   -1229.1491   -211.49952    2074.1359   -2310.1814   -2050.3874    44657.537 -0.067234084   -17.036218 -0.041707817    3544.8545    1616.5155    932.16817    847.21556    28.380328     18.84608    14.338088   0.12425052    0.1242455   0.11198968   0.11191906    293.13396     41.49527    35.978931    34.423473    90.016431    119.66323    90.107069    18.845534    14.338214    28.387874    18.847839    14.339397 
  127000    294.89982    1.2509986    2116.0864   -1244.3477   -211.49952    2073.5187   -2310.1486   -485.20021    44657.537 -0.067234084   -17.036218 -0.041707817    3597.0641    1618.5195     953.7363    873.63514    28.380097      18.8462    14.337905   0.11635313    0.1163526   0.10264285   0.10260151    294.89982     41.49527    35.978931    34.423473    90.016431    119.66323    90.107069    18.845542    14.337653    28.378807    18.844776     14.33486 
  128000    296.32855    1.2509986    1965.3661   -1249.7814   -211.49952    2076.7666   -2310.0139    -324.8856    44657.537 -0.067234084   -17.036218 -0.041707817    3448.3949    1508.2994    935.96662    854.96823    28.379884     18.84627    14.337689   0.12171459    0.1217107    0.1054658   0.10544102    296.32855     41.49527    35.978931    34.423473    90.016431    119.66323    90.107069    18.848142    14.337544    28.375577     18.84957      14.3367 
  129000    291.48951    1.2509986    2114.5783   -1211.9599   -211.49952    2066.3834   -2310.2951   -686.83447    44657.537 -0.067234084   -17.036218 -0.041707817    3570.4499    1545.5262    968.71648    902.22137    28.380163    18.846153    14.337718    0.1162986   0.11629362   0.10283727   0.10282337    291.48951     41.49527    35.978931    34.423473    90.016431    119.66323    90.107069    18.848191    14.338047    28.376432    18.848562    14.341621 
  130000    293.35026    1.2509986    2086.2219   -1244.1096   -211.49952    2076.0474   -2309.6138   -988.07904    44657.537 -0.067234084   -17.036218 -0.041707817    3563.8979     1585.725    948.09464    881.26111     28.37945    18.845909    14.337513   0.12015816   0.12015028     0.100774   0.10062819    293.35026     41.49527    35.978931    34.423473    90.016431    119.66323    90.107069    18.847009     14.33692    28.368627    18.848185    14.334571 
  131000    296.18306    1.2509986    2173.4045   -1224.1203   -211.49952     2075.068   -2309.6482   -1293.1991    44657.537 -0.067234084   -17.036218 -0.041707817     3632.105    1648.3947    961.85757    871.51056    28.379426    18.846058    14.337682    0.1253587   0.12535271   0.10703945   0.10691067    296.18306     41.49527    35.978931    34.423473    90.016431    119.66323    90.107069    18.844567    14.339578    28.378047    18.844967    14.350133 
  132000    298.45598    1.2509986    2129.5301   -1253.2348   -211.49952    2071.8897   -2310.3901    313.94838    44657.537 -0.067234084   -17.036218 -0.041707817    3621.2653     1613.093    933.24892      916.252    28.379717    18.846018    14.337738   0.12481938   0.12481858   0.11093474   0.11088033    298.45598     41.49527    35.978931    34.423473    90.016431    119.66323    90.107069    18.846164    14.337318    28.376969    18.849294    14.332736 
  133000    305.26092    1.2509986    2069.2552   -1231.7037   -211.49952    2079.5464   -2309.4474   -347.08594    44657.537 -0.067234084   -17.036218 -0.041707817      3530.86    1583.2029    942.80307     856.7853    28.379766    18.846091    14.337554   0.11699492   0.11699384  0.093726969  0.093699234    305.26092     41.49527    35.978931    34.423473    90.016431    119.66323    90.107069    18.846755    14.336926    28.384158    18.851568    14.339455 
  134000    292.09192    1.2509986    2055.0612   -1232.4817   -211.49952    2077.1349   -2309.6693    555.98325    44657.537 -0.067234084   -17.036218 -0.041707817    3520.0772    1592.6119    937.35346    842.78691    28.379532    18.846255    14.337493   0.12609967   0.12609321   0.10842313   0.10825898    292.09192     41.49527    35.978931    34.423473    90.016431    119.66323    90.107069    18.846074     14.33924    28.386058    18.841065    14.347301 
  135000    298.86382    1.2509986    1990.8316   -1250.8936   -211.49952    2075.4305   -2310.2615   -1801.4167    44657.537 -0.067234084   -17.036218 -0.041707817    3476.5562    1571.4616    899.49324    855.18748    28.379938     18.84609    14.337584   0.12484575   0.12484274   0.10651903   0.10646096    298.86382     41.49527    35.978931    34.423473    90.016431    119.66323    90.107069     18.84597    14.336492    28.376975    18.846505    14.332921 
  136000    301.14426    1.2509986    2054.4895   -1231.4341   -211.49952    2072.2624   -2310.2286   -838.97547    44657.537 -0.067234084   -17.036218 -0.041707817    3523.8898    1520.0455    982.65833    871.41586     28.37986    18.845971    14.337541   0.12238745    0.1223851   0.10257204   0.10252986    301.14426     41.49527    35.978931    34.423473    90.016431    119.66323    90.107069    18.847588     14.33713    28.382431    18.851307    14.334284 
  137000    307.50607    1.2509986    2049.3576   -1227.8893   -211.49952    2071.1199   -2309.7746   -2011.5235    44657.537 -0.067234084   -17.036218 -0.041707817    3515.9016    1565.3646    942.92822    855.20292    28.379524    18.846135    14.337504    0.1205628   0.12055882  0.099008057  0.099001673    307.50607     41.49527    35.978931    34.423473    90.016431    119.66323    90.107069    18.847112    14.336667    28.381428    18.848916    14.337943 
  138000    294.97639    1.2509986     2073.823   -1236.6228   -211.49952    2073.6148   -2309.5712   -1799.3107    44657.537 -0.067234084   -17.036218 -0.041707817    3546.4023    1552.0037    966.41277    873.05788    28.379771    18.846096    14.337653   0.11968971   0.11967543   0.10198225   0.10188066    294.97639     41.49527    35.978931    34.423473    90.016431    119.66323    90.107069    18.845468    14.340035     28.38296    18.844911    14.348193 
  139000    294.86227    1.2509986    2058.8812   -1210.3407   -211.49952    2077.2049   -2310.0816    61.499312    44657.537 -0.067234084   -17.036218 -0.041707817    3502.0987    1597.0259    894.33897    859.94906    28.380257    18.846157    14.337848   0.12280186   0.12280054   0.10725422   0.10722781    294.86227     41.49527    35.978931    34.423473    90.016431    119.66323    90.107069    18.845053     14.33762    28.374863     18.84721    14.338576 
  140000    299.83443    1.2509986    1951.3014   -1238.0692   -211.49952    2074.5486   -2310.0152   -297.09457    44657.537 -0.067234084   -17.036218 -0.041707817    3424.8372    1564.0025    877.15237    844.31345    28.380225    18.845693     14.33784    0.1255947   0.12559399   0.10837168   0.10834009    299.83443     41.49527    35.978931    34.423473    90.016431    119.66323    90.107069    18.847003    14.337555     28.37759    18.848784    14.334377 
  141000    299.94477    1.2509986     1993.457   -1233.0936   -211.49952     2067.183    -2310.141   -2237.8907    44657.537 -0.067234084   -17.036218 -0.041707817    3469.5085    1554.9284    926.34455    842.19282    28.379843     18.84608    14.337558   0.12381193    0.1238071   0.10346499   0.10335586    299.94477     41.49527    35.978931    34.423473    90.016431    119.66323    90.107069    18.846108    14.337189    28.369656    18.846708    14.337231 
  142000    293.49718    1.2509986    2011.2042   -1257.0267   -211.49952     2071.926   -2310.2752   -1005.1007    44657.537 -0.067234084   -17.036218 -0.041707817    3506.5802    1550.1619    973.96719     833.6081    28.380164    18.846194    14.337722   0.13193747   0.13193157   0.11193413   0.11190979    293.49718     41.49527    35.978931    34.423473    90.016431    119.66323    90.107069    18.848141    14.338599    28.382371    18.852085    14.342281 
  143000    301.15383    1.2509986    2042.5526   -1233.3077   -211.49952    2076.6543   -2309.4834    -424.7446    44657.537 -0.067234084   -17.036218 -0.041707817    3508.6894    1591.7278    937.51242    833.03831    28.379463    18.846184     14.33768    0.1216919   0.12169082   0.10116649   0.10110347    301.15383     41.49527    35.978931    34.423473    90.016431    119.66323    90.107069    18.846389    14.338756    28.375613    18.846859    14.346183 
  144000    298.92651    1.2509986    2025.0449   -1287.1394   -211.49952    2072.5956   -2309.8584   -2994.3836    44657.537 -0.067234084   -17.036218 -0.041707817    3549.4472    1570.4715    950.69584    870.58192    28.379684    18.846278    14.337674   0.12028695   0.12028563   0.10316124   0.10313419    298.92651     41.49527    35.978931    34.423473    90.016431    119.66323    90.107069    18.846046    14.338174    28.375162    18.846333    14.340386 
  145000    293.78356    1.2509986     2073.154   -1246.5595   -211.49952    2073.1113   -2309.4983    -1638.354    44657.537 -0.067234084   -17.036218 -0.041707817    3556.1005    1588.6404    953.18198    864.17387    28.379972    18.846562     14.33781   0.11886291   0.11885696   0.10692799   0.10680615    293.78356     41.49527    35.978931    34.423473    90.016431    119.66323    90.107069    18.846537    14.335795    28.374582    18.845982    14.330263 
  146000    298.58639    1.2509986    2128.2957   -1247.2353   -211.49952    2070.7236   -2310.0434   -1154.0625    44657.537 -0.067234084   -17.036218 -0.041707817    3614.8508    1581.1376    973.18451    903.97072    28.380006    18.846346    14.337781    0.1249356   0.12492641   0.11372842   0.11364052    298.58639     41.49527    35.978931    34.423473    90.016431    119.66323    90.107069    18.846176    14.336835    28.374464    18.843172     14.33436 
  147000    293.61808    1.2509986    2159.2814   -1235.4412   -211.49952    2074.2385   -2310.3621    153.96334    44657.537 -0.067234084   -17.036218 -0.041707817    3630.8463    1625.3729    954.38386    894.52982    28.380015    18.846373    14.337558   0.12498161   0.12498091   0.10786471   0.10772964    293.61808     41.49527    35.978931    34.423473    90.016431    119.66323    90.107069    18.846222    14.337275    28.379888    18.839592    14.332841 
  148000    303.70109    1.2509986     2148.976   -1235.5779   -211.49952    2072.7366    -2309.951    -1958.879    44657.537 -0.067234084   -17.036218 -0.041707817    3621.7683    1616.0368    959.70264    891.37354    28.380077    18.846018    14.337874   0.12134666   0.12134348   0.11002749   0.11001819    303.70109     41.49527    35.978931    34.423473    90.016431    119.66323    90.107069    18.846155     14.33761     28.38134    18.849522     14.34206 
  149000    300.08708    1.2509986    2100.6801   -1254.4556   -211.49952    2066.8196   -2309.9814   -2430.8145    44657.537 -0.067234084   -17.036218 -0.041707817    3598.2975    1585.8882    945.89855    907.36542    28.380218     18.84609    14.337922   0.12287889   0.12287718   0.10556441   0.10554482    300.08708     41.49527    35.978931    34.423473    90.016431    119.66323    90.107069    18.845784    14.338409     28.38013     18.84471    14.340498 
  150000    296.60226    1.2509986    2074.7109    -1246.298   -211.49952    2070.5334   -2309.6985   -1502.7898    44657.537 -0.067234084   -17.036218 -0.041707817     3560.174     1565.175     963.0826    878.94182    28.380004    18.846232    14.337719   0.13023675   0.13023474   0.11193101   0.11180725    296.60226     41.49527    35.978931    34.423473    90.016431    119.66323    90.107069    18.847074    14.336998    28.372808    18.849104    14.330795 
  151000    296.39401    1.2509986    2067.7341   -1220.6096   -211.49952    2076.0719   -2309.6146    50.814463    44657.537 -0.067234084   -17.036218 -0.041707817    3521.8864    1556.6736    948.60889    866.20763    28.380117    18.845854    14.337823   0.12697869   0.12697463   0.10844089   0.10841366    296.39401     41.49527    35.978931    34.423473    90.016431    119.66323    90.107069    18.844747    14.338271    28.378569    18.844141    14.341225 
  152000    297.83806    1.2509986     2136.031   -1228.4176   -211.49952    2075.1279   -2309.5045   -748.49162    44657.537 -0.067234084   -17.036218 -0.041707817    3598.8253      1604.88    959.24952    882.72184    28.379669    18.845953    14.337519   0.12749827   0.12749111   0.11088858   0.11078918    297.83806     41.49527    35.978931    34.423473    90.016431    119.66323    90.107069     18.84819    14.336316      28.3856    18.848872     14.33171 
  153000    294.59551    1.2509986    1995.0336   -1232.9487   -211.49952    2072.9567   -2310.5871   -96.710703    44657.537 -0.067234084   -17.036218 -0.041707817    3465.6127    1546.3905    883.49255     880.3857    28.379488    18.845957    14.337754   0.12369836    0.1236976   0.10267251   0.10261422    294.59551     41.49527    35.978931    34.423473    90.016431    119.66323    90.107069    18.845318    14.337733    28.382638    18.842314    14.337657 
  154000    304.73879    1.2509986    1999.2951   -1241.0798   -211.49952    2075.6559   -2309.3721    121.89984    44657.537 -0.067234084   -17.036218 -0.041707817    3474.0912     1541.391     896.3956    882.02087    28.380193     18.84595    14.338041   0.12523384   0.12523027   0.11216591    0.1121375    304.73879     41.49527    35.978931    34.423473    90.016431    119.66323    90.107069    18.845719    14.337978    28.380904    18.844798     14.34261 
  155000    290.43412    1.2509986    2055.3279   -1246.4392   -211.49952    2072.9165   -2310.5647   -507.60884    44657.537 -0.067234084   -17.036218 -0.041707817    3539.4153    1627.6811    898.00914    865.29335    28.379863    18.846349    14.337723   0.11804026   0.11803616   0.10500112   0.10495248    290.43412     41.49527    35.978931    34.423473    90.016431    119.66323    90.107069    18.844726    14.339124    28.377178    18.845674    14.345281 
  156000    300.17378    1.2509986    2097.3942   -1249.9547   -211.49952    2068.9114   -2310.4833   -1292.6906    44657.537 -0.067234084   -17.036218 -0.041707817    3588.9208     1577.889    944.34344    903.47706    28.379491    18.846409    14.337609   0.11938414   0.11937793   0.10271064     0.102426    300.17378     41.49527    35.978931    34.423473    90.016431    119.66323    90.107069    18.846421    14.335564    28.382408    18.847049    14.323126 
  157000    299.90974    1.2509986    1947.5089   -1225.2588   -211.49952    2078.2959   -2309.7844    281.14616    44657.537 -0.067234084   -17.036218 -0.041707817    3404.2563    1487.9204    948.08577     823.4552    28.379814    18.846348    14.337824   0.12130579    0.1213047   0.10284038   0.10281975    299.90974     41.49527    35.978931    34.423473    90.016431    119.66323    90.107069    18.845954    14.337685    28.375768    18.847724    14.341787 
  158000    294.66016    1.2509986    2127.2053   -1260.5135   -211.49952    2077.2638   -2310.2541   -4014.7753    44657.537 -0.067234084   -17.036218 -0.041707817    3620.7091    1624.2709    978.39566    867.36335    28.380483    18.846293    14.337971   0.12874447   0.12873051   0.10689925   0.10683043    294.66016     41.49527    35.978931    34.423473    90.016431    119.66323    90.107069    18.847977    14.339217    28.385603    18.848828    14.345314 
  159000      298.821    1.2509986    2117.4748   -1205.2002   -211.49952    2066.8807   -2310.2204   -359.03821    44657.537 -0.067234084   -17.036218 -0.041707817    3566.0147      1622.55    944.13546    854.09153    28.380151    18.846103    14.337855   0.12812389   0.12812062   0.10645656   0.10628293      298.821     41.49527    35.978931    34.423473    90.016431    119.66323    90.107069      18.8468    14.338406    28.366513    18.850452     14.34083 
  160000    302.38389    1.2509986    1949.8824   -1268.3369   -211.49952    2072.3544   -2310.1226   -2560.2111    44657.537 -0.067234084   -17.036218 -0.041707817    3455.9874    1560.2113    917.43506    833.88174    28.380073    18.846234    14.337691    0.1301335   0.13013137   0.11022507    0.1101828    302.38389     41.49527    35.978931    34.423473    90.016431    119.66323    90.107069    18.847252    14.336928    28.380193    18.847249    14.333412 
  161000    295.04555    1.2509986    2113.6459   -1233.7681   -211.49952    2073.7566   -2309.9498   -1852.1659    44657.537 -0.067234084   -17.036218 -0.041707817    3583.6072    1633.5888    942.36751    857.13159    28.379612     18.84614    14.337625   0.12831382   0.12831209   0.10902008   0.10896875    295.04555     41.49527    35.978931    34.423473    90.016431    119.66323    90.107069    18.846866    14.337398    28.382829    18.844845    14.334817 
  162000    298.57244    1.2509986    1986.7655   -1255.6579   -211.49952    2072.9744   -2310.5516   -1736.8843    44657.537 -0.067234084   -17.036218 -0.041707817    3480.0007    1576.7548    889.79049    863.25255    28.379856    18.846354    14.337756   0.11805173   0.11804793   0.10528086   0.10521603    298.57244     41.49527    35.978931    34.423473    90.016431    119.66323    90.107069    18.846504    14.338515    28.385966     18.85159    14.343774 
  163000    297.12994    1.2509986     2126.965   -1273.0484   -211.49952    2076.8446   -2309.8878   -3457.4711    44657.537 -0.067234084   -17.036218 -0.041707817    3633.0566    1597.4547    986.15841    893.65264    28.379839    18.846454     14.33758   0.13044222   0.13043268   0.11138387   0.11115619    297.12994     41.49527    35.978931    34.423473    90.016431    119.66323    90.107069    18.845466     14.33593    28.371787    18.844159    14.327648 
  164000    303.89418    1.2509986    1995.3632   -1226.8447   -211.49952    2069.2914   -2309.7879   -716.39354    44657.537 -0.067234084   -17.036218 -0.041707817    3462.7043    1559.1688    901.85965    853.01118    28.379941    18.846021    14.337951   0.11450543   0.11450028  0.099947339  0.099796823    303.89418     41.49527    35.978931    34.423473    90.016431    119.66323    90.107069     18.84442    14.338894     28.38005    18.838728    14.346308 
  165000    298.59959    1.2509986    2014.2285   -1242.5225   -211.49952    2071.4837   -2309.8451   -1655.7387    44657.537 -0.067234084   -17.036218 -0.041707817    3495.1124    1565.5069    934.88061    851.26694    28.379812    18.845984    14.337787   0.12129616   0.12129343  0.097768875  0.097747616    298.59959     41.49527    35.978931    34.423473    90.016431    119.66323    90.107069    18.845865    14.337214    28.378797    18.848006    14.335203 
[...]
  961000    296.39644    1.2509986    2003.5392    -1231.351   -211.49952    2067.4909   -2310.0315   -1351.8147    44657.537 -0.067234084   -17.036218 -0.041707817    3477.4308    1542.6698    915.18418    868.85636    28.379388    18.846135    14.337611   0.12790223   0.12790182   0.11367659   0.11366533    296.39644     41.49527    35.978931    34.423473    90.016431    119.66323    90.107069    18.846772    14.337644    28.377437    18.846482    14.340242 
  962000     298.8745    1.2509986     2029.234   -1223.5536   -211.49952    2073.0523   -2309.9325   -269.02496    44657.537 -0.067234084   -17.036218 -0.041707817    3489.6677     1548.639    937.24209    855.91997    28.379387    18.846147    14.337481   0.11616114   0.11615846  0.095988542  0.095849305     298.8745     41.49527    35.978931    34.423473    90.016431    119.66323    90.107069    18.845617    14.336803    28.388414    18.843576    14.334051 
  963000    302.43145    1.2509986    2122.0217    -1257.301   -211.49952    2075.6236   -2310.5299    -754.5365    44657.537 -0.067234084   -17.036218 -0.041707817     3614.229    1603.1874    971.18497    880.65019    28.379591    18.846313    14.337611   0.13217515   0.13216978   0.11928169   0.11925343    302.43145     41.49527    35.978931    34.423473    90.016431    119.66323    90.107069    18.845813      14.3374    28.376466    18.844758    14.338857 
  964000    299.33968    1.2509986    2010.4352   -1223.8182   -211.49952    2066.1647   -2310.0916    205.76458    44657.537 -0.067234084   -17.036218 -0.041707817    3478.1803    1553.1406    914.69023    860.09035    28.380024    18.846061    14.337774   0.12390799   0.12390597   0.10428961   0.10423618    299.33968     41.49527    35.978931    34.423473    90.016431    119.66323    90.107069    18.846473    14.337124     28.38225    18.851812    14.333446 
  965000    295.36702    1.2509986    2171.1754   -1225.4754   -211.49952    2073.1857   -2310.0362   -1095.1411    44657.537 -0.067234084   -17.036218 -0.041707817    3633.5013    1617.1746     958.2357    906.35718     28.38001    18.845906    14.337831   0.12814745   0.12813623   0.11114272   0.11110819    295.36702     41.49527    35.978931    34.423473    90.016431    119.66323    90.107069    18.845205    14.339736    28.377066     18.84444    14.342361 
  966000    295.33214    1.2509986     2014.922   -1231.4411   -211.49952    2064.9762   -2309.7833   -1976.0492    44657.537 -0.067234084   -17.036218 -0.041707817    3491.1703    1536.6401    937.62518    872.34609    28.380032    18.846404    14.337746   0.12454456   0.12454421   0.10698151   0.10690313    295.33214     41.49527    35.978931    34.423473    90.016431    119.66323    90.107069    18.845862     14.33768     28.38329    18.841332    14.337305 
  967000    299.05202    1.2509986    2109.3387   -1249.1388   -211.49952    2069.4805   -2310.1236   -1504.1216    44657.537 -0.067234084   -17.036218 -0.041707817    3599.1207    1614.9508    948.45227    882.16871    28.380481    18.846275    14.337744   0.12305517   0.12304999   0.10443324   0.10439078    299.05202     41.49527    35.978931    34.423473    90.016431    119.66323    90.107069    18.847397    14.337531    28.385314    18.850937    14.337268 
  968000    299.00199    1.2509986    2157.5677   -1217.8279   -211.49952     2072.159   -2309.8844    652.99982    44657.537 -0.067234084   -17.036218 -0.041707817     3613.121    1577.1099    988.84489    894.42831    28.380559     18.84621    14.337772   0.12054944    0.1205338    0.1071409   0.10711257    299.00199     41.49527    35.978931    34.423473    90.016431    119.66323    90.107069    18.845981    14.338598    28.384121    18.847327    14.341795 
  969000    299.61029    1.2509986      2097.09   -1240.2862   -211.49952    2071.5845   -2309.6898   -931.43205    44657.537 -0.067234084   -17.036218 -0.041707817    3575.4814    1592.8596    928.12758    901.11123    28.380143    18.846447    14.337859   0.11970853   0.11970482   0.10448549   0.10437328    299.61029     41.49527    35.978931    34.423473    90.016431    119.66323    90.107069    18.845391    14.336318    28.372921    18.843416    14.333567 
  970000    297.33965    1.2509986    2028.5718   -1250.7961   -211.49952    2069.7276   -2309.7519   -2962.3968    44657.537 -0.067234084   -17.036218 -0.041707817    3519.3923    1580.1406    910.55912    874.56731    28.379827    18.846171    14.337867   0.12506038   0.12505608   0.10341574   0.10337415    297.33965     41.49527    35.978931    34.423473    90.016431    119.66323    90.107069    18.846086    14.338193    28.382245     18.84331     14.34099 
  971000    304.45786    1.2509986    2056.2193   -1228.7033   -211.49952    2073.1133    -2309.791    38.775331    44657.537 -0.067234084   -17.036218 -0.041707817    3521.6004    1574.2145    916.79235     882.6617    28.379572    18.845927    14.337553   0.11890218   0.11890163  0.094378522  0.094319268    304.45786     41.49527    35.978931    34.423473    90.016431    119.66323    90.107069    18.846175    14.338136     28.38238    18.849256    14.346795 
  972000    300.18064    1.2509986    2055.8323    -1301.778   -211.49952    2085.4396   -2309.6334   -3494.3351    44657.537 -0.067234084   -17.036218 -0.041707817    3581.8041    1653.7866    901.98062    878.44413    28.380116    18.846172    14.337815    0.1254183   0.12541489   0.10832287   0.10831427    300.18064     41.49527    35.978931    34.423473    90.016431    119.66323    90.107069    18.846583    14.338246    28.381905    18.848707     14.33791 
  973000    298.86265    1.2509986    2108.4628   -1223.7514   -211.49952    2077.9543   -2309.5814    297.49646    44657.537 -0.067234084   -17.036218 -0.041707817    3563.8413    1585.8583    925.80452     892.5649    28.380053    18.846425    14.337689   0.12749169   0.12749081   0.10304278   0.10302507    298.86265     41.49527    35.978931    34.423473    90.016431    119.66323    90.107069     18.84699    14.337838    28.380763    18.846195    14.336755 
  974000    294.45311    1.2509986    2035.9891   -1252.8987   -211.49952    2078.2527   -2309.5912   -798.83268    44657.537 -0.067234084   -17.036218 -0.041707817    3520.2263    1551.4136    934.12799    879.45841    28.380157    18.845807    14.337658   0.12999623   0.12999038   0.10955786   0.10953088    294.45311     41.49527    35.978931    34.423473    90.016431    119.66323    90.107069     18.84674    14.336981    28.376593    18.851844    14.336447 
  975000    300.01151    1.2509986    2137.3294   -1212.9475   -211.49952    2073.7735   -2309.8586   -32.152627    44657.537 -0.067234084   -17.036218 -0.041707817    3586.3619    1613.8244    974.48109    851.57582    28.379791    18.845941    14.337734   0.11408479   0.11408099  0.099062842  0.099056529    300.01151     41.49527    35.978931    34.423473    90.016431    119.66323    90.107069    18.844968    14.337778    28.380264    18.846771    14.340526 
  976000    297.72089    1.2509986    2039.8157   -1246.3569   -211.49952    2073.0456   -2310.3892   -1095.8686    44657.537 -0.067234084   -17.036218 -0.041707817    3523.5162    1588.3566     895.6425    888.56483    28.379943    18.846095     14.33776   0.12736696   0.12736357   0.11079466   0.11076891    297.72089     41.49527    35.978931    34.423473    90.016431    119.66323    90.107069    18.847856    14.337596    28.383316    18.851442    14.337248 
  977000    302.47359    1.2509986    2080.6698   -1242.5752   -211.49952    2072.7952   -2309.9787   -1948.6229    44657.537 -0.067234084   -17.036218 -0.041707817    3560.4285      1628.46    924.04366    861.40729    28.379278     18.84618    14.337544    0.1256959   0.12569173   0.10778925   0.10775101    302.47359     41.49527    35.978931    34.423473    90.016431    119.66323    90.107069    18.847817    14.338248    28.378945    18.853859    14.335846 
  978000    299.92657    1.2509986    2040.7667   -1237.5223   -211.49952    2075.3293   -2309.4165   -236.78578    44657.537 -0.067234084   -17.036218 -0.041707817    3512.3762    1575.1661    920.92879    864.81222    28.379746    18.846002    14.337696   0.12952547   0.12952156   0.10848176   0.10835903    299.92657     41.49527    35.978931    34.423473    90.016431    119.66323    90.107069     18.84529    14.339476    28.381092    18.844707    14.349729 
  979000    297.14681    1.2509986    1991.7267   -1238.7539   -211.49952    2073.2009   -2310.3944    309.30693    44657.537 -0.067234084   -17.036218 -0.041707817    3467.6741    1582.6613    887.36537    850.73844    28.380184    18.845772    14.337991   0.13091945   0.13091742   0.11536836   0.11534212    297.14681     41.49527    35.978931    34.423473    90.016431    119.66323    90.107069    18.846551    14.337052    28.378852    18.845061    14.336456 
  980000    293.57251    1.2509986    2103.6509   -1265.8532   -211.49952    2078.0188   -2309.5426   -2446.0961    44657.537 -0.067234084   -17.036218 -0.041707817     3601.028    1608.8145    927.23226    902.74801    28.380105    18.846025    14.337847    0.1252503   0.12524856   0.11164137    0.1115978    293.57251     41.49527    35.978931    34.423473    90.016431    119.66323    90.107069    18.845192    14.338567    28.373946     18.84575    14.340839 
  981000      300.321    1.2509986    2080.1415   -1225.2785   -211.49952    2066.9123   -2310.2355   -372.42633    44657.537 -0.067234084   -17.036218 -0.041707817    3548.7431    1543.2832    950.14033    898.63506    28.379725     18.84591    14.337839    0.1331178    0.1331078    0.1140169   0.11358979      300.321     41.49527    35.978931    34.423473    90.016431    119.66323    90.107069    18.844469    14.335108    28.381365    18.839495    14.321383 
  982000    298.82907    1.2509986    2050.0428   -1238.9525   -211.49952    2073.8135   -2310.2161     -390.892    44657.537 -0.067234084   -17.036218 -0.041707817    3525.3979    1538.4045    926.94628    899.56982    28.379381    18.846399    14.337731   0.11728788     0.117286  0.097954745  0.097863963    298.82907     41.49527    35.978931    34.423473    90.016431    119.66323    90.107069    18.844979    14.337289    28.381252    18.840983    14.334798 
  983000    295.71709    1.2509986    1959.0039   -1276.3142   -211.49952    2074.2241   -2309.7834   -2882.4817    44657.537 -0.067234084   -17.036218 -0.041707817    3470.8774    1548.2884     920.5835       855.97    28.379174    18.846285    14.337562   0.13000126     0.129997   0.11301422   0.11294427    295.71709     41.49527    35.978931    34.423473    90.016431    119.66323    90.107069     18.84454     14.33789    28.381557     18.84113    14.341589 
  984000    292.92742    1.2509986    2076.7733   -1210.3105   -211.49952      2074.69   -2309.8829   -53.823736    44657.537 -0.067234084   -17.036218 -0.041707817    3522.2767    1539.9608    963.64557    866.07837    28.380239    18.846379    14.337868   0.12160663   0.12160341  0.099255281  0.099159792    292.92742     41.49527    35.978931    34.423473    90.016431    119.66323    90.107069    18.846159    14.337804    28.371126    18.844342    14.341248 
  985000    294.41002    1.2509986    2066.2945   -1251.8139   -211.49952    2077.2416   -2309.6991   -1023.3993    44657.537 -0.067234084   -17.036218 -0.041707817    3550.5659    1580.4057     949.9089    868.99927    28.379507    18.846184    14.337839   0.11652284   0.11651986     0.100713   0.10048019    294.41002     41.49527    35.978931    34.423473    90.016431    119.66323    90.107069    18.846209    14.339192    28.386849    18.842823    14.351525 
  986000    298.23174    1.2509986    2046.6932   -1227.0723   -211.49952     2067.565   -2309.9722   -1517.5829    44657.537 -0.067234084   -17.036218 -0.041707817    3516.1726    1559.3594    937.68548    870.31551    28.380085    18.846355     14.33772   0.12443169   0.12442887  0.092177802  0.092127338    298.23174     41.49527    35.978931    34.423473    90.016431    119.66323    90.107069    18.845019      14.3382    28.373621    18.845956    14.342066 
  987000    301.69391    1.2509986    2002.0088   -1262.2009   -211.49952    2064.7198   -2310.2363   -2613.7568    44657.537 -0.067234084   -17.036218 -0.041707817    3509.7261    1598.6764    937.97024    831.47247    28.380016     18.84625    14.337704   0.11893003   0.11892958  0.098036023  0.097993898    301.69391     41.49527    35.978931    34.423473    90.016431    119.66323    90.107069    18.845591    14.337599    28.381471     18.84405     14.33592 
  988000    294.70884    1.2509986    2078.2212   -1216.3431   -211.49952    2075.9382   -2309.3219   -481.51901    44657.537 -0.067234084   -17.036218 -0.041707817     3527.948    1569.8217    940.33323    866.51112    28.380028    18.846147    14.337845   0.12230737   0.12229398   0.10401008   0.10396406    294.70884     41.49527    35.978931    34.423473    90.016431    119.66323    90.107069    18.846283    14.337763    28.378492    18.847538    14.333103 
  989000    299.02372    1.2509986    2134.0255   -1234.2479   -211.49952    2071.8837   -2310.0795    63.094575    44657.537 -0.067234084   -17.036218 -0.041707817    3606.4691    1584.9831    981.90204    887.23682    28.379908    18.846093     14.33788   0.13045612   0.13043887   0.10509165   0.10506596    299.02372     41.49527    35.978931    34.423473    90.016431    119.66323    90.107069     18.84788    14.338823    28.384137    18.848649    14.337497 
  990000    295.70746    1.2509986    1985.0247   -1231.0186   -211.49952    2074.5588   -2309.8737      144.207    44657.537 -0.067234084   -17.036218 -0.041707817    3451.3582     1503.763    942.78412    856.21359    28.379899    18.845988     14.33787   0.11876377    0.1187576   0.09843432  0.098257357    295.70746     41.49527    35.978931    34.423473    90.016431    119.66323    90.107069     18.84494    14.337353    28.368781    18.842776    14.334953 
  991000    300.00602    1.2509986    2070.5431   -1232.9967   -211.49952     2071.695   -2309.8005   -2239.4961    44657.537 -0.067234084   -17.036218 -0.041707817    3541.6453    1563.2959    959.41686    867.10932    28.380245    18.845979    14.338006   0.11752888   0.11752636  0.087334825  0.087311323    300.00602     41.49527    35.978931    34.423473    90.016431    119.66323    90.107069    18.845774    14.338613    28.381042    18.847212    14.343887 
  992000    293.09597    1.2509986    1964.9313   -1247.6861   -211.49952    2076.1359   -2309.8747    489.55291    44657.537 -0.067234084   -17.036218 -0.041707817    3446.3562    1523.5961    893.82504    875.19008    28.379829    18.846385    14.337678   0.12167714   0.12167296   0.10311315   0.10310387    293.09597     41.49527    35.978931    34.423473    90.016431    119.66323    90.107069    18.844756    14.337777    28.381704    18.847165    14.338521 
  993000     301.6675    1.2509986    2063.9554   -1225.6879   -211.49952    2078.4974   -2309.4645   -437.48678    44657.537 -0.067234084   -17.036218 -0.041707817    3520.6104    1562.2369    935.10857    872.41586    28.379475    18.846073    14.337456   0.12498814   0.12498442   0.11002526   0.10998519     301.6675     41.49527    35.978931    34.423473    90.016431    119.66323    90.107069    18.848068    14.338117    28.374642    18.848961    14.343628 
  994000    296.30401    1.2509986    2078.4527    -1243.463   -211.49952    2073.6613   -2310.0033   -1092.7847    44657.537 -0.067234084   -17.036218 -0.041707817    3558.2578     1564.114    948.41331    897.45326    28.379634    18.846498    14.337602   0.12238718   0.12238083   0.10936159   0.10913967    296.30401     41.49527    35.978931    34.423473    90.016431    119.66323    90.107069    18.846301     14.33734    28.390665    18.844176    14.330971 
  995000    294.14812    1.2509986    2137.0486   -1217.8163   -211.49952     2078.927   -2309.7136   -15.961127    44657.537 -0.067234084   -17.036218 -0.041707817    3585.6515    1602.3344     956.0123    877.78988    28.379928    18.846472    14.337594   0.12172489   0.12171014  0.095011789  0.094513939    294.14812     41.49527    35.978931    34.423473    90.016431    119.66323    90.107069    18.845933    14.336292    28.360348    18.843573    14.329675 
  996000    298.50055    1.2509986    2012.5118   -1249.4742   -211.49952    2076.1423   -2309.8262   -1272.4513    44657.537 -0.067234084   -17.036218 -0.041707817    3495.6699    1541.0715    924.35114    881.79512    28.380125    18.846496    14.337573   0.11415367   0.11414441    0.1036605   0.10355861    298.50055     41.49527    35.978931    34.423473    90.016431    119.66323    90.107069    18.847611    14.339271    28.385883    18.850466    14.347368 
  997000    299.03076    1.2509986    2096.7497   -1229.2999   -211.49952    2076.3212   -2309.9483   -240.25242    44657.537 -0.067234084   -17.036218 -0.041707817    3559.6767    1561.9026    952.60217    894.34976    28.379734    18.846112    14.337545   0.12647468   0.12647299   0.10322101   0.10320546    299.03076     41.49527    35.978931    34.423473    90.016431    119.66323    90.107069    18.845227     14.33857    28.379631    18.845649    14.341693 
  998000    305.65147    1.2509986    2058.5239   -1209.8938   -211.49952     2069.194   -2309.7464   -2.4073684    44657.537 -0.067234084   -17.036218 -0.041707817      3508.97    1582.9218    911.78532    863.01426    28.379936    18.846213    14.337655   0.12944229   0.12943493   0.10890401   0.10887054    305.65147     41.49527    35.978931    34.423473    90.016431    119.66323    90.107069     18.84729    14.337735    28.373816    18.848578     14.33906 
  999000    297.47747    1.2509986    2110.0147     -1228.41   -211.49952    2074.9553   -2309.4592   -273.22748    44657.537 -0.067234084   -17.036218 -0.041707817    3572.9285    1597.9727     923.2055    896.43683    28.379943     18.84614    14.337667   0.12230454    0.1222996  0.098652072  0.098505441    297.47747     41.49527    35.978931    34.423473    90.016431    119.66323    90.107069    18.845497    14.337394    28.391474    18.846869    14.339771 
 1000000    290.37253    1.2509986    2079.1621   -1227.7196   -211.49952    2069.7618   -2309.8368    -697.5116    44657.537 -0.067234084   -17.036218 -0.041707817    3546.9567    1575.8028    948.77992    869.41665    28.380244    18.846142    14.337859   0.12664064   0.12664023   0.11155097   0.11152489    290.37253     41.49527    35.978931    34.423473    90.016431    119.66323    90.107069    18.845656    14.338001    28.377081    18.844804    14.341134 
Loop time of 3049.77 on 60 procs for 1000000 steps with 4560 atoms

Pair  time (%) = 549.286 (18.0107)
Bond  time (%) = 59.0583 (1.93648)
Kspce time (%) = 1594.81 (52.2929)
Neigh time (%) = 14.7233 (0.482767)
Comm  time (%) = 570.195 (18.6963)
Outpt time (%) = 3.11632 (0.102182)
Other time (%) = 258.577 (8.47859)

Nlocal:    76 ave 86 max 70 min
Histogram: 4 12 5 19 3 8 4 1 3 1
Nghost:    3999.22 ave 4065 max 3882 min
Histogram: 4 1 11 4 0 1 4 4 16 15
Neighs:    28092.1 ave 31430 max 25571 min
Histogram: 2 7 12 9 12 4 4 5 3 2

Total # of neighbors = 1685525
Ave neighs/atom = 369.633
Ave special neighs/atom = 10.6316
Neighbor list builds = 6577
Dangerous builds = 0
System init for write_data ...
PPPM initialization ...
  G vector (1/distance) = 0.246499
  grid = 16 16 20
  stencil order = 5
  estimated absolute RMS force accuracy = 0.00242397
  estimated relative force accuracy = 7.2997e-06
  using double precision FFTs
  3d grid and FFT values/proc = 1053 112
