LAMMPS data file via write_data, version 15 May 2015, timestep = 18500000

2593 atoms
6 atom types
1728 bonds
4 bond types
864 angles
3 angle types
0 dihedrals
3 dihedral types
0 impropers
1 improper types

-1.4945958976204444e+01 1.4945958976204444e+01 xlo xhi
-1.4945958976204444e+01 1.4945958976204444e+01 ylo yhi
-1.4945958976204444e+01 1.4945958976204444e+01 zlo zhi

Masses

1 15.9994
2 1.00794
3 12.0107
4 1.00794
5 12.0107
6 12.0107

Bond Coeffs # harmonic

1 1000 1
2 469 1.4
3 367 1.08
4 469 0.7

Angle Coeffs # harmonic

1 100 109.47
2 35 120
3 63 120

Dihedral Coeffs # opls

1 0 7.25 0 0
2 0 7.25 0 0
3 0 7.25 0 0

Improper Coeffs # cvff

1 2.5 -1 2

Atoms # full

1791 597 2 4.0999999999999998e-01 -1.3363246799306774e+01 -9.3327172347428853e+00 -1.0678658581687213e+01 5 3 5
414 138 2 4.0999999999999998e-01 -9.8676134457027267e+00 -5.1147445083977043e+00 -1.1779744813302026e+01 3 5 -3
1023 341 2 4.0999999999999998e-01 -1.3157964437767095e+01 -1.1831940629369162e+01 -1.0955214460938464e+01 -1 2 3
1022 341 2 4.0999999999999998e-01 -1.2691986830373002e+01 -1.3188082494322799e+01 -1.0173935710733257e+01 -1 2 3
1021 341 1 -8.1999999999999995e-01 -1.3202718145438810e+01 -1.2830943239700895e+01 -1.0955993770931176e+01 -1 2 3
1790 597 2 4.0999999999999998e-01 -1.1768927189159671e+01 -9.6726753656327524e+00 -1.0774709775651749e+01 5 3 5
1789 597 1 -8.1999999999999995e-01 -1.2685596021676330e+01 -1.0067358848319707e+01 -1.0711837597995590e+01 5 3 5
1690 564 1 -8.1999999999999995e-01 -1.1378595257352199e+01 -1.3992332378550326e+01 -9.3617789628985548e+00 5 5 5
1577 526 2 4.0999999999999998e-01 -1.3306397787688050e+01 -1.0404085269168871e+01 -1.2517785267944634e+01 2 4 5
2592 864 2 4.0999999999999998e-01 -8.5741801526062673e+00 -1.4172199714312452e+01 -1.4828945570573989e+01 1 6 1
1085 362 2 4.0999999999999998e-01 -7.9542892352499459e+00 -1.2433848957946484e+01 -1.0129371510405312e+01 -1 -2 4
759 253 2 4.0999999999999998e-01 -1.4258743472586286e+01 -7.5044946022593209e+00 -1.0403465790129918e+01 2 1 7
1271 424 2 4.0999999999999998e-01 -1.0234077893226500e+01 -8.4090249490724958e+00 -1.1727838755360860e+01 -4 4 5
1270 424 1 -8.1999999999999995e-01 -1.0119128315669895e+01 -8.3376163731785269e+00 -1.0737032445772471e+01 -4 4 5
1691 564 2 4.0999999999999998e-01 -1.0438058224881981e+01 -1.3682907292797672e+01 -9.5019785129666818e+00 5 5 5
1084 362 1 -8.1999999999999995e-01 -8.8741185465701076e+00 -1.2763497892370136e+01 -1.0342104512645466e+01 -1 -2 4
1086 362 2 4.0999999999999998e-01 -9.1370020996580568e+00 -1.2451833475618042e+01 -1.1255213065465480e+01 -1 -2 4
1198 400 1 -8.1999999999999995e-01 -1.0273801896358885e+01 -8.8050459698369501e+00 -1.3387237843316170e+01 -4 8 6
2361 787 2 4.0999999999999998e-01 -8.8255394774875295e+00 -1.0480382392098736e+01 -8.1276893826772181e+00 -4 -2 8
1578 526 2 4.0999999999999998e-01 -1.2644078414273833e+01 -1.0413902437566822e+01 -1.4010396745017857e+01 2 4 5
2025 675 2 4.0999999999999998e-01 -1.1288238485683021e+01 -1.0773941946901701e+01 -9.2147096570831160e+00 8 -5 4
2024 675 2 4.0999999999999998e-01 -9.9179484264860740e+00 -1.1613863524860264e+01 -9.5036547613327897e+00 8 -5 4
1199 400 2 4.0999999999999998e-01 -1.0020030976095642e+01 -9.6893703384028438e+00 -1.3779131265848246e+01 -4 8 6
1272 424 2 4.0999999999999998e-01 -9.1745563450257066e+00 -8.5586672422655994e+00 -1.0494277385189223e+01 -4 4 5
1576 526 1 -8.1999999999999995e-01 -1.3406656545593533e+01 -1.0742780345075325e+01 -1.3453329779599533e+01 2 4 5
1200 400 2 4.0999999999999998e-01 -9.9349416520501421e+00 -8.0704080551293025e+00 -1.3975022312362988e+01 -4 8 6
1511 504 2 4.0999999999999998e-01 -1.1755711981694962e+01 -1.2279654670357692e+01 -1.2324036094396366e+01 0 -2 3
413 138 2 4.0999999999999998e-01 -8.5781050289409997e+00 -5.5014171137892358e+00 -1.0855458764948393e+01 3 5 -3
1265 422 2 4.0999999999999998e-01 -1.1359723855227177e+01 -6.4838242608480883e+00 -8.5678737535771852e+00 -3 8 -1
1510 504 1 -8.1999999999999995e-01 -1.0790769106551227e+01 -1.2465624158312400e+01 -1.2509266479138242e+01 0 -2 3
688 230 1 -8.1999999999999995e-01 -1.3507202026639066e+01 -6.0514164252826568e+00 -7.9404456292092265e+00 -3 3 0
1264 422 1 -8.1999999999999995e-01 -1.0984486930870656e+01 -6.2347189351913936e+00 -9.4607082824482109e+00 -3 8 -1
1512 504 2 4.0999999999999998e-01 -1.0480170638945349e+01 -1.1891654409673356e+01 -1.3266958386483520e+01 0 -2 3
1266 422 2 4.0999999999999998e-01 -1.0647407118509577e+01 -7.0557624163010360e+00 -9.9214408921262347e+00 -3 8 -1
1429 477 1 -8.1999999999999995e-01 -1.3640709494731817e+01 -5.0340273614237709e+00 -1.0691315036693059e+01 -1 -3 7
132 44 2 4.0999999999999998e-01 -1.3337638184254242e+01 -1.4577230912159271e+01 -1.4612174955524548e+01 -6 -2 3
2590 864 1 -8.1999999999999995e-01 -7.7077709126737695e+00 -1.4016226791841151e+01 -1.4354585794759160e+01 1 6 1
2147 716 2 4.0999999999999998e-01 -9.1982281064731772e+00 -5.2824514488279881e+00 -1.3989943052377724e+01 1 5 0
757 253 1 -8.1999999999999995e-01 -1.4800833929616692e+01 -8.3446544080836649e+00 -1.0386758199886442e+01 2 1 7
412 138 1 -8.1999999999999995e-01 -8.8893081780327297e+00 -5.3217442157629389e+00 -1.1788668257685686e+01 3 5 -3
1294 432 1 -8.1999999999999995e-01 -1.2480517122831602e+01 -5.9022820115419616e+00 -1.4379481278515426e+01 -3 -1 8
177 59 2 4.0999999999999998e-01 -1.4648219673535044e+01 -9.0097665908933440e+00 -8.5132342457348891e+00 3 1 1
1117 373 1 -8.1999999999999995e-01 -1.0000304273338667e+01 -1.0997079298421937e+01 -1.4810344384592467e+01 1 3 3
1430 477 2 4.0999999999999998e-01 -1.3291056970312269e+01 -5.2205622027427090e+00 -9.7731878268756045e+00 -1 -3 7
2023 675 1 -8.1999999999999995e-01 -1.0461108107256344e+01 -1.1154299141576798e+01 -8.8009543630504066e+00 8 -5 4
887 296 2 4.0999999999999998e-01 -8.7885967244284089e+00 -5.4901156132434501e+00 -8.0066869290916962e+00 -2 -3 -2
137 46 2 4.0999999999999998e-01 -1.3456413494933527e+01 -1.3998043707163559e+01 -1.2421789594912667e+01 0 2 4
2183 728 2 4.0999999999999998e-01 -1.0923320021880699e+01 -1.4214518149110749e+01 -1.2740249381526681e+01 3 2 2
136 46 1 -8.1999999999999995e-01 -1.3624451512731552e+01 -1.4877813774321288e+01 -1.2866511488861908e+01 0 2 4
2360 787 2 4.0999999999999998e-01 -7.5713659098153370e+00 -1.1493117693271794e+01 -7.8667904695661584e+00 -4 -2 8
2359 787 1 -8.1999999999999995e-01 -7.8405539103177437e+00 -1.0534930003625348e+01 -7.9638672062915790e+00 -4 -2 8
689 230 2 4.0999999999999998e-01 -1.3464335248289437e+01 -5.0541693179144112e+00 -7.8798621819789672e+00 -3 3 0
175 59 1 -8.1999999999999995e-01 -1.4580168079900405e+01 -9.0687480687094926e+00 -7.5172925421893053e+00 3 1 1
1295 432 2 4.0999999999999998e-01 -1.3444071718852587e+01 -6.0696488213751234e+00 -1.4588193027040342e+01 -3 -1 8
1724 575 2 4.0999999999999998e-01 -7.9139284834841268e+00 -1.4914244829252855e+01 -1.1371741389824626e+01 2 3 -2
1692 564 2 4.0999999999999998e-01 -1.1382773942083052e+01 -1.4774582385923155e+01 -8.7388205571037787e+00 5 5 5
612 204 2 4.0999999999999998e-01 -9.5256737023417415e-02 -1.3061333377812202e+01 -1.4813485989112571e+01 -3 3 4
551 184 2 4.0999999999999998e-01 -6.9039716433497169e+00 -5.9707274199026390e+00 -8.5904450764707647e+00 0 1 -1
939 313 2 4.0999999999999998e-01 -5.6261608165713106e-01 -1.3503727869317153e+01 -9.4274253210683163e+00 -4 5 1
937 313 1 -8.1999999999999995e-01 -6.4157807883696805e-01 -1.2597614748634449e+01 -9.0118128505561081e+00 -4 5 1
1725 575 2 4.0999999999999998e-01 -7.2266729733125485e+00 -1.4670285660230874e+01 -1.2832842400686411e+01 2 3 -2
2086 696 1 -8.1999999999999995e-01 -3.2039605073327060e+00 -9.1999449562834918e+00 -7.9332499316726999e+00 0 1 6
2209 737 1 -8.1999999999999995e-01 -7.0621069614584826e+00 -8.9467400339936312e+00 -1.0180437743213302e+01 -5 2 2
2211 737 2 4.0999999999999998e-01 -7.2723663448713243e+00 -9.6270187870082076e+00 -9.4782828276299327e+00 -5 2 2
552 184 2 4.0999999999999998e-01 -7.2189084461359787e+00 -7.2304931017167808e+00 -9.5806256710333564e+00 0 1 -1
1491 497 2 4.0999999999999998e-01 -9.2284338662937060e-01 -7.0608733607970935e+00 -8.6978154086151509e+00 3 -3 -3
1782 594 2 4.0999999999999998e-01 -7.6813021885758559e-01 -1.0229395954639065e+01 -1.1491358713921914e+01 -4 1 7
1916 639 2 4.0999999999999998e-01 -3.3858127568307221e+00 -6.2670704162669608e+00 -1.2787143429049243e+01 2 -1 2
1915 639 1 -8.1999999999999995e-01 -4.0977985351036583e+00 -5.7640402452829669e+00 -1.2297197917990896e+01 2 -1 2
1917 639 2 4.0999999999999998e-01 -4.9773008965587788e+00 -5.9029137979106032e+00 -1.2752389572227953e+01 2 -1 2
1043 348 2 4.0999999999999998e-01 -5.7089467894829653e+00 -1.2843539420348433e+01 -7.6379675077590008e+00 -1 -2 2
368 123 2 4.0999999999999998e-01 -1.2359705870249797e+00 -1.1005609109886173e+01 -9.7036466668678116e+00 -2 7 1
550 184 1 -8.1999999999999995e-01 -7.4028139650373337e+00 -6.2631201569736792e+00 -9.4063326525326687e+00 0 1 -1
2475 825 2 4.0999999999999998e-01 -4.7407792206344048e+00 -6.0380441799241833e+00 -9.2697757381362536e+00 2 0 7
2099 700 2 4.0999999999999998e-01 -3.6873036726894259e+00 -9.5203522340724778e+00 -1.1311615602001025e+01 -4 3 -2
850 284 1 -8.1999999999999995e-01 -6.3129652570573533e+00 -5.9297182779559918e+00 -1.4107026972221496e+01 -3 2 9
638 213 2 4.0999999999999998e-01 -2.5043152266690640e+00 -1.0010207686932930e+01 -1.4378549997853668e+01 3 2 -2
452 151 2 4.0999999999999998e-01 -5.8425521787573427e+00 -1.2441948963293932e+01 -9.7464094550716887e+00 0 -1 3
1584 528 2 4.0999999999999998e-01 -4.7568939598299682e+00 -1.1131190041816257e+01 -1.2939631532611529e+01 -4 2 0
639 213 2 4.0999999999999998e-01 -2.9843636756769900e+00 -1.1448992625520443e+01 -1.3773484907586521e+01 3 2 -2
2087 696 2 4.0999999999999998e-01 -3.3965681549205797e+00 -8.2723627644514472e+00 -8.2534112710504139e+00 0 1 6
828 276 2 4.0999999999999998e-01 -6.5453228308468088e+00 -8.2560196400372732e+00 -1.3775554782933906e+01 0 3 2
451 151 1 -8.1999999999999995e-01 -6.1983942203316555e+00 -1.1725819296590053e+01 -1.0346862993570074e+01 0 -1 3
367 123 1 -8.1999999999999995e-01 -1.9035182420713834e+00 -1.0340218412922439e+01 -1.0037779982672319e+01 -2 7 1
1875 625 2 4.0999999999999998e-01 -2.7059959464019485e+00 -1.1322912764374244e+01 -1.1240770236690310e+01 -5 -3 -3
2474 825 2 4.0999999999999998e-01 -4.2606011375535306e+00 -6.3920450711326779e+00 -1.0789895716917872e+01 2 0 7
1873 625 1 -8.1999999999999995e-01 -3.0866436394299015e+00 -1.1863134034668377e+01 -1.1991288752407296e+01 -5 -3 -3
1751 584 2 4.0999999999999998e-01 -4.4797751437007953e+00 -1.4568386161356480e+01 -1.4772718751433619e+01 3 0 1
2473 825 1 -8.1999999999999995e-01 -4.2175283086957620e+00 -6.6779291159140790e+00 -9.8325949440397977e+00 2 0 7
637 213 1 -8.1999999999999995e-01 -2.9738030301301102e+00 -1.0868096187760324e+01 -1.4587399847499176e+01 3 2 -2
1874 625 2 4.0999999999999998e-01 -3.0505604285650332e+00 -1.2834103734090803e+01 -1.1754802866138208e+01 -5 -3 -3
207 69 2 4.0999999999999998e-01 -1.4394404638188387e+00 -5.9290276974278537e+00 -1.4618212476737375e+01 -5 -2 4
766 256 1 -8.1999999999999995e-01 -3.7294942644849929e+00 -1.2888240492620856e+01 -8.6793544027764931e+00 -1 2 4
566 189 2 4.0999999999999998e-01 -1.6416142357621446e+00 -7.7093520015680603e+00 -1.3298841488149305e+01 -2 -1 1
565 189 1 -8.1999999999999995e-01 -1.7955077011891767e+00 -8.6863804689317448e+00 -1.3446292823719936e+01 -2 -1 1
567 189 2 4.0999999999999998e-01 -1.0595975551267198e+00 -9.2085061737933831e+00 -1.3015211941800125e+01 -2 -1 1
2008 670 1 -8.1999999999999995e-01 -2.8995825796165615e+00 -1.4331755043933331e+01 -1.0912493181359860e+01 -6 2 3
827 276 2 4.0999999999999998e-01 -6.7723526250575770e+00 -9.8715536743342582e+00 -1.3703724265233344e+01 0 3 2
453 151 2 4.0999999999999998e-01 -5.5377715411341981e+00 -1.0977006111918126e+01 -1.0400399952562076e+01 0 -1 3
206 69 2 4.0999999999999998e-01 -4.7020591041089510e-01 -5.6343612443366222e+00 -1.3337428179000167e+01 -5 -2 4
767 256 2 4.0999999999999998e-01 -3.3930796208996306e+00 -1.3477048197502599e+01 -9.4142968448707229e+00 -1 2 4
369 123 2 4.0999999999999998e-01 -2.2286692493177611e+00 -9.7821268058640101e+00 -9.2743532962837989e+00 -2 7 1
1582 528 1 -8.1999999999999995e-01 -5.7544508694530876e+00 -1.1195339499756344e+01 -1.2967466185048030e+01 -4 2 0
2009 670 2 4.0999999999999998e-01 -3.5098262014603776e+00 -1.4764795480098654e+01 -1.1575884777782626e+01 -6 2 3
1583 528 2 4.0999999999999998e-01 -6.0895483491463445e+00 -1.1557710548756221e+01 -1.2097749780559578e+01 -4 2 0
2100 700 2 4.0999999999999998e-01 -4.5199841995859451e+00 -8.4177667212216374e+00 -1.0441212994373281e+01 -4 3 -2
2098 700 1 -8.1999999999999995e-01 -4.5591841828697284e+00 -9.3235372055967964e+00 -1.0863176159973666e+01 -4 3 -2
768 256 2 4.0999999999999998e-01 -2.9654645630109080e+00 -1.2377190903849304e+01 -8.2855312948614177e+00 -1 2 4
2210 737 2 4.0999999999999998e-01 -6.1675027179667747e+00 -9.1460795581246028e+00 -1.0580383641106611e+01 -5 2 2
1042 348 1 -8.1999999999999995e-01 -6.6808708374777694e+00 -1.3075592747673340e+01 -7.6770137150422100e+00 -1 -2 2
205 69 1 -8.1999999999999995e-01 -1.3544312249668664e+00 -6.0027515257775654e+00 -1.3624558644333899e+01 -5 -2 4
826 276 1 -8.1999999999999995e-01 -6.9466082120580204e+00 -9.0455867283714042e+00 -1.4239843015320341e+01 0 3 2
852 284 2 4.0999999999999998e-01 -7.1892867216679877e+00 -5.4532661877150606e+00 -1.4178187333899295e+01 -3 2 9
611 204 2 4.0999999999999998e-01 -2.9301205863841773e-02 -1.4574229647145778e+01 -1.4202382787134132e+01 -3 3 4
1750 584 1 -8.1999999999999995e-01 -4.4840783383306420e+00 -1.4256362258402817e+01 -1.3822649135612737e+01 3 0 1
1752 584 2 4.0999999999999998e-01 -5.2042189661574803e+00 -1.3573576115008491e+01 -1.3699319251473893e+01 3 0 1
1489 497 1 -8.1999999999999995e-01 -2.6633852809514558e-01 -6.8678687970148928e+00 -9.4270343838063653e+00 3 -3 -3
2591 864 2 4.0999999999999998e-01 -7.2158912314784578e+00 -1.3266287142353004e+01 -1.4796914434644087e+01 1 6 1
730 244 1 -8.1999999999999995e-01 -1.1661039556893021e+01 -9.9911936554158096e+00 -1.9354604452980588e+00 2 0 -1
635 212 2 4.0999999999999998e-01 -9.3074179096321483e+00 -1.2791370740730885e+01 -6.0407267302006886e+00 -6 6 2
327 109 2 4.0999999999999998e-01 -1.0582768796373180e+01 -8.4921569880104926e+00 -4.0512990690708133e+00 1 -6 -4
325 109 1 -8.1999999999999995e-01 -1.1192456745321076e+01 -7.7499182128951372e+00 -4.3294571451166757e+00 1 -6 -4
326 109 2 4.0999999999999998e-01 -1.2120941628853256e+01 -7.9451205939733844e+00 -4.0135116418976917e+00 1 -6 -4
1824 608 2 4.0999999999999998e-01 -1.3850858515105354e+01 -8.1760180524597743e+00 -2.6923929363017454e+00 2 2 5
1822 608 1 -8.1999999999999995e-01 -1.4327720237300760e+01 -8.5622403617506837e+00 -3.4819782351069275e+00 2 2 5
275 92 2 4.0999999999999998e-01 -8.1450583299200812e+00 -8.8376716915483140e+00 -5.9444241184357622e+00 -2 0 3
815 272 2 4.0999999999999998e-01 -1.4800771398962468e+01 -7.7034732388194485e+00 -4.9649405298776426e+00 4 7 1
1104 368 2 4.0999999999999998e-01 -1.2458990001505153e+01 -8.6753697836962669e+00 -1.4082568447129518e+00 3 1 0
1930 644 1 -8.1999999999999995e-01 -1.0554758365451686e+01 -1.0553727769971776e+01 -4.3923834174373297e+00 0 2 -5
1932 644 2 4.0999999999999998e-01 -1.1260143730968846e+01 -1.0541342112835226e+01 -5.1011060659102707e+00 0 2 -5
634 212 1 -8.1999999999999995e-01 -1.0261805082058421e+01 -1.2981273802616398e+01 -6.2711430131789960e+00 -6 6 2
898 300 1 -8.1999999999999995e-01 -1.0777173374357179e+01 -1.2872660610030865e+01 -7.4019631794858221e-01 0 0 3
2279 760 2 4.0999999999999998e-01 -8.6900697163896758e+00 -1.4740016267018930e+01 -2.6033356667631953e+00 -6 5 -1
1176 392 2 4.0999999999999998e-01 -1.2712295641075039e+01 -6.0896953588647502e+00 -2.1327843225639267e+00 0 2 6
430 144 1 -8.1999999999999995e-01 -7.8036567649998467e+00 -1.2755644902284097e+01 -5.0654701566032472e+00 -3 3 -1
899 300 2 4.0999999999999998e-01 -1.0270585530346425e+01 -1.3409752623177608e+01 -1.4146669578673166e+00 0 0 3
2278 760 1 -8.1999999999999995e-01 -9.0754204650274275e+00 -1.3836599972457991e+01 -2.7913609738106793e+00 -6 5 -1
888 296 2 4.0999999999999998e-01 -8.7636991414137668e+00 -6.3824978051236432e+00 -6.6393221297109957e+00 -2 -3 -2
731 244 2 4.0999999999999998e-01 -1.1711346791336023e+01 -1.0741313419425454e+01 -1.2760673688104038e+00 2 0 -1
2280 760 2 4.0999999999999998e-01 -8.5889627203943455e+00 -1.3419989980048898e+01 -3.5593484023200688e+00 -6 5 -1
900 300 2 4.0999999999999998e-01 -1.1667374802672651e+01 -1.3297686769672282e+01 -5.7617226491244367e-01 0 0 3
732 244 2 4.0999999999999998e-01 -1.1215990225898100e+01 -1.0311733478261445e+01 -2.7716392742244853e+00 2 0 -1
1390 464 1 -8.1999999999999995e-01 -8.3042360390479661e+00 -1.0707928924141431e+01 -1.2927024889192325e+00 -7 -1 -1
274 92 1 -8.1999999999999995e-01 -8.7956037847903801e+00 -8.0910287386620752e+00 -6.0834371205490125e+00 -2 0 3
1931 644 2 4.0999999999999998e-01 -1.0148748955273824e+01 -1.1466218769579214e+01 -4.3421217535435428e+00 0 2 -5
2126 709 2 4.0999999999999998e-01 -7.6343579397821220e+00 -8.1355105688014593e+00 -1.8179457551380018e-01 -8 -4 8
1174 392 1 -8.1999999999999995e-01 -1.2815507198422024e+01 -5.1311682855226870e+00 -2.3984588058988852e+00 0 2 6
276 92 2 4.0999999999999998e-01 -9.6571400539508598e+00 -8.3099746327488617e+00 -5.6253676357787263e+00 -2 0 3
1632 544 2 4.0999999999999998e-01 -1.3747850324424785e+01 -9.7738839456555979e+00 -4.6146228903135782e+00 -5 7 4
1102 368 1 -8.1999999999999995e-01 -1.2888031660968036e+01 -7.7855850174053289e+00 -1.2526418510232951e+00 3 1 0
1103 368 2 4.0999999999999998e-01 -1.2858573196958645e+01 -7.5673762712199091e+00 -2.7717947600487314e-01 3 1 0
2127 709 2 4.0999999999999998e-01 -8.4657957264454513e+00 -7.3448913597551426e+00 -1.3438121591022423e+00 -8 -4 8
1391 464 2 4.0999999999999998e-01 -8.6104355568894135e+00 -9.7994813645650751e+00 -1.0081421377922890e+00 -7 -1 -1
2125 709 1 -8.1999999999999995e-01 -8.5456148852464189e+00 -7.8695002329635555e+00 -4.9621311485746133e-01 -8 -4 8
795 265 2 4.0999999999999998e-01 -1.1167225950426186e+01 -5.6356029512631309e+00 -4.8121610034324078e+00 -3 5 5
1470 490 2 4.0999999999999998e-01 -1.3825889442058475e+01 -1.2082760127868411e+01 -5.7524189378005737e+00 2 4 9
1409 470 2 4.0999999999999998e-01 -7.8533152131332535e+00 -1.3385118794771197e+01 -1.2147664895289161e+00 -1 2 4
1469 490 2 4.0999999999999998e-01 -1.4146844313790741e+01 -1.3535332319579053e+01 -5.0788654000616518e+00 2 4 9
1392 464 2 4.0999999999999998e-01 -8.9050803711635975e+00 -1.1401724959131235e+01 -8.9565985681855942e-01 -7 -1 -1
2175 725 2 4.0999999999999998e-01 -9.2649191594533509e+00 -6.4703186039566720e+00 -4.1856362702899599e+00 -1 -4 1
690 230 2 4.0999999999999998e-01 -1.3614779345683989e+01 -6.4367073081310373e+00 -7.0239371667291870e+00 -3 3 0
2173 725 1 -8.1999999999999995e-01 -8.4969256467388696e+00 -6.6431120499198215e+00 -3.5689207066733797e+00 -1 -4 1
1468 490 1 -8.1999999999999995e-01 -1.4287820444721484e+01 -1.2959804918224476e+01 -5.8844109625368155e+00 2 4 9
2174 725 2 4.0999999999999998e-01 -8.2439070291815764e+00 -5.7938169725526070e+00 -3.1055750949145082e+00 -1 -4 1
176 59 2 4.0999999999999998e-01 -1.4710921281309858e+01 -8.1604600885800842e+00 -7.1198931722614791e+00 3 1 1
1631 544 2 4.0999999999999998e-01 -1.3759210170569709e+01 -9.8527737846451870e+00 -6.2456654122037349e+00 -5 7 4
2306 769 2 4.0999999999999998e-01 -1.0926231853618891e+01 -1.4598792872627779e+01 -5.5573193666866452e+00 -2 5 1
1546 516 1 -8.1999999999999995e-01 -1.3258150119558424e+01 -1.4444995018582745e+01 -3.6045994806198021e+00 1 2 3
2528 843 2 4.0999999999999998e-01 -7.7246527773328637e+00 -1.0051265487058595e+01 -3.1395217714255566e+00 5 -6 5
1630 544 1 -8.1999999999999995e-01 -1.3333291686724445e+01 -1.0208908856854515e+01 -5.4139377058509695e+00 -5 7 4
636 212 2 4.0999999999999998e-01 -1.0564027680792421e+01 -1.2350465789007661e+01 -6.9858124800690460e+00 -6 6 2
1548 516 2 4.0999999999999998e-01 -1.4065678643470203e+01 -1.4076739559002259e+01 -3.1438442955255095e+00 1 2 3
886 296 1 -8.1999999999999995e-01 -8.9540434449444888e+00 -5.4778145991306086e+00 -7.0205399965036719e+00 -2 -3 -2
1547 516 2 4.0999999999999998e-01 -1.2665426220830978e+01 -1.4890162645296193e+01 -2.9333961684500327e+00 1 2 3
365 122 2 4.0999999999999998e-01 -1.4536682137467469e+01 -5.1002032906012023e+00 -3.0411971283653152e+00 2 3 2
491 164 2 4.0999999999999998e-01 -1.4216969483062041e+00 -1.1652176880469803e+01 -3.7904557678590507e+00 -3 3 0
431 144 2 4.0999999999999998e-01 -7.4045593604825291e+00 -1.1877573185358230e+01 -4.8014227404255347e+00 -3 3 -1
1268 423 2 4.0999999999999998e-01 -2.9491150351491537e+00 -1.4811490851654211e+01 -4.8453177859981746e+00 -1 2 5
432 144 2 4.0999999999999998e-01 -7.1368790499633468e+00 -1.3278649993549243e+01 -5.5963965748983480e+00 -3 3 -1
1475 492 2 4.0999999999999998e-01 -4.5577761925681877e+00 -1.4819324800929731e+01 -2.6630313938706447e+00 0 -1 -1
1660 554 1 -8.1999999999999995e-01 -1.0001246216751785e+00 -6.5799657310987030e+00 -5.1727010628365644e+00 4 6 -3
1413 471 2 4.0999999999999998e-01 -6.1623495672617121e+00 -1.0781005461899451e+01 -5.3159309440360047e-01 2 -1 0
1697 566 2 4.0999999999999998e-01 -1.8557745071267195e+00 -8.0952688136752293e+00 -4.9461694732323735e+00 5 0 2
348 116 2 4.0999999999999998e-01 -5.5224054029127103e+00 -6.4694266144895476e+00 -6.5161924951273331e+00 -3 4 1
1696 566 1 -8.1999999999999995e-01 -2.4402512128994776e+00 -8.9066469581667533e+00 -4.9540576540706773e+00 5 0 2
1610 537 2 4.0999999999999998e-01 -6.9025818604603231e+00 -7.4211760533631654e+00 -4.5845733013195105e+00 -2 3 -2
1662 554 2 4.0999999999999998e-01 -8.6958412051436085e-01 -5.9926012052175235e+00 -4.3739696862256299e+00 4 6 -3
359 120 2 4.0999999999999998e-01 -2.8095241396882038e+00 -5.3599307101425584e+00 -1.2907266538579272e+00 -4 6 -1
2203 735 1 -8.1999999999999995e-01 -2.7306519927759894e+00 -1.4391576758485531e+01 -2.8859756119238664e+00 -3 0 2
841 281 1 -8.1999999999999995e-01 -9.0180530324453123e-01 -1.4833031928051058e+01 -7.0398384267346943e+00 -2 4 12
1706 569 2 4.0999999999999998e-01 -4.3839131114110899e+00 -8.7790468519892517e+00 -2.0780079441119348e+00 0 1 0
2204 735 2 4.0999999999999998e-01 -2.5991316528202457e+00 -1.3418525215423879e+01 -3.0754031809608975e+00 -3 0 2
347 116 2 4.0999999999999998e-01 -4.7425098765059044e+00 -5.0880027188813166e+00 -6.9035984231776482e+00 -3 4 1
1408 470 1 -8.1999999999999995e-01 -6.8971710055909004e+00 -1.3569572809322882e+01 -9.8722601076649141e-01 -1 2 4
1609 537 1 -8.1999999999999995e-01 -5.9591821384324994e+00 -7.3521403612465521e+00 -4.9089815906224032e+00 -2 3 -2
842 281 2 4.0999999999999998e-01 -2.2128683266626226e-01 -1.4117111476007015e+01 -6.8837544157488821e+00 -2 4 12
1269 423 2 4.0999999999999998e-01 -3.9205325676120317e+00 -1.3816155794840217e+01 -5.7010680280491162e+00 -1 2 5
492 164 2 4.0999999999999998e-01 -2.4498737967738187e+00 -1.0468163884334622e+01 -4.2461069074894269e+00 -3 3 0
1611 537 2 4.0999999999999998e-01 -5.3456868197754641e+00 -7.7757438161364467e+00 -4.2425033075879828e+00 -2 3 -2
1661 554 2 4.0999999999999998e-01 -1.4258470174810824e+00 -6.0527697383955275e+00 -5.9081156077677832e+00 4 6 -3
2503 835 1 -8.1999999999999995e-01 -4.8394049404780741e+00 -1.2224566817740923e+01 -5.1099881192204997e+00 -3 3 0
1267 423 1 -8.1999999999999995e-01 -3.3441474028648717e+00 -1.4632086983984403e+01 -5.7463024660971911e+00 -1 2 5
1707 569 2 4.0999999999999998e-01 -3.9315845886549159e+00 -9.1017651845897998e+00 -3.6135548026313185e+00 0 1 0
2205 735 2 4.0999999999999998e-01 -2.0567574302486484e+00 -1.4693977545696756e+01 -2.2118616776260094e+00 -3 0 2
2500 834 1 -8.1999999999999995e-01 -5.4093145615360392e+00 -9.7414473648234932e+00 -6.5677436521078878e+00 -1 -2 1
1705 569 1 -8.1999999999999995e-01 -4.6808264852998249e+00 -9.1596579240465417e+00 -2.9537861076087619e+00 0 1 0
490 164 1 -8.1999999999999995e-01 -2.3843349500701034e+00 -1.1399122059794866e+01 -3.8868976903053412e+00 -3 3 0
2053 685 1 -8.1999999999999995e-01 -2.0320069058521799e+00 -5.2160038763156820e+00 -7.3486453340032902e+00 -3 4 2
2529 843 2 4.0999999999999998e-01 -6.1536170237092165e+00 -9.9114112442473505e+00 -3.5625345592284674e+00 5 -6 5
2502 834 2 4.0999999999999998e-01 -5.7546665499899028e+00 -9.4496761825329276e+00 -5.6757732019003786e+00 -1 -2 1
2527 843 1 -8.1999999999999995e-01 -7.0364779105950968e+00 -1.0304573914375418e+01 -3.8194187472265320e+00 5 -6 5
1411 471 1 -8.1999999999999995e-01 -5.2910498944325290e+00 -1.1143372729384957e+01 -8.6255616009555602e-01 2 -1 0
2501 834 2 4.0999999999999998e-01 -6.1727544467138138e+00 -1.0045636307720764e+01 -7.1375140827675851e+00 -1 -2 1
1410 470 2 4.0999999999999998e-01 -6.3392408896478525e+00 -1.2773410553264888e+01 -1.2214253983495382e+00 -1 2 4
1698 566 2 4.0999999999999998e-01 -2.6209653063179577e+00 -9.1780817273973909e+00 -5.8994016644386615e+00 5 0 2
2505 835 2 4.0999999999999998e-01 -5.0172907768247779e+00 -1.1390595569604990e+01 -5.6323465157315820e+00 -3 3 0
2504 835 2 4.0999999999999998e-01 -4.0696865218723008e+00 -1.2071817986061355e+01 -4.4901405130817871e+00 -3 3 0
1412 471 2 4.0999999999999998e-01 -4.8662967903397263e+00 -1.0479611072094997e+01 -1.4781980772379057e+00 2 -1 0
358 120 1 -8.1999999999999995e-01 -2.2724085619032994e+00 -5.2982021295130970e+00 -4.4947393360592969e-01 -4 6 -1
1726 576 1 -8.1999999999999995e-01 -3.6427053025277605e+00 -8.3087764822456052e+00 -4.7549711595776678e-01 5 -1 -2
346 116 1 -8.1999999999999995e-01 -5.5134348593803608e+00 -5.6822457183640402e+00 -7.1328572945534248e+00 -3 4 1
843 281 2 4.0999999999999998e-01 -1.7379806809606091e+00 -1.4613348580345241e+01 -6.5372852749342414e+00 -2 4 12
1728 576 2 4.0999999999999998e-01 -3.2140596386131612e+00 -7.4112139939297039e+00 -3.7227800023589808e-01 5 -1 -2
1476 492 2 4.0999999999999998e-01 -6.1607167346355300e+00 -1.4529547560763209e+01 -2.5478656998753593e+00 0 -1 -1
1044 348 2 4.0999999999999998e-01 -6.8236228520129227e+00 -1.3981254850757276e+01 -7.2777547418356798e+00 -1 -2 2
2088 696 2 4.0999999999999998e-01 -3.9395643728294232e+00 -9.5028972684735855e+00 -7.3273484709973573e+00 0 1 6
334 112 1 -8.1999999999999995e-01 -1.2680584274896917e+01 -7.1557503485888505e+00 1.5465907210800331e+00 -3 4 5
147 49 2 4.0999999999999998e-01 -1.3259759568634847e+01 -1.4053169497626055e+01 5.7034515469347404e+00 -2 -2 2
1560 520 2 4.0999999999999998e-01 -8.8936034555879253e+00 -7.6130711741325197e+00 4.3771647794866624e+00 4 6 4
1480 494 1 -8.1999999999999995e-01 -9.7624496460010945e+00 -1.0592418368418858e+01 5.1219855127182363e+00 5 1 2
335 112 2 4.0999999999999998e-01 -1.3058199167133088e+01 -7.5009846205734947e+00 2.4057938446493097e+00 -3 4 5
1558 520 1 -8.1999999999999995e-01 -8.5739840097270736e+00 -6.9164365226301232e+00 5.0194678905642220e+00 4 6 4
1658 553 2 4.0999999999999998e-01 -1.3322815506359124e+01 -7.9295971122349656e+00 4.8179640039046525e+00 -4 4 -1
1382 461 2 4.0999999999999998e-01 -1.4220318711675018e+01 -1.1300846667465395e+01 5.5428307535040950e+00 -3 -2 6
1003 335 1 -8.1999999999999995e-01 -1.0799669708750447e+01 -1.3423858450141587e+01 4.8829801483864692e+00 0 -2 3
1004 335 2 4.0999999999999998e-01 -1.0557386167973650e+01 -1.2454497850259962e+01 4.9235810474304742e+00 0 -2 3
1005 335 2 4.0999999999999998e-01 -1.0614904142867163e+01 -1.3775451967335576e+01 3.9652364958873996e+00 0 -2 3
1482 494 2 4.0999999999999998e-01 -9.3005623127558401e+00 -1.0093874176326231e+01 4.3884165112795763e+00 5 1 2
1387 463 1 -8.1999999999999995e-01 -1.3322155845473901e+01 -1.3016172698633197e+01 2.7503253080342844e+00 3 -2 4
145 49 1 -8.1999999999999995e-01 -1.3846912518661671e+01 -1.3248330100604342e+01 5.7900232858844944e+00 -2 -2 2
1389 463 2 4.0999999999999998e-01 -1.2757635092578390e+01 -1.2292982974542953e+01 2.3524274696814231e+00 3 -2 4
336 112 2 4.0999999999999998e-01 -1.2367228226639831e+01 -6.2147590104435988e+00 1.6744695591857202e+00 -3 4 5
1855 619 1 -8.1999999999999995e-01 -1.1642272264257874e+01 -1.1482860524007716e+01 1.4775878989126205e+00 3 3 5
2341 781 1 -8.1999999999999995e-01 -1.0746768357796771e+01 -8.8814425619361543e+00 1.0621811160977863e+00 -2 6 0
2343 781 2 4.0999999999999998e-01 -1.1564221908474911e+01 -8.3612105345087055e+00 1.3094422035151467e+00 -2 6 0
1856 619 2 4.0999999999999998e-01 -1.1057133977500930e+01 -1.2046398268924332e+01 8.9445146390924712e-01 3 3 5
1753 585 1 -8.1999999999999995e-01 -8.8782655890489952e+00 -8.7026131486978748e+00 2.9335682529517513e+00 -1 8 5
1657 553 1 -8.1999999999999995e-01 -1.4039880169046176e+01 -7.8403053679072396e+00 4.1266934524827583e+00 -4 4 -1
1755 585 2 4.0999999999999998e-01 -9.6897745458989384e+00 -8.3829348815920746e+00 2.4444172224055016e+00 -1 8 5
1814 605 2 4.0999999999999998e-01 -1.4269899054626590e+01 -5.5778196112474436e+00 4.2363016858910498e+00 0 4 4
446 149 2 4.0999999999999998e-01 -1.0811318754476488e+01 -5.1567806232235256e+00 2.0833601783335141e+00 0 0 0
1659 553 2 4.0999999999999998e-01 -1.4521753698592763e+01 -8.7114034964735207e+00 4.0318480099108065e+00 -4 4 -1
1857 619 2 4.0999999999999998e-01 -1.1332789177243944e+01 -1.0532637802252818e+01 1.4414394155133223e+00 3 3 5
146 49 2 4.0999999999999998e-01 -1.4303393221712929e+01 -1.3262896263267518e+01 6.6796428115662039e+00 -2 -2 2
1754 585 2 4.0999999999999998e-01 -8.2803319624673080e+00 -9.1950919893778202e+00 2.3011525127582821e+00 -1 8 5
2455 819 1 -8.1999999999999995e-01 -1.2403486709298466e+01 -7.8625872684874265e+00 6.3153533593228914e+00 -3 0 4
2342 781 2 4.0999999999999998e-01 -1.0267031845595387e+01 -8.4150840682991497e+00 3.1896355401567078e-01 -2 6 0
2456 819 2 4.0999999999999998e-01 -1.2477428074721946e+01 -8.8492763827031560e+00 6.4602221603961603e+00 -3 0 4
1381 461 1 -8.1999999999999995e-01 -1.4640674299702454e+01 -1.0393709166268701e+01 5.5225220483964108e+00 -3 -2 6