LAMMPS data file via write_data, version 15 May 2015, timestep = 1009000

2593 atoms
6 atom types
1728 bonds
4 bond types
864 angles
3 angle types
0 dihedrals
3 dihedral types
0 impropers
1 improper types

-1.4977302267062480e+01 1.4977302267062480e+01 xlo xhi
-1.4977302267062480e+01 1.4977302267062480e+01 ylo yhi
-1.4977302267062480e+01 1.4977302267062480e+01 zlo zhi

Masses

1 15.9994
2 1.00794
3 12.0107
4 1.00794
5 12.0107
6 12.0107

Bond Coeffs # harmonic

1 1000 1
2 469 1.4
3 367 1.08
4 469 0.7

Angle Coeffs # harmonic

1 100 109.47
2 35 120
3 63 120

Dihedral Coeffs # opls

1 0 7.25 0 0
2 0 7.25 0 0
3 0 7.25 0 0

Improper Coeffs # cvff

1 2.5 -1 2

Atoms # full

520 174 1 -8.1999999999999995e-01 -1.2675292122884127e+01 -7.0116708508958165e+00 -9.3660950527030522e+00 2 1 0
522 174 2 4.0999999999999998e-01 -1.2814725116074705e+01 -6.6593162410496038e+00 -8.4406596340920164e+00 2 1 0
1387 463 1 -8.1999999999999995e-01 -9.4192120762428466e+00 -7.2825708810225107e+00 -1.2331605392181327e+01 1 0 -2
1388 463 2 4.0999999999999998e-01 -8.5852239679541285e+00 -7.8251045116430031e+00 -1.2432338507083362e+01 1 0 -2
70 24 1 -8.1999999999999995e-01 -1.1392258217946324e+01 -9.9934570227538373e+00 -1.2794443644262497e+01 -1 -2 1
71 24 2 4.0999999999999998e-01 -1.1903651835986706e+01 -9.5631740126972549e+00 -1.2050562485129916e+01 -1 -2 1
72 24 2 4.0999999999999998e-01 -1.1292351265381930e+01 -9.3448643223079415e+00 -1.3549011177386463e+01 -1 -2 1
365 122 2 4.0999999999999998e-01 -9.7899242991806084e+00 -7.1945872501027512e+00 -1.0682076323597324e+01 0 1 2
364 122 1 -8.1999999999999995e-01 -9.9284639783265352e+00 -7.2709976134283680e+00 -9.6946583294969617e+00 0 1 2
1523 508 2 4.0999999999999998e-01 -1.2140072065093131e+01 -1.4430926811683193e+01 -1.0759834156464617e+01 -1 2 1
521 174 2 4.0999999999999998e-01 -1.1725834798766019e+01 -7.3077413652029009e+00 -9.4704939642191235e+00 2 1 0
1517 506 2 4.0999999999999998e-01 -1.3931781848389045e+01 -7.2112878176410886e+00 -1.2139857345931109e+01 -1 0 2
1524 508 2 4.0999999999999998e-01 -1.1871702203030919e+01 -1.3581391095488891e+01 -9.3912719859611435e+00 -1 2 1
1243 415 1 -8.1999999999999995e-01 -1.2528639192927027e+01 -1.0763324321225717e+01 -1.0307998157175856e+01 -1 3 2
2048 683 2 4.0999999999999998e-01 -1.3754797374198610e+01 -9.4509467146241608e+00 -1.0234296268114209e+01 1 1 0
1255 419 1 -8.1999999999999995e-01 -9.1417811877742405e+00 -9.9814598088630131e+00 -9.2909633412458739e+00 0 0 1
1245 415 2 4.0999999999999998e-01 -1.2486838298993913e+01 -1.1709272954687284e+01 -1.0629649974650075e+01 -1 3 2
1522 508 1 -8.1999999999999995e-01 -1.1727615290021388e+01 -1.3602612908015791e+01 -1.0380622600987493e+01 -1 2 1
1389 463 2 4.0999999999999998e-01 -9.8362559002923220e+00 -7.1425325685921175e+00 -1.3229653167226648e+01 1 0 -2
2303 768 2 4.0999999999999998e-01 -6.1689227117186487e+00 -5.5761089805211448e+00 -1.2584592299170030e+01 1 2 2
161 54 2 4.0999999999999998e-01 -1.1958658587742043e+01 -1.2651321535227511e+01 -1.3033062004584485e+01 0 0 1
1050 350 2 4.0999999999999998e-01 -1.0352794886234509e+01 -1.1328566116588403e+01 -1.2189539911542463e+01 -1 -1 1
1819 607 1 -8.1999999999999995e-01 -8.4230906949029656e+00 -1.3710940580122294e+01 -1.4424918557516191e+01 -1 0 2
1516 506 1 -8.1999999999999995e-01 -1.4116082695805204e+01 -6.3728689845241000e+00 -1.1626911831333484e+01 -1 0 2
1048 350 1 -8.1999999999999995e-01 -9.8598493393277948e+00 -1.1841649958591535e+01 -1.1486848210617953e+01 -1 -1 1
1244 415 2 4.0999999999999998e-01 -1.2249153322829528e+01 -1.0724828858520809e+01 -9.3486067751411746e+00 -1 3 2
2266 756 1 -8.1999999999999995e-01 -1.2439076188827222e+01 -1.0957625430355293e+01 -7.5138387159278981e+00 1 0 2
1049 350 2 4.0999999999999998e-01 -1.0507228067632273e+01 -1.2394053159120787e+01 -1.0961703009574212e+01 -1 -1 1
731 244 2 4.0999999999999998e-01 -1.1586102795041668e+00 -1.4729669214471533e+01 -1.0478367257467308e+01 -1 0 1
2190 730 2 4.0999999999999998e-01 -1.0565580680589507e+01 -5.9132401129900121e+00 -8.8375136134814536e+00 0 -1 -1
2188 730 1 -8.1999999999999995e-01 -1.0804866348116878e+01 -5.0946140301171390e+00 -8.3153835697630125e+00 0 -1 -1
160 54 1 -8.1999999999999995e-01 -1.2806936944462535e+01 -1.2986310439571326e+01 -1.3443223148466295e+01 0 0 1
1915 639 1 -8.1999999999999995e-01 -7.1685947086935986e+00 -6.1095649593169821e+00 -9.1885255620750126e+00 -2 2 0
2047 683 1 -8.1999999999999995e-01 -1.4538171354514875e+01 -8.8440201156808964e+00 -1.0368428072746525e+01 1 1 0
2049 683 2 4.0999999999999998e-01 -1.4465670537075800e+01 -8.0639053990222358e+00 -9.7469856103123487e+00 1 1 0
2324 775 2 4.0999999999999998e-01 -9.1666477312423389e-01 -1.4182268179532338e+01 -1.4347269152452691e+01 0 2 1
366 122 2 4.0999999999999998e-01 -9.6148267429343157e+00 -8.1677710023337546e+00 -9.3824801293718476e+00 0 1 2
2189 730 2 4.0999999999999998e-01 -1.1683769700949357e+01 -5.2351057956365334e+00 -7.8595140410331004e+00 0 -1 -1
2412 804 2 4.0999999999999998e-01 -8.5733667288323385e+00 -1.3209339839996103e+01 -8.4245024203467231e+00 1 1 0
908 303 2 4.0999999999999998e-01 -1.9188730445247533e+00 -5.4747031484276718e+00 -1.1235815879877340e+01 0 -2 1
162 54 2 4.0999999999999998e-01 -1.2767187224039784e+01 -1.3982203938172301e+01 -1.3524721042237415e+01 0 0 1
2200 734 1 -8.1999999999999995e-01 -1.4461214615467895e+01 -1.1248657204963461e+01 -1.4943483297830497e+01 2 -2 0
1400 467 2 4.0999999999999998e-01 -5.1426894136709915e+00 -1.3968015387511997e+01 -9.8046320363356756e+00 1 0 1
1087 363 1 -8.1999999999999995e-01 -7.7072087005714707e+00 -1.2772346240753899e+01 -9.8788542604999954e+00 -2 1 0
1916 639 2 4.0999999999999998e-01 -7.9116147167896331e+00 -6.4380049641589991e+00 -9.7716845879681529e+00 -2 2 0
2201 734 2 4.0999999999999998e-01 -1.3982988312875856e+01 -1.1652845957681469e+01 -1.4163767241412117e+01 2 -2 0
2304 768 2 4.0999999999999998e-01 -7.1461176656830094e+00 -5.3663335380963542e+00 -1.1293166604308801e+01 1 2 2
1256 419 2 4.0999999999999998e-01 -9.4658615004041806e+00 -1.0426650484371301e+01 -1.0125710729242190e+01 0 0 1
1307 436 2 4.0999999999999998e-01 -6.3226569553315830e+00 -1.1174443004889199e+01 -1.4156497772665078e+01 3 -1 1
1089 363 2 4.0999999999999998e-01 -8.2474831565758109e+00 -1.2401379050558971e+01 -1.0634177284490715e+01 -2 1 0
1257 419 2 4.0999999999999998e-01 -8.2485824205546887e+00 -1.0354320051598581e+01 -9.0395726316942202e+00 0 0 1
1272 424 2 4.0999999999999998e-01 -2.8768269524113155e+00 -1.4849631764976252e+01 -9.0864388536024716e+00 -3 0 1
1211 404 2 4.0999999999999998e-01 -7.2274542705039302e-01 -1.2307085719013735e+01 -1.4179139987828965e+01 0 1 1
2441 814 2 4.0999999999999998e-01 -1.2816773712495593e+00 -5.0289580167672323e+00 -9.2495381806228743e+00 0 -2 0
1401 467 2 4.0999999999999998e-01 -5.0161676910343722e+00 -1.4084018491864725e+01 -1.1428587522145175e+01 1 0 1
1713 571 2 4.0999999999999998e-01 -1.4433798948434706e+00 -8.2557987717857184e+00 -9.3787299873991827e+00 0 1 1
2173 725 1 -8.1999999999999995e-01 -3.7441021358346678e+00 -8.8216676620225911e+00 -1.4651054084859537e+01 2 -1 1
1320 440 2 4.0999999999999998e-01 -4.3391101786972399e+00 -9.4007740176138661e+00 -1.0856036721048069e+01 -1 0 2
1088 363 2 4.0999999999999998e-01 -6.8740543246635060e+00 -1.3191685793101669e+01 -1.0239456530691237e+01 -2 1 0
1820 607 2 4.0999999999999998e-01 -7.8364258710493102e+00 -1.3007702851363639e+01 -1.4023287908005260e+01 -1 0 2
1866 622 2 4.0999999999999998e-01 -1.3408936564265872e+00 -6.3751074976667983e+00 -1.3413504155176561e+01 -1 -1 2
432 144 2 4.0999999999999998e-01 -8.2491921725352988e+00 -1.4964859546383748e+01 -1.0858704715285494e+01 0 1 2
279 93 2 4.0999999999999998e-01 -1.1810236028361469e+00 -1.0214902582836032e+01 -1.2929653041686532e+01 -2 0 -1
907 303 1 -8.1999999999999995e-01 -1.4885706189628465e+00 -5.1815002925666676e+00 -1.2089571106905897e+01 0 -2 1
2076 692 2 4.0999999999999998e-01 -2.6701795204043570e+00 -1.3786126813827892e+01 -1.1371712113453160e+01 0 2 0
1824 608 2 4.0999999999999998e-01 -5.3192753174604857e+00 -9.3507533232059075e+00 -1.4891156180778633e+01 -1 -1 1
2174 725 2 4.0999999999999998e-01 -3.3232346532036789e+00 -9.1424557425203474e+00 -1.3802530876301454e+01 2 -1 1
1917 639 2 4.0999999999999998e-01 -6.6062402510367182e+00 -6.8835819928343174e+00 -8.8975252591392966e+00 -2 2 0
1737 579 2 4.0999999999999998e-01 -4.8453445265206092e+00 -8.4380183642929918e+00 -9.2583012071440898e+00 1 -1 2
1271 424 2 4.0999999999999998e-01 -3.9725751801916687e+00 -1.4422777358311397e+01 -7.9533779112096648e+00 -3 0 1
2275 759 1 -8.1999999999999995e-01 -1.6918943305567176e+00 -1.1818013514825692e+01 -8.6601456088347888e+00 0 0 1
1736 579 2 4.0999999999999998e-01 -6.0417241691352643e+00 -9.0390151759305670e+00 -8.3233282664942401e+00 1 -1 2
2437 813 1 -8.1999999999999995e-01 -4.8164137069162347e+00 -6.8008432394378175e+00 -1.3114843826305556e+01 1 -1 1
2440 814 1 -8.1999999999999995e-01 -2.1220449981848244e+00 -5.5680019105617813e+00 -9.3064592785429667e+00 0 -2 0
1318 440 1 -8.1999999999999995e-01 -4.0705972249537332e+00 -8.4727829522612446e+00 -1.0597658152585140e+01 -1 0 2
2074 692 1 -8.1999999999999995e-01 -2.3270392168903093e+00 -1.2869669336219090e+01 -1.1165832254088414e+01 0 2 0
1453 485 1 -8.1999999999999995e-01 -6.9267894550988451e+00 -8.5154578320888170e+00 -1.2245435408945445e+01 -1 1 0
1454 485 2 4.0999999999999998e-01 -6.2823211541209325e+00 -7.8298064164177639e+00 -1.2583915602420507e+01 -1 1 0
2075 692 2 4.0999999999999998e-01 -2.0392457255450704e+00 -1.2423361945775786e+01 -1.2013187377643758e+01 0 2 0
893 298 2 4.0999999999999998e-01 -1.3181749373196904e+01 -5.2148539959991549e+00 -1.2749746330368183e+01 0 -2 -2
1731 577 2 4.0999999999999998e-01 -5.1745216322656802e+00 -1.1454174701638136e+01 -1.0709653707930986e+01 1 1 1
1210 404 1 -8.1999999999999995e-01 -3.7899178649727716e-01 -1.1479654164254836e+01 -1.3735049287064360e+01 0 1 1
1864 622 1 -8.1999999999999995e-01 -1.4169502457726697e+00 -7.0662542679671416e+00 -1.4132223511242646e+01 -1 -1 2
2438 813 2 4.0999999999999998e-01 -4.1092080733015912e+00 -7.1074025495902537e+00 -1.2477735006937097e+01 1 -1 1
2297 766 2 4.0999999999999998e-01 -1.4765836268378941e+01 -1.3394983749320197e+01 -1.4229460425822511e+01 2 1 2
2439 813 2 4.0999999999999998e-01 -4.4073738318667441e+00 -6.6346980010567354e+00 -1.4012122049794641e+01 1 -1 1
1455 485 2 4.0999999999999998e-01 -6.4217045188946926e+00 -9.2657813941550398e+00 -1.1818903064730696e+01 -1 1 0
1735 579 1 -8.1999999999999995e-01 -5.4207782903480730e+00 -8.2668946626888449e+00 -8.4585395663320213e+00 1 -1 2
1865 622 2 4.0999999999999998e-01 -1.5542173429136774e+00 -7.9654612356173562e+00 -1.3716759255907800e+01 -1 -1 2
277 93 1 -8.1999999999999995e-01 -1.7777874368657773e+00 -9.4255259834565130e+00 -1.2785488043632210e+01 -2 0 -1
1319 440 2 4.0999999999999998e-01 -3.0753352048146692e+00 -8.3881650510632468e+00 -1.0645817982061793e+01 -1 0 2
625 209 1 -8.1999999999999995e-01 -6.7148739985029291e+00 -1.0558659639432509e+01 -8.1808914391564258e+00 0 1 0
1399 467 1 -8.1999999999999995e-01 -5.5697884452956448e+00 -1.3727098378706394e+01 -1.0676165998110609e+01 1 0 1
1308 436 2 4.0999999999999998e-01 -5.5257756040541253e+00 -1.2586222126633810e+01 -1.3960141270566305e+01 3 -1 1
2302 768 1 -8.1999999999999995e-01 -7.0506436370058747e+00 -5.2179441095316168e+00 -1.2277489400403036e+01 1 2 2
626 209 2 4.0999999999999998e-01 -6.7319870987921000e+00 -1.1469908025280249e+01 -8.5924245595941127e+00 0 1 0
1730 577 2 4.0999999999999998e-01 -5.6344232463199830e+00 -1.1130150106815373e+01 -1.2242688114803752e+01 1 1 1
1096 366 1 -8.1999999999999995e-01 -1.2984115247875216e+00 -7.7140341227513423e+00 -7.7405183009052099e+00 1 0 1
2277 759 2 4.0999999999999998e-01 -1.7966691120176748e+00 -1.2217301988862463e+01 -9.5709787142553893e+00 0 0 1
2276 759 2 4.0999999999999998e-01 -2.5667760612801302e+00 -1.1855277548193738e+01 -8.1772177880091039e+00 0 0 1
278 93 2 4.0999999999999998e-01 -1.6722596488931991e+00 -9.0947613039323230e+00 -1.1847679592063205e+01 -2 0 -1
1729 577 1 -8.1999999999999995e-01 -5.1719228494271778e+00 -1.0765338615146526e+01 -1.1434584141276419e+01 1 1 1
1306 436 1 -8.1999999999999995e-01 -6.2550566918633379e+00 -1.2003534409773657e+01 -1.3601462850068021e+01 3 -1 1
1711 571 1 -8.1999999999999995e-01 -1.3478313312474715e+00 -8.5166063383508970e+00 -1.0339394306478628e+01 0 1 1
1097 366 2 4.0999999999999998e-01 -1.4708050688565653e+00 -6.8512911099114753e+00 -8.2158928954591843e+00 1 0 1
1623 541 2 4.0999999999999998e-01 -1.0485794238741436e+01 -1.3904794077007763e+01 -7.7600923867383109e+00 3 0 0
1712 571 2 4.0999999999999998e-01 -4.1151505632094043e-01 -8.3379380697303134e+00 -1.0641743840490726e+01 0 1 1
1407 469 2 4.0999999999999998e-01 -9.8783847413583281e+00 -9.5476043588495187e+00 -7.7487276912315552e+00 1 0 1
1270 424 1 -8.1999999999999995e-01 -3.8264120630702507e+00 -1.4951101673658314e+01 -8.7897604898448840e+00 -3 0 1
1518 506 2 4.0999999999999998e-01 -1.3698516946355943e+01 -6.4380091470991001e+00 -1.0720588666257919e+01 -1 0 2
2442 814 2 4.0999999999999998e-01 -2.8502664470449108e+00 -5.1043631129585307e+00 -8.8017230572373322e+00 0 -2 0
1621 541 1 -8.1999999999999995e-01 -1.1456942941134844e+01 -1.4130836386395332e+01 -7.6839268089482369e+00 3 0 0
1212 404 2 4.0999999999999998e-01 -6.3436576640803821e-02 -1.0834455930342536e+01 -1.4430872694317776e+01 0 1 1
2410 804 1 -8.1999999999999995e-01 -8.9410437185033089e+00 -1.3311052570115878e+01 -7.5001138575119759e+00 1 1 0
1098 366 2 4.0999999999999998e-01 -3.2705470991242969e-01 -7.7805606136063066e+00 -7.5123381167186416e+00 1 0 1
1823 608 2 4.0999999999999998e-01 -6.9100079539960380e+00 -9.0198605627899404e+00 -1.4727523552898381e+01 -1 -1 1
1822 608 1 -8.1999999999999995e-01 -6.2429466560886855e+00 -9.7278101803287402e+00 -1.4959606802863544e+01 -1 -1 1
2132 711 2 4.0999999999999998e-01 -8.8644620579948672e+00 -1.3795307137833296e+01 -2.3573781003739995e+00 1 -1 1
180 60 2 4.0999999999999998e-01 -8.0568196663177929e+00 -5.3428236015263533e+00 -6.8805312074497813e+00 0 2 -1
1176 392 2 4.0999999999999998e-01 -1.4523505946953229e+01 -1.0482445121102899e+01 -4.4897494759925056e+00 0 1 2
1684 562 1 -8.1999999999999995e-01 -1.4543806305513318e+01 -1.3456392984596704e+01 -4.9948063699172458e+00 1 0 1
962 321 2 4.0999999999999998e-01 -1.0758873322256985e+01 -1.2515779120232299e+01 -3.8680118685792149e+00 -1 0 1
961 321 1 -8.1999999999999995e-01 -1.0942391935274447e+01 -1.2183187743842439e+01 -2.9429551268871137e+00 -1 0 1
963 321 2 4.0999999999999998e-01 -1.0993209438305900e+01 -1.2958847937534603e+01 -2.3138327761731432e+00 -1 0 1
1825 609 1 -8.1999999999999995e-01 -1.0839160585013758e+01 -6.0058930291341515e+00 -4.0439445432240131e+00 0 -1 0
648 216 2 4.0999999999999998e-01 -4.0774380028125510e+00 -8.8771238349850172e+00 -7.2954778737232502e+00 1 -1 1
2131 711 1 -8.1999999999999995e-01 -8.0639175347862775e+00 -1.3197912935629306e+01 -2.3096841315471561e+00 1 -1 1
767 256 2 4.0999999999999998e-01 -1.2882058607556798e+01 -9.7693579417517817e+00 -3.0268489682955995e+00 -3 2 0
766 256 1 -8.1999999999999995e-01 -1.3170883128903123e+01 -1.0716082934321129e+01 -3.1693911523117286e+00 -3 2 0
768 256 2 4.0999999999999998e-01 -1.2388038468714470e+01 -1.1325736722473890e+01 -3.0448818885593028e+00 -3 2 0
889 297 1 -8.1999999999999995e-01 -7.1400605890288906e+00 -1.4685084213042781e+01 -5.8468596670684754e+00 0 -2 2
338 113 2 4.0999999999999998e-01 -9.4492879696723442e+00 -1.2371908299846698e+01 -6.2250967033021727e+00 -1 3 3
337 113 1 -8.1999999999999995e-01 -9.9862756891258595e+00 -1.2017438195171829e+01 -5.4595764677023553e+00 -1 3 3
339 113 2 4.0999999999999998e-01 -9.9592742304503847e+00 -1.1017825958421984e+01 -5.4680821229449528e+00 -1 3 3
1965 655 2 4.0999999999999998e-01 -1.3638882327610283e+01 -7.1423784907722618e+00 -6.3715153984571202e+00 -3 0 0
1963 655 1 -8.1999999999999995e-01 -1.2701366153904527e+01 -6.8222902932955911e+00 -6.5080178398816457e+00 -3 0 0
1964 655 2 4.0999999999999998e-01 -1.2190498237816431e+01 -6.9126637300611424e+00 -5.6531069488093753e+00 -3 0 0
2267 756 2 4.0999999999999998e-01 -1.1919155194321192e+01 -1.0136023412831953e+01 -7.2800051058833732e+00 1 0 2
1405 469 1 -8.1999999999999995e-01 -1.0253845313838369e+01 -9.4373084073066700e+00 -6.8284613395277542e+00 1 0 1
1406 469 2 4.0999999999999998e-01 -9.9641730196977640e+00 -8.5566174373451780e+00 -6.4536287818867670e+00 1 0 1
714 238 2 4.0999999999999998e-01 -1.4797175937584811e+01 -1.1370134995554620e+01 -2.4234752270233884e+00 -1 3 -1
2268 756 2 4.0999999999999998e-01 -1.2692405235671941e+01 -1.1441434614657741e+01 -6.6761161467994281e+00 1 0 2
589 197 1 -8.1999999999999995e-01 -9.3662278089379960e+00 -1.0396892851730723e+01 -1.7228320871602580e+00 -1 0 2
890 297 2 4.0999999999999998e-01 -7.3615961536051202e+00 -1.4944026752231229e+01 -4.9067018120539618e+00 0 -2 2
528 176 2 4.0999999999999998e-01 -1.1864850151367278e+01 -7.4246425556697098e+00 -3.2933142760504417e+00 0 1 0
591 197 2 4.0999999999999998e-01 -9.9234415524661319e+00 -1.0988483958129013e+01 -2.3055488601407728e+00 -1 0 2
526 176 1 -8.1999999999999995e-01 -1.2574937410444734e+01 -8.1022105960871258e+00 -3.1017321465221990e+00 0 1 0
1608 536 2 4.0999999999999998e-01 -1.0514289945981936e-01 -6.3647894073155697e+00 -3.4663550302246247e+00 -1 2 2
1834 612 1 -8.1999999999999995e-01 -4.6277101256679298e+00 -1.2719036397730036e+01 -7.1596279854332492e+00 0 1 2
590 197 2 4.0999999999999998e-01 -9.8663746675002741e+00 -1.0190844213227916e+01 -8.8174757523217195e-01 -1 0 2
1284 428 2 4.0999999999999998e-01 -9.3286716698700936e+00 -8.8879074715598598e+00 -3.1947464018591614e+00 -1 1 0
527 176 2 4.0999999999999998e-01 -1.2789221676389179e+01 -8.0934063364690925e+00 -2.1249871260275164e+00 0 1 0
1282 428 1 -8.1999999999999995e-01 -8.9613858573312672e+00 -8.2815692488146642e+00 -3.9000696349167452e+00 -1 1 0
2289 763 2 4.0999999999999998e-01 -5.3533372125359975e+00 -6.8608066166314856e+00 -5.2297109982107504e+00 1 -1 1
1094 365 2 4.0999999999999998e-01 -1.4884106423510548e+01 -1.2090165174007673e+01 -2.7363818157701125e-01 0 1 2
2151 717 2 4.0999999999999998e-01 -7.8606804916637261e+00 -9.7742448797454955e+00 -1.4739751689101670e+00 1 -1 3
647 216 2 4.0999999999999998e-01 -2.5713743797592130e+00 -8.4478947734850429e+00 -6.8326275788576964e+00 1 -1 1
824 275 2 4.0999999999999998e-01 -4.5522928038212331e+00 -5.3605074274413074e+00 -6.9850721124212942e+00 0 -1 -1
1283 428 2 4.0999999999999998e-01 -7.9665410570140214e+00 -8.3764679405225806e+00 -3.9361810805265041e+00 -1 1 0
2133 711 2 4.0999999999999998e-01 -8.2655839187053708e+00 -1.2333009271036033e+01 -2.7693561886247373e+00 1 -1 1
1874 625 2 4.0999999999999998e-01 -1.2974183640254690e+01 -1.4302498395564999e+01 -4.6924848543876330e+00 -1 1 -1
1826 609 2 4.0999999999999998e-01 -1.0190236109943777e+01 -6.7289030771467768e+00 -4.2809668670071801e+00 0 -1 0
2084 695 2 4.0999999999999998e-01 -9.9937361127970377e+00 -5.0932545753811311e+00 -1.2302920822404761e+00 1 0 1
2026 676 1 -8.1999999999999995e-01 -7.0726309816904491e+00 -7.0000014113916276e+00 -4.1351964402592678e-01 -1 -1 -1
758 253 2 4.0999999999999998e-01 -7.6483733702033341e-01 -1.0808075535034297e+01 -7.3039668704439986e+00 0 1 2
44 15 2 4.0999999999999998e-01 -6.9506675053796894e+00 -1.2003796970422583e+01 -4.6662666760414062e-01 -1 0 2
2073 691 2 4.0999999999999998e-01 -1.4145921508252931e+01 -5.3398044286261275e+00 -2.2397920091249013e-01 1 0 2
1008 336 2 4.0999999999999998e-01 -1.4184291970199236e+00 -1.4536315247641729e+01 -2.0113640247626101e+00 1 0 1
1835 612 2 4.0999999999999998e-01 -3.8211808757336208e+00 -1.2600056110859271e+01 -6.5805077176850926e+00 0 1 2
417 139 2 4.0999999999999998e-01 -3.3318628517199933e+00 -8.3216878193949935e+00 -3.3571120971481943e+00 0 3 1
627 209 2 4.0999999999999998e-01 -6.6099943356396231e+00 -1.0642378706360894e+01 -7.1899235687603626e+00 0 1 0
5 2 2 4.0999999999999998e-01 -7.0601625678186029e+00 -1.4608030129957893e+01 -1.1266196638053128e+00 0 1 1
1862 621 2 4.0999999999999998e-01 -1.3647724527353601e+01 -7.5796618954333965e+00 -1.4761527043441092e-01 0 1 1
2287 763 1 -8.1999999999999995e-01 -5.6824889580093050e+00 -6.5997447224360055e+00 -6.1371975612781000e+00 1 -1 1
1861 621 1 -8.1999999999999995e-01 -1.3427519378176159e+01 -8.4729336748915838e+00 -5.3953516948952185e-01 0 1 1
2149 717 1 -8.1999999999999995e-01 -6.9731161952851171e+00 -9.4078642349742623e+00 -1.1946533144877840e+00 1 -1 3
2150 717 2 4.0999999999999998e-01 -7.0911824797544556e+00 -8.4782399208840058e+00 -8.4553293571496724e-01 1 -1 3
415 139 1 -8.1999999999999995e-01 -3.9288113716216166e+00 -8.0409303439647815e+00 -4.1086795557584068e+00 0 3 1
646 216 1 -8.1999999999999995e-01 -3.3993122104977314e+00 -8.9397772024390783e+00 -6.5631898299030258e+00 1 -1 1
847 283 1 -8.1999999999999995e-01 -4.3843439720398614e+00 -5.1239584921591277e+00 -2.9979927992732680e+00 -1 1 1
2028 676 2 4.0999999999999998e-01 -7.5693318530894445e+00 -6.4314059132442463e+00 -1.0692737738394484e+00 -1 -1 -1
1827 609 2 4.0999999999999998e-01 -1.0539268981132700e+01 -5.1426124748974225e+00 -4.4499467075390235e+00 0 -1 0
2052 684 2 4.0999999999999998e-01 -2.6665810543912905e-01 -1.4091038557764595e+01 -3.9698315528014341e+00 -1 -1 1
1686 562 2 4.0999999999999998e-01 -1.4449955992655575e+01 -1.2466787537658897e+01 -5.1038899482359188e+00 1 0 1
1607 536 2 4.0999999999999998e-01 -1.1103657929067019e+00 -6.5945166728968356e+00 -4.7326284247016357e+00 -1 2 2
90 30 2 4.0999999999999998e-01 -1.4468439821680798e+01 -8.1180868963013211e+00 -3.6857961321536870e+00 1 0 3
202 68 1 -8.1999999999999995e-01 -6.2105120957028124e+00 -1.1341308879547787e+01 -5.5921980799423299e+00 1 -2 2
1740 580 2 4.0999999999999998e-01 -6.3855753929368149e+00 -1.3208255611379778e+01 -3.1371929028697547e+00 0 0 -1
376 126 1 -8.1999999999999995e-01 -1.0933326454156465e+00 -1.2662964592185984e+01 -2.6258382036971035e+00 1 0 0
378 126 2 4.0999999999999998e-01 -2.2216090567150282e-01 -1.2557164548195823e+01 -2.1463674587034198e+00 1 0 0
1622 541 2 4.0999999999999998e-01 -1.1816138455002159e+01 -1.3771932546913156e+01 -6.8224207449290617e+00 3 0 0
1738 580 1 -8.1999999999999995e-01 -5.5802803543396191e+00 -1.3026245914761901e+01 -3.7014609160009062e+00 0 0 -1
759 253 2 4.0999999999999998e-01 -1.0180378175023428e+00 -1.1582263832828025e+01 -5.8886160148476616e+00 0 1 2
2561 854 2 4.0999999999999998e-01 -3.3261410751674418e+00 -9.9460184305557569e+00 -1.9811164963650327e+00 2 -1 2
2050 684 1 -8.1999999999999995e-01 -4.4194786466799130e-01 -1.4612461621161369e+01 -4.8049468561837134e+00 -1 -1 1
203 68 2 4.0999999999999998e-01 -6.0421556391997306e+00 -1.2034330658274515e+01 -4.8911966530406765e+00 1 -2 2
1335 445 2 4.0999999999999998e-01 -1.9017173745780358e+00 -1.3520223184864163e+01 -5.1619519831245100e+00 -2 0 1
1739 580 2 4.0999999999999998e-01 -4.9292442572302164e+00 -1.3779276569309545e+01 -3.6059471928423541e+00 0 0 -1
1606 536 1 -8.1999999999999995e-01 -3.9581763508976131e-01 -7.0119090749276758e+00 -4.1711744282755738e+00 -1 2 2
87 29 2 4.0999999999999998e-01 -6.4585075181590401e+00 -9.5503182853743098e+00 -2.6954406556548438e+00 -2 -1 1
1836 612 2 4.0999999999999998e-01 -5.4480724277591772e+00 -1.2473569520415451e+01 -6.6431227823749204e+00 0 1 2
32 11 2 4.0999999999999998e-01 -4.2853389812842870e+00 -1.1626426739479104e+01 -2.5451828226710891e+00 0 1 2
2562 854 2 4.0999999999999998e-01 -2.8336661621440502e+00 -8.7356704072085805e+00 -1.0017176308724576e+00 2 -1 2
85 29 1 -8.1999999999999995e-01 -6.1952001639666285e+00 -9.4850219403845202e+00 -3.6579538926278143e+00 -2 -1 1
2560 854 1 -8.1999999999999995e-01 -2.6893727012644018e+00 -9.1809048108477729e+00 -1.8854437255450183e+00 2 -1 2
86 29 2 4.0999999999999998e-01 -5.3785204671652984e+00 -8.9140773317029574e+00 -3.7421122732181082e+00 -2 -1 1
757 253 1 -8.1999999999999995e-01 -5.1793826129732068e-01 -1.0840467057921382e+01 -6.3354537686002352e+00 0 1 2
2288 763 2 4.0999999999999998e-01 -5.6689108081989694e+00 -7.3981994968310323e+00 -6.7391208684069142e+00 1 -1 1
377 126 2 4.0999999999999998e-01 -1.4766543616964913e+00 -1.1760762565484352e+01 -2.8236310093645596e+00 1 0 0
2411 804 2 4.0999999999999998e-01 -8.3404878243213112e+00 -1.3906229079945835e+01 -6.9661441577416578e+00 1 1 0
204 68 2 4.0999999999999998e-01 -6.5158431422734839e+00 -1.0494310528500673e+01 -5.1570052179041586e+00 1 -2 2
1333 445 1 -8.1999999999999995e-01 -2.5645294085896833e+00 -1.2819042281209653e+01 -5.4247287277560972e+00 -2 0 1
31 11 1 -8.1999999999999995e-01 -4.0658221715937497e+00 -1.1479060669838717e+01 -1.5807546592816788e+00 0 1 2
1334 445 2 4.0999999999999998e-01 -3.3043810296272795e+00 -1.2791117343819105e+01 -4.7525190548112146e+00 -2 0 1
33 11 2 4.0999999999999998e-01 -4.7573591045560768e+00 -1.1921913079338665e+01 -1.0100669201624193e+00 0 1 2
416 139 2 4.0999999999999998e-01 -3.5533730991307770e+00 -8.3724482703802359e+00 -4.9742245024691645e+00 0 3 1
849 283 2 4.0999999999999998e-01 -4.3300251711258664e+00 -6.1220765811901998e+00 -3.0269023224772802e+00 -1 1 1
458 153 2 4.0999999999999998e-01 -1.1605892281970316e+01 -9.0282367936951395e+00 -3.1462721508400904e-02 -1 -2 1
179 60 2 4.0999999999999998e-01 -9.6569444780348199e+00 -5.0184030471386141e+00 -6.9129016854086842e+00 0 2 -1
1863 621 2 4.0999999999999998e-01 -1.4265376416900716e+01 -9.0102253539319399e+00 -6.3617410861555612e-01 0 1 1
2330 777 2 4.0999999999999998e-01 -4.7948472750326943e+00 -1.4512200716368254e+01 5.5301342007499450e+00 -1 -1 -1
942 314 2 4.0999999999999998e-01 -1.3714755016089201e+01 -1.0899851194718678e+01 6.8765746584085647e+00 1 0 2
459 153 2 4.0999999999999998e-01 -1.0276104694383342e+01 -8.1200863807709602e+00 2.3987418498197677e-01 -1 -2 1
781 261 1 -8.1999999999999995e-01 -1.2038428902484366e+01 -8.4064105631860429e+00 4.5541546509566544e+00 0 1 1
783 261 2 4.0999999999999998e-01 -1.1355606674061391e+01 -7.7532152581516511e+00 4.2268693356947580e+00 0 1 1
398 133 2 4.0999999999999998e-01 -1.2983410426616043e+01 -1.2043032043899807e+01 3.1394098030828737e+00 0 1 1
782 261 2 4.0999999999999998e-01 -1.2855571836192970e+01 -8.3499457932752961e+00 3.9804689743067208e+00 0 1 1
399 133 2 4.0999999999999998e-01 -1.4311870954451376e+01 -1.1312446178393643e+01 3.7461494218439206e+00 0 1 1
397 133 1 -8.1999999999999995e-01 -1.3794251090868155e+01 -1.1503659762632156e+01 2.9121631443278524e+00 0 1 1
1928 643 2 4.0999999999999998e-01 -9.8669582145283883e+00 -1.0788096543616412e+01 3.9234030560624085e+00 0 0 0
2037 679 2 4.0999999999999998e-01 -1.0199806267706311e+01 -1.0448817842569198e+01 1.2788591247840273e+00 1 0 1
2035 679 1 -8.1999999999999995e-01 -9.8572398100987364e+00 -1.1274448052586809e+01 1.7271993803020678e+00 1 0 1
2036 679 2 4.0999999999999998e-01 -8.8791705364465798e+00 -1.1173409415801322e+01 1.9094019539645757e+00 1 0 1
723 241 2 4.0999999999999998e-01 -1.1191366745544954e+01 -1.2581489530009982e+01 2.3986043005872908e+00 0 -2 -2
721 241 1 -8.1999999999999995e-01 -1.1274229604077718e+01 -1.3318474131430525e+01 3.0694347883711401e+00 0 -2 -2
1899 633 2 4.0999999999999998e-01 -1.2129690996083266e+01 -1.2793737311427412e+01 7.4676022990947324e+00 -1 1 1
1927 643 1 -8.1999999999999995e-01 -1.0165596699224075e+01 -1.0362315886412576e+01 4.7775411155147722e+00 0 0 0
1929 643 2 4.0999999999999998e-01 -1.0957557238024330e+01 -9.7781933387989994e+00 4.5997057086999398e+00 0 0 0
2101 701 1 -8.1999999999999995e-01 -7.6650976694357560e+00 -8.5843106837789378e+00 2.0159489538035835e+00 0 0 1
1844 615 2 4.0999999999999998e-01 -1.0279599173783541e+01 -1.3647024545421777e+01 4.3820226618716980e+00 1 -1 1
553 185 1 -8.1999999999999995e-01 -9.5807918402569943e+00 -7.0316670788041513e+00 3.3860492155622133e+00 1 1 0
555 185 2 4.0999999999999998e-01 -9.8514464259399794e+00 -6.0881556848909089e+00 3.1948468363270024e+00 1 1 0
2478 826 2 4.0999999999999998e-01 -1.0384757522097665e+01 -5.8250012239829640e+00 1.0739615608939594e+00 2 0 0
457 153 1 -8.1999999999999995e-01 -1.0646350894227940e+01 -9.0489853952920232e+00 2.4938566721718836e-01 -1 -2 1
554 185 2 4.0999999999999998e-01 -8.9498861665810097e+00 -7.0467628374895135e+00 4.1617786789643034e+00 1 1 0
2103 701 2 4.0999999999999998e-01 -8.3977684640012029e+00 -7.9641542522945459e+00 2.2963514732968839e+00 0 0 1
1843 615 1 -8.1999999999999995e-01 -9.7758947408553318e+00 -1.3673442738047026e+01 5.2455097795978176e+00 1 -1 1
2283 761 2 4.0999999999999998e-01 -8.2534710422665150e+00 -1.2552081292559699e+01 5.6264475258230782e+00 -1 0 0
1116 372 2 4.0999999999999998e-01 -1.3353594271140906e+01 -9.2527211583696669e+00 5.7492105281222727e+00 0 -1 1
2102 701 2 4.0999999999999998e-01 -7.2492675278955172e+00 -8.2483874700266160e+00 1.1708057854118081e+00 0 0 1
722 241 2 4.0999999999999998e-01 -1.1087388170426893e+01 -1.4195206947155256e+01 2.6262014240368394e+00 0 -2 -2
2476 826 1 -8.1999999999999995e-01 -1.0667636236353241e+01 -6.2214238636427783e+00 2.0054599674057094e-01 2 0 0
484 162 1 -8.1999999999999995e-01 -1.4325100207798020e+01 -8.3041475249053924e+00 2.9526497730971002e+00 0 -2 3
2592 864 2 4.0999999999999998e-01 -2.3595964935565998e+00 -1.1748651023743898e+01 1.8411648813939685e-01 1 1 3
2477 826 2 4.0999999999999998e-01 -1.1659234208112272e+01 -6.1374965124514489e+00 1.0197824024450952e-01 2 0 0
2462 821 2 4.0999999999999998e-01 -1.3863741586643036e+01 -1.4576374552971396e+01 3.3015892357985166e-01 0 1 2
1114 372 1 -8.1999999999999995e-01 -1.3994540254136453e+01 -9.1678220748795844e+00 6.5121039783450527e+00 0 -1 1
485 162 2 4.0999999999999998e-01 -1.4721051620285680e+01 -9.2215655379010997e+00 2.9127412365026863e+00 0 -2 3
1285 429 1 -8.1999999999999995e-01 -3.0606184515295727e+00 -5.9249120546916760e+00 5.3357394814913306e-02 -2 1 1
940 314 1 -8.1999999999999995e-01 -1.3428422527536018e+01 -1.1769583801551892e+01 7.2785758772634850e+00 1 0 2