2593
Atoms. Timestep: 1000000
O 0.512591 13.6619 -5.35685
H 0.418213 12.6715 -5.2562
H -0.362577 14.1022 -5.1563
O -5.39377 -13.5172 0.203468
H -5.42555 -12.5224 0.300972
H -4.70672 -13.8913 0.826333
O -2.58366 -5.13304 -9.814
H -2.98109 -5.11367 -10.7314
H -2.37184 -4.20013 -9.52275
O 14.1907 -4.48709 8.45252
H 14.4994 -3.88846 7.71336
H 13.5022 -5.1219 8.1018
O 2.44731 -14.602 -4.67308
H 2.33411 -14.1787 -3.77418
H 1.87501 14.5687 -4.73074
O 0.933185 -14.5561 1.13704
H 1.1529 -13.9685 1.91577
H 1.54992 14.6455 1.12898
O 12.0267 9.96651 -11.9336
H 11.9856 8.9755 -11.8063
H 12.9442 10.2938 -11.7076
O 6.61914 11.2943 -1.32481
H 6.51572 11.8933 -2.1189
H 6.00803 11.6002 -0.59475
O -13.8776 -7.73733 -0.729929
H -12.9109 -7.48817 -0.670993
H -14.3589 -7.39892 0.0786599
O -4.21472 1.51888 -12.1318
H -4.25364 0.598903 -12.5219
H -4.93012 2.08506 -12.5413
O -6.78401 -11.0584 -2.59676
H -6.54219 -11.848 -3.16073
H -6.12843 -10.9712 -1.84667
O -5.2761 -3.27914 -13.2115
H -5.61545 -3.52036 -14.1207
H -4.47303 -3.83513 -12.9971
O -0.454505 -2.24018 -5.07989
H 0.273025 -1.57957 -4.89467
H -1.06044 -1.87873 -5.78856
O 9.11573 -13.636 9.57992
H 9.30993 -14.214 10.3725
H 8.13792 -13.6711 9.37335
O -6.13581 -10.7019 0.541604
H -5.71013 -9.82615 0.769171
H -7.08732 -10.7 0.849228
O -3.90664 12.7076 2.89374
H -3.3896 12.6029 2.0442
H -4.86846 12.8782 2.67969
O -10.5575 -11.314 11.8386
H -10.5328 -11.4613 12.8274
H -10.2297 -10.3924 11.6306
O 4.44908 -7.51493 -12.4207
H 4.03895 -7.98021 -13.2051
H 4.61414 -8.17682 -11.6894
O 4.67219 -10.3184 -13.727
H 5.50576 -9.85905 -14.0338
H 4.0784 -10.4914 -14.5128
O -0.58382 1.95733 12.1702
H 0.0487761 2.01233 12.9427
H -1.49139 2.26092 12.4603
O 1.69119 3.33202 -14.3269
H 0.884991 3.92257 -14.2908
H 2.20443 3.416 -13.4727
O -12.4504 13.7909 0.0929751
H -13.1756 14.1672 0.66968
H -12.5483 12.7971 0.0404683
O -9.9422 12.2682 1.37539
H -10.7475 12.2976 0.783245
H -9.13833 12.0242 0.832935
O -12.7106 -9.25583 -11.1499
H -12.3345 -9.39507 -10.2339
H -12.7208 -10.1264 -11.6419
O 5.6288 -6.7413 11.3985
H 5.87227 -6.84873 12.3624
H 5.61961 -5.76938 11.1633
O -3.23323 10.1069 -14.3802
H -3.5834 10.8714 -13.839
H -2.23541 10.084 -14.3182
O -0.722973 -7.92904 5.83541
H -1.49213 -7.34893 5.56729
H -0.0836249 -7.39863 6.39211
O 5.78069 -2.40485 -4.12687
H 5.86125 -2.8227 -5.03182
H 6.35233 -2.90525 -3.47661
O -4.0711 -9.95779 -4.19966
H -4.38377 -9.91937 -3.25056
H -3.34847 -9.28098 -4.34019
O 13.3549 -9.2391 -3.69044
H 13.5585 -8.33746 -3.30884
H 13.9518 -9.41202 -4.47386
O 11.7727 -14.9737 -9.2956
H 10.8977 -14.6502 -8.93548
H 12.4992 -14.7694 -8.63947
O 6.63039 6.82111 -14.3138
H 6.46251 6.53811 14.7307
H 5.81007 7.25935 -13.9463
O -14.3021 12.8927 9.55168
H -13.4755 13.0684 10.0862
H 14.8816 13.1323 10.0943
O -8.81999 13.3425 -13.9052
H -8.09005 13.9113 -14.2842
H -8.47213 12.8357 -13.1164
O -12.7671 6.06422 -11.0375
H -12.0944 5.40922 -10.6932
H -12.8606 6.8186 -10.3878
O -5.85836 -8.91189 13.0957
H -5.99986 -8.99398 12.1092
H -5.40575 -8.04303 13.2964
O 9.13224 -2.03136 -10.3702
H 9.06359 -2.11396 -9.37602
H 9.62847 -1.19459 -10.6017
O -6.97849 -12.7136 4.70723
H -7.23031 -13.5908 5.11591
H -7.74237 -12.3684 4.16194
O -14.878 -9.38739 11.0234
H -14.3346 -9.33237 11.8611
H -14.3777 -9.91331 10.3355
O -14.2545 11.5952 13.3764
H 14.9247 12.1763 13.4587
H -14.4153 10.7302 13.8517
O -1.77365 5.64887 0.819302
H -2.40318 6.42585 0.821084
H -1.95056 5.07838 0.0172661
O -2.1441 14.2043 6.83471
H -1.43986 13.5676 6.52048
H -3.01344 13.9848 6.39191
O 0.986903 5.18527 2.08054
H 0.0388022 4.89766 1.94488
H 1.56648 4.3787 2.19695
O -4.93975 -3.44963 5.86901
H -5.16262 -2.56509 5.45923
H -5.18765 -3.44013 6.83776
O -4.98768 -5.84297 -8.33492
H -5.16458 -6.2455 -9.23308
H -4.11991 -5.34649 -8.35724
O 14.6379 -1.10016 6.79507
H 13.6693 -1.31479 6.66961
H -14.802 -1.91486 6.60797
O 0.984719 -6.30779 7.08065
H 1.36672 -5.67484 6.40725
H 1.69324 -6.56135 7.73923
O -4.17622 1.97867 1.28352
H -4.86123 2.63509 1.59958
H -4.35192 1.08683 1.70036
O 7.64452 -3.23069 -12.9639
H 7.41264 -4.19586 -13.0852
H 7.57375 -2.98996 -11.9959
O 6.32167 -13.5673 9.18108
H 6.04748 -12.7989 8.60286
H 6.16724 -13.3338 10.1411
O -14.285 -3.63566 -9.20397
H 14.8508 -3.11455 -9.17375
H -13.5505 -3.09689 -8.79145
O 13.5528 0.368374 -8.58678
H 13.6385 -0.553354 -8.96504
H 13.3241 1.0094 -9.31947
O 9.025 -7.53236 -13.5047
H 9.58968 -8.30017 -13.2021
H 9.61457 -6.77122 -13.7751
O 14.2397 14.3655 -11.9845
H 13.8373 13.7596 -12.6707
H 14.5008 -14.7592 -12.4148
O -6.57254 14.0338 14.9039
H -6.26281 14.0155 13.9532
H -5.99106 13.4357 -14.5334
O 5.6585 10.9758 4.99063
H 5.78762 10.1757 5.57652
H 5.99564 11.7913 5.46104
O 9.5598 11.6981 8.88122
H 9.8585 12.6096 8.59851
H 8.62444 11.5407 8.56445
O -1.84298 4.62977 10.2901
H -0.907895 4.29245 10.1813
H -2.00769 5.37116 9.6395
O 1.42965 7.49698 0.704327
H 1.37879 6.60108 1.14567
H 2.03679 7.444 -0.0885074
O -7.65228 -8.422 -5.73803
H -7.30352 -8.25346 -4.81609
H -6.90803 -8.32494 -6.39886
O 11.7044 -12.5045 8.94543
H 10.8967 -12.8723 9.40632
H 12.013 -11.6805 9.42053
O -9.00856 9.54709 -9.01313
H -9.60052 9.22535 -8.27416
H -8.15709 9.02266 -9.01044
O 12.0547 -3.1373 3.85163
H 12.2151 -3.85855 4.5255
H 12.6652 -3.26911 3.07065
O 9.4052 -1.28226 7.09419
H 8.94952 -0.489553 6.68924
H 9.36266 -1.21788 8.09121
O -7.50417 11.5385 -5.69429
H -7.94064 12.2146 -6.28791
H -6.60862 11.296 -6.06741
O 0.807092 0.211322 10.695
H 0.831024 0.620803 9.78299
H 0.35447 0.837583 11.3298
O -10.0515 10.6318 8.73042
H -10.0462 11.4718 8.18785
H -9.17361 10.5319 9.19871
O -5.10854 -11.636 -6.46273
H -5.91747 -11.0969 -6.6971
H -4.76164 -11.3461 -5.57078
O 1.53318 -4.0776 13.7844
H 1.06847 -3.21956 13.5657
H 2.13779 -4.3311 13.0293
O 4.11882 8.66999 13.6999
H 4.982 8.6143 14.2017
H 4.29911 8.60521 12.7184
O -1.34174 12.4687 -9.91448
H -2.33823 12.4967 -9.8355
H -1.01916 13.3038 -10.3601
O 7.78834 -11.8047 14.0824
H 7.56382 -10.8444 13.9168
H 8.75337 -11.883 14.3327
O -5.41955 -1.82582 -6.97834
H -6.06348 -1.38123 -6.35568
H -5.50569 -1.4237 -7.88987
O 12.5231 -1.48821 0.84039
H 13.2393 -0.797585 0.940657
H 12.8853 -2.38393 1.09827
O -5.67379 13.2156 0.170436
H -6.12954 13.4225 1.03615
H -6.20588 13.5964 -0.585759
O -3.6153 2.03135 -1.52472
H -2.89552 1.56533 -2.03927
H -3.60892 1.71065 -0.577554
O -3.38652 -3.17662 -5.51623
H -2.71724 -2.50645 -5.8371
H -4.30897 -2.80837 -5.63237
O 6.04112 -2.63855 7.12721
H 6.69992 -3.29232 7.49948
H 5.82473 -1.95169 7.82104
O 7.84106 -1.70261 13.8825
H 7.86093 -2.11459 12.9715
H 8.61673 -2.03816 14.4171
O 8.49306 -10.3384 6.68978
H 8.63287 -10.1563 7.66307
H 8.45371 -11.326 6.53777
O 6.43106 -7.26855 5.49268
H 5.49356 -7.54068 5.27579
H 6.75074 -7.78048 6.29002
O 10.9369 -5.57593 7.28822
H 9.99618 -5.34052 7.04381
H 11.5292 -5.45148 6.49217
O -2.87506 5.30912 12.6995
H -3.05644 6.2904 12.6345
H -2.54209 4.97268 11.8186
O 6.18751 -6.06262 3.11711
H 6.35488 -6.52419 3.98829
H 6.10287 -6.74377 2.38987
O 3.36235 -1.59963 -2.62278
H 4.13554 -1.96046 -3.14432
H 3.69734 -0.965998 -1.92543
O 5.52107 -0.0422179 -5.46297
H 5.53419 -0.889593 -4.93213
H 5.95626 -0.197681 -6.3498
O 9.89042 9.88127 -14.9533
H 9.50829 9.79237 -14.0334
H 9.99226 10.85 14.8091
O -8.96065 6.72606 0.214302
H -9.13148 6.09903 -0.545745
H -9.06562 7.66906 -0.101517
O 7.99652 -0.0770105 -2.70052
H 7.92053 0.256116 -1.7607
H 8.49458 -0.944133 -2.70755
O -11.1321 0.0748763 -11.5391
H -10.2212 0.336303 -11.2198
H -11.1998 -0.922244 -11.5735
O 2.89512 1.00194 -7.60876
H 2.1262 1.23755 -7.0144
H 3.74917 1.30141 -7.18339
O -5.11991 14.6388 -5.56837
H -4.98324 14.4954 -4.58819
H -4.24683 14.5366 -6.04512
O 0.0173077 -10.9135 -13.227
H -0.335698 -9.98013 -13.2923
H 0.186045 -11.271 -14.1455
O -14.4293 -9.24656 -5.49765
H -14.2447 -8.34567 -5.89051
H 14.9552 -9.75885 -6.10791
O 5.18434 -11.3051 5.34647
H 4.20571 -11.1006 5.3685
H 5.56085 -11.2327 6.27006
O 14.7851 1.1111 -12.8748
H -14.5465 0.414032 -12.5883
H 14.3526 0.829457 -13.7314
O 7.65277 12.6213 12.7342
H 6.83618 13.1005 13.0561
H 7.39678 11.7146 12.3989
O -4.61993 13.8757 5.24292
H -5.57306 14.165 5.15428
H -4.35262 13.3557 4.43167
O -2.12785 8.44536 9.25535
H -2.16842 9.40692 8.98373
H -1.54747 7.94231 8.61495
O -8.98512 11.2426 -3.51465
H -8.58063 11.2816 -4.42837
H -9.88821 11.6718 -3.53135
O -4.88281 13.8922 7.81598
H -4.35967 14.6493 8.2074
H -5.00973 14.0463 6.83609
O 5.08416 -2.70557 4.61217
H 5.54414 -2.73305 5.49968
H 5.2205 -1.80759 4.19376
O 7.66892 4.39424 -12.2538
H 8.48681 4.90386 -11.9866
H 7.60924 3.55371 -11.7153
O -14.7225 -0.650119 -0.358153
H 14.7028 0.00870414 -0.856608
H -14.8159 -1.55316 -0.777448
O -4.16962 -6.20092 8.9647
H -4.97341 -6.33345 9.54468
H -3.59288 -7.01697 9.00284
O -13.5671 -13.0941 11.567
H -14.3381 -13.4606 11.0462
H -12.7108 -13.3424 11.114
O 0.144636 -13.4789 -3.18308
H 0.950382 -13.8489 -2.7206
H -0.235528 -12.7291 -2.64156
O 4.63977 -2.58165 13.3632
H 4.86967 -3.2378 12.6444
H 4.84611 -1.6555 13.0474
O 0.0988382 -9.60783 3.81809
H -0.103122 -8.84725 4.43513
H -0.680079 -10.2346 3.79548
O 11.7244 -8.07807 -12.8415
H 12.0747 -7.23725 -12.4288
H 12.4015 -8.44309 -13.4804
O -6.53665 -3.92838 2.8133
H -7.50218 -4.1868 2.7818
H -6.36203 -3.3916 3.63876
O -1.46424 2.41985 8.09191
H -2.09552 3.06121 8.52797
H -1.98314 1.7533 7.55668
O -13.0398 -12.1862 -4.77891
H -13.4684 -12.7735 -5.46541
H -13.4781 -11.2874 -4.78863
O 9.67803 -1.07279 1.41219
H 9.5277 -1.41216 2.34076
H 10.6563 -1.08994 1.20534
O -7.49907 11.5063 -11.9929
H -7.8943 11.9911 -11.2126
H -6.90768 10.7704 -11.6633
O -0.0754218 12.7599 6.33147
H 0.0813584 11.7982 6.10661
H 0.779987 13.1728 6.64416
O 5.12551 -4.13652 -14.3916
H 4.7702 -3.76459 14.7396
H 6.00506 -3.70932 -14.1821
O -13.5555 1.86847 -4.64286
H -14.398 2.36537 -4.85128
H -13.2136 1.42895 -5.47348
O -2.3428 -6.17797 4.42282
H -2.09289 -5.23619 4.19788
H -3.27713 -6.19898 4.77862
O 4.71772 -7.72241 0.139125
H 5.39722 -8.04214 0.799475
H 3.87828 -7.46995 0.62039
O 2.2514 -4.78802 10.8888
H 2.20253 -3.86518 10.5067
H 1.34899 -5.21636 10.842
O -11.5721 -10.0505 -8.76418
H -11.2085 -10.7703 -8.17282
H -11.3293 -9.15612 -8.38844
O 11.9753 -3.98339 -2.62858
H 12.9702 -3.96265 -2.7271
H 11.5736 -4.46988 -3.40445
O -9.89425 -0.943397 4.54756
H -9.89375 -0.768688 3.56294
H -9.2437 -1.67345 4.75688
O -13.0029 -1.01181 2.42642
H -13.4374 -0.526987 3.18547
H -13.5242 -0.853597 1.58783
O -4.10695 -14.5134 -2.75363
H -3.96338 -14.2574 -1.79767
H -5.06932 -14.3838 -2.99249
O 14.933 -7.14735 6.37387
H 14.7351 -7.55794 7.26398
H 14.5956 -7.74675 5.64795
O 5.40537 -13.5435 14.9078
H 4.57906 -13.0232 14.6921
H 6.20566 -12.9508 14.8169
O 13.2668 3.71134 5.547
H 13.7982 2.86429 5.55347
H 12.6877 3.73526 4.73209
O -12.7138 1.38441 3.90095
H -12.4498 2.14587 3.30895
H -12.2024 0.565869 3.63923
O -4.02371 11.3817 -10.3808
H -4.73862 10.6827 -10.3669
H -3.12728 10.9409 -10.4265
O -11.8444 11.4192 -11.0643
H -11.425 10.5133 -11.1227
H -12.3354 11.6146 -11.9133
O -12.3004 -12.659 1.27462
H -12.1247 -11.8374 0.732229
H -11.7022 -13.3977 0.963981
O 10.5184 3.97176 -11.4241
H 9.93119 3.27582 -11.0108
H 10.9348 4.52695 -10.7042
O 14.5297 -14.3043 10.0245
H 14.8956 -14.3132 9.0939
H 13.6624 -14.8017 10.0465
O 9.78298 6.25304 9.03462
H 10.0126 5.45427 9.59074
H 10.6228 6.72535 8.76692
O 1.81723 5.05886 7.5593
H 2.18233 5.95783 7.31731
H 0.945073 4.91631 7.09128
O 2.41052 -2.20452 -10.8144
H 3.0821 -2.7115 -10.2741
H 2.37252 -2.58307 -11.7392
O 0.240353 -10.6168 -1.08897
H -0.616306 -10.5407 -0.578723
H 0.609524 -9.70306 -1.25874
O 3.65243 7.612 3.49627
H 2.8167 7.71477 2.95682
H 3.49763 7.9611 4.42049
O -14.6074 -3.63166 6.05295
H -13.6505 -3.92153 6.03541
H 14.9273 -3.92983 5.21334
O 6.13871 2.73732 7.76176
H 6.83487 2.20687 8.2455
H 5.97829 2.33371 6.861
O -14.9256 9.59028 -14.7974
H -14.5821 8.67874 -14.5713
H 14.0642 9.59004 -14.7548
O -9.15276 13.5294 -6.93924
H -9.3276 12.9234 -7.71524
H -8.44377 14.1902 -7.18552
O -4.97277 4.62997 -6.59218
H -5.03 4.64011 -7.5905
H -4.33894 3.91302 -6.30191
O -8.48714 -3.31708 5.64087
H -8.52652 -4.0294 6.34163
H -7.56648 -2.92771 5.61276
O 10.3767 12.7717 4.17067
H 11.0937 13.1082 3.5602
H 10.4552 11.779 4.26177
O -14.3264 -6.30597 -8.26054
H -14.269 -5.3409 -8.51622
H -14.9194 -6.78717 -8.90614
O 2.72244 10.2851 -0.393857
H 3.00396 9.35847 -0.642942
H 2.87337 10.899 -1.16874
O -14.4365 -0.772166 -3.92163
H -14.2382 0.0904864 -4.38698
H 14.7646 -1.21085 -4.35412
O 6.60763 -4.39823 -10.1375
H 6.39091 -4.76135 -9.23128
H 6.78195 -5.1554 -10.767
O 1.26691 -5.84928 -1.00265
H 0.613387 -5.26508 -0.521366
H 1.09075 -6.8064 -0.772635
O -9.60078 -6.25897 0.834688
H -10.0949 -7.09878 1.05968
H -9.83352 -5.54751 1.49776
O 12.2496 11.1193 -1.6397
H 13.1758 11.2252 -1.27781
H 12.0142 10.148 -1.67369
O 12.9773 1.29402 8.11565
H 13.9662 1.42825 8.05122
H 12.712 0.501541 7.56647
O 11.8664 6.60287 3.19899
H 10.9315 6.78456 3.50398
H 12.0613 7.14426 2.38112
O 9.43676 -9.89801 -0.961852
H 10.0577 -10.3933 -0.354334
H 9.9686 -9.37951 -1.63142
O 10.6546 9.55028 12.3538
H 10.5116 9.56171 13.3434
H 9.85776 9.144 11.9066
O 2.34206 9.1562 5.99791
H 1.34422 9.13322 5.93631
H 2.67342 10.0536 5.70664
O -8.29885 -14.6625 -11.1488
H -8.61918 -14.3858 -10.2428
H -9.01463 14.8015 -11.6095
O 6.32773 0.240586 -14.5822
H 6.76002 -0.6052 -14.895
H 5.37396 0.258131 -14.8823
O -13.9752 -12.8145 3.34109
H -13.8074 -12.097 4.01711
H -13.2583 -12.7903 2.64435
O 10.7327 -12.671 -5.18395
H 10.0256 -13.2747 -4.81574
H 10.3118 -11.9945 -5.78819
O -14.7742 5.25719 6.86468
H 14.8702 6.19407 6.92488
H 14.4476 4.62725 6.74271
O 6.21438 6.83515 -0.626607
H 5.963 6.09128 -1.24587
H 6.22531 6.49633 0.31419
O 3.74055 4.23785 5.29587
H 4.32419 4.9648 5.65772
H 3.75079 3.45897 5.92298
O 12.133 12.1593 -9.41705
H 12.1679 11.6826 -10.2955
H 11.9483 13.1298 -9.57153
O 7.9223 13.0237 2.78485
H 8.78368 13.1027 3.28664
H 7.19722 13.4897 3.29189
O -12.3996 2.26723 -12.2214
H -13.2696 2.16286 -12.7034
H -12.0489 1.36577 -11.9678
O -2.57467 -11.3019 -0.710604
H -3.50082 -10.9331 -0.631544
H -2.41432 -11.6014 -1.65114
O -2.84974 2.78688 13.5937
H -2.48838 2.74117 14.525
H -3.08486 3.73358 13.3735
O -11.5606 -3.24424 2.03075
H -12.079 -2.42946 2.29056
H -11.267 -3.1628 1.07831
O -6.06342 1.04628 5.48813
H -5.64602 1.65938 4.81739
H -7.03337 1.26934 5.58537
O -10.2148 -7.07072 -11.0423
H -9.85022 -7.80325 -11.6172
H -10.3801 -7.42143 -10.1205
O -1.05515 -5.44913 14.094
H -1.02791 -5.10743 -14.9554
H -0.368732 -4.97157 13.5456
O 14.0692 -6.4846 -2.62374
H 14.8345 -6.63166 -1.99709
H 14.3711 -5.9197 -3.39171
O 3.40623 -4.22497 6.01806
H 2.85371 -4.41853 5.20734
H 4.19464 -3.66716 5.7587
O 0.934331 1.88351 -5.95315
H 0.700104 2.29643 -5.07301
H 0.846335 2.56832 -6.67656
O 2.64977 -7.27624 9.0759
H 2.67607 -6.62475 9.83411
H 3.53012 -7.74588 9.00929
O 11.7801 3.78149 3.12334
H 12.6668 3.61591 2.69163
H 11.5908 4.76339 3.13
O -0.154056 -8.09689 -2.09633
H -0.770973 -7.76173 -1.38423
H -0.637679 -8.12271 -2.97124
O -2.18497 -11.0757 3.29061
H -3.02576 -11.2816 3.79128
H -1.93485 -11.8597 2.72243
O -3.04997 10.3285 4.24926
H -3.33209 11.1416 3.74008
H -2.82112 9.59628 3.60778
O -6.83765 7.6678 -8.90909
H -6.91089 6.70064 -9.15252
H -6.23729 7.76725 -8.11556
O -8.15742 -6.90346 4.91741
H -8.02642 -6.70829 5.8894
H -8.35972 -6.05343 4.43107
O 10.7891 -5.22858 -14.2789
H 11.7097 -5.359 -13.9109
H 10.7357 -4.34109 -14.7367
O -9.34278 -1.57572 11.559
H -9.28786 -0.789927 12.175
H -8.4834 -1.66527 11.0555
O -3.04111 0.383866 7.27836
H -4.03579 0.389199 7.38123
H -2.80417 0.547653 6.32073
O -5.69477 14.5598 -10.1747
H -6.44594 14.7658 -10.8019
H -4.83123 14.5554 -10.679
O -4.65697 -3.40042 8.77812
H -5.27806 -2.85573 9.34166
H -4.73622 -4.36461 9.03125
O 2.76729 -10.8419 -3.37542
H 2.06686 -10.9832 -4.07502
H 2.34505 -10.8751 -2.46953
O -11.1852 4.63315 -13.5097
H -10.4776 5.24958 -13.1644
H -11.7944 4.37215 -12.7608
O 9.06952 14.6059 11.6859
H 8.54076 13.8406 12.053
H 9.91381 14.7103 12.2116
O -0.555989 11.6931 14.719
H 0.442663 11.6519 14.7509
H -0.888458 11.1355 13.9584
O -5.90549 9.18525 -11.2239
H -5.06531 8.64376 -11.254
H -6.67091 8.5985 -10.9596
O -1.54549 1.01605 -3.32973
H -1.50371 0.638094 -4.25462
H -0.753443 1.60657 -3.17488
O -7.75597 -8.4951 -3.04192
H -8.70592 -8.60547 -3.33418
H -7.45203 -9.32589 -2.57562
O 0.71877 -11.2331 -5.36333
H 0.815004 -10.4949 -6.03106
H 1.09422 -12.0781 -5.74417
O -7.95215 13.1455 8.23625
H -7.63296 12.8436 9.13458
H -8.30875 14.0772 8.30501
O -7.95748 -14.515 -0.472975
H -7.0504 -14.0998 -0.403535
H -7.94366 14.7575 -1.17064
O 14.3707 6.09029 -10.3631
H 14.7666 7.0079 -10.3271
H -14.9506 5.4259 -10.0268
O 12.2773 7.04815 -12.0469
H 12.025 6.19887 -12.5106
H 13.0662 6.88303 -11.4549
O 7.50542 -4.12678 -2.6483
H 8.25752 -3.67342 -2.16994
H 6.97554 -4.67008 -1.9971
O -6.62128 -3.8858 -3.92509
H -6.26475 -4.75756 -3.58902
H -6.90605 -3.98738 -4.8783
O -2.97002 6.6484 -8.3346
H -3.10006 7.32815 -9.05643
H -3.39446 5.7855 -8.60896
O -6.22397 13.0529 10.5126
H -6.03184 13.6015 11.3264
H -5.55918 13.2719 9.79842
O -7.2851 10.7441 0.738003
H -6.85538 10.027 1.28676
H -6.67368 11.5335 0.683402
O 4.89309 -10.7265 -5.26033
H 5.3341 -11.6032 -5.06828
H 4.02154 -10.6778 -4.77243
O -3.43608 -12.8763 -8.33581
H -2.95691 -13.6534 -7.92782
H -4.12338 -12.5346 -7.69479
O -9.12131 1.00579 -3.88982
H -9.05562 1.18824 -2.90879
H -8.68988 1.75173 -4.39721
O -0.151815 -6.0086 11.3187
H -0.774638 -5.88338 10.5464
H -0.580889 -6.60144 12.0002
O -14.0461 4.27296 -8.69878
H -14.7932 4.59229 -8.11575
H -13.7695 3.3553 -8.41346
O -8.45958 -1.32049 -0.0622459
H -7.7502 -1.39436 -0.763209
H -9.20088 -1.95882 -0.269651
O -6.22834 4.62982 11.4394
H -7.01384 5.04162 11.9013
H -6.01965 3.74682 11.8598
O 3.03522 -12.2332 14.4615
H 2.07398 -12.47 14.3203
H 3.38307 -11.7563 13.6543
O -1.85472 -10.6281 -8.19966
H -1.7897 -10.2234 -7.28753
H -2.3986 -11.466 -8.15451
O -13.8737 2.44702 -0.799462
H -13.3768 3.25079 -1.1267
H -14.6723 2.28946 -1.38039
O -2.62824 3.54037 3.6188
H -2.44742 4.30631 4.23578
H -2.46918 3.82834 2.67445
O 13.4882 -10.9749 -9.72116
H 14.377 -11.1998 -9.32186
H 13.3136 -11.5724 -10.5037
O -10.5998 3.23359 -9.96599
H -11.1756 2.81157 -10.6663
H -10.8486 2.87185 -9.0675
O 14.8555 9.44491 -2.56105
H 14.2234 9.83417 -3.23108
H -14.4618 8.87138 -3.03027
O 5.2401 4.04473 11.8268
H 4.70484 4.05883 10.9822
H 4.64617 3.80196 12.5938
O -14.139 1.78906 9.02171
H -13.3363 1.49345 8.5038
H -14.2982 1.15648 9.77969
O 10.923 -13.9871 -0.225128
H 10.4601 -13.2876 0.319343
H 11.6455 -13.5615 -0.769834
O -10.338 5.45268 -1.82944
H -10.7692 6.34887 -1.72497
H -10.9843 4.73846 -1.56069
O -9.17024 -0.489731 -8.03897
H -9.90471 -0.263548 -7.39911
H -8.84183 -1.41627 -7.85541
O -1.63505 -12.3176 8.66915
H -2.53321 -12.4539 9.08716
H -1.63702 -11.4658 8.14529
O -1.92689 -0.52892 -6.66717
H -2.79285 -0.482986 -7.16519
H -1.49163 0.37138 -6.67168
O -1.70692 0.466265 -11.0971
H -1.53507 1.36643 -10.6969
H -2.50229 0.516401 -11.7012
O 4.88514 2.62286 -6.37345
H 5.58709 2.17702 -5.81803
H 5.31518 3.29061 -6.98105
O 5.19508 8.90643 -2.87099
H 5.76814 8.39675 -3.51275
H 5.75624 9.23452 -2.11108
O -10.288 2.43997 -7.05189
H -10.2282 3.11336 -6.31501
H -10.6648 1.58593 -6.69318
O 7.02844 14.47 7.43851
H 6.69171 -14.9169 8.16256
H 7.0515 13.5276 7.77235
O 2.20516 12.0819 -14.4603
H 2.97907 11.5656 -14.0936
H 2.25315 13.0277 -14.139
O 3.15552 7.23149 -1.58891
H 4.03914 7.58607 -1.89468
H 2.55907 7.09565 -2.38
O 1.97614 8.20546 -14.2624
H 1.07563 8.05214 -14.6693
H 2.54191 8.73469 -14.8948
O 7.6483 1.11766 12.8968
H 7.69312 1.24939 13.8871
H 7.84621 0.16208 12.6784
O 13.8439 -12.512 1.73703
H 14.2685 -12.0285 0.971556
H 14.5545 -12.9328 2.30083
O 7.39394 3.11105 2.78468
H 6.53186 2.82294 2.36775
H 8.07046 2.38072 2.68998
O 12.9205 10.0234 -4.3986
H 12.3946 10.5166 -3.70562
H 12.829 10.4878 -5.27951
O -9.34742 -12.4308 3.49328
H -9.66605 -13.0241 2.75407
H -9.10464 -11.5351 3.12061
O -7.21561 14.2147 5.77576
H -7.22298 13.8838 6.71944
H -7.90682 13.724 5.24517
O -10.5128 -4.10868 9.37542
H -11.3292 -3.5878 9.12591
H -10.7681 -5.05603 9.56878
O -0.0840544 13.6102 -12.1655
H 0.390621 13.9114 -12.9926
H 0.261008 12.7125 -11.8914
O -4.70457 1.56362 -9.13572
H -4.35577 0.713356 -9.52993
H -5.54455 1.37514 -8.62688
O 2.41945 9.1065 9.59572
H 1.61581 9.57012 9.96887
H 2.17943 8.66901 8.72911
O 12.4577 14.7659 5.68857
H 13.1536 14.5501 5.00362
H 11.7343 14.0761 5.65766
O 14.4268 9.10345 0.331305
H -14.8043 9.58224 0.774681
H 14.4691 9.25483 -0.656272
O 4.71282 8.59917 10.9966
H 3.81101 8.87439 10.6634
H 5.13651 7.97811 10.3372
O 14.9436 -7.46074 2.12466
H -14.7023 -8.23835 2.65166
H 14.0752 -7.15203 2.5128
O 13.1808 -13.2996 -4.02218
H 12.3404 -13.1519 -4.54361
H 13.2931 -14.2765 -3.84057
O -6.6302 -4.27556 -6.6708
H -6.3676 -5.0782 -7.20636
H -6.1661 -3.46703 -7.03261
O 0.626116 -10.8747 -9.79732
H 0.0165757 -11.1355 -10.5459
H 0.0819651 -10.614 -8.99983
O 12.5458 -6.4647 2.70466
H 12.2263 -5.96235 1.90119
H 12.2781 -7.42496 2.6256
O 1.97482 -8.48577 1.55041
H 2.29843 -7.68153 2.0489
H 1.27503 -8.95337 2.09046
O -11.8045 -10.2255 -0.444813
H -12.0575 -9.7652 -1.29578
H -11.0269 -10.8316 -0.612103
O -7.01671 -0.734519 2.09386
H -7.42218 -1.27389 1.35583
H -7.36233 0.202855 2.05032
O 3.13574 3.65036 -12.0244
H 4.02856 4.06199 -11.8415
H 3.09793 2.73976 -11.6128
O -8.88903 4.08211 3.81041
H -8.98303 4.29569 4.78282
H -9.79308 4.06873 3.38318
O -12.1975 1.66385 6.62383
H -12.4669 2.57438 6.93745
H -12.1657 1.65142 5.6244
O -11.0515 -7.33941 5.84638
H -10.3163 -7.88004 6.25524
H -10.6588 -6.57067 5.34153
O 13.5152 9.62089 5.13058
H 12.7382 10.246 5.05675
H 14.3335 10.0611 4.76092
O 6.04746 6.2552 2.2385
H 5.36854 6.87881 2.62606
H 5.80694 5.31325 2.47278
O 13.4048 -3.54887 14.4465
H 13.0399 -2.77127 13.9345
H 13.3277 -4.37816 13.893
O 8.57702 -10.3626 9.68392
H 8.30478 -11.1858 10.1822
H 9.14529 -9.78868 10.2736
O -10.3654 7.89803 10.7125
H -10.7925 8.73914 10.3805
H -10.3406 7.90888 11.7121
O 2.32818 -14.0437 -1.72689
H 3.07606 -14.6909 -1.57945
H 1.97369 -13.7371 -0.84352
O -1.24551 -1.5121 5.43122
H -1.42412 -0.602814 5.0553
H -0.864928 -1.42337 6.35171
O -0.628018 -13.2735 5.77656
H -0.533265 -14.157 6.23524
H -1.58547 -13.1285 5.52705
O 10.1893 -11.8813 -14.6583
H 10.045 -11.4978 -13.7461
H 10.814 -12.6598 -14.5976
O -3.17093 -6.6063 -2.0802
H -2.74353 -6.91536 -1.2306
H -2.47943 -6.18537 -2.66727
O 10.7135 -10.7582 -12.0246
H 11.4006 -11.4847 -12.0242
H 11.1616 -9.8757 -12.1677
O -6.6114 -14.5232 12.3872
H -6.55497 -14.0953 11.4851
H -6.63356 -13.8138 13.0918
O 0.354316 2.74662 -3.46883
H 1.10289 2.70915 -2.80682
H -0.0760288 3.64864 -3.43465
O -2.96028 -8.39825 -10.5752
H -1.98782 -8.3327 -10.3516
H -3.50113 -8.3154 -9.73819
O 5.17761 -14.6792 -12.7245
H 4.31433 14.8444 -12.9202
H 5.3599 -14.0013 -13.4367
O -4.01031 -3.11069 -0.425104
H -4.88711 -2.64064 -0.526522
H -3.58887 -3.22771 -1.32439
O 0.247042 6.12293 -8.66472
H 0.889407 6.88843 -8.70208
H -0.655901 6.45833 -8.39598
O 6.95375 -13.5189 12.0583
H 7.35788 -14.4328 12.096
H 7.40599 -12.9267 12.7253
O -6.55986 6.78076 9.48352
H -5.90971 6.74622 8.72449
H -6.48813 5.94137 10.0223
O -7.90124 -3.60881 8.43741
H -7.52707 -2.71808 8.6955
H -8.87206 -3.64395 8.67466
O -4.9736 12.5367 -13.2524
H -5.8814 12.1361 -13.1284
H -4.63853 12.8809 -12.3753
O -0.176358 -4.64942 -6.42138
H -0.270061 -3.837 -5.84587
H 0.663509 -5.13486 -6.17852
O -4.72285 -5.96771 6.23317
H -4.46127 -6.02711 7.19653
H -4.68092 -5.01425 5.93458
O 2.84103 12.5109 0.950867
H 2.68907 11.6532 0.459569
H 3.82313 12.6866 1.01878
O 4.71908 0.165038 3.58567
H 4.98 0.719996 2.79576
H 3.79389 -0.190307 3.45238
O -12.2685 -6.20896 11.8768
H -11.9766 -6.97732 12.4463
H -11.8561 -6.29105 10.9695
O 0.660632 10.8225 -5.01246
H -0.161615 10.8006 -4.44374
H 1.39756 10.3274 -4.5522
O 11.1648 -5.7942 -4.45586
H 11.3595 -6.31691 -5.28585
H 10.6075 -6.34738 -3.83663
O -4.20786 -0.30967 2.60883
H -3.88891 -1.22587 2.3662
H -5.20112 -0.263471 2.50245
O -7.81936 2.58879 13.0597
H -8.20617 2.6302 12.1385
H -6.84612 2.3661 13.0029
O -10.7585 8.27694 -7.3102
H -11.2682 8.98894 -6.82723
H -11.3213 7.45333 -7.38015
O 3.72572 -8.66511 -6.65163
H 4.18044 -9.55126 -6.56234
H 4.32503 -7.946 -6.29988
O 6.75536 11.4289 7.88836
H 6.05053 11.3439 8.59263
H 6.98366 10.522 7.53409
O 14.8502 -2.76827 11.1765
H 14.6549 -3.30365 10.3547
H -14.3916 -3.19743 11.6842
O 12.0716 -7.53441 -6.57424
H 12.5685 -8.40222 -6.57194
H 11.0981 -7.70815 -6.7229
O -7.30188 13.3054 -2.03769
H -7.67649 13.6018 -2.91624
H -7.46486 12.3259 -1.91922
O -14.3518 -4.75383 -11.64
H -13.4786 -5.07625 -12.0055
H -14.2343 -4.4861 -10.6837
O -9.28818 -6.42368 12.6384
H -8.31443 -6.36669 12.8589
H -9.75746 -5.61359 12.9899
O 5.50479 -11.653 2.50631
H 5.7401 -11.4711 3.46107
H 4.52673 -11.4967 2.36848
O 13.1231 -5.37724 5.26806
H 13.1341 -5.82918 4.37607
H 13.7572 -5.84277 5.88543
O 1.44645 11.2713 3.09367
H 1.81616 11.7303 2.28581
H 2.05823 11.4199 3.87063
O -3.24355 -7.65389 -13.1065
H -3.98445 -8.17773 -13.5269
H -3.04579 -8.02522 -12.1993
O -4.42032 4.41187 -9.39131
H -4.64031 4.96676 -10.1936
H -4.5967 3.44858 -9.59372
O -8.51384 6.33756 13.0649
H -9.15162 5.56735 13.07
H -9.00154 7.17579 13.3089
O -6.68004 11.3735 6.42781
H -7.00368 11.9958 7.14056
H -7.44467 10.8218 6.09465
O -3.51292 11.5022 8.60927
H -3.81477 10.7762 7.99138
H -3.97106 12.3576 8.36746
O 1.56809 -0.43953 -4.64676
H 2.05145 -0.507246 -3.77395
H 1.40702 0.52304 -4.86477
O 2.90543 11.7685 5.36014
H 2.77763 12.5457 5.97624
H 3.82604 11.7996 4.97087
O -6.42718 -12.7016 10.3586
H -6.75915 -11.8389 10.7401
H -6.98351 -12.9516 9.56613
O 7.23566 -11.1449 -2.13483
H 7.92723 -10.5712 -1.69602
H 6.36873 -10.6483 -2.17748
O 10.7276 -9.40418 -4.18046
H 11.7186 -9.41759 -4.04763
H 10.4515 -10.2057 -4.71086
O -1.76888 -1.5818 -14.7188
H -1.24686 -1.74906 -13.8824
H -1.14547 -1.5499 14.4888
O -12.6991 -10.7616 9.29407
H -12.2361 -11.403 9.90574
H -13.313 -11.2649 8.68599
O -14.0984 8.76873 -9.99847
H -13.2502 8.93208 -10.5024
H -14.8102 9.38497 -10.3354
O 10.1948 13.0195 -11.9635
H 10.1005 13.9974 -11.7769
H 9.28825 12.6125 -12.0752
O 9.68193 10.4402 -7.87471
H 9.22845 11.1834 -7.38273
H 9.17596 10.2381 -8.71326
O 3.11328 -12.5565 9.14637
H 2.93714 -13.5335 9.26669
H 2.73104 -12.0511 9.92001
O -11.3865 13.8474 9.66994
H -11.7253 14.778 9.80856
H -10.469 13.7653 10.0591
O 3.00427 -1.9392 7.60692
H 3.33132 -2.72079 7.07573
H 3.70683 -1.66509 8.26364
O -10.3544 -11.986 -3.99352
H -11.3212 -12.1827 -4.15654
H -10.019 -12.5593 -3.24592
O 14.5878 4.28243 -13.7253
H 13.5985 4.31337 -13.8681
H 14.8944 3.3306 -13.7217
O 0.705896 1.06011 4.29088
H 1.08645 1.10641 5.21449
H -0.291863 1.01823 4.3432
O 2.77314 -5.64886 -11.0977
H 3.38111 -5.57306 -10.3073
H 3.19986 -6.22825 -11.7921
O 5.41735 -0.165685 -11.6131
H 5.95435 -0.0884974 -12.4531
H 4.49787 -0.490937 -11.8339
O -10.916 -14.8769 14.8724
H -11.301 14.619 14.0921
H -10.0369 14.7061 -14.8666
O 1.87543 -13.2231 -6.99795
H 1.26184 -13.8214 -7.51324
H 2.13278 -13.6685 -6.14038
O 11.6868 4.34389 -14.0914
H 10.8958 4.7794 -14.5212
H 11.3751 3.71849 -13.376
O 8.95302 -4.56696 0.386843
H 8.57632 -4.1351 1.20636
H 8.58164 -5.49103 0.296366
O -4.41195 -1.1396 11.6792
H -3.91834 -1.54423 12.449
H -3.78717 -1.0224 10.9072
O 13.4896 1.21422 -1.2441
H 13.0273 1.76825 -0.551806
H 12.8188 0.641441 -1.71521
O -6.65776 13.237 2.71206
H -6.72356 14.1956 2.98933
H -7.30418 12.6908 3.24482
O 6.66225 -11.2736 -7.77465
H 6.13289 -11.2744 -8.62306
H 6.05326 -11.0944 -7.00197
O -12.7254 -7.82521 -13.7913
H -12.5183 -6.8482 -13.7409
H -13.1935 -8.11031 -12.9549
O -11.481 2.80651 -3.09379
H -12.3082 2.41775 -3.49944
H -10.6778 2.46177 -3.57967
O -2.75778 12.7036 -0.0594616
H -2.27899 13.5758 0.0408015
H -3.69163 12.8705 -0.375867
O 2.61266 14.7001 -13.6629
H 2.35559 -14.7269 -14.4492
H 2.3651 -14.8136 -12.8185
O 12.1711 -9.36731 2.61557
H 11.334 -9.49292 3.14806
H 12.8983 -9.93729 2.99822
O -13.5286 4.7806 -2.74495
H -12.8553 4.12188 -3.08075
H -14.0284 5.17018 -3.51858
O 8.10178 8.95313 -1.31853
H 7.6377 9.83716 -1.26262
H 7.56675 8.26429 -0.829395
O -9.13698 12.6873 3.78039
H -9.17162 11.8797 4.36912
H -9.50627 12.4592 2.87951
O -5.33466 -8.61657 5.5042
H -5.31406 -7.64265 5.7302
H -5.26551 -8.73029 4.51309
O 4.96962 -13.727 -5.52739
H 4.13423 -14.1414 -5.16622
H 5.67986 -13.741 -4.82357
O 14.0123 2.09433 12.8659
H 14.4561 1.52041 12.1777
H 14.5515 2.9249 13.0053
O 2.63931 -11.2537 1.49997
H 1.97002 -11.579 2.16799
H 2.63337 -10.2539 1.48192
O -5.90811 8.73369 2.08184
H -6.50726 7.9944 2.38921
H -5.11314 8.79136 2.68574
O 13.3556 0.599276 14.9393
H 13.1688 1.18063 14.1474
H 13.8482 -0.21907 14.6433
O 1.65825 -2.33617 10.0816
H 1.16479 -1.53155 10.4119
H 1.88802 -2.21318 9.11611
O 9.26992 2.2529 -14.1317
H 9.05195 2.36872 -13.1627
H 9.2822 3.14683 -14.5798
O -11.3996 -14.7501 -7.41907
H -11.8411 -14.893 -8.30489
H -10.6786 14.5575 -7.29222
O -11.0933 -13.5654 10.5924
H -10.8513 -12.6387 10.88
H -10.6264 -14.2286 11.1774
O -5.73215 5.61681 -14.4383
H -6.22345 6.12915 14.8461
H -6.29389 4.84813 -14.1324
O -11.7453 -1.27343 6.5719
H -10.9823 -1.32756 5.9278
H -12.1134 -0.343624 6.57525
O -2.33491 7.28553 -5.70825
H -2.65803 6.95721 -6.59583
H -2.97857 7.00706 -4.99539
O -2.52278 2.66433 -7.40005
H -3.34675 2.4024 -7.90254
H -1.72072 2.53036 -7.98208
O 4.48436 -4.81893 8.59263
H 4.14733 -4.87587 7.65285
H 3.78187 -5.15565 9.21964
O -0.0933125 -14.4172 -8.79241
H -0.219616 -13.7971 -9.56665
H 0.450574 14.7838 -9.08162
O 14.0043 13.7854 -6.88108
H 14.8238 13.2299 -6.73989
H 13.1911 13.2145 -6.76768
O -1.33806 -3.57815 3.3016
H -2.29816 -3.46754 3.04469
H -1.11935 -2.95296 4.05081
O -1.37186 9.98212 12.7313
H -0.987621 9.8281 11.821
H -2.27693 9.56047 12.7868
O -10.5446 -2.91993 -0.569171
H -10.1912 -3.6693 -1.12914
H -11.3786 -2.55749 -0.985302
O 5.34845 -2.80085 -6.90377
H 4.4416 -3.21586 -6.83017
H 5.47165 -2.43017 -7.82433
O -5.86225 12.1276 -8.40015
H -5.25794 12.1368 -9.19684
H -6.50954 12.8871 -8.46391
O 7.18335 -3.67291 2.42373
H 7.80112 -3.35715 3.14392
H 6.81939 -4.57193 2.66728