2593
Atoms. Timestep: 18495000
O -12.1064 3.16797 -1.08061
H -11.9334 3.39081 -2.04
H -11.9602 2.1896 -0.934077
O 7.45288 -3.52403 -10.4626
H 7.41003 -3.77419 -9.49529
H 7.87584 -2.62263 -10.5553
O -5.32986 -12.0768 8.04517
H -4.56437 -12.1382 8.68571
H -5.71413 -11.154 8.07241
O 9.83682 6.83095 14.5002
H 9.51177 6.01072 14.9709
H 10.5456 7.2723 -14.9778
O 4.15792 12.9796 -3.52974
H 4.17335 13.7944 -4.1092
H 4.69804 12.2554 -3.95851
O 8.39229 -7.79135 11.948
H 9.17832 -8.19195 11.4772
H 8.65847 -6.91898 12.3581
O -0.444027 6.52595 -14.0566
H -0.0667911 5.694 -13.6498
H -1.23212 6.8308 -13.5219
O 4.94095 -8.32645 -4.01666
H 4.35466 -9.12747 -3.89561
H 5.84242 -8.51097 -3.62509
O 5.54087 7.24825 -6.28878
H 4.90089 6.48842 -6.17431
H 5.06994 8.11118 -6.10548
O 11.0286 -6.49022 -12.6019
H 11.7784 -6.3793 -13.2541
H 11.3586 -6.97973 -11.7947
O -8.34757 4.75454 2.91546
H -8.95185 4.52761 2.15167
H -8.31079 5.74755 3.02772
O -10.0157 10.2834 14.395
H -9.45472 9.94555 13.6392
H -9.99947 9.62117 -14.8843
O -10.7633 10.0793 -0.716964
H -10.2029 10.6632 -0.129629
H -11.7296 10.2955 -0.577441
O -11.8384 7.22464 -7.11157
H -12.2687 7.0244 -7.99174
H -11.4439 8.14329 -7.13473
O 9.98926 -13.2456 2.45744
H 9.57091 -13.8625 1.79081
H 10.8407 -12.8782 2.08311
O -3.37926 9.44456 -2.44807
H -2.56298 9.9457 -2.73541
H -3.22066 8.46251 -2.55027
O 6.4712 -10.6615 -10.2857
H 6.34957 -11.64 -10.1193
H 7.35462 -10.3685 -9.91995
O -12.6596 -14.726 4.77687
H -12.2423 -14.8389 5.67862
H -13.4499 14.6949 4.69693
O 5.20666 5.14041 14.9915
H 5.43347 4.16647 14.9942
H 4.23262 5.25636 -14.8424
O -5.37133 4.16595 -1.00223
H -6.35257 4.12836 -1.19142
H -4.91978 4.72914 -1.69428
O 11.1492 2.19994 2.19021
H 10.406 1.73395 1.71016
H 11.3578 1.71037 3.03688
O 10.204 -0.558133 12.4186
H 9.26453 -0.61571 12.7564
H 10.3692 0.355434 12.0469
O 0.311142 11.8803 -13.3908
H -0.630536 12.0632 -13.1083
H 0.900491 11.8454 -12.5837
O -14.7061 2.15728 -8.95727
H 14.848 2.99529 -8.68756
H -14.6528 1.53765 -8.17417
O -14.6417 -0.871972 -10.0026
H -13.8694 -1.31961 -10.4533
H -14.4891 0.116142 -9.98301
O -10.7489 13.1722 6.8765
H -10.8393 13.4476 7.83358
H -11.2165 12.2996 6.73517
O 3.67423 8.87087 -14.2403
H 2.70566 8.69623 -14.4175
H 4.18114 8.84219 14.9265
O -14.43 -10.595 7.60314
H -13.993 -10.9422 6.77338
H 14.6557 -10.9258 7.64683
O -8.91778 11.3956 0.991057
H -9.59678 11.4407 1.72383
H -8.085 11.8686 1.27872
O 11.0148 5.46511 -5.49932
H 11.9148 5.80312 -5.2241
H 10.3038 6.00566 -5.04943
O -12.289 0.298943 -0.193193
H -12.9062 0.875537 0.342178
H -12.6709 -0.622584 -0.263593
O 6.50512 11.4539 -4.3833
H 6.81683 11.5816 -5.32487
H 6.99283 12.0868 -3.78197
O -8.85049 3.09637 -3.66909
H -8.30955 2.90473 -4.48804
H -8.23799 3.25753 -2.89521
O -1.8502 3.662 -14.672
H -1.43757 4.38628 14.8039
H -1.61627 2.77126 14.9666
O 10.3775 -14.8344 -5.26472
H 11.1628 -14.8939 -4.6485
H 10.3971 -13.9581 -5.7461
O -9.30104 -8.01641 13.1338
H -8.60406 -7.67432 12.5036
H -9.66819 -8.8799 12.788
O 8.8443 -9.69322 -9.22316
H 8.95412 -8.71873 -9.02734
H 9.72518 -10.1552 -9.12018
O 13.6491 6.22537 -3.69612
H 14.4369 6.15549 -4.30811
H 13.1686 5.34879 -3.67
O 0.693469 -6.90171 -6.10887
H 0.216828 -7.22971 -6.9245
H 1.32189 -7.60821 -5.78333
O 2.49705 4.28753 6.77341
H 2.5556 3.42425 6.27207
H 2.36681 5.03985 6.1276
O -13.8089 14.5463 14.994
H -13.108 13.9287 -14.6775
H -13.599 14.7748 14.0433
O -6.55127 -6.03692 14.608
H -6.10586 -6.75179 -14.8813
H -7.17982 -5.52243 -14.8371
O -1.84417 -3.05936 11.1409
H -2.00869 -3.03866 10.1548
H -1.83352 -4.00797 11.4572
O 13.4867 -11.5835 13.9332
H 12.8331 -12.3153 13.74
H 14.2756 -11.9608 14.4183
O 4.75138 12.7223 4.79876
H 5.73982 12.5904 4.87363
H 4.29453 12.2559 5.55622
O -14.3102 -12.6343 14.7952
H -14.2217 -13.5217 -14.7806
H -14.231 -12.7554 13.8057
O -11.9035 8.6557 11.6192
H -11.4671 7.84663 12.0128
H -12.1976 9.26665 12.3543
O -3.11627 -6.13061 12.3383
H -3.27812 -6.99782 11.8674
H -2.65128 -6.30445 13.2064
O -14.0784 -10.7965 4.82015
H -14.4874 -11.6181 4.42319
H -13.1118 -10.7501 4.56799
O 7.98664 -14.867 1.17809
H 7.78228 15.0008 0.212454
H 7.17419 -14.5047 1.63495
O -3.82439 -11.7523 -0.853012
H -4.72837 -11.4664 -1.17101
H -3.38386 -12.3088 -1.55743
O -6.01488 -14.438 9.26229
H -6.02784 -13.5809 8.74733
H -6.95251 -14.754 9.40717
O -3.83619 -2.31785 0.629338
H -3.15565 -1.60472 0.460999
H -3.79223 -2.99959 -0.100951
O 7.69014 -1.14657 13.2651
H 8.38758 -1.86065 13.2042
H 6.87636 -1.51305 13.7162
O 2.92084 -4.80958 -8.27831
H 3.49163 -4.21482 -8.84443
H 3.49512 -5.29056 -7.61582
O 12.8904 12.3148 -11.2998
H 12.5413 11.8325 -10.4963
H 12.4979 13.2339 -11.3335
O -0.560524 5.61644 -2.29119
H -1.26055 5.98493 -1.67947
H -0.881201 5.67237 -3.23674
O 2.31105 -8.61369 -13.5493
H 2.7106 -9.36718 -14.0715
H 2.17512 -8.90055 -12.601
O -13.726 -5.36115 -5.74219
H -14.0859 -5.51612 -6.66224
H -14.4131 -4.88785 -5.19087
O 8.58596 10.3062 -2.1734
H 7.97958 9.91859 -2.86774
H 8.75396 11.2704 -2.3783
O 7.31128 -1.6106 3.35786
H 7.21793 -0.811607 3.95194
H 6.70801 -1.50999 2.56668
O 14.8412 -13.5929 -10.8918
H 14.7253 -12.8114 -11.5049
H 14.8088 -13.2796 -9.94266
O 0.729695 14.3874 -4.23662
H 0.361135 14.092 -3.35517
H 1.35476 13.6899 -4.58713
O 6.98831 4.87062 -12.6877
H 6.23185 4.81434 -13.3393
H 6.66653 4.60294 -11.7795
O -1.36464 -1.18089 -13.5835
H -1.21663 -0.456325 -12.9104
H -1.79138 -1.96782 -13.1378
O 10.6502 13.8543 9.11785
H 11.1681 14.077 8.29188
H 9.68236 13.7536 8.88744
O -6.75241 10.5897 -14.4224
H -6.94042 11.5409 -14.6671
H -7.5264 10.0169 -14.6922
O 0.943033 -14.9699 8.10889
H 0.269496 14.4409 8.51509
H 1.83564 14.9031 8.53212
O -3.90135 -5.13849 -14.4638
H -3.11477 -5.48696 -14.9736
H -4.70039 -5.10713 14.9641
O 1.54169 13.6533 5.64249
H 2.05603 12.9645 6.15339
H 1.41383 14.4647 6.21279
O 2.49554 -9.09417 5.84932
H 2.42227 -9.97479 6.31745
H 3.44017 -8.95132 5.55386
O -3.73138 -14.3257 -11.8515
H -4.09987 14.7732 -11.8637
H -4.46686 -13.6731 -12.0341
O -14.714 10.9784 8.75179
H 14.5648 10.63 9.31456
H -13.8861 10.4477 8.93358
O -11.3084 6.84278 14.8367
H -12.308 6.868 14.8227
H -10.9645 6.74102 13.9032
O 11.5507 -6.23658 2.20056
H 10.6745 -6.22211 2.68238
H 11.5515 -5.53387 1.48907
O 6.35727 -7.03271 -7.85734
H 7.08568 -6.34857 -7.89465
H 6.73735 -7.90834 -7.55931
O -8.80266 7.538 10.0843
H -9.51652 7.38034 9.40199
H -7.90446 7.43817 9.65619
O 11.2707 3.68024 -10.724
H 12.1695 4.1167 -10.7654
H 10.5647 4.38049 -10.6183
O -5.8923 14.8866 -7.53394
H -5.0929 -14.8059 -7.03583
H -6.24186 -14.4188 -8.1298
O -3.47481 -1.63498 -3.11149
H -3.61816 -1.6358 -4.10117
H -3.97564 -0.871995 -2.70278
O 5.46967 -2.0925 14.3545
H 5.96224 -2.70856 14.9692
H 4.64318 -1.7594 14.8084
O -11.9351 -6.70764 8.78997
H -12.3543 -5.79979 8.77928
H -10.997 -6.63762 9.12924
O 12.4668 -2.93886 -2.40121
H 12.419 -2.36799 -3.22087
H 12.7123 -2.37254 -1.61443
O -12.5238 13.0721 -13.0877
H -13.3381 12.4957 -13.1575
H -12.6477 13.736 -12.3502
O 11.989 3.35533 6.83955
H 11.0016 3.22912 6.93594
H 12.2297 3.37211 5.86909
O 11.7385 -4.40713 13.4134
H 11.6448 -5.27494 12.9254
H 10.8641 -3.922 13.4015
O 8.72052 12.9885 -3.11163
H 8.78369 13.449 -2.22624
H 8.73388 13.6698 -3.84348
O -3.12515 10.3954 8.79713
H -2.21975 10.4648 8.37824
H -3.81003 10.7756 8.17554
O 14.3339 -9.08059 -6.10072
H 13.632 -8.37065 -6.15896
H 14.8668 -9.09269 -6.94683
O -1.91536 2.63437 -0.172953
H -1.5531 3.49699 0.180153
H -1.70505 2.55864 -1.14766
O -8.27902 -14.2375 12.0264
H -8.22006 -13.4516 11.4108
H -7.55025 -14.1817 12.7089
O -9.29667 -7.65857 -7.7155
H -9.61265 -8.57651 -7.47556
H -8.59372 -7.72259 -8.42387
O 8.22558 -4.99886 4.90861
H 8.70675 -4.5075 5.6346
H 7.48374 -4.42883 4.55536
O 2.32976 -12.2063 -13.9314
H 1.97051 -11.8884 -14.8088
H 3.23053 -12.618 -14.0695
O -14.5378 9.01282 2.09418
H -13.9851 9.61728 1.52049
H -14.2339 8.06792 1.97243
O -3.25791 1.20963 -6.90365
H -3.19274 1.98783 -6.27901
H -2.46323 0.61535 -6.77982
O -0.904795 -2.33438 -3.23
H -1.66765 -1.81803 -2.84082
H -0.263838 -1.70345 -3.66719
O -13.6327 -7.81906 -4.51315
H -14.3377 -8.16387 -5.13294
H -13.5162 -6.836 -4.65474
O 2.81301 8.63742 -8.47072
H 2.8045 9.61621 -8.266
H 3.69871 8.38626 -8.86122
O 6.70581 14.5718 11.3665
H 7.59902 14.624 10.9199
H 6.03522 -14.9424 10.8318
O 14.4113 -4.73538 8.5118
H 14.9608 -4.14475 9.10275
H 14.6173 -4.53332 7.55431
O 12.6227 -13.9268 13.1635
H 12.9077 -14.4824 12.3825
H 12.5713 -14.5013 13.9803
O 2.89758 -6.46022 12.2894
H 3.17119 -7.3438 11.9093
H 2.16873 -6.06744 11.7285
O -4.16713 1.06356 5.00042
H -4.8038 1.56259 5.58834
H -3.26291 1.04646 5.42717
O 6.722 8.49835 7.40526
H 7.31271 9.1959 7.81087
H 7.2773 7.71887 7.11528
O 7.9442 8.92276 -6.55808
H 7.63674 9.86128 -6.71518
H 7.1769 8.29461 -6.68726
O 13.8593 3.5581 11.8265
H 13.0152 3.63854 11.2963
H 14.4591 4.33047 11.6175
O -4.79902 -0.907374 -6.04275
H -4.71627 -1.41219 -6.90202
H -4.21452 -0.0965993 -6.07487
O -10.5155 -9.83514 -6.2702
H -10.7208 -9.25066 -5.48518
H -9.72709 -10.4128 -6.05853
O -10.3542 12.2269 -8.32597
H -10.7436 11.4285 -8.78526
H -9.88063 12.7987 -8.99584
O 4.7578 -0.123675 12.4702
H 3.99345 0.300565 12.9558
H 5.0841 -0.914392 12.9882
O -12.0049 -6.24487 2.62734
H -12.1133 -6.78525 3.46176
H -12.372 -5.32647 2.77493
O 4.33835 -6.25582 -6.13491
H 4.2704 -6.8671 -5.3464
H 5.16703 -6.46982 -6.65212
O -12.5416 0.68371 -7.34257
H -11.7742 1.32265 -7.39631
H -12.2431 -0.221879 -7.6439
O -12.526 12.9228 11.582
H -13.4478 12.8337 11.9592
H -11.8536 12.7919 12.3105
O -3.84852 -4.01462 -7.24836
H -3.08907 -3.56866 -6.77467
H -4.66776 -3.97457 -6.67628
O 5.31961 14.5988 -8.10839
H 4.61763 14.4118 -8.7956
H 4.98158 14.3328 -7.20564
O 5.74509 -13.7449 2.35337
H 5.76233 -12.7519 2.23666
H 5.16535 -13.9788 3.1339
O 1.13019 8.22634 7.04074
H 2.02478 8.27563 7.48493
H 1.19828 8.59234 6.11261
O -1.1322 -6.45577 -1.36021
H -1.86533 -6.32596 -0.692593
H -0.555402 -5.63924 -1.38485
O -10.3482 -3.34457 5.2026
H -9.71656 -4.10828 5.06906
H -10.0887 -2.58844 4.60182
O -14.7505 -3.70308 -3.74585
H -14.0702 -3.92203 -3.04633
H 14.3648 -3.92503 -3.40383
O -0.410446 -9.36083 -10.5751
H -0.984982 -10.1082 -10.2414
H 0.450035 -9.73212 -10.924
O 9.2523 0.388405 1.33532
H 8.77559 -0.370994 1.77813
H 9.58763 0.0948274 0.44012
O 1.60994 10.6123 2.41696
H 1.06474 11.4372 2.56642
H 1.15424 10.0288 1.74468
O -0.195063 5.0082 13.5568
H 0.0164613 5.66004 14.2851
H 0.559545 4.35904 13.4609
O 2.04431 -6.21698 5.14549
H 1.84086 -6.152 4.16856
H 2.24519 -7.16773 5.38161
O 0.259919 13.7598 -1.47101
H -0.721785 13.5742 -1.42817
H 0.63788 13.7703 -0.545238
O 6.09279 0.695216 -12.7411
H 7.04314 0.620063 -12.4391
H 5.6309 -0.181927 -12.6096
O 13.2996 14.7665 -14.5501
H 14.2658 14.5266 -14.6447
H 12.752 14.1894 14.8725
O -3.20852 -14.6767 -3.11767
H -2.58307 -14.8469 -3.87915
H -4.15209 -14.7846 -3.43083
O -12.8826 11.7647 3.01859
H -13.3252 12.3965 2.38212
H -13.4631 10.9608 3.14801
O 1.39482 13.6171 1.22123
H 2.38561 13.747 1.1828
H 1.1045 13.5478 2.17566
O -3.99214 -2.51343 -10.6215
H -4.31286 -1.67682 -11.0656
H -3.3496 -2.98581 -11.2249
O 2.93046 11.7521 7.01783
H 2.10914 11.7464 7.58829
H 3.22625 10.8117 6.8499
O 13.0483 -5.83905 -14.5629
H 13.3531 -6.69764 -14.9751
H 12.5749 -5.28869 14.7777
O -0.923723 1.5635 6.0297
H -1.40234 1.31707 6.87244
H -1.25842 2.44721 5.70251
O -9.23526 -5.87736 -13.8563
H -8.82229 -5.54024 -13.0102
H -9.24132 -6.87733 -13.8488
O 5.24699 -1.8139 -12.4258
H 4.65699 -2.311 -11.7895
H 5.91303 -2.4443 -12.8245
O 8.34759 -9.34785 -14.8277
H 9.3048 -9.13974 14.9996
H 7.75579 -8.74804 14.6622
O -10.3345 -11.0074 12.0903
H -10.9687 -11.6816 11.7117
H -10.3052 -10.2055 11.4935
O 6.91227 -11.3445 -0.343367
H 6.71301 -12.2577 -0.698885
H 7.69973 -10.9629 -0.827408
O -9.91882 11.445 -12.8868
H -10.8384 11.8375 -12.9061
H -9.65008 11.1799 -13.8129
O -9.89686 -11.5233 -2.91196
H -10.2633 -10.5998 -2.79892
H -10.3092 -12.131 -2.23309
O 11.6816 3.59516 9.40935
H 11.144 4.42875 9.53633
H 12.0396 3.56835 8.476
O -10.3831 -4.98457 -10.6585
H -11.2188 -5.25282 -10.1793
H -10.216 -4.0089 -10.5165
O 1.6599 12.1287 -10.6269
H 1.99273 12.0276 -9.6893
H 2.3684 11.8297 -11.2661
O -6.9698 1.57961 -10.2754
H -7.29819 0.693302 -10.602
H -6.09556 1.79254 -10.7117
O -13.0162 -3.6587 3.02439
H -13.6032 -3.40442 2.25571
H -12.3765 -2.91433 3.21574
O -11.0393 1.24137 -10.7281
H -10.5791 0.766465 -9.97801
H -11.2167 2.1893 -10.4635
O -5.5058 -10.5517 -10.448
H -5.85148 -10.3936 -9.523
H -4.98499 -9.75322 -10.7501
O -7.86784 12.9437 14.4987
H -6.94512 13.3033 14.3599
H -8.34938 13.5105 -14.8612
O 9.1242 -14.7549 14.8727
H 9.38856 -14.0332 14.233
H 8.13618 -14.7212 -15.005
O -6.14729 -7.91143 0.446549
H -5.29234 -7.60051 0.0313148
H -6.11524 -8.90292 0.57284
O 12.0653 0.867964 4.33734
H 11.7028 0.198508 4.98579
H 13.0645 0.862782 4.37645
O 4.13274 3.8894 -0.483569
H 4.53259 4.09377 -1.37709
H 4.2766 2.92377 -0.26701
O 8.83028 1.82432 -14.6436
H 8.94816 1.41378 14.4805
H 8.93104 1.11921 -13.9417
O -9.57862 8.30525 -13.6385
H -8.86576 7.83139 -13.1215
H -10.1517 7.63385 -14.1084
O 4.04993 1.09777 0.103758
H 3.27858 1.40941 0.658667
H 4.41974 0.253362 0.491356
O -10.8305 10.2583 -10.3861
H -10.4167 10.3242 -11.2941
H -10.208 9.77514 -9.7704
O 14.2846 -14.1211 0.0789911
H 13.9002 -13.5746 0.823077
H 13.852 -13.8602 -0.78404
O 4.81341 -10.849 -14.8844
H 4.41814 -10.9865 14.2358
H 5.14795 -11.7225 -14.5307
O -3.5058 -12.5716 3.77379
H -3.1089 -11.6558 3.71218
H -3.70382 -12.9116 2.85443
O -0.89072 -11.1262 -3.35843
H -0.696392 -10.2696 -2.88036
H -0.163463 -11.3114 -4.01933
O -4.17148 9.56027 -5.39399
H -4.12805 8.76251 -4.79256
H -4.2987 10.3857 -4.84407
O -10.9158 7.31556 1.21021
H -11.3004 8.12469 0.765841
H -10.0994 7.57497 1.72612
O -6.78944 -3.43982 -10.4394
H -5.8502 -3.33613 -10.7667
H -7.2104 -4.23258 -10.8803
O 6.64189 14.4597 13.9823
H 6.4555 13.5709 14.4009
H 6.13321 14.5375 13.1248
O -1.0118 14.7953 14.6565
H -1.35088 14.8861 13.7201
H -1.58912 14.1517 -14.8693
O 9.7717 -7.77139 -0.0880914
H 8.85187 -7.59884 0.264288
H 10.4357 -7.67852 0.653843
O -13.6802 -9.30054 -12.4414
H -13.0569 -9.49148 -11.6831
H -13.2934 -8.58054 -13.0176
O -3.19524 11.5037 13.6102
H -2.68744 11.8799 12.8352
H -3.52154 10.5865 13.3813
O -9.21616 -11.4726 6.03717
H -9.61546 -11.8109 5.18502
H -8.31615 -11.0788 5.85028
O -5.26956 13.4811 13.6327
H -5.01737 14.001 12.8166
H -4.70924 12.6546 13.6878
O 7.13747 -6.56851 0.912183
H 6.38769 -7.17516 1.17642
H 7.75329 -6.4415 1.68978
O -4.19492 -8.42105 6.39983
H -5.1583 -8.48136 6.66114
H -4.06822 -7.65649 5.76783
O -6.89382 -4.97614 5.83418
H -6.78221 -4.54378 4.9394
H -7.77086 -5.45556 5.86563
O 7.35951 12.2294 5.40877
H 7.66699 13.037 4.90537
H 8.12998 11.836 5.91036
O 11.5908 8.15318 -9.35579
H 12.3874 7.83185 -9.86781
H 10.9063 8.50815 -9.99255
O -9.85596 3.63579 9.98319
H -9.79399 3.8714 9.01331
H -8.93661 3.5859 10.3735
O 4.39074 -1.86056 -3.33045
H 3.50927 -2.212 -3.01497
H 4.23929 -1.12476 -3.99051
O 5.89383 1.25326 10.0056
H 6.29457 0.500674 9.48303
H 5.50479 0.898665 10.8558
O 0.148009 9.02837 9.58768
H -0.253113 8.35909 10.2131
H 0.338892 8.59083 8.70896
O -7.87477 -5.78056 -11.3518
H -8.7419 -5.47732 -10.9566
H -7.48418 -6.50428 -10.7828
O -14.0064 6.31643 14.8588
H -14.8185 6.89716 14.9155
H -14.2819 5.37726 14.6536
O 6.74919 5.38273 -7.58908
H 7.73207 5.19843 -7.59268
H 6.56084 6.17548 -7.00936
O 8.57331 -0.324709 -12.3986
H 9.35898 0.0790008 -11.9298
H 8.89237 -1.00468 -13.0588
O -7.92106 0.330142 14.5735
H -8.55881 0.488315 -14.701
H -8.39639 0.456196 13.7028
O -0.890676 -8.88868 -14.789
H -0.458841 -8.08643 14.8271
H -1.13839 -8.68419 -13.842
O 2.42125 -13.4781 11.6969
H 2.0848 -13.9623 12.5046
H 2.86314 -12.6265 11.9789
O 14.1603 13.5218 -2.32945
H 13.8756 12.8679 -1.62846
H 14.4716 14.3653 -1.8917
O 11.3469 13.765 6.3248
H 11.9741 13.095 6.72197
H 11.6421 13.9882 5.39579
O 8.03643 -5.52063 -5.55488
H 7.23832 -4.94015 -5.39341
H 8.13456 -6.16977 -4.80055
O 0.245585 -12.194 7.38001
H 0.434166 -13.1621 7.21473
H -0.108384 -11.7758 6.54344
O -5.99862 14.6714 -4.58041
H -6.47657 14.1146 -5.25984
H -6.14017 -14.3882 -4.78408
O 10.0266 3.04218 -4.66686
H 9.39709 2.95943 -5.43943
H 10.6747 3.78314 -4.84287
O -10.6585 2.91957 -7.21583
H -9.89485 2.38374 -7.576
H -10.3361 3.83224 -6.96459
O -6.57233 -10.6614 1.04118
H -6.65062 -10.832 0.0589292
H -6.40054 -11.5242 1.51663
O 8.65105 4.47556 -14.8688
H 8.64263 3.47661 -14.8236
H 8.22786 4.85011 -14.0437
O -0.692559 2.76415 -2.56126
H -0.435006 3.72795 -2.49216
H 0.0849581 2.23488 -2.90092
O 2.08705 1.99891 2.04444
H 1.63397 1.38545 2.69129
H 1.60885 2.877 2.02695
O -13.0686 7.52582 9.31767
H -12.4148 7.78985 8.60852
H -12.8595 8.01691 10.1633
O 11.3787 -3.89222 8.6385
H 11.2792 -3.06611 9.19317
H 12.3453 -4.03772 8.42767
O 1.97458 -14.5516 -12.6852
H 1.09446 -14.8124 -12.2885
H 1.91364 -13.6224 -13.0497
O -4.39479 8.13154 -8.06671
H -4.5017 8.41892 -7.11487
H -3.65943 8.65813 -8.49329
O 14.7907 12.2219 12.0746
H 14.3542 13.0354 11.6903
H 14.7184 11.4659 11.424
O -1.61822 -1.19639 5.63427
H -1.21513 -0.416016 6.11234
H -1.29933 -2.04583 6.05473
O 0.0662926 -13.9021 10.5729
H 0.20877 -13.9168 9.58324
H 0.95043 -13.95 11.0377
O 4.0055 3.31743 10.7308
H 4.40157 4.23522 10.7592
H 4.73397 2.63733 10.8133
O 5.07084 6.59465 2.92135
H 5.50855 6.35048 2.05601
H 5.50387 7.41541 3.29399
O 7.93758 -14.4594 -11.2595
H 8.72083 -13.8829 -11.4924
H 7.81899 14.8678 -11.9626
O -12.2785 -11.8492 -4.35446
H -12.3247 -12.368 -3.50082
H -11.3435 -11.5247 -4.4971
O -3.37812 -9.75306 14.4711
H -2.39516 -9.57018 14.4904
H -3.54078 -10.7214 14.6608
O 7.3323 1.79253 12.9413
H 6.69449 2.3562 13.4662
H 7.3349 0.862326 13.3084
O 3.95553 -6.19287 2.62353
H 2.95942 -6.23007 2.5435
H 4.34477 -7.07341 2.35305
O -6.50057 -3.7626 -2.82782
H -6.52131 -3.41691 -1.88969
H -6.48873 -2.99313 -3.46641
O -5.11276 -0.617776 -12.4855
H -5.92245 -0.978402 -12.0225
H -5.30689 -0.509454 -13.4605
O -5.61211 -12.8477 5.38405
H -5.63222 -12.6115 6.35556
H -4.66408 -12.8737 5.06689
O 6.36325 12.1468 0.322323
H 7.07628 11.4888 0.564533
H 5.53709 11.9528 0.851341
O 2.41488 11.4033 -1.84575
H 1.58638 11.9577 -1.76653
H 3.09105 11.8915 -2.39761
O -7.00371 -3.3268 -14.3272
H -7.96251 -3.12691 -14.1253
H -6.51849 -2.4736 -14.5186
O 8.02804 3.63907 0.936188
H 8.88261 4.15705 0.898305
H 8.22639 2.68466 1.15931
O -8.00808 7.36383 -10.571
H -7.74178 6.5784 -10.0122
H -8.53825 8.004 -10.015
O -11.6465 4.06168 -3.72054
H -10.6792 3.8798 -3.89761
H -12.165 3.96389 -4.57003
O 8.95681 12.9684 12.6844
H 8.73104 13.3792 13.5677
H 8.26537 13.2272 12.0099
O -6.77802 -7.42144 12.1329
H -6.68518 -6.62606 12.7319
H -6.34514 -8.21421 12.5621
O -14.9411 11.6713 -12.8105
H 14.2206 11.8518 -12.3454
H -14.5604 10.8068 -12.4823
O 6.63851 6.01838 0.578644
H 7.19245 6.84964 0.532062
H 7.22768 5.23612 0.781103
O -13.7376 -13.9858 12.4908
H -12.7403 -13.9235 12.4523
H -14.1134 -13.8899 11.5691
O -14.0442 -6.0583 -11.893
H -14.1338 -5.10057 -12.1664
H -13.7741 -6.60693 -12.6842
O -2.57708 11.4567 1.99287
H -2.47798 12.186 1.31581
H -2.86185 11.85 2.86709
O 6.49664 -13.5287 -1.83196
H 6.939 -13.6768 -2.7165
H 5.86382 -14.2803 -1.64578
O 10.9592 -11.3989 -9.19514
H 10.4845 -11.7895 -9.98388
H 11.8613 -11.0723 -9.47724
O 4.47143 -3.24617 -10.0539
H 5.26414 -3.7561 -10.388
H 4.77688 -2.52519 -9.43187
O -6.31214 3.46463 3.82623
H -7.15546 3.9491 3.59361
H -5.80138 3.26425 2.99017
O -13.2451 -8.27095 10.6187
H -14.057 -8.69771 10.2203
H -12.9848 -7.47489 10.0723
O -7.17796 -13.2755 2.04644
H -6.59496 -13.8637 2.60691
H -7.72685 -13.8401 1.43007
O 1.6489 9.0599 -3.38611
H 2.05421 9.66324 -2.69928
H 1.8901 8.11143 -3.18057
O 8.58784 -13.2629 5.2341
H 8.80277 -12.7075 4.43076
H 7.61031 -13.1958 5.43394
O 9.52309 -12.3129 13.6821
H 9.55734 -11.3334 13.8807
H 9.88358 -12.4797 12.7644
O 13.4766 -8.67938 14.0134
H 14.2661 -8.175 13.6637
H 13.719 -9.6433 14.1236
O 4.78997 -3.4588 11.3766
H 4.21865 -3.12622 12.1269
H 4.21252 -3.67963 10.5905
O 3.76562 -0.985642 3.66792
H 4.32102 -1.02784 2.8374
H 3.29331 -1.85748 3.79771
O -11.0978 -9.63756 -0.830239
H -11.9391 -9.7544 -0.302356
H -10.3468 -10.1104 -0.3694
O 9.6957 7.47102 8.16545
H 9.11188 6.72859 8.49403
H 10.1031 7.21201 7.28969
O -0.0120499 -3.78985 -1.07853
H -0.0854584 -3.50391 -0.123082
H -0.438177 -3.10189 -1.66602
O -7.16477 3.03971 -6.04844
H -7.73122 2.50813 -6.67818
H -6.3298 3.33051 -6.51567
O -10.2644 13.4564 -5.94201
H -10.3133 12.8193 -6.71131
H -11.1874 13.7508 -5.6939
O 4.65568 -9.0882 -8.4479
H 5.14109 -9.60158 -9.15561
H 5.18596 -8.2769 -8.20172
O -9.6436 5.41203 -6.75214
H -10.3735 5.99352 -7.1115
H -9.18568 5.88053 -5.99659
O -1.23785 -5.48828 14.4019
H -1.04925 -4.5193 14.2422
H -0.421494 -6.02594 14.191
O 8.01089 -12.7534 -7.03838
H 8.99764 -12.7379 -7.19996
H 7.54486 -13.0954 -7.8544
O 11.262 -8.54002 -10.2392
H 12.1149 -8.24849 -9.80613
H 11.4621 -9.21713 -10.9473
O -10.0706 4.79231 0.481759
H -10.3468 5.7304 0.690853
H -10.6576 4.42497 -0.23972
O 4.66381 -1.31614 -7.99067
H 5.59794 -1.2096 -7.64999
H 4.34735 -0.447935 -8.3729
O -1.66022 -11.9219 -7.61252
H -2.24128 -11.913 -8.42635
H -0.807494 -12.4026 -7.81707
O 14.4025 -0.965097 7.68639
H 13.6518 -0.383214 7.99915
H 14.2085 -1.2909 6.76106
O 8.14341 -12.0566 -13.8217
H 8.64401 -12.586 -14.5067
H 8.01621 -11.121 -14.1512
O 10.685 8.15051 10.6749
H 10.4861 8.15942 9.6949
H 10.1248 8.83938 11.135
O 12.6959 -0.675398 13.4886
H 12.8131 -0.801332 14.4737
H 11.7258 -0.746749 13.2565
O 7.83003 -7.88009 -12.283
H 8.25996 -8.3739 -13.0389
H 6.87514 -8.16499 -12.199
O 1.92848 -13.4652 -3.18149
H 1.31832 -14.0711 -3.69203
H 1.66756 -13.4658 -2.21612
O 0.296434 -8.98226 -2.18382
H -0.273537 -8.28561 -1.74812
H 1.25839 -8.80227 -1.97824
O 11.2627 6.63586 5.56773
H 11.5772 7.52235 5.22834
H 11.6312 5.90778 4.98971
O -11.2426 -2.56433 -4.46619
H -10.9107 -3.38224 -4.93617
H -11.0789 -2.65485 -3.48383
O 12.9481 -6.66253 9.35457
H 12.6687 -6.38151 10.2727
H 13.5857 -5.98955 8.97957
O -9.0343 9.04739 -8.77566
H -8.18919 9.58191 -8.76523
H -9.51173 9.16164 -7.90444
O 0.059284 -8.30321 8.78432
H -0.448945 -8.53431 7.95467
H -0.367387 -7.51505 9.22791
O 9.94633 -2.60075 -8.20302
H 10.7012 -2.62565 -8.8584
H 9.47419 -3.48228 -8.20476
O -14.2509 -1.95332 10.1979
H 14.9773 -2.10721 10.7776
H -14.5451 -1.59499 9.31187
O -7.94993 3.35384 -0.910601
H -8.53614 3.79033 -0.228066
H -8.08097 2.36299 -0.877851
O -10.9078 -5.32805 -4.75536
H -11.1678 -5.73274 -3.87862
H -11.6175 -5.51827 -5.43377
O 9.82279 14.9006 -1.24982
H 9.60494 -14.156 -1.3412
H 10.769 14.7431 -1.53265
O -4.86604 9.87561 -12.5204
H -5.71991 10.1397 -12.969
H -4.54104 9.01154 -12.9049
O 1.05707 -7.20817 14.3019
H 1.55785 -7.78913 14.9435
H 1.70609 -6.68438 13.7501
O -5.16359 -8.31267 -14.1936
H -4.69668 -9.09133 -14.6128
H -4.73075 -8.09614 -13.3185
O 9.67864 -12.2843 -11.7373
H 9.01064 -11.8429 -12.3364
H 10.3993 -12.7009 -12.2914
O 12.9049 12.1314 7.5211
H 12.4236 11.6522 8.25514
H 13.8013 11.7112 7.38038
O -4.83737 11.9904 7.18382
H -5.68492 12.3838 6.82749
H -4.17027 12.7194 7.33728
O 4.97402 -11.7804 8.40571
H 4.10199 -11.3054 8.28756
H 5.51931 -11.3087 9.09866
O -1.98922 13.5324 -9.22619
H -2.94206 13.2677 -9.37476
H -1.78671 13.5131 -8.24708
O 7.54297 -3.38226 10.3828
H 7.59102 -4.3434 10.1109
H 6.73486 -3.2374 10.9538
O -12.7383 0.986174 4.92159
H -13.0897 0.959865 5.85746
H -11.8495 1.44426 4.91203
O -5.64873 -1.01489 14.8773
H -6.26969 -0.232921 14.9317
H -5.73225 -1.44495 13.9784
O -12.1806 3.48109 11.6497
H -12.6594 4.35841 11.6829
H -11.4642 3.51844 10.953
O -8.14081 -13.6637 -2.14644
H -7.53351 -14.058 -2.83614
H -8.7283 -12.9763 -2.5735
O -4.60813 12.6785 -11.5922
H -4.58375 11.7221 -11.883
H -5.48924 12.8736 -11.1613
O 1.40107 -13.1982 3.44941
H 0.869115 -13.2037 4.29618
H 0.787425 -13.3213 2.66948
O -8.51268 12.3698 -2.9375
H -8.02578 11.9209 -2.18822
H -7.87249 12.931 -3.46213
O -0.18405 1.67633 10.6816
H -1.1128 1.96582 10.4499
H 0.46722 2.12431 10.069
O 7.93603 7.63259 4.4079
H 7.08168 8.04577 4.09266
H 8.64228 8.33738 4.47497
O 1.54279 -1.74483 -10.4761
H 1.21428 -1.66907 -11.4176
H 1.16595 -2.5709 -10.0571
O -1.35099 -10.6141 2.76052
H -2.31899 -10.3768 2.84236
H -0.889639 -9.93843 2.1855
O -10.7656 -2.21043 -11.463
H -11.4903 -1.64112 -11.8513
H -10.612 -1.95012 -10.5097
O -4.50087 1.88486 -11.3527
H -4.26947 2.69377 -11.8932
H -4.42339 1.06835 -11.9249
O -8.52786 -6.38355 -5.57158
H -8.58139 -6.91597 -6.41638
H -9.4329 -6.022 -5.34753
O -5.35895 -4.38475 12.5902
H -4.50709 -4.87477 12.4051
H -5.91544 -4.91389 13.2308
O -6.12378 5.53866 -4.45909
H -6.08096 4.54816 -4.32834
H -7.0757 5.84076 -4.40807
O 8.06819 12.9858 8.33791
H 7.43727 13.2025 7.59293
H 7.70544 12.2207 8.87001
O -13.7136 -12.3258 -0.661175
H -12.8514 -12.7953 -0.851383
H -14.4214 -13.0005 -0.452131
O -12.0464 -3.99534 -13.2545
H -11.8081 -4.49052 -14.09
H -11.2922 -4.06173 -12.6011
O 5.43569 -4.26947 1.18859
H 4.95819 -4.7515 1.92321
H 6.00579 -4.91577 0.681342
O -2.49753 -3.53915 -12.775
H -1.54723 -3.84715 -12.7293
H -2.98261 -4.05809 -13.4789
O -7.88759 -12.2428 10.2254
H -8.7786 -12.1627 9.77846
H -7.37727 -11.3911 10.1063
O 0.309096 4.11115 4.61022
H 0.79594 3.25368 4.77685
H 0.959268 4.87089 4.61979
O 5.9296 2.89347 -6.4598
H 6.44471 3.74703 -6.53797
H 6.12078 2.46862 -5.57494
O -6.4511 13.1432 -9.51549
H -7.35566 13.2501 -9.92825
H -6.37457 13.7443 -8.71999
O -10.7693 12.7788 13.5701
H -10.2997 13.4278 14.1687
H -10.6912 11.8574 13.9509
O -14.4888 13.1998 0.95042
H -14.9765 12.4986 0.430209
H -14.9765 14.0696 0.875983
O 13.4888 7.97977 12.1417
H 12.511 7.8577 11.9717
H 13.6637 7.94026 13.1255
O 6.34151 -4.0435 -13.9097
H 7.29303 -4.14178 -13.6182
H 5.83521 -4.87495 -13.6808
O 10.6776 1.69824 10.8759
H 10.8129 2.08286 11.7891
H 10.9742 2.36064 10.188
O 0.603358 -13.045 -8.64211
H 1.37162 -12.6879 -9.17342
H 0.340028 -13.9416 -8.99809
O 0.273678 -3.267 1.85348
H 1.03105 -3.3278 2.50365
H -0.321359 -2.50377 2.10533
O 1.16598 -2.12521 -13.1276
H 0.190065 -2.05901 -13.3355
H 1.37423 -3.04489 -12.7947
O 6.42415 13.3623 -12.6187
H 6.30224 12.8835 -13.4881
H 6.5188 12.6942 -11.8807
O 13.3876 -13.0722 -5.03385
H 14.11 -12.4203 -4.80325
H 13.7566 -14.0013 -5.00839
O 2.64968 -3.18311 4.88707
H 2.45067 -2.73112 5.75662
H 2.59391 -4.17443 5.00626
O -6.25339 -1.24441 0.926711
H -6.09057 -0.425629 1.47727
H -5.41387 -1.78556 0.8778
O -6.95452 9.19139 -5.76512
H -6.03572 9.19293 -5.37038
H -6.90114 9.43034 -6.7347
O -1.50141 11.739 -3.18446
H -1.99299 11.8014 -4.05307
H -1.94991 12.32 -2.50519
O -5.63796 11.9038 -1.08129
H -5.15292 12.5183 -0.459102
H -5.54644 10.9619 -0.758076
O 14.5531 -9.01762 9.50197
H 13.6402 -8.62203 9.40069
H 14.8002 -9.50447 8.66415
O -4.06544 -9.54237 2.94035
H -4.88146 -9.9359 2.51695
H -4.20544 -8.56317 3.0873
O -1.20646 13.5177 9.18598
H -0.703983 12.8048 8.69672
H -1.49856 13.1683 10.0763
O 6.38668 6.63576 -3.27033
H 5.60858 6.86641 -2.68604
H 6.11817 6.71647 -4.23023
O 2.98047 6.07257 -5.30661
H 2.57535 6.98046 -5.41444
H 2.87448 5.77066 -4.35917
O 4.81371 5.75719 11.7305
H 4.14301 5.93629 12.4503
H 5.70761 6.10452 12.014
O 14.4625 -0.789348 -7.00142
H -14.9687 -1.05658 -6.24516
H 14.8148 -1.17187 -7.85557
O -7.68029 -4.30514 10.476
H -7.58146 -3.76027 9.64336
H -7.01428 -3.99846 11.1561
O 10.2038 5.61686 10.1579
H 10.4231 6.56442 10.3904
H 9.41099 5.31821 10.6893
O 10.1154 -1.90444 -13.7255
H 9.91316 -2.85908 -13.5069
H 11.0235 -1.84248 -14.1396
O 6.69205 11.5799 -10.5632
H 5.99629 11.4315 -9.86044
H 7.59373 11.6317 -10.1339
O 8.56876 9.75967 11.7601
H 7.879 9.11273 11.435
H 8.56079 9.78091 12.7599
O -11.5781 -10.7267 3.69542
H -10.9266 -9.98078 3.83378
H -12.157 -10.5216 2.90621
O 11.4344 14.1864 -8.58509
H 10.4672 14.3706 -8.41036
H 11.6908 14.566 -9.47404
O -5.94606 7.9615 9.76381
H -4.98133 7.89802 10.0193
H -6.23264 8.91944 9.77932
O -6.95716 -8.33395 7.25065
H -7.0625 -9.11134 6.63049
H -7.01577 -7.48205 6.73021
O -6.75566 -1.56536 -4.27242
H -6.00718 -1.31856 -4.88796
H -7.61584 -1.20337 -4.63171
O -7.44172 14.8476 0.102636
H -7.66083 -14.5657 -0.654721
H -7.16704 13.957 -0.260047
O -11.1772 -12.0393 -11.512
H -11.7598 -12.4792 -10.8285
H -11.7494 -11.5999 -12.2045
O -11.555 3.65061 -14.8278
H -10.6256 3.41842 14.9135
H -11.5665 4.57806 -14.454
O 1.83016 -4.23411 -5.29016
H 1.57322 -5.15871 -5.57143
H 2.25259 -3.75663 -6.06061
O 2.41338 6.19644 -2.59635
H 1.62748 5.93649 -2.03527
H 3.21269 6.32785 -2.00996
O -3.99004 7.72882 7.10333
H -3.51334 7.87611 7.96998
H -3.87076 6.77887 6.81455
O 4.68778 6.94763 -1.13929
H 5.3001 6.42875 -0.542763
H 4.39868 7.7841 -0.67371
O -14.4193 13.0055 5.16504
H -13.5474 12.5158 5.1596
H 14.8806 12.3924 4.85928
O -3.61478 -9.81812 -6.94556
H -2.92908 -10.5124 -7.16411
H -3.19987 -9.10693 -6.37804
O 3.82626 1.45936 -2.63375
H 4.70666 1.50355 -3.10595
H 3.97824 1.28515 -1.66082
O -13.4773 7.96303 -1.02326
H -14.2632 7.38046 -0.816073
H -12.9196 7.53081 -1.73194
O -5.96303 -0.276248 11.9247
H -6.3433 -0.553428 11.0423
H -6.7063 -0.0161171 12.5411
O -14.195 9.80779 -6.76909
H 14.9223 10.1796 -6.59119
H -13.7905 9.49175 -5.91085
O -8.96465 13.4483 -10.6335
H -9.00313 12.6088 -11.1756
H -8.42878 14.1365 -11.1226
O 3.58098 11.3918 -12.8634
H 3.6769 10.4894 -13.2836
H 4.4842 11.8076 -12.7569
O 5.19278 -6.30605 -12.7542
H 5.18977 -7.23421 -13.1264
H 5.8227 -6.25989 -11.9789
O 8.59186 -5.25766 -1.32751
H 8.59716 -5.99828 -1.99943
H 8.15403 -5.57419 -0.485998
O -8.65903 9.41305 11.9863
H -8.75779 10.3869 11.7816
H -8.54681 8.9029 11.1335
O 4.20882 9.33895 -5.40756
H 4.6127 10.2406 -5.25265
H 3.32195 9.28763 -4.94837
O 6.85792 -9.04633 7.70432
H 7.53881 -8.38713 7.38516
H 6.60473 -8.83353 8.64805
O -1.27281 6.16076 7.77
H -0.849178 6.09334 8.67333
H -0.727789 6.76683 7.19064
O -13.0364 15.0124 -11.3641
H -12.5949 -14.7475 -10.5079
H -13.9406 -14.5926 -11.4199
O -8.11171 -12.2662 -11.4055
H -9.11152 -12.2685 -11.4256
H -7.76733 -11.5659 -12.0307
O -3.8727 4.0242 -12.87
H -4.58018 3.62064 -13.4502
H -2.9777 3.89501 -13.297
O 14.5744 0.737129 12.5273
H 13.851 0.251226 13.0179
H 14.254 1.65194 12.2815
O -6.90449 -3.21375 -7.65985
H -6.49946 -3.35646 -8.56296