LAMMPS data file via write_data, version 15 May 2015, timestep = 2000000

4560 atoms
7 atom types
5040 bonds
3 bond types
7200 angles
2 angle types
10560 dihedrals
3 dihedral types
2400 impropers
1 improper types

-1.0763502675555259e-01 4.1387635026745990e+01 xlo xhi
-4.0433884491974936e-02 3.5938433884472119e+01 ylo yhi
-3.5711112484589691e-01 2.9555111124838550e+01 zlo zhi
-6.7234083837551181e-02 -1.7036217651000683e+01 -4.1707816797290791e-02 xy xz yz

Masses

1 12.0107
2 1.008
3 12.0107
4 12.0107
5 12.0107
6 12.0107
7 12.0107

Pair Coeffs # lj/cut/coul/cut

1 0 0
2 0 0
3 0 0
4 0 0
5 0 0
6 0 0
7 0 0

Bond Coeffs # harmonic

1 469 1.4
2 367 1.08
3 469 0.7

Angle Coeffs # harmonic

1 35 120
2 63 120

Dihedral Coeffs # opls

1 0 7.25 0 0
2 0 7.25 0 0
3 0 7.25 0 0

Improper Coeffs # cvff

1 2.5 -1 2

Atoms # full

219 13 3 0.0000000000000000e+00 7.2351318750833560e-02 2.7193667163953772e+00 2.5129326005443868e+00 1 0 0
2113 113 2 0.0000000000000000e+00 2.7711817489911006e+00 1.5164010982111705e+01 1.9447898685027347e+00 1 0 0
2105 113 2 0.0000000000000000e+00 1.6213220873354950e+00 1.4651927401986624e+01 4.1940040005128161e+00 1 0 0
580 33 4 0.0000000000000000e+00 2.1516244852350090e+00 4.3168169811162365e+00 3.9528776468176616e+00 1 0 0
228 13 3 0.0000000000000000e+00 -1.0335300890837495e+00 2.2936556159435466e+00 3.2566593601955911e+00 1 0 0
2112 113 2 0.0000000000000000e+00 4.4215904642579353e+00 1.6442894357910237e+01 8.5823195903132432e-01 1 0 0
4394 233 2 0.0000000000000000e+00 3.4829805095097832e+00 2.7966366489644177e+00 1.8953341429046917e+00 1 1 0
594 33 2 0.0000000000000000e+00 1.4320186093635763e+00 4.3360634462055963e+00 5.9525896988596267e+00 1 0 0
980 53 4 0.0000000000000000e+00 4.6208233956667844e-02 8.1806351146486058e+00 1.2093423155357677e+00 1 0 0
2273 113 6 0.0000000000000000e+00 3.6642148500379390e+00 1.7321583461542051e+01 3.3977379762263542e+00 1 0 0
733 13 6 0.0000000000000000e+00 -4.2848798714245917e-01 2.4232728291269288e+00 2.9410443028582209e+00 1 0 0
1063 57 2 0.0000000000000000e+00 4.9931489954665569e+00 6.3154411402733341e+00 1.5624111659259856e+00 1 0 0
1066 57 2 0.0000000000000000e+00 5.6862468599506384e+00 8.0892053664533794e+00 -6.7780541868613542e-02 1 0 0
217 13 7 0.0000000000000000e+00 -5.5399947580883047e-01 1.1239436739692357e+00 7.6439417398801690e-01 1 0 0
223 13 2 0.0000000000000000e+00 1.1060355769484587e+00 2.4807735424782154e+00 6.6441330918242314e-01 1 0 0
1759 94 1 0.0000000000000000e+00 -5.1811542857457722e+00 1.1987600023630256e+01 1.0159080564915319e+01 1 0 0
1756 94 5 0.0000000000000000e+00 -6.5480799504296598e+00 1.3864106076653622e+01 1.0979187313414748e+01 1 0 0
1007 54 4 0.0000000000000000e+00 -4.9914133863849361e+00 9.4698821735847396e+00 8.7127078703895666e+00 1 0 0
218 13 5 0.0000000000000000e+00 2.6124930879034303e-01 2.1205648725936621e+00 1.2394446697987853e+00 1 0 0
224 13 2 0.0000000000000000e+00 1.7179502912881734e+00 4.0310893624638258e+00 2.3499303731105345e+00 1 0 0
242 14 2 0.0000000000000000e+00 -5.7273090648285976e+00 7.4926480327550793e-01 1.2605709075016378e+01 1 0 0
4380 233 4 0.0000000000000000e+00 3.8853708018743029e+00 1.4818807901006141e+00 3.6188372466338401e+00 1 1 0
321 18 2 0.0000000000000000e+00 -2.3506278092821020e-02 2.2482056322698032e+00 9.0744179607347153e+00 1 0 0
1747 93 4 0.0000000000000000e+00 -4.1412620200368044e-01 1.4687528951542079e+01 4.8772805404611184e+00 1 0 0
579 33 3 0.0000000000000000e+00 3.1474139692211258e+00 4.6819261838457358e+00 3.0820097443190999e+00 1 0 0
1743 93 2 0.0000000000000000e+00 4.5140102618983236e-01 1.3005326834462725e+01 7.2974890240700763e-01 1 0 0
1765 94 4 0.0000000000000000e+00 -3.4712570230773871e+00 1.5230003477701851e+01 9.5860496649481899e+00 1 0 0
596 34 5 0.0000000000000000e+00 -1.5223758775979501e-01 6.6958904866677589e+00 1.1679211441435466e+01 1 0 0
250 14 2 0.0000000000000000e+00 -1.9410568818268610e+00 1.8917866957828577e+00 9.7046593059293862e+00 1 0 0
588 33 3 0.0000000000000000e+00 4.1979059130427263e+00 5.4727513372182166e+00 3.5215748615815285e+00 1 0 0
589 33 4 0.0000000000000000e+00 5.2329547469156772e+00 5.7041705612460030e+00 2.7023866611735428e+00 1 0 0
604 34 1 0.0000000000000000e+00 -3.6937025679100621e-01 2.8096042032155291e+00 1.0276902409891958e+01 1 0 0
753 33 6 0.0000000000000000e+00 3.6258375804252583e+00 5.1777433550273138e+00 3.3070184927945836e+00 1 0 0
324 18 2 0.0000000000000000e+00 9.3397496413860637e-03 4.9680713422577971e-01 1.0580522444074372e+01 1 0 0
305 17 2 0.0000000000000000e+00 5.6992914049197427e+00 1.7718700277659487e+00 1.9808849719618911e+00 1 0 0
578 33 5 0.0000000000000000e+00 3.1422582355351643e+00 4.2336511353842399e+00 1.7743786432424846e+00 1 0 0
1361 74 2 0.0000000000000000e+00 1.5893320329519431e+00 1.0185487857686194e+01 9.0497271994804684e+00 1 0 0
4408 234 1 0.0000000000000000e+00 1.1749887442683686e+00 4.8913817351200162e-01 1.1235837846587435e+01 1 1 0
248 14 1 0.0000000000000000e+00 -3.7141829106694382e+00 4.6621991852166300e-01 1.2158121810058041e+01 1 0 0
587 33 4 0.0000000000000000e+00 4.2168965839463368e+00 5.9088510186358665e+00 4.8512496088970112e+00 1 0 0
2107 113 4 0.0000000000000000e+00 4.4209668602341461e+00 1.7208416182396466e+01 1.6658981541784730e+00 1 0 0
595 34 7 0.0000000000000000e+00 -4.3172669895127935e-01 7.7874609882866697e+00 1.0823464708623012e+01 1 0 0
994 53 2 0.0000000000000000e+00 9.2239258774157895e-01 6.2467998650907601e+00 4.7011591913514461e-01 1 0 0
993 53 2 0.0000000000000000e+00 -1.2570633201265706e+00 8.2990943762114640e+00 5.5682134032181843e+00 1 0 0
2130 114 2 0.0000000000000000e+00 -2.3963861794884926e+00 1.5282379427374673e+01 1.0472814275368396e+01 1 0 0
1813 97 1 0.0000000000000000e+00 5.4608853031089772e+00 1.4168750412638760e+01 1.9778111886043681e+00 1 0 0
4379 233 3 0.0000000000000000e+00 3.8134378788931520e+00 1.8747265038803354e-01 4.1267923648803873e+00 1 1 0
1000 54 2 0.0000000000000000e+00 -1.8845484229490417e+00 1.0607913449422794e+01 9.1719557289357461e+00 1 0 0
989 53 4 0.0000000000000000e+00 -1.1611715141095882e+00 8.7812515230073505e+00 4.5801646794456934e+00 1 0 0
583 33 2 0.0000000000000000e+00 2.2444982508448357e+00 3.6731298208210212e+00 1.4840814628985046e+00 1 0 0
1342 73 2 0.0000000000000000e+00 4.5398221081374031e+00 1.4315150179406841e+01 1.2154631703084013e+00 1 0 0
608 34 1 0.0000000000000000e+00 -1.2605632994981075e-01 3.0831402412323481e+00 1.1605363626372872e+01 1 0 0
996 54 5 0.0000000000000000e+00 -2.8462873381553586e+00 9.1096860156097001e+00 1.0511556682731221e+01 1 0 0
1751 93 2 0.0000000000000000e+00 1.0844276689032051e+00 1.4518323651441849e+01 6.4370047650814106e+00 1 0 0
1371 74 2 0.0000000000000000e+00 -2.1449968679140881e+00 1.3343389768936227e+01 9.8223712759066544e+00 1 0 0
1757 94 3 0.0000000000000000e+00 -5.6028860604914925e+00 1.4739234902072159e+01 1.0540941446030784e+01 1 0 0
1058 57 1 0.0000000000000000e+00 5.7917634596546712e+00 7.0346288967216415e+00 1.7944090041370266e+00 1 0 0
2123 114 2 0.0000000000000000e+00 2.1339096428382724e+00 1.4629479287366580e+01 9.4306078531119297e+00 1 0 0
2124 114 1 0.0000000000000000e+00 -2.8302674433062642e+00 1.7388388336219762e+01 1.0651460987239316e+01 1 0 0
236 14 5 0.0000000000000000e+00 -6.2821974622785808e+00 2.7215648241359802e+00 1.0720120332900215e+01 1 0 0
2274 114 6 0.0000000000000000e+00 -2.7101505295815809e-01 1.7035220539269250e+01 1.0287901213697562e+01 1 0 0
597 34 3 0.0000000000000000e+00 -2.4840237109841290e-01 5.4279134549651653e+00 1.1184319080238152e+01 1 0 0
734 14 6 0.0000000000000000e+00 -4.6232094852239705e+00 2.3415212204093119e+00 1.0470320525320201e+01 1 0 0
2129 114 2 0.0000000000000000e+00 -3.8945329769431609e+00 1.7243563441016803e+01 1.0786499794958274e+01 1 0 0
1763 94 2 0.0000000000000000e+00 -5.0596819676697748e+00 1.0948510380802256e+01 1.0055894910856226e+01 1 0 0
582 33 2 0.0000000000000000e+00 4.2416032956020828e+00 4.1592451931534278e+00 -4.8207127406458106e-02 1 0 0
237 14 3 0.0000000000000000e+00 -5.0686391450896577e+00 1.9662734735254994e+00 1.0899117703029821e+01 1 0 0
227 13 4 0.0000000000000000e+00 -1.1139242479901121e+00 2.7128555562413412e+00 4.6220058417786820e+00 1 0 0
231 13 2 0.0000000000000000e+00 -3.9679407009578860e-01 3.9865294465831975e+00 6.1722956975744356e+00 1 0 0
992 53 2 0.0000000000000000e+00 -5.8579283689016703e-01 6.2109814556994314e+00 4.5027412869071242e+00 1 0 0
1817 97 2 0.0000000000000000e+00 4.5669286640985645e+00 1.3792612835172829e+01 1.4826197879133589e+00 1 0 0
234 13 2 0.0000000000000000e+00 1.5817582530217504e+00 4.8628839208769472e+00 4.8444716820835261e+00 1 0 0
246 14 3 0.0000000000000000e+00 -4.0227971786279317e+00 2.2861171040676087e+00 1.0124851027489431e+01 1 0 0
611 34 2 0.0000000000000000e+00 -8.3267699413161278e-01 6.1087150531284031e+00 7.9869903150434105e+00 1 0 0
605 34 4 0.0000000000000000e+00 -4.6953173771281342e-01 3.8297561847214547e+00 9.3604992206885278e+00 1 0 0
606 34 3 0.0000000000000000e+00 -5.4325927405723640e-01 5.1361094546277739e+00 9.8637955897226348e+00 1 0 0
607 34 4 0.0000000000000000e+00 -7.0031003927141988e-01 6.1787471792795881e+00 9.0129223127620968e+00 1 0 0
1767 94 4 0.0000000000000000e+00 -4.1725998623289779e+00 1.2920793428284279e+01 9.7936182881430316e+00 1 0 0
1752 93 2 0.0000000000000000e+00 -1.0616222437068670e+00 1.5363852841208839e+01 5.4874047252080063e+00 1 0 0
2102 113 2 0.0000000000000000e+00 1.7826347607722419e+00 1.6237354106786761e+01 6.0146360673870225e+00 1 0 0
1750 93 1 0.0000000000000000e+00 1.5235389097257293e+00 1.3361433873908201e+01 4.6497423228711652e+00 1 0 0
598 34 4 0.0000000000000000e+00 -4.2102736217831449e-02 4.3749461894172033e+00 1.2103673317430287e+01 1 0 0
754 34 6 0.0000000000000000e+00 -4.2387962470519724e-01 5.2766740930329989e+00 1.0491542757086727e+01 1 0 0
1754 93 2 0.0000000000000000e+00 2.4614259431120513e+00 1.2907876057086526e+01 4.8926792819312368e+00 1 0 0
600 34 2 0.0000000000000000e+00 -6.1814547181540203e-01 8.8339387006514460e+00 1.1176507220799774e+01 1 0 0
1744 93 2 0.0000000000000000e+00 1.8456080630361744e+00 1.2551916064175673e+01 2.6212182787347298e+00 1 0 0
230 13 1 0.0000000000000000e+00 8.3469738296361085e-01 4.1614257248586810e+00 4.3333687010571191e+00 1 0 0
1755 94 7 0.0000000000000000e+00 -6.3764080071026523e+00 1.2503928343684731e+01 1.0782430643423867e+01 1 0 0
609 34 2 0.0000000000000000e+00 -5.4249781852894241e-01 1.8151383626629987e+00 9.8912166489764193e+00 1 0 0
979 53 3 0.0000000000000000e+00 -6.0208085432473080e-01 8.8493064538831039e+00 2.2531019119085820e+00 1 0 0
226 13 1 0.0000000000000000e+00 -1.4211630548072751e-01 3.6022280717621897e+00 5.1786620030613157e+00 1 0 0
1825 97 2 0.0000000000000000e+00 6.8719297844321545e+00 1.3092755330596372e+01 7.9378714045286403e-01 1 0 0
995 54 7 0.0000000000000000e+00 -2.7513486568894980e+00 9.9856657766866217e+00 9.3994687313114316e+00 1 0 0
1758 94 4 0.0000000000000000e+00 -5.8623717806769049e+00 1.6116044390908112e+01 1.0737201530877348e+01 1 0 0
2253 93 6 0.0000000000000000e+00 -3.9152315867540310e-01 1.4275087311526370e+01 2.9707690646127127e+00 1 0 0
1493 53 6 0.0000000000000000e+00 -5.6705210413239193e-01 8.6548614774729540e+00 2.9748560341482859e+00 1 0 0
316 18 1 0.0000000000000000e+00 8.6671841601836785e-01 2.2541019381220195e+00 9.6435892350515040e+00 1 0 0
1769 94 2 0.0000000000000000e+00 -2.9703317018407902e+00 1.7344019926982583e+01 9.2926793837896859e+00 1 0 0
4384 233 2 0.0000000000000000e+00 4.1612484291919198e+00 2.2368542319545934e+00 4.2324826874073160e+00 1 1 0
1280 69 2 0.0000000000000000e+00 -2.4215085152423299e+00 1.2330992374741582e+01 4.8072078820166215e+00 1 0 0
2125 114 4 0.0000000000000000e+00 -2.0334571068643816e+00 1.6305250004815772e+01 1.0463584688218100e+01 1 0 0
987 53 4 0.0000000000000000e+00 -4.4417847222444728e-01 6.7299941234092113e+00 3.5532228782722677e+00 1 0 0
1076 58 1 0.0000000000000000e+00 2.2895648102738573e+00 9.9849862579694477e+00 9.0835311935285681e+00 1 0 0
1081 58 2 0.0000000000000000e+00 1.7210754831039683e+00 1.0392013831652037e+01 8.2638798535473370e+00 1 0 0
2119 114 1 0.0000000000000000e+00 1.4609629226488314e+00 1.5465316527981981e+01 9.6605062529564272e+00 1 0 0
1003 54 2 0.0000000000000000e+00 -3.6565115976622393e+00 1.0531298359551679e+01 7.4451218837047408e+00 1 0 0
2503 133 2 0.0000000000000000e+00 -6.1968454289898123e-01 1.7879401040634832e+01 4.5285966664009045e+00 1 0 0
4391 233 2 0.0000000000000000e+00 2.7429467233005007e+00 1.0443857236455480e+00 4.6347639453775535e-01 1 1 0
1353 73 2 0.0000000000000000e+00 5.6927221362728737e+00 1.0213406267777907e+01 1.5716115452428021e+00 1 0 0
1740 93 4 0.0000000000000000e+00 1.2059166068121403e+00 1.3070619703214492e+01 3.3044265864838764e+00 1 0 0
1338 73 5 0.0000000000000000e+00 3.4831349348391365e+00 1.3115428688892619e+01 2.6174727719204247e+00 1 0 0
1339 73 3 0.0000000000000000e+00 3.2713315327487393e+00 1.1856316314525012e+01 3.2340621904498779e+00 1 0 0
1340 73 4 0.0000000000000000e+00 2.2611811256168965e+00 1.1656842443747157e+01 4.1590232957914033e+00 1 0 0
320 18 1 0.0000000000000000e+00 8.5172492250683796e-01 1.2062156567738238e+00 1.0577937085369982e+01 1 0 0
238 14 4 0.0000000000000000e+00 -4.9332158415110996e+00 1.0197564298741491e+00 1.1921258764222076e+01 1 0 0
2115 114 7 0.0000000000000000e+00 2.0361136463364797e+00 1.6761763898583943e+01 9.4092708916438905e+00 1 0 0
988 53 3 0.0000000000000000e+00 -7.4680915851074881e-01 8.1264063899964079e+00 3.4154745436068641e+00 1 0 0
1348 73 3 0.0000000000000000e+00 4.1054005536291500e+00 1.0817777569253622e+01 2.8895326489648894e+00 1 0 0
1349 73 4 0.0000000000000000e+00 5.1586389083925486e+00 1.1051344604089870e+01 1.9528856160734769e+00 1 0 0
1368 74 1 0.0000000000000000e+00 3.9419514695141977e-01 1.0844785871000395e+01 1.2943561167073367e+01 1 0 0
1513 73 6 0.0000000000000000e+00 3.6817754587649358e+00 1.1272692411287579e+01 3.2554892175660957e+00 1 0 0
603 34 2 0.0000000000000000e+00 -9.9237806567072262e-01 8.2053895712677658e+00 8.7280703385039402e+00 1 0 0
245 14 4 0.0000000000000000e+00 -2.8021852789842669e+00 1.6751294256795692e+00 1.0362628954270452e+01 1 0 0
1350 73 1 0.0000000000000000e+00 2.1121270800696852e+00 1.0406513155244403e+01 4.7609598999310183e+00 1 0 0
1347 73 4 0.0000000000000000e+00 3.9389503733998419e+00 9.5086076559126997e+00 3.4652886738513122e+00 1 0 0
1352 73 2 0.0000000000000000e+00 4.5875797790823700e+00 8.7017362228644473e+00 3.1986457141265361e+00 1 0 0
1281 69 2 0.0000000000000000e+00 -2.3515960719825362e+00 9.8712279642093854e+00 4.2891481379259844e+00 1 0 0
1343 73 2 0.0000000000000000e+00 2.7338300763359822e+00 1.3886403740718100e+01 2.7934390525291857e+00 1 0 0
297 17 2 0.0000000000000000e+00 4.8706362343190372e+00 3.9313849383874011e-01 3.8152316478806174e+00 1 0 0
991 53 2 0.0000000000000000e+00 4.3100856072149107e-01 5.0694846643368470e+00 2.3956942974516338e+00 1 0 0
599 34 1 0.0000000000000000e+00 -7.2724850604388980e-01 7.4755299973203169e+00 9.4756989520076846e+00 1 0 0
232 13 2 0.0000000000000000e+00 -1.8350028907431979e+00 2.2761071693927617e+00 5.2375079461360006e+00 1 0 0
2127 114 4 0.0000000000000000e+00 4.3578215232749073e-02 1.5344610378957066e+01 9.9828360743910700e+00 1 0 0
1748 93 3 0.0000000000000000e+00 -7.6355405988477143e-01 1.4460932585013211e+01 3.5580301030336039e+00 1 0 0
220 13 4 0.0000000000000000e+00 9.2858266755368435e-01 3.6649306431700692e+00 3.0192934470055044e+00 1 0 0
1370 74 2 0.0000000000000000e+00 -2.1089776069187938e+00 1.2996150714512982e+01 1.2201521998188669e+01 1 0 0
1002 54 2 0.0000000000000000e+00 -3.2075715193130572e+00 7.4448963209987964e+00 1.2490038022725862e+01 1 0 0
322 18 2 0.0000000000000000e+00 1.9723039926440258e+00 3.8878672468296616e+00 8.7627380857674968e+00 1 0 0
1004 54 1 0.0000000000000000e+00 -6.3489340546578079e+00 6.8261083129506535e+00 1.1040876014686097e+01 1 0 0
981 53 1 0.0000000000000000e+00 -1.5050345570235892e+00 1.0109482047948928e+01 4.5052926762753218e+00 1 0 0
1771 94 2 0.0000000000000000e+00 -3.2886265191288797e+00 1.2632054766302602e+01 9.2319649691150847e+00 1 0 0
984 53 2 0.0000000000000000e+00 2.7416732024096385e-01 8.6328909201022341e+00 2.6488515679939639e-01 1 0 0
2126 114 3 0.0000000000000000e+00 -7.1009486490464635e-01 1.6485782333028389e+01 1.0171211276196113e+01 1 0 0
1355 74 7 0.0000000000000000e+00 9.0542562435858009e-02 1.1466677692846616e+01 8.0492180170779406e+00 1 0 0
247 14 4 0.0000000000000000e+00 -4.2163371191521541e+00 3.2696560023252776e+00 9.1694595363356370e+00 1 0 0
998 54 4 0.0000000000000000e+00 -4.0870121195136031e+00 7.4936111363059776e+00 1.1788326463035176e+01 1 0 0
997 54 3 0.0000000000000000e+00 -4.0237637372157717e+00 8.4085160082726382e+00 1.0688767253610409e+01 1 0 0
1360 74 2 0.0000000000000000e+00 5.5314331774923087e-01 1.1400352311898111e+01 7.0451796779381990e+00 1 0 0
2097 113 7 0.0000000000000000e+00 2.2871884778195812e+00 1.6496262706852526e+01 5.0793711421083119e+00 1 0 0
1357 74 3 0.0000000000000000e+00 2.0877934781232454e-01 1.1138529249347686e+01 1.0487572006833977e+01 1 0 0
4405 234 4 0.0000000000000000e+00 -8.4623360592896812e-01 7.3323674267517758e-01 9.8370461505398712e+00 1 1 0
1381 75 2 0.0000000000000000e+00 -4.3251446210396116e+00 8.8525577085655378e+00 1.4430403148516879e+01 1 0 0
1494 54 6 0.0000000000000000e+00 -4.5597360123060717e+00 8.4351774565451922e+00 1.0294147986004546e+01 1 0 0
1341 73 1 0.0000000000000000e+00 5.3556764722507681e+00 1.2316112770147173e+01 1.2602266753264457e+00 1 0 0
1746 93 1 0.0000000000000000e+00 7.8268709865428221e-01 1.4211541752916148e+01 5.4503449493894909e+00 1 0 0
1764 94 1 0.0000000000000000e+00 -3.7513251210914174e+00 1.6637836289147035e+01 9.7088205760153468e+00 1 0 0
591 33 2 0.0000000000000000e+00 3.3264767068866776e+00 5.8294372540632580e+00 6.8023520722981532e+00 1 0 0
1514 74 6 0.0000000000000000e+00 -2.7159360105240715e-01 1.1658210429177066e+01 1.0525790199029059e+01 1 0 0
1345 73 2 0.0000000000000000e+00 6.0748172335879120e+00 1.2504484178420546e+01 4.1726680601642463e-01 1 0 0
2098 113 5 0.0000000000000000e+00 3.1050538711679967e+00 1.7660967993918657e+01 5.0640162084176481e+00 1 0 0
1344 73 2 0.0000000000000000e+00 1.6593892117221687e+00 1.2466572084836601e+01 4.5957632727574858e+00 1 0 0
2108 113 3 0.0000000000000000e+00 3.7142553053990071e+00 1.6938692999535164e+01 2.7770101730473780e+00 1 0 0
1366 74 3 0.0000000000000000e+00 -8.4821817596783688e-01 1.2052139154416782e+01 1.0684871159508754e+01 1 0 0
4409 234 2 0.0000000000000000e+00 6.6923165417533337e-01 2.2838460630680681e+00 1.0125253175821374e+01 1 1 0
1356 74 5 0.0000000000000000e+00 6.9039703858690782e-01 1.0836998456585080e+01 9.2237619389785035e+00 1 0 0
612 34 2 0.0000000000000000e+00 -2.0707493021746792e-01 2.1564590385287734e+00 1.2223222330290266e+01 1 0 0
2131 114 2 0.0000000000000000e+00 -4.1077832516925117e-01 1.4316266839653462e+01 1.0023319291906880e+01 1 0 0
2117 114 3 0.0000000000000000e+00 -5.0120312190020222e-02 1.7706610961286795e+01 1.0172006086270413e+01 1 0 0
251 14 2 0.0000000000000000e+00 -3.4524535179063998e+00 3.6029989724086735e+00 8.5142331284267225e+00 1 0 0
1766 94 3 0.0000000000000000e+00 -4.4328545696855572e+00 1.4294922738207122e+01 9.9664029006255959e+00 1 0 0
1006 54 3 0.0000000000000000e+00 -5.1015493793162330e+00 8.5936303938572252e+00 9.7975099663598577e+00 1 0 0
1030 55 2 0.0000000000000000e+00 -7.6905962287809544e+00 9.5959530127398871e+00 1.4514120385778595e+01 1 0 0
2109 113 4 0.0000000000000000e+00 2.8656770850809261e+00 1.5796094263106010e+01 2.8030316078782898e+00 1 0 0
1367 74 4 0.0000000000000000e+00 -1.3949168607482507e+00 1.2674798347298559e+01 9.5698715290215883e+00 1 0 0
1337 73 7 0.0000000000000000e+00 4.5628979691878602e+00 1.3372481910423909e+01 1.7054729339158090e+00 1 0 0
1062 57 1 0.0000000000000000e+00 6.1928013541240379e+00 8.0654820566638854e+00 9.2075822538871455e-01 1 0 0
244 14 1 0.0000000000000000e+00 -2.6376047131550244e+00 7.4319544032502849e-01 1.1381338213935752e+01 1 0 0
1288 70 2 0.0000000000000000e+00 -5.6750015036752934e+00 1.1565051628208733e+01 1.0535447389522842e+01 1 0 0
999 54 1 0.0000000000000000e+00 -3.8158713403774529e+00 1.0115279712218102e+01 8.4759156467676000e+00 1 0 0
590 33 1 0.0000000000000000e+00 2.2015409342392500e+00 4.6531992539803602e+00 5.2827140780075785e+00 1 0 0
593 33 2 0.0000000000000000e+00 6.0674358759644766e+00 6.2534015409654442e+00 3.1044540791506097e+00 1 0 0
4386 233 1 0.0000000000000000e+00 3.0070255129934234e+00 8.0763795588473442e-01 1.5082995154556991e+00 1 1 0
1001 54 2 0.0000000000000000e+00 -2.0191507156326765e+00 8.9125163466696851e+00 1.1098384552645790e+01 1 0 0
585 33 2 0.0000000000000000e+00 6.1085893107558915e+00 5.5849639471505768e+00 6.7836089290632917e-01 1 0 0
2101 113 1 0.0000000000000000e+00 2.2290422101684624e+00 1.5528333117883644e+01 4.0385835748664247e+00 1 0 0
2254 94 6 0.0000000000000000e+00 -5.0484647644354776e+00 1.4599144223045201e+01 1.0276857101734787e+01 1 0 0
1008 54 1 0.0000000000000000e+00 -5.2814651164984117e+00 6.7818394381546643e+00 1.1973580562810840e+01 1 0 0
1739 93 3 0.0000000000000000e+00 1.0584619974498044e-01 1.3742768460088465e+01 2.7366516890251020e+00 1 0 0
586 33 1 0.0000000000000000e+00 3.2267327531806176e+00 5.4986780954598693e+00 5.7649874309120612e+00 1 0 0
1770 94 2 0.0000000000000000e+00 -2.5245339121252264e+00 1.4973806035803747e+01 9.1147970637732421e+00 1 0 0
1369 74 2 0.0000000000000000e+00 -1.1029402862789190e+00 1.2046189305594101e+01 1.4068930402614008e+01 1 0 0
1364 74 1 0.0000000000000000e+00 -7.0135597658149784e-01 1.1769138581979435e+01 1.3105658131820757e+01 1 0 0
1358 74 4 0.0000000000000000e+00 8.1866441336433127e-01 1.0570113989450492e+01 1.1652533293206032e+01 1 0 0
4404 234 1 0.0000000000000000e+00 3.1833737169944243e-01 1.2790276300731189e+00 1.0407077298596844e+01 1 1 0
584 33 2 0.0000000000000000e+00 1.4037428985825229e+00 3.6623459132772069e+00 3.5999248365939738e+00 1 0 0
1363 74 2 0.0000000000000000e+00 -1.4923096589920943e+00 1.2892337365649137e+01 7.5183354308181221e+00 1 0 0
4410 234 2 0.0000000000000000e+00 -1.4426073040773040e+00 1.2449456417318157e+00 9.0768552294780616e+00 1 1 0
1365 74 4 0.0000000000000000e+00 -1.3185118392784823e+00 1.2326020289188538e+01 1.1974517403035829e+01 1 0 0
1359 74 1 0.0000000000000000e+00 -9.4852174325757987e-01 1.2394199517607365e+01 8.2803070348888941e+00 1 0 0
1768 94 1 0.0000000000000000e+00 -4.9787911007132051e+00 1.7125391472506003e+01 1.0249331715384214e+01 1 0 0
2529 134 2 0.0000000000000000e+00 -4.8716877366587337e+00 1.7043921963468740e+01 1.2331786657845402e+01 1 0 0
1082 58 2 0.0000000000000000e+00 2.7613582393198888e+00 8.3576240843382390e+00 7.9426485050095064e+00 1 0 0
978 53 5 0.0000000000000000e+00 -1.0149211155767044e+00 1.0211394846212507e+01 2.1202233590668702e+00 1 0 0
1012 54 2 0.0000000000000000e+00 -5.3499844555894747e+00 6.0798486144053623e+00 1.2721790367337730e+01 1 0 0
986 53 1 0.0000000000000000e+00 1.0170292162306493e-01 6.1365365006056569e+00 2.4131644598131525e+00 1 0 0
1354 73 2 0.0000000000000000e+00 1.2971879203563437e+00 1.0205992471755383e+01 5.5481467586329085e+00 1 0 0
577 33 7 0.0000000000000000e+00 4.1835045089057719e+00 4.5612577051718315e+00 9.0145001035620931e-01 1 0 0
4383 233 2 0.0000000000000000e+00 4.4871935644656222e+00 7.3998566783071207e-01 5.9932287680367802e+00 1 1 0
982 53 2 0.0000000000000000e+00 -2.0233746939514097e+00 1.1774231221816748e+01 3.0608088139747314e+00 1 0 0
977 53 7 0.0000000000000000e+00 -1.5553582430510113e+00 1.0848145301828756e+01 3.2608466309798292e+00 1 0 0
581 33 1 0.0000000000000000e+00 5.2633320980871448e+00 5.3130952920078691e+00 1.3275504468237844e+00 1 0 0
610 34 2 0.0000000000000000e+00 -6.2396208410264276e-01 3.5561248253628372e+00 8.3531986216537000e+00 1 0 0
2099 113 3 0.0000000000000000e+00 3.8124113560777877e+00 1.7831783397469223e+01 3.8722252604495502e+00 1 0 0
1814 97 2 0.0000000000000000e+00 4.4575601644967344e+00 1.5204330097503343e+01 3.5981477028950803e+00 1 0 0
1841 98 2 0.0000000000000000e+00 5.8648725785294076e-01 1.5873194402723529e+01 1.2192517393969508e+01 1 0 0
4390 233 1 0.0000000000000000e+00 3.4801900302672291e+00 1.8078401783414006e+00 2.3126753576581205e+00 1 1 0
1738 93 5 0.0000000000000000e+00 -2.0083221058581291e-01 1.3585699431684114e+01 1.3949055550939347e+00 1 0 0
249 14 2 0.0000000000000000e+00 -1.6865042916511790e+00 2.2339413109676207e-01 1.1485017790054746e+01 1 0 0
990 53 1 0.0000000000000000e+00 3.8949485027918906e-01 6.8051579235555542e+00 1.2661917903305133e+00 1 0 0
1809 97 7 0.0000000000000000e+00 5.3894721209502423e+00 1.4964881343587058e+01 3.1401201381986934e+00 1 0 0
1346 73 1 0.0000000000000000e+00 2.8843580368985697e+00 9.2882560999180903e+00 4.3603952445367895e+00 1 0 0
1842 98 2 0.0000000000000000e+00 1.1278815839169516e+00 1.3562107753790693e+01 1.1542222684199983e+01 1 0 0
1749 93 4 0.0000000000000000e+00 -1.9744762667383220e+00 1.4971341164979513e+01 3.1191792683964530e+00 1 0 0
1077 58 4 0.0000000000000000e+00 2.8753736946397686e+00 8.7541732813046877e+00 8.9355698261028316e+00 1 0 0
2532 134 2 0.0000000000000000e+00 -6.1839313550310129e+00 1.7093056010373569e+01 1.0267033019746911e+01 1 0 0
985 53 2 0.0000000000000000e+00 -1.9642164250807526e+00 1.0560216733576688e+01 5.3284921265699001e+00 1 0 0
601 34 2 0.0000000000000000e+00 4.7178034130251234e-02 6.8845504388671461e+00 1.2700018726842114e+01 1 0 0
1821 97 4 0.0000000000000000e+00 6.7318340755553052e+00 1.3668592927376874e+01 1.5845970744011411e+00 1 0 0
1351 73 2 0.0000000000000000e+00 2.6610865877456833e+00 8.3131743531636921e+00 4.7494215843944172e+00 1 0 0
301 17 4 0.0000000000000000e+00 6.2595678387604350e+00 1.6493757303170211e+00 2.8404218212971792e+00 1 0 0
317 18 4 0.0000000000000000e+00 1.9740360418274188e+00 3.0813337986210585e+00 9.5030311517199948e+00 1 0 0
2116 114 5 0.0000000000000000e+00 1.2833296839163593e+00 1.7835823767805007e+01 9.8280411583412803e+00 1 0 0
4025 213 2 0.0000000000000000e+00 -4.1520687142549173e-01 2.4189689781965837e-01 3.3712953444675904e+00 1 1 0
602 34 2 0.0000000000000000e+00 -1.1345616408372727e-02 4.7003187755908336e+00 1.3135463985488270e+01 1 0 0
1056 57 2 0.0000000000000000e+00 7.5354060338992239e+00 9.7869677873010961e+00 5.9630987589951023e-01 1 0 0
1052 57 4 0.0000000000000000e+00 7.1814248066677830e+00 9.0502945632137823e+00 1.2843513524854226e+00 1 0 0
304 17 2 0.0000000000000000e+00 7.2364450423485760e+00 3.3669453636778619e+00 1.0536525087759614e+00 1 0 0
1084 58 2 0.0000000000000000e+00 1.9975535136263201e+00 1.1732723303626596e+01 1.0365875673049441e+01 1 0 0
229 13 4 0.0000000000000000e+00 -1.8824969005585146e+00 1.2817351304910884e+00 2.8040215599932057e+00 1 0 0
239 14 1 0.0000000000000000e+00 -5.3393891386008576e+00 4.0061351556422373e+00 8.9946989552085661e+00 1 0 0
1798 96 2 0.0000000000000000e+00 -1.2261327084014788e+01 1.1728821031871398e+01 2.5399525897560899e+01 1 0 0
1041 56 4 0.0000000000000000e+00 -1.3320939786943216e+01 1.0116334265976210e+01 2.4491903523523519e+01 1 0 0
255 15 3 0.0000000000000000e+00 -8.7896403707570787e+00 1.8905996354043144e+00 1.7621318453256585e+01 1 0 0
4434 236 4 0.0000000000000000e+00 -9.7228565091315673e+00 1.1910016625671775e+00 2.5365142445333511e+01 1 1 0
2151 116 7 0.0000000000000000e+00 -8.0007342911531278e+00 1.7155672196412507e+01 2.3389347491255940e+01 1 0 0
1378 75 2 0.0000000000000000e+00 -2.1327045973457421e+00 9.2535559645691201e+00 1.5694321456791091e+01 1 0 0
262 15 1 0.0000000000000000e+00 -9.2033215577113090e+00 4.3111215450579117e+00 1.6201295893466227e+01 1 0 0
264 15 3 0.0000000000000000e+00 -9.0646324784942500e+00 3.0643215976158826e+00 1.8255487042416341e+01 1 0 0
1013 55 7 0.0000000000000000e+00 -9.9765985020204937e+00 6.3316495712254239e+00 1.8720198763537660e+01 1 0 0
2141 115 2 0.0000000000000000e+00 -7.2393670955276201e+00 1.4578618280830058e+01 1.6736779219344371e+01 1 0 0
1776 95 4 0.0000000000000000e+00 -7.5695675850633615e+00 1.4510360803192455e+01 1.8859782292175058e+01 1 0 0
735 15 6 0.0000000000000000e+00 -8.9347807607141299e+00 2.4212575120485829e+00 1.8049444338368009e+01 1 0 0
1774 95 5 0.0000000000000000e+00 -8.0527365044081112e+00 1.3382657321226519e+01 1.6819579012746285e+01 1 0 0
1032 56 5 0.0000000000000000e+00 -1.3299798147946930e+01 6.7279670095833755e+00 2.5984291863172171e+01 1 0 0
1803 96 4 0.0000000000000000e+00 -1.4070424625368327e+01 1.5906011731581627e+01 2.5046465489532075e+01 1 0 0
4429 235 2 0.0000000000000000e+00 -6.6772044840299651e+00 1.2233657115045062e+00 1.7640221371041577e+01 1 1 0
615 35 3 0.0000000000000000e+00 -5.4098287849598190e+00 5.0256123780116653e+00 1.7946298306494676e+01 1 0 0
2542 135 1 0.0000000000000000e+00 -9.3240441767311175e+00 1.7872572019268887e+01 1.8036915340498922e+01 1 0 0
275 16 1 0.0000000000000000e+00 -1.1674271157224055e+01 3.7618380917247825e+00 2.4513482168275068e+01 1 0 0
624 35 3 0.0000000000000000e+00 -4.7592560290062478e+00 5.3962377127092012e+00 1.9088709332756341e+01 1 0 0
625 35 4 0.0000000000000000e+00 -4.5827399241470195e+00 4.4963170870566067e+00 2.0166138075714986e+01 1 0 0
1324 72 2 0.0000000000000000e+00 -1.3827050620803607e+01 9.9892990252272647e+00 2.5397286570699872e+01 1 0 0
755 35 6 0.0000000000000000e+00 -4.9284041921786770e+00 5.1210433116297231e+00 1.8445545325477323e+01 1 0 0
4444 236 1 0.0000000000000000e+00 -1.0301545388316299e+01 9.9077230469213684e-01 2.4145725049310236e+01 1 1 0
614 35 5 0.0000000000000000e+00 -5.8851642186901350e+00 3.7098109372557464e+00 1.7794121487314019e+01 1 0 0
1025 55 4 0.0000000000000000e+00 -9.0261084031832706e+00 8.4743552309087757e+00 1.9445004345904749e+01 1 0 0
357 20 2 0.0000000000000000e+00 -7.7511417160914640e+00 9.2089903019325658e-01 2.4502829778491638e+01 1 0 0
616 35 4 0.0000000000000000e+00 -5.4024082807560783e+00 5.9558347083323921e+00 1.6942123435509910e+01 1 0 0
1023 55 4 0.0000000000000000e+00 -7.9555438090626094e+00 9.9532023296582750e+00 1.7924132332844039e+01 1 0 0