LAMMPS (15 May 2015)
Reading data file ...
  triclinic box = (-0.107635 -0.0404339 -0.357111) to (41.3876 35.9384 29.5551) with tilt (-0.0672341 -17.0362 -0.0417078)
  5 by 2 by 2 MPI processor grid
  reading atoms ...
  4560 atoms
  reading velocities ...
  4560 velocities
  scanning bonds ...
  3 = max bonds/atom
  scanning angles ...
  3 = max angles/atom
  scanning dihedrals ...
  8 = max dihedrals/atom
  scanning impropers ...
  1 = max impropers/atom
  reading bonds ...
  5040 bonds
  reading angles ...
  7200 angles
  reading dihedrals ...
  10560 dihedrals
  reading impropers ...
  2400 impropers
Finding 1-2 1-3 1-4 neighbors ...
 Special bond factors lj:   0          0          0         
 Special bond factors coul: 0          0          0         
  4 = max # of 1-2 neighbors
  8 = max # of 1-3 neighbors
  20 = max # of 1-4 neighbors
  16 = max # of special neighbors
4560 atoms in group all
720 atoms in group C
480 atoms in group S
1920 atoms in group H
720 atoms in group Si
240 atoms in group Na
240 atoms in group Ba
240 atoms in group O
4560 atoms in group naphthalene
2400 atoms in group carbon
960 atoms in group CO
Setting atom values ...
  720 settings made for charge
Setting atom values ...
  720 settings made for charge
Setting atom values ...
  1920 settings made for charge
Setting atom values ...
  480 settings made for charge
Setting atom values ...
  240 settings made for charge
Setting atom values ...
  240 settings made for charge
Setting atom values ...
  240 settings made for charge
Finding 1-2 1-3 1-4 neighbors ...
 Special bond factors lj:   0          0          0.5       
 Special bond factors coul: 0          0          0.5       
  4 = max # of 1-2 neighbors
  8 = max # of 1-3 neighbors
  20 = max # of 1-4 neighbors
  16 = max # of special neighbors
Neighbor list info ...
  4 neighbor list requests
  update every 1 steps, delay 0 steps, check yes
  master list distance cutoff = 12
Setting up run ...
Memory usage per processor = 13.4064 Mbytes
Step Temp Density PotEng E_vdwl E_tail E_coul E_long Press Volume Xy Xz Yz E_mol E_bond E_angle E_dihed 14[1] 14[2] 14[3] msd[4] msd2[4] msd3[4] msd4[4] naphthal Cella Cellb Cellc CellAlpha CellBeta CellGamma 2 3 27[1] 27[2] 27[3] 28[1] 28[2] 28[3] 
       0          298    1.2509986     3498.833            0            0            0            0   -15873.524    44657.537 -0.067234084   -17.036218 -0.041707817     3498.833    1521.0094     935.4334    889.67826    28.379601    18.846571    14.337846 7.7711016e-30 8.8746852e-30 6.8181724e-30 5.7534156e-30          298     41.49527    35.978931    34.423473    90.016431    119.66323    90.107069 1.857299e-31 4.9466509e-24    28.379557    18.849013    14.339638    28.379812    18.845474    14.337264 
   10000     296.8764    1.2509986    3617.8345            0            0            0            0     1025.681    44657.537 -0.067234084   -17.036218 -0.041707817    3617.8345    1492.0464    1031.6799    937.98518    28.372889    18.850876    14.334729 0.00032450488 0.0003239293    2.2623478     2.262241     296.8764     41.49527    35.978931    34.423473    90.016431    119.66323    90.107069  0.054296348    194.70293    28.378898    18.848741    14.339377    28.370866     18.84987     14.33453 
   20000    288.21268    1.2509986    3542.8649            0            0            0            0     1386.899    44657.537 -0.067234084   -17.036218 -0.041707817    3542.8649    1483.0368    974.18689    932.15223    28.374267    18.846238    14.344636 0.00037148416 0.00036945783    3.8449112    3.8448193    288.21268     41.49527    35.978931    34.423473    90.016431    119.66323    90.107069   0.09227787     222.8905     28.38062    18.849174    14.340571     28.37346    18.845079    14.344438 
   30000    300.15649    1.2509986    3580.8662            0            0            0            0   -166.10727    44657.537 -0.067234084   -17.036218 -0.041707817    3580.8662    1444.3422    1018.3739    954.44085    28.371156     18.84394    14.334295 0.00034880863 0.00034628931     4.588787    4.5886657    300.15649     41.49527    35.978931    34.423473    90.016431    119.66323    90.107069   0.11013089    209.28518    28.378973       18.848    14.338564    28.369928    18.845943    14.332431 
   40000    297.15981    1.2509986    3638.8675            0            0            0            0     730.6367    44657.537 -0.067234084   -17.036218 -0.041707817    3638.8675      1514.74     1024.317    937.36951    28.389671    18.856085    14.342394 0.00034205188 0.00034110161     5.254725    5.2544749    297.15981     41.49527    35.978931    34.423473    90.016431    119.66323    90.107069    0.1261134    205.23113    28.379209    18.849494    14.340412    28.389281    18.856971    14.342578 
   50000     302.6819    1.2509986    3578.5988            0            0            0            0    2530.4446    44657.537 -0.067234084   -17.036218 -0.041707817    3578.5988    1482.8737    1053.8974    890.33658    28.380919    18.857872    14.345852 0.00037306494 0.00037235148    5.6588237    5.6585577     302.6819     41.49527    35.978931    34.423473    90.016431    119.66323    90.107069   0.13581177    223.83896    28.380299    18.849288    14.339345    28.381602    18.858477    14.346948 
   60000    298.69862    1.2509986    3584.1761            0            0            0            0   -542.75293    44657.537 -0.067234084   -17.036218 -0.041707817    3584.1761    1493.5381    1025.2472    911.81985    28.384621    18.847654    14.340014 0.00034540661 0.00034463793    6.2292863    6.2292611    298.69862     41.49527    35.978931    34.423473    90.016431    119.66323    90.107069   0.14950287    207.24396    28.380236    18.848625    14.339243    28.384072    18.846662    14.339624 
   70000    304.09842    1.2509986    3678.4308            0            0            0            0    979.48069    44657.537 -0.067234084   -17.036218 -0.041707817    3678.4308    1531.5906    1052.9051    935.99397    28.375075     18.85206    14.339442  0.000395838 0.00039458053     6.188023    6.1879526    304.09842     41.49527    35.978931    34.423473    90.016431    119.66323    90.107069   0.14851255     237.5028    28.380491    18.848432    14.339853    28.374112    18.851462    14.338701 
   80000    292.24457    1.2509986     3561.316            0            0            0            0    1170.8322    44657.537 -0.067234084   -17.036218 -0.041707817     3561.316    1512.4408    977.22157    914.06306    28.384357    18.851368    14.340719 0.00037127312 0.00036952863    6.5860696    6.5859794    292.24457     41.49527    35.978931    34.423473    90.016431    119.66323    90.107069   0.15806567    222.76387    28.378735     18.84815    14.339068    28.386268    18.850366    14.342217 
   90000    298.96292    1.2509986    3573.2439            0            0            0            0    550.80417    44657.537 -0.067234084   -17.036218 -0.041707817    3573.2439    1442.8708    1012.6878    953.16809    28.379237    18.845537    14.344875 0.00035314148 0.00034952305    6.6446893    6.6446343    298.96292     41.49527    35.978931    34.423473    90.016431    119.66323    90.107069   0.15947254    211.88489    28.379072    18.850723    14.340315    28.381554     18.84486    14.344445 
  100000    295.32471    1.2509986    3621.0812            0            0            0            0   -1543.1339    44657.537 -0.067234084   -17.036218 -0.041707817    3621.0812     1484.352    1022.1136    950.59434     28.37878    18.853424    14.336264 0.00030929301 0.00030884549    6.7025753    6.7025039    295.32471     41.49527    35.978931    34.423473    90.016431    119.66323    90.107069   0.16086181    185.57581    28.379959    18.848615    14.339282    28.379312    18.853607    14.335045 
  110000    298.67806    1.2509986    3531.8256            0            0            0            0    1826.1308    44657.537 -0.067234084   -17.036218 -0.041707817    3531.8256     1448.049    1001.6669    919.58132    28.387266    18.847592    14.346469 0.00040152788 0.0003996901    6.7619555    6.7618023    298.67806     41.49527    35.978931    34.423473    90.016431    119.66323    90.107069   0.16228693    240.91673    28.380109    18.847776    14.339579    28.387577    18.847267    14.346732 
  120000    296.77166    1.2509986    3559.1655            0            0            0            0    374.05015    44657.537 -0.067234084   -17.036218 -0.041707817    3559.1655    1506.2562    995.67102    903.63582     28.38415    18.846276    14.339069 0.00035254433 0.00035027673    6.6106199    6.6106081    296.77166     41.49527    35.978931    34.423473    90.016431    119.66323    90.107069   0.15865488     211.5266    28.380174    18.849468    14.340934    28.383108    18.846132    14.337988 
  130000    300.99479    1.2509986    3573.4734            0            0            0            0    65.415532    44657.537 -0.067234084   -17.036218 -0.041707817    3573.4734    1508.3048    997.36297    913.15418    28.379548    18.851057    14.339399 0.00035782428 0.00035702634    6.5725437    6.5725112    300.99479     41.49527    35.978931    34.423473    90.016431    119.66323    90.107069   0.15774105    214.69457    28.378963    18.849512    14.340081    28.380791    18.851085     14.33697 
  140000    303.27556    1.2509986     3568.224            0            0            0            0   -72.644417    44657.537 -0.067234084   -17.036218 -0.041707817     3568.224    1485.4816    991.09284    934.70265    28.379103    18.848628    14.339208 0.00036773239 0.00036613804    6.5970861     6.597071    303.27556     41.49527    35.978931    34.423473    90.016431    119.66323    90.107069   0.15833007    220.63943    28.380219    18.848662    14.338622    28.378455    18.848895    14.338508 
  150000    299.33895    1.2509986    3620.1155            0            0            0            0    586.49149    44657.537 -0.067234084   -17.036218 -0.041707817    3620.1155    1526.8583    1017.1401    924.69819    28.378643     18.84277    14.337674 0.00033807937 0.00033593806      6.67907    6.6790391    299.33895     41.49527    35.978931    34.423473    90.016431    119.66323    90.107069   0.16029768    202.84762    28.379761    18.849783    14.338411    28.375625    18.842336    14.339119 
  160000    302.21511    1.2509986    3589.0478            0            0            0            0    1224.4325    44657.537 -0.067234084   -17.036218 -0.041707817    3589.0478     1495.156    1012.5809    922.39851    28.377406    18.845101    14.342232 0.0003700329 0.00036666518    6.8315506    6.8315071    302.21511     41.49527    35.978931    34.423473    90.016431    119.66323    90.107069   0.16395721    222.01974    28.379567    18.847178    14.339658    28.376136    18.844829    14.342707 
  170000    297.33471    1.2509986    3688.3829            0            0            0            0     1400.958    44657.537 -0.067234084   -17.036218 -0.041707817    3688.3829    1520.3582    1044.0781    962.64141      28.3764    18.848953    14.343352 0.00035240358 0.00035148473    6.6797845    6.6797351    297.33471     41.49527    35.978931    34.423473    90.016431    119.66323    90.107069   0.16031483    211.44215    28.379739    18.848267    14.340212    28.376864    18.846995    14.343456 
  180000    293.87938    1.2509986    3527.9555            0            0            0            0    773.34127    44657.537 -0.067234084   -17.036218 -0.041707817    3527.9555    1439.3655    999.11495    932.86306    28.379357    18.850478    14.343873 0.00036385709 0.00036258296    6.6682734    6.6682043    293.87938     41.49527    35.978931    34.423473    90.016431    119.66323    90.107069   0.16003856    218.31425    28.380424    18.849356    14.340274     28.37907    18.850171    14.344087 
  190000    300.99921    1.2509986    3634.4643            0            0            0            0    -207.7173    44657.537 -0.067234084   -17.036218 -0.041707817    3634.4643    1520.1079    1027.2677     930.9035     28.38236    18.853556    14.335325 0.00033265859 0.00033024327    6.9817474    6.9816845    300.99921     41.49527    35.978931    34.423473    90.016431    119.66323    90.107069   0.16756194    199.59515    28.380416    18.849252    14.338365     28.38155    18.852602    14.334239 
  200000    296.47585    1.2509986    3559.6679            0            0            0            0    573.15803    44657.537 -0.067234084   -17.036218 -0.041707817    3559.6679    1471.7803    1004.0064    926.65515    28.379438    18.850195     14.33915 0.00036894348 0.00036755701    6.7561397    6.7561059    296.47585     41.49527    35.978931    34.423473    90.016431    119.66323    90.107069   0.16214735    221.36609    28.379773    18.849615     14.33865    28.378375    18.850273    14.340215 
  210000    295.64873    1.2509986    3577.8506            0            0            0            0     1177.582    44657.537 -0.067234084   -17.036218 -0.041707817    3577.8506    1448.6465    1032.4057    938.78842    28.379922    18.852843    14.344568 0.00035476776 0.00035231645    6.7348657    6.7347613    295.64873     41.49527    35.978931    34.423473    90.016431    119.66323    90.107069   0.16163678    212.86066    28.379426    18.849582    14.341091    28.379515    18.852656    14.344531 
  220000    296.46161    1.2509986     3599.654            0            0            0            0    1916.2904    44657.537 -0.067234084   -17.036218 -0.041707817     3599.654    1486.7795    1026.5881    931.02886    28.380821    18.850716    14.337097 0.00034924008 0.00034846813    6.9638172    6.9638063    296.46161     41.49527    35.978931    34.423473    90.016431    119.66323    90.107069   0.16713161    209.54405     28.37921    18.848895    14.340437    28.378865     18.84862    14.337504 
  230000    293.58399    1.2509986    3539.9807            0            0            0            0    1227.0446    44657.537 -0.067234084   -17.036218 -0.041707817    3539.9807     1431.231    1013.0255    934.62661    28.378824    18.843888    14.343098 0.00033785916 0.00033706982     6.840284    6.8402348    293.58399     41.49527    35.978931    34.423473    90.016431    119.66323    90.107069   0.16416682     202.7155    28.380032    18.848523    14.339069     28.37665    18.844606    14.343465 
  240000    298.71404    1.2509986    3641.5293            0            0            0            0    689.94103    44657.537 -0.067234084   -17.036218 -0.041707817    3641.5293    1463.2654    1019.6395    991.08486    28.377044    18.845866    14.333982 0.00035359957 0.0003520907    7.0352122    7.0351977    298.71404     41.49527    35.978931    34.423473    90.016431    119.66323    90.107069   0.16884509    212.15974    28.378849    18.849625    14.338842    28.378604    18.847141     14.33406 
  250000    300.80674    1.2509986    3599.8793            0            0            0            0   -1071.6462    44657.537 -0.067234084   -17.036218 -0.041707817    3599.8793    1463.5791    1018.6044    959.99205    28.379922    18.853883    14.337529 0.00032097935 0.00031825689    7.0380287    7.0379387    300.80674     41.49527    35.978931    34.423473    90.016431    119.66323    90.107069   0.16891269    192.58761    28.378282    18.848818    14.338608    28.378798    18.854731    14.339066 
  260000    297.77114    1.2509986    3531.0978            0            0            0            0   -100.70024    44657.537 -0.067234084   -17.036218 -0.041707817    3531.0978    1466.9859    1022.3463    888.58575    28.383825    18.846336     14.33364 0.00038003676 0.00037647754    7.1706067    7.1705837    297.77114     41.49527    35.978931    34.423473    90.016431    119.66323    90.107069   0.17209456    228.02205    28.378391    18.849595    14.341002    28.380842    18.847721    14.333161 
  270000    302.51257    1.2509986    3536.8205            0            0            0            0    794.23217    44657.537 -0.067234084   -17.036218 -0.041707817    3536.8205    1478.8116    1017.2875    893.19067    28.379213    18.849991    14.343756 0.00034233677 0.00034224944    6.8584542    6.8583555    302.51257     41.49527    35.978931    34.423473    90.016431    119.66323    90.107069    0.1646029    205.40206    28.379524    18.848849    14.339395    28.380562    18.850408    14.345851 
  280000    295.76577    1.2509986    3613.0476            0            0            0            0    772.86938    44657.537 -0.067234084   -17.036218 -0.041707817    3613.0476     1508.837     1036.406      911.499    28.383455    18.851457    14.340114 0.00034970074 0.00034729406    6.8023319    6.8022438    295.76577     41.49527    35.978931    34.423473    90.016431    119.66323    90.107069   0.16325597    209.82044    28.381062    18.848761    14.339914    28.385565    18.852274     14.34023 
  290000    298.64914    1.2509986    3636.2117            0            0            0            0    -606.5212    44657.537 -0.067234084   -17.036218 -0.041707817    3636.2117    1481.5878    1064.8404    932.13481    28.377525     18.84708    14.341387 0.00034716384 0.00034510279    6.7275912    6.7275722    298.64914     41.49527    35.978931    34.423473    90.016431    119.66323    90.107069   0.16146219     208.2983    28.379705    18.847594    14.339482    28.378719    18.845909    14.341464 
  300000    296.49887    1.2509986    3625.6496            0            0            0            0    2004.8376    44657.537 -0.067234084   -17.036218 -0.041707817    3625.6496    1486.2174    1044.7013     934.2742    28.381282    18.850321    14.334263 0.00037800524 0.00037685034    6.7709292    6.7708951    296.49887     41.49527    35.978931    34.423473    90.016431    119.66323    90.107069    0.1625023    226.80314    28.380198    18.849805     14.33998    28.380635     18.84985    14.333491 
  310000    300.80678    1.2509986    3617.4992            0            0            0            0    1162.2124    44657.537 -0.067234084   -17.036218 -0.041707817    3617.4992    1497.6373    1037.4027    925.07713    28.380742     18.85122    14.335175 0.00034382578 0.00034135914    7.1028306     7.102793    300.80678     41.49527    35.978931    34.423473    90.016431    119.66323    90.107069   0.17046793    206.29547    28.378327     18.84804    14.339733    28.380486    18.850848    14.334394 
  320000     292.1983    1.2509986    3507.8338            0            0            0            0    1634.6809    44657.537 -0.067234084   -17.036218 -0.041707817    3507.8338    1444.4069    1000.0972    914.89068    28.377528    18.852538    14.346728 0.00035359997 0.00035244673    6.8715946    6.8714181     292.1983     41.49527    35.978931    34.423473    90.016431    119.66323    90.107069   0.16491827    212.15998    28.379005     18.84986    14.339275    28.377925    18.854564    14.346767 
  330000    291.89998    1.2509986    3512.8618            0            0            0            0    691.19663    44657.537 -0.067234084   -17.036218 -0.041707817    3512.8618    1449.9346    997.93276    912.41853    28.377316    18.844365    14.337457 0.00035361346 0.00035281971    7.0432947    7.0432856    291.89998     41.49527    35.978931    34.423473    90.016431    119.66323    90.107069   0.16903907    212.16808    28.380219    18.848483    14.339911    28.377203    18.844975    14.338686 
  340000    299.67686    1.2509986    3600.0761            0            0            0            0   -293.76633    44657.537 -0.067234084   -17.036218 -0.041707817    3600.0761    1468.0292    1025.5413    940.76948    28.378546    18.851715    14.339799 0.0003446422 0.00034244115    6.9393187    6.9393015    299.67686     41.49527    35.978931    34.423473    90.016431    119.66323    90.107069   0.16654365    206.78532    28.379388    18.849634    14.338301    28.379311     18.84916      14.3391 
  350000     297.5498    1.2509986    3567.7127            0            0            0            0   -632.49001    44657.537 -0.067234084   -17.036218 -0.041707817    3567.7127    1517.5515    1006.3521    885.25768    28.381711    18.853109    14.342982 0.0003715468 0.00037050795    6.7993166    6.7992342     297.5498     41.49527    35.978931    34.423473    90.016431    119.66323    90.107069    0.1631836    222.92808    28.380359    18.848452    14.339353    28.383614    18.852584    14.341439 
  360000    295.61993    1.2509986    3649.8666            0            0            0            0   -189.13071    44657.537 -0.067234084   -17.036218 -0.041707817    3649.8666    1449.5669     1069.332    969.90848    28.379954    18.852212     14.33402 0.00038056655 0.00037689772    6.7692198    6.7691531    295.61993     41.49527    35.978931    34.423473    90.016431    119.66323    90.107069   0.16246128    228.33993     28.37921    18.848904    14.341519    28.380713    18.852242    14.332776 
  370000    305.68868    1.2509986     3661.249            0            0            0            0   -3038.5045    44657.537 -0.067234084   -17.036218 -0.041707817     3661.249    1474.4468    1059.3243    961.21494    28.378013    18.845564    14.339179 0.0003296392 0.0003286307    6.7023129     6.702286    305.68868     41.49527    35.978931    34.423473    90.016431    119.66323    90.107069   0.16085551    197.78352    28.378649    18.849224    14.339264     28.37827    18.847323    14.341854 
  380000    301.45102    1.2509986    3605.6541            0            0            0            0   -2607.0453    44657.537 -0.067234084   -17.036218 -0.041707817    3605.6541    1474.2574    1026.0477    944.05301    28.384388     18.85112    14.338016 0.00037982555 0.00037969288    6.6221189     6.622068    301.45102     41.49527    35.978931    34.423473    90.016431    119.66323    90.107069   0.15893085    227.89533    28.379326    18.848782    14.339801    28.385118    18.850236    14.337445 
  390000    295.62613    1.2509986    3587.5892            0            0            0            0    891.21169    44657.537 -0.067234084   -17.036218 -0.041707817    3587.5892    1484.8236    1026.3169    922.93227    28.377103    18.848611    14.331691 0.00034125558 0.00034014238    6.8923837    6.8923355    295.62613     41.49527    35.978931    34.423473    90.016431    119.66323    90.107069   0.16541721    204.75335     28.38047     18.84857    14.339925    28.376748     18.84948    14.332492 
  400000    297.03958    1.2509986     3643.494            0            0            0            0    2718.7057    44657.537 -0.067234084   -17.036218 -0.041707817     3643.494    1532.9078     1023.211    930.32675    28.386147     18.85281    14.341854 0.00038451131 0.00038429746    6.9446967    6.9445701    297.03958     41.49527    35.978931    34.423473    90.016431    119.66323    90.107069   0.16667272    230.70678    28.379174    18.849272     14.33961    28.386038    18.853837    14.341499 
  410000     297.8831    1.2509986    3599.6176            0            0            0            0    449.04872    44657.537 -0.067234084   -17.036218 -0.041707817    3599.6176    1482.1366    1017.7564     936.0809    28.380408    18.850235    14.339063 0.00033881889 0.00033695498    6.8546109    6.8545684     297.8831     41.49527    35.978931    34.423473    90.016431    119.66323    90.107069   0.16451066    203.29134    28.380234    18.849436    14.338531     28.38131    18.851236    14.339922 
  420000    297.14978    1.2509986    3585.0101            0            0            0            0   -1034.1441    44657.537 -0.067234084   -17.036218 -0.041707817    3585.0101    1481.1225    1027.7733    918.10075    28.386526    18.853704    14.340524 0.00034132898 0.00033829318     6.960643    6.9604907    297.14978     41.49527    35.978931    34.423473    90.016431    119.66323    90.107069   0.16705543    204.79739    28.381137    18.849172    14.340355    28.386827    18.855194      14.3402 
  430000     295.5825    1.2509986    3635.9856            0            0            0            0    1074.3406    44657.537 -0.067234084   -17.036218 -0.041707817    3635.9856     1522.397    1009.0899    943.59307    28.379524    18.849379    14.343846 0.00039917998 0.00039881233    6.9971117    6.9970079     295.5825     41.49527    35.978931    34.423473    90.016431    119.66323    90.107069   0.16793068    239.50799    28.378977    18.848857    14.339551    28.379234    18.849635    14.346544 
  440000      305.023    1.2509986    3556.5119            0            0            0            0   -1602.2861    44657.537 -0.067234084   -17.036218 -0.041707817    3556.5119    1470.4774    989.65717    936.88215     28.37692    18.842595    14.342952 0.00038689791 0.00038451808    7.0198217    7.0197876      305.023     41.49527    35.978931    34.423473    90.016431    119.66323    90.107069   0.16847572    232.13875    28.380221    18.849272     14.33827    28.376923    18.842035    14.340995 
  450000     294.9356    1.2509986     3625.626            0            0            0            0    454.54795    44657.537 -0.067234084   -17.036218 -0.041707817     3625.626    1494.6017    1040.4545    932.10561    28.379243    18.850157    14.347308 0.00033937599 0.00033797658    6.8867209    6.8865662     294.9356     41.49527    35.978931    34.423473    90.016431    119.66323    90.107069    0.1652813    203.62559    28.380295    18.849431    14.338814    28.379677    18.848301    14.349376 
  460000    296.22903    1.2509986    3599.5154            0            0            0            0    535.27903    44657.537 -0.067234084   -17.036218 -0.041707817    3599.5154    1492.5246    1010.7311    934.70745    28.377969    18.846846    14.335572 0.00036092166 0.0003607483    6.8325875    6.8325783    296.22903     41.49527    35.978931    34.423473    90.016431    119.66323    90.107069    0.1639821      216.553    28.379943    18.848947    14.339777    28.378419    18.846154    14.334664 
  470000    304.20531    1.2509986    3555.2987            0            0            0            0   -1013.9007    44657.537 -0.067234084   -17.036218 -0.041707817    3555.2987    1482.4263    987.74249    929.11971     28.38113     18.84604     14.33697 0.00033304494 0.00033136193    6.8417923    6.8417843    304.20531     41.49527    35.978931    34.423473    90.016431    119.66323    90.107069   0.16420302    199.82696     28.38025    18.850089    14.339847    28.381999    18.844738    14.335616 
  480000    305.27437    1.2509986    3608.6375            0            0            0            0   -706.63996    44657.537 -0.067234084   -17.036218 -0.041707817    3608.6375    1514.5927    1031.2453    909.86471    28.378075    18.854422     14.34132 0.00037149264 0.00036934403    6.9943327     6.994231    305.27437     41.49527    35.978931    34.423473    90.016431    119.66323    90.107069   0.16786399    222.89558     28.37893    18.847841    14.340257    28.379111    18.854676     14.34133 
  490000    300.85631    1.2509986    3576.4539            0            0            0            0   -175.22528    44657.537 -0.067234084   -17.036218 -0.041707817    3576.4539    1467.4684    990.77837     956.2486    28.379741    18.851223     14.33718 0.00037466529 0.00037293603    6.7108341    6.7108215    300.85631     41.49527    35.978931    34.423473    90.016431    119.66323    90.107069   0.16106002    224.79917    28.379749    18.848809    14.340923    28.381363    18.848651    14.337631 
  500000    296.80985    1.2509986     3513.215            0            0            0            0   -40.256538    44657.537 -0.067234084   -17.036218 -0.041707817     3513.215    1441.4251     1028.691    890.88824    28.378417    18.844837    14.336461 0.00036070819 0.00036040957    6.6762891    6.6762798    296.80985     41.49527    35.978931    34.423473    90.016431    119.66323    90.107069   0.16023094    216.42491    28.380067    18.849205    14.339671    28.378659    18.843599    14.335159 
  510000    298.40528    1.2509986    3616.9449            0            0            0            0    661.08923    44657.537 -0.067234084   -17.036218 -0.041707817    3616.9449    1444.2025    1047.5757    961.44473     28.37599    18.849692     14.33816 0.00035162273 0.00035007893    6.6539198    6.6538855    298.40528     41.49527    35.978931    34.423473    90.016431    119.66323    90.107069   0.15969408    210.97364    28.379487    18.848052    14.340422    28.375854    18.849766    14.337722 
  520000    296.57282    1.2509986    3598.8503            0            0            0            0    503.78449    44657.537 -0.067234084   -17.036218 -0.041707817    3598.8503    1488.3004    1027.8506    920.84236    28.379383    18.849986    14.333944 0.00036710113 0.00036446033    6.5652331    6.5651856    296.57282     41.49527    35.978931    34.423473    90.016431    119.66323    90.107069   0.15756559    220.26068    28.378276    18.848158    14.339118    28.378115    18.850585    14.332957 
  530000    296.92922    1.2509986    3521.4222            0            0            0            0    2881.3932    44657.537 -0.067234084   -17.036218 -0.041707817    3521.4222    1423.0835    987.70129    952.27185    28.379258    18.854858     14.33563 0.00035464442 0.00035382399    6.5074044    6.5072931    296.92922     41.49527    35.978931    34.423473    90.016431    119.66323    90.107069   0.15617771    212.78665    28.379478     18.84896    14.338737    28.378733    18.855864    14.335763 
  540000    294.78886    1.2509986    3580.8861            0            0            0            0    789.68462    44657.537 -0.067234084   -17.036218 -0.041707817    3580.8861    1518.8976    990.40475    918.07709    28.382119    18.851685    14.338503 0.00035846074 0.00035844536    6.6391601    6.6391171    294.78886     41.49527    35.978931    34.423473    90.016431    119.66323    90.107069   0.15933984    215.07644    28.379533    18.849134    14.339648    28.382596     18.85128    14.338506 
  550000    295.24447    1.2509986    3611.2534            0            0            0            0    1181.0081    44657.537 -0.067234084   -17.036218 -0.041707817    3611.2534     1512.068    993.59089    949.51236    28.379507    18.844613    14.341211 0.00034567603 0.00034375258    6.6399656     6.639952    295.24447     41.49527    35.978931    34.423473    90.016431    119.66323    90.107069   0.15935917    207.40562    28.379876    18.849482    14.338373    28.378874    18.844564     14.34072 
  560000    302.45776    1.2509986    3606.5882            0            0            0            0   -2265.3014    44657.537 -0.067234084   -17.036218 -0.041707817    3606.5882    1481.4144    1020.6804    944.96925    28.385116    18.847974    14.341204 0.00032974782  0.000329413    6.5797797    6.5797229    302.45776     41.49527    35.978931    34.423473    90.016431    119.66323    90.107069   0.15791471    197.84869    28.379787    18.849482    14.339887    28.386084    18.847415    14.340977 
  570000    293.25806    1.2509986    3583.7049            0            0            0            0   -1392.3788    44657.537 -0.067234084   -17.036218 -0.041707817    3583.7049    1457.6854    1026.6314    937.73258    28.382948    18.849076    14.347423 0.00035200473 0.00035064444    6.6592992    6.6591994    293.25806     41.49527    35.978931    34.423473    90.016431    119.66323    90.107069   0.15982318    211.20284    28.379129    18.849833    14.340348     28.38391    18.849734    14.345314 
  580000    297.44084    1.2509986    3584.1064            0            0            0            0    1358.7652    44657.537 -0.067234084   -17.036218 -0.041707817    3584.1064    1451.8083    1014.0248     957.5614     28.38276    18.851294    14.340467 0.00036813237 0.00036789871    6.5829666    6.5829179    297.44084     41.49527    35.978931    34.423473    90.016431    119.66323    90.107069    0.1579912    220.87942    28.379537    18.848532    14.339595    28.382817    18.851338    14.339556 
  590000    296.13001    1.2509986     3673.194            0            0            0            0    1057.6952    44657.537 -0.067234084   -17.036218 -0.041707817     3673.194    1492.5249    1065.0942    951.32143      28.3751    18.844823    14.335282 0.00031939595 0.00031933588    6.6283199    6.6283046    296.13001     41.49527    35.978931    34.423473    90.016431    119.66323    90.107069   0.15907968    191.63757     28.37953    18.849241    14.339553    28.376732    18.844658    14.335002 
  600000    295.44706    1.2509986    3502.8955            0            0            0            0    2010.7866    44657.537 -0.067234084   -17.036218 -0.041707817    3502.8955    1457.2873    1019.9864    873.08585    28.382858    18.852634    14.342716 0.00036249618 0.00036065883    6.7237014    6.7236118    295.44706     41.49527    35.978931    34.423473    90.016431    119.66323    90.107069   0.16136883    217.49771    28.380758    18.848841    14.340241    28.383543    18.853584    14.340411 
  610000    307.40418    1.2509986    3603.9188            0            0            0            0    1553.3156    44657.537 -0.067234084   -17.036218 -0.041707817    3603.9188    1459.3025    1023.5943    952.61422    28.380546    18.847645    14.343762 0.0003335212 0.00033050604    6.6967223    6.6966587    307.40418     41.49527    35.978931    34.423473    90.016431    119.66323    90.107069   0.16072134    200.11272    28.379673    18.850271    14.338447    28.381799    18.845036    14.344979 
  620000    302.43455    1.2509986    3560.0846            0            0            0            0   -565.44418    44657.537 -0.067234084   -17.036218 -0.041707817    3560.0846    1452.7329    1012.6704    935.08675    28.386475    18.852551     14.34223 0.00036022339 0.00035948321    6.7576481    6.7575244    302.43455     41.49527    35.978931    34.423473    90.016431    119.66323    90.107069   0.16218355    216.13403    28.379744    18.848953    14.340476    28.387757     18.85162     14.34204 
  630000    295.00272    1.2509986    3669.1616            0            0            0            0    1532.3421    44657.537 -0.067234084   -17.036218 -0.041707817    3669.1616    1518.5658    1031.2574     955.0825    28.379353    18.848562    14.334377 0.00035474448 0.00035360408    7.0107316    7.0107091    295.00272     41.49527    35.978931    34.423473    90.016431    119.66323    90.107069   0.16825756    212.84669    28.380511    18.848746     14.33924    28.380281    18.849783    14.335354 
  640000    294.71841    1.2509986    3586.2409            0            0            0            0   -403.92871    44657.537 -0.067234084   -17.036218 -0.041707817    3586.2409    1509.3409    1024.1169      900.858    28.376338     18.85164    14.346696 0.0003542292 0.00035251086    6.8263488    6.8262027    294.71841     41.49527    35.978931    34.423473    90.016431    119.66323    90.107069   0.16383237    212.53752    28.378471     18.84948    14.339071    28.374709    18.850536    14.346982 
  650000    296.77248    1.2509986    3580.2437            0            0            0            0    2061.1489    44657.537 -0.067234084   -17.036218 -0.041707817    3580.2437    1483.2983    1005.5747    933.48697     28.37558    18.846049    14.340623 0.00040435963 0.00040410103    6.9155082    6.9154598    296.77248     41.49527    35.978931    34.423473    90.016431    119.66323    90.107069    0.1659722    242.61578    28.379499     18.84852    14.339527    28.374483     18.84635    14.341643 
  660000     305.8744    1.2509986    3602.6029            0            0            0            0   -67.239485    44657.537 -0.067234084   -17.036218 -0.041707817    3602.6029    1473.1546     1018.511    953.71551    28.374514    18.851615    14.334327 0.00036226226 0.00036093982    6.7009359    6.7008874     305.8744     41.49527    35.978931    34.423473    90.016431    119.66323    90.107069   0.16082246    217.35735    28.378599     18.84839    14.339504    28.375139    18.850351    14.335555 
  670000    294.00695    1.2509986    3601.8713            0            0            0            0    543.17708    44657.537 -0.067234084   -17.036218 -0.041707817    3601.8713     1525.981    986.22725    930.84953    28.380268    18.854688    14.339602 0.00036752476 0.00036681306     6.976992    6.9769196    294.00695     41.49527    35.978931    34.423473    90.016431    119.66323    90.107069   0.16744781    220.51485    28.379152    18.848304    14.339852      28.3831    18.852546    14.340677 
  680000    305.18938    1.2509986    3544.6576            0            0            0            0    1141.2135    44657.537 -0.067234084   -17.036218 -0.041707817    3544.6576     1457.164    1033.7721    900.86185    28.378282    18.847633    14.343104 0.00035633256 0.0003560717    7.1320986    7.1320512    305.18938     41.49527    35.978931    34.423473    90.016431    119.66323    90.107069   0.17117037    213.79954    28.379826    18.849437    14.339548    28.378275    18.848309    14.343349 
  690000    300.73059    1.2509986    3673.4856            0            0            0            0   -1511.9264    44657.537 -0.067234084   -17.036218 -0.041707817    3673.4856    1528.2473    1065.5655    922.33101    28.379144    18.850011    14.346052 0.00038159645 0.00037849893    7.1301099    7.1299987    300.73059     41.49527    35.978931    34.423473    90.016431    119.66323    90.107069   0.17112264    228.95787     28.37972    18.848347    14.341259    28.378865    18.851938    14.345542 
  700000    293.73592    1.2509986    3663.9742            0            0            0            0     1748.082    44657.537 -0.067234084   -17.036218 -0.041707817    3663.9742    1531.3828    1054.8564    923.60897    28.382405    18.849107    14.341748 0.0003815211 0.00037966273    6.9230165    6.9229876    293.73592     41.49527    35.978931    34.423473    90.016431    119.66323    90.107069    0.1661524    228.91266    28.380805    18.849288    14.339164    28.381393    18.848112    14.341681 
  710000    299.85407    1.2509986    3672.5182            0            0            0            0    464.26033    44657.537 -0.067234084   -17.036218 -0.041707817    3672.5182    1512.5446    1045.2412    953.55074    28.380452    18.851897    14.341308 0.00036441976 0.00036351649    6.8622558    6.8622124    299.85407     41.49527    35.978931    34.423473    90.016431    119.66323    90.107069   0.16469414    218.65186    28.379035    18.849238    14.338876    28.381409    18.850882    14.340657 
  720000    297.00888    1.2509986    3653.5238            0            0            0            0   -507.15944    44657.537 -0.067234084   -17.036218 -0.041707817    3653.5238    1474.0483    1034.6847    978.53228    28.378933    18.851813    14.343762 0.00035944223 0.00035764301     7.018031      7.01796    297.00888     41.49527    35.978931    34.423473    90.016431    119.66323    90.107069   0.16843274    215.66534    28.379305    18.847848    14.340253    28.380537    18.850361    14.344089 
  730000    295.29803    1.2509986    3556.4702            0            0            0            0   -655.91629    44657.537 -0.067234084   -17.036218 -0.041707817    3556.4702    1463.5242     985.1644    953.28486    28.375282    18.847232    14.336113 0.00035639825 0.00035599149    7.2317768    7.2317318    295.29803     41.49527    35.978931    34.423473    90.016431    119.66323    90.107069   0.17356264    213.83895    28.379028    18.849352    14.339525    28.374318    18.847333    14.333906 
  740000    304.52136    1.2509986    3622.3576            0            0            0            0   -472.94028    44657.537 -0.067234084   -17.036218 -0.041707817    3622.3576    1481.5545    1045.4858    937.13996    28.376335     18.84719    14.339333 0.00036970443 0.00036925444    7.2395917    7.2395611    304.52136     41.49527    35.978931    34.423473    90.016431    119.66323    90.107069    0.1737502    221.82266    28.379824    18.849192     14.33905    28.375893     18.84836    14.339896 
  750000    300.48078    1.2509986    3606.5687            0            0            0            0   -604.80284    44657.537 -0.067234084   -17.036218 -0.041707817    3606.5687    1467.3451    1039.1586    937.85346    28.387226    18.850096     14.34148 0.00037426513  0.000371809    6.9779961     6.977912    300.48078     41.49527    35.978931    34.423473    90.016431    119.66323    90.107069   0.16747191    224.55908    28.380382    18.848996     14.34097    28.388302    18.848526    14.338884 
  760000    296.53006    1.2509986    3579.5383            0            0            0            0   -19.663768    44657.537 -0.067234084   -17.036218 -0.041707817    3579.5383    1477.0166    1007.2847    938.08615     28.38357    18.855464    14.338684 0.00039445415 0.00039363041    6.9384447    6.9383571    296.53006     41.49527    35.978931    34.423473    90.016431    119.66323    90.107069   0.16652267    236.67249    28.379014    18.849708    14.339422    28.382281    18.854486    14.337885 
  770000    303.68837    1.2509986    3640.1233            0            0            0            0   -1906.0697    44657.537 -0.067234084   -17.036218 -0.041707817    3640.1233    1483.6362    1053.0113    943.44459    28.384017    18.847436    14.339281 0.00036168077 0.00035975767    6.9681515    6.9680969    303.68837     41.49527    35.978931    34.423473    90.016431    119.66323    90.107069   0.16723564    217.00846    28.379792    18.848079     14.33864    28.386711    18.846757    14.339581 
  780000    303.51968    1.2509986    3535.4734            0            0            0            0    634.55641    44657.537 -0.067234084   -17.036218 -0.041707817    3535.4734      1443.14    1034.3472    909.61384    28.382899    18.848693    14.335457 0.00032354886 0.00032051102    6.8384548    6.8384245    303.51968     41.49527    35.978931    34.423473    90.016431    119.66323    90.107069   0.16412292    194.12932    28.378651    18.848268    14.338349    28.382258    18.850066    14.335454 
  790000    300.84238    1.2509986    3581.2631            0            0            0            0    891.30533    44657.537 -0.067234084   -17.036218 -0.041707817    3581.2631    1445.6267    1043.0265    931.40879    28.380905    18.852793     14.33317 0.00035176383 0.00034999863    6.8037561     6.803696    300.84238     41.49527    35.978931    34.423473    90.016431    119.66323    90.107069   0.16329015     211.0583    28.379801    18.849217    14.338348    28.381929    18.851584    14.332995 
  800000    299.00843    1.2509986     3560.276            0            0            0            0   -1191.3894    44657.537 -0.067234084   -17.036218 -0.041707817     3560.276    1486.6547    1007.8841    907.12797    28.376539    18.848624    14.337145 0.0003452187 0.00034311676    6.6610781    6.6610653    299.00843     41.49527    35.978931    34.423473    90.016431    119.66323    90.107069   0.15986588    207.13122    28.378951    18.849136    14.338326    28.377007    18.847667    14.337593 
  810000    304.50227    1.2509986    3553.1999            0            0            0            0   -1514.4903    44657.537 -0.067234084   -17.036218 -0.041707817    3553.1999    1494.9966    1023.1789    884.01883    28.375707    18.841843    14.339915 0.00037652743 0.00037392486    6.7829595    6.7829121    304.50227     41.49527    35.978931    34.423473    90.016431    119.66323    90.107069   0.16279103    225.91646    28.379499    18.847453    14.340047    28.374766    18.842022    14.340425 
  820000    292.76626    1.2509986    3661.7166            0            0            0            0   -711.02067    44657.537 -0.067234084   -17.036218 -0.041707817    3661.7166    1526.2869    1021.3028    957.09303    28.382951    18.846574    14.346346 0.00036754483 0.00036542857    6.8539017    6.8538024    292.76626     41.49527    35.978931    34.423473    90.016431    119.66323    90.107069   0.16449364     220.5269    28.380679    18.848388    14.338955    28.383715    18.845755    14.346425 
  830000    297.17115    1.2509986    3605.1874            0            0            0            0    701.80844    44657.537 -0.067234084   -17.036218 -0.041707817    3605.1874    1471.7398    1013.6456    954.88712    28.378035    18.842661    14.337852 0.00038134229  0.000381275    6.9320817    6.9320618    297.17115     41.49527    35.978931    34.423473    90.016431    119.66323    90.107069   0.16636996    228.80538    28.379807    18.848993    14.339575    28.378583     18.84122    14.336797 
  840000    302.83379    1.2509986    3634.5249            0            0            0            0    1179.3746    44657.537 -0.067234084   -17.036218 -0.041707817    3634.5249    1514.0364    1060.3277      906.724    28.385029    18.853669    14.341465 0.00035732648 0.00035689886    7.1728062    7.1726606    302.83379     41.49527    35.978931    34.423473    90.016431    119.66323    90.107069   0.17214735    214.39589    28.379181    18.848633    14.339262    28.385013    18.855228    14.342103 
  850000    306.49944    1.2509986     3542.139            0            0            0            0   -425.08235    44657.537 -0.067234084   -17.036218 -0.041707817     3542.139    1441.8285    1017.6726    924.96595    28.380987    18.858043    14.337021 0.00034104727 0.00033972952    7.0152911    7.0151034    306.49944     41.49527    35.978931    34.423473    90.016431    119.66323    90.107069   0.16836699    204.62836    28.380661    18.848702    14.339672    28.382382    18.858931    14.337129 
  860000    298.68196    1.2509986    3625.4459            0            0            0            0    2725.4796    44657.537 -0.067234084   -17.036218 -0.041707817    3625.4459    1484.4046    1028.3829    950.41077    28.380233     18.85072    14.338553 0.00036979804 0.00036711507    7.1152593    7.1152159    298.68196     41.49527    35.978931    34.423473    90.016431    119.66323    90.107069   0.17076622    221.87883    28.378763    18.848479    14.338309    28.380529     18.85202    14.337349 
  870000    295.09917    1.2509986    3592.3798            0            0            0            0   -1027.3183    44657.537 -0.067234084   -17.036218 -0.041707817    3592.3798    1510.7049    997.55415    928.66921    28.379035    18.847542      14.3439 0.00035946382 0.00035433404    7.0988559    7.0988039    295.09917     41.49527    35.978931    34.423473    90.016431    119.66323    90.107069   0.17037254    215.67829    28.381578    18.849678    14.338862    28.378404    18.846577    14.344249 
  880000    300.78973    1.2509986      3643.77            0            0            0            0     436.2339    44657.537 -0.067234084   -17.036218 -0.041707817      3643.77    1512.7785     1031.157    942.43017    28.376703    18.848513    14.337428 0.00037431021 0.00037324008    6.9471898    6.9471719    300.78973     41.49527    35.978931    34.423473    90.016431    119.66323    90.107069   0.16673255    224.58613    28.379232    18.849995    14.339621    28.375947    18.847021     14.33797 
  890000    297.42143    1.2509986    3656.1119            0            0            0            0    793.30251    44657.537 -0.067234084   -17.036218 -0.041707817    3656.1119    1522.3718    1046.1182    929.63165    28.378274    18.854909    14.334656 0.00034667508 0.00034625362    6.9642111    6.9641205    297.42143     41.49527    35.978931    34.423473    90.016431    119.66323    90.107069   0.16714107    208.00505    28.380145    18.848747    14.339574    28.377191    18.853286    14.332504 
  900000    291.72272    1.2509986    3621.2093            0            0            0            0   -1432.2681    44657.537 -0.067234084   -17.036218 -0.041707817    3621.2093    1526.8565    1035.2787    906.58222    28.381734    18.850759    14.337133 0.00038674324 0.0003842081    6.9788787     6.978828    291.72272     41.49527    35.978931    34.423473    90.016431    119.66323    90.107069   0.16749309    232.04595    28.380919    18.849548    14.340265    28.381138    18.852243     14.33902 
  910000    293.57109    1.2509986    3565.7525            0            0            0            0    968.23654    44657.537 -0.067234084   -17.036218 -0.041707817    3565.7525    1449.5457    1038.4674    922.20041    28.383002    18.851099    14.341476 0.00034654146 0.00034502776    6.9433405    6.9433027    293.57109     41.49527    35.978931    34.423473    90.016431    119.66323    90.107069   0.16664017    207.92488    28.380501    18.848252    14.339847    28.382875    18.847684    14.342117 
  920000    304.19882    1.2509986     3505.798            0            0            0            0    2161.7025    44657.537 -0.067234084   -17.036218 -0.041707817     3505.798    1434.0765    1010.3558    907.34876    28.378143    18.851405    14.341783 0.0003825509 0.00038174507     6.900679    6.9005892    304.19882     41.49527    35.978931    34.423473    90.016431    119.66323    90.107069   0.16561629    229.53054    28.380438    18.849008    14.339808    28.379337    18.853197     14.34273 
  930000    296.84949    1.2509986     3620.455            0            0            0            0   -924.35442    44657.537 -0.067234084   -17.036218 -0.041707817     3620.455    1481.4365    1025.3262    951.78279     28.38123     18.85556    14.346563 0.00039864039 0.00039727156    6.9451984    6.9449927    296.84949     41.49527    35.978931    34.423473    90.016431    119.66323    90.107069   0.16668476    239.18423    28.380716    18.848878    14.339715    28.380061     18.85631    14.346661 
  940000    292.82918    1.2509986    3643.9056            0            0            0            0    1103.7903    44657.537 -0.067234084   -17.036218 -0.041707817    3643.9056    1503.7328    1042.7886    938.29054    28.382145    18.851285    14.337103 0.00034673368 0.00034603783     6.956784    6.9567503    292.82918     41.49527    35.978931    34.423473    90.016431    119.66323    90.107069   0.16696282    208.04021    28.379868    18.849503    14.339039    28.382336    18.850419    14.338962 
  950000    304.64106    1.2509986    3539.9188            0            0            0            0   -1337.8491    44657.537 -0.067234084   -17.036218 -0.041707817    3539.9188    1479.9665     1004.155      901.488    28.378826    18.846689     14.34596 0.00035868793 0.00035842627    6.5954577    6.5954062    304.64106     41.49527    35.978931    34.423473    90.016431    119.66323    90.107069   0.15829098    215.21276    28.379707    18.849358    14.339984    28.378058    18.847925    14.343776 
  960000    297.07301    1.2509986    3640.1697            0            0            0            0    969.90254    44657.537 -0.067234084   -17.036218 -0.041707817    3640.1697    1491.4241    1078.1473    919.35542    28.377573    18.854456     14.33711 0.00034695087 0.00034651578    6.6305583    6.6304685    297.07301     41.49527    35.978931    34.423473    90.016431    119.66323    90.107069    0.1591334    208.17052    28.379337    18.848907    14.339025    28.379271    18.854931    14.337178 
  970000    293.99341    1.2509986    3525.6111            0            0            0            0   -43.938304    44657.537 -0.067234084   -17.036218 -0.041707817    3525.6111     1470.354    1026.8641    885.72132     28.38342    18.840637    14.343095 0.00033828819 0.00033623269    6.8336283    6.8335223    293.99341     41.49527    35.978931    34.423473    90.016431    119.66323    90.107069   0.16400708    202.97292    28.378959    18.848118    14.340585    28.383359    18.840199    14.345362 
  980000    299.90538    1.2509986    3509.9078            0            0            0            0    292.12801    44657.537 -0.067234084   -17.036218 -0.041707817    3509.9078    1430.1714    1027.5521    897.61311    28.378624    18.858695    14.343831 0.00033266002 0.0003319646    6.9640079    6.9637522    299.90538     41.49527    35.978931    34.423473    90.016431    119.66323    90.107069   0.16713619    199.59601    28.379865    18.849691    14.340012    28.378677    18.859926    14.344019 
  990000      289.848    1.2509986    3607.5217            0            0            0            0    783.05574    44657.537 -0.067234084   -17.036218 -0.041707817    3607.5217    1497.1875    1005.1595    942.64981    28.380697    18.849606    14.349076 0.00037196395 0.0003714342    6.5986988    6.5985245      289.848     41.49527    35.978931    34.423473    90.016431    119.66323    90.107069   0.15836877    223.17837    28.379503    18.849739    14.339621    28.379511    18.850697    14.349382 
 1000000     297.8375    1.2509986    3640.8416            0            0            0            0    642.28655    44657.537 -0.067234084   -17.036218 -0.041707817    3640.8416    1499.0218    1057.5585    923.81046     28.38404    18.850671    14.337513 0.00036549336 0.00036533722    6.4589913    6.4589335     297.8375     41.49527    35.978931    34.423473    90.016431    119.66323    90.107069   0.15501579    219.29601    28.379792    18.848785    14.339859    28.384675    18.851316    14.337415 
 1010000    299.20778    1.2509986    3601.4569            0            0            0            0    1445.5185    44657.537 -0.067234084   -17.036218 -0.041707817    3601.4569    1467.0911     1004.634    962.96054    28.379523    18.849402    14.337999 0.00037488441 0.00037092736    6.4649835    6.4649631    299.20778     41.49527    35.978931    34.423473    90.016431    119.66323    90.107069    0.1551596    224.93065    28.379496    18.850465     14.33828    28.380312    18.849969    14.337378 
 1020000    298.01186    1.2509986     3584.392            0            0            0            0     51.33431    44657.537 -0.067234084   -17.036218 -0.041707817     3584.392    1492.3655    1013.5458    923.97902    28.384295    18.848646    14.333259 0.0003690131 0.00036633148    6.8807278    6.8806817    298.01186     41.49527    35.978931    34.423473    90.016431    119.66323    90.107069   0.16513747    221.40786    28.378151    18.848665    14.340404    28.383037     18.85115    14.335406 
 1030000    299.35669    1.2509986      3519.59            0            0            0            0    2034.4437    44657.537 -0.067234084   -17.036218 -0.041707817      3519.59    1448.5476    1009.7304    904.46563    28.376446    18.849579    14.341456 0.00034127906 0.00033967852    6.5732134      6.57317    299.35669     41.49527    35.978931    34.423473    90.016431    119.66323    90.107069   0.15775712    204.76743    28.379469    18.850267    14.339777    28.375993    18.847923     14.34205 
 1040000    296.54364    1.2509986    3708.6676            0            0            0            0   -906.38565    44657.537 -0.067234084   -17.036218 -0.041707817    3708.6676    1507.3578    1084.2119     958.0161    28.375644    18.854544    14.337775 0.00035515317 0.00035466273    6.8663747    6.8661927    296.54364     41.49527    35.978931    34.423473    90.016431    119.66323    90.107069   0.16479299     213.0919      28.3795     18.84833    14.339494    28.373517    18.857406    14.337041 
 1050000    295.32663    1.2509986    3576.1451            0            0            0            0   -328.06648    44657.537 -0.067234084   -17.036218 -0.041707817    3576.1451    1466.2855    1011.9339    931.81642    28.377526    18.854106    14.339198 0.00036181017 0.0003558424    6.8506995    6.8505828    295.32663     41.49527    35.978931    34.423473    90.016431    119.66323    90.107069   0.16441679     217.0861    28.381038    18.849454    14.337747    28.378989     18.85598    14.339634 
 1060000    301.83058    1.2509986    3519.7044            0            0            0            0    1148.7904    44657.537 -0.067234084   -17.036218 -0.041707817    3519.7044    1448.5643    1012.9859     904.9229     28.37289    18.852707    14.338814 0.00034149588 0.00034075787    7.0185303    7.0184105    301.83058     41.49527    35.978931    34.423473    90.016431    119.66323    90.107069   0.16844473    204.89753    28.379115    18.849016    14.338901    28.371851    18.852842    14.338753 
 1070000    299.23242    1.2509986    3647.8839            0            0            0            0   -719.73284    44657.537 -0.067234084   -17.036218 -0.041707817    3647.8839    1489.6865    1057.4151    948.06539    28.379984    18.838369     14.33847 0.00037473918 0.00037177877    7.1209564    7.1208679    299.23242     41.49527    35.978931    34.423473    90.016431    119.66323    90.107069   0.17090295    224.84351    28.379351    18.847371    14.340109    28.381715    18.836449    14.339104 
 1080000    299.69189    1.2509986    3577.7342            0            0            0            0    999.55528    44657.537 -0.067234084   -17.036218 -0.041707817    3577.7342    1484.3458    1008.9746    927.45938    28.380355    18.850079    14.345151 0.00036280483 0.00036099496    7.0884786    7.0883941    299.69189     41.49527    35.978931    34.423473    90.016431    119.66323    90.107069   0.17012349     217.6829    28.379589    18.848641    14.340931    28.379704    18.849504    14.345523 
 1090000    297.64602    1.2509986    3625.2149            0            0            0            0    -1466.614    44657.537 -0.067234084   -17.036218 -0.041707817    3625.2149    1471.2734    1060.7748    936.09282    28.388222    18.849368    14.342654 0.00039147753 0.00038736895     7.043203    7.0430463    297.64602     41.49527    35.978931    34.423473    90.016431    119.66323    90.107069   0.16903687    234.88652    28.380292    18.848242    14.341362    28.389625    18.849932    14.343632 
 1100000    300.39704    1.2509986    3567.6323            0            0            0            0   -346.87864    44657.537 -0.067234084   -17.036218 -0.041707817    3567.6323    1449.1151    1054.4634     912.2062    28.379876    18.848983    14.348374 0.00035614666 0.00035407277    6.9563382     6.956153    300.39704     41.49527    35.978931    34.423473    90.016431    119.66323    90.107069   0.16695212    213.68799     28.38024    18.849552    14.340785    28.379794    18.849441    14.350283 
 1110000    301.68418    1.2509986    3599.2676            0            0            0            0   -1045.6646    44657.537 -0.067234084   -17.036218 -0.041707817    3599.2676    1470.7533    1044.9288    929.16468    28.378806    18.847638    14.335949 0.00036198313 0.00036120018    6.8859266    6.8859156    301.68418     41.49527    35.978931    34.423473    90.016431    119.66323    90.107069   0.16526224    217.18988    28.380175    18.848762    14.339058    28.378618    18.848397     14.33625 
 1120000    301.57693    1.2509986     3650.088            0            0            0            0     1021.239    44657.537 -0.067234084   -17.036218 -0.041707817     3650.088    1490.0092    1019.7816    977.36232    28.378887    18.847818    14.340524 0.00034845283 0.00034743661    6.9708191    6.9707927    301.57693     41.49527    35.978931    34.423473    90.016431    119.66323    90.107069   0.16729966     209.0717    28.379723    18.848208    14.339054    28.381235    18.849499    14.340127 
 1130000    291.29504    1.2509986    3568.5725            0            0            0            0   -1556.2626    44657.537 -0.067234084   -17.036218 -0.041707817    3568.5725     1522.519    1026.0477    869.10577    28.380735    18.847679     14.33924 0.00035104699  0.000350234    6.8341305    6.8341206    291.29504     41.49527    35.978931    34.423473    90.016431    119.66323    90.107069   0.16401913     210.6282    28.378929    18.848796    14.339028    28.380088    18.847921    14.339216 
 1140000    298.57056    1.2509986    3578.0151            0            0            0            0   -113.63075    44657.537 -0.067234084   -17.036218 -0.041707817    3578.0151    1431.6307     1022.636    962.63844    28.374877    18.848259    14.340188 0.00033146018 0.00033122849    6.8929965    6.8929457    298.57056     41.49527    35.978931    34.423473    90.016431    119.66323    90.107069   0.16543192    198.87611    28.379223    18.849192     14.33934     28.37365    18.848386    14.339345 
 1150000    296.09483    1.2509986    3587.9455            0            0            0            0    545.27741    44657.537 -0.067234084   -17.036218 -0.041707817    3587.9455    1445.0966    1008.3478    968.69406    28.388027    18.850291    14.338613 0.00034693258 0.0003460966    6.7818164    6.7817173    296.09483     41.49527    35.978931    34.423473    90.016431    119.66323    90.107069   0.16276359    208.15955    28.379913    18.849172    14.338811    28.388483    18.850075     14.33891 
 1160000    294.77368    1.2509986    3546.1746            0            0            0            0     1277.941    44657.537 -0.067234084   -17.036218 -0.041707817    3546.1746    1480.3704    998.28668    915.70369    28.378849    18.852428    14.336229 0.00032832667 0.00032553516     6.825288     6.825244    294.77368     41.49527    35.978931    34.423473    90.016431    119.66323    90.107069   0.16380691      196.996    28.378478    18.849706    14.338566    28.379033    18.852048    14.337639 
 1170000    291.97021    1.2509986    3531.3756            0            0            0            0    17.022889    44657.537 -0.067234084   -17.036218 -0.041707817    3531.3756    1482.4372    970.05223     923.1972    28.378378     18.85449    14.339671 0.00037021542 0.00036723656    6.8979346    6.8977953    291.97021     41.49527    35.978931    34.423473    90.016431    119.66323    90.107069   0.16555043    222.12925    28.379006     18.84953     14.34119     28.37913     18.85693     14.34002 
 1180000    303.78857    1.2509986    3582.5016            0            0            0            0    -1132.583    44657.537 -0.067234084   -17.036218 -0.041707817    3582.5016    1493.4488    1024.7054    909.13907    28.380893    18.847398     14.33965 0.00035981483 0.00035959918    6.7981937    6.7981771    303.78857     41.49527    35.978931    34.423473    90.016431    119.66323    90.107069   0.16315665     215.8889    28.379513    18.848949    14.340096    28.381326    18.847985      14.3401 
 1190000    298.90043    1.2509986    3647.0713            0            0            0            0    533.13038    44657.537 -0.067234084   -17.036218 -0.041707817    3647.0713    1493.8644    1054.9144    937.50792     28.37809    18.849808    14.342058 0.00038216665 0.00038087563    6.9650391    6.9649889    298.90043     41.49527    35.978931    34.423473    90.016431    119.66323    90.107069   0.16716094    229.29999    28.378637    18.849133    14.338982    28.378038    18.849727    14.342649 
 1200000    302.69714    1.2509986    3534.2573            0            0            0            0    4.7521083    44657.537 -0.067234084   -17.036218 -0.041707817    3534.2573    1501.6634    1008.6817    878.06847    28.385326    18.847412    14.339899 0.00034703127 0.00034583337    6.9258146    6.9257475    302.69714     41.49527    35.978931    34.423473    90.016431    119.66323    90.107069   0.16621955    208.21876     28.38056    18.849001    14.340076    28.387092    18.847609    14.340344 
 1210000     297.8316    1.2509986    3605.1172            0            0            0            0    1973.7793    44657.537 -0.067234084   -17.036218 -0.041707817    3605.1172    1464.3128    1043.3751    936.55567    28.378802    18.851838    14.340148 0.00032967557 0.00032804381    7.0345774    7.0345235     297.8316     41.49527    35.978931    34.423473    90.016431    119.66323    90.107069   0.16882986    197.80534    28.378485    18.849429    14.339081    28.379697    18.852069    14.340494 
 1220000    297.06608    1.2509986    3522.0479            0            0            0            0   -985.87794    44657.537 -0.067234084   -17.036218 -0.041707817    3522.0479    1442.5995    1011.6404    908.31623    28.378475    18.849944    14.333205 0.00037738579 0.0003761398    6.9828192     6.982765    297.06608     41.49527    35.978931    34.423473    90.016431    119.66323    90.107069   0.16758766    226.43147    28.378751     18.84944    14.338994    28.377583    18.851646    14.333931 
 1230000    299.89804    1.2509986     3537.395            0            0            0            0   -672.67238    44657.537 -0.067234084   -17.036218 -0.041707817     3537.395    1470.9864    1005.0713    910.02117    28.376191    18.848077    14.347209 0.00038509754 0.00038478769     7.085849    7.0856776    299.89804     41.49527    35.978931    34.423473    90.016431    119.66323    90.107069   0.17006038    231.05852    28.379642    18.849411    14.339259    28.375714    18.846449    14.349661 
 1240000    298.64253    1.2509986    3619.7805            0            0            0            0    27.884277    44657.537 -0.067234084   -17.036218 -0.041707817    3619.7805    1474.3075    1034.8974    951.60247    28.380245    18.846496     14.33875 0.00036395308 0.00036269008    7.0839047    7.0838994    298.64253     41.49527    35.978931    34.423473    90.016431    119.66323    90.107069   0.17001371    218.37185    28.378657     18.84944    14.340159    28.378166    18.847081    14.337113 
 1250000    291.18072    1.2509986    3587.2654            0            0            0            0   -646.19783    44657.537 -0.067234084   -17.036218 -0.041707817    3587.2654    1512.2622    1043.4684    885.85683    28.378671    18.851392    14.341459 0.00036516699 0.00036454121    7.2402778    7.2402125    291.18072     41.49527    35.978931    34.423473    90.016431    119.66323    90.107069   0.17376667    219.10019    28.379988    18.848379    14.339831    28.378128    18.851688    14.342152 
 1260000    292.81107    1.2509986    3608.1351            0            0            0            0    836.64271    44657.537 -0.067234084   -17.036218 -0.041707817    3608.1351    1475.7482    1048.2435    927.98002    28.377852    18.844771     14.33796 0.00035802666 0.00035784458    7.0921581    7.0921545    292.81107     41.49527    35.978931    34.423473    90.016431    119.66323    90.107069   0.17021179    214.81599    28.379213    18.848771    14.339564    28.379092    18.845732    14.338992 
 1270000    294.40248    1.2509986    3595.5168            0            0            0            0     713.2184    44657.537 -0.067234084   -17.036218 -0.041707817    3595.5168    1481.2474    1032.0077    922.88542    28.372517    18.846657    14.338369 0.00035425735 0.00035270319    6.9013576    6.9012952    294.40248     41.49527    35.978931    34.423473    90.016431    119.66323    90.107069   0.16563258    212.55441    28.378451    18.848775    14.339113     28.37258    18.848545    14.338071 
 1280000    297.49065    1.2509986     3560.894            0            0            0            0   -588.62432    44657.537 -0.067234084   -17.036218 -0.041707817     3560.894    1440.6139    1057.8783    910.45552    28.380724    18.846536    14.335172 0.00035511012 0.00035464125    7.1334281    7.1334169    297.49065     41.49527    35.978931    34.423473    90.016431    119.66323    90.107069   0.17120227    213.06607    28.379447    18.848429    14.339979    28.381234    18.846515    14.334423 
 1290000    291.42598    1.2509986    3588.5728            0            0            0            0   -1261.8403    44657.537 -0.067234084   -17.036218 -0.041707817    3588.5728    1455.9394    1052.2383     922.2101    28.378403    18.849349    14.337238 0.00035322171 0.00035088635    7.0549586    7.0549274    291.42598     41.49527    35.978931    34.423473    90.016431    119.66323    90.107069   0.16931901    211.93303    28.380815    18.849864    14.339476    28.377828    18.850614    14.338179 
 1300000    304.14231    1.2509986    3629.1765            0            0            0            0    531.37272    44657.537 -0.067234084   -17.036218 -0.041707817    3629.1765     1509.972    1049.2882    910.81099    28.378351    18.851941    14.340835 0.00033492914 0.00033438873    7.1504421    7.1503764    304.14231     41.49527    35.978931    34.423473    90.016431    119.66323    90.107069   0.17161061    200.95748    28.379786    18.848391    14.339955    28.376818    18.852213    14.340633 
 1310000    297.10318    1.2509986    3628.8067            0            0            0            0    1100.9226    44657.537 -0.067234084   -17.036218 -0.041707817    3628.8067      1474.23    1037.6748    952.37055    28.382225    18.850996    14.334238 0.00041367254 0.00041349489    7.0580809    7.0579863    297.10318     41.49527    35.978931    34.423473    90.016431    119.66323    90.107069   0.16939394    248.20353    28.379829    18.849215    14.339388    28.380951    18.853134     14.33138 
 1320000    298.29541    1.2509986    3648.1019            0            0            0            0    320.21529    44657.537 -0.067234084   -17.036218 -0.041707817    3648.1019    1514.8714    1033.4773    939.89916    28.379331    18.845677    14.337314 0.00036068739 0.00036019197    7.1578608    7.1578604    298.29541     41.49527    35.978931    34.423473    90.016431    119.66323    90.107069   0.17178866    216.41244    28.378965    18.848648    14.339526    28.380154    18.845201     14.33781 
 1330000    296.60604    1.2509986    3604.9096            0            0            0            0   -1430.9787    44657.537 -0.067234084   -17.036218 -0.041707817    3604.9096    1485.3009    978.34845    972.33889    28.379947    18.854062    14.338762 0.0003448527 0.00034062728    7.3434385     7.343374    296.60604     41.49527    35.978931    34.423473    90.016431    119.66323    90.107069   0.17624252    206.91162    28.377758    18.848937    14.340631    28.381139    18.853137     14.33927 
 1340000    300.58851    1.2509986    3605.4161            0            0            0            0    595.73199    44657.537 -0.067234084   -17.036218 -0.041707817    3605.4161    1473.4465    1000.1564    969.93175    28.371826    18.849468    14.341748 0.00036552182 0.00036327776     7.387514     7.387392    300.58851     41.49527    35.978931    34.423473    90.016431    119.66323    90.107069   0.17730034    219.31309    28.380958    18.849458    14.339924    28.371283    18.848881    14.343405 
 1350000    294.61861    1.2509986    3627.0934            0            0            0            0     277.4015    44657.537 -0.067234084   -17.036218 -0.041707817    3627.0934    1528.2452    1000.8098    940.79067    28.379515      18.8477    14.346247 0.00037344883 0.0003721412    7.2356314    7.2354742    294.61861     41.49527    35.978931    34.423473    90.016431    119.66323    90.107069   0.17365515     224.0693    28.379745    18.849856    14.340388    28.376597    18.846792    14.349315 
 1360000     297.3163    1.2509986     3524.743            0            0            0            0   -290.60214    44657.537 -0.067234084   -17.036218 -0.041707817     3524.743    1447.1611    986.90211      933.189    28.384541    18.846222    14.332906 0.00035442409 0.00035286333    7.1479179    7.1478549     297.3163     41.49527    35.978931    34.423473    90.016431    119.66323    90.107069   0.17155003    212.65445    28.379259    18.850222    14.339544    28.385803    18.844965    14.332081 
 1370000    303.61743    1.2509986    3600.0624            0            0            0            0    1074.3569    44657.537 -0.067234084   -17.036218 -0.041707817    3600.0624    1496.8606    1021.4514    925.88063    28.377972    18.849731    14.336057 0.00037463644 0.00037422921    7.1107033    7.1106842    303.61743     41.49527    35.978931    34.423473    90.016431    119.66323    90.107069   0.17065688    224.78186    28.379563    18.848385    14.339753    28.377048     18.84883    14.336815 
 1380000    296.02439    1.2509986    3655.0994            0            0            0            0   -292.85643    44657.537 -0.067234084   -17.036218 -0.041707817    3655.0994     1545.455    1039.1122    915.45047    28.377182    18.851146    14.339598 0.00037009173 0.00036803814    7.3803722    7.3803083    296.02439     41.49527    35.978931    34.423473    90.016431    119.66323    90.107069   0.17712893    222.05504    28.380637    18.849013    14.338697     28.37571    18.851297    14.340889 
 1390000    295.70126    1.2509986    3541.7851            0            0            0            0   -59.448627    44657.537 -0.067234084   -17.036218 -0.041707817    3541.7851    1482.7359    1001.8744    902.94731      28.3832    18.851306    14.337391 0.00035912098 0.0003579493    7.1610379    7.1609927    295.70126     41.49527    35.978931    34.423473    90.016431    119.66323    90.107069   0.17186491    215.47259    28.379882    18.849067    14.338607    28.381662    18.851791    14.335911 
 1400000     298.7569    1.2509986    3576.3924            0            0            0            0    437.14821    44657.537 -0.067234084   -17.036218 -0.041707817    3576.3924    1500.0877    981.16572    936.36169     28.38485    18.850182    14.328318 0.00036896666 0.0003656705    7.2867825    7.2866106     298.7569     41.49527    35.978931    34.423473    90.016431    119.66323    90.107069   0.17488278    221.37999    28.378786    18.847433    14.339184    28.384747    18.852379    14.327271 
 1410000    296.62739    1.2509986    3642.7352            0            0            0            0    1063.7382    44657.537 -0.067234084   -17.036218 -0.041707817    3642.7352    1488.0391    1044.4976    947.97925    28.376934    18.852996    14.342145 0.00040291105 0.00039907379     7.179319    7.1792116    296.62739     41.49527    35.978931    34.423473    90.016431    119.66323    90.107069   0.17230366    241.74663    28.381342     18.84975    14.339315    28.377657    18.854454    14.341974 
 1420000    297.89467    1.2509986    3495.4367            0            0            0            0    1370.6516    44657.537 -0.067234084   -17.036218 -0.041707817    3495.4367    1457.4014    995.64183    896.98128    28.377499    18.854605    14.335431 0.00035163013 0.00034827492    6.9131677    6.9130777    297.89467     41.49527    35.978931    34.423473    90.016431    119.66323    90.107069   0.16591603    210.97808    28.380644    18.849566    14.338272    28.378905    18.854627    14.334925 
 1430000    302.70691    1.2509986     3676.565            0            0            0            0    -1022.674    44657.537 -0.067234084   -17.036218 -0.041707817     3676.565    1538.4356    1023.6298    954.64056    28.376846    18.847853    14.344076 0.0003870714 0.00038466294    6.8744702    6.8744178    302.70691     41.49527    35.978931    34.423473    90.016431    119.66323    90.107069   0.16498728    232.24284    28.378293    18.848616    14.340447    28.377595    18.847301     14.34391 
 1440000    295.54127    1.2509986    3561.5873            0            0            0            0    305.53321    44657.537 -0.067234084   -17.036218 -0.041707817    3561.5873    1461.9486    1017.2387    922.68184    28.377548    18.855944    14.340763 0.00035667721 0.00035424259    6.9959579     6.995815    295.54127     41.49527    35.978931    34.423473    90.016431    119.66323    90.107069   0.16790299    214.00633    28.380144    18.849846    14.338457    28.378251    18.857123    14.339452 
 1450000    290.89314    1.2509986    3493.1321            0            0            0            0   -127.36188    44657.537 -0.067234084   -17.036218 -0.041707817    3493.1321    1438.3159    1025.4036    879.83701    28.380294    18.846865    14.337392 0.00034673211 0.00034555423    7.0517237    7.0517204    290.89314     41.49527    35.978931    34.423473    90.016431    119.66323    90.107069   0.16924137    208.03927    28.378913    18.849668     14.33906     28.38138    18.845976    14.338002 
 1460000    298.95063    1.2509986    3692.7992            0            0            0            0   -1453.0207    44657.537 -0.067234084   -17.036218 -0.041707817    3692.7992     1514.133    1028.2525    985.54657    28.381982    18.848895    14.342375 0.00034968855 0.00034727275    6.8439472    6.8438894    298.95063     41.49527    35.978931    34.423473    90.016431    119.66323    90.107069   0.16425473    209.81313    28.378715    18.848271    14.340714    28.379779    18.849879    14.343456 
 1470000    297.78661    1.2509986      3560.33            0            0            0            0    335.10962    44657.537 -0.067234084   -17.036218 -0.041707817      3560.33    1490.9626    999.08407    913.96637    28.379884    18.843676      14.3342 0.00036848051 0.00036679244    6.7527378    6.7527053    297.78661     41.49527    35.978931    34.423473    90.016431    119.66323    90.107069   0.16206571     221.0883    28.379923    18.847774    14.339777    28.378195    18.844305    14.331929 
 1480000    299.34736    1.2509986    3559.1986            0            0            0            0   -309.78962    44657.537 -0.067234084   -17.036218 -0.041707817    3559.1986    1495.1867    984.39663    918.70962    28.382062    18.852494    14.341175 0.00038413241 0.00038391433    6.5906974    6.5906019    299.34736     41.49527    35.978931    34.423473    90.016431    119.66323    90.107069   0.15817674    230.47944    28.379596    18.849165    14.339199     28.38111    18.854484    14.340808 
 1490000    297.08449    1.2509986     3587.536            0            0            0            0    278.31338    44657.537 -0.067234084   -17.036218 -0.041707817     3587.536    1495.4979    1015.9747    922.62999    28.379535    18.847055    14.340184 0.00037918237 0.00037653539    6.7461528    6.7461413    297.08449     41.49527    35.978931    34.423473    90.016431    119.66323    90.107069   0.16190767    227.50942    28.378356    18.848894    14.338547    28.380441    18.848659    14.338235 
 1500000    296.16087    1.2509986    3528.9849            0            0            0            0   -811.74214    44657.537 -0.067234084   -17.036218 -0.041707817    3528.9849    1467.2772    1001.9101    901.45656    28.384044    18.848508    14.338597 0.00035442608 0.00035352995     6.644018    6.6439863    296.16087     41.49527    35.978931    34.423473    90.016431    119.66323    90.107069   0.15945643    212.65565    28.379365    18.849936     14.33955    28.383654     18.84952    14.338048 
 1510000    295.65564    1.2509986     3586.456            0            0            0            0    1026.9932    44657.537 -0.067234084   -17.036218 -0.041707817     3586.456    1476.5724    1064.8133    891.82152    28.383601    18.847754     14.34152 0.00037542736 0.00037352514    7.1478868    7.1478515    295.65564     41.49527    35.978931    34.423473    90.016431    119.66323    90.107069   0.17154928    225.25641     28.38049    18.848601     14.33871    28.384358    18.848219    14.339917 
 1520000     296.7151    1.2509986    3542.8588            0            0            0            0    1222.1731    44657.537 -0.067234084   -17.036218 -0.041707817    3542.8588    1476.0253    989.29921    916.95427    28.380251    18.851102     14.34108 0.00034126786 0.00033850472    7.0097721    7.0097415     296.7151     41.49527    35.978931    34.423473    90.016431    119.66323    90.107069   0.16823453    204.76071    28.379633    18.850426    14.338765    28.381283    18.849951    14.340172 
[...]
 1630000    302.68957    1.2509986    3594.3384            0            0            0            0     641.8322    44657.537 -0.067234084   -17.036218 -0.041707817    3594.3384    1492.8257    1006.3059    937.99708    28.379382     18.84843    14.339222 0.00037570279 0.00037277839    7.1159131    7.1158978    302.68957     41.49527    35.978931    34.423473    90.016431    119.66323    90.107069   0.17078191    225.42167    28.380054    18.847397    14.339893    28.380038    18.847565    14.340559 
 1640000    296.73468    1.2509986    3614.7082            0            0            0            0   -29.413065    44657.537 -0.067234084   -17.036218 -0.041707817    3614.7082    1538.4375    1008.7941    915.78232    28.378901    18.852061      14.3354 0.0003845598 0.00038299364     6.819764     6.819714    296.73468     41.49527    35.978931    34.423473    90.016431    119.66323    90.107069   0.16367434    230.73588    28.380306     18.84889    14.338644    28.378741     18.85104    14.333032 
 1650000    291.97651    1.2509986    3556.7257            0            0            0            0   -1485.3236    44657.537 -0.067234084   -17.036218 -0.041707817    3556.7257    1481.1374    992.62276    925.85697    28.375739    18.850165    14.337367 0.00035982374 0.00035778228     6.931489    6.9314354    291.97651     41.49527    35.978931    34.423473    90.016431    119.66323    90.107069   0.16635574    215.89424    28.378162    18.848911    14.339932    28.374657    18.850681    14.337353 
 1660000    297.87432    1.2509986    3627.4262            0            0            0            0   -937.86387    44657.537 -0.067234084   -17.036218 -0.041707817    3627.4262     1538.018    1031.5036    898.30414    28.373591    18.848177     14.34467 0.00036454691 0.00036254303    7.2388859    7.2387746    297.87432     41.49527    35.978931    34.423473    90.016431    119.66323    90.107069   0.17373326    218.72814    28.378626     18.85001    14.339259    28.374143    18.847175       14.346 
 1670000    300.01758    1.2509986    3550.1026            0            0            0            0    1657.4365    44657.537 -0.067234084   -17.036218 -0.041707817    3550.1026    1433.6527    1039.7282     918.1139    28.379603    18.850393    14.339431 0.00036393386 0.00036174899    7.0666547    7.0666311    300.01758     41.49527    35.978931    34.423473    90.016431    119.66323    90.107069   0.16959971    218.36031    28.378666    18.849782    14.340533    28.378267    18.849502    14.339504 
 1680000    296.29718    1.2509986    3601.2331            0            0            0            0    302.86825    44657.537 -0.067234084   -17.036218 -0.041707817    3601.2331      1489.43    1045.6986    910.32282    28.383322    18.851856    14.339753 0.0004067182 0.00040404438    6.8441822    6.8441246    296.29718     41.49527    35.978931    34.423473    90.016431    119.66323    90.107069   0.16426037    244.03092    28.380232    18.850437    14.340073    28.383931    18.851687    14.338691 
 1690000    300.15449    1.2509986    3669.4647            0            0            0            0    1829.2267    44657.537 -0.067234084   -17.036218 -0.041707817    3669.4647    1526.5192    1045.9956    941.49992    28.374463    18.846614    14.339097 0.00036158132 0.00035987617    6.9396676    6.9396367    300.15449     41.49527    35.978931    34.423473    90.016431    119.66323    90.107069   0.16655202    216.94879    28.379766    18.849309    14.340892     28.37454    18.844518    14.338744 
 1700000    295.94086    1.2509986    3584.3719            0            0            0            0    1181.4361    44657.537 -0.067234084   -17.036218 -0.041707817    3584.3719    1446.1606    1069.5813    911.54597    28.374912    18.848168    14.336153 0.0003452251 0.00034318222    6.9869053    6.9868301    295.94086     41.49527    35.978931    34.423473    90.016431    119.66323    90.107069   0.16768573    207.13506    28.378992    18.850252    14.340072    28.371851    18.847574    14.334551 
 1710000    292.83754    1.2509986    3591.7594            0            0            0            0   -1619.5868    44657.537 -0.067234084   -17.036218 -0.041707817    3591.7594    1492.8057    1018.4824    925.32347    28.373544    18.847523    14.343897 0.00034727402 0.00034659582    7.0091543    7.0090107    292.83754     41.49527    35.978931    34.423473    90.016431    119.66323    90.107069    0.1682197    208.36441    28.380248    18.848756    14.340005    28.372384    18.847967    14.346328 
 1720000    298.78585    1.2509986     3630.904            0            0            0            0    -769.8879    44657.537 -0.067234084   -17.036218 -0.041707817     3630.904    1505.9229    1029.5551    937.68701    28.373507    18.844448    14.339834 0.0004284331 0.00042781225    7.0213555    7.0212984    298.78585     41.49527    35.978931    34.423473    90.016431    119.66323    90.107069   0.16851253    257.05986    28.379496     18.84969    14.340036    28.372636    18.844335     14.33935 
 1730000    304.29299    1.2509986    3600.6128            0            0            0            0    1394.6384    44657.537 -0.067234084   -17.036218 -0.041707817    3600.6128    1494.1477    1023.2829    925.39209    28.377928    18.853248    14.338525 0.00035474774 0.0003536292    7.0204489    7.0203953    304.29299     41.49527    35.978931    34.423473    90.016431    119.66323    90.107069   0.16849077    212.84865    28.378539    18.849122    14.339371    28.378619    18.852628    14.336239 
 1740000    294.60375    1.2509986    3661.8575            0            0            0            0    1670.6355    44657.537 -0.067234084   -17.036218 -0.041707817    3661.8575    1526.2359      1032.53    940.54409    28.378232    18.845026    14.339453  0.000366219 0.00036530347    6.6945121    6.6944879    294.60375     41.49527    35.978931    34.423473    90.016431    119.66323    90.107069   0.16066829     219.7314    28.380494    18.849079     14.33946    28.378999    18.844118    14.341918 
 1750000    296.15479    1.2509986    3529.2731            0            0            0            0   -683.15936    44657.537 -0.067234084   -17.036218 -0.041707817    3529.2731    1443.5142    1005.7909    920.66976    28.383779    18.842432    14.346681 0.0003546283 0.00035379427     6.789548     6.789417    296.15479     41.49527    35.978931    34.423473    90.016431    119.66323    90.107069   0.16294915    212.77698    28.378818     18.84866    14.339233    28.383318    18.839997    14.346685 
 1760000    298.98496    1.2509986    3580.0949            0            0            0            0    501.73831    44657.537 -0.067234084   -17.036218 -0.041707817    3580.0949    1465.1177    1027.6937    931.09339    28.374234    18.855731    14.330943 0.00037126319 0.00037041824     7.117741    7.1176014    298.98496     41.49527    35.978931    34.423473    90.016431    119.66323    90.107069   0.17082578    222.75791    28.378897    18.848924    14.339004    28.375795    18.855329     14.33213 
 1770000    295.45276    1.2509986    3590.1094            0            0            0            0    1194.7208    44657.537 -0.067234084   -17.036218 -0.041707817    3590.1094    1497.1156    1018.3745    916.82881    28.385021    18.848714    14.337814 0.00034699245 0.00034631327    7.0980484    7.0980021    295.45276     41.49527    35.978931    34.423473    90.016431    119.66323    90.107069   0.17035316    208.19547    28.379538    18.848848    14.340445     28.38546    18.849235    14.337768 
 1780000    294.92944    1.2509986    3516.6091            0            0            0            0   -2272.8159    44657.537 -0.067234084   -17.036218 -0.041707817    3516.6091    1496.0479    1010.7563    862.74783    28.378698    18.848796    14.345365 0.00035453355 0.00035328269    7.0552641    7.0551635    294.92944     41.49527    35.978931    34.423473    90.016431    119.66323    90.107069   0.16932634    212.72013    28.379479    18.848474    14.338661    28.378771    18.850202    14.346053 
 1790000    295.27651    1.2509986    3547.1066            0            0            0            0    1543.2723    44657.537 -0.067234084   -17.036218 -0.041707817    3547.1066    1453.3058    1031.0619     907.2636    28.375868    18.843975     14.34337 0.00035165747 0.00035146881    7.0400525    7.0399761    295.27651     41.49527    35.978931    34.423473    90.016431    119.66323    90.107069   0.16896126    210.99448    28.379367    18.848631    14.339555    28.374921    18.843753    14.344303 
 1800000    298.26708    1.2509986    3574.5628            0            0            0            0   -34.530612    44657.537 -0.067234084   -17.036218 -0.041707817    3574.5628    1486.5314    1012.5557    917.14336    28.383152    18.848546    14.332924 0.00037194865 0.00036510179    7.1459588    7.1459241    298.26708     41.49527    35.978931    34.423473    90.016431    119.66323    90.107069   0.17150301    223.16919    28.380203    18.848781    14.342163    28.383661     18.84733    14.333207 
 1810000    297.17561    1.2509986     3685.602            0            0            0            0    1409.3594    44657.537 -0.067234084   -17.036218 -0.041707817     3685.602    1547.4809    1012.9831    960.36846    28.381479    18.845509    14.337274 0.00035457316 0.0003504977    7.0650353    7.0650287    297.17561     41.49527    35.978931    34.423473    90.016431    119.66323    90.107069   0.16956085     212.7439    28.381082    18.848403    14.340811    28.380155    18.845773    14.334746 
 1820000    300.45048    1.2509986    3553.7828            0            0            0            0    1038.8634    44657.537 -0.067234084   -17.036218 -0.041707817    3553.7828    1488.9043    1029.3333    884.79914    28.372976    18.846471    14.336871 0.00035660959 0.00035592139    7.0416825    7.0416157    300.45048     41.49527    35.978931    34.423473    90.016431    119.66323    90.107069   0.16900038    213.96576    28.378729    18.848992    14.339578    28.371993    18.847769    14.337923 
 1830000     296.1283    1.2509986    3537.5434            0            0            0            0   -645.18158    44657.537 -0.067234084   -17.036218 -0.041707817    3537.5434    1478.7545    977.70217    915.51208    28.381252     18.85295    14.336504 0.00035999902 0.00035876429    7.2471065     7.247021     296.1283     41.49527    35.978931    34.423473    90.016431    119.66323    90.107069   0.17393056    215.99941    28.380034    18.849974    14.339927    28.381513    18.854523    14.336454 
 1840000    296.82515    1.2509986    3548.9778            0            0            0            0    1495.5878    44657.537 -0.067234084   -17.036218 -0.041707817    3548.9778    1488.0345    981.16608    917.28027    28.383432     18.84964    14.343521 0.00037874471 0.00037749658    7.0244962    7.0243995    296.82515     41.49527    35.978931    34.423473    90.016431    119.66323    90.107069   0.16858791    227.24682    28.379671    18.849483    14.338631    28.383186    18.850028    14.345302 
 1850000    302.70684    1.2509986    3643.5877            0            0            0            0   -480.54775    44657.537 -0.067234084   -17.036218 -0.041707817    3643.5877    1488.5955    1026.4005    961.57861    28.385224    18.856741    14.341903 0.00035652577 0.00035569533    7.0998889    7.0997063    302.70684     41.49527    35.978931    34.423473    90.016431    119.66323    90.107069   0.17039733    213.91546    28.379265    18.849831    14.339363     28.38717    18.856367    14.340404 
 1860000    297.96392    1.2509986    3597.7718            0            0            0            0    303.47363    44657.537 -0.067234084   -17.036218 -0.041707817    3597.7718    1501.4901    977.36329    957.93538    28.375437    18.847938    14.342282 0.00037072506 0.00036875584    7.0564993    7.0564165    297.96392     41.49527    35.978931    34.423473    90.016431    119.66323    90.107069   0.16935598    222.43504    28.378174    18.848971    14.339876    28.373754    18.847358    14.343786 
 1870000    299.90722    1.2509986    3577.4365            0            0            0            0     478.0105    44657.537 -0.067234084   -17.036218 -0.041707817    3577.4365    1482.0455    1008.6427    924.70739    28.383781     18.85312    14.335808 0.00035771054 0.00035695523    7.0648504     7.064726    299.90722     41.49527    35.978931    34.423473    90.016431    119.66323    90.107069   0.16955641    214.62632    28.380098    18.849683    14.339524     28.38601    18.854744    14.337126 
 1880000    292.93488    1.2509986    3531.6024            0            0            0            0    68.457641    44657.537 -0.067234084   -17.036218 -0.041707817    3531.6024    1461.1437    991.42574    923.71923    28.380795    18.852643    14.341289 0.00034939869 0.00034863982    6.9528057    6.9527108    292.93488     41.49527    35.978931    34.423473    90.016431    119.66323    90.107069   0.16686734    209.63921    28.379367    18.849511    14.340327     28.38225      18.8535    14.342213 
 1890000    305.58471    1.2509986    3600.8144            0            0            0            0   -141.41612    44657.537 -0.067234084   -17.036218 -0.041707817    3600.8144    1509.0842    1043.0855    894.73394    28.382733    18.846864    14.335495 0.00037316415 0.00037201327    7.0156529    7.0156191    305.58471     41.49527    35.978931    34.423473    90.016431    119.66323    90.107069   0.16837567    223.89849    28.378987    18.849241    14.340518    28.385338    18.846889    14.336128 
 1900000    298.01157    1.2509986    3578.7556            0            0            0            0   -1296.7716    44657.537 -0.067234084   -17.036218 -0.041707817    3578.7556    1476.5878     1025.941    923.61435     28.38213     18.84967    14.338741 0.00034418759 0.0003440435    7.1218585    7.1218215    298.01157     41.49527    35.978931    34.423473    90.016431    119.66323    90.107069    0.1709246    206.51256    28.379665    18.848778    14.339916     28.38191    18.849668    14.341137 
 1910000     296.6362    1.2509986     3600.378            0            0            0            0   -1822.1739    44657.537 -0.067234084   -17.036218 -0.041707817     3600.378    1523.9483    1009.0077    908.97374     28.37668    18.840253    14.341398 0.00036935427 0.00036903603    7.0958579    7.0957972     296.6362     41.49527    35.978931    34.423473    90.016431    119.66323    90.107069   0.17030059    221.61256    28.379036     18.84885    14.339493    28.377249    18.839463    14.341503 
 1920000    298.93114    1.2509986    3544.2237            0            0            0            0   -662.69044    44657.537 -0.067234084   -17.036218 -0.041707817    3544.2237    1469.2295    1025.8665    897.22628    28.380715    18.849446    14.338579  0.000350829 0.00034988983    7.0922435    7.0922188    298.93114     41.49527    35.978931    34.423473    90.016431    119.66323    90.107069   0.17021384     210.4974    28.379289    18.848219     14.33915    28.380959    18.850301    14.336977 
 1930000    294.97104    1.2509986     3559.645            0            0            0            0   -217.61294    44657.537 -0.067234084   -17.036218 -0.041707817     3559.645    1476.7132    977.97489    944.17984    28.375635    18.850766    14.339942 0.00037916621 0.00037732774    6.8830227    6.8829808    294.97104     41.49527    35.978931    34.423473    90.016431    119.66323    90.107069   0.16519254    227.49972    28.379033    18.850166    14.340124    28.377059     18.84993    14.341058 
 1940000    300.23702    1.2509986    3554.6512            0            0            0            0    502.61619    44657.537 -0.067234084   -17.036218 -0.041707817    3554.6512    1471.3418     1018.643    909.12899    28.378068    18.843189    14.339235 0.00032580253 0.00032104858    6.9627394    6.9627289    300.23702     41.49527    35.978931    34.423473    90.016431    119.66323    90.107069   0.16710574    195.48152    28.381117    18.849955    14.340835    28.379207    18.842964    14.339201 
 1950000    294.66762    1.2509986    3563.2541            0            0            0            0   -775.32387    44657.537 -0.067234084   -17.036218 -0.041707817    3563.2541    1465.8775    1023.4134    915.03517    28.379915    18.848519     14.33628 0.00033920767 0.00033732043    6.9253528    6.9253373    294.66762     41.49527    35.978931    34.423473    90.016431    119.66323    90.107069   0.16620847     203.5246    28.379024    18.849296    14.340873    28.380009    18.847791    14.334091 
 1960000    296.11418    1.2509986    3570.2183            0            0            0            0    898.97866    44657.537 -0.067234084   -17.036218 -0.041707817    3570.2183    1473.4737    1057.6734    885.20208    28.379701    18.855157    14.344034 0.00034414067 0.00034333057    6.9670307    6.9668738    296.11418     41.49527    35.978931    34.423473    90.016431    119.66323    90.107069   0.16720874     206.4844    28.379141    18.848543    14.340284    28.380551    18.854762    14.345632 
 1970000    293.61049    1.2509986    3695.2996            0            0            0            0   -629.44224    44657.537 -0.067234084   -17.036218 -0.041707817    3695.2996    1527.5991    1044.6904    960.70238    28.380945    18.851806    14.337395 0.00034732005 0.00034493119    7.0064936    7.0064254    293.61049     41.49527    35.978931    34.423473    90.016431    119.66323    90.107069   0.16815585    208.39203    28.379274    18.850402    14.340254    28.381002    18.853595    14.336371 
 1980000    292.03884    1.2509986    3618.2891            0            0            0            0     565.5296    44657.537 -0.067234084   -17.036218 -0.041707817    3618.2891    1545.2667    1023.9558    893.38231    28.383925    18.844916    14.340453 0.00040012454 0.00039988769    7.0866929    7.0866596    292.03884     41.49527    35.978931    34.423473    90.016431    119.66323    90.107069   0.17008063    240.07472    28.379296      18.8489    14.339243     28.38398    18.844922    14.341215 
 1990000    297.24678    1.2509986    3572.7376            0            0            0            0    1589.7914    44657.537 -0.067234084   -17.036218 -0.041707817    3572.7376    1471.8447    1019.1481    926.58058    28.383865    18.847286    14.341545 0.00037920308 0.00037711726    6.9265613    6.9265005    297.24678     41.49527    35.978931    34.423473    90.016431    119.66323    90.107069   0.16623747    227.52185    28.380655    18.848349    14.338976    28.385461     18.84796    14.342027 
 2000000    300.59448    1.2509986    3558.3406            0            0            0            0   -142.42445    44657.537 -0.067234084   -17.036218 -0.041707817    3558.3406    1460.2455    1036.5444    906.17613    28.384153    18.851792    14.342345 0.00036082721 0.00035990942    7.0910112    7.0909391    300.59448     41.49527    35.978931    34.423473    90.016431    119.66323    90.107069   0.17018427    216.49632    28.379954    18.849298    14.338815    28.383664    18.851068    14.342364 
Loop time of 3930.89 on 20 procs for 2000000 steps with 4560 atoms

Pair  time (%) = 2857.88 (72.7031)
Bond  time (%) = 344.606 (8.76663)
Neigh time (%) = 77.0769 (1.9608)
Comm  time (%) = 498.304 (12.6766)
Outpt time (%) = 0.531679 (0.0135257)
Other time (%) = 152.49 (3.87929)

Nlocal:    228 ave 241 max 214 min
Histogram: 2 0 4 3 0 3 1 4 1 2
Nghost:    5967.6 ave 6010 max 5902 min
Histogram: 1 1 1 1 1 2 6 4 0 3
Neighs:    84273.9 ave 90113 max 77791 min
Histogram: 1 1 2 2 3 2 5 1 2 1

Total # of neighbors = 1685478
Ave neighs/atom = 369.622
Ave special neighs/atom = 10.6316
Neighbor list builds = 15434
Dangerous builds = 0
System init for write_data ...
