LAMMPS data file via write_data, version 15 May 2015, timestep = 1000000

4560 atoms
7 atom types
5040 bonds
3 bond types
7200 angles
2 angle types
10560 dihedrals
3 dihedral types
2400 impropers
1 improper types

-1.0763502675555259e-01 4.1387635026745990e+01 xlo xhi
-4.0433884491974936e-02 3.5938433884472119e+01 ylo yhi
-3.5711112484589691e-01 2.9555111124838550e+01 zlo zhi
-6.7234083837551181e-02 -1.7036217651000683e+01 -4.1707816797290791e-02 xy xz yz

Masses

1 12.0107
2 1.008
3 12.0107
4 12.0107
5 12.0107
6 12.0107
7 12.0107

Pair Coeffs # lj/cut/coul/long

1 0.07 3.55
2 0.03 2.42
3 0.07 3.55
4 0.07 3.55
5 0.07 3.55
6 0 0
7 0.07 3.55

Bond Coeffs # harmonic

1 469 1.4
2 367 1.08
3 469 0.7

Angle Coeffs # harmonic

1 35 120
2 63 120

Dihedral Coeffs # opls

1 0 7.25 0 0
2 0 7.25 0 0
3 0 7.25 0 0

Improper Coeffs # cvff

1 2.5 -1 2

Atoms # full

219 13 3 0.0000000000000000e+00 -2.6393555792671997e-01 3.0985595290601369e+00 3.1425471000616656e+00 1 0 0
220 13 4 -1.1500000000000000e-01 3.8419183851791061e-01 4.0796311048034974e+00 2.3752074687292977e+00 1 0 0
224 13 2 1.1500000000000000e-01 5.3447318981333991e-01 5.0331528494151332e+00 2.8259535096050783e+00 1 0 0
580 33 4 -1.1500000000000000e-01 2.6025048618404973e+00 6.7796614273357010e+00 4.0573835957855913e+00 1 0 0
228 13 3 0.0000000000000000e+00 -5.5867871722466789e-01 1.8227831392446250e+00 2.5947029572137899e+00 1 0 0
989 53 4 -1.1500000000000000e-01 -1.3807731233634490e+00 7.0401664452547958e+00 3.5050677319266619e+00 1 0 0
600 34 2 1.1500000000000000e-01 1.3153111695776509e-01 5.7510181224287065e+00 6.9282244279534480e+00 1 0 0
245 14 4 -1.1500000000000000e-01 -5.0259138116625692e+00 1.4298041496050624e+00 8.9463730934031762e+00 1 0 0
227 13 4 -1.1500000000000000e-01 -1.9434953801457144e-01 1.6255597950512535e+00 1.2698856091130450e+00 1 0 0
4390 233 1 -1.1500000000000000e-01 2.2775441490018848e+00 6.2627454338986410e-01 5.4493324873003841e+00 1 1 0
733 13 6 0.0000000000000000e+00 -4.0784611426657480e-01 2.3934600321168440e+00 2.9814125648954710e+00 1 0 0
249 14 2 1.1500000000000000e-01 -4.1060184098249746e+00 1.9022190345289798e+00 7.0873112103778668e+00 1 0 0
230 13 1 -1.1500000000000000e-01 6.9970645905911888e-01 3.8569262306217174e+00 1.0577967975018554e+00 1 0 0
217 13 7 -1.1500000000000000e-01 -1.2680145965425209e+00 2.3390846235331328e+00 5.3019546518644152e+00 1 0 0
218 13 5 -1.1500000000000000e-01 -6.2119162711161868e-01 3.3262368266579925e+00 4.4927677806229731e+00 1 0 0
221 13 1 -1.1500000000000000e-01 -1.6689551376552048e+00 1.1408413276887683e+00 4.7289265399981257e+00 1 0 0
222 13 2 1.1500000000000000e-01 -1.4784935520877607e+00 2.5437825950856183e+00 6.3789550395348442e+00 1 0 0
223 13 2 1.1500000000000000e-01 -4.1513493547998426e-01 4.2817766382280729e+00 4.8939084928330150e+00 1 0 0
248 14 1 -1.1500000000000000e-01 -3.6843487061312454e+00 3.4327677040477527e+00 8.6207247033209153e+00 1 0 0
4380 233 4 -1.1500000000000000e-01 2.5912943493661253e+00 1.0679195772205621e+00 4.1499919897610571e+00 1 1 0
244 14 1 -1.1500000000000000e-01 -4.2843281293347761e+00 2.2259307323135284e+00 8.1046244003257897e+00 1 0 0
603 34 2 1.1500000000000000e-01 8.2806440369247536e-01 3.5422016764194404e+00 7.5977245545983081e+00 1 0 0
4396 234 5 -1.1500000000000000e-01 -6.7189771789576991e-01 2.6327523252335872e-01 9.1618397368526878e+00 1 1 0
4394 233 2 1.1500000000000000e-01 1.7749482156122629e+00 1.2239396629429693e+00 6.1648403749460750e+00 1 1 0
579 33 3 0.0000000000000000e+00 3.2553745336046251e+00 5.8386171103401781e+00 3.1688692851516351e+00 1 0 0
252 14 2 1.1500000000000000e-01 -3.2146816476017155e+00 4.0891889721544965e+00 7.8992937682833837e+00 1 0 0
581 33 1 -1.1500000000000000e-01 4.5311008054761643e+00 4.0432090573273500e+00 1.4472183580000664e+00 1 0 0
596 34 5 -1.1500000000000000e-01 -5.7517197622623595e-01 6.2750121805112880e+00 8.9372896238333972e+00 1 0 0
577 33 7 -1.1500000000000000e-01 3.9821971976369590e+00 5.2159017091854381e+00 9.2740504559743941e-01 1 0 0
588 33 3 0.0000000000000000e+00 3.8365945990063830e+00 4.6718869587521237e+00 3.7215985541234948e+00 1 0 0
589 33 4 -1.1500000000000000e-01 4.4357838562013470e+00 3.7234575967651247e+00 2.8245349966290583e+00 1 0 0
593 33 2 1.1500000000000000e-01 5.0780518980359677e+00 2.9087840372403599e+00 3.0787318357060989e+00 1 0 0
753 33 6 0.0000000000000000e+00 3.6329250323809230e+00 5.2156946389097891e+00 3.2909667993637890e+00 1 0 0
4383 233 2 1.1500000000000000e-01 2.8279163051878333e+00 1.4370749179209252e+00 1.6409703105526710e+00 1 1 0
4379 233 3 0.0000000000000000e+00 3.2366838215309701e+00 1.9530525473503688e-01 3.2392552372887118e+00 1 1 0
578 33 5 -1.1500000000000000e-01 3.4491381704387747e+00 6.1819338297790694e+00 1.8328221948741774e+00 1 0 0
226 13 1 -1.1500000000000000e-01 4.9237896918308732e-01 2.6344482479645936e+00 4.5791727440885777e-01 1 0 0
4384 233 2 1.1500000000000000e-01 2.2097258415561436e+00 2.0381694876707845e+00 3.7676520097983683e+00 1 1 0
586 33 1 -1.1500000000000000e-01 3.1351184957679421e+00 5.3284514787520001e+00 5.9592544654271018e+00 1 0 0
587 33 4 -1.1500000000000000e-01 3.7399909464170120e+00 4.3807056004174472e+00 5.0962779540316614e+00 1 0 0
585 33 2 1.1500000000000000e-01 5.0858793109180978e+00 3.3656210191676394e+00 8.0451042882764856e-01 1 0 0
591 33 2 1.1500000000000000e-01 3.0408226192100667e+00 5.1193873320933649e+00 7.0685255888165406e+00 1 0 0
592 33 2 1.1500000000000000e-01 4.1293842939632430e+00 3.4164275929869210e+00 5.5516413871043984e+00 1 0 0
590 33 1 -1.1500000000000000e-01 2.6016020410337219e+00 6.4808038783066699e+00 5.4276571637987381e+00 1 0 0
987 53 4 -1.1500000000000000e-01 -7.6027821400093720e-01 7.9213519486591411e+00 1.2994825762436726e+00 1 0 0
234 13 2 1.1500000000000000e-01 1.2348959523591720e+00 4.6561700005797295e+00 5.1672142597168302e-01 1 0 0
229 13 4 -1.1500000000000000e-01 -1.2165917772876884e+00 8.6164895277062881e-01 3.3759288701988099e+00 1 0 0
601 34 2 1.1500000000000000e-01 -1.0054668284823052e+00 7.2769855560884107e+00 8.6788653416833448e+00 1 0 0
985 53 2 1.1500000000000000e-01 -2.0281263801275031e+00 6.5329979146442305e+00 5.5378728153108279e+00 1 0 0
599 34 1 -1.1500000000000000e-01 4.3639658588365027e-01 4.1662544746444148e+00 8.2927175066286676e+00 1 0 0
4401 234 2 1.1500000000000000e-01 -1.0352931003231811e+00 1.2834101814942096e+00 8.9590378322759712e+00 1 1 0
225 13 2 1.1500000000000000e-01 -2.1831638985184516e+00 3.7962496591325923e-01 5.3099349020127242e+00 1 0 0
595 34 7 -1.1500000000000000e-01 3.9712242503497919e-03 5.4757882764715218e+00 7.9320513178597878e+00 1 0 0
981 53 1 -1.1500000000000000e-01 -1.4991681700097477e+00 7.2307454841522434e+00 4.9416129158076716e+00 1 0 0
4378 233 5 -1.1500000000000000e-01 3.2780924464900254e+00 5.8236148293878476e-01 1.9123584809807790e+00 1 1 0
582 33 2 1.1500000000000000e-01 4.1527065967393488e+00 5.5014850777467812e+00 -7.0837574438113893e-02 1 0 0
583 33 2 1.1500000000000000e-01 3.1082376616104526e+00 7.1661578155079431e+00 1.4748937097054780e+00 1 0 0
1010 54 2 1.1500000000000000e-01 -4.8618211129230149e+00 6.1873445672463037e+00 8.6114625185218596e+00 1 0 0
1009 54 2 1.1500000000000000e-01 -3.4243151850291156e+00 7.3954660625764435e+00 7.0529597741050516e+00 1 0 0
1493 53 6 0.0000000000000000e+00 -5.9786815561765327e-01 8.6656289410036109e+00 2.9639698976706503e+00 1 0 0
584 33 2 1.1500000000000000e-01 2.1854847545335017e+00 7.6879433298254627e+00 3.6529133495194701e+00 1 0 0
1005 54 4 -1.1500000000000000e-01 -4.4891837579606895e+00 7.1880695323782513e+00 8.8879500374787472e+00 1 0 0
594 33 2 1.1500000000000000e-01 2.1151034512048974e+00 7.2040611786142863e+00 6.0758322313377890e+00 1 0 0
977 53 7 -1.1500000000000000e-01 -8.2073608920845853e-01 8.2929120570346626e+00 5.5521743526211464e+00 1 0 0
982 53 2 1.1500000000000000e-01 -9.1023677044569729e-01 8.4656911090612059e+00 6.6333872030959373e+00 1 0 0
1004 54 1 -1.1500000000000000e-01 -3.6002669888692225e+00 7.8144764871699968e+00 8.0255218318084296e+00 1 0 0
988 53 3 0.0000000000000000e+00 -8.1229145881921616e-01 8.0346125800787647e+00 2.7223039890500229e+00 1 0 0
986 53 1 -1.1500000000000000e-01 -7.0971992407499740e-03 8.8424370768369531e+00 5.0009296880540788e-01 1 0 0
1064 57 2 1.1500000000000000e-01 7.4483376164335988e+00 6.3711087332211083e+00 7.7425148936289290e-01 1 0 0
232 13 2 1.1500000000000000e-01 -3.7307116246047711e-01 6.4638569877373298e-01 8.6272244224053862e-01 1 0 0
993 53 2 1.1500000000000000e-01 -1.8278916510391281e+00 6.1444245874403203e+00 3.0442287013387044e+00 1 0 0
1353 73 2 1.1500000000000000e-01 5.0356019320089098e+00 8.9363856218391557e+00 2.8103930717055468e+00 1 0 0
322 18 2 1.1500000000000000e-01 2.8243242134528845e+00 1.8048531061553322e-01 9.0459088399520287e+00 1 0 0
235 14 7 -1.1500000000000000e-01 -5.2694313627635285e+00 2.1740363160710579e+00 1.3105532643773355e+01 1 0 0
236 14 5 -1.1500000000000000e-01 -4.5747879502918760e+00 3.1501653975710329e+00 1.2256970687864021e+01 1 0 0
597 34 3 0.0000000000000000e+00 -6.3134067261131133e-01 5.8551049158562662e+00 1.0235490143649146e+01 1 0 0
734 14 6 0.0000000000000000e+00 -4.6544028338738794e+00 2.2728855345788133e+00 1.0532802570026464e+01 1 0 0
239 14 1 -1.1500000000000000e-01 -5.8006185160044090e+00 9.8964749342839609e-01 1.2532216328479356e+01 1 0 0
240 14 2 1.1500000000000000e-01 -5.4231950302449921e+00 2.2403017716982454e+00 1.4190179316985528e+01 1 0 0
243 14 2 1.1500000000000000e-01 -6.2387224934944996e+00 1.6076650042580334e-01 1.3160330545242564e+01 1 0 0
4416 235 4 -1.1500000000000000e-01 -5.8913025793137432e+00 7.9406755095306936e-01 1.9005265409992930e+01 1 1 0
4420 235 2 1.1500000000000000e-01 -6.2787819154992563e+00 1.6725928984737988e+00 1.8552310785270006e+01 1 1 0
237 14 3 0.0000000000000000e+00 -4.4553771839631162e+00 2.8923926235445228e+00 1.0849672636778903e+01 1 0 0
4402 234 2 1.1500000000000000e-01 -1.6978651250912025e+00 1.7774148740094780e+00 1.1082220252871144e+01 1 1 0
1007 54 4 -1.1500000000000000e-01 -5.6480634284400946e+00 7.0619532416585775e+00 1.1038889948287268e+01 1 0 0
242 14 2 1.1500000000000000e-01 -3.2040296626523275e+00 4.6038322552021675e+00 1.0322254769727365e+01 1 0 0
255 15 3 0.0000000000000000e+00 -8.6977970664679383e+00 3.1321572915141744e+00 1.8241584797866590e+01 1 0 0
256 15 4 -1.1500000000000000e-01 -8.0052161597710594e+00 3.9205237470134753e+00 1.7251975116473158e+01 1 0 0
260 15 2 1.1500000000000000e-01 -7.6252628510957106e+00 4.8858128760444597e+00 1.7559241787980536e+01 1 0 0
269 15 2 1.1500000000000000e-01 -1.0577500289254735e+01 2.7253747441654852e-01 1.8388230008492780e+01 1 0 0
4414 235 5 -1.1500000000000000e-01 -4.9956789359846212e+00 3.3403253416071882e-01 1.6803632065590040e+01 1 1 0
264 15 3 0.0000000000000000e+00 -9.2487892412725223e+00 1.8897022503711043e+00 1.7843271383106124e+01 1 0 0
262 15 1 -1.1500000000000000e-01 -8.1714420449447154e+00 2.1328225709838913e+00 1.5625673987073789e+01 1 0 0
266 15 1 -1.1500000000000000e-01 -7.6452146488599046e+00 3.3650960902088207e+00 1.6015515660824001e+01 1 0 0
4408 234 1 -1.1500000000000000e-01 -1.8100941688234613e+00 3.5238638862442190e-01 1.2758191497643821e+01 1 1 0
238 14 4 -1.1500000000000000e-01 -3.6854046521215800e+00 3.6660092869962715e+00 9.9813625308413094e+00 1 0 0
263 15 4 -1.1500000000000000e-01 -9.0601731581709473e+00 1.3829722439675054e+00 1.6531556891271990e+01 1 0 0
735 15 6 0.0000000000000000e+00 -8.9719767779532873e+00 2.5070899130122015e+00 1.8021208567524475e+01 1 0 0
246 14 3 0.0000000000000000e+00 -5.1372500502096301e+00 1.8253215872880151e+00 1.0278860851596932e+01 1 0 0
265 15 4 -1.1500000000000000e-01 -1.0036469176193656e+01 1.1317261684005102e+00 1.8715843831897008e+01 1 0 0
604 34 1 -1.1500000000000000e-01 -9.3338794538594261e-01 5.0250971258095598e+00 1.2889798066032666e+01 1 0 0
605 34 4 -1.1500000000000000e-01 -3.6955091066524215e-01 4.1010448283184520e+00 1.1953347468644756e+01 1 0 0
606 34 3 0.0000000000000000e+00 -1.9370213599017294e-01 4.5475478133670348e+00 1.0624206888919732e+01 1 0 0
1006 54 3 0.0000000000000000e+00 -4.8206011441759520e+00 7.7787991221402546e+00 1.0085601075018243e+01 1 0 0
1029 55 2 1.1500000000000000e-01 -1.0408808378586507e+01 5.9423765883332793e+00 1.7866395419348194e+01 1 0 0
1011 54 2 1.1500000000000000e-01 -6.0888468325239797e+00 6.1174587626056258e+00 1.0757115196697869e+01 1 0 0
610 34 2 1.1500000000000000e-01 -2.2445315074803851e-02 3.0495003354510537e+00 1.2161604735222191e+01 1 0 0
241 14 2 1.1500000000000000e-01 -4.1122131656342411e+00 4.0782499490650377e+00 1.2640686610854790e+01 1 0 0
1015 55 3 0.0000000000000000e+00 -8.6431377580733493e+00 8.7867518969203449e+00 1.7956292522616103e+01 1 0 0
598 34 4 -1.1500000000000000e-01 -1.1736719722997790e+00 6.7324690036199657e+00 1.1215200917989394e+01 1 0 0
754 34 6 0.0000000000000000e+00 -4.0544480501503699e-01 5.2108427424908408e+00 1.0403282406821427e+01 1 0 0
609 34 2 1.1500000000000000e-01 -9.1458556268465863e-01 4.7291177470056942e+00 1.3967936452731733e+01 1 0 0
613 35 7 -1.1500000000000000e-01 -4.4163774270988707e+00 5.6014425260112866e+00 1.6008726351872134e+01 1 0 0
618 35 2 1.1500000000000000e-01 -4.5072936467219904e+00 5.9678610265716268e+00 1.5034524861748531e+01 1 0 0
615 35 3 0.0000000000000000e+00 -5.1701318692081246e+00 5.8127510678549772e+00 1.8354005347780578e+01 1 0 0
617 35 1 -1.1500000000000000e-01 -3.9478734606189656e+00 4.2877027922731834e+00 1.6326341070283519e+01 1 0 0
621 35 2 1.1500000000000000e-01 -3.5284421266627204e+00 3.6724126096271750e+00 1.5620827406883814e+01 1 0 0
624 35 3 0.0000000000000000e+00 -4.6340581755875103e+00 4.5195223774072621e+00 1.8657482764986423e+01 1 0 0
625 35 4 -1.1500000000000000e-01 -4.0088365841262892e+00 3.7895426346697487e+00 1.7643546781415413e+01 1 0 0
629 35 2 1.1500000000000000e-01 -3.7139211077106244e+00 2.8110961619113142e+00 1.7861435081552404e+01 1 0 0
755 35 6 0.0000000000000000e+00 -4.9048701396099723e+00 5.1455599306467539e+00 1.8435520554192603e+01 1 0 0
270 15 2 1.1500000000000000e-01 -7.1314412332330477e+00 3.9313670284220033e+00 1.5312247182735051e+01 1 0 0
4398 234 4 -1.1500000000000000e-01 -1.5812066072133977e+00 7.4711393777584689e-01 1.1410359808763545e+01 1 1 0
4412 234 2 1.1500000000000000e-01 -2.3231141878890131e+00 1.0842693682697047e+00 1.3446613973648670e+01 1 1 0
614 35 5 -1.1500000000000000e-01 -5.1261145184366583e+00 6.3424788481271452e+00 1.7058693916555573e+01 1 0 0
247 14 4 -1.1500000000000000e-01 -5.6566409982280668e+00 7.9870797941663940e-01 1.1165167190713477e+01 1 0 0
4419 235 2 1.1500000000000000e-01 -5.4399071458618771e+00 1.2022908736843267e+00 1.6401553849229181e+01 1 1 0
1025 55 4 -1.1500000000000000e-01 -9.8842202815205198e+00 6.7484976976710680e+00 1.8293315141342074e+01 1 0 0
608 34 1 -1.1500000000000000e-01 -1.4215351924479016e+00 6.2676297655557391e+00 1.2529651573649357e+01 1 0 0
616 35 4 -1.1500000000000000e-01 -5.8682567965916874e+00 6.5852792032422753e+00 1.9293597908972203e+01 1 0 0
612 34 2 1.1500000000000000e-01 -1.8078295583330215e+00 6.8286974397272671e+00 1.3346330134998933e+01 1 0 0
268 15 2 1.1500000000000000e-01 -9.5083471502967090e+00 4.5951723181228049e-01 1.6266228166386711e+01 1 0 0
1022 55 1 -1.1500000000000000e-01 -8.4370812538536306e+00 8.4232423715251183e+00 1.5259634540858906e+01 1 0 0
1024 55 3 0.0000000000000000e+00 -9.2976327626641524e+00 7.6724244450108197e+00 1.7440998865452986e+01 1 0 0
620 35 2 1.1500000000000000e-01 -6.2391720671110900e+00 7.6088593186171529e+00 1.9116184079693614e+01 1 0 0
1023 55 4 -1.1500000000000000e-01 -9.1680649466985091e+00 7.4741053108583513e+00 1.6081735171445420e+01 1 0 0
619 35 2 1.1500000000000000e-01 -5.5145448490887761e+00 7.3427197340426025e+00 1.6664165162545181e+01 1 0 0
267 15 2 1.1500000000000000e-01 -7.9854524807603822e+00 1.8034956618306743e+00 1.4606022246901322e+01 1 0 0
1494 54 6 0.0000000000000000e+00 -4.5573990438699150e+00 8.3547480262191076e+00 1.0226083240233947e+01 1 0 0
1003 54 2 1.1500000000000000e-01 -6.6198243178620011e+00 7.0959427326750442e+00 1.2937358965425876e+01 1 0 0
1495 55 6 0.0000000000000000e+00 -8.8977652081173790e+00 8.2071261920687402e+00 1.7637838799048289e+01 1 0 0
999 54 1 -1.1500000000000000e-01 -5.9165401372246205e+00 7.6230053788902694e+00 1.2303030834107579e+01 1 0 0
602 34 2 1.1500000000000000e-01 -1.4578689022977231e+00 7.6948386832184852e+00 1.0938325387564506e+01 1 0 0
611 34 2 1.1500000000000000e-01 6.2068606639415336e-01 2.8091520127760741e+00 9.9958955662034175e+00 1 0 0
1027 55 2 1.1500000000000000e-01 -8.1587503956119285e+00 8.3447548552501800e+00 1.4283848200036051e+01 1 0 0
254 15 5 -1.1500000000000000e-01 -8.9793978304705480e+00 3.5995533991989346e+00 1.9519840398500172e+01 1 0 0
995 54 7 -1.1500000000000000e-01 -5.4047219845530226e+00 8.8310497135143642e+00 1.2660609801874577e+01 1 0 0
1389 75 2 1.1500000000000000e-01 -2.9644073419505288e+00 8.9217258292669062e+00 1.6904533255089611e+01 1 0 0
4415 235 3 0.0000000000000000e+00 -5.2400303361946268e+00 -5.5228913504720215e-02 1.8125948273262374e+01 1 1 0
607 34 4 -1.1500000000000000e-01 3.2606700939512034e-01 3.7553315078496405e+00 9.6211073870700723e+00 1 0 0
280 16 1 -1.1500000000000000e-01 -1.2784167279653545e+01 2.3793891288608062e+00 2.3092764807773186e+01 1 0 0
1407 76 2 1.1500000000000000e-01 -8.2211053050246434e+00 8.7258484467453243e+00 2.4273374254834007e+01 1 0 0
258 15 2 1.1500000000000000e-01 -9.7070697189837407e+00 3.1844262754437294e+00 2.1441521397774927e+01 1 0 0
634 36 4 -1.1500000000000000e-01 -1.0198392362375348e+01 6.4333801358687639e+00 2.6216037075241893e+01 1 0 0
4433 236 3 0.0000000000000000e+00 -9.5331221304947640e+00 1.2841760492868681e-01 2.5641764794994348e+01 1 1 0
257 15 1 -1.1500000000000000e-01 -1.0201275840386439e+01 1.5124087113310252e+00 2.0085986002011843e+01 1 0 0
284 16 1 -1.1500000000000000e-01 -1.2170715030855542e+01 3.5305293209209334e+00 2.3537361364899596e+01 1 0 0
279 16 2 1.1500000000000000e-01 -1.5025239688441056e+01 7.1978490979293841e-01 2.8202532817024881e+01 1 0 0
638 36 2 1.1500000000000000e-01 -1.0754164737136634e+01 7.3064293226039032e+00 2.5946621606458518e+01 1 0 0
288 16 2 1.1500000000000000e-01 -1.1668878720050857e+01 4.1712352128481278e+00 2.2801675769919786e+01 1 0 0
271 16 7 -1.1500000000000000e-01 -1.3859854808870958e+01 2.6243336829580155e+00 2.8075358183967168e+01 1 0 0
272 16 5 -1.1500000000000000e-01 -1.3131561283174825e+01 3.4383642271988291e+00 2.7165775697046318e+01 1 0 0
273 16 3 0.0000000000000000e+00 -1.3013162615222592e+01 3.0378880091005538e+00 2.5819657201807267e+01 1 0 0
274 16 4 -1.1500000000000000e-01 -1.2304461987328708e+01 3.8624279308532010e+00 2.4882975154959528e+01 1 0 0
275 16 1 -1.1500000000000000e-01 -1.4406909112152794e+01 1.3736795082135502e+00 2.7599416596758523e+01 1 0 0
1042 56 3 0.0000000000000000e+00 -1.3591380801569532e+01 7.7387665609873055e+00 2.5237759607908234e+01 1 0 0
277 16 2 1.1500000000000000e-01 -1.2675077918135992e+01 4.3652134338727073e+00 2.7535534235326537e+01 1 0 0
278 16 2 1.1500000000000000e-01 -1.1827947330441056e+01 4.7462075701051072e+00 2.5151688310792313e+01 1 0 0
261 15 2 1.1500000000000000e-01 -1.0586184178848693e+01 8.4201549236049467e-01 2.0898863657206519e+01 1 0 0
282 16 3 0.0000000000000000e+00 -1.3523275243254330e+01 1.8477690047291568e+00 2.5352111303517720e+01 1 0 0
1043 56 4 -1.1500000000000000e-01 -1.4382614032464947e+01 7.0199033148309171e+00 2.6185930690169403e+01 1 0 0
736 16 6 0.0000000000000000e+00 -1.3177474145777660e+01 2.3620839508822873e+00 2.5650584720003145e+01 1 0 0
632 36 5 -1.1500000000000000e-01 -9.3426512125434691e+00 6.0629367243667902e+00 2.3951292494319414e+01 1 0 0
636 36 2 1.1500000000000000e-01 -8.7772426878476217e+00 5.5326271581298538e+00 2.1889778645314468e+01 1 0 0
4438 236 2 1.1500000000000000e-01 -1.0634741678143120e+01 1.8360400034823743e+00 2.6312081759753962e+01 1 1 0
253 15 7 -1.1500000000000000e-01 -9.7032753756403007e+00 2.7796587232240073e+00 2.0430535933418206e+01 1 0 0
623 35 4 -1.1500000000000000e-01 -4.7748391003750088e+00 4.0264593529417407e+00 1.9943721110427884e+01 1 0 0
627 35 2 1.1500000000000000e-01 -5.3287243280141876e+00 4.4840967716901368e+00 2.1967301336169026e+01 1 0 0
644 36 1 -1.1500000000000000e-01 -1.0402259529556520e+01 5.9002284151679634e+00 2.7565115957646867e+01 1 0 0
631 36 7 -1.1500000000000000e-01 -8.7605064177522181e+00 5.2201977643471746e+00 2.2964525383817492e+01 1 0 0
635 36 1 -1.1500000000000000e-01 -8.0383087285648926e+00 4.0669439423114344e+00 2.3386810928496118e+01 1 0 0
628 35 2 1.1500000000000000e-01 -4.3467870684730538e+00 3.0916200484162970e+00 2.0253019838908781e+01 1 0 0
639 36 2 1.1500000000000000e-01 -7.5453037924393822e+00 3.2532803584301089e+00 2.2745761195039872e+01 1 0 0
283 16 4 -1.1500000000000000e-01 -1.4204313242634324e+01 9.9454352999268658e-01 2.6276171294947172e+01 1 0 0
4430 235 2 1.1500000000000000e-01 -6.6875461810409922e+00 1.2119086810551616e+00 2.1016315191783455e+01 1 1 0
4444 236 1 -1.1500000000000000e-01 -1.0235274291688434e+01 5.0137345397625876e-01 2.7967927343726100e+01 1 1 0
231 13 2 1.1500000000000000e-01 -1.6146148819103338e+01 2.3033613999155449e+00 2.9401630660212621e+01 1 0 -1
633 36 3 0.0000000000000000e+00 -9.4342725858452496e+00 5.6371927551099104e+00 2.5285339635318230e+01 1 0 0
4437 236 2 1.1500000000000000e-01 -9.9515232265406990e+00 1.6269204288712671e+00 2.4105332353469393e+01 1 1 0
640 36 1 -1.1500000000000000e-01 -9.7815152136194676e+00 4.6188079783974949e+00 2.7907379382382207e+01 1 0 0
641 36 4 -1.1500000000000000e-01 -8.9972832351363543e+00 3.9952276346646070e+00 2.6988912041909483e+01 1 0 0
642 36 3 0.0000000000000000e+00 -8.7969927860074666e+00 4.4559582683326111e+00 2.5683514308545544e+01 1 0 0
643 36 4 -1.1500000000000000e-01 -8.0455381884265513e+00 3.6975666185302076e+00 2.4725830043724738e+01 1 0 0
622 35 1 -1.1500000000000000e-01 -5.4180644941435840e+00 4.7972286685940313e+00 2.0950149161188580e+01 1 0 0
646 36 2 1.1500000000000000e-01 -8.5614539939178389e+00 3.0232876787180101e+00 2.7286668549942323e+01 1 0 0
647 36 2 1.1500000000000000e-01 -7.4544963303862151e+00 2.8388945300108253e+00 2.4978047402990118e+01 1 0 0
756 36 6 0.0000000000000000e+00 -9.1956330058309490e+00 5.0112731153045722e+00 2.5467578800920027e+01 1 0 0
281 16 4 -1.1500000000000000e-01 -1.3360047184404200e+01 1.4806245940319436e+00 2.3952777580750492e+01 1 0 0
4434 236 4 -1.1500000000000000e-01 -1.0192330354041353e+01 8.8039256951777523e-01 2.6628000982096705e+01 1 1 0
1045 56 2 1.1500000000000000e-01 -1.2498220131635446e+01 7.5137762896654836e+00 2.1988059177465100e+01 1 0 0
259 15 2 1.1500000000000000e-01 -8.6452114147218406e+00 4.5741041080074627e+00 1.9854156948464951e+01 1 0 0
648 36 2 1.1500000000000000e-01 -1.0971863722596328e+01 6.4826680213712633e+00 2.8248619618796344e+01 1 0 0
4432 236 5 -1.1500000000000000e-01 -9.5998950569497232e+00 6.0679646978905810e-01 2.4305561303337097e+01 1 1 0
1039 56 2 1.1500000000000000e-01 -1.4827013537524961e+01 6.8401146403477817e+00 2.8331641931688953e+01 1 0 0
626 35 1 -1.1500000000000000e-01 -5.9509816809593579e+00 6.0948063179232799e+00 2.0620960853286928e+01 1 0 0
4448 236 2 1.1500000000000000e-01 -1.0793274268602978e+01 1.1277835569108854e+00 2.8716411237235654e+01 1 1 0
4426 235 1 -1.1500000000000000e-01 -6.2177508782450550e+00 4.3506537015153479e-01 2.0338148681805585e+01 1 1 0
276 16 2 1.1500000000000000e-01 -1.3899394786659812e+01 2.8279825257649027e+00 2.9151921463302827e+01 1 0 0
630 35 2 1.1500000000000000e-01 -6.4724881718571234e+00 6.6533691401458013e+00 2.1380660362797897e+01 1 0 0
1021 55 2 1.1500000000000000e-01 -1.0456960952548844e+01 6.2468224410803561e+00 2.0274654358219721e+01 1 0 0
637 36 2 1.1500000000000000e-01 -9.8597908673441044e+00 6.9677806876973163e+00 2.3678180840968377e+01 1 0 0
645 36 2 1.1500000000000000e-01 -1.0015218856447941e+01 4.0975809521515352e+00 2.8866958971218413e+01 1 0 0
1013 55 7 -1.1500000000000000e-01 -9.2900219119101237e+00 8.1387363283880685e+00 2.0221283955532414e+01 1 0 0
4436 236 2 1.1500000000000000e-01 -8.9459120385388182e+00 8.0247347848664802e-02 2.2324454614680704e+01 1 1 0
1035 56 1 -1.1500000000000000e-01 -1.4420059281828852e+01 7.5012614237545723e+00 2.7519402179669264e+01 1 0 0
1018 55 2 1.1500000000000000e-01 -9.3017383743189335e+00 8.3217217869486788e+00 2.1289455919128024e+01 1 0 0
1496 56 6 0.0000000000000000e+00 -1.3374751460092689e+01 8.3693984458636219e+00 2.5400849355476844e+01 1 0 0
1040 56 1 -1.1500000000000000e-01 -1.2643595564642444e+01 7.9944770755827612e+00 2.3015808936065934e+01 1 0 0
1041 56 4 -1.1500000000000000e-01 -1.3451280100140897e+01 7.2991519492302528e+00 2.3932689304775657e+01 1 0 0
1047 56 2 1.1500000000000000e-01 -1.4795852748448203e+01 5.9828886779392141e+00 2.6031495092364370e+01 1 0 0
285 16 2 1.1500000000000000e-01 -1.2571513162969778e+01 2.0483161962093499e+00 2.2128489918214711e+01 1 0 0
1017 55 1 -1.1500000000000000e-01 -9.9190568048860808e+00 6.9920885497666179e+00 1.9702756557550664e+01 1 0 0
1031 56 7 -1.1500000000000000e-01 -1.3859588090284767e+01 8.7664626842887721e+00 2.7807160419556713e+01 1 0 0
287 16 2 1.1500000000000000e-01 -1.4633208792421103e+01 1.1563997711015456e-01 2.5806251477915563e+01 1 0 0
1118 60 2 1.1500000000000000e-01 -5.5542038383703876e+00 6.2108212689986955e+00 2.3735781464367150e+01 1 0 0
979 53 3 0.0000000000000000e+00 -1.5067383255995059e-01 9.1216029682946438e+00 3.2647240896692549e+00 1 0 0
980 53 4 -1.1500000000000000e-01 5.8597520116621071e-01 1.0016563959381726e+01 2.5186226695036131e+00 1 0 0
984 53 2 1.1500000000000000e-01 1.1927232586945837e+00 1.0833604625786952e+01 2.9506591547756105e+00 1 0 0
1361 74 2 1.1500000000000000e-01 -1.1187783949209629e+00 1.3251125817334666e+01 8.4032428818906677e+00 1 0 0
990 53 1 -1.1500000000000000e-01 6.3233068499100453e-01 9.9308300951239641e+00 1.0914606215327376e+00 1 0 0
2253 93 6 0.0000000000000000e+00 -2.4644378657873389e-01 1.4160224516476321e+01 2.8773885777887616e+00 1 0 0
994 53 2 1.1500000000000000e-01 1.0813761727039675e+00 1.0791179654645422e+01 5.8859265438881248e-01 1 0 0
1741 93 1 -1.1500000000000000e-01 -1.3857242188849137e+00 1.3358308182046168e+01 4.9351294809808968e+00 1 0 0
978 53 5 -1.1500000000000000e-01 -2.2536438922161262e-01 9.2486081437851340e+00 4.6916606693520952e+00 1 0 0
983 53 2 1.1500000000000000e-01 2.4832449006298285e-01 1.0073344285655889e+01 5.1837052842298839e+00 1 0 0
1012 54 2 1.1500000000000000e-01 -2.4375180764981450e+00 9.7080872238410461e+00 7.5862706346051798e+00 1 0 0
1363 74 2 1.1500000000000000e-01 1.1539125338873175e+00 9.6259269651419856e+00 7.7627403210713943e+00 1 0 0
1745 93 2 1.1500000000000000e-01 -1.8643227780366154e+00 1.2831659775717535e+01 5.7212397079905131e+00 1 0 0
1765 94 4 -1.1500000000000000e-01 -5.1245364642868179e+00 1.3711239892413291e+01 8.6471873259651311e+00 1 0 0
1338 73 5 -1.1500000000000000e-01 3.6669062631508016e+00 1.2317192290620529e+01 1.6722832117197619e+00 1 0 0
1339 73 3 0.0000000000000000e+00 3.4993768249027299e+00 1.1889579036817901e+01 3.0117149104728864e+00 1 0 0
1340 73 4 -1.1500000000000000e-01 2.8424110742376798e+00 1.2779588491577760e+01 3.9340774039520099e+00 1 0 0
1341 73 1 -1.1500000000000000e-01 4.8919358646629627e+00 1.0277538346200650e+01 1.2855058648250846e+00 1 0 0
1337 73 7 -1.1500000000000000e-01 4.4282608725048984e+00 1.1551981295844794e+01 8.2249606174677603e-01 1 0 0
1343 73 2 1.1500000000000000e-01 3.4199846802892422e+00 1.3297179076308815e+01 1.2715503251727518e+00 1 0 0
1348 73 3 0.0000000000000000e+00 3.9307200156625579e+00 1.0641109313250182e+01 3.4878366432002763e+00 1 0 0
1349 73 4 -1.1500000000000000e-01 4.6165029981984596e+00 9.8266433567665814e+00 2.5603077497218925e+00 1 0 0
1513 73 6 0.0000000000000000e+00 3.7005606130852069e+00 1.1224236788260672e+01 3.1921731568778626e+00 1 0 0
1356 74 5 -1.1500000000000000e-01 -7.4935743063826443e-01 1.2348416410202860e+01 8.8609286674083343e+00 1 0 0
1354 73 2 1.1500000000000000e-01 1.8087363651704647e+00 1.2896215771940200e+01 5.8371364199473996e+00 1 0 0
1346 73 1 -1.1500000000000000e-01 2.9062584004809668e+00 1.1131168076617678e+01 5.6500099305999871e+00 1 0 0
1347 73 4 -1.1500000000000000e-01 3.6257399294730783e+00 1.0276329876265800e+01 4.7888628391672174e+00 1 0 0
1350 73 1 -1.1500000000000000e-01 2.4474576702514343e+00 1.2360248921039430e+01 5.1711159545218788e+00 1 0 0
1351 73 2 1.1500000000000000e-01 2.6975426674987144e+00 1.0775840120223958e+01 6.6333027945123924e+00 1 0 0
1352 73 2 1.1500000000000000e-01 4.0198171225836870e+00 9.3110869904396782e+00 5.1609333823550942e+00 1 0 0
1345 73 2 1.1500000000000000e-01 5.4543645428359433e+00 9.5545079900219552e+00 6.6336804877356936e-01 1 0 0
1355 74 7 -1.1500000000000000e-01 -7.0117333336534138e-02 1.1477968468387747e+01 7.9008385627767588e+00 1 0 0
1359 74 1 -1.1500000000000000e-01 5.7638517947114654e-01 1.0362146565628384e+01 8.4077125655170803e+00 1 0 0
1360 74 2 1.1500000000000000e-01 -4.5453614478569548e-02 1.1763536570338594e+01 6.8411393644167156e+00 1 0 0
1747 93 4 -1.1500000000000000e-01 -6.7008320759208873e-01 1.3225342913433993e+01 1.3007136235934771e+00 1 0 0
1748 93 3 0.0000000000000000e+00 -7.3931944681327644e-01 1.3672213296019072e+01 2.6200571714019940e+00 1 0 0
1342 73 2 1.1500000000000000e-01 4.7894490200747617e+00 1.1923561662431149e+01 -1.2771048391099687e-01 1 0 0
1746 93 1 -1.1500000000000000e-01 7.9137416738851996e-03 1.3986667128406616e+01 3.0285771024736596e-01 1 0 0
1742 93 2 1.1500000000000000e-01 -8.5620890559881158e-01 1.4829723224914918e+01 6.3447310923347180e+00 1 0 0
1749 93 4 -1.1500000000000000e-01 -1.4627878846869486e+00 1.2917855688656624e+01 3.5673822147489926e+00 1 0 0
2120 114 2 1.1500000000000000e-01 -1.9656065198499828e-02 1.7091247226133270e+01 6.6627107766751994e+00 1 0 0
1344 73 2 1.1500000000000000e-01 2.4531682840934756e+00 1.3666914366835263e+01 3.5693286859249107e+00 1 0 0
1737 93 7 -1.1500000000000000e-01 -7.8487466576366893e-01 1.4573378224966639e+01 5.3195388147676352e+00 1 0 0