LAMMPS (15 May 2015)
Reading data file ...
  triclinic box = (-0.107635 -0.0404339 -0.357111) to (41.3876 35.9384 29.5551) with tilt (-0.0672341 -17.0362 -0.0417078)
  5 by 4 by 3 MPI processor grid
  reading atoms ...
  4560 atoms
  reading velocities ...
  4560 velocities
  scanning bonds ...
  3 = max bonds/atom
  scanning angles ...
  3 = max angles/atom
  scanning dihedrals ...
  8 = max dihedrals/atom
  scanning impropers ...
  1 = max impropers/atom
  reading bonds ...
  5040 bonds
  reading angles ...
  7200 angles
  reading dihedrals ...
  10560 dihedrals
  reading impropers ...
  2400 impropers
Finding 1-2 1-3 1-4 neighbors ...
 Special bond factors lj:   0          0          0         
 Special bond factors coul: 0          0          0         
  4 = max # of 1-2 neighbors
  8 = max # of 1-3 neighbors
  20 = max # of 1-4 neighbors
  16 = max # of special neighbors
4560 atoms in group all
720 atoms in group C
480 atoms in group S
1920 atoms in group H
720 atoms in group Si
240 atoms in group Na
240 atoms in group Ba
240 atoms in group O
4560 atoms in group naphthalene
1200 atoms in group fixed
960 atoms in group CO
Setting atom values ...
  720 settings made for charge
Setting atom values ...
  720 settings made for charge
Setting atom values ...
  1920 settings made for charge
Setting atom values ...
  480 settings made for charge
Setting atom values ...
  240 settings made for charge
Setting atom values ...
  240 settings made for charge
Setting atom values ...
  240 settings made for charge
Finding 1-2 1-3 1-4 neighbors ...
 Special bond factors lj:   0          0          0.5       
 Special bond factors coul: 0          0          0.5       
  4 = max # of 1-2 neighbors
  8 = max # of 1-3 neighbors
  20 = max # of 1-4 neighbors
  16 = max # of special neighbors
PPPM initialization ...
  G vector (1/distance) = 0.246499
  grid = 16 16 20
  stencil order = 5
  estimated absolute RMS force accuracy = 0.00242397
  estimated relative force accuracy = 7.2997e-06
  using double precision FFTs
  3d grid and FFT values/proc = 1053 112
Neighbor list info ...
  4 neighbor list requests
  update every 1 steps, delay 0 steps, check yes
  master list distance cutoff = 12
Setting up run ...
Memory usage per processor = 13.288 Mbytes
Step Temp Density PotEng E_vdwl E_tail E_coul E_long Press Volume Xy Xz Yz E_mol E_bond E_angle E_dihed 14[1] 14[2] 14[3] msd[4] msd2[4] msd3[4] msd4[4] naphthal Cella Cellb Cellc CellAlpha CellBeta CellGamma 27[2] 27[3] 28[1] 28[2] 28[3] 
       0          298    1.2509986    2087.5869   -1173.1339   -211.49952    2070.8667    -2308.979    790.88859    44657.537 -0.067234084   -17.036218 -0.041707817     3498.833    1521.0094     935.4334    889.67826    28.379601    18.846571    14.337846 2.3535127e-29 2.3910021e-29 2.7538641e-29 3.294809e-29          298     41.49527    35.978931    34.423473    90.016431    119.66323    90.107069    18.846182    14.337739    28.379557    18.849013    14.339638 
    1000    300.49311    1.2509986    2038.2987   -1222.8987   -211.49952    2068.7537   -2309.5228    247.07975    44657.537 -0.067234084   -17.036218 -0.041707817    3501.9664    1567.0508      892.632    889.61395    28.379372    18.844614    14.338299  0.010840227  0.010835468  0.011915096  0.011892945    300.49311     41.49527    35.978931    34.423473    90.016431    119.66323    90.107069    18.846223    14.338481    28.377528     18.85138    14.343164 
    2000    298.34432    1.2509986     2007.183    -1202.776   -211.49952    2074.3014   -2309.2376    1343.5073    44657.537 -0.067234084   -17.036218 -0.041707817    3444.8952    1506.4401    922.87517    865.05718    28.380612    18.845707    14.337269  0.010841753  0.010840467  0.013027217  0.012988644    298.34432     41.49527    35.978931    34.423473    90.016431    119.66323    90.107069    18.847014    14.337037     28.37883    18.853032    14.344317 
    3000    297.42552    1.2509986      1906.97   -1225.7802   -211.49952    2067.7317   -2309.6821   -144.29511    44657.537 -0.067234084   -17.036218 -0.041707817    3374.7005    1517.0538    908.77856    805.28679    28.381379     18.84714    14.337838  0.011100482  0.011099293  0.011915554  0.011886262    297.42552     41.49527    35.978931    34.423473    90.016431    119.66323    90.107069     18.84567    14.337762    28.383225    18.845034    14.339565 
    4000    296.56309    1.2509986    2023.0832   -1216.0505   -211.49952    2071.6024   -2309.1544   -769.32538    44657.537 -0.067234084   -17.036218 -0.041707817    3476.6856    1542.4055    910.43935    868.91827    28.380773    18.845481    14.338162  0.010831475  0.010830369  0.011809414  0.011742469    296.56309     41.49527    35.978931    34.423473    90.016431    119.66323    90.107069    18.845842    14.338371    28.375695    18.844828    14.345514 
    5000    301.03637    1.2509986    2070.8209   -1227.5522   -211.49952    2072.0407   -2309.4154   -857.09747    44657.537 -0.067234084   -17.036218 -0.041707817    3535.7477    1607.2023    919.57501    860.22205    28.380007    18.845459    14.337787  0.010501433  0.010501076  0.011426878  0.011420837    301.03637     41.49527    35.978931    34.423473    90.016431    119.66323    90.107069    18.845727    14.337899     28.38093    18.847655    14.338118 
    6000     299.5597    1.2509986    2123.9515   -1202.2236   -211.49952    2071.1416   -2309.4435   -613.67229    44657.537 -0.067234084   -17.036218 -0.041707817     3564.477    1547.9034    931.38875     923.2298    28.380068    18.846583    14.338466  0.010817982   0.01081558  0.011507646  0.011469801     299.5597     41.49527    35.978931    34.423473    90.016431    119.66323    90.107069    18.847454    14.338222    28.374685    18.848331    14.335943 
    7000    296.01192    1.2509986    1942.3395   -1209.8709   -211.49952    2073.3991   -2309.4369    595.73434    44657.537 -0.067234084   -17.036218 -0.041707817    3388.2483    1470.1177      882.325    880.15863    28.379142    18.845671    14.337753  0.011145583  0.011145361  0.012400147  0.012376642    296.01192     41.49527    35.978931    34.423473    90.016431    119.66323    90.107069    18.846419    14.338067    28.381795    18.845209    14.337632 
    8000    293.02911    1.2509986    1967.9751   -1253.7872   -211.49952    2075.2489   -2309.4065   -357.33124    44657.537 -0.067234084   -17.036218 -0.041707817      3455.92     1527.688    919.84539    855.46571    28.379414    18.847005    14.337601  0.010570558  0.010569019  0.011310566   0.01129271    293.02911     41.49527    35.978931    34.423473    90.016431    119.66323    90.107069    18.847196    14.337449    28.381854    18.845958    14.337836 
    9000    291.82752    1.2509986    2034.9028   -1227.0184   -211.49952    2071.7858   -2309.6076   -437.63408    44657.537 -0.067234084   -17.036218 -0.041707817     3499.743    1578.7661    927.68828    842.64011    28.380432    18.845262    14.337804  0.011076943   0.01107516  0.012316344  0.012279333    291.82752     41.49527    35.978931    34.423473    90.016431    119.66323    90.107069    18.845069    14.338211    28.374628    18.846562    14.337047 
   10000    301.13844    1.2509986     1956.231   -1202.8325   -211.49952    2073.9493   -2309.5863    1030.9651    44657.537 -0.067234084   -17.036218 -0.041707817    3394.7005    1509.9773    887.61534    846.22805    28.376431     18.84708    14.337042  0.010187531  0.010175926  0.011301466   0.01123972    301.13844     41.49527    35.978931    34.423473    90.016431    119.66323    90.107069    18.846756    14.337123    28.373895    18.854004    14.341825 
   11000    299.89462    1.2509986    2010.6175   -1233.5998   -211.49952    2072.0889   -2309.6006   -526.50109    44657.537 -0.067234084   -17.036218 -0.041707817     3481.729    1601.5115    905.12013    825.56678    28.381318    18.845328    14.338278  0.011101787   0.01109936  0.012467478  0.012464821    299.89462     41.49527    35.978931    34.423473    90.016431    119.66323    90.107069    18.845805    14.338808    28.379912    18.847845    14.340718 
   12000    299.41259    1.2509986    1991.8104   -1202.7468   -211.49952    2072.5449   -2309.6627    1488.0655    44657.537 -0.067234084   -17.036218 -0.041707817    3431.6749    1537.1025    897.34447    846.50635    28.380512    18.846243    14.337746  0.010720068  0.010712484  0.012182452  0.012146228    299.41259     41.49527    35.978931    34.423473    90.016431    119.66323    90.107069    18.845317    14.336936    28.382651    18.844306    14.341758 
   13000    298.68477    1.2509986    2067.8034   -1215.1673   -211.49952     2076.793   -2309.5024    779.29482    44657.537 -0.067234084   -17.036218 -0.041707817    3515.6801    1601.6001    940.77834    826.79775    28.379523    18.845613    14.337654   0.01041672  0.010416419 0.0095579433 0.0095380665    298.68477     41.49527    35.978931    34.423473    90.016431    119.66323    90.107069    18.845781    14.338034     28.37625    18.849002    14.342629 
   14000     305.1239    1.2509986    2018.3912   -1232.4183   -211.49952    2078.6076   -2309.6626    1097.7768    44657.537 -0.067234084   -17.036218 -0.041707817    3481.8645    1527.4418    920.32773    874.90299    28.380646    18.845317    14.338043  0.011116551  0.011113343  0.012005255  0.011986307     305.1239     41.49527    35.978931    34.423473    90.016431    119.66323    90.107069     18.84562    14.338835    28.377854     18.84527    14.338209 
   15000    300.29596    1.2509986     1974.828   -1205.7104   -211.49952    2070.6301   -2309.3348   -566.91062    44657.537 -0.067234084   -17.036218 -0.041707817     3419.243     1495.567    904.48088    864.50847    28.379051    18.846407     14.33647  0.010698869  0.010698275  0.011291018    0.0112587    300.29596     41.49527    35.978931    34.423473    90.016431    119.66323    90.107069    18.845892    14.337772      28.3778    18.843606    14.339611 
   16000    294.03529    1.2509986    2009.9514   -1214.3368   -211.49952    2076.6884   -2309.1406   -412.62152    44657.537 -0.067234084   -17.036218 -0.041707817    3456.7405    1505.7732    928.85619    868.51993    28.381715    18.845654    14.337349  0.011347874  0.011344999  0.012817652  0.012763258    294.03529     41.49527    35.978931    34.423473    90.016431    119.66323    90.107069    18.845649    14.336315    28.383006    18.845297    14.334282 
   17000    300.06003    1.2509986    1997.2143   -1212.5545   -211.49952    2074.4013   -2309.1219    221.60264    44657.537 -0.067234084   -17.036218 -0.041707817    3444.4894    1531.3432    904.49281    856.85696    28.378196    18.845595     14.33683  0.011017142  0.011016389  0.012321626   0.01230144    300.06003     41.49527    35.978931    34.423473    90.016431    119.66323    90.107069    18.846861    14.337476    28.382352    18.850549    14.342802 
   18000    295.68701    1.2509986    1937.6574   -1218.7983   -211.49952     2075.916   -2308.9893     906.0097    44657.537 -0.067234084   -17.036218 -0.041707817     3389.529    1502.8138    905.26099    839.69893    28.378802    18.844605    14.337569  0.010832459  0.010821481  0.011160728  0.011106654    295.68701     41.49527    35.978931    34.423473    90.016431    119.66323    90.107069    18.843497    14.338034    28.382824    18.842442    14.340114 
   19000    298.21011    1.2509986    2004.7928   -1213.3449   -211.49952     2070.923   -2309.5444    165.00244    44657.537 -0.067234084   -17.036218 -0.041707817    3456.7592    1527.2991      907.162    869.83098    28.379278    18.846149    14.337082  0.010984957  0.010980415  0.011587145  0.011539805    298.21011     41.49527    35.978931    34.423473    90.016431    119.66323    90.107069    18.846607    14.337696    28.375432    18.844568    14.342889 
   20000    295.22207    1.2509986    2055.9933   -1205.2846   -211.49952     2071.332   -2309.7869   -970.49136    44657.537 -0.067234084   -17.036218 -0.041707817    3499.7328    1565.8833    909.50517    872.05521      28.3821    18.845436    14.338371  0.011241267  0.011234058  0.012583351  0.012531707    295.22207     41.49527    35.978931    34.423473    90.016431    119.66323    90.107069    18.847089    14.337821    28.384787    18.849067     14.33471 
   21000     292.8818    1.2509986    2081.3793   -1204.0638   -211.49952     2074.286   -2309.0677   -1185.1669    44657.537 -0.067234084   -17.036218 -0.041707817    3520.2247    1559.6886    932.24549    875.40979    28.380549    18.846953    14.338094  0.010526869  0.010521547  0.011892032  0.011849259     292.8818     41.49527    35.978931    34.423473    90.016431    119.66323    90.107069    18.847574    14.339422    28.375127    18.850842    14.344088 
   22000     289.7538    1.2509986    1922.5624   -1215.1175   -211.49952    2071.4515   -2309.9096    493.45134    44657.537 -0.067234084   -17.036218 -0.041707817    3376.1381     1524.882    886.02389    827.49551    28.380268    18.846099     14.33759  0.010832945  0.010829868  0.013124687  0.013109181     289.7538     41.49527    35.978931    34.423473    90.016431    119.66323    90.107069    18.845591    14.338704    28.379259    18.847523    14.343271 
   23000    299.34355    1.2509986    2000.5743    -1215.609   -211.49952     2069.949   -2309.8276   -368.80997    44657.537 -0.067234084   -17.036218 -0.041707817     3456.062    1545.4155     903.2871    861.53759    28.381806    18.846392    14.338418  0.010660245  0.010655643  0.012258951  0.012230814    299.34355     41.49527    35.978931    34.423473    90.016431    119.66323    90.107069    18.848177    14.337717    28.375962     18.85289     14.33921 
   24000    295.15262    1.2509986    2008.2124   -1219.4316   -211.49952    2072.7585   -2309.1061   -488.97897    44657.537 -0.067234084   -17.036218 -0.041707817    3463.9916    1501.6424    920.73849    885.74148    28.380082    18.847586    14.336934  0.011093022  0.011087989  0.011729642  0.011705308    295.15262     41.49527    35.978931    34.423473    90.016431    119.66323    90.107069    18.847901     14.33734    28.374636    18.849363    14.339611 
   25000     292.8793    1.2509986     2078.794   -1207.5875   -211.49952     2071.106   -2309.6741   -200.68125    44657.537 -0.067234084   -17.036218 -0.041707817    3524.9496    1553.8688    950.32174    870.21971    28.381092    18.846334    14.337942  0.011032622  0.011030361   0.01275984  0.012700701     292.8793     41.49527    35.978931    34.423473    90.016431    119.66323    90.107069    18.845052    14.337257    28.379775    18.841531    14.337873 
   26000    302.66599    1.2509986    1983.8018   -1224.7217   -211.49952    2074.9229   -2309.1659    568.04323    44657.537 -0.067234084   -17.036218 -0.041707817    3442.7664     1556.905    908.29563    827.29456    28.378812    18.845328    14.336181  0.010954863  0.010948234   0.01112397  0.011051416    302.66599     41.49527    35.978931    34.423473    90.016431    119.66323    90.107069    18.844597    14.336103     28.37944    18.842862    14.333746 
   27000    300.48186    1.2509986    2044.1891   -1217.0674   -211.49952    2073.2653   -2309.5571   -36.649331    44657.537 -0.067234084   -17.036218 -0.041707817    3497.5483    1538.6245    949.66166    860.86812    28.380159    18.845954    14.338208  0.010975007  0.010972175  0.011804591  0.011716142    300.48186     41.49527    35.978931    34.423473    90.016431    119.66323    90.107069    18.846539    14.339174    28.372139    18.846331     14.34476 
   28000     295.5321    1.2509986    2045.8027   -1207.0111   -211.49952    2076.5566   -2309.4366    1339.5762    44657.537 -0.067234084   -17.036218 -0.041707817    3485.6938    1521.3963    939.26811    875.49646    28.378719    18.845125    14.337063  0.010917476  0.010916479  0.012718092  0.012673594     295.5321     41.49527    35.978931    34.423473    90.016431    119.66323    90.107069     18.84521    14.337733    28.382067    18.843571    14.342568 
   29000    298.49729    1.2509986    2061.9864   -1213.4304   -211.49952    2075.3212   -2309.2926    -699.1927    44657.537 -0.067234084   -17.036218 -0.041707817    3509.3882    1551.7115    950.46523    856.55439    28.380442    18.846834    14.337678  0.010911768  0.010907122  0.011828939  0.011815902    298.49729     41.49527    35.978931    34.423473    90.016431    119.66323    90.107069     18.84815    14.338425    28.379129    18.851665    14.342051 
   30000    301.77665    1.2509986    2026.4417   -1199.0254   -211.49952    2070.0257   -2309.7029    644.52323    44657.537 -0.067234084   -17.036218 -0.041707817    3465.1443    1562.2429    893.50215    863.31215    28.379454     18.84434    14.337963  0.011527558  0.011524234  0.012732796  0.012682922    301.77665     41.49527    35.978931    34.423473    90.016431    119.66323    90.107069    18.844903    14.338424    28.374473    18.844479    14.341503 
   31000    300.40984    1.2509986    2092.1497   -1204.6822   -211.49952    2076.5645   -2309.1827    196.10921    44657.537 -0.067234084   -17.036218 -0.041707817    3529.4501    1572.1505    934.46728    870.39093    28.378426    18.846129    14.336982    0.0112145  0.011207871  0.012519642  0.012448705    300.40984     41.49527    35.978931    34.423473    90.016431    119.66323    90.107069    18.846123    14.336736    28.374274    18.846007    14.333808 
   32000    299.08012    1.2509986    2060.2698   -1237.9388   -211.49952    2067.9526   -2309.3129   -2649.7273    44657.537 -0.067234084   -17.036218 -0.041707817    3539.5689    1588.5345    943.84031    858.09652    28.379829    18.845778    14.336575  0.011376262  0.011369267  0.012491153  0.012300081    299.08012     41.49527    35.978931    34.423473    90.016431    119.66323    90.107069    18.845675    14.335186    28.382002    18.847044    14.326176 
   33000    296.52285    1.2509986    2026.6593   -1220.9417   -211.49952    2072.4811   -2309.5107    531.80395    44657.537 -0.067234084   -17.036218 -0.041707817    3484.6305    1487.4022    958.85042    884.31917    28.377142    18.846565    14.336053  0.011072783   0.01105794  0.012464092  0.012337243    296.52285     41.49527    35.978931    34.423473    90.016431    119.66323    90.107069    18.847087    14.335764     28.37313    18.846036    14.330881 
   34000    302.32282    1.2509986    2040.2527   -1218.8121   -211.49952     2074.475   -2309.8914    638.34319    44657.537 -0.067234084   -17.036218 -0.041707817    3494.4812    1562.9612    911.54347     869.9321    28.380834      18.8458    14.337889  0.010604664  0.010600078  0.010758603  0.010726373    302.32282     41.49527    35.978931    34.423473    90.016431    119.66323    90.107069    18.844626    14.337239    28.384922    18.847265    14.339013 
   35000    299.48201    1.2509986    1985.3032   -1214.8316   -211.49952    2069.8792   -2309.8649    97.337131    44657.537 -0.067234084   -17.036218 -0.041707817    3440.1205    1538.4772    909.21977    847.31415    28.381403    18.844777    14.338376  0.010789352  0.010785965  0.011232265  0.011169552    299.48201     41.49527    35.978931    34.423473    90.016431    119.66323    90.107069    18.845009    14.339136    28.375391     18.84437    14.344517 
   36000    295.05081    1.2509986    1908.3016   -1240.7569   -211.49952    2071.9658   -2309.6707   -730.71052    44657.537 -0.067234084   -17.036218 -0.041707817    3386.7634    1510.3288    883.02714    842.02046    28.379546    18.846189    14.337205   0.01068113  0.010676812  0.012726508  0.012637585    295.05081     41.49527    35.978931    34.423473    90.016431    119.66323    90.107069    18.845176    14.337192    28.386273    18.845668    14.333926 
   37000    296.41856    1.2509986    1917.2158   -1226.4583   -211.49952    2074.1475   -2309.6044    530.36782    44657.537 -0.067234084   -17.036218 -0.041707817     3379.131    1490.8414    913.82854    828.84566    28.377947     18.84595    14.337479  0.011340376  0.011337747  0.012751668  0.012682285    296.41856     41.49527    35.978931    34.423473    90.016431    119.66323    90.107069    18.846468    14.338752    28.374796    18.849205    14.346471 
   38000    299.16189    1.2509986    1934.6919   -1232.8206   -211.49952    2075.0548   -2309.3335   -766.67215    44657.537 -0.067234084   -17.036218 -0.041707817    3401.7913    1478.9285    914.25625    853.26713    28.377887    18.844812    14.336533  0.010630542  0.010625042  0.011732812  0.011690674    299.16189     41.49527    35.978931    34.423473    90.016431    119.66323    90.107069    18.844646    14.336691    28.379509    18.844868    14.334643 
   39000    301.40649    1.2509986    1995.1607   -1231.8193   -211.49952    2071.0321    -2309.823   -1414.7186    44657.537 -0.067234084   -17.036218 -0.041707817    3465.7708    1509.3514    952.86669    853.21555    28.380579     18.84526    14.338213  0.011353368  0.011348648  0.012751753  0.012691608    301.40649     41.49527    35.978931    34.423473    90.016431    119.66323    90.107069     18.84435     14.33788    28.378953    18.843635    14.334083 
   40000     299.9241    1.2509986     2038.763   -1219.8239   -211.49952    2069.0836   -2309.7147    202.19912    44657.537 -0.067234084   -17.036218 -0.041707817    3499.2181    1570.7784    909.34426    868.35671    28.379325    18.844943    14.337782   0.01106301  0.011055223  0.011237114   0.01121718     299.9241     41.49527    35.978931    34.423473    90.016431    119.66323    90.107069    18.847442    14.337334    28.382175    18.847755    14.343028 
   41000     300.1346    1.2509986    2022.5098   -1225.6655   -211.49952    2073.0581   -2309.6409    433.68065    44657.537 -0.067234084   -17.036218 -0.041707817     3484.758    1530.8535     923.5761    876.01198    28.379683    18.847025    14.337922  0.010800121  0.010797172  0.012530281  0.012497713     300.1346     41.49527    35.978931    34.423473    90.016431    119.66323    90.107069    18.847007    14.338934    28.377758    18.851677    14.344353 
   42000    296.67689    1.2509986    2047.3946   -1223.5864   -211.49952    2072.9331   -2309.3503   -53.462769    44657.537 -0.067234084   -17.036218 -0.041707817    3507.3982    1525.1302    968.84227    855.38519     28.38085    18.847099    14.337989  0.010703568  0.010702398  0.011576495  0.011562647    296.67689     41.49527    35.978931    34.423473    90.016431    119.66323    90.107069    18.846925     14.33841    28.378355    18.848452    14.343115 
   43000    295.82571    1.2509986    2024.8721   -1191.8311   -211.49952    2074.3961   -2309.5283    1441.3416    44657.537 -0.067234084   -17.036218 -0.041707817    3451.8353     1516.213      941.781    846.99752    28.378821    18.847465    14.337703  0.010901398  0.010898431  0.012012369  0.011979459    295.82571     41.49527    35.978931    34.423473    90.016431    119.66323    90.107069    18.846682    14.338573    28.375786    18.847481    14.343681 
   44000    301.12336    1.2509986     1910.741    -1210.421   -211.49952    2070.8686   -2309.2407   -710.11833    44657.537 -0.067234084   -17.036218 -0.041707817    3359.5342    1507.6867    867.13822    837.29011    28.381512    18.844021     14.33827  0.010859128  0.010854177  0.012177881  0.012121972    301.12336     41.49527    35.978931    34.423473    90.016431    119.66323    90.107069    18.844838    14.338282    28.382573    18.842559    14.337368 
   45000    295.80916    1.2509986    2025.4006   -1210.2183   -211.49952    2073.2861   -2309.4093    79.424241    44657.537 -0.067234084   -17.036218 -0.041707817     3471.742    1518.0496     922.7628    879.88884    28.379701     18.84508    14.337502  0.010825682  0.010824741  0.011197658  0.011176109    295.80916     41.49527    35.978931    34.423473    90.016431    119.66323    90.107069    18.845427    14.338083    28.383436    18.846697    14.340703 
   46000    295.09386    1.2509986    1871.2261   -1245.5079   -211.49952    2075.0429   -2309.5222   -1133.1489    44657.537 -0.067234084   -17.036218 -0.041707817    3351.2134    1507.9165    872.08526    826.60703    28.381795    18.846182    14.338184  0.010778256  0.010775015  0.011100839  0.011086817    295.09386     41.49527    35.978931    34.423473    90.016431    119.66323    90.107069     18.84735    14.338257     28.37754    18.852122    14.340173 
   47000    298.33851    1.2509986    1870.9876   -1219.6163   -211.49952     2072.338    -2309.242     115.0506    44657.537 -0.067234084   -17.036218 -0.041707817     3327.508    1477.8149     864.2681     839.9846    28.380257    18.845826    14.337496  0.011027301  0.011025095  0.011993065  0.011914475    298.33851     41.49527    35.978931    34.423473    90.016431    119.66323    90.107069    18.845732    14.337009    28.381657     18.84278    14.333694 
   48000     302.9863    1.2509986    1946.6604   -1207.2052   -211.49952    2069.4914   -2309.7898    319.22976    44657.537 -0.067234084   -17.036218 -0.041707817    3394.1641    1503.6093    917.16225    830.86536    28.381942    18.846023    14.338193  0.010613329  0.010606637  0.011107427  0.011070217     302.9863     41.49527    35.978931    34.423473    90.016431    119.66323    90.107069    18.845791    14.339105    28.381867    18.850886    14.344964 
   49000    300.20733    1.2509986    2007.2004   -1211.7761   -211.49952    2070.1275   -2310.0465   -562.51504    44657.537 -0.067234084   -17.036218 -0.041707817    3458.8954    1493.2977    965.73922    851.75316    28.379377    18.845835    14.337994  0.010372262  0.010370608  0.010849561   0.01083198    300.20733     41.49527    35.978931    34.423473    90.016431    119.66323    90.107069    18.845568    14.338866    28.380057    18.845856    14.342351 
   50000    301.88963    1.2509986    2017.4144   -1221.0318   -211.49952    2073.6494    -2309.489   -726.73815    44657.537 -0.067234084   -17.036218 -0.041707817    3474.2858     1488.508    948.20285    884.25983    28.379338    18.843692     14.33707   0.01090189  0.010895075  0.012351119  0.012307084    301.88963     41.49527    35.978931    34.423473    90.016431    119.66323    90.107069    18.844747    14.337596    28.373338    18.847519    14.341409 
   51000    304.14919    1.2509986    2009.6806   -1229.1539   -211.49952    2073.1167   -2309.4453   -1085.4598    44657.537 -0.067234084   -17.036218 -0.041707817    3475.1632    1481.7455    956.31652    886.77211    28.380367    18.845878    14.337634  0.011123127  0.011116567   0.01225578  0.012236543    304.14919     41.49527    35.978931    34.423473    90.016431    119.66323    90.107069    18.846937    14.337292    28.379117    18.847697    14.335477 
   52000      298.243    1.2509986    2049.6594   -1222.6674   -211.49952    2071.2776    -2309.588   -1536.0934    44657.537 -0.067234084   -17.036218 -0.041707817    3510.6372    1546.3761    925.24486    881.10686    28.379971    18.847275    14.337119   0.01138565  0.011368379  0.011699379  0.011544887      298.243     41.49527    35.978931    34.423473    90.016431    119.66323    90.107069    18.848149    14.338137    28.391231    18.852181     14.33678 
   53000    306.39011    1.2509986    1969.8592   -1223.2193   -211.49952    2077.3406   -2309.2289    1142.5249    44657.537 -0.067234084   -17.036218 -0.041707817    3424.9668    1548.6611    891.54955    836.95341    28.381501     18.84541    14.337444  0.010468652  0.010460084  0.010189015    0.0101677    306.39011     41.49527    35.978931    34.423473    90.016431    119.66323    90.107069    18.845426    14.337035     28.38214     18.84853    14.335843 
   54000    292.16368    1.2509986    2026.3662   -1239.9619   -211.49952    2074.1945   -2309.4606   -1031.1081    44657.537 -0.067234084   -17.036218 -0.041707817    3501.5942    1571.8752    922.81403    855.99917    28.381625    18.845846    14.338525  0.010800957  0.010797731  0.011730085  0.011717078    292.16368     41.49527    35.978931    34.423473    90.016431    119.66323    90.107069    18.846032    14.338554    28.382264    18.847514     14.34149 
   55000    295.41974    1.2509986    2053.8862   -1224.1774   -211.49952    2069.0847   -2309.4243   -1317.5798    44657.537 -0.067234084   -17.036218 -0.041707817    3518.4033    1562.5714    947.43896    859.55793    28.380946    18.846342    14.337328  0.011295218  0.011288201  0.011607397  0.011530817    295.41974     41.49527    35.978931    34.423473    90.016431    119.66323    90.107069    18.846901    14.337952    28.384951    18.847292    14.332966 
   56000    298.02252    1.2509986    2025.1832   -1221.3839   -211.49952    2069.2231   -2309.6425    -752.3814    44657.537 -0.067234084   -17.036218 -0.041707817    3486.9864    1557.2725    919.12884    859.58984    28.379805    18.846197    14.337727  0.011085385  0.011081918  0.012049493  0.011984813    298.02252     41.49527    35.978931    34.423473    90.016431    119.66323    90.107069    18.845818    14.337526    28.372656    18.845562    14.337367 
   57000    297.30699    1.2509986    1994.7277    -1198.871   -211.49952    2073.3125   -2309.4996     -2.68004    44657.537 -0.067234084   -17.036218 -0.041707817    3429.7858    1496.7739    931.36761    852.07732    28.381028    18.845933    14.338771  0.011216989  0.011214103  0.011888557  0.011859729    297.30699     41.49527    35.978931    34.423473    90.016431    119.66323    90.107069    18.846082    14.339358    28.379626    18.848541    14.344986 
   58000    292.36981    1.2509986    1961.2277   -1230.2014   -211.49952    2069.6577   -2310.0202   -1290.3131    44657.537 -0.067234084   -17.036218 -0.041707817    3431.7916    1513.1912    928.06941    846.13929    28.377734     18.84537    14.337646  0.010873035  0.010860979   0.01243721    0.0124285    292.36981     41.49527    35.978931    34.423473    90.016431    119.66323    90.107069    18.844842    14.337189    28.377213    18.847219     14.33961 
   59000    296.02104    1.2509986    2038.3802   -1216.1297   -211.49952    2069.5174   -2309.5136    776.73453    44657.537 -0.067234084   -17.036218 -0.041707817     3494.506    1573.3757    862.97308    903.83539     28.38064    18.846217    14.337092  0.010693018  0.010691366  0.011251828  0.011235747    296.02104     41.49527    35.978931    34.423473    90.016431    119.66323    90.107069    18.846789    14.336684    28.381751    18.849927    14.336408 
   60000    298.64173    1.2509986    1994.7838   -1225.1026   -211.49952    2072.3012   -2309.4935    806.86414    44657.537 -0.067234084   -17.036218 -0.041707817    3457.0786    1557.7423    857.36792    884.79551    28.378839    18.844947    14.337291  0.011044939  0.011043018  0.011456508  0.011440689    298.64173     41.49527    35.978931    34.423473    90.016431    119.66323    90.107069     18.84524    14.337354    28.378233     18.84571     14.33786 
   61000    297.45309    1.2509986    1982.3596   -1234.7617   -211.49952     2068.484   -2309.7461   -845.01292    44657.537 -0.067234084   -17.036218 -0.041707817    3458.3833    1504.1055    923.47435     876.4862    28.381283    18.846025    14.337929  0.011050761  0.011049235  0.011323386   0.01127386    297.45309     41.49527    35.978931    34.423473    90.016431    119.66323    90.107069    18.847152    14.337444    28.372734      18.8507    14.339996 
   62000    294.60553    1.2509986    1989.4573   -1234.6254   -211.49952    2072.0465   -2309.3526   -458.64783    44657.537 -0.067234084   -17.036218 -0.041707817    3461.3888     1515.744    915.81384    877.23897    28.380901    18.845815    14.338045  0.011248581  0.011247064  0.012662367  0.012652183    294.60553     41.49527    35.978931    34.423473    90.016431    119.66323    90.107069    18.846714    14.338133    28.382267    18.847438    14.340236 
   63000    301.63185    1.2509986    1936.2157   -1215.9088   -211.49952    2072.8849   -2309.6244    585.46844    44657.537 -0.067234084   -17.036218 -0.041707817    3388.8639    1528.2328    899.41365    819.22065    28.379371    18.845656    14.336713  0.011320668    0.0113164  0.011788622  0.011660546    301.63185     41.49527    35.978931    34.423473    90.016431    119.66323    90.107069    18.845481    14.336891     28.36888    18.845262    14.339487 
   64000    296.18409    1.2509986    1980.6208   -1243.8536   -211.49952     2072.949   -2309.4624   -610.66088    44657.537 -0.067234084   -17.036218 -0.041707817    3460.9877    1509.0286    920.05437    881.11189    28.378942    18.847447     14.33753  0.011119343   0.01111799  0.011406937  0.011382986    296.18409     41.49527    35.978931    34.423473    90.016431    119.66323    90.107069    18.847217    14.337802    28.382141    18.849999    14.335601 
   65000    299.38814    1.2509986    1946.0339   -1217.7883   -211.49952    2072.2849   -2309.5852    627.47811    44657.537 -0.067234084   -17.036218 -0.041707817    3401.1225    1510.1917    917.01403    832.45444    28.381304    18.846922    14.337878  0.010833408  0.010831072  0.011180954  0.011128596    299.38814     41.49527    35.978931    34.423473    90.016431    119.66323    90.107069    18.846093    14.337322    28.384089    18.846231    14.334731 
   66000    300.04351    1.2509986    1941.2446   -1239.7223   -211.49952     2073.688   -2309.6066   -1365.3637    44657.537 -0.067234084   -17.036218 -0.041707817    3416.8855    1526.4388     898.4968    845.20508    28.379714    18.847946    14.337756  0.010992171  0.010988223   0.01224578  0.012243279    300.04351     41.49527    35.978931    34.423473    90.016431    119.66323    90.107069    18.847957    14.337762    28.380107    18.850343    14.340293 
   67000    301.75231    1.2509986    1907.5128   -1212.5765   -211.49952    2074.8687   -2309.2535     1022.958    44657.537 -0.067234084   -17.036218 -0.041707817    3354.4741    1471.1162    900.20827    837.44773    28.382288    18.845924    14.338636  0.010281729  0.010275355  0.010174291  0.010155311    301.75231     41.49527    35.978931    34.423473    90.016431    119.66323    90.107069    18.845471     14.33811    28.381823    18.845879    14.337633 
   68000    301.22617    1.2509986    2092.1711   -1252.7898   -211.49952    2072.2206   -2309.7241   -3262.0284    44657.537 -0.067234084   -17.036218 -0.041707817    3582.4645    1609.6004    956.59226       867.15    28.379283    18.845368    14.337779  0.011033956  0.011031005  0.012956395  0.012862633    301.22617     41.49527    35.978931    34.423473    90.016431    119.66323    90.107069    18.845421    14.337179    28.373394    18.842821    14.335462 
   69000    299.13461    1.2509986    1982.7443   -1244.7647   -211.49952    2072.1562   -2309.7349    -866.8479    44657.537 -0.067234084   -17.036218 -0.041707817    3465.0877    1574.3977    904.80736    840.66525    28.380278    18.847859    14.337263  0.010913099  0.010908084  0.011175652  0.011151219    299.13461     41.49527    35.978931    34.423473    90.016431    119.66323    90.107069    18.848269    14.337579    28.375648    18.849389    14.336636 
   70000    291.88408    1.2509986    1976.5371   -1211.0682   -211.49952    2073.0224   -2309.8259    1395.1658    44657.537 -0.067234084   -17.036218 -0.041707817    3424.4088    1503.4662    919.85484    851.13527    28.379439    18.845551     14.33699  0.011376197  0.011371024  0.011707923  0.011527471    291.88408     41.49527    35.978931    34.423473    90.016431    119.66323    90.107069    18.846517    14.335988     28.37581    18.849911    14.326769 
   71000    294.58999    1.2509986     1964.973   -1216.9408   -211.49952    2073.1698   -2309.8681    1019.3208    44657.537 -0.067234084   -17.036218 -0.041707817     3418.612     1516.948    922.01664    833.81997    28.380184    18.845334    14.337173   0.01039828  0.010395154  0.011448954  0.011401723    294.58999     41.49527    35.978931    34.423473    90.016431    119.66323    90.107069    18.846542    14.337002     28.37319    18.847974    14.337268 
   72000     294.2539    1.2509986    1987.1813   -1219.1387   -211.49952    2070.7018   -2309.4511   -1456.5812    44657.537 -0.067234084   -17.036218 -0.041707817    3445.0693    1555.7568    885.67368    854.14047    28.377652    18.846849     14.33677  0.010857153   0.01085232   0.01209532  0.012090337     294.2539     41.49527    35.978931    34.423473    90.016431    119.66323    90.107069    18.847821    14.337042    28.381268     18.84759    14.339466 
   73000    296.63291    1.2509986    1992.5795   -1229.0356   -211.49952    2072.0903    -2309.407    -1457.994    44657.537 -0.067234084   -17.036218 -0.041707817    3458.9317    1549.2954    934.60053    833.18499    28.379874     18.84711    14.337573  0.011086009  0.011084855  0.011693119  0.011690183    296.63291     41.49527    35.978931    34.423473    90.016431    119.66323    90.107069     18.84702    14.337667    28.380277    18.847472    14.339429 
   74000    300.64529    1.2509986    2035.8975   -1236.1118   -211.49952    2068.9846   -2309.3214   -1566.7206    44657.537 -0.067234084   -17.036218 -0.041707817     3512.346    1545.2746    942.54648    874.10483    28.378408    18.845976    14.337098  0.010774173  0.010771106  0.010847647  0.010840805    300.64529     41.49527    35.978931    34.423473    90.016431    119.66323    90.107069    18.845984    14.337074     28.37728    18.847846    14.340186 
   75000    298.30071    1.2509986    2039.4195   -1252.1951   -211.49952    2074.1099   -2309.7053   -1966.3548    44657.537 -0.067234084   -17.036218 -0.041707817    3527.2099    1577.5489    921.53651    877.17081    28.379189    18.845225    14.337701  0.010773386  0.010770389  0.011557059  0.011545113    298.30071     41.49527    35.978931    34.423473    90.016431    119.66323    90.107069    18.845308    14.337067    28.379749    18.848315    14.336258 
   76000    299.88307    1.2509986    2002.4506   -1208.7785   -211.49952    2072.2723   -2309.3149    424.73327    44657.537 -0.067234084   -17.036218 -0.041707817    3448.2718    1539.0348    907.57618    854.99736    28.378816    18.846201    14.336856  0.011062875    0.0110611  0.012195403  0.012179148    299.88307     41.49527    35.978931    34.423473    90.016431    119.66323    90.107069    18.847235    14.336957    28.375695    18.849267    14.338507 
   77000    299.78926    1.2509986    1996.0691   -1210.6781   -211.49952    2068.9657   -2309.7555   -1084.3582    44657.537 -0.067234084   -17.036218 -0.041707817    3447.5369     1548.502    912.82255    841.01957    28.379157    18.845629    14.336655  0.010752048  0.010744287  0.012695166  0.012653498    299.78926     41.49527    35.978931    34.423473    90.016431    119.66323    90.107069    18.845549    14.336171    28.376652    18.844375    14.336214 
   78000     291.1109    1.2509986    2086.7317   -1197.8149   -211.49952    2072.6095   -2309.4444    406.87677    44657.537 -0.067234084   -17.036218 -0.041707817    3521.3814    1571.8811    946.80323    852.61827    28.378477    18.846614    14.337238  0.010728316  0.010728188  0.011152157  0.011108175     291.1109     41.49527    35.978931    34.423473    90.016431    119.66323    90.107069    18.845937    14.337882    28.373202    18.847323    14.338777 
   79000    295.31715    1.2509986      2050.34    -1202.395   -211.49952    2074.6272   -2309.4469    718.53796    44657.537 -0.067234084   -17.036218 -0.041707817    3487.5547    1527.5948    936.51753    869.44325    28.378404    18.847219    14.336445  0.010915075  0.010913317  0.012093078   0.01205242    295.31715     41.49527    35.978931    34.423473    90.016431    119.66323    90.107069    18.845797    14.337764    28.375012    18.844941    14.337788 
   80000    293.02332    1.2509986    1937.1648   -1225.6617   -211.49952    2072.6889   -2309.7024    874.08112    44657.537 -0.067234084   -17.036218 -0.041707817      3399.84    1500.4829    901.76191    851.12223    28.380371    18.845175    14.337992  0.010697974  0.010696142  0.010945954  0.010936686    293.02332     41.49527    35.978931    34.423473    90.016431    119.66323    90.107069    18.845671    14.338424    28.381123    18.846649    14.338529 
   81000    304.38354    1.2509986    1985.6312   -1228.8053   -211.49952    2072.4919   -2309.2306    -1258.051    44657.537 -0.067234084   -17.036218 -0.041707817    3451.1751    1534.6697    917.21992    852.31681    28.378349     18.84649    14.336961  0.010615735  0.010609611  0.011139981  0.011084483    304.38354     41.49527    35.978931    34.423473    90.016431    119.66323    90.107069    18.845454    14.337497    28.374757    18.843434    14.338485 
   82000    295.03379    1.2509986     2007.649   -1222.7408   -211.49952    2069.4509   -2309.5792   -377.63944    44657.537 -0.067234084   -17.036218 -0.041707817    3470.5182    1596.9501    891.84228    835.98435    28.378875    18.845788    14.337896  0.010693833  0.010691884   0.01167606  0.011650011    295.03379     41.49527    35.978931    34.423473    90.016431    119.66323    90.107069    18.845932    14.339095    28.378744    18.847016    14.344264 
   83000    298.55032    1.2509986    1983.8244    -1222.808   -211.49952    2073.5987   -2309.2494   -647.43402    44657.537 -0.067234084   -17.036218 -0.041707817    3442.2831    1510.7732    910.25546    865.60727    28.377759    18.845958    14.336511  0.010966531  0.010962084  0.011266943  0.011193122    298.55032     41.49527    35.978931    34.423473    90.016431    119.66323    90.107069    18.845906    14.336324    28.372379    18.849869    14.334993 
   84000    301.75653    1.2509986    1994.1709    -1222.179   -211.49952    2075.5004   -2309.5041    798.67333    44657.537 -0.067234084   -17.036218 -0.041707817    3450.3536    1475.5255    924.63061    894.55242    28.381249    18.844557    14.338049  0.011255998  0.011252938  0.012439891  0.012408985    301.75653     41.49527    35.978931    34.423473    90.016431    119.66323    90.107069    18.844955    14.337764    28.383153    18.849049    14.335399 
   85000     298.4675    1.2509986    2074.9386   -1240.5498   -211.49952    2072.4213   -2309.6212   -2111.0754    44657.537 -0.067234084   -17.036218 -0.041707817    3552.6883    1582.7629      935.637    877.87687    28.381705    18.846404    14.337253  0.011090122  0.011087148  0.012479555  0.012431419     298.4675     41.49527    35.978931    34.423473    90.016431    119.66323    90.107069    18.845836    14.336191    28.377565    18.846466    14.333499 
   86000     300.1582    1.2509986    1992.8147   -1232.4575   -211.49952    2073.6631   -2309.6258   -1589.4958    44657.537 -0.067234084   -17.036218 -0.041707817    3461.2349    1548.2863    925.49888    841.62622    28.379904    18.845967    14.337887  0.010813513  0.010808877  0.012119616  0.012095891     300.1582     41.49527    35.978931    34.423473    90.016431    119.66323    90.107069    18.847987    14.337019     28.38339    18.848354    14.336706 
   87000    300.77519    1.2509986    2064.3159    -1241.054   -211.49952    2070.8599   -2309.9522   -297.85468    44657.537 -0.067234084   -17.036218 -0.041707817    3544.4622     1592.225    926.05651    878.21092    28.379609    18.845736    14.337366  0.010706792  0.010706118  0.012981144   0.01293091    300.77519     41.49527    35.978931    34.423473    90.016431    119.66323    90.107069    18.845473    14.337826    28.378302     18.84204    14.339849 
   88000    303.88552    1.2509986     2011.196   -1191.6446   -211.49952    2072.4669   -2309.4375    817.71315    44657.537 -0.067234084   -17.036218 -0.041707817    3439.8112    1540.2971    892.31155    855.98462    28.382704    18.844749    14.337395  0.011062573  0.011059872  0.011760807  0.011681181    303.88552     41.49527    35.978931    34.423473    90.016431    119.66323    90.107069     18.84564    14.336329    28.375114    18.846007    14.332507 
   89000     298.0667    1.2509986     2014.617   -1239.6006   -211.49952    2071.8547   -2309.2646   -2689.9044    44657.537 -0.067234084   -17.036218 -0.041707817    3491.6276    1543.3854    912.62559    882.89232    28.380064    18.845447    14.337618  0.010840021  0.010837782  0.010674328  0.010671711     298.0667     41.49527    35.978931    34.423473    90.016431    119.66323    90.107069    18.844978    14.338466    28.381043    18.848409    14.339846 
   90000    299.12466    1.2509986     2078.636   -1214.1308   -211.49952    2074.4742   -2309.6671    1524.0236    44657.537 -0.067234084   -17.036218 -0.041707817    3527.9596    1556.4261      912.505    900.24043    28.381458    18.845709    14.337894  0.010481994  0.010481766  0.011705283   0.01168751    299.12466     41.49527    35.978931    34.423473    90.016431    119.66323    90.107069    18.845885    14.338077    28.377852    18.852109    14.341936 
   91000    298.83471    1.2509986    2007.8886   -1234.4058   -211.49952    2071.1139   -2309.7191   -985.23417    44657.537 -0.067234084   -17.036218 -0.041707817    3480.8996    1532.0661    924.54856    871.88255    28.378424    18.848059    14.336697   0.01165977  0.011658516  0.013331313  0.013260713    298.83471     41.49527    35.978931    34.423473    90.016431    119.66323    90.107069    18.847072     14.33788    28.371959    18.845778    14.341189 
   92000    294.48159    1.2509986    2061.2862   -1229.7176   -211.49952    2074.3973   -2308.9449   -986.61126    44657.537 -0.067234084   -17.036218 -0.041707817    3525.5515    1602.8932    912.61893    857.16898    28.380637    18.846688    14.337739  0.010941289   0.01093404  0.010832001  0.010715504    294.48159     41.49527    35.978931    34.423473    90.016431    119.66323    90.107069      18.8465    14.338229     28.38998    18.846333    14.338817 
   93000    300.84345    1.2509986    2005.1922   -1194.8578   -211.49952    2070.0682    -2309.467    881.67899    44657.537 -0.067234084   -17.036218 -0.041707817    3439.4488    1513.0304    903.74296    868.03699    28.380691    18.847033    14.338435  0.011138704  0.011130926  0.012672347  0.012601546    300.84345     41.49527    35.978931    34.423473    90.016431    119.66323    90.107069    18.848116    14.339666    28.383698    18.849152    14.346961 
   94000    294.11957    1.2509986    2045.9814   -1243.8625   -211.49952    2077.3641   -2308.9873   -1861.9851    44657.537 -0.067234084   -17.036218 -0.041707817    3521.4671    1592.1161    922.54666    863.39594    28.382328    18.845346    14.337321  0.011229849  0.011225747   0.01207045  0.012069331    294.11957     41.49527    35.978931    34.423473    90.016431    119.66323    90.107069    18.846429     14.33791    28.378696    18.849518    14.339287 
   95000    294.77996    1.2509986    1945.7955   -1214.1497   -211.49952    2069.2584   -2309.7583   -538.58285    44657.537 -0.067234084   -17.036218 -0.041707817    3400.4452    1514.4156    901.03853    840.21459    28.377542    18.846085    14.336992  0.011005954   0.01100409   0.01292758  0.012922455    294.77996     41.49527    35.978931    34.423473    90.016431    119.66323    90.107069    18.847173    14.337972    28.379328     18.85102    14.340659 
   96000    301.91375    1.2509986     1936.422   -1210.1183   -211.49952    2070.8663   -2309.6965    416.25746    44657.537 -0.067234084   -17.036218 -0.041707817    3385.3705    1510.0423    912.10885    816.21488    28.379772      18.8461    14.338492  0.010738973  0.010734071  0.012534923  0.012479909    301.91375     41.49527    35.978931    34.423473    90.016431    119.66323    90.107069     18.84615    14.339152    28.377679    18.847007    14.346527 
   97000     295.9226    1.2509986    1876.9866   -1244.5107   -211.49952    2074.4601   -2309.4017   -1647.7242    44657.537 -0.067234084   -17.036218 -0.041707817    3356.4389    1493.3726    886.44716    829.41319    28.379785    18.845814    14.337504  0.010943201  0.010941212  0.011554203  0.011495638     295.9226     41.49527    35.978931    34.423473    90.016431    119.66323    90.107069    18.845445    14.336544     28.38197    18.845074    14.333537 
   98000    304.82808    1.2509986    1968.5452   -1224.2507   -211.49952    2073.4454   -2309.4634   -455.69879    44657.537 -0.067234084   -17.036218 -0.041707817    3428.8138    1542.2551    915.96531    825.57875    28.380647    18.846296    14.338214  0.010835115  0.010835003  0.010877026  0.010874396    304.82808     41.49527    35.978931    34.423473    90.016431    119.66323    90.107069    18.846247    14.337615    28.379585    18.847554    14.338931 
   99000    292.80956    1.2509986    1923.0809   -1233.6792   -211.49952    2071.6945   -2309.7594   -521.93427    44657.537 -0.067234084   -17.036218 -0.041707817     3394.825    1490.3065    908.22984    849.47593     28.37955    18.845765    14.337221  0.011171853  0.011170746  0.012514133  0.012349228    292.80956     41.49527    35.978931    34.423473    90.016431    119.66323    90.107069    18.845165    14.337609    28.392393    18.848828    14.339959 
  100000    304.98093    1.2509986    1950.2388   -1247.2698   -211.49952    2074.0158   -2309.5467   -628.34639    44657.537 -0.067234084   -17.036218 -0.041707817    3433.0394    1538.9588    881.88227    860.43443    28.380173    18.845488    14.337885   0.01095285  0.010948151  0.011593457    0.0115916    304.98093     41.49527    35.978931    34.423473    90.016431    119.66323    90.107069    18.845577    14.338538    28.378906    18.849238    14.340814 
  101000    296.76913    1.2509986    2040.2128   -1230.6352   -211.49952    2071.8047   -2309.0951   -1153.0677    44657.537 -0.067234084   -17.036218 -0.041707817    3508.1384    1520.4584    933.61083    897.78852    28.381614    18.846581    14.338708  0.011194954  0.011193043  0.012975667  0.012961375    296.76913     41.49527    35.978931    34.423473    90.016431    119.66323    90.107069    18.846639    14.338351    28.376832    18.846787    14.341021 
  102000     293.7322    1.2509986    1980.6647   -1243.0261   -211.49952    2073.4215   -2309.3016   -2380.5234    44657.537 -0.067234084   -17.036218 -0.041707817    3459.5709    1558.2341    880.40131    864.44839    28.379794    18.846343    14.336872  0.011135615  0.011129258  0.011947591  0.011890692     293.7322     41.49527    35.978931    34.423473    90.016431    119.66323    90.107069    18.847495    14.336528    28.385365    18.847318    14.335134 
  103000    297.77176    1.2509986     2031.943   -1226.3244   -211.49952    2073.2407   -2309.5299    637.47302    44657.537 -0.067234084   -17.036218 -0.041707817    3494.5566    1571.4415    917.13409    860.71876    28.378341    18.845708    14.337467  0.010666297  0.010657189  0.011100325  0.011060103    297.77176     41.49527    35.978931    34.423473    90.016431    119.66323    90.107069    18.845143    14.337663    28.377308     18.84633    14.344927 
  104000     305.0025    1.2509986     1990.542   -1235.5558   -211.49952    2073.7174   -2309.6017    -1349.787    44657.537 -0.067234084   -17.036218 -0.041707817    3461.9821    1547.1412    895.53781    866.19085    28.382426    18.846737    14.338493  0.011090067  0.011081618  0.012891127  0.012845752     305.0025     41.49527    35.978931    34.423473    90.016431    119.66323    90.107069    18.846282    14.338198    28.385692    18.846491    14.340809 
  105000    291.44915    1.2509986    2005.4491   -1206.6543   -211.49952    2070.8058   -2309.4871   -131.31666    44657.537 -0.067234084   -17.036218 -0.041707817    3450.7847    1508.8805    901.99432    883.07415    28.378639    18.845238    14.337855  0.011192002  0.011191556  0.012750686  0.012682132    291.44915     41.49527    35.978931    34.423473    90.016431    119.66323    90.107069    18.845831    14.338307    28.376812    18.841286     14.33849 
  106000    305.00631    1.2509986    2006.6778   -1233.9287   -211.49952    2074.1457   -2309.7127    -837.9412    44657.537 -0.067234084   -17.036218 -0.041707817    3476.1735    1552.0202    923.26771    853.45368    28.379419      18.8455    14.337698  0.010765838  0.010765517  0.010526443  0.010499814    305.00631     41.49527    35.978931    34.423473    90.016431    119.66323    90.107069     18.84563    14.337615    28.376955    18.844895    14.337935 
  107000     293.7751    1.2509986    1985.1215   -1229.4426   -211.49952    2071.3246   -2309.7664   -1303.6847    44657.537 -0.067234084   -17.036218 -0.041707817    3453.0059    1509.6652    909.03183     878.5076    28.378043     18.84464    14.337046   0.01138701  0.011386251  0.012688524  0.012623823     293.7751     41.49527    35.978931    34.423473    90.016431    119.66323    90.107069    18.845413    14.337794    28.387511    18.848057    14.340353 
  108000    296.05954    1.2509986    2027.9872   -1226.5705   -211.49952     2070.919   -2309.9106   -1709.1932    44657.537 -0.067234084   -17.036218 -0.041707817    3493.5493    1539.4071    945.60621    862.04833    28.381044    18.848108    14.337628  0.011003871  0.010999956  0.012372203  0.012341077    296.05954     41.49527    35.978931    34.423473    90.016431    119.66323    90.107069    18.848067    14.338183    28.379084    18.852602    14.343884 
  109000    308.86013    1.2509986    1943.5531   -1252.9922   -211.49952    2067.5701   -2309.8114   -1887.4581    44657.537 -0.067234084   -17.036218 -0.041707817    3438.7867    1538.3823    910.18306    844.10645    28.380988    18.844345     14.33774  0.010716409  0.010711474  0.010898235  0.010883207    308.86013     41.49527    35.978931    34.423473    90.016431    119.66323    90.107069    18.845027    14.338351     28.38165     18.84715    14.342317 
  110000    299.11768    1.2509986    2025.1546   -1229.8046   -211.49952    2073.6413   -2309.3339   -589.26537    44657.537 -0.067234084   -17.036218 -0.041707817    3490.6519    1542.9014    904.58947     883.8572    28.380575    18.845348    14.336932  0.010837116  0.010836092  0.011443768  0.011371718    299.11768     41.49527    35.978931    34.423473    90.016431    119.66323    90.107069    18.846201     14.33739    28.373512    18.845952    14.344751 
  111000    297.96435    1.2509986    2033.9674   -1205.4562   -211.49952    2070.8782    -2309.482    126.79552    44657.537 -0.067234084   -17.036218 -0.041707817    3478.0275    1528.9714    910.11843    885.72027    28.379371    18.847256    14.337199  0.011407276  0.011396448  0.012877296  0.012820065    297.96435     41.49527    35.978931    34.423473    90.016431    119.66323    90.107069     18.84857    14.336748    28.377459    18.855605    14.336577 
  112000    304.74446    1.2509986    1941.7827   -1213.1558   -211.49952    2068.7137   -2309.7054    802.15593    44657.537 -0.067234084   -17.036218 -0.041707817    3395.9301    1472.1144    948.47111    826.68234    28.377688    18.846617    14.337393  0.011026725  0.011023355  0.012130559   0.01200363    304.74446     41.49527    35.978931    34.423473    90.016431    119.66323    90.107069     18.84556    14.338455    28.373453    18.844132    14.347753 
  113000    301.88545    1.2509986    1937.1149   -1211.5064   -211.49952    2073.7189   -2309.4187     428.7805    44657.537 -0.067234084   -17.036218 -0.041707817    3384.3212    1493.6008    910.38706    833.95549    28.380942    18.844411     14.33688   0.01111436  0.011108965  0.011548765  0.011510526    301.88545     41.49527    35.978931    34.423473    90.016431    119.66323    90.107069    18.845263    14.338113    28.376272    18.845848    14.343814 
  114000     298.4743    1.2509986    1917.7538   -1215.2325   -211.49952    2072.9808   -2309.5164   -93.826156    44657.537 -0.067234084   -17.036218 -0.041707817    3369.5218    1524.4112    833.77666      864.365    28.380509    18.847297     14.33724  0.011080397  0.011078311  0.011864859  0.011833119     298.4743     41.49527    35.978931    34.423473    90.016431    119.66323    90.107069    18.847198    14.337219    28.384966    18.849723    14.341044 
  115000    300.01769    1.2509986    2035.1294   -1210.8591   -211.49952    2068.6792   -2310.0563    1016.0046    44657.537 -0.067234084   -17.036218 -0.041707817    3487.3655    1534.4631    920.52195    877.00838    28.381593    18.845499    14.337805  0.010885288  0.010875217  0.012504749  0.012495291    300.01769     41.49527    35.978931    34.423473    90.016431    119.66323    90.107069     18.84553    14.337959    28.381306    18.847037    14.338059 
  116000    298.49796    1.2509986    1948.0778   -1238.7202   -211.49952    2074.7421   -2309.4028   -1152.0057    44657.537 -0.067234084   -17.036218 -0.041707817    3421.4586    1520.7106    924.96577    834.36649    28.378399    18.844694    14.337204  0.011150894  0.011144635  0.012324882  0.012309556    298.49796     41.49527    35.978931    34.423473    90.016431    119.66323    90.107069     18.84572    14.336686    28.378675    18.846364    14.336894 
  117000    299.54705    1.2509986    2079.3445   -1215.9614   -211.49952    2074.7967   -2309.0533   -1123.8454    44657.537 -0.067234084   -17.036218 -0.041707817    3529.5625    1588.1297    929.20111    860.55628    28.379719    18.845814    14.337214  0.010828874  0.010828384  0.012007484  0.011947555    299.54705     41.49527    35.978931    34.423473    90.016431    119.66323    90.107069    18.846064    14.338176    28.373041    18.845273    14.341508 
  118000    292.82295    1.2509986    2030.2627   -1221.0942   -211.49952    2071.1964    -2309.534   -410.84988    44657.537 -0.067234084   -17.036218 -0.041707817    3489.6945    1562.1222    904.57831    868.49519    28.378922    18.846669    14.337501  0.010583216  0.010583087  0.011931202  0.011900481    292.82295     41.49527    35.978931    34.423473    90.016431    119.66323    90.107069    18.846392    14.338032    28.384807    18.847363    14.338978 
  119000    294.37271    1.2509986    2026.5356   -1218.3756   -211.49952     2072.033   -2309.5192    962.47381    44657.537 -0.067234084   -17.036218 -0.041707817    3482.3976    1547.9338    915.88136    865.96456    28.378438     18.84605     14.33695  0.010796261  0.010796005  0.011434211   0.01140764    294.37271     41.49527    35.978931    34.423473    90.016431    119.66323    90.107069    18.845911    14.338072    28.378327    18.845379    14.343081 
  120000    299.52525    1.2509986    1963.6635   -1241.4173   -211.49952    2074.5048   -2309.6775   -1104.3603    44657.537 -0.067234084   -17.036218 -0.041707817    3440.2535    1534.8508    913.21859    847.14496    28.379312    18.845338    14.338024  0.011298787  0.011295147  0.012268451  0.012188517    299.52525     41.49527    35.978931    34.423473    90.016431    119.66323    90.107069    18.845223    14.338146    28.385201    18.843101    14.336015 
  121000    302.12016    1.2509986     2015.973   -1219.1895   -211.49952    2078.4323   -2309.3549    735.92535    44657.537 -0.067234084   -17.036218 -0.041707817    3466.0852    1516.9555    945.89244    852.82433    28.379357    18.846783    14.338109  0.010757484  0.010754134  0.011669599  0.011640986    302.12016     41.49527    35.978931    34.423473    90.016431    119.66323    90.107069    18.846996    14.337863    28.375855    18.847738    14.343283 
  122000    302.31472    1.2509986    1901.8509   -1216.3132   -211.49952    2074.0991   -2309.5688    689.94595    44657.537 -0.067234084   -17.036218 -0.041707817    3353.6339    1490.7282    919.55019    804.74137    28.381123    18.846221    14.337928  0.010825973  0.010824965  0.011494582  0.011466398    302.31472     41.49527    35.978931    34.423473    90.016431    119.66323    90.107069    18.846216    14.336921    28.381531    18.844557    14.337534 
  123000    291.65938    1.2509986    2033.2731   -1247.6951   -211.49952    2073.8536   -2309.2138   -1385.8993    44657.537 -0.067234084   -17.036218 -0.041707817    3516.3284    1572.7512    930.32987    864.53867    28.379604    18.846977    14.337599  0.011133848  0.011133167  0.011514364  0.011486546    291.65938     41.49527    35.978931    34.423473    90.016431    119.66323    90.107069     18.84639    14.337262    28.381758    18.845445    14.336438 
  124000    297.50936    1.2509986    2097.0774   -1215.9034   -211.49952    2069.7307   -2309.4838   -464.87512    44657.537 -0.067234084   -17.036218 -0.041707817    3552.7338    1531.5005    925.26291    931.10964    28.379283    18.846351    14.337055  0.010890247  0.010889996  0.012602692  0.012560111    297.50936     41.49527    35.978931    34.423473    90.016431    119.66323    90.107069    18.846542    14.337406    28.384563    18.849983    14.343709 
  125000    297.79824    1.2509986    2053.5614   -1225.3789   -211.49952    2072.5693    -2309.394   -932.29149    44657.537 -0.067234084   -17.036218 -0.041707817    3515.7651     1553.717    926.47179    881.63623    28.378424    18.846687    14.336426  0.011306841  0.011306135  0.012375561  0.012346472    297.79824     41.49527    35.978931    34.423473    90.016431    119.66323    90.107069    18.845469    14.337297    28.375994    18.845068    14.338724 
  126000    295.99009    1.2509986    1995.4157   -1220.4819   -211.49952    2073.1769   -2309.6488    334.36448    44657.537 -0.067234084   -17.036218 -0.041707817    3452.3695    1544.7695    929.78886    832.74757    28.378123     18.84573    14.337103  0.010633684  0.010619208  0.011741775  0.011724965    295.99009     41.49527    35.978931    34.423473    90.016431    119.66323    90.107069    18.845462    14.337269    28.376539    18.847754    14.337165 
  127000    294.50441    1.2509986    1988.2541    -1230.976   -211.49952    2069.9223   -2309.2015    -2399.152    44657.537 -0.067234084   -17.036218 -0.041707817    3458.5094    1539.5793    925.61738    844.86299    28.377091    18.845715    14.337641  0.010563499  0.010556695  0.011924229  0.011867065    294.50441     41.49527    35.978931    34.423473    90.016431    119.66323    90.107069    18.845292    14.338563    28.374502    18.847162    14.344947 
  128000    297.55701    1.2509986    2035.0242   -1207.9388   -211.49952    2070.6523   -2309.3516   -916.99006    44657.537 -0.067234084   -17.036218 -0.041707817    3481.6624    1572.1079    921.68669    840.08176    28.379837    18.845955    14.337151  0.010547998  0.010546396  0.011358078  0.011327311    297.55701     41.49527    35.978931    34.423473    90.016431    119.66323    90.107069    18.845481     14.33669    28.379183     18.84741    14.334341 
  129000    299.88997    1.2509986    2002.8173   -1241.8515   -211.49952    2073.9709   -2309.4861   -202.00874    44657.537 -0.067234084   -17.036218 -0.041707817     3480.184    1537.9428    957.52044    837.89685    28.377499    18.844602    14.336761  0.011135926   0.01113575  0.011834192  0.011830916    299.88997     41.49527    35.978931    34.423473    90.016431    119.66323    90.107069    18.846518    14.337975    28.379779     18.84725    14.339983 
  130000    292.77151    1.2509986    1971.2815    -1245.934   -211.49952    2074.1902   -2309.5588   -1091.5694    44657.537 -0.067234084   -17.036218 -0.041707817    3452.5841    1515.6178    903.16448    879.74243    28.378628     18.84466    14.337203   0.01062174  0.010605954  0.011271166  0.011140959    292.77151     41.49527    35.978931    34.423473    90.016431    119.66323    90.107069    18.844857    14.335458    28.374182    18.846394    14.329919 
  131000    301.24395    1.2509986    1981.6359   -1238.4748   -211.49952    2073.3871   -2309.2802   -1425.2088    44657.537 -0.067234084   -17.036218 -0.041707817    3456.0038    1534.4212    900.41322    872.13544    28.378575    18.846044    14.336566  0.010662766   0.01065604  0.010735259  0.010713379    301.24395     41.49527    35.978931    34.423473    90.016431    119.66323    90.107069    18.847811    14.336444    28.379697     18.84701    14.335413 
  132000    301.44586    1.2509986     2037.292   -1213.8577   -211.49952    2066.7277    -2309.403   -1386.8104    44657.537 -0.067234084   -17.036218 -0.041707817     3493.825    1570.2661    883.94208    885.34927    28.382267    18.844436    14.337746   0.01081688  0.010791924  0.012264123  0.012178992    301.44586     41.49527    35.978931    34.423473    90.016431    119.66323    90.107069    18.845544    14.338672    28.387314    18.847204    14.344295 
  133000    301.29517    1.2509986    2004.5281   -1216.6453   -211.49952    2075.1741   -2309.5253    454.11626    44657.537 -0.067234084   -17.036218 -0.041707817    3455.5246    1505.7617     951.0963    850.02664    28.382123    18.845519    14.338091  0.010995315  0.010990651  0.010495288  0.010449492    301.29517     41.49527    35.978931    34.423473    90.016431    119.66323    90.107069    18.846387    14.337709    28.385298    18.851754    14.337332 
  134000     298.4951    1.2509986    2054.5881   -1236.1031   -211.49952    2065.7395    -2309.602   -2502.1256    44657.537 -0.067234084   -17.036218 -0.041707817    3534.5537    1622.0067    915.29655    851.03157    28.380346    18.845625     14.33787   0.01060342  0.010600474  0.010530574  0.010524869     298.4951     41.49527    35.978931    34.423473    90.016431    119.66323    90.107069    18.845655     14.33884    28.379237    18.851316    14.340186 
  135000    301.02769    1.2509986    2036.8318   -1220.1757   -211.49952    2074.8503   -2309.6173     550.2499    44657.537 -0.067234084   -17.036218 -0.041707817    3491.7745    1536.2302    920.40519    881.78305    28.378428    18.845544    14.337027  0.010948291  0.010948108  0.012200731  0.012181578    301.02769     41.49527    35.978931    34.423473    90.016431    119.66323    90.107069    18.846163    14.337691    28.381593    18.845233     14.33879 
  136000    298.96185    1.2509986    2026.7445   -1198.0892   -211.49952    2070.0889    -2309.964   -203.02946    44657.537 -0.067234084   -17.036218 -0.041707817    3464.7088    1509.8839    940.83764    868.49623    28.379176    18.846558    14.336959  0.010476495  0.010476117  0.010294669  0.010273336    298.96185     41.49527    35.978931    34.423473    90.016431    119.66323    90.107069    18.846433    14.338214    28.378881    18.848411    14.344167 
  137000     293.8358    1.2509986    1982.9633   -1243.4473   -211.49952    2073.5028   -2309.3732   -2045.3225    44657.537 -0.067234084   -17.036218 -0.041707817    3462.2809    1584.4068    900.34581    830.34081    28.380569    18.845312    14.337935  0.010921663  0.010918865  0.012132011  0.012108369     293.8358     41.49527    35.978931    34.423473    90.016431    119.66323    90.107069    18.844531    14.338003    28.376725    18.845318    14.338234 
  138000    293.66522    1.2509986    2002.5212    -1209.506   -211.49952     2072.352   -2309.2512    231.21948    44657.537 -0.067234084   -17.036218 -0.041707817    3448.9264    1545.6592     912.1834    840.44923    28.380318    18.846741    14.338173  0.010750253  0.010749427  0.011681086  0.011626448    293.66522     41.49527    35.978931    34.423473    90.016431    119.66323    90.107069    18.846254    14.338288    28.372564    18.846711    14.340308 
  139000    298.31638    1.2509986    1988.9825   -1223.9689   -211.49952    2073.0928   -2309.7664   -67.943806    44657.537 -0.067234084   -17.036218 -0.041707817     3449.625    1518.9858    940.24738    840.40553    28.380854    18.846429    14.337961  0.011190791  0.011188571  0.011450441  0.011407467    298.31638     41.49527    35.978931    34.423473    90.016431    119.66323    90.107069    18.846122    14.339048    28.373472    18.846574    14.339589 
  140000     300.0023    1.2509986    1907.4765   -1229.2028   -211.49952    2073.2433   -2309.5402   -836.16433    44657.537 -0.067234084   -17.036218 -0.041707817    3372.9763    1516.1487    898.27229    812.21206    28.382031    18.846669    14.338106  0.010850133   0.01084754  0.011772605  0.011710529     300.0023     41.49527    35.978931    34.423473    90.016431    119.66323    90.107069    18.847619    14.338441    28.374272    18.852602    14.344249 
  141000    302.42594    1.2509986     1995.256   -1244.1328   -211.49952    2072.0998   -2309.6131   -1259.8027    44657.537 -0.067234084   -17.036218 -0.041707817     3476.902    1521.9407    904.87735    891.76491     28.38097     18.84519    14.337791   0.01127557    0.0112713  0.011900077  0.011847295    302.42594     41.49527    35.978931    34.423473    90.016431    119.66323    90.107069    18.845278    14.338905    28.377379    18.844501      14.3449 
  142000     301.7466    1.2509986    1947.0902   -1226.9576   -211.49952    2074.4178   -2309.5719   -912.98442    44657.537 -0.067234084   -17.036218 -0.041707817    3409.2019     1537.406    888.04834    840.38352    28.377773    18.845934    14.337067   0.01080339   0.01079929    0.0120095  0.011987915     301.7466     41.49527    35.978931    34.423473    90.016431    119.66323    90.107069    18.847109    14.337168    28.375746    18.847632    14.341909 
  143000    292.64848    1.2509986    1997.8559   -1228.7533   -211.49952    2070.9661   -2309.3791   -1668.1689    44657.537 -0.067234084   -17.036218 -0.041707817    3465.0223    1534.1504    942.38113    842.68128    28.380072    18.846792    14.337723  0.011214598  0.011211432  0.011582944  0.011581677    292.64848     41.49527    35.978931    34.423473    90.016431    119.66323    90.107069    18.847755    14.338285    28.380458     18.84937    14.340209 
  144000    305.10341    1.2509986    2031.5598   -1207.7683   -211.49952    2068.3882   -2309.5567   -98.773679    44657.537 -0.067234084   -17.036218 -0.041707817    3480.4965     1527.505    927.58621    874.64095    28.380313    18.845222    14.337776   0.01151663  0.011516544  0.012511966  0.012490099    305.10341     41.49527    35.978931    34.423473    90.016431    119.66323    90.107069    18.846171    14.337892     28.37747    18.847724    14.335657 
  145000    299.50513    1.2509986    1902.0256   -1234.1053   -211.49952     2075.465   -2309.5892      19.8163    44657.537 -0.067234084   -17.036218 -0.041707817     3370.255    1500.3006    893.04028    829.00313    28.381735    18.846498    14.338067  0.010857678  0.010856518  0.012112482  0.012077286    299.50513     41.49527    35.978931    34.423473    90.016431    119.66323    90.107069    18.846604    14.338312    28.377941    18.843702    14.341733 
  146000    298.02283    1.2509986    2034.8368   -1195.8147   -211.49952    2071.0701   -2309.7972    1315.2316    44657.537 -0.067234084   -17.036218 -0.041707817    3469.3786    1528.4098    910.35589    877.99121    28.379373     18.84441    14.337887   0.01087458  0.010870534  0.012186509  0.012148609    298.02283     41.49527    35.978931    34.423473    90.016431    119.66323    90.107069    18.844277    14.338088    28.376466    18.844591    14.336673 
  147000    296.19791    1.2509986    1965.6156   -1218.2367   -211.49952    2071.6824   -2309.3677   -1218.2902    44657.537 -0.067234084   -17.036218 -0.041707817    3421.5376    1530.8684    917.63606     825.4135    28.379691    18.846154    14.337652  0.010524842  0.010523459   0.01131509   0.01128451    296.19791     41.49527    35.978931    34.423473    90.016431    119.66323    90.107069    18.845371    14.337799    28.382561    18.844435    14.338866 
  148000    298.91111    1.2509986    2017.5498   -1230.1845   -211.49952    2074.0627   -2309.3282   -839.66341    44657.537 -0.067234084   -17.036218 -0.041707817    3482.9998    1562.0967    908.41442    860.30676    28.379144    18.845172    14.337549   0.01094935  0.010948286  0.011215603  0.011210232    298.91111     41.49527    35.978931    34.423473    90.016431    119.66323    90.107069    18.846068     14.33781    28.378397     18.84706    14.339174 
  149000    296.80915    1.2509986    1984.1821   -1232.3244   -211.49952    2071.4721   -2309.5457    -1307.125    44657.537 -0.067234084   -17.036218 -0.041707817    3454.5802    1553.3651    902.81765    849.66346    28.380157    18.847375    14.337673  0.011359201  0.011357832  0.012714936  0.012669733    296.80915     41.49527    35.978931    34.423473    90.016431    119.66323    90.107069    18.845615    14.338296    28.383813    18.844145     14.34148 
  150000    296.72682    1.2509986    1996.0258   -1207.0376   -211.49952    2075.1158   -2309.5929    865.16433    44657.537 -0.067234084   -17.036218 -0.041707817    3437.5405    1516.1395    902.01905    868.34051    28.381027    18.845302    14.337496  0.011298299  0.011291851  0.011894523   0.01182373    296.72682     41.49527    35.978931    34.423473    90.016431    119.66323    90.107069    18.845338    14.337271    28.386032    18.845152    14.335902 
  151000    295.66489    1.2509986    2023.1898   -1242.1435   -211.49952    2074.0194    -2309.072   -3007.7715    44657.537 -0.067234084   -17.036218 -0.041707817    3500.3859    1582.2339    898.63387    864.02046    28.379139    18.846737     14.33686  0.011094706  0.011093214  0.013167899  0.013142756    295.66489     41.49527    35.978931    34.423473    90.016431    119.66323    90.107069    18.846904    14.336754    28.382491     18.84999    14.335691 
  152000    300.11256    1.2509986    1972.7496   -1237.6249   -211.49952    2070.2995   -2309.8317   -1306.3919    44657.537 -0.067234084   -17.036218 -0.041707817    3449.9067    1516.7902    938.98764    844.78432    28.381479    18.845695    14.338256  0.011205847  0.011203916  0.011709643  0.011679229    300.11256     41.49527    35.978931    34.423473    90.016431    119.66323    90.107069    18.845307    14.338198    28.379665    18.843654    14.340938 
  153000    304.39196    1.2509986    1962.0988   -1229.0986   -211.49952    2077.0762    -2309.652    -144.7147    44657.537 -0.067234084   -17.036218 -0.041707817    3423.7731    1530.1486    890.89871    849.95998    28.381065    18.846531    14.337677  0.010939634  0.010936506   0.01211813  0.012091635    304.39196     41.49527    35.978931    34.423473    90.016431    119.66323    90.107069    18.846808    14.338839    28.380621    18.848241    14.344615 
  154000    291.73643    1.2509986    2046.3505    -1211.129   -211.49952    2070.1946   -2309.5722    706.80495    44657.537 -0.067234084   -17.036218 -0.041707817    3496.8572    1557.6125    919.24063    864.19635    28.379665    18.845786    14.337836  0.011434612  0.011434431  0.011240342  0.011193566    291.73643     41.49527    35.978931    34.423473    90.016431    119.66323    90.107069    18.846182    14.337858    28.373044       18.847     14.33908 
  155000    290.07153    1.2509986      1980.86   -1239.6079   -211.49952    2070.8156   -2309.3259   -665.58227    44657.537 -0.067234084   -17.036218 -0.041707817    3458.9781    1525.4909    965.47015     827.5328    28.379563     18.84544    14.337174  0.010699039  0.010698455  0.010696343  0.010674621    290.07153     41.49527    35.978931    34.423473    90.016431    119.66323    90.107069    18.846223     14.33718    28.380756    18.846167    14.336148 
  156000    292.30902    1.2509986    2023.4251    -1209.058   -211.49952    2071.9185   -2309.4315    805.25097    44657.537 -0.067234084   -17.036218 -0.041707817    3469.9961    1526.5952    905.95888    886.12386    28.381143    18.846094     14.33802  0.011045317  0.011044857  0.012007573  0.011991908    292.30902     41.49527    35.978931    34.423473    90.016431    119.66323    90.107069    18.846706    14.337897    28.375792    18.849426    14.338487 
  157000    294.67815    1.2509986    1978.8631   -1223.9802   -211.49952     2075.277   -2308.9826    25.812759    44657.537 -0.067234084   -17.036218 -0.041707817    3436.5488    1501.7144    912.46708    866.90406    28.381003    18.846835    14.337701  0.011155403  0.011152034  0.011070585  0.011048935    294.67815     41.49527    35.978931    34.423473    90.016431    119.66323    90.107069    18.847536    14.338001    28.379494    18.846446    14.343519 
  158000    298.53203    1.2509986    2033.9026   -1195.1348   -211.49952    2072.0785    -2309.458    258.57369    44657.537 -0.067234084   -17.036218 -0.041707817    3466.4169    1543.9376     924.9106    847.10396    28.378849    18.845127    14.337074  0.010720044  0.010700622  0.011233758  0.011144176    298.53203     41.49527    35.978931    34.423473    90.016431    119.66323    90.107069    18.845164    14.336752    28.373784     18.84356    14.344788 
  159000    300.38194    1.2509986    1989.8285   -1211.9006   -211.49952    2075.5627   -2309.5537   -762.29144    44657.537 -0.067234084   -17.036218 -0.041707817    3435.7202    1563.2044    937.14698    798.93127    28.380945    18.846025    14.337454  0.011340488  0.011337111  0.012817035  0.012762985    300.38194     41.49527    35.978931    34.423473    90.016431    119.66323    90.107069    18.845626    14.337513    28.385349    18.844536    14.338966 
  160000    302.42139    1.2509986      2000.07   -1218.8749   -211.49952    2070.2717   -2309.7367    227.37449    44657.537 -0.067234084   -17.036218 -0.041707817      3458.41     1564.912    897.88003    846.05456    28.381873    18.845735    14.338299   0.01097692  0.010976835  0.011508494  0.011495005    302.42139     41.49527    35.978931    34.423473    90.016431    119.66323    90.107069    18.846005    14.337631    28.379207    18.850587    14.336338 
  161000    299.27987    1.2509986     1990.056   -1232.1538   -211.49952     2076.612   -2309.3849    1725.0925    44657.537 -0.067234084   -17.036218 -0.041707817    3454.9827    1511.1994    921.03339    873.34383    28.376427    18.846357    14.337107  0.010968519  0.010966887   0.01259717  0.012587923    299.27987     41.49527    35.978931    34.423473    90.016431    119.66323    90.107069    18.846436    14.338121    28.378415    18.850777    14.341837 
  162000    297.96494    1.2509986    2007.6622   -1221.9694   -211.49952    2073.4377   -2309.3265    121.72384    44657.537 -0.067234084   -17.036218 -0.041707817    3465.5203     1544.803    913.88255    855.84078    28.380731    18.846426    14.337446  0.010721423  0.010719733  0.012672634  0.012632592    297.96494     41.49527    35.978931    34.423473    90.016431    119.66323    90.107069    18.845439    14.337138    28.376518    18.844245    14.336797 
  163000    296.17656    1.2509986    1957.5908   -1246.9281   -211.49952    2071.8622   -2309.2444     -2239.91    44657.537 -0.067234084   -17.036218 -0.041707817    3441.9011    1551.4511    925.84399    819.72531    28.381764    18.846331    14.337653  0.011339299  0.011336772  0.011886527  0.011830345    296.17656     41.49527    35.978931    34.423473    90.016431    119.66323    90.107069    18.845185     14.33724    28.386836    18.847338    14.339016 
  164000    297.22579    1.2509986    1939.2302   -1248.0156   -211.49952    2074.2171   -2309.8224   -255.28476    44657.537 -0.067234084   -17.036218 -0.041707817    3422.8511    1589.6731    839.30295    846.94976    28.378477    18.845017    14.336992  0.010962105  0.010956004  0.011732462  0.011686761    297.22579     41.49527    35.978931    34.423473    90.016431    119.66323    90.107069    18.846916    14.336748    28.372826    18.849262    14.339058 
  165000    301.41737    1.2509986    2068.5564   -1192.5509   -211.49952    2072.9802   -2309.4481    1914.6179    44657.537 -0.067234084   -17.036218 -0.041707817    3497.5753    1522.5339    925.78413     895.1294    28.382083    18.845909    14.337551  0.010743785  0.010738167  0.012489674  0.012482454    301.41737     41.49527    35.978931    34.423473    90.016431    119.66323    90.107069    18.846227    14.338361     28.37872    18.850627     14.33766 
[...]
  961000    293.19409    1.2509986    2021.3984   -1213.5409   -211.49952      2075.56   -2309.3856   -907.41281    44657.537 -0.067234084   -17.036218 -0.041707817    3468.7649    1507.6489    936.46127    872.46428    28.378192    18.847264    14.337477   0.01089194   0.01088843  0.011160579  0.011133248    293.19409     41.49527    35.978931    34.423473    90.016431    119.66323    90.107069    18.846852    14.338319    28.380452    18.850974    14.344401 
  962000    299.19897    1.2509986    2039.2216   -1237.0501   -211.49952    2074.9819   -2309.1803    532.45251    44657.537 -0.067234084   -17.036218 -0.041707817    3510.4701    1566.6542    897.01424    886.70673    28.380607    18.845484    14.338008  0.010889745  0.010889073  0.011502773  0.011486013    299.19897     41.49527    35.978931    34.423473    90.016431    119.66323    90.107069    18.846305    14.337963    28.380796    18.847945    14.335885 
  963000    298.20908    1.2509986     2004.578   -1219.8607   -211.49952    2066.6625   -2309.7489   -1115.2971    44657.537 -0.067234084   -17.036218 -0.041707817     3467.525    1569.3107    923.85487    828.98494    28.378059    18.845143    14.336653  0.011131602  0.011127216   0.01341407  0.013354465    298.20908     41.49527    35.978931    34.423473    90.016431    119.66323    90.107069    18.845321    14.336754    28.382617    18.846405    14.333047 
  964000    302.95754    1.2509986    1992.6499   -1233.2709   -211.49952    2067.2815   -2309.8156    -2307.943    44657.537 -0.067234084   -17.036218 -0.041707817     3468.455    1568.2805    881.83878    868.50216    28.378502    18.844752    14.336624  0.011088994  0.011078174  0.011698664  0.011608343    302.95754     41.49527    35.978931    34.423473    90.016431    119.66323    90.107069    18.843215    14.336612    28.385794    18.842933    14.343438 
  965000    297.59224    1.2509986    2038.5793    -1227.818   -211.49952    2071.7211   -2309.5352   -536.42776    44657.537 -0.067234084   -17.036218 -0.041707817    3504.2114    1556.5096    950.63008    849.95646    28.378086    18.847802    14.336898  0.011252581  0.011250776  0.011951606  0.011878535    297.59224     41.49527    35.978931    34.423473    90.016431    119.66323    90.107069    18.845465    14.337667    28.372461    18.845173    14.342463 
  966000    301.93917    1.2509986    2066.8731   -1243.7035   -211.49952    2074.3934   -2309.6428   -1401.4273    44657.537 -0.067234084   -17.036218 -0.041707817    3545.8261    1562.3656    956.82303    872.56029    28.382219    18.845209    14.338386   0.01082736  0.010822122  0.011110618  0.011080946    301.93917     41.49527    35.978931    34.423473    90.016431    119.66323    90.107069    18.844277    14.337963    28.379165    18.844131    14.337254 
  967000    298.64875    1.2509986    1948.6996   -1242.2057   -211.49952    2069.6764   -2310.1919   -1159.3625    44657.537 -0.067234084   -17.036218 -0.041707817    3431.4208    1517.1761    926.56985    839.88125    28.382574    18.846128    14.338383  0.010988764  0.010987084  0.011937845  0.011919394    298.64875     41.49527    35.978931    34.423473    90.016431    119.66323    90.107069    18.846514     14.33864    28.382343    18.845745     14.33975 
  968000    299.58105    1.2509986    1934.5449   -1201.3242   -211.49952    2075.8497   -2309.0635    1060.4803    44657.537 -0.067234084   -17.036218 -0.041707817    3369.0829    1478.2959    875.21909     866.2892     28.38015    18.844508    14.337981  0.010726449  0.010722435  0.011535804  0.011513435    299.58105     41.49527    35.978931    34.423473    90.016431    119.66323    90.107069    18.844612    14.338437    28.381586    18.844809    14.340395 
  969000    294.83195    1.2509986    1933.5021   -1217.2594   -211.49952    2066.8258   -2309.7857   -821.36224    44657.537 -0.067234084   -17.036218 -0.041707817    3393.7215    1485.6997    905.86166    851.44169    28.379742    18.846612     14.33813  0.010775644  0.010773852  0.011699982   0.01168694    294.83195     41.49527    35.978931    34.423473    90.016431    119.66323    90.107069    18.845726    14.338122    28.382184     18.84659    14.339122 
  970000    298.18201    1.2509986    1929.3423    -1238.986   -211.49952    2074.2268   -2309.4372    265.13506    44657.537 -0.067234084   -17.036218 -0.041707817    3403.5387    1516.7245    899.70422    840.02158    28.380639    18.846532    14.338508  0.010789537  0.010788544  0.011266247  0.011247818    298.18201     41.49527    35.978931    34.423473    90.016431    119.66323    90.107069    18.846698    14.338558    28.380464    18.845118      14.3412 
  971000    300.61119    1.2509986    2003.2977    -1228.415   -211.49952    2075.6057   -2309.3605     -1463.82    44657.537 -0.067234084   -17.036218 -0.041707817    3465.4675    1551.1766    921.59395    842.96857    28.379138     18.84685    14.337013  0.011033517  0.011032169  0.012261153  0.012236588    300.61119     41.49527    35.978931    34.423473    90.016431    119.66323    90.107069    18.847307    14.338012    28.378813    18.853501    14.341606 
  972000    294.95919    1.2509986    1965.2886   -1197.9924   -211.49952    2074.8055   -2309.5977    1300.6344    44657.537 -0.067234084   -17.036218 -0.041707817    3398.0732    1478.3066    918.33353    852.07099    28.379936    18.845317    14.338336  0.011371052  0.011369182  0.012847967  0.012780148    294.95919     41.49527    35.978931    34.423473    90.016431    119.66323    90.107069    18.845878    14.338582    28.384944    18.844207    14.343601 
  973000     304.2267    1.2509986    1923.6069   -1211.4777   -211.49952    2067.8308   -2309.6778    330.30122    44657.537 -0.067234084   -17.036218 -0.041707817    3376.9317    1492.7237    891.10681    845.78342    28.381014    18.846613    14.338805  0.010452286  0.010451088  0.011568315   0.01149158     304.2267     41.49527    35.978931    34.423473    90.016431    119.66323    90.107069    18.845342    14.337236    28.376183     18.84793    14.331627 
  974000    301.54006    1.2509986     1964.422   -1219.7363   -211.49952    2072.1588   -2309.4398    1451.8861    44657.537 -0.067234084   -17.036218 -0.041707817    3421.4392     1523.615    913.36356    840.08174    28.381652    18.844351    14.337681   0.01096534   0.01096197   0.01191099  0.011880905    301.54006     41.49527    35.978931    34.423473    90.016431    119.66323    90.107069    18.845524    14.337513    28.383011    18.846515    14.336187 
  975000    298.39561    1.2509986    1987.8531   -1214.6902   -211.49952     2074.966   -2309.6915    247.00794    44657.537 -0.067234084   -17.036218 -0.041707817    3437.2689    1490.1289     928.9367    864.25507    28.377871    18.845185    14.336476  0.010803969  0.010799271  0.012239354  0.012180081    298.39561     41.49527    35.978931    34.423473    90.016431    119.66323    90.107069     18.84551    14.336236    28.375788    18.843568    14.335711 
  976000    291.31719    1.2509986    1975.5494   -1210.3705   -211.49952    2070.0948     -2309.79    -951.7243    44657.537 -0.067234084   -17.036218 -0.041707817    3425.6151    1507.7377    914.72604    856.81787    28.381157    18.845788    14.337714  0.010895608  0.010887979  0.011460175  0.011368441    291.31719     41.49527    35.978931    34.423473    90.016431    119.66323    90.107069    18.845094    14.337049    28.387351    18.845767    14.335117 
  977000    298.97182    1.2509986    2047.2225   -1229.9231   -211.49952    2073.6486   -2309.3897    940.77763    44657.537 -0.067234084   -17.036218 -0.041707817    3512.8867    1531.8755    957.08927    874.87746    28.379362     18.84621    14.336783  0.011220364  0.011218864  0.012595244  0.012548931    298.97182     41.49527    35.978931    34.423473    90.016431    119.66323    90.107069    18.846644    14.336635    28.376298    18.845632    14.334712 
  978000    301.50048    1.2509986    2051.2828   -1211.2799   -211.49952    2076.0024   -2309.5056    524.95354    44657.537 -0.067234084   -17.036218 -0.041707817    3496.0659    1539.6602    927.10852    874.60743    28.379479    18.846716     14.33766  0.011277626  0.011265641  0.012199984  0.012191941    301.50048     41.49527    35.978931    34.423473    90.016431    119.66323    90.107069    18.847389    14.337292    28.381819    18.850688    14.339983 
  979000    299.59906    1.2509986     1943.167   -1215.9019   -211.49952    2073.0183    -2309.392   -77.675698    44657.537 -0.067234084   -17.036218 -0.041707817    3395.4425    1510.1512    923.32022    819.15415     28.37897    18.846352    14.337073  0.010522785  0.010520771  0.011708157  0.011678389    299.59906     41.49527    35.978931    34.423473    90.016431    119.66323    90.107069    18.846269    14.337089    28.376147    18.846033    14.336594 
  980000    302.72345    1.2509986    2056.2716   -1215.2227   -211.49952     2072.927   -2309.7066    119.60658    44657.537 -0.067234084   -17.036218 -0.041707817    3508.2739    1553.6898    931.23057    867.79679    28.379651    18.846213    14.337933  0.011234182   0.01123218  0.012344083  0.012289885    302.72345     41.49527    35.978931    34.423473    90.016431    119.66323    90.107069    18.845791    14.337045    28.377031     18.85038     14.33286 
  981000    294.95965    1.2509986    1941.2752   -1213.4234   -211.49952    2071.9362   -2309.0247    1176.6672    44657.537 -0.067234084   -17.036218 -0.041707817    3391.7871    1488.3295    912.13561     845.4716     28.37957    18.846407    14.337459  0.011009147  0.011008981  0.010865317  0.010831856    294.95965     41.49527    35.978931    34.423473    90.016431    119.66323    90.107069     18.84644    14.338047    28.383431    18.845381    14.341931 
  982000    292.03731    1.2509986    1986.3168   -1226.5228   -211.49952    2075.5868   -2309.3287   -1165.6668    44657.537 -0.067234084   -17.036218 -0.041707817    3446.5816    1549.1602    889.80028    859.15695    28.380546    18.845896    14.337787  0.010427417  0.010426287  0.010589593  0.010583637    292.03731     41.49527    35.978931    34.423473    90.016431    119.66323    90.107069    18.847207    14.337471     28.38026    18.848454    14.337369 
  983000    301.77588    1.2509986    2009.7878   -1209.1865   -211.49952    2071.4603   -2309.6183    103.41655    44657.537 -0.067234084   -17.036218 -0.041707817    3457.1323    1558.9791     924.1207     827.4886    28.378484    18.846491    14.336821  0.011277413  0.011274993  0.011938534  0.011885849    301.77588     41.49527    35.978931    34.423473    90.016431    119.66323    90.107069    18.845881    14.336938    28.378056    18.842099    14.338016 
  984000    298.42431    1.2509986    2018.9396   -1220.4993   -211.49952    2073.8694   -2309.7542    459.78244    44657.537 -0.067234084   -17.036218 -0.041707817    3475.3238    1520.4405    932.98767     870.3127    28.376702    18.846578     14.33691  0.010926338   0.01091904  0.011708914  0.011696759    298.42431     41.49527    35.978931    34.423473    90.016431    119.66323    90.107069     18.84657     14.33717    28.378069      18.8508     14.33704 
  985000    297.03379    1.2509986    1974.7141   -1228.2483   -211.49952    2074.5447   -2309.4545   -1118.2036    44657.537 -0.067234084   -17.036218 -0.041707817    3437.8722    1514.5105    884.69567     888.0113    28.379924     18.84582    14.337248  0.010894876  0.010891583  0.013632551  0.013606662    297.03379     41.49527    35.978931    34.423473    90.016431    119.66323    90.107069     18.84472    14.337361    28.378503    18.844343    14.337915 
  986000    294.68952    1.2509986    1984.3117   -1222.4831   -211.49952    2070.7863    -2309.867   -659.51286    44657.537 -0.067234084   -17.036218 -0.041707817    3445.8755    1552.8076    888.95643    854.30829    28.383173    18.845678    14.338294   0.01094799   0.01094155  0.011148986  0.011126226    294.68952     41.49527    35.978931    34.423473    90.016431    119.66323    90.107069    18.846396    14.338242    28.377277    18.844952    14.338601 
  987000    301.59628    1.2509986    2003.2936   -1226.6009   -211.49952    2074.2325   -2309.3913   -288.70758    44657.537 -0.067234084   -17.036218 -0.041707817    3465.0533    1540.7086    887.94467    880.70384    28.379918    18.844965    14.337753  0.010775711  0.010773074  0.012407633  0.012389039    301.59628     41.49527    35.978931    34.423473    90.016431    119.66323    90.107069    18.844628    14.337719    28.380989    18.845712    14.337262 
  988000    300.44993    1.2509986      2034.69   -1223.7982   -211.49952     2079.226   -2308.9312   -564.91988    44657.537 -0.067234084   -17.036218 -0.041707817    3488.1935    1563.4628    895.84972    874.26122    28.378201    18.846648    14.337256  0.010453663  0.010453303  0.011481379  0.011455079    300.44993     41.49527    35.978931    34.423473    90.016431    119.66323    90.107069    18.846258    14.337806     28.37535    18.846405    14.340982 
  989000    300.82777    1.2509986    2046.9949   -1210.8387   -211.49952    2072.8344   -2309.6063    408.08624    44657.537 -0.067234084   -17.036218 -0.041707817    3494.6055    1535.8991     903.8631    896.37398    28.380385    18.846646    14.337856  0.010685328  0.010684799  0.011304732  0.011272614    300.82777     41.49527    35.978931    34.423473    90.016431    119.66323    90.107069    18.845793    14.338153    28.379182    18.847013    14.344927 
  990000    300.88732    1.2509986    2096.4067   -1227.3284   -211.49952    2074.1325   -2309.0606   -1273.9422    44657.537 -0.067234084   -17.036218 -0.041707817    3558.6632    1609.7647    936.32729    864.18923    28.380406    18.846374    14.337748   0.01137233  0.011371184   0.01140533  0.011383405    300.88732     41.49527    35.978931    34.423473    90.016431    119.66323    90.107069    18.845667    14.337176    28.381876    18.846647    14.336329 
  991000    292.04343    1.2509986    2053.8747   -1193.8384   -211.49952    2072.4875   -2309.8802    545.01159    44657.537 -0.067234084   -17.036218 -0.041707817    3485.1058    1549.3282    942.26669    841.25918    28.382309    18.845833    14.338136  0.011171023  0.011165835  0.012081592  0.012071319    292.04343     41.49527    35.978931    34.423473    90.016431    119.66323    90.107069    18.847447    14.337391    28.381829    18.847583    14.337888 
  992000    299.94767    1.2509986    2033.0617   -1213.3351   -211.49952    2068.8141   -2309.8531    42.019191    44657.537 -0.067234084   -17.036218 -0.041707817    3487.4358    1552.6513    923.56944    866.32593    28.380029    18.845768    14.337021   0.01154778  0.011544103  0.013736221  0.013709535    299.94767     41.49527    35.978931    34.423473    90.016431    119.66323    90.107069    18.847716    14.336747    28.379256    18.852045    14.335466 
  993000    292.01212    1.2509986    2062.6643   -1209.6914   -211.49952    2072.1522   -2309.7752   -86.455461    44657.537 -0.067234084   -17.036218 -0.041707817    3509.9787    1544.1234    922.20797    885.58266    28.379129    18.846284    14.336623  0.010470103  0.010469381   0.01158563  0.011574017    292.01212     41.49527    35.978931    34.423473    90.016431    119.66323    90.107069    18.846529    14.337278    28.382164    18.849219    14.337454 
  994000    294.39147    1.2509986    2052.6921    -1202.105   -211.49952    2073.3202   -2309.1717   -320.97233    44657.537 -0.067234084   -17.036218 -0.041707817    3490.6486     1526.122    925.47401    883.12081    28.379769    18.846742    14.338292  0.011024406  0.011021236  0.012642395  0.012628337    294.39147     41.49527    35.978931    34.423473    90.016431    119.66323    90.107069      18.8469    14.339191    28.375892     18.84853    14.340264 
  995000    293.72089    1.2509986    2090.0382   -1206.7572   -211.49952    2070.1224   -2309.5619    102.19875    44657.537 -0.067234084   -17.036218 -0.041707817    3536.2349    1542.3537    955.61895    883.81226    28.380785     18.84567    14.337476  0.011179017  0.011171442  0.012872493  0.012783555    293.72089     41.49527    35.978931    34.423473    90.016431    119.66323    90.107069     18.84745    14.338396     28.38792    18.847508    14.343728 
  996000    299.61793    1.2509986    1983.2991   -1237.5823   -211.49952    2070.5459    -2309.506    -1765.295    44657.537 -0.067234084   -17.036218 -0.041707817    3459.8415    1557.2029    907.70915    844.31347    28.381829    18.844946    14.337777  0.010690916  0.010687435  0.011298826  0.011279185    299.61793     41.49527    35.978931    34.423473    90.016431    119.66323    90.107069    18.844935    14.337875    28.381548    18.845054    14.339655 
  997000    296.93727    1.2509986    2029.3433   -1208.8639   -211.49952    2073.3991   -2309.3282    277.48741    44657.537 -0.067234084   -17.036218 -0.041707817    3474.1362    1534.7175    941.59921    851.07133    28.381253     18.84689    14.337934  0.011399459  0.011398147  0.010941019   0.01090696    296.93727     41.49527    35.978931    34.423473    90.016431    119.66323    90.107069    18.846443    14.338068    28.381528    18.844386    14.336678 
  998000    293.71621    1.2509986    2017.7784   -1221.3365   -211.49952    2072.4431   -2309.8214   -1036.8122    44657.537 -0.067234084   -17.036218 -0.041707817    3476.4932    1519.7178     951.8425    858.59459    28.378042    18.845473    14.337537  0.010673877    0.0106706   0.01193579  0.011910917    293.71621     41.49527    35.978931    34.423473    90.016431    119.66323    90.107069     18.84634    14.337089    28.377562    18.847193    14.335445 
  999000    295.74603    1.2509986    1967.3626   -1250.1509   -211.49952    2070.8043   -2309.4238   -2042.3118    44657.537 -0.067234084   -17.036218 -0.041707817    3456.1331    1534.9479    910.92411    856.42584    28.378071    18.846565    14.336682  0.010947069  0.010941497  0.011952352  0.011948775    295.74603     41.49527    35.978931    34.423473    90.016431    119.66323    90.107069    18.845321    14.336767    28.379255    18.847441    14.340645 
 1000000    292.08327    1.2509986    2020.3151   -1218.7058   -211.49952    2070.2661   -2309.7142   -159.51344    44657.537 -0.067234084   -17.036218 -0.041707817     3478.469    1550.5481     912.2826    861.40793    28.380665    18.846046     14.33817  0.010562826  0.010559715  0.011301621  0.011279155    292.08327     41.49527    35.978931    34.423473    90.016431    119.66323    90.107069    18.845641    14.337991    28.382486    18.847434    14.336263 
Loop time of 3016.08 on 60 procs for 1000000 steps with 4560 atoms

Pair  time (%) = 544.903 (18.0666)
Bond  time (%) = 59.2468 (1.96437)
Kspce time (%) = 1565.88 (51.9179)
Neigh time (%) = 10.3699 (0.343821)
Comm  time (%) = 573.889 (19.0277)
Outpt time (%) = 3.14001 (0.104109)
Other time (%) = 258.645 (8.57556)

Nlocal:    76 ave 84 max 68 min
Histogram: 1 4 4 10 12 11 7 5 2 4
Nghost:    3986.63 ave 4075 max 3885 min
Histogram: 7 4 6 3 2 6 8 12 9 3
Neighs:    28100.4 ave 31293 max 25337 min
Histogram: 4 2 7 12 14 4 8 4 1 4

Total # of neighbors = 1686025
Ave neighs/atom = 369.742
Ave special neighs/atom = 10.6316
Neighbor list builds = 4699
Dangerous builds = 0
System init for write_data ...
PPPM initialization ...
  G vector (1/distance) = 0.246499
  grid = 16 16 20
  stencil order = 5
  estimated absolute RMS force accuracy = 0.00242397
  estimated relative force accuracy = 7.2997e-06
  using double precision FFTs
  3d grid and FFT values/proc = 1053 112
