LAMMPS data file via write_data, version 15 May 2015, timestep = 18500000

2593 atoms
6 atom types
1728 bonds
4 bond types
864 angles
3 angle types
0 dihedrals
3 dihedral types
0 impropers
1 improper types

-1.4868413986392550e+01 1.4868413986392550e+01 xlo xhi
-1.4868413986392550e+01 1.4868413986392550e+01 ylo yhi
-1.4868413986392550e+01 1.4868413986392550e+01 zlo zhi

Masses

1 15.9994
2 1.00794
3 12.0107
4 1.00794
5 12.0107
6 12.0107

Bond Coeffs # harmonic

1 1000 1
2 469 1.4
3 367 1.08
4 469 0.7

Angle Coeffs # harmonic

1 100 109.47
2 35 120
3 63 120

Dihedral Coeffs # opls

1 0 7.25 0 0
2 0 7.25 0 0
3 0 7.25 0 0

Improper Coeffs # cvff

1 2.5 -1 2

Atoms # full

2332 778 1 -8.1999999999999995e-01 -1.2941156761367884e+01 -1.0416701005951804e+01 -1.2111298719905147e+01 7 1 11
1102 368 1 -8.1999999999999995e-01 -1.2691375470763800e+01 -1.2635482695624944e+01 -1.4480117788790611e+01 5 3 12
1198 400 1 -8.1999999999999995e-01 -1.3624163408338841e+01 -7.8733762209787113e+00 -7.8798961293944672e+00 6 3 10
239 80 2 4.0999999999999998e-01 -8.4634232912967562e+00 -7.8166481776308032e+00 -9.9257479071925765e+00 4 1 12
1199 400 2 4.0999999999999998e-01 -1.3379176478536031e+01 -6.9610037080933660e+00 -8.2077548260543889e+00 6 3 10
1200 400 2 4.0999999999999998e-01 -1.3042379942686821e+01 -8.5545686931897755e+00 -8.3242364807588185e+00 6 3 10
238 80 1 -8.1999999999999995e-01 -8.2569513895468845e+00 -8.7039990162706236e+00 -9.5135448660331683e+00 4 1 12
2478 826 2 4.0999999999999998e-01 -1.2333230238236254e+01 -1.2691603382796925e+01 -9.2082338500951195e+00 12 3 17
94 32 1 -8.1999999999999995e-01 -1.0280979616264386e+01 -1.1738966588163978e+01 -1.2845668853304714e+01 4 3 13
2476 826 1 -8.1999999999999995e-01 -1.2264576595768219e+01 -1.2009656666310917e+01 -9.9363607575869484e+00 12 3 17
240 80 2 4.0999999999999998e-01 -7.7804502882662598e+00 -9.2780374860421198e+00 -1.0179397713319243e+01 4 1 12
2477 826 2 4.0999999999999998e-01 -1.2516507631315847e+01 -1.2427512958196067e+01 -1.0809206916917438e+01 12 3 17
1642 548 1 -8.1999999999999995e-01 -1.1546965550794294e+01 -9.4625074591665772e+00 -8.9740715813198264e+00 2 0 12
1643 548 2 4.0999999999999998e-01 -1.0729958149951392e+01 -9.2260303162713608e+00 -9.4999146936988126e+00 2 0 12
2015 672 2 4.0999999999999998e-01 -7.5135015502601572e+00 -7.6742381352465170e+00 -1.3557019438954617e+01 8 0 11
2333 778 2 4.0999999999999998e-01 -1.3528655762471086e+01 -9.6140177494548951e+00 -1.2008936641323777e+01 7 1 11
1300 434 1 -8.1999999999999995e-01 -1.2588187727819559e+01 -6.5718957600540122e+00 -1.2630967722168688e+01 3 -2 8
96 32 2 4.0999999999999998e-01 -1.0451559077156269e+01 -1.0800447385589255e+01 -1.2545639160365166e+01 4 3 13
1644 548 2 4.0999999999999998e-01 -1.1761245322002800e+01 -1.0429983875966611e+01 -9.1082619959305866e+00 2 0 12
684 228 2 4.0999999999999998e-01 -1.3884967097918409e+01 -1.3917346005665554e+01 -1.2342759584490677e+01 10 -3 8
605 202 2 4.0999999999999998e-01 -1.1405682536526022e+01 -9.5340522252372573e+00 -1.1989655958449799e+01 2 4 14
2334 778 2 4.0999999999999998e-01 -1.2820485375594346e+01 -1.0857052010005747e+01 -1.1221656681111540e+01 7 1 11
604 202 1 -8.1999999999999995e-01 -1.0788448280351613e+01 -8.7496945736718388e+00 -1.2050799178660567e+01 2 4 14
1224 408 2 4.0999999999999998e-01 -1.4535306063582505e+01 -1.1793301245576876e+01 -1.2466492921291172e+01 7 7 9
95 32 2 4.0999999999999998e-01 -9.2951586227889162e+00 -1.1899157306656090e+01 -1.2894957947198870e+01 4 3 13
1103 368 2 4.0999999999999998e-01 -1.2406698236515460e+01 -1.2630872307617663e+01 -1.3521540115175801e+01 5 3 12
912 304 2 4.0999999999999998e-01 -7.5883279374228705e+00 -1.2440143049183433e+01 -1.1395482602207307e+01 -3 -6 12
1301 434 2 4.0999999999999998e-01 -1.3273132732653959e+01 -6.8029347213007920e+00 -1.1940022873504910e+01 3 -2 8
1302 434 2 4.0999999999999998e-01 -1.2444321461506345e+01 -5.5823720110825246e+00 -1.2639842574289400e+01 3 -2 8
910 304 1 -8.1999999999999995e-01 -7.7240934891969175e+00 -1.1758600752532503e+01 -1.2114510635128141e+01 -3 -6 12
1394 465 2 4.0999999999999998e-01 -7.6689445703062731e+00 -1.3389381366437217e+01 -8.9517477353660091e+00 10 2 9
465 155 2 4.0999999999999998e-01 -1.0705888767313748e+01 -5.2059747430284560e+00 -9.1730308531006379e+00 6 6 12
2407 803 1 -8.1999999999999995e-01 -1.2615556593188058e+01 -5.4745853875061297e+00 -8.9519262823471024e+00 6 1 4
525 175 2 4.0999999999999998e-01 -7.5487288681084586e+00 -6.5801447807510698e+00 -1.1731665797207892e+01 3 7 7
523 175 1 -8.1999999999999995e-01 -8.0550689477225710e+00 -6.1009272942075068e+00 -1.1014794957748073e+01 3 7 7
2408 803 2 4.0999999999999998e-01 -1.3409528959962671e+01 -5.2311918326649369e+00 -9.5089729076911560e+00 6 1 4
1311 437 2 4.0999999999999998e-01 -1.0235711086311740e+01 -1.3776283770884993e+01 -1.2972603666129421e+01 8 1 10
606 202 2 4.0999999999999998e-01 -1.1319493520659996e+01 -7.9204361797014711e+00 -1.2224738799240811e+01 2 4 14
1266 422 2 4.0999999999999998e-01 -9.5674816765929869e+00 -8.6672489551239362e+00 -1.3762237117977770e+01 1 1 6
464 155 2 4.0999999999999998e-01 -9.1867705656886081e+00 -5.2056937247969710e+00 -9.7719707785755361e+00 6 6 12
312 104 2 4.0999999999999998e-01 -1.2856450330072475e+01 -7.3554918213794771e+00 -1.4128634942367144e+01 0 6 17
683 228 2 4.0999999999999998e-01 -1.2714966274303775e+01 -1.4721612141304037e+01 -1.1536097810173242e+01 10 -3 8
1962 654 2 4.0999999999999998e-01 -8.4711688759664874e+00 -8.8889232243532454e+00 -7.6944624225258504e+00 4 0 16
682 228 1 -8.1999999999999995e-01 -1.3015734980431597e+01 -1.3823696204118864e+01 -1.1857374482425199e+01 10 -3 8
1526 509 2 4.0999999999999998e-01 -8.2343507620651124e+00 -5.0025283322327159e+00 -1.4570296116362190e+01 3 1 8
1309 437 1 -8.1999999999999995e-01 -9.8521059863604172e+00 -1.4652728245519913e+01 -1.3263508686091988e+01 8 1 10
1527 509 2 4.0999999999999998e-01 -8.4692167611748808e+00 -5.5292433530306582e+00 -1.3042599025447089e+01 3 1 8
1264 422 1 -8.1999999999999995e-01 -8.7736699263915288e+00 -8.7129558161232019e+00 -1.4368625835413852e+01 1 1 6
121 41 1 -8.1999999999999995e-01 -1.4424436443644632e+01 -8.1479058402768700e+00 -1.0801762301059251e+01 3 2 13
310 104 1 -8.1999999999999995e-01 -1.3397406532129013e+01 -7.8547571796766356e+00 -1.4805417064866500e+01 0 6 17
2537 846 2 4.0999999999999998e-01 -7.8532628763569070e+00 -1.4372120038847671e+01 -1.4397794049482641e+01 7 1 6
188 63 2 4.0999999999999998e-01 -9.1681728079678777e+00 -5.4631709126724211e+00 -7.4439705677782788e+00 2 -1 13
123 41 2 4.0999999999999998e-01 -1.4677351905837002e+01 -8.9210509247130112e+00 -1.0220200609733368e+01 3 2 13
463 155 1 -8.1999999999999995e-01 -9.7439072784995595e+00 -5.0365063362460720e+00 -8.9590084004681181e+00 6 6 12
2049 683 2 4.0999999999999998e-01 -4.6196276797783629e+00 -1.2734315676879227e+01 -8.4229396845733309e+00 6 2 12
349 117 1 -8.1999999999999995e-01 -2.1497132310267784e+00 -7.6283431588583417e+00 -1.0118508369194995e+01 6 -1 9
2236 746 1 -8.1999999999999995e-01 -2.6609222329138387e+00 -1.4776813823030807e+01 -8.9530879477856473e+00 2 -2 12
524 175 2 4.0999999999999998e-01 -7.4300704382362852e+00 -5.5127541009114758e+00 -1.0501606225536076e+01 3 7 7
2085 695 2 4.0999999999999998e-01 -6.0148878233587943e-01 -1.4552223914755618e+01 -1.3878595064252416e+01 1 -2 12
1692 564 2 4.0999999999999998e-01 -1.1120349165793613e+00 -9.4391285217622283e+00 -7.7560846588043049e+00 4 4 8
336 112 2 4.0999999999999998e-01 -4.2620466865175839e+00 -1.3851479888413209e+01 -1.2449587193764337e+01 3 -2 12
1377 459 2 4.0999999999999998e-01 -2.8076173149741948e+00 -1.0508344868378240e+01 -1.1394643187461668e+01 3 6 9
1890 630 2 4.0999999999999998e-01 -1.5137588418085759e+00 -7.7292293201235038e+00 -1.4567622269535443e+01 0 -1 8
911 304 2 4.0999999999999998e-01 -7.1629623175361337e+00 -1.0953813974077947e+01 -1.1921162325812045e+01 -3 -6 12
2237 746 2 4.0999999999999998e-01 -1.7319989456275664e+00 -1.4634303722732314e+01 -8.6114362215995399e+00 2 -2 12
940 314 1 -8.1999999999999995e-01 -2.8444580308023522e+00 -5.3527236516974597e+00 -1.1561481322262161e+01 1 -1 8
1570 524 1 -8.1999999999999995e-01 -5.6662647832977520e+00 -8.2288679023309470e+00 -7.9496573730853486e+00 2 3 7
1888 630 1 -8.1999999999999995e-01 -1.3891139064887099e+00 -8.5899569828922981e+00 -1.4074119427387309e+01 0 -1 8
1690 564 1 -8.1999999999999995e-01 -1.7597064841864398e+00 -1.0028457879525650e+01 -8.2389365693360155e+00 4 4 8
2014 672 1 -8.1999999999999995e-01 -6.6672871885673324e+00 -7.3601126802098022e+00 -1.3126694033833987e+01 8 0 11
752 251 2 4.0999999999999998e-01 -5.6776027701089919e+00 -1.0849181618277747e+01 -1.4174880996040784e+01 6 3 9
351 117 2 4.0999999999999998e-01 -2.5584193485880409e+00 -8.5409347087261072e+00 -1.0110171837330951e+01 6 -1 9
974 325 2 4.0999999999999998e-01 -3.8067193572109659e-01 -5.0256551673170016e+00 -1.2948394607690538e+01 2 6 15
1691 564 2 4.0999999999999998e-01 -1.5770432642469903e+00 -9.9898564251129471e+00 -9.2213202030884140e+00 4 4 8
408 136 2 4.0999999999999998e-01 -1.8824896382898544e+00 -1.2884175878470277e+01 -1.2739716727719852e+01 7 4 14
2449 817 1 -8.1999999999999995e-01 -3.6445872551605785e+00 -6.5116335298003243e+00 -8.2854185607549731e+00 1 -1 7
334 112 1 -8.1999999999999995e-01 -3.3920482599320501e+00 -1.3875787711418372e+01 -1.2941974604003320e+01 3 -2 12
406 136 1 -8.1999999999999995e-01 -1.1129339220342249e+00 -1.2255762038281452e+01 -1.2852913859286382e+01 7 4 14
692 231 2 4.0999999999999998e-01 -9.2260486235964301e-01 -1.0987457251581215e+01 -1.1592718460969282e+01 3 -2 9
751 251 1 -8.1999999999999995e-01 -4.7938969969333023e+00 -1.1289202197362540e+01 -1.4015571522712351e+01 6 3 9
335 112 2 4.0999999999999998e-01 -3.3673012771647244e+00 -1.4680237420810919e+01 -1.3535423644690065e+01 3 -2 12
2016 672 2 4.0999999999999998e-01 -5.9718533771826863e+00 -7.2099123402924281e+00 -1.3829364070383775e+01 8 0 11
51 17 2 4.0999999999999998e-01 -5.3793405640424865e+00 -9.8481225700028148e+00 -1.1379424034336493e+01 3 -1 12
2451 817 2 4.0999999999999998e-01 -4.4098973035776101e+00 -7.1055168970162104e+00 -8.5334842674050257e+00 1 -1 7
1375 459 1 -8.1999999999999995e-01 -3.7782806062698544e+00 -1.0741556625660206e+01 -1.1452596113065367e+01 3 6 9
407 136 2 4.0999999999999998e-01 -1.0416613825094778e+00 -1.1985626188317458e+01 -1.3813059889993816e+01 7 4 14
1393 465 1 -8.1999999999999995e-01 -7.4258265883667391e+00 -1.3562014123958333e+01 -9.9062240747979189e+00 10 2 9
1012 338 1 -8.1999999999999995e-01 -4.6589046274197798e+00 -1.3271638119801313e+01 -1.0127465290232397e+01 5 6 14
1395 465 2 4.0999999999999998e-01 -6.4390095308315445e+00 -1.3451383590833155e+01 -1.0024065198872776e+01 10 2 9
350 117 2 4.0999999999999998e-01 -2.6023091497005595e+00 -7.0542009676959685e+00 -9.4362685058775071e+00 6 -1 9
1013 338 2 4.0999999999999998e-01 -3.8380449367678331e+00 -1.3801585715490710e+01 -9.9146783443506514e+00 5 6 14
50 17 2 4.0999999999999998e-01 -6.4200699315863723e+00 -8.8800071978088795e+00 -1.2183217631028686e+01 3 -1 12
272 91 2 4.0999999999999998e-01 -1.0132542813149392e-01 -7.6938595382656541e+00 -1.0370644939819751e+01 6 1 11
942 314 2 4.0999999999999998e-01 -2.4911444650567489e+00 -6.2204066124859256e+00 -1.1211868253861605e+01 1 -1 8
1889 630 2 4.0999999999999998e-01 -1.6886194957973757e+00 -8.4773573586440296e+00 -1.3126727612021021e+01 0 -1 8
1571 524 2 4.0999999999999998e-01 -6.3014498570701321e+00 -8.5753778790777488e+00 -8.6398777664284481e+00 2 3 7
693 231 2 4.0999999999999998e-01 -4.7424816041812790e-01 -9.4552585073998223e+00 -1.1249509357464929e+01 3 -2 9
691 231 1 -8.1999999999999995e-01 -1.1415179978613885e+00 -1.0173922122366600e+01 -1.1054043080334001e+01 3 -2 9
49 17 1 -8.1999999999999995e-01 -6.3389107696533689e+00 -9.5847943512564164e+00 -1.1478503656386378e+01 3 -1 12
1014 338 2 4.0999999999999998e-01 -4.3955021951189348e+00 -1.2404095523803795e+01 -1.0549273941635734e+01 5 6 14
1376 459 2 4.0999999999999998e-01 -3.9386335241267716e+00 -1.1301248608018689e+01 -1.2265593857473824e+01 3 6 9
753 251 2 4.0999999999999998e-01 -4.5885875287992537e+00 -1.1908636591497404e+01 -1.4773253887732750e+01 6 3 9
378 126 2 4.0999999999999998e-01 -2.4508973008993689e+00 -4.9568201520538295e+00 -8.5842395853980307e+00 8 2 8
2450 817 2 4.0999999999999998e-01 -3.2271825700442935e+00 -6.8419156747630847e+00 -7.4388841165164665e+00 1 -1 7
2047 683 1 -8.1999999999999995e-01 -4.6730681570560524e+00 -1.2419304403044999e+01 -7.4753925700260275e+00 6 2 12
1120 374 1 -8.1999999999999995e-01 -1.1239539316556950e+01 -7.8338393543601788e+00 -5.9477002218986090e+00 4 4 17
1121 374 2 4.0999999999999998e-01 -1.1629303320685507e+01 -7.5698632122647940e+00 -6.8299326939058158e+00 4 4 17
1122 374 2 4.0999999999999998e-01 -1.0404320724434168e+01 -8.3629729145905998e+00 -6.0972364420703844e+00 4 4 17
1142 381 2 4.0999999999999998e-01 -1.1632645882035193e+01 -8.2782401608652236e+00 -4.2186685990016670e+00 7 -2 8
1154 385 2 4.0999999999999998e-01 -1.2335684532000377e+01 -1.1308014848994898e+01 -4.6154292326285162e+00 -1 2 12
1645 549 1 -8.1999999999999995e-01 -1.0178927046734694e+01 -1.3273626227982762e+01 -2.4531113022133653e+00 6 2 10
1141 381 1 -8.1999999999999995e-01 -1.2092346058725880e+01 -8.4812728839910569e+00 -3.3541531347066815e+00 7 -2 8
1290 430 2 4.0999999999999998e-01 -9.1516195643934815e+00 -8.9943683775107903e+00 -2.3791414852940651e+00 10 0 9
1143 381 2 4.0999999999999998e-01 -1.1425193492048566e+01 -8.8294024002744536e+00 -2.6956344902861815e+00 7 -2 8
2590 864 1 -8.1999999999999995e-01 -1.3403041028422832e+01 -1.3490319865518943e+01 -4.0837317539448375e+00 5 -1 14
1638 546 2 4.0999999999999998e-01 -1.3280702492712289e+01 -8.0138678342049587e+00 -1.2879189181572954e+00 5 5 14
984 328 2 4.0999999999999998e-01 -7.6437994819577977e+00 -1.0594714333993023e+01 -2.4321653521901574e+00 2 3 11
2046 682 2 4.0999999999999998e-01 -7.8548150198857574e+00 -8.9009459021398847e+00 -4.6004203244309156e+00 9 -3 8
1647 549 2 4.0999999999999998e-01 -1.1130715862828501e+01 -1.3569542815135836e+01 -2.5335163611299993e+00 6 2 10
983 328 2 4.0999999999999998e-01 -8.5694531574026804e+00 -1.1881863059399574e+01 -2.8231417925855880e+00 2 3 11
1275 425 2 4.0999999999999998e-01 -1.1748335147880750e+01 -1.3986302691750701e+01 -6.1867737402075811e+00 10 4 15
1636 546 1 -8.1999999999999995e-01 -1.2722300532417547e+01 -7.6096559649927409e+00 -5.6353397262155269e-01 5 5 14
2591 864 2 4.0999999999999998e-01 -1.3564484735018823e+01 -1.2765598738436793e+01 -3.4139192714845574e+00 5 -1 14
189 63 2 4.0999999999999998e-01 -8.0508785879400975e+00 -4.9691632585704255e+00 -6.3604303871531975e+00 2 -1 13
1759 587 1 -8.1999999999999995e-01 -1.3616499291383427e+01 -1.1465741488792890e+01 -2.1117759538667595e+00 7 1 11
2044 682 1 -8.1999999999999995e-01 -7.6918224847263126e+00 -9.3794166624944459e+00 -3.7376152011058057e+00 9 -3 8
1852 618 1 -8.1999999999999995e-01 -9.4431871677587935e+00 -1.1662754817865753e+01 -6.2147887167367557e+00 1 4 14
1153 385 1 -8.1999999999999995e-01 -1.2343559325111459e+01 -1.1058403540125395e+01 -5.5837089877634423e+00 -1 2 12
423 141 2 4.0999999999999998e-01 -1.0517999748010844e+01 -1.0535236234509064e+01 -9.4559828476319296e-01 5 -1 11
2372 791 2 4.0999999999999998e-01 -1.3559399659280139e+01 -7.9527756664411804e+00 -4.1537004450511414e+00 5 0 11
187 63 1 -8.1999999999999995e-01 -8.6419418287775116e+00 -5.7273092841935416e+00 -6.6357345635886045e+00 2 -1 13
1853 618 2 4.0999999999999998e-01 -8.9616255080242286e+00 -1.0833323437514220e+01 -6.4977648421287153e+00 1 4 14
1155 385 2 4.0999999999999998e-01 -1.3279996636601235e+01 -1.0851591645895411e+01 -5.8669889475020067e+00 -1 2 12
1289 430 2 4.0999999999999998e-01 -9.5239144155598900e+00 -9.0428816845204736e+00 -7.8996177391213074e-01 10 0 9
1854 618 2 4.0999999999999998e-01 -1.0293710579571883e+01 -1.1412908580437641e+01 -5.7520573504948995e+00 1 4 14
421 141 1 -8.1999999999999995e-01 -1.0875970459455347e+01 -1.1429333391920201e+01 -6.7656156958665470e-01 5 -1 11
1640 547 2 4.0999999999999998e-01 -1.0492008979054136e+01 -5.6955158104406891e+00 -5.1929011384941361e+00 7 7 4
1761 587 2 4.0999999999999998e-01 -1.2889799744813603e+01 -1.1717832972379110e+01 -1.4727992975200923e+00 7 1 11
2304 768 2 4.0999999999999998e-01 -8.1340104774039013e+00 -1.2839912812404258e+01 -6.7492375616948710e+00 7 2 10
1960 654 1 -8.1999999999999995e-01 -8.6173729162751460e+00 -8.7061575018793391e+00 -6.7222718012385627e+00 4 0 16
1961 654 2 4.0999999999999998e-01 -8.5709121067121750e+00 -7.7209247114770996e+00 -6.5576774795304278e+00 4 0 16
1760 587 2 4.0999999999999998e-01 -1.3781927964108217e+01 -1.0481088745526858e+01 -2.0567685926538246e+00 7 1 11
1492 498 1 -8.1999999999999995e-01 -7.9787599652199024e+00 -5.2753147016526487e+00 -3.4769749742023439e+00 6 -2 17
1274 425 2 4.0999999999999998e-01 -1.0473004919744096e+01 -1.3189935259889683e+01 -6.8237830838736180e+00 10 4 15
1288 430 1 -8.1999999999999995e-01 -9.8487382483182166e+00 -9.2555149362426654e+00 -1.7114877260051635e+00 10 0 9
1637 546 2 4.0999999999999998e-01 -1.1872093464226104e+01 -7.2578831516848803e+00 -9.5511713381149832e-01 5 5 14
1273 425 1 -8.1999999999999995e-01 -1.1065149831131432e+01 -1.3990319907431816e+01 -6.9169622046330481e+00 10 4 15
2302 768 1 -8.1999999999999995e-01 -7.4937188195048812e+00 -1.3590079090858211e+01 -6.9141942140077823e+00 7 2 10
2592 864 2 4.0999999999999998e-01 -1.4032967017206213e+01 -1.4248010909358051e+01 -3.9133466943114801e+00 5 -1 14
439 147 1 -8.1999999999999995e-01 -1.0615434875926484e+01 -5.8813206820991208e+00 -1.4534352443563812e+00 5 5 7
1843 615 1 -8.1999999999999995e-01 -1.4594927992416244e+01 -1.4732778534794667e+01 -6.7520471396055424e+00 5 4 8
982 328 1 -8.1999999999999995e-01 -7.8521232937658372e+00 -1.1547608565461518e+01 -2.2118764314174033e+00 2 3 11
440 147 2 4.0999999999999998e-01 -1.0176754151418940e+01 -5.4819450445683735e+00 -2.2584146263521152e+00 5 5 7
422 141 2 4.0999999999999998e-01 -1.0650394744692464e+01 -1.2103906079645327e+01 -1.3794134359717223e+00 5 -1 11
1646 549 2 4.0999999999999998e-01 -9.5829576401076473e+00 -1.3944190849796774e+01 -2.8948091619687748e+00 6 2 10
2371 791 1 -8.1999999999999995e-01 -1.4472364268960982e+01 -7.6829020456196533e+00 -4.4596372981338241e+00 5 0 11
2373 791 2 4.0999999999999998e-01 -1.4528272968961566e+01 -7.7650313107973830e+00 -5.4546561607864881e+00 5 0 11
1147 383 1 -8.1999999999999995e-01 -7.6968994747563713e+00 -5.0109024654956684e+00 -9.0996791569553359e-01 8 7 11
1148 383 2 4.0999999999999998e-01 -8.4543406528945759e+00 -5.4111541253868527e+00 -3.9420148463476323e-01 8 7 11
1149 383 2 4.0999999999999998e-01 -7.8296906470118426e+00 -5.1843452490823605e+00 -1.8857843283756885e+00 8 7 11
1336 446 1 -8.1999999999999995e-01 -1.4816402650379018e+01 -8.9285159071007705e+00 -2.0652264873682658e+00 3 6 9
2127 709 2 4.0999999999999998e-01 -1.3793273798940843e+01 -5.3175757654595088e+00 -3.4919938341124208e+00 6 1 12
441 147 2 4.0999999999999998e-01 -1.1141037544034740e+01 -5.1769787365656423e+00 -9.7638408510224117e-01 5 5 7
1845 615 2 4.0999999999999998e-01 -1.4208334039359103e+01 -1.4203365290451334e+01 -5.9969310903079567e+00 5 4 8
1542 514 2 4.0999999999999998e-01 -7.6949760862153562e+00 -1.1942819991651795e+01 -4.6592705945018054e-01 7 -2 13
1736 579 2 4.0999999999999998e-01 -1.4239099836147757e+01 -9.2689998840183936e+00 -7.1212348588647458e+00 4 1 12
1007 336 2 4.0999999999999998e-01 -3.3839746739523591e-01 -1.2304644336849536e+01 -4.7849119402425391e+00 2 1 11
1008 336 2 4.0999999999999998e-01 -1.5360837745336120e-01 -1.3183673489208012e+01 -3.4212367770748227e+00 2 1 11
1006 336 1 -8.1999999999999995e-01 -5.4084872958791941e-01 -1.2346101781132806e+01 -3.8065314890358373e+00 2 1 11
1493 498 2 4.0999999999999998e-01 -7.1787395517310841e+00 -5.4735253495240634e+00 -4.0432022946512962e+00 6 -2 17
2303 768 2 4.0999999999999998e-01 -7.1347552447357581e+00 -1.3919964225787201e+01 -6.0411223450432008e+00 7 2 10
2437 813 1 -8.1999999999999995e-01 -2.2844286986829339e+00 -1.4604608507037776e+01 -4.9905645391487834e+00 10 2 10
2038 680 1 -8.1999999999999995e-01 -1.1716674179265265e+00 -6.0027684804470081e+00 -6.2306015195809064e+00 8 2 7
1131 377 2 4.0999999999999998e-01 -6.8489896522048355e-01 -8.7100092973368763e+00 -3.3947904298802616e+00 8 4 8
1129 377 1 -8.1999999999999995e-01 -1.0696657173844670e+00 -9.3367442002177938e+00 -4.0723532849528699e+00 8 4 8
998 333 2 4.0999999999999998e-01 -5.5084714216254493e+00 -1.0671177582913970e+01 -5.2156739987908338e+00 7 -1 14
2039 680 2 4.0999999999999998e-01 -1.6107686131751464e+00 -5.1113522467757058e+00 -6.1187948999531514e+00 8 2 7
1173 391 2 4.0999999999999998e-01 -3.6294357618074358e+00 -8.5885741922993901e+00 -5.9490049398695763e+00 -1 -2 11
2438 813 2 4.0999999999999998e-01 -2.0778491732365012e+00 -1.3878185998036907e+01 -5.6459794808432431e+00 10 2 10
2045 682 2 4.0999999999999998e-01 -6.7242024201850015e+00 -9.3093454842837531e+00 -3.4952623428476723e+00 9 -3 8
148 50 1 -8.1999999999999995e-01 -3.0444760402447617e+00 -8.1492930323994344e+00 -1.5215778356215157e+00 2 0 8
2040 680 2 4.0999999999999998e-01 -1.8229018838353266e+00 -6.7261855888640412e+00 -6.0014840041585291e+00 8 2 7
1893 631 2 4.0999999999999998e-01 -2.7616075774353259e+00 -1.1909965121577427e+01 -4.5389986029278884e+00 5 3 13
9 3 2 4.0999999999999998e-01 -3.3799718078791194e+00 -1.3585653152971782e+01 -1.9974616663106328e+00 4 2 12
2461 821 1 -8.1999999999999995e-01 -3.7800266962498874e-01 -7.7822338694367623e+00 -1.2424436765433082e+00 3 3 8
1498 500 1 -8.1999999999999995e-01 -6.2153803127352312e+00 -1.3792444744027042e+01 -4.3925275996501103e+00 4 0 7
8 3 2 4.0999999999999998e-01 -1.8518307939428151e+00 -1.3503838105622608e+01 -2.5671461512766811e+00 4 2 12
2439 813 2 4.0999999999999998e-01 -3.0887190752814249e+00 -1.4350216528292108e+01 -4.4535959676274537e+00 10 2 10
1733 578 2 4.0999999999999998e-01 -5.3696297073910166e+00 -6.0933154273229579e+00 -6.4684284953752691e+00 7 -3 5
2379 793 2 4.0999999999999998e-01 -5.5963916593887397e-01 -7.3816505726903836e+00 -7.2133998087227003e+00 5 4 9
1572 524 2 4.0999999999999998e-01 -5.6987249126270676e+00 -8.8170529422442030e+00 -7.1416238693667999e+00 2 3 7
7 3 1 -8.1999999999999995e-01 -2.5419900273629459e+00 -1.4105088546502982e+01 -2.1645153944973252e+00 4 2 12
149 50 2 4.0999999999999998e-01 -2.0691505149954761e+00 -7.9496304086715925e+00 -1.4277242812097057e+00 2 0 8
2575 859 1 -8.1999999999999995e-01 -3.4001903236567887e+00 -5.5402094915857205e+00 -3.3320636605566651e+00 7 7 12
2576 859 2 4.0999999999999998e-01 -3.1816908072256211e+00 -6.1568337340152226e+00 -2.5757793080440265e+00 7 7 12
486 162 2 4.0999999999999998e-01 -1.6695989146955323e+00 -1.1575975978157818e+01 -6.9015430009251162e+00 -2 -5 15
150 50 2 4.0999999999999998e-01 -3.3359157096489938e+00 -8.7462524648812217e+00 -7.7415836776745728e-01 2 0 8
1499 500 2 4.0999999999999998e-01 -6.0724733294566313e+00 -1.3334314830861627e+01 -3.5152431021876342e+00 4 0 7
1078 360 1 -8.1999999999999995e-01 -4.7391784637575682e+00 -1.2368180176078063e+01 -2.0779437512943879e+00 6 2 12
1080 360 2 4.0999999999999998e-01 -4.0669338218101991e+00 -1.1884713911754950e+01 -2.6385514720287926e+00 6 2 12
1079 360 2 4.0999999999999998e-01 -5.3931238489169857e+00 -1.1711916877868081e+01 -1.7016361964762385e+00 6 2 12
2577 859 2 4.0999999999999998e-01 -4.2244050836700371e+00 -5.8626331886737955e+00 -3.7975166883018225e+00 7 7 12
1732 578 1 -8.1999999999999995e-01 -5.7296221340377311e+00 -5.6957617474268396e+00 -5.6244557144313490e+00 7 -3 5
1785 595 2 4.0999999999999998e-01 -4.5039708530184974e+00 -8.5555613950032576e+00 -2.6166495957264910e+00 8 2 7
1500 500 2 4.0999999999999998e-01 -5.6159706670368443e+00 -1.4590534487922188e+01 -4.4533084542219985e+00 4 0 7
1130 377 2 4.0999999999999998e-01 -3.5228120026625831e-01 -9.9483082550135382e+00 -4.4059433333727878e+00 8 4 8
1891 631 1 -8.1999999999999995e-01 -3.1002363261316788e+00 -1.1184790884693337e+01 -3.9395101391295579e+00 5 3 13
485 162 2 4.0999999999999998e-01 -3.1471088171761803e+00 -1.2270138965718873e+01 -6.9409311844945512e+00 -2 -5 15
2048 683 2 4.0999999999999998e-01 -5.4665047789191430e+00 -1.2834463180601398e+01 -7.0303813040233178e+00 6 2 12
484 162 1 -8.1999999999999995e-01 -2.2107084371713075e+00 -1.2361839040568277e+01 -6.6022884952194012e+00 -2 -5 15
1784 595 2 4.0999999999999998e-01 -4.1413518169724455e+00 -9.8099732005981810e+00 -3.5971635116621012e+00 8 2 7
1172 391 2 4.0999999999999998e-01 -2.0638044863297758e+00 -8.4092936197706187e+00 -5.5210955998084188e+00 -1 -2 11
1892 631 2 4.0999999999999998e-01 -2.3977854564182355e+00 -1.0480233774726070e+01 -3.8390336405957033e+00 5 3 13
1783 595 1 -8.1999999999999995e-01 -4.8850406800734447e+00 -9.2680382201251597e+00 -3.2057982135513026e+00 8 2 7
1171 391 1 -8.1999999999999995e-01 -2.7915997524041707e+00 -8.0690366829775755e+00 -6.1164717770737393e+00 -1 -2 11
2462 821 2 4.0999999999999998e-01 -1.6509513927840302e-01 -8.6159973593170633e+00 -7.3308883008149550e-01 3 3 8
999 333 2 4.0999999999999998e-01 -5.0354545708871790e+00 -1.0737021514251413e+01 -6.7772017042666413e+00 7 -1 14
997 333 1 -8.1999999999999995e-01 -5.3713246132079480e+00 -1.0137940968346985e+01 -6.0504091943212739e+00 7 -1 14
1 1 1 -8.1999999999999995e-01 -1.0568858186258003e+01 -1.2232732298244521e+01 1.8704973369036075e+00 -1 7 5
599 200 2 4.0999999999999998e-01 -1.3286153305414677e+01 -9.7412617513464710e+00 4.7445452490375359e+00 5 -2 8
1702 568 1 -8.1999999999999995e-01 -1.0742833694455053e+01 -1.4613927779905007e+01 3.0074216427348652e+00 4 -1 9
3 1 2 4.0999999999999998e-01 -1.0753624386547912e+01 -1.2040027234856240e+01 9.0682739577790805e-01 -1 7 5
2 1 2 4.0999999999999998e-01 -1.0739907647960319e+01 -1.1410671485684096e+01 2.4135365290436148e+00 -1 7 5
1186 396 1 -8.1999999999999995e-01 -1.2730723913531520e+01 -1.0838201741026460e+01 6.0197117367368200e+00 1 7 9
1704 568 2 4.0999999999999998e-01 -1.0765830083121392e+01 -1.3716034403041251e+01 2.5678852806832637e+00 4 -1 9
2202 734 2 4.0999999999999998e-01 -1.1057084044963416e+01 -7.5608662181863666e+00 2.0782819509568604e+00 6 -1 7
1188 396 2 4.0999999999999998e-01 -1.2497959894781328e+01 -1.1634380763929702e+01 6.5781501054467100e+00 1 7 9
1879 627 1 -8.1999999999999995e-01 -1.3088834112166735e+01 -1.0084161816566262e+01 6.8978869602416637e-01 8 -2 6
1881 627 2 4.0999999999999998e-01 -1.3074206925203445e+01 -9.1474480311177899e+00 3.4009340864726845e-01 8 -2 6
2200 734 1 -8.1999999999999995e-01 -1.2031233996535786e+01 -7.4341619411547066e+00 2.2651279666564363e+00 6 -1 7
647 216 2 4.0999999999999998e-01 -9.8711829943096170e+00 -9.2319794445651446e+00 4.3231775631841920e+00 -3 2 13
646 216 1 -8.1999999999999995e-01 -9.7446350998717524e+00 -9.9739356719023462e+00 3.6648311043531798e+00 -3 2 13
648 216 2 4.0999999999999998e-01 -8.8414013822076107e+00 -1.0383259127939668e+01 3.7935039453346775e+00 -3 2 13
1689 563 2 4.0999999999999998e-01 -9.3831454288501241e+00 -8.0228599577913897e+00 6.1485431169431699e+00 2 -1 15
1942 648 1 -8.1999999999999995e-01 -8.6819090496677198e+00 -6.5664301192432841e+00 1.3934252419473339e+00 4 2 12
598 200 1 -8.1999999999999995e-01 -1.3823951390425853e+01 -9.0085421221939619e+00 4.3276175901361427e+00 5 -2 8
1880 627 2 4.0999999999999998e-01 -1.2220048813261851e+01 -1.0532204136919814e+01 4.7906682736237549e-01 8 -2 6
600 200 2 4.0999999999999998e-01 -1.3284970389590930e+01 -8.5657835313329223e+00 3.6110997394437661e+00 5 -2 8
462 154 2 4.0999999999999998e-01 -1.1680257443201203e+01 -5.9379497179113461e+00 3.7574944015169436e+00 7 -1 12
835 279 1 -8.1999999999999995e-01 -1.4318917110615702e+01 -8.5922128486360450e+00 7.1476092977756309e+00 3 2 16
1687 563 1 -8.1999999999999995e-01 -1.0261191312622710e+01 -7.9110619104208126e+00 5.6832795699257304e+00 2 -1 15
1688 563 2 4.0999999999999998e-01 -1.0992571970412149e+01 -8.2755661607832600e+00 6.2596063209214670e+00 2 -1 15
1187 396 2 4.0999999999999998e-01 -1.2643086930101669e+01 -1.0007936102056856e+01 6.5700862887855749e+00 1 7 9
476 159 2 4.0999999999999998e-01 -7.7871929397084418e+00 -1.3372758124501495e+01 5.6439928467321998e+00 10 -4 7
836 279 2 4.0999999999999998e-01 -1.4225424096321992e+01 -8.7565845554877022e+00 6.1656854038894231e+00 3 2 16
461 154 2 4.0999999999999998e-01 -1.0514651681631889e+01 -6.4935262904406379e+00 4.7570677730060673e+00 7 -1 12
1540 514 1 -8.1999999999999995e-01 -7.5740970351693893e+00 -1.1750178034469984e+01 5.0783407753635146e-01 7 -2 13
1353 451 2 4.0999999999999998e-01 -9.2985051585615679e+00 -1.1218305124478913e+01 6.1721224033266253e+00 6 3 9
1351 451 1 -8.1999999999999995e-01 -9.0720306837913558e+00 -1.0698962282375579e+01 6.9960919592803990e+00 6 3 9
252 84 2 4.0999999999999998e-01 -8.0119873334665268e+00 -9.8087146976859554e+00 8.5184142342625968e-01 4 -2 13
251 84 2 4.0999999999999998e-01 -9.3547543003236591e+00 -9.6671894785107568e+00 1.7702077615487717e+00 4 -2 13
1352 451 2 4.0999999999999998e-01 -8.3775183576285581e+00 -1.0013493041965683e+01 6.7776472793526565e+00 6 3 9
1944 648 2 4.0999999999999998e-01 -8.6786341373892206e+00 -7.5431780717475920e+00 1.1792145183096707e+00 4 2 12
250 84 1 -8.1999999999999995e-01 -8.8492796716600388e+00 -9.2819686259926613e+00 9.9817548870304940e-01 4 -2 13
1480 494 1 -8.1999999999999995e-01 -1.1670749189428719e+01 -5.4158727767058679e+00 7.1067621931571061e+00 -3 -5 13
1623 541 2 4.0999999999999998e-01 -9.7054814672937653e+00 -1.4392211139176721e+01 4.5114309440996045e+00 6 4 5
1621 541 1 -8.1999999999999995e-01 -9.2737140252178722e+00 -1.4343641299462544e+01 5.4120703780688935e+00 6 4 5
928 310 1 -8.1999999999999995e-01 -7.7950727078173339e+00 -5.4655678946534767e+00 5.7274052506026933e+00 4 -5 11
1541 514 2 4.0999999999999998e-01 -8.1868700869669055e+00 -1.2332991989909862e+01 1.0414731064537559e+00 7 -2 13
460 154 1 -8.1999999999999995e-01 -1.0895169798954184e+01 -5.6786366087909919e+00 4.3199245004256959e+00 7 -1 12