LAMMPS data file via write_data, version 15 May 2015, timestep = 1009000

2593 atoms
6 atom types
1728 bonds
4 bond types
864 angles
3 angle types
0 dihedrals
3 dihedral types
0 impropers
1 improper types

-1.4947007132391416e+01 1.4947007132391416e+01 xlo xhi
-1.4947007132391416e+01 1.4947007132391416e+01 ylo yhi
-1.4947007132391416e+01 1.4947007132391416e+01 zlo zhi

Masses

1 15.9994
2 1.00794
3 12.0107
4 1.00794
5 12.0107
6 12.0107

Bond Coeffs # harmonic

1 1000 1
2 469 1.4
3 367 1.08
4 469 0.7

Angle Coeffs # harmonic

1 100 109.47
2 35 120
3 63 120

Dihedral Coeffs # opls

1 0 7.25 0 0
2 0 7.25 0 0
3 0 7.25 0 0

Improper Coeffs # cvff

1 2.5 -1 2

Atoms # full

2376 792 2 4.0999999999999998e-01 -8.4857652873073839e+00 -5.0850855618356103e+00 -1.4670213300759796e+01 1 2 3
415 139 1 -8.1999999999999995e-01 -1.1044784726884158e+01 -1.3943642721872061e+01 -1.1896753601317057e+01 0 2 3
926 309 2 4.0999999999999998e-01 -1.4484703666240579e+01 -5.3601767156408950e+00 -9.6861480254012164e+00 1 1 1
1668 556 2 4.0999999999999998e-01 -1.0904155434842048e+01 -9.1241208390571948e+00 -1.1776520056083523e+01 1 3 -1
625 209 1 -8.1999999999999995e-01 -1.0493246509359803e+01 -1.1501154379672210e+01 -1.2850808647329842e+01 1 1 1
417 139 2 4.0999999999999998e-01 -1.2006102436104872e+01 -1.3975309773656440e+01 -1.1623204556394354e+01 0 2 3
1667 556 2 4.0999999999999998e-01 -9.5692191326736165e+00 -9.9699096357568564e+00 -1.1365283156544340e+01 1 3 -1
1666 556 1 -8.1999999999999995e-01 -1.0010868826613262e+01 -9.0734387805435226e+00 -1.1329939739094671e+01 1 3 -1
2187 729 2 4.0999999999999998e-01 -1.3263505566919397e+01 -9.9967383907862875e+00 -1.1321677369843041e+01 2 0 1
2233 745 1 -8.1999999999999995e-01 -1.7892255427016224e-02 -8.4901130962804210e+00 -1.2066755275040407e+01 1 3 0
626 209 2 4.0999999999999998e-01 -1.1143250865353608e+01 -1.1470971908526291e+01 -1.3610115565368858e+01 1 1 1
1942 648 1 -8.1999999999999995e-01 -8.5976339943275732e+00 -1.4415504149028660e+01 -1.0662796263034073e+01 -1 1 1
2237 746 2 4.0999999999999998e-01 -4.2666430508594466e+00 -1.2803746304984218e+01 -8.6750463647446274e+00 0 0 0
72 24 2 4.0999999999999998e-01 -1.0015070067763570e+01 -1.2068418685653555e+01 -8.6838085340957427e+00 0 -1 1
2564 855 2 4.0999999999999998e-01 -9.9870293428442807e+00 -7.6096827261324735e+00 -1.0351824037162267e+01 1 2 4
70 24 1 -8.1999999999999995e-01 -9.1680907609535502e+00 -1.1691227318325023e+01 -8.3092203024732765e+00 0 -1 1
2563 855 1 -8.1999999999999995e-01 -1.0240399914173842e+01 -6.6797791311215811e+00 -1.0085278945051765e+01 1 2 4
627 209 2 4.0999999999999998e-01 -1.0641885493818737e+01 -1.2334032132089080e+01 -1.2317718839340692e+01 1 1 1
368 123 2 4.0999999999999998e-01 -7.5803401641712611e+00 -8.6235364003704156e+00 -8.2221806357347944e+00 1 -2 0
933 311 2 4.0999999999999998e-01 -1.3661161228284351e+01 -8.4586116312823822e+00 -1.2555561406926746e+01 0 1 2
230 77 2 4.0999999999999998e-01 -1.2196623825500797e+01 -7.9403340146152397e+00 -7.8312985009411387e+00 2 -1 0
71 24 2 4.0999999999999998e-01 -9.2725235339679006e+00 -1.0705722689573850e+01 -8.1756611656331728e+00 0 -1 1
2565 855 2 4.0999999999999998e-01 -1.0631381827055982e+01 -6.6916772443638575e+00 -9.1649772506218330e+00 1 2 4
931 311 1 -8.1999999999999995e-01 -1.2801676526628174e+01 -8.9696799762363941e+00 -1.2563230415294981e+01 0 1 2
1559 520 2 4.0999999999999998e-01 -8.7212558056135272e+00 -9.4208278632259574e+00 -1.3221585583204488e+01 1 4 3
616 206 1 -8.1999999999999995e-01 -1.0112655074607517e+01 -6.8256036503237620e+00 -1.3100908637277776e+01 -1 2 2
2190 730 2 4.0999999999999998e-01 -1.2929763379288287e+01 -9.8948231671715803e+00 -9.0839259455100585e+00 1 1 0
2185 729 1 -8.1999999999999995e-01 -1.3456249021742181e+01 -1.0745337831096448e+01 -1.0687317470117820e+01 2 0 1
2188 730 1 -8.1999999999999995e-01 -1.3231978124837813e+01 -9.3254091287273120e+00 -8.3194669686871769e+00 1 1 0
618 206 2 4.0999999999999998e-01 -1.0551952130106848e+01 -7.4683854893626700e+00 -1.2473363236424156e+01 -1 2 2
36 12 2 4.0999999999999998e-01 -1.2204379321342218e+01 -1.2020393624292440e+01 -9.6383222494866274e+00 0 2 1
35 12 2 4.0999999999999998e-01 -1.1274874371165330e+01 -1.3362984339635924e+01 -9.6379436929557798e+00 0 2 1
34 12 1 -8.1999999999999995e-01 -1.1623536641590347e+01 -1.2611159346914132e+01 -9.0783389957236782e+00 0 2 1
2236 746 1 -8.1999999999999995e-01 -4.6241514206656973e+00 -1.3190460889087269e+01 -7.8249856500375596e+00 0 0 0
667 223 1 -8.1999999999999995e-01 -1.2522941156047931e+01 -1.1262768416226688e+01 -1.4924605983331967e+01 -1 2 0
2027 676 2 4.0999999999999998e-01 -1.0471038848854679e+01 -8.4479409176899303e+00 -7.9460826321113531e+00 1 -1 0
1613 538 2 4.0999999999999998e-01 -7.4869365994042285e+00 -8.2903047514346166e+00 -1.4691507686402881e+01 1 2 0
756 252 2 4.0999999999999998e-01 -8.0928755269373909e-01 -8.4593823420235807e+00 -8.2171263810403836e+00 -1 2 2
2026 676 1 -8.1999999999999995e-01 -9.7309443046707376e+00 -9.1194270243230271e+00 -7.9096118648814580e+00 1 -1 0
416 139 2 4.0999999999999998e-01 -1.0824772543714328e+01 -1.4756452274998241e+01 -1.2436104034176395e+01 0 2 3
617 206 2 4.0999999999999998e-01 -1.0280481718348977e+01 -5.8897931630197764e+00 -1.2790978678227587e+01 -1 2 2
932 311 2 4.0999999999999998e-01 -1.2543596679072314e+01 -9.1736514962045312e+00 -1.3507557705091957e+01 0 1 2
1022 341 2 4.0999999999999998e-01 -1.4084263170902814e+01 -1.4494274853577069e+01 -1.0242172819271445e+01 0 1 2
755 252 2 4.0999999999999998e-01 -7.7672888907619075e-01 -9.9038432707766688e+00 -8.9780482170939564e+00 -1 2 2
1558 520 1 -8.1999999999999995e-01 -8.2500820047642751e+00 -1.0094937941838811e+01 -1.3790386493832537e+01 1 4 3
2040 680 2 4.0999999999999998e-01 -7.6992575557251373e+00 -1.2152390956873720e+01 -1.0007453505959834e+01 1 1 -1
2189 730 2 4.0999999999999998e-01 -1.4187207801084813e+01 -9.0632105617759180e+00 -8.4564042422818453e+00 1 1 0
2220 740 2 4.0999999999999998e-01 -1.3931038253891582e+01 -6.3444335355092871e+00 -1.1976429419421525e+01 1 1 3
2573 858 2 4.0999999999999998e-01 -1.0018460815105700e+01 -8.1927644960083672e+00 -1.4638795685465416e+01 0 2 1
367 123 1 -8.1999999999999995e-01 -6.9556509625265042e+00 -8.5455705064025906e+00 -8.9991287289610185e+00 1 -2 0
369 123 2 4.0999999999999998e-01 -6.9997149643236005e+00 -7.6181433805153764e+00 -9.3704788261180756e+00 1 -2 0
2255 752 2 4.0999999999999998e-01 -3.5722367070414851e+00 -1.3050898732195719e+01 -1.1053199070187542e+01 3 2 1
859 287 1 -8.1999999999999995e-01 -3.4313199786460107e+00 -1.1977687724140880e+01 -1.4853198310339021e+01 1 2 2
2023 675 1 -8.1999999999999995e-01 -5.4183530689104966e+00 -8.8450159891669546e+00 -1.1283869008351500e+01 1 0 2
1792 598 1 -8.1999999999999995e-01 -2.5875195210286250e+00 -7.2448391293143963e+00 -1.1749074341038018e+01 2 1 2
1944 648 2 4.0999999999999998e-01 -9.3445765730194950e+00 -1.4210021611074268e+01 -1.1295107383208606e+01 -1 1 1
2039 680 2 4.0999999999999998e-01 -7.2207330597371122e+00 -1.0592423539975975e+01 -9.9438496418128999e+00 1 1 -1
2256 752 2 4.0999999999999998e-01 -4.9198880363096720e+00 -1.2165306350460277e+01 -1.0796116394658320e+01 3 2 1
2254 752 1 -8.1999999999999995e-01 -4.0002417846892122e+00 -1.2368833296479895e+01 -1.0460272424505618e+01 3 2 1
1612 538 1 -8.1999999999999995e-01 -7.1775177476155312e+00 -7.3558564602831291e+00 -1.4867660998075582e+01 1 2 0
111 37 2 4.0999999999999998e-01 -1.1382970282983074e-01 -1.4333534948186745e+01 -9.0123102089175404e+00 2 1 2
1165 389 1 -8.1999999999999995e-01 -6.5085654331509346e+00 -6.1431349296447220e+00 -9.9573212322375557e+00 1 1 2
2186 729 2 4.0999999999999998e-01 -1.4345113203749383e+01 -1.1147561602242424e+01 -1.0906634850067862e+01 2 0 1
1794 598 2 4.0999999999999998e-01 -3.3601147423814162e+00 -7.8328423366684801e+00 -1.1509674114458360e+01 2 1 2
103 35 1 -8.1999999999999995e-01 -2.5249366178404902e+00 -1.3866202384198857e+01 -1.2915752091072758e+01 1 1 2
1167 389 2 4.0999999999999998e-01 -5.7848467039298797e+00 -5.5450085967915417e+00 -9.6131705197327619e+00 1 1 2
2402 801 2 4.0999999999999998e-01 -6.4746305963253956e+00 -1.0693526581322796e+01 -1.3910217275195171e+01 1 0 4
104 35 2 4.0999999999999998e-01 -2.8559845750721475e+00 -1.3187607006412110e+01 -1.3571403822774226e+01 1 1 2
109 37 1 -8.1999999999999995e-01 -1.0747291005059498e+00 -1.4153274740129250e+01 -8.8022096965036347e+00 2 1 2
2218 740 1 -8.1999999999999995e-01 -1.4727695870538957e+01 -6.8276567206604355e+00 -1.2339466078661875e+01 1 1 3
1124 375 2 4.0999999999999998e-01 -7.5883555814527437e+00 -1.3765938539738364e+01 -1.1915013606425314e+01 0 1 2
105 35 2 4.0999999999999998e-01 -1.5249627281500135e+00 -1.3865718314473700e+01 -1.2911801377629819e+01 1 1 2
861 287 2 4.0999999999999998e-01 -4.0035897752273542e+00 -1.1453826126799438e+01 -1.4222294252020717e+01 1 2 2
1793 598 2 4.0999999999999998e-01 -2.8984939812289809e+00 -6.5193799559048138e+00 -1.2363051122843554e+01 2 1 2
410 137 2 4.0999999999999998e-01 -5.3135000480811527e+00 -5.4625372396573262e+00 -1.3230746945491763e+01 2 2 2
2401 801 1 -8.1999999999999995e-01 -5.5460794459151899e+00 -1.0613776990222355e+01 -1.3547730855642286e+01 1 0 4
1932 644 2 4.0999999999999998e-01 -7.7751974681850839e+00 -1.3937739530942844e+01 -1.4088475971727103e+01 3 0 2
754 252 1 -8.1999999999999995e-01 -2.2787438705303487e-01 -9.1168349254139773e+00 -8.6963742012957059e+00 -1 2 2
229 77 1 -8.1999999999999995e-01 -1.1561867453113454e+01 -7.2056783245203686e+00 -7.5918637294942632e+00 2 -1 0
411 137 2 4.0999999999999998e-01 -6.3383485545229092e+00 -6.7335407377166359e+00 -1.3258407949606353e+01 2 2 2
1585 529 1 -8.1999999999999995e-01 -1.4639799720574835e+00 -1.1264601337484288e+01 -9.5954028613234286e+00 1 1 0
2403 801 2 4.0999999999999998e-01 -5.5687476019764155e+00 -1.0118985857936536e+01 -1.2679035546784805e+01 1 0 4
1587 529 2 4.0999999999999998e-01 -2.4307535316759434e+00 -1.1485487713158840e+01 -9.7239396883030107e+00 1 1 0
1166 389 2 4.0999999999999998e-01 -6.6634539930559082e+00 -5.9549468860702071e+00 -1.0927145141026772e+01 1 1 2
1930 644 1 -8.1999999999999995e-01 -8.1502273908900840e+00 -1.4300069529472289e+01 -1.4941724568534990e+01 3 0 2
2425 809 1 -8.1999999999999995e-01 -1.4731359846593504e+01 -1.3383760521515260e+01 -9.1058499069822432e+00 1 2 3
2427 809 2 4.0999999999999998e-01 -1.4417503758900992e+01 -1.3202024773054157e+01 -8.1739539310541911e+00 1 2 3
1586 529 2 4.0999999999999998e-01 -1.0089273641604173e+00 -1.2020872822799564e+01 -9.1253558506139925e+00 1 1 0
2147 716 2 4.0999999999999998e-01 -5.3171935795341998e+00 -8.2105319944700810e+00 -8.1521219720230533e+00 3 3 -1
1560 520 2 4.0999999999999998e-01 -8.7689742764669454e+00 -1.0949751959985097e+01 -1.3793112941028035e+01 1 4 3
1125 375 2 4.0999999999999998e-01 -6.3772295050432426e+00 -1.2763862426339774e+01 -1.2357220088766784e+01 0 1 2
409 137 1 -8.1999999999999995e-01 -5.7661893237843032e+00 -6.1586328098314169e+00 -1.2673533332024725e+01 2 2 2
2038 680 1 -8.1999999999999995e-01 -7.0757153253902167e+00 -1.1473205512872134e+01 -1.0394578605715289e+01 1 1 -1
2235 745 2 4.0999999999999998e-01 -9.6571539062443001e-01 -8.2487959616553539e+00 -1.1858522306510483e+01 1 3 0
2024 675 2 4.0999999999999998e-01 -5.3697961531824294e+00 -7.8608921158143090e+00 -1.1454473951832723e+01 1 0 2
2057 686 2 4.0999999999999998e-01 -1.8555271855931199e+00 -5.4896972551569689e+00 -1.0026542416682332e+01 0 2 3
1123 375 1 -8.1999999999999995e-01 -6.8300494670648888e+00 -1.3633612679725662e+01 -1.2553312391968328e+01 0 1 2
462 154 2 4.0999999999999998e-01 -1.0696360984020089e+01 -5.3164033114640841e+00 -1.0898592608008371e+01 1 -2 3
2025 675 2 4.0999999999999998e-01 -5.8675067560249357e+00 -9.0092900254579007e+00 -1.0405667077132392e+01 1 0 2
2238 746 2 4.0999999999999998e-01 -5.6172044997189090e+00 -1.3285676094109181e+01 -7.8938569451133240e+00 0 0 0
1943 648 2 4.0999999999999998e-01 -8.9697124629082445e+00 -1.4577964144105604e+01 -9.7489428770790720e+00 -1 1 1
110 37 2 4.0999999999999998e-01 -1.6427310353381372e+00 -1.4878425415669639e+01 -9.1914318957079519e+00 2 1 2
1409 470 2 4.0999999999999998e-01 -2.2789234092793009e-01 -1.1331668538395970e+01 -1.4883951804231858e+01 1 1 2
1149 383 2 4.0999999999999998e-01 -1.0244070430887279e+01 -1.4175498387717436e+01 -5.8472483520048470e+00 1 2 1
1147 383 1 -8.1999999999999995e-01 -1.0979562841208141e+01 -1.4210397295822244e+01 -6.5238550425821664e+00 1 2 1
1148 383 2 4.0999999999999998e-01 -1.0986678186650344e+01 -1.3361609980708874e+01 -7.0525071916016788e+00 1 2 1
2271 757 2 4.0999999999999998e-01 -1.4441500246337172e+01 -7.2455353904149469e+00 -5.4733955834858481e+00 1 2 2
713 238 2 4.0999999999999998e-01 -1.0491281500408222e+01 -1.3259662237299437e+01 -2.2799889855921602e+00 0 4 -1
609 203 2 4.0999999999999998e-01 -9.0970411006050949e+00 -9.0538028762028322e+00 -1.4764495248672329e+00 0 0 1
2269 757 1 -8.1999999999999995e-01 -1.3556522037909200e+01 -6.8063480173458686e+00 -5.3188263322910849e+00 1 2 2
712 238 1 -8.1999999999999995e-01 -1.0676523298676340e+01 -1.4181677704461590e+01 -1.9400822573987249e+00 0 4 -1
2469 823 2 4.0999999999999998e-01 -1.3143408534209472e+01 -1.0808984169082162e+01 -4.1559020456812892e+00 0 2 -1
781 261 1 -8.1999999999999995e-01 -1.0434736444363612e+01 -9.7817925131172831e+00 -4.4361400540202123e+00 0 3 1
783 261 2 4.0999999999999998e-01 -1.0702281903033072e+01 -1.0396187607266361e+01 -5.1783675911944407e+00 0 3 1
608 203 2 4.0999999999999998e-01 -1.0538916007283255e+01 -8.6620002506754084e+00 -2.1352491389113695e+00 0 0 1
2270 757 2 4.0999999999999998e-01 -1.3180439711508763e+01 -7.1129872383877357e+00 -4.4444705167530678e+00 1 2 2
607 203 1 -8.1999999999999995e-01 -1.0083890897586251e+01 -9.0178332881867789e+00 -1.3189779739276624e+00 0 0 1
782 261 2 4.0999999999999998e-01 -9.4762405680951929e+00 -9.5201256524453228e+00 -4.5491875140043039e+00 0 3 1
1463 488 2 4.0999999999999998e-01 -2.8181232841396309e-01 -7.6699794233812097e+00 -2.1521964122674948e+00 2 0 0
1156 386 1 -8.1999999999999995e-01 -1.0410350093495019e+01 -6.0611360173110267e+00 -2.3421948878971790e+00 -1 0 1
1294 432 1 -8.1999999999999995e-01 -7.9015483321199591e+00 -8.6508251917406049e+00 -6.0235807523272626e+00 2 0 3
1621 541 1 -8.1999999999999995e-01 -7.3671291167699486e+00 -1.2698305307760959e+01 -6.4928301602131917e+00 2 1 1
524 175 2 4.0999999999999998e-01 -1.2868412808457331e+01 -1.1811211564252950e+01 -6.3019588111267861e+00 1 0 2
1228 410 1 -8.1999999999999995e-01 -1.4756785236104783e+01 -1.3335939909307825e+01 -3.4856565007296787e+00 1 1 0
1158 386 2 4.0999999999999998e-01 -1.1182173961773906e+01 -6.5886552486725591e+00 -2.6971244752294403e+00 -1 0 1
2467 823 1 -8.1999999999999995e-01 -1.2887748395091704e+01 -1.0641947361930509e+01 -3.2036939676762053e+00 0 2 -1
2468 823 2 4.0999999999999998e-01 -1.1971789368749626e+01 -1.0242161645903217e+01 -3.1697224304955203e+00 0 2 -1
866 289 2 4.0999999999999998e-01 -9.9499196584554461e-01 -1.4528647114483629e+01 -4.4813840346009410e+00 0 2 2
2416 806 1 -8.1999999999999995e-01 -1.2697983658783684e+01 -7.5270059100122779e+00 -2.1415235868982503e+00 2 2 2
1296 432 2 4.0999999999999998e-01 -7.8280864494469569e+00 -8.0627726156066224e+00 -5.2181236486347391e+00 2 0 3
2417 806 2 4.0999999999999998e-01 -1.3467597411833522e+01 -8.0285132567875337e+00 -2.5366801022557350e+00 2 2 2
2418 806 2 4.0999999999999998e-01 -1.2805356045215248e+01 -7.4801303121206324e+00 -1.1484286965559782e+00 2 2 2
1462 488 1 -8.1999999999999995e-01 -8.6624897819369551e-02 -7.7129731211365442e+00 -1.1723918276982541e+00 2 0 0
865 289 1 -8.1999999999999995e-01 -1.8928200477070671e+00 -1.4820123744728942e+01 -4.1513693135343743e+00 0 2 2
527 176 2 4.0999999999999998e-01 -7.6759235969031208e+00 -1.1335447654499884e+01 -2.8580452998626171e+00 3 1 -1
526 176 1 -8.1999999999999995e-01 -8.0865942342035098e+00 -1.2237083988335963e+01 -2.7225271079259716e+00 3 1 -1
731 244 2 4.0999999999999998e-01 -7.4761320316095361e+00 -1.4441533424222627e+01 -2.1405345478318942e+00 1 1 0
2277 759 2 4.0999999999999998e-01 -1.3054211169475398e+01 -1.1121837674181926e+01 -2.2993368675762582e-01 3 0 2
523 175 1 -8.1999999999999995e-01 -1.2258199165262166e+01 -1.1019031920561552e+01 -6.3093306055214011e+00 1 0 2
745 249 1 -8.1999999999999995e-01 -8.7161269287355694e+00 -1.4330789278924158e+01 -4.9178001692224580e+00 2 2 1
342 114 2 4.0999999999999998e-01 -1.3988571764694978e+01 -1.3323777689928058e+01 -5.5256629651755542e+00 0 2 0
2275 759 1 -8.1999999999999995e-01 -1.3937814737395799e+01 -1.1213333577994577e+01 -6.8910346000024170e-01 3 0 2
714 238 2 4.0999999999999998e-01 -9.8171176509997409e+00 -1.4686860226124724e+01 -1.8614934840059743e+00 0 4 -1
1194 398 2 4.0999999999999998e-01 -9.0384308129416784e+00 -6.8441046931257645e+00 -3.1084186510331620e+00 1 1 2
2028 676 2 4.0999999999999998e-01 -9.1394830061233066e+00 -8.9214442240538006e+00 -7.1279853621310263e+00 1 -1 0
2276 759 2 4.0999999999999998e-01 -1.3830138866286962e+01 -1.1011100861533906e+01 -1.6624849288791808e+00 3 0 2
1157 386 2 4.0999999999999998e-01 -1.0444790276512112e+01 -6.0513023233214795e+00 -1.3428547022042050e+00 -1 0 1
37 13 1 -8.1999999999999995e-01 -5.6943689373794797e+00 -1.0522759553372405e+01 -6.2609346672371906e+00 1 1 2
528 176 2 4.0999999999999998e-01 -7.9941147285573129e+00 -1.2504720328643254e+01 -1.7634744690662121e+00 3 1 -1
747 249 2 4.0999999999999998e-01 -8.5683191328375052e+00 -1.3826759612357126e+01 -4.0668767987125634e+00 2 2 1
2487 829 2 4.0999999999999998e-01 -1.0349445710486496e+00 -1.0202691035589691e+01 -2.0723177034089790e+00 1 1 1
525 175 2 4.0999999999999998e-01 -1.2555348436817658e+01 -1.0375967250854334e+01 -7.0151165299424809e+00 1 0 2
387 129 2 4.0999999999999998e-01 -7.6004632689610165e+00 -5.0607427375124576e+00 -3.3174472543784184e-01 1 0 1
1229 410 2 4.0999999999999998e-01 -1.4723846215396353e+01 -1.3262471881889690e+01 -2.4889212947736272e+00 1 1 0
704 235 2 4.0999999999999998e-01 -3.5240085385437183e+00 -1.3137131850786844e+01 -4.4770297388397040e-01 2 1 1
1295 432 2 4.0999999999999998e-01 -7.0405117280847529e+00 -9.1412898406646370e+00 -6.1578343132663296e+00 2 0 3
721 241 1 -8.1999999999999995e-01 -8.1219757547833993e-01 -8.2771426930622454e+00 -4.1819023765372219e+00 1 0 -1
1269 423 2 4.0999999999999998e-01 -7.3887543343855597e+00 -8.7705943198575422e+00 -2.8935204602665543e+00 0 1 2
512 171 2 4.0999999999999998e-01 -5.2217507777996364e+00 -1.4850226528530531e+01 -1.0114852627843511e+00 1 0 0
982 328 1 -8.1999999999999995e-01 -1.7320925755165568e+00 -1.2954885493535400e+01 -6.3507219035122890e+00 1 0 2
1144 382 1 -8.1999999999999995e-01 -2.1155612500135419e+00 -7.7026941121038375e+00 -7.3717674358596099e+00 1 1 4
1594 532 1 -8.1999999999999995e-01 -5.4710121146582811e+00 -1.3839372830886793e+01 -2.6180933623184544e+00 2 2 1
107 36 2 4.0999999999999998e-01 -5.9688795408244673e+00 -1.2684748303549807e+01 -4.0472220210203602e-01 1 3 5
1267 423 1 -8.1999999999999995e-01 -6.8726135588975996e+00 -9.6250602002581580e+00 -2.8347804028649310e+00 0 1 2
2486 829 2 4.0999999999999998e-01 -2.3690940910408287e+00 -9.6946385688830539e+00 -1.2795647707453330e+00 1 1 1
2208 736 2 4.0999999999999998e-01 -7.1300014572787536e+00 -9.9571012272237915e+00 -1.2035547922191352e+00 1 -1 2
38 13 2 4.0999999999999998e-01 -6.3296488923218774e+00 -1.1295011375757662e+01 -6.2641198137797289e+00 1 1 2
50 17 2 4.0999999999999998e-01 -5.0399168648519428e+00 -6.9183089764337637e+00 -4.1910557214996675e+00 1 1 2
1907 636 2 4.0999999999999998e-01 -4.3247499022590539e+00 -1.3340733715945479e+01 -6.1653848538532863e+00 1 0 1
51 17 2 4.0999999999999998e-01 -4.8840917036885863e+00 -6.9909005902115116e+00 -5.8149333240281642e+00 1 1 2
1596 532 2 4.0999999999999998e-01 -5.6504247399257395e+00 -1.4205837461223808e+01 -3.5310437500801353e+00 2 2 1
1915 639 1 -8.1999999999999995e-01 -5.8198799867773054e+00 -6.4851115441131704e+00 -2.0723646369538589e+00 -1 0 1
677 226 2 4.0999999999999998e-01 -1.8412850741674731e+00 -5.0976726619568673e+00 -4.4174937840735691e+00 1 1 1
1906 636 1 -8.1999999999999995e-01 -4.3628713308188569e+00 -1.3754629315115736e+01 -5.2558790303513945e+00 1 0 1
1908 636 2 4.0999999999999998e-01 -3.4709817035442772e+00 -1.4146632470277927e+01 -5.0304238158057597e+00 1 0 1
722 241 2 4.0999999999999998e-01 -1.5128784415661887e+00 -8.8437504561374674e+00 -3.7483524043916319e+00 1 0 -1
2393 798 2 4.0999999999999998e-01 -2.1542898837031430e+00 -1.3649614730365702e+01 -2.9157370265716214e+00 1 3 1
49 17 1 -8.1999999999999995e-01 -4.8055952255643000e+00 -6.3989332883459333e+00 -5.0128256946034480e+00 1 1 2
231 77 2 4.0999999999999998e-01 -1.1763708205695190e+01 -6.8784588001917442e+00 -6.6687433052331375e+00 2 -1 0
550 184 1 -8.1999999999999995e-01 -4.2740260021051935e+00 -9.4338102078042940e+00 -3.6081180510403499e+00 0 3 2
340 114 1 -8.1999999999999995e-01 -1.4371281274979278e+01 -1.3038625047892099e+01 -6.4044035646444062e+00 0 2 0
551 184 2 4.0999999999999998e-01 -3.6239760200417237e+00 -9.6027834615088814e+00 -2.8672761678811298e+00 0 3 2
1193 398 2 4.0999999999999998e-01 -7.4286246812914545e+00 -6.8093022786412991e+00 -2.8366789025290409e+00 1 1 2
2338 780 1 -8.1999999999999995e-01 -3.0297474642437443e+00 -1.0447723636164294e+01 -5.8821583481521920e+00 0 2 1
676 226 1 -8.1999999999999995e-01 -2.0939922851979968e+00 -5.9701941415878057e+00 -4.8355953992335508e+00 1 1 1
2339 780 2 4.0999999999999998e-01 -2.6453174590136506e+00 -1.1346022814469356e+01 -6.0948454437311153e+00 0 2 1
1623 541 2 4.0999999999999998e-01 -7.8571672354661786e+00 -1.3190718578077856e+01 -5.7735559139352901e+00 2 1 1
1192 398 1 -8.1999999999999995e-01 -8.1725869526381878e+00 -7.3173196796179543e+00 -3.2707320110202698e+00 1 1 2
1145 382 2 4.0999999999999998e-01 -3.0848783017765804e+00 -7.9248640458834974e+00 -7.2667502740130141e+00 1 1 4
1146 382 2 4.0999999999999998e-01 -1.9333686384111370e+00 -6.8063486301547957e+00 -6.9676211268796306e+00 1 1 4
2392 798 1 -8.1999999999999995e-01 -2.1368871289402200e+00 -1.3165043534123496e+01 -2.0411791207008090e+00 1 3 1
39 13 2 4.0999999999999998e-01 -4.8010647774299802e+00 -1.0827387559903467e+01 -5.9305211600725229e+00 1 1 2
1268 423 2 4.0999999999999998e-01 -6.0760634770253699e+00 -9.5753916643787989e+00 -3.4372790585714590e+00 0 1 2
723 241 2 4.0999999999999998e-01 -1.2160809539604909e+00 -7.4081484708932672e+00 -4.4677185531134054e+00 1 0 -1
983 328 2 4.0999999999999998e-01 -1.0449496564463097e+00 -1.3317326218371923e+01 -5.7210911040148371e+00 1 0 2
2340 780 2 4.0999999999999998e-01 -2.4337067386685245e+00 -9.7343570977317810e+00 -6.2506786977994881e+00 0 2 1
2485 829 1 -8.1999999999999995e-01 -1.9710563977111946e+00 -9.8680536587095418e+00 -2.1803737585337011e+00 1 1 1
703 235 1 -8.1999999999999995e-01 -4.2580122378071135e+00 -1.2482997562381286e+01 -2.6519126322405029e-01 2 1 1
678 226 2 4.0999999999999998e-01 -3.0857967366344319e+00 -6.0882121825901034e+00 -4.7870227614174841e+00 1 1 1
1916 639 2 4.0999999999999998e-01 -5.4247068253036357e+00 -6.9018881945435666e+00 -1.2537688660691462e+00 -1 0 1
1595 532 2 4.0999999999999998e-01 -4.8374424555589108e+00 -1.3068771608861040e+01 -2.6868455886141636e+00 2 2 1
2394 798 2 4.0999999999999998e-01 -2.4287586763475630e+00 -1.2218542761983194e+01 -2.1786960574156691e+00 1 3 1
552 184 2 4.0999999999999998e-01 -3.9300508862512782e+00 -9.8430901086043949e+00 -4.4531829688337758e+00 0 3 2
984 328 2 4.0999999999999998e-01 -1.6066451379822198e+00 -1.3365971760122191e+01 -7.2536253620047626e+00 1 0 2
1917 639 2 4.0999999999999998e-01 -5.6611162412790144e+00 -5.4979918771189062e+00 -2.0535908470451183e+00 -1 0 1
2148 716 2 4.0999999999999998e-01 -4.8559913652140114e+00 -9.0327890841449765e+00 -6.8188120861441828e+00 3 3 -1
2146 716 1 -8.1999999999999995e-01 -4.8241222279937723e+00 -8.1483702354103613e+00 -7.2843776603145480e+00 3 3 -1
106 36 1 -8.1999999999999995e-01 -6.9448453768226681e+00 -1.2656648091736470e+01 -1.8870206038331361e-01 1 3 5
2206 736 1 -8.1999999999999995e-01 -7.2391644500431154e+00 -9.7837873950810099e+00 -2.2477524771582047e-01 1 -1 2
791 264 2 4.0999999999999998e-01 -1.3792174680365564e+01 -5.3748585029424820e+00 -6.2383973277314695e+00 1 2 3
1622 541 2 4.0999999999999998e-01 -8.0231098082211219e+00 -1.2334826109559987e+01 -7.1542950720478045e+00 2 1 1
1833 611 2 4.0999999999999998e-01 -2.0196267017522906e-01 -8.2977931143755210e+00 2.2283006607438161e+00 -1 -1 0
773 258 2 4.0999999999999998e-01 -1.2297844218892358e+01 -9.1551042281009707e+00 3.1180439725044842e+00 0 2 1
2529 843 2 4.0999999999999998e-01 -8.2709219771151101e+00 -9.2224977417915355e+00 5.8482488062568869e+00 3 1 0
2528 843 2 4.0999999999999998e-01 -8.0743862003107552e+00 -1.0836579582539525e+01 5.9987246445504780e+00 3 1 0
2527 843 1 -8.1999999999999995e-01 -8.7017097356975359e+00 -1.0072789141860849e+01 6.1505567024221151e+00 3 1 0
2591 864 2 4.0999999999999998e-01 -1.2533449394759593e+01 -4.9957203070981286e+00 1.4694416825124570e+00 2 0 2
1019 340 2 4.0999999999999998e-01 -9.7159476292922182e+00 -1.1429057351626355e+01 6.7986341564375152e+00 1 3 1
1832 611 2 4.0999999999999998e-01 -4.6906279542941043e-01 -8.3306807647051535e+00 6.1767798054283851e-01 -1 -1 0
1337 446 2 4.0999999999999998e-01 -1.0508723197569994e+01 -1.2551681304516043e+01 1.9227934773601874e+00 0 1 -1
256 86 1 -8.1999999999999995e-01 -3.3793956533960969e+00 -9.6782152405679263e+00 1.5412141802467438e-01 2 2 1
966 322 2 4.0999999999999998e-01 -1.0146613410865520e+01 -1.3313359190146194e+01 5.0854915033268817e+00 -1 0 2
1919 640 2 4.0999999999999998e-01 -4.9364589259564671e+00 -1.4084803037011731e+01 2.4220219131821068e+00 2 1 3
1979 660 2 4.0999999999999998e-01 -1.0511896368653840e+01 -1.0275944775824835e+01 3.4776483165977865e+00 2 1 1
772 258 1 -8.1999999999999995e-01 -1.3114515512530163e+01 -9.3527407580785376e+00 2.5758711118291693e+00 0 2 1
774 258 2 4.0999999999999998e-01 -1.2946731023190720e+01 -1.0152906065719666e+01 2.0000695225972791e+00 0 2 1
1336 446 1 -8.1999999999999995e-01 -1.0348913614418530e+01 -1.1881362011311289e+01 2.6474289427287268e+00 0 1 -1
1338 446 2 4.0999999999999998e-01 -9.9118235498279290e+00 -1.2330626803678499e+01 3.4265804203133214e+00 0 1 -1
1980 660 2 4.0999999999999998e-01 -9.9847812653126375e+00 -9.5123196024714964e+00 4.8213580050476033e+00 2 1 1
383 128 2 4.0999999999999998e-01 -1.3343536767971750e+01 -7.8191386597825980e+00 1.2268243024876675e+00 1 1 2
489 163 2 4.0999999999999998e-01 -7.6422186457517327e-01 -1.4768178789850426e+01 6.0510242844781814e+00 -1 -1 2
1031 344 2 4.0999999999999998e-01 -1.1149613167156176e+01 -1.1142114581308309e+01 1.4287492510979369e+00 2 1 1
1918 640 1 -8.1999999999999995e-01 -4.2720722453069300e+00 -1.4619444556049395e+01 1.8998031792454348e+00 2 1 3
1340 447 2 4.0999999999999998e-01 -1.3126884244132075e+01 -1.3574025697271042e+01 4.3663512871510335e+00 0 -2 1
1412 471 2 4.0999999999999998e-01 -1.4880145556720256e+01 -9.2622279079111074e+00 2.9747821428074275e+00 1 0 1
1831 611 1 -8.1999999999999995e-01 -8.8619577135358085e-01 -8.1649487361527342e+00 1.5112643541931483e+00 -1 -1 0
2549 850 2 4.0999999999999998e-01 -1.1499266954530897e+01 -6.9469010545427174e+00 4.9909904538377603e-01 0 -1 3
1978 660 1 -8.1999999999999995e-01 -1.0694063565577693e+01 -9.5286444813583557e+00 4.1166483306444803e+00 2 1 1
384 128 2 4.0999999999999998e-01 -1.3876405245597292e+01 -6.5580720922818223e+00 3.3671655973097891e-01 1 1 2
2365 789 1 -8.1999999999999995e-01 -5.3552026832868833e+00 -7.7961282979307542e+00 2.4572380507390967e-01 0 1 1
320 107 2 4.0999999999999998e-01 -9.4801513854653656e+00 -5.9283242537165748e+00 1.6655882168869702e+00 1 0 1
319 107 1 -8.1999999999999995e-01 -8.8588974951356700e+00 -5.6510020485771904e+00 2.3984590337208473e+00 1 0 1
2366 789 2 4.0999999999999998e-01 -6.0675233750625406e+00 -8.4914598469354345e+00 1.5045099178358257e-01 0 1 1
2548 850 1 -8.1999999999999995e-01 -1.0507872282801479e+01 -6.9314816293889088e+00 3.6924336413891368e-01 0 -1 3
832 278 1 -8.1999999999999995e-01 -1.1619589275092430e+00 -5.4287250381207510e+00 1.0515268655152159e+00 0 1 1
1341 447 2 4.0999999999999998e-01 -1.2268288305021168e+01 -1.2578209942017891e+01 3.3980055403812486e+00 0 -2 1
1293 431 2 4.0999999999999998e-01 -1.4692977305977031e+01 -1.2691792190721781e+01 6.7251571230372633e+00 -1 3 1
1030 344 1 -8.1999999999999995e-01 -1.1571655372170245e+01 -1.0684857312950726e+01 6.4595949508400530e-01 2 1 1
1390 464 1 -8.1999999999999995e-01 -1.0534627255148132e+01 -1.3967445931031287e+01 1.0580384044172568e+00 3 1 1
1299 433 2 4.0999999999999998e-01 -1.0249653756176320e+01 -5.7994006123025734e+00 6.2524027389165298e+00 0 -1 2
382 128 1 -8.1999999999999995e-01 -1.3077161578951728e+01 -6.9662779514031463e+00 7.7778477145428226e-01 1 1 2
965 322 2 4.0999999999999998e-01 -9.4579748082642929e+00 -1.4756892034430996e+01 4.7560688554676673e+00 -1 0 2
964 322 1 -8.1999999999999995e-01 -9.5297763798616710e+00 -1.3801881297545489e+01 4.4683838459591598e+00 -1 0 2
1704 568 2 4.0999999999999998e-01 -4.5513901609186469e+00 -1.4388637493570137e+01 6.9626096122751875e+00 0 3 1
1821 607 2 4.0999999999999998e-01 -1.4048272239889121e+01 -6.0220333375558717e+00 5.3035434926734233e+00 0 -1 1
1819 607 1 -8.1999999999999995e-01 -1.4704490351005362e+01 -5.3476117380218859e+00 5.6419174327101906e+00 0 -1 1
1339 447 1 -8.1999999999999995e-01 -1.3110715956863171e+01 -1.3110655143074670e+01 3.4803546935147125e+00 0 -2 1
649 217 1 -8.1999999999999995e-01 -1.2199560714110222e+01 -6.8096780433307700e+00 4.4956188330466915e+00 1 1 -1
1949 650 2 4.0999999999999998e-01 -7.1547156558360214e-01 -1.2797500962576269e+01 1.8943700179804601e+00 -1 3 0
650 217 2 4.0999999999999998e-01 -1.1539442529451870e+01 -7.5327214163050167e+00 4.6991277631356141e+00 1 1 -1
651 217 2 4.0999999999999998e-01 -1.1786064935836654e+01 -6.1469081154249476e+00 3.8713425425653512e+00 1 1 -1
1020 340 2 4.0999999999999998e-01 -9.3554749901397596e+00 -1.3017852684177402e+01 6.9096221985342865e+00 1 3 1