2593
Atoms. Timestep: 1000000
O 13.9965 -6.8709 12.8086
H 13.4908 -6.02925 12.6188
H 13.4564 -7.45487 13.4147
O -2.55163 5.39892 -14.3976
H -1.83357 5.93266 -13.9508
H -3.43672 5.62391 -13.99
O 6.35386 2.90281 -11.2191
H 5.46585 2.45021 -11.1373
H 6.24262 3.76972 -11.7052
O 7.29718 8.15144 -3.97103
H 6.89777 8.94718 -4.42643
H 7.74673 8.44167 -3.12617
O 9.72808 0.926718 2.65321
H 8.9715 1.2722 2.09793
H 10.5443 0.832854 2.08303
O 12.1621 -3.66791 1.37591
H 11.7029 -4.17621 2.10454
H 11.5553 -2.94843 1.03791
O 8.59705 -9.11235 -3.47238
H 7.80777 -8.9327 -4.05965
H 8.28315 -9.31357 -2.54442
O 11.7958 1.52426 -14.8674
H 11.9899 1.11992 -13.9736
H 11.5853 2.49546 -14.7553
O -1.15774 4.9864 -4.10591
H -0.21174 4.66293 -4.12976
H -1.22602 5.77194 -3.49078
O 1.2748 -3.22357 -14.4541
H 0.612029 -3.92834 -14.7074
H 1.44999 -2.63237 14.6911
O -13.7983 -1.56294 3.77996
H -13.4669 -1.16378 4.6349
H -14.7965 -1.50881 3.75179
O -12.49 -10.7436 -11.2731
H -13.3031 -10.6712 -11.8508
H -11.9357 -9.91718 -11.3727
O -8.5802 -10.2775 -6.22849
H -8.10704 -9.68327 -5.57798
H -8.76344 -11.1621 -5.79958
O -2.7541 13.1088 1.50753
H -3.30507 13.9313 1.36615
H -2.11182 13.0032 0.748284
O -7.77819 8.33869 13.2313
H -8.71279 8.64776 13.4077
H -7.17657 8.6625 13.9615
O 1.07154 -8.23629 13.079
H 1.41515 -8.07951 12.153
H 0.168246 -8.66284 13.0316
O -6.15373 -6.94409 -4.54803
H -7.10102 -7.07934 -4.83866
H -5.81796 -6.07101 -4.90176
O 13.5397 11.5487 -14.7172
H 14.1492 10.7873 -14.4964
H 12.8905 11.684 -13.9686
O 4.87294 9.70161 6.0855
H 4.08454 9.4526 5.52287
H 5.30034 10.526 5.71422
O -1.5743 -0.478976 14.5729
H -0.579454 -0.464776 14.6739
H -1.83019 -0.011045 13.7269
O -11.5224 -1.08534 13.1838
H -10.6157 -1.50021 13.107
H -12.2157 -1.80485 13.2259
O -1.79662 -5.06631 -0.521313
H -1.83538 -5.1057 0.47722
H -1.30251 -4.24392 -0.803538
O 6.76962 10.6691 -4.93195
H 6.44194 11.4094 -4.34485
H 7.3178 11.0515 -5.67588
O -12.0945 -10.1623 -7.3511
H -12.7123 -9.60871 -7.90962
H -11.3996 -10.5797 -7.93671
O 13.1667 7.64823 -7.93392
H 14.1281 7.37276 -7.93401
H 12.6846 7.17572 -7.19603
O -6.7199 11.4816 -14.501
H -7.18149 12.0904 -13.8556
H -7.20466 11.4937 14.5569
O -9.99082 -6.64603 -0.567964
H -10.043 -5.75474 -1.01852
H -10.3293 -7.35353 -1.18846
O -12.281 1.90678 9.5309
H -13.0502 2.14983 8.93976
H -11.4434 1.86187 8.98645
O 11.3006 4.19277 -14.6377
H 11.0226 4.56755 -13.7532
H 12.2233 4.50878 -14.8585
O -4.43694 -11.7496 5.87093
H -5.30567 -11.3093 6.09797
H -4.58309 -12.7312 5.74708
O -8.44046 -13.0075 10.9393
H -8.43829 -12.5964 11.8509
H -8.43604 -12.285 10.2478
O 1.7065 -2.0018 -9.01187
H 1.28516 -2.68908 -9.60368
H 2.70187 -2.08603 -9.05943
O 7.5704 -4.51845 2.82041
H 7.20869 -4.98793 2.01488
H 7.0877 -4.83662 3.63643
O 6.39398 12.5549 -3.06804
H 6.88395 12.0203 -2.3794
H 6.55356 13.5293 -2.90918
O -2.76447 14.1324 -14.0954
H -3.45634 14.754 -13.7279
H -1.85312 14.4798 -13.8744
O -8.58842 -14.5304 -2.81419
H -8.69387 14.7487 -2.06453
H -7.7364 -14.7184 -3.30289
O -5.4416 -14.5579 -7.9505
H -6.25793 -14.1624 -8.37156
H -5.02295 14.7227 -8.58284
O -4.22912 12.4258 14.2976
H -3.74092 13.0069 14.9489
H -5.02342 12.0163 14.7465
O -5.97473 3.70818 -0.201506
H -5.65957 3.88893 0.730227
H -6.30851 2.76753 -0.263907
O 10.1347 6.72493 6.71708
H 9.59238 6.06798 7.24098
H 10.0261 6.54256 5.73979
O -12.2254 1.08161 -8.66645
H -12.3715 0.198482 -8.22053
H -11.3374 1.45074 -8.39196
O -1.8345 -3.323 -9.89302
H -1.33986 -4.18976 -9.82824
H -2.25368 -3.24523 -10.7977
O 1.64755 5.62174 -13.8714
H 2.18903 4.78109 -13.8567
H 2.24556 6.40636 -13.7075
O -13.2304 8.69124 -5.06468
H -13.278 9.66268 -5.2974
H -13.2745 8.58388 -4.07138
O -10.0917 10.4011 -7.92602
H -9.94469 9.89892 -7.07376
H -11.07 10.567 -8.05061
O -11.8037 -14.1266 -12.9789
H -11.06 -14.1743 -12.3119
H -11.6765 -14.8367 -13.6714
O 10.5579 -5.81212 3.02682
H 10.4208 -5.25805 3.84798
H 9.68983 -6.22916 2.75729
O -14.5297 4.3804 6.34599
H -13.8425 4.16372 5.65243
H 14.6242 3.76041 6.24889
O 5.15534 7.59225 -2.00998
H 5.60763 8.02853 -2.78794
H 5.10339 8.23902 -1.24898
O -3.50548 -3.58955 -6.93903
H -2.91686 -3.65986 -7.74445
H -3.15589 -2.87585 -6.33195
O -0.587928 6.98888 -13.4275
H 0.331522 6.80586 -13.7757
H -0.701262 6.54742 -12.5373
O 10.4118 -2.7281 14.9058
H 10.5986 -3.68436 14.6805
H 9.90456 -2.68138 -14.1661
O 9.17746 -14.3684 13.7488
H 9.67607 -14.0993 14.5728
H 9.1324 -13.5934 13.1184
O 11.2865 -3.16034 -5.88018
H 10.6741 -2.53837 -6.36822
H 10.8571 -3.44717 -5.02377
O 6.05585 3.97442 7.08071
H 6.53835 4.71152 7.55399
H 6.0027 4.18391 6.10428
O 1.56181 -0.475178 14.4446
H 2.32564 -0.583827 13.8083
H 1.06347 0.364116 14.227
O 14.2038 -12.7119 7.34943
H 14.1223 -11.9966 8.04347
H 13.6952 -12.4424 6.53161
O -5.96271 7.99204 1.85186
H -5.78436 7.02807 2.04956
H -5.7689 8.17606 0.888169
O -1.62923 1.01767 -7.21043
H -1.86967 1.54957 -6.39841
H -0.672115 0.733772 -7.1516
O -4.09635 -10.8018 3.28169
H -3.86122 -9.8621 3.53033
H -4.21387 -11.3468 4.11191
O 2.76831 -14.4124 -1.85604
H 1.98646 -14.8299 -2.31927
H 2.62633 -13.425 -1.78657
O -13.2139 5.79985 2.3235
H -14.1828 5.5914 2.19029
H -12.6733 5.33361 1.62314
O 0.458226 -10.4733 0.453874
H 0.148252 -11.2596 0.988377
H 1.28937 -10.7169 -0.0461182
O -11.5156 11.7029 1.20764
H -11.0702 11.7922 2.09858
H -11.8797 12.5909 0.926501
O 11.2976 1.38074 -0.271889
H 10.9739 2.25125 0.0990123
H 11.6804 1.52872 -1.18383
O 8.63386 -14.6 5.77018
H 8.27056 -13.9411 6.42901
H 9.29594 14.7368 6.22503
O 14.358 5.23967 -5.21095
H 13.9587 4.36936 -4.92252
H -14.7945 5.06556 -5.81214
O 3.74332 1.664 -11.4096
H 3.69309 1.12007 -12.2473
H 2.93098 2.24299 -11.3389
O 14.0603 8.45643 -13.5802
H 14.3081 7.63225 -13.0708
H 14.477 8.42466 -14.4888
O -9.9224 -14.3743 -10.9212
H -9.58699 14.7737 -10.3996
H -9.99086 -13.5785 -10.3193
O 13.1719 -14.7251 -3.66724
H 13.4844 14.3728 -4.12081
H 13.9565 -14.2453 -3.27445
O 13.7001 -4.27937 -13.1765
H 13.1821 -3.59643 -13.6916
H 13.4349 -4.24191 -12.213
O -10.7003 2.1884 3.33234
H -10.6465 1.20316 3.16948
H -9.77742 2.57285 3.35839
O -11.0637 4.91795 -6.71146
H -10.4121 4.41775 -7.28184
H -11.2124 4.41779 -5.85831
O -6.76395 -6.43197 7.30329
H -7.53199 -7.05658 7.16152
H -5.9503 -6.79581 6.84974
O -5.25804 -9.37844 8.5355
H -5.26272 -10.3696 8.66877
H -5.86373 -9.14139 7.77585
O -11.3513 -4.20106 -9.31227
H -11.5305 -4.11171 -10.2921
H -12.1899 -4.01176 -8.80138
O -7.59023 10.0075 10.4837
H -7.22511 9.91741 9.55704
H -6.87822 9.77545 11.1465
O -4.70522 0.97788 10.5756
H -4.39441 1.27542 9.67286
H -5.48963 1.53073 10.857
O 2.34311 11.8964 -11.6556
H 1.65961 12.1971 -12.3208
H 3.25786 12.0072 -12.0443
O 3.0932 -2.70072 3.06172
H 3.79772 -2.76937 3.76816
H 2.73663 -3.61232 2.85685
O 5.61867 -4.4162 -13.9553
H 5.87725 -4.62766 -14.898
H 6.37252 -4.65207 -13.342
O -5.32716 -11.9733 9.06212
H -5.22272 -12.9374 9.30641
H -6.28774 -11.7093 9.15
O 12.1269 8.48764 13.2187
H 11.8851 8.13942 12.3129
H 13.115 8.41048 13.3525
O -1.48583 12.4907 12.9147
H -1.05017 11.8649 13.5618
H -2.47424 12.4927 13.0669
O -3.65676 -8.24132 0.733884
H -4.49302 -8.72829 0.48159
H -3.27384 -7.79522 -0.0751184
O -10.6626 -12.8433 2.30091
H -11.5407 -13.3212 2.3283
H -9.93464 -13.4953 2.08891
O -7.86066 5.34733 7.30971
H -8.13024 5.40313 8.27113
H -7.76809 6.27007 6.93538
O -8.50065 -1.72567 12.4885
H -8.32698 -1.88276 13.4608
H -7.68099 -1.34439 12.0609
O -8.73529 12.691 -12.9993
H -8.47862 13.4818 -12.4435
H -9.28594 12.0622 -12.4502
O 3.98063 -7.4292 -5.58478
H 3.77469 -6.45059 -5.5783
H 3.3037 -7.9086 -6.14341
O -4.1957 -14.2558 1.41159
H -3.79036 -13.3874 1.12563
H -4.17005 -14.3231 2.40905
O 12.5557 -14.6989 11.272
H 12.2208 -14.1994 12.0711
H 12.5223 14.2511 11.4549
O -7.44514 1.45249 -0.743407
H -7.68942 0.860333 0.0245812
H -8.2772 1.82236 -1.15693
O 7.89599 4.78915 -6.76651
H 7.73165 5.76476 -6.91243
H 7.41664 4.49014 -5.94132
O -9.67641 2.08111 -2.70303
H -10.4631 2.4821 -2.23356
H -9.98874 1.35691 -3.31793
O 0.535725 9.57334 -5.20044
H 0.256378 9.97593 -4.32865
H 1.07014 8.74556 -5.02931
O -13.1908 3.1677 4.22933
H -12.2716 2.91192 3.92972
H -13.8068 3.18001 3.44159
O 10.1125 6.86941 0.405905
H 9.65178 7.49819 1.03237
H 11.1008 6.91876 0.551083
O -6.41442 9.52 8.13782
H -6.34328 9.34946 7.15498
H -6.18209 8.68606 8.63852
O -3.86079 7.99757 14.5463
H -4.69779 8.34947 14.9655
H -3.0664 8.35205 -14.8928
O 7.50208 -9.96799 -7.62525
H 6.8547 -9.92914 -6.86399
H 8.28783 -9.38273 -7.42481
O 8.75052 -11.7136 -13.312
H 8.80991 -11.5375 -12.3293
H 7.83434 -12.0458 -13.5363
O -2.96664 6.62055 2.13682
H -2.51566 6.7518 1.25392
H -2.28502 6.65566 2.86778
O 8.45166 -7.45314 10.1144
H 7.90293 -8.2382 10.402
H 8.45785 -7.39864 9.11589
O 6.44799 -1.67916 -10.9531
H 5.64685 -1.23876 -10.5477
H 6.43471 -2.65621 -10.7403
O -7.007 -5.35335 1.8148
H -7.21327 -4.99047 0.906017
H -6.02081 -5.31009 1.97506
O 8.80701 -2.11404 11.5108
H 9.16982 -1.8686 12.4099
H 8.762 -1.29744 10.9353
O -12.6178 4.97321 8.21033
H -11.8096 4.97653 7.62135
H -13.3404 4.4309 7.78162
O -6.41443 -1.18171 6.78816
H -6.90972 -0.589327 6.15264
H -5.51347 -1.39607 6.41074
O -7.38363 -1.43272 -8.08781
H -7.34147 -1.89444 -7.20172
H -8.29837 -1.54141 -8.47713
O 3.59791 -6.0444 5.68264
H 3.0124 -5.70888 6.4207
H 3.55736 -7.04319 5.65286
O 9.69106 0.652302 -5.26703
H 9.49742 1.61668 -5.08649
H 10.331 0.306629 -4.58065
O 13.767 -9.46457 -5.68377
H 12.7935 -9.6586 -5.56276
H 14.2767 -10.3244 -5.71633
O -3.95298 0.0133226 -8.20262
H -4.2043 0.244975 -9.14246
H -3.02896 0.345593 -8.01311
O -13.4412 8.55941 -9.11414
H -13.463 7.87629 -8.38407
H -13.9379 8.21282 -9.90989
O 4.08805 -5.42665 -9.76289
H 3.3518 -4.94262 -9.28984
H 3.84198 -5.55003 -10.7243
O -13.1328 -9.836 11.4246
H -14.1085 -9.90213 11.6336
H -12.6052 -9.90322 12.2715
O 4.14872 -11.638 9.12753
H 4.4422 -10.7791 8.70769
H 4.94739 -12.1285 9.47626
O -9.79499 0.446934 -14.3905
H -8.98107 -0.0716735 -14.1284
H -10.5407 -0.185979 -14.5989
O 3.18755 6.52094 7.04927
H 2.85794 5.70226 7.51963
H 3.87766 6.26197 6.37341
O -4.39604 9.58482 -11.5525
H -5.29656 9.64599 -11.1219
H -3.90256 10.444 -11.4167
O -11.327 -6.28993 -6.52256
H -11.8397 -5.6561 -7.1018
H -11.6154 -6.17986 -5.57134
O 13.6394 -8.34566 6.84973
H 14.4748 -7.92887 6.49121
H 13.1641 -7.68901 7.4354
O -12.7728 -1.51205 1.29882
H -12.9631 -2.42361 0.93413
H -13.2173 -1.40965 2.18881
O -0.555385 -9.01788 4.15161
H -1.17129 -8.49237 4.73866
H -0.273753 -8.45445 3.37486
O -14.9226 -13.715 10.5971
H 14.1628 -14.1433 10.9117
H 14.8469 -13.2555 9.72394
O -11.5178 -7.61109 1.40521
H -10.9451 -8.39693 1.63902
H -11.0033 -6.98696 0.817089
O -7.40866 -3.98114 -0.604196
H -8.32256 -3.60906 -0.766847
H -6.74796 -3.23212 -0.553544
O -6.1819 8.73761 -13.89
H -6.33735 9.71636 -14.0242
H -6.7165 8.41946 -13.107
O 8.98301 7.56547 -9.77717
H 9.85723 7.11744 -9.9646
H 8.24958 6.88585 -9.79492
O -10.8375 0.134765 0.196178
H -10.0328 0.183791 0.787932
H -11.4235 -0.619671 0.492164
O 5.05666 -10.0844 -12.1565
H 5.32025 -10.5796 -12.9844
H 4.05942 -10.0322 -12.1025
O -10.4765 2.29367 7.36796
H -10.617 3.22494 7.03164
H -10.2833 1.68651 6.59715
O 5.71284 -1.10367 10.6387
H 4.91957 -0.550655 10.3837
H 6.4864 -0.503231 10.8417
O 4.61826 1.63603 6.5102
H 5.02044 1.47144 5.60948
H 5.16105 2.32004 6.99767
O -3.2953 -8.89993 -13.8014
H -3.18575 -7.92229 -13.6216
H -4.19954 -9.06729 -14.1945
O 3.11653 -11.4824 -1.38262
H 4.04884 -11.1211 -1.40281
H 2.52135 -10.9001 -1.93655
O -10.4396 -11.7257 -9.67829
H -9.91737 -10.8734 -9.70915
H -11.3068 -11.6029 -10.1611
O 0.927568 -0.15876 -7.09352
H 1.25222 -0.827181 -7.7628
H 1.33542 0.733293 -7.28851
O 7.26362 -12.2058 -9.10763
H 6.53511 -11.984 -9.75585
H 7.39529 -11.4392 -8.47903
O -3.97499 10.9187 -8.81911
H -3.00873 10.6611 -8.80859
H -4.53931 10.0942 -8.86235
O 8.20215 14.6185 -6.40818
H 7.23231 14.8553 -6.34941
H 8.58813 -14.9325 -7.24817
O 13.9387 10.9622 -11.2885
H 13.6488 10.2126 -11.8836
H 14.8513 11.2688 -11.5591
O -3.91373 11.3891 8.3226
H -3.08478 11.1999 8.84907
H -4.69602 10.9481 8.76267
O 10.7833 1.87111 7.2425
H 9.93369 2.13458 7.69948
H 10.5707 1.32147 6.43454
O 9.15812 3.0444 -10.2921
H 10.0125 3.07949 -10.8107
H 8.38337 3.06905 -10.924
O -10.2083 14.9243 10.1492
H -10.0694 13.9594 10.3727
H -9.5803 -14.4473 10.6888
O 4.31007 6.8084 -7.31864
H 5.29708 6.65337 -7.27503
H 3.87803 6.43963 -6.49555
O 6.04013 11.012 -8.86368
H 6.82475 10.9809 -8.24439
H 6.35608 10.9122 -9.80726
O 5.0498 14.1615 9.23711
H 4.98357 13.1647 9.18989
H 4.46905 14.5679 8.53166
O 9.5513 -8.30973 -6.83652
H 9.85491 -7.41045 -6.52148
H 9.89339 -9.01391 -6.21426
O 10.9221 5.037 10.5249
H 11.8272 5.05048 10.0996
H 11.0184 4.88644 11.5089
O -11.1875 -1.96496 -13.7202
H -12.1863 -2.01286 -13.7079
H -10.8097 -2.89048 -13.749
O 1.89427 -1.31892 9.7194
H 1.09428 -0.944403 10.1883
H 2.47239 -0.569582 9.39631
O -4.60145 1.54388 -10.8728
H -5.41721 1.79716 -11.3929
H -3.97345 1.03723 -11.4636
O -5.44569 8.44877 4.57065
H -6.32387 8.29459 5.02358
H -5.59449 8.57831 3.59024
O -9.01565 13.4935 -9.19523
H -8.84085 14.3067 -8.63999
H -8.58713 12.6984 -8.76598
O -2.4812 -1.89251 8.46865
H -2.57059 -0.898002 8.52413
H -1.61616 -2.12515 8.024
O -12.7232 7.76919 4.32427
H -12.9917 6.90394 3.90074
H -13.1864 7.86704 5.20514
O 12.7055 10.7263 6.58056
H 12.7732 11.2256 7.44442
H 12.3367 11.3307 5.87427
O -5.42136 -0.641618 0.842786
H -5.03178 -0.868318 -0.0499367
H -4.79172 -0.0439117 1.33919
O 2.28925 12.5084 1.56924
H 2.11215 11.7119 0.990989
H 1.80191 12.4057 2.43646
O 12.0918 -7.20228 -4.48046
H 12.6985 -7.9755 -4.66549
H 11.1502 -7.5293 -4.39948
O -10.5331 8.02474 -6.36244
H -11.4585 8.33526 -6.1447
H -10.4895 7.02847 -6.28717
O -0.705652 10.6441 14.4779
H -0.106079 9.89672 14.1915
H -1.39633 10.2937 -14.8219
O -9.54987 8.88138 -13.9425
H -8.96145 8.24529 -13.4432
H -10.452 8.46962 -14.0715
O 5.3134 -1.23354 -5.14774
H 4.38457 -0.931132 -5.36208
H 5.95763 -0.807359 -5.78292
O -11.825 3.66145 -12.7371
H -12.6292 3.25998 -12.2988
H -11.9932 4.63038 -12.9188
O -3.02071 0.0973955 -12.4451
H -2.21356 -0.323974 -12.0315
H -2.92972 0.0852961 -13.441
O -2.63634 13.0621 -3.83771
H -1.75393 13.3838 -4.1812
H -2.77609 12.1118 -4.11622
O 11.0323 -7.09179 11.1983
H 11.3746 -6.46089 10.502
H 10.182 -7.51071 10.8795
O 10.2232 -5.91144 13.8277
H 9.60388 -5.2563 13.3949
H 10.6463 -6.48421 13.1256
O -6.95988 -1.93455 -5.31709
H -6.47952 -1.44489 -4.58935
H -7.94584 -1.80446 -5.21189
O -13.029 -8.00592 -9.02589
H -13.0774 -7.56427 -8.12993
H -13.943 -8.04013 -9.43039
O -14.3182 -10.4835 -0.666165
H -13.9808 -9.55105 -0.795438
H 14.6416 -10.457 -0.435427
O -4.65099 -8.41592 11.8424
H -4.42672 -9.38692 11.7588
H -4.47097 -7.95619 10.9727
O 13.8538 -6.73585 0.304557
H 13.5857 -6.22789 1.12321
H 13.6588 -6.18601 -0.507693
O -4.67652 -2.2595 -1.43995
H -3.74833 -2.05559 -1.75144
H -5.33349 -1.74321 -1.98946
O 1.43037 4.5033 13.5075
H 1.56773 4.737 14.4701
H 0.500675 4.75016 13.2339
O 10.0872 0.0771583 5.20373
H 9.8257 0.511208 4.34154
H 9.74531 -0.862507 5.22097
O 0.0783434 3.91291 -9.03963
H -0.386541 3.10681 -9.40597
H -0.352857 4.184 -8.17899
O 9.36149 -2.51828 -12.1175
H 8.76943 -1.8584 -11.6547
H 10.1972 -2.64787 -11.5838
O -6.88013 -11.7928 -1.53791
H -6.26769 -11.6999 -2.32304
H -6.87448 -12.7413 -1.22106
O 2.48714 13.7279 4.53823
H 1.9187 12.9122 4.43022
H 1.9928 14.4096 5.07763
O 12.7122 -1.11726 5.10584
H 11.8138 -0.678292 5.08911
H 13.0842 -1.15068 4.17814
O -6.54243 -0.654711 -2.50766
H -6.99999 0.0126216 -1.91993
H -6.05767 -0.176695 -3.24021
O -14.9292 8.60443 1.04985
H 14.7807 9.18056 1.83637
H -14.0489 8.15569 1.20395
O -0.888227 5.41239 13.0471
H -1.4639 5.44664 13.8641
H -0.750732 6.33907 12.6971
O -12.4763 -0.576565 6.16082
H -13.1924 0.0699543 6.4243
H -11.8972 -0.773257 6.95207
O -0.32084 2.9343 5.6287
H 0.513322 2.47574 5.93533
H -0.357037 2.92714 4.62932
O 5.86622 -8.96467 -4.00204
H 6.14859 -9.75199 -4.55023
H 5.12914 -8.4786 -4.4717
O 12.659 12.4404 8.70983
H 13.1461 13.3015 8.56374
H 12.8808 12.0816 9.6166
O -10.5393 6.09612 13.0656
H -10.6973 5.12238 13.23
H -10.3381 6.24231 12.097
O -3.98339 2.9669 -3.25319
H -3.65757 2.91386 -2.30918
H -4.71991 3.64064 -3.31425
O 13.3513 2.12823 6.47754
H 12.4829 2.27643 6.95093
H 13.174 1.77619 5.55842
O 14.1073 -2.66913 6.91795
H 13.7514 -1.97347 6.29382
H 13.9237 -2.3952 7.86208
O 13.5532 6.25938 5.10442
H 14.3089 5.87861 5.63739
H 13.5716 7.25738 5.16594
O -3.99615 -11.0648 11.3685
H -4.32713 -11.1395 10.4278
H -3.00152 -10.9607 11.3647
O -3.4903 10.4499 -3.40204
H -4.20908 10.7667 -2.78304
H -3.88368 9.82779 -4.07903
O -4.18141 -4.64538 8.55346
H -4.72975 -4.52737 7.7255
H -3.43502 -3.97978 8.55663
O -4.81726 3.21924 14.7905
H -4.60187 3.55605 -14.2254
H -5.0597 2.25026 14.8398
O -9.52909 -10.9226 -0.846044
H -9.99094 -11.8083 -0.894114
H -8.59385 -11.0153 -1.18788
O 9.77587 12.0872 -1.52504
H 9.77463 13.0182 -1.89014
H 10.0946 11.4532 -2.22977
O 5.93105 7.86858 -14.3864
H 5.07968 8.01231 -14.891
H 6.06903 8.62241 -13.7438
O -10.1086 -5.10835 13.0686
H -10.6073 -5.97516 13.074
H -10.2696 -4.62577 13.9296
O 8.41942 -6.23655 0.114149
H 7.53955 -5.7747 0.0017507
H 8.34051 -6.9357 0.824844
O -8.49553 11.7047 1.28239
H -9.09213 10.9035 1.32867
H -8.32283 12.0455 2.20659
O -10.2876 -7.20019 -8.88556
H -11.137 -7.15336 -9.41133
H -10.4176 -6.75103 -8.00154
O 11.067 14.3778 7.11464
H 11.192 -14.8307 7.79309
H 11.9238 13.8743 7.00265
O -0.741954 6.15704 -0.501093
H 0.1509 6.59971 -0.584636
H -1.25516 6.27876 -1.35075
O -3.80926 -7.08379 9.67215
H -4.22441 -7.79582 9.10577
H -3.87967 -6.2026 9.20453
O -5.75287 -13.6019 -5.44149
H -5.62505 -13.9881 -6.35503
H -4.87349 -13.572 -4.96616
O 0.549195 -11.5038 4.63831
H 0.308028 -11.9649 3.78429
H 0.0413181 -10.6451 4.70846
O 8.69811 -0.176993 -9.66074
H 7.79244 -0.178066 -10.0849
H 9.14602 0.700318 -9.83343
O 7.71886 -11.6089 4.30093
H 6.88521 -11.8285 4.8078
H 7.50243 -11.5117 3.32943
O -8.73968 -3.00922 1.69242
H -9.61434 -3.15206 2.15575
H -8.15088 -3.8041 1.83941
O 6.21439 -12.6572 -13.2721
H 6.46991 -13.5812 -13.5567
H 5.24961 -12.6442 -13.0092
O 14.5522 -0.274593 -0.0546762
H 14.4378 0.279998 -0.878974
H -14.4383 -0.196288 0.271693
O -6.87819 -11.7916 -11.8991
H -7.66389 -11.2616 -11.5799
H -6.03306 -11.3257 -11.6368
O -11.7926 4.43582 0.548262
H -12.0396 4.90783 -0.298092
H -10.8292 4.16983 0.51262
O -2.97925 13.047 4.18187
H -2.91885 12.8699 3.19947
H -3.72373 12.5058 4.573
O -11.5611 -12.7598 11.7995
H -11.4602 -13.1746 10.8951
H -10.6607 -12.5025 12.1505
O 6.5945 -4.43965 -9.79308
H 5.61277 -4.51683 -9.6188
H 7.07522 -4.28584 -8.92973
O -14.8326 8.56323 13.8111
H -14.3486 7.72734 13.5519
H -14.3346 9.358 13.4641
O -0.42762 -8.16554 -5.2759
H -1.15784 -8.74832 -4.91915
H -0.778136 -7.23925 -5.41462
O 4.90643 11.4488 8.77585
H 4.02719 11.495 9.2501
H 4.79614 10.9478 7.91736
O -1.85448 10.5252 0.222327
H -2.59423 10.7089 -0.425119
H -2.24204 10.2431 1.09999
O -0.473486 -2.87098 7.04689
H -1.02237 -3.1134 6.24684
H 0.320762 -3.47616 7.10203
O 10.5222 13.4484 -8.96439
H 9.87865 14.0365 -9.45432
H 11.3021 13.2424 -9.55565
O 14.5567 -1.32282 13.2283
H -14.709 -1.992 13.5563
H 14.7594 -0.427798 13.6257
O 11.0415 -1.1667 0.508341
H 10.2303 -1.58111 0.921067
H 10.8084 -0.262312 0.150713
O 7.47316 11.7146 -14.1988
H 7.2645 10.9843 -14.8494
H 8.33302 12.1552 -14.4568
O -7.0678 10.0927 -10.6199
H -7.94152 10.1088 -11.1062
H -7.07932 10.7772 -9.89098
O -5.56206 -11.1092 -3.76085
H -5.53206 -11.5753 -4.64516
H -5.04862 -10.2529 -3.81778
O 8.00604 -11.0818 7.39738
H 8.92324 -10.9781 7.01251
H 7.3922 -11.4531 6.70064
O -6.92826 4.58936 13.2821
H -7.50943 5.03791 13.9612
H -6.29756 3.96513 13.7433
O -10.4949 -13.3176 -1.14758
H -9.83558 -13.6691 -1.81229
H -10.9067 -14.0815 -0.650633
O 4.69001 12.3979 -12.8234
H 5.06895 13.2493 -13.1861
H 5.40812 11.8891 -12.3483
O -13.6142 -5.60487 11.6633
H -13.3771 -5.47046 10.7011
H -14.4939 -6.07633 11.7271
O 1.76994 -9.67333 -3.0355
H 0.83337 -10.0234 -3.05563
H 1.92819 -9.09834 -3.83828
O -3.84114 0.596888 5.04345
H -4.41811 0.934568 5.78723
H -2.87871 0.704251 5.2931
O -13.6598 1.3977 1.47401
H -13.1017 0.720203 1.95318
H -13.101 1.86609 0.789607
O -5.15765 13.5784 -2.7562
H -4.31285 13.5588 -3.29103
H -5.94366 13.5317 -3.37275
O -7.2067 0.167886 -10.0829
H -7.25271 -0.276162 -9.18804
H -6.76156 1.05864 -9.99056
O 1.95984 -1.29993 6.51344
H 1.01655 -1.63066 6.4826
H 2.37716 -1.56337 7.38325
O -13.9103 -1.80838 -13.0244
H -14.9037 -1.8306 -13.1376
H -13.6647 -1.08695 -12.3769
O -4.22708 6.34142 5.35777
H -4.00767 6.42646 6.32975
H -4.62789 7.19717 5.03041
O -8.29102 -12.8175 -5.10115
H -7.36337 -13.1911 -5.10846
H -8.85746 -13.3442 -4.4672
O 4.69859 -9.98526 -9.27899
H 5.1576 -9.27235 -8.74871
H 4.91982 -9.87455 -10.248
O -8.17965 -0.385716 1.20895
H -7.19355 -0.468525 1.0645
H -8.53701 -1.2468 1.57082
O -0.169232 -10.3002 -9.73002
H 0.0420802 -10.2404 -8.75437
H -0.847255 -11.0197 -9.88071
O -13.6556 -7.8278 -0.224076
H -14.5372 -7.58552 0.181191
H -12.9195 -7.57655 0.404491
O 13.3059 -0.191013 -10.1473
H 13.5064 -1.13921 -9.90064
H 13.7881 0.424679 -9.52397
O -0.266814 7.8153 12.125
H -0.291 8.37903 11.2993
H 0.546071 8.04373 12.6608
O 6.38814 14.5359 -13.2335
H 6.69608 14.7017 -14.1704
H 7.14082 14.1524 -12.6981
O -3.24309 9.54105 2.37202
H -4.15059 9.85081 2.08807
H -3.30355 8.60456 2.71763
O -14.4734 -10.1752 2.19884
H -14.2384 -10.8862 2.86171
H -14.4284 -10.5535 1.27419
O -9.98736 -1.40374 -8.55817
H -9.86584 -2.37954 -8.37602
H -10.1484 -1.26458 -9.53531
O -6.63325 2.49568 -12.6543
H -6.55722 1.96699 -13.4998
H -6.32145 3.4318 -12.8174
O -12.0687 -9.94299 -4.52421
H -12.1042 -8.94672 -4.60359
H -11.9481 -10.3456 -5.43166
O 10.3454 -0.26923 13.5328
H 10.5815 0.416915 14.2209
H 10.4977 -1.18368 13.9079
O -12.5101 8.87711 9.54792
H -11.5103 8.86866 9.52724
H -12.8269 9.70393 10.0128
O -14.2866 -6.30678 -2.60684
H -14.3638 -6.87161 -1.78518
H 14.8324 -5.73166 -2.6937
O 3.54002 -11.283 4.35598
H 2.56087 -11.0901 4.42081
H 3.68847 -12.0464 3.72727
O 4.17289 2.75949 -6.53126
H 3.29581 2.59613 -6.9831
H 4.91815 2.5171 -7.15252
O -14.8894 -7.96039 9.31004
H -14.5152 -7.09305 8.98172
H -14.239 -8.38757 9.93822
O -3.85134 6.25478 -1.70298
H -3.77411 5.32607 -1.34012
H -4.7504 6.6283 -1.47431
O 1.2707 -7.78017 7.05073
H 2.06247 -8.36241 6.86574
H 0.506394 -8.34557 7.36102
O -0.370228 13.1904 -5.57977
H 0.131522 12.411 -5.95526
H -0.406314 13.9226 -6.25997
O 7.12263 -8.04235 4.7804
H 6.90858 -8.98537 4.52541
H 6.27452 -7.51921 4.86495
O 2.08168 4.2966 -10.654
H 1.70278 4.63784 -11.5143
H 1.3609 4.26536 -9.96142
O 9.04726 -14.1465 -9.70051
H 9.87392 -13.6055 -9.85533
H 8.24343 -13.5566 -9.77734
O 3.18819 -12.6254 -9.38693
H 3.86735 -13.3138 -9.64184
H 3.65381 -11.8012 -9.06447
O 1.02845 11.3073 3.85774
H 0.825234 11.275 4.83641
H 1.20736 10.3818 3.5237
O 1.03818 8.50863 2.97232
H 1.14674 7.59133 2.58904
H 1.0253 9.18012 2.23133
O -10.3971 4.82648 6.12578
H -10.5741 4.88167 5.14307
H -9.53588 5.28948 6.33583
O -3.31828 -6.53409 2.89027
H -3.23247 -5.64984 2.43108
H -3.51641 -7.24327 2.21356
O 12.1134 -12.5017 13.7577
H 11.3423 -12.1044 13.2599
H 11.77 -13.0963 14.4848
O 9.41815 13.5603 3.21068
H 9.3923 14.1375 2.39437
H 9.07545 14.0771 3.99528
O 14.7339 1.68781 13.6387
H 13.7896 1.6203 13.9609
H 14.7388 1.84477 12.6511
O 4.11417 6.44261 11.1539
H 4.30514 7.24386 11.7211
H 3.3506 6.64309 10.54
O 0.83127 1.44612 -12.7887
H 1.43436 0.673861 -12.5886
H 1.07396 1.8373 -13.6765
O 13.6436 5.14474 9.8417
H 14.5022 5.65102 9.92347
H 13.769 4.21693 10.1932
O 13.8233 -4.83694 -7.18087
H 13.0913 -4.62519 -6.53327
H 14.1241 -5.78122 -7.04683
O -13.2957 -0.995285 -7.24953
H -13.5982 -1.89319 -7.56953
H -12.5906 -1.11091 -6.54985
O -6.7517 -13.1987 -14.391
H -7.10749 -12.6073 -13.6673
H -6.09539 -12.6879 -14.9464
O -6.17522 -14.8362 9.99435
H -6.07346 14.3732 10.6777
H -7.08946 -14.4371 10.065
O -2.70298 -13.4575 -4.82968
H -2.57656 -12.4659 -4.85808
H -2.22311 -13.877 -5.60034
O -4.58608 1.4763 2.17242
H -4.69534 1.14214 3.10865
H -4.96989 2.39695 2.10017
O 11.7261 0.260244 -12.3411
H 12.1188 -0.0354847 -11.4703
H 10.7306 0.307652 -12.2589
O -14.8335 10.9368 -2.86846
H -14.9381 10.8301 -3.8573
H 14.3189 10.5179 -2.40361
O -7.4664 -8.906 11.7876
H -6.50821 -8.63752 11.688
H -7.91846 -8.86473 10.8965
O 8.76668 12.5572 7.09185
H 8.92196 11.7041 7.59001
H 9.49002 13.2105 7.31591
O -5.79356 -4.02321 10.8126
H -6.73465 -4.31889 10.9771
H -5.41025 -4.54115 10.0478
O -4.99764 4.06509 -9.12322
H -5.06417 3.09101 -9.33971
H -4.08772 4.39969 -9.36857
O 6.9574 10.826 -11.4169
H 7.24636 11.4443 -12.1478
H 7.22783 9.89061 -11.6452
O 8.47772 5.5825 4.39114
H 8.1126 6.42745 4.78214
H 9.45715 5.6903 4.22023
O 1.2064 10.6766 6.85524
H 1.48006 9.78181 6.5022
H 0.216052 10.782 6.76456
O 9.91408 6.09026 -3.49146
H 10.3477 6.30428 -2.6161
H 9.74699 6.93707 -3.99655
O -2.42227 -1.73925 -2.90936
H -1.88276 -0.962702 -2.58373
H -2.69837 -1.57926 -3.85715
O 1.9259 13.1906 13.654
H 1.10971 13.5799 13.2269
H 2.43798 13.9148 14.116
O 8.72374 -9.0991 -0.306031
H 9.34743 -9.42012 0.406766
H 9.03761 -8.21394 -0.649685
O -4.06947 4.76357 10.2559
H -4.12205 5.3222 11.0837
H -4.82162 4.10451 10.2502
O -12.2973 10.3439 -13.4849
H -12.3987 9.50204 -14.0151
H -12.1014 11.1054 -14.1028
O -1.80563 7.47359 -2.79304
H -1.86366 8.40312 -3.15736
H -2.71341 7.17305 -2.50024
O 6.40885 7.04569 10.0715
H 5.55977 6.63569 10.4048
H 7.06035 7.12311 10.8262
O 4.70322 -4.33232 -3.87734
H 4.31034 -4.08834 -2.99064
H 3.97415 -4.39543 -4.55896
O -14.9248 -4.56584 -10.4599
H -14.0413 -4.43183 -10.909
H 14.834 -5.54471 -10.3515
O -11.4612 -4.17438 10.8999
H -10.4985 -4.05185 11.1415
H -11.8837 -4.82322 11.5328
O -12.4038 -9.72004 14.1856
H -12.9621 -9.13184 14.7708
H -12.1519 -10.5473 14.6878
O 6.96727 -14.5962 3.05382
H 7.76877 -14.4601 3.63623
H 6.15684 -14.7219 3.62611
O 5.73426 4.70575 4.35415
H 6.61507 5.16146 4.48305
H 5.19462 5.20835 3.67865
O 12.4689 12.6146 12.0938
H 12.5236 12.4612 13.0805
H 11.7181 12.0744 11.7136
O 8.5158 13.8345 -11.89
H 8.45427 14.5387 -11.1826
H 9.47064 13.5605 -12.0054
O -8.93239 4.58282 -11.9162
H -8.5698 4.27166 -12.7947
H -9.8711 4.2553 -11.8082
O 3.77736 -8.83954 5.57173
H 4.27816 -9.07746 6.40403
H 3.79892 -9.61232 4.93733
O 8.87414 -13.0557 -4.79125
H 8.63455 -13.9354 -5.20215
H 9.82867 -12.8403 -4.99767
O -12.0409 -10.6114 9.10895
H -11.9236 -11.5917 8.94925
H -12.4038 -10.4647 10.0293
O 2.52398 -8.26002 -8.11704
H 3.31857 -8.57472 -8.63637
H 1.96595 -9.04657 -7.85233
O -8.12447 12.8061 13.2627
H -7.85733 13.7692 13.297
H -8.13067 12.4955 12.3121
O -6.97628 -14.0647 3.22424
H -7.78623 -14.4978 2.82855
H -6.57169 -13.4407 2.55563
O -13.637 7.54723 7.13366
H -13.9828 6.65163 7.41376
H -12.9062 7.83141 7.75434
O 8.56233 5.23907 8.81682
H 9.22494 4.92894 9.49865
H 7.96989 5.9362 9.22073
O 3.72513 2.16509 0.211061
H 4.3342 1.38722 0.0559202
H 4.26949 2.99364 0.342558
O -14.181 11.2847 -5.90242
H -14.4347 12.2203 -5.65661
H -13.6686 11.293 -6.76122
O -4.10023 -10.3343 -11.067
H -3.21361 -10.7962 -11.093
H -4.12126 -9.61393 -11.7603
O -2.05132 -11.8739 -11.2477
H -2.22753 -11.8243 -12.2309
H -2.46257 -12.7067 -10.877
O -1.1059 -5.61107 -6.63839
H -0.290005 -5.64058 -7.21594
H -1.89499 -5.93681 -7.1593
O -13.6372 -11.4992 5.54706
H -13.2995 -12.0593 6.30363
H -14.5211 -11.1024 5.79482
O -5.58856 0.672941 14.6243
H -5.54595 -0.278562 14.9292
H -6.5089 0.874645 14.2891
O -8.20632 1.27216 13.4461
H -8.19303 1.17097 12.4513
H -8.96125 0.737146 13.8256
O -7.25167 -4.55726 5.50299
H -7.17272 -5.18125 6.2805
H -8.16222 -4.14374 5.49858
O -13.7914 3.65579 14.8316
H -12.891 3.70736 14.3996
H -14.269 2.83802 14.5103
O 9.71221 8.69817 3.04316
H 9.5949 9.67209 2.84867
H 10.6672 8.51805 3.27919
O -1.95047 9.24995 -13.4068
H -2.51845 9.3395 -12.5886
H -1.52684 8.34416 -13.421
O -7.74391 -2.28653 -14.9545
H -7.7854 -3.26537 -14.7538
H -7.63644 -1.77564 -14.1015
O 10.5196 -5.64558 -7.14108
H 10.1529 -5.12276 -7.91066
H 10.813 -5.01699 -6.42072
O 1.10366 -11.9801 -5.49169
H 0.607903 -12.0782 -4.62871
H 1.40997 -12.8794 -5.8042
O -10.5248 -13.4219 6.10109
H -10.7304 -13.1649 5.15673
H -9.57208 -13.1986 6.3074
O 14.9138 -10.8345 -12.7658
H 14.7593 -11.7094 -12.3066
H 14.7214 -10.9321 -13.7424
O -6.9228 -9.48085 6.51495
H -7.89495 -9.61175 6.70964
H -6.81961 -8.88223 5.72051
O 2.36489 -4.42048 -5.67855
H 1.8415 -3.61579 -5.39809
H 2.09962 -4.68401 -6.60607
O 12.9811 -9.31929 -0.212737
H 13.3244 -8.40044 -0.0177864
H 12.0737 -9.42917 0.19293
O 10.3391 -7.67428 -11.3958
H 10.6445 -6.96985 -12.0366
H 9.4236 -7.44782 -11.063
O -9.65178 9.8317 6.67061
H -10.4458 10.0975 6.12384
H -9.13198 10.6481 6.92237
O 6.71122 -7.99569 -12.9215
H 7.14732 -7.34562 -12.2991
H 6.17743 -8.65612 -12.3932
O 7.84096 10.772 10.889
H 8.1179 10.6976 9.9309
H 6.91251 11.1402 10.9399
O 3.44553 -5.51455 9.74615
H 2.65219 -5.19409 10.2639
H 4.28331 -5.26804 10.2335
O 6.043 5.65085 -4.40346
H 6.29973 5.14909 -3.57736
H 6.66136 6.42693 -4.52777
O 10.3176 -9.1633 -14.1308
H 9.89818 -10.0455 -13.9167
H 10.2728 -8.56921 -13.3276
O -4.10942 8.66356 -5.52179
H -3.47409 7.90713 -5.67771
H -4.53095 8.92895 -6.38897
O 4.76154 4.4033 13.2226
H 4.02392 4.33864 13.8948
H 4.42942 4.87898 12.408
O -7.87575 -11.415 4.57185
H -7.68563 -10.5012 4.21274
H -7.40929 -12.0978 4.00948
O 13.8884 -2.56018 -8.96614
H 13.4644 -2.9573 -8.15213
H 14.3367 -3.28158 -9.49409
O -2.73371 -6.19884 -14.45
H -3.57637 -6.10917 14.9515
H -1.9469 -6.01822 14.8922
O 7.06511 0.431357 -6.44383
H 7.09947 1.10399 -7.18309
H 7.99177 0.25128 -6.11368
O 9.88462 13.2093 -4.92083
H 10.5417 13.1007 -5.66685
H 9.12732 13.7872 -5.22511
O 14.9179 14.3029 0.419408
H 14.9391 14.0762 1.39321
H 14.0021 14.1296 0.0566931
O -6.14575 7.55104 10.895
H -5.53357 6.9788 11.4408
H -6.95018 7.79132 11.4384
O -1.23693 -7.35258 -2.77923
H -1.28116 -6.51716 -2.2313
H -0.574797 -7.23145 -3.51885
O -3.5602 -5.32989 -11.2569
H -4.34968 -4.78413 -11.538
H -2.93737 -5.43877 -12.0317
O -1.2219 -14.6194 -7.29491
H -0.357982 -14.3619 -7.72788
H -1.94639 -14.0033 -7.60417
O 1.94731 2.24647 -7.92658
H 1.30354 2.97802 -7.70184
H 2.06816 2.20181 -8.91831
O 1.43913 -13.7745 5.67222