2593
Atoms. Timestep: 18495000
O -9.96723 -12.6019 2.51247
H -9.40242 -12.5227 1.69111
H -10.7255 -11.9522 2.45946
O -12.4335 -3.38184 1.02227
H -12.734 -3.04167 0.131256
H -13.167 -3.25871 1.69069
O -3.56601 -12.8942 -0.356042
H -2.82921 -13.2773 -0.913038
H -3.60236 -11.9035 -0.487195
O 9.49918 0.950161 -5.09358
H 9.67684 1.48889 -4.2701
H 9.01828 1.51502 -5.7641
O -11.2838 7.1091 4.29638
H -11.3548 8.09682 4.43528
H -12.198 6.72357 4.17141
O -9.62357 -0.922214 -4.30877
H -9.32635 0.00140228 -4.55065
H -8.8233 -1.49064 -4.11805
O 2.72413 9.26183 12.208
H 2.98639 8.32112 11.9931
H 3.54545 9.80611 12.3786
O 6.1262 7.78083 -9.73767
H 6.3863 6.85929 -10.0258
H 6.74699 8.09285 -9.01851
O 3.10351 11.8452 -0.082845
H 3.83257 12.5286 -0.0477948
H 2.21627 12.3054 -0.112264
O 5.79998 -9.52449 14.5958
H 5.99921 -10.1109 13.8108
H 6.64615 -9.33577 -14.5923
O 11.3748 9.32378 6.00024
H 11.2948 9.86482 5.1631
H 10.6575 8.62728 6.01676
O 10.3014 4.85797 9.36656
H 10.2411 3.92793 9.72893
H 11.0699 4.91837 8.72966
O -1.22774 0.148793 -7.562
H -1.14666 1.04734 -7.13078
H -0.39116 -0.374815 -7.40112
O -4.19394 -3.18944 14.187
H -4.78312 -3.89184 14.5863
H -4.3525 -3.14252 13.2008
O -6.0663 -2.24476 9.01082
H -6.42517 -1.31993 8.88504
H -5.25867 -2.3701 8.43468
O 6.22853 -3.66764 -2.43763
H 6.7181 -4.3649 -1.91414
H 6.33544 -2.77933 -1.9911
O -5.68935 -11.6722 -12.2547
H -5.63655 -10.6753 -12.1974
H -4.95942 -12.0769 -11.7039
O -12.0824 2.90512 -3.61526
H -11.4192 3.27011 -4.26861
H -11.7862 3.11977 -2.6846
O -1.25518 -3.24151 5.51902
H -2.12577 -3.18113 6.00722
H -1.0436 -4.20082 5.33228
O 4.62468 -3.85412 7.91003
H 4.38216 -3.97697 8.87232
H 3.96874 -3.2357 7.47733
O 13.2592 9.5232 10.3756
H 12.2978 9.59013 10.6423
H 13.3553 9.76877 9.411
O -9.33984 -1.67299 5.10172
H -8.57458 -2.12189 5.563
H -9.78217 -2.32132 4.48209
O 7.94582 -10.4582 -13.0637
H 8.62544 -9.83744 -12.6729
H 8.40431 -11.2711 -13.4227
O 0.269356 0.158573 -2.17312
H 0.578186 0.915543 -1.59733
H 0.888569 -0.618721 -2.0622
O 10.9797 9.4182 14.803
H 11.4271 9.98979 14.1152
H 10.9603 9.9027 -14.0089
O 10.756 9.43048 -0.249088
H 10.1864 9.6471 0.543771
H 10.2748 9.69061 -1.08617
O -7.15084 -10.2871 4.38506
H -7.23559 -11.2528 4.6302
H -6.18377 -10.0345 4.3548
O 9.81841 14.4462 0.388701
H 8.93195 14.6146 -0.0423183
H 10.55 14.6724 -0.254377
O 12.2395 1.0221 -0.935342
H 12.3761 0.658565 -0.0138771
H 11.9965 1.99045 -0.878977
O 7.48557 1.60669 0.399066
H 8.28893 1.01216 0.366615
H 7.29416 1.95864 -0.517128
O 14.6773 -4.60149 13.7939
H -14.2784 -5.20272 14.117
H 14.0921 -4.34505 14.5631
O -10.072 -12.6359 -12.827
H -9.31576 -12.6262 -12.1728
H -10.8537 -13.1133 -12.4258
O 12.4483 7.88741 3.15566
H 12.1493 7.31976 2.38865
H 13.0394 8.61979 2.81776
O -13.2764 0.704386 -11.5033
H -12.7606 0.162372 -10.8399
H -12.9167 1.63718 -11.5233
O 6.53795 -2.78503 11.855
H 7.18819 -3.5317 11.9949
H 5.63193 -3.16323 11.6653
O 7.10789 -10.7943 -10.5812
H 6.38523 -11.4792 -10.6737
H 7.53203 -10.6348 -11.4726
O -1.44194 14.5889 13.352
H -0.835185 13.8565 13.0433
H -1.4408 -14.358 12.679
O -4.77999 14.5786 5.31996
H -5.27241 -14.7966 6.13271
H -4.40914 -14.3177 4.832
O -13.1768 -10.0886 14.043
H -13.705 -9.65379 13.3137
H -12.6625 -9.39175 14.5429
O 2.74521 1.24437 -6.92315
H 2.3527 1.42316 -6.021
H 3.68241 1.59171 -6.95366
O 13.5499 -6.52671 -9.86051
H 14.1811 -6.30905 -9.11616
H 14.065 -6.87726 -10.6426
O 14.5227 10.2794 -2.27504
H 13.9614 9.49493 -2.53861
H -14.1994 10.0673 -2.43276
O 8.0931 -3.70813 -8.34369
H 7.22837 -3.32021 -8.02482
H 8.69437 -3.87011 -7.56129
O 9.76937 4.31577 -5.66356
H 10.7258 4.04725 -5.54908
H 9.37933 4.54763 -4.77248
O 13.2346 -4.88847 -2.11937
H 12.6241 -5.15908 -2.86367
H 14.1826 -4.92754 -2.43499
O 14.0677 -4.68328 6.8604
H 14.6927 -4.21297 6.23746
H 13.1516 -4.70478 6.46003
O 13.241 1.22579 -3.78589
H 12.8842 1.31939 -2.85647
H 14.2332 1.10629 -3.75152
O -9.77494 -0.61664 8.84234
H -10.3239 0.00608393 8.28489
H -9.79825 -1.53204 8.44058
O -0.693988 -11.1187 5.0695
H -0.238427 -10.3845 5.57275
H -1.09405 -11.7678 5.71643
O -2.06868 -5.64726 -1.31955
H -1.36499 -6.32237 -1.54082
H -2.62157 -5.98021 -0.555761
O 0.137719 13.6417 -10.5834
H -0.500765 12.8852 -10.7249
H -0.2377 14.475 -10.9891
O -13.7731 4.40425 12.7989
H -12.9188 4.75815 13.1794
H -13.5689 3.69462 12.1246
O 5.3842 -12.4433 -6.31652
H 5.53274 -11.5703 -6.7811
H 4.98317 -13.0979 -6.9573
O -6.42428 -4.51968 14.4442
H -7.08799 -4.09146 13.831
H -6.52469 -5.5137 14.4022
O -5.02461 4.38621 14.5628
H -5.27294 4.71576 -14.2129
H -4.53989 3.51538 14.6441
O -1.55368 -7.16799 -4.17551
H -1.79615 -7.55823 -3.28735
H -0.695328 -6.66154 -4.09391
O -13.1424 4.14527 7.65181
H -12.5399 4.38872 6.89181
H -12.5974 3.77391 8.40347
O 3.59873 0.244486 8.81684
H 4.08844 -0.0567399 9.63499
H 3.7931 1.21089 8.64894
O -2.93265 8.75896 -1.45052
H -2.61209 9.2296 -0.628548
H -2.44366 7.89248 -1.55057
O 0.839591 8.10155 -0.820685
H 0.0556859 7.48376 -0.759528
H 1.58659 7.64532 -1.30418
O -13.8201 5.96219 3.41702
H -14.1665 5.02413 3.42
H -14.3835 6.52741 4.01954
O 7.35411 -4.11873 1.34379
H 6.59181 -3.47717 1.25879
H 8.14054 -3.65044 1.74647
O -10.3957 -7.21538 -6.29729
H -9.68331 -6.62721 -6.67992
H -10.5404 -6.98139 -5.33591
O 3.3502 -6.59443 -8.44444
H 3.47904 -7.01902 -7.54832
H 3.5833 -7.25155 -9.16122
O 3.58017 6.72799 12.5019
H 2.95415 6.00882 12.8032
H 4.52394 6.42789 12.6403
O -4.4715 7.67969 -10.7321
H -4.68437 7.3925 -9.79824
H -3.64249 7.21488 -11.043
O 12.7401 14.2546 12.6268
H 12.7869 14.6172 13.5576
H 13.6082 13.815 12.3963
O 4.61792 -13.56 11.0694
H 3.83975 -13.9471 11.5638
H 4.8509 -14.1523 10.2981
O 2.30919 -7.6966 10.6187
H 2.91352 -7.81642 9.8311
H 2.84579 -7.74571 11.4611
O -5.24645 3.33261 -7.71866
H -6.01041 3.32955 -8.36385
H -5.07488 2.40016 -7.40082
O -11.7772 -1.37915 -13.0536
H -10.8343 -1.43643 -13.3815
H -11.8755 -0.58115 -12.4591
O 13.5741 2.2044 10.1822
H 13.4018 2.05544 9.20849
H 13.6125 1.32282 10.6525
O 14.768 -4.76994 9.68841
H 14.3222 -4.12018 10.304
H 14.252 -4.82716 8.83379
O 14.7513 13.0426 -13.8821
H 14.1068 12.6008 -13.2581
H -14.8431 12.4915 -14.7113
O 0.677342 -5.12912 -0.0993184
H 1.24988 -5.76447 0.418794
H -0.27691 -5.23726 0.179292
O 8.59345 -9.7632 -3.28198
H 9.57234 -9.80435 -3.48196
H 8.07519 -9.86766 -4.13075
O -7.27791 -8.60985 9.45501
H -7.38152 -8.93738 10.3941
H -6.78573 -9.29335 8.91602
O -6.54439 -1.28639 2.33216
H -6.06616 -1.19323 3.2054
H -7.28817 -1.94779 2.42838
O -5.47622 9.31259 14.7293
H -4.87025 9.9201 14.2158
H -5.96379 9.83898 -14.2607
O -8.32544 -9.86791 -12.1158
H -8.10666 -9.70764 -13.0782
H -8.42297 -10.8501 -11.9552
O 14.6204 7.65583 -8.65445
H -14.8025 8.34205 -9.33232
H 13.6764 7.36999 -8.8193
O -12.5254 8.57975 14.7033
H -12.0064 8.04483 14.0366
H -11.8969 8.98545 -14.3196
O -12.8384 12.8662 10.5292
H -12.2715 13.2369 11.2649
H -13.3985 13.5971 10.1395
O -5.92153 -10.2569 1.2415
H -5.05503 -10.1982 0.745859
H -5.98944 -11.1482 1.68974
O -2.4685 3.22538 -3.75889
H -2.39619 2.81044 -2.85197
H -3.19676 3.91059 -3.75482
O -9.20134 3.34331 -4.6266
H -9.26158 4.18438 -4.08912
H -8.42775 2.79716 -4.30535
O 7.34913 -14.2795 -11.9376
H 7.92345 -14.7322 -11.2556
H 7.92026 -13.7117 -12.5303
O 11.0611 -10.3447 -4.40159
H 11.9293 -9.86584 -4.53069
H 11.2324 -11.2412 -3.99315
O 6.3376 8.3469 -14.695
H 6.10634 7.37576 -14.6372
H 7.01904 8.48507 14.2728
O -11.0973 12.2592 3.57616
H -10.5963 13.0612 3.25114
H -10.6308 11.875 4.37281
O -0.412419 -9.10057 -10.663
H -1.02998 -9.05287 -9.87798
H -0.75601 -8.5107 -11.3937
O -7.2837 -9.0945 12.092
H -6.81779 -9.42638 12.9122
H -8.12475 -8.62173 12.3547
O -4.06986 -14.2022 13.1367
H -3.2871 -14.8165 13.2361
H -4.9173 -14.7291 13.2016
O -7.6319 -2.75642 -7.50061
H -6.95016 -3.17457 -6.90036
H -7.37175 -1.81007 -7.69207
O -5.32934 -2.70173 0.312446
H -5.78668 -3.51338 -0.0508268
H -5.8882 -2.30115 1.03848
O 13.8039 3.08292 5.02636
H 13.1578 3.22164 4.27588
H 14.7276 3.30859 4.71692
O -1.89838 10.2387 3.22057
H -2.35533 10.0977 4.09878
H -0.966873 10.5663 3.37832
O 6.8581 -9.39599 3.09878
H 6.27024 -9.53188 3.89619
H 6.66718 -10.1044 2.41934
O 10.0115 6.53166 11.5565
H 10.7003 6.5237 12.2813
H 10.211 5.80508 10.8991
O 5.61815 -8.31548 -4.90915
H 6.14119 -8.7651 -5.63316
H 6.16288 -7.57539 -4.51489
O -3.87674 12.5642 -0.418704
H -3.13407 12.0074 -0.0467544
H -3.96351 13.4045 0.116371
O -9.79629 -11.7234 7.12778
H -10.2061 -10.9739 6.60798
H -9.0475 -12.1246 6.60023
O 2.56002 8.07752 8.62517
H 2.27987 8.70451 7.89832
H 1.74841 7.70225 9.07281
O 12.3233 -6.75862 14.7581
H 12.0165 -5.90771 -14.502
H 12.9754 -6.55005 14.0293
O 11.4972 12.3873 8.64639
H 12.0718 12.9508 9.23986
H 12.0588 11.6867 8.20632
O 2.02986 -3.99267 -5.32287
H 2.89378 -4.19335 -4.86105
H 1.28488 -4.4723 -4.85932
O 7.10577 -6.18443 -11.584
H 7.60818 -5.91242 -10.7633
H 7.6599 -5.99072 -12.3936
O 0.356597 -4.88557 -3.44632
H -0.369761 -4.2195 -3.27701
H 0.98862 -4.89369 -2.67147
O 5.54129 -1.69675 -11.0063
H 5.3696 -1.72834 -10.0217
H 5.97288 -0.825961 -11.2416
O 11.695 -4.28252 -14.2139
H 12.1515 -3.39398 -14.1691
H 10.7048 -4.15114 -14.1682
O -7.59741 -2.40103 -2.76497
H -6.93497 -1.66595 -2.90898
H -7.19162 -3.10623 -2.18364
O -2.27148 11.0427 -12.3251
H -1.6184 11.5138 -12.9179
H -3.07019 10.7686 -12.8606
O 1.02139 -3.84781 12.6555
H 0.18597 -3.79255 13.2023
H 1.69875 -4.40382 13.1372
O 12.6761 14.3688 9.94726
H 12.6928 14.4801 10.9409
H 13.5575 14.6474 9.56581
O 14.6262 -11.5089 -5.56248
H 14.6309 -11.5874 -4.56562
H -14.6734 -12.3389 -5.96401
O 8.46058 12.3786 -11.6415
H 8.90033 13.1118 -11.1229
H 9.08176 11.5977 -11.7068
O -2.35287 -9.51191 -8.74731
H -1.85139 -9.44703 -7.88463
H -3.27243 -9.86379 -8.57265
O 12.594 6.48387 -10.0643
H 12.2994 5.95265 -9.26996
H 13.0075 5.87278 -10.7392
O 7.22681 11.6357 8.71468
H 7.28718 12.5903 9.00633
H 7.382 11.0367 9.50022
O -11.5581 6.16538 1.35722
H -11.959 6.63174 0.568761
H -12.2323 6.11687 2.09409
O 12.2799 -11.3023 6.24267
H 12.0036 -11.2768 5.28196
H 12.8997 -12.0729 6.39092
O 1.52717 -2.8798 -10.3511
H 0.995792 -2.05196 -10.1716
H 1.91273 -2.83505 -11.2727
O 12.2887 -1.98353 6.92395
H 11.9171 -2.63061 7.58964
H 13.1167 -1.56275 7.29445
O 13.4545 11.3135 0.0604622
H 12.496 11.1505 0.294392
H 13.6624 10.8784 -0.815554
O -0.052046 10.987 -1.51954
H 0.407835 10.1002 -1.47524
H -0.380261 11.1461 -2.45061
O -2.33391 -3.07697 -7.40789
H -1.42935 -2.6508 -7.41612
H -2.26472 -3.99848 -7.02585
O 9.30198 -1.73957 2.35459
H 9.10072 -1.55906 1.39187
H 9.15113 -0.907529 2.88832
O 0.743784 -8.30737 -7.57214
H 1.53337 -8.16586 -6.9751
H 1.05558 -8.42426 -8.51502
O -1.32049 2.36463 6.42942
H -1.02347 3.22587 6.01715
H -0.631636 2.05345 7.08407
O -2.51951 0.648742 1.5248
H -1.73493 1.25439 1.65727
H -2.75709 0.216013 2.39441
O 1.1765 2.48538 -9.44267
H 1.51438 1.97898 -8.64938
H 1.44219 3.44608 -9.36269
O 7.07749 -11.4765 0.989983
H 6.51143 -11.0915 0.261111
H 6.64026 -12.2998 1.35195
O -3.32684 -1.90588 8.6062
H -3.38211 -1.42886 9.48331
H -2.61787 -2.60947 8.65355
O -0.752648 -5.84217 5.1886
H 0.0176528 -5.7207 5.81454
H -1.23055 -6.69236 5.40926
O 11.387 -4.92471 5.9108
H 11.1895 -5.81046 5.49087
H 10.7152 -4.25186 5.60126
O 0.188433 -13.4073 -12.4159
H -0.535019 -13.28 -13.0944
H -0.0301158 -12.8826 -11.5932
O 3.68867 9.31155 4.09227
H 3.32559 8.67824 4.77565
H 4.61551 9.58448 4.34993
O 2.79161 9.82828 -12.3823
H 2.30479 9.40717 -11.6171
H 2.68848 10.8219 -12.3367
O 4.9053 1.10172 0.655009
H 5.87919 1.06082 0.431879
H 4.6856 2.00466 1.02425
O 10.8219 -3.95997 11.7966
H 10.3665 -4.43927 12.5467
H 10.3084 -3.13267 11.5691
O -13.003 -12.69 -0.283961
H -12.7842 -13.6126 -0.601403
H -12.1569 -12.1737 -0.151602
O 12.3522 2.79252 -12.4928
H 12.9102 3.03067 -11.6979
H 12.7872 3.14235 -13.3224
O 1.62033 9.50583 -9.7308
H 1.54152 8.70074 -9.14298
H 0.766198 10.025 -9.70127
O -4.87081 5.01846 3.98439
H -4.3087 5.59857 4.57382
H -5.15102 5.53653 3.1763
O -8.78803 3.21727 11.4729
H -8.49914 2.25996 11.4776
H -8.05116 3.78956 11.8327
O 3.60322 2.79875 10.8176
H 2.8692 3.47685 10.8538
H 3.9845 2.67105 11.7331
O -11.1215 -6.65551 -0.123556
H -11.0209 -6.17186 -0.992973
H -11.1168 -5.9954 0.627541
O 3.57088 7.54172 1.64075
H 3.53473 8.18307 2.40709
H 2.94359 6.78206 1.81202
O 2.93727 -10.4631 -8.2683
H 2.90518 -10.3402 -9.26016
H 3.83869 -10.1953 -7.92826
O 9.98969 -9.53107 6.96365
H 10.7661 -10.1459 6.82514
H 9.21771 -10.0473 7.33437
O 8.32103 14.5155 -8.02105
H 8.47195 -14.2015 -8.21403
H 8.57251 14.3213 -7.07291
O 0.100385 -6.15702 11.1126
H 1.00188 -6.58763 11.0703
H 0.191792 -5.22647 11.467
O 3.39817 -2.46022 -12.3975
H 4.04506 -2.06102 -11.7478
H 3.89403 -3.02454 -13.0575
O -10.659 -3.17004 3.29056
H -10.1113 -3.99009 3.4563
H -11.3013 -3.34347 2.54403
O -8.61635 -5.49944 -7.82469
H -8.17424 -4.6187 -7.65512
H -9.51875 -5.34728 -8.22772
O 14.6307 12.4741 11.9205
H -14.117 12.6353 11.6162
H 14.359 11.5414 11.6835
O -10.2972 2.19648 -10.0038
H -9.72234 2.67085 -9.33716
H -10.8997 2.85586 -10.4534
O 9.91699 2.40381 10.239
H 9.2766 1.74369 9.84648
H 10.6441 1.9161 10.7221
O -7.10403 -12.797 5.24232
H -7.84912 -13.4636 5.2241
H -6.54313 -12.9462 6.05659
O -5.02947 9.26091 3.0001
H -4.87199 10.2464 2.937
H -4.7116 8.92878 3.88811
O 2.77204 5.96548 -13.8459
H 3.73277 5.73105 -13.994
H 2.21158 5.53889 -14.5557
O -1.83761 -12.0175 -5.6241
H -2.35364 -11.2212 -5.30877
H -1.21955 -11.7438 -6.36097
O 13.7416 -13.5044 6.80758
H 13.372 -14.1756 6.16504
H 14.7406 -13.5188 6.76669
O 13.9043 1.5475 7.24988
H 14.2331 0.604897 7.19253
H 13.9672 1.97782 6.34945
O -14.7596 -12.1591 -14.1906
H 14.1066 -12.4125 -14.7033
H -14.3017 -11.3977 -14.6494
O 4.67005 12.82 10.7097
H 4.54765 12.8442 11.7019
H 5.32198 13.5275 10.437
O 2.37484 4.13744 13.6683
H 3.22625 3.6267 13.5493
H 1.89236 3.79762 14.4756
O -3.97786 14.0828 9.50445
H -3.34681 14.7009 9.03577
H -4.91905 14.3712 9.32865
O -4.71871 10.1917 -3.17023
H -4.09736 9.67566 -2.58072
H -5.2849 10.7961 -2.60977
O -14.1517 3.11959 -0.299805
H -13.361 2.5075 -0.311758
H -14.8423 2.78455 -0.940681
O -4.17418 14.6774 1.18662
H -3.90691 -14.2284 0.621701
H -5.03663 -14.8054 1.64991
O 8.86502 6.87956 8.07461
H 9.23758 6.02727 8.44163
H 8.78212 7.55134 8.81065
O 6.7171 0.797154 -11.6911
H 7.54449 1.30027 -11.9405
H 5.91227 1.34396 -11.9217
O 3.5467 -7.91869 13.0417
H 4.20883 -7.27158 12.6639
H 4.02811 -8.61726 13.571
O -6.88472 -8.91585 -9.72833
H -6.77192 -7.96508 -9.43982
H -6.32168 -9.08793 -10.5366
O -13.6758 9.29369 5.99633
H -12.7846 9.20809 6.44175
H -14.0808 8.38636 5.8841
O -8.02219 11.2753 -9.2218
H -7.35359 10.5684 -9.45245
H -8.09813 11.9224 -9.98032
O 9.5017 12.4674 4.69523
H 8.62342 12.9443 4.66158
H 10.1958 13.0743 5.08234
O 14.0966 10.05 2.43665
H -14.8259 10.3863 2.98723
H 14.1163 10.4866 1.53724
O 1.19348 -14.5484 -8.52084
H 0.975335 14.6603 -9.37177
H 1.40714 14.4695 -7.80859
O -14.2023 -11.8845 11.6288
H -14.0162 -11.2054 10.9189
H 14.4987 -11.9363 11.7904
O -1.79568 -3.94459 9.42664
H -2.42073 -4.35192 10.0925
H -1.42925 -4.66034 8.8322
O 6.25962 12.7111 -13.7781
H 5.97961 11.8406 -13.3734
H 6.91874 13.1618 -13.1761
O 4.61223 14.2993 -0.690294
H 3.79187 14.7417 -1.05246
H 5.19419 -14.7025 -0.251701
O 0.119657 12.5075 -7.64961
H -0.400267 11.9715 -8.31465
H -0.275143 13.4234 -7.57806
O -9.51111 -3.79808 -0.487301
H -9.3906 -2.81113 -0.593713
H -10.1706 -4.12806 -1.16264
O 9.62847 1.17673 3.68302
H 9.34643 2.13078 3.58228
H 9.89507 1.00636 4.63161
O -0.938234 11.5425 -4.11624
H -0.963783 12.5418 -4.14187
H -1.82399 11.1789 -4.40465
O 13.8075 10.1141 -5.48502
H 13.9333 9.12332 -5.53536
H 14.1707 10.4525 -4.61701
O -4.37239 5.27346 -3.77789
H -4.47244 6.16025 -4.229
H -4.9209 5.26102 -2.94189
O -9.01498 1.22377 -12.2578
H -8.118 0.906861 -11.9497
H -9.49145 1.66563 -11.4977
O 10.0343 0.733502 -10.0457
H 10.9412 0.410903 -10.3166
H 9.41963 -0.0483798 -9.94215
O -3.91441 -0.464242 -6.38629
H -3.74953 -1.39244 -6.71971
H -3.07811 -0.10553 -5.97175
O 12.0782 1.27628 13.8471
H 11.3262 0.634055 13.6985
H 12.334 1.27214 14.8138
O 11.2749 -3.49763 8.87436
H 10.9028 -4.2009 8.26869
H 11.0947 -3.74764 9.82565
O -7.75446 3.87631 9.00265
H -8.37536 3.50303 9.69189
H -8.26277 4.47902 8.3876
O -9.31931 -0.645381 -0.199878
H -8.33336 -0.479413 -0.215974
H -9.76376 -0.0806563 -0.8952
O -2.03246 -3.25859 -2.63473
H -2.41191 -2.45707 -2.17268
H -1.99177 -4.0248 -1.99349
O -8.77669 12.8457 -11.1668
H -8.24465 13.6565 -10.923
H -8.89407 12.8101 -12.1593
O -12.2736 -6.74834 3.79991
H -12.4633 -7.60881 4.27271
H -13.1234 -6.38202 3.42084
O 9.57527 -0.905148 -0.43633
H 9.58608 -1.85137 -0.759522
H 10.4682 -0.486403 -0.601237
O -12.9021 -6.08496 -14.545
H -13.4249 -5.93107 -13.7066
H -12.2664 -5.32599 -14.6855
O -11.4529 -12.793 11.8676
H -11.0439 -12.4447 12.7111
H -12.4492 -12.7868 11.953
O -4.96997 11.9472 2.71971
H -5.50102 12.4347 2.02673
H -3.99862 12.1528 2.60093
O 10.0181 -14.7628 13.5221
H 10.8624 14.7538 13.0141
H 9.93091 14.2522 14.2579
O -10.6709 10.9467 -8.52123
H -9.68132 10.853 -8.63019
H -10.8866 11.8756 -8.22059
O -5.39574 3.0319 10.5994
H -6.21876 3.2823 10.0896
H -4.67706 2.76018 9.95936
O 10.9896 -13.1479 -9.6772
H 10.2412 -12.7227 -9.16812
H 11.8037 -13.192 -9.09827
O -4.64533 11.3882 7.0939
H -4.33682 11.7747 6.22481
H -3.8515 11.1266 7.64281
O 3.1382 -7.93499 -5.99394
H 4.11936 -8.10563 -5.9038
H 2.74849 -7.74649 -5.09255
O 13.2921 12.4846 4.17143
H 12.5792 12.2915 3.49737
H 13.7759 11.6389 4.3966
O -0.312324 3.36821 9.09923
H 0.258979 2.61831 8.76581
H 0.167148 3.8526 9.83094
O -13.2595 -2.24065 12.2495
H -13.0988 -1.35347 12.682
H -14.0865 -2.65282 12.6318
O -1.09925 10.5005 -10.0308
H -1.56497 10.5551 -10.914
H -1.70668 10.0761 -9.35937
O 10.2093 12.6762 -4.15081
H 10.2846 11.9945 -3.42311
H 10.0925 12.2139 -5.02977
O -10.0755 -10.305 4.63223
H -9.12692 -10.195 4.3355
H -10.6823 -10.2388 3.8402
O 4.28016 4.84733 -1.08609
H 3.60135 5.56786 -1.22744
H 5.1796 5.17555 -1.37454
O -11.1212 10.8263 -11.9317
H -11.0486 11.4419 -11.1471
H -11.2084 11.3639 -12.7703
O 9.3084 -5.52291 13.8688
H 8.96507 -5.0686 14.6907
H 9.72931 -6.39427 14.1207
O 7.72464 2.85732 -6.65488
H 8.6402 3.24001 -6.53155
H 7.71958 2.25603 -7.45384
O -11.2908 4.86628 5.83539
H -11.0403 5.67551 5.30407
H -10.7977 4.07071 5.48346
O 9.27902 10.897 -6.5516
H 9.68443 10.103 -7.00451
H 8.82577 11.4732 -7.23162
O 9.40475 -10.9535 -0.386991
H 9.16728 -10.9518 -1.35834
H 8.59046 -11.1615 0.154837
O 9.34063 -7.79804 -0.819105
H 9.75654 -8.70493 -0.752158
H 9.88874 -7.14097 -0.301666
O 9.30119 -12.8368 -13.9496
H 10.1509 -12.9222 -13.4293
H 9.38427 -13.3418 -14.8087
O 8.92468 8.21878 4.97058
H 8.65984 8.88421 5.66842
H 8.53703 7.32544 5.1977
O 8.11772 3.38016 12.1961
H 8.92862 3.03023 11.7272
H 7.47029 3.73564 11.522
O -12.1952 -14.1697 -12.0518
H -11.9845 14.8412 -11.3453
H -13.0741 -13.7381 -11.8487
O -9.31284 5.86375 7.85806
H -10.2887 6.06506 7.942
H -8.79832 6.43623 8.49637
O -12.7282 9.44416 -3.3195
H -12.5955 10.4318 -3.40244
H -12.433 8.9962 -4.16339
O -0.596966 -12.0342 -10.2503
H -0.558623 -12.3132 -9.29082
H -0.593723 -11.0359 -10.3075
O -5.16043 1.10562 12.5728
H -6.14519 0.949997 12.6498
H -4.99325 1.90077 11.9899
O 9.18519 6.01325 -2.77645
H 9.78017 5.89631 -1.98132
H 9.60313 6.66132 -3.41304
O -12.3267 8.56006 -6.27816
H -12.4288 7.61545 -5.9664
H -12.039 8.56572 -7.23581
O -11.5729 13.4382 -10.44
H -11.5284 13.2821 -9.4533
H -10.7203 13.1335 -10.8645
O -3.91894 5.03182 -0.0502504
H -4.10377 4.34619 0.653788
H -4.11645 5.94281 0.311678
O -3.24072 6.54103 14.8165
H -3.65933 5.68982 14.5
H -3.94819 7.14274 -14.4994
O -6.21146 11.2387 -6.88947
H -6.66334 11.7142 -7.64425
H -6.56062 10.3037 -6.82779
O -8.58991 8.74772 3.90416
H -7.9178 8.20077 4.40318
H -8.85415 9.53743 4.45774
O -2.81821 -9.40297 2.11492
H -1.87606 -9.71389 2.23984
H -3.12289 -9.62628 1.18906
O -5.0878 6.31877 -8.20296
H -4.98651 5.35848 -7.94316
H -4.3595 6.85728 -7.7793
O -5.93993 -13.9525 7.60021
H -6.26294 -13.3527 8.33223
H -6.13788 14.7828 7.8369
O -4.83133 13.2791 -13.6084
H -5.32576 14.0249 -14.0546
H -4.14138 12.9152 -14.2341
O 0.592439 10.9226 3.68931
H 1.27536 11.4835 4.15726
H 1.02063 10.4492 2.91961
O 13.8716 -12.75 -0.633596
H 14.7037 -12.7432 -0.0791022
H 13.3181 -11.9467 -0.413991
O -10.5133 8.4916 9.46337
H -10.9155 7.59661 9.65601
H -10.9186 9.17648 10.0688
O 12.6104 -10.2133 -13.4084
H 12.7402 -10.1125 -12.4221
H 13.4975 -10.3499 -13.8492
O 12.1836 -8.14178 10.5421
H 12.1787 -7.28279 10.0302
H 12.6659 -8.84125 10.0148
O -5.24904 4.79207 -12.4373
H -5.00672 5.54287 -11.8229
H -5.91791 4.1982 -11.9903
O 3.30548 14.3998 3.03185
H 2.42268 14.5668 2.59289
H 3.30734 13.4869 3.43999
O -2.06943 -13.0842 -14.0952
H -2.77059 -12.4304 -14.3795
H -2.1138 -13.8952 -14.6785
O -11.1798 -0.260069 -10.0517
H -10.6622 -0.975542 -9.58252
H -10.7263 0.621153 -9.91846
O -3.40234 -11.0165 9.298
H -3.51721 -10.9202 8.30934
H -4.04161 -11.704 9.6424
O 10.4886 -5.59295 0.306095
H 10.355 -4.69951 -0.12267
H 10.6837 -5.46988 1.27908
O 6.27032 3.69626 5.49971
H 5.43032 4.22494 5.37799
H 6.22575 2.86683 4.94295
O -9.54034 -5.69945 13.774
H -9.30002 -5.00178 13.0991
H -10.218 -5.32921 14.4093
O -12.7797 6.08847 -4.79133
H -12.9589 5.82092 -3.84464
H -12.7886 5.27629 -5.3746
O -9.55235 14.4845 2.73143
H -8.9085 14.1523 2.04223
H -9.78182 -14.2476 2.5406
O -3.97406 -10.1015 -0.64542
H -3.12546 -9.80238 -1.08163
H -4.60515 -10.4418 -1.34246
O -8.03084 13.1713 -4.94902
H -7.33184 12.7943 -5.55666
H -7.61195 13.8372 -4.33171
O 2.88271 5.44276 7.33809
H 2.68732 6.30233 6.86599
H 3.50345 5.61604 8.10266
O 4.62602 3.01294 -12.1809
H 3.83359 2.4256 -12.3452
H 4.53642 3.45111 -11.2865
O 12.3922 -0.257184 1.39879
H 13.3861 -0.320456 1.48877
H 11.9591 -0.621107 2.22333
O -6.35829 -6.44511 -9.01773
H -7.21483 -6.13578 -8.60474
H -5.72942 -5.67197 -9.09954
O 13.0521 -0.493969 -8.10923
H 12.5886 -0.304424 -7.24368
H 13.7826 -1.15971 -7.95735
O -7.61995 5.815 -9.51238
H -6.77801 5.73429 -8.97898
H -8.35563 6.15213 -8.92498
O 4.36425 9.78724 -8.45837
H 3.80768 10.0158 -9.25706
H 4.89896 8.96409 -8.64923
O 14.4921 -5.66131 3.58944
H 14.1833 -6.1672 2.78409
H 13.7009 -5.39754 4.14104
O -14.5925 -0.964198 7.82988
H -13.9946 -0.962712 8.6314
H -14.2926 -1.67313 7.19163
O -13.1187 11.6498 -6.4472
H -12.7307 12.0797 -5.63198
H -12.9345 10.6672 -6.42554
O -14.4762 12.4825 -9.86063
H -14.6053 11.5212 -9.61749
H -13.5623 12.6088 -10.2465
O 8.66537 8.85527 13.3418
H 9.46119 9.00799 13.9276
H 8.90235 8.20421 12.6207
O 2.63917 -13.3712 8.006
H 1.99522 -14.1304 7.91194
H 2.35942 -12.7896 8.76976
O 11.1261 0.625487 5.78903
H 11.627 0.0301887 6.41725
H 10.8408 1.45389 6.27097
O 3.38643 -1.6716 4.08623
H 3.47232 -1.43268 3.11904
H 3.8482 -2.54199 4.25681
O 12.5359 12.1371 -12.4248
H 11.5856 12.3364 -12.6636
H 12.6036 11.2009 -12.08
O -9.04196 7.41732 1.56751
H -9.16932 8.02845 2.34867
H -9.7493 6.71059 1.57842
O 6.54218 9.8983 10.9922
H 6.32581 10.2482 11.9036
H 7.49218 9.58685 10.9716
O -11.2688 -5.9585 6.28301
H -11.4423 -4.98959 6.45918
H -11.6874 -6.21928 5.41316
O -5.28371 -1.27901 4.75448
H -5.79359 -1.98919 5.23984
H -5.40227 -0.403945 5.22365
O 5.39443 -12.7028 -11.0081
H 4.54694 -12.4646 -11.4824
H 5.90905 -13.3621 -11.5562
O -13.6821 -0.207784 4.90331
H -13.4007 0.539358 4.30126
H -12.8715 -0.650872 5.28602
O -4.14656 2.14936 8.24975
H -4.89463 1.50499 8.40815
H -3.48575 1.74415 7.61805
O 12.7382 9.15952 -10.788
H 12.4875 8.23131 -10.5132
H 12.7292 9.75812 -9.98703
O 8.41651 -1.50181 -9.87973
H 8.27958 -2.40321 -9.46908
H 7.8258 -1.40738 -10.681
O 11.5331 4.27017 -8.60309
H 12.1667 3.51718 -8.42576
H 10.6627 3.90311 -8.93113
O -13.6166 12.5768 0.228704
H -14.6079 12.4467 0.248702
H -13.165 11.6874 0.158892
O 4.98132 -4.06737 -14.2382
H 5.17209 -5.04707 -14.299
H 5.81791 -3.57978 -13.9886
O -5.05228 8.08022 -4.75172
H -5.76271 8.14472 -5.45246
H -4.99807 8.94438 -4.25151
O 3.06281 -1.05499 1.11673
H 2.13946 -1.03777 0.733267
H 3.55629 -0.232322 0.834571
O -1.32387 -14.2647 9.1541
H -0.859235 14.5556 8.97035
H -1.1124 -13.9637 10.0839
O 9.79579 -1.54846 11.0001
H 9.53259 -1.12262 10.1344
H 9.45807 -0.993941 11.7606
O -12.9345 11.4503 7.92258
H -12.3905 10.6221 7.78805
H -12.7408 11.8333 8.82574
O -3.19534 4.43143 9.24922
H -3.60592 3.62642 8.8211
H -2.24525 4.23296 9.48974
O -14.615 -10.4786 2.1076
H -14.604 -11.4586 2.30598
H 14.5357 -10.0033 2.8054
O -11.4116 1.21592 7.13677
H -10.806 1.77748 6.57306
H -12.2256 1.74368 7.37918
O 1.00509 1.54773 7.84121
H 1.93468 1.82903 7.60324
H 0.85833 0.602204 7.55075
O -11.6649 13.5109 -7.85491
H -11.2312 13.9679 -7.07836
H -12.49 13.0383 -7.54526
O 7.80136 -5.4794 11.5875
H 8.18108 -5.79529 10.7181
H 8.42587 -5.71925 12.3307
O 7.87121 -4.25284 -4.85104
H 6.98342 -4.13157 -4.40715
H 8.1236 -5.22025 -4.83278
O -3.27431 -0.643954 11.1599
H -3.3656 -1.41216 11.7935
H -3.81647 0.127982 11.4918
O 11.3045 -14.5069 -5.53602
H 10.6883 14.4499 -5.23975
H 11.9204 14.8297 -6.24179
O 11.2503 -5.53661 -4.34707
H 11.9543 -6.05841 -4.82886
H 10.9614 -4.7648 -4.9134
O -7.97653 -12.6503 -11.3636
H -7.04938 -12.5184 -11.7142
H -7.96099 -13.3248 -10.6256
O 0.750666 13.5413 -0.448941
H 0.478161 13.627 0.509348
H 0.274139 12.7658 -0.862906
O 10.935 0.319472 -13.58
H 10.8308 1.12829 -13.0014
H 11.6855 -0.243457 -13.234
O -6.78945 9.2685 11.0261
H -6.06341 9.49889 10.3783
H -7.1746 10.1087 11.4077
O 1.60611 5.55994 3.20597
H 1.2894 4.93075 3.9157
H 1.71913 5.06256 2.34587
O 6.23658 1.47115 4.08538
H 6.48833 0.514491 4.23145
H 6.19222 1.65801 3.10404
O -8.46332 -5.06524 5.36376
H -8.31671 -5.63071 6.17534
H -8.99868 -5.57792 4.69259
O 11.4118 -10.9733 13.9362
H 11.7692 -10.5329 14.7598
H 10.4854 -10.6425 13.7567
O 12.1675 -3.94277 2.54541
H 12.2795 -3.07927 3.03709
H 12.2535 -3.78022 1.5625
O 0.980163 1.41433 3.08438
H 1.93157 1.64524 3.28793
H 0.653476 0.736476 3.74294
O -3.55423 -7.88767 -10.3475
H -3.05181 -7.05123 -10.1287
H -3.14628 -8.65895 -9.85904
O -3.73843 2.62044 4.32331
H -4.43746 3.33396 4.36976
H -3.48285 2.34343 5.24952
O -3.5855 -7.43793 8.22788
H -3.50026 -7.06226 9.15066
H -3.97737 -8.3566 8.27689
O -5.11552 -1.69014 -10.7118
H -5.3448 -2.04605 -11.6177
H -4.15346 -1.87755 -10.5138
O 2.88264 14.7185 13.1075
H 2.97922 14.3342 14.0257
H 2.52816 -14.0353 13.1722
O -0.270979 -12.8654 0.105022
H -0.834028 -13.4893 -0.43682
H 0.594991 -12.7022 -0.367622
O 6.0897 11.4935 -10.5894
H 5.74448 10.8044 -11.2264
H 6.84407 11.993 -11.0153
O -9.95704 6.83726 -4.02046
H -10.937 6.87209 -3.82458
H -9.47819 6.41442 -3.25116
O -13.2036 2.0999 11.0353
H -14.1767 2.30642 10.9342
H -13.0597 1.1153 10.9363
O 3.42994 2.30092 3.72748
H 3.55103 2.77002 2.85272
H 4.24997 1.76812 3.93627
O -10.9715 -8.75465 9.89047
H -10.7114 -8.53668 8.94987
H -11.7633 -8.20347 10.1535
O 1.14329 -8.70367 14.5064
H 1.41662 -8.16215 -14.3851
H 1.55159 -8.31367 13.6811
O -0.881029 -6.63329 -11.8426
H -1.22498 -6.18164 -11.0194
H -0.240095 -6.02649 -12.3126
O 5.60374 -10.9125 12.3156
H 5.42409 -11.7899 11.871
H 5.92588 -10.254 11.6355
O -8.74921 -10.4398 -4.26195
H -9.30472 -11.1387 -3.8115
H -8.96073 -10.4247 -5.23916
O 0.500705 -9.32873 7.04269
H -0.246026 -8.66636 7.10256
H 0.839775 -9.53265 7.96104
O -14.4819 9.09032 11.9992
H 14.5406 9.459 11.3487
H -14.6933 8.13046 12.1833
O 4.67248 10.7347 13.7197
H 5.04917 10.3533 14.5638
H 4.29455 11.642 13.9035
O -5.01692 -12.612 11.1553
H -4.68011 -13.2033 11.888
H -5.94173 -12.8928 10.8989
O -4.89101 -9.98733 -8.19927
H -4.99361 -10.9808 -8.15036
H -5.62333 -9.60393 -8.76196
O 4.73537 5.82894 5.09432
H 5.19073 6.37105 5.8005
H 3.77605 6.10367 5.03006
O 2.73926 1.35089 -13.5481
H 1.84731 1.75961 -13.7412
H 2.61729 0.394377 -13.2833
O -1.60913 -13.965 -1.90722
H -1.14035 -13.2871 -2.47342
H -1.37825 14.8028 -2.22745
O -7.96773 4.9641 3.25015
H -8.05147 5.90475 2.92139
H -7.46728 4.9569 4.11584
O -4.83554 14.7197 -10.3686
H -4.66558 13.7343 -10.378
H -4.00732 -14.483 -10.6512
O 10.3434 -13.2759 7.54422
H 10.5015 -14.2566 7.42955
H 11.0956 -12.766 7.12713
O 11.7879 -14.6874 -1.6513
H 12.1921 14.303 -2.24462
H 12.5152 -14.1485 -1.22627
O 0.951357 -2.1171 -13.4414
H 0.92223 -1.33955 -14.0694
H 1.87612 -2.21391 -13.0735
O -1.97172 10.0594 8.47593
H -1.43783 9.28763 8.82131
H -1.372 10.6802 7.97112
O 2.26189 4.73626 -7.52837
H 1.26469 4.70324 -7.59484
H 2.52594 5.33741 -6.77418
O -14.0568 -2.05239 -1.92968
H -13.6784 -1.19278 -2.27285
H 14.6482 -2.08344 -2.11854
O -12.7598 -14.5088 -14.8027
H -13.7103 -14.245 14.7198
H -12.4687 -14.1676 -13.909
O -13.3053 10.0837 -9.32136
H -13.1743 9.41293 -10.0513
H -12.4495 10.5764 -9.16398
O -1.0627 -6.16201 2.42614
H -0.854329 -6.01117 3.39244
H -1.78092 -5.52905 2.1373
O 4.50234 14.6618 -5.03631
H 5.36429 14.2007 -4.82567
H 4.69143 -14.1029 -5.37459
O 1.83318 14.8018 -4.94204
H 2.81348 14.6124 -4.88702
H 1.64419 -14.3407 -5.75952
O -1.14746 5.58118 -4.87768
H -0.336804 5.38797 -4.32503
H -1.85634 4.90497 -4.67733
O -3.8199 -11.0005 6.31245
H -2.96396 -10.4947 6.2055
H -3.94429 -11.6138 5.53252
O -0.851176 -1.30697 -4.30654
H -1.27904 -2.0607 -3.8078
H -0.427598 -0.675514 -3.65711
O 6.29508 -14.1483 5.3925
H 6.59759 14.8077 4.78036
H 7.01904 -13.4638 5.47786
O 12.5838 -0.123356 -10.8237
H 12.659 -0.184444 -9.82844
H 13.4572 0.177971 -11.2061
O -8.01329 -14.0727 -14.4409
H -8.19986 14.6697 -14.169
H -8.68089 -13.4643 -14.0119
O 14.7282 -0.0720864 -13.8686
H -14.8201 0.263035 -14.8006
H -14.2859 0.348923 -13.2599
O 14.2087 13.1462 -6.02165
H 13.6116 12.9844 -6.80726
H -14.7028 12.5151 -6.05647
O -8.1062 -3.49579 2.18665
H -8.12911 -4.45179 2.47897
H -8.53621 -3.4117 1.2878
O 14.3862 7.19363 -6.05382
H -14.8161 7.43198 -6.89562
H -14.6374 6.95768 -5.34337
O -5.89962 -10.1605 -2.66766
H -6.01185 -9.25345 -2.26195
H -6.58815 -10.2943 -3.38035
O -10.1271 -3.37394 8.09611
H -11.0756 -3.50169 8.38607
H -9.84265 -4.15109 7.53484
O -14.4127 3.25613 2.67726
H -14.5608 3.29707 1.68918
H -13.627 2.66919 2.87246
O 7.45755 -13.1602 -4.64133
H 7.6788 -14.1123 -4.85255
H 6.73593 -12.8415 -5.25582
O -11.3631 -8.22845 -14.6551
H -10.5809 -8.01709 14.4454
H -11.951 -7.42305 -14.5806
O -3.71468 0.713021 -9.06617
H -3.02654 1.1106 -9.67306
H -3.26166 0.280569 -8.28663