LAMMPS data file via write_data, version 15 May 2015, timestep = 1190000

4560 atoms
7 atom types
5040 bonds
3 bond types
7200 angles
2 angle types
10560 dihedrals
3 dihedral types
2400 impropers
1 improper types

-1.0763502675555259e-01 4.1387635026745990e+01 xlo xhi
-4.0433884491974936e-02 3.5938433884472119e+01 ylo yhi
-3.5711112484589691e-01 2.9555111124838550e+01 zlo zhi
-6.7234083837551181e-02 -1.7036217651000683e+01 -4.1707816797290791e-02 xy xz yz

Masses

1 12.0107
2 1.008
3 12.0107
4 12.0107
5 12.0107
6 12.0107
7 12.0107

Pair Coeffs # lj/cut/coul/long

1 0 3.55
2 0 2.42
3 0 3.55
4 0 3.55
5 0 3.55
6 0 0
7 0 3.55

Bond Coeffs # harmonic

1 469 1.4
2 367 1.08
3 469 0.7

Angle Coeffs # harmonic

1 35 120
2 63 120

Dihedral Coeffs # opls

1 0 7.25 0 0
2 0 7.25 0 0
3 0 7.25 0 0

Improper Coeffs # cvff

1 2.5 -1 2

Atoms # full

219 13 3 0.0000000000000000e+00 -3.0011748653762171e-01 3.1164791545976280e+00 3.1054835856407355e+00 1 0 0
220 13 4 -3.5999999999999999e-03 3.1520076622324988e-01 4.1013894262720774e+00 2.3674838213658047e+00 1 0 0
224 13 2 3.5999999999999999e-03 4.6003146867761480e-01 5.0851682122960167e+00 2.7616991184160109e+00 1 0 0
580 33 4 -3.5999999999999999e-03 2.6664630260135627e+00 6.7726484221260286e+00 3.9733586919284036e+00 1 0 0
228 13 3 0.0000000000000000e+00 -6.1373600921615501e-01 1.8429236040873453e+00 2.5600449200235369e+00 1 0 0
989 53 4 -3.5999999999999999e-03 -1.3433969844512421e+00 7.0350684361898610e+00 3.5037930850790535e+00 1 0 0
600 34 2 3.5999999999999999e-03 3.0696676579990978e-02 5.6698645522922231e+00 6.8669593966422546e+00 1 0 0
245 14 4 -3.5999999999999999e-03 -4.9100652728179126e+00 1.4331566203059947e+00 9.0695980716346121e+00 1 0 0
227 13 4 -3.5999999999999999e-03 -1.8725015114867238e-01 1.5290952267268978e+00 1.2643690040439268e+00 1 0 0
4390 233 1 -3.5999999999999999e-03 2.4069490121196622e+00 7.3576339166875537e-01 5.4476062030495678e+00 1 1 0
733 13 6 0.0000000000000000e+00 -4.4569691459504068e-01 2.4479073528471575e+00 2.9454989942064698e+00 1 0 0
993 53 2 3.5999999999999999e-03 -1.7891156047685659e+00 6.1539189791911966e+00 3.1260187328281526e+00 1 0 0
230 13 1 -3.5999999999999999e-03 7.6366341853555153e-01 3.8964834620476050e+00 1.0677117470206254e+00 1 0 0
217 13 7 -3.5999999999999999e-03 -1.2508199939292568e+00 2.3846564506718892e+00 5.2137308084452858e+00 1 0 0
218 13 5 -3.5999999999999999e-03 -5.9205437543447070e-01 3.3740728760411036e+00 4.4797422890269294e+00 1 0 0
221 13 1 -3.5999999999999999e-03 -1.5782331457674150e+00 1.1365734689098042e+00 4.6337087396387036e+00 1 0 0
222 13 2 3.5999999999999999e-03 -1.4281404410736545e+00 2.6020250984943805e+00 6.2219982221157499e+00 1 0 0
223 13 2 3.5999999999999999e-03 -3.0238966559965519e-01 4.2600104543449566e+00 5.0115796834908313e+00 1 0 0
248 14 1 -3.5999999999999999e-03 -3.6016381172794745e+00 3.4456884252182829e+00 8.6343867419111362e+00 1 0 0
4380 233 4 -3.5999999999999999e-03 2.5881477976173839e+00 1.1317699419253733e+00 4.1455479481832889e+00 1 1 0
244 14 1 -3.5999999999999999e-03 -4.1640523170077053e+00 2.2575890896571567e+00 8.2123262545563591e+00 1 0 0
603 34 2 3.5999999999999999e-03 9.6743097774710929e-01 3.5511157847481494e+00 7.4500916337394676e+00 1 0 0
4396 234 5 -3.5999999999999999e-03 -7.5183466962828671e-01 2.0300328642024906e-01 9.2287339203614156e+00 1 1 0
4394 233 2 3.5999999999999999e-03 1.8459893488085677e+00 1.3785378784537579e+00 6.0976017098815136e+00 1 1 0
579 33 3 0.0000000000000000e+00 3.3989944906372207e+00 5.8447764058485800e+00 3.1648798566979721e+00 1 0 0
252 14 2 3.5999999999999999e-03 -2.9168704141044706e+00 3.9628563918096296e+00 7.9904513132088137e+00 1 0 0
581 33 1 -3.5999999999999999e-03 4.6693578273735223e+00 4.0682540835054182e+00 1.4807770752351417e+00 1 0 0
596 34 5 -3.5999999999999999e-03 -5.2885467653033480e-01 6.3484249438320655e+00 8.8860925559058774e+00 1 0 0
577 33 7 -3.5999999999999999e-03 4.1288529334663018e+00 5.2573242306503811e+00 9.3182305344252470e-01 1 0 0
588 33 3 0.0000000000000000e+00 3.8150297882308419e+00 4.6241147859911793e+00 3.7274734170969559e+00 1 0 0
589 33 4 -3.5999999999999999e-03 4.4939654734827759e+00 3.7205535476046960e+00 2.8772064440531313e+00 1 0 0
593 33 2 3.5999999999999999e-03 5.0088685960583827e+00 2.8856261604599980e+00 3.2978578340616211e+00 1 0 0
753 33 6 0.0000000000000000e+00 3.6153869164326413e+00 5.1863394799743574e+00 3.2872808242408400e+00 1 0 0
4383 233 2 3.5999999999999999e-03 3.0929988808465358e+00 1.5081936929790409e+00 1.7369344348996547e+00 1 1 0
4379 233 3 0.0000000000000000e+00 3.2894541762941878e+00 2.3675109257457491e-01 3.3186623435943883e+00 1 1 0
578 33 5 -3.5999999999999999e-03 3.5005460182561396e+00 6.1421461853964665e+00 1.7928042636304351e+00 1 0 0
226 13 1 -3.5999999999999999e-03 5.2574509419618387e-01 2.5451752788625455e+00 5.1445863219068100e-01 1 0 0
4384 233 2 3.5999999999999999e-03 2.1845758960750006e+00 2.1562070725594360e+00 3.8758045796095573e+00 1 1 0
586 33 1 -3.5999999999999999e-03 3.1390286642074265e+00 5.3780506547528990e+00 6.0033387002312955e+00 1 0 0
587 33 4 -3.5999999999999999e-03 3.7909215092453330e+00 4.4246147199041488e+00 5.1792199222330133e+00 1 0 0
585 33 2 3.5999999999999999e-03 5.1758738814873588e+00 3.4111986178643323e+00 7.9729376880572156e-01 1 0 0
591 33 2 3.5999999999999999e-03 3.1428473851482153e+00 5.3109317743548292e+00 7.0312394330113639e+00 1 0 0
592 33 2 3.5999999999999999e-03 4.1268320202283668e+00 3.4890325719617636e+00 5.6277714195753719e+00 1 0 0
590 33 1 -3.5999999999999999e-03 2.5525065525361232e+00 6.5069749485329931e+00 5.3288517863607243e+00 1 0 0
584 33 2 3.5999999999999999e-03 2.2037544319392386e+00 7.5779617873763465e+00 3.5151078792039190e+00 1 0 0
234 13 2 3.5999999999999999e-03 1.3693436073613823e+00 4.6607601180708400e+00 6.3295277319851251e-01 1 0 0
229 13 4 -3.5999999999999999e-03 -1.2200239540592459e+00 8.5145311801577672e-01 3.3261080105522467e+00 1 0 0
986 53 1 -3.5999999999999999e-03 -1.7277101575194759e-01 8.9312267907820040e+00 5.6320532828752023e-01 1 0 0
985 53 2 3.5999999999999999e-03 -1.8306252160266236e+00 6.3640128788344121e+00 5.5074631220359231e+00 1 0 0
599 34 1 -3.5999999999999999e-03 4.4450741537197125e-01 4.1706229467948805e+00 8.2375486128655879e+00 1 0 0
4401 234 2 3.5999999999999999e-03 -9.7084202752479865e-01 1.1501023632026703e+00 8.9431490688790571e+00 1 1 0
225 13 2 3.5999999999999999e-03 -1.9214597400913216e+00 3.4367399458446013e-01 5.2817672573996752e+00 1 0 0
595 34 7 -3.5999999999999999e-03 -4.7341968112786681e-02 5.4512324659127378e+00 7.9332556930648366e+00 1 0 0
981 53 1 -3.5999999999999999e-03 -1.3040828237789568e+00 7.1999530613618257e+00 4.8901282108414081e+00 1 0 0
4378 233 5 -3.5999999999999999e-03 3.4310587736384797e+00 5.2809851871087221e-01 1.9325326575985797e+00 1 1 0
582 33 2 3.5999999999999999e-03 4.2622913227494035e+00 5.5546404887926268e+00 -9.1889638314770539e-02 1 0 0
583 33 2 3.5999999999999999e-03 3.0071685965458732e+00 7.0671829594643070e+00 1.3383019065259729e+00 1 0 0
1010 54 2 3.5999999999999999e-03 -5.0356963728524535e+00 6.2797327672849113e+00 8.5452327762812228e+00 1 0 0
232 13 2 3.5999999999999999e-03 -4.1074712401263591e-01 5.3086462919859190e-01 8.2877809972195449e-01 1 0 0
1493 53 6 0.0000000000000000e+00 -5.5408170510334132e-01 8.6681295264578324e+00 2.9631680303670374e+00 1 0 0
1009 54 2 3.5999999999999999e-03 -3.2348981752455295e+00 7.3607983352593127e+00 7.1625015979581494e+00 1 0 0
1005 54 4 -3.5999999999999999e-03 -4.5122590072070867e+00 7.1868491660621183e+00 8.9007731236142043e+00 1 0 0
594 33 2 3.5999999999999999e-03 1.9872883356927775e+00 7.1335922804982008e+00 6.0466802436130171e+00 1 0 0
977 53 7 -3.5999999999999999e-03 -6.4814951528124842e-01 8.2670977352768951e+00 5.5391914498951120e+00 1 0 0
982 53 2 3.5999999999999999e-03 -5.3100522340865819e-01 8.4019780324883513e+00 6.6149685948759060e+00 1 0 0
1004 54 1 -3.5999999999999999e-03 -3.4934437199521247e+00 7.8091801804843408e+00 8.1005502746539033e+00 1 0 0
988 53 3 0.0000000000000000e+00 -8.1311728496487212e-01 8.0752580486710102e+00 2.6950965785738830e+00 1 0 0
987 53 4 -3.5999999999999999e-03 -8.1073621188636213e-01 7.9599644307024473e+00 1.3518942169750288e+00 1 0 0
601 34 2 3.5999999999999999e-03 -8.5499907464581337e-01 7.3398105750088876e+00 8.6413379150348106e+00 1 0 0
1064 57 2 3.5999999999999999e-03 7.2498719365690976e+00 6.3789884264948515e+00 1.0498610223151386e+00 1 0 0
249 14 2 3.5999999999999999e-03 -3.8030057633202041e+00 1.9353138951744775e+00 7.2537497224751482e+00 1 0 0
1353 73 2 3.5999999999999999e-03 4.8965881788586474e+00 8.8537130045028984e+00 2.9842423538215970e+00 1 0 0
1008 54 1 -3.5999999999999999e-03 -2.8421040747949551e+00 8.9324556371575028e+00 8.4819386180359224e+00 1 0 0
235 14 7 -3.5999999999999999e-03 -5.2691734887362980e+00 2.2829825424496133e+00 1.3182213654148894e+01 1 0 0
236 14 5 -3.5999999999999999e-03 -4.5486844752053157e+00 3.1681010644214900e+00 1.2337676613158932e+01 1 0 0
597 34 3 0.0000000000000000e+00 -6.6899162882455432e-01 5.8349244356974070e+00 1.0205643417786609e+01 1 0 0
734 14 6 0.0000000000000000e+00 -4.6471510943801260e+00 2.3320458462691995e+00 1.0496963003266256e+01 1 0 0
239 14 1 -3.5999999999999999e-03 -5.9030113993443143e+00 1.1246658861818513e+00 1.2616917676900631e+01 1 0 0
240 14 2 3.5999999999999999e-03 -5.3983255837494903e+00 2.3666652705384221e+00 1.4265395901945460e+01 1 0 0
243 14 2 3.5999999999999999e-03 -6.5614188206530981e+00 6.1718228472302095e-01 1.3356725420101696e+01 1 0 0
4416 235 4 -3.5999999999999999e-03 -5.8446914950466828e+00 8.7602088104947962e-01 1.9062729114044519e+01 1 1 0
4420 235 2 3.5999999999999999e-03 -6.2375533542456765e+00 1.8455880181548843e+00 1.8873556978950148e+01 1 1 0
237 14 3 0.0000000000000000e+00 -4.3485413884796147e+00 2.8371796121099293e+00 1.0950749269733377e+01 1 0 0
4402 234 2 3.5999999999999999e-03 -1.8099233234866343e+00 1.7669578565307653e+00 1.1127185407835006e+01 1 1 0
1022 55 1 -3.5999999999999999e-03 -8.5100557601593732e+00 8.3094347110929156e+00 1.5284167204571080e+01 1 0 0
242 14 2 3.5999999999999999e-03 -3.3134978540344271e+00 4.6361925189620914e+00 1.0424699744804192e+01 1 0 0
255 15 3 0.0000000000000000e+00 -8.7674937185933217e+00 3.1121149442796043e+00 1.8178879181857631e+01 1 0 0
256 15 4 -3.5999999999999999e-03 -8.0510917552833234e+00 3.8774448261151413e+00 1.7203755783937630e+01 1 0 0
260 15 2 3.5999999999999999e-03 -7.5927035433800159e+00 4.8423956994019930e+00 1.7529498167506706e+01 1 0 0
611 34 2 3.5999999999999999e-03 8.0550616461270419e-01 2.7422561125846778e+00 9.8277565539407554e+00 1 0 0
4414 235 5 -3.5999999999999999e-03 -4.8779668573733517e+00 3.3004426200370157e-01 1.6860591493869048e+01 1 1 0
264 15 3 0.0000000000000000e+00 -9.3140286259579419e+00 1.8878268601181283e+00 1.7848710943434959e+01 1 0 0
262 15 1 -3.5999999999999999e-03 -8.4670067338635953e+00 2.1121784603928995e+00 1.5596729297711553e+01 1 0 0
266 15 1 -3.5999999999999999e-03 -7.9103946558925093e+00 3.3629866584850929e+00 1.5897824373153153e+01 1 0 0
4408 234 1 -3.5999999999999999e-03 -1.8579704385059959e+00 3.5804762920038774e-01 1.2774452477545088e+01 1 1 0
238 14 4 -3.5999999999999999e-03 -3.7097688993187043e+00 3.7305373846907548e+00 1.0028485095292336e+01 1 0 0
263 15 4 -3.5999999999999999e-03 -9.1610034714504280e+00 1.3750575465784522e+00 1.6521899256105431e+01 1 0 0
735 15 6 0.0000000000000000e+00 -8.9179548390999219e+00 2.4237102496352132e+00 1.8073934360779145e+01 1 0 0
246 14 3 0.0000000000000000e+00 -5.0359931889738494e+00 1.7600715750743590e+00 1.0384409617048254e+01 1 0 0
265 15 4 -3.5999999999999999e-03 -1.0060003440431952e+01 1.1197641933152482e+00 1.8715501491018578e+01 1 0 0
604 34 1 -3.5999999999999999e-03 -8.5718013785946212e-01 5.0265989644000895e+00 1.2872322169610541e+01 1 0 0
605 34 4 -3.5999999999999999e-03 -4.0328067679971191e-01 4.0985321718510210e+00 1.1878388110512383e+01 1 0 0
606 34 3 0.0000000000000000e+00 -1.8156065358551476e-01 4.6016028668875615e+00 1.0542443023858461e+01 1 0 0
4415 235 3 0.0000000000000000e+00 -5.1611976470771275e+00 -3.5587300223315854e-02 1.8204558843563099e+01 1 1 0
1007 54 4 -3.5999999999999999e-03 -5.7060426731899661e+00 7.1510841323972372e+00 1.1032776386328482e+01 1 0 0
267 15 2 3.5999999999999999e-03 -8.2964147916118769e+00 1.7953092945298021e+00 1.4611706195383492e+01 1 0 0
610 34 2 3.5999999999999999e-03 -2.0559880691093646e-01 3.1293035517033858e+00 1.2290170650710829e+01 1 0 0
241 14 2 3.5999999999999999e-03 -4.0534061766799354e+00 4.0991531335240872e+00 1.2733702401921477e+01 1 0 0
1024 55 3 0.0000000000000000e+00 -9.1145841367972746e+00 7.6482518258710117e+00 1.7507138474456212e+01 1 0 0
598 34 4 -3.5999999999999999e-03 -1.1796431233707123e+00 6.7995090094858828e+00 1.1194549925978974e+01 1 0 0
754 34 6 0.0000000000000000e+00 -4.2411472108028558e-01 5.2761122414995683e+00 1.0506100104305052e+01 1 0 0
609 34 2 3.5999999999999999e-03 -8.4106555923214366e-01 4.8046848507667015e+00 1.3925429003944265e+01 1 0 0
613 35 7 -3.5999999999999999e-03 -4.5068666185032793e+00 5.6880736557628291e+00 1.6101295064682965e+01 1 0 0
618 35 2 3.5999999999999999e-03 -4.4538153404730130e+00 6.0957028949352061e+00 1.5075703711791849e+01 1 0 0
615 35 3 0.0000000000000000e+00 -5.2396489027807593e+00 5.7736165333063711e+00 1.8439744004052510e+01 1 0 0
617 35 1 -3.5999999999999999e-03 -3.9950494914064256e+00 4.3901258580563685e+00 1.6380056594403111e+01 1 0 0
621 35 2 3.5999999999999999e-03 -3.4238854579821441e+00 3.9068872597782467e+00 1.5572059708758161e+01 1 0 0
624 35 3 0.0000000000000000e+00 -4.6510454846043228e+00 4.5104551754467037e+00 1.8707344326744192e+01 1 0 0
625 35 4 -3.5999999999999999e-03 -4.0397216879120110e+00 3.8019170186359075e+00 1.7659052860863639e+01 1 0 0
629 35 2 3.5999999999999999e-03 -3.8231283708598465e+00 2.8140174771532229e+00 1.7922236351919203e+01 1 0 0
755 35 6 0.0000000000000000e+00 -4.9637979922604307e+00 5.1070401327632400e+00 1.8431711549205442e+01 1 0 0
270 15 2 3.5999999999999999e-03 -7.3577841664514549e+00 3.8102523964766810e+00 1.5064063958161979e+01 1 0 0
4398 234 4 -3.5999999999999999e-03 -1.6109299238325088e+00 7.3848230336324971e-01 1.1411387025732896e+01 1 1 0
4412 234 2 3.5999999999999999e-03 -2.3744217397036467e+00 9.4009060821686308e-01 1.3524146073493615e+01 1 1 0
614 35 5 -3.5999999999999999e-03 -5.2030656918373861e+00 6.3177052874139692e+00 1.7106332226748929e+01 1 0 0
247 14 4 -3.5999999999999999e-03 -5.7442940867500383e+00 8.9189450879410170e-01 1.1266564041873693e+01 1 0 0
4419 235 2 3.5999999999999999e-03 -5.3480955871716995e+00 1.2829713349431422e+00 1.6514931473267747e+01 1 1 0
1025 55 4 -3.5999999999999999e-03 -9.8126617527690634e+00 6.7514600233183399e+00 1.8327937626989112e+01 1 0 0
608 34 1 -3.5999999999999999e-03 -1.3281931184214111e+00 6.2973261951199575e+00 1.2507578544461984e+01 1 0 0
616 35 4 -3.5999999999999999e-03 -5.9490062790834948e+00 6.5123285755573486e+00 1.9394172149984083e+01 1 0 0
612 34 2 3.5999999999999999e-03 -1.7948639527588917e+00 6.9432332309529823e+00 1.3230281992567559e+01 1 0 0
269 15 2 3.5999999999999999e-03 -1.0366323536822732e+01 1.2778252546197022e-01 1.8352547852651771e+01 1 0 0
620 35 2 3.5999999999999999e-03 -6.4666975367280211e+00 7.4333370848268920e+00 1.9109509231420866e+01 1 0 0
254 15 5 -3.5999999999999999e-03 -8.9324538230525228e+00 3.5834601585932111e+00 1.9502240595640366e+01 1 0 0
1006 54 3 0.0000000000000000e+00 -4.7962500410888662e+00 7.7725710588222512e+00 1.0162778565910921e+01 1 0 0
1023 55 4 -3.5999999999999999e-03 -9.1596536919967093e+00 7.4264655797508929e+00 1.6120037567852574e+01 1 0 0
619 35 2 3.5999999999999999e-03 -5.7872153451681037e+00 7.2593822981469334e+00 1.6852490338268037e+01 1 0 0
1015 55 3 0.0000000000000000e+00 -8.5162706519462237e+00 8.8081963880817167e+00 1.8047745379476861e+01 1 0 0
1494 54 6 0.0000000000000000e+00 -4.5512257560866880e+00 8.4151282989542171e+00 1.0295829319299694e+01 1 0 0
1003 54 2 3.5999999999999999e-03 -6.3053912969752162e+00 7.0042811039827164e+00 1.3173396957804714e+01 1 0 0
1495 55 6 0.0000000000000000e+00 -8.8270422885752691e+00 8.3000152123382946e+00 1.7647121553278911e+01 1 0 0
999 54 1 -3.5999999999999999e-03 -5.8961156206209875e+00 7.6205234901056418e+00 1.2338043645250997e+01 1 0 0
602 34 2 3.5999999999999999e-03 -1.5667526939691161e+00 7.6904235729632395e+00 1.0853603441094519e+01 1 0 0
1011 54 2 3.5999999999999999e-03 -6.0421995963251200e+00 6.1106170630227794e+00 1.0926399362089491e+01 1 0 0
1029 55 2 3.5999999999999999e-03 -1.0316874311953704e+01 5.8777768726690471e+00 1.7992445306209646e+01 1 0 0
995 54 7 -3.5999999999999999e-03 -5.3731563654096002e+00 8.8838558375063990e+00 1.2675672314945883e+01 1 0 0
340 19 2 3.5999999999999999e-03 -1.2233443014861809e+00 6.2012220803765528e-01 1.6148447930610384e+01 1 0 0
268 15 2 3.5999999999999999e-03 -9.5760920905044440e+00 3.5871437751638036e-01 1.6271681618059269e+01 1 0 0
4418 235 2 3.5999999999999999e-03 -3.7262706497910392e+00 -1.5805845775399209e-02 1.5152179599242723e+01 1 1 0
251 14 2 3.5999999999999999e-03 -6.3536591917731347e+00 5.1472028567854253e-02 1.0780966927079660e+01 1 0 0
607 34 4 -3.5999999999999999e-03 4.1748685997173496e-01 3.7261482650268469e+00 9.6211597421888015e+00 1 0 0
280 16 1 -3.5999999999999999e-03 -1.2743385368782981e+01 2.3175276416031441e+00 2.3112524551036465e+01 1 0 0
4436 236 2 3.5999999999999999e-03 -9.0132926402768625e+00 4.5537236858181881e-02 2.2271090190042806e+01 1 1 0
258 15 2 3.5999999999999999e-03 -9.8761086206945556e+00 3.2273148444543605e+00 2.1312063525478550e+01 1 0 0
634 36 4 -3.5999999999999999e-03 -1.0180696644795235e+01 6.3890394245596207e+00 2.6168287637374835e+01 1 0 0
4433 236 3 0.0000000000000000e+00 -9.5474559473468119e+00 6.4319235393752283e-02 2.5604969121338758e+01 1 1 0
257 15 1 -3.5999999999999999e-03 -1.0334496036842124e+01 1.6559891012626966e+00 1.9996089367289926e+01 1 0 0
284 16 1 -3.5999999999999999e-03 -1.2318359017770163e+01 3.5811066269549201e+00 2.3579147005595495e+01 1 0 0
279 16 2 3.5999999999999999e-03 -1.5024511907120285e+01 7.0473428648907532e-01 2.8248590265909804e+01 1 0 0
638 36 2 3.5999999999999999e-03 -1.0611115466674123e+01 7.3687874244482270e+00 2.5960500183377576e+01 1 0 0
288 16 2 3.5999999999999999e-03 -1.1870829715453027e+01 4.2684435598488282e+00 2.2889711084363704e+01 1 0 0
271 16 7 -3.5999999999999999e-03 -1.3843686179648763e+01 2.5091186824603118e+00 2.8022929679586007e+01 1 0 0
272 16 5 -3.5999999999999999e-03 -1.3189185739782467e+01 3.4168624083204526e+00 2.7147414846657906e+01 1 0 0
273 16 3 0.0000000000000000e+00 -1.3006136326170488e+01 3.0890901889024565e+00 2.5813066041653908e+01 1 0 0
274 16 4 -3.5999999999999999e-03 -1.2317217517856969e+01 3.9270882428045244e+00 2.4951805575972362e+01 1 0 0
275 16 1 -3.5999999999999999e-03 -1.4386370719210783e+01 1.2791585839858326e+00 2.7566609531064834e+01 1 0 0
1045 56 2 3.5999999999999999e-03 -1.2644560916999231e+01 7.7857760884749405e+00 2.2076736143649015e+01 1 0 0
277 16 2 3.5999999999999999e-03 -1.2850041560233812e+01 4.3682571289220773e+00 2.7441389971914500e+01 1 0 0
278 16 2 3.5999999999999999e-03 -1.2053284168419108e+01 4.9105431086646352e+00 2.5230731433665316e+01 1 0 0
261 15 2 3.5999999999999999e-03 -1.0919293178810598e+01 1.0958632610997328e+00 2.0640042962640344e+01 1 0 0
282 16 3 0.0000000000000000e+00 -1.3506627254568578e+01 1.8443559571138688e+00 2.5345681930187595e+01 1 0 0
1043 56 4 -3.5999999999999999e-03 -1.4407858295007419e+01 7.1241775563025334e+00 2.6243409980584318e+01 1 0 0
736 16 6 0.0000000000000000e+00 -1.3236036614055738e+01 2.4103204676609633e+00 2.5738114486610858e+01 1 0 0
632 36 5 -3.5999999999999999e-03 -9.2306997140786180e+00 6.1145993946764472e+00 2.3865939779018337e+01 1 0 0
636 36 2 3.5999999999999999e-03 -8.4560271312447277e+00 5.7156639768008048e+00 2.1908827204318797e+01 1 0 0
4438 236 2 3.5999999999999999e-03 -1.0691664943319058e+01 1.7576135907635935e+00 2.6328564149409353e+01 1 1 0
253 15 7 -3.5999999999999999e-03 -9.6397026942673349e+00 2.8195848250650810e+00 2.0360998833562913e+01 1 0 0
623 35 4 -3.5999999999999999e-03 -4.7905316714241586e+00 3.9887874119954847e+00 2.0028931110483569e+01 1 0 0
627 35 2 3.5999999999999999e-03 -5.7584731285752886e+00 4.3576806228500358e+00 2.1975485302097031e+01 1 0 0
644 36 1 -3.5999999999999999e-03 -1.0222707060075006e+01 5.9465292769696951e+00 2.7500233809442495e+01 1 0 0
631 36 7 -3.5999999999999999e-03 -8.5222664573828251e+00 5.3512105324094330e+00 2.2949739406556191e+01 1 0 0
635 36 1 -3.5999999999999999e-03 -7.9028777268914059e+00 4.1675108152379829e+00 2.3443826973536879e+01 1 0 0
628 35 2 3.5999999999999999e-03 -4.4493719217808003e+00 2.9728357515387489e+00 2.0218168875448661e+01 1 0 0
639 36 2 3.5999999999999999e-03 -7.4505042700766646e+00 3.5716533066051293e+00 2.2694958049456268e+01 1 0 0
283 16 4 -3.5999999999999999e-03 -1.4102174441488971e+01 9.6561608713761538e-01 2.6255757364297846e+01 1 0 0
4430 235 2 3.5999999999999999e-03 -6.5907517948646142e+00 1.0416732384025418e+00 2.1099324666778742e+01 1 1 0
4444 236 1 -3.5999999999999999e-03 -1.0239288351403740e+01 4.3204007877374295e-01 2.7869754250418630e+01 1 1 0
231 13 2 3.5999999999999999e-03 -1.6103277263460658e+01 2.3623329343106807e+00 2.9420120012154246e+01 1 0 -1
633 36 3 0.0000000000000000e+00 -9.5107104763292050e+00 5.6252813468160152e+00 2.5176156523335049e+01 1 0 0
4437 236 2 3.5999999999999999e-03 -1.0161441972856029e+01 1.3847105896343850e+00 2.4001823356020157e+01 1 1 0
640 36 1 -3.5999999999999999e-03 -9.5741223580930388e+00 4.8182641800361683e+00 2.7956035942627675e+01 1 0 0
641 36 4 -3.5999999999999999e-03 -8.9732308960521401e+00 3.9806884753088023e+00 2.7036021529532068e+01 1 0 0
642 36 3 0.0000000000000000e+00 -8.9014806177634860e+00 4.4202283997718279e+00 2.5680804167155976e+01 1 0 0
643 36 4 -3.5999999999999999e-03 -8.0688594559441018e+00 3.7043905256076566e+00 2.4743521083322698e+01 1 0 0
622 35 1 -3.5999999999999999e-03 -5.5207856139516940e+00 4.7521895037498334e+00 2.0983827819758588e+01 1 0 0
646 36 2 3.5999999999999999e-03 -8.2858495714740314e+00 3.2318700597922549e+00 2.7376361270812399e+01 1 0 0
647 36 2 3.5999999999999999e-03 -7.6183519204700749e+00 2.7599078000624564e+00 2.5103917585453495e+01 1 0 0
756 36 6 0.0000000000000000e+00 -9.3042462732267381e+00 4.9630043567256177e+00 2.5348059027518044e+01 1 0 0
281 16 4 -3.5999999999999999e-03 -1.3357675329246501e+01 1.4652577707793268e+00 2.3972520111138383e+01 1 0 0
4434 236 4 -3.5999999999999999e-03 -1.0214158296751688e+01 8.2004535537026013e-01 2.6542747458719859e+01 1 1 0
1047 56 2 3.5999999999999999e-03 -1.4934324827523236e+01 6.2093336190931430e+00 2.6027034494408380e+01 1 0 0
1407 76 2 3.5999999999999999e-03 -8.3801840662727418e+00 8.7355441655406221e+00 2.4325845580529538e+01 1 0 0
648 36 2 3.5999999999999999e-03 -1.0721050019923652e+01 6.6163141211080783e+00 2.8171177507484146e+01 1 0 0
4432 236 5 -3.5999999999999999e-03 -9.5684753843040760e+00 4.9380940599690870e-01 2.4295150997586809e+01 1 1 0
1039 56 2 3.5999999999999999e-03 -1.5111594113361358e+01 7.2630573993846470e+00 2.8290186056261970e+01 1 0 0
626 35 1 -3.5999999999999999e-03 -6.0223748412391735e+00 6.0409849959340827e+00 2.0719948045834187e+01 1 0 0
4448 236 2 3.5999999999999999e-03 -1.0683311161405761e+01 1.1010997896294026e+00 2.8609924911291206e+01 1 1 0
4426 235 1 -3.5999999999999999e-03 -6.0590989611967903e+00 4.7067087033835903e-01 2.0393292596395590e+01 1 1 0
276 16 2 3.5999999999999999e-03 -1.4084360807648899e+01 2.7943133570268612e+00 2.9048014495094503e+01 1 0 0
630 35 2 3.5999999999999999e-03 -6.5851451854525225e+00 6.6764023765223479e+00 2.1373505738726596e+01 1 0 0
1021 55 2 3.5999999999999999e-03 -1.0267589038184473e+01 6.3781122524228122e+00 2.0470065865519217e+01 1 0 0
637 36 2 3.5999999999999999e-03 -9.6213905170178009e+00 7.0791454469447261e+00 2.3590878932054796e+01 1 0 0
645 36 2 3.5999999999999999e-03 -9.5330847947257986e+00 4.6073497773153580e+00 2.9078180734916828e+01 1 0 0
1042 56 3 0.0000000000000000e+00 -1.3684693540624226e+01 7.8163720238193886e+00 2.5282253576742896e+01 1 0 0
1017 55 1 -3.5999999999999999e-03 -9.8167825523130681e+00 7.0007637873236943e+00 1.9712956720702337e+01 1 0 0
1035 56 1 -3.5999999999999999e-03 -1.4559490873364297e+01 7.6955138453829361e+00 2.7532350717754760e+01 1 0 0
1018 55 2 3.5999999999999999e-03 -9.2773747433503342e+00 8.3269415107666624e+00 2.1268974470059351e+01 1 0 0
1496 56 6 0.0000000000000000e+00 -1.3379149710784445e+01 8.4404597049856704e+00 2.5439499260591209e+01 1 0 0
1040 56 1 -3.5999999999999999e-03 -1.2779787930537575e+01 8.0745757922267938e+00 2.3082294423008744e+01 1 0 0
1041 56 4 -3.5999999999999999e-03 -1.3467746601877558e+01 7.3087173482985994e+00 2.3976989571892275e+01 1 0 0
259 15 2 3.5999999999999999e-03 -8.5281673646443679e+00 4.5957006467843131e+00 1.9751345411941962e+01 1 0 0
1013 55 7 -3.5999999999999999e-03 -9.1494295593324111e+00 8.1286545996892361e+00 2.0253973644673497e+01 1 0 0
287 16 2 3.5999999999999999e-03 -1.4463476907970914e+01 6.8679531115662773e-02 2.5788337000163065e+01 1 0 0
285 16 2 3.5999999999999999e-03 -1.2623153344294934e+01 2.0948668336087835e+00 2.2073553449473280e+01 1 0 0
286 16 2 3.5999999999999999e-03 -1.3597974104206806e+01 5.4887997698307456e-01 2.3546713431447397e+01 1 0 0
1031 56 7 -3.5999999999999999e-03 -1.3858407558197797e+01 8.8654986041111830e+00 2.7839237846060080e+01 1 0 0
1119 60 2 3.5999999999999999e-03 -6.8488866904038606e+00 5.8727299604591394e+00 2.5894192420578214e+01 1 0 0
979 53 3 0.0000000000000000e+00 -1.7068168270551243e-01 9.1539837666370705e+00 3.3238942740004114e+00 1 0 0
980 53 4 -3.5999999999999999e-03 5.7929955429572355e-01 1.0009572357655363e+01 2.5210119029640818e+00 1 0 0
984 53 2 3.5999999999999999e-03 1.2233298330136007e+00 1.0766370584530327e+01 2.9479564352638303e+00 1 0 0
1361 74 2 3.5999999999999999e-03 -1.1001048506220044e+00 1.3243896569572787e+01 8.4699519894885267e+00 1 0 0
990 53 1 -3.5999999999999999e-03 5.6967436525438453e-01 9.9518955943178149e+00 1.1894911530558587e+00 1 0 0
2253 93 6 0.0000000000000000e+00 -3.7089185471904895e-01 1.4262637547922081e+01 3.0018770837164914e+00 1 0 0
994 53 2 3.5999999999999999e-03 1.1687022015489936e+00 1.0626393239585425e+01 5.4993028971472613e-01 1 0 0
1741 93 1 -3.5999999999999999e-03 -1.5102162159185217e+00 1.3389978507626228e+01 4.8919602491436613e+00 1 0 0
978 53 5 -3.5999999999999999e-03 -1.6435177578505256e-01 9.2753771609161042e+00 4.7339780442849015e+00 1 0 0
983 53 2 3.5999999999999999e-03 3.3439036163350577e-01 1.0103210928301801e+01 5.3102043624195083e+00 1 0 0
1012 54 2 3.5999999999999999e-03 -2.0708801855737158e+00 9.4491855391520669e+00 7.9202504957919118e+00 1 0 0
1363 74 2 3.5999999999999999e-03 1.1237767305598672e+00 9.6219794652909290e+00 7.7979222114952620e+00 1 0 0
1745 93 2 3.5999999999999999e-03 -2.0409367851059272e+00 1.2698900776587562e+01 5.5524130992253493e+00 1 0 0
1742 93 2 3.5999999999999999e-03 -1.0452657315760265e+00 1.4987642084635215e+01 6.1849571412021795e+00 1 0 0
1338 73 5 -3.5999999999999999e-03 3.6708688205670548e+00 1.2280266267394303e+01 1.6569445125381628e+00 1 0 0
1339 73 3 0.0000000000000000e+00 3.4066933088905440e+00 1.1863072912419424e+01 3.0053542778626801e+00 1 0 0
1340 73 4 -3.5999999999999999e-03 2.8164400572026551e+00 1.2802009822613604e+01 3.9198609985064126e+00 1 0 0
1341 73 1 -3.5999999999999999e-03 4.9992988043958029e+00 1.0318248098061748e+01 1.3171184869492036e+00 1 0 0
1337 73 7 -3.5999999999999999e-03 4.4145136176997450e+00 1.1505657929897136e+01 8.1726275162253836e-01 1 0 0
1343 73 2 3.5999999999999999e-03 3.3075261455002387e+00 1.3225154746802957e+01 1.3824580439727938e+00 1 0 0
1348 73 3 0.0000000000000000e+00 3.8821327417045057e+00 1.0619298094591946e+01 3.4361291158602851e+00 1 0 0
1349 73 4 -3.5999999999999999e-03 4.6447562229856487e+00 9.8090596309188847e+00 2.6053682109813052e+00 1 0 0
1513 73 6 0.0000000000000000e+00 3.6952238801186716e+00 1.1276807808418299e+01 3.2494411444540505e+00 1 0 0
1356 74 5 -3.5999999999999999e-03 -6.4623261640800500e-01 1.2336409357056370e+01 8.8234436672316203e+00 1 0 0
1354 73 2 3.5999999999999999e-03 2.1986749053464480e+00 1.3059506221227654e+01 5.9400113341280365e+00 1 0 0
1346 73 1 -3.5999999999999999e-03 3.0782732940798643e+00 1.1135843747862365e+01 5.6353005171640147e+00 1 0 0
1347 73 4 -3.5999999999999999e-03 3.6378131515088641e+00 1.0252877673574243e+01 4.7789012650509886e+00 1 0 0
1350 73 1 -3.5999999999999999e-03 2.6990630540901361e+00 1.2398735562615533e+01 5.2536593763959667e+00 1 0 0
1351 73 2 3.5999999999999999e-03 2.8819458595714762e+00 1.0892223568326184e+01 6.6739630786060564e+00 1 0 0
1352 73 2 3.5999999999999999e-03 3.9518309213564464e+00 9.2394185350124776e+00 5.0061528604668055e+00 1 0 0
1345 73 2 3.5999999999999999e-03 5.5571452764929319e+00 9.6393590177883741e+00 6.4693584267005066e-01 1 0 0
1355 74 7 -3.5999999999999999e-03 -7.6362011660949136e-02 1.1446169476845601e+01 7.9190451329726734e+00 1 0 0
1359 74 1 -3.5999999999999999e-03 5.8518145985250491e-01 1.0289773979356422e+01 8.4032434229440138e+00 1 0 0
1360 74 2 3.5999999999999999e-03 -2.7285005625804715e-02 1.1554388609671721e+01 6.8870037892678244e+00 1 0 0
1747 93 4 -3.5999999999999999e-03 -6.2873964695675333e-01 1.3207043179154237e+01 1.2935519130493764e+00 1 0 0
1748 93 3 0.0000000000000000e+00 -7.2449318599247414e-01 1.3761134434087353e+01 2.5923718979957395e+00 1 0 0
1765 94 4 -3.5999999999999999e-03 -5.2179049608853081e+00 1.3757320546334487e+01 8.6175605972309075e+00 1 0 0
1746 93 1 -3.5999999999999999e-03 1.2359786708414228e-01 1.3881417988220417e+01 3.5114213366782399e-01 1 0 0
1342 73 2 3.5999999999999999e-03 4.4648786403431959e+00 1.1831889489448869e+01 -2.0389401207833605e-01 1 0 0
1749 93 4 -3.5999999999999999e-03 -1.4728367200507266e+00 1.3037414917834143e+01 3.5603223076072021e+00 1 0 0
1753 93 2 3.5999999999999999e-03 -1.9129587550708413e+00 1.2128066865199907e+01 3.2719459559632269e+00 1 0 0