LAMMPS (15 May 2015)
Reading data file ...
  triclinic box = (-0.107635 -0.0404339 -0.357111) to (41.3876 35.9384 29.5551) with tilt (-0.0672341 -17.0362 -0.0417078)
  5 by 4 by 3 MPI processor grid
  reading atoms ...
  4560 atoms
  reading velocities ...
  4560 velocities
  scanning bonds ...
  3 = max bonds/atom
  scanning angles ...
  3 = max angles/atom
  scanning dihedrals ...
  8 = max dihedrals/atom
  scanning impropers ...
  1 = max impropers/atom
  reading bonds ...
  5040 bonds
  reading angles ...
  7200 angles
  reading dihedrals ...
  10560 dihedrals
  reading impropers ...
  2400 impropers
Finding 1-2 1-3 1-4 neighbors ...
 Special bond factors lj:   0          0          0         
 Special bond factors coul: 0          0          0         
  4 = max # of 1-2 neighbors
  8 = max # of 1-3 neighbors
  20 = max # of 1-4 neighbors
  16 = max # of special neighbors
4560 atoms in group all
720 atoms in group C
480 atoms in group S
1920 atoms in group H
720 atoms in group Si
240 atoms in group Na
240 atoms in group Ba
240 atoms in group O
4560 atoms in group naphthalene
1200 atoms in group fixed
960 atoms in group CO
Setting atom values ...
  720 settings made for charge
Setting atom values ...
  720 settings made for charge
Setting atom values ...
  1920 settings made for charge
Setting atom values ...
  480 settings made for charge
Setting atom values ...
  240 settings made for charge
Setting atom values ...
  240 settings made for charge
Setting atom values ...
  240 settings made for charge
Finding 1-2 1-3 1-4 neighbors ...
 Special bond factors lj:   0          0          0.5       
 Special bond factors coul: 0          0          0.5       
  4 = max # of 1-2 neighbors
  8 = max # of 1-3 neighbors
  20 = max # of 1-4 neighbors
  16 = max # of special neighbors
PPPM initialization ...
  G vector (1/distance) = 0.253736
  grid = 12 12 15
  stencil order = 5
  estimated absolute RMS force accuracy = 1.98714e-05
  estimated relative force accuracy = 5.98421e-08
  using double precision FFTs
  3d grid and FFT values/proc = 864 48
Neighbor list info ...
  6 neighbor list requests
  update every 1 steps, delay 0 steps, check yes
  master list distance cutoff = 12
Setting up run ...
Memory usage per processor = 14.0371 Mbytes
Step Temp Density PotEng E_vdwl E_tail E_coul E_long Press Volume Xy Xz Yz E_mol E_bond E_angle E_dihed 14[1] 14[2] 14[3] msd[4] msd2[4] msd3[4] msd4[4] naphthal Cella Cellb Cellc CellAlpha CellBeta CellGamma 2 27[1] 27[2] 27[3] 
       0          298    1.2509986    3498.5987            0            0    2.0907137   -2.3250012    -15873.64    44657.537 -0.067234084   -17.036218 -0.041707817     3498.833    1521.0094     935.4334    889.67826    28.379601    18.846571    14.337846 2.3535127e-29 2.3910021e-29 2.2534249e-29 2.2900766e-29          298     41.49527    35.978931    34.423473    90.016431    119.66323    90.107069 7.2177013e-23    28.379761    18.846182    14.337739 
   10000    298.80401    1.2509986    3636.5929            0            0    2.1058464   -2.3240569    -9263.561    44657.537 -0.067234084   -17.036218 -0.041707817    3636.8111    1512.7411    987.32504    973.27758    28.380319    18.844137    14.337838 0.00031082753 0.00031057479 0.00032083895 0.00032067544    298.80401     41.49527    35.978931    34.423473    90.016431    119.66323    90.107069    932.48259    28.379824    18.845875    14.338132 
   20000    299.14987    1.2509986    3626.2089            0            0    2.0997704   -2.3247858   -7915.9629    44657.537 -0.067234084   -17.036218 -0.041707817    3626.4339    1557.9811    970.42813    933.75285    28.378738    18.845614    14.337227 0.00032263345 0.00032225539 0.00033076814 0.00033043653    299.14987     41.49527    35.978931    34.423473    90.016431    119.66323    90.107069    967.90034     28.37925    18.845851    14.337655 
   30000    303.98191    1.2509986    3546.0421            0            0    2.1046042   -2.3244165   -8005.6763    44657.537 -0.067234084   -17.036218 -0.041707817     3546.262    1480.2089    1004.4631    901.60512    28.379182    18.844395    14.336948 0.00032432162 0.00032367563  0.000326826 0.00032654359    303.98191     41.49527    35.978931    34.423473    90.016431    119.66323    90.107069    972.96485    28.379593    18.845448    14.337458 
   40000    298.60876    1.2509986    3630.9052            0            0    2.1031669   -2.3244117   -8297.2677    44657.537 -0.067234084   -17.036218 -0.041707817    3631.1264    1561.7616    950.96969    950.03407    28.379144    18.846037    14.337043 0.00032534995 0.00032483205 0.00032821869 0.00032779146    298.60876     41.49527    35.978931    34.423473    90.016431    119.66323    90.107069    976.04985    28.380451     18.84617    14.337944 
   50000    301.39889    1.2509986    3568.1999            0            0    2.1031654   -2.3244194   -8847.9855    44657.537 -0.067234084   -17.036218 -0.041707817    3568.4211    1493.5478    990.74418    924.21114    28.380904    18.844418    14.338392 0.0003317002 0.00033111277 0.00033743905 0.00033714058    301.39889     41.49527    35.978931    34.423473    90.016431    119.66323    90.107069     995.1006    28.379843    18.845421    14.337711 
   60000    300.51521    1.2509986    3514.6513            0            0    2.1016139   -2.3245635   -8886.8821    44657.537 -0.067234084   -17.036218 -0.041707817    3514.8743    1497.2873    954.29787    906.61972    28.377373    18.846599    14.336018 0.00033419392 0.00033396271 0.00034003284 0.00033981498    300.51521     41.49527    35.978931    34.423473    90.016431    119.66323    90.107069    1002.5818    28.379694    18.846515    14.337399 
   70000    299.63741    1.2509986    3508.0047            0            0    2.1012949   -2.3250074   -6506.3217    44657.537 -0.067234084   -17.036218 -0.041707817    3508.2284      1464.61    973.81613    911.58114     28.38069    18.845326    14.337721 0.00033921546 0.00033910824 0.00034631727 0.00034629641    299.63741     41.49527    35.978931    34.423473    90.016431    119.66323    90.107069    1017.6464    28.379912    18.846249    14.337456 
   80000    293.07298    1.2509986    3591.8773            0            0    2.1004721   -2.3247412   -8806.3241    44657.537 -0.067234084   -17.036218 -0.041707817    3592.1015    1520.8289    974.64006    934.68438    28.379261    18.846052    14.336887 0.00032374464 0.00032353939 0.00032951162 0.0003292874    293.07298     41.49527    35.978931    34.423473    90.016431    119.66323    90.107069    971.23393      28.3799    18.846366    14.337349 
   90000     301.9971    1.2509986    3637.6947            0            0    2.1026087   -2.3244035   -9007.0584    44657.537 -0.067234084   -17.036218 -0.041707817    3637.9165    1554.0325    1018.3884    906.82401    28.380302    18.845109    14.336755 0.00032695489 0.00032675784 0.00033941991 0.00033901539     301.9971     41.49527    35.978931    34.423473    90.016431    119.66323    90.107069    980.86467    28.379547     18.84613    14.337354 
  100000     296.9327    1.2509986    3614.8774            0            0    2.1050326   -2.3244717   -8790.3029    44657.537 -0.067234084   -17.036218 -0.041707817    3615.0969    1525.8958    997.83434    934.37375    28.379018    18.843945    14.336599 0.00032786039 0.00032778738 0.00033569994 0.00033563594     296.9327     41.49527    35.978931    34.423473    90.016431    119.66323    90.107069    983.58117    28.379982    18.846116    14.337598 
  110000    295.83589    1.2509986    3593.3717            0            0      2.10005   -2.3247355   -8012.8056    44657.537 -0.067234084   -17.036218 -0.041707817    3593.5964    1490.0158    994.74791    947.28357    28.378661    18.847227    14.337359 0.00035646921 0.00035612189 0.00036519609 0.00036487654    295.83589     41.49527    35.978931    34.423473    90.016431    119.66323    90.107069    1069.4076     28.37948    18.846338    14.337245 
  120000     301.6933    1.2509986    3564.5521            0            0    2.1071193   -2.3244116   -7776.3834    44657.537 -0.067234084   -17.036218 -0.041707817    3564.7694    1509.0603    959.58147    932.84292    28.379233    18.846328    14.337372 0.00034084879 0.00034069356 0.00035226059 0.00035209871     301.6933     41.49527    35.978931    34.423473    90.016431    119.66323    90.107069    1022.5464     28.37997    18.846474    14.337578 
  130000    300.61237    1.2509986    3512.7082            0            0    2.1044459   -2.3245718   -8620.2121    44657.537 -0.067234084   -17.036218 -0.041707817    3512.9284    1462.7583    971.23092    925.77151    28.380782    18.845472    14.336375 0.00033660403 0.00033657755 0.00034450921 0.00034426594    300.61237     41.49527    35.978931    34.423473    90.016431    119.66323    90.107069    1009.8121    28.379785    18.846182    14.337578 
  140000    294.76593    1.2509986    3600.3989            0            0    2.1009438   -2.3249217   -6316.6459    44657.537 -0.067234084   -17.036218 -0.041707817    3600.6228    1523.0129    1005.3661    915.48693    28.379984     18.84599    14.336976 0.00032851675 0.00032841289 0.00033235017 0.00033219747    294.76593     41.49527    35.978931    34.423473    90.016431    119.66323    90.107069    985.55024    28.379685    18.845965    14.337513 
  150000     301.8948    1.2509986    3487.3678            0            0    2.1005938   -2.3246589   -9437.2935    44657.537 -0.067234084   -17.036218 -0.041707817    3487.5919    1493.9276    953.31395      883.384    28.378911      18.8464    14.337574 0.00035333383 0.0003531103 0.00036013738 0.00035987816     301.8948     41.49527    35.978931    34.423473    90.016431    119.66323    90.107069    1060.0015    28.379888    18.846565    14.337986 
  160000    299.40905    1.2509986     3528.477            0            0    2.1024897   -2.3245466   -8110.4161    44657.537 -0.067234084   -17.036218 -0.041707817     3528.699    1504.1478    950.23374     918.4975     28.37871    18.844118    14.336904 0.00035847995 0.00035800076 0.00036430798 0.00036384967    299.40905     41.49527    35.978931    34.423473    90.016431    119.66323    90.107069    1075.4398    28.379098    18.846012    14.337843 
  170000    298.02798    1.2509986     3611.528            0            0    2.1078005   -2.3245466   -7279.3527    44657.537 -0.067234084   -17.036218 -0.041707817    3611.7448    1526.3945     989.6299     929.5232    28.379995     18.84587    14.336948 0.00033576646 0.00033567842 0.0003365771 0.00033652651    298.02798     41.49527    35.978931    34.423473    90.016431    119.66323    90.107069    1007.2994    28.379889    18.846449     14.33776 
  180000     291.6281    1.2509986    3531.2335            0            0    2.1039276   -2.3247582   -7089.5311    44657.537 -0.067234084   -17.036218 -0.041707817    3531.4543    1484.2656    967.73957    918.65301    28.379142    18.845417    14.337313 0.00034561292 0.00034543433 0.00035107295 0.00035088887     291.6281     41.49527    35.978931    34.423473    90.016431    119.66323    90.107069    1036.8388    28.379856    18.845865    14.337476 
  190000    300.20363    1.2509986    3581.5129            0            0    2.1053553   -2.3244437   -8298.9526    44657.537 -0.067234084   -17.036218 -0.041707817     3581.732    1494.7999    1029.9076     897.9904    28.379069    18.845279    14.337537 0.00035029384 0.00035026114 0.00034881144 0.00034880304    300.20363     41.49527    35.978931    34.423473    90.016431    119.66323    90.107069    1050.8815    28.379839    18.846122    14.337891 
  200000    297.74471    1.2509986    3554.2349            0            0    2.1024572   -2.3247134   -7556.6617    44657.537 -0.067234084   -17.036218 -0.041707817    3554.4571      1495.61    990.75795    914.74327    28.380833     18.84362    14.338122 0.00034726334 0.00034715571 0.00034858441 0.00034829466    297.74471     41.49527    35.978931    34.423473    90.016431    119.66323    90.107069      1041.79    28.379867    18.846221    14.338047 
  210000    295.30146    1.2509986    3472.6796            0            0    2.1031966   -2.3246687   -8005.2171    44657.537 -0.067234084   -17.036218 -0.041707817     3472.901    1461.5069    928.36302    925.75317    28.379934    18.847098    14.337591 0.00034370613 0.00034368524 0.00034336172 0.00034332537    295.30146     41.49527    35.978931    34.423473    90.016431    119.66323    90.107069    1031.1184    28.379644    18.846111    14.337693 
  220000    299.66395    1.2509986    3535.3165            0            0    2.1009065   -2.3247581   -8532.3055    44657.537 -0.067234084   -17.036218 -0.041707817    3535.5404    1485.8529    944.35327    942.20863     28.38169    18.846355    14.338607 0.0003471224 0.0003470695 0.00034831928 0.00034821617    299.66395     41.49527    35.978931    34.423473    90.016431    119.66323    90.107069    1041.3672     28.37981    18.846334    14.337904 
  230000     299.5235    1.2509986    3564.8069            0            0    2.1037767   -2.3246857   -7605.5594    44657.537 -0.067234084   -17.036218 -0.041707817    3565.0278    1478.9826    1018.2624    912.69103    28.378889    18.847253    14.336317 0.00034698821 0.00034674054 0.00035213414 0.00035174058     299.5235     41.49527    35.978931    34.423473    90.016431    119.66323    90.107069    1040.9646    28.379711    18.846596    14.337467 
  240000    296.51443    1.2509986    3510.7081            0            0     2.101977   -2.3250209   -8356.3612    44657.537 -0.067234084   -17.036218 -0.041707817    3510.9311    1498.8152    969.32343    886.52944    28.379175    18.845517    14.336811 0.00034393135 0.00034380731 0.00034665421 0.00034646779    296.51443     41.49527    35.978931    34.423473    90.016431    119.66323    90.107069     1031.794    28.379917    18.846394    14.337505 
  250000    301.74369    1.2509986    3517.9052            0            0     2.098029   -2.3250386   -8641.5378    44657.537 -0.067234084   -17.036218 -0.041707817    3518.1322    1474.4473    969.19709    916.51727    28.379017    18.845873    14.336941 0.00034186582 0.0003417387 0.00034383495 0.00034332611    301.74369     41.49527    35.978931    34.423473    90.016431    119.66323    90.107069    1025.5975    28.379433    18.846234    14.337608 
  260000    292.15056    1.2509986    3525.6695            0            0     2.105784   -2.3249725   -7532.9949    44657.537 -0.067234084   -17.036218 -0.041707817    3525.8887    1488.9826    973.82963    906.48875    28.378672    18.845958    14.336635 0.00034929266 0.00034912472 0.00034577992 0.00034563366    292.15056     41.49527    35.978931    34.423473    90.016431    119.66323    90.107069     1047.878    28.380035    18.845879    14.337709 
  270000    295.48769    1.2509986    3579.1494            0            0    2.1034556   -2.3251228   -8243.4258    44657.537 -0.067234084   -17.036218 -0.041707817    3579.3711    1494.9711    1014.4231    913.51125    28.378523    18.845188    14.336609 0.00036970433 0.00036941556 0.00037257788 0.00037221479    295.48769     41.49527    35.978931    34.423473    90.016431    119.66323    90.107069     1109.113    28.380024    18.845761    14.337944 
  280000     303.0947    1.2509986    3533.4164            0            0    2.1046193   -2.3245778   -6256.3729    44657.537 -0.067234084   -17.036218 -0.041707817    3533.6364    1462.2502    940.78992    964.35143    28.380442    18.845031    14.337625 0.00034788676 0.00034786627 0.00034823296 0.00034817133     303.0947     41.49527    35.978931    34.423473    90.016431    119.66323    90.107069    1043.6603    28.379893    18.846164    14.337687 
  290000    293.82343    1.2509986    3561.4017            0            0    2.0983794   -2.3247397   -8684.4802    44657.537 -0.067234084   -17.036218 -0.041707817     3561.628    1508.8573    962.85949    933.58197     28.37665    18.846206    14.336305 0.00033420432 0.00033411874 0.00033835797 0.00033809652    293.82343     41.49527    35.978931    34.423473    90.016431    119.66323    90.107069     1002.613    28.379747    18.845958    14.337926 
  300000    293.48228    1.2509986    3528.7129            0            0    2.1024544   -2.3244344   -9191.5049    44657.537 -0.067234084   -17.036218 -0.041707817    3528.9349    1487.2308    965.85481    919.73788    28.380115     18.84611    14.337366 0.00034699169 0.00034683698 0.00034931575 0.00034912889    293.48228     41.49527    35.978931    34.423473    90.016431    119.66323    90.107069    1040.9751    28.379819     18.84634    14.338094 
  310000    296.37338    1.2509986    3534.1477            0            0    2.1001153   -2.3248507   -10104.542    44657.537 -0.067234084   -17.036218 -0.041707817    3534.3725    1487.9619     963.5941     922.3489    28.378523    18.845186    14.336878 0.00034591843 0.00034535592 0.00034552271 0.00034463622    296.37338     41.49527    35.978931    34.423473    90.016431    119.66323    90.107069    1037.7553    28.379098    18.845874    14.337574 
  320000    295.77021    1.2509986    3549.4123            0            0     2.105004   -2.3248205   -7034.8961    44657.537 -0.067234084   -17.036218 -0.041707817    3549.6321    1511.3858    978.90106    901.38701    28.379117    18.845366    14.337499 0.00034643966 0.00034637392 0.00035202081 0.00035195077    295.77021     41.49527    35.978931    34.423473    90.016431    119.66323    90.107069     1039.319     28.37968    18.846364    14.337901 
  330000    292.91675    1.2509986    3513.7985            0            0    2.1035068   -2.3247097   -9747.1273    44657.537 -0.067234084   -17.036218 -0.041707817    3514.0197    1486.4802    970.06584    903.78709     28.37847    18.845238    14.336081  0.000365818 0.00036522337 0.00036919458 0.0003690429    292.91675     41.49527    35.978931    34.423473    90.016431    119.66323    90.107069     1097.454    28.379639    18.845476    14.337453 
  340000    304.06008    1.2509986    3465.8884            0            0    2.1062412   -2.3249104    -7947.813    44657.537 -0.067234084   -17.036218 -0.041707817    3466.1071    1441.8666    969.02452    904.10605    28.382689    18.844818    14.337169 0.00034281974 0.00034242238 0.00035182389 0.00035109782    304.06008     41.49527    35.978931    34.423473    90.016431    119.66323    90.107069    1028.4592    28.380109     18.84659    14.337408 
  350000    300.54052    1.2509986    3495.2132            0            0    2.1007085   -2.3246803   -8419.4041    44657.537 -0.067234084   -17.036218 -0.041707817    3495.4371    1468.9196    968.86821    902.45867    28.380773    18.846432    14.337512 0.00033942192 0.00033941869 0.00033966752 0.00033956601    300.54052     41.49527    35.978931    34.423473    90.016431    119.66323    90.107069    1018.2658    28.379794    18.846141     14.33776 
  360000    296.38836    1.2509986    3490.1529            0            0    2.1019464   -2.3245292   -10693.561    44657.537 -0.067234084   -17.036218 -0.041707817    3490.3755     1466.413     973.6701    894.30496    28.380023    18.846891    14.337915 0.00034562922 0.00034542658 0.00035008879 0.00034974666    296.38836     41.49527    35.978931    34.423473    90.016431    119.66323    90.107069    1036.8877    28.379746    18.845965    14.338133 
  370000    301.82954    1.2509986    3529.4859            0            0    2.1016131   -2.3247235   -7277.7805    44657.537 -0.067234084   -17.036218 -0.041707817     3529.709    1413.0443    1019.2759    937.18702    28.379538    18.845641    14.337476 0.00034499921 0.00034427515 0.00035086527 0.00035000674    301.82954     41.49527    35.978931    34.423473    90.016431    119.66323    90.107069    1034.9976    28.379039    18.846612    14.337604 
  380000    298.76591    1.2509986      3566.11            0            0    2.1018162   -2.3248804   -7818.6122    44657.537 -0.067234084   -17.036218 -0.041707817    3566.3331    1522.3076    944.13268    936.79184    28.379645    18.846721    14.337085 0.0003478944 0.00034783633 0.00035470073 0.00035453407    298.76591     41.49527    35.978931    34.423473    90.016431    119.66323    90.107069    1043.6832    28.379552    18.846239    14.337845 
  390000    301.21107    1.2509986    3433.2171            0            0    2.1045279   -2.3244918   -6772.7398    44657.537 -0.067234084   -17.036218 -0.041707817    3433.4371    1472.1839    943.23269    870.44795    28.377954    18.845762    14.336872 0.00035863109 0.00035844308 0.00036421111 0.00036394651    301.21107     41.49527    35.978931    34.423473    90.016431    119.66323    90.107069    1075.8933    28.380145    18.846094    14.337557 
  400000    299.86421    1.2509986    3453.6913            0            0    2.0988775   -2.3247399   -8825.3642    44657.537 -0.067234084   -17.036218 -0.041707817    3453.9172    1452.7027    957.32766    890.02508    28.379421    18.845072    14.337209 0.00035454766 0.0003539625 0.00035926798 0.00035862029    299.86421     41.49527    35.978931    34.423473    90.016431    119.66323    90.107069     1063.643    28.380518    18.846286    14.337777 
  410000    293.54484    1.2509986    3511.9992            0            0    2.1050012    -2.324721   -7638.9266    44657.537 -0.067234084   -17.036218 -0.041707817     3512.219    1488.7811    936.01765    928.63805    28.379718    18.846467    14.337996 0.00036705577 0.00036641634 0.00037591194 0.00037462959    293.54484     41.49527    35.978931    34.423473    90.016431    119.66323    90.107069    1101.1673    28.380072    18.846759    14.338197 
  420000    302.44607    1.2509986    3539.2128            0            0    2.1024235   -2.3247193   -8977.5119    44657.537 -0.067234084   -17.036218 -0.041707817    3539.4351     1512.952    954.16507    918.13237     28.38093    18.846969    14.337571 0.00034595665 0.00034558011 0.00034553394 0.00034527106    302.44607     41.49527    35.978931    34.423473    90.016431    119.66323    90.107069    1037.8699    28.380271    18.846178    14.337397 
  430000    294.67577    1.2509986    3531.0602            0            0    2.1049285   -2.3247687   -7433.4885    44657.537 -0.067234084   -17.036218 -0.041707817      3531.28    1521.9196    982.61013    879.65146    28.381729    18.844841    14.338926 0.00034389052 0.00034334612 0.00033766668 0.00033701032    294.67577     41.49527    35.978931    34.423473    90.016431    119.66323    90.107069    1031.6716    28.379307    18.845838    14.338208 
  440000    297.79078    1.2509986    3486.8097            0            0    2.1043982   -2.3244739   -8310.4713    44657.537 -0.067234084   -17.036218 -0.041707817    3487.0297     1454.395     960.9223    916.19824    28.378311     18.84535    14.336809 0.00035482765 0.00035473634 0.00035812314 0.00035806615    297.79078     41.49527    35.978931    34.423473    90.016431    119.66323    90.107069     1064.483    28.379618    18.846094     14.33799 
  450000    297.87944    1.2509986    3453.5283            0            0    2.1045486    -2.324946   -7033.9807    44657.537 -0.067234084   -17.036218 -0.041707817    3453.7487    1433.6707    980.01257    889.99007    28.377527    18.844921    14.336905 0.00034541481 0.00034536941 0.00034580378 0.00034545262    297.87944     41.49527    35.978931    34.423473    90.016431    119.66323    90.107069    1036.2444    28.379559    18.846248    14.337752 
  460000    302.85087    1.2509986    3523.9495            0            0    2.1017855   -2.3247181   -7218.4229    44657.537 -0.067234084   -17.036218 -0.041707817    3524.1724    1540.0841    977.68498    860.42119    28.380254    18.845314    14.337059 0.00035156186 0.00035143675 0.00036212484 0.0003617855    302.85087     41.49527    35.978931    34.423473    90.016431    119.66323    90.107069    1054.6856    28.379465    18.846202    14.337932 
  470000    299.80984    1.2509986    3443.8378            0            0    2.1004044    -2.324711   -8528.2695    44657.537 -0.067234084   -17.036218 -0.041707817    3444.0621    1467.3743    944.93467    877.67034    28.380958    18.845715    14.337874 0.00034454807 0.00034351925 0.00034665114 0.00034574809    299.80984     41.49527    35.978931    34.423473    90.016431    119.66323    90.107069    1033.6442    28.380217    18.845611    14.337036 
  480000    296.15382    1.2509986      3537.32            0            0    2.1020122   -2.3246116    -8337.302    44657.537 -0.067234084   -17.036218 -0.041707817    3537.5426    1524.7692    980.57316    875.28131    28.380061    18.846329    14.337776 0.00034720247 0.00034710079 0.00034830432 0.0003481428    296.15382     41.49527    35.978931    34.423473    90.016431    119.66323    90.107069    1041.6074    28.379668    18.846443    14.337581 
  490000    295.29357    1.2509986    3531.6832            0            0    2.1029876   -2.3248736   -7165.0375    44657.537 -0.067234084   -17.036218 -0.041707817    3531.9051    1486.1957    988.71186    896.89564    28.379738    18.846181    14.337374 0.00035604128 0.00035576104 0.00036031901 0.00036018215    295.29357     41.49527    35.978931    34.423473    90.016431    119.66323    90.107069    1068.1238    28.379722    18.846706    14.337672 
  500000    302.50318    1.2509986     3509.783            0            0    2.1023092   -2.3251952   -7677.4326    44657.537 -0.067234084   -17.036218 -0.041707817    3510.0059    1475.6529    975.44345    902.37046    28.376458    18.844613     14.33702 0.00035322229 0.00035298016 0.00035636895 0.00035601544    302.50318     41.49527    35.978931    34.423473    90.016431    119.66323    90.107069    1059.6669     28.37946    18.845924     14.33803 
  510000    293.48986    1.2509986     3491.331            0            0     2.101986   -2.3248289   -9734.6726    44657.537 -0.067234084   -17.036218 -0.041707817    3491.5539    1465.2099    991.63337    882.42382    28.380561    18.845398    14.337225 0.00033819592 0.0003374416 0.00034388603 0.00034263862    293.48986     41.49527    35.978931    34.423473    90.016431    119.66323    90.107069    1014.5878     28.38057    18.846488    14.337661 
  520000    299.06391    1.2509986    3483.1571            0            0    2.1031586   -2.3247541   -8784.3524    44657.537 -0.067234084   -17.036218 -0.041707817    3483.3787    1498.8531    962.79852    870.38905    28.379569    18.846373    14.337636 0.00035463977 0.00035438429 0.00035569111 0.0003553255    299.06391     41.49527    35.978931    34.423473    90.016431    119.66323    90.107069    1063.9193    28.379495    18.846412    14.338102 
  530000    297.99379    1.2509986    3474.6551            0            0    2.1003917   -2.3247962   -7145.7102    44657.537 -0.067234084   -17.036218 -0.041707817    3474.8795    1479.4072    971.92025    874.48324    28.379575    18.846979    14.336755 0.0003470675 0.00034642544 0.00034912268 0.00034824613    297.99379     41.49527    35.978931    34.423473    90.016431    119.66323    90.107069    1041.2025    28.380027    18.846501    14.337054 
  540000    304.98726    1.2509986    3467.3866            0            0    2.1066781   -2.3244851   -7525.5137    44657.537 -0.067234084   -17.036218 -0.041707817    3467.6044    1434.0766    990.48606    889.44373    28.377617    18.845779    14.337842 0.00035210571 0.00035166681 0.00035704455 0.00035643232    304.98726     41.49527    35.978931    34.423473    90.016431    119.66323    90.107069    1056.3171    28.379219     18.84647    14.337988 
  550000    294.15671    1.2509986    3504.9915            0            0    2.1015355   -2.3251638   -8971.2217    44657.537 -0.067234084   -17.036218 -0.041707817    3505.2151    1505.8642    946.51767    899.37578    28.380793    18.845928    14.338132 0.00034894034 0.0003489336 0.00034968284 0.00034966345    294.15671     41.49527    35.978931    34.423473    90.016431    119.66323    90.107069     1046.821    28.379754     18.84626    14.337715 
  560000    300.23966    1.2509986    3562.8817            0            0    2.1066479   -2.3242538   -6898.0408    44657.537 -0.067234084   -17.036218 -0.041707817    3563.0993    1515.4589    984.89518    908.66607     28.37947    18.845703    14.336457 0.0003465498 0.00034586496 0.00034978745 0.00034936448    300.23966     41.49527    35.978931    34.423473    90.016431    119.66323    90.107069    1039.6494    28.380347    18.845684    14.337435 
  570000    296.35785    1.2509986    3501.9153            0            0    2.1044743   -2.3248005   -7134.2219    44657.537 -0.067234084   -17.036218 -0.041707817    3502.1356    1486.7817    980.66841    884.86012    28.380279    18.844942      14.3376 0.00036257598 0.00036247298 0.00036184619 0.00036168474    296.35785     41.49527    35.978931    34.423473    90.016431    119.66323    90.107069    1087.7279    28.379537    18.845952    14.337744 
  580000    292.06786    1.2509986    3540.0931            0            0    2.1004815   -2.3251037   -9662.7458    44657.537 -0.067234084   -17.036218 -0.041707817    3540.3177    1498.4386    968.29264    916.03445    28.379108    18.846253    14.336918 0.00035631345 0.00035606326 0.00036179692 0.00036173879    292.06786     41.49527    35.978931    34.423473    90.016431    119.66323    90.107069    1068.9403     28.37976    18.846091    14.338231 
  590000    302.31121    1.2509986     3487.264            0            0    2.1021262   -2.3249418   -7337.9495    44657.537 -0.067234084   -17.036218 -0.041707817    3487.4869    1481.1355    957.19223    896.25868    28.378859    18.846033    14.337551 0.00035460458 0.00035441921 0.00035582401 0.00035558754    302.31121     41.49527    35.978931    34.423473    90.016431    119.66323    90.107069    1063.8137    28.379887    18.846179    14.338151 
  600000    300.77345    1.2509986    3477.1095            0            0    2.0990461   -2.3248192    -8041.225    44657.537 -0.067234084   -17.036218 -0.041707817    3477.3353    1465.6331    980.76771    877.99476    28.380451    18.845639    14.338061 0.00036397514 0.00036387682 0.00036814853 0.00036785023    300.77345     41.49527    35.978931    34.423473    90.016431    119.66323    90.107069    1091.9254    28.379752     18.84627     14.33804 
  610000     302.9321    1.2509986    3530.6628            0            0    2.1040083   -2.3243112   -7374.8854    44657.537 -0.067234084   -17.036218 -0.041707817    3530.8831     1482.732    980.73677    907.87965    28.380536    18.845684    14.337448 0.00034969267 0.00034968133 0.00035146846 0.00035143494     302.9321     41.49527    35.978931    34.423473    90.016431    119.66323    90.107069     1049.078    28.379775    18.846112     14.33766 
  620000    288.92179    1.2509986    3529.7981            0            0    2.1008843   -2.3249873   -8228.0831    44657.537 -0.067234084   -17.036218 -0.041707817    3530.0222    1497.5536    968.50197    901.02069    28.380881     18.84667    14.337224 0.00033956098 0.00033935345 0.00034330157 0.00034302504    288.92179     41.49527    35.978931    34.423473    90.016431    119.66323    90.107069     1018.683    28.379529    18.846252    14.337354 
  630000    300.36793    1.2509986    3461.6482            0            0    2.1020622   -2.3252069   -7199.2934    44657.537 -0.067234084   -17.036218 -0.041707817    3461.8714     1456.165    958.33351    891.19437     28.37845    18.845288     14.33769 0.00034700012 0.00034684965 0.00034860364 0.00034852869    300.36793     41.49527    35.978931    34.423473    90.016431    119.66323    90.107069    1041.0003    28.379784    18.845805    14.337828 
  640000    292.73407    1.2509986    3514.8502            0            0    2.0998284    -2.325193   -8769.6492    44657.537 -0.067234084   -17.036218 -0.041707817    3515.0756    1518.3738    939.37644    899.10793    28.380567    18.846629    14.336702 0.00036915255 0.00036790277 0.00038087499 0.00037941801    292.73407     41.49527    35.978931    34.423473    90.016431    119.66323    90.107069    1107.4577    28.380644    18.846135    14.337055 
  650000    299.58028    1.2509986    3453.8796            0            0    2.1030699   -2.3248773   -6968.3514    44657.537 -0.067234084   -17.036218 -0.041707817    3454.1014    1448.1416     955.6991    895.44506    28.378961    18.845014     14.33788 0.00035695511 0.00035650975 0.00036662947 0.00036638287    299.58028     41.49527    35.978931    34.423473    90.016431    119.66323    90.107069    1070.8653    28.379582    18.846166    14.338382 
  660000    300.59716    1.2509986    3475.9805            0            0    2.1020733   -2.3250525   -8728.8829    44657.537 -0.067234084   -17.036218 -0.041707817    3476.2034    1487.6105    953.71752    881.03947    28.380722    18.845717     14.33828 0.00036935737 0.00036889909 0.00037233908 0.00037206906    300.59716     41.49527    35.978931    34.423473    90.016431    119.66323    90.107069    1108.0721    28.380165    18.846577    14.338112 
  670000    299.19445    1.2509986    3491.4881            0            0    2.1003753   -2.3252144   -7477.1003    44657.537 -0.067234084   -17.036218 -0.041707817     3491.713    1516.3819    950.38677    871.68725    28.378273    18.844955     14.33697 0.00035258096 0.00035238393 0.00034749292 0.00034718035    299.19445     41.49527    35.978931    34.423473    90.016431    119.66323    90.107069    1057.7429    28.379859    18.845828    14.337988 
  680000    300.40393    1.2509986    3453.0245            0            0    2.1045971    -2.325099   -7435.8181    44657.537 -0.067234084   -17.036218 -0.041707817     3453.245    1492.9525     972.2315    843.79163    28.379572    18.846341    14.336971 0.00034170148 0.00034149535 0.00034614372 0.00034569518    300.40393     41.49527    35.978931    34.423473    90.016431    119.66323    90.107069    1025.1044    28.379642    18.846391    14.337354 
  690000    294.85336    1.2509986    3492.1569            0            0    2.1041073   -2.3248837    -8387.382    44657.537 -0.067234084   -17.036218 -0.041707817    3492.3776    1491.6578    978.06485     870.3512      28.3801    18.845241    14.337287 0.00034791046 0.00034786643 0.00033746741 0.00033723385    294.85336     41.49527    35.978931    34.423473    90.016431    119.66323    90.107069    1043.7314    28.379781    18.846228    14.337943 
  700000    295.62469    1.2509986    3560.4961            0            0     2.098474   -2.3251619   -8598.1192    44657.537 -0.067234084   -17.036218 -0.041707817    3560.7228    1536.0186    981.95467    890.62434    28.374801     18.84537    14.336347 0.00034143125 0.00034135029 0.00034296787 0.00034286305    295.62469     41.49527    35.978931    34.423473    90.016431    119.66323    90.107069    1024.2938    28.379664     18.84644    14.337667 
  710000    298.78872    1.2509986    3529.4544            0            0    2.1037052    -2.324303   -8369.7744    44657.537 -0.067234084   -17.036218 -0.041707817     3529.675    1532.1688    963.59419    885.56884    28.378653    18.845394    14.337525 0.00036403458 0.00036325398 0.00037130807 0.00037066824    298.78872     41.49527    35.978931    34.423473    90.016431    119.66323    90.107069    1092.1037    28.379111    18.845876    14.337225 
  720000    290.65421    1.2509986    3482.4296            0            0    2.1024445   -2.3245759    -8804.169    44657.537 -0.067234084   -17.036218 -0.041707817    3482.6517    1463.3761    964.52079    895.72754    28.380946    18.846299    14.338027 0.0003623175 0.00036230984 0.00036510615 0.00036507357    290.65421     41.49527    35.978931    34.423473    90.016431    119.66323    90.107069    1086.9525    28.379713    18.846253    14.337722 
  730000     295.8742    1.2509986    3537.3655            0            0    2.1027946   -2.3245651   -7599.7223    44657.537 -0.067234084   -17.036218 -0.041707817    3537.5872    1516.3114    959.51588    906.16084    28.379902    18.844325     14.33655 0.00035998157 0.0003596067 0.00036518041 0.00036479927     295.8742     41.49527    35.978931    34.423473    90.016431    119.66323    90.107069    1079.9447    28.379501    18.845849    14.337296 
  740000    300.14246    1.2509986    3449.5027            0            0    2.1016693   -2.3245028   -8247.1401    44657.537 -0.067234084   -17.036218 -0.041707817    3449.7256    1468.1091    943.27622    882.99217    28.378844    18.845943    14.337169   0.00035353 0.00035348757 0.00035182149 0.00035171213    300.14246     41.49527    35.978931    34.423473    90.016431    119.66323    90.107069      1060.59    28.379728    18.845984    14.337693 
  750000    296.41564    1.2509986    3503.0286            0            0    2.1058833   -2.3244756   -8880.1985    44657.537 -0.067234084   -17.036218 -0.041707817    3503.2472    1454.1679    982.41818    905.05757     28.37777    18.844547    14.337073 0.00036022955 0.00036020916 0.00036481059 0.00036466341    296.41564     41.49527    35.978931    34.423473    90.016431    119.66323    90.107069    1080.6887    28.379839    18.846296    14.337776 
  760000    296.64111    1.2509986    3488.4035            0            0    2.1042993   -2.3245155   -7471.3097    44657.537 -0.067234084   -17.036218 -0.041707817    3488.6237    1484.9424    975.52081    874.83258    28.380858    18.847153    14.337318 0.00035318677 0.00035275681 0.00034401145 0.00034356542    296.64111     41.49527    35.978931    34.423473    90.016431    119.66323    90.107069    1059.5603    28.380371     18.84615    14.337501 
  770000    293.75245    1.2509986    3447.2078            0            0    2.1051974   -2.3246764   -6519.6514    44657.537 -0.067234084   -17.036218 -0.041707817    3447.4273     1455.544    962.96219    880.95389    28.378142     18.84472    14.337373 0.00034515762 0.00034510309 0.00034534987 0.00034517639    293.75245     41.49527    35.978931    34.423473    90.016431    119.66323    90.107069    1035.4729    28.379606    18.846125    14.337904 
  780000    297.47366    1.2509986     3561.913            0            0    2.1055578   -2.3243023   -8739.4947    44657.537 -0.067234084   -17.036218 -0.041707817    3562.1318    1535.2176    985.91957    891.54436    28.379885    18.844576    14.337906 0.00035615872 0.00035587623 0.0003568479 0.00035667383    297.47366     41.49527    35.978931    34.423473    90.016431    119.66323    90.107069    1068.4762    28.379431    18.846073    14.338142 
  790000    299.64751    1.2509986    3549.3743            0            0     2.105278   -2.3241625     -7260.52    44657.537 -0.067234084   -17.036218 -0.041707817    3549.5932    1526.9544    982.80136    884.96688    28.379502    18.845332    14.337011 0.00035673777 0.00035630675 0.00035831575 0.00035793188    299.64751     41.49527    35.978931    34.423473    90.016431    119.66323    90.107069    1070.2133    28.379851    18.845599    14.337451 
  800000    301.24341    1.2509986    3545.2607            0            0    2.1017247    -2.324568   -9639.2533    44657.537 -0.067234084   -17.036218 -0.041707817    3545.4835    1516.9617    977.76824    896.63316    28.379335    18.846031    14.336416 0.00034789865 0.00034771167 0.00034893992 0.00034854655    301.24341     41.49527    35.978931    34.423473    90.016431    119.66323    90.107069     1043.696    28.380193    18.846196    14.337759 
Loop time of 2301.85 on 60 procs for 800000 steps with 4560 atoms

Pair  time (%) = 437.056 (18.9872)
Bond  time (%) = 47.1458 (2.04817)
Kspce time (%) = 1143 (49.6556)
Neigh time (%) = 12.5458 (0.545034)
Comm  time (%) = 462.216 (20.0802)
Outpt time (%) = 0.496734 (0.0215798)
Other time (%) = 199.39 (8.6622)

Nlocal:    76 ave 84 max 68 min
Histogram: 2 4 3 13 9 10 7 3 6 3
Nghost:    3994.98 ave 4077 max 3890 min
Histogram: 4 7 5 4 2 1 9 14 10 4
Neighs:    28107 ave 30958 max 25256 min
Histogram: 4 1 7 12 8 7 7 4 6 4

Total # of neighbors = 1686420
Ave neighs/atom = 369.829
Ave special neighs/atom = 10.6316
Neighbor list builds = 5511
Dangerous builds = 0
System init for write_data ...
PPPM initialization ...
  G vector (1/distance) = 0.253736
  grid = 12 12 15
  stencil order = 5
  estimated absolute RMS force accuracy = 1.98714e-05
  estimated relative force accuracy = 5.98421e-08
  using double precision FFTs
  3d grid and FFT values/proc = 864 48
