LAMMPS data file via write_data, version 15 May 2015, timestep = 2100000

2611 atoms
6 atom types
1749 bonds
4 bond types
894 angles
3 angle types
44 dihedrals
3 dihedral types
10 impropers
1 improper types

-1.5113129255755659e+01 1.5113129255755659e+01 xlo xhi
-1.5113129255755659e+01 1.5113129255755659e+01 ylo yhi
-1.5113129255755659e+01 1.5113129255755659e+01 zlo zhi

Masses

1 15.9994
2 1.00794
3 12.0107
4 1.00794
5 12.0107
6 12.0107

Bond Coeffs # harmonic

1 1000 1
2 469 1.4
3 367 1.08
4 469 0.7

Angle Coeffs # harmonic

1 100 109.47
2 35 120
3 63 120

Dihedral Coeffs # opls

1 0 7.25 0 0
2 0 7.25 0 0
3 0 7.25 0 0

Improper Coeffs # cvff

1 2.5 -1 2

Atoms # full

2437 813 1 -8.1999999999999995e-01 -9.4068008348428833e+00 -1.1347256310293261e+01 -1.1545309192296411e+01 0 -1 2
1731 577 2 4.0999999999999998e-01 -1.0002423651433435e+01 -8.7577110617818335e+00 -1.2894953027489226e+01 2 -1 -1
1729 577 1 -8.1999999999999995e-01 -9.4253803699985603e+00 -9.1771848295362197e+00 -1.3595740238633796e+01 2 -1 -1
1730 577 2 4.0999999999999998e-01 -9.1107556289034619e+00 -1.0071342320382556e+01 -1.3277096869363465e+01 2 -1 -1
1219 407 1 -8.1999999999999995e-01 -1.2935114373669542e+01 -1.2336544851719131e+01 -9.7666690929205551e+00 -1 1 1
420 140 2 4.0999999999999998e-01 -7.7815607713688326e+00 -1.1769361220341306e+01 -1.1702169056300333e+01 -1 2 2
2530 844 1 -8.1999999999999995e-01 -1.2082363124400972e+01 -1.2083198422104640e+01 -1.2313524416588404e+01 1 1 0
2532 844 2 4.0999999999999998e-01 -1.2219287987894976e+01 -1.1536989670241345e+01 -1.3139930844726621e+01 1 1 0
1475 492 2 4.0999999999999998e-01 -1.1959938813837962e+01 -9.8042135691779144e+00 -1.1133563627889446e+01 0 0 0
1220 407 2 4.0999999999999998e-01 -1.2718189090391427e+01 -1.2289608075115906e+01 -1.0741748749542797e+01 -1 1 1
1474 492 1 -8.1999999999999995e-01 -1.1470027465041566e+01 -8.9488805608162210e+00 -1.1302182444066863e+01 0 0 0
2531 844 2 4.0999999999999998e-01 -1.1559804836281852e+01 -1.2905183831496686e+01 -1.2540047689463037e+01 1 1 0
2439 813 2 4.0999999999999998e-01 -9.5616479875159541e+00 -1.1500944381725365e+01 -1.0569377658447197e+01 0 -1 2
1367 456 2 4.0999999999999998e-01 -9.5314502633921130e+00 -1.4404193645482435e+01 -1.2730418242433725e+01 -1 0 0
2438 813 2 4.0999999999999998e-01 -1.0262794164343470e+01 -1.1483341894747728e+01 -1.2044103796247784e+01 0 -1 2
440 147 2 4.0999999999999998e-01 -9.8668335782583689e+00 -1.3345442643858323e+01 -1.4609204312620758e+01 0 0 -2
946 316 1 -8.1999999999999995e-01 -1.2273946918109376e+01 -1.0642427457379688e+01 -1.4871023785991536e+01 1 0 -1
327 109 2 4.0999999999999998e-01 -1.1604788605342653e+01 -7.7389946652114565e+00 -1.0026055239130987e+01 0 0 0
1366 456 1 -8.1999999999999995e-01 -1.0480170314346717e+01 -1.4246171503647847e+01 -1.3004277978466909e+01 -1 0 0
1142 381 2 4.0999999999999998e-01 -1.4954789493119293e+01 -1.2028945978092260e+01 -9.9484069880449333e+00 1 1 1
1368 456 2 4.0999999999999998e-01 -1.1086995117724712e+01 -1.4811286668606090e+01 -1.2445307116877256e+01 -1 0 0
603 201 2 4.0999999999999998e-01 -1.3666250120755878e+01 -8.0628051606161364e+00 -1.3205786881938305e+01 0 0 -1
1101 367 2 4.0999999999999998e-01 -1.4398366741041686e+01 -1.0571082853362821e+01 -1.3372613031976460e+01 1 0 1
425 142 2 4.0999999999999998e-01 -7.8944084691770424e+00 -9.8926223112610323e+00 -1.0847915836442443e+01 0 1 1
424 142 1 -8.1999999999999995e-01 -7.7589580821502517e+00 -9.1883542858587006e+00 -1.0150994276608357e+01 0 1 1
1866 622 2 4.0999999999999998e-01 -8.1626836071989572e+00 -8.1480852518161822e+00 -1.3928243571475296e+01 3 -2 -1
1246 416 1 -8.1999999999999995e-01 -1.4261242702761223e+01 -1.4760781954672488e+01 -1.4762489074724739e+01 2 1 -1
638 213 2 4.0999999999999998e-01 -1.4884417423775528e+01 -1.4800700701333755e+01 -9.4386256980148033e+00 -1 2 0
1476 492 2 4.0999999999999998e-01 -1.2028735406811947e+01 -8.3528653418074033e+00 -1.1878941798463202e+01 0 0 0
1221 407 2 4.0999999999999998e-01 -1.2138446688358968e+01 -1.2051124317944076e+01 -9.2338504882691765e+00 -1 1 1
1099 367 1 -8.1999999999999995e-01 -1.4393289727697651e+01 -9.5876522258893040e+00 -1.3191289254822276e+01 1 0 1
947 316 2 4.0999999999999998e-01 -1.2308423849144610e+01 -9.6465718635677398e+00 -1.4955421688163973e+01 1 0 -1
470 157 2 4.0999999999999998e-01 -1.0205250547933762e+01 -8.0554121723909535e+00 -1.4551265734257566e+01 1 0 0
1078 360 1 -8.1999999999999995e-01 -8.1696440570985462e+00 -1.4620975651444246e+01 -9.1296257334439073e+00 1 0 2
418 140 1 -8.1999999999999995e-01 -6.8949502007103671e+00 -1.2183852717046841e+01 -1.1496843645095479e+01 -1 2 2
419 140 2 4.0999999999999998e-01 -6.9878695348562889e+00 -1.3179435769015734e+01 -1.1481994485707530e+01 -1 2 2
399 133 2 4.0999999999999998e-01 -5.8166523362507583e+00 -1.5038550469096428e+01 -9.6890216696051432e+00 1 1 0
1358 453 2 4.0999999999999998e-01 -3.0497621031108118e+00 -1.4289038868782594e+01 -1.1316790037259633e+01 2 0 1
907 303 1 -8.1999999999999995e-01 -6.2238768791048447e+00 -1.4328828272592725e+01 -1.4974129490879783e+01 -1 1 0
2299 767 1 -8.1999999999999995e-01 -7.4638975949252409e+00 -1.4474347877708844e+01 -1.2568955635439345e+01 1 0 2
1652 551 2 4.0999999999999998e-01 -6.3906607794191039e-01 -1.1339959340412118e+01 -1.3249595396192680e+01 0 1 2
280 94 1 -8.1999999999999995e-01 -3.8997278380106035e+00 -1.3758353884052037e+01 -1.3216759376264585e+01 -1 0 1
2200 734 1 -8.1999999999999995e-01 -1.1585483879270679e+00 -1.2272082728404103e+01 -9.9620454430454508e+00 1 0 0
426 142 2 4.0999999999999998e-01 -7.4274095117072294e+00 -8.3502002205556654e+00 -1.0584137682805428e+01 0 1 1
741 247 2 4.0999999999999998e-01 -5.5826899718134513e+00 -1.1381944553137897e+01 -1.2555721004052751e+01 1 1 1
981 327 2 4.0999999999999998e-01 -1.3600186246267594e+00 -7.8264900041189405e+00 -9.9288907518514335e+00 0 1 1
1299 433 2 4.0999999999999998e-01 -3.0051743547556651e+00 -1.0480962872476681e+01 -1.2122111659938575e+01 0 -2 -1
739 247 1 -8.1999999999999995e-01 -4.7228408206078090e+00 -1.1147576900704166e+01 -1.3009341106496334e+01 1 1 1
400 134 1 -8.1999999999999995e-01 -4.8787995120733623e+00 -8.7660421502658732e+00 -1.4432748523781605e+01 0 2 0
401 134 2 4.0999999999999998e-01 -4.6110965895853777e+00 -9.5582759358609177e+00 -1.3884349929121353e+01 0 2 0
1297 433 1 -8.1999999999999995e-01 -2.0889022513170605e+00 -1.0250791451347693e+01 -1.1794229912374883e+01 0 -2 -1
1298 433 2 4.0999999999999998e-01 -1.8206815117922837e+00 -9.3572786987991972e+00 -1.2154413898124604e+01 0 -2 -1
2202 734 2 4.0999999999999998e-01 -1.9837314629209253e+00 -1.2802325258230525e+01 -1.0156867721753246e+01 1 0 0
2201 734 2 4.0999999999999998e-01 -1.2295781951169928e+00 -1.1373668274046828e+01 -1.0395458089335438e+01 1 0 0
740 247 2 4.0999999999999998e-01 -4.2210908696993688e+00 -1.1985095753409203e+01 -1.3225787673406289e+01 1 1 1
282 94 2 4.0999999999999998e-01 -3.3605241295731112e+00 -1.3872217455452269e+01 -1.4051225910258008e+01 -1 0 1
281 94 2 4.0999999999999998e-01 -4.7524912690518075e+00 -1.4274343988067354e+01 -1.3297930105206282e+01 -1 0 1
1564 522 1 -8.1999999999999995e-01 -1.9286309495539733e+00 -7.8530397705896613e+00 -1.2886641610336197e+01 -1 1 0
1357 453 1 -8.1999999999999995e-01 -3.0455947315684408e+00 -1.4386093565684167e+01 -1.0321499664174800e+01 2 0 1
2301 767 2 4.0999999999999998e-01 -7.1858770340110683e+00 -1.4657657619802059e+01 -1.3511898920807798e+01 1 0 2
1865 622 2 4.0999999999999998e-01 -6.6141916086097456e+00 -7.8521446126048327e+00 -1.4354065914973997e+01 3 -2 -1
402 134 2 4.0999999999999998e-01 -5.6012433651757316e+00 -9.0314082580270068e+00 -1.5071259006376513e+01 0 2 0
1359 453 2 4.0999999999999998e-01 -3.8738430436359383e+00 -1.4864579002477138e+01 -1.0029786912549113e+01 2 0 1
1407 469 2 4.0999999999999998e-01 -1.4955127218615008e+01 -3.4255389185820153e+00 -1.3180183809378100e+01 0 -1 -1
2336 779 2 4.0999999999999998e-01 -7.9377942926240417e+00 -2.3501426158938994e+00 -1.4481087222117479e+01 2 1 2
469 157 1 -8.1999999999999995e-01 -1.0924790431958691e+01 -7.4667856694163595e+00 -1.4919804947162397e+01 1 0 0
325 109 1 -8.1999999999999995e-01 -1.1444433590450643e+01 -6.9915971909793786e+00 -9.3812892497622009e+00 0 0 0
1028 343 2 4.0999999999999998e-01 -1.3923934595615941e+01 -5.7612419600007758e+00 -1.0844659250269071e+01 1 0 1
2337 779 2 4.0999999999999998e-01 -7.6012741933144179e+00 -3.9436150282863949e+00 -1.4361367117993384e+01 2 1 2
602 201 2 4.0999999999999998e-01 -1.2431360002331809e+01 -7.1365318225679033e+00 -1.3738513085758484e+01 0 0 -1
351 117 2 4.0999999999999998e-01 -1.0924552038116158e+01 -2.3597158721642124e+00 -1.0029631659476664e+01 0 0 1
350 117 2 4.0999999999999998e-01 -1.0183366282041812e+01 -1.8768212681427006e+00 -1.1402289415346290e+01 0 0 1
1569 523 2 4.0999999999999998e-01 -1.2620891922469543e+01 -5.4313904463387921e+00 -1.2524721661790519e+01 1 1 0
2103 701 2 4.0999999999999998e-01 -1.3014468280556603e+01 -2.5397538749498967e+00 -1.1584742745191440e+01 1 0 0
2101 701 1 -8.1999999999999995e-01 -1.3957948233049322e+01 -2.2109290949778782e+00 -1.1542793205696922e+01 1 0 0
1567 523 1 -8.1999999999999995e-01 -1.2231380363722486e+01 -4.5223304515730174e+00 -1.2376631943724753e+01 1 1 0
422 141 2 4.0999999999999998e-01 -1.3649990448514172e+01 -6.0289222738787451e-01 -1.2107562920746872e+01 0 2 -1
1136 379 2 4.0999999999999998e-01 -1.1308486187941160e+01 -2.7685215459923036e+00 -1.4199894178423982e+01 0 0 2
808 270 1 -8.1999999999999995e-01 -9.4804215531371234e+00 -5.2069417815761234e+00 -1.0384995012975491e+01 2 1 0
809 270 2 4.0999999999999998e-01 -9.8474462621351879e+00 -4.9766653033660155e+00 -1.1286274934723053e+01 2 1 0
1137 379 2 4.0999999999999998e-01 -9.7658914033610866e+00 -3.2287396140197924e+00 -1.3925424683690483e+01 0 0 2
1867 623 1 -8.1999999999999995e-01 -7.8639792690507111e+00 -2.2543079190626898e+00 -1.1327034536903998e+01 1 -1 0
1869 623 2 4.0999999999999998e-01 -7.8689808612626155e+00 -1.2942776151115414e+00 -1.1606957323989276e+01 1 -1 0
2102 701 2 4.0999999999999998e-01 -1.4482270006978542e+01 -2.7822087766501884e+00 -1.0911313636427877e+01 1 0 0
1135 379 1 -8.1999999999999995e-01 -1.0642494687928384e+01 -3.5048404235816868e+00 -1.4319600941623008e+01 0 0 2
810 270 2 4.0999999999999998e-01 -9.8576672117163575e+00 -4.5816859963061098e+00 -9.7017814132263922e+00 2 1 0
1256 419 2 4.0999999999999998e-01 -1.2719685312635388e+01 -7.8316975014708134e-01 -1.4381342073181495e+01 0 0 2
1568 523 2 4.0999999999999998e-01 -1.1777716808983714e+01 -4.2138391926372876e+00 -1.3212731482671900e+01 1 1 0
15 5 2 4.0999999999999998e-01 -1.1873370141872043e+01 -5.3043643812578267e-01 -9.9304854693369862e+00 1 -3 0
601 201 1 -8.1999999999999995e-01 -1.3182235308795951e+01 -7.1966965093166797e+00 -1.3080784851942761e+01 0 0 -1
326 109 2 4.0999999999999998e-01 -1.0856188594170696e+01 -6.3042432842668923e+00 -9.8073788384286580e+00 0 0 0
225 75 2 4.0999999999999998e-01 -7.5596375143751047e+00 -5.7941694537292907e+00 -1.0753756307361007e+01 0 1 -1
349 117 1 -8.1999999999999995e-01 -1.0981596754499725e+01 -1.7431809109228329e+00 -1.0814915365611864e+01 0 0 1
1027 343 1 -8.1999999999999995e-01 -1.4894504964791533e+01 -5.8151363700412482e+00 -1.0609864718934674e+01 1 0 1
1029 343 2 4.0999999999999998e-01 -1.5105870075807669e+01 -6.7332976372479187e+00 -1.0274686084377290e+01 1 0 1
1868 623 2 4.0999999999999998e-01 -7.7190554217469058e+00 -2.8344654514010781e+00 -1.2128567050063428e+01 1 -1 0
2335 779 1 -8.1999999999999995e-01 -7.9268232838791279e+00 -3.1383630292388212e+00 -1.3865759484397786e+01 2 1 2
2426 809 2 4.0999999999999998e-01 -6.1557957133952694e+00 -2.1338674885025135e+00 -1.3265055378475523e+01 1 0 1
1676 559 2 4.0999999999999998e-01 -5.3459420638594111e+00 -2.3457732721324653e-01 -1.4255730960701980e+01 0 0 -1
1566 522 2 4.0999999999999998e-01 -1.1687029500265389e+00 -7.5468560711673778e+00 -1.3460053271543590e+01 -1 1 0
5 2 2 4.0999999999999998e-01 -4.4919416349300878e+00 -7.5306701042039697e+00 -1.3004569940173999e+01 0 1 0
1905 635 2 4.0999999999999998e-01 -2.4080326999304269e-01 -3.8716362286391774e+00 -1.2572471775374806e+01 -1 0 0
1452 484 2 4.0999999999999998e-01 -1.7425054676572866e+00 -5.4046922113574034e+00 -9.6437943109694899e+00 0 1 -1
7 3 1 -8.1999999999999995e-01 -5.4014231007419724e+00 -2.2983954873650898e+00 -1.0038929330476684e+01 -1 0 2
1565 522 2 4.0999999999999998e-01 -2.7080196922163680e+00 -7.2387799969302931e+00 -1.3010246598639938e+01 -1 1 0
1451 484 2 4.0999999999999998e-01 -1.3753053603676051e+00 -3.8355050416642467e+00 -9.3800732865103260e+00 0 1 -1
1464 488 2 4.0999999999999998e-01 -6.7031888854995181e+00 -6.7007739402193245e+00 -9.1385440288736479e+00 1 1 -1
971 324 2 4.0999999999999998e-01 -4.5861986291988668e+00 -7.1565705780048106e-01 -9.8193250869367805e+00 1 -1 -2
2425 809 1 -8.1999999999999995e-01 -5.2297715850532498e+00 -1.7639850782574236e+00 -1.3340594761485994e+01 1 0 1
2427 809 2 4.0999999999999998e-01 -4.6568356061562248e+00 -2.1494793650755391e+00 -1.2617284039726709e+01 1 0 1
224 75 2 4.0999999999999998e-01 -6.2972159270478212e+00 -6.2593400862814512e+00 -1.1679305260759847e+01 0 1 -1
223 75 1 -8.1999999999999995e-01 -6.8723083231544475e+00 -6.5058309679198505e+00 -1.0899208555405426e+01 0 1 -1
2021 674 2 4.0999999999999998e-01 -4.5846324024172720e+00 -5.2674418393866009e+00 -1.1537810060360247e+01 0 2 0
1904 635 2 4.0999999999999998e-01 -1.4820587755596115e+00 -3.4406604891128953e+00 -1.1602792698013507e+01 -1 0 0
450 150 2 4.0999999999999998e-01 -1.4076941745867710e+00 -2.6473504383575630e-01 -1.4072341251543971e+01 0 -1 1
1903 635 1 -8.1999999999999995e-01 -1.0281258659102797e+00 -3.2626734169015776e+00 -1.2475893728461308e+01 -1 0 0
4 2 1 -8.1999999999999995e-01 -4.6710076668081566e+00 -6.5590156570145268e+00 -1.2850092975757320e+01 0 1 0
1864 622 1 -8.1999999999999995e-01 -7.4220452588932027e+00 -7.4767605643986705e+00 -1.3899644063865916e+01 3 -2 -1
448 150 1 -8.1999999999999995e-01 -1.2308655080109947e+00 -1.1896705483690138e+00 -1.4408891578163878e+01 0 -1 1
1450 484 1 -8.1999999999999995e-01 -1.7097287942193233e+00 -4.4935851951899295e+00 -1.0054707586632315e+01 0 1 -1
979 327 1 -8.1999999999999995e-01 -1.6364712541185735e+00 -7.1188289151187503e+00 -9.2786371941581063e+00 0 1 1
2022 674 2 4.0999999999999998e-01 -3.4138116546528696e+00 -4.5236246366783543e+00 -1.0676040019686114e+01 0 2 0
6 2 2 4.0999999999999998e-01 -4.4792707469411877e+00 -6.0474637222139904e+00 -1.3687703552720256e+01 0 1 0
8 3 2 4.0999999999999998e-01 -6.2009733840931816e+00 -1.9517621741660562e+00 -1.0529443941226107e+01 -1 0 2
9 3 2 4.0999999999999998e-01 -5.0568864811864955e+00 -3.1166155779240547e+00 -1.0499201403419004e+01 -1 0 2
2516 839 2 4.0999999999999998e-01 -7.1923913127010533e+00 -5.8860425306129880e+00 -1.4629041560392716e+01 0 1 1
2020 674 1 -8.1999999999999995e-01 -4.3369969190793700e+00 -4.4308617957502427e+00 -1.1049086837605383e+01 0 2 0
449 150 2 4.0999999999999998e-01 -1.2403262047045267e+00 -1.8310196603720161e+00 -1.3641674712909454e+01 0 -1 1
1541 514 2 4.0999999999999998e-01 -6.8559722323205641e-01 -1.3573556207521715e+00 -9.2365345274688426e+00 1 0 -1
900 300 2 4.0999999999999998e-01 -9.6468782966419830e+00 -9.8432472617808209e+00 -6.8997677417295638e+00 -1 0 1
2574 858 2 4.0999999999999998e-01 -1.2789966133615607e+01 -1.3380690011580821e+01 -5.1927274154910439e+00 0 0 0
2572 858 1 -8.1999999999999995e-01 -1.2578792795166716e+01 -1.4026951466127807e+01 -4.4593844376946787e+00 0 0 0
1080 360 2 4.0999999999999998e-01 -7.9315273663259100e+00 -1.4809955885838042e+01 -8.1769312364246982e+00 1 0 2
1031 344 2 4.0999999999999998e-01 -9.5751089090882679e+00 -1.4990841716205932e+01 -6.2778078270490454e+00 1 0 1
864 288 2 4.0999999999999998e-01 -1.4765710041188886e+01 -9.5215430487482529e+00 -7.4413028904377514e+00 1 0 1
899 300 2 4.0999999999999998e-01 -9.2366509453828431e+00 -1.1095260036465719e+01 -5.9349307038899148e+00 -1 0 1
898 300 1 -8.1999999999999995e-01 -9.8941446102483077e+00 -1.0769181212158417e+01 -6.6142057864511461e+00 -1 0 1
569 190 2 4.0999999999999998e-01 -9.6127030304581762e+00 -1.1698392811141357e+01 -8.2132311070946038e+00 0 1 0
570 190 2 4.0999999999999998e-01 -9.7401340906641494e+00 -1.3138620794536463e+01 -8.9723343133750326e+00 0 1 0
568 190 1 -8.1999999999999995e-01 -1.0028180605092674e+01 -1.2181057551524976e+01 -8.9842390253619033e+00 0 1 0
1916 639 2 4.0999999999999998e-01 -1.1322162148413941e+01 -1.4788826544178882e+01 -3.7760284961704862e+00 1 -1 0
2430 810 2 4.0999999999999998e-01 -1.1526494817385368e+01 -1.1679328808666108e+01 -6.3746084213153278e+00 1 1 2
2573 858 2 4.0999999999999998e-01 -1.3409257763849297e+01 -1.4221874936839464e+01 -3.9374909219001193e+00 0 0 0
2429 810 2 4.0999999999999998e-01 -1.2829693759766243e+01 -1.1229115173818416e+01 -5.4995581182605466e+00 1 1 2
1132 378 1 -8.1999999999999995e-01 -7.9345095786714968e+00 -1.4381755158305619e+01 -3.3834945784009172e+00 -1 1 1
2428 810 1 -8.1999999999999995e-01 -1.2468038600755762e+01 -1.1913678659488761e+01 -6.1325022695092510e+00 1 1 2
1312 438 1 -8.1999999999999995e-01 -1.3126936667338427e+01 -1.0134852138985735e+01 -4.1364624998500243e+00 -1 0 1
1032 344 2 4.0999999999999998e-01 -8.4741042420761268e+00 -1.4211866138976555e+01 -5.3570913980906507e+00 1 0 1
1313 438 2 4.0999999999999998e-01 -1.2602881606191643e+01 -1.0816653853383716e+01 -3.6260189617687697e+00 -1 0 1
639 213 2 4.0999999999999998e-01 -1.3836075726289703e+01 -1.3786937725319820e+01 -8.7037806346536719e+00 -1 2 0
1603 535 1 -8.1999999999999995e-01 -1.5037012084244079e+01 -1.3445549064157712e+01 -3.2514621617659980e+00 0 -1 2
1322 441 2 4.0999999999999998e-01 -1.0226242661495760e+01 -7.9185896602675827e+00 -8.5501688391365391e+00 0 1 -1
863 288 2 4.0999999999999998e-01 -1.4465753885686961e+01 -1.1087781399656180e+01 -7.0896543398672183e+00 1 0 1
1321 441 1 -8.1999999999999995e-01 -9.5357015762127251e+00 -8.4448535564426521e+00 -8.0539438654460476e+00 0 1 -1
637 213 1 -8.1999999999999995e-01 -1.4457719302756514e+01 -1.4558282762796521e+01 -8.5673035744058676e+00 -1 2 0
1314 438 2 4.0999999999999998e-01 -1.3446045582550470e+01 -9.4228983178598309e+00 -3.5108977779169503e+00 -1 0 1
1030 344 1 -8.1999999999999995e-01 -8.5997063328109462e+00 -1.4814866237175789e+01 -6.1449079739500441e+00 1 0 1
119 40 2 4.0999999999999998e-01 -1.2070544721413121e+01 -1.4838010837229046e+01 -5.9997416806679666e+00 1 -1 0
1323 441 2 4.0999999999999998e-01 -8.7690040545930081e+00 -8.6468562598191223e+00 -8.6633777958018925e+00 0 1 -1
2295 765 2 4.0999999999999998e-01 -5.0692358567565066e+00 -9.4959190230064792e+00 -8.4334620493553771e+00 1 0 0
290 97 2 4.0999999999999998e-01 -4.0156863095425699e-01 -1.0901609004265028e+01 -9.0276871809898971e+00 0 0 2
1381 461 1 -8.1999999999999995e-01 -3.2937328419650207e+00 -1.4624010164559349e+01 -6.8039056344337894e+00 0 -1 1
1616 539 2 4.0999999999999998e-01 -7.2909359315009024e+00 -9.7929079326500421e+00 -3.3309886259858992e+00 0 0 -2
1398 466 2 4.0999999999999998e-01 -1.4113857895832389e+00 -1.5016448441431749e+01 -6.2887778750148779e+00 2 0 1
631 211 1 -8.1999999999999995e-01 -5.7659956263088574e+00 -1.3060572018213938e+01 -8.7326851865956669e+00 0 0 0
1133 378 2 4.0999999999999998e-01 -7.2587827065159152e+00 -1.3702545724437082e+01 -3.0969500978928899e+00 -1 1 1
1617 539 2 4.0999999999999998e-01 -6.6285186940631942e+00 -1.1164330347231170e+01 -3.9201720643801714e+00 0 0 -2
1615 539 1 -8.1999999999999995e-01 -7.4857960852104135e+00 -1.0711224971085624e+01 -3.6756092500206528e+00 0 0 -2
2268 756 2 4.0999999999999998e-01 -4.0280318966803819e-01 -1.2557645238957459e+01 -3.7179927692341348e+00 -2 0 -1
1172 391 2 4.0999999999999998e-01 -1.3402129813818870e+00 -8.1412313959777443e+00 -6.4037524351609107e+00 0 1 -2
1060 354 1 -8.1999999999999995e-01 -2.1138925455250313e+00 -9.8448623848597983e+00 -6.6148034844766386e+00 0 0 1
1803 601 2 4.0999999999999998e-01 -5.0083976117214117e+00 -1.2542490536363717e+01 -3.6937574037759369e+00 0 0 0
1620 540 2 4.0999999999999998e-01 -4.4798426990564746e+00 -1.1237478187529362e+01 -5.5926103491577290e+00 1 1 0
1618 540 1 -8.1999999999999995e-01 -4.8855819669901539e+00 -1.0336776839843619e+01 -5.7480220760946814e+00 1 1 0
1619 540 2 4.0999999999999998e-01 -5.3984035411813522e+00 -1.0345838252705406e+01 -6.6064927650482783e+00 1 1 0
1061 354 2 4.0999999999999998e-01 -3.1079236418863605e+00 -9.9494832499555130e+00 -6.5832333765318420e+00 0 0 1
340 114 1 -8.1999999999999995e-01 -3.9646557436839327e+00 -7.9169180595103592e+00 -8.3736276481923859e+00 0 0 1
746 249 2 4.0999999999999998e-01 -3.6013542069717417e+00 -1.3286788652911943e+01 -5.7814796250577363e+00 0 0 2
1204 402 1 -8.1999999999999995e-01 -4.3566876505064780e+00 -7.7073505979309136e+00 -5.1442917521190683e+00 -1 1 3
1206 402 2 4.0999999999999998e-01 -4.7747658835159967e+00 -8.5914881602405373e+00 -5.3529811293416394e+00 -1 1 3
1062 354 2 4.0999999999999998e-01 -1.6802030852712910e+00 -1.0670518571037828e+01 -6.2539082881341077e+00 0 0 1
747 249 2 4.0999999999999998e-01 -3.0170465322612454e+00 -1.2659620976747624e+01 -4.3915234646177943e+00 0 0 2
745 249 1 -8.1999999999999995e-01 -3.7829702811150021e+00 -1.2647350603720968e+01 -5.0343688668220459e+00 0 0 2
291 97 2 4.0999999999999998e-01 -7.6113745155165979e-01 -9.9117847347598627e+00 -7.7796122366257627e+00 0 0 2
1481 494 2 4.0999999999999998e-01 -6.0739218849784660e+00 -1.4636965480618816e+01 -6.0170390038311190e+00 0 -1 0
342 114 2 4.0999999999999998e-01 -4.0657165113864995e+00 -7.6286397169470472e+00 -7.4214080091632431e+00 0 0 1
2294 765 2 4.0999999999999998e-01 -6.6336877761898805e+00 -9.6932324945146018e+00 -8.8580685452364900e+00 1 0 0
2266 756 1 -8.1999999999999995e-01 -1.2868934203007374e+00 -1.2392347525404082e+01 -3.2808417208876861e+00 -2 0 -1
1383 461 2 4.0999999999999998e-01 -3.6254460275481435e+00 -1.4265073269126797e+01 -7.6763565230843671e+00 0 -1 1
633 211 2 4.0999999999999998e-01 -6.7144185060848933e+00 -1.3195032831688460e+01 -9.0198336334131941e+00 0 0 0
289 97 1 -8.1999999999999995e-01 -1.2813425644447030e-01 -1.0074573484952314e+01 -8.5364785861180188e+00 0 0 2
2293 765 1 -8.1999999999999995e-01 -5.9166426128029119e+00 -9.9840971635569637e+00 -8.2245987920819204e+00 1 0 0
1441 481 1 -8.1999999999999995e-01 -2.6380001410068541e+00 -7.7503792944426300e+00 -3.1495811902416637e+00 1 -1 0
1442 481 2 4.0999999999999998e-01 -3.1506992984064066e+00 -7.6977711613692685e+00 -4.0065595922198565e+00 1 -1 0
632 211 2 4.0999999999999998e-01 -5.5561463378890394e+00 -1.2082867776327223e+01 -8.7228026074473846e+00 0 0 0
1303 435 1 -8.1999999999999995e-01 -7.8833992881245685e+00 -4.0059423728193746e+00 -8.0866400527865210e+00 0 -1 3
526 176 1 -8.1999999999999995e-01 -1.4761515638827913e+01 -7.5499907896603773e+00 -7.9981465175410849e+00 1 0 0
527 176 2 4.0999999999999998e-01 -1.3895825788829800e+01 -7.2770024021391650e+00 -7.5785057614779463e+00 1 0 0
1743 581 2 4.0999999999999998e-01 -1.1276729614435640e+01 -7.3135349022451299e+00 -6.2579385401698637e+00 0 1 0
2316 772 2 4.0999999999999998e-01 -9.1058066266411828e+00 -5.5119893149763843e+00 -6.0821644821379817e+00 1 0 0
828 276 2 4.0999999999999998e-01 -1.4901556362861886e+01 -3.3189278677004364e+00 -3.6793668953729330e+00 0 1 0
1986 662 2 4.0999999999999998e-01 -7.7839550969739824e+00 -1.8163714782148030e+00 -5.5819398055574094e+00 -1 0 1
1055 352 2 4.0999999999999998e-01 -1.0925843935544972e+01 -1.1469880975042912e+00 -5.0586843093586822e+00 0 -1 1
1782 594 2 4.0999999999999998e-01 -8.8076618137020404e+00 -7.1648080011112238e+00 -3.0860721450921194e+00 2 -2 2
2169 723 2 4.0999999999999998e-01 -1.4487882420955051e+01 -3.2455165087774756e+00 -8.8897880262059363e+00 1 -2 0
1056 352 2 4.0999999999999998e-01 -9.8550016828823139e+00 -1.8157865462071374e+00 -6.0944152651272621e+00 0 -1 1
1054 352 1 -8.1999999999999995e-01 -1.0821022836537260e+01 -1.7597037263144717e+00 -5.8420310596296989e+00 0 -1 1
790 264 1 -8.1999999999999995e-01 -1.2855163525046821e+01 -2.9912759948721916e+00 -7.0110926671740970e+00 0 -1 1
792 264 2 4.0999999999999998e-01 -1.3492870628042626e+01 -3.5090665359723872e+00 -6.4407747618053275e+00 0 -1 1
1741 581 1 -8.1999999999999995e-01 -1.2120235441471822e+01 -6.9320985103403423e+00 -6.6361503969125533e+00 0 1 0
1742 581 2 4.0999999999999998e-01 -1.1950489055523033e+01 -6.6044358009244988e+00 -7.5655928733643281e+00 0 1 0
795 265 2 4.0999999999999998e-01 -1.3398729076914289e+01 -5.9192699083267648e+00 -6.1053841077959685e+00 -1 0 -1
2006 669 2 4.0999999999999998e-01 -1.1377442919662453e+01 -3.2771173556670732e+00 -8.1148771727088800e+00 1 1 0
793 265 1 -8.1999999999999995e-01 -1.4245472839614420e+01 -5.4291232076850022e+00 -5.8984514255407436e+00 -1 0 -1
2005 669 1 -8.1999999999999995e-01 -1.0597436153369767e+01 -3.4601351930594095e+00 -8.7133200058737224e+00 1 1 0
2007 669 2 4.0999999999999998e-01 -9.7570254215258654e+00 -3.1476406997413395e+00 -8.2704916377806956e+00 1 1 0
794 265 2 4.0999999999999998e-01 -1.4211045998172720e+01 -5.0858725487966598e+00 -4.9598174721882344e+00 -1 0 -1
791 264 2 4.0999999999999998e-01 -1.2247649721403141e+01 -2.4526693751120714e+00 -6.4272520969547227e+00 0 -1 1
2315 772 2 4.0999999999999998e-01 -8.8882814006448942e+00 -7.0505932071877275e+00 -6.5842738989947645e+00 1 0 0
1985 662 2 4.0999999999999998e-01 -7.9158614651066488e+00 -2.5620796092389124e+00 -7.0287477619174616e+00 -1 0 1
1239 413 2 4.0999999999999998e-01 -7.7590335679348428e+00 -6.9743693166822496e-02 -7.6996019568029448e+00 0 2 -1
1984 662 1 -8.1999999999999995e-01 -8.2305473751160996e+00 -1.7901778517785036e+00 -6.4763161850129727e+00 -1 0 1
2314 772 1 -8.1999999999999995e-01 -8.8607684704542606e+00 -6.4378482962835548e+00 -5.7944469359836450e+00 1 0 0
607 203 1 -8.1999999999999995e-01 -1.4072996971497425e+01 -5.0114666623096760e+00 -3.1483544805696564e+00 0 0 0
1304 435 2 4.0999999999999998e-01 -7.7532442611250802e+00 -3.6871285857663043e+00 -9.0254996923754085e+00 0 -1 3
1119 373 2 4.0999999999999998e-01 -1.1538594008037881e+01 -1.3454445533593802e+00 -3.1049012388961827e+00 0 0 1
1439 480 2 4.0999999999999998e-01 -4.2482925889878818e+00 -2.1298416977099315e+00 -5.1969942491249288e+00 2 0 1
965 322 2 4.0999999999999998e-01 -3.6433906074286124e+00 -3.2113062798148277e+00 -8.7034026062690302e+00 -1 1 2
1463 488 2 4.0999999999999998e-01 -5.7086521312379901e+00 -6.3146220727931865e+00 -7.9022122208943655e+00 1 1 -1
1007 336 2 4.0999999999999998e-01 -1.0392183177458651e+00 -7.0433980224865564e+00 -3.5090158658368438e+00 1 1 0
1173 391 2 4.0999999999999998e-01 -2.4324372917475579e-01 -7.1567793195056364e+00 -5.7007264553352943e+00 0 1 -2
980 327 2 4.0999999999999998e-01 -1.0664256857024750e+00 -7.1781260904916815e+00 -8.4591423585015200e+00 0 1 1
1171 391 1 -8.1999999999999995e-01 -7.1707530469321590e-01 -7.3737054307130858e+00 -6.5542290612325633e+00 0 1 -2
1750 584 1 -8.1999999999999995e-01 -6.3434326690889957e+00 -6.1188818246952899e+00 -4.1562133008604807e+00 1 0 0
966 322 2 4.0999999999999998e-01 -5.0384799719286324e+00 -3.5630865990507363e+00 -7.9309331222205603e+00 -1 1 2
341 114 2 4.0999999999999998e-01 -3.1895575988160552e+00 -7.4384026535182475e+00 -8.7862847785343163e+00 0 0 1
964 322 1 -8.1999999999999995e-01 -4.0502297386139254e+00 -3.7156794173294205e+00 -7.9417402512617041e+00 -1 1 2
1438 480 1 -8.1999999999999995e-01 -4.0007716748013245e+00 -1.1644846542944727e+00 -5.2798137748011769e+00 2 0 1
1939 647 1 -8.1999999999999995e-01 -1.8818960860454723e+00 -2.5383959087936656e+00 -6.2538327839260308e+00 2 1 2
1540 514 1 -8.1999999999999995e-01 -6.3850685369611249e-01 -2.2482271671228933e+00 -8.7846824190564377e+00 1 0 -1
1751 584 2 4.0999999999999998e-01 -7.2520627954868511e+00 -6.0961144827002158e+00 -4.5732420669796845e+00 1 0 0
78 26 2 4.0999999999999998e-01 -5.0240865144315219e+00 -4.6850534283981560e+00 -4.5579131305161944e+00 -1 1 -1
1940 647 2 4.0999999999999998e-01 -2.4487223046207021e+00 -1.7861794020298056e+00 -5.9177994717014126e+00 2 1 2
1205 402 2 4.0999999999999998e-01 -5.0559791793766262e+00 -7.0809987679468787e+00 -4.7997417588492262e+00 -1 1 3
77 26 2 4.0999999999999998e-01 -4.4803309931918918e+00 -4.3129734888572742e+00 -6.0521083407273775e+00 -1 1 -1
76 26 1 -8.1999999999999995e-01 -4.7126063683025752e+00 -3.9436159465348979e+00 -5.1522955510003605e+00 -1 1 -1
1305 435 2 4.0999999999999998e-01 -7.5365416916678676e+00 -4.9399343917768643e+00 -8.0006822742592654e+00 0 -1 3
1941 647 2 4.0999999999999998e-01 -2.4583858541611470e+00 -3.3353834858696381e+00 -6.4341388795771479e+00 2 1 2
1542 514 2 4.0999999999999998e-01 -1.1158293806284973e+00 -2.2025146217745402e+00 -7.9071213229993598e+00 1 0 -1
1462 488 1 -8.1999999999999995e-01 -6.6638646729462678e+00 -6.4021932653549225e+00 -8.1849491930681246e+00 1 1 -1
1752 584 2 4.0999999999999998e-01 -6.4341158205467206e+00 -6.1412931606944845e+00 -3.1605656256847023e+00 1 0 0
1006 336 1 -8.1999999999999995e-01 -1.5251779615404004e-01 -6.6878905521456673e+00 -3.8046789031540804e+00 1 1 0
1440 480 2 4.0999999999999998e-01 -4.8215708761614433e+00 -6.0079339938753584e-01 -5.1871801373357460e+00 2 0 1
2323 775 1 -8.1999999999999995e-01 -9.6049057078809934e+00 -8.5952563273658278e+00 -2.1323394839144250e-01 2 0 0
1292 431 2 4.0999999999999998e-01 -8.7367794442734343e+00 -1.0984669507742101e+01 -7.1170603499748886e-01 1 1 0
177 59 2 4.0999999999999998e-01 -1.1453836986732608e+01 -8.8696360564256942e+00 4.0880156147064639e-02 0 -2 0
2324 775 2 4.0999999999999998e-01 -8.9897803806185905e+00 -8.9113714830799395e+00 5.0907618689285705e-01 2 0 0
1326 442 2 4.0999999999999998e-01 -8.7114477272709543e+00 -1.3255039557114502e+01 1.0451556982964192e+00 1 0 -1
1291 431 1 -8.1999999999999995e-01 -9.0296787142692025e+00 -1.1770462453810923e+01 -1.2564806386956775e+00 1 1 0
742 248 1 -8.1999999999999995e-01 -1.1801293551248788e+01 -1.1552834654027846e+01 -7.5915784575241929e-01 0 1 2
2188 730 1 -8.1999999999999995e-01 -1.0766360632728588e+01 -1.2757223890170511e+01 1.5392280140127781e+00 0 1 1