LAMMPS data file via write_data, version 15 May 2015, timestep = 12095000

2611 atoms
6 atom types
1749 bonds
4 bond types
894 angles
3 angle types
44 dihedrals
3 dihedral types
10 impropers
1 improper types

-1.5123874883573132e+01 1.5123874883573132e+01 xlo xhi
-1.5123874883573132e+01 1.5123874883573132e+01 ylo yhi
-1.5123874883573132e+01 1.5123874883573132e+01 zlo zhi

Masses

1 15.9994
2 1.00794
3 12.0107
4 1.00794
5 12.0107
6 12.0107

Bond Coeffs # harmonic

1 1000 1
2 469 1.4
3 367 1.08
4 469 0.7

Angle Coeffs # harmonic

1 100 109.47
2 35 120
3 63 120

Dihedral Coeffs # opls

1 0 7.25 0 0
2 0 7.25 0 0
3 0 7.25 0 0

Improper Coeffs # cvff

1 2.5 -1 2

Atoms # full

1861 621 1 -8.1999999999999995e-01 -1.3502791882465880e+01 -1.2249335354715397e+01 -1.3295942102538074e+01 -1 2 3
1862 621 2 4.0999999999999998e-01 -1.2887870378949140e+01 -1.1521115879962608e+01 -1.2993253903685725e+01 -1 2 3
943 315 1 -8.1999999999999995e-01 -1.3706654395501534e+01 -1.2056085492881417e+01 -9.8905054229323515e+00 2 6 0
945 315 2 4.0999999999999998e-01 -1.3182384433720809e+01 -1.1607882541380510e+01 -1.0614596183348985e+01 2 6 0
910 304 1 -8.1999999999999995e-01 -1.2031579455583049e+01 -1.0274111433485650e+01 -1.2172109846513170e+01 -2 5 -1
911 304 2 4.0999999999999998e-01 -1.1316580480466692e+01 -9.8418336518751488e+00 -1.2721622885983038e+01 -2 5 -1
912 304 2 4.0999999999999998e-01 -1.2700134614595754e+01 -9.5847333729319537e+00 -1.1893104286383497e+01 -2 5 -1
949 317 1 -8.1999999999999995e-01 -1.1272351904747230e+01 -8.8047660315834797e+00 -1.4349315722941830e+01 -1 4 3
950 317 2 4.0999999999999998e-01 -1.2039047383806485e+01 -8.6728090515579481e+00 -1.4977660858756396e+01 -1 4 3
944 315 2 4.0999999999999998e-01 -1.4684269878890699e+01 -1.1950498822172181e+01 -1.0072636914821802e+01 2 6 0
534 178 2 4.0999999999999998e-01 -9.2326555928737992e+00 -1.2999766377414359e+01 -1.4904814113580265e+01 1 -1 3
532 178 1 -8.1999999999999995e-01 -8.5817003401844509e+00 -1.2240905849597290e+01 -1.4925795163764711e+01 1 -1 3
711 237 2 4.0999999999999998e-01 -8.1981913635683661e+00 -1.5024572443203850e+01 -1.1226028180511488e+01 -2 2 0
1794 598 2 4.0999999999999998e-01 -1.2078563484959096e+01 -1.3515398246347971e+01 -1.3909187550586946e+01 3 3 2
1938 646 2 4.0999999999999998e-01 -7.8446609815941537e+00 -1.2537035233736551e+01 -1.0565408875460673e+01 -1 3 3
951 317 2 4.0999999999999998e-01 -1.0453856238514408e+01 -9.0498071188022902e+00 -1.4869000167399712e+01 -1 4 3
1936 646 1 -8.1999999999999995e-01 -8.1844097304685981e+00 -1.2715087288104668e+01 -9.6418719290576060e+00 -1 3 3
1863 621 2 4.0999999999999998e-01 -1.4014647982997962e+01 -1.1941474245023372e+01 -1.4097987758596965e+01 -1 2 3
1792 598 1 -8.1999999999999995e-01 -1.1402033742392128e+01 -1.3915282973529790e+01 -1.4527614525415769e+01 3 3 2
1289 430 2 4.0999999999999998e-01 -1.4924965476134339e+01 -8.5122317245062113e+00 -1.2174331257955970e+01 0 0 -1
507 169 2 4.0999999999999998e-01 -1.4279690225506112e+01 -1.3619671690809762e+01 -1.2606353138074496e+01 0 -1 0
815 272 2 4.0999999999999998e-01 -1.0954478800938448e+01 -8.9083514789878180e+00 -9.9441229852195576e+00 -2 1 1
67 23 1 -8.1999999999999995e-01 -9.0876551750100472e+00 -8.0049339082208437e+00 -1.0738939001276105e+01 -5 -1 -1
1937 646 2 4.0999999999999998e-01 -8.9646260881864599e+00 -1.3338918121916322e+01 -9.6882384652153419e+00 -1 3 3
68 23 2 4.0999999999999998e-01 -8.7498471820868353e+00 -7.8713358884196394e+00 -9.8072257435197798e+00 -5 -1 -1
205 69 1 -8.1999999999999995e-01 -1.4482004939540747e+01 -8.7053737577585721e+00 -9.2519728504912173e+00 1 -2 4
1988 663 2 4.0999999999999998e-01 -7.6926492776093713e+00 -9.1776833577430477e+00 -1.0838782149054254e+01 1 2 -3
872 291 2 4.0999999999999998e-01 -7.9644889528687095e+00 -1.2159343404526812e+01 -1.3079685410705943e+01 2 -4 -4
814 272 1 -8.1999999999999995e-01 -1.1527394939128357e+01 -9.2901857429195971e+00 -9.2188493263459570e+00 -2 1 1
154 52 1 -8.1999999999999995e-01 -1.3633715632597404e+01 -7.6114929546966996e+00 -1.1490500931063810e+01 0 0 -2
156 52 2 4.0999999999999998e-01 -1.3808728367059835e+01 -7.9156645551639295e+00 -1.0554070272106120e+01 0 0 -2
567 189 2 4.0999999999999998e-01 -8.2361477527632019e+00 -8.4786524581995426e+00 -1.2985852064549942e+01 1 3 0
505 169 1 -8.1999999999999995e-01 -1.4430391223813208e+01 -1.4516710744619736e+01 -1.2190826551324431e+01 0 -1 0
565 189 1 -8.1999999999999995e-01 -7.9232464646402923e+00 -8.5461587587895025e+00 -1.3933263209605901e+01 1 3 0
1870 624 1 -8.1999999999999995e-01 -1.0213406621242221e+01 -1.4351195254644814e+01 -1.0255737750960893e+01 1 5 6
1871 624 2 4.0999999999999998e-01 -1.0169339214468327e+01 -1.4975442847845118e+01 -9.4757215651535525e+00 1 5 6
1872 624 2 4.0999999999999998e-01 -1.1035635390602449e+01 -1.4544315844924721e+01 -1.0791178195520864e+01 1 5 6
816 272 2 4.0999999999999998e-01 -1.2454205166771992e+01 -8.9230380616743119e+00 -9.2980805840271756e+00 -2 1 1
506 169 2 4.0999999999999998e-01 -1.5026359402548810e+01 -1.4418960556032806e+01 -1.1393757520992729e+01 0 -1 0
145 49 1 -8.1999999999999995e-01 -2.9038771468795375e+00 -1.5116525561013157e+01 -1.1073407979492405e+01 0 0 1
147 49 2 4.0999999999999998e-01 -2.2640913635018034e+00 -1.4747754394751244e+01 -1.0399068181512561e+01 0 0 1
1513 505 1 -8.1999999999999995e-01 -3.2364191567737244e-01 -1.4881180492022148e+01 -1.0085107954441877e+01 -3 -1 3
146 49 2 4.0999999999999998e-01 -3.6739801193287818e+00 -1.4487695702580993e+01 -1.1180956154095052e+01 0 0 1
1987 663 1 -8.1999999999999995e-01 -6.8939450157548077e+00 -9.7515853534474282e+00 -1.1019780072632443e+01 1 2 -3
1989 663 2 4.0999999999999998e-01 -6.0610267324335521e+00 -9.2119081266933804e+00 -1.0897110256196768e+01 1 2 -3
119 40 2 4.0999999999999998e-01 -4.1921033956606184e+00 -1.0065364163954159e+01 -9.3647448952421435e+00 0 2 0
1782 594 2 4.0999999999999998e-01 -5.2718453173849777e+00 -8.1631337536638391e+00 -1.4313062878131920e+01 1 1 5
873 291 2 4.0999999999999998e-01 -7.2533254024429947e+00 -1.1193128213454120e+01 -1.1971786375020148e+01 2 -4 -4
871 291 1 -8.1999999999999995e-01 -7.4141298955469699e+00 -1.2141598067288969e+01 -1.2244914660827348e+01 2 -4 -4
120 40 2 4.0999999999999998e-01 -4.0621553774824690e+00 -9.0648867919605678e+00 -1.0648849335944288e+01 0 2 0
1236 412 2 4.0999999999999998e-01 -2.7885065184416273e+00 -1.1614168469501699e+01 -1.0124050843385298e+01 -2 4 1
1234 412 1 -8.1999999999999995e-01 -2.1589353587641451e+00 -1.2319746312669000e+01 -1.0449400382618759e+01 -2 4 1
1235 412 2 4.0999999999999998e-01 -2.0027709978755599e+00 -1.2200682026133814e+01 -1.1429955636696064e+01 -2 4 1
221 74 2 4.0999999999999998e-01 -5.8113501699319627e+00 -1.2895563901235997e+01 -1.1940902748676180e+01 -4 4 -1
222 74 2 4.0999999999999998e-01 -4.7062842682653017e+00 -1.2366450742034868e+01 -1.0861257312286835e+01 -4 4 -1
220 74 1 -8.1999999999999995e-01 -5.0730529583785202e+00 -1.3172480555702469e+01 -1.1325852682224365e+01 -4 4 -1
118 40 1 -8.1999999999999995e-01 -3.6214507683606989e+00 -9.8074319403505275e+00 -1.0144410689261267e+01 0 2 0
1780 594 1 -8.1999999999999995e-01 -4.5151759901613389e+00 -7.6283327091718371e+00 -1.3936909244606765e+01 1 1 5
572 191 2 4.0999999999999998e-01 -4.5350726607886997e+00 -1.4772943152306667e+01 -1.2992699989138295e+01 2 4 2
1292 431 2 4.0999999999999998e-01 -1.8820960268342155e+00 -9.6313378217662482e+00 -1.0348324846900312e+01 -1 3 -1
537 179 2 4.0999999999999998e-01 -5.2879595055529318e+00 -1.0647694026340268e+01 -1.4543547510137332e+01 -3 -1 0
1294 432 1 -8.1999999999999995e-01 -1.9741686653030719e+00 -1.1778879171267601e+01 -1.3237059249638422e+01 2 3 4
1295 432 2 4.0999999999999998e-01 -2.6186858779828555e+00 -1.1161883198955595e+01 -1.3688684889566339e+01 2 3 4
1781 594 2 4.0999999999999998e-01 -3.6465193486472351e+00 -8.0335761049464569e+00 -1.4221980558050008e+01 1 1 5
535 179 1 -8.1999999999999995e-01 -6.2708510362961736e+00 -1.0472701878564346e+01 -1.4601462743959676e+01 -3 -1 0
1514 505 2 4.0999999999999998e-01 -2.8665276288337793e-01 -1.3881838687483791e+01 -1.0085310080317097e+01 -3 -1 3
1296 432 2 4.0999999999999998e-01 -1.4082542046215529e+00 -1.2232114498977174e+01 -1.3925805178143138e+01 2 3 4
566 189 2 4.0999999999999998e-01 -7.2803116482016907e+00 -9.3073545478588429e+00 -1.4018516531013525e+01 1 3 0
1293 431 2 4.0999999999999998e-01 -5.7384394854201126e-01 -9.8425263597517318e+00 -9.3940493112221528e+00 -1 3 -1
554 185 2 4.0999999999999998e-01 -6.0288378154678082e+00 -1.4718379919319050e+01 -1.4823441258720905e+01 1 4 4
1291 431 1 -8.1999999999999995e-01 -9.5188069097796557e-01 -9.3180611293981510e+00 -1.0156988872750578e+01 -1 3 -1
734 245 2 4.0999999999999998e-01 -4.4335167059184677e-01 -8.5922941140078617e+00 -1.3278576116120165e+01 2 -1 2
735 245 2 4.0999999999999998e-01 -5.6686747839709284e-03 -8.9367944019595456e+00 -1.1743480336522133e+01 2 -1 2
555 185 2 4.0999999999999998e-01 -7.1952520325715383e+00 -1.3599702640569149e+01 -1.5057546018650354e+01 1 4 4
2306 769 2 4.0999999999999998e-01 -9.6438411050595114e+00 -5.7954853500646752e+00 -1.5071659219551888e+01 0 2 0
1412 471 2 4.0999999999999998e-01 -1.0445185087208023e+01 -2.5338307524214656e+00 -1.0261883572073799e+01 1 -3 -1
69 23 2 4.0999999999999998e-01 -9.2165348173630193e+00 -7.1154964653516615e+00 -1.1177508589741333e+01 -5 -1 -1
155 52 2 4.0999999999999998e-01 -1.3116278523514627e+01 -6.7559443970183555e+00 -1.1471854568732709e+01 0 0 -2
2169 723 2 4.0999999999999998e-01 -1.4896660681149838e+01 -5.9528720118790748e+00 -1.5057826178001999e+01 1 1 0
913 305 1 -8.1999999999999995e-01 -9.5845054939757119e+00 -5.5246014894683526e+00 -1.1941079992257587e+01 -1 2 -6
486 162 2 4.0999999999999998e-01 -1.3351438367157824e+01 -4.8008941730854833e+00 -1.3789728415786170e+01 3 -5 -4
2287 763 1 -8.1999999999999995e-01 -8.0935346114077760e+00 -3.0915926527682736e+00 -1.0789719071709044e+01 -3 3 -4
2289 763 2 4.0999999999999998e-01 -7.9050651086498602e+00 -2.7895567620742376e+00 -1.1724227380510351e+01 -3 3 -4
914 305 2 4.0999999999999998e-01 -9.6391492221455692e+00 -5.3277968534633366e+00 -1.2920025476664005e+01 -1 2 -6
414 138 2 4.0999999999999998e-01 -1.2086253736132976e+01 -3.8014962979810107e-01 -1.2444286552322206e+01 2 2 2
484 162 1 -8.1999999999999995e-01 -1.3020880252861277e+01 -4.3144571178137276e+00 -1.2980925257690782e+01 3 -5 -4
485 162 2 4.0999999999999998e-01 -1.2391608993167695e+01 -3.5897743141541429e+00 -1.3261825053230995e+01 3 -5 -4
1361 454 2 4.0999999999999998e-01 -1.3079312800463317e+01 -4.0404900334608502e+00 -1.1308134970360753e+01 -3 -1 0
1360 454 1 -8.1999999999999995e-01 -1.3178710146909568e+01 -4.1854486458625217e+00 -1.0323675988399337e+01 -3 -1 0
1622 541 2 4.0999999999999998e-01 -1.4370898829952745e+01 -1.8391339449160018e+00 -1.3779556698127099e+01 1 5 -2
1413 471 2 4.0999999999999998e-01 -1.1442721877929943e+01 -1.2543968068952545e+00 -1.0075510800081375e+01 1 -3 -1
412 138 1 -8.1999999999999995e-01 -1.2641982366330554e+01 -8.8130464445251278e-01 -1.3107657899716466e+01 2 2 2
413 138 2 4.0999999999999998e-01 -1.2386427570069813e+01 -6.0386847335129090e-01 -1.4033818321215593e+01 2 2 2
915 305 2 4.0999999999999998e-01 -8.7210828922735146e+00 -5.1739801040314841e+00 -1.1578287628880110e+01 -1 2 -6
1848 616 2 4.0999999999999998e-01 -8.0522715640398772e+00 -2.2056390228080112e+00 -1.4726013587969421e+01 3 5 1
1576 526 1 -8.1999999999999995e-01 -1.0952528198937234e+01 -5.7191399043416045e+00 -9.4292279800686636e+00 0 -2 3
2288 763 2 4.0999999999999998e-01 -7.6345288461899727e+00 -2.4819515645167520e+00 -1.0143419099268591e+01 -3 3 -4
2305 769 1 -8.1999999999999995e-01 -1.0200476860850205e+01 -5.1637959785057284e+00 -1.4532050595610531e+01 0 2 0
1362 454 2 4.0999999999999998e-01 -1.2849837460958422e+01 -3.3784872562051866e+00 -9.8330556287217448e+00 -3 -1 0
1577 526 2 4.0999999999999998e-01 -1.0366167010827017e+01 -5.4518494668255357e+00 -1.0193942676868854e+01 0 -2 3
1411 471 1 -8.1999999999999995e-01 -1.1302013522057480e+01 -2.2192220054279979e+00 -9.8533268103797678e+00 1 -3 -1
1578 526 2 4.0999999999999998e-01 -1.1876999581803089e+01 -5.3687796179180545e+00 -9.5797358210141326e+00 0 -2 3
2307 769 2 4.0999999999999998e-01 -1.1166795849039033e+01 -5.3021646324689780e+00 -1.4749154251288374e+01 0 2 0
2212 738 1 -8.1999999999999995e-01 -1.3208289555979160e+00 -6.5408282761848238e+00 -9.9695894923017558e+00 2 -3 1
152 51 2 4.0999999999999998e-01 -5.9178285566360618e+00 -1.9560652919672084e+00 -1.3372186426454908e+01 1 -1 -2
1384 462 1 -8.1999999999999995e-01 -4.4029319297881102e+00 -5.3751292123928458e+00 -1.2390876522661314e+01 1 4 0
2255 752 2 4.0999999999999998e-01 -2.1385824148762431e+00 -2.8484133085776282e+00 -9.8702584477364148e+00 0 0 2
435 145 2 4.0999999999999998e-01 -2.5004039182948290e-01 -7.5462284810872227e-01 -1.2400342355327719e+01 -2 1 0
2339 780 2 4.0999999999999998e-01 -1.7474181900624757e+00 -6.5009851881765357e+00 -1.3969476208070461e+01 -1 7 -2
1051 351 1 -8.1999999999999995e-01 -5.3315783499615943e+00 -7.0212152488517034e+00 -1.0184579595240347e+01 -1 0 6
433 145 1 -8.1999999999999995e-01 -3.4085418548923307e-01 -3.4666236403536210e-01 -1.1491841782577193e+01 -2 1 0
2338 780 1 -8.1999999999999995e-01 -1.1952706328785982e+00 -7.3046163135916187e+00 -1.4191652455685578e+01 -1 7 -2
1052 351 2 4.0999999999999998e-01 -4.3720749444025575e+00 -6.9707523617283211e+00 -9.9073451650971389e+00 -1 0 6
1436 479 2 4.0999999999999998e-01 -2.5953683700221042e-01 -2.2466330251159707e+00 -1.4346442679302386e+01 2 4 3
1980 660 2 4.0999999999999998e-01 -4.3719811860352191e+00 -1.9191571796216476e+00 -1.4714512567133264e+01 0 -2 3
2213 738 2 4.0999999999999998e-01 -2.0418440938603837e+00 -6.6894233206431615e+00 -9.2927520422582468e+00 2 -3 1
408 136 2 4.0999999999999998e-01 -3.5355832248841530e+00 -2.0415609201034854e+00 -1.2336907359932365e+01 -1 -1 -1
406 136 1 -8.1999999999999995e-01 -4.2033182060152630e+00 -2.5707538875228888e+00 -1.2860488317963242e+01 -1 -1 -1
153 51 2 4.0999999999999998e-01 -7.1812763094598813e+00 -9.2273616701397643e-01 -1.3320259832083604e+01 1 -1 -2
1385 462 2 4.0999999999999998e-01 -4.7562222093274293e+00 -5.5231417972199015e+00 -1.1467117650403955e+01 1 4 0
251 84 2 4.0999999999999998e-01 -3.4208375076095709e+00 -4.6904289215613488e+00 -1.3647995676829211e+01 -1 1 -3
741 247 2 4.0999999999999998e-01 -1.6119755721783910e+00 -3.7128868534859034e+00 -1.3483432291722387e+01 -2 2 1
2256 752 2 4.0999999999999998e-01 -2.6764164044444723e+00 -1.4499284508749319e+00 -1.0519673863696934e+01 0 0 2
151 51 1 -8.1999999999999995e-01 -6.9118344557738549e+00 -1.8852585594720175e+00 -1.3288574984928124e+01 1 -1 -2
250 84 1 -8.1999999999999995e-01 -2.6457353612857961e+00 -4.5366041977837934e+00 -1.4260863429415990e+01 -1 1 -3
740 247 2 4.0999999999999998e-01 -1.4113293057134335e+00 -3.1216366249033385e+00 -1.1974482292286989e+01 -2 2 1
739 247 1 -8.1999999999999995e-01 -1.0217941499123402e+00 -3.1604966589323986e+00 -1.2894702078216659e+01 -2 2 1
2254 752 1 -8.1999999999999995e-01 -2.3521653096971402e+00 -2.3735847688692306e+00 -1.0724057297139325e+01 0 0 2
1386 462 2 4.0999999999999998e-01 -4.5135353424843245e+00 -6.2113756161422931e+00 -1.2928008795207344e+01 1 4 0
407 136 2 4.0999999999999998e-01 -4.5135344292992006e+00 -3.3491866095479583e+00 -1.2314722215418826e+01 -1 -1 -1
2214 738 2 4.0999999999999998e-01 -1.0506265919999471e+00 -7.4179109125848273e+00 -1.0366790882228866e+01 2 -3 1
1053 351 2 4.0999999999999998e-01 -5.8912657725115150e+00 -6.4929907256505519e+00 -9.5460022090975727e+00 -1 0 6
1229 410 2 4.0999999999999998e-01 -1.2968015883373724e+01 -1.3280689401777543e+01 -8.8290027150983548e+00 -1 7 -1
207 69 2 4.0999999999999998e-01 -1.4312243347213405e+01 -9.0755643331808376e+00 -8.3386316599520143e+00 1 -2 4
556 186 1 -8.1999999999999995e-01 -1.2409734152538006e+01 -8.5665651007224106e+00 -4.7451221181452379e+00 4 -3 -3
1045 349 1 -8.1999999999999995e-01 -1.4250337990230706e+01 -9.9182403840933429e+00 -6.8141936136496248e+00 -3 3 -2
557 186 2 4.0999999999999998e-01 -1.3007941008062538e+01 -7.8479188453334006e+00 -5.0997322798045008e+00 4 -3 -3
1046 349 2 4.0999999999999998e-01 -1.3989270757270953e+01 -1.0846552504434161e+01 -6.5493676952715969e+00 -3 3 -2
1047 349 2 4.0999999999999998e-01 -1.4198242557911524e+01 -9.3170312728294356e+00 -6.0167690877457680e+00 -3 3 -2
111 37 2 4.0999999999999998e-01 -1.3515928574984056e+01 -1.2880907924261923e+01 -6.7880421669786788e+00 2 0 1
109 37 1 -8.1999999999999995e-01 -1.4156038176054141e+01 -1.2724484978577618e+01 -6.0358162272707396e+00 2 0 1
110 37 2 4.0999999999999998e-01 -1.3706908458641241e+01 -1.2933335451993379e+01 -5.1670720950894324e+00 2 0 1
2072 691 2 4.0999999999999998e-01 -1.0549648145628630e+01 -1.3284671249849488e+01 -3.9200482466883546e+00 -2 3 1
2514 838 2 4.0999999999999998e-01 -1.0812653783395021e+01 -1.0637181234783121e+01 -8.2468695223649924e+00 5 4 2
2071 691 1 -8.1999999999999995e-01 -1.1117017896543476e+01 -1.3594855754658631e+01 -3.1572053095199024e+00 -2 3 1
582 194 2 4.0999999999999998e-01 -9.9966701811853476e+00 -8.6134996349509887e+00 -8.2192754498600991e+00 -3 7 -1
580 194 1 -8.1999999999999995e-01 -9.1576814301438088e+00 -8.1137168440000842e+00 -8.0039447575639997e+00 -3 7 -1
2001 667 2 4.0999999999999998e-01 -1.0004336422862945e+01 -1.1831376847667620e+01 -6.1695790307118568e+00 1 3 3
2513 838 2 4.0999999999999998e-01 -9.3342598928581442e+00 -1.1303922719713947e+01 -8.4381101708198099e+00 5 4 2
2512 838 1 -8.1999999999999995e-01 -1.0048903726550718e+01 -1.1078636655309438e+01 -7.7758544853011431e+00 5 4 2
1999 667 1 -8.1999999999999995e-01 -9.7425175749933146e+00 -1.2357746295443370e+01 -5.3606053719358151e+00 1 3 3
170 57 2 4.0999999999999998e-01 -9.7721899120023465e+00 -1.4253602933963602e+01 -6.7266750611245048e+00 -3 1 0
169 57 1 -8.1999999999999995e-01 -1.0035243200745397e+01 -1.4914998063555270e+01 -7.4291077238424368e+00 -3 1 0
2000 667 2 4.0999999999999998e-01 -8.8098239494829400e+00 -1.2115820066301703e+01 -5.0930114625607530e+00 1 3 3
2061 687 2 4.0999999999999998e-01 -1.2316956070377586e+01 -1.4866582303884780e+01 -3.3026971758616632e+00 0 5 3
558 186 2 4.0999999999999998e-01 -1.1582482291906418e+01 -8.1537176186954206e+00 -4.3639876082132467e+00 4 -3 -3
1228 410 1 -8.1999999999999995e-01 -1.2636383972677354e+01 -1.3657323702059248e+01 -7.9640059436314221e+00 -1 7 -1
1454 485 2 4.0999999999999998e-01 -7.5988613003658401e+00 -8.4386336207905828e+00 -7.2063759128732103e+00 2 3 2
2552 851 2 4.0999999999999998e-01 -1.3553354920122882e+01 -1.0126397905104188e+01 -4.0980366734069911e+00 1 2 -1
1230 410 2 4.0999999999999998e-01 -1.1709978988605521e+01 -1.4012723400213670e+01 -8.0885734192436338e+00 -1 7 -1
2551 851 1 -8.1999999999999995e-01 -1.4054009979711299e+01 -1.0572497285806126e+01 -3.3561525401670114e+00 1 2 -1
229 77 1 -8.1999999999999995e-01 -1.0202296185563352e+01 -7.7701875780782679e+00 -3.0716901723187089e+00 -1 -2 3
1605 535 2 4.0999999999999998e-01 -6.6454096389469584e+00 -1.4382047318686194e+01 -3.1739474850136098e+00 2 -3 5
1369 457 1 -8.1999999999999995e-01 -5.7050133870203510e+00 -1.0563945865108971e+01 -8.4542527804203118e+00 3 3 0
2184 728 2 4.0999999999999998e-01 -9.5722486949785690e-02 -1.0578024865624645e+01 -4.1261943033582860e+00 0 3 0
175 59 1 -8.1999999999999995e-01 -1.3041042904307449e+00 -1.3297594276303332e+01 -3.6596691631276013e+00 -2 1 -1
2099 700 2 4.0999999999999998e-01 -6.3320167311366919e+00 -1.3892062127392180e+01 -7.3857899218243883e+00 -2 7 -1
2098 700 1 -8.1999999999999995e-01 -6.1838317198313355e+00 -1.3000733436973549e+01 -7.8143067482559498e+00 -2 7 -1
201 67 2 4.0999999999999998e-01 -2.6726710438527537e+00 -1.3412711672027360e+01 -9.0536674533471171e+00 -4 -1 0
426 142 2 4.0999999999999998e-01 -8.8146082651887170e-01 -1.4281019670092910e+01 -5.1885638614646474e+00 0 4 1
423 141 2 4.0999999999999998e-01 -2.7481902825973883e+00 -1.0115299548495670e+01 -5.1929427947034199e+00 1 2 1
849 283 2 4.0999999999999998e-01 -3.9946794645676693e+00 -1.0722851375621783e+01 -7.2229603864982135e+00 -1 1 3
848 283 2 4.0999999999999998e-01 -2.7109446989961175e+00 -1.1730733377427448e+01 -7.2774084219485307e+00 -1 1 3
1453 485 1 -8.1999999999999995e-01 -6.8244935673750842e+00 -8.7927544153503554e+00 -6.6819663470743258e+00 2 3 2
847 283 1 -8.1999999999999995e-01 -3.0267655303153465e+00 -1.0825378699790583e+01 -6.9934325116372094e+00 -1 1 3
421 141 1 -8.1999999999999995e-01 -3.1508076475173183e+00 -9.9236003317440851e+00 -4.2978434037406661e+00 1 2 1
422 141 2 4.0999999999999998e-01 -3.7980406826320223e+00 -1.0648320842712675e+01 -4.0613649360093245e+00 1 2 1
1884 628 2 4.0999999999999998e-01 -6.1530938259392656e+00 -1.0016935620200748e+01 -4.8363084106809460e+00 -1 -1 -3
1882 628 1 -8.1999999999999995e-01 -5.7839011490549925e+00 -1.0795069670460691e+01 -4.3281189814621808e+00 -1 -1 -3
1455 485 2 4.0999999999999998e-01 -6.2613182520795423e+00 -9.3733503815611900e+00 -7.2700089947117661e+00 2 3 2
80 27 2 4.0999999999999998e-01 -1.6491201304321557e+00 -9.6382315074049600e+00 -3.4751838917152433e+00 -2 6 2
902 301 2 4.0999999999999998e-01 -4.1651418766756159e+00 -1.4150794956029644e+01 -6.6501983486339835e+00 -3 4 0
1875 625 2 4.0999999999999998e-01 -6.2067145443808123e+00 -1.2400461628252636e+01 -4.9988580336785802e+00 0 2 1
1873 625 1 -8.1999999999999995e-01 -6.4982422815993175e+00 -1.3353751805257899e+01 -4.9194753845807551e+00 0 2 1
901 301 1 -8.1999999999999995e-01 -4.2936426127918192e+00 -1.4868514392391601e+01 -5.9657871399990743e+00 -3 4 0
1874 625 2 4.0999999999999998e-01 -5.7601880352143482e+00 -1.3954680763257215e+01 -5.2264160127261796e+00 0 2 1
199 67 1 -8.1999999999999995e-01 -2.9307071762393750e+00 -1.3617227580229557e+01 -8.1093989332518497e+00 -4 -1 0
424 142 1 -8.1999999999999995e-01 -6.7655782837585043e-01 -1.4917364778162446e+01 -5.9322922376184621e+00 0 4 1
176 59 2 4.0999999999999998e-01 -8.7562712788193942e-01 -1.2482135956477789e+01 -4.0488828089186626e+00 -2 1 -1
200 67 2 4.0999999999999998e-01 -2.3222774789297098e+00 -1.4320999105362432e+01 -7.7425593684263259e+00 -4 -1 0
1883 628 2 4.0999999999999998e-01 -6.4278021241885757e+00 -1.1060199524869965e+01 -3.6103795406194745e+00 -1 -1 -3
1518 506 2 4.0999999999999998e-01 -3.3268443504885425e-01 -1.1018665254977787e+01 -7.1534767783689714e+00 4 5 -1
2075 692 2 4.0999999999999998e-01 -3.0039938279075518e+00 -8.2367225589802651e+00 -4.3567360831483377e+00 -4 1 2
2100 700 2 4.0999999999999998e-01 -6.8748047915295309e+00 -1.2852003219679329e+01 -8.5217583375522086e+00 -2 7 -1
1371 457 2 4.0999999999999998e-01 -5.8229041201187375e+00 -1.1527828114525008e+01 -8.2153281855303106e+00 3 3 0
429 143 2 4.0999999999999998e-01 -3.8106997189168190e-01 -7.9502129469472615e+00 -6.5717995883936666e+00 -3 1 3
1370 457 2 4.0999999999999998e-01 -6.5586001207889364e+00 -1.0208039075693794e+01 -8.8347425623854789e+00 3 3 0
1509 503 2 4.0999999999999998e-01 -1.4770452183656312e+01 -7.0050934584765763e+00 -3.6797242676649056e+00 0 3 1
738 246 2 4.0999999999999998e-01 -1.2247529669215997e+01 -3.5036413713644343e-01 -7.3404284007239387e+00 -2 1 -2
202 68 1 -8.1999999999999995e-01 -1.4335716531447623e+01 -6.6968197016877635e+00 -5.4379972226688604e+00 0 1 0
204 68 2 4.0999999999999998e-01 -1.3735074154198209e+01 -5.9671153724182666e+00 -5.7648190701345978e+00 0 1 0
1570 524 1 -8.1999999999999995e-01 -7.8038595246101039e+00 -6.5568869098916380e+00 -3.5463317999073514e+00 4 1 4
2236 746 1 -8.1999999999999995e-01 -9.3785977969486218e+00 -3.8616693462078029e+00 -3.5154876046554513e+00 2 -1 -1
1709 570 2 4.0999999999999998e-01 -1.4166454180504209e+01 -3.5401466638151007e+00 -6.6587556747708057e+00 1 4 0
581 194 2 4.0999999999999998e-01 -9.3599942686933275e+00 -7.3926865461299966e+00 -7.3411951465236926e+00 -3 7 -1
1524 508 2 4.0999999999999998e-01 -1.0828933901432681e+01 -1.5383213908741418e+00 -4.2027721461154446e+00 1 -1 1
2359 787 1 -8.1999999999999995e-01 -1.1437064634967104e+01 -5.8818942540149930e+00 -6.6496272770635176e+00 -2 0 3
2361 787 2 4.0999999999999998e-01 -1.1486362137836599e+01 -6.0544572546635411e+00 -7.6334179298587674e+00 -2 0 3
737 246 2 4.0999999999999998e-01 -1.1706040465198408e+01 -1.6607256906158447e+00 -8.1506800744576786e+00 -2 1 -2
736 246 1 -8.1999999999999995e-01 -1.2174786294925692e+01 -1.3476165103221600e+00 -7.3246702410088540e+00 -2 1 -2
1708 570 1 -8.1999999999999995e-01 -1.3193801956143751e+01 -3.7722843667194965e+00 -6.6481753314208323e+00 1 4 0
1710 570 2 4.0999999999999998e-01 -1.2657503466802670e+01 -2.9735607412368221e+00 -6.9210795469283415e+00 1 4 0
2027 676 2 4.0999999999999998e-01 -9.8673824594691375e+00 -5.6973762118161382e+00 -6.3466549519582358e+00 2 5 2
2026 676 1 -8.1999999999999995e-01 -8.9099478915810266e+00 -5.6389796670240813e+00 -6.0638809930807014e+00 2 5 2
1523 508 2 4.0999999999999998e-01 -1.1347670676585935e+01 -1.8162799245359196e+00 -5.7260636047758808e+00 1 -1 1
1127 376 2 4.0999999999999998e-01 -1.2167412279624235e+01 -3.2707085306291663e+00 -3.4775830770468321e+00 -1 -1 -2
2028 676 2 4.0999999999999998e-01 -8.8558475704442827e+00 -5.6528005674761594e+00 -5.0654149825945787e+00 2 5 2
2467 823 1 -8.1999999999999995e-01 -1.0077942665666228e+01 -5.2091318056001512e-01 -3.0981828167376229e+00 2 6 0
1266 422 2 4.0999999999999998e-01 -8.1817791983367272e+00 -4.2790433605968854e+00 -6.4461154057809829e+00 -7 0 3
2360 787 2 4.0999999999999998e-01 -1.2044503081200642e+01 -5.1234286424417430e+00 -6.4134055065557423e+00 -2 0 3
1522 508 1 -8.1999999999999995e-01 -1.1212113064762823e+01 -2.2231352020908730e+00 -4.8226560395837055e+00 1 -1 1
1265 422 2 4.0999999999999998e-01 -7.5694610826488322e+00 -2.8846483978069202e+00 -5.8566284561622464e+00 -7 0 3
1264 422 1 -8.1999999999999995e-01 -7.9571141413516333e+00 -3.3292840774085324e+00 -6.6641409450646574e+00 -7 0 3
2237 746 2 4.0999999999999998e-01 -1.0027433240331511e+01 -3.2583193387882048e+00 -3.9792046861899770e+00 2 -1 -1
2238 746 2 4.0999999999999998e-01 -8.4643138570350338e+00 -3.4580738039161592e+00 -3.5508104765967783e+00 2 -1 -1
447 149 2 4.0999999999999998e-01 -7.7213935341605575e+00 -2.1063882060492016e+00 -8.0345361008334173e+00 1 0 2
159 53 2 4.0999999999999998e-01 -7.7787376752454955e+00 -6.0891302229473805e+00 -7.7993027388948200e+00 -1 0 3
231 77 2 4.0999999999999998e-01 -9.4269785141291926e+00 -7.5331607270545948e+00 -3.6571412736148332e+00 -1 -2 3
2252 751 2 4.0999999999999998e-01 -1.6321785465545915e+00 -4.5093316748224925e+00 -8.9387436342319013e+00 -2 1 2
757 253 1 -8.1999999999999995e-01 -8.5434220193361909e-01 -3.4131681841716706e+00 -5.9500873393880340e+00 -2 3 3
758 253 2 4.0999999999999998e-01 -4.4318943002761380e-01 -3.8929450596707422e+00 -5.1749617143814266e+00 -2 3 3
2253 751 2 4.0999999999999998e-01 -1.3464530608579164e+00 -3.6379402833880370e+00 -7.5875205691052283e+00 -2 1 2
1490 497 2 4.0999999999999998e-01 -6.0072862106861713e+00 -7.3585180465355089e+00 -5.5383503010432147e+00 1 1 -2
427 143 1 -8.1999999999999995e-01 -1.0181345238098150e+00 -7.1816401935863210e+00 -6.5126651767394232e+00 -3 1 3
428 143 2 4.0999999999999998e-01 -5.6734511707023039e-01 -6.4086316750784373e+00 -6.0662360432068674e+00 -3 1 3
1267 423 1 -8.1999999999999995e-01 -3.8290793620343884e+00 -5.4423752108269241e-01 -6.9644525640578916e+00 -1 -4 -1
2 1 2 4.0999999999999998e-01 -2.5509871625025013e+00 -7.1217271642229960e+00 -7.4745460368439200e+00 2 3 1
1496 499 2 4.0999999999999998e-01 -5.8784878828884395e+00 -2.9185103599623030e+00 -3.9502819975089114e+00 3 1 0
1495 499 1 -8.1999999999999995e-01 -6.7028253679282130e+00 -2.3583676969355469e+00 -3.8680618707125234e+00 3 1 0
2125 709 1 -8.1999999999999995e-01 -3.8313712033595611e+00 -7.3896748332263762e-01 -3.8117391043774749e+00 -2 0 -3
1571 524 2 4.0999999999999998e-01 -6.9701389897845143e+00 -6.9002082178473838e+00 -3.9788740427601237e+00 4 1 4
1497 499 2 4.0999999999999998e-01 -6.4801657068476697e+00 -1.5047341284562687e+00 -3.3971216216816895e+00 3 1 0
2251 751 1 -8.1999999999999995e-01 -1.5616072905411365e+00 -3.5853877179770457e+00 -8.5627124112019430e+00 -2 1 2
1491 497 2 4.0999999999999998e-01 -4.5843022428908142e+00 -7.0516320245658157e+00 -4.7982804466174276e+00 1 1 -2
759 253 2 4.0999999999999998e-01 -6.6093382444284821e-01 -2.4347418292934790e+00 -5.8770987396119150e+00 -2 3 3
27 9 2 4.0999999999999998e-01 -3.9209161830348478e+00 -3.9443036893756460e+00 -6.8347860108520582e+00 -2 5 -4
158 53 2 4.0999999999999998e-01 -6.8031505979428317e+00 -4.9422847525879909e+00 -8.4315534678576221e+00 -1 0 3
25 9 1 -8.1999999999999995e-01 -4.2289328183475057e+00 -4.7956349867387047e+00 -6.4100355512383071e+00 -2 5 -4
1141 381 1 -8.1999999999999995e-01 -6.0896500894117089e-01 -8.5770562896930791e-01 -6.5589727031053275e+00 3 6 4
1269 423 2 4.0999999999999998e-01 -4.8143433112814105e+00 -3.7795094167964294e-01 -6.9237593986240356e+00 -1 -4 -1
1143 381 2 4.0999999999999998e-01 -1.3035051773334825e+00 -7.4300790858072219e-01 -7.2692617765194907e+00 3 6 4
2177 726 2 4.0999999999999998e-01 -3.8850995881236923e+00 -2.7269657333909887e+00 -3.1395993670164142e+00 0 5 4
2126 709 2 4.0999999999999998e-01 -3.5674968211646849e+00 -1.0321706455122275e+00 -4.7306812380786454e+00 -2 0 -3
2176 726 1 -8.1999999999999995e-01 -4.4085502088893751e+00 -3.5597774278009222e+00 -3.3198116291745219e+00 0 5 4
26 9 2 4.0999999999999998e-01 -4.8142319859928051e+00 -4.5847759156206838e+00 -5.6270824737540259e+00 -2 5 -4
512 171 2 4.0999999999999998e-01 -3.5605705605283617e+00 -3.1846161827993313e-01 -8.6678538196752157e+00 -3 2 0
445 149 1 -8.1999999999999995e-01 -7.3886597963860616e+00 -1.4774675585498702e+00 -8.7372446276445377e+00 1 0 2
157 53 1 -8.1999999999999995e-01 -7.0558056811544976e+00 -5.9092393099471021e+00 -8.4664315474893748e+00 -1 0 3
446 149 2 4.0999999999999998e-01 -7.0763421979048733e+00 -6.3094255927912180e-01 -8.3060772103138802e+00 1 0 2
2074 692 1 -8.1999999999999995e-01 -2.8170740609224421e+00 -7.2564486968035586e+00 -4.2921098998783886e+00 -4 1 2