2611
Atoms. Timestep: 12090000
O -2.98888 -9.17971 -8.39869
H -3.94093 -8.93223 -8.21899
H -2.44283 -9.0234 -7.57568
O 4.87482 8.50122 15.1316
H 3.917 8.22173 -15.1446
H 5.20104 8.35395 14.1979
O 15.018 0.436087 6.32027
H 14.9283 -0.456938 5.87936
H -14.999 0.313722 7.2578
O -9.25401 -12.1802 13.0751
H -9.1517 -13.0908 12.6749
H -9.47927 -11.5233 12.3556
O -9.86262 13.103 -1.08958
H -9.32515 13.9301 -1.25411
H -10.8362 13.3309 -1.09884
O 14.4308 -10.2271 5.89128
H 13.9888 -9.74663 6.64873
H 14.3489 -11.214 6.02948
O 11.8403 -13.117 6.19475
H 11.8659 -13.8584 6.86524
H 12.7279 -13.0487 5.73928
O 0.549398 4.86938 -7.79166
H 0.500914 4.94535 -6.79576
H 0.269675 5.73541 -8.20601
O -1.65449 -6.41477 -8.49638
H -1.82177 -7.40058 -8.48518
H -0.75049 -6.22573 -8.11298
O -14.6577 -13.0969 13.4795
H -14.8414 -12.6404 14.35
H -13.7969 -12.7576 13.1004
O -6.75822 -8.20527 11.3857
H -5.93444 -7.67613 11.1824
H -6.70786 -9.09089 10.9241
O -11.7353 1.85643 7.90906
H -12.1568 2.48797 8.55976
H -11.4896 2.35138 7.07563
O 14.7973 -3.85107 -0.899702
H 15.1596 -4.06877 0.00653102
H 14.0629 -3.17805 -0.812175
O 8.99337 -13.642 -0.575131
H 8.42542 -12.9421 -1.00826
H 9.35141 -13.2919 0.290448
O 2.46688 10.3702 4.26857
H 2.8069 11.2947 4.09674
H 1.76834 10.3994 4.9835
O -7.70294 14.3981 3.08861
H -6.83368 14.4598 2.59819
H -8.34522 13.8431 2.55997
O 1.60189 -0.326344 14.3329
H 0.737326 -0.619185 13.9246
H 1.58232 -0.502557 -15.0255
O 11.787 -3.03019 -3.55524
H 12.1491 -2.91419 -2.63038
H 11.717 -2.13741 -4.00018
O 6.20386 4.44996 -15.0509
H 6.2251 3.45334 -15.1298
H 5.25455 4.76423 -15.0519
O 11.0234 5.08204 -3.69746
H 11.5012 4.76865 -4.51808
H 10.9851 4.33866 -3.02974
O 1.23834 7.44166 12.9309
H 0.28401 7.14303 12.9342
H 1.59983 7.41273 13.8628
O 13.5 -3.54927 10.0491
H 14.219 -3.81473 9.40686
H 13.6867 -3.95375 10.9443
O -9.71752 -9.19931 -8.39736
H -10.3122 -8.74629 -7.7332
H -9.50793 -8.56679 -9.14297
O -6.02847 -9.50286 5.12638
H -6.05671 -8.53218 4.8878
H -6.23967 -9.61369 6.09749
O 3.80143 -13.4439 -10.0502
H 3.80452 -13.6959 -11.0179
H 4.74173 -13.4098 -9.71166
O 2.09823 7.18374 -14.8474
H 1.45073 7.58095 -14.1971
H 2.61517 6.45421 -14.3997
O -0.112102 -12.4302 -5.01563
H -0.999189 -12.093 -5.33084
H -0.0687643 -12.3723 -4.01828
O -3.56388 12.8921 0.989718
H -3.52728 11.9529 1.33096
H -2.9373 12.9905 0.21664
O -15.1119 7.64934 -10.614
H 14.8716 7.67566 -9.68105
H -14.1204 7.77745 -10.5932
O 12.6595 1.4707 7.26935
H 12.3657 0.548177 7.51958
H 13.549 1.42548 6.81491
O -0.656636 -9.64115 12.2873
H -0.885881 -10.155 11.4607
H 0.000191347 -8.92184 12.0612
O 5.22849 -13.8908 -1.53398
H 4.35313 -13.8476 -2.01546
H 5.71754 -14.7198 -1.80532
O -7.9155 4.01111 13.2876
H -7.317 3.34991 12.8353
H -7.46332 4.90243 13.3198
O 11.0918 1.15665 3.10299
H 12.0281 0.958185 2.81331
H 11.0969 1.92374 3.74446
O -6.74256 3.80818 -7.49626
H -6.65138 4.7905 -7.33297
H -5.83516 3.40344 -7.60921
O -11.9255 -2.3891 10.4652
H -12.3941 -1.55978 10.161
H -11.348 -2.7358 9.72613
O -10.7944 -11.2298 -6.94829
H -10.18 -12.0183 -6.97407
H -10.3372 -10.4377 -7.35245
O 6.75597 3.61876 4.54447
H 7.25205 3.22375 5.31765
H 6.73799 4.61458 4.63369
O 6.81772 -6.26592 5.61017
H 6.69274 -6.3333 6.60001
H 7.02895 -5.31989 5.36452
O -2.2863 -9.29039 -13.238
H -2.89845 -8.74061 -12.6697
H -2.49748 -9.13442 -14.2029
O -9.83078 -10.0513 11.2358
H -9.57161 -9.09276 11.354
H -10.6562 -10.1066 10.6741
O -12.5251 0.353847 -6.14743
H -13.1713 0.688609 -6.83322
H -12.967 -0.346424 -5.58684
O 4.13386 12.3577 2.57317
H 4.8152 12.1141 3.26337
H 3.72519 13.2403 2.80523
O 8.89436 -2.04067 -5.40078
H 9.20053 -2.66194 -6.12205
H 8.93227 -1.09862 -5.73404
O -5.72572 -4.19449 -3.36788
H -5.53243 -3.21351 -3.38386
H -4.86524 -4.70343 -3.34588
O 3.01275 0.147138 8.91116
H 3.22261 -0.333649 8.05984
H 3.43586 1.05305 8.89535
O 12.1383 8.49692 12.0193
H 12.599 9.32663 12.3345
H 12.0675 7.84712 12.7761
O -11.3342 13.9295 2.67502
H -11.2104 14.4472 3.52152
H -12.1441 14.2654 2.19428
O -3.07875 14.5995 -10.8421
H -3.32784 -14.8723 -11.2658
H -3.89726 14.1661 -10.465
O -4.64166 -1.51815 -4.11919
H -4.91485 -0.55644 -4.09852
H -3.68626 -1.58715 -4.40621
O -6.48624 -0.32144 -12.2439
H -6.41199 -0.834339 -13.0991
H -6.60022 0.650975 -12.4472
O -13.2801 -8.83226 -10.966
H -13.0764 -8.15644 -10.2577
H -13.7075 -9.63413 -10.5485
O -4.17743 -5.14476 -11.9253
H -4.53034 -4.47509 -11.2719
H -4.54731 -4.95087 -12.8338
O -9.37004 7.94881 -10.1997
H -9.69668 7.29667 -9.51565
H -8.97351 7.45173 -10.9715
O 6.24498 1.32632 -8.11606
H 6.3976 2.18856 -7.63317
H 5.62837 1.48119 -8.88791
O -1.40097 13.4301 10.9568
H -1.79792 13.0069 10.1424
H -2.06597 14.0553 11.3654
O -10.5699 -14.1267 -4.76616
H -9.57163 -14.1354 -4.70856
H -10.864 -14.687 -5.54045
O 14.1071 0.394181 -0.769066
H 13.636 1.22421 -1.06756
H 13.9983 0.286297 0.219103
O -1.33918 14.8526 -3.52824
H -1.64235 -14.7027 -2.99146
H -1.78559 14.8673 -4.42291
O -15.127 -6.11325 14.6403
H -15.0189 -5.22183 15.0803
H -14.3833 -6.25479 13.9869
O -9.48539 9.02347 -0.664272
H -10.0846 9.09326 -1.46175
H -9.77782 9.68013 0.0308697
O -7.38101 5.2403 3.51768
H -8.0353 4.50132 3.3572
H -7.86089 6.11758 3.51135
O -11.9966 -12.0848 -3.25377
H -11.8227 -12.5075 -4.14316
H -11.3469 -11.3391 -3.10642
O 1.24531 10.9964 6.84251
H 0.812834 10.1905 7.24663
H 0.790972 11.8218 7.17762
O -12.0016 -4.80827 -15.1509
H -12.0952 -4.45459 14.2611
H -11.6715 -5.7516 15.1582
O 7.59119 9.51947 -8.22722
H 7.8387 8.93183 -8.99752
H 6.75217 9.17801 -7.80365
O -1.11709 -14.8303 -9.14761
H -0.511862 -14.0874 -9.43361
H -1.83122 -14.9618 -9.83511
O 14.8813 -9.16085 -7.37972
H 14.7756 -8.17689 -7.23626
H -14.9535 -9.32162 -8.22602
O -14.1955 -11.0525 -9.53255
H -14.248 -11.3923 -8.59354
H -14.5857 -11.7311 -10.1548
O -5.68252 -0.765485 4.88397
H -5.30162 -0.5199 3.9926
H -5.21247 -0.250362 5.60066
O 8.58644 8.16632 -10.902
H 8.65769 7.89115 -11.8607
H 8.21334 7.4098 -10.365
O 4.14519 4.64783 -6.27308
H 3.56025 4.19661 -5.59915
H 5.04395 4.20952 -6.28101
O 4.56986 6.73553 7.95896
H 5.48822 6.72659 8.35452
H 4.15503 7.63443 8.09979
O -3.95303 -13.6858 -12.7702
H -4.89383 -13.5009 -12.4863
H -3.38384 -12.8862 -12.579
O 14.0919 4.27088 14.7729
H 14.7651 3.53288 14.7267
H 14.2989 4.86253 -14.7905
O -0.391679 5.07415 -4.94894
H -0.991066 4.88681 -4.17075
H -0.0621724 6.01681 -4.89651
O -11.9331 -8.72888 -4.13989
H -12.2416 -7.9591 -3.58111
H -11.0187 -9.00804 -3.847
O -3.16356 7.3598 -12.0706
H -3.10692 8.16036 -11.4741
H -4.0869 7.2901 -12.4482
O -5.57204 14.7672 1.03185
H -4.81349 14.1975 0.71562
H -5.33716 -14.6109 0.911651
O 9.0497 12.5849 -2.87193
H 9.57424 11.7933 -2.55857
H 9.66409 13.2376 -3.31514
O -7.4628 13.789 -11.5277
H -8.16408 14.4953 -11.4315
H -7.3323 13.5786 -12.4966
O 3.88417 -6.18099 -3.95441
H 4.36707 -5.57613 -3.32125
H 3.49046 -5.63988 -4.69746
O 12.1104 5.76575 -0.938949
H 11.8777 5.78369 -1.9113
H 13.017 6.16612 -0.805749
O 2.54785 -2.94661 13.0249
H 1.92387 -2.6051 13.7278
H 2.10363 -2.89372 12.1306
O 1.89968 -14.6732 7.93138
H 1.54166 -15.1463 8.73635
H 2.8486 -14.4048 8.09709
O 6.97454 -2.60802 9.47298
H 6.43621 -2.62929 8.63055
H 7.66079 -3.33493 9.44843
O 15.1203 5.31096 9.09337
H -14.453 5.0282 8.52058
H -15.1504 4.87154 9.98874
O 4.63419 2.15195 -10.038
H 4.02976 2.94694 -9.98726
H 5.05751 2.11238 -10.9431
O 15.0144 -5.1814 -8.49434
H 14.3687 -5.68314 -7.91878
H 14.9837 -4.2096 -8.26068
O 12.9615 11.7027 -3.28752
H 13.3487 10.8957 -3.73351
H 12.0934 11.4599 -2.85473
O -11.7553 5.30901 3.00463
H -12.2589 6.15021 3.20113
H -11.6684 5.19598 2.01487
O 5.85101 12.5371 15.0936
H 5.30936 11.712 -15.0885
H 6.72859 12.4569 -14.7764
O 6.87208 14.2836 -2.27271
H 7.64004 13.7164 -2.57025
H 6.98507 14.5177 -1.30711
O 11.5642 -8.67261 5.02166
H 11.6073 -9.27869 5.81586
H 11.9274 -9.14739 4.22
O -10.4001 5.14136 12.6114
H -9.49814 4.84224 12.9229
H -10.3031 5.67007 11.7682
O -5.32678 5.00877 10.7479
H -5.33256 5.62416 11.5361
H -4.63188 5.30996 10.095
O 5.58199 7.88338 -7.2417
H 5.82512 7.58391 -6.31913
H 4.83482 8.54603 -7.19097
O -7.9452 -10.8509 9.60524
H -8.74997 -10.5913 10.139
H -7.7521 -11.8222 9.7444
O 1.92434 -11.1654 8.35578
H 2.24476 -10.2662 8.65354
H 1.28147 -11.056 7.5977
O -12.3897 -6.9567 4.42029
H -12.7492 -6.05861 4.67349
H -12.4866 -7.08848 3.43379
O 4.80363 0.646748 5.11
H 5.14928 0.80771 4.18558
H 4.608 1.52315 5.55
O -11.9534 6.52234 -3.67095
H -11.2636 5.80608 -3.77579
H -12.7398 6.31545 -4.25297
O -6.51126 13.9695 7.92354
H -6.97769 13.7279 7.07265
H -5.58509 14.2854 7.71783
O 11.2415 -13.736 -3.57966
H 11.4425 -14.7025 -3.73934
H 10.9986 -13.2987 -4.44546
O 14.7715 -4.58762 7.51442
H 15.0492 -5.26935 6.83765
H 13.8764 -4.21714 7.26633
O 9.66389 1.41775 14.932
H 10.5117 0.961703 14.6613
H 8.99688 1.34885 14.1901
O -12.9695 10.0442 8.89355
H -12.5498 10.8783 9.25133
H -13.2651 9.46689 9.65466
O -9.69159 7.36182 10.7591
H -9.34948 7.72855 11.6242
H -9.10256 6.61156 10.4589
O -2.37475 -1.92244 7.76408
H -3.16488 -1.40775 7.43131
H -1.62937 -1.28984 7.97425
O 11.5502 -11.252 13.4137
H 10.5975 -11.1643 13.1229
H 11.596 -11.2436 14.4125
O 10.8059 10.9722 -1.72274
H 10.9155 9.99152 -1.56096
H 11.3107 11.4832 -1.02707
O 11.937 -7.59569 -0.753945
H 12.5374 -7.21074 -1.4548
H 11.428 -8.36621 -1.13763
O -12.6125 -12.4972 6.08951
H -12.4495 -11.5279 5.90559
H -12.9665 -12.938 5.26471
O 14.1411 -11.4559 -0.168128
H 13.2325 -11.7243 -0.48799
H 14.7377 -11.2966 -0.954635
O -1.56152 -9.75617 -2.16599
H -2.47887 -9.66132 -1.77944
H -0.899402 -9.30515 -1.56756
O 1.03553 -8.39846 2.50134
H 0.0578224 -8.36328 2.70821
H 1.31614 -9.35033 2.37831
O -1.94225 2.31265 -6.98651
H -1.97889 3.12093 -6.3989
H -1.0157 2.20406 -7.34657
O -9.84302 12.2942 -10.4787
H -9.04512 12.7875 -10.8251
H -10.2338 12.7937 -9.70555
O 6.21931 -14.8112 4.04927
H 6.50031 -13.8685 4.22921
H 6.90631 15.0821 3.47826
O 4.75196 13.1751 9.21627
H 5.27076 12.4642 8.7414
H 4.06858 12.7491 9.80914
O -6.08526 11.3428 8.11588
H -6.3864 12.2626 8.36732
H -5.58205 11.3812 7.2526
O 14.848 6.96053 12.8067
H 13.9814 6.9638 13.3056
H -15.1191 6.0338 12.7971
O 6.12724 6.1742 5.27645
H 5.29841 6.19703 5.83543
H 5.96288 6.65778 4.41675
O 4.79585 -7.55681 3.97792
H 5.40183 -6.88453 4.40309
H 5.12391 -8.47867 4.18407
O -12.3217 12.1865 -7.60044
H -12.0492 11.3973 -7.05006
H -13.2606 12.4438 -7.37221
O -8.56704 -13.4085 3.86141
H -9.0801 -13.351 4.7178
H -8.62565 -14.3388 3.49959
O -0.819641 -10.0091 9.57897
H -0.1722 -9.24821 9.6217
H -1.5467 -9.79188 8.92771
O -9.77716 -12.6504 6.48039
H -9.9234 -11.7445 6.8778
H -10.637 -12.9898 6.09919
O -9.13668 12.7658 1.54815
H -9.08267 12.8455 0.552822
H -10.0113 13.1328 1.86493
O -12.5427 11.3798 -3.93367
H -13.2067 11.4115 -3.18669
H -12.1443 12.2876 -4.06426
O -11.2557 5.09984 -6.98579
H -12.1614 4.68644 -7.07908
H -10.9016 4.9231 -6.06745
O 3.44603 10.1519 -7.02805
H 3.98237 10.8585 -6.56655
H 2.50602 10.4715 -7.14714
O 8.03286 13.1211 -10.6171
H 8.3843 13.2771 -11.5402
H 8.54222 12.3751 -10.1882
O -12.8557 -9.9108 5.4255
H -12.3828 -9.12765 5.02177
H -13.8252 -9.69313 5.53773
O -3.08481 12.0722 -12.3723
H -3.1295 12.1569 -13.3677
H -2.81152 12.9483 -11.9752
O -6.03109 -1.24124 -14.6196
H -5.94238 -0.552392 15.0036
H -5.36876 -1.97386 -14.7761
O 11.1978 -10.5138 7.18136
H 11.5141 -11.4268 6.92386
H 11.7478 -10.1733 7.94393
O -9.12596 -1.32739 -9.80088
H -8.14957 -1.31819 -9.5852
H -9.30976 -0.681387 -10.5417
O -9.04739 5.93481 -8.03156
H -8.37555 6.2074 -7.34289
H -9.9013 5.6761 -7.58007
O -9.13833 6.29192 0.220033
H -9.96958 5.78791 0.454412
H -9.3851 7.18184 -0.163487
O -2.5283 -11.3792 -5.31639
H -2.99813 -10.5674 -4.96975
H -2.93728 -11.655 -6.18621
O 0.662391 14.8783 -5.327
H 0.347177 14.6339 -4.41002
H 0.19823 -14.6313 -5.628
O -1.25737 -8.77467 -6.24521
H -1.62607 -7.94662 -5.82293
H -0.684419 -9.25916 -5.58419
O -8.46863 10.2681 2.85956
H -8.89611 11.0791 2.46016
H -8.58191 10.2867 3.85292
O 0.265641 2.43087 -13.2538
H 1.19239 2.64687 -13.5611
H -0.288157 3.26348 -13.2542
O 2.57243 -12.7938 -2.25852
H 2.85587 -12.0713 -2.88902
H 1.59359 -12.7088 -2.07254
O 14.5769 -3.19319 -13.3489
H 14.8854 -3.73694 -12.5684
H 13.6471 -2.866 -13.1805
O -6.43429 -7.68871 -1.91176
H -6.34028 -7.52517 -0.929747
H -6.04902 -8.58304 -2.1391
O -5.02057 -3.37743 -10.0868
H -5.44266 -2.4828 -9.94043
H -4.48318 -3.62819 -9.28167
O -9.89491 10.774 -13.1394
H -10.4547 11.5524 -13.4232
H -9.81458 10.767 -12.1427
O -2.0424 8.92232 12.1065
H -1.97593 9.89431 12.3318
H -1.68255 8.76809 11.1864
O -1.20898 0.254271 -14.2819
H -0.515238 0.932052 -14.0385
H -1.81332 0.100318 -13.5003
O -11.4003 -6.23107 10.3802
H -11.2975 -5.23662 10.3585
H -11.2175 -6.60496 9.471
O 6.86681 -10.3825 1.09766
H 6.6311 -9.49141 0.709899
H 7.86061 -10.4586 1.17831
O 1.6443 14.5741 0.530544
H 1.51225 13.7218 0.024593
H 2.44866 15.0509 0.176125
O -8.10793 5.24674 9.93005
H -7.14191 5.28264 10.1859
H -8.37043 4.2985 9.75151
O 3.90248 9.691 7.8056
H 3.02739 10.0305 7.46073
H 4.64369 10.2628 7.45408
O -14.8042 -0.769234 -15.0635
H -15.0787 -0.761989 14.3176
H -15.0744 -1.63691 -14.6463
O 15.0182 9.79834 4.54311
H 14.3521 9.08551 4.32395
H 14.8471 10.142 5.46645
O 12.1012 5.06786 10.7863
H 12.1249 5.94955 11.2575
H 12.8657 5.01241 10.1442
O 11.7788 7.66424 -10.5165
H 12.2508 8.42867 -10.9557
H 10.8532 7.94529 -10.2631
O -11.0945 -6.7489 -12.0735
H -10.9727 -5.83483 -12.4603
H -10.6668 -7.42456 -12.6739
O 6.19987 -14.1076 7.63734
H 6.93517 -13.5728 7.22098
H 5.39395 -13.5282 7.75866
O 2.25607 -3.78223 -10.025
H 1.98871 -3.37228 -10.897
H 2.76677 -3.11333 -9.48495
O 4.00898 -14.2245 11.6161
H 4.37562 -14.7691 12.3703
H 4.10825 -14.7315 10.7599
O 13.5385 -9.37149 8.42974
H 13.865 -8.4373 8.57347
H 14.0674 -10.0007 8.99928
O 10.673 8.38981 -1.63977
H 9.68593 8.24977 -1.71786
H 11.1104 8.17312 -2.51247
O 3.32276 5.73055 2.03226
H 2.75974 6.00257 2.81262
H 2.81054 5.87417 1.18554
O -12.1657 -14.9073 -9.9945
H -12.8787 -15.0701 -9.31255
H -12.0016 -13.9244 -10.077
O 10.026 5.84964 8.29567
H 10.5372 5.1514 8.79674
H 10.2761 6.75545 8.63759
O -3.04335 -0.63662 -11.6787
H -3.07428 -1.01633 -10.7541
H -3.59283 0.198071 -11.7147
O 10.7187 3.13133 -1.92967
H 10.2754 2.23763 -1.86125
H 11.6412 3.0759 -1.54764
O 1.6742 12.9577 -10.9349
H 2.04875 13.71 -11.4769
H 2.25711 12.7985 -10.1382
O 2.1028 -6.51791 -9.80891
H 1.46279 -6.92845 -10.4584
H 1.94112 -5.53235 -9.75939
O 11.116 13.6867 -7.18045
H 11.7033 14.2061 -7.80115
H 10.2186 14.1246 -7.12625
O 11.1639 -14.0738 -11.0208
H 11.541 -14.8543 -11.5193
H 10.283 -14.3277 -10.6212
O 12.6684 -0.285502 -3.7805
H 12.0093 -0.0947467 -3.05303
H 13.5748 -0.423586 -3.38132
O -7.50558 -13.4322 -14.85
H -8.25902 -12.849 -15.1537
H -7.48383 -13.4552 -13.8506
O -3.6168 -12.4371 13.2388
H -3.05349 -12.9767 12.6131
H -3.12974 -12.3134 14.1033
O -6.3739 8.4741 14.9358
H -6.78653 9.2525 -14.9338
H -5.78864 8.8058 14.1959
O 15.0269 -2.32283 5.57265
H -15.1534 -2.64973 4.64168
H 14.1695 -2.70644 5.91582
O 10.2736 5.04082 1.40382
H 9.44661 4.86845 0.868719
H 11.0209 5.29507 0.789903
O 10.7596 -5.35725 0.11626
H 11.2484 -6.22671 0.0455955
H 11.1053 -4.84332 0.901291
O -11.6947 14.8868 14.7419
H -11.1371 14.3081 14.147
H -11.2602 -14.5604 14.8384
O -6.73057 13.8498 -14.1448
H -5.77075 13.7387 -14.4023
H -7.24286 14.2201 -14.9196
O -14.5684 -9.80095 -4.76479
H -14.8645 -9.65183 -5.70821
H -13.5843 -9.63823 -4.69467
O -12.8873 -12.3993 10.528
H -12.8293 -12.8803 9.65329
H -12.871 -11.4124 10.3674
O -13.5237 11.1209 -9.74066
H -13.2798 11.6416 -10.5588
H -12.9473 11.4109 -8.97678
O -7.01399 -7.33819 -13.0526
H -6.14176 -7.74793 -12.7856
H -7.094 -6.42895 -12.6441
O 1.56949 14.9967 3.4594
H 1.79518 14.9453 2.48659
H 1.60792 14.081 3.85934
O -2.57521 14.5621 -14.4765
H -3.21771 -15.0207 -14.3774
H -1.84219 14.6554 -13.8028
O 0.828915 6.38247 8.74521
H 0.738193 5.53115 8.22852
H 1.48054 6.25113 9.49225
O -14.921 9.17016 -0.720047
H -14.6621 9.79257 -1.45865
H -15.1547 9.69959 0.0954429
O -11.7193 -7.55882 -6.64477
H -11.0445 -6.82434 -6.57282
H -11.7492 -8.06929 -5.78543
O -10.5669 -0.303839 0.378791
H -10.3864 -0.535279 1.33471
H -11.4954 -0.585727 0.137239
O -14.1689 0.96229 -8.24091
H -13.4989 1.06501 -8.97605
H -15.0175 0.586672 -8.61346
O -11.0754 -7.48974 7.86072
H -10.1292 -7.28689 7.60872
H -11.6125 -7.65511 7.0336
O -2.94423 7.37625 -3.61482
H -3.74896 6.92404 -3.23028
H -3.23512 8.13147 -4.20216
O 6.11927 -11.2378 -3.84561
H 6.74905 -10.9246 -4.55638
H 6.49625 -11.0181 -2.94585
O 13.2629 2.15831 -14.0835
H 13.1284 1.6041 -14.9049
H 14.1085 2.68482 -14.1715
O 12.0318 2.89221 -10.5659
H 12.013 3.62993 -11.2406
H 12.3565 2.05183 -10.9997
O -13.2239 10.6525 3.12064
H -13.9557 10.4859 3.78139
H -12.3988 10.9452 3.60388
O -0.345474 -11.2977 6.35848
H -1.24504 -10.8661 6.4247
H -0.419225 -12.2624 6.61144
O 8.03532 3.68907 9.50927
H 8.83703 3.50209 10.0769
H 7.63983 4.56952 9.77068
O 7.34665 -10.3942 -10.3003
H 6.53969 -10.2418 -10.8709
H 8.15624 -10.0364 -10.7656
O -11.5751 5.06331 0.256917
H -11.2382 4.38825 -0.39938
H -12.5728 5.10737 0.207245
O 9.86206 0.326474 10.3813
H 10.0944 1.29341 10.2765
H 8.96965 0.244309 10.8249
O 7.68608 -7.59092 8.17633
H 8.58728 -7.36633 8.5469
H 7.71625 -8.49589 7.75201
O 13.3767 6.66013 -8.66637
H 13.8255 7.45813 -8.26426
H 12.5153 6.94037 -9.08994
O 13.4467 14.1206 3.14268
H 13.4598 13.5512 3.96456
H 12.8656 13.6931 2.45022
O -9.30544 11.4904 -3.24848
H -9.5386 12.1719 -2.55482
H -9.83477 10.6573 -3.08837
O -9.87088 0.810792 11.1996
H -9.74918 0.147974 10.4609
H -9.68836 0.368461 12.0777
O -12.6849 6.00764 -10.0352
H -12.5782 6.95819 -10.3267
H -12.2605 5.40272 -10.7089
O -3.41266 9.49322 -8.42103
H -2.80981 9.23831 -7.66503
H -2.92392 9.38812 -9.28707
O -8.59228 -14.6187 11.8249
H -7.61497 -14.5622 12.0288
H -8.91899 14.7977 12.0127
O 1.24137 11.3741 -3.9201
H 1.32699 11.5764 -4.89565
H 0.628484 10.5941 -3.794
O -4.21782 10.3454 1.88691
H -4.49517 9.99769 2.78251
H -4.78306 9.92573 1.17677
O 9.05833 6.9976 2.83178
H 9.64061 6.37378 2.3105
H 9.1091 6.76727 3.80353
O 4.71455 -11.0661 11.7694
H 4.91487 -12.0409 11.8676
H 4.16636 -10.7585 12.547
O -12.3178 3.54342 -13.8986
H -11.9988 4.24618 -13.2627
H -11.7793 2.71039 -13.7722
O -2.39104 7.40801 14.7347
H -3.15711 7.89366 14.3137
H -1.89366 6.89801 14.0329
O -5.46805 -6.7303 5.35964
H -4.71747 -6.2326 4.92506
H -5.50087 -6.50105 6.33242
O 7.92077 4.17342 12.7084
H 7.11272 4.65815 12.3736
H 7.64243 3.48261 13.3756
O 4.88591 -3.04592 14.4764
H 5.09945 -4.01997 14.5511
H 4.03633 -2.92945 13.9621
O 7.83988 11.5459 -6.12726
H 7.76322 10.8966 -6.88387
H 8.18662 12.4187 -6.47085
O 1.13685 14.1276 10.0712
H 1.85073 13.6274 10.5613
H 0.261945 14.0039 10.5394
O 3.06979 6.62462 11.0146
H 2.41577 6.91326 11.7138
H 3.47533 7.43107 10.5844
O 13.823 14.7626 -9.21877
H 13.2871 -14.7388 -9.14728
H 14.6973 14.8834 -8.74871
O 14.1573 3.58848 2.38057
H 13.3443 3.10186 2.06097
H 14.565 3.0899 3.14554
O -14.5005 14.6541 -1.54067
H 15.0449 14.5389 -0.948085
H -14.7499 -15.1265 -2.32931
O -9.82692 0.342293 -6.60233
H -9.88276 0.805561 -7.48675
H -10.736 0.305632 -6.18729
O 6.57175 1.15796 8.01824
H 6.58025 0.409993 7.3546
H 7.26695 1.83227 7.76937
O -8.40202 12.9456 -5.3701
H -8.49404 12.3579 -4.56631
H -8.23862 13.8877 -5.07725
O 0.518287 1.89484 -8.13709
H 0.637704 2.88677 -8.17913
H 0.667249 1.50244 -9.04471
O -3.66078 6.41377 -6.33916
H -2.90788 7.03492 -6.12178
H -4.12655 6.73086 -7.16526
O -9.88229 0.719329 -11.6063
H -10.0748 1.09518 -12.5127
H -9.33577 1.37346 -11.0835
O -5.34294 13.5155 -9.89978
H -6.00759 13.8229 -10.5807
H -5.82497 13.1136 -9.12127
O -10.4461 2.69869 -8.41092
H -11.3069 2.30312 -8.73097
H -10.6338 3.54065 -7.90517
O -11.0635 -1.80008 -3.01054
H -10.7819 -2.46336 -3.70386
H -11.8535 -2.15534 -2.51085
O 4.04788 6.09923 -10.6149
H 3.68618 6.84064 -10.0498
H 3.84042 5.22063 -10.1849
O 11.8519 8.41793 1.18215
H 11.575 8.31335 0.227
H 11.2469 9.07296 1.63477
O 14.5586 -3.18719 2.82159
H 14.9567 -3.72024 2.07508
H 13.6257 -3.50243 2.99561
O -2.57688 -5.37725 5.04562
H -1.63072 -5.21003 4.76858
H -2.79345 -6.34592 4.92432
O -1.75882 -7.53248 2.53635
H -2.40588 -7.17381 1.86359
H -2.25079 -7.78861 3.36839
O 0.748585 -9.801 -14.8722
H 0.741312 -10.7949 -14.9818
H -0.180513 -9.44707 -14.9793
O -10.5817 -2.69905 -6.42143
H -11.039 -2.4706 -7.28085
H -10.1499 -1.8792 -6.04545
O 1.93552 -3.74167 -13.1136
H 1.85614 -2.75935 -13.283
H 2.86079 -4.04535 -13.3407
O -12.3076 0.288172 -10.4852
H -11.3699 0.315703 -10.8316
H -12.9471 0.294671 -11.2539
O -1.08775 6.86068 2.12301
H -1.32116 7.80871 1.9069
H -0.487311 6.83916 2.92235
O -7.78294 -7.28104 7.36231
H -7.6151 -8.264 7.28767
H -6.96974 -6.83114 7.73138
O -8.03872 2.50184 -5.46847
H -7.5203 2.94787 -6.19802
H -8.43638 1.65184 -5.81388
O -0.37093 13.8845 -12.7093
H 0.240106 13.3409 -12.1338
H -0.3757 14.8317 -12.3887
O 0.110204 -1.28523 -10.0959
H -0.756382 -1.22511 -9.60058
H 0.425301 -2.23423 -10.1023
O -6.15482 9.0308 0.596982
H -6.84307 9.7562 0.603565
H -6.07978 8.6509 -0.324964
O -5.75633 -10.4268 -1.28192
H -4.87457 -10.3869 -0.811965
H -6.49112 -10.4927 -0.606872
O 5.40587 6.72771 -1.85495
H 5.07478 7.34951 -2.56466
H 6.10936 7.18612 -1.31189
O 14.8816 6.3915 -1.06448
H 14.9536 7.37305 -0.88753
H -15.0567 5.88498 -0.302958
O -5.27549 12.6097 -1.4594
H -5.18248 13.5989 -1.57256
H -5.25727 12.3824 -0.485763
O 7.67395 -12.3223 6.08045
H 7.88515 -11.5172 6.63463
H 7.35945 -12.0318 5.17678
O -8.714 4.06232 -14.1766
H -8.49797 4.36835 -15.1037
H -8.52461 4.80061 -13.5293
O 8.02523 2.95298 6.84682
H 8.14103 3.37208 7.74731
H 8.89818 2.57263 6.54146
O 3.13433 8.04562 -8.81311
H 3.78831 7.48232 -8.30819
H 3.33566 9.01234 -8.65546
O 6.81914 -11.7665 -1.21932
H 6.04369 -12.3951 -1.27854
H 6.80538 -11.3028 -0.3335
O 8.04395 8.02504 -2.03365
H 7.89875 7.31215 -2.71967
H 8.16043 8.90745 -2.48943
O 9.28879 -11.7414 -3.21809
H 8.38994 -11.8272 -3.6478
H 9.7875 -12.6029 -3.31374
O -14.3985 0.419911 -12.4172
H -14.5168 -0.071553 -13.28
H -14.6048 1.38868 -12.5544
O 12.3985 11.8622 0.375585
H 13.1766 11.4777 0.872253
H 11.5694 11.7619 0.925622
O 11.3577 13.9302 -4.44605
H 11.4688 13.841 -5.43581
H 12.0098 13.3307 -3.98206
O 12.0675 11.712 10.3565
H 12.4269 11.3355 11.2104
H 11.0684 11.7295 10.3944
O -0.458633 -12.3002 -1.96444
H -0.396882 -12.7062 -1.05271
H -0.915336 -11.4126 -1.9038
O -11.9663 -4.14519 -0.420139
H -11.0655 -4.26584 -0.00319732
H -12.229 -4.9851 -0.895003
O -11.6018 -12.2173 -9.98789
H -10.9541 -11.6226 -10.464
H -12.3956 -11.682 -9.69927
O 2.35126 11.4371 15.1713
H 2.63698 10.9316 14.3572
H 1.37838 11.2774 -15.0042
O 13.1938 -6.46942 9.10061
H 13.6874 -6.46278 9.97024
H 13.4701 -5.67864 8.55449
O 13.3032 14.9046 -0.409606
H 12.4607 14.3672 -0.445623
H 13.0974 -14.4814 -0.616079
O -13.621 7.96882 1.81436
H -13.6741 8.37245 0.901011
H -13.2561 8.64327 2.45614
O 8.85195 0.182414 -6.7082
H 8.10476 0.295716 -7.36304
H 9.39004 1.02428 -6.66754
O 5.87339 -1.1267 6.81936
H 5.55066 -0.544488 6.07316
H 5.49046 -2.04458 6.71547
O 10.0538 -10.9432 -7.56473
H 10.4754 -10.9304 -8.47141
H 9.18174 -10.4549 -7.59573
O -14.3108 -1.66988 -4.76162
H -13.9456 -2.47061 -5.23634
H -14.1769 -1.77661 -3.77643
O -8.21709 2.81707 -9.99155
H -9.15332 2.68386 -9.66648
H -7.66055 3.20295 -9.25582
O -8.11148 13.6923 5.80287
H -8.33279 12.7252 5.92809
H -7.9215 13.8684 4.83704
O -2.97048 -13.0413 -7.64087
H -2.17394 -13.2294 -8.21539
H -3.73264 -12.7426 -8.21522
O -3.13965 -8.40545 5.14769
H -3.12212 -9.15369 4.48454
H -3.05992 -8.77768 6.07237
O 7.80632 10.8887 1.37505
H 7.63712 9.91122 1.2488
H 7.37932 11.3999 0.629228
O 13.2224 8.09423 3.74435
H 12.6409 7.61677 4.40293
H 12.8623 7.95801 2.82148
O -14.4311 2.43364 15.0825
H -13.6939 3.02 -14.9245
H -14.0958 1.496 14.9911
O -10.072 -0.781406 13.5338
H -9.48236 -0.940685 14.3256
H -10.3884 -1.65832 13.1721
O 10.2846 -6.61187 6.31175
H 10.8349 -7.24003 5.76177
H 10.2562 -6.93453 7.25781
O -1.89991 4.7077 -13.2381
H -2.14896 4.05135 -12.526
H -2.29342 5.60087 -13.0205
O -6.63322 -13.1309 -11.5182
H -7.34765 -13.8267 -11.4439
H -7.04 -12.2232 -11.4157
O -13.1131 -13.7556 3.78775
H -12.7772 -14.6721 4.00493
H -14.0119 -13.824 3.35487
O -10.6751 -1.23108 2.97679
H -11.1177 -0.559755 3.5713
H -9.98999 -1.73858 3.49924
O 10.0701 -0.0938077 -10.7724
H 10.5322 -0.474347 -9.9714
H 10.7514 0.183889 -11.4496
O -7.46668 -6.07251 3.90177
H -7.00809 -6.53451 3.1427
H -6.86217 -6.05964 4.69823
O 8.53532 -14.7136 -13.8277
H 8.5497 -14.6047 -14.8216
H 8.34871 -13.83 -13.3982
O -8.69657 7.66441 2.76939
H -8.94925 7.12882 1.96364
H -8.56303 8.6198 2.50611
O 15.0516 -5.59529 -11.115
H -14.4914 -5.77359 -11.6884
H -14.9958 -5.42564 -10.1748
O 15.1149 -5.31071 1.29927
H -14.4576 -5.94708 1.34325
H 14.2665 -5.79969 1.50175
O 7.00402 9.27757 -14.1114
H 6.84782 9.9603 -13.3976
H 6.12809 9.00512 -14.5094
O -2.36345 15.0073 -6.10811
H -2.94587 -14.6649 -6.56781
H -2.08602 14.3031 -6.76157
O 11.3241 8.30799 9.31733
H 11.81 8.11176 10.169
H 11.8598 7.97155 8.5429
O 14.9438 4.11404 -2.74218
H 15.0041 5.07631 -2.47694
H -14.4966 3.6898 -2.66472
O -10.5125 -10.0135 -11.3541
H -10.0012 -9.52143 -12.0586
H -11.4319 -9.62754 -11.2787
O -9.47707 -6.82699 -9.77164
H -10.0459 -6.97092 -10.5813
H -8.73075 -6.20032 -9.99574
O -11.3422 3.17005 -1.81111
H -10.6458 2.4705 -1.97084
H -12.2338 2.73237 -1.6953
O 14.6046 -10.6296 11.0296
H 14.7442 -11.4084 11.6411
H 14.0315 -9.94766 11.4841
O 7.33857 7.91385 0.67328
H 7.79533 7.772 -0.204894
H 7.96667 7.68394 1.41664
O 3.02966 -2.61174 10.0125
H 2.13552 -2.16401 10.0105
H 3.71179 -1.99566 9.61866
O 6.05795 -0.440075 -14.431
H 5.82121 -1.30997 -14.8636
H 6.83554 -0.574063 -13.8167
O -1.04792 5.73878 12.9132
H -1.71259 5.67678 12.1687
H -0.877874 4.82623 13.285
O -13.881 2.43147 -0.563034
H -14.8391 2.20551 -0.387436
H -13.3866 2.48428 0.30456
O -5.27851 -1.17211 8.5378
H -5.04029 -1.67699 9.36743
H -5.58044 -1.81343 7.83247
O -12.4176 -7.5502 -0.901647
H -13.0649 -7.55644 -1.66379
H -11.6568 -8.16635 -1.10545
O -12.8238 -12.9318 -13.1475
H -13.4039 -12.1683 -13.4311
H -13.1971 -13.3431 -12.316
O 1.94718 7.24346 3.87541
H 2.26047 6.76946 4.69827
H 1.47538 8.08595 4.1353
O -9.42012 -8.70233 -13.5583
H -8.54452 -8.36513 -13.2125
H -9.39011 -8.74466 -14.5569
O 10.46 11.2144 2.04148
H 10.4265 11.3277 3.03444
H 9.53954 11.3134 1.66345
O 3.44162 5.46626 -13.3751
H 3.11852 4.52502 -13.2771
H 3.63808 5.84705 -12.4716
O 12.5455 6.59492 14.0516
H 11.6485 6.79974 14.4433
H 12.7573 5.62773 14.1916
O -1.25725 11.4673 13.1082
H -0.714908 11.7736 13.8904
H -1.10143 12.0806 12.3339
O -9.17792 -7.44238 11.7524
H -9.1166 -6.44456 11.7289
H -8.29656 -7.83668 11.4922
O -3.73288 -13.8419 3.50388
H -3.68543 -13.4519 2.58432
H -2.83074 -14.1827 3.76834
O 6.05371 -2.68393 -5.15563
H 7.00424 -2.68867 -5.46614
H 5.67121 -1.76676 -5.26716
O -0.107751 -6.41405 -1.706
H 0.597679 -5.72182 -1.85809
H 0.316404 -7.25275 -1.36451
O 5.79592 1.93099 14.7926
H 5.76225 1.04099 -15.0954
H 5.03557 2.00462 14.1473
O 3.45762 1.11553 -4.78029
H 3.04553 2.02553 -4.82542
H 4.33861 1.17152 -4.31054
O -8.41323 12.8976 9.56755
H -7.68904 13.5104 9.25142
H -8.38556 12.8357 10.5652
O -6.46547 -0.919407 -9.64568
H -6.69796 -0.68522 -10.5896
H -6.05769 -0.124828 -9.1959
O -6.90201 8.37414 -2.07231
H -6.52215 9.17109 -2.54191
H -7.80023 8.60457 -1.69809
O -9.22986 -9.04869 13.988
H -8.94798 -9.8586 13.4737
H -9.09415 -8.23293 13.4258
O -0.675524 7.57413 -13.3794
H -1.06661 7.57066 -14.2998
H -1.41139 7.63156 -12.7048
O 5.25018 -10.0573 -12.7277
H 6.00839 -9.51001 -13.082
H 4.38295 -9.62769 -12.9792
O 7.58426 9.8179 4.68931
H 7.87254 9.36609 3.84509
H 6.5954 9.96494 4.66774
O 7.13769 -13.8804 -4.70089
H 6.73027 -14.166 -3.8335
H 6.42975 -13.4891 -5.28881
O -12.7074 -7.40722 1.73354
H -12.8143 -7.23573 0.754203
H -12.5265 -8.37913 1.88393
O 2.17889 9.05415 1.00961
H 2.88719 9.57052 0.528345
H 2.22804 9.25341 1.98829
O 6.59479 -13.0152 -8.76161
H 6.25839 -12.9778 -7.82066
H 6.82217 -12.0919 -9.07123
O 7.30453 -8.37601 -13.883
H 6.91715 -9.02813 -14.5346
H 7.73756 -7.62465 -14.3809
O 10.4564 -7.0157 -7.76103
H 10.8575 -7.93167 -7.76318
H 9.8216 -6.92804 -8.52869
O 2.78032 3.0717 14.0743
H 2.83247 2.11889 13.7753
H 3.02065 3.6736 13.3128
O -9.50426 3.34709 5.8072
H -9.40409 3.40023 4.81368
H -8.90887 4.02464 6.23894
O -12.3231 8.70132 -10.2614
H -11.3595 8.83921 -10.0323
H -12.7548 9.58675 -10.4333
O 4.25683 -6.96706 -11.6919
H 3.80196 -7.71508 -12.1751
H 3.98471 -6.97759 -10.7297
O 7.33572 13.3427 2.67169
H 7.33211 12.4958 2.13999
H 8.27023 13.5512 2.96003
O 4.97515 9.58335 3.99618
H 3.98965 9.71078 4.10798
H 5.14736 8.72756 3.50844
O -2.33086 0.642379 11.7191
H -3.3032 0.874844 11.698
H -1.87408 1.04753 10.9271
O -10.4128 4.0594 -4.37351
H -9.64235 3.50027 -4.67954
H -10.7138 3.74752 -3.47235
O -13.2897 -12.1462 -6.92109
H -12.3761 -11.7411 -6.88972
H -13.802 -11.8769 -6.10562
O -6.05867 5.5544 -3.99369
H -6.59122 4.9654 -3.3859
H -5.31477 5.0258 -4.4025
O -3.39921 -7.73437 -11.313
H -2.89073 -7.88638 -10.4655
H -3.6156 -6.76216 -11.4021
O 9.12353 -7.59027 1.04602
H 8.82221 -7.38483 1.97712
H 9.69945 -6.84505 0.710023
O -8.39389 10.7718 6.33889
H -8.22764 9.85588 5.97369
H -7.80446 10.9266 7.1317
O 15.1445 7.83505 -14.1391
H 14.5199 7.72063 -14.9116
H 14.8948 8.65726 -13.6276
O 12.8886 -8.93536 12.3528
H 12.9645 -8.37238 13.1757
H 12.4098 -9.78511 12.5733
O 14.1407 12.6673 8.86502
H 14.7995 13.1392 9.45078
H 13.4619 12.2028 9.43374
O -1.08109 -14.0741 7.09704
H -1.74602 -14.1882 7.83513
H -0.179712 -14.3717 7.41148
O 11.3877 -0.927835 -8.06949
H 12.16 -0.878981 -7.43623
H 10.5376 -0.753818 -7.57246
O 4.75386 8.58603 -3.80335
H 4.66677 9.57761 -3.70783
H 4.05745 8.24981 -4.43732
O 13.4144 -10.3132 -11.7378
H 12.4405 -10.277 -11.5136
H 13.7025 -9.4331 -12.1151
O 8.46281 3.37619 -11.4614
H 9.09545 3.91973 -12.013
H 8.96524 2.6427 -11.0037
O 4.68965 -0.555993 -6.54031
H 5.27593 0.112879 -6.99729
H 4.25255 -0.129998 -5.74822
O -6.1464 -2.96985 6.55659
H -5.21437 -3.27135 6.35566
H -6.39054 -2.21415 5.94893
O -8.96326 -5.81915 14.8785
H -9.46347 -5.14954 -14.9151
H -8.55258 -6.50376 -14.8619
O 4.08515 -12.8264 8.79514
H 3.41484 -12.1725 8.44442