LAMMPS (15 May 2015)
Reading data file ...
  orthogonal box = (-14.9458 -14.9458 -14.9458) to (14.9458 14.9458 14.9458)
  2 by 2 by 5 MPI processor grid
  reading atoms ...
  2611 atoms
  reading velocities ...
  2611 velocities
  scanning bonds ...
  3 = max bonds/atom
  scanning angles ...
  3 = max angles/atom
  scanning dihedrals ...
  8 = max dihedrals/atom
  scanning impropers ...
  1 = max impropers/atom
  reading bonds ...
  1749 bonds
  reading angles ...
  894 angles
  reading dihedrals ...
  44 dihedrals
  reading impropers ...
  10 impropers
Finding 1-2 1-3 1-4 neighbors ...
 Special bond factors lj:   0          0          0         
 Special bond factors coul: 0          0          0         
  4 = max # of 1-2 neighbors
  8 = max # of 1-3 neighbors
  20 = max # of 1-4 neighbors
  16 = max # of special neighbors
2611 atoms in group all
2592 atoms in group water
19 atoms in group naph
864 atoms in group O
1728 atoms in group H
8 atoms in group C
8 atoms in group He
2 atoms in group S
1 atoms in group Na
Setting atom values ...
  864 settings made for charge
Setting atom values ...
  1728 settings made for charge
Setting atom values ...
  2 settings made for charge
Setting atom values ...
  8 settings made for charge
Setting atom values ...
  8 settings made for charge
Setting atom values ...
  1 settings made for charge
Finding 1-2 1-3 1-4 neighbors ...
 Special bond factors lj:   0          0          0.5       
 Special bond factors coul: 0          0          0.5       
  4 = max # of 1-2 neighbors
  8 = max # of 1-3 neighbors
  20 = max # of 1-4 neighbors
  16 = max # of special neighbors
Finding SHAKE clusters ...
  0 = # of size 2 clusters
  0 = # of size 3 clusters
  0 = # of size 4 clusters
  864 = # of frozen angles
PPPM initialization ...
  G vector (1/distance) = 0.249226
  grid = 20 20 20
  stencil order = 5
  estimated absolute RMS force accuracy = 0.0036912
  estimated relative force accuracy = 1.11159e-05
  using double precision FFTs
  3d grid and FFT values/proc = 3179 400
Neighbor list info ...
  6 neighbor list requests
  update every 1 steps, delay 0 steps, check yes
  master list distance cutoff = 14
Setting up run ...
Memory usage per processor = 14.9131 Mbytes
Step Temp PotEng Density E_vdwl E_tail E_coul E_long ljcoul born water naph Press Volume 14[1] 14[2] 14[3] msd[4] msd2[4] msd3[4] msd4[4] Lx Ly Lz E_mol E_bond E_angle E_dihed Cella Cellb Cellc 
       0    296.31967   -8547.8783   0.97644921    1492.0931    -21.58751    30616.478   -40664.603    32078.198    51.960752   -8583.0876    56.796835    222.02305    26708.402   -2.2046001   -1.7783688   -2.1075357 2.8907779e-30 2.6249037e-30 2.911968e-30 3.4330058e-30     29.89161     29.89161     29.89161    8.1538225    2.6095331    1.1212219    4.2831951     29.89161     29.89161     29.89161 
   10000     295.5507   -8624.6468   0.94250275    1457.4755   -20.837016     30569.74   -40665.961    32029.444    18.608354   -8633.9923    30.182456   -553.92837    27670.368   -3.0365447   -1.3940952   -2.3781173    14.196453    13.277589    14.184947    13.240517    30.246257    30.246257    30.246257    14.098561    4.2184448    4.8051821    4.2999741    30.246257    30.246257    30.246257 
   20000    300.53093   -8526.2375   0.94707542    1400.1882   -20.938109    30717.264   -40665.771     32122.16    16.230384   -8540.2578    34.958413    -820.8542     27536.77   -4.0834355   -1.1996509   -2.8116035    27.614262    23.272547    27.691534    23.297411    30.197501    30.197501    30.197501    22.081037    10.943078    4.9453297    5.4845511    30.197501    30.197501    30.197501 
   30000    297.38645   -8487.2716   0.95274975    1498.3126   -21.063558    30661.582   -40665.195    32156.618    24.340619   -8502.6956    36.487584    403.15631    27372.768   -4.4225092   -1.1069964     -2.70838    42.084166    36.494694    42.352064    36.707727    30.137432    30.137432    30.137432    18.028644    7.7706881    4.4390136     4.951044    30.137432    30.137432    30.137432 
   40000    297.99903   -8478.7209   0.94485413    1457.7599      -20.889    30702.341    -40658.54    32166.836    14.154802   -8490.7328    32.900849    38.541011    27601.507    -4.346226  -0.87385783    -1.904261    57.623285     52.31552    57.940844    52.569693    30.221146    30.221146    30.221146    19.717204    10.332949    4.7864388    4.2252372    30.221146    30.221146    30.221146 
   50000    292.28109   -8500.5326     0.951743     1466.862   -21.041301    30680.751     -40664.8    32151.916    16.737536   -8512.0859    32.594625    281.36749    27401.723   -4.1037094  -0.80735849  -0.70945328    72.832582    66.418565    73.299277    66.802312    30.148054    30.148054    30.148054    16.655237     6.232755    6.5794716    3.1858747    30.148054    30.148054    30.148054 
   60000    299.21991   -8587.5802   0.95159258    1485.6524   -21.037975    30579.441   -40665.956    32064.766    21.365672    -8596.611    30.068801    20.414769    27406.054    -3.741664   -1.2339565   0.84869478    89.791763    78.342797    90.410044    78.807374    30.149643    30.149643    30.149643    13.282295    5.5137412    4.3739405    3.0405234    30.149643    30.149643    30.149643 
   70000     307.5553   -8525.9819   0.93987461    1400.4065   -20.778912    30719.434   -40661.466    32121.445     19.17372   -8536.5386    31.335602   -713.64433    27747.742   -3.7041105   -1.8498403    1.2362102    102.34788    88.810036    103.04156    89.239717    30.274423    30.274423    30.274423    15.643702    9.2572561    2.6930793    3.2909805    30.274423    30.274423    30.274423 
   80000    293.78753   -8521.4149   0.95361881    1429.5998   -21.082771    30692.776   -40658.932    32126.139    17.320285   -8531.1519    30.819732   -252.36058    27347.822   -4.0345149   -1.9319887    1.2805664    115.84639    100.95267    116.55662    101.44675    30.128274    30.128274    30.128274     15.14108    5.6007029    6.4810986    2.4455756    30.128274    30.128274    30.128274 
   90000    305.33475   -8531.6299   0.95601116    1518.3589   -21.135662    30592.747   -40662.125    32114.972    17.269326   -8544.9492    34.454976    514.76951    27279.386   -4.2378304   -2.0170593   0.92023922    126.56931     113.1212    127.36987     113.6715    30.103122    30.103122    30.103122    19.389012    7.2155969    6.4323024    4.8157344    30.103122    30.103122    30.103122 
  100000     288.2208   -8550.2969   0.93613152    1470.8088   -20.696159     30629.71   -40664.806    32106.701    14.513734   -8557.9004     28.29968   -274.89566     27858.69   -4.2653923   -2.0241269   0.88373826     138.8696    125.51039    139.86521    126.31657     30.31472     30.31472     30.31472    13.990952    6.9448441    3.5802339    2.9845841     30.31472     30.31472     30.31472 
  110000    287.24778   -8561.9693   0.95840251    1501.0613    -21.18853    30584.087   -40664.935    32085.551    20.785503   -8576.3532    35.572509     185.3716     27211.32   -3.8740939   -2.4974973    1.2733664    152.28026    137.44675    153.28626    138.18745    30.078063    30.078063    30.078063    17.818052     8.974547    3.3085938      4.74577    30.078063    30.078063    30.078063 
  120000    296.83289   -8550.2138   0.95813793    1467.8873   -21.182681    30629.612   -40668.606    32101.649    17.033335   -8565.0273    35.996258   -82.489409    27218.835   -4.0139623   -2.9029943    1.4958381    167.85981    150.26785    168.93151    151.03873    30.080832    30.080832    30.080832    20.893427    8.8552803    4.3173879    7.0380655    30.080832    30.080832    30.080832 
  130000    296.16162   -8458.2033   0.95133203    1495.6764   -21.032215    30687.767   -40662.458    32183.913    20.562257   -8474.1545    36.983435    516.68212     27413.56   -4.9875515   -2.9767664    1.3613133    185.81454    164.63464    186.99853    165.43501    30.152395    30.152395    30.152395    20.811092    9.2625781    7.7531224    3.4427718    30.152395    30.152395    30.152395 
  140000    298.94174   -8484.7253   0.94860493    1445.2262   -20.971924    30715.261   -40662.765    32167.227    14.231783   -8495.3874    31.634028   -43.299347     27492.37   -6.0290843   -3.0424046     1.230792    200.93724    173.57734    202.38575    174.57927    30.181262    30.181262    30.181262    17.553056    10.476018    3.6252885    2.9006815    30.181262    30.181262    30.181262 
  150000    303.59653   -8570.1871   0.94319367    1463.2325   -20.852291    30609.901    -40664.84    32078.315    15.670618   -8585.1169    35.782135   -255.81718    27650.099   -6.8049758   -3.5508154     1.386276    225.32387    188.43575    226.93528    189.41666     30.23887     30.23887     30.23887    21.519338    7.9949785    8.7724176    3.8059158     30.23887     30.23887     30.23887 
  160000    304.10073   -8547.2827   0.95986002     1517.191   -21.220753        30588   -40666.438    32101.138    25.273708   -8558.4994    32.437449    419.52828    27170.001   -7.3957136   -4.1849144    1.8812787    248.81815    199.85015    250.52596    200.86027    30.062832    30.062832    30.062832    13.964059    3.8946602    3.1402758    6.0942406    30.062832    30.062832    30.062832 
  170000     287.2146   -8541.1663   0.94727083    1405.7856   -20.942429    30706.675   -40665.451    32110.244     23.15861   -8549.4957    29.271828   -618.87371    27531.089   -7.2314815   -4.3338963      2.32242    266.19355    214.91824    268.04898    216.01814    30.195424    30.195424    30.195424    11.824869    4.7890224    2.3346401    4.2933302    30.195424    30.195424    30.195424 
  180000    302.18131   -8556.5204    0.9528377    1512.7299   -21.065503    30575.561   -40665.611    32090.315     19.04061   -8571.1579    35.703041    22.343303    27370.241   -5.5306785   -3.5340658    2.9455631    267.47151    227.95799     269.2512    229.03708    30.136504    30.136504    30.136504    20.800516    7.0599005    4.5381216    8.2137949    30.136504    30.136504    30.136504 
  190000    292.07915   -8609.1903    0.9555341    1516.4151   -21.125115    30530.705   -40669.815    32050.707    17.537662    -8617.416     29.35077    166.02463    27293.006   -3.6819974   -3.1366298    3.9514954    280.61538    239.80909     282.5576    241.10637     30.10813     30.10813     30.10813    13.505204    5.1088031    3.3691045    4.5044228     30.10813     30.10813     30.10813 
  200000    299.56846   -8545.6801   0.96231446    1484.0944   -21.275016    30617.894   -40661.176    32103.329    19.934253   -8554.6147    30.209615    253.07868    27100.702   -2.6927592   -3.3635746    4.5793815     300.7018    253.01061    302.79942    254.33734    30.037251    30.037251    30.037251    13.507173    4.3966424      3.88246    4.5677159    30.037251    30.037251    30.037251 
  210000    307.72739   -8494.2513   0.94568774    1497.0336    -20.90743     30656.25   -40665.606     32157.51    16.681489   -8506.3777    33.033894    288.51127    27577.177   -2.5832739   -3.8461584    5.0061751    320.17661    264.94797    322.35926    266.26873    30.212264    30.212264    30.212264    18.070271    5.7471791    4.7464321    6.7050186    30.212264    30.212264    30.212264 
  220000    303.40592   -8569.7134   0.95326638    1509.3692    -21.07498     30564.48   -40664.429    32077.522    17.402318   -8584.7928    36.154398    237.54857    27357.933    -2.591667   -4.3734787    5.2522572    335.18089    273.77113    337.56553    275.19459    30.131986    30.131986    30.131986    20.866716    10.174316    4.2479076    5.4486603    30.131986    30.131986    30.131986 
  230000    291.33529   -8508.9602   0.95185861    1438.5988   -21.043857    30696.969   -40661.626    32134.884    21.728085   -8523.5289    35.612534   -168.20556    27398.395   -2.6013311   -4.9930174    4.8628083    346.60892    286.98462    349.03503    288.56042    30.146834    30.146834    30.146834    17.097316    5.4834015    4.3386562    5.9450277    30.146834    30.146834    30.146834 
  240000    299.67389   -8494.6188   0.94774486    1503.0911   -20.952909    30647.748   -40664.512    32149.516    22.276104    -8513.066    39.400117    290.68519    27517.319   -2.7103536   -5.1732528    4.5230709    356.31503    300.08523    358.80814    301.63647    30.190389    30.190389    30.190389    19.053896    4.6349503    6.6173604    6.4930778    30.190389    30.190389    30.190389 
  250000    299.20628   -8627.3587   0.95841455    1538.8733   -21.188796    30483.547   -40665.577     32024.12    19.488645   -8637.4814    31.311516    309.81312    27210.979   -2.5522722   -4.7171306    5.1609217    376.84388    314.68603     379.5081    316.40735    30.077938    30.077938    30.077938    15.798037    6.9742161    3.6332816    4.5522207    30.077938    30.077938    30.077938 
  260000    291.03689   -8578.0487   0.94883247    1544.3756   -20.976954    30521.073   -40659.435    32068.587    17.838696   -8588.0347    30.962944    380.50218    27485.777   -2.5611448   -4.2293628    6.2958386    404.43558    327.25886    407.33613    329.00423    30.178849    30.178849    30.178849    15.938141    6.7153729    3.5926398    4.7891884    30.178849    30.178849    30.178849 
  270000    300.00493   -8551.0129   0.94814287    1549.8975   -20.961708    30546.305   -40665.745    32098.515     18.64954   -8564.5897    34.538488    421.66035    27505.768   -2.6977963   -4.0054913     7.282046    434.55171    340.95897    437.70171    342.80217    30.186164    30.186164    30.186164    18.529846    6.2556051    5.5298386    5.5940582    30.186164    30.186164    30.186164 
  280000    299.59392   -8503.3175   0.94731963    1496.7135   -20.943508     30644.06   -40665.016    32140.111    21.606216   -8520.2099    37.835848    225.08515    27529.671   -2.7329034   -3.9390273    7.8195464    460.52935    356.53421    463.79618    358.19269    30.194905    30.194905    30.194905    20.925364    7.2509056    7.5711515    5.2005472    30.194905    30.194905    30.194905 
  290000    295.53786   -8564.5511   0.95694053    1552.3712   -21.156209    30526.306   -40662.146    32081.058    18.776124   -8578.4741    35.079249    613.11333    27252.893   -2.4800786    -4.037084     8.427114    484.22258    367.37609    487.67831    368.89968    30.093373    30.093373    30.093373    18.917103    9.0543065    5.4161721    4.0409949    30.093373    30.093373    30.093373 
  300000    292.32304   -8477.8343   0.95083565    1469.1132   -21.021241    30693.655   -40661.236    32167.555    16.234811   -8492.6972    35.884178    254.59274    27427.871   -2.3718723   -3.9606954    9.8322659    535.14527    387.30978     538.9226    388.69853    30.157641    30.157641    30.157641    20.633723    7.1024651     6.111725    6.1456653    30.157641    30.157641    30.157641 
  310000    296.42632   -8550.0744   0.95019951    1474.9116   -21.007177    30625.661   -40665.993    32103.129    18.451495   -8562.1191    33.051961     47.04181    27446.234   -2.6861738   -3.8612822    11.568284    592.66887    400.13312    596.98286    401.63747     30.16437     30.16437     30.16437    15.345554    8.1456575    4.8454534    2.1733591     30.16437     30.16437     30.16437 
  320000    292.81895   -8624.2581   0.98145213    1441.0457   -21.698115     30584.89   -40666.829     32028.66    18.974611   -8634.4193    31.859244   -280.63844    26572.256   -3.3696065   -3.7592908    12.589902    624.81268     402.2709    629.30101    403.51864    29.840732    29.840732    29.840732    16.635192    6.6695484    4.5495415    4.7194846    29.840732    29.840732    29.840732 
  330000    282.58774   -8557.0429    0.9315719    1462.9648   -20.595355    30625.857   -40661.329    32094.792    14.624294   -8565.9847    29.537234   -472.49437    27995.046   -4.2714475   -3.8519047    13.142806    671.69986    429.63513     676.5102    430.88838    30.364099    30.364099    30.364099    15.464634    7.7048223    2.6498633    4.5662098    30.364099    30.364099    30.364099 
  340000    294.84811   -8466.5708   0.95321748    1464.0308   -21.073899     30711.16   -40662.301    32177.907    18.358165   -8480.2699    34.773035   -138.06142    27359.337   -4.7586717   -4.1271794    12.587935    663.69038    434.72179    668.43522    436.11934    30.132502    30.132502    30.132502    20.538974    7.8065321    4.6789175    7.0044582    30.132502    30.132502    30.132502 
  350000    294.41432   -8592.6562   0.94554824    1425.3314   -20.904346    30630.542    -40665.24    32061.837    14.940181   -8604.7092     32.95731   -393.69637    27581.245   -4.5904265   -4.8779002     11.91014    659.53578     447.4294    664.29592    448.74658    30.213749    30.213749    30.213749    16.711034    6.2497751    6.3013787    3.8745017    30.213749    30.213749    30.213749 
  360000    297.41848   -8562.4875   0.94634547    1550.3329   -20.921971    30535.658   -40664.221    32087.456    19.456975   -8573.7919    32.226351    447.36252     27558.01   -3.9108145   -5.4702506    11.778487    667.86424    458.07278    672.68129    459.71523    30.205263    30.205263    30.205263    15.743197    6.0993368    5.3287282    3.7755435    30.205263    30.205263    30.205263 
  370000    294.95428   -8624.6785   0.95513216    1507.6648   -21.116229    30509.523    -40661.78    32016.831    21.473897   -8639.3602    35.797973   -95.825514    27304.491   -3.6058588   -5.6668388     12.13979    686.83287    466.10478    691.76567    467.63833    30.112353    30.112353    30.112353    19.912952    5.7405097    10.017379    3.7126268    30.112353    30.112353    30.112353 
  380000    292.06085   -8561.5329   0.95824431    1392.6552   -21.185033    30692.569   -40665.503    32077.283    29.126168   -8579.2454    38.897502   -664.26032    27215.813   -3.7064655   -5.7197461    12.787598    716.59674    476.35586     721.7159    477.88282    30.079719    30.079719    30.079719    18.746124    4.4436291    7.4781385    5.2703954    30.079719    30.079719    30.079719 
  390000    294.32806   -8546.0501   0.93647824    1439.4766   -20.703825     30660.98   -40667.222    32104.709    16.451298    -8560.298    34.951744   -554.49921    27848.376   -3.6738206   -5.4340852     13.66221    759.97297    495.33926    765.44362    497.00173    30.310979    30.310979    30.310979    20.715332    8.0318137    6.5829415    5.2541329    30.310979    30.310979    30.310979 
  400000    306.06631   -8533.8305    0.9617005    1549.5197   -21.261443    30565.017   -40664.287    32113.947    21.851335   -8545.2701    32.701129    719.74065    27118.004   -3.6256578   -4.5618665    14.034063    774.82788    503.20948    780.47984    504.78087    30.043642    30.043642    30.043642    15.919893    7.5174536    4.1823769    3.7270498    30.043642    30.043642    30.043642 
  410000    297.67423   -8496.4183   0.95256986     1468.292   -21.059581    30686.134   -40666.505      32153.9    21.585715   -8507.1962    31.837529   -92.547439    27377.937   -3.6798514   -4.2626019    14.394222    805.07869    523.05586    810.85489    524.59188    30.139329    30.139329    30.139329    15.661507    7.6620408     5.711283    1.8126481    30.139329    30.139329    30.139329 
  420000    301.27254    -8595.467    0.9485847    1539.4067   -20.971476    30513.579   -40665.938    32057.617    16.340821   -8606.9455    32.450002    367.47213    27492.957   -3.2380086   -4.4524264    14.588004    824.12481    536.34492    830.14936     537.8793    30.181476    30.181476    30.181476    17.484613    5.0228862    5.8800577    5.4282166    30.181476    30.181476    30.181476 
  430000    306.68291   -8511.2168   0.95818815    1507.2591   -21.183791    30631.206   -40665.427    32137.114    22.534433    -8522.417    32.383995    430.95717    27217.408   -3.2522624    -4.548355    15.022655    844.53454    540.93695    850.53481    542.25479    30.080306    30.080306    30.080306    15.745488    6.2923251     2.064783    6.2867243    30.080306    30.080306    30.080306 
  440000    291.46363   -8490.8971   0.95700717    1462.4089   -21.157682    30692.384   -40666.172    32153.577    22.373239   -8505.9717     36.23223   -112.73236    27250.995   -3.9709169   -4.7786978    15.746374    881.20748    548.97961    887.66196     550.5805    30.092675    30.092675    30.092675    20.482063    9.6024049    4.7407785     5.134151    30.092675    30.092675    30.092675 
  450000    290.55612   -8548.4003   0.95854023    1469.9825   -21.191575    30635.389   -40666.433    32107.692    18.870375   -8556.9267    29.717969   -13.780423    27207.411   -4.5638165   -4.8425482    16.066476    893.22941    546.88339    899.64458    548.03752    30.076623    30.076623    30.076623    12.661836    6.2400482    1.4105119    4.1537002    30.076623    30.076623    30.076623 
  460000    291.04518   -8596.5238   0.93605452    1458.2581   -20.694457     30591.86    -40665.27    32058.305    12.506972   -8608.6812    32.851861   -417.80459    27860.982   -4.8724219   -5.7597198    16.543168    939.69946    567.71386    946.51525    568.85326    30.315551    30.315551    30.315551    18.628126    7.6602358    6.5677948     3.446461    30.315551    30.315551    30.315551 
  470000     301.5938   -8527.0317   0.95956575     1525.085   -21.214247    30594.365   -40660.662    32122.593    18.071547   -8536.9188    31.101422     687.6408    27178.333   -4.6659578   -6.8760733    16.578624    951.91464    569.97124    958.83643    571.27627    30.065905    30.065905    30.065905    14.180688    7.8035345    4.2964236    1.7513772    30.065905    30.065905    30.065905 
  480000    295.34439   -8534.9286   0.94301034    1501.2616   -20.848238    30613.612   -40666.475    32112.931    22.790796   -8550.2948    36.214418    124.77819    27655.474   -3.7017226   -7.5586347    16.079487    956.72969    589.28624    963.66801    590.76538     30.24083     30.24083     30.24083    16.672634    3.5671269     6.224751    5.6473403     30.24083     30.24083     30.24083 
  490000    289.59913   -8480.6275   0.94636109    1435.4412   -20.922316    30733.289    -40663.65    32171.156    18.496252   -8489.6764    29.971231   -157.01521    27557.555   -2.7343534   -7.7539967    15.284097     938.0692    598.46165    944.79475    599.97818    30.205097    30.205097    30.205097    14.291914    7.6352933     1.661882    4.1910675    30.205097    30.205097    30.205097 
  500000    299.69528   -8548.5616   0.94716139    1454.1483    -20.94001    30638.766    -40659.36    32097.659    16.194952   -8558.5006    30.879009   -469.60868    27534.271   -2.4266097   -7.8405097     14.85733    936.28648    610.74305    942.98631    612.64476    30.196587    30.196587    30.196587    17.884381    11.498633     3.925046     2.088684    30.196587    30.196587    30.196587 
  510000    295.10338   -8557.4143   0.94645176    1464.6808   -20.924321    30627.554   -40666.221    32094.068    19.090614   -8569.1454    32.655341   -134.96356    27554.915   -2.3335395   -7.6983823    14.455615    938.30555    627.56668    945.04998    629.52052    30.204132    30.204132    30.204132    16.572286    9.2565465    4.9009527    1.9767417    30.204132    30.204132    30.204132 
  520000    294.13402   -8586.8335   0.96353304    1555.4678   -21.301957    30501.046   -40662.938    32058.707    19.109036   -8601.4539    35.922362    730.08007    27066.428   -2.1033782   -7.0321559    13.781036    915.47966    633.93243    922.11237    636.31455    30.024583    30.024583    30.024583    19.590773    5.7385353    6.8413493    6.1853005    30.024583    30.024583    30.024583 
  530000    299.71151   -8472.1661   0.94438957     1509.638    -20.87873    30662.447   -40659.287    32177.845    15.118656   -8481.4298    30.142411    517.74552    27615.085   -2.0583827   -6.3937159    13.082261    904.98222    651.83108    911.47777    654.55143    30.226101    30.226101    30.226101    15.036275    6.4148667    4.3504834    3.6375454    30.226101    30.226101    30.226101 
  540000    305.16522   -8563.4232   0.94290563    1418.9854   -20.845923    30657.418   -40660.566    32077.913      19.3366   -8579.9662    37.388998   -580.04263    27658.545   -2.2750508   -5.8824136    12.234127    891.63208    668.01642    898.02536    670.87613    30.241949    30.241949    30.241949     20.73911    11.525946    5.3329974    3.3773697    30.241949    30.241949    30.241949 
  550000    297.35374   -8573.9236   0.96019865    1495.1509    -21.22824     30585.28   -40668.721    32078.195    23.464105   -8584.3604    31.665018    111.51029    27160.419   -2.4861035   -5.6530356    12.137263    890.12414    671.44592    896.50882    674.40003    30.059297    30.059297    30.059297    14.366262    6.4929651    3.8630209     3.459287    30.059297    30.059297    30.059297 
  560000    296.86965   -8543.2176   0.95906783    1476.3847   -21.203239     30630.57   -40668.677    32097.607    30.551149   -8562.0583    40.043962   -23.125344    27192.443    -2.059618   -6.3995815    12.344564    922.64407    691.77446    929.24764    694.98389    30.071107    30.071107    30.071107    18.504502    5.3260692    5.4339321    6.7513945    30.071107    30.071107    30.071107 
  570000    300.81177   -8612.6062   0.97144507     1570.188   -21.476878     30466.24   -40665.531     32035.94    21.965009   -8627.1274    35.998172    1073.4857    26845.983   -1.4028013    -7.672628     12.41157    944.60543    697.79421    951.42338    700.96632    29.942848    29.942848    29.942848    16.496625    5.5364735    4.4153287    5.2251949    29.942848    29.942848    29.942848 
  580000    289.86957   -8547.8011    0.9619275    1488.8141   -21.266461    30611.118   -40665.822    32096.812    24.386082   -8562.5832    36.048553    22.163108    27111.604   -1.0860123   -9.2065636    11.772658    964.25211    713.94805    971.20238    717.23476    30.041278    30.041278    30.041278    18.089347    8.1196153    3.9839289    5.5164494    30.041278    30.041278    30.041278 
  590000     300.3704   -8576.4192   0.95423881     1409.701   -21.096479    30661.647   -40663.737    32071.362    21.082143   -8588.1413    32.818574    -467.0072    27330.054   -1.0940367   -10.154488    10.547926    963.85239    731.57481     970.8046    735.03468    30.121747    30.121747    30.121747      15.9702    8.8620337     3.213147     3.199242    30.121747    30.121747    30.121747 
  600000    300.67178   -8587.9574   0.95941503    1470.0361   -21.210915    30592.965   -40666.311    32060.358    23.854223   -8599.9559     33.20941   -70.155687    27182.603   -1.6263385   -10.616988    9.9295777    970.93098     746.7431    977.89378    750.30269    30.067479    30.067479    30.067479    15.352976    6.9262544    5.4867863    2.6933492    30.067479    30.067479    30.067479 
  610000    297.30344   -8556.8398   0.94218256    1443.0412   -20.829937    30647.492   -40664.003    32090.516    20.847827    -8569.016    33.006102   -606.94436    27679.771   -2.4559486   -10.680712    10.147827     1006.818    775.99503    1014.1135    779.77229    30.249683    30.249683    30.249683    16.629269    6.9593687    6.3664638    2.8534049    30.249683    30.249683    30.249683 
  620000    303.24339   -8535.3522   0.95337012    1470.2506   -21.077273    30643.489   -40665.448    32112.355    22.462776   -8546.8272    32.552312   -235.34625    27354.956   -2.5335818   -10.568461    10.582505    1025.0287     785.6266    1032.4098    789.41998    30.130893    30.130893    30.130893    16.355848    9.4143613    4.0295661    2.6111062    30.130893    30.130893    30.130893 
  630000    304.90487   -8529.4297   0.94368639    1429.1029   -20.863184    30693.903   -40664.971    32121.974    21.895873   -8539.9153    31.348799   -386.87578    27635.662   -2.2454953   -10.450233    11.032102    1053.8745    804.50101    1061.4814    808.51688    30.233606    30.233606    30.233606    12.534845    7.7723957    2.6349875    1.8412476    30.233606    30.233606    30.233606 
  640000    294.54363   -8515.5845   0.94606073    1424.9965   -20.915676    30710.909   -40665.157    32136.002    20.818921   -8525.7498    31.081009   -458.90963    27566.304   -2.4430324   -10.350238     10.98803    1062.0806    815.40835    1069.6984    819.25537    30.208293    30.208293    30.208293    13.666949    4.6655361     6.733007    2.0584395    30.208293    30.208293    30.208293 
  650000    300.91934   -8537.0912   0.94367219    1484.9583    -20.86287    30627.603   -40665.349    32110.838    22.586324   -8548.5943     32.36596    -195.2274    27636.078    -3.187648   -10.374125    10.492536    1053.8563    819.12856    1061.4969    823.31628    30.233758    30.233758    30.233758    15.696679    7.2141377    3.5532719    4.1278186    30.233758    30.233758    30.233758 
  660000    294.72503    -8599.862   0.95972838    1430.8123   -21.217843    30622.085   -40669.366     32052.95     21.16522   -8611.8471    33.202897   -615.10659    27173.728    -4.041396   -10.513027    9.5545796    1041.0799    823.95864    1048.6411    828.07832    30.064206    30.064206    30.064206    16.607203    9.6878194     3.377243    3.0929714    30.064206    30.064206    30.064206 
  670000     287.3566   -8521.2224   0.95950994    1515.2344   -21.213014    30604.559   -40659.032    32116.316    24.690661   -8535.9598    35.950364    307.25137    27179.914   -4.4884994   -11.197454    8.8602296    1049.6608     833.8415    1057.2077     837.8823    30.066487    30.066487    30.066487    18.016361      5.16855    6.8623346    4.9012558    30.066487    30.066487    30.066487 
  680000    290.60301   -8505.0736   0.96351474    1492.3086   -21.301552    30654.244   -40665.168    32147.736    20.118316   -8513.1242    29.352136    204.70951    27066.942   -4.3378505   -12.025924    8.9987603    1071.8633    837.78059    1079.5515    842.00695    30.024773    30.024773    30.024773    13.541595    5.5257191    5.1515009    2.6619649    30.024773    30.024773    30.024773 
  690000    297.24511   -8482.3625   0.94704302    1412.2768   -20.937393    30750.885   -40661.395    32158.079    26.019611   -8495.7465    34.321429   -534.08777    27537.712   -4.4654646   -12.349463    9.3205913    1105.9243     857.9773    1113.9153    862.39211    30.197845    30.197845    30.197845    15.871319    6.8497257    4.0491823    4.3308153    30.197845    30.197845    30.197845 
  700000    299.94471   -8491.2428   0.94784858    1424.9157   -20.955202    30729.659   -40662.328    32158.318    17.211823   -8502.6059    32.318307   -255.15228    27514.308   -4.8152865   -11.836802     8.940727    1100.4586    869.51176    1108.3955    873.96552    30.189288    30.189288    30.189288    16.510631    7.2682864    2.8841259    5.2404865    30.189288    30.189288    30.189288 
  710000    301.94539   -8613.7454   0.96087441    1517.5334    -21.24318    30520.261   -40664.418    32037.857    21.181164    -8621.834    29.331873    170.11671    27141.318   -4.5002912   -11.504994    8.1842918    1085.6078    878.72787    1093.4736    883.33459    30.052249    30.052249    30.052249    12.878586    5.1724195    4.7916333     2.503697    30.052249    30.052249    30.052249 
  720000    294.45415   -8496.7118   0.93871995    1421.5088   -20.753385    30730.669   -40664.382      32153.3    19.630792   -8509.0765    33.118109   -327.41327    27781.872   -4.7989125   -11.305155     8.426023    1108.9986    899.41809    1117.0501    904.21027    30.286831    30.286831    30.286831    15.493082    7.7163926    3.5535679     3.593738    30.286831    30.286831    30.286831 
  730000    298.30913   -8473.5971   0.94753615    1501.2081   -20.948295    30671.469   -40663.115    32171.059    22.566308    -8485.731    33.082241    294.15602     27523.38    -5.071612   -11.005281    9.0352785    1128.4791    909.50796    1136.7053    914.42519    30.192605    30.192605    30.192605    16.841007    11.252385    4.2025222    1.1386022    30.192605    30.192605    30.192605 
  740000    297.69947   -8610.6484   0.95748855    1363.4797   -21.168324    30672.499   -40664.962    32029.895     27.25257   -8626.3285    36.848437   -1112.1663    27237.295   -5.0574325   -10.839601    9.4968974    1140.9961    914.79862    1149.1967    919.62375    30.087631    30.087631    30.087631    18.334903    8.0588976    4.2878651      5.41023    30.087631    30.087631    30.087631 
  750000    306.44104   -8546.4327   0.95702202    1547.0395    -21.15801    30553.413   -40661.978    32095.356     26.25479   -8560.9124    35.637714    865.93924    27250.572   -5.6917575   -10.437866    9.6890481    1150.8139     922.9018    1159.1894    927.74313    30.092519    30.092519    30.092519    15.092561    8.0325498    5.2501279     1.517733    30.092519    30.092519    30.092519 
  760000    298.84873   -8630.5514    0.9458918    1511.4025   -20.911941    30511.162   -40664.304    32025.757    17.720052   -8638.0096    28.370231    -50.85052    27571.227    -6.437238   -9.8762779    10.136589    1177.2658    942.23635    1185.7244    947.04659    30.210091    30.210091    30.210091    11.188003     5.049886    1.9662109    3.9652471    30.210091    30.210091    30.210091 
  770000    291.68746    -8535.032   0.95444198    1505.0697    -21.10097    30611.137   -40662.716    32115.638    21.669587   -8542.6601    28.729132    154.00107    27324.236   -6.7336965   -9.0994079     10.91891    1190.9979    945.91791    1199.6233    950.96628     30.11961     30.11961     30.11961    11.477727    5.5372512    3.3279945     2.055083     30.11961     30.11961     30.11961 
  780000    311.37052   -8551.8401   0.92917466    1402.1547   -20.542356    30692.099   -40663.707     32096.21    18.586947   -8564.7646    33.466885   -931.73781    28067.272   -6.5880785   -8.1990775    11.525389    1225.7726    977.75518    1234.6696    983.04417    30.390189    30.390189    30.390189    17.613273     9.543133    2.9121746    4.4987793    30.390189    30.390189    30.390189 
  790000     301.6598   -8514.4297   0.95970768     1387.309   -21.217385    30751.038   -40668.061    32136.747     22.81726   -8525.6251    32.412799   -716.43999    27174.314   -5.9333026   -7.2257608    11.240843    1193.4859    970.49534    1202.1261    975.71775    30.064422    30.064422    30.064422    15.284729    8.5885826      4.98515    1.4387418    30.064422    30.064422    30.064422 
  800000    292.36744   -8568.0998   0.94757253     1504.188   -20.949099    30576.524   -40665.632    32085.633    16.028007   -8580.2849     33.13416    117.36121    27522.323   -5.3083724   -7.0578223    11.435678    1209.8176    987.65142    1218.6301    992.97371    30.192219    30.192219    30.192219    16.819627    5.7670877    4.7647455    5.2374429    30.192219    30.192219    30.192219 
  810000    302.28758   -8521.4666   0.94091898     1470.804   -20.802001    30658.278    -40664.24    32128.047    21.837417   -8529.7964    29.131731   -298.92153    27716.943   -5.0815817   -6.6665154    11.924616    1237.5794    1007.1313    1246.5807    1012.3054    30.263218    30.263218    30.263218    13.690911     7.072289    3.7683715    2.5957084    30.263218    30.263218    30.263218 
  820000    289.67857   -8538.1453   0.96000669    1489.7749   -21.223996     30617.56   -40660.587    32109.882    18.677384   -8547.6423    30.721022    136.36693     27165.85    -5.945825    -6.224284    12.432186    1252.3825    1005.6228    1261.3887    1010.9116    30.061301    30.061301    30.061301    15.106727    9.8659813    3.6080999    1.3502727    30.061301    30.061301    30.061301 
  830000    297.55953   -8516.7524   0.96390182    1471.8272    -21.31011     30661.09   -40665.095    32129.276    24.950585   -8528.7238    33.281514    176.06178    27056.073    -7.504977   -5.5731512    12.821981    1276.6995    1010.0598    1285.9489    1015.3586    30.020753    30.020753    30.020753    15.425788    8.6120388    4.5665137    2.0788444    30.020753    30.020753    30.020753 
  840000    297.54005   -8584.7733   0.95583449    1442.4302   -21.131756     30623.09   -40663.168    32069.096    17.555752    -8592.161    28.519471   -272.16406    27284.428   -9.1792353   -4.9748152     13.10233    1318.8641    1026.9664    1328.3986    1031.8612    30.104976    30.104976    30.104976    12.874289    6.6744281    2.6302008    2.8618212    30.104976    30.104976    30.104976 
  850000    297.99604   -8541.6267   0.94951064    1437.8506   -20.991947    30671.486   -40663.288     32109.15    21.178527   -8550.5214    29.886619   -270.01343    27466.146   -10.607303   -4.2149443    13.517324    1373.6984    1051.8215    1383.6375    1056.8103    30.171662    30.171662    30.171662    12.324228    5.3801922    3.5810836    2.7622589    30.171662    30.171662    30.171662 
  860000    294.32822   -8503.8345    0.9575313    1340.5451    -21.16927    30801.304   -40663.369    32142.354    20.663928   -8516.0457    33.380497   -892.74788    27236.079   -11.406287   -3.5294746    14.136406    1410.9017    1058.5737    1421.0924    1063.4595    30.087183    30.087183    30.087183    17.685711    8.2442878     4.579969    4.2652707    30.087183    30.087183    30.087183 
  870000    303.52024   -8463.3282   0.95195763    1494.6774   -21.046046    30693.415   -40666.393    32188.372    20.766294   -8474.7411    32.459015    542.54892    27395.545   -11.537866   -2.6529706    14.535314    1437.2139    1070.9526    1447.6087    1075.9194    30.145788    30.145788    30.145788    14.972273     7.354754    3.9521357    3.2017698    30.145788    30.145788    30.145788 
  880000    298.40667   -8556.7626   0.96727628      1455.84   -21.384713    30635.573   -40665.075    32084.618    28.179631   -8571.5372    36.159337   -174.14822    26961.684   -11.272819   -2.1990894    14.455011    1432.5873    1074.6091    1442.9666    1079.7712    29.985802    29.985802    29.985802    16.899708    7.1588094     3.766169    5.2937824    29.985802    29.985802    29.985802 
  890000    297.05588   -8496.0278   0.95183261    1502.5646   -21.043282    30649.857   -40666.388    32153.277    20.187236    -8509.393    34.408496    525.75936    27399.143   -10.999499   -2.6737483    14.003246    1438.5351    1099.7354    1449.0532    1104.9391    30.147108    30.147108    30.147108    17.938896    12.387877    1.6169491    3.2791905    30.147108    30.147108    30.147108 
  900000    297.29002   -8532.7721   0.96326806    1506.9275   -21.296099    30607.674   -40666.014    32108.777    27.120958   -8549.7708    38.294808    390.52412    27073.874   -10.670299   -3.0846563    13.459165    1413.4443    1096.1884    1423.7456    1101.6595    30.027336    30.027336    30.027336     18.64003    6.3016831    3.8248644    7.5070832    30.027336    30.027336    30.027336 
  910000    290.69888    -8524.754   0.95780809    1493.6819   -21.175389    30627.765   -40662.355    32123.113    19.509581   -8535.5311     31.95246     325.9439    27228.208   -10.037472   -3.0547361    13.089559     1408.985    1113.8433    1419.2787    1119.5138    30.084284    30.084284    30.084284    16.153351    7.9552801    3.9505486    3.5903039    30.084284    30.084284    30.084284 
  920000    295.39306   -8519.4308   0.93390206    1382.9219    -20.64687    30742.647   -40661.781    32130.463    15.752125   -8529.7892    31.005303   -912.35357    27925.196   -9.3667853   -3.2344322    12.826056    1412.8403    1135.9394    1423.1194    1142.0711    30.338824    30.338824    30.338824     16.78144     6.727373    3.1861875     5.624705    30.338824    30.338824    30.338824 
  930000    292.24718   -8406.7146   0.93589874    1419.3284   -20.691013    30816.942   -40660.396    32239.039    17.922361    -8417.935    31.911388   -297.47189    27865.619   -8.2866822   -3.3674503     12.18833    1393.7393    1149.3179    1403.9192    1155.7887    30.317233    30.317233    30.317233     17.41045    8.7847166    3.7981789    4.2974092    30.317233    30.317233    30.317233 
  940000     294.9293   -8550.7858   0.97303827    1460.5365     -21.5121    30639.198   -40663.451    32094.668     26.57864   -8561.2938    32.020052    64.064613    26802.027   -7.6584796   -3.6278485    10.745888     1325.314    1126.7698     1334.887    1133.3374    29.926497    29.926497    29.926497    12.930603    3.9313137    2.9588995    5.1526737    29.926497    29.926497    29.926497 
  950000    298.53957     -8536.94   0.95890978    1488.5501   -21.199745    30620.644   -40665.128    32109.337    21.056913   -8551.3979    35.657644    94.976431    27196.925   -7.6521449   -4.2303995    9.4873055     1319.526    1148.6356    1329.0053    1155.3106    30.072759    30.072759    30.072759    18.994048    6.9475852    3.6567053    7.1946887    30.072759    30.072759    30.072759 
  960000    295.51322   -8531.9967    0.9579157    1462.8315   -21.177768    30658.321   -40665.514    32118.488    23.841452   -8540.1773    29.358369   -131.52158    27225.149   -7.7486561   -4.6990596     9.130408    1327.8188     1161.685    1337.4135    1168.6327    30.083158    30.083158    30.083158    12.365579    6.3347774    3.5706467    2.1652741    30.083158    30.083158    30.083158 
  970000    301.74086   -8557.8391   0.95056394    1482.7621   -21.015234    30607.129   -40665.011      32091.5    19.405638   -8570.6942    33.870248   -5.8260046    27435.711   -7.1306035   -5.0212955    9.4843342    1341.2188     1171.337    1350.9292    1178.4888    30.160514    30.160514    30.160514    17.280932    6.5139272    4.6383447    4.9488794    30.160514    30.160514    30.160514 
  980000    295.44917   -8480.5889   0.94388583    1486.8219   -20.867593    30678.519   -40664.428     32171.48    14.728326   -8491.4916    31.770338    213.17134    27629.822   -6.3625534   -5.6608569    9.6026413    1362.4176    1192.0753    1372.3016    1199.3558    30.231477    30.231477    30.231477    18.498311    8.0514551    3.6457149    5.7352133    30.231477    30.231477    30.231477 
  990000    299.11161   -8553.8532   0.96555015    1489.7338   -21.346552    30598.536   -40661.922    32089.612    20.004421    -8569.821    37.314311    346.33326    27009.884   -5.6676245   -5.1099492    9.2634032    1338.3087    1184.8249    1348.0896     1192.416     30.00366     30.00366     30.00366    19.799202    7.1660987    7.7169029    4.4046645     30.00366     30.00366     30.00366 
 1000000    296.92779   -8561.5653    0.9432077    1537.1417   -20.852601    30545.064   -40663.634    32083.179    19.879358   -8575.7661    35.053403       12.004    27649.687   -4.6837723   -4.1604145    8.1456936    1329.3171    1211.9126    1338.9568    1219.7262     30.23872     30.23872     30.23872     19.86338     12.44931     2.744138    3.7673344     30.23872     30.23872     30.23872 
 1010000     298.5757   -8598.6785   0.95153006    1469.2566   -21.036593    30582.448   -40666.179    32056.971    15.770655   -8608.3051    30.663214   -91.030464    27407.855   -3.6234636   -3.2077121      6.62803    1283.9931    1203.3638    1293.3356    1211.4299    30.150303    30.150303    30.150303    15.796006    4.1345452    2.6379683    7.2966373    30.150303    30.150303    30.150303 
 1020000    291.08687   -8508.0364    0.9470632    1397.6958   -20.937839    30737.776   -40664.016    32137.208    19.201461   -8523.8738    36.775199   -547.79641    27537.125   -2.8672041    -2.582401    4.9829776    1276.9587    1225.3061    1286.1486    1233.6778     30.19763     30.19763     30.19763    20.507562    6.7832754    3.4294952    9.1076417     30.19763     30.19763     30.19763 
 1030000    295.47826   -8534.4523    0.9519685    1523.4226   -21.046286    30596.927   -40666.683    32121.285    20.110588   -8540.9393    27.533345    414.08801    27395.232   -2.8397971   -1.9155221      3.62869    1268.1923    1234.9377    1277.3626    1243.4682    30.145674    30.145674    30.145674    11.880616    6.1292303    1.8664383    3.3576446    30.145674    30.145674    30.145674 
 1040000    304.87813   -8477.5776   0.94302253    1398.1821   -20.848507    30772.127   -40663.283    32175.168    15.988911   -8487.1922    30.463126   -522.50388    27655.116   -3.4156363   -1.4934655    3.0167651    1278.4365    1250.5726    1287.7522    1259.4562    30.240699    30.240699    30.240699    15.396238    7.9649106    3.3465692    3.6937894    30.240699    30.240699    30.240699 
 1050000    306.52973    -8563.243   0.97413626    1449.2624   -21.536375    30635.335   -40666.652    32083.827    22.306195   -8577.7355      36.0289  -0.56147893    26771.817   -3.7019804  -0.75095993    2.2675793    1267.7047    1245.1191    1276.9189    1253.9595    29.915249    29.915249    29.915249    18.812414    6.6732177    2.9473484    7.7281032    29.915249    29.915249    29.915249 
 1060000    295.72114   -8470.8697   0.93833781    1375.8659   -20.744936    30797.744   -40666.544    32178.707    15.647926   -8488.4934    38.368576    -618.7287    27793.187   -4.5915013    0.2986515    1.3785988    1312.6794    1290.5007    1322.2541    1299.6965    30.290942    30.290942    30.290942    22.064075    9.0332472    4.9866321    6.8929797    30.290942    30.290942    30.290942 
 1070000    305.43081   -8484.0187   0.93484446    1486.0399   -20.667705    30672.989   -40662.652    32163.374    16.322237   -8497.2901    33.939102   -18.413758    27897.045   -5.3762488    1.3275876   0.50636033     1331.765    1305.1411    1341.3709    1314.3885    30.328626    30.328626    30.328626    19.604347    6.2287115    5.8332441    6.6414906    30.328626    30.328626    30.328626 
 1080000    300.68587   -8469.1643   0.94765338    1497.9042   -20.950887    30673.359   -40662.117    32178.923    13.291595   -8486.0017    37.788251    471.15152    27519.976   -5.7758888    1.6181732   -0.4927309    1335.4542     1308.978    1345.1087    1318.2257     30.19136     30.19136     30.19136    21.689521    10.083731    6.3773133    4.3419992     30.19136     30.19136     30.19136 
 1090000    299.03764   -8519.4756    0.9511987    1492.9409   -21.029267    30636.553   -40662.306    32131.815    18.707634   -8527.5162    29.069872    322.75459    27417.403   -5.6147862    2.1599428   -1.3167826    1352.2003    1324.5383    1362.0391    1333.9495    30.153804    30.153804    30.153804    13.337131    5.4277078    5.6147066    1.9417549    30.153804    30.153804    30.153804 
 1100000    300.69297   -8556.0589   0.94007486    1458.8095   -20.783339    30630.309   -40662.439    32086.821    23.081239   -8571.3921    36.116531   -358.69146    27741.831   -5.1673401    3.0830298   -2.0892558    1372.8988     1340.589    1382.8372    1349.9956    30.272274    30.272274    30.272274    17.261974    8.1200645    3.4951408    4.8188725    30.272274    30.272274    30.272274 
 1110000    296.61496   -8530.2404   0.93758374    1461.0682   -20.728265    30653.359   -40663.751    32120.016    15.139517   -8544.1708    34.658749   -97.399068     27815.54   -4.7666223    4.0737666   -2.2983304    1397.4042    1356.8647    1407.5378    1366.4773    30.299061    30.299061    30.299061    19.083296    7.4197557    4.0013059    6.2802857    30.299061    30.299061    30.299061 
 1120000     297.0751   -8653.5261   0.97139504    1511.2569   -21.475771    30484.395   -40664.725    31990.413    26.714237   -8666.6955    34.645173    53.193088    26847.366   -4.9836587    3.9996701    -2.043179    1383.0554    1342.2086    1393.0967     1351.706    29.943362    29.943362    29.943362    15.546994    7.4297342     3.662683    3.7137908    29.943362    29.943362    29.943362 
 1130000    296.31142   -8507.3422   0.95953523    1415.0241   -21.213573    30722.342   -40663.416    32140.773    17.807461   -8521.2253    35.096633   -326.18443    27179.198   -6.0096745    3.1418296   -2.0128235    1408.1065    1369.7244    1418.3701    1379.4519    30.066223    30.066223    30.066223    18.707003     9.076339    5.0357713    3.9579468    30.066223    30.066223    30.066223 
 1140000     296.2997   -8547.8854   0.96152215    1454.4288     -21.2575    30648.006   -40667.474    32104.182    19.510233    -8560.318    33.690123    9.1325872    27123.034    -6.448431    2.2058097   -1.9440098    1411.1772    1377.5306    1421.4741    1387.3928    30.045499    30.045499    30.045499     17.15345     10.77664    3.0119978    2.8592281    30.045499    30.045499    30.045499 
 1150000    300.90961   -8461.6341   0.93915708    1467.1757   -20.763049    30715.331    -40663.02    32186.821    16.448639   -8474.6498    33.778744   -69.423239    27768.941   -6.3834169     1.692121    -2.077069    1442.0176    1412.5929    1452.4453    1422.6175    30.282131    30.282131    30.282131    18.878505    7.1040014    8.8017525    2.5070584    30.282131    30.282131    30.282131 
 1160000      307.672   -8524.8794   0.95995195    1419.1838   -21.222786    30704.948   -40667.462     32119.07    26.284996   -8543.1071    39.450554   -117.99796    27167.399   -5.3817101    1.6773986   -2.1703626    1428.7894    1406.7399    1439.0661      1416.63    30.061872    30.061872    30.061872    18.450274    7.8070439    5.4087155    4.6654903    30.061872    30.061872    30.061872 
 1170000    302.02743   -8542.3974   0.94384101     1431.346   -20.866602    30675.628    -40664.12    32109.021    18.818925    -8552.628    31.097161   -394.22254    27631.134   -4.5031245    2.1608885   -1.8861251    1455.9144    1435.0735    1466.4724    1445.3416    30.231955    30.231955    30.231955    14.749015    6.7264029    5.2759382    2.3205333    30.231955    30.231955    30.231955 
 1180000     292.2154   -8539.6926   0.94640326    1463.9944   -20.923249    30645.012   -40663.783    32107.756    22.173853   -8551.8475    33.078152   -218.34156    27556.327   -4.2506186    2.6692657   -1.1172879    1465.3379    1440.4795    1476.0004    1450.8047    30.204648    30.204648    30.204648    15.083993    5.2439978    6.7770218    2.6236101    30.204648    30.204648    30.204648 
 1190000    290.64044     -8519.57   0.94382539    1499.1267   -20.866257    30626.565   -40664.747    32127.585    18.973326   -8534.4362     35.73246    120.67554    27631.592   -4.3472173    2.7639996  -0.60953284    1485.0643    1457.6951    1495.8281    1467.9856    30.232122    30.232122    30.232122    19.484657    9.2535557    4.3639185    5.2105988    30.232122    30.232122    30.232122 
 1200000    295.43169   -8514.9458   0.95249506    1466.3369   -21.057927    30663.924   -40663.947    32130.355    20.963631   -8528.8833    34.995409   -25.592943    27380.087   -4.9617627    3.1160476  -0.35719678    1493.7565    1459.2821    1504.6137    1469.6982    30.140118    30.140118    30.140118    18.740539     11.39082    3.4475554    3.1920254    30.140118    30.140118    30.140118 
 1210000    295.78979   -8564.6351   0.94665589    1472.0284   -20.928834    30605.671   -40661.921    32082.741    15.887536   -8579.1001    35.393845   -182.96034    27548.973   -5.4182029    3.7235883  -0.84095447    1518.5514    1476.4225    1529.5634    1486.8762    30.201961    30.201961    30.201961    19.586665    10.144257    6.0584269    2.6460622    30.201961    30.201961    30.201961 
 1220000     308.3753   -8591.7214   0.93407227     1534.068   -20.650633    30522.112   -40663.105    32064.529    12.301194   -8600.0821    29.011353    199.91452    27920.107    -5.480782    4.1726642   -1.7598958    1544.4384    1498.3994      1555.68    1508.9886    30.336981    30.336981    30.336981       15.204    6.1220361    5.8548844    2.6374763    30.336981    30.336981    30.336981 
 1230000    300.09644    -8470.533   0.94103834    1403.0382    -20.80464    30770.228   -40663.348    32174.798    19.272701   -8485.6658    35.937359   -378.88292    27713.428   -4.9382235    4.6054846   -2.3222007    1557.8782    1509.7811     1569.223    1520.5255    30.261939    30.261939    30.261939    19.548884    8.5853599    6.4608932    4.0448191    30.261939    30.261939    30.261939 
 1240000    298.31795   -8525.1534   0.94578876    1468.0379   -20.909663    30657.334   -40664.865    32130.788    15.493138    -8533.617    29.373338   -22.861071    27574.231    -4.668481    4.7571349   -2.1037387    1559.0259    1510.5384    1570.3556    1521.1623    30.211188    30.211188    30.211188    14.339717    5.6236901    4.2748803    3.6796703    30.211188    30.211188    30.211188 
 1250000    296.14432   -8651.6322   0.95447313    1505.0509   -21.101659    30486.294   -40665.302    31991.026    21.420568   -8669.6951    39.164616   -277.52725    27323.344   -4.9605962    4.6992531    -1.659391    1562.5105     1512.922    1573.9272    1523.6251    30.119282    30.119282    30.119282    22.324925    13.063917    4.4391268    3.8912098    30.119282    30.119282    30.119282 
 1260000    296.62478    -8462.206     0.937309    1421.5171   -20.722191    30766.031   -40664.235    32192.714    15.556682   -8471.5125    30.028687   -195.34668    27823.693   -5.4794287    4.7644017   -1.5290696    1594.3645     1540.536    1605.9943    1551.4776    30.302021    30.302021    30.302021    14.479922    8.4995432    2.7530354    2.7376829    30.302021    30.302021    30.302021 
 1270000    304.81644   -8654.3924   0.95603509    1458.3807   -21.136191    30535.416   -40664.415    31999.338    15.594744   -8662.8463     29.59012   -628.59357    27278.704   -5.7814311    4.2832773   -1.6652483    1581.6923    1532.4331    1593.1505    1543.2745     30.10287     30.10287     30.10287    16.225661    8.7369314    3.6249817    3.3304138     30.10287     30.10287     30.10287 
 1280000    289.83499     -8550.86    0.9579539    1442.7946   -21.178612     30651.42   -40662.015    32096.343    19.050607   -8562.9124    33.231033   -151.56586    27224.063   -5.8318148    3.7687859   -2.0613659    1577.2124    1533.5747    1588.6897    1544.3122    30.082758    30.082758    30.082758    16.940112    8.5726293    5.1635495    2.7589805    30.082758    30.082758    30.082758 
 1290000     310.6535   -8607.7747   0.95633852    1505.9612   -21.142899    30535.009   -40660.545    32044.939    17.174313   -8614.5793     27.94745    101.67029    27270.048   -5.7704211    3.9649855   -2.5072481    1598.2662    1552.8376    1609.8097    1563.6927    30.099686    30.099686    30.099686    11.799607    5.7358116    3.4618964    2.2389564    30.099686    30.099686    30.099686 
 1300000    300.20667   -8522.3181     0.943122    1441.3056   -20.850706     30678.43   -40663.292    32115.981     24.60519   -8540.1018    38.634464   -521.37293    27652.199   -5.6643235    4.4407922   -2.7750343    1628.2809    1577.2841    1640.0814    1588.2455    30.239636    30.239636    30.239636    21.238025    7.1523524    4.5952648    8.1484199    30.239636    30.239636    30.239636 
 1310000    290.57237   -8511.0072   0.94710342    1457.7495   -20.938728    30677.077   -40662.134    32134.266     21.49853   -8523.2473    33.178757   -223.91987    27535.956   -5.5262306    4.8354506   -2.9575475    1642.0045    1586.3681     1653.929    1597.5389    30.197203    30.197203    30.197203    16.300909    8.7672048    5.2493202    1.8834233    30.197203    30.197203    30.197203 
 1320000    289.21962   -8533.7897   0.93697801    1454.0944   -20.714874    30652.261   -40662.892     32109.84    17.230114   -8550.6548    37.579938   -524.02011    27833.522   -5.2017202    4.5377782   -2.7068007    1664.8168    1615.5448    1676.8998    1626.8482    30.305588    30.305588    30.305588      22.7463    11.071878    5.2202148    5.3671204    30.305588    30.305588    30.305588 
 1330000    307.56673   -8535.5594   0.95340746    1519.2783   -21.078099    30588.279   -40661.075    32109.056     19.58012   -8548.3555    33.874262    338.61838    27353.885   -5.5099333    4.4160371   -1.9667563     1658.099    1608.9831    1670.1554    1620.3159      30.1305      30.1305      30.1305    17.957587    8.6175478    5.7160361    2.9628428      30.1305      30.1305      30.1305 
 1340000     308.8453   -8560.8008   0.95254148    1473.5768   -21.058954    30609.774   -40663.433    32084.125    20.285133   -8576.6012    36.859346    135.95605    27378.753   -6.2789642    4.6487892   -1.7573077    1681.9646    1624.0413     1694.263    1635.4629    30.139628    30.139628    30.139628    19.281548    8.6245812    5.1699076    4.6347296    30.139628    30.139628    30.139628 
 1350000    302.12868   -8503.4309   0.95114662    1428.3318   -21.028116     30718.96   -40666.818    32147.015    21.304339   -8514.7879    32.385115   -203.08108    27418.904   -7.0360323    4.6571466   -1.7293084    1691.8549    1627.2231    1704.2184    1638.7117    30.154354    30.154354    30.154354    16.095494    5.3754531    3.9507123     5.749896    30.154354    30.154354    30.154354 
 1360000     301.4653   -8502.3741   0.96047106     1534.502   -21.234262    30609.763   -40664.434     32144.83    20.669886   -8515.2433    34.103501    689.37821    27152.716   -7.4827773    3.4522815   -1.8612841    1696.9579    1641.7922    1709.3168    1653.2772    30.056455    30.056455    30.056455    17.794896    7.4727103    4.2807466    5.0981125    30.056455    30.056455    30.056455 
 1370000    306.77853   -8582.5676   0.94268796    1452.8404    -20.84111     30605.22   -40663.547    32061.672     17.22983   -8600.5453    38.818853   -400.48197    27664.931   -7.3808233    2.4181809   -1.9093207    1721.6924      1677.53    1734.2404    1689.3864    30.244276    30.244276    30.244276    22.918477    9.7996451    6.8659839    5.3569261    30.244276    30.244276    30.244276 
 1380000    294.90909   -8535.8811   0.94680919    1454.6885   -20.932223    30656.051   -40665.263    32105.225    26.446774   -8553.5636    38.614767   -304.32561    27544.513   -6.8375589    3.0775569    -2.262122    1726.8936    1681.7976    1739.5122    1693.6997    30.200331    30.200331    30.200331    18.642337    7.8045989    7.6437186    2.7397407    30.200331    30.200331    30.200331 
 1390000    307.21582    -8548.201   0.94476535    1480.9254   -20.887038    30613.235   -40662.369    32091.621    23.426547    -8564.472    37.157988   -259.76569    27604.101   -6.7980023    4.4566519   -2.8196783    1758.8739    1698.4719    1771.6953    1710.4529    30.222093    30.222093    30.222093    20.007428    9.1544679    3.4102826    6.4127851    30.222093    30.222093    30.222093 
 1400000    293.59543    -8530.524   0.95752313     1448.067   -21.169089    30660.055    -40661.04    32108.749    20.542189   -8548.4556      39.1007   -161.03956    27236.311   -6.8835769    5.3548939   -3.4610896     1763.036    1688.5695    1775.8706    1700.3066    30.087269    30.087269    30.087269    22.394335    8.8169986    7.1065832    5.1109759    30.087269    30.087269    30.087269 
 1410000    295.68072   -8532.8842   0.95184733    1445.4702   -21.043607    30672.118   -40666.257    32116.158    22.474098   -8545.0173    33.176793   -278.54158    27398.719   -6.4453986    5.4543377   -3.7918343     1779.479    1706.3102    1792.4149    1718.2347    30.146953    30.146953    30.146953    15.784045     11.26535    2.8069625    1.4700356    30.146953    30.146953    30.146953 
 1420000     299.7874   -8592.1191   0.95603651    1513.7122   -21.136222    30540.504    -40662.92    32055.715    19.637562   -8606.2135    35.230618    531.60829    27278.663   -5.8031202    5.0885477   -3.8345106    1769.3465    1706.2347    1782.2887    1718.2458    30.102856    30.102856    30.102856    16.585174    8.9002851    5.6931461    1.6350264    30.102856    30.102856    30.102856 
 1430000    297.76249    -8564.581   0.95606597    1528.4654   -21.136874    30554.793   -40665.943     32088.76    15.635692    -8576.432    32.987857    380.18247    27277.822   -5.2973506    4.6081201   -3.5872116    1778.3456    1726.0049     1791.315    1738.2906    30.102546    30.102546    30.102546    18.103615    9.7812968    4.7108628    3.1767058    30.102546    30.102546    30.102546 
 1440000    293.39599   -8487.4211   0.95008094    1446.9824   -21.004556    30714.083   -40664.687    32162.204    19.866016   -8499.4944    33.077842    29.951424    27449.659   -5.1237649    3.6263337   -3.1486281    1782.5689    1743.9712    1795.5246    1756.3156    30.165624    30.165624    30.165624    16.200267    7.6832813    2.8113515    4.7412811    30.165624    30.165624    30.165624 
 1450000    287.41759   -8517.5556   0.95554771     1424.868   -21.125416    30704.908   -40666.212    32132.542     18.35943   -8530.5441    34.113852    -361.5433    27292.617   -5.0587688      2.83843   -2.6757058    1779.7229    1750.0616    1792.5799     1762.518    30.107988    30.107988    30.107988     18.88022    8.4841252    5.3965462    4.1496118    30.107988    30.107988    30.107988 
 1460000    305.66734   -8621.4377   0.95254277    1502.6044   -21.058982    30521.712   -40665.883    32022.174    23.201111   -8637.9355    37.556829   -39.401346    27378.716    -4.800633    2.2394368   -1.4895517     1801.504    1778.3288     1814.581    1791.0675    30.139614    30.139614    30.139614    20.129242     8.743799     4.434014    5.7027554    30.139614    30.139614    30.139614 
 1470000    295.63089   -8564.9955   0.94664607    1523.2386   -20.928617    30553.304   -40661.399    32083.182    14.289058   -8578.7548    34.687914    503.33809    27549.259    -4.759381    1.3550942   0.40484165    1832.9262    1810.5056    1846.2192    1823.5209    30.202065    30.202065    30.202065    19.861443    7.9611621    4.1776345    6.9025544    30.202065    30.202065    30.202065 
 1480000    292.74949   -8516.5556   0.93189159    1427.4475   -20.602422    30700.879   -40667.022    32130.473    18.456303   -8533.9415    37.988305   -598.45158    27985.442   -4.2809126   0.31854748    2.2154625    1863.8696     1836.463    1877.3986     1849.598    30.360626    30.360626    30.360626    22.139734    7.3014171    5.7967579    7.8822212    30.360626    30.360626    30.360626 
 1490000    304.00067   -8564.1373   0.96090267    1513.2035   -21.243804    30562.853   -40662.429    32079.966     17.33493   -8579.5526    36.659161    357.08485     27140.52   -3.2440786  -0.20221485    2.5802917    1840.8889    1815.2693    1854.2425    1828.2769    30.051954    30.051954    30.051954    22.234989    11.837277    5.3501506    4.5228989    30.051954    30.051954    30.051954 
 1500000    294.28159   -8507.0485    0.9550668    1466.6601   -21.114784    30670.867   -40663.968    32137.523    21.118801   -8521.8262    35.892481    76.948547     27306.36   -2.2225242 -0.041717562     1.930724    1845.1891    1825.7419    1858.5766    1838.8235     30.11304     30.11304     30.11304    19.392665     9.198325    4.7511067    4.5743448     30.11304     30.11304     30.11304 
 1510000    302.71406   -8636.1984   0.95806147      1541.35    -21.18099    30463.623   -40658.878    32004.083    22.071385   -8650.0651    35.047605    364.19569    27221.007    -1.251324   0.30043696   0.97759034    1837.8396    1822.9218    1851.2081    1836.0523    30.081632    30.081632    30.081632    17.706038    8.9195487    3.8431357    4.7013727    30.081632    30.081632    30.081632 
 1520000    296.26355   -8588.1171   0.96670189    1437.3258   -21.372015    30615.113   -40662.537    32051.659    22.151428   -8605.1215    38.376401   -488.27438    26977.704  -0.39006221   0.35888446   0.70762106    1819.6765    1803.8432    1832.8582    1816.8336     29.99174     29.99174     29.99174    21.981107    10.072028    6.9465867    3.9283019     29.99174     29.99174     29.99174 
 1530000    287.59786   -8574.8031   0.95287356    1514.5593   -21.066295    30556.791   -40666.107    32072.506    19.911007    -8590.999    37.262242     12.90199    27369.211  -0.95894126 -0.074292756    1.0889831    1845.4838    1830.7787    1858.9562    1844.0702    30.136126    30.136126    30.136126    19.952868    9.9780853    3.7935178    5.4807246    30.136126    30.136126    30.136126 
 1540000    294.21276    -8474.383   0.94252519    1430.5403   -20.837512    30736.349    -40657.59    32168.232     19.49526   -8488.2438    34.698319   -211.53385    27669.709   -1.5644773  -0.46863844    1.2870135     1871.542    1857.8674    1885.1316    1871.2805    30.246017    30.246017    30.246017    16.317511    5.4056498    6.9666713    3.1561573    30.246017    30.246017    30.246017 
 1550000    299.66455   -8547.5063   0.93019684    1435.9346   -20.564954    30659.761   -40664.534    32097.519    18.741377   -8564.6948    37.753484   -636.35665    28036.429   -2.1290357  -0.58575007    1.0095046    1910.2578    1899.1486    1924.1371    1912.8645    30.379053    30.379053    30.379053    21.332364    7.5464317    6.2221597    6.1235775    30.379053    30.379053    30.379053 
 1560000    295.49662   -8508.5284   0.95120605    1425.2668    -21.02943    30718.079   -40667.383    32147.006    17.369394   -8519.0054    31.506474   -270.78329    27417.191   -2.5128321  -0.99145752   0.79203621    1890.5839    1881.4606     1904.335    1895.0487    30.153726    30.153726    30.153726    15.508904    4.9214729    4.1895063    5.5921011    30.153726    30.153726    30.153726 
 1570000    302.78332   -8608.5394   0.96361719    1552.5692   -21.303817     30485.12   -40665.548    32036.133     22.86086   -8623.1905    35.954913    565.71578    27064.064   -2.1021681   -1.0999858   0.87828734    1888.8891    1879.4237    1902.6421    1892.9724    30.023709    30.023709    30.023709     19.31929    9.0006218    4.2407034    5.3626239    30.023709    30.023709    30.023709 
 1580000    298.65713   -8534.2781   0.95429701    1519.5653   -21.097765     30589.85   -40665.363    32105.299    25.213292   -8553.7799    40.599631    122.17032    27328.387   -1.4763818  -0.75910015    1.3026322    1920.5343    1907.1838    1934.4854    1920.8933    30.121135    30.121135    30.121135    21.669761    11.746684    5.4946443    3.7272326    30.121135    30.121135    30.121135 
 1590000    295.03509   -8496.4723   0.92808829    1480.0962   -20.518338    30669.546   -40662.425    32151.191    18.969481   -8508.7421    32.788137 -0.0080624071    28100.126  -0.89087177  -0.31909704     1.781019    1970.4762    1951.4501    1984.7638     1965.497    30.402042    30.402042    30.402042     16.31032     4.880659    4.9519094    5.0721391    30.402042    30.402042    30.402042 
 1600000    294.74735   -8564.9272   0.96160914    1555.5829   -21.259423    30527.465   -40663.619    32083.816    20.491752   -8576.2239    32.556207    733.88131     27120.58  -0.44341895   0.46100285    1.6802364    1934.9399    1912.4475    1949.0025     1926.186    30.044593    30.044593    30.044593    15.644135    7.3651457     1.601979    5.4646853    30.044593    30.044593    30.044593 
 1610000    301.28742    -8556.029   0.95809918    1534.4841   -21.181824    30555.124   -40665.592    32091.856    18.934076    -8568.644    33.796791    258.69702    27219.935    -0.508595    1.9330563     1.384847    1963.1162    1934.2947    1977.3149    1947.9901    30.081237    30.081237    30.081237    19.954234    12.794761    2.3404046    4.1530522    30.081237    30.081237    30.081237 
 1620000    301.57297   -8564.6514   0.96527225    1513.4933   -21.340408    30571.772   -40665.376    32087.737    18.868499   -8574.2142    30.903256    499.30246     27017.66  -0.88350258    3.6096615    1.5974409    1974.7399    1930.4944    1989.0735    1944.2553    30.006539    30.006539    30.006539    15.459113    9.7164466    2.2842771    2.9258703    30.006539    30.006539    30.006539 
 1630000    293.14077   -8482.7595    0.9467756    1409.1928   -20.931481    30755.421   -40662.753    32166.108    19.437148   -8494.3379    32.509849   -194.36506     27545.49   -1.5243596    4.6435552    1.6804911    2016.5682    1960.5004    2031.3097    1974.5056    30.200688    30.200688    30.200688     15.37992    6.9168686    3.6725487     4.133421    30.200688    30.200688    30.200688 
 1640000    305.67455   -8501.2551   0.95034675    1485.3614   -21.010432    30655.421   -40662.754     32143.05    18.742903   -8516.6085    36.363872    82.944277    27441.981     -2.07176    5.0598959     1.441444    2027.9199     1968.415    2042.6979    1982.4302    30.162812    30.162812    30.162812    20.716733    9.8898178     5.716345    4.1768906    30.162812    30.162812    30.162812 
 1650000    302.23804   -8577.9541   0.94355094    1488.7371   -20.860189    30578.751   -40667.556     32063.69    24.658556   -8596.8868    39.792894   -331.31529    27639.629   -2.6326378    5.1904435    1.0164621    2044.2855    1985.8837    2059.1167    1999.7814    30.235053    30.235053    30.235053    22.114042    10.374858    5.4721199    5.2658076    30.235053    30.235053    30.235053 
 1660000    301.87874   -8486.9399   0.94518062    1395.8913   -20.896219    30765.812   -40662.801    32161.182    21.418046   -8498.6963    32.652595   -376.77137    27591.972   -3.8173094    5.5307593   0.55643853     2067.133    2004.1597    2082.2195    2018.3284    30.217666    30.217666    30.217666    14.157224    4.3791816      5.70207    3.2699132    30.217666    30.217666    30.217666 
 1670000    316.04587   -8512.4482   0.94611428     1468.541    -20.91686     30662.38    -40662.25    32130.925    20.912526   -8526.6064    35.075056   -258.59834    27564.744   -4.4988926    5.7451418   -0.1624106    2089.3826    2024.0198     2104.562    2038.2504    30.207723    30.207723    30.207723    18.881073    9.8701229    4.4437405    3.8424485    30.207723    30.207723    30.207723 
 1680000    292.11539   -8569.6254   0.95899782    1468.9489   -21.201691    30608.375   -40665.216    32079.997    18.528026   -8581.5076    33.083823   -42.490876    27194.429   -4.9143796    5.8426582  -0.87290623    2080.4493    2013.7143    2095.5636    2027.8589    30.071838    30.071838    30.071838    18.267099    7.3110019    6.8006008    3.4776626    30.071838    30.071838    30.071838 
 1690000     300.4837   -8549.8973   0.95265161     1501.616   -21.061388    30597.004   -40665.752    32096.495    23.186572   -8563.4802    34.644239     42.38932    27375.588   -4.9214576    6.1388368   -1.3651464    2094.2603    2023.6906    2109.5333    2037.9428    30.138467    30.138467    30.138467    17.234942    7.4187587    2.0426198    6.3216828    30.138467    30.138467    30.138467 
 1700000    304.41926    -8622.127   0.95117294    1530.7459   -21.028698    30493.875   -40667.057    32026.122    19.527812    -8639.764    38.665744    267.94443    27418.145   -4.4769952    6.2474934   -2.1657409    2113.8449    2044.3666    2129.2849     2058.765    30.154076    30.154076    30.154076    20.309035    9.8326572    5.1178562    4.8867379    30.154076    30.154076    30.154076 
 1710000    303.49168   -8559.9733   0.94708008    1395.2489   -20.938212    30691.414    -40660.18    32091.745    15.855984    -8567.942    28.906879   -570.57501    27536.634   -3.8964659    5.6699902   -3.6108939    2123.7967    2063.2191    2139.1905    2077.8414    30.197451    30.197451    30.197451    13.543153    4.5110141    5.5726748    3.0084598    30.197451    30.197451    30.197451 
 1720000    299.87579   -8542.5697   0.95936451    1559.9394   -21.209798     30547.74   -40665.837    32110.078    18.811213   -8554.6154    33.255493    944.77438    27184.034   -3.7065278    4.7538076   -5.2293576    2106.0653    2051.6296    2121.3507    2066.1215    30.068007    30.068007    30.068007    15.587961    5.0806821    6.7307395    3.2450247    30.068007    30.068007    30.068007 
 1730000    295.40731   -8505.3699   0.93770704    1526.9412   -20.730991     30614.26   -40664.568    32138.898    23.034334   -8519.7592    35.120247    98.612357    27811.882   -4.2832213    4.1551579   -6.2722797    2155.3425    2098.8592    2171.0826    2113.8692    30.297733    30.297733    30.297733    17.996993    8.5556715    6.0631599    2.5963881    30.297733    30.297733    30.297733 
 1740000     313.2301    -8629.607   0.96015263    1588.9607   -21.227222    30430.914   -40663.269    32023.962    17.139837   -8637.1535     28.77364    915.82448    27161.721   -4.6752667    3.8566357   -5.9077203     2125.758    2073.8227    2141.2313    2088.5767    30.059777    30.059777    30.059777    13.787361    4.0554801    5.5082864    3.4330471    30.059777    30.059777    30.059777 
 1750000    303.77263   -8628.1942   0.95590438    1547.6618   -21.133301    30456.524   -40661.308    32007.441    17.878038   -8649.7943    42.733397    64.005973    27282.434   -5.1533962     3.734365   -5.0559754    2141.5282    2093.9593    2157.0395    2108.8878    30.104242    30.104242    30.104242     28.92801    17.148064    5.5591638    5.4676659    30.104242    30.104242    30.104242 
 1760000    292.20762   -8492.7734   0.94942277    1403.3585   -20.990005    30748.558   -40664.198    32152.841    20.065053   -8507.2004    35.416973   -556.29503    27468.688   -5.2588953    3.2867163   -4.1069311    2158.9787    2120.3198     2174.719     2135.522    30.172593    30.172593    30.172593    19.508387    8.3858449    6.8986626    3.9336666    30.172593    30.172593    30.172593 
 1770000    290.22846   -8551.7516   0.95861371    1500.8048     -21.1932     30599.11   -40665.558    32101.482    19.626321   -8560.2053    29.646835    148.91775    27205.325   -5.6385686     2.943988   -2.5854978    2146.8073     2112.933    2162.4186    2128.0265    30.075854    30.075854    30.075854    13.891392    6.9980224    4.3384969    2.2607441    30.075854    30.075854    30.075854 
 1780000    297.63374   -8536.2018   0.94978826    1510.4223   -20.998085    30605.344   -40667.939    32116.134    20.630032   -8550.0036    34.799868    363.29942    27458.118   -6.1157287    2.8822337   -1.2729856    2174.8688    2137.3795    2190.7079    2152.6803    30.168723    30.168723    30.168723    15.970526    5.4890402    4.8204636    4.6452491    30.168723    30.168723    30.168723 
 1790000    307.47218   -8567.9244   0.94511714     1514.239   -20.894815    30565.767   -40665.187    32082.069    18.831294   -8579.6817    32.652168    56.663936    27593.826   -6.3001254    2.7893961   -0.9910513    2203.6849    2164.7398    2219.7201    2180.2293    30.218343    30.218343    30.218343    17.257198    7.5898708    5.7953104    3.3698592    30.218343    30.218343    30.218343 
 1800000    297.40997    -8515.665   0.94331786    1506.0694   -20.855036    30623.953   -40663.853    32132.834    18.043384   -8527.0857    32.275799    87.104254    27646.458   -6.3475041    2.5015975   -1.2274412    2212.7908    2176.4875    2228.9517      2192.07    30.237543    30.237543    30.237543    18.166055    8.7531226    3.5462882    4.6796248    30.237543    30.237543    30.237543 
 1810000    303.40503   -8579.9011   0.97667889    1505.4067   -21.592588    30564.002   -40664.308    32065.467    25.534635   -8591.9939    33.685335    441.74141    26702.121   -6.7661322    2.0499023   -1.6360204    2171.9882    2136.5153    2187.7802    2151.8117    29.889266    29.889266    29.889266    14.998078    6.5060579    2.3037478     5.548033    29.889266    29.889266    29.889266 
 1820000    291.94862   -8578.6912   0.95494144    1425.5857   -21.112012    30646.928   -40664.753    32079.384    14.241932   -8586.7581    29.178877    -309.0382    27309.945   -6.9324618    1.1796406   -1.5038856    2201.3869    2170.3726    2217.4093     2185.961    30.114358    30.114358    30.114358    13.547667    4.8755823    3.4063958    4.4923415    30.114358    30.114358    30.114358 
 1830000    292.25002   -8467.8835   0.94287249    1439.6771    -20.84519    30737.354   -40662.956    32183.988    13.888718   -8479.1477    32.109435    64.708979    27659.517   -6.5926234 0.0022144835   -1.0651209    2239.7504    2216.3512    2256.0892    2232.3479    30.242303    30.242303    30.242303    18.041914    6.9771131    7.0438558    3.3612157    30.242303    30.242303    30.242303 
 1840000    298.53594    -8629.156   0.95858545    1498.1405   -21.192575     30526.54   -40665.476    32023.352    22.520609   -8636.3853    28.421919   -79.730869    27206.127   -5.9161374   -1.2274966    -1.175377    2217.3102    2202.3659    2233.3917    2218.2057     30.07615     30.07615     30.07615    11.639857    6.3539658    2.7388438    2.3102091     30.07615     30.07615     30.07615 
 1850000    298.99925   -8531.3058   0.95657047    1503.0913   -21.148027    30613.298   -40664.413    32117.714    19.823128   -8543.8912    33.733399    236.57972    27263.436   -5.3803148   -1.8886019   -1.4795379    2227.4705    2216.9822    2243.7051    2232.9923    30.097253    30.097253    30.097253    16.717942    7.4469005    2.2394334    6.2960901    30.097253    30.097253    30.097253 
 1860000    303.60105   -8460.6345   0.93834578    1388.2995   -20.745113    30799.394   -40664.198    32196.028    12.411028   -8468.5792    28.689866    -247.9929     27792.95   -5.4774263   -2.2711809   -1.3766769    2270.8451     2259.376    2287.4343    2275.7837    30.290856    30.290856    30.290856     15.86962    9.7220279    4.2057539    1.5881404    30.290856    30.290856    30.290856 
 1870000    303.18861   -8541.5478   0.95109282    1432.4821   -21.026926    30677.798    -40666.95    32108.839     22.46829   -8552.2295    31.708668   -231.33963    27420.455   -5.7950277   -2.7529797   -1.0963971    2268.5193    2253.6218    2285.0348     2269.946    30.154923    30.154923    30.154923    15.122022    5.9379844    4.5694161    4.3065387    30.154923    30.154923    30.154923 
 1880000    300.12054   -8549.2817   0.95385323     1524.524   -21.087954    30572.608   -40660.158    32096.064    22.155888   -8560.3603    32.166532    525.43854    27341.101   -5.3637656   -3.4253447  -0.76037745    2275.4529    2260.8205    2292.0909    2277.2436    30.125806    30.125806    30.125806     13.74362    3.8036074    2.2064041    6.6718854    30.125806    30.125806    30.125806 
 1890000    304.13623   -8517.2989   0.94554886    1459.3525    -20.90436    30672.621   -40664.202    32135.825    17.052924   -8526.7269    30.332292    72.481204    27581.227   -4.6671214   -4.3011501  -0.63523516    2297.3478    2282.4382    2314.1258    2298.9776    30.213743    30.213743    30.213743    14.929754    5.3565728    3.3345132    5.8061579    30.213743    30.213743    30.213743 
 1900000    296.26733   -8559.0716   0.94316125    1531.4259   -20.851574    30556.713   -40661.412    32087.949     21.04168    -8568.992     30.77202    275.39457    27651.049   -4.2251743   -4.8155631  -0.93104097    2310.1684    2295.3173    2327.0575    2312.0108    30.239217    30.239217    30.239217    14.201484    5.4692213    5.6856961    2.5029677    30.239217    30.239217    30.239217 
 1910000    288.95105   -8538.7632   0.94070954    1480.1086   -20.797371    30633.842   -40665.584    32119.165    15.583255   -8546.3434    28.377649   -28.092449    27723.114   -3.6022062   -4.8302549   -1.3241906    2319.5948    2307.4211    2336.4257    2324.0568    30.265464    30.265464    30.265464    12.869931    3.9310958    3.4038857    4.9973407    30.265464    30.265464    30.265464 
 1920000    301.47437   -8587.0203   0.95391606    1427.4757   -21.089343    30637.635    -40664.97    32065.907    20.293853   -8596.2391    30.308148   -330.28987      27339.3   -2.8528526   -4.4358123   -1.4958772    2306.4265    2298.3432    2323.2566    2315.0423    30.125144    30.125144    30.125144    12.838894    4.6702253    3.6606322    3.6310354    30.125144    30.125144    30.125144 
 1930000    295.44411   -8568.5401   0.95887409    1492.1443   -21.198956    30592.152   -40666.243    32086.553    18.942918   -8577.6154     30.27431    127.06199    27197.938   -2.2229083   -3.7772118   -1.1609726    2311.0613    2305.9893    2327.8547    2322.6973    30.073132    30.073132    30.073132     13.40609    6.9036043     3.489307    2.6405105    30.073132    30.073132    30.073132 
 1940000    292.88798   -8581.6165    0.9453242     1473.687   -20.899393    30594.174   -40665.415    32072.857    15.903558   -8591.2962    30.579023   -256.04738    27587.782    -2.306978   -2.9600676  -0.80030799    2344.2005    2341.0118    2361.2505    2357.9883    30.216136    30.216136    30.216136    15.937108    7.3679407    5.3428355    2.6525728    30.216136    30.216136    30.216136 
 1950000    283.48137   -8538.1269   0.95728623    1402.2602   -21.163851    30709.638   -40662.721    32117.672    15.389531    -8545.482    28.519005   -419.21505    27243.051   -2.7038634   -2.0537969  -0.45147948    2332.0218    2328.9908    2349.0477    2345.9461     30.08975     30.08975     30.08975    12.696565    6.1324818     3.116196    2.9296601     30.08975     30.08975     30.08975 
 1960000    295.00038   -8485.2481   0.95073132    1496.0767   -21.018934    30668.317   -40664.685    32165.627     19.78576   -8495.9701    31.740923    334.01628    27430.881   -3.2318869   -1.8096259  -0.11895749    2365.7239     2360.735    2382.9594    2377.8733    30.158744    30.158744    30.158744    15.042912    5.2346172     6.194075    2.9589751    30.158744    30.158744    30.158744 
 1970000    297.34751   -8521.9236   0.93974802    1378.8048   -20.776114    30746.627   -40662.783    32126.407    19.800789   -8533.5991    32.451618   -791.80113    27751.479   -3.4848849   -2.1790091   0.17080181    2402.9791    2395.9067    2420.4737    2413.2963    30.275783    30.275783    30.275783    15.428109     4.312554    5.4124583    4.8734376    30.275783    30.275783    30.275783 
 1980000    298.80038   -8530.9253    0.9403143    1484.6144   -20.788633    30636.353   -40665.483    32119.949    21.807174   -8540.6515    30.514832   -9.5847206    27734.767   -3.9489857   -2.5010926   0.03283375    2399.5692    2391.3179    2417.0501    2408.6961    30.269704    30.269704    30.269704    13.590185    5.1445741    3.0748631    4.6839825    30.269704    30.269704    30.269704 
 1990000    295.39746   -8660.8014   0.95053306    1496.5175   -21.014551    30494.535   -40664.963     31987.25    24.816905   -8669.8248     30.03796   -383.73636    27436.603   -4.4206098   -2.3152694   -0.6604119    2385.7662    2378.4282    2403.1483    2395.7196    30.160841    30.160841    30.160841    13.109137     6.347333    3.6250915    2.6832592    30.160841    30.160841    30.160841 
 2000000    290.79555   -8519.2488   0.95734242    1472.1322   -21.165094     30655.95   -40663.474    32131.103    18.143842    -8529.229    31.145234    37.132228    27241.452    -4.714197   -1.6259942   -1.6118386    2375.8284    2369.2637    2393.0781    2386.4071    30.089162    30.089162    30.089162      16.1426    8.1815161    4.0946171    3.4095969    30.089162    30.089162    30.089162 
 2010000    303.23493   -8593.2211   0.95987517    1530.4889   -21.221088    30524.014   -40665.807    32056.699    19.025954   -8607.0861    35.086153     400.3402    27169.572   -4.5484292   -0.9580127   -1.8255613    2382.8905    2376.6849    2400.2589     2393.984    30.062674    30.062674    30.062674    18.082543    6.1453549    8.3681387    2.9222693    30.062674    30.062674    30.062674 
 2020000    290.82414   -8570.7091   0.95645444    1460.9247   -21.145462    30616.603   -40665.028    32075.572    23.101011   -8582.8122    33.248578   -377.04381    27266.743   -3.8159619   -0.7208388   -1.2891937    2394.8985    2390.5729    2412.3609    2407.9782     30.09847     30.09847     30.09847    16.791616    8.3934502     2.693689    5.2978617     30.09847     30.09847     30.09847 
 2030000    297.33866   -8580.0261   0.95222212    1493.3459   -21.051893    30579.253   -40667.141    32073.063    20.587577   -8592.0111    33.036933    107.25981    27387.935   -2.6408731   -1.3233396  -0.52623316    2400.6436    2397.7857    2418.2064    2415.3043    30.142997    30.142997    30.142997     14.51531     5.815532    4.4690935    3.8081909    30.142997    30.142997    30.142997 
 2040000    301.07004   -8440.2372   0.93852397    1394.4898   -20.749052    30813.618   -40662.293     32213.44    15.416131   -8448.8225     29.33431   -228.01561    27787.674   -1.7462701   -2.2791023   -0.4459874    2435.0632    2431.7603     2452.835    2449.4693    30.288939    30.288939    30.288939    13.948177    6.0232168    3.8339746    3.3908493    30.288939    30.288939    30.288939 
 2050000    294.89613    -8573.793   0.93946713    1536.0233   -20.769904    30535.053   -40661.386     32073.69    18.156632   -8584.8427    31.819544    73.169708    27759.777   -1.2246835   -3.0514391   -1.0186011     2439.438    2435.5596    2457.2107    2453.2755      30.2788      30.2788      30.2788    16.515996    9.6379534    3.8074504    2.5900752      30.2788      30.2788      30.2788 
 2060000    300.87136   -8550.2349   0.95295351    1442.8337   -21.068063    30657.122   -40664.811    32104.189    16.835337   -8559.0145    29.847649   -125.86224    27366.915  -0.96003529   -3.8726658   -1.3153837    2427.3784    2420.5948    2445.0663    2438.1662    30.135284    30.135284    30.135284     14.62027     7.394701    4.0999719    2.9346509    30.135284    30.135284    30.135284 
 2070000    293.60128   -8538.5426   0.94753897    1446.8798   -20.948357    30664.289   -40662.402    32116.428    15.688415    -8545.204    27.609804   -127.94563    27523.298   -1.4107362   -4.7685295   -1.0833854    2466.5691    2455.7915    2484.6407    2473.7048    30.192575    30.192575    30.192575    12.691206    5.1937924    3.6890207    3.2083703    30.192575    30.192575    30.192575 
 2080000    298.50418   -8560.4635   0.94682584    1520.8967   -20.932591    30569.543   -40664.317    32093.233    18.139385   -8569.1237    29.592754    377.76879    27544.028   -1.6383892   -5.0870228  -0.70883218    2471.0797    2457.5902    2489.0939    2475.3893    30.200154    30.200154    30.200154    13.413805    5.9966116    3.9122848    2.8122494    30.200154    30.200154    30.200154 
 2090000    293.08175   -8547.7272   0.94983404    1552.4151   -20.999097    30550.867   -40664.161    32105.135    19.145518   -8555.4173    28.689135    504.88831    27456.794   -1.2449523   -4.6830095  -0.20796389     2473.284    2460.0615    2491.3215    2477.8784    30.168238    30.168238    30.168238     13.15169    5.3718646    3.5152868     3.738988    30.168238    30.168238    30.168238 
 2100000    284.34234   -8519.1798   0.94437478    1516.9846   -20.878403     30611.09   -40664.955    32129.033    19.919663   -8530.9355    32.634098    50.579009    27615.517  -0.74830265   -4.0099511   0.41853232    2490.1889    2476.4214     2508.282    2494.2789    30.226259    30.226259    30.226259    17.701068    9.9257703    3.2444752    3.6858785    30.226259    30.226259    30.226259 
Loop time of 5182.03 on 20 procs for 2100000 steps with 2611 atoms

Pair  time (%) = 3012.46 (58.1328)
Bond  time (%) = 3.90468 (0.0753503)
Kspce time (%) = 1312.01 (25.3185)
Neigh time (%) = 123.335 (2.38004)
Comm  time (%) = 235.74 (4.54918)
Outpt time (%) = 1.22231 (0.0235875)
Other time (%) = 493.357 (9.52054)

Nlocal:    130.55 ave 146 max 108 min
Histogram: 1 0 2 0 3 4 3 2 3 2
Nghost:    5858.6 ave 5933 max 5754 min
Histogram: 1 1 3 2 1 2 1 2 3 4
Neighs:    70986.1 ave 87145 max 56536 min
Histogram: 1 3 3 2 2 3 2 1 2 1

Total # of neighbors = 1419722
Ave neighs/atom = 543.746
Ave special neighs/atom = 2.06281
Neighbor list builds = 51849
Dangerous builds = 0
System init for write_data ...
PPPM initialization ...
  G vector (1/distance) = 0.259714
  grid = 24 24 24
  stencil order = 5
  estimated absolute RMS force accuracy = 0.00168287
  estimated relative force accuracy = 5.06791e-06
  using double precision FFTs
  3d grid and FFT values/proc = 4332 1152
