2593
Atoms. Timestep: 1000000
O 4.02238 3.16389 -11.6733
H 4.38525 2.63311 -12.4392
H 4.65419 3.1081 -10.9001
O -1.79931 2.47659 10.6461
H -2.34662 3.25918 10.9428
H -1.50062 2.61749 9.70215
O -2.53641 -2.28861 1.45689
H -2.63566 -2.73433 2.34658
H -3.12985 -2.73952 0.790124
O 7.69185 11.3446 0.893788
H 8.57422 10.9165 0.698206
H 7.63853 12.227 0.426241
O 3.0008 -9.66904 3.44697
H 2.32532 -8.96935 3.21409
H 3.63389 -9.7888 2.68216
O -2.01916 -13.8651 0.759261
H -1.23197 -13.617 0.194593
H -2.06675 -14.8602 0.846002
O 6.5266 -0.976249 4.70506
H 6.86458 -0.430904 5.47216
H 6.95314 -1.88052 4.72545
O 6.93001 10.4134 7.03946
H 7.39497 10.4173 7.92483
H 6.83076 11.3527 6.71095
O -7.29997 -14.2219 5.70973
H -7.67953 -14.1704 4.78596
H -7.35204 -13.3217 6.14216
O -0.98131 -11.0827 -4.14541
H -0.0692843 -11.1656 -4.54716
H -1.34424 -11.9942 -3.95146
O 4.51743 9.79087 5.72986
H 5.22361 10.0487 6.38932
H 4.67344 10.2741 4.86836
O -12.5828 9.86349 -8.39167
H -12.1868 10.776 -8.49497
H -11.9136 9.1759 -8.67368
O -13.5851 -4.74 1.06003
H -13.2554 -5.52608 1.583
H -14.5847 -4.75131 1.03573
O 12.276 7.76452 -10.7802
H 12.8877 7.48858 -11.5217
H 12.7827 7.77906 -9.91815
O -11.4946 -12.1759 6.73485
H -12.3685 -12.439 7.14378
H -10.8307 -11.9887 7.4589
O 5.40316 -13.7279 14.2267
H 4.64932 -13.8863 14.8645
H 6.17912 -14.3068 14.4775
O 12.9123 -5.92761 -1.38803
H 12.4075 -6.50903 -2.02615
H 13.885 -5.94431 -1.61988
O 3.04438 14.0074 1.25537
H 2.54951 14.8332 0.98462
H 3.95037 14.2585 1.59628
O 0.273057 -2.73142 6.01679
H 1.06664 -2.17904 5.76151
H 0.489249 -3.70051 5.8977
O 9.92094 10.9117 -3.87195
H 10.0284 11.8408 -4.22583
H 10.8121 10.4586 -3.84924
O -10.9576 13.3228 -12.3285
H -11.2047 14.128 -11.7895
H -10.5068 12.6525 -11.739
O 13.5049 -4.63184 0.947893
H 12.914 -4.90436 1.7073
H 13.1754 -5.05148 0.102053
O 3.3392 12.7042 -14.5885
H 3.8576 12.5406 14.4364
H 2.8808 11.8602 -14.31
O 14.0847 7.84425 -8.42782
H 13.9622 7.17581 -7.69417
H -14.8551 8.22312 -8.38264
O -10.3722 6.06633 6.83156
H -10.0389 6.79204 6.22961
H -9.61292 5.71015 7.37627
O -5.95686 -0.969999 -7.09153
H -6.75161 -1.0007 -6.48531
H -5.17314 -1.39152 -6.63528
O 13.2657 1.82389 7.26825
H 13.9581 1.15242 7.00413
H 12.3923 1.36057 7.41851
O -12.5911 10.2252 -4.72867
H -12.172 10.6639 -5.52364
H -13.5441 10.5178 -4.65036
O 3.86167 6.24094 8.30884
H 4.25526 5.72931 9.07264
H 4.40383 7.06515 8.14514
O 11.4286 -7.80666 9.7488
H 11.3095 -8.70018 10.1818
H 11.7925 -7.15808 10.4174
O 7.21594 -8.48487 4.4936
H 7.03981 -8.97296 3.63873
H 7.96633 -8.92949 4.98278
O 10.6943 -13.0856 8.49857
H 10.9614 -13.0183 7.53723
H 10.074 -12.3347 8.72552
O 2.89182 6.36283 2.12149
H 2.85773 6.8833 1.26825
H 2.01341 6.43851 2.59343
O 9.20403 12.8172 6.78194
H 9.68896 13.1431 7.59358
H 9.65276 11.9943 6.4335
O 12.9686 14.5014 -12.8311
H 13.166 13.9165 -12.0443
H 13.7627 14.5222 -13.4385
O -1.43202 5.39917 10.374
H -0.916605 6.22657 10.1508
H -2.28863 5.39072 9.85802
O 14.597 -11.0427 3.12417
H 14.0238 -10.2276 3.03999
H 14.0197 -11.8591 3.1107
O 13.9812 8.5161 -4.9575
H 13.9729 7.68861 -4.39602
H 13.4567 9.23437 -4.50037
O 4.53792 -9.76524 10.5479
H 3.9167 -9.00788 10.3465
H 5.06841 -9.55207 11.3683
O -6.75847 -12.111 -10.5194
H -7.53239 -11.5527 -10.8185
H -6.94675 -12.4818 -9.60994
O -13.741 1.93686 9.25245
H -13.2723 1.07431 9.06162
H -13.2647 2.68451 8.7896
O 0.990221 -12.9359 7.70738
H 1.63812 -12.5638 8.37205
H 1.49119 -13.4072 6.98142
O 0.380336 4.42089 -6.32844
H -0.175766 4.17041 -7.12095
H -0.0556246 5.1775 -5.84106
O -12.6796 10.5324 6.45218
H -12.3915 9.62388 6.75486
H -12.0571 11.2208 6.82457
O -9.63595 -5.8344 -14.0026
H -9.16722 -6.31743 -13.263
H -10.0285 -4.98501 -13.6497
O -2.10118 -5.25686 12.845
H -2.33325 -6.18444 13.138
H -1.84956 -5.26611 11.8772
O 4.67189 1.72348 9.6319
H 4.25093 2.17879 10.4165
H 4.61667 2.32005 8.83119
O -7.1612 -8.27916 -7.92838
H -6.80485 -7.65074 -7.23687
H -7.75802 -7.77991 -8.55657
O 13.6582 1.36808 -6.07631
H 13.1891 2.07024 -6.61208
H 13.0133 0.951478 -5.43554
O 13.4381 -7.85551 12.0422
H 13.931 -7.66014 11.1944
H 13.926 -8.56081 12.5565
O -14.7183 -10.1635 9.07229
H -14.6759 -11.0158 9.59363
H -14.787 -10.3725 8.09676
O 14.1413 10.9725 0.326142
H 14.6579 11.0449 -0.527105
H 14.7499 11.1477 1.10009
O 2.76404 -6.97038 0.819262
H 3.52648 -6.50572 1.26964
H 2.1169 -7.2947 1.50927
O 13.974 -2.6725 3.76914
H 14.3858 -2.81491 2.86904
H 14.0734 -3.50353 4.31646
O 2.46377 -12.965 0.651742
H 1.60935 -12.7698 0.170139
H 2.25931 -13.379 1.53879
O -8.82295 4.22063 0.93463
H -9.55685 4.54532 1.53132
H -8.81236 4.76247 0.0941767
O -12.6388 -11.5735 -2.44749
H -13.0829 -12.1996 -1.8065
H -12.5628 -10.6678 -2.03026
O -7.67264 14.5733 2.36429
H -6.74257 14.2381 2.5149
H -7.65104 -14.3017 2.21917
O 10.0004 0.750836 -0.455884
H 9.61402 0.0283969 -1.02938
H 9.36799 1.52488 -0.423733
O -4.39271 -4.65298 -4.5559
H -4.1344 -3.88302 -5.13943
H -5.30487 -4.49365 -4.1782
O 13.287 10.5558 -11.3314
H 12.9523 9.62586 -11.1785
H 13.5167 10.6727 -12.2976
O -9.4178 7.90649 -1.44094
H -10.1353 8.53311 -1.74519
H -8.70146 8.42275 -0.971461
O 1.34503 3.77621 12.4297
H 1.23518 4.46269 11.7109
H 0.501403 3.24624 12.5162
O -3.5625 -7.58576 -2.00747
H -3.91731 -8.40867 -1.56364
H -2.69515 -7.79759 -2.4579
O 3.8152 -9.25974 -8.12846
H 4.75815 -9.53347 -8.31816
H 3.66351 -9.24953 -7.14005
O -0.85934 14.7394 7.91713
H -1.58647 14.7828 8.6023
H -0.115903 -14.5101 8.18067
O 7.54793 -7.23556 10.6105
H 7.42713 -8.22824 10.6192
H 7.67556 -6.92355 9.66899
O -2.79397 -4.31657 -2.31097
H -3.21237 -4.53551 -3.19249
H -2.46283 -5.15671 -1.88134
O -8.9636 -10.5007 -11.4677
H -9.74552 -11.0992 -11.2933
H -9.22299 -9.79793 -12.1303
O -0.808143 -7.13149 -5.6164
H -0.324456 -7.9686 -5.87206
H -0.270191 -6.33666 -5.89732
O -9.44266 4.28057 4.6709
H -10.0272 5.07822 4.81974
H -9.93816 3.60038 4.13063
O -4.57362 3.97106 -9.30921
H -3.72784 4.38462 -9.6464
H -5.26395 3.98707 -10.0326
O 11.0659 -4.65985 11.3044
H 11.9838 -4.34804 11.5502
H 10.613 -5.03382 12.1138
O -13.3767 -4.84966 14.3236
H -14.2219 -5.36669 14.4595
H -13.3265 -4.53636 13.3753
O 4.98364 -6.04089 11.7666
H 5.69138 -6.58112 11.3113
H 4.08563 -6.43452 11.5699
O -3.04948 -9.93142 11.0866
H -2.52348 -9.09463 10.9344
H -2.60484 -10.6946 10.6176
O -9.85147 13.172 3.32621
H -9.11859 13.8385 3.18943
H -10.4817 13.5085 4.02592
O -8.18463 -5.94859 4.15627
H -7.87599 -6.71093 3.58738
H -9.15829 -6.05582 4.35766
O -3.01332 13.5272 -9.53815
H -2.03064 13.3532 -9.60231
H -3.45935 12.7565 -9.08319
O 0.663327 3.37304 3.25718
H 1.4011 2.90386 3.74259
H 0.687033 3.12009 2.28995
O 13.8609 7.8622 3.03549
H 13.6249 8.7658 3.39312
H 14.8495 7.72616 3.09944
O -5.89419 2.9368 6.70826
H -5.07673 2.64178 7.20303
H -6.70796 2.57577 7.16378
O 7.01273 11.536 3.3681
H 6.0765 11.1887 3.42185
H 7.33808 11.4727 2.42459
O -13.1706 8.66553 2.48921
H -13.3746 9.3498 3.18938
H -13.7743 8.80217 1.70374
O 5.54541 -6.50178 14.2542
H 5.45592 -6.26343 13.2871
H 6.20352 -5.88734 14.6894
O 2.99925 -0.542903 9.16869
H 3.57074 0.273689 9.2502
H 3.36296 -1.13376 8.4485
O 3.89239 4.17924 3.5279
H 3.52165 4.4182 4.42541
H 3.91682 4.99465 2.94948
O 3.73552 -9.39976 -5.34164
H 4.57614 -9.91084 -5.16215
H 3.82243 -8.47469 -4.97183
O -2.17886 5.05682 7.04565
H -1.9765 5.98571 6.73537
H -2.85489 5.09114 7.78177
O -14.3871 -6.51672 -2.20968
H -14.0934 -6.93712 -3.06819
H -13.6458 -5.95446 -1.84309
O 5.49573 -9.17045 13.0782
H 4.73366 -9.53484 13.6135
H 5.71748 -8.24932 13.3982
O 9.69304 -10.4996 0.773656
H 10.6219 -10.3253 0.446728
H 9.55152 -11.4853 0.865636
O 14.4127 -14.9317 -8.93289
H 13.8564 14.3725 -9.54688
H 14.5127 -14.0141 -9.31762
O -4.51671 11.7044 6.23879
H -4.13123 11.6412 5.31821
H -5.36252 11.1727 6.2832
O -0.51711 6.94637 -10.9032
H -0.220717 7.80793 -10.491
H 0.266898 6.33182 -10.9911
O 11.6914 -10.5467 -4.94744
H 11.9711 -10.8027 -5.87279
H 12.4811 -10.1924 -4.4465
O -8.12758 11.4655 11.1129
H -7.88925 10.5379 11.4006
H -7.46137 11.7874 10.4401
O 2.92491 -6.45362 -14.53
H 3.80437 -6.30098 14.8833
H 2.71592 -5.6771 -13.9356
O 9.08748 0.958181 -4.81341
H 9.0193 0.0743514 -5.2763
H 9.23124 1.67924 -5.49125
O -3.83651 -12.481 7.41796
H -4.27082 -13.3314 7.12097
H -4.28936 -11.7046 6.97948
O 3.18592 10.463 -7.17407
H 2.45494 11.129 -7.32328
H 4.06238 10.8652 -7.43889
O 11.7189 -1.94748 14.7784
H 11.4366 -1.34218 14.0341
H 11.9584 -1.40027 -14.2838
O -9.02583 2.35107 -9.68235
H -8.54542 1.68497 -9.11174
H -9.9831 2.40462 -9.39806
O 3.17385 9.39343 14.1619
H 3.1328 8.41531 14.366
H 2.27113 9.80094 14.3001
O -4.30118 -3.93297 -0.125613
H -3.63126 -3.97659 -0.866815
H -4.94634 -3.1897 -0.302742
O -7.83864 7.49484 -13.814
H -8.34277 8.35378 -13.7238
H -8.38972 6.74487 -13.448
O 13.6606 -13.83 14.2222
H 14.6276 -13.6187 14.08
H 13.2481 -13.1286 14.8036
O 13.2428 -7.65607 5.40993
H 12.9157 -6.71194 5.36888
H 14.1788 -7.66954 5.76169
O 4.76858 8.19512 -7.35081
H 4.13465 7.54857 -6.92634
H 4.46903 9.12988 -7.15966
O -5.89797 10.745 -13.0521
H -6.30439 10.6258 -13.958
H -6.60838 11.0108 -12.4004
O -6.45323 3.81862 12.0433
H -5.83703 3.48117 11.3316
H -5.93597 4.36938 12.6984
O 5.73949 10.2092 -1.51602
H 6.16088 10.1825 -0.609497
H 6.39952 9.89783 -2.19973
O 13.2431 11.3184 7.0271
H 12.2465 11.2399 6.99941
H 13.6516 10.41 6.93766
O 13.2106 10.6247 3.71342
H 12.9193 10.9954 2.83146
H 12.4602 10.6988 4.3703
O 8.39359 8.12096 13.7247
H 9.0653 8.22166 14.4587
H 8.66756 8.68122 12.943
O 2.62994 -7.2606 11.2434
H 1.70595 -7.41924 11.5914
H 2.68058 -7.55092 10.2877
O 3.65842 -2.48053 -0.599922
H 3.87441 -1.534 -0.360157
H 2.68041 -2.5607 -0.792652
O -6.01541 7.79011 5.23174
H -6.15964 6.81871 5.04295
H -6.32527 7.99899 6.15933
O -4.35282 4.67443 13.4693
H -3.43681 4.90544 13.1413
H -4.38315 3.70659 13.7192
O 6.70124 1.73667 12.6338
H 6.47676 0.939557 12.0731
H 5.87011 2.26339 12.8122
O 4.68309 -11.7957 -6.5792
H 5.26893 -11.1699 -7.09425
H 4.87447 -11.7033 -5.60201
O 2.50123 -7.98229 -10.3067
H 3.014 -8.10923 -9.45753
H 3.13908 -7.90755 -11.0732
O -1.01877 8.46109 -13.1616
H -1.89324 8.58707 -12.6931
H -0.518977 7.70601 -12.7372
O -8.60731 -10.3023 -5.15845
H -8.59396 -9.32293 -4.95664
H -8.65935 -10.4381 -6.14786
O -3.48149 14.7448 -11.8819
H -4.18786 -14.4222 -12.0042
H -3.42757 14.4906 -10.9163
O -10.7382 -1.03302 3.97503
H -11.6302 -0.582172 4.00901
H -10.3167 -0.871181 3.08272
O 0.509674 2.66527 -13.1429
H -0.418151 2.75455 -13.5051
H 1.04477 2.06801 -13.7404
O 9.21687 3.09099 12.1481
H 8.43943 2.47489 12.2749
H 8.995 3.9898 12.5263
O 3.08365 5.17603 -9.11443
H 3.06364 4.5939 -8.30154
H 3.96906 5.08237 -9.56977
O -11.3129 -2.92149 5.73684
H -10.5831 -2.79149 6.40802
H -11.1834 -2.28535 4.97616
O -7.76732 -7.35232 -0.121333
H -7.9919 -8.27179 -0.444164
H -6.96649 -7.01227 -0.614389
O -10.9986 5.56773 13.5093
H -10.0773 5.27011 13.76
H -10.9412 6.39666 12.9529
O 0.0494008 -0.457864 -9.59887
H 0.78927 0.174166 -9.82952
H -0.754947 -0.246326 -10.1542
O 11.4121 -12.9783 -12.3476
H 10.9137 -12.3638 -12.9591
H 12.0692 -13.5148 -12.8771
O 7.41347 8.08329 -5.61965
H 6.7324 7.81108 -6.29944
H 7.57896 7.32349 -4.99085
O -6.76112 5.09331 5.1769
H -6.30095 4.48901 5.82739
H -7.57023 4.63403 4.81018
O 6.50502 3.48377 -13.7829
H 7.44366 3.23191 -14.0187
H 6.50438 4.36862 -13.3169
O -1.61118 -11.9629 9.0557
H -1.09758 -12.8205 9.0255
H -2.52894 -12.1109 8.68706
O 1.11025 -7.7972 2.61677
H 0.448891 -8.54325 2.53876
H 0.637554 -6.9602 2.89258
O -13.2003 -12.9353 0.259742
H -12.2622 -13.1835 0.0180412
H -13.6638 -13.7286 0.654669
O 8.23746 -13.7514 -7.88666
H 8.14163 -13.0454 -8.58843
H 7.97431 -13.3759 -6.99795
O -5.85855 -5.92977 -1.82168
H -5.66379 -5.37197 -1.01484
H -5.10929 -6.57544 -1.9693
O -5.9576 0.150813 -9.78087
H -6.28722 -0.223239 -8.91398
H -4.9764 0.332088 -9.71409
O 9.38932 -7.9634 -3.50083
H 8.58011 -8.47562 -3.21293
H 9.26445 -6.9947 -3.28615
O -4.21021 0.189522 4.21046
H -3.86786 -0.65648 3.80163
H -3.59763 0.475283 4.94745
O -8.41668 5.56385 -4.62385
H -8.87753 5.03271 -3.91281
H -8.5136 6.53946 -4.42669
O -10.2915 9.46566 14.2381
H -10.3816 8.91682 13.407
H -9.45544 10.012 14.1879
O -9.38035 11.5515 1.13391
H -8.70701 12.0838 0.620688
H -9.64346 12.0529 1.9582
O 7.86454 6.93628 4.19551
H 7.70035 6.33168 3.41604
H 7.00513 7.09381 4.68199
O 0.083186 -2.68937 1.7445
H -0.868937 -2.50183 1.50292
H 0.545843 -1.83119 1.96708
O -2.50344 -13.7644 -3.36347
H -2.35201 -14.7174 -3.10091
H -3.48483 -13.5724 -3.3699
O -9.33917 -6.73535 -3.62004
H -8.56295 -6.31228 -3.15253
H -9.67357 -7.50726 -3.07929
O 1.17702 -3.12623 -9.74706
H 0.519032 -2.37636 -9.67778
H 0.784046 -3.86499 -10.2947
O 8.29001 10.5522 -7.07517
H 8.30553 9.62172 -6.70911
H 8.56785 11.1957 -6.36186
O -9.86945 13.2814 -3.81664
H -9.47851 13.1436 -2.90656
H -9.15256 13.5832 -4.44515
O -0.0522767 10.5986 -5.59944
H 0.639004 10.1807 -5.00988
H 0.357028 11.3564 -6.10764
O 3.97666 -7.67746 -3.01978
H 4.7472 -7.42103 -2.43619
H 3.20512 -7.06701 -2.84049
O 6.64977 -7.55956 -9.79689
H 7.06989 -8.09774 -9.06619
H 6.54666 -8.12849 -10.6128
O 10.1798 -1.45701 6.13022
H 9.97659 -0.855947 5.35724
H 9.37604 -1.52278 6.7216
O 2.38143 9.40772 -12.1644
H 2.89307 10.2594 -12.051
H 2.16469 9.27537 -13.1317
O 10.6991 8.29445 -14.2332
H 10.4624 7.55069 -13.608
H 11.4756 8.01902 -14.8
O 6.71875 -8.47209 -2.61606
H 6.70441 -7.8031 -1.87288
H 6.0439 -9.18725 -2.43383
O 9.15779 14.0315 2.32439
H 9.46885 13.1395 1.99644
H 9.7162 14.313 3.10478
O -14.8523 8.52645 9.20418
H -14.8221 7.5441 9.38894
H 14.7562 8.67834 8.24941
O 5.31576 -2.04176 12.1757
H 5.10739 -1.49781 12.9886
H 4.48077 -2.48305 11.8469
O 1.39689 9.87157 -1.19648
H 2.12263 10.5505 -1.30814
H 0.773078 9.91912 -1.97665
O -13.2465 5.36634 -4.13667
H -13.0905 4.54691 -4.68827
H -12.6118 6.08512 -4.42066
O 9.92959 -11.201 -14.1123
H 9.1478 -11.2909 -14.7294
H 10.6736 -10.7274 -14.5837
O 8.365 -12.135 -10.0711
H 9.10854 -11.4892 -9.89758
H 8.62127 -12.7447 -10.8212
O -11.7198 4.48724 1.33134
H -11.8224 4.63655 0.347858
H -11.4924 5.35265 1.77794
O 4.39618 -10.9293 1.09025
H 5.12615 -11.3046 1.66149
H 3.66215 -11.6027 1.00222
O 6.98546 -9.62094 -5.98497
H 7.56141 -10.0442 -5.28551
H 6.84011 -8.65767 -5.759
O 10.1843 9.32299 -0.701963
H 9.51242 8.59376 -0.572059
H 9.9783 9.81968 -1.54514
O -1.23638 -11.5493 -12.4999
H -1.82571 -11.6416 -11.6972
H -0.34102 -11.2043 -12.2181
O -7.75761 -4.81811 9.30372
H -7.50137 -5.69477 9.71098
H -7.18267 -4.09337 9.68354
O -4.11761 -5.72582 9.53905
H -4.22971 -5.81493 8.54932
H -4.97817 -5.95508 9.99396
O 1.15596 0.664771 -14.8485
H 1.19792 -0.00385577 -14.1061
H 0.507048 0.352229 14.322
O -8.84224 4.62987 -13.3231
H -8.04283 4.28023 -12.8345
H -9.67517 4.30259 -12.8768
O 10.1142 13.5952 -4.75043
H 9.20814 13.9132 -5.02972
H 10.8151 14.1164 -5.23733
O -14.0367 -12.8577 7.47171
H -14.4614 -12.1697 6.88326
H -14.7475 -13.3568 7.96758
O -10.673 -9.11855 -13.1048
H -11.1565 -9.96083 -13.3432
H -11.312 -8.47527 -12.6831
O 7.95865 8.05305 -12.3604
H 7.79443 9.02949 -12.5007
H 7.14691 7.53611 -12.6323
O 1.86898 3.93384 -4.00395
H 1.27302 4.10711 -4.78809
H 2.6227 3.33886 -4.28317
O 9.3621 -4.87619 9.01927
H 10.0286 -5.01924 9.75095
H 9.42798 -5.62316 8.35763
O -10.8799 9.70567 -2.64341
H -10.9836 10.3737 -1.90647
H -11.5076 9.93128 -3.38853
O -3.16019 -14.2385 4.70803
H -3.55143 -14.7689 5.46012
H -2.21341 -14.5228 4.55683
O -13.891 13.32 -13.1477
H -14.5157 12.582 -13.4028
H -12.9526 12.9747 -13.1398
O -4.90129 11.9666 11.9553
H -4.42571 11.7389 12.805
H -4.94136 12.9605 11.8517
O 10.5195 6.13562 -6.21513
H 11.3261 5.55265 -6.11662
H 10.8029 7.09418 -6.24596
O -14.7117 4.6464 6.27726
H 14.4334 4.36511 6.91272
H -14.1955 3.84272 5.98116
O 11.6974 -6.10945 -9.26308
H 11.3902 -6.02445 -10.211
H 12.3471 -6.86613 -9.18981
O 14.8122 -12.1553 -10.7351
H 13.8494 -11.9548 -10.5535
H -14.5071 -11.3287 -10.594
O 3.25961 1.26581 -0.878576
H 3.43201 1.8991 -0.124068
H 2.30945 1.35439 -1.17761
O 11.0745 -10.2422 3.59563
H 10.5991 -10.5254 2.76264
H 11.5584 -9.38334 3.42763
O 14.1998 -4.6464 5.56307
H 13.4804 -4.17501 6.07337
H -14.7912 -4.53446 6.03742
O 11.2789 11.6063 11.8355
H 11.2821 12.5803 11.6091
H 11.8128 11.1042 11.155
O -13.4917 -13.738 -12.6213
H -14.2887 -13.4455 -12.0929
H -13.5898 -14.7026 -12.8662
O 5.00606 11.3075 13.3947
H 5.05478 11.1312 12.4115
H 4.38798 10.6472 13.8215
O -0.996115 -4.80251 -12.7699
H -0.620517 -4.27583 -13.5326
H -0.247873 -5.15613 -12.2086
O -6.0341 -6.83909 -5.75865
H -5.0343 -6.84947 -5.73929
H -6.36537 -5.96612 -5.40052
O -6.47751 7.86073 13.2646
H -6.66875 7.48784 14.1726
H -5.63455 8.39788 13.2956
O 11.675 6.07774 2.44928
H 12.4246 6.67773 2.16968
H 11.0408 6.58604 3.03195
O 11.7411 -8.34343 -0.10727
H 11.9028 -8.57944 -1.06551
H 11.0387 -7.63375 -0.0527155
O 13.1662 2.61048 12.9559
H 13.2752 2.23823 12.0342
H 13.8565 2.21214 13.56
O -1.73612 -1.7333 13.5947
H -1.22245 -2.47558 13.1643
H -1.47114 -0.86169 13.1822
O -12.2646 14.704 -9.98497
H -11.8128 -14.6446 -9.25699
H -12.8573 -14.5482 -10.5086
O -11.9045 8.18948 7.78971
H -11.5714 7.30049 7.4754
H -12.2161 8.11279 8.73685
O -12.6139 -10.8007 2.54619
H -13.5529 -10.9643 2.84876
H -12.5597 -10.9101 1.55364
O 12.0694 4.91695 -11.4682
H 11.4155 5.59062 -11.1239
H 12.989 5.30978 -11.4583
O 10.3225 2.74271 -3.34909
H 9.91033 3.51047 -3.83974
H 9.91168 1.88695 -3.6637
O 3.51946 -4.01078 10.9568
H 3.62537 -4.9539 11.272
H 3.75881 -3.95443 9.9875
O -6.57037 12.9254 8.87214
H -7.32026 13.3029 8.32879
H -5.83748 12.6218 8.26323
O 8.04476 -14.8841 14.7179
H 8.07032 14.0226 14.4308
H 8.61521 -14.337 14.1052
O 6.46196 7.87774 8.33386
H 6.42695 8.54894 7.59337
H 7.40745 7.58264 8.47183
O -7.38755 9.93012 -0.544718
H -8.06476 10.3813 0.0365416
H -6.52614 9.84019 -0.0447723
O -4.98443 -10.2219 5.62968
H -4.56435 -9.96857 4.75823
H -4.72128 -9.5599 6.3315
O 1.63991 9.04158 -4.07484
H 0.982952 8.31261 -3.8823
H 2.54039 8.7789 -3.72815
O -1.9684 4.14438 3.34185
H -1.7844 5.04974 2.95903
H -1.103 3.68497 3.54206
O -4.78208 -8.35148 7.76248
H -4.18347 -7.59418 7.50128
H -5.70714 -8.00595 7.92042
O -11.243 -8.07824 6.9747
H -11.373 -8.66562 7.77353
H -11.3211 -8.62619 6.1418
O -2.45405 -13.3708 -8.77926
H -2.66516 -12.5334 -9.28353
H -2.75544 -14.1637 -9.30883
O 13.3367 13.8174 3.82686
H 14.1391 13.6698 3.2486
H 13.5075 13.4393 4.73677
O -8.60373 7.57907 1.8691
H -8.17584 8.48187 1.82503
H -7.97549 6.89408 1.50009
O 0.0616696 12.8549 5.69666
H 0.348774 11.9824 6.09213
H -0.191942 13.4858 6.4299
O 14.7139 0.981376 -12.2097
H 14.6556 0.976362 -11.2114
H 14.3856 1.85931 -12.5583
O -6.01288 -6.14848 11.5524
H -5.35235 -6.68997 12.0725
H -6.43001 -5.46559 12.1521
O 14.5879 -6.59673 3.02287
H -14.3452 -6.94411 3.13428
H 14.4047 -5.90441 3.72087
O -7.42579 2.95831 -5.37138
H -7.38367 3.90193 -5.04293
H -6.67659 2.79507 -6.01334
O 6.14824 -14.5235 0.936985
H 5.51542 -13.811 0.63377
H 6.2204 -14.5028 1.9342
O 14.7449 9.12159 6.54302
H -14.8475 8.23839 6.16077
H -14.332 9.73805 6.55072
O -8.27016 5.25381 8.39823
H -8.02086 4.29626 8.25327
H -7.57208 5.84486 7.99399
O 0.953827 14.2456 -1.47122
H 1.19487 -14.6698 -1.67541
H 1.50817 13.6324 -2.03397
O -2.66984 1.1146 -12.2573
H -2.84258 0.393937 -12.9288
H -2.52822 1.98412 -12.7306
O -4.53753 -13.8713 -6.94323
H -4.63296 -14.8604 -6.83047
H -3.78261 -13.6786 -7.57015
O -0.274807 -3.00146 -3.27166
H 0.348528 -3.76048 -3.45986
H -1.14891 -3.36111 -2.94507
O 3.67364 2.37977 1.65215
H 3.59811 2.89886 2.50356
H 4.04615 1.47237 1.84691
O 12.8952 13.1707 -10.3703
H 13.3115 12.3016 -10.6374
H 11.9034 13.0597 -10.3067
O -5.5767 -6.12122 -10.245
H -5.73844 -5.56112 -9.4325
H -4.74943 -6.66758 -10.114
O -4.64851 5.20385 3.38768
H -5.23618 5.08006 4.18729
H -3.85041 4.60623 3.46485
O -2.16677 9.05615 -9.67581
H -1.8313 8.52456 -8.89803
H -1.40144 9.53206 -10.1092
O 0.457508 -9.73941 12.7884
H 0.161493 -10.6751 12.9805
H 0.0306443 -9.42194 11.9416
O 4.23337 8.47473 -3.10135
H 4.50005 9.24568 -2.5229
H 4.19406 7.64178 -2.54933
O 7.72731 9.4532 -3.12839
H 8.48375 10.0675 -3.35305
H 7.42235 8.98317 -3.95673
O 11.2783 -0.0806094 12.3443
H 10.9242 0.80049 12.6579
H 10.519 -0.655103 12.0383
O 11.0089 10.667 5.50964
H 11.0713 9.88513 6.13003
H 10.2795 10.5074 4.84443
O 7.12358 12.1612 14.5976
H 6.43322 11.7693 13.9895
H 8.03579 11.9474 14.248
O 2.47102 -11.4859 -8.97625
H 1.9894 -11.6409 -8.11364
H 3.07008 -10.6903 -8.88525
O 14.7786 -13.3181 -4.85904
H 14.3128 -13.8186 -4.12929
H 14.7786 -12.3411 -4.64565
O -12.5703 13.2769 12.9211
H -12.0671 12.4876 12.5691
H -13.5354 13.1948 12.6725
O 0.0356384 -12.6832 13.3461
H -0.0566652 -12.9072 14.3164
H -0.847237 -12.8009 12.8914
O -4.62148 2.79681 10.516
H -4.92301 1.97463 10.9989
H -4.17255 2.53566 9.66138
O 7.2656 -14.6144 -12.6371
H 7.98972 -14.7478 -11.9604
H 7.66403 -14.6055 -13.5543
O 1.78737 -8.07718 -1.44596
H 2.40708 -7.77944 -0.719751
H 1.0405 -8.61065 -1.0489
O -6.67752 -4.15165 13.5077
H -7.33228 -3.50942 13.9063
H -5.76031 -3.94825 13.8504
O -14.4491 -8.9703 -13.1537
H -14.6947 -8.35515 -12.4044
H -13.7398 -9.60435 -12.8455
O -0.867517 14.8892 -5.60187
H -1.46395 14.1479 -5.90989
H -1.38738 -14.3483 -5.02136
O -7.39911 0.849469 -0.950441
H -7.16312 1.22927 -0.0559422
H -8.22411 1.2971 -1.2955
O 14.8493 14.9031 0.868781
H 13.941 14.8059 0.461821
H -14.8089 14.0953 1.42105
O 2.63173 3.19742 -7.3556
H 1.82286 3.76299 -7.19454
H 3.04562 2.95046 -6.47938
O 10.9203 -4.30215 -14.0595
H 10.9961 -3.36416 -14.3979
H 10.5223 -4.88188 -14.7706
O 5.63643 7.09037 -13.3187
H 4.75565 6.8091 -12.9377
H 5.50155 7.44385 -14.2444
O 0.287177 5.60608 -14.4808
H -0.493983 5.63367 14.7597
H 0.0579883 5.04672 -13.6841
O 4.28517 -3.52404 8.61818
H 5.24734 -3.55027 8.88947
H 4.0965 -2.66532 8.14167
O 9.61677 14.6341 -11.187
H 9.48616 13.6503 -11.3106
H 10.3403 -14.9106 -11.799
O 8.91168 -5.1049 -2.80666
H 8.35998 -4.27283 -2.86452
H 9.12323 -5.29863 -1.84865
O -5.26098 -7.52897 -13.9717
H -4.69595 -6.70435 -13.9999
H -5.11785 -8.05984 -14.807
O 7.08994 -2.04226 -2.51746
H 6.49588 -1.66745 -1.80565
H 8.02731 -1.72678 -2.36957
O 10.3401 -3.57514 -11.3869
H 10.5161 -3.47183 -12.3659
H 9.74429 -4.36413 -11.2368
O -2.72984 -9.88044 -14.7997
H -2.03429 -10.4698 -14.3887
H -2.64206 -8.95468 -14.4318
O -9.72813 -8.82475 1.65702
H -9.02938 -9.40124 2.08069
H -9.34313 -7.9224 1.46311
O -11.9515 -2.48911 -8.01393
H -12.7764 -2.4934 -8.57937
H -12.2062 -2.59019 -7.05216
O -6.27828 5.50659 0.729495
H -5.7265 5.59884 1.55841
H -7.10015 4.97469 0.933643
O -3.65009 12.0329 14.8697
H -4.292 12.7017 14.4944
H -3.57179 12.1642 -14.0063
O 1.1313 1.84019 5.70062
H 1.02383 2.77347 6.04342
H 0.566193 1.21865 6.24322
O -2.37315 12.2561 -6.20462
H -1.89801 11.47 -5.80925
H -3.08808 11.9355 -6.82603
O 11.4915 -6.28482 -12.1756
H 11.2276 -5.57247 -12.8259
H 11.5576 -7.1622 -12.6508
O -9.15053 -0.547776 1.65616
H -8.52972 0.235553 1.62365
H -9.64096 -0.620675 0.7877
O -5.54338 7.94861 -6.16501
H -5.54116 7.30404 -6.9296
H -5.99974 7.53168 -5.3789
O -10.0943 5.36619 -1.71711
H -9.71643 6.29163 -1.74637
H -11.0902 5.41503 -1.64101
O 7.37966 -4.43324 -5.47548
H 6.91097 -5.26598 -5.18061
H 7.78556 -4.58079 -6.37744
O 1.96996 -2.12635 13.8358
H 2.54859 -1.43803 14.2734
H 1.81907 -2.88597 14.4685
O -14.9245 -1.87951 7.60093
H -14.2912 -2.64037 7.4592
H 14.0369 -2.23732 7.8395
O -14.1663 -4.91607 -6.86517
H -13.179 -4.83356 -7.00149
H -14.6369 -4.21955 -7.40685
O 3.37026 5.91916 -12.3537
H 3.34801 4.94795 -12.1164
H 2.63358 6.12157 -12.999
O 12.1885 -10.4357 6.3241
H 12.1638 -9.45373 6.13662
H 11.6006 -10.9145 5.67203
O 6.60427 -4.08341 9.95764
H 7.47802 -4.33932 10.3713
H 5.88668 -4.10553 10.6538
O -4.50592 6.40615 -1.45307
H -3.76881 5.73209 -1.50196
H -5.09667 6.19811 -0.673463
O -9.4274 -5.26005 -10.9684
H -8.54554 -5.66135 -11.2161
H -9.91262 -5.87771 -10.3495
O -1.81206 -5.02763 -9.17322
H -2.34629 -5.86653 -9.06873
H -2.43062 -4.24469 -9.23993
O 12.5532 -13.1618 6.42063
H 12.8329 -13.4237 5.49689
H 12.5779 -12.1658 6.50666
O -13.4386 -4.14223 6.81222
H -12.8867 -4.74 7.39378
H -12.8381 -3.61676 6.20939
O -12.5424 -0.426102 -12.7223
H -13.3705 0.0907282 -12.5051
H -11.8053 0.20811 -12.9559
O -1.60547 6.23299 -5.0484
H -2.06966 7.09219 -5.26374
H -2.2399 5.47046 -5.17533
O -10.2256 -9.5517 11.5661
H -10.1729 -10.5503 11.5576
H -10.2243 -9.22588 12.5115
O -3.78602 11.1309 -8.70898
H -3.3349 10.288 -9.00234
H -4.77157 10.9754 -8.6414
O 10.099 4.46049 0.490421
H 10.9117 3.976 0.166485
H 10.3639 5.12668 1.18762
O -1.60621 -2.11466 -12.0204
H -1.50624 -3.10832 -12.0724
H -2.5648 -1.88442 -11.8526
O -14.7772 13.3358 6.17163
H 14.8184 12.5482 6.72627
H -14.5227 14.0945 6.7713
O -8.30428 11.6438 -12.2445
H -8.29503 12.4481 -12.8388
H -8.71401 11.8843 -11.3646
O 4.70726 -13.0363 -1.14139
H 5.37678 -12.3319 -0.905295
H 3.78807 -12.7095 -0.921472
O -8.53861 4.26565 13.9457
H -8.62478 4.17342 -14.9265
H -7.64991 3.91184 13.654
O 3.39089 6.0206 -5.27872
H 3.56052 6.82819 -4.71384
H 3.0119 5.29008 -4.7106
O 2.11288 9.25558 3.48861
H 1.43398 9.17038 2.75928
H 1.89895 8.60844 4.22039
O -5.70688 -2.66092 9.32849
H -6.14228 -1.77138 9.46716
H -5.03925 -2.82217 10.0554
O -5.45731 -1.99781 -12.9796
H -5.02328 -2.8986 -12.9633
H -6.43611 -2.09611 -12.7998
O -1.28842 -8.59499 -3.30566
H -1.21949 -7.88132 -4.00279
H -1.0663 -9.48106 -3.71263
O -0.902389 -8.06636 5.24251
H -0.994679 -8.38117 4.29782
H -0.838934 -8.85634 5.85241
O -8.9379 -14.3686 -7.04478
H -9.35585 -14.2424 -6.14508
H -8.95592 14.5257 -7.28763
O -13.738 8.19633 -6.67001
H -13.3289 8.84274 -7.31405
H -14.5073 8.63265 -6.20324
O -5.07481 14.35 10.9969
H -5.82346 13.9682 10.4549
H -4.23172 14.3331 10.4594
O 3.90884 -14.9239 9.10593
H 4.17319 -14.3996 8.29643
H 4.658 -14.9147 9.76831
O -1.76365 8.24785 14.0447
H -1.55159 8.23329 -14.8423
H -1.40432 9.08788 13.6382
O 2.38473 -5.60437 -8.20473
H 1.83172 -5.64931 -9.03673
H 1.88761 -5.09658 -7.5011
O 6.57479 -0.225823 10.3916
H 6.08797 -0.888202 10.9611
H 5.92427 0.437696 10.022
O 3.60477 1.24142 -8.94106
H 3.25415 1.949 -8.32749
H 3.28996 0.344631 -8.63004
O 10.4895 -8.36088 -6.02274
H 10.9302 -9.19133 -5.68179
H 9.9672 -7.93363 -5.28472
O 14.173 6.55733 -3.04189
H 14.8697 6.06018 -3.55915
H 14.3236 6.42017 -2.06282
O -0.505021 11.6161 -3.048
H -0.508981 11.2336 -3.97202
H 0.381913 12.0411 -2.86695
O 3.39668 -13.0329 12.3986
H 2.55664 -13.4786 12.7081
H 4.16628 -13.3512 12.9522
O 9.52753 -2.45772 -4.91245
H 8.84298 -1.95448 -5.43991
H 9.47354 -3.43039 -5.13844
O 1.24189 -4.70585 0.134075
H 1.60151 -5.54213 0.548048
H 0.927565 -4.08633 0.853426
O 6.48767 -0.243874 -13.2062
H 6.49165 0.177232 -12.2991
H 7.36233 -0.0694353 -13.6585
O 4.72819 -0.616985 14.6978
H 4.18647 0.223378 14.6779
H 5.31543 -0.61597 -14.357
O -5.28507 14.3476 13.6765
H -5.0246 14.5945 12.7431
H -5.99882 -14.8948 13.9989
O -13.4664 -14.569 -6.555
H -13.7292 -14.7775 -7.49707
H -14.1376 -13.9471 -6.15152
O -3.99223 5.21499 9.12015
H -4.54819 5.97734 9.45153
H -4.36556 4.35462 9.46721
O -4.00766 7.67045 2.26152
H -4.12213 6.72815 2.57622
H -3.86378 8.26973 3.04906
O 3.91693 12.7843 -5.01144
H 4.39313 11.9172 -5.15743
H 3.93669 13.3215 -5.8547
O 12.1839 -0.704719 -4.58841
H 11.7811 -1.01197 -5.45063
H 11.473 -0.656975 -3.88671
O -12.1686 6.1582 -13.8774
H -12.8705 5.55919 -13.4919
H -11.9899 5.89512 -14.8255
O 11.3289 11.1233 -13.7958
H 11.3393 10.149 -13.5706
H 10.926 11.6364 -13.0379
O 5.01334 13.4686 -12.5427
H 4.32515 13.6522 -13.2447
H 5.83522 14.0056 -12.7332
O 1.34881 -5.02407 -3.34149
H 1.70733 -4.91167 -2.41472
H 1.14424 -5.9892 -3.50498
O -7.68538 -12.2537 -0.598234
H -7.79834 -12.2637 0.395349
H -7.96517 -11.3629 -0.956561
O -3.11048 0.208961 -9.68583
H -2.86256 0.504866 -10.6083
H -2.6289 0.772261 -9.01439
O -3.57027 -0.122681 9.64604
H -3.98748 0.0818531 10.5316
H -2.68419 -0.563717 9.78895
O 8.39089 6.55237 -8.14193
H 9.03027 6.20922 -7.4538
H 8.90214 6.9009 -8.92757
O 9.68821 0.60775 4.23922
H 10.1491 0.87168 3.39188
H 8.77448 1.01353 4.26199
O -7.06459 -12.8317 -7.9231
H -6.23686 -12.9771 -7.3811
H -7.77794 -13.4627 -7.61802
O 12.834 -11.2392 -7.25529
H 12.4869 -11.8692 -7.95003
H 13.8331 -11.2188 -7.29317
O -10.0323 -7.49648 -9.05911
H -10.2005 -7.56431 -10.0426
H -10.0589 -8.4098 -8.65263
O 11.7641 14.6167 -0.343464
H 10.9111 14.7036 -0.858177
H 11.7701 -14.5856 0.40608
O -10.4827 3.01154 11.2596
H -10.5711 3.66848 10.5108
H -10.2185 3.49259 12.0956
O 13.8278 0.828101 -9.69329
H 13.2567 0.00720981 -9.68529
H 14.6198 0.688931 -9.09886
O -11.1422 3.57439 -12.3214
H -11.447 3.22517 -13.2075
H -11.9247 3.64081 -11.7022
O 13.4011 5.18084 -6.31786
H 14.2559 4.99465 -6.80236
H 13.4158 4.72412 -5.42833
O 14.8214 6.22285 12.4048
H 14.3844 6.22987 11.5053
H -14.5627 5.35537 12.5353
O 14.5692 6.33625 -0.354726
H 13.9634 7.10324 -0.143072
H 14.3296 5.55378 0.220059
O -8.06671 -1.09382 -5.43892
H -7.68845 -0.582703 -4.66708
H -8.83818 -1.64781 -5.12586
O 1.40992 -13.4832 -3.0108
H 1.77826 -12.574 -2.81647
H 1.48414 -13.6706 -3.99032
O 5.5962 -0.228904 -0.760483
H 6.12704 0.0158919 0.0509034
H 4.87594 0.449671 -0.90481
O 11.5107 4.72856 14.288
H 12.0483 4.04949 13.788
H 10.5498 4.65538 14.0209
O -3.21615 5.51836 -12.4998
H -2.98413 6.4306 -12.1621
H -4.14446 5.52671 -12.8716
O -3.64425 2.21234 8.13408
H -3.48694 1.23986 8.30616
H -2.8931 2.57953 7.58543
O 6.82355 5.10858 7.48026
H 6.49473 6.03888 7.31747
H 7.81299 5.07527 7.33898
O 13.2795 -3.62346 12.7784
H 13.8304 -4.39523 13.0962
H 12.9331 -3.11439 13.5664
O 0.226389 -4.77204 -6.89187
H -0.38349 -4.71134 -7.68208
H 0.121803 -3.95383 -6.32648
O 3.63477 11.7873 -0.735565
H 3.62276 12.152 0.195528
H 4.54835 11.4388 -0.945277
O -1.38804 -1.53059 9.76715
H -0.566872 -1.74778 10.295
H -2.02056 -2.30443 9.80124
O 11.5397 0.449831 1.76903
H 11.047 0.880283 1.01272
H 12.2779 1.05269 2.07203
O -10.8645 0.233222 -2.91039
H -10.2551 0.937295 -2.54565
H -11.761 0.633756 -3.09958
O -0.743507 3.86906 -9.21135
H -1.50987 4.51116 -9.23257
H -0.039694 4.16866 -9.85552
O 9.78076 -11.9879 5.16637
H 9.976 -12.8906 4.7829
H 10.1837 -11.2833 4.58216
O 14.5666 -0.295677 5.17224
H -14.8707 -0.721995 5.96975
H 14.0237 -0.976765 4.68081
O -3.25205 -3.4089 3.91396
H -2.9305 -3.06658 4.79685
H -4.11678 -3.89515 4.03987