2593
Atoms. Timestep: 18495000
O 2.96724 14.3198 -14.425
H 3.67171 13.8403 14.9239
H 3.27949 14.446 -13.4834
O 8.44962 -9.91366 -6.72728
H 8.02693 -10.7592 -6.4011
H 8.31039 -9.18936 -6.05195
O -11.7081 -0.0726373 13.8002
H -11.7616 0.592831 14.5448
H -11.3991 -0.952559 14.1612
O -12.8655 12.5743 3.36736
H -13.8171 12.2772 3.44594
H -12.4277 12.0931 2.60785
O -5.36381 4.23777 -2.93431
H -5.44075 3.84249 -2.01894
H -6.10759 3.89576 -3.50867
O 2.89084 -12.9535 7.67806
H 2.04597 -12.5689 8.04999
H 2.97333 -12.7055 6.71278
O -11.773 7.93197 4.75827
H -12.5355 7.84606 5.39963
H -11.1336 8.62491 5.0915
O -6.03955 3.57732 1.94739
H -5.29984 3.01888 1.57183
H -6.73558 2.98212 2.34906
O 7.39302 11.9983 3.69401
H 6.77263 12.7412 3.94553
H 6.90943 11.1251 3.75507
O -9.88642 -1.06335 -6.98433
H -10.6562 -1.46006 -6.48425
H -10.0703 -0.097639 -7.16781
O -8.56664 -3.84444 -3.37073
H -8.44862 -3.52926 -4.31243
H -8.78205 -4.82099 -3.3706
O 11.0082 11.009 13.0469
H 11.2243 11.2461 12.0997
H 10.4496 11.7325 13.4525
O -8.85562 10.9194 0.784172
H -9.69852 11.3769 1.0674
H -8.90064 9.95245 1.03534
O -14.1562 7.52395 -2.43785
H -14.5108 7.28521 -1.53378
H -13.199 7.24241 -2.50549
O 4.12896 -4.68715 14.2199
H 4.33273 -3.76108 14.5376
H 3.64711 -5.1878 -14.9332
O -7.00966 -9.77497 -9.35891
H -7.97381 -9.80624 -9.09527
H -6.92516 -9.96588 -10.3369
O 8.47756 5.24499 -12.1997
H 8.28967 6.14786 -11.8129
H 8.97014 4.69083 -11.5286
O -4.34582 -5.69805 5.34417
H -3.84319 -6.27602 5.98711
H -4.90576 -5.04334 5.852
O 0.56919 13.2635 3.3087
H 0.858594 13.7479 4.13434
H -0.0573828 13.8413 2.78562
O -9.87516 3.90468 1.82319
H -10.3003 3.0872 2.21181
H -10.0857 4.6953 2.3982
O 6.96717 0.378486 10.2708
H 7.58083 0.705602 10.9895
H 6.42613 1.14326 9.92085
O -4.66257 -11.8154 -11.5901
H -4.6139 -12.3816 -10.7672
H -3.7388 -11.6479 -11.9345
O -14.7271 5.86949 -4.61727
H 14.3236 5.30689 -4.70938
H -14.6109 6.13558 -3.66032
O -6.9209 -6.02185 -5.47326
H -7.71225 -5.74569 -6.01876
H -6.08488 -5.67799 -5.90091
O -7.12029 9.42813 4.70822
H -7.18444 8.67455 5.36249
H -6.29024 9.32407 4.16026
O 4.17757 5.28293 0.831164
H 4.58142 5.65963 -0.00254369
H 4.86736 4.75483 1.3265
O -9.96131 -6.87577 -8.58431
H -9.46971 -6.23364 -7.99604
H -9.42511 -7.04838 -9.41061
O 11.6487 -8.61877 -5.66668
H 11.2107 -9.42563 -6.06315
H 11.7484 -7.91441 -6.36953
O 14.8546 14.3856 11.8197
H -14.6952 -14.8983 11.0782
H 14.3566 -14.9361 12.4896
O 5.92085 8.04609 13.3501
H 6.82632 7.66607 13.5392
H 5.22208 7.46818 13.7717
O 1.18522 -14.433 5.40598
H 0.641857 -14.194 6.2108
H 1.89768 -13.7448 5.26851
O -13.8668 -0.0819376 12.1641
H -14.0928 0.318158 11.2759
H -12.8762 -0.19951 12.2345
O 10.1643 -1.71819 9.87681
H 9.85598 -1.35482 8.99762
H 9.39298 -2.1431 10.3508
O -12.528 -3.63114 -14.8469
H -11.8045 -3.102 -14.4036
H -12.3108 -3.74587 14.056
O 5.74325 -13.5376 -10.5181
H 5.58398 -13.2335 -9.57887
H 6.51638 -14.1716 -10.5366
O -14.2437 13.1512 -5.34993
H -13.8978 14.0453 -5.06518
H -14.8005 12.7603 -4.61696
O -4.92694 6.87113 -3.30907
H -5.61914 7.48508 -2.92961
H -5.23026 5.92361 -3.20778
O -0.450816 6.51519 10.6429
H -1.36626 6.63147 11.0282
H 0.122733 6.01467 11.2914
O 7.91431 -1.77507 -6.09839
H 8.33456 -1.88438 -5.19756
H 8.27565 -2.46904 -6.7212
O -12.7001 14.3254 6.0531
H -12.2696 13.4242 6.00339
H -13.1899 14.5083 5.20064
O -0.318824 9.26936 3.41188
H -0.521961 9.23089 4.39031
H 0.661022 9.42009 3.28055
O -12.7255 -10.1784 7.54959
H -12.9568 -11.0166 7.05572
H -13.3731 -10.044 8.29971
O -13.452 6.02552 13.6449
H -13.6761 6.6897 14.3581
H -14.0854 5.25348 13.6974
O 10.0956 -12.2999 -6.59122
H 9.39959 -12.8451 -7.0586
H 9.79797 -11.3462 -6.5472
O -10.3981 4.51541 -6.56363
H -10.0052 5.21174 -5.96291
H -11.2623 4.1919 -6.17835
O 6.48627 13.7994 -13.2353
H 6.90805 13.0227 -12.7673
H 5.67086 14.0881 -12.7335
O 7.10054 -7.22344 13.4921
H 6.66626 -7.98964 13.9659
H 6.77991 -7.19199 12.5454
O -7.9968 13.3144 -8.7344
H -8.65575 13.0328 -8.03689
H -7.34387 13.9583 -8.33545
O 1.22234 -10.2136 -3.26373
H 0.301626 -10.3237 -2.88927
H 1.26084 -9.37946 -3.81395
O 1.80804 -8.84596 -0.532139
H 0.96683 -8.9998 -1.05056
H 1.88095 -9.52851 0.195094
O 10.5299 9.22304 -2.70808
H 10.923 8.4041 -3.12628
H 10.5629 9.97949 -3.36134
O 10.8215 14.563 -12.0516
H 10.6439 13.8297 -12.708
H 11.7818 14.8361 -12.1088
O 2.76708 -4.0209 9.51079
H 2.57336 -4.05934 10.4911
H 2.96535 -3.07689 9.24696
O 4.69672 8.85197 -0.78827
H 4.586 9.24914 -1.69934
H 4.57837 7.86033 -0.840314
O 5.50656 -6.30842 -0.561513
H 5.11791 -6.27896 0.359435
H 5.89583 -7.21399 -0.730218
O -7.70641 13.7659 12.3961
H -6.95323 14.2829 12.8029
H -7.38684 13.3086 11.5662
O 0.436783 7.05679 -7.05215
H 0.0926668 6.22271 -7.48337
H 0.830945 6.83297 -6.16075
O -10.5109 9.5421 -12.5545
H -9.64741 9.07592 -12.362
H -10.4768 9.94201 -13.4705
O -6.04266 7.68992 -0.243968
H -5.69851 8.34771 0.426056
H -6.42299 8.18068 -1.02791
O 11.9941 13.961 -9.5283
H 11.4722 14.3108 -10.3063
H 12.8489 13.5575 -9.85473
O -8.39225 -11.368 -0.228027
H -9.34052 -11.3283 -0.543119
H -7.81595 -11.7467 -0.952266
O -12.9312 10.2912 9.61165
H -12.957 10.1001 10.5929
H -11.9874 10.4654 9.33069
O 8.81977 1.31287 12.0284
H 8.63044 1.10315 12.9876
H 9.69477 0.906696 11.7648
O 4.9454 -9.8664 -7.24664
H 4.01307 -9.69813 -7.56682
H 4.95297 -9.90392 -6.24734
O -5.15141 -4.68432 12.4381
H -5.14366 -4.55886 11.446
H -5.91952 -5.27141 12.6938
O -10.9795 7.38979 -0.142944
H -10.0871 7.28028 0.294923
H -11.6674 7.60285 0.550962
O 9.62564 2.9382 0.505519
H 8.97615 3.45084 -0.0561085
H 9.5269 1.96037 0.320685
O 10.6893 -10.4418 10.2037
H 11.2605 -10.1074 9.45407
H 10.5941 -9.72564 10.8952
O -11.3146 -8.7727 -3.49948
H -10.6044 -9.47378 -3.43455
H -11.0947 -8.14357 -4.24507
O 4.94097 -2.29115 14.9132
H 4.24512 -1.61822 -14.7081
H 5.72487 -1.8235 14.5047
O 2.8367 -5.51889 -8.8451
H 2.81345 -4.55092 -9.09524
H 1.99636 -5.75766 -8.3584
O -4.05728 -1.57144 -12.5438
H -3.18799 -1.44855 -12.065
H -3.88107 -1.83778 -13.4915
O 3.75975 5.84988 -6.21504
H 3.12516 6.39536 -5.66749
H 3.37999 4.93504 -6.35255
O -0.48439 -2.24694 14.6109
H -0.536658 -1.9834 13.6477
H -0.253236 -1.44616 -14.7088
O 9.96116 -13.2896 11.8498
H 9.04341 -12.9416 11.6583
H 10.6082 -12.903 11.1926
O 9.0201 0.332026 -0.299687
H 9.32514 -0.364543 0.349779
H 8.1484 0.0530974 -0.702673
O -4.51313 12.835 -9.25311
H -5.0756 12.8015 -8.42692
H -5.08145 13.0979 -10.0328
O -6.42123 -12.201 -7.38313
H -6.81994 -11.7025 -8.15294
H -6.9214 -11.9777 -6.54646
O -9.01211 -13.2503 -10.102
H -9.12202 -13.1384 -9.11433
H -9.60081 -13.9931 -10.4209
O 6.66296 -11.528 0.69116
H 5.8791 -11.2073 1.22288
H 6.35913 -12.2146 0.0305396
O 4.94293 -12.44 9.52927
H 5.68824 -11.8552 9.20897
H 4.31462 -12.6233 8.77318
O 13.0202 -3.53703 -13.8194
H 12.3515 -4.10736 -14.2965
H 13.1829 -2.70272 -14.3462
O -3.18061 -1.73382 9.02792
H -3.98792 -1.4168 9.52574
H -3.01043 -1.12953 8.2495
O 11.4321 -11.4302 -13.5332
H 11.8938 -11.8021 -12.7278
H 11.2625 -12.1655 -14.1894
O 9.0916 -9.69902 7.49447
H 9.34036 -10.1487 6.63657
H 9.55496 -8.81481 7.55393
O 3.37941 10.5418 -9.78717
H 2.78565 9.93146 -9.26273
H 4.30838 10.1718 -9.80153
O 14.6194 -12.9702 -7.99573
H 13.8163 -13.4213 -7.60649
H -14.7689 -13.609 -8.59375
O 2.95114 -12.0363 -11.1115
H 3.88639 -12.3775 -11.2064
H 2.78106 -11.3335 -11.8023
O 12.806 6.93478 5.91184
H 13.5756 7.05611 5.28491
H 12.5303 5.97351 5.91913
O -9.95524 -9.79097 3.03312
H -9.46191 -10.6571 2.95192
H -10.9335 -9.95098 2.90124
O -13.1349 11.7991 -1.02765
H -12.5249 12.5168 -1.36349
H -13.7164 11.4789 -1.77558
O -11.6243 -2.21906 -5.32265
H -11.5756 -2.75542 -4.48003
H -12.495 -2.39692 -5.78116
O -8.21255 -5.66817 8.37018
H -8.44819 -4.94223 7.72401
H -7.43686 -5.37708 8.93021
O 7.54215 -4.63093 -13.118
H 8.06702 -5.11459 -12.4175
H 6.7122 -4.25089 -12.7096
O -3.04772 12.5123 -14.3354
H -3.63833 11.7867 -13.9822
H -2.66052 13.0285 -13.5714
O 0.404895 -7.73833 3.25145
H 0.927879 -8.5876 3.32422
H 0.770933 -7.06535 3.89425
O 9.66227 12.095 5.27413
H 8.86047 11.9159 4.70394
H 9.84122 11.3018 5.85626
O 13.6218 9.84512 4.60485
H 13.8806 8.90927 4.36562
H 13.8034 10.0034 5.57543
O -4.94822 -11.6835 14.8
H -4.52633 -10.852 -14.7108
H -4.63426 -12.473 -14.5449
O -5.11291 -13.6937 -4.96443
H -5.22626 -13.0484 -5.71997
H -4.31638 -13.4321 -4.4193
O -4.61373 5.22932 0.408139
H -5.19467 4.65805 0.987989
H -5.05438 6.11553 0.264891
O -7.19375 7.24903 9.2663
H -7.57592 6.90027 10.1221
H -6.51568 6.60272 8.91621
O -7.52378 3.75546 -4.64258
H -8.27287 4.27153 -4.22713
H -7.18765 4.24514 -5.44713
O 5.1342 9.81524 -6.70831
H 6.13283 9.8196 -6.65546
H 4.84155 10.31 -7.52661
O -11.1367 2.28009 -10.8766
H -11.9364 2.83819 -11.0981
H -10.3074 2.82858 -10.9838
O -12.7954 -10.0985 -5.96215
H -12.3759 -9.40368 -5.37792
H -12.5311 -9.93813 -6.91319
O -7.25748 -0.915463 5.12867
H -7.32013 0.0614997 4.92451
H -7.39057 -1.44082 4.28823
O -0.939056 11.9391 -5.05978
H -0.169324 12.103 -5.67681
H -1.47589 11.1648 -5.39485
O 10.267 -2.27909 -0.00813995
H 10.4838 -2.78269 0.828181
H 9.85602 -2.90108 -0.674702
O -12.2747 -4.14944 12.2534
H -11.3334 -4.47166 12.1526
H -12.5994 -3.78985 11.3786
O 10.2276 -11.9968 -2.40377
H 10.3265 -11.0828 -2.01003
H 11.0381 -12.215 -2.94735
O -13.7789 -12.7931 6.71079
H -14.6622 -13.2468 6.59221
H -13.247 -12.8736 5.86777
O -12.4631 11.9058 -14.2352
H -12.5638 12.8911 -14.3737
H -11.615 11.5939 -14.6636
O -5.89161 -7.52739 2.31865
H -6.68914 -7.90378 1.84712
H -5.66487 -8.10484 3.103
O -1.56837 -11.8544 2.45101
H -2.48359 -11.9888 2.07102
H -1.60583 -11.9353 3.44706
O -6.6891 -9.59332 10.4144
H -6.88812 -10.5717 10.3569
H -7.54669 -9.07928 10.4336
O 3.9725 12.4142 -5.7113
H 3.00314 12.2227 -5.55734
H 4.47098 11.5529 -5.8096
O 10.8105 7.46425 -12.7878
H 10.1546 6.90291 -12.2831
H 11.5938 6.90281 -13.0547
O 10.0827 -0.532606 6.92523
H 10.5296 0.273913 7.31238
H 10.7712 -1.22724 6.7166
O -10.4018 -13.8749 -14.9146
H -9.60947 -13.3192 -14.6628
H -10.9132 -13.4163 14.2309
O -1.91219 12.4575 -8.27303
H -2.51569 12.1792 -9.0203
H -0.967859 12.2205 -8.50135
O 6.79131 13.4258 8.31036
H 6.1139 12.7645 8.63261
H 7.39728 12.9861 7.64741
O -7.95949 -5.74192 -13.8314
H -7.25422 -6.44828 -13.8923
H -7.54883 -4.88741 -13.5133
O 11.3233 10.0829 -13.2245
H 11.7259 9.82445 -14.1027
H 11.3983 9.31748 -12.5853
O 3.31182 3.93849 10.0425
H 3.4959 4.57431 10.7921
H 2.55947 4.28942 9.48487
O 13.6084 1.83766 -12.9232
H 12.9363 1.12469 -13.1233
H 14.5289 1.48474 -13.0915
O -0.319498 4.20184 2.2506
H -0.386719 5.19869 2.2076
H 0.614485 3.94097 2.49491
O -12.1526 -12.7218 -5.70827
H -12.9918 -13.1114 -5.32862
H -12.2954 -11.7522 -5.9071
O -11.2247 -10.9092 -0.720627
H -12.1274 -11.2914 -0.523168
H -11.2226 -9.93211 -0.507437
O 11.9645 -14.5077 -1.19353
H 12.8344 -14.3076 -1.64445
H 11.4555 -13.6574 -1.05878
O -9.16921 9.06307 -1.67658
H -9.10351 9.92302 -1.17039
H -9.99857 8.57679 -1.40132
O 1.71619 -1.56126 -11.8366
H 2.19071 -1.2017 -11.0331
H 1.28748 -2.43513 -11.6072
O 6.23409 1.13374 -3.76266
H 7.18376 1.31664 -4.01709
H 5.89985 0.339903 -4.27077
O 4.97321 14.8851 3.21709
H 4.06645 -14.6659 2.94394
H 5.02689 14.8475 4.21497
O -14.3637 -4.9255 -13.3575
H 14.7132 -4.31936 -13.3516
H -13.6942 -4.59053 -14.0206
O -6.12401 14.8014 -7.67881
H -5.28312 14.5501 -7.19944
H -6.37127 -14.13 -7.44712
O -12.7788 -3.89566 9.56195
H -13.1243 -4.6738 9.0374
H -12.6892 -3.1017 8.96057
O -7.00959 7.52721 -6.37014
H -7.71701 7.02674 -5.87099
H -6.15383 7.01049 -6.34322
O -7.55955 8.29971 -9.04301
H -7.00986 8.02846 -8.25286
H -8.40765 7.77 -9.05671
O 6.37011 -0.671789 2.477
H 5.89613 -0.716548 3.35644
H 5.9459 0.0303569 1.90508
O -14.3617 0.976106 14.6189
H -13.728 1.7452 14.536
H -14.3258 0.423357 13.7863
O -14.6973 -0.106764 -7.66837
H -13.8582 0.309906 -8.01811
H -14.486 -1.00082 -7.27333
O 8.59579 5.95496 -6.06605
H 7.63746 5.9591 -6.35178
H 8.67646 6.37884 -5.16389
O 9.89699 4.84719 10.7144
H 10.0039 5.7638 10.3291
H 8.92725 4.60345 10.7307
O 5.50611 -10.0221 -13.292
H 5.7271 -9.10188 -12.9688
H 4.52651 -10.1887 -13.1793
O -3.93382 2.96768 14.7495
H -4.67987 2.44326 14.3391
H -3.35691 2.35754 -14.5797
O -7.97084 -3.76467 -9.71857
H -8.54523 -4.04556 -10.4875
H -7.76759 -2.78838 -9.79354
O 2.52384 12.9799 -0.0502618
H 2.62461 12.3225 -0.797131
H 3.05961 12.6746 0.737022
O -4.17686 12.8176 12.9191
H -4.04263 13.7987 12.7791
H -3.54771 12.4925 13.6252
O -5.9388 -3.34477 -3.06323
H -5.52808 -4.00899 -3.68788
H -6.93535 -3.40738 -3.11828
O -0.917737 9.14488 5.89163
H -0.526817 10.0238 6.16506
H -1.13745 8.60961 6.70727
O 7.95721 9.7049 -6.33001
H 8.81209 10.085 -6.68322
H 8.14837 8.85605 -5.83709
O 6.34992 -1.01159 12.9884
H 6.77406 -0.215025 13.4192
H 6.51734 -0.98608 12.0028
O -4.947 13.4923 5.34624
H -4.71871 12.5187 5.33739
H -5.9202 13.6047 5.54702
O 11.1873 0.151819 11.5474
H 11.3168 -0.36795 10.703
H 11.4524 -0.411856 12.3297
O 11.8161 -0.915021 14.0095
H 11.1088 -1.62009 14.0617
H 11.7749 -0.340455 14.827
O -12.096 -8.21585 -13.3024
H -11.7999 -7.47157 -13.9011
H -13.0568 -8.08486 -13.0579
O 9.27303 3.0811 -10.373
H 9.96442 3.66973 -9.95406
H 9.71749 2.28455 -10.783
O 7.97225 14.1835 -10.3477
H 8.66802 13.6633 -10.843
H 7.76429 13.7239 -9.48421
O -7.799 -11.4452 -5.09155
H -7.22606 -10.6426 -5.25797
H -8.35358 -11.2949 -4.27306
O -12.3716 -0.78111 7.89229
H -12.2988 -0.952998 6.90983
H -12.5391 0.192282 8.04886
O 3.65865 0.271744 5.59336
H 4.46548 0.641278 6.05439
H 3.62458 0.615094 4.65474
O -9.03496 -14.5616 10.4121
H -9.91733 14.8845 10.2125
H -8.98402 -14.3412 11.3862
O -6.72461 -12.0775 3.79925
H -6.10287 -12.8409 3.97455
H -7.04131 -11.6991 4.66905
O 6.19149 -10.2222 -9.67853
H 5.77723 -9.89149 -8.83054
H 6.33565 -9.45302 -10.3012
O -11.2521 13.8939 -1.77128
H -11.0385 14.3544 -2.63286
H -11.7594 14.5177 -1.17671
O -4.47374 1.74079 3.88455
H -5.23397 2.14815 4.39068
H -4.37758 0.779766 4.14388
O -4.47091 1.68865 7.49535
H -5.4677 1.75035 7.54683
H -4.0632 2.33346 8.14192
O 5.33203 1.78224 0.916261
H 5.97967 2.49076 1.19666
H 5.68144 1.31348 0.104938
O 0.319837 12.1429 9.54044
H 0.772661 11.3413 9.1499
H -0.472202 12.3844 8.97975
O 3.06419 6.67892 5.54501
H 3.07026 6.59731 4.54834
H 4.00435 6.67173 5.88577
O 3.28718 13.4755 7.32529
H 2.40913 13.3057 6.87779
H 3.20238 14.2608 7.93856
O 3.85953 -12.72 -14.4749
H 3.91384 -12.2159 14.5354
H 3.53836 -13.6502 -14.6525
O -12.5154 -14.4108 0.582862
H -11.7964 -14.3496 1.27528
H -12.8518 -13.4936 0.369671
O 10.1016 10.7358 -7.89076
H 11.0631 10.4752 -7.97759
H 10.04 11.6907 -7.60008
O -6.41454 11.345 -14.1055
H -6.66488 10.889 -13.2514
H -7.23871 11.6962 -14.5498
O 14.1643 -9.69849 -12.9653
H 14.9114 -9.41929 -12.3621
H 13.4481 -9.00067 -12.9538
O -11.9681 -5.77378 2.53236
H -11.7527 -6.2895 3.36166
H -11.4124 -6.11482 1.77406
O -8.39048 -8.77818 13.7837
H -8.56128 -9.45723 13.0697
H -7.40458 -8.66696 13.909
O 1.41915 -5.69771 4.95992
H 0.915035 -4.85964 4.75115
H 2.18989 -5.48243 5.55965
O -11.6483 6.27839 -2.75254
H -11.0265 5.54005 -3.01394
H -11.2734 6.76645 -1.9643
O -11.0447 -0.555995 -11.4025
H -10.0483 -0.608985 -11.3364
H -11.3653 0.274135 -10.9462
O -6.47907 0.21579 0.00871939
H -5.72721 0.689143 0.467744
H -6.17207 -0.688615 -0.287692
O 13.1634 12.7057 14.068
H 12.5971 12.8361 14.8819
H 12.9038 13.374 13.3708
O 3.26643 -7.10999 -1.88101
H 2.61216 -7.68214 -1.38641
H 4.09562 -7.00153 -1.33261
O 2.41357 4.4562 -3.37099
H 1.63205 3.87145 -3.58859
H 3.26211 3.95206 -3.53191
O 14.7668 2.02901 4.00885
H -14.8854 1.16065 4.45333
H 13.8514 2.32218 4.28494
O -14.5427 -1.5693 -13.9545
H -13.968 -2.22689 -14.4417
H -14.4672 -0.672873 -14.3913
O -4.64808 10.5368 -0.488705
H -3.83863 10.4776 0.0955414
H -4.42198 10.2084 -1.4058
O 0.913442 -11.3806 9.55493
H 0.0611366 -11.4073 10.0773
H 0.82323 -10.7273 8.80316
O 9.89534 11.1479 -10.7606
H 9.91699 11.1099 -9.76157
H 10.6449 10.5995 -11.1314
O -1.54965 -1.22364 -2.48827
H -2.53178 -1.34589 -2.63162
H -1.39992 -0.582862 -1.73525
O 7.86333 -5.89724 10.3133
H 7.86286 -6.84439 9.99238
H 7.25149 -5.35113 9.741
O 8.82331 -4.02676 -2.05598
H 9.01199 -3.40587 -2.81688
H 7.83875 -4.05188 -1.88255
O 9.06479 11.8007 1.39637
H 9.84201 12.428 1.44603
H 8.43531 11.9896 2.15012
O -2.637 2.57331 -2.23896
H -2.4074 3.21933 -1.51095
H -3.33911 2.97189 -2.82909
O 11.7063 -7.91816 -0.419857
H 10.9792 -7.74402 -1.08402
H 12.3069 -7.1204 -0.366344
O 9.7163 -5.77054 -8.93301
H 10.5592 -6.22217 -8.64029
H 9.63578 -5.82774 -9.92815
O 11.4729 -2.85451 4.44117
H 10.4757 -2.82439 4.37344
H 11.865 -2.08988 3.92962
O 5.62412 12.697 -0.920808
H 5.0685 12.8593 -1.73629
H 5.23913 11.9339 -0.401617
O 5.39544 14.4354 5.83084
H 4.55145 14.1004 6.2498
H 6.17422 14.1909 6.40858
O -4.20916 14.045 -1.69677
H -3.5568 13.9537 -0.944341
H -5.13951 13.9369 -1.34627
O -11.6253 0.146962 -3.91174
H -12.5039 0.537035 -4.18754
H -11.5471 -0.783839 -4.26888
O -4.90161 0.228469 -8.24216
H -4.63468 0.704513 -7.40419
H -4.31556 -0.571338 -8.37226
O 5.81132 -1.05405 8.31391
H 5.64148 -2.03948 8.32563
H 6.38685 -0.805723 9.09312
O 4.37863 -2.36508 -2.62717
H 5.12246 -2.8782 -2.19882
H 3.61536 -2.98207 -2.81904
O 9.49878 7.42484 -8.31754
H 8.96015 6.85115 -7.70045
H 9.50601 8.36516 -7.97723
O 4.9813 -10.211 -4.24411
H 5.8159 -9.7967 -3.88097
H 4.40859 -10.5255 -3.48702
O 7.63412 -14.1944 9.75013
H 6.99326 -13.5353 10.1437
H 7.14024 14.8491 9.48699
O 12.5696 3.11301 -7.40356
H 13.332 3.67361 -7.72696
H 12.3163 2.45422 -8.11199
O 10.7878 5.0683 -9.55016
H 10.4307 5.91818 -9.16253
H 11.714 5.22223 -9.8943
O -6.4232 -3.62194 -13.2808
H -6.35075 -2.6898 -12.9259
H -5.52633 -3.92748 -13.6006
O -14.3985 14.5997 -1.60286
H 14.8916 13.8225 -1.84182
H -13.8792 14.3852 -0.775551
O -14.3962 -7.29048 -11.9224
H 14.6773 -7.19416 -11.3285
H -14.433 -6.60017 -12.6451
O -12.6227 8.37763 -8.89435
H -11.8275 8.96985 -8.76392
H -12.8798 7.96727 -8.01938
O -1.37945 2.46174 -12.5975
H -1.05058 3.40576 -12.6245
H -1.75968 2.21553 -13.489
O 11.1031 -0.156065 -10.916
H 11.8099 -0.845189 -11.0763
H 10.308 -0.587031 -10.4892
O 2.90556 -12.2702 4.99618
H 2.12925 -11.6986 4.73037
H 3.74467 -11.8985 4.59897
O -9.93545 13.8857 -10.8923
H -9.25619 13.6051 -10.2141
H -10.647 13.1863 -10.9605
O -5.32086 4.82612 11.8239
H -5.88766 5.27831 12.5126
H -5.30488 3.84174 11.9994
O -7.00253 12.4547 -0.383876
H -7.55972 11.7251 0.0126681
H -6.24359 12.0533 -0.896662
O -14.6153 -6.79025 -1.70812
H -14.8906 -6.35979 -0.848487
H 14.4456 -6.97894 -2.2613
O 12.1304 2.18939 4.54786
H 11.2116 1.98311 4.21132
H 12.255 1.7777 5.45066
O 3.24602 1.18649 14.2644
H 2.45263 1.73377 14.531
H 3.51562 0.597209 -14.8463
O -9.93823 10.7722 14.366
H -9.84301 11.7618 14.474
H -9.73349 10.5188 13.4205
O 3.74056 -11.621 12.9306
H 3.38699 -12.395 12.4053
H 4.36224 -11.086 12.3584
O -1.72035 2.87187 4.85548
H -1.1883 3.04497 4.02661
H -2.51746 2.31202 4.62905
O -7.55315 2.34755 -1.17673
H -7.23892 1.46833 -0.818544
H -8.05724 2.19984 -2.02769
O -4.07087 5.09839 -13.2051
H -3.12303 5.33822 -12.995
H -4.09209 4.4818 -13.9921
O -9.37242 6.61659 -5.31161
H -10.213 7.1581 -5.32493
H -9.11457 6.42459 -4.36467
O 4.86354 -10.2539 2.29543
H 5.28796 -10.7266 3.06779
H 4.77165 -9.2814 2.50946
O -9.25862 13.4764 14.5907
H -9.95736 14.1667 14.7784
H -8.83017 13.6674 13.7075
O 11.7924 13.4261 3.91216
H 11.5498 13.656 2.96963
H 11.0049 13.0101 4.36704
O -7.38163 10.0837 -5.47816
H -8.24695 10.5832 -5.4368
H -7.47646 9.30333 -6.09637
O 1.39157 11.0704 11.9166
H 1.21525 11.2566 12.8832
H 0.643262 11.4381 11.3644
O -9.3185 1.43626 6.74545
H -9.95951 2.20312 6.77864
H -9.82731 0.575521 6.76307
O 8.9608 2.18852 -12.9766
H 8.76004 2.03716 -13.9445
H 8.24167 1.77468 -12.4184
O -1.13995 -8.89516 5.35558
H -1.96051 -9.40925 5.10566
H -0.687917 -8.56533 4.52677
O -0.293202 -11.4775 -5.36533
H 0.397429 -10.9879 -4.83303
H -0.398431 -11.0393 -6.25807
O -8.21999 -12.901 -14.0506
H -8.24011 -12.1646 -13.3743
H -7.61206 -13.6287 -13.7329
O -8.62977 7.44141 -12.2578
H -7.9656 7.32177 -12.9958
H -9.28779 6.6886 -12.2763
O 6.77005 -2.69624 -10.2451
H 6.00108 -3.13498 -10.7101
H 6.99421 -3.20829 -9.41587
O -2.0175 5.56244 6.21781
H -1.82598 4.64029 5.88162
H -1.15782 6.05964 6.33527
O 10.8811 13.058 -2.26997
H 11.2288 13.8879 -1.83358
H 9.94022 12.8945 -1.97316
O -10.3063 3.23866 -3.72223
H -10.9343 3.19805 -4.49947
H -10.3935 2.40341 -3.17926
O 10.7187 -13.4993 14.7439
H 10.5299 -13.7261 13.7884
H 9.86928 -13.5395 -14.6021
O -3.80826 9.63083 -2.94769
H -3.95386 8.64939 -3.07273
H -2.898 9.87778 -3.28009
O 2.49162 10.8946 -1.9057
H 3.01009 10.3932 -2.59839
H 1.74757 11.3976 -2.34553
O -2.8272 -11.6136 9.56199
H -2.59677 -10.6546 9.7268
H -3.35693 -11.6887 8.71711
O -2.10636 6.26769 -3.06047
H -1.72914 5.84839 -3.88628
H -3.09921 6.14857 -3.04986
O 10.0011 13.242 -7.03885
H 9.75823 13.7254 -6.19779
H 10.9224 13.5082 -7.32221
O 14.7165 -4.57738 12.635
H -14.1561 -4.57549 12.6602
H 14.3793 -3.63934 12.7153
O 4.19581 14.2427 -11.81
H 3.64722 13.6139 -11.2589
H 4.13286 -14.7082 -11.4263
O -2.95732 -7.50894 6.85998
H -2.24873 -8.04834 6.40499
H -3.82855 -7.99784 6.81536
O -3.51265 -8.35374 -2.44715
H -3.91158 -9.04617 -1.84594
H -4.24241 -7.87984 -2.94003
O 14.0527 12.2347 -3.09362
H 13.7759 11.2743 -3.12472
H 13.2407 12.8134 -3.01711
O 11.4119 -7.98446 2.82441
H 11.4525 -8.37527 1.9048
H 12.2607 -8.18991 3.31168
O -10.9302 4.17324 6.45146
H -11.8635 4.46468 6.6614
H -10.2805 4.79774 6.885
O 9.70107 -5.97897 -11.7721
H 10.2662 -6.00813 -12.5966
H 9.31195 -6.88445 -11.6025
O -9.59117 5.94778 -8.88818
H -9.52918 5.33625 -9.67702
H -9.76676 5.41072 -8.06308
O -13.727 1.17358 -5.16612
H -14.2374 0.425976 -4.74111
H -14.0024 1.26331 -6.12329
O -1.40884 5.41835 -12.3592
H -1.08713 6.17182 -11.7858
H -0.945532 5.45214 -13.2448
O 12.1783 4.04901 12.1313
H 11.3268 4.46914 11.8173
H 12.7308 4.73224 12.6088
O -12.4825 8.1902 2.14607
H -12.1704 8.2676 3.09299
H -12.9764 9.02088 1.88895
O -10.8933 1.45547 2.43042
H -11.5547 1.65967 1.70872
H -10.3107 0.695092 2.1432
O -0.118603 8.18523 -3.79405
H -0.784552 8.55571 -4.4416
H -0.595154 7.65609 -3.09193
O -2.83779 -13.2411 -0.59211
H -3.05478 -14.1594 -0.260839
H -2.85336 -12.5982 0.173688
O 14.5717 1.76776 1.02267
H 14.0647 2.61013 0.840113
H -14.9138 1.80458 1.94415
O -9.71597 10.0289 -8.23686
H -9.65211 9.55206 -7.36016
H -8.85277 9.93235 -8.73247
O -2.22432 7.37856 -0.395786
H -2.00963 6.88992 -1.24148
H -3.20665 7.32072 -0.217595
O -4.1339 -5.20391 2.46378
H -3.96529 -5.20559 3.44949
H -4.89618 -5.81659 2.25496
O 0.652394 11.5247 -8.34049
H 1.17821 10.8109 -7.87791
H 1.27169 12.1052 -8.86926
O 3.59205 14.3927 -7.69185
H 3.73006 13.9992 -6.78289
H 4.40881 14.9027 -7.96181
O -10.4558 5.54642 3.91954
H -10.5986 4.99325 4.74032
H -10.968 6.40151 4.00059
O 2.96651 -7.6853 12.6586
H 3.48484 -7.59092 13.5086
H 3.4511 -7.21805 11.9191
O -3.7519 -13.9269 -13.4599
H -3.21467 -14.3317 -12.7199
H -4.44513 -14.5802 -13.7644
O 13.3106 -14.3329 2.5666
H 12.6335 -14.4859 3.28649
H 13.0576 -13.5226 2.03788
O -5.07331 6.44364 -10.4472
H -5.51259 7.25401 -10.0594
H -5.75757 5.8867 -10.918
O 7.41704 -11.9722 -5.075
H 7.40011 -12.5737 -4.27629
H 7.01701 -12.4474 -5.85872
O 1.59885 -2.92906 -9.1167
H 1.1032 -2.69359 -8.28067
H 1.02762 -3.51837 -9.68808
O -7.12506 -1.17107 7.83024
H -7.94678 -1.57818 8.2291
H -7.26766 -1.02337 6.85151
O -8.30716 6.78009 12.0357
H -7.62824 6.61967 12.7522
H -8.55312 5.90989 11.6087
O 0.0396087 11.6881 -12.4714
H 0.325107 12.618 -12.2394
H -0.596966 11.3519 -11.7773
O 1.61132 8.84375 -0.424003
H 2.50465 8.56605 -0.070577
H 1.72318 9.6293 -1.03265
O -5.24792 4.58374 6.26088
H -5.1209 5.23829 7.00619
H -4.36968 4.163 6.03346
O -2.66769 4.86281 -10.0313
H -3.48799 5.40355 -10.2178
H -2.15931 4.72449 -10.8813
O -2.74899 6.35359 12.0294
H -3.53877 6.12238 11.4612
H -3.06368 6.74513 12.8941
O -1.70862 -13.0451 -7.93695
H -1.90776 -13.9401 -7.53776
H -0.742203 -13.0006 -8.19016
O -2.98287 -7.08967 -10.4578
H -3.85658 -6.64698 -10.256
H -3.08854 -8.08183 -10.3906
O 8.83444 -8.08277 -4.77424
H 9.80865 -7.97271 -4.57711
H 8.47184 -7.22969 -5.14952
O -2.63072 13.9439 -4.15372
H -3.24458 14.1266 -3.3857
H -2.18444 13.0589 -4.02049
O 11.9782 -7.29608 -8.17961
H 11.9294 -8.14809 -8.70091
H 12.936 -7.05973 -8.01606
O 6.4749 4.84103 13.0928
H 6.86243 4.58592 12.2069
H 7.21089 4.93964 13.7626
O -3.23222 14.4866 -6.94823
H -2.77122 13.8093 -7.52162
H -3.12064 14.2398 -5.98559
O -7.15135 3.0545 -14.4828
H -8.05335 3.05123 -14.9146
H -6.61988 2.27531 -14.8152
O 13.7404 -4.92071 4.08224
H 12.9704 -4.33753 3.82317
H 14.395 -4.96338 3.32742
O -1.94475 -3.51935 -4.40619
H -1.77079 -2.78193 -3.75351
H -1.336 -4.28823 -4.21046
O 12.2727 -9.73382 7.84084
H 13.1112 -9.40148 8.27273
H 11.727 -8.9557 7.52976
O 13.7707 4.34563 0.142946
H 13.3563 4.99419 0.781491
H 14.4311 4.82374 -0.436143
O -14.289 -4.05359 5.81384
H 14.9178 -4.38291 5.14402
H -14.3736 -4.58493 6.6568
O -4.49707 2.11401 -5.67769
H -5.47622 1.92089 -5.6141
H -4.34137 3.09331 -5.54813
O -9.47164 11.5743 -5.29879
H -9.34261 11.9605 -4.3854
H -9.99759 12.2137 -5.85974
O 5.72665 9.68589 3.80622
H 5.51524 8.78533 3.42628
H 5.54829 9.68275 4.79022
O 14.09 4.26297 10.1703
H 13.4301 4.11531 10.907
H 14.6934 5.02338 10.4107
O -13.5629 10.5206 1.28204
H -14.2498 11.0693 1.75876
H -13.4176 10.8918 0.364887
O -3.83976 14.4218 9.59366
H -4.45343 13.6561 9.7862
H -3.0865 14.4189 10.2514
O 9.81648 8.75012 12.1279
H 9.88628 8.00363 12.7897
H 10.2793 9.55983 12.4887
O -12.5958 -10.5999 -10.9255
H -12.289 -11.3652 -11.4914
H -12.3315 -9.73814 -11.3585
O 4.92216 12.7925 14.2784
H 4.58171 11.9364 14.6675
H 5.47464 13.272 -14.9121
O -5.45757 -3.29679 7.631
H -6.0479 -2.49575 7.73052
H -4.51568 -3.04667 7.85538
O 8.12583 12.1272 14.3049
H 7.90648 12.444 13.3821
H 7.59904 12.6539 -14.9002
O -7.05959 2.17798 5.19365
H -7.90906 1.93792 5.66358
H -6.6475 2.9745 5.63613
O 4.68493 -12.9355 -5.21163
H 4.76968 -13.7726 -4.67099
H 4.69008 -12.1429 -4.60188
O -7.82019 -7.18376 -1.09891
H -7.55737 -7.64229 -1.94787
H -7.6209 -7.78102 -0.321982
O -6.74316 4.80784 -12.3192
H -5.80016 5.10916 -12.4606
H -6.94655 4.0481 -12.9368
O -1.55674 -1.50093 -11.5763
H -1.38657 -2.48381 -11.5053
H -1.62591 -1.10751 -10.6595
O -0.453057 -12.6543 -13.8874
H -0.567956 -13.6472 -13.9165
H 0.276685 -12.3846 -14.5158
O -9.66897 4.70107 11.188
H -10.1018 4.8818 12.0712
H -10.1167 3.92102 10.7508
O 3.10347 14.7626 -2.1264
H 2.74858 14.505 -1.22763
H 2.35076 -14.7935 -2.70389
O -3.13464 9.89136 2.37937
H -2.24336 9.508 2.62166
H -3.85871 9.33608 2.78859
O 7.38909 -2.97578 1.37255
H 8.2927 -2.7913 0.985873
H 6.89401 -2.11467 1.48849
O -7.74519 -14.8771 -0.595045
H -7.46678 14.0478 -0.436977
H -8.60639 -14.6989 -0.118979
O 12.5197 -12.4101 10.7006
H 11.9937 -11.5638 10.6164
H 13.3604 -12.2307 11.2116
O 6.67872 6.93025 9.11411
H 5.92946 6.94304 9.77631
H 7.3555 7.62309 9.36311
O -0.197882 6.90906 1.81797
H -0.892451 6.9565 1.10007
H -0.141613 7.79095 2.28613
O 12.394 -3.15725 10.0872
H 11.5 -2.7392 10.2484
H 13.0341 -2.85858 10.7952
O 9.83833 -2.2742 -3.79689
H 10.3013 -1.59322 -3.22947
H 10.2698 -2.30573 -4.69853
O 13.0518 -0.886203 0.416582
H 13.599 -0.0563935 0.306792
H 12.4435 -0.990887 -0.370244
O 7.36369 -13.0401 13.4257
H 7.74907 -13.1435 14.3427
H 7.0223 -13.924 13.106
O -1.08905 10.0731 -0.0965462
H -1.71428 9.30569 0.0458656
H -0.147928 9.76757 0.0484792
O 0.720375 11.6093 14.6821
H 0.540095 11.5234 -14.2103
H 0.497873 12.537 14.3824
O -12.4148 13.3143 12.1457
H -11.9588 13.2254 11.2602
H -13.4019 13.3935 12.0059
O -0.729006 -14.2096 -5.26749
H -1.54141 -14.5801 -4.81718
H -0.869104 -13.2387 -5.4616
O -14.6164 10.563 7.43522
H -14.1825 10.3969 8.32074
H 14.6733 11.3736 7.49637
O -10.628 -3.32196 3.37261
H -10.2433 -2.88641 2.55874
H -11.1554 -4.12734 3.10191
O -9.71447 1.64205 -7.19156
H -9.43751 2.46168 -6.69
H -8.97983 1.36654 -7.8116
O -14.166 -0.433018 4.53105
H -14.4314 -0.837865 3.65599
H -13.694 -1.11823 5.08586
O -8.17092 -4.84906 1.96617
H -7.47609 -5.00464 1.26399
H -7.85929 -5.23462 2.83467
O -9.22916 12.0248 -2.3406
H -8.44395 12.2107 -1.74988
H -10.0177 12.551 -2.0223
O -6.49277 13.9074 -4.49448
H -5.82119 14.6439 -4.57576
H -6.18138 13.2462 -3.8119
O -6.00289 0.180459 -12.3036
H -5.25697 -0.478893 -12.3981
H -5.77134 1.01871 -12.7974
O 12.5948 8.38248 -5.94365
H 12.3324 7.41777 -5.96739
H 12.5276 8.76893 -6.86354
O -7.55754 14.4853 5.9432
H -7.47867 14.549 6.93809
H -8.49651 14.6936 5.66927
O 12.4484 14.5222 -4.26643
H 11.4784 14.6549 -4.47031
H 12.8306 13.8424 -4.89244
O 13.1179 -3.58093 -2.15198
H 13.8647 -3.08954 -1.70384
H 12.5532 -4.03156 -1.46054
O -9.64965 -10.3533 11.6796
H -9.93135 -10.0694 10.763
H -10.1445 -11.1829 11.9384
O -8.65138 -12.6654 2.0174
H -8.50545 -11.9902 1.29424
H -7.92674 -12.5829 2.70161
O -5.48385 12.3028 10.3082
H -5.09132 12.294 11.2279
H -5.80023 11.3841 10.0719
O -0.503968 4.73739 -8.1514
H -0.313625 3.7561 -8.18173
H -1.31127 4.93764 -8.70658
O -10.7884 9.06172 -5.76291
H -10.3202 9.73599 -5.19176
H -11.7433 9.33288 -5.88383
O 5.46585 -10.9005 4.80628
H 5.99841 -11.7114 5.04909
H 5.48337 -10.2505 5.56598
O 11.5584 4.42929 6.11559
H 11.6817 3.70957 5.43233
H 10.5816 4.58271 6.26549
O 8.37207 1.2233 5.52461
H 9.02248 0.476348 5.66284
H 8.51312 1.62491 4.61969
O -7.47008 13.6722 8.79276
H -8.24603 14.0505 9.29755
H -6.78124 13.3425 9.43841
O 5.94607 6.35258 5.57046
H 6.88551 6.37459 5.91256
H 5.90321 6.81366 4.6841
O -6.14089 -9.42426 -5.82423
H -5.1884 -9.29901 -5.54651
H -6.26877 -9.06406 -6.74834
O -9.38705 1.99699 12.9732
H -9.94396 1.43927 13.5887
H -9.69221 2.94829 13.0175
O -2.54783 -13.0736 4.8441
H -2.08669 -13.5753 5.57601
H -3.2954 -13.6286 4.47921
O -11.3338 13.7067 9.76332
H -11.3825 12.7736 9.40701
H -11.7799 14.3318 9.12282
O -14.1022 -9.06479 9.60286
H 14.9152 -8.62616 9.87996
H -13.3375 -8.6406 10.0879
O -9.22077 -4.05044 5.72408
H -9.68251 -3.86964 4.85564
H -8.3383 -4.48664 5.5479
O 6.57309 4.17541 2.3641
H 7.48118 4.59274 2.39969
H 6.17769 4.15875 3.28249
O -9.93194 -13.1649 -7.52465
H -9.51818 -13.788 -6.8608
H -10.853 -12.9194 -7.22227
O 6.00602 0.638922 -11.5136
H 5.78543 0.194857 -10.6451
H 5.90579 1.62917 -11.4165
O -13.1415 8.6052 -11.6177