LAMMPS data file via write_data, version 15 May 2015, timestep = 23005000

2611 atoms
6 atom types
1749 bonds
4 bond types
894 angles
3 angle types
44 dihedrals
3 dihedral types
10 impropers
1 improper types

-1.4922306611637660e+01 1.4922306611637660e+01 xlo xhi
-1.4922306611637660e+01 1.4922306611637660e+01 ylo yhi
-1.4922306611637660e+01 1.4922306611637660e+01 zlo zhi

Masses

1 15.9994
2 1.00794
3 12.0107
4 1.00794
5 12.0107
6 12.0107

Bond Coeffs # harmonic

1 1000 1
2 469 1.4
3 367 1.08
4 469 0.7

Angle Coeffs # harmonic

1 100 109.47
2 35 120
3 63 120

Dihedral Coeffs # opls

1 0 7.25 0 0
2 0 7.25 0 0
3 0 7.25 0 0

Improper Coeffs # cvff

1 2.5 -1 2

Atoms # full

2388 796 2 4.0999999999999998e-01 -1.0319401007499931e+01 -1.3657682327477362e+01 -1.3489187617447390e+01 8 0 -2
1378 460 1 -8.1999999999999995e-01 -1.2406117482046529e+01 -1.1457434281596164e+01 -9.6250476212914879e+00 3 2 2
256 86 1 -8.1999999999999995e-01 -7.1420646677387118e+00 -1.2593952645318407e+01 -1.4033890379174476e+01 5 -2 -4
1380 460 2 4.0999999999999998e-01 -1.2695705140273130e+01 -1.2240410819945232e+01 -1.0175583436027070e+01 3 2 2
1702 568 1 -8.1999999999999995e-01 -7.7554747749107387e+00 -1.4721278144238360e+01 -1.1642581250453809e+01 -1 3 -5
2386 796 1 -8.1999999999999995e-01 -1.0373566615834598e+01 -1.4356220248268958e+01 -1.2775665480944555e+01 8 0 -2
257 86 2 4.0999999999999998e-01 -7.6787777174415455e+00 -1.1982681657645553e+01 -1.4615517210410550e+01 5 -2 -4
294 98 2 4.0999999999999998e-01 -1.2963658262222413e+01 -1.2335075799622324e+01 -1.2908371611982197e+01 1 0 -3
2531 844 2 4.0999999999999998e-01 -8.9347790499920485e+00 -7.4942821843681138e+00 -9.6595701840886505e+00 5 3 -3
2387 796 2 4.0999999999999998e-01 -1.1332194157060673e+01 -1.4582149508966731e+01 -1.2602483188358143e+01 8 0 -2
916 306 1 -8.1999999999999995e-01 -6.9279584647397403e+00 -1.1973868766855912e+01 -1.1265516956737653e+01 7 1 -1
1704 568 2 4.0999999999999998e-01 -8.4671364295688925e+00 -1.4351921144493692e+01 -1.2240173141667102e+01 -1 3 -5
292 98 1 -8.1999999999999995e-01 -1.3078270144290796e+01 -1.3273688951372490e+01 -1.2582991355929902e+01 1 0 -3
1379 460 2 4.0999999999999998e-01 -1.3167487689555212e+01 -1.1152371599849667e+01 -9.0529854495632840e+00 3 2 2
420 140 2 4.0999999999999998e-01 -1.0692666413040762e+01 -1.1357195569930637e+01 -9.4544996064880618e+00 2 3 -3
293 98 2 4.0999999999999998e-01 -1.4026752345670054e+01 -1.3414614143599813e+01 -1.2299222870164835e+01 1 0 -3
1776 592 2 4.0999999999999998e-01 -1.2389501707168705e+01 -1.0730444183900577e+01 -1.1386472212587472e+01 5 3 -7
917 306 2 4.0999999999999998e-01 -7.0549425834123873e+00 -1.2948433200040441e+01 -1.1080849261922594e+01 7 1 -1
258 86 2 4.0999999999999998e-01 -6.2821897408934184e+00 -1.2819846730463762e+01 -1.4491700181374625e+01 5 -2 -4
879 293 2 4.0999999999999998e-01 -6.5479184281417755e+00 -1.0307401311932852e+01 -1.0451406653767240e+01 8 3 -3
2532 844 2 4.0999999999999998e-01 -7.6888855185096139e+00 -7.9531132083715566e+00 -1.0610284537420362e+01 5 3 -3
877 293 1 -8.1999999999999995e-01 -6.4651972318640833e+00 -9.3727223027093558e+00 -1.0105667860346486e+01 8 3 -3
878 293 2 4.0999999999999998e-01 -6.9310611781837004e+00 -9.3011206744056558e+00 -9.2237115633530316e+00 8 3 -3
904 302 1 -8.1999999999999995e-01 -1.1994901931894077e+01 -1.4501350618144354e+01 -8.4168342562864904e+00 1 -4 -8
210 70 2 4.0999999999999998e-01 -6.3801287246409011e+00 -9.0457213677707777e+00 -1.3674630833774291e+01 6 3 1
918 306 2 4.0999999999999998e-01 -7.1235807810279193e+00 -1.1788855775595202e+01 -1.2228587567228086e+01 7 1 -1
419 140 2 4.0999999999999998e-01 -9.1647053467461710e+00 -1.1097310287982884e+01 -9.9687262314948839e+00 2 3 -3
2104 702 1 -8.1999999999999995e-01 -1.1517865871605791e+01 -9.2475479928913060e+00 -1.4362886024384775e+01 -1 7 -1
1774 592 1 -8.1999999999999995e-01 -1.2763096944413382e+01 -1.0466526095198766e+01 -1.2275728524545292e+01 5 3 -7
1823 608 2 4.0999999999999998e-01 -1.0769370907325721e+01 -8.8990932672936260e+00 -8.8655123997293277e+00 6 2 -9
208 70 1 -8.1999999999999995e-01 -5.4308755531197246e+00 -9.0565512783584907e+00 -1.3988961712076874e+01 6 3 1
367 123 1 -8.1999999999999995e-01 -1.4293441119632675e+01 -1.1698296045226300e+01 -7.4808967736859762e+00 9 1 -1
418 140 1 -8.1999999999999995e-01 -9.7257996033225353e+00 -1.1423629145773845e+01 -9.2080080188400011e+00 2 3 -3
1294 432 1 -8.1999999999999995e-01 -1.4814584919588366e+01 -7.7132963745604908e+00 -1.0910151226074511e+01 2 2 3
1352 451 2 4.0999999999999998e-01 -8.5134145108562258e+00 -9.5169418137217470e+00 -1.4293243987748378e+01 7 -2 2
2105 702 2 4.0999999999999998e-01 -1.1881763098661633e+01 -9.6541621726985554e+00 -1.3524884515834991e+01 -1 7 -1
1295 432 2 4.0999999999999998e-01 -1.3844654568540117e+01 -7.4728214699820050e+00 -1.0947698577486188e+01 2 2 3
1822 608 1 -8.1999999999999995e-01 -1.0536693265433469e+01 -8.1830331442432680e+00 -9.5236323774920812e+00 6 2 -9
907 303 1 -8.1999999999999995e-01 -7.0253190083424961e+00 -1.3768354689577151e+01 -7.6378118620808744e+00 2 1 -2
1775 592 2 4.0999999999999998e-01 -1.3681322986098364e+01 -1.0089952908587165e+01 -1.2153024664208289e+01 5 3 -7
368 123 2 4.0999999999999998e-01 -1.4646704505937384e+01 -1.2598283257106523e+01 -7.7363002390895810e+00 9 1 -1
1351 451 1 -8.1999999999999995e-01 -8.2498379483354416e+00 -8.7135605437203836e+00 -1.3759288263829742e+01 7 -2 2
1353 451 2 4.0999999999999998e-01 -9.0694204467380715e+00 -8.2043346428664492e+00 -1.3496654895127733e+01 7 -2 2
947 316 2 4.0999999999999998e-01 -1.1033168552077379e+01 -7.5754346622981918e+00 -1.3644329197128494e+01 0 -7 -5
1824 608 2 4.0999999999999998e-01 -1.1367377839067755e+01 -7.6966902111945394e+00 -9.7946242553304881e+00 6 2 -9
905 302 2 4.0999999999999998e-01 -1.2883225914757208e+01 -1.4864686180531022e+01 -8.6976734566910991e+00 1 -4 -8
209 70 2 4.0999999999999998e-01 -4.9769806693753704e+00 -8.2110287470638692e+00 -1.3707761187200001e+01 6 3 1
2561 854 2 4.0999999999999998e-01 -1.1404431648243838e+01 -1.8612079594455562e+00 -7.9960442506491844e+00 4 0 0
1188 396 2 4.0999999999999998e-01 -5.3811231787976848e+00 -4.9505865151466981e+00 -1.4675713164467382e+01 4 4 -4
1808 603 2 4.0999999999999998e-01 -9.5804431135386743e+00 -3.8024006412650984e+00 -9.1955131085859740e+00 4 2 -5
2530 844 1 -8.1999999999999995e-01 -8.1053831957231495e+00 -7.1846100740539525e+00 -1.0124552565800698e+01 5 3 -3
2211 737 2 4.0999999999999998e-01 -1.4727527958792813e+01 -5.5700288966963516e+00 -1.1421407436172986e+01 5 -4 -6
964 322 1 -8.1999999999999995e-01 -5.7513262585328846e+00 -2.4534756731150154e-01 -1.3044325892658922e+01 2 3 -4
263 88 2 4.0999999999999998e-01 -5.3735336196971843e+00 -1.8938343552326486e+00 -8.4545505407041688e+00 3 -1 5
2560 854 1 -8.1999999999999995e-01 -1.1697289159947147e+01 -9.1292427459521797e-01 -7.8735882364448742e+00 4 0 0
2588 863 2 4.0999999999999998e-01 -8.4949114478738679e+00 -4.0100680419442725e-01 -1.0784250027980093e+01 5 7 -2
659 220 2 4.0999999999999998e-01 -1.3910574355448324e+01 -5.2101633417916204e+00 -7.7039167761227363e+00 2 4 -4
657 219 2 4.0999999999999998e-01 -7.1016850961650890e+00 -5.9789339455477535e+00 -8.0561823611829162e+00 0 3 -2
1809 603 2 4.0999999999999998e-01 -1.0639712270985020e+01 -3.1599102002545223e+00 -1.0259368949029906e+01 4 2 -5
264 88 2 4.0999999999999998e-01 -5.3507655653441866e+00 -1.2486510053014275e+00 -9.9545019617864750e+00 3 -1 5
314 105 2 4.0999999999999998e-01 -6.4316799383311434e+00 -2.8190260692277729e+00 -1.3106391112324179e+01 -1 -1 -5
678 226 2 4.0999999999999998e-01 -1.2628366164427018e+01 -5.9889527991270342e-01 -1.4716686147710686e+01 1 -3 -6
1255 419 1 -8.1999999999999995e-01 -1.2155915486242158e+01 -6.4805580548331800e+00 -1.0705020429822131e+01 0 0 -6
1904 635 2 4.0999999999999998e-01 -1.3376028511628299e+01 -3.8170077378896679e+00 -9.7717305874385652e+00 1 -2 -1
270 90 2 4.0999999999999998e-01 -1.3322135039186829e+01 -6.0860653691378275e-02 -1.1345994277280013e+01 0 0 2
983 328 2 4.0999999999999998e-01 -1.4508552418887385e+01 -2.5172513283177995e+00 -8.4814791028680379e+00 1 1 -6
268 90 1 -8.1999999999999995e-01 -1.2533211082521921e+01 -2.0697035653180684e-01 -1.1942864281826759e+01 0 0 2
2589 863 2 4.0999999999999998e-01 -7.4018387980869287e+00 -7.8795954032070803e-01 -1.1934073512190345e+01 5 7 -2
872 291 2 4.0999999999999998e-01 -9.4850633649695268e+00 -5.5019597580757917e+00 -1.2574095259307899e+01 2 -1 -3
2012 671 2 4.0999999999999998e-01 -1.4773672927056953e+01 -3.6115860786739606e+00 -1.4185683313388282e+01 2 2 0
1256 419 2 4.0999999999999998e-01 -1.1528605898048026e+01 -6.7020910322097400e+00 -1.1451618567761823e+01 0 0 -6
1257 419 2 4.0999999999999998e-01 -1.2603678743660161e+01 -5.6066273376806759e+00 -1.0894113345629055e+01 0 0 -6
948 316 2 4.0999999999999998e-01 -1.0826741376221714e+01 -5.9669355514928082e+00 -1.3836037000265883e+01 0 -7 -5
1269 423 2 4.0999999999999998e-01 -1.1397621905399392e+01 -3.5262366482758765e+00 -1.4713684728008968e+01 4 0 -1
1505 502 2 4.0999999999999998e-01 -5.4155199660838669e+00 -6.5148176031055414e+00 -1.0700416367306531e+01 -3 0 -2
946 316 1 -8.1999999999999995e-01 -1.0680950999971390e+01 -6.7411608580925790e+00 -1.3220144816625201e+01 0 -7 -5
1903 635 1 -8.1999999999999995e-01 -1.3203192256813693e+01 -3.6610471519279226e+00 -8.7992045903069567e+00 1 -2 -1
269 90 2 4.0999999999999998e-01 -1.1930420315830357e+01 -8.9361826049999493e-01 -1.1536464542798274e+01 0 0 2
2011 671 1 -8.1999999999999995e-01 -1.4280324900463096e+01 -3.0531228280393954e+00 -1.3518802985866305e+01 2 2 0
1506 502 2 4.0999999999999998e-01 -6.9678468758592107e+00 -6.1404591056958289e+00 -1.1042134091173404e+01 -3 0 -2
313 105 1 -8.1999999999999995e-01 -6.9962767685579310e+00 -3.3162406924548797e+00 -1.3765186181062742e+01 -1 -1 -5
2553 851 2 4.0999999999999998e-01 -8.6692202499622919e+00 -2.3296725960658016e+00 -1.4722582568795326e+01 1 6 -7
315 105 2 4.0999999999999998e-01 -7.6409678009976929e+00 -3.9032963213007665e+00 -1.3275551492748937e+01 -1 -1 -5
1807 603 1 -8.1999999999999995e-01 -1.0507913533820378e+01 -3.4466060667427740e+00 -9.3104551766491426e+00 4 2 -5
1268 423 2 4.0999999999999998e-01 -1.2552173640512635e+01 -2.8165572043805529e+00 -1.3802641572851213e+01 4 0 -1
1504 502 1 -8.1999999999999995e-01 -6.0212505284552389e+00 -5.8218138002814648e+00 -1.1091362766710370e+01 -3 0 -2
1905 635 2 4.0999999999999998e-01 -1.2218440612912524e+01 -3.6874622667476462e+00 -8.6272470959162675e+00 1 -2 -1
262 88 1 -8.1999999999999995e-01 -5.2452043036265650e+00 -2.0912673869438301e+00 -9.4264326053243366e+00 3 -1 5
871 291 1 -8.1999999999999995e-01 -8.7785173939165588e+00 -4.8850785616635033e+00 -1.2227319720855185e+01 2 -1 -3
873 291 2 4.0999999999999998e-01 -8.6612215728585618e+00 -5.0312824916988372e+00 -1.1245042237196177e+01 2 -1 -3
1512 504 2 4.0999999999999998e-01 -7.1408204184394384e+00 -4.6207237472808220e+00 -9.5285853798261577e+00 2 2 2
1510 504 1 -8.1999999999999995e-01 -7.4561113231376508e+00 -3.8337008993257164e+00 -8.9983122520556194e+00 2 2 2
1511 504 2 4.0999999999999998e-01 -6.8650820917574684e+00 -3.0486060756395279e+00 -9.1835511888451791e+00 2 2 2
1267 423 1 -8.1999999999999995e-01 -1.1594634303170407e+01 -2.7718882602979793e+00 -1.4087467838847559e+01 4 0 -1
1152 384 2 4.0999999999999998e-01 -9.6963296492806954e+00 -1.6710324472235278e+00 -1.1757106226508073e+01 0 2 2
1150 384 1 -8.1999999999999995e-01 -1.0529745077127231e+01 -2.2181852995758309e+00 -1.1679354224540075e+01 0 2 2
1151 384 2 4.0999999999999998e-01 -1.0902921999633456e+01 -2.3885430438721365e+00 -1.2591341121858333e+01 0 2 2
2209 737 1 -8.1999999999999995e-01 -1.4115252729863160e+01 -4.7934416391345991e+00 -1.1272968082664384e+01 5 -4 -6
2587 863 1 -8.1999999999999995e-01 -8.3667581312527872e+00 -5.9407937417172718e-01 -1.1757030884885150e+01 5 7 -2
2210 737 2 4.0999999999999998e-01 -1.4138535392741971e+01 -4.1930827180239891e+00 -1.2072361637072918e+01 5 -4 -6
2552 851 2 4.0999999999999998e-01 -9.9678056119276235e+00 -1.4540011786132343e+00 -1.4260511438785048e+01 1 6 -7
2551 851 1 -8.1999999999999995e-01 -9.1197574854637686e+00 -1.4394802948630385e+00 -1.4790234373071216e+01 1 6 -7
1646 549 2 4.0999999999999998e-01 -7.6132961651264353e+00 -2.9423378901249713e+00 -7.4698242789783995e+00 3 -1 -1
1030 344 1 -8.1999999999999995e-01 -1.3540404806088656e+01 -7.6124874104537428e+00 -5.5581479245250964e+00 0 3 -3
850 284 1 -8.1999999999999995e-01 -9.1679319280962908e+00 -8.9431627343709810e+00 -2.7386416973923335e+00 7 2 -2
851 284 2 4.0999999999999998e-01 -9.2561635707270487e+00 -7.9483240530714445e+00 -2.7887829509993374e+00 7 2 -2
2555 852 2 4.0999999999999998e-01 -8.3148515288606255e+00 -1.4415719554987163e+01 -2.5875850171285588e+00 1 4 -1
852 284 2 4.0999999999999998e-01 -9.5810631627278866e+00 -9.2720450609187690e+00 -1.8894291640840244e+00 7 2 -2
2216 739 2 4.0999999999999998e-01 -1.1052014919947414e+01 -1.2371239208784591e+01 -4.6233076493768621e-01 3 -1 -4
1032 344 2 4.0999999999999998e-01 -1.2654510473660839e+01 -8.0532189097508997e+00 -5.7028889358502113e+00 0 3 -3
967 323 1 -8.1999999999999995e-01 -8.8439245417500452e+00 -1.2049869625794468e+01 -5.1187555970186871e-01 -3 1 -6
968 323 2 4.0999999999999998e-01 -8.4097405963756273e+00 -1.2097080394612988e+01 -1.4114634543837710e+00 -3 1 -6
996 332 2 4.0999999999999998e-01 -1.2175753621825571e+01 -1.2547689897552784e+01 -5.3648269734050444e+00 3 0 4
1007 336 2 4.0999999999999998e-01 -1.2405686626097900e+01 -8.6055960783912795e+00 -3.2915891735453986e+00 2 -2 -1
1008 336 2 4.0999999999999998e-01 -1.1986619775227688e+01 -9.3795489228301356e+00 -1.9160841195102982e+00 2 -2 -1
1180 394 1 -8.1999999999999995e-01 -5.0659435915041904e+00 -1.3467552468279271e+01 -2.7723404721664267e+00 2 4 -6
632 211 2 4.0999999999999998e-01 -1.1743716840592512e+01 -1.0167011277082025e+01 -5.2520616446141002e+00 2 4 0
1078 360 1 -8.1999999999999995e-01 -1.3619392612393940e+01 -1.1774961418896584e+01 -4.7644254561532549e+00 8 -1 -3
631 211 1 -8.1999999999999995e-01 -1.1372971819535193e+01 -9.2551051492014587e+00 -5.4280681996263596e+00 2 4 0
994 332 1 -8.1999999999999995e-01 -1.1460283944348125e+01 -1.2923336026925474e+01 -5.9538906793312272e+00 3 0 4
1181 394 2 4.0999999999999998e-01 -5.1467318120375776e+00 -1.3575133697978835e+01 -1.7814305251894318e+00 2 4 -6
1079 360 2 4.0999999999999998e-01 -1.3863581429281817e+01 -1.2525330179274565e+01 -4.1501604453206031e+00 8 -1 -3
2215 739 1 -8.1999999999999995e-01 -1.1898592930626474e+01 -1.2892933281000145e+01 -3.5676592411399533e-01 3 -1 -4
1080 360 2 4.0999999999999998e-01 -1.4018974293326300e+01 -1.0923237155020152e+01 -4.4254517244407463e+00 8 -1 -3
2436 812 2 4.0999999999999998e-01 -1.3454837750682570e+01 -1.3991615293182036e+01 -1.5753196289785105e+00 2 -6 2
908 303 2 4.0999999999999998e-01 -7.4610265367007917e+00 -1.2940611508856273e+01 -7.2842540305578094e+00 2 1 -2
2434 812 1 -8.1999999999999995e-01 -1.4358363264072411e+01 -1.3965917448078892e+01 -2.0030861259757966e+00 2 -6 2
399 133 2 4.0999999999999998e-01 -6.6114688449501440e+00 -9.5710760480572326e+00 -6.7477968846959424e+00 -1 3 -5
1252 418 1 -8.1999999999999995e-01 -7.3561108950636322e+00 -1.1870341917113954e+01 -2.8778862044946489e+00 4 -6 -3
1254 418 2 4.0999999999999998e-01 -6.6774752445117525e+00 -1.2576368947634672e+01 -3.0803273551419714e+00 4 -6 -3
1253 418 2 4.0999999999999998e-01 -7.1869528308775203e+00 -1.1070516879991374e+01 -3.4537927896281406e+00 4 -6 -3
1929 643 2 4.0999999999999998e-01 -9.8172444487230148e+00 -1.2250479828179975e+01 -6.1186694610101497e+00 -2 5 -2
2321 774 2 4.0999999999999998e-01 -1.3601211328442478e+01 -7.7543163829545767e+00 -8.9694009795954521e-01 6 -1 -3
578 193 2 4.0999999999999998e-01 -8.6837971045863860e+00 -9.2495843293980453e+00 -4.4631567354525377e+00 3 0 0
577 193 1 -8.1999999999999995e-01 -8.4606374295777211e+00 -9.3439934497451311e+00 -5.4333575575677457e+00 3 0 0
1927 643 1 -8.1999999999999995e-01 -9.0321621522300113e+00 -1.1739260415226330e+01 -6.4683884780563599e+00 -2 5 -2
286 96 1 -8.1999999999999995e-01 -1.0526216044817222e+01 -1.0106272411239893e+01 -7.4273924278853798e-01 8 1 2
2320 774 1 -8.1999999999999995e-01 -1.4371756992857870e+01 -7.7969474070908111e+00 -2.6098030317618459e-01 6 -1 -3
579 193 2 4.0999999999999998e-01 -8.5826421527476136e+00 -1.0296526282546399e+01 -5.7122822433277225e+00 3 0 0
1006 336 1 -8.1999999999999995e-01 -1.2630665287253724e+01 -8.7334320782306829e+00 -2.3256463658659108e+00 2 -2 -1
287 96 2 4.0999999999999998e-01 -9.8830074359272189e+00 -1.0868873093832324e+01 -6.7399443711692264e-01 8 1 2
369 123 2 4.0999999999999998e-01 -1.3884353447609461e+01 -1.1747099561563344e+01 -6.5697063213347224e+00 9 1 -1
909 303 2 4.0999999999999998e-01 -7.4107997723355234e+00 -1.4569489333512898e+01 -7.1800009703855636e+00 2 1 -2
2556 852 2 4.0999999999999998e-01 -9.1765227242206535e+00 -1.4829249585723952e+01 -3.9116507460897143e+00 1 4 -1
695 232 2 4.0999999999999998e-01 -1.4489666928774374e+01 -8.7703286927956317e+00 -4.5446360659516127e+00 4 0 -2
978 326 2 4.0999999999999998e-01 -5.0026657913892834e+00 -1.3430112674125132e+01 -6.5913858028488175e+00 2 2 -6
398 133 2 4.0999999999999998e-01 -5.9235136961208408e+00 -8.1558849497369827e+00 -7.1843586888348003e+00 -1 3 -5
995 332 2 4.0999999999999998e-01 -1.1880207441165767e+01 -1.3387261912745306e+01 -6.7339163183322128e+00 3 0 4
397 133 1 -8.1999999999999995e-01 -5.9499709032486763e+00 -9.1397525643527544e+00 -7.3612978533456195e+00 -1 3 -5
633 211 2 4.0999999999999998e-01 -1.0388793470062097e+01 -9.3214321723935729e+00 -5.5923746733781581e+00 2 4 0
962 321 2 4.0999999999999998e-01 -1.1596707890801175e+01 -1.4429617754682965e+01 -8.9671955217047028e-01 -3 -2 -4
1225 409 1 -8.1999999999999995e-01 -7.7385455061042503e+00 -1.4833522624550273e+01 -4.8737677362701959e-02 3 4 -1
1928 643 2 4.0999999999999998e-01 -9.1431263685362456e+00 -1.1588890945491057e+01 -7.4507727674988082e+00 -2 5 -2
1213 405 1 -8.1999999999999995e-01 -1.2949603450878964e+01 -2.7718647091866835e+00 -2.0207346952141148e+00 5 -1 6
2172 724 2 4.0999999999999998e-01 -6.0200236306503978e+00 -6.5514008521981761e+00 -4.1556303974669362e+00 7 2 -2
2357 786 2 4.0999999999999998e-01 -1.0399968920369759e+01 -6.1419510854078307e+00 -5.9262141673196318e+00 4 5 -1
923 308 2 4.0999999999999998e-01 -5.0765081808116150e+00 -3.6034323866891480e+00 -4.3616663517892196e+00 3 3 -4
1214 405 2 4.0999999999999998e-01 -1.2790889775171280e+01 -2.8265897186176225e+00 -3.0065430333688088e+00 5 -1 6
1377 459 2 4.0999999999999998e-01 -5.0719419800739214e+00 -5.1599026797966729e-01 -6.2549547790587230e+00 1 4 4
2153 718 2 4.0999999999999998e-01 -1.3597709420455795e+01 -3.5595849978824390e-01 -7.1216609783823026e+00 3 -2 -4
2165 722 2 4.0999999999999998e-01 -1.4283981570716831e+01 -2.0535360794478539e+00 -5.0900840050680785e+00 6 2 1
2356 786 1 -8.1999999999999995e-01 -9.8040958861413774e+00 -6.6105072883515064e+00 -6.5784358852300322e+00 4 5 -1
1031 344 2 4.0999999999999998e-01 -1.3662424774252100e+01 -6.8811212044089896e+00 -6.2291304611738223e+00 0 3 -3
1911 637 2 4.0999999999999998e-01 -8.8441539261822513e+00 -5.9950121701931032e+00 -1.7721029494885165e+00 -5 -2 -4
189 63 2 4.0999999999999998e-01 -6.4799766477023937e+00 -2.1706720736464380e+00 -3.3682528781735730e+00 3 1 -1
658 220 1 -8.1999999999999995e-01 -1.4695633013774771e+01 -5.5852976147585291e+00 -7.2110070671749336e+00 2 4 -4
940 314 1 -8.1999999999999995e-01 -1.4565659734120535e+01 -4.9658177382869795e-01 -2.4311491595927137e+00 4 -4 -7
1917 639 2 4.0999999999999998e-01 -1.0374347814485606e+01 -2.2134632423652612e+00 -1.8264679589006203e+00 2 -2 -6
1909 637 1 -8.1999999999999995e-01 -9.1089017957073573e+00 -6.2911100635213124e+00 -2.6898379459168300e+00 -5 -2 -4
1647 549 2 4.0999999999999998e-01 -8.3507766011116082e+00 -2.3266748178198231e+00 -6.1493259990766216e+00 3 -1 -1
2164 722 1 -8.1999999999999995e-01 -1.3394765511618345e+01 -2.4454337497467478e+00 -4.8540462012537127e+00 6 2 1
1915 639 1 -8.1999999999999995e-01 -9.9176457999363041e+00 -1.5991504746672316e+00 -2.4699318431319153e+00 2 -2 -6
2166 722 2 4.0999999999999998e-01 -1.3266304739016405e+01 -3.3037154965420772e+00 -5.3508892893001807e+00 6 2 1
1432 478 1 -8.1999999999999995e-01 -5.9163822914056112e+00 -4.0818409723943194e+00 -9.5370990209825734e-01 2 3 0
445 149 1 -8.1999999999999995e-01 -1.0916655585090359e+01 -3.5975098523971720e+00 -4.8047217933838304e-01 2 -2 0
1434 478 2 4.0999999999999998e-01 -5.1674603876699088e+00 -4.6593535275430700e+00 -6.2875123518319320e-01 2 3 0
1433 478 2 4.0999999999999998e-01 -5.6790310395488159e+00 -3.6993382614164592e+00 -1.8466594914545613e+00 2 3 0
1910 637 2 4.0999999999999998e-01 -8.4453180642644732e+00 -5.9486462338164365e+00 -3.3549530739856479e+00 -5 -2 -4
1376 459 2 4.0999999999999998e-01 -5.1698330749291834e+00 -2.1323189997597485e+00 -6.4659833069685018e+00 1 4 4
6 2 2 4.0999999999999998e-01 -1.4421126844190926e+01 -5.3601853674445064e+00 -3.4356777035589001e+00 3 2 -6
2170 724 1 -8.1999999999999995e-01 -6.8018568538828514e+00 -5.9878655852022362e+00 -4.4224030569316106e+00 7 2 -2
2382 794 2 4.0999999999999998e-01 -1.4297497078067980e+01 -2.6357854816430795e+00 -6.5609644869898709e-01 6 -3 -2
2171 724 2 4.0999999999999998e-01 -6.9373634569538574e+00 -6.0524219271171127e+00 -5.4110752351231231e+00 7 2 -2
188 63 2 4.0999999999999998e-01 -7.8646065988618234e+00 -1.5214128220443968e+00 -2.7956302753182758e+00 3 1 -1
447 149 2 4.0999999999999998e-01 -1.0180367311579662e+01 -4.2714507060505706e+00 -4.1975879495233137e-01 2 -2 0
1022 341 2 4.0999999999999998e-01 -1.0299207480211841e+01 -3.4847381199275667e+00 -5.0223179507389091e+00 0 -4 -2
5 2 2 4.0999999999999998e-01 -1.3896398289664326e+01 -6.3557582986629058e+00 -4.6189480438314003e+00 3 2 -6
2037 679 2 4.0999999999999998e-01 -1.1758634735396507e+01 -5.2377728009988722e+00 -4.2191365814649799e+00 2 5 -5
798 266 2 4.0999999999999998e-01 -8.2541240937360865e+00 -5.1605201310466420e-01 -6.8658385947461902e+00 -1 6 -3
2035 679 1 -8.1999999999999995e-01 -1.0833701460745292e+01 -5.2043438518727783e+00 -4.5977972381640519e+00 2 5 -5
187 63 1 -8.1999999999999995e-01 -7.0319035445537219e+00 -1.3382817642633071e+00 -3.3181928060921866e+00 3 1 -1
4 2 1 -8.1999999999999995e-01 -1.3732384408484810e+01 -5.4882828034043065e+00 -4.1492796929333853e+00 3 2 -6
655 219 1 -8.1999999999999995e-01 -7.0841931043932496e+00 -6.5597367041418231e+00 -7.2423241785321890e+00 0 3 -2
1645 549 1 -8.1999999999999995e-01 -7.6243816432068119e+00 -2.1814112955013822e+00 -6.8210787758296281e+00 3 -1 -1
922 308 1 -8.1999999999999995e-01 -5.9021169532284485e+00 -3.6449661071824071e+00 -3.7989515610229780e+00 3 3 -4
924 308 2 4.0999999999999998e-01 -6.3845669338195670e+00 -4.5024475778782573e+00 -3.9777545939546819e+00 3 3 -4
656 219 2 4.0999999999999998e-01 -8.0121751864895572e+00 -6.6578392990168513e+00 -6.8828411166767314e+00 0 3 -2
1215 405 2 4.0999999999999998e-01 -1.2175575793809470e+01 -3.1785144091245812e+00 -1.5354305085017081e+00 5 -1 6
2358 786 2 4.0999999999999998e-01 -9.2827265159737671e+00 -7.3196145104481891e+00 -6.1037321930093533e+00 4 5 -1
357 119 2 4.0999999999999998e-01 -1.0938016068300200e+01 -8.0177857116388829e-01 -4.0266530122328472e+00 7 -3 -6
355 119 1 -8.1999999999999995e-01 -1.1332209902589994e+01 -1.0964126115363371e-01 -4.6312685728246361e+00 7 -3 -6
1916 639 2 4.0999999999999998e-01 -9.9730873162588161e+00 -6.6006634617580495e-01 -2.1307413921722169e+00 2 -2 -6
2036 679 2 4.0999999999999998e-01 -1.0200449200050837e+01 -5.6588395350543319e+00 -3.9713563850907825e+00 2 5 -5
356 119 2 4.0999999999999998e-01 -1.2087542926886515e+01 -5.1088383644216329e-01 -5.1494184851677200e+00 7 -3 -6
1021 341 1 -8.1999999999999995e-01 -9.7877300036905588e+00 -2.6372881093514042e+00 -5.1645227642710090e+00 0 -4 -2
1023 341 2 4.0999999999999998e-01 -9.5881107127327461e+00 -2.2160004484863816e+00 -4.2798353711504085e+00 0 -4 -2
941 314 2 4.0999999999999998e-01 -1.3832110089414176e+01 -1.1712440511795865e+00 -2.5132379917650560e+00 4 -4 -7
698 233 2 4.0999999999999998e-01 -7.7590196706806598e+00 -4.4464560358557765e+00 -1.8219439654008163e-01 0 0 -1
697 233 1 -8.1999999999999995e-01 -8.6051543978387954e+00 -4.9577690175264379e+00 -3.1801632445846550e-02 0 0 -1
2562 854 2 4.0999999999999998e-01 -1.0967574465871035e+01 -3.9349449341399279e-01 -7.4289399433245320e+00 4 0 0
1490 497 2 4.0999999999999998e-01 -1.4112844512279548e+01 -7.9427123557649004e+00 4.6188405306295603e+00 9 3 -5
1491 497 2 4.0999999999999998e-01 -1.4086920279620712e+01 -9.4373656181311016e+00 3.9615933537244690e+00 9 3 -5
1489 497 1 -8.1999999999999995e-01 -1.3889879905014611e+01 -8.4705031161913098e+00 3.7992512443924564e+00 9 3 -5
2217 739 2 4.0999999999999998e-01 -1.2553435679687526e+01 -1.2360633499928305e+01 1.7974211053032541e-01 3 -1 -4
362 121 2 4.0999999999999998e-01 -1.2257111116866561e+01 -1.3935246501917856e+01 3.3148157419472444e+00 -2 -1 -5
1501 501 1 -8.1999999999999995e-01 -1.4645522344402718e+01 -1.1117649513333941e+01 3.7822427141190058e+00 1 -1 1
636 212 2 4.0999999999999998e-01 -1.0956893624180356e+01 -8.7150835989221136e+00 2.1148829946833541e+00 -4 -3 0
422 141 2 4.0999999999999998e-01 -8.6604360177304436e+00 -9.8584479437803214e+00 5.4947548849152898e+00 1 1 1
363 121 2 4.0999999999999998e-01 -1.0850787057119089e+01 -1.3253793379106845e+01 2.8409923876177370e+00 -2 -1 -5
496 166 1 -8.1999999999999995e-01 -9.5840440531220814e+00 -1.1671744298409372e+01 2.7204779388985987e+00 0 -1 1
634 212 1 -8.1999999999999995e-01 -1.1411078170515330e+01 -9.6057802477713778e+00 2.0954191657472041e+00 -4 -3 0
597 199 2 4.0999999999999998e-01 -6.3290061273504978e+00 -1.3604281251336152e+01 4.0385285525952543e+00 5 -1 -5
498 166 2 4.0999999999999998e-01 -1.0235002071928708e+01 -1.0961031480332036e+01 2.4537499794118336e+00 0 -1 1
497 166 2 4.0999999999999998e-01 -9.2386781392840831e+00 -1.1479654156251126e+01 3.6390781243255841e+00 0 -1 1
421 141 1 -8.1999999999999995e-01 -8.7381556992724363e+00 -1.0759306212994360e+01 5.0676518433568294e+00 1 1 1
423 141 2 4.0999999999999998e-01 -8.4287682767827405e+00 -1.1460523300891950e+01 5.7099734032666252e+00 1 1 1
635 212 2 4.0999999999999998e-01 -1.2292280934810982e+01 -9.5408870062978171e+00 2.5636856366483176e+00 -4 -3 0
361 121 1 -8.1999999999999995e-01 -1.1339356848216259e+01 -1.3668230793828011e+01 3.6088101408413262e+00 -2 -1 -5
554 185 2 4.0999999999999998e-01 -6.1601773663258559e+00 -1.4125972880966989e+01 1.3041174450097337e-01 5 0 0
595 199 1 -8.1999999999999995e-01 -6.5392009674202729e+00 -1.2844922790675760e+01 4.6543173173003876e+00 5 -1 -5
596 199 2 4.0999999999999998e-01 -6.4525658771058474e+00 -1.1980453190242013e+01 4.1591511376282835e+00 5 -1 -5
752 251 2 4.0999999999999998e-01 -7.3279708613646815e+00 -1.2707470977788034e+01 6.2917549593649316e+00 7 2 -2
2053 685 1 -8.1999999999999995e-01 -7.5677222599625713e+00 -1.0061402828653346e+01 1.2447061009002898e+00 8 -1 2
1394 465 2 4.0999999999999998e-01 -1.3840247540253646e+01 -1.1102084014666815e+01 2.1180682617500803e+00 7 0 -4
1387 463 1 -8.1999999999999995e-01 -1.3760128207461403e+01 -1.4240451328904605e+01 2.8315329331852173e+00 8 1 2
1393 465 1 -8.1999999999999995e-01 -1.3607099525554622e+01 -1.1316400234712649e+01 1.1695359908869118e+00 7 0 -4
1135 379 1 -8.1999999999999995e-01 -1.2528500057440876e+01 -1.1808658274695755e+01 5.4064881952974897e+00 12 -1 -1
1395 465 2 4.0999999999999998e-01 -1.4360939689520498e+01 -1.1044448730841971e+01 5.7139696741603530e-01 7 0 -4
1136 379 2 4.0999999999999998e-01 -1.2987578830342768e+01 -1.2413098927606381e+01 6.0575649739913029e+00 12 -1 -1
1801 601 1 -8.1999999999999995e-01 -8.8981224628535269e+00 -8.5031002676002441e+00 6.6183846153328911e+00 6 0 4
1803 601 2 4.0999999999999998e-01 -9.1466606442097209e+00 -7.5381702101831056e+00 6.7028923359270873e+00 6 0 4
1137 379 2 4.0999999999999998e-01 -1.1814326997408305e+01 -1.2317448346994864e+01 4.9257675981423557e+00 12 -1 -1
2054 685 2 4.0999999999999998e-01 -8.1719950230378728e+00 -1.0720562281889826e+01 1.6923288896427326e+00 8 -1 2
2133 711 2 4.0999999999999998e-01 -6.2545087052780755e+00 -1.0540791975861220e+01 2.3856232997679729e+00 6 5 -4
2159 720 2 4.0999999999999998e-01 -1.3884490743204902e+01 -9.1041023428122969e+00 6.9764518536079390e+00 8 8 1
2482 828 1 -8.1999999999999995e-01 -6.1670570562103144e+00 -8.0002643715164297e+00 6.8752561652020656e+00 7 -6 -4
2484 828 2 4.0999999999999998e-01 -7.0859167011513753e+00 -8.3938281644633008e+00 6.8468407332452390e+00 7 -6 -4
1953 651 2 4.0999999999999998e-01 -5.7038538847991163e+00 -1.4068424141467506e+01 5.8771386702430153e+00 1 0 -1
2336 779 2 4.0999999999999998e-01 -9.7601574522861299e+00 -1.4574344419233931e+01 4.6490929952512534e+00 11 -9 -2
1389 463 2 4.0999999999999998e-01 -1.4744170199634695e+01 -1.4114491611365350e+01 2.7058411345715445e+00 8 1 2
2160 720 2 4.0999999999999998e-01 -1.3758300266485882e+01 -1.0702128570282568e+01 6.6649675531522679e+00 8 8 1
2131 711 1 -8.1999999999999995e-01 -5.7421703136075344e+00 -1.0751672570867200e+01 3.2181145792527790e+00 6 5 -4
2277 759 2 4.0999999999999998e-01 -7.9548075628211894e+00 -8.0741404889296398e+00 1.9550580910000246e+00 2 -2 0
169 57 1 -8.1999999999999995e-01 -1.3405812703549685e+01 -7.4844951337707508e+00 6.5360560416471376e+00 2 -4 0
2132 711 2 4.0999999999999998e-01 -5.4109824585336099e+00 -9.9026284771232582e+00 3.6297475825210963e+00 6 5 -4
2067 689 2 4.0999999999999998e-01 -5.2214466869256118e+00 -7.5695138956885586e+00 5.8500806507052516e-01 5 1 -6
751 251 1 -8.1999999999999995e-01 -7.8321292472274902e+00 -1.2444811765989588e+01 7.1144562605348174e+00 7 2 -2
2335 779 1 -8.1999999999999995e-01 -8.9973255437561797e+00 -1.4802950910927331e+01 5.2539314132209949e+00 11 -9 -2
2158 720 1 -8.1999999999999995e-01 -1.4111389189558723e+01 -1.0020595051038343e+01 7.3059380786939361e+00 8 8 1