2611
Atoms. Timestep: 23000000
O -9.70405 3.59197 4.4414
H -9.20663 4.44257 4.27069
H -9.08629 2.81475 4.32148
O -14.0915 -6.51736 -2.37272
H -13.8732 -7.48426 -2.24016
H -14.5695 -6.39985 -3.2432
O 0.599463 -12.557 -8.71643
H 0.525538 -11.7175 -9.25478
H -0.12588 -12.5767 -8.02826
O -1.85192 11.8028 -14.5132
H -2.77393 12.0444 -14.8158
H -1.8145 11.8175 -13.514
O -12.9551 -1.52342 8.8618
H -12.756 -0.976707 9.67516
H -12.6094 -1.05194 8.05043
O -3.93073 -12.3204 6.13481
H -4.47097 -11.5005 5.94542
H -3.02668 -12.0541 6.46923
O 7.98577 -0.341741 -14.2462
H 7.44177 0.22373 -14.8662
H 7.8529 -1.30682 -14.4722
O 0.570186 -11.6097 14.2759
H 1.40405 -11.4217 13.7568
H -0.139544 -10.9553 14.0149
O -3.23963 9.99906 13.6478
H -3.64238 9.08749 13.731
H -2.41334 10.0509 14.2087
O -8.75009 -8.05005 8.21668
H -8.58582 -7.06381 8.23793
H -8.0126 -8.5213 8.70053
O -10.2107 12.4653 -3.05679
H -10.6378 13.3279 -3.32833
H -10.6195 12.1456 -2.20194
O 7.43683 -13.0198 9.15482
H 8.3287 -13.3182 8.81481
H 7.06077 -12.3263 8.54018
O 9.04987 10.653 -2.08462
H 9.35544 11.2274 -1.32521
H 8.34068 10.0253 -1.7634
O -13.6374 3.75849 2.02946
H -14.21 3.96935 1.23715
H -12.7289 4.15573 1.89934
O -0.633771 2.72599 -10.5344
H -0.238517 3.63639 -10.657
H -1.5332 2.80814 -10.105
O -2.00672 -7.38148 -4.31213
H -1.05539 -7.40216 -4.00452
H -2.56219 -6.88558 -3.64457
O -3.48941 6.65782 0.402772
H -2.84147 7.34886 0.723299
H -3.76957 6.87216 -0.532992
O 14.8821 0.0384735 2.6027
H -14.8448 -0.937688 2.54355
H 14.0921 0.174549 3.20051
O -0.454784 10.3669 6.88438
H -1.06677 10.816 6.23332
H -0.735808 10.5937 7.81695
O 6.28322 7.96921 12.5277
H 6.0531 7.06165 12.1763
H 6.46283 8.5873 11.7623
O 2.13897 -4.89045 2.19808
H 2.0675 -5.70479 1.62203
H 2.22326 -5.16594 3.15573
O 3.71611 -2.56383 -2.97193
H 3.37551 -1.78357 -2.44727
H 3.16733 -3.3727 -2.7606
O -6.71257 0.665988 -8.99102
H -7.31494 0.999701 -8.26585
H -6.8588 1.20533 -9.82036
O -10.5336 -13.4835 11.2999
H -10.286 -14.4402 11.453
H -9.71967 -12.967 11.0336
O -4.74575 13.1487 4.35881
H -5.29414 13.0658 3.52666
H -5.0644 13.933 4.89123
O -1.13643 -10.3437 9.46741
H -0.246652 -10.4038 9.91992
H -1.83212 -10.7758 10.0413
O 11.3827 8.45311 -11.0842
H 11.7104 8.21098 -10.1709
H 10.7932 7.72353 -11.4311
O 13.9592 13.4677 8.17497
H 13.1679 12.8718 8.31242
H 13.967 13.7992 7.2315
O 8.43045 14.5254 -11.006
H 7.62296 13.9382 -11.0627
H 8.69775 14.8143 -11.9253
O -5.31595 -11.9289 -14.5573
H -5.62103 -10.9893 -14.7127
H -4.89115 -12.2835 14.5456
O 1.87091 6.43331 -12.9954
H 0.935844 6.39974 -12.6424
H 2.10592 7.37726 -13.2274
O -5.28093 6.02672 -5.27605
H -4.29212 6.09933 -5.4067
H -5.5609 5.07171 -5.37432
O -4.342 6.85039 -2.22671
H -4.09857 7.70288 -2.6894
H -4.53689 6.14506 -2.90834
O -8.42868 14.4934 4.63978
H -8.3319 13.804 3.92183
H -8.45721 -14.5324 4.2263
O 1.93405 9.42397 -4.68267
H 1.83742 9.57687 -3.69912
H 2.71308 9.94831 -5.02656
O 11.8579 -11.2919 -0.600648
H 12.1681 -11.3187 -1.55098
H 10.8584 -11.3146 -0.575519
O 6.33146 12.621 -11.514
H 6.63868 12.0428 -12.2698
H 5.37151 12.4253 -11.3133
O -2.74761 4.39369 3.55813
H -2.87765 5.32015 3.91145
H -3.4974 4.16553 2.93696
O -11.9797 -14.4476 4.34277
H -12.9656 -14.3134 4.44296
H -11.806 14.603 3.91146
O 8.70393 7.32637 13.5831
H 7.93247 7.87088 13.2538
H 9.40249 7.93325 13.9623
O -9.76005 14.3956 -14.7208
H -8.86072 14.7201 14.9219
H -9.96399 14.7563 -13.8106
O -14.8982 6.22042 3.56276
H -14.597 6.05922 4.50263
H -14.1625 5.97716 2.93058
O 1.78189 -7.04744 -14.2696
H 1.47691 -7.37574 -13.3756
H 1.18468 -7.41661 14.9542
O -0.725355 8.85372 10.6419
H 0.0627446 8.95487 10.0347
H -1.48164 9.41313 10.3025
O -4.49274 -4.0406 -14.6799
H -3.68555 -4.22992 -14.1207
H -5.18548 -4.74243 -14.5137
O 9.1689 -10.727 -1.11867
H 8.28966 -11.0522 -1.46691
H 9.26149 -9.74941 -1.30811
O 1.38588 13.0454 -8.89325
H 0.967036 12.2386 -9.30998
H 1.27584 13.8305 -9.5028
O 2.53614 -1.28624 4.92766
H 3.42563 -1.70575 4.74628
H 2.26257 -0.731829 4.1416
O -6.25887 3.636 -6.10265
H -5.90758 2.82285 -5.63847
H -7.16148 3.4378 -6.48489
O 14.0533 1.09524 -10.5212
H 13.3803 0.359563 -10.5981
H 14.4823 1.06152 -9.61847
O 8.5047 10.5937 -13.0071
H 9.10165 10.0296 -13.5776
H 7.71082 10.0564 -12.7222
O 2.04383 -14.2056 14.9211
H 1.27092 -13.6444 -14.7187
H 1.8829 -14.5291 13.9886
O 7.99284 11.9115 -9.21889
H 8.88403 11.7057 -9.62325
H 7.42016 12.3771 -9.89363
O 5.82282 9.70653 -12.7788
H 5.68728 8.75975 -13.071
H 5.01035 10.2444 -13.004
O 6.83292 9.17719 -10.1515
H 6.30178 9.52008 -10.9263
H 7.43706 8.4426 -10.4605
O 2.9898 9.67004 12.7432
H 2.73143 10.293 12.0048
H 2.62695 8.75796 12.5521
O -11.2926 -7.61266 7.04504
H -12.0335 -7.11295 7.49395
H -10.508 -7.6711 7.66236
O 13.182 -0.634972 -4.9033
H 12.3417 -0.551637 -4.36741
H 13.0067 -1.19496 -5.7131
O 1.58448 2.18098 -3.46344
H 2.00422 1.62421 -2.74656
H 2.27769 2.4326 -4.13889
O 0.908405 -12.2869 7.42288
H 0.188508 -11.6141 7.25213
H 0.899206 -12.9761 6.69828
O -5.83447 13.4631 -2.28169
H -6.26642 12.7615 -2.84846
H -4.9541 13.1263 -1.9476
O -11.4899 6.74544 -10.7285
H -12.0488 7.40289 -10.2232
H -11.6067 6.89395 -11.7106
O -7.15366 -0.115955 -1.58649
H -6.28899 -0.554642 -1.83143
H -7.12835 0.845927 -1.85894
O -4.32658 1.78789 6.28649
H -3.96286 2.69936 6.4789
H -4.13104 1.18144 7.05725
O -3.85359 0.132105 8.60856
H -3.74032 -0.686288 8.04509
H -3.42791 -0.0162725 9.50123
O 1.49816 -0.981809 -12.6118
H 1.81865 -1.92481 -12.5217
H 0.922727 -0.748981 -11.8277
O 4.99923 8.0693 14.9272
H 5.19346 8.31759 13.9781
H 4.51544 7.19438 14.9505
O 2.8296 -2.36656 10.3864
H 3.09532 -2.14107 11.3237
H 2.5895 -1.52807 9.89711
O -12.1365 7.437 5.7622
H -12.4965 6.51141 5.87952
H -12.6415 7.90134 5.03457
O -6.24723 -9.29173 -14.6245
H -6.58206 -9.27068 -13.6824
H -6.95859 -8.95007 14.6972
O 13.1784 -10.5648 -12.7746
H 12.8566 -11.5115 -12.7916
H 14.1483 -10.538 -13.0172
O -11.2948 -10.9126 14.4004
H -11.9257 -11.1598 -14.8001
H -11.8115 -10.5428 13.6282
O 13.6537 -5.66224 -4.3247
H 13.4669 -5.13056 -5.15086
H 13.7196 -5.04622 -3.53968
O 0.944288 -14.5478 -10.6582
H 1.65138 -14.2002 -11.274
H 0.670246 -13.8251 -10.0236
O -3.8853 3.70979 -13.5543
H -3.96868 4.65528 -13.8693
H -3.58173 3.1317 -14.3118
O -1.14512 1.04252 8.21709
H -1.14593 0.398706 7.45185
H -1.18915 0.536462 9.07851
O 6.62206 -5.63623 -0.555883
H 6.61084 -6.50023 -1.05934
H 5.68359 -5.32228 -0.411642
O 6.6066 -10.3512 13.0237
H 6.9457 -11.2713 12.8273
H 6.54189 -10.224 14.0136
O 14.7467 4.46164 -0.221141
H 14.4279 3.77902 -0.878767
H 14.7033 5.37034 -0.636434
O -6.96115 8.09168 -1.24978
H -6.14793 8.6262 -1.48009
H -7.02338 7.30052 -1.85829
O 3.05491 9.78829 -12.3679
H 2.80321 9.57228 -13.3113
H 2.6861 9.08858 -11.7559
O -1.27974 -5.9986 13.8874
H -1.80914 -6.39884 14.6355
H -1.03446 -5.05718 14.119
O -5.47984 9.49202 7.03541
H -5.26214 10.4577 6.89333
H -6.33365 9.27002 6.56445
O 3.7399 12.2318 -11.0617
H 3.12059 11.4725 -11.2615
H 3.40444 12.7347 -10.265
O -10.5285 4.28141 6.91749
H -11.5002 4.27895 7.154
H -10.3967 3.81148 6.04463
O -8.86639 -11.8018 -14.3981
H -9.57736 -11.4041 14.9578
H -7.98263 -11.7359 -14.8615
O 3.03177 6.8647 -4.16797
H 3.13792 7.50644 -3.40837
H 2.12183 6.97055 -4.56908
O -4.95744 -3.72692 -8.72809
H -4.10118 -3.37524 -8.34964
H -5.21048 -3.1915 -9.53393
O 5.65149 -8.64388 -4.45533
H 5.70601 -8.22299 -5.36085
H 5.63633 -9.63925 -4.55078
O -12.8467 0.765878 -11.3113
H -12.6133 0.217939 -10.5079
H -13.5455 0.291529 -11.8467
O 14.1124 14.9661 -4.54597
H 13.4117 -14.5749 -5.14017
H 13.7949 -14.9507 -3.59786
O -6.02291 8.83149 -5.19374
H -5.8901 7.84098 -5.23023
H -6.85857 9.07413 -5.68658
O 11.9099 -1.60317 4.35358
H 11.7256 -1.69648 3.37511
H 12.4259 -2.39808 4.67285
O -7.4366 -5.70094 14.2868
H -7.11083 -6.4003 14.9231
H -8.29148 -5.31101 14.6292
O 12.7725 -3.1896 10.2519
H 12.0895 -3.73502 9.76592
H 13.4674 -2.87326 9.60608
O -11.074 -8.29468 0.321731
H -11.7537 -8.71975 0.919596
H -10.3341 -7.91374 0.876216
O -1.8928 12.0258 -5.931
H -1.25826 11.2578 -6.01842
H -2.74289 11.8123 -6.4125
O -13.8196 -13.2848 -11.4081
H -14.3499 -14.0972 -11.6507
H -14.0037 -12.557 -12.0687
O 7.55041 -2.20237 2.02091
H 7.54267 -1.62312 1.20575
H 8.1574 -2.98261 1.86964
O 8.48139 -3.50056 -4.1604
H 7.52602 -3.24752 -4.00768
H 8.95771 -2.74652 -4.61278
O 2.01456 4.92582 -6.15321
H 2.90182 4.63649 -5.79386
H 2.12744 5.76682 -6.68241
O -1.58538 0.199538 10.7046
H -1.43497 1.00334 11.2802
H -1.95277 -0.545335 11.2616
O -0.82054 -3.56452 14.7985
H -1.15669 -3.5392 -14.196
H -0.0563924 -2.92695 14.7001
O 0.571268 -4.3193 -11.4095
H 1.47497 -3.98259 -11.6742
H -0.118608 -3.9446 -12.029
O -6.44466 -3.54202 -12.3491
H -5.64322 -3.11092 -11.9344
H -7.26642 -3.03184 -12.0951
O -0.308097 -8.30675 -0.985334
H 0.246462 -8.7096 -1.71353
H 0.26486 -8.14184 -0.182455
O 9.29566 -8.20228 -8.37354
H 9.80068 -7.34329 -8.28889
H 9.9307 -8.97113 -8.29806
O -3.4726 -13.868 9.42905
H -4.3632 -14.3173 9.50012
H -2.80797 -14.5053 9.03881
O -2.10614 -7.28365 -13.5239
H -1.1364 -7.20269 -13.2934
H -2.65903 -6.93937 -12.7651
O 9.67838 -5.45456 -6.01247
H 9.73173 -6.28615 -5.45957
H 9.32134 -4.70551 -5.45431
O 4.11407 -14.8481 -13.1186
H 4.51923 -14.1337 -12.548
H 3.30966 -14.4837 -13.5878
O 13.1713 -4.05085 -6.4074
H 12.9389 -3.09809 -6.60317
H 12.4161 -4.64281 -6.6891
O 10.8899 -14.6452 -3.28529
H 11.7131 -14.8382 -2.75136
H 10.7476 14.561 -3.95409
O 8.9522 0.20099 -8.0639
H 9.88036 0.570666 -8.10794
H 8.74889 -0.291126 -8.9104
O -11.7358 7.40059 2.51744
H -11.8212 8.01937 1.73648
H -11.4701 6.49192 2.19526
O -12.7967 3.01112 -9.12529
H -13.1613 3.86358 -9.5
H -12.8517 2.29201 -9.81806
O -0.851273 6.1693 11.9908
H -0.822243 7.16356 11.8874
H -0.37172 5.74041 11.2252
O -12.4357 12.8039 -13.9541
H -12.3893 13.2881 -14.8279
H -11.726 12.0999 -13.925
O -11.096 -2.17117 -5.27624
H -11.7781 -2.46923 -4.60836
H -11.1554 -2.74598 -6.09243
O 6.42945 -13.8809 2.00597
H 6.08022 -13.0232 2.38359
H 7.4269 -13.8945 2.07673
O -9.95644 -13.7778 1.3232
H -10.1204 -13.9444 2.29554
H -10.1113 -12.8109 1.11991
O 8.45548 -0.820536 -10.5609
H 7.51854 -0.532737 -10.7594
H 8.79316 -1.39418 -11.3072
O 12.4105 -12.7741 -10.1978
H 13.3732 -12.7394 -9.92935
H 12.1526 -13.7205 -10.3922
O -1.52645 -7.86901 8.34166
H -1.43285 -8.67449 8.92693
H -2.49625 -7.68046 8.1867
O 10.114 -7.71433 -4.60282
H 10.9822 -7.8314 -4.12052
H 9.60757 -8.5766 -4.59165
O -2.53434 -8.12872 -8.8009
H -2.1148 -8.82212 -9.3868
H -2.25445 -8.27977 -7.85278
O -9.67475 11.6214 -14.2869
H -9.42718 12.583 -14.4062
H -9.00058 11.044 -14.7476
O 2.60047 14.0944 -0.870367
H 2.69264 14.0503 0.124441
H 1.77922 14.614 -1.10629
O -1.1924 -11.1138 0.811775
H -1.47554 -11.0596 -0.145816
H -0.290063 -11.5412 0.868893
O -2.62548 -13.738 1.71251
H -2.6203 -13.0331 2.42191
H -3.51866 -13.7519 1.26293
O 11.1628 -9.61042 3.72588
H 11.093 -9.16509 4.61856
H 12.1001 -9.53091 3.38618
O 7.07528 4.52561 10.661
H 7.9843 4.47696 10.247
H 7.1543 4.41898 11.6522
O -5.55747 -10.3052 -5.41645
H -5.38092 -9.32109 -5.43733
H -6.46017 -10.4736 -5.02039
O -13.9271 13.1481 -4.79819
H -14.1116 12.2581 -4.38103
H -14.7659 13.6926 -4.80642
O 2.28743 7.05218 12.1537
H 2.16286 6.3581 12.8628
H 2.73255 6.64022 11.3586
O -2.63412 6.4511 8.12738
H -2.5644 7.2079 8.77736
H -2.89828 6.80544 7.2303
O -7.39799 2.48579 -11.0837
H -6.74915 2.38003 -11.8373
H -8.00501 3.25782 -11.2723
O 14.3869 -9.50406 11.5433
H 14.6652 -8.94678 12.3257
H 13.8939 -8.93364 10.8863
O 13.1574 10.1024 2.01182
H 12.7608 10.5619 1.21707
H 12.4773 10.0553 2.74348
O -8.66687 -11.6443 -7.34973
H -7.69169 -11.8508 -7.43017
H -9.13563 -11.9164 -8.19016
O -8.71137 -9.36066 5.85338
H -8.73223 -8.78701 6.67226
H -8.37482 -10.2714 6.09288
O -10.0728 4.01959 -8.69776
H -11.0114 3.72214 -8.87258
H -9.67492 4.38047 -9.54129
O -5.18271 -3.41863 -3.45742
H -5.59544 -3.28298 -4.35817
H -5.026 -2.53044 -3.0254
O -2.15281 7.50561 3.98142
H -2.98147 7.73493 4.49213
H -1.3722 7.48174 4.60604
O 9.43042 1.93891 14.3823
H 10.3316 2.36877 14.4381
H 9.43221 1.09091 14.9124
O -14.2903 -9.75588 7.73609
H -13.4687 -10.1409 7.3156
H -14.1414 -8.78662 7.93221
O -1.09212 7.80024 1.40811
H -0.267073 7.2507 1.53997
H -1.66839 7.73717 2.22299
O 13.7179 -13.8928 6.37656
H 12.9022 -14.4695 6.33045
H 13.77 -13.4604 7.27681
O -8.69316 -3.72997 0.0413869
H -9.51932 -4.27485 -0.102323
H -7.985 -4.02243 -0.601306
O 5.09951 7.24752 -7.03509
H 5.5986 6.38143 -7.0051
H 4.14149 7.08861 -6.79628
O 7.18797 -12.97 11.9508
H 7.51346 -12.8107 11.0187
H 7.51852 -13.8574 12.2722
O -14.4442 -8.53969 14.191
H -14.8402 -7.96656 14.9085
H -13.6045 -8.11591 13.8513
O -6.59912 14.8833 -10.3835
H -6.1227 -14.3298 -10.884
H -6.8827 14.1673 -11.0216
O -6.1941 -5.17168 11.9495
H -6.41142 -4.27343 11.5674
H -6.79644 -5.35836 12.7257
O -13.9284 -8.23535 -12.5027
H -14.2023 -8.52868 -11.5868
H -14.6241 -7.62322 -12.8787
O 11.054 -7.04384 -0.31951
H 10.7632 -6.81565 0.609692
H 10.2597 -7.32574 -0.857668
O 1.0585 -2.97191 -6.7902
H 1.83598 -2.81271 -6.18169
H 1.3867 -3.33473 -7.6624
O -10.0588 -3.21556 6.54627
H -9.94665 -2.23755 6.72237
H -9.96949 -3.39006 5.56562
O -1.01228 5.48785 -11.7919
H -1.31574 4.66347 -12.2698
H -1.78579 6.1116 -11.6792
O 6.7026 8.35757 4.52419
H 6.73136 9.29381 4.87449
H 7.47671 7.84086 4.89005
O 10.5178 12.4282 4.14412
H 9.60596 12.8368 4.10357
H 10.5418 11.6092 3.57084
O 0.0883655 -10.6915 4.76097
H -0.388236 -10.0569 4.15244
H -0.526913 -10.9726 5.49751
O 11.1755 4.42823 12.8776
H 11.3405 5.34123 13.2508
H 11.7547 3.7648 13.3514
O 11.5475 14.5083 6.02441
H 11.3444 13.8273 5.32081
H 10.9369 -14.6432 5.91515
O 8.80672 -9.97161 -4.46492
H 7.93764 -10.3866 -4.1955
H 9.46771 -10.6911 -4.67817
O -10.283 -11.0832 1.26074
H -9.4773 -10.8695 1.81329
H -11.0544 -10.5251 1.56654
O -7.85793 10.6041 10.3234
H -7.19362 9.90594 10.5904
H -7.83866 10.7201 9.33027
O -13.7409 10.5035 2.4152
H -13.4661 10.8209 3.32286
H -14.7333 10.3826 2.39067
O 2.04173 11.3937 -2.14548
H 2.93052 11.023 -2.41518
H 2.17161 12.0928 -1.44231
O 8.02118 6.36435 -3.47985
H 7.8465 6.0096 -2.5613
H 7.273 6.96991 -3.75116
O 3.35579 -6.18674 -11.6417
H 3.59469 -6.96612 -12.221
H 3.19585 -6.5031 -10.7066
O 10.1218 -12.5272 -7.18032
H 10.3852 -11.7252 -7.71658
H 9.38774 -13.0166 -7.65113
O 8.45327 -14.2627 -4.99687
H 9.04213 14.8732 -5.1123
H 8.99788 -13.4303 -5.09987
O 12.0284 -5.64398 13.5089
H 12.4631 -5.59791 12.6095
H 12.7185 -5.50925 14.22
O 11.3578 7.52989 5.13474
H 11.8931 8.19448 5.65612
H 11.8704 6.67456 5.05931
O -8.63634 2.07859 -7.39519
H -9.36042 1.41836 -7.19546
H -9.01656 2.84286 -7.91617
O 9.20327 9.33439 -8.21741
H 9.55258 9.96005 -8.91499
H 8.21019 9.25698 -8.30626
O -9.70701 -3.02305 3.90454
H -9.97286 -2.12867 3.54469
H -9.33427 -3.58277 3.16436
O 13.5958 6.58834 10.5253
H 13.5277 7.32521 11.198
H 13.4343 5.71008 10.9755
O 9.89595 5.08665 1.23412
H 10.019 6.00506 0.858024
H 10.7499 4.57353 1.14687
O -4.60244 6.81657 -13.1855
H -5.36928 6.54141 -12.6055
H -3.79125 6.96155 -12.6189
O 3.78973 3.86987 -4.40212
H 3.93546 4.71481 -3.8874
H 4.64586 3.35497 -4.44689
O -12.3898 -4.45646 9.02571
H -12.5142 -3.46726 9.10371
H -11.4723 -4.70273 9.33841
O -10.405 -0.283658 6.76926
H -11.2123 0.295878 6.6572
H -10.1249 -0.283009 7.72927
O -7.0661 -14.5755 -0.889362
H -6.56321 14.6234 -1.34099
H -7.90213 -14.3796 -1.40195
O 4.60656 9.19426 -8.76192
H 4.64201 8.4641 -8.0795
H 5.49237 9.26511 -9.22061
O 3.99502 -5.24848 -0.146033
H 3.28144 -5.20062 -0.845034
H 3.68108 -4.78566 0.68302
O 14.5106 7.36635 -13.5275
H 14.2982 8.1464 -12.9389
H -14.5298 7.5026 -13.9512
O 8.53861 14.3713 4.06902
H 9.16676 -14.9266 3.62366
H 8.35596 14.6802 5.00246
O 8.42616 4.76424 6.87306
H 8.98604 4.36625 7.59985
H 7.624 4.18789 6.71673
O -0.0588269 4.03042 14.0206
H -0.425743 4.94741 13.8638
H 0.921194 4.02501 13.8216
O -11.7467 3.02792 -11.989
H -11.8936 2.05697 -11.7999
H -12.3594 3.32101 -12.723
O -6.08733 -12.1575 -7.86827
H -5.88571 -13.1185 -8.05799
H -5.81715 -11.9391 -6.93052
O -2.84243 -1.71052 4.03357
H -3.10926 -1.75719 4.99623
H -3.38434 -1.0087 3.57111
O -9.63068 10.7511 -10.2815
H -10.304 11.1754 -10.887
H -9.80158 11.0392 -9.33917
O 14.9416 -11.8561 12.5233
H 14.5521 -10.9886 12.2137
H 14.7212 -11.9947 13.4889
O 5.18532 5.5819 -11.6756
H 5.72392 5.16334 -12.4069
H 4.99529 6.53631 -11.906
O -5.55213 -1.50526 -14.6202
H -4.90003 -0.757713 -14.4936
H -5.06059 -2.37583 -14.6445
O -6.67767 -13.5283 3.47766
H -6.34705 -12.6044 3.28482
H -6.30623 -14.1634 2.80033
O 14.175 6.88852 -1.86124
H -14.7615 6.89717 -1.89393
H 13.8112 7.36698 -2.66051
O -13.9239 -6.6713 8.00655
H -13.5677 -5.87232 8.49117
H -14.8625 -6.4915 7.71214
O -9.48618 4.42296 -11.6574
H -10.1822 3.70596 -11.6975
H -9.93085 5.31853 -11.6399
O 10.1086 -6.00138 4.79645
H 9.94897 -6.15953 3.82198
H 9.75048 -6.77285 5.32242
O 3.41025 -11.5498 -8.93165
H 3.3483 -11.1095 -9.82743
H 2.50332 -11.8645 -8.6515
O -14.9576 5.76935 -9.31809
H -14.8576 4.94963 -9.88214
H 14.0078 5.98903 -9.21839
O -2.73535 0.559528 -13.038
H -2.39527 -0.106874 -12.3744
H -2.0066 1.2057 -13.2648
O -2.48901 -2.76174 12.7136
H -1.92999 -3.1101 13.4661
H -2.5271 -3.44374 11.9832
O -10.8741 6.7518 10.2111
H -10.8205 6.09394 10.9624
H -11.0277 7.66821 10.5808
O 10.4774 -3.58028 -9.99176
H 10.0232 -3.31273 -9.14195
H 9.92062 -4.26152 -10.4671
O -6.00778 2.55246 14.047
H -5.96359 3.41616 13.5449
H -5.08104 2.21379 14.2099
O -10.2692 -11.7434 -5.14962
H -10.8541 -12.4265 -5.58719
H -9.50755 -11.5183 -5.75734
O -12.9832 -9.75862 1.55716
H -13.8562 -9.63494 1.08546
H -13.1391 -10.2163 2.43255
O 0.443777 -7.43688 -11.7156
H 0.302244 -8.137 -11.0157
H 0.411142 -6.53129 -11.2926
O -4.16697 -13.9371 -6.41741
H -4.73476 -14.3729 -5.71903
H -4.26523 -14.4298 -7.28209
O 8.37009 -10.441 -12.6636
H 8.83746 -11.0962 -13.2572
H 8.94597 -9.63268 -12.5408
O 0.101768 -13.0173 11.4169
H 0.573892 -12.154 11.2383
H -0.869881 -12.9164 11.2029
O -8.90835 8.07415 -11.2511
H -9.76188 7.6566 -10.9393
H -8.93341 9.05765 -11.0718
O 13.1885 -9.23152 7.12194
H 13.9266 -9.65823 7.6446
H 13.5539 -8.86784 6.26502
O -6.74202 -7.45994 -5.13474
H -7.25522 -8.20955 -5.55283
H -6.09902 -7.08345 -5.80174
O -11.4816 -5.36225 -5.8561
H -11.3624 -4.79441 -6.67061
H -12.2334 -6.0048 -6.00487
O 4.33242 1.15731 -2.06598
H 4.66328 0.468623 -1.42075
H 4.70127 2.05264 -1.81612
O -12.7662 5.46521 14.6615
H -12.2543 5.4126 13.8041
H -12.2177 5.94192 -14.5874
O 7.54458 7.09739 -13.265
H 7.78201 7.89263 -13.8229
H 7.11874 6.40046 -13.8421
O 6.17348 4.76417 -6.96624
H 5.39576 4.37878 -7.46294
H 6.43391 4.14679 -6.22387
O 9.21958 2.45298 -10.221
H 9.83488 1.98598 -9.58586
H 8.80726 3.24232 -9.766
O -12.3791 0.853052 -14.5606
H -12.0772 0.371272 14.5527
H -13.1994 0.410992 -14.1976
O -2.23388 -13.7729 -1.02215
H -2.32858 -13.7793 -0.0266185
H -2.25432 -12.8294 -1.35292
O 7.18484 -4.27658 -8.82604
H 8.01015 -3.72135 -8.7228
H 6.41356 -3.68623 -9.06414
O -0.424055 -3.78171 6.66453
H 0.072852 -4.58264 6.99873
H -0.455276 -3.80188 5.66518
O -4.52184 4.17789 1.41916
H -4.06872 4.93989 0.956419
H -5.49716 4.37772 1.51354
O -5.26689 11.7307 -13.2169
H -6.03373 11.9733 -12.6226
H -4.59978 11.1956 -12.6986
O -14.2951 -10.1249 -5.51889
H -14.2927 -10.9674 -4.98018
H -14.6367 -10.3183 -6.43866
O -9.20871 -7.36036 2.29537
H -8.41972 -6.7886 2.07026
H -9.7988 -6.87504 2.94062
O 8.78172 12.9456 -14.7147
H 8.59516 12.2706 -14.0008
H 9.30119 13.7068 -14.3262
O 0.472106 -6.35871 7.70065
H 1.26604 -6.96232 7.77425
H -0.319341 -6.79529 8.12855
O 3.3772 -3.44871 -5.6046
H 4.16707 -3.99776 -5.87797
H 3.51777 -3.1009 -4.67759
O 6.97982 -7.46679 1.78334
H 6.61992 -6.83169 1.09981
H 6.73635 -7.14487 2.69831
O -9.14426 6.06349 2.95452
H -9.30508 6.80539 3.60552
H -8.16927 6.01626 2.73715
O 0.0332776 -14.2603 -2.64846
H -0.36559 -14.7515 -3.42284
H -0.63376 -14.2122 -1.90493
O -13.2414 0.934316 6.67149
H -13.5116 1.547 7.41422
H -12.8889 1.47326 5.90636
O -4.23098 -13.4083 13.4871
H -3.87938 -13.8437 12.6583
H -5.0072 -13.9336 13.8359
O 6.53828 3.53369 -4.49285
H 6.77635 2.56311 -4.52991
H 7.36491 4.07387 -4.33484
O -1.47828 -4.33673 -9.09497
H -0.660766 -4.3094 -9.6703
H -1.26716 -4.8068 -8.23791
O -1.44298 -10.0831 13.4849
H -0.864616 -9.29228 13.2845
H -2.4035 -9.80496 13.4739
O 7.04082 9.89423 10.7729
H 7.97225 10.1822 10.5501
H 6.54142 10.6622 11.1739
O 7.72386 8.42583 -1.06529
H 7.10151 7.97641 -0.42437
H 8.36836 7.75408 -1.4306
O -2.91129 -5.41142 -11.098
H -3.57048 -6.11091 -10.8218
H -2.5637 -4.94197 -10.2863
O -12.4241 10.1052 13.0555
H -12.7246 9.25837 13.4944
H -12.6305 10.0654 12.0778
O 6.22371 -4.31051 -5.4831
H 6.40482 -3.34938 -5.69173
H 6.89471 -4.88543 -5.95141
O 14.8851 0.552026 -7.99068
H -14.4367 -0.230448 -7.88784
H -14.9007 1.1947 -7.23935
O -8.00285 -12.0974 5.68017
H -7.46032 -12.5411 4.9668
H -8.97531 -12.1934 5.46758
O 0.79539 2.7279 5.18658
H 1.57291 3.18545 5.61809
H 0.18433 2.37122 5.89331
O -1.33693 -13.626 -6.5924
H -2.29234 -13.7623 -6.85454
H -1.05013 -14.3646 -5.9822
O 4.30696 -12.4369 11.7932
H 5.23927 -12.5635 12.1321
H 4.09172 -13.1565 11.133
O 2.52407 -4.20833 6.80433
H 1.74604 -3.58141 6.76265
H 3.37046 -3.68358 6.89565
O -14.8764 8.62621 5.53351
H 14.4766 8.58202 6.34489
H 14.5857 8.20639 4.75937
O -11.7201 13.2176 -6.30275
H -11.2321 14.0894 -6.34716
H -12.5459 13.3257 -5.74919
O -14.6538 3.66912 -11.3708
H -14.4166 3.6818 -12.3422
H -14.8932 2.73719 -11.0983
O 9.57899 -2.01503 6.07523
H 8.74737 -1.63367 5.67142
H 10.3548 -1.83892 5.46929
O 9.78126 -14.8008 -13.5941
H 9.6248 -13.8286 -13.7687
H 10.7456 14.9198 -13.7481
O 1.95399 2.12778 1.15822
H 1.79513 3.04354 0.789121
H 1.28025 1.49382 0.778418
O -8.58174 11.3524 7.75909
H -8.13852 10.8471 7.01865
H -8.29117 12.3089 7.73041
O 1.35194 -12.1061 0.971237
H 1.96749 -11.8411 0.228956
H 1.85551 -12.1136 1.83521
O -8.24932 -1.62071 -14.541
H -7.26564 -1.74668 -14.4122
H -8.71003 -2.50594 -14.4763
O -4.12626 7.59702 5.74612
H -4.53892 8.35012 6.25859
H -4.80465 6.87486 5.61063
O -10.3307 -0.161484 -7.24397
H -10.795 -0.456655 -6.40892
H -9.72388 -0.889547 -7.56307
O -5.03834 -7.56443 12.1637
H -4.58872 -7.77576 13.0316
H -5.20449 -6.58001 12.1054
O 2.3517 10.5307 -8.48206
H 2.40676 11.5244 -8.58084
H 3.27471 10.1491 -8.43245
O 2.4733 10.8936 10.4544
H 3.2442 10.6043 9.88682
H 1.99251 11.6465 10.0049
O -11.4347 -0.789568 13.3205
H -11.8903 -1.39414 12.6671
H -10.5072 -0.593123 13.0023
O -4.20366 -5.56901 -0.73128
H -3.4631 -5.48019 -1.39744
H -4.70785 -6.41516 -0.904214
O -6.66764 3.96132 -13.1821
H -5.70298 3.87615 -12.9326
H -6.78943 3.69436 -14.1382
O -5.21608 -2.80439 0.0461775
H -5.07078 -3.7699 -0.170076
H -5.58268 -2.72189 0.972936
O 2.21833 -10.3521 -11.2356
H 1.84466 -9.60747 -10.6824
H 2.74808 -9.971 -11.9934
O 11.7095 2.09481 -0.354353
H 12.0034 2.69641 0.388507
H 11.1271 1.37021 0.0141103
O -4.82005 -5.47144 5.83845
H -5.33719 -5.22536 5.01863
H -5.42817 -5.45946 6.63226
O -3.26182 13.5745 -1.51479
H -3.00165 14.5383 -1.57399
H -2.44637 13.0029 -1.60631
O 5.96787 -7.11082 5.37539
H 6.1663 -6.50183 6.1434
H 6.72838 -7.74803 5.25014
O -3.20863 10.9735 -11.5201
H -2.41497 10.3676 -11.4657
H -3.55525 11.1524 -10.5993
O 6.03967 5.30776 -14.4165
H 5.06399 5.197 -14.6058
H 6.56872 5.02542 14.7192
O 4.22713 4.48345 6.07452
H 4.36567 5.29865 5.51208
H 5.08305 3.96959 6.13323
O 5.83006 -12.2917 5.61568
H 5.0093 -12.6168 6.08547
H 5.67821 -12.311 4.62742
O -13.927 2.37198 9.06604
H -14.8411 2.3667 9.47147
H -13.6383 3.31616 8.90689
O -7.99673 -10.5347 -3.93716
H -8.41743 -9.63644 -3.80988
H -8.70969 -11.2164 -4.10176
O 8.65813 4.3776 3.85705
H 9.137 4.91042 3.15929
H 9.05972 4.56504 4.75353
O 8.73855 1.60747 11.8367
H 9.57608 1.18842 11.4859
H 8.85722 1.83015 12.8044
O -0.177018 -5.59098 -2.24662
H -1.08893 -5.27993 -2.51448
H -0.236143 -6.51889 -1.87841
O 11.8537 2.5808 4.82322
H 11.3175 2.06059 4.15837
H 12.3078 1.94972 5.45216
O 9.03703 -7.7781 -1.89778
H 8.04873 -7.63954 -1.8334
H 9.31298 -7.76899 -2.85896
O -2.87605 7.33379 -11.1693
H -2.26616 8.12627 -11.1586
H -3.7306 7.56451 -10.704
O -10.9685 -5.45711 -11.3823
H -11.2093 -4.49258 -11.2738
H -10.3543 -5.73255 -10.6427
O 4.79853 -11.5071 -4.99199
H 4.14089 -12.2537 -5.09227
H 5.3213 -11.4073 -5.83867
O -5.63138 -10.8152 -10.16
H -5.91411 -11.1551 -9.26302
H -5.47476 -11.588 -10.7751
O 3.75141 -11.4475 -0.597745
H 3.23541 -11.5901 -1.44243
H 4.62694 -11.9271 -0.656993
O 12.7246 -6.25556 -10.0278
H 12.5552 -7.20287 -10.2998
H 12.249 -6.06528 -9.16886
O 11.9449 13.354 -13.9636
H 12.1975 12.389 -14.0345
H 12.7332 13.923 -14.1978
O -9.63111 6.07013 14.3006
H -8.94656 6.73073 14.609
H -9.46048 5.1858 14.7353
O 6.87911 -10.9447 7.76316
H 6.69902 -11.2255 6.82041
H 6.22828 -10.2335 8.0292
O 9.61452 -7.057 2.31043
H 8.67108 -7.29811 2.08264
H 10.2066 -7.84874 2.15973
O 5.23542 3.83225 -0.558989
H 4.45592 4.34582 -0.917761
H 6.08429 4.30158 -0.802351
O -1.8985 -10.333 -6.85061
H -2.33523 -10.7709 -6.06474
H -1.03789 -9.91295 -6.56247
O -14.5436 -13.2259 -8.76455
H -14.9272 -14.137 -8.61347
H -14.3566 -13.1003 -9.73889
O -8.24296 -14.8432 -5.02533
H -8.83815 -14.4719 -5.73804
H -8.54906 -14.5158 -4.13138
O -5.2856 -7.80228 3.82264
H -5.62447 -7.92088 2.88926
H -4.60528 -7.0695 3.83968
O 10.0898 1.26239 -12.3227
H 9.67367 1.69233 -11.5214
H 9.45266 0.597573 -12.7129
O -5.15029 -13.102 -11.6769
H -5.33438 -12.7312 -12.5873
H -4.20497 -13.4253 -11.6336
O 1.93839 7.28985 2.01574
H 2.23965 7.35861 2.96684
H 1.80498 6.32791 1.77707
O -7.15699 -5.13027 -1.71338
H -6.59816 -4.52679 -2.28225
H -7.06869 -6.07159 -2.03926
O -4.16657 -9.46162 5.82576
H -4.51095 -8.94613 5.04106
H -4.23254 -8.89841 6.64949
O 11.8777 -2.46527 -13.7764
H 10.9562 -2.8387 -13.6691
H 11.9746 -2.07502 -14.692
O 14.6508 2.61844 12.6046
H -14.8578 1.81959 12.1812
H 14.6248 3.37076 11.9462
O 4.90238 11.0441 -2.76416
H 5.78068 10.582 -2.64101
H 5.01701 12.0251 -2.6075
O 14.0442 -1.30612 14.1954
H 13.2501 -1.61276 13.6705
H 14.6991 -0.864863 13.5819
O -14.5794 -0.310384 -1.90494
H -14.6697 -0.528842 -2.87665
H -13.7357 -0.713012 -1.54976
O -14.8117 8.18989 8.94443
H 14.4185 8.68242 8.43506
H 14.6923 7.5977 9.62472
O -11.6511 -9.90548 -10.3727
H -11.0695 -9.40348 -9.73248
H -11.1965 -9.96255 -11.2616
O 13.7052 -10.2644 2.5699
H 13.9338 -10.0216 1.62711
H 14.5151 -10.6354 3.02436
O 8.16449 -13.8215 6.17202
H 8.97725 -13.2391 6.18953
H 7.37786 -13.2868 5.86313
O 3.56013 -13.9523 -4.95919
H 4.35559 -14.5164 -4.73768
H 3.1192 -14.3069 -5.78376
O 5.14288 2.07014 10.4331
H 6.06492 2.20999 10.072
H 4.47136 2.39777 9.76837
O -9.79962 13.8716 -0.000169926
H -9.34432 13.9935 -0.88218
H -9.81422 14.7428 0.490581
O -5.32598 -1.44172 -10.5295
H -5.72198 -0.834325 -9.84073
H -5.10921 -0.916234 -11.3522
O -10.1629 -11.0248 -1.60137
H -9.84467 -10.0826 -1.70641
H -10.1521 -11.2743 -0.633008
O 5.12357 14.0405 3.86486
H 5.58812 14.6132 3.18933
H 5.71433 13.9205 4.66278
O 12.6068 1.8969 -13.036
H 11.6538 1.67009 -12.8348
H 13.1773 1.66902 -12.2469
O -5.51556 14.4133 -4.85742
H -5.43504 14.1722 -3.89022
H -6.45213 14.7054 -5.05128
O 9.47157 1.2529 6.43924
H 9.49411 0.26778 6.60991
H 10.1648 1.70446 7.00101
O -13.5935 -1.86595 -7.65653
H -12.917 -2.29626 -8.25429
H -13.7841 -2.46807 -6.88115
O -2.05532 11.6189 11.8779
H -1.24963 12.0808 12.2489
H -2.39951 10.9602 12.5469
O -5.15562 -6.43326 -6.90436
H -4.94438 -5.64594 -7.48366
H -4.42538 -7.11177 -6.98482
O 2.94466 13.2293 1.80177
H 3.4842 13.1994 2.64325
H 2.03171 12.8611 1.97793
O -12.5774 -12.9463 -6.8273
H -13.2583 -13.1848 -7.51982
H -13.0409 -12.6731 -5.98429
O 13.0035 0.333416 6.01274
H 13.3953 -0.183434 6.77395
H 12.4005 -0.261518 5.48129
O 0.269337 4.1929 -1.97788
H 0.907188 3.51826 -2.34948
H -0.268261 4.58882 -2.7224
O 1.22507 8.62352 -10.3386
H 1.70065 9.10488 -9.60223
H 0.775036 7.81047 -9.96911
O -12.7997 -9.09647 -1.91836
H -12.4407 -9.21996 -2.84353
H -12.0398 -9.03682 -1.27111
O 2.84804 -8.27911 -5.59617
H 3.32228 -9.1503 -5.72349
H 3.49759 -7.58979 -5.27522
O 0.263801 12.2119 13.725
H -0.440158 12.1018 14.4267
H 0.255418 13.1539 13.3894
O -6.91838 -14.7917 12.1848
H -6.64779 -14.8046 11.2221
H -6.98701 14.2061 12.5243
O -2.21178 -0.191553 14.3087
H -2.35482 -0.376184 -14.6549
H -2.19942 -1.05471 13.8038
O -8.80711 -3.1203 -3.8589
H -8.16064 -2.57852 -3.32165
H -9.70308 -2.67621 -3.84908
O -3.16189 -1.79539 -6.90153
H -4.14522 -1.67309 -6.76667
H -2.852 -1.20637 -7.64792
O -1.79867 -6.79793 2.66632
H -1.80781 -6.52817 3.62925
H -2.06232 -6.01768 2.09906
O -11.8296 -9.45602 -4.38734
H -12.5142 -9.55557 -5.10951
H -11.0406 -10.0347 -4.59394
O 3.74815 -4.64971 13.1141
H 3.35781 -3.78718 13.4362
H 3.37178 -4.87043 12.2143
O -5.31888 0.634128 -12.4682
H -5.88199 0.713235 -13.2909
H -4.35227 0.682571 -12.72
O 11.8923 11.1111 6.10192
H 11.1881 11.5867 5.5747
H 12.0918 11.6282 6.93428
O 8.2086 -13.6489 -8.84735
H 7.63201 -14.2441 -8.2876
H 8.45274 -14.1216 -9.69411
O 11.2875 -2.73589 -1.91515
H 12.15 -3.12966 -2.23319
H 10.7335 -3.44936 -1.48604
O 5.18459 -8.51057 -10.2541
H 5.42602 -9.47604 -10.3524
H 6.01842 -7.95883 -10.234
O 1.89177 -7.29426 0.192413
H 2.0247 -7.73377 1.08081
H 2.78144 -7.06429 -0.202156
O -0.89215 7.4039 -14.4307
H -0.920867 8.03757 14.7321
H -1.56337 6.67602 -14.5712
O 3.87554 -0.370996 -13.9174
H 3.97797 0.568603 -13.5907
H 3.10044 -0.801972 -13.4553
O 2.75415 1.29585 3.58244
H 2.29787 1.75913 4.34222
H 2.26861 1.49443 2.73103
O -2.28444 3.99769 9.64034
H -2.39393 4.95093 9.35851
H -2.56755 3.3949 8.89429
O 12.2023 -7.83771 9.9914
H 11.2961 -7.56079 10.3112
H 12.1112 -8.36039 9.14369
O -4.14178 9.53408 -3.3481
H -3.29757 9.11301 -3.67989
H -4.81466 9.55929 -4.08748
O -5.90161 2.28209 9.47255
H -5.10875 1.95867 8.95597
H -6.05475 3.25068 9.2764
O -7.46725 -14.092 -13.3404
H -7.98017 -13.2562 -13.5364
H -6.57462 -14.0483 -13.7892
O -14.4311 -12.4904 -4.44182
H -14.0215 -12.4159 -3.53254
H 14.9479 -13.3196 -4.48963
O 11.8053 -6.30025 -7.49817
H 11.0972 -5.93067 -6.89646
H 12.275 -7.05309 -7.03698
O -9.51437 13.8378 10.9863
H -10.2901 13.2091 10.9313
H -8.82642 13.4647 11.6088
O 10.6096 -8.69691 6.47732
H 10.0364 -8.99699 7.23987
H 11.5709 -8.72574 6.75144
O 5.33729 13.513 -1.97271
H 5.66874 14.1823 -2.63776