2611
Atoms. Timestep: 8000000
O -10.9613 8.58063 -1.25
H -11.7193 9.20516 -1.438
H -11.1171 8.1209 -0.375726
O 7.66769 6.61225 -14.9667
H 6.7768 6.6584 14.6186
H 7.7469 7.36116 -14.3087
O -1.00343 -9.68236 -0.762589
H -0.475094 -10.2061 -1.43086
H -1.577 -9.01623 -1.23933
O -7.20272 14.5052 -13.3343
H -6.79422 14.716 -12.4461
H -8.08755 14.9647 -13.4116
O 1.00989 7.99961 7.25426
H 0.785468 8.55795 8.05295
H 1.48279 7.16962 7.55004
O -13.2668 9.9199 12.9329
H -14.0038 9.48173 12.4183
H -13.3409 9.67104 13.8986
O -13.2741 11.1507 5.12813
H -12.8189 10.3698 5.55604
H -13.8375 10.8315 4.36606
O 4.16387 -11.251 8.54977
H 3.47901 -11.9794 8.53028
H 3.71508 -10.3678 8.41354
O -7.63475 0.674334 1.84054
H -7.304 0.947009 2.74401
H -8.00288 -0.2543 1.88664
O 0.0800703 11.5256 4.46163
H -0.453183 11.2674 3.65605
H 0.777838 10.8309 4.6362
O -0.525803 7.00966 -0.951476
H -0.985404 6.39347 -1.59107
H -0.330408 6.52177 -0.100715
O 14.5126 7.50877 2.43901
H 14.3591 6.61744 2.86561
H 14.1697 7.49225 1.49979
O -4.76664 -9.31193 4.62282
H -4.86063 -8.31676 4.65145
H -3.80411 -9.55235 4.4974
O 1.81754 -11.7641 -6.77575
H 1.57622 -10.8724 -6.39293
H 2.54431 -11.6504 -7.45316
O -0.352472 -3.8265 6.4293
H 0.473884 -4.37694 6.54829
H -0.185941 -3.11953 5.74194
O 3.66401 -14.5743 0.622338
H 3.52398 14.8008 -0.113918
H 4.62944 -14.5647 0.882825
O 10.4724 -12.4827 10.7337
H 9.71939 -12.5988 10.0861
H 10.2318 -12.9106 11.6049
O 2.16556 8.0756 -12.474
H 1.71222 7.20111 -12.3015
H 1.78675 8.77309 -11.8657
O -1.11109 -12.6776 0.246682
H -1.78216 -12.7233 0.986672
H -0.210457 -12.4657 0.62609
O -2.15027 7.6721 -11.8235
H -1.42512 7.5151 -11.153
H -1.96552 8.519 -12.3221
O -13.5802 -4.3292 13.1206
H -13.7942 -3.38395 13.367
H -12.7389 -4.61156 13.5816
O -10.8748 7.31363 -14.204
H -10.2311 6.64476 -14.5758
H -10.7306 7.40304 -13.2185
O 3.44935 -10.443 -8.81826
H 4.34057 -10.767 -8.50087
H 3.51757 -10.1654 -9.77652
O 13.1223 5.19145 -10.977
H 13.3127 4.2107 -10.9333
H 12.2656 5.38627 -10.4994
O 8.38004 -13.012 -4.11098
H 9.01751 -13.7515 -3.89481
H 8.05242 -12.5958 -3.2628
O 13.3936 14.6034 10.9618
H 14.1479 -14.8481 11.2587
H 13.0816 14.8945 10.0575
O -8.05037 14.5612 11.1074
H -7.38166 -14.7579 10.9142
H -7.87747 14.1803 12.0157
O -15.0148 -7.41033 -9.16055
H 14.9059 -6.88577 -10.0039
H 14.6464 -6.89304 -8.39171
O -8.72008 -7.50153 7.81147
H -9.31652 -7.0645 8.48473
H -7.78001 -7.5065 8.15243
O -3.06666 5.54117 0.431132
H -3.76716 6.05027 0.931264
H -3.46532 5.15521 -0.400801
O 7.71605 -3.54786 10.6031
H 8.34455 -2.89455 11.0252
H 7.00542 -3.05195 10.104
O 11.9505 9.02696 -5.53188
H 11.7961 8.09285 -5.85372
H 12.3233 9.00254 -4.60428
O 5.61367 -14.5683 -8.70319
H 4.71387 -14.3098 -9.05468
H 6.26372 -14.6253 -9.46094
O -12.8829 2.57643 8.72854
H -12.0207 3.03516 8.5136
H -12.8814 2.29697 9.6887
O 5.79819 -1.49463 0.46731
H 6.26915 -0.768224 0.967846
H 6.14334 -1.53103 -0.470535
O -10.5257 11.2078 0.117944
H -11.308 11.1329 -0.500448
H -9.83765 11.8104 -0.28644
O -14.5273 14.1521 7.96254
H -13.9713 13.9089 7.16771
H 14.6679 14.5967 7.6569
O -9.05694 3.4872 -10.51
H -9.58737 4.20419 -10.0577
H -9.44785 3.30188 -11.4116
O -1.81323 -9.61711 4.40087
H -1.6924 -10.5258 4.80051
H -1.01896 -9.04944 4.61741
O 5.36379 9.17736 -11.2068
H 5.75785 9.48789 -10.3417
H 5.20015 8.19177 -11.1637
O -14.178 12.101 -14.8025
H -14.7917 12.6621 -14.2469
H -14.7178 11.5103 14.635
O 0.389195 -13.6551 -8.39446
H 0.460358 -13.3288 -9.33705
H 0.880103 -13.0302 -7.78744
O 13.3936 3.75208 9.36995
H 12.6711 3.93996 10.0354
H 14.2838 3.79499 9.82344
O 11.4343 -4.65734 -7.63426
H 11.8267 -3.88409 -8.13245
H 11.8604 -4.72321 -6.73196
O -5.3385 -0.233477 0.705876
H -6.25238 0.137416 0.87101
H -4.79014 0.439823 0.20992
O 10.8616 1.3621 12.232
H 10.8928 1.16551 13.212
H 10.9372 0.507598 11.718
O 7.74617 11.3399 -4.58782
H 8.58616 11.8565 -4.75389
H 6.97018 11.9694 -4.54766
O -12.2747 -3.71375 -0.863291
H -12.4182 -3.13474 -1.66589
H -11.7112 -4.50019 -1.11611
O -4.42064 -11.1868 14.48
H -5.07316 -11.617 13.8562
H -3.59786 -10.927 13.9745
O 6.04551 -0.792733 -4.06909
H 6.23029 -0.483205 -3.13633
H 6.78606 -0.495474 -4.67178
O 13.6756 -1.02296 -3.52519
H 12.8939 -1.52338 -3.15305
H 13.5149 -0.824841 -4.4921
O 0.338829 -7.75977 5.01251
H 0.00799297 -6.98468 4.47419
H 1.32592 -7.85692 4.88517
O 2.20762 0.780014 13.4445
H 2.195 1.14219 14.3766
H 2.06486 1.52668 12.7948
O 3.41215 -5.48892 -0.877514
H 3.32895 -6.47379 -1.02956
H 3.80894 -5.05881 -1.68842
O -12.0451 -11.3194 -14.7589
H -12.8342 -11.5248 -14.1801
H -12.3514 -11.1683 14.3384
O -9.35979 -9.06769 14.3588
H -9.4749 -9.63144 -14.8605
H -9.08045 -9.64579 13.5921
O 0.382414 -11.5357 -2.06898
H 0.258816 -11.9037 -2.99054
H -0.168654 -12.0634 -1.42261
O -10.881 6.82102 9.82744
H -10.4381 6.74694 10.721
H -11.8621 6.65507 9.92692
O 5.96814 9.85858 9.77911
H 5.10434 9.7003 9.30077
H 6.54453 10.4671 9.2337
O -2.42507 -9.07394 1.63039
H -2.2382 -9.63539 2.43653
H -1.87583 -9.4014 0.86154
O 1.92592 -1.94313 -6.3198
H 2.61657 -2.46672 -5.82094
H 1.02613 -2.10888 -5.91618
O 7.37221 0.165053 -11.0127
H 8.03053 -0.581582 -10.917
H 7.82204 0.954572 -11.4302
O 5.72075 -3.9367 -9.97345
H 6.64328 -4.03033 -9.59904
H 5.68364 -4.36081 -10.8783
O -7.2477 2.24023 -13.7128
H -8.15862 2.6248 -13.5633
H -6.55558 2.89402 -13.407
O 7.06036 -9.59523 -1.93989
H 7.44288 -10.4477 -1.5836
H 6.92639 -8.95 -1.18773
O 4.52368 1.62479 -10.2038
H 5.36167 1.08518 -10.285
H 3.88492 1.35917 -10.9259
O -4.81235 -0.374335 8.4161
H -5.77613 -0.176626 8.23707
H -4.74255 -1.10603 9.09415
O 6.86233 -1.37916 8.97168
H 7.73676 -1.40197 8.48705
H 6.91229 -0.715863 9.71837
O 7.25097 4.67443 4.27061
H 6.69097 4.53828 5.08784
H 7.51481 5.63668 4.20385
O -1.71375 -9.09068 -3.87531
H -2.21816 -9.36041 -4.69557
H -0.813403 -9.52584 -3.87952
O -5.68966 10.2595 2.29115
H -5.08105 11.052 2.32903
H -5.70429 9.89464 1.36018
O 8.0102 9.44902 -6.54288
H 7.12446 9.66456 -6.954
H 8.17689 10.0615 -5.77015
O -1.55014 -0.359729 -5.76051
H -1.847 0.587983 -5.64336
H -0.625506 -0.374763 -6.14107
O -7.98947 12.8887 6.51607
H -7.93076 12.3431 7.35202
H -8.82704 13.4348 6.53261
O 12.9022 10.4497 5.49159
H 12.9463 9.71495 6.16851
H 12.7812 10.0564 4.58018
O -12.2121 -8.8631 -9.80684
H -12.9667 -8.5302 -9.24134
H -12.2469 -9.86134 -9.85496
O -9.87112 -13.9364 9.39915
H -10.7824 -14.3472 9.42971
H -9.20853 -14.5645 9.8072
O -10.275 -3.4177 3.41147
H -10.2161 -4.41534 3.44697
H -10.3029 -3.11919 2.45747
O -10.0192 -10.9717 -4.478
H -9.58724 -10.7562 -5.35379
H -10.1412 -11.9613 -4.40113
O -4.36226 -1.80129 -14.3328
H -4.85036 -2.00114 -13.4832
H -4.99371 -1.3925 -14.9918
O -12.3272 14.724 9.78714
H -11.7621 13.9966 10.1765
H -13.0064 14.3248 9.17123
O -0.111802 3.9365 -13.3766
H -0.339996 2.96522 -13.4441
H 0.306037 4.24101 -14.2326
O 2.54483 1.6259 -11.9246
H 1.60462 1.78017 -11.6209
H 2.76358 2.2594 -12.6667
O 6.78735 14.3627 -10.8628
H 7.41235 -14.9025 -10.979
H 7.3136 13.5151 -10.7947
O -10.2561 -2.43977 -10.1454
H -10.632 -3.23143 -9.66371
H -9.26354 -2.41715 -10.0256
O -4.46889 8.39289 13.413
H -5.44722 8.50874 13.2413
H -4.03497 7.9877 12.6083
O 10.1246 -7.02499 -1.57031
H 10.2854 -7.56361 -0.743241
H 10.9841 -6.91665 -2.06988
O -13.185 8.90496 2.82031
H -14.0397 8.38597 2.83537
H -13.3456 9.79951 2.40317
O 12.0427 14.486 -4.99285
H 12.2035 -14.6065 -4.70692
H 12.88 13.9533 -4.8695
O 13.8861 2.65151 12.1167
H 13.6836 1.96031 12.8105
H 13.289 2.51523 11.3262
O 13.4334 -7.6486 0.989295
H 13.3001 -7.91314 1.94443
H 14.1936 -7.00206 0.925428
O 8.17628 8.26363 12.7079
H 8.66181 7.83668 13.4707
H 8.81695 8.81128 12.1697
O 5.90639 6.37299 7.8398
H 6.61172 6.43219 8.54621
H 5.9641 7.1735 7.24325
O -5.15344 4.40972 14.2771
H -5.20841 3.62125 13.6645
H -4.19391 4.64307 14.4347
O -0.334672 2.82 12.6766
H -0.44948 3.50337 11.9556
H -1.09762 2.17415 12.6482
O -0.227535 0.0872452 6.47301
H -0.108897 -0.451283 5.63879
H -0.825119 -0.405413 7.10561
O 1.95354 -6.37952 8.07152
H 1.91442 -5.84774 8.9175
H 2.01432 -5.75858 7.29001
O -13.5764 0.169375 11.3711
H -13.1709 -0.591995 11.877
H -14.5341 -0.0365126 11.17
O -2.22581 0.0927748 12.7335
H -2.07853 -0.177094 11.7819
H -3.07843 0.610398 12.805
O 5.09618 13.9308 -12.9444
H 4.70773 13.0135 -13.0315
H 5.90752 13.8952 -12.3609
O 3.40317 14.01 -1.79766
H 2.48724 14.1585 -2.1705
H 4.08553 14.3525 -2.44345
O -1.82533 -12.4061 5.64179
H -2.80624 -12.5856 5.56696
H -1.35713 -13.2351 5.94751
O -13.6204 6.6661 9.82065
H -14.1862 5.97386 10.2686
H -13.9582 6.82322 8.89263
O 4.5642 -9.52703 3.44102
H 4.22676 -10.183 4.11616
H 5.54526 -9.3864 3.57431
O -12.6034 1.90706 -11.4175
H -12.4165 1.44492 -10.5506
H -12.1284 1.4315 -12.158
O 0.839807 -7.51884 1.82294
H -0.0211199 -8.02134 1.74356
H 0.892566 -6.83149 1.09853
O 10.6123 -10.3785 1.92591
H 10.8213 -10.4145 2.90316
H 9.63701 -10.1967 1.80014
O -1.67896 12.0644 -6.07701
H -1.29994 12.4901 -6.89867
H -2.67702 12.1215 -6.10218
O 12.6951 6.8108 0.410346
H 13.4799 6.44269 -0.0881975
H 11.8624 6.3439 0.112741
O -3.5874 10.5638 9.13242
H -4.11511 9.72064 9.23529
H -3.49175 10.7807 8.16092
O 7.85293 -3.28457 2.56654
H 7.34026 -3.50644 1.73711
H 8.26266 -2.37723 2.47245
O 1.45247 12.4703 -8.37573
H 2.2179 12.1824 -8.95126
H 0.605495 12.0657 -8.72066
O 13.0383 9.82473 13.7838
H 13.4931 9.79635 14.674
H 13.3415 10.6337 13.2802
O 3.42386 10.9196 9.26749
H 3.05545 11.3427 8.43966
H 3.70568 11.6329 9.90923
O -10.7347 15.0027 3.29508
H -9.77217 14.8924 3.04741
H -10.8624 -14.1543 3.75229
O 14.1156 -1.28888 -8.1072
H 13.8835 -1.98898 -8.78245
H 14.1866 -0.399918 -8.55966
O 14.7006 5.19626 11.3619
H 14.5377 4.47901 12.0395
H 14.0587 5.94825 11.5118
O 9.12108 -8.35549 -3.72181
H 9.33276 -7.81376 -2.90835
H 8.40691 -9.02037 -3.50293
O -0.965881 10.2598 -4.30054
H -1.61583 9.5537 -4.01958
H -1.39083 10.8498 -4.98707
O -14.8867 9.30147 -2.77102
H 14.4566 8.84237 -3.32582
H -14.0669 9.45522 -3.3227
O -3.98452 8.58357 -6.49803
H -4.28672 7.85259 -7.10987
H -3.07077 8.37165 -6.15138
O -13.4185 6.49014 -12.9961
H -12.6255 6.77212 -13.5361
H -13.1218 5.87956 -12.2619
O 9.17201 12.3743 -12.3865
H 10.0406 11.9819 -12.0838
H 8.44391 12.0949 -11.7605
O -13.9292 -7.30799 13.1524
H -14.0981 -6.32259 13.1737
H -13.3083 -7.5559 13.896
O 3.49917 12.8863 -10.5074
H 3.47902 13.8693 -10.6897
H 4.02669 12.4256 -11.2213
O -8.65682 -10.5384 -6.65426
H -8.38568 -11.4643 -6.91725
H -9.18963 -10.1247 -7.39252
O -11.9213 5.04439 -3.73244
H -12.5654 4.62595 -3.09203
H -11.2458 4.36454 -4.01771
O -4.7752 -14.8277 -7.17402
H -4.83059 -13.9561 -6.68694
H -5.57372 14.6509 -6.94959
O -1.13345 13.3472 10.9781
H -0.807202 13.0086 10.0955
H -0.375327 13.3628 11.63
O -0.609645 4.63802 9.09889
H -0.453402 3.68923 8.82431
H -0.961568 5.15684 8.3198
O -14.2584 -7.84775 5.47978
H -14.8117 -7.12642 5.89642
H -14.1105 -8.58018 6.14435
O -1.6849 -1.07205 -14.7445
H -1.58077 -0.530937 14.4582
H -2.6491 -1.30387 -14.6157
O -6.6191 1.20483 4.37089
H -6.35844 0.275548 4.63262
H -7.12437 1.63284 5.12023
O -10.0171 10.261 6.90002
H -9.99416 11.2513 6.76344
H -9.19736 9.85038 6.50065
O 2.30871 14.897 -12.6675
H 1.85285 14.588 -13.5022
H 3.29908 14.8879 -12.8057
O 12.1599 13.4221 -1.66938
H 12.7347 12.6725 -1.99772
H 12.3561 13.5943 -0.704048
O 7.9984 -5.89488 -4.98368
H 8.67172 -6.22509 -4.32216
H 7.45505 -6.66464 -5.31873
O 10.3563 7.75334 3.01583
H 9.87965 7.83123 2.1402
H 11.0661 8.45542 3.07254
O -7.03533 -8.08942 2.66557
H -6.37657 -8.71118 2.24197
H -6.77151 -7.14388 2.47489
O 12.9878 8.88306 7.59479
H 12.741 9.09801 8.53973
H 12.4462 8.10454 7.2777
O -1.93298 -0.00480483 10.1376
H -2.20795 -0.516076 9.32332
H -1.28707 0.713134 9.878
O -1.50547 -10.5862 13.2685
H -0.978078 -10.7541 14.1014
H -1.21056 -9.7246 12.8553
O 2.38042 -7.71945 11.3984
H 2.35694 -6.79093 11.769
H 1.90087 -7.74045 10.5212
O -7.51428 6.7108 8.67488
H -7.45863 6.54215 9.65899
H -7.87482 5.89801 8.21728
O -12.5809 -12.0213 1.48979
H -13.1051 -12.0561 2.34066
H -12.7556 -11.1527 1.02598
O 7.54386 -6.29048 9.098
H 7.39759 -5.44531 9.61211
H 6.8729 -6.97475 9.38367
O -13.4661 3.64014 6.15801
H -14.0024 4.47735 6.05133
H -13.2294 3.51643 7.12169
O 8.73883 13.6931 -8.69216
H 8.212 13.5028 -7.86376
H 9.63843 13.2622 -8.62142
O -4.32235 1.929 12.8364
H -3.93247 2.4049 12.0481
H -4.96945 1.23518 12.5204
O 8.61611 -0.854781 7.06
H 7.96104 -0.507 6.38922
H 8.8682 -1.7933 6.82412
O 13.9608 -5.98653 6.63203
H 13.2851 -5.90345 5.89953
H 14.4167 -5.10667 6.76635
O -7.33163 -3.71335 10.8804
H -8.00588 -3.87669 10.1602
H -7.7708 -3.80192 11.7745
O -10.2567 -6.6176 12.6494
H -10.9553 -6.14119 13.1833
H -9.83079 -7.32493 13.2136
O -3.02349 -1.59981 -10.8769
H -2.79193 -1.17624 -10.0012
H -2.19748 -1.68682 -11.4339
O 3.96704 -4.66598 -3.46456
H 4.18293 -5.58439 -3.79609
H 4.14894 -3.99935 -4.18742
O -3.66035 -12.196 10.3183
H -2.68703 -12.0595 10.5028
H -3.87 -11.8885 9.39012
O -8.7726 -4.13156 13.4723
H -8.52706 -4.87347 14.0963
H -9.5543 -4.41023 12.9144
O -5.87719 -14.8229 2.40229
H -6.49531 14.4285 2.42296
H -5.96556 -14.3068 3.25425
O -8.05257 3.73342 -5.48347
H -7.98963 3.29225 -4.58825
H -7.94678 4.722 -5.37605
O -6.23885 -1.22014 5.27369
H -7.02475 -1.66251 5.70576
H -6.01038 -1.69993 4.42658
O 4.97664 12.8304 -8.11123
H 4.59884 12.6527 -9.01989
H 5.30833 13.7728 -8.06667
O -0.599597 -12.6284 -14.5427
H -0.462638 -13.4319 14.9152
H -1.4909 -12.6894 -14.0934
O -12.471 10.0948 -3.87104
H -11.6519 10.1687 -4.43997
H -12.393 10.717 -3.09214
O 10.7112 8.39511 13.8725
H 10.1995 9.10178 14.3611
H 11.6755 8.65541 13.8237
O 12.7637 -13.1342 -1.74238
H 11.9847 -13.434 -1.19169
H 12.4322 -12.6787 -2.56863
O -11.2379 -5.41408 -5.71267
H -10.5395 -5.79821 -5.1088
H -11.6737 -6.15102 -6.2294
O -8.83664 12.6925 -1.58973
H -8.26244 12.4211 -2.36213
H -8.41121 13.4612 -1.1121
O -2.9913 -4.09019 10.8287
H -2.17329 -3.51514 10.8425
H -2.80256 -4.9497 11.3037
O 0.87949 10.0685 -14.3549
H -0.0728971 10.0101 -14.0557
H 1.38808 9.28246 -14.0036
O 5.28128 7.39607 -0.232252
H 5.64789 8.00765 0.46887
H 4.28655 7.49118 -0.270488
O -8.96528 -3.56783 -7.55254
H -8.38528 -3.24008 -8.29832
H -8.40502 -4.0597 -6.88606
O -3.22357 14.8513 1.51726
H -4.18377 -14.9662 1.34469
H -2.88299 -14.6229 2.27031
O -8.36958 -10.5411 12.3758
H -7.79777 -9.8608 11.9173
H -9.04948 -10.8931 11.7325
O 0.706923 -8.96774 -11.6481
H 0.34874 -8.28966 -11.0062
H 1.64417 -9.20557 -11.3931
O -0.919359 -5.47402 3.99681
H -1.39979 -4.92557 4.68119
H -1.51779 -5.62386 3.20976
O -13.0772 11.4702 2.04276
H -12.9997 11.9985 1.19725
H -12.2418 11.5791 2.58153
O 13.7478 0.548321 9.00367
H 13.2409 1.38637 8.80185
H 14.384 0.355519 8.25663
O 7.01292 14.1219 4.17604
H 7.68224 14.8516 4.03618
H 7.4563 13.3437 4.62076
O -11.2532 -1.7162 12.4922
H -11.3692 -1.80198 13.4818
H -10.3125 -1.44447 12.2891
O -3.61584 -8.57026 8.92179
H -3.90502 -9.32558 8.33368
H -2.73799 -8.21498 8.60061
O 8.81972 11.0043 1.43452
H 9.72359 10.6302 1.22689
H 8.33341 11.1937 0.581513
O -2.47263 2.36168 -2.07185
H -2.7959 1.9265 -2.91216
H -2.30163 1.66169 -1.37847
O 6.74692 3.66929 -10.591
H 6.54546 4.17287 -9.75088
H 5.92328 3.19398 -10.9004
O -5.50817 -2.03732 2.89809
H -6.20554 -2.5822 2.43249
H -5.14208 -1.35417 2.26619
O 11.2799 -1.86491 -12
H 11.5084 -0.899491 -12.1256
H 10.755 -2.18835 -12.7874
O 1.86132 -1.05916 -11.656
H 2.38757 -0.229305 -11.8414
H 2.10735 -1.41539 -10.7545
O -10.9742 -12.633 5.60969
H -11.9464 -12.8564 5.67999
H -10.8575 -11.835 5.01836
O -7.87393 10.0649 11.1014
H -8.7897 9.78786 10.8105
H -7.4059 9.2848 11.5166
O -1.02781 -12.0169 10.9293
H -1.13045 -11.4412 11.7404
H -0.251918 -12.6351 11.0553
O -0.666631 -2.47605 10.5423
H -1.12964 -1.62703 10.2878
H 0.0319709 -2.28126 11.2308
O 10.0999 1.55428 -1.31577
H 10.9028 1.93097 -1.77777
H 9.50461 2.30131 -1.01974
O 13.8785 -10.5104 5.83506
H 14.8732 -10.4237 5.89003
H 13.463 -10.1039 6.64879
O 4.00215 -5.44209 2.00429
H 3.71283 -5.59492 1.05933
H 4.72472 -6.09167 2.24084
O -3.90841 6.64953 -2.88883
H -3.55242 7.56444 -3.07914
H -4.81224 6.72451 -2.46757
O -12.7413 11.5297 -1.43264
H -13.5355 10.924 -1.48243
H -13.0484 12.4711 -1.29311
O 0.544334 5.14916 -3.56794
H 1.11161 4.79315 -2.82533
H -0.397366 5.25268 -3.2478
O -12.3008 14.8334 -9.85978
H -12.3117 -14.9464 -8.89351
H -12.9702 -14.6534 -10.3588
O 11.7352 3.91397 -4.68657
H 12.6678 3.61262 -4.48799
H 11.1583 3.11692 -4.86506
O -15.0138 -4.4931 -0.475756
H -14.0627 -4.46624 -0.783601
H 14.9973 -4.53199 0.523152
O 3.0424 4.64471 10.4519
H 2.79395 3.69305 10.6326
H 2.63154 5.23422 11.1474
O -2.56935 -2.18625 -7.75047
H -2.47955 -1.42275 -7.11093
H -1.79364 -2.80742 -7.63899
O 9.89349 -1.99182 4.56658
H 9.50536 -2.5594 5.29267
H 10.312 -2.5781 3.87294
O 14.5393 -3.58749 -14.248
H 14.0331 -4.22499 -13.6672
H -14.5372 -3.86266 -14.2867
O 12.8242 4.67198 6.77942
H 12.9798 4.48372 7.74914
H 12.4484 5.59278 6.67475
O 4.26402 11.3914 -12.8279
H 4.56543 10.5327 -12.4135
H 4.08129 11.2462 -13.8003
O -5.11556 14.2916 -3.25856
H -5.11517 14.7453 -2.36741
H -5.14545 14.9802 -3.98314
O 14.8494 14.2088 -8.22618
H 14.7492 14.274 -9.21902
H 14.0022 14.5055 -7.78551
O 7.05331 -9.47889 -13.5449
H 6.87417 -8.49544 -13.5719
H 7.8368 -9.69113 -14.1289
O 5.57523 11.3513 6.57059
H 5.04723 11.9713 7.15095
H 6.54507 11.589 6.62471
O -1.86998 4.90575 -2.31204
H -1.96214 3.91404 -2.40166
H -2.71425 5.34771 -2.61516
O -7.44254 2.75358 -1.7243
H -6.79927 2.80097 -0.960119
H -8.3228 2.40897 -1.39812
O -0.444231 -14.6248 6.91362
H -1.00512 -14.629 7.74151
H -0.513632 14.5241 6.45951
O 2.31947 7.97403 -1.79398
H 2.36991 8.56426 -2.59963
H 1.38576 7.63155 -1.68961
O -13.6955 -1.14075 -2.77786
H -13.282 -1.86238 -3.33308
H -14.6611 -1.04567 -3.02021
O -14.348 14.1264 3.62099
H -13.7139 14.2007 4.39066
H -13.8855 13.6904 2.84899
O 4.38476 -4.87359 -7.70258
H 4.08263 -5.74357 -8.09226
H 4.92379 -4.37393 -8.38067
O 11.494 -8.13596 14.6335
H 10.6904 -7.74257 -14.9571
H 12.035 -8.64136 -14.7315
O -13.1123 -3.4504 3.74636
H -13.3935 -2.79659 3.04387
H -12.1149 -3.45497 3.81735
O -7.15838 -13.212 4.91406
H -7.82655 -13.7243 5.45357
H -7.36761 -12.2354 4.96446
O 11.7332 11.1349 0.686904
H 11.8738 12.0815 0.396785
H 11.7141 10.5394 -0.116276
O 0.554173 7.47441 -4.88631
H 1.16141 8.21314 -4.59381
H 0.744437 6.65358 -4.34775
O -1.35564 8.11153 3.82902
H -1.50718 9.02642 3.45483
H -0.645991 7.6478 3.29858
O -13.4036 14.039 -1.10594
H -13.0234 14.7598 -0.526394
H -14.196 14.3936 -1.60225
O 3.16369 5.79728 -9.21508
H 2.43309 6.19425 -8.65952
H 3.24571 4.82192 -9.01024
O 14.1268 -9.93639 -3.25126
H 14.4979 -10.7116 -3.76251
H 13.1316 -9.9192 -3.34773
O 11.3657 6.76917 6.79096
H 11.0755 6.278 7.61224
H 10.5658 7.16199 6.3373
O -11.6455 13.2172 -14.2422
H -12.51 12.7278 -14.3565
H -11.1052 13.1396 14.9571
O 9.1924 -5.99728 2.28458
H 9.97367 -6.36531 2.78875
H 9.28968 -5.00594 2.19637
O -12.4024 5.40489 13.023
H -12.8887 4.71349 13.5572
H -13.0541 5.90438 12.4522
O -11.7605 -5.34822 14.7783
H -11.9014 -6.30247 -14.9951
H -11.5844 -4.79914 -14.4418
O 4.94138 7.25926 13.0121
H 5.12268 8.24169 13.0566
H 5.47276 6.85564 12.2673
O -0.92863 1.9056 8.26593
H -1.89147 2.04679 8.03567
H -0.480797 1.39819 7.52973
O -12.6559 -10.0797 -5.24586
H -12.9972 -9.27139 -4.76619
H -11.7972 -10.3771 -4.82855
O -12.3579 7.33923 -5.34869
H -12.3612 6.55523 -4.72793
H -12.545 8.17453 -4.83169
O -3.37637 3.17011 10.673
H -3.07358 4.11371 10.5391
H -3.66584 2.78539 9.79656
O -0.309132 -9.92169 -8.26357
H 0.111102 -10.7049 -8.72181
H -0.0348284 -9.07846 -8.72587
O 14.5946 0.77005 -9.76491
H -14.9793 1.50868 -9.27521
H 14.301 1.0982 -10.6628
O 12.4142 -15.0151 -7.72929
H 12.1959 -14.7923 -6.77917
H 12.6176 -14.1741 -8.23058
O -6.01232 -0.132026 11.9749
H -7.00833 -0.221375 11.9744
H -5.62024 -0.768437 11.3106
O 12.5189 -1.74605 -14.867
H 13.2882 -2.33684 -14.624
H 11.8263 -2.28225 14.6877
O 10.5396 -4.79194 -13.0304
H 10.0145 -3.96021 -13.2103
H 10.718 -4.86779 -12.0493
O -8.27638 -13.3173 -7.00276
H -7.91828 -13.7026 -6.15231
H -7.58345 -13.3912 -7.71996
O -7.76509 -11.1779 -3.11598
H -7.13064 -10.4051 -3.12941
H -8.55013 -10.9749 -3.70122
O -4.9994 10.0353 -0.749661
H -4.21145 10.6172 -0.950946
H -5.6174 10.0274 -1.53581
O 1.0173 13.9564 0.763793
H 0.959069 14.4717 -0.0912421
H 0.781978 12.9996 0.593019
O -2.12403 -12.8063 -7.40348
H -2.09196 -13.3807 -6.58556
H -1.24153 -12.8443 -7.87227
O 6.47737 -7.86571 -6.05766
H 5.64268 -7.45991 -6.42999
H 6.24163 -8.66564 -5.50581
O 0.366141 10.8845 -0.207201
H -0.478174 10.3817 -0.0219254
H 1.13416 10.4203 0.234057
O 12.173 8.75526 10.4979
H 12.2002 8.05733 11.2135
H 12.5239 9.61854 10.8606
O -10.0868 10.4067 -6.56612
H -9.51932 9.66341 -6.21185
H -10.9561 10.0357 -6.89288
O -6.77485 -12.5884 -9.63534
H -6.65549 -13.071 -10.503
H -5.90885 -12.1667 -9.36663
O 0.263585 -8.24052 9.49588
H 0.693002 -7.49416 8.98739
H -0.277346 -7.86363 10.2478
O 11.9397 1.09511 -12.2269
H 12.5987 1.70899 -12.6616
H 11.2082 1.63356 -11.8086
O 3.53422 -14.1216 4.32009
H 4.09685 -14.927 4.13343
H 2.62653 -14.2492 3.92029
O 4.4266 -3.09883 -5.68238
H 4.39965 -3.94892 -6.20833
H 5.3621 -2.74583 -5.6671
O 5.45052 -3.15795 -14.8259
H 4.49411 -3.12932 -14.5353
H 6.03097 -2.79167 -14.0986
O -12.5182 12.5649 12.4737
H -12.8196 11.651 12.7456
H -13.0313 13.2519 12.9882
O 13.2517 -5.73246 -13.1031
H 13.0896 -6.5498 -12.5502
H 12.4091 -5.47906 -13.5783
O 8.89114 -2.21043 -10.6133
H 9.84056 -2.32809 -10.9044
H 8.87016 -1.8917 -9.66564
O -2.66094 2.52436 -14.795
H -3.28547 2.39041 14.4727
H -2.45281 3.49786 -14.7002
O -6.05053 12.0988 -14.2535
H -6.71444 12.7154 -13.8304
H -6.32292 11.9127 14.8396
O 9.39489 -10.3786 -14.3943
H 9.64312 -11.3469 -14.423
H 9.82496 -9.90136 14.8765
O 9.57372 -12.4134 -6.41724
H 9.09135 -11.674 -6.88695
H 9.0374 -12.7128 -5.6281
O 5.4308 -11.7649 -7.28888
H 4.97867 -11.7985 -6.39756
H 5.6031 -12.6959 -7.61053
O 5.64832 -8.18822 9.89172
H 5.3523 -8.72903 10.6791
H 4.9863 -8.29049 9.14924
O 0.261365 1.79776 -10.0708
H -0.216166 1.99868 -10.9261
H -0.107704 0.958131 -9.67228
O -7.72559 5.28521 1.65407
H -8.20727 6.08335 2.01595
H -8.25106 4.89274 0.899182
O 11.193 7.89462 -11.8239
H 12.0742 7.58168 -12.178
H 10.9963 7.42929 -10.9608
O -12.7134 4.76502 -11.0998
H -13.0723 3.83334 -11.043
H -11.9271 4.8572 -10.4889
O 1.02645 -13.7366 11.098
H 1.77762 -13.954 11.7213
H 1.38243 -13.6377 10.1688
O 2.88819 -14.6304 -9.58358
H 2.59254 -14.2939 -10.4777
H 2.15983 14.8547 -9.1777
O 10.221 -13.7408 13.2231
H 10.8449 -14.517 13.3141
H 9.37728 -13.9307 13.7253
O -6.95647 6.42463 -5.92539
H -6.13205 5.93265 -5.64556
H -7.05913 7.24776 -5.36689
O 12.2747 -11.9524 13.8974
H 11.488 -12.5041 13.6205
H 13.1128 -12.3627 13.5377
O -9.99503 12.6909 13.4278
H -10.7072 12.4491 12.7687
H -9.21084 12.0817 13.3097
O -14.6065 7.44992 7.37409
H -13.8821 8.082 7.09891
H 14.5439 7.90598 7.29859
O 3.50711 11.3032 14.6091
H 3.98136 11.5516 13.7645
H 2.82192 10.6018 14.4128
O -13.5249 1.03302 -5.56773
H -12.8958 1.80687 -5.64111
H -13.0441 0.188907 -5.80497
O 5.57137 2.92943 -3.63143
H 5.16489 2.8205 -4.53858
H 5.41755 2.09935 -3.09541
O -6.26758 11.101 -11.1448
H -5.36149 10.8536 -10.8016
H -6.17592 11.5533 -12.032
O -8.36665 -2.78549 6.81877
H -8.70521 -3.39805 7.53302
H -9.13617 -2.44884 6.27607
O -13.9484 1.39834 4.71484
H -14.0082 2.37584 4.91713
H -14.0606 0.875592 5.55991
O 13.9979 6.85858 -12.9056
H 14.9686 6.65979 -13.0404
H 13.6799 6.4148 -12.0678
O 10.3101 12.5453 3.81228
H 11.2363 12.8451 3.5836
H 9.89791 12.1004 3.01719
O -3.61951 11.0613 6.39172
H -3.32645 10.15 6.10239
H -4.18929 11.4702 5.67885
O -0.773937 5.04872 1.69792
H -0.871607 4.91055 2.6835
H -1.6666 4.95194 1.2577
O 6.28174 8.33862 6.08205
H 5.94755 9.27896 6.01813
H 6.24737 7.91055 5.17895
O 0.392385 -2.13521 4.33221
H 1.17153 -1.60618 3.99596
H 0.0941398 -2.77578 3.62459
O 14.9126 5.5074 5.2322
H 14.1976 5.14942 5.83275
H -14.7689 6.36221 5.61012
O -5.89904 -0.0907229 -6.72158
H -5.98614 0.868726 -6.45348
H -5.30007 -0.564211 -6.07578
O 14.6248 -12.3653 0.0282756
H 13.9811 -12.5184 -0.721569
H -14.5363 -12.0569 -0.342243
O 14.7576 10.5047 0.653914
H 14.9036 9.57393 0.318648
H -14.5457 10.7497 1.28748
O -7.4873 14.7767 -0.475056
H -6.49495 14.8174 -0.591606
H -7.87086 -14.3408 -0.560468
O -6.36765 -6.79676 9.25793
H -6.32035 -5.80071 9.33322
H -5.47486 -7.15295 8.98214
O -4.27354 -1.46985 -4.95443
H -3.35511 -1.11358 -5.12636
H -4.60551 -1.1258 -4.07612
O -3.69205 9.36124 -3.58595
H -4.42228 9.28953 -4.26538
H -3.68121 10.2856 -3.20458
O 3.34975 -8.23419 -0.506305
H 3.09057 -8.85784 -1.2438
H 2.91804 -8.52859 0.346317
O 7.8237 -8.82532 4.44695
H 8.62436 -8.72663 5.03789
H 8.11989 -9.05629 3.52016
O -9.25718 1.91877 9.38983
H -9.59413 2.72187 8.89841
H -9.9179 1.65699 10.0933
O 4.01921 -2.19858 5.43056
H 4.49227 -2.89651 4.89286
H 3.34322 -1.73676 4.8563
O -8.43073 9.53848 -1.61765
H -8.17382 10.2937 -1.01463
H -9.41622 9.38126 -1.55363
O -10.5854 -14.7132 13.6927
H -10.2681 14.376 13.6674
H -10.7487 -14.4416 14.6412
O 0.027177 -0.572513 -8.8153
H 0.978374 -0.576464 -9.12387
H -0.354307 -1.49307 -8.89928
O 1.70645 -4.12784 2.53692
H 2.56627 -4.63704 2.49889
H 0.979871 -4.72544 2.87596
O 0.668855 -4.31204 -12.0839
H 0.0206615 -3.55853 -11.974
H 0.186272 -5.12033 -12.4212
O 11.4592 -10.0254 7.61034
H 11.6253 -9.5887 8.4945
H 10.8902 -10.8373 7.74122
O 9.21857 -12.8265 5.47849
H 9.69275 -13.4051 4.8149
H 8.25693 -12.7399 5.21816
O 7.04191 -4.86988 6.76917
H 6.17665 -4.38277 6.88775
H 7.14305 -5.55103 7.4943
O -8.96627 -13.8483 6.6824
H -9.69583 -13.4192 6.14986
H -9.09726 -13.6439 7.65248
O -5.16332 -7.75538 -1.11635
H -5.20994 -8.2265 -0.235509
H -4.20606 -7.629 -1.3765
O 13.3904 2.98903 -0.419593
H 13.8479 2.11784 -0.241523
H 12.9555 3.31484 0.419907
O -4.40423 10.2076 -13.1435
H -4.90767 10.8592 -13.7109
H -4.86272 9.31929 -13.1694
O -13.4842 -11.2555 6.59758
H -12.533 -11.0709 6.84467
H -13.9211 -11.7841 7.32541
O 4.58011 5.22569 -5.49332
H 5.04568 5.13281 -4.61319
H 3.83953 4.55618 -5.55092
O -2.10072 -6.66826 -9.13621
H -2.56341 -7.38364 -9.6598
H -2.33127 -5.77343 -9.51849
O 6.45473 -14.2098 2.19415
H 7.23475 -13.9999 1.60464
H 6.69032 -14.969 2.80099
O 3.74057 3.57859 7.11889
H 4.73659 3.59153 7.20705
H 3.35498 4.37961 7.57681
O 3.10612 2.64335 -14.5235
H 3.9773 3.05431 -14.2549
H 2.58219 3.29862 14.9694
O 1.28917 -1.67318 12.4164
H 1.22293 -2.22523 13.2475
H 1.16117 -0.708344 12.646
O 14.3646 12.0974 12.4621
H 14.5472 11.4465 11.7253
H 14.2895 13.0192 12.0815
O 1.97385 -4.43491 13.4256
H 2.62476 -4.9569 13.9768
H 2.17488 -4.57022 12.4554
O 4.59048 10.1701 4.14624
H 3.64423 10.0145 4.42979
H 5.14079 10.4184 4.94344
O -13.208 -6.6536 10.2022
H -13.2658 -5.67221 10.3853
H -13.8439 -7.14216 10.7996
O -4.00144 -4.02328 4.13927
H -4.68738 -3.43107 3.71644
H -3.75861 -3.66204 5.03957
O 11.8471 14.0114 13.3076
H 12.198 13.3267 13.9464
H 12.5447 14.2147 12.6206
O 7.03397 14.9501 8.77934
H 6.51393 -14.3055 9.12404
H 7.80895 -14.7595 8.23888
O 0.467027 14.2602 -6.66401
H 0.0581554 -14.9867 -7.12032
H 0.947772 13.6984 -7.33729
O -1.75459 10.3572 -13.3098
H -2.75209 10.3759 -13.3781
H -1.47387 10.732 -12.4262
O 10.2689 5.38415 -0.249086
H 10.0721 5.16561 -1.20486
H 9.80726 4.72569 0.345296
O -2.88265 -7.44777 -6.59004
H -2.81376 -6.90958 -7.43005
H -2.40682 -8.31877 -6.71225
O 8.12482 -12.9518 -12.9426
H 8.16983 -12.4224 -12.0955
H 8.64329 -13.8 -12.8336
O -3.45701 -4.63094 -10.465
H -3.55961 -4.81628 -11.4423
H -3.00161 -3.74962 -10.3389
O 10.1479 -0.16304 -3.59872
H 10.5571 -1.02526 -3.30017
H 10.4412 0.573687 -2.98942
O -1.78293 -13.4175 -3.39996
H -2.09149 -13.9703 -2.62584
H -2.0667 -13.8528 -4.2544
O 14.3264 2.48519 -4.63445
H 14.782 1.94432 -5.34144
H 14.0424 1.88489 -3.88678
O 11.4518 -2.38374 -3.03301
H 11.7792 -2.98784 -2.30643
H 10.5365 -2.66943 -3.3169
O 10.7139 6.10205 -9.73181
H 9.74392 6.04507 -9.96817
H 10.8721 5.63954 -8.85943
O 6.45948 5.20932 -8.46257
H 7.02893 4.70225 -7.81557
H 6.06105 6.00387 -8.00436
O -0.0688907 -3.26988 -7.83577
H 0.782462 -2.75793 -7.72125
H -0.0389244 -4.0965 -7.27379
O -8.80685 9.60892 -14.7883
H -8.94804 9.53056 -13.8014
H -9.6767 9.82116 14.8035
O 1.99482 -13.4146 8.2529
H 1.74093 -14.3222 7.91841
H 1.56829 -12.7162 7.67819
O -6.36385 -13.7448 9.40216
H -6.02799 -13.3374 8.55289
H -6.49583 -14.7273 9.27114
O -7.13409 12.3413 13.1284
H -6.45949 13.0506 12.924
H -7.39889 11.8792 12.282
O -13.1895 -2.22917 6.15786
H -13.0857 -2.88011 6.90987
H -13.2328 -2.72563 5.29087
O 9.37959 7.83587 0.595679
H 9.58094 6.92144 0.24455
H 8.54014 8.17774 0.173249
O -6.89153 12.1681 -3.31409
H -6.24095 12.927 -3.34141
H -7.31713 12.0614 -4.21269
O 1.12307 -4.87752 10.4222
H 2.03853 -4.56902 10.1638
H 0.530624 -4.08389 10.5607
O -2.82603 6.00354 -8.56039
H -2.32929 5.15644 -8.37147
H -3.54132 5.82679 -9.2365
O 5.54108 -1.35325 -9.54649
H 6.29133 -0.861673 -9.98862
H 5.59793 -2.32481 -9.77636
O 13.8377 -0.636204 11.4075
H 13.6737 -0.308925 10.4769
H 13.4444 -1.54947 11.5137
O -10.8727 12.9427 -11.3706
H -10.7598 13.1878 -12.3335
H -11.1476 13.7515 -10.8507
O -13.9751 -1.88995 14.0347
H -14.5001 -2.21691 14.8204
H -13.2046 -1.33861 14.3548
O 11.2977 12.625 -8.73532
H 11.7392 13.5215 -8.77098
H 11.8312 12.0137 -8.15069
O -8.01111 -12.5736 -0.771065
H -8.75692 -12.1147 -0.288151
H -8.00904 -12.2881 -1.72943
O 7.27814 -3.30145 -5.4131
H 8.08942 -2.97761 -5.8999
H 7.45547 -4.21141 -5.03821
O -2.03223 -7.19833 6.76196
H -1.20352 -7.28607 6.20919
H -1.92634 -6.4382 7.40305
O 9.83175 -2.49712 -14.1239
H 10.101 -2.73786 14.9808
H 8.86635 -2.23655 -14.1125
O -11.9379 1.89256 -14.6061
H -12.5567 2.17133 14.6966
H -11.8896 0.894306 -14.5719
O -9.72716 8.23724 -11.7327
H -9.44901 9.18029 -11.5502
H -8.92446 7.69514 -11.9813
O -13.128 -14.6754 12.436
H -12.2651 -14.4636 12.8948
H -12.9464 -14.9328 11.4869
O 4.63312 7.78608 -5.04846
H 5.26539 8.02353 -4.31099
H 4.84138 6.86702 -5.38307
O -12.3088 -14.7307 0.918747
H -11.9057 -14.9651 1.8034
H -12.3334 -13.7362 0.816737
O 3.0035 2.69257 -6.2602
H 3.30113 1.79991 -5.9217
H 2.95419 2.67087 -7.25876
O 4.04685 -6.55907 -10.3982
H 3.29939 -5.89572 -10.3627
H 4.47841 -6.5269 -11.2998
O 9.00638 3.87585 -2.54622
H 8.24902 4.44849 -2.86006