LAMMPS data file via write_data, version 15 May 2015, timestep = 18500000

2593 atoms
6 atom types
1728 bonds
4 bond types
864 angles
3 angle types
0 dihedrals
3 dihedral types
0 impropers
1 improper types

-1.5095777340576195e+01 1.5095777340576195e+01 xlo xhi
-1.5095777340576195e+01 1.5095777340576195e+01 ylo yhi
-1.5095777340576195e+01 1.5095777340576195e+01 zlo zhi

Masses

1 15.9994
2 1.00794
3 12.0107
4 1.00794
5 12.0107
6 12.0107

Bond Coeffs # harmonic

1 1000 1
2 469 1.4
3 367 1.08
4 469 0.7

Angle Coeffs # harmonic

1 100 109.47
2 35 120
3 63 120

Dihedral Coeffs # opls

1 0 7.25 0 0
2 0 7.25 0 0
3 0 7.25 0 0

Improper Coeffs # cvff

1 2.5 -1 2

Atoms # full

1624 542 1 -8.1999999999999995e-01 -1.4357343096252334e+01 -1.4100076564896796e+01 -9.8943064688086988e+00 -6 5 -1
1625 542 2 4.0999999999999998e-01 -1.4754412934532857e+01 -1.4176975671212229e+01 -8.9797373938156824e+00 -6 5 -1
94 32 1 -8.1999999999999995e-01 -1.0395273937197668e+01 -9.8968472445219327e+00 -1.0689655061353683e+01 -2 5 -2
1706 569 2 4.0999999999999998e-01 -8.9437845549545294e+00 -8.9737519825834724e+00 -1.3419898991292291e+01 0 10 1
1284 428 2 4.0999999999999998e-01 -1.1725687620327115e+01 -9.8630003068299974e+00 -1.1708519058008509e+01 -2 2 -5
1705 569 1 -8.1999999999999995e-01 -8.8527666874371782e+00 -9.4463665216887627e+00 -1.4296463848291806e+01 0 10 1
1626 542 2 4.0999999999999998e-01 -1.4702818347389764e+01 -1.4840404492087995e+01 -1.0471000426725938e+01 -6 5 -1
315 105 2 4.0999999999999998e-01 -8.0190504003060106e+00 -1.2607005675601606e+01 -1.1470266162640950e+01 -2 5 5
2136 712 2 4.0999999999999998e-01 -1.0281729985272129e+01 -1.2887148126300900e+01 -1.0406810316534111e+01 6 8 0
1282 428 1 -8.1999999999999995e-01 -1.2528653579796396e+01 -1.0096447344105577e+01 -1.2256937370720225e+01 -2 2 -5
96 32 2 4.0999999999999998e-01 -1.0219016631998393e+01 -9.9193999582624617e+00 -9.7055618865583035e+00 -2 5 -2
1283 428 2 4.0999999999999998e-01 -1.3089773844421687e+01 -1.0759200856981973e+01 -1.1761038046068670e+01 -2 2 -5
780 260 2 4.0999999999999998e-01 -1.1028764043720379e+01 -5.5619344625571543e+00 -1.1542326723159375e+01 0 5 -1
2272 758 1 -8.1999999999999995e-01 -1.2531759020513391e+01 -5.3819381475715264e+00 -1.4609162963455177e+01 0 2 -2
1707 569 2 4.0999999999999998e-01 -9.5942734591347723e+00 -1.0109905262336365e+01 -1.4395955065581521e+01 0 10 1
1908 636 2 4.0999999999999998e-01 -1.4526923615224108e+01 -1.2501562687725649e+01 -1.0681782306406475e+01 -1 5 -4
778 260 1 -8.1999999999999995e-01 -1.0819900390969668e+01 -6.1137917850647643e+00 -1.2349695369602362e+01 0 5 -1
35 12 2 4.0999999999999998e-01 -1.4096171170331065e+01 -7.5170587478527313e+00 -9.9519553459898695e+00 -2 7 1
2135 712 2 4.0999999999999998e-01 -9.9892684647542609e+00 -1.1468870115864203e+01 -1.1161541588870691e+01 6 8 0
2002 668 1 -8.1999999999999995e-01 -1.3617983761432004e+01 -1.3004221468521887e+01 -1.3501821161810529e+01 -3 2 1
779 260 2 4.0999999999999998e-01 -1.1240137475321470e+01 -5.6973394858746484e+00 -1.3155910452234316e+01 0 5 -1
95 32 2 4.0999999999999998e-01 -9.7475232189763652e+00 -9.2752250046953009e+00 -1.1130131431236109e+01 -2 5 -2
803 268 2 4.0999999999999998e-01 -9.6752835230752865e+00 -7.4328155637609354e+00 -1.2319667935721503e+01 -2 6 -6
997 333 1 -8.1999999999999995e-01 -1.4809580012010404e+01 -8.1546972483251139e+00 -1.3203644520363543e+01 0 3 1
2003 668 2 4.0999999999999998e-01 -1.4283032993271284e+01 -1.2621754811921848e+01 -1.2860382695302858e+01 -3 2 1
1438 480 1 -8.1999999999999995e-01 -1.0983555185110859e+01 -1.3712835898476882e+01 -1.3362263430296688e+01 0 1 -1
842 281 2 4.0999999999999998e-01 -1.2457778187220693e+01 -1.2030881442884558e+01 -8.6919832781507829e+00 -2 4 5
841 281 1 -8.1999999999999995e-01 -1.1964827512391185e+01 -1.2900656469023748e+01 -8.7144693163450224e+00 -2 4 5
843 281 2 4.0999999999999998e-01 -1.2582403233962303e+01 -1.3626034618880055e+01 -9.0185111253631973e+00 -2 4 5
802 268 1 -8.1999999999999995e-01 -8.9653848424393097e+00 -8.0783647769204627e+00 -1.2038021852830916e+01 -2 6 -6
993 331 2 4.0999999999999998e-01 -8.0868469123078093e+00 -1.1976815827948755e+01 -8.4790410085366581e+00 -2 4 0
1935 645 2 4.0999999999999998e-01 -1.4985394330324773e+01 -6.5176852676680248e+00 -1.3757479685751509e+01 -4 9 -4
2134 712 1 -8.1999999999999995e-01 -9.9045446793472749e+00 -1.2462921750506178e+01 -1.1230082993105976e+01 6 8 0
998 333 2 4.0999999999999998e-01 -1.4035903561333443e+01 -8.6715537210978759e+00 -1.3570112341453372e+01 0 3 1
1440 480 2 4.0999999999999998e-01 -1.0651038459790270e+01 -1.3114075029724450e+01 -1.2633612085618772e+01 0 1 -1
1439 480 2 4.0999999999999998e-01 -1.1983196245537437e+01 -1.3734352290179993e+01 -1.3345846243113373e+01 0 1 -1
34 12 1 -8.1999999999999995e-01 -1.4990618339196166e+01 -7.7510245181817865e+00 -1.0333057582036034e+01 -2 7 1
2004 668 2 4.0999999999999998e-01 -1.4098736325059956e+01 -1.3396121441713300e+01 -1.4286235587043793e+01 -3 2 1
2489 830 2 4.0999999999999998e-01 -1.0338362835459822e+01 -1.2969399016191144e+01 -8.0182655289549913e+00 2 5 5
507 169 2 4.0999999999999998e-01 -9.5911826632200334e+00 -1.0891051013712536e+01 -7.7202941597038039e+00 -4 6 -1
999 333 2 4.0999999999999998e-01 -1.4886915005344498e+01 -8.3224054809992936e+00 -1.2220838456146016e+01 0 3 1
1101 367 2 4.0999999999999998e-01 -1.4158397223631992e+01 -6.5267184874261979e+00 -8.1843429493894355e+00 -1 2 -3
1906 636 1 -8.1999999999999995e-01 -1.4810561123922655e+01 -1.1607516675499337e+01 -1.1028547367564263e+01 -1 5 -4
618 206 2 4.0999999999999998e-01 -1.1403581208030699e+01 -1.1842682151009193e+01 -1.4289107653248369e+01 2 5 -1
2488 830 1 -8.1999999999999995e-01 -9.4527878201546329e+00 -1.2913899276616251e+01 -7.5570809564472468e+00 2 5 5
505 169 1 -8.1999999999999995e-01 -1.0063780913840347e+01 -1.0100492548229667e+01 -8.1097589897166031e+00 -4 6 -1
1099 367 1 -8.1999999999999995e-01 -1.3211180548782625e+01 -6.3583548094984756e+00 -8.4571961808609011e+00 -1 2 -3
128 43 2 4.0999999999999998e-01 -8.3094305216925441e+00 -8.5011945878959629e+00 -9.3209487823396380e+00 -2 1 2
804 268 2 4.0999999999999998e-01 -8.1537995921298325e+00 -7.5737450540681914e+00 -1.1743568122194809e+01 -2 6 -6
1100 367 2 4.0999999999999998e-01 -1.2632465417610979e+01 -6.3146840303568723e+00 -7.6428275210462866e+00 -1 2 -3
2390 797 2 4.0999999999999998e-01 -1.1751791928201621e+01 -5.3779152269322168e+00 -9.4502762906990174e+00 -1 2 -2
617 206 2 4.0999999999999998e-01 -1.2151900218078335e+01 -1.0579379104123188e+01 -1.5003775103670780e+01 2 5 -1
2385 795 2 4.0999999999999998e-01 -9.7906848864017135e+00 -1.4944117937685105e+01 -1.3744977703683563e+01 -1 2 -1
506 169 2 4.0999999999999998e-01 -9.7269464558410803e+00 -9.2642887695716176e+00 -7.6769536036172994e+00 -4 6 -1
616 206 1 -8.1999999999999995e-01 -1.1306128433573571e+01 -1.1111473578587248e+01 -1.4964275504930017e+01 2 5 -1
1572 524 2 4.0999999999999998e-01 -7.3520012830526058e+00 -9.9838919352487299e+00 -1.3761800240834877e+01 1 3 3
313 105 1 -8.1999999999999995e-01 -7.0466473180768716e+00 -1.2699471971696710e+01 -1.1684501762707338e+01 -2 5 5
452 151 2 4.0999999999999998e-01 -5.5023201720603190e+00 -5.1613502224378838e+00 -8.6315484178714712e+00 5 -3 -3
2114 705 2 4.0999999999999998e-01 -1.6313857008192958e+00 -1.4336246168919546e+01 -1.0522631246027409e+01 -1 -4 2
1535 512 2 4.0999999999999998e-01 -4.1167949583862242e+00 -1.1521775325928621e+01 -1.0786483409808124e+01 3 4 -3
991 331 1 -8.1999999999999995e-01 -7.2762174600720817e+00 -1.1419884887738633e+01 -8.6599344923643837e+00 -2 4 0
992 331 2 4.0999999999999998e-01 -6.5655639531493968e+00 -1.1638574346676879e+01 -7.9912334292387168e+00 -2 4 0
2201 734 2 4.0999999999999998e-01 -6.7941997778885135e+00 -7.1821213341679364e+00 -8.3004881272944750e+00 -4 3 -1
1571 524 2 4.0999999999999998e-01 -5.9832000821955269e+00 -1.0819631432332223e+01 -1.4069352269683217e+01 1 3 3
337 113 1 -8.1999999999999995e-01 -1.1156935628085165e+00 -9.8626724145733160e+00 -8.7255991276594180e+00 -2 4 0
93 31 2 4.0999999999999998e-01 -2.8946236233719080e+00 -9.9343772976185125e+00 -8.1941367260652527e+00 -1 5 1
2008 670 1 -8.1999999999999995e-01 -2.6146153241383630e+00 -7.2274030562925393e+00 -1.3842325927877217e+01 -2 8 0
92 31 2 4.0999999999999998e-01 -4.0659655872951195e+00 -9.2735011928885953e+00 -9.1203474958296340e+00 -1 5 1
2115 705 2 4.0999999999999998e-01 -2.9778899397844860e+00 -1.3694407157425598e+01 -9.8580753634630618e+00 -1 -4 2
91 31 1 -8.1999999999999995e-01 -3.8274621778805979e+00 -9.5740728602278846e+00 -8.1968825717132106e+00 -1 5 1
2113 705 1 -8.1999999999999995e-01 -2.4273436527982089e+00 -1.4524442592079545e+01 -9.9472637709105705e+00 -1 -4 2
2444 815 2 4.0999999999999998e-01 -2.5059464066666628e+00 -5.3929394611800543e+00 -1.3776181539528670e+01 3 3 2
943 315 1 -8.1999999999999995e-01 -1.2337155431047204e+00 -5.7845998932369795e+00 -9.0168561001623697e+00 3 4 1
1869 623 2 4.0999999999999998e-01 -6.1077535642331426e-01 -6.7995316654539675e+00 -7.7298079630831378e+00 1 8 1
189 63 2 4.0999999999999998e-01 -7.0770522072299968e+00 -1.4044674095362403e+01 -8.7465616994689732e+00 -3 -1 -1
611 204 2 4.0999999999999998e-01 -1.5926084206804649e+00 -1.3528295548677534e+01 -1.3574756434106392e+01 -4 5 4
2202 734 2 4.0999999999999998e-01 -7.4487811281914835e+00 -5.7201021091462838e+00 -8.6178030018077578e+00 -4 3 -1
1534 512 1 -8.1999999999999995e-01 -3.7246974876548009e+00 -1.2127201070920492e+01 -1.0093855165600358e+01 3 4 -3
127 43 1 -8.1999999999999995e-01 -7.3284561447055099e+00 -8.5734419005591231e+00 -9.1407147447376715e+00 -2 1 2
129 43 2 4.0999999999999998e-01 -7.1286511914929571e+00 -9.4661018931417189e+00 -8.7366716419480319e+00 -2 1 2
187 63 1 -8.1999999999999995e-01 -7.1361075665779508e+00 -1.4532129971601631e+01 -9.6177183633683274e+00 -3 -1 -1
612 204 2 4.0999999999999998e-01 -2.7627960580265487e-01 -1.2732991403477362e+01 -1.3025725198484555e+01 -4 5 4
610 204 1 -8.1999999999999995e-01 -6.5895408031303226e-01 -1.3633480204900765e+01 -1.3232352611384183e+01 -4 5 4
1218 406 2 4.0999999999999998e-01 -4.7783593401929458e-01 -7.7699310573004805e+00 -1.1867194023431072e+01 -3 7 2
58 20 1 -8.1999999999999995e-01 -3.2709052225646200e+00 -1.3717475375856273e+01 -1.4314170308179479e+01 -5 9 -1
495 165 2 4.0999999999999998e-01 -5.7903524267887221e+00 -7.8855325062741688e+00 -1.1538105542571969e+01 -8 0 -2
188 63 2 4.0999999999999998e-01 -6.8986324982100484e+00 -1.3910565586779944e+01 -1.0364228845349281e+01 -3 -1 -1
314 105 2 4.0999999999999998e-01 -6.7148459144888157e+00 -1.1852491169635735e+01 -1.2099888325712755e+01 -2 5 5
494 165 2 4.0999999999999998e-01 -5.9298502887044453e+00 -7.0711463408940229e+00 -1.2946644183365049e+01 -8 0 -2
338 113 2 4.0999999999999998e-01 -3.1542336566267970e-01 -9.9498430912265921e+00 -9.3188811676637506e+00 -2 4 0
2010 670 2 4.0999999999999998e-01 -1.6644931636536473e+00 -7.4936247314890698e+00 -1.3679818728320937e+01 -2 8 0
945 315 2 4.0999999999999998e-01 -9.9103768605596976e-01 -6.5171558545164832e+00 -9.6528465291821490e+00 3 4 1
339 113 2 4.0999999999999998e-01 -1.1152023018544792e+00 -1.0603798452640326e+01 -8.0542224346051210e+00 -2 4 0
2200 734 1 -8.1999999999999995e-01 -6.8807178337522021e+00 -6.2391247044951079e+00 -7.9791056856144644e+00 -4 3 -1
2009 670 2 4.0999999999999998e-01 -3.0590375703546826e+00 -7.9132547681587715e+00 -1.4418616571610805e+01 -2 8 0
1536 512 2 4.0999999999999998e-01 -3.4176298770102704e+00 -1.1584491974793744e+01 -9.3120680953488417e+00 3 4 -3
1217 406 2 4.0999999999999998e-01 -1.0121605899069746e+00 -8.7039020749276386e+00 -1.0638837012314564e+01 -3 7 2
60 20 2 4.0999999999999998e-01 -4.2673233761218583e+00 -1.3739312463091593e+01 -1.4395953773127976e+01 -5 9 -1
1775 592 2 4.0999999999999998e-01 -6.4893010905336972e+00 -1.3719839564563438e+01 -1.3036750630765397e+01 -6 -2 2
1815 605 2 4.0999999999999998e-01 -6.2878700036428103e+00 -9.6649088700328178e+00 -1.0443112650000238e+01 -7 8 0
1570 524 1 -8.1999999999999995e-01 -6.5595278225538802e+00 -1.0433150690299605e+01 -1.3349287214020290e+01 1 3 3
1774 592 1 -8.1999999999999995e-01 -6.0756496450020130e+00 -1.4195337636347483e+01 -1.3813157993980107e+01 -6 -2 2
1813 605 1 -8.1999999999999995e-01 -5.4705641726078635e+00 -9.6871513936004980e+00 -1.1018900006000507e+01 -7 8 0
1814 605 2 4.0999999999999998e-01 -5.7313311865767176e+00 -9.9044069697924861e+00 -1.1959546148187915e+01 -7 8 0
493 165 1 -8.1999999999999995e-01 -6.3837080355456788e+00 -7.2938173761582812e+00 -1.2083831685170395e+01 -8 0 -2
1216 406 1 -8.1999999999999995e-01 -8.1637282279505285e-01 -7.7663087990460928e+00 -1.0926240216744063e+01 -3 7 2
1776 592 2 4.0999999999999998e-01 -5.7444922178442930e+00 -1.5091336309113224e+01 -1.3517294060687149e+01 -6 -2 2
944 315 2 4.0999999999999998e-01 -1.8006921039312065e+00 -5.1086664795585897e+00 -9.4876704592350531e+00 3 4 1
1868 623 2 4.0999999999999998e-01 -8.4193780467277257e-01 -8.4137818544997849e+00 -7.8159816898428671e+00 1 8 1
174 58 2 4.0999999999999998e-01 -5.5009994465237124e+00 -5.9392919656307193e+00 -1.4764778562033138e+01 -12 5 3
1449 483 2 4.0999999999999998e-01 -7.4041450818482266e+00 -1.3942526397303617e+01 -1.5074914725529212e+01 -3 2 -5
1041 347 2 4.0999999999999998e-01 -1.0845895127897442e+01 -1.1928293069298892e+01 -3.3611456236389792e+00 -1 5 -3
111 37 2 4.0999999999999998e-01 -1.0761107922820617e+01 -1.2104104455383968e+01 -5.5928470440883515e-01 1 3 0
109 37 1 -8.1999999999999995e-01 -1.1274837347421883e+01 -1.2065308885168408e+01 -1.4163678026074340e+00 1 3 0
2567 856 2 4.0999999999999998e-01 -1.2424379614358847e+01 -1.4529528980103757e+01 -4.1824575315366275e+00 -3 8 -2
1302 434 2 4.0999999999999998e-01 -1.3329131797961484e+01 -8.9340116671967227e+00 -3.5533404658230925e+00 3 3 -1
1540 514 1 -8.1999999999999995e-01 -1.2977754164286884e+01 -1.1138987634824264e+01 -6.1448556037154720e+00 3 4 -3
1039 347 1 -8.1999999999999995e-01 -1.0752510693613125e+01 -1.1881910569377020e+01 -4.3557021279782120e+00 -1 5 -3
1040 347 2 4.0999999999999998e-01 -1.0818239306787005e+01 -1.2802800306592838e+01 -4.7399631718014472e+00 -1 5 -3
110 37 2 4.0999999999999998e-01 -1.2237654246526574e+01 -1.1879976619317620e+01 -1.2197715332266625e+00 1 3 0
5 2 2 4.0999999999999998e-01 -1.4570610195988859e+01 -1.3662746227513775e+01 -6.9286894504907455e+00 -2 6 -4
590 197 2 4.0999999999999998e-01 -1.4944140941699933e+01 -9.9759075507613204e+00 -6.0723468694084186e+00 -4 7 1
1541 514 2 4.0999999999999998e-01 -1.2454320331240787e+01 -1.0288204320197455e+01 -6.0979584902022292e+00 3 4 -3
2502 834 2 4.0999999999999998e-01 -8.4812745080479477e+00 -6.6208663837680923e+00 -4.3640123502612589e+00 1 9 0
261 87 2 4.0999999999999998e-01 -9.6738476210383268e+00 -5.1503406211686968e+00 -5.8629074017295668e+00 -3 8 -3
2413 805 1 -8.1999999999999995e-01 -1.3677229346121219e+01 -1.0490021460695935e+01 -1.3201479762590065e+00 -3 6 -2
914 305 2 4.0999999999999998e-01 -1.5007051251080398e+01 -1.4529861755707161e+01 -2.5940890895252906e+00 -5 0 0
1542 514 2 4.0999999999999998e-01 -1.2465072970856886e+01 -1.1870926151436013e+01 -5.6960364001622423e+00 3 4 -3
1712 571 2 4.0999999999999998e-01 -1.2052311759028886e+01 -6.4216133798315091e+00 -5.2584102744624683e+00 3 2 -5
725 242 2 4.0999999999999998e-01 -9.9732979715695578e+00 -9.9970611653954258e+00 -4.4265344931251427e+00 -7 4 -3
724 242 1 -8.1999999999999995e-01 -9.7637508595607088e+00 -9.0194458270208706e+00 -4.4072280629641671e+00 -7 4 -3
1711 571 1 -8.1999999999999995e-01 -1.2006569278858869e+01 -7.2490895940077253e+00 -5.8180577859991143e+00 3 2 -5
1713 571 2 4.0999999999999998e-01 -1.2727811526758876e+01 -7.8820663502212627e+00 -5.5366955529078030e+00 3 2 -5
726 242 2 4.0999999999999998e-01 -1.0259218681913081e+01 -8.5577637370651765e+00 -5.1430105588487276e+00 -7 4 -3
4 2 1 -8.1999999999999995e-01 -1.4727653530648238e+01 -1.2807400097143617e+01 -7.4223848043266205e+00 -2 6 -4
2500 834 1 -8.1999999999999995e-01 -8.8010909390984438e+00 -5.6739973382363669e+00 -4.3982343551769638e+00 1 9 0
2501 834 2 4.0999999999999998e-01 -9.6577844517793707e+00 -5.5929226086589647e+00 -3.8888054151695979e+00 1 9 0
1368 456 2 4.0999999999999998e-01 -1.4597494284476115e+01 -1.1804251935047088e+01 -2.5679098863628536e+00 -6 0 -1
1301 434 2 4.0999999999999998e-01 -1.4632002776823798e+01 -8.4705044671815752e+00 -4.4218759676074058e+00 3 3 -1
2415 805 2 4.0999999999999998e-01 -1.3045322935415522e+01 -9.7201760395654055e+00 -1.2304441700573534e+00 -3 6 -2
981 327 2 4.0999999999999998e-01 -1.0817799453975230e+01 -6.3100294046843661e+00 -2.1181954766431783e+00 -1 8 -3
979 327 1 -8.1999999999999995e-01 -1.0766596389095902e+01 -5.3905112441215355e+00 -2.5079122451311679e+00 -1 8 -3
1300 434 1 -8.1999999999999995e-01 -1.3720714902053171e+01 -8.8792469781368872e+00 -4.4718598920139652e+00 3 3 -1
2414 805 2 4.0999999999999998e-01 -1.4573523482190581e+01 -1.0229072419226931e+01 -9.6157174569388104e-01 -3 6 -2
608 203 2 4.0999999999999998e-01 -8.0645090940985735e+00 -9.7331797858973879e+00 -4.7070154505100721e+00 -2 8 3
2566 856 1 -8.1999999999999995e-01 -1.3276613367876774e+01 -1.4117970704505451e+01 -4.5054620465475832e+00 -3 8 -2
536 179 2 4.0999999999999998e-01 -1.0851181667668392e+01 -1.3835906785194350e+01 -2.4483166564607846e+00 -1 5 -3
544 182 1 -8.1999999999999995e-01 -9.0328701580988984e+00 -9.1627084092572222e+00 -2.1357407781262872e-01 -3 -1 -3
2141 714 2 4.0999999999999998e-01 -9.8428301255929682e+00 -7.0836616925109865e+00 -6.8838146226241737e+00 4 4 1
1367 456 2 4.0999999999999998e-01 -1.4496487271180968e+01 -1.2935457223786138e+01 -3.7412972275497260e+00 -6 0 -1
2140 714 1 -8.1999999999999995e-01 -9.0337300577559763e+00 -7.6682297392195284e+00 -6.8233835432784300e+00 4 4 1
535 179 1 -8.1999999999999995e-01 -1.1034046027699784e+01 -1.4636433778038018e+01 -3.0190458212516145e+00 -1 5 -3
6 2 2 4.0999999999999998e-01 -1.4265891194154896e+01 -1.2058540171073094e+01 -6.9469912366721971e+00 -2 6 -4
2142 714 2 4.0999999999999998e-01 -8.2110258434611332e+00 -7.0997473378544909e+00 -6.8236337314267423e+00 4 4 1
2568 856 2 4.0999999999999998e-01 -1.3760644106604536e+01 -1.4769152690865127e+01 -5.0900053601951338e+00 -3 8 -2
546 182 2 4.0999999999999998e-01 -8.3276571450190424e+00 -9.3633358039569607e+00 -8.9360194973223273e-01 -3 -1 -3
2490 830 2 4.0999999999999998e-01 -9.2706954836378372e+00 -1.3773969065141763e+01 -7.0804921207953093e+00 2 5 5
1103 368 2 4.0999999999999998e-01 -1.0924307351166309e+01 -8.7922300111418075e+00 -2.7220302886707515e-01 0 3 -3
1102 368 1 -8.1999999999999995e-01 -1.1738259746602083e+01 -8.2272247266755336e+00 -4.0735200230319890e-01 0 3 -3
2483 828 2 4.0999999999999998e-01 -8.0281819202742390e+00 -1.4829350229768906e+01 -6.7757440089240006e-02 4 11 1
2405 802 2 4.0999999999999998e-01 -1.3516603484395873e-01 -7.7617596713991297e+00 -2.4771887464509703e+00 -1 2 4
1952 651 2 4.0999999999999998e-01 -1.1390992252723819e+00 -1.3241427771790736e+01 -5.5755901513950334e-01 -6 0 -3
2528 843 2 4.0999999999999998e-01 -2.1780883511939209e+00 -1.2409942653118964e+01 -6.7877079139693972e+00 3 3 -4
920 307 2 4.0999999999999998e-01 -3.5134997256588321e+00 -6.4830342352804280e+00 -7.1348650147979065e-01 -3 2 3
1953 651 2 4.0999999999999998e-01 -4.4679213656021766e-01 -1.2411738027197632e+01 -1.7818914910483805e+00 -6 0 -3
2527 843 1 -8.1999999999999995e-01 -1.6815274163911376e+00 -1.1556367551773784e+01 -6.6300655606272247e+00 3 3 -4
2529 843 2 4.0999999999999998e-01 -2.2765669542009892e+00 -1.0907230203911173e+01 -6.1561848091924816e+00 3 3 -4
1310 437 2 4.0999999999999998e-01 -4.7328240746978611e+00 -5.0667013784649040e+00 -4.0344557916817045e+00 2 3 -5
1009 337 1 -8.1999999999999995e-01 -9.8686301504947060e-01 -1.4892718867576139e+01 -2.6539485622503456e-01 -2 7 -5
2381 794 2 4.0999999999999998e-01 -4.4404048122334991e+00 -9.4660306792411717e+00 -1.7624385854971383e+00 -4 4 -1
1357 453 1 -8.1999999999999995e-01 -6.8108338549919960e+00 -1.4823162705954802e+01 -4.0891761796670334e+00 2 6 0
1867 623 1 -8.1999999999999995e-01 -5.5707886719412336e-01 -7.6602254025030101e+00 -7.2235099501733933e+00 1 8 1
1929 643 2 4.0999999999999998e-01 -7.0419571369414093e+00 -1.1143746807974011e+01 -2.7281046082827007e+00 -3 4 5
1790 597 2 4.0999999999999998e-01 -1.4001836972860726e+00 -7.3168054981777422e+00 -2.4023799246349320e-01 1 7 -4
1951 651 1 -8.1999999999999995e-01 -7.8206209183030140e-01 -1.2351589706535181e+01 -8.4168368716748887e-01 -6 0 -3
615 205 2 4.0999999999999998e-01 -5.8255084712971321e+00 -1.4401501254589681e+01 -9.3676408593620408e-01 -1 3 -4
1928 643 2 4.0999999999999998e-01 -6.2868966656235798e+00 -1.0803885815194086e+01 -1.3206090290010071e+00 -3 4 5
1927 643 1 -8.1999999999999995e-01 -6.7346685929758969e+00 -1.1521144306269168e+01 -1.8545145935711478e+00 -3 4 5
286 96 1 -8.1999999999999995e-01 -3.9344967565356459e+00 -1.4385866461571435e+01 -8.3019670131560908e-01 -2 7 -1
801 267 2 4.0999999999999998e-01 -8.7622525458750822e-01 -9.4770805865670056e+00 -3.9078445095933834e+00 0 -1 -4
2034 678 2 4.0999999999999998e-01 -1.3310446402150777e+00 -5.7325486520870026e+00 -3.9886945054725302e+00 -1 5 1
1489 497 1 -8.1999999999999995e-01 -2.0624300270147273e+00 -1.4456561739753747e+01 -4.1909456892546491e+00 0 2 2
1889 630 2 4.0999999999999998e-01 -4.6665420661425614e+00 -1.2962199029913926e+01 -6.3446873977062470e+00 -8 4 -2
2382 794 2 4.0999999999999998e-01 -4.7699672455958879e+00 -8.7238064933785573e+00 -3.4569677282420663e-01 -4 4 -1
1203 401 2 4.0999999999999998e-01 -4.3332046618309210e+00 -6.1079888829306093e+00 -6.6086740135184208e+00 -1 8 -1
543 181 2 4.0999999999999998e-01 -2.8604219743938142e+00 -9.7754491113370889e+00 -3.5647267957839208e+00 -2 5 -4
541 181 1 -8.1999999999999995e-01 -3.8247320936269933e+00 -9.8169375048513743e+00 -3.3031939561720840e+00 -2 5 -4
921 307 2 4.0999999999999998e-01 -3.2507420994409131e+00 -5.8770926226984095e+00 -2.2069582791416860e+00 -3 2 3
1783 595 1 -8.1999999999999995e-01 -5.1355555886582511e+00 -9.0255677006472066e+00 -5.6019616591526482e+00 0 0 -2
1785 595 2 4.0999999999999998e-01 -5.0184372108291484e+00 -8.0419035581978306e+00 -5.4652035957475036e+00 0 0 -2
607 203 1 -8.1999999999999995e-01 -7.2180568549822279e+00 -1.0207603695557005e+01 -4.4652402062465200e+00 -2 8 3
1359 453 2 4.0999999999999998e-01 -6.9856394414939729e+00 -1.4969729720468909e+01 -3.1155356937132677e+00 2 6 0
299 100 2 4.0999999999999998e-01 -4.8386451558081838e+00 -1.2343491709071643e+01 -2.9872458339519614e+00 -1 3 2
609 203 2 4.0999999999999998e-01 -6.4589331512305517e+00 -9.8236708513847972e+00 -4.9909221530940879e+00 -2 8 3
298 100 1 -8.1999999999999995e-01 -3.8844698132019495e+00 -1.2642347264290603e+01 -2.9714544798684752e+00 -1 3 2
1491 497 2 4.0999999999999998e-01 -2.1767252692033772e+00 -1.4689795264789671e+01 -5.1566337472608712e+00 0 2 2
919 307 1 -8.1999999999999995e-01 -2.8714051503452538e+00 -6.4486738985373009e+00 -1.4793508061556278e+00 -3 2 3
288 96 2 4.0999999999999998e-01 -3.7902887603579458e+00 -1.3673129124788581e+01 -1.5166544741527996e+00 -2 7 -1
614 205 2 4.0999999999999998e-01 -6.8451693014042032e+00 -1.3290539678108104e+01 -1.5634392872389675e+00 -1 3 -4
1888 630 1 -8.1999999999999995e-01 -3.8697702875904696e+00 -1.3534052684661011e+01 -6.5400149438406832e+00 -8 4 -2
300 100 2 4.0999999999999998e-01 -3.2847138677045411e+00 -1.1847794041505963e+01 -3.0662842425669954e+00 -1 3 2
1784 595 2 4.0999999999999998e-01 -4.6476769020607200e+00 -9.3076602342014851e+00 -6.4280443822781450e+00 0 0 -2
1490 497 2 4.0999999999999998e-01 -2.8125189571650520e+00 -1.3862400336152843e+01 -3.9005088523281302e+00 0 2 2
542 181 2 4.0999999999999998e-01 -4.3882860612068129e+00 -9.4657318628770515e+00 -4.0509078719493576e+00 -2 5 -4
2100 700 2 4.0999999999999998e-01 -5.7721491244293510e-01 -1.3356246671871704e+01 -3.9145279754260009e+00 -6 9 -2
2287 763 1 -8.1999999999999995e-01 -6.5055297259489020e+00 -1.2509198829371298e+01 -5.6021399133236436e+00 -6 1 -1
2289 763 2 4.0999999999999998e-01 -6.8070460285437715e+00 -1.3373240131118759e+01 -5.1989834977257594e+00 -6 1 -1
1201 401 1 -8.1999999999999995e-01 -5.0754359679576098e+00 -6.2924241842207032e+00 -5.9643984698614183e+00 -1 8 -1
1202 401 2 4.0999999999999998e-01 -5.9543138157965494e+00 -6.1312323984391526e+00 -6.4134036458957393e+00 -1 8 -1
2288 763 2 4.0999999999999998e-01 -6.9838955405098417e+00 -1.1750314197661226e+01 -5.1602407031963153e+00 -6 1 -1
2404 802 1 -8.1999999999999995e-01 -8.7110306558927775e-01 -7.6907682601760348e+00 -3.1505174212594778e+00 -1 2 4
2406 802 2 4.0999999999999998e-01 -1.7235778257078067e+00 -7.4469077147428457e+00 -2.6880960749431964e+00 -1 2 4
800 267 2 4.0999999999999998e-01 -7.0608376295953335e-01 -1.1064847444464270e+01 -4.2494770994972040e+00 0 -1 -4
799 267 1 -8.1999999999999995e-01 -1.3449367559913039e+00 -1.0295566465247607e+01 -4.2401170594392443e+00 0 -1 -4
2380 794 1 -8.1999999999999995e-01 -5.0296476541264390e+00 -9.4734266223867802e+00 -9.5450738865559970e-01 -4 4 -1
613 205 1 -8.1999999999999995e-01 -6.7459416789487356e+00 -1.4249223283259782e+01 -1.2968041113699122e+00 -1 3 -4
287 96 2 4.0999999999999998e-01 -3.2716620092041317e+00 -1.4274491909448885e+01 -8.9750541259505212e-02 -2 7 -1
1890 630 2 4.0999999999999998e-01 -4.1739274487100797e+00 -1.4434263652031991e+01 -6.8516610280344086e+00 -8 4 -2
192 64 2 4.0999999999999998e-01 -1.3886877253008175e+01 -1.3734499581819842e+01 5.6607793411736047e+00 -1 7 -5
1654 552 1 -8.1999999999999995e-01 -9.7837148355085120e+00 -1.1839624833807701e+01 1.0460055195914499e+00 -9 3 -3
1097 366 2 4.0999999999999998e-01 -1.0553336919538665e+01 -5.6652447315200867e+00 3.8361578419918345e+00 -3 5 -3
1293 431 2 4.0999999999999998e-01 -1.3923721247008171e+01 -7.1367907411523301e+00 3.6362015236132947e+00 -2 6 0
217 73 1 -8.1999999999999995e-01 -1.1221657041966221e+01 -6.7697583103385188e+00 5.4211666700453947e+00 2 5 -7
968 323 2 4.0999999999999998e-01 -1.2727990947110392e+01 -5.5707266759336633e+00 8.4169388380909282e-01 0 1 0
130 44 1 -8.1999999999999995e-01 -1.1785141482653970e+01 -1.1744483375539897e+01 2.9399629784650827e+00 2 0 -3
131 44 2 4.0999999999999998e-01 -1.2237113496901870e+01 -1.0905168074233746e+01 3.2420980132636252e+00 2 0 -3
1878 626 2 4.0999999999999998e-01 -1.0228874243468354e+01 -1.3280815844453103e+01 6.6453252185656773e+00 -2 9 -6
132 44 2 4.0999999999999998e-01 -1.2401307662396228e+01 -1.2520958910567984e+01 3.0720223951431933e+00 2 0 -3
1656 552 2 4.0999999999999998e-01 -1.0566592690511541e+01 -1.1773624995123884e+01 1.6646823384055374e+00 -9 3 -3
584 195 2 4.0999999999999998e-01 -9.8133166939891225e+00 -1.1857805981565443e+01 4.6092760426916222e+00 1 0 -3
190 64 1 -8.1999999999999995e-01 -1.3932427514482324e+01 -1.3479897539885760e+01 6.6267595151162801e+00 -1 7 -5
1267 423 1 -8.1999999999999995e-01 -1.4309423938119139e+01 -9.7734456506240939e+00 2.9442627234621668e+00 -1 3 1
2537 846 2 4.0999999999999998e-01 -8.1352646320327224e+00 -1.0348729368252030e+01 3.5746687425639472e+00 3 5 1
1275 425 2 4.0999999999999998e-01 -9.3791518867515222e+00 -9.1557558877858813e+00 5.2951540292343466e+00 1 6 1
1269 423 2 4.0999999999999998e-01 -1.3959416999239401e+01 -9.5126319855612280e+00 3.8439771771854332e+00 -1 3 1
1877 626 2 4.0999999999999998e-01 -1.1780033590430101e+01 -1.3789232008017684e+01 6.6909689527789347e+00 -2 9 -6
1273 425 1 -8.1999999999999995e-01 -9.7645891390137898e+00 -9.7949745154932373e+00 4.6296825443807386e+00 1 6 1
137 46 2 4.0999999999999998e-01 -7.9430576369703187e+00 -1.2875500821647826e+01 5.4682922305995980e+00 1 8 -5
218 73 2 4.0999999999999998e-01 -1.0435404900745997e+01 -7.0682592998873908e+00 5.9622019766256926e+00 2 5 -7
176 59 2 4.0999999999999998e-01 -1.2556050242566771e+01 -9.7825198694806446e+00 5.9290088318679395e+00 -4 3 -3
1274 425 2 4.0999999999999998e-01 -1.0668811384146284e+01 -9.4757854856812287e+00 4.3459305762503142e+00 1 6 1
1189 397 1 -8.1999999999999995e-01 -1.3329276198366479e+01 -7.4828707852689007e+00 1.5311954294471093e+00 -5 5 -3
1191 397 2 4.0999999999999998e-01 -1.3588966598646445e+01 -8.2733375190428653e+00 2.0859366279559630e+00 -5 5 -3
1190 397 2 4.0999999999999998e-01 -1.4072642378878497e+01 -7.2594441372686607e+00 9.0071786101993467e-01 -5 5 -3
175 59 1 -8.1999999999999995e-01 -1.2517961567763610e+01 -9.3196201018543690e+00 5.0434086219830192e+00 -4 3 -3
177 59 2 4.0999999999999998e-01 -1.2544620277230997e+01 -8.3297994175359769e+00 5.1832620693893965e+00 -4 3 -3
219 73 2 4.0999999999999998e-01 -1.1934656963373859e+01 -6.4247584493992953e+00 6.0315934180445652e+00 2 5 -7
649 217 1 -8.1999999999999995e-01 -1.3407213339168877e+01 -1.0893322488800024e+01 7.0460054829538095e+00 -1 5 -7
583 195 1 -8.1999999999999995e-01 -9.6262912788070381e+00 -1.2788336151613873e+01 4.9241566234427054e+00 1 0 -3
585 195 2 4.0999999999999998e-01 -1.0089780338840210e+01 -1.3442101353590001e+01 4.3260064436966594e+00 1 0 -3
191 64 2 4.0999999999999998e-01 -1.4840357442297414e+01 -1.3695922389344542e+01 6.9859408428568628e+00 -1 7 -5
1291 431 1 -8.1999999999999995e-01 -1.4536822651712727e+01 -6.4488642546880577e+00 4.0246323713236833e+00 -2 6 0
1096 366 1 -8.1999999999999995e-01 -1.0434626558443846e+01 -5.1636552716383726e+00 2.9792269764833677e+00 -3 5 -3
1655 552 2 4.0999999999999998e-01 -9.4526577533124403e+00 -1.0921482203500771e+01 8.2822113550627918e-01 -9 3 -3
1104 368 2 4.0999999999999998e-01 -1.2128215690351468e+01 -7.9864585764204810e+00 4.8145660291390158e-01 0 3 -3
545 182 2 4.0999999999999998e-01 -8.7050348887102871e+00 -8.4496629056433559e+00 4.0618781779554247e-01 -3 -1 -3
2484 828 2 4.0999999999999998e-01 -8.5583046843541872e+00 -1.3902397215289620e+01 1.1677154663155846e+00 4 11 1
2313 771 2 4.0999999999999998e-01 -9.4519976179132286e+00 -6.3577597503001311e+00 1.8538423975000349e+00 0 3 4
2302 768 1 -8.1999999999999995e-01 -1.3675585256986663e+01 -1.4069192490991606e+01 4.0214946630869299e+00 -4 5 -5