LAMMPS data file via write_data, version 15 May 2015, timestep = 1009000

2593 atoms
6 atom types
1728 bonds
4 bond types
864 angles
3 angle types
0 dihedrals
3 dihedral types
0 impropers
1 improper types

-1.4969438767001698e+01 1.4969438767001698e+01 xlo xhi
-1.4969438767001698e+01 1.4969438767001698e+01 ylo yhi
-1.4969438767001698e+01 1.4969438767001698e+01 zlo zhi

Masses

1 15.9994
2 1.00794
3 12.0107
4 1.00794
5 12.0107
6 12.0107

Bond Coeffs # harmonic

1 1000 1
2 469 1.4
3 367 1.08
4 469 0.7

Angle Coeffs # harmonic

1 100 109.47
2 35 120
3 63 120

Dihedral Coeffs # opls

1 0 7.25 0 0
2 0 7.25 0 0
3 0 7.25 0 0

Improper Coeffs # cvff

1 2.5 -1 2

Atoms # full

1136 379 2 4.0999999999999998e-01 -1.0799484505137624e+01 -8.1082800825146855e+00 -1.1767916034905749e+01 -2 0 0
1135 379 1 -8.1999999999999995e-01 -1.1756480185411599e+01 -8.3967205795920172e+00 -1.1737261720018902e+01 -2 0 0
1556 519 2 4.0999999999999998e-01 -9.3699189727485468e+00 -1.3879487007042963e+01 -1.1873454394786416e+01 -1 2 1
1286 429 2 4.0999999999999998e-01 -1.2563065240609919e+01 -1.2240005002516721e+01 -1.0252357467174392e+01 -2 2 0
1557 519 2 4.0999999999999998e-01 -1.0530396768314400e+01 -1.4911015730668423e+01 -1.1367679265713303e+01 -1 2 1
2281 761 1 -8.1999999999999995e-01 -1.0645614795562530e+01 -1.0892542834114987e+01 -1.3261552363847967e+01 -1 0 -1
1555 519 1 -8.1999999999999995e-01 -1.0142694738073857e+01 -1.3996819896694623e+01 -1.1249732520997606e+01 -1 2 1
1485 495 2 4.0999999999999998e-01 -1.4674507789699998e+01 -1.2084977618640300e+01 -1.0300451013287802e+01 -2 1 0
16 6 1 -8.1999999999999995e-01 -7.8296932209888839e+00 -1.3919639215791435e+01 -1.2508742916209240e+01 -2 2 0
2282 761 2 4.0999999999999998e-01 -1.0091656616647210e+01 -1.1165139051927367e+01 -1.2474913955815671e+01 -1 0 -1
77 26 2 4.0999999999999998e-01 -1.3027763586424149e+01 -9.4587235740891096e+00 -1.2867108565660967e+01 1 2 -1
2283 761 2 4.0999999999999998e-01 -1.0682355296390995e+01 -1.1644336447589916e+01 -1.3919910043849800e+01 -1 0 -1
1287 429 2 4.0999999999999998e-01 -1.1029568207987854e+01 -1.2778532447690978e+01 -1.0410293376789674e+01 -2 2 0
1285 429 1 -8.1999999999999995e-01 -1.1637738219790076e+01 -1.2191128201625622e+01 -9.8763796571525440e+00 -2 2 0
1745 582 2 4.0999999999999998e-01 -1.0968745825218340e+01 -9.5329982855161735e+00 -1.4316370846640025e+01 1 -1 0
845 282 2 4.0999999999999998e-01 -6.9567778357276939e+00 -9.2000137787999776e+00 -8.2545105962926417e+00 -1 -1 0
748 250 1 -8.1999999999999995e-01 -1.4689895134605409e+01 -8.2379007562589841e+00 -9.7430628585709655e+00 -1 0 -1
2203 735 1 -8.1999999999999995e-01 -7.3373575360720018e+00 -9.8191403432197859e+00 -1.1303976901027507e+01 0 1 0
2527 843 1 -8.1999999999999995e-01 -1.4072538967838559e+01 -1.2657656541744661e+01 -1.2027268715270292e+01 1 1 0
17 6 2 4.0999999999999998e-01 -7.1602502883331471e+00 -1.3502117120868402e+01 -1.1894332802805868e+01 -2 2 0
1483 495 1 -8.1999999999999995e-01 -1.4726887989142595e+01 -1.1744167209553767e+01 -9.3617908465601047e+00 -2 1 0
2204 735 2 4.0999999999999998e-01 -7.0971062605495412e+00 -1.0160434620802100e+01 -1.2212699015556966e+01 0 1 0
2528 843 2 4.0999999999999998e-01 -1.3824869547120210e+01 -1.3623686878636265e+01 -1.2100913660119264e+01 1 1 0
486 162 2 4.0999999999999998e-01 -1.2282685105922379e+01 -1.0512211525653953e+01 -9.5111909496392038e+00 -2 -1 3
2205 735 2 4.0999999999999998e-01 -6.5350708093523711e+00 -9.8628612283962163e+00 -1.0708659485542647e+01 0 1 0
1437 479 2 4.0999999999999998e-01 -9.2144774817594879e+00 -1.3498696632445952e+01 -9.8280358332651545e+00 -2 1 2
76 26 1 -8.1999999999999995e-01 -1.3789908731425994e+01 -9.9928360330131092e+00 -1.3232945950995779e+01 1 2 -1
2060 687 2 4.0999999999999998e-01 -8.3609984827991823e+00 -8.3268287008225137e+00 -1.0856283738095957e+01 -2 2 -1
749 250 2 4.0999999999999998e-01 -1.3829298563941103e+01 -8.7271043527830479e+00 -9.6015293351007696e+00 -1 0 -1
1137 379 2 4.0999999999999998e-01 -1.1979395911339985e+01 -8.7147370723482567e+00 -1.0815767044247343e+01 -2 0 0
121 41 1 -8.1999999999999995e-01 -5.6938445576012242e+00 -9.9267691482767617e-01 -1.4498188274858384e+01 0 1 0
738 246 2 4.0999999999999998e-01 -1.4274089874612921e+01 -1.3210680950944433e+01 -8.7763525254556676e+00 -1 2 -1
78 26 2 4.0999999999999998e-01 -1.3916320286952381e+01 -1.0815817471694505e+01 -1.2679140938339366e+01 1 2 -1
188 63 2 4.0999999999999998e-01 -8.2235279783387440e+00 -1.0282766004535965e+01 -9.7391583581303305e+00 -2 0 1
846 282 2 4.0999999999999998e-01 -5.8558216782017816e+00 -8.0317947075594205e+00 -7.9549635263682408e+00 -1 -1 0
484 162 1 -8.1999999999999995e-01 -1.2402854778509624e+01 -9.5369658976490896e+00 -9.3256281758111150e+00 -2 -1 3
18 6 2 4.0999999999999998e-01 -7.5701739494443272e+00 -1.3738215385383183e+01 -1.3457275182437320e+01 -2 2 0
755 252 2 4.0999999999999998e-01 -5.0825010659004146e+00 -1.0236977774862947e+01 -1.4381021605871396e+01 -3 3 1
1795 599 1 -8.1999999999999995e-01 -5.6625221618164847e+00 -8.7327567075887931e+00 -1.3781692533543836e+01 -1 0 0
1744 582 1 -8.1999999999999995e-01 -1.0816713846353505e+01 -8.7444703447512317e+00 -1.4912263708577704e+01 1 -1 0
1165 389 1 -8.1999999999999995e-01 -6.6921962366402692e+00 -1.2836545067303406e+01 -1.4583270012187995e+01 -1 1 0
485 162 2 4.0999999999999998e-01 -1.2296427649571655e+01 -9.3685419718158052e+00 -8.3456868622564215e+00 -2 -1 3
1797 599 2 4.0999999999999998e-01 -6.1061606996635263e+00 -7.8801320238865511e+00 -1.3505659337125133e+01 -1 0 0
404 135 2 4.0999999999999998e-01 -8.2815891775131263e+00 -1.4255736190627140e+00 -1.2869782316576069e+01 2 2 1
187 63 1 -8.1999999999999995e-01 -8.2877916808828314e+00 -1.0547633846834287e+01 -8.7770286655591185e+00 -2 0 1
2437 813 1 -8.1999999999999995e-01 -5.3626672262539348e+00 -1.3443687076875763e+01 -1.0927488167822133e+01 1 2 1
1746 582 2 4.0999999999999998e-01 -1.1142346456843086e+01 -7.9154480825322402e+00 -1.4457660791038947e+01 1 -1 0
122 41 2 4.0999999999999998e-01 -6.3842205903577351e+00 -5.7027709534167670e-01 -1.3910874333560452e+01 0 1 0
1223 408 2 4.0999999999999998e-01 -1.2478949893910352e+01 -6.7120352761059898e+00 -7.8851015076239266e+00 0 2 -1
1074 358 2 4.0999999999999998e-01 -1.4461786348252870e+01 -5.1063625678289881e+00 -8.1104795526309239e+00 -2 3 0
2371 791 1 -8.1999999999999995e-01 -1.0682673897874844e+01 -5.6924114674802588e+00 -1.4714969018813086e+01 -1 1 2
844 282 1 -8.1999999999999995e-01 -6.4921828417604868e+00 -8.6804222784103047e+00 -7.5374649254636319e+00 -1 -1 0
2169 723 2 4.0999999999999998e-01 -5.3596825979888205e+00 -1.4056525395711471e+01 -1.4007065509191902e+01 -2 2 -1
1909 637 1 -8.1999999999999995e-01 -9.8226509388863299e+00 -4.2630411771063770e-01 -1.0685067967887605e+01 -1 4 -2
2373 791 2 4.0999999999999998e-01 -1.0581557027621265e+01 -5.3265299871760288e+00 -1.3789828784290219e+01 -1 1 2
1521 507 2 4.0999999999999998e-01 -1.3021225079544564e+01 -4.5533929956846908e+00 -1.4495730243770529e+01 -2 1 -1
2002 668 1 -8.1999999999999995e-01 -1.2783632289911209e+01 -1.1012215475181559e+00 -8.1428971177730496e+00 -1 2 1
2003 668 2 4.0999999999999998e-01 -1.3134704551334512e+01 -1.1278026761251017e+00 -9.0788565581409841e+00 -1 2 1
2580 860 2 4.0999999999999998e-01 -1.4541082026721718e+01 -7.4562101633214262e-01 -8.1262149259935494e+00 -2 -1 0
1343 448 2 4.0999999999999998e-01 -1.4288145353434093e+01 -6.0035253884575130e+00 -1.3390051936892995e+01 -1 1 0
1222 408 1 -8.1999999999999995e-01 -1.2750200418363450e+01 -5.8839777753520792e+00 -8.3757360553098543e+00 0 2 -1
2221 741 1 -8.1999999999999995e-01 -6.8283750857847760e+00 -3.9941034884082995e+00 -1.2131489416684669e+01 -1 2 1
631 211 1 -8.1999999999999995e-01 -7.8135610536222559e+00 -5.4347891435000619e+00 -1.0107803566446989e+01 -1 3 1
1408 470 1 -8.1999999999999995e-01 -9.0024154987481708e+00 -3.6203330927966739e+00 -8.4886479905855303e+00 -2 1 0
1444 482 1 -8.1999999999999995e-01 -1.2889083208536714e+01 -5.9537682652912860e+00 -1.2489078545626526e+01 -1 0 0
1446 482 2 4.0999999999999998e-01 -1.2536242717566680e+01 -6.8807359268815222e+00 -1.2361748715813933e+01 -1 0 0
117 39 2 4.0999999999999998e-01 -1.1256770454591758e+01 -1.2030673831932880e+01 -8.1623648043723165e+00 -1 -1 1
2439 813 2 4.0999999999999998e-01 -5.7407175166240698e+00 -1.3025078263593208e+01 -1.0101762441381281e+01 1 2 1
736 246 1 -8.1999999999999995e-01 -1.4411677136166448e+01 -1.3957776839849195e+01 -8.1260481372136812e+00 -1 2 -1
405 135 2 4.0999999999999998e-01 -9.8382624792213456e+00 -1.8012839852536473e+00 -1.3189436291077840e+01 2 2 1
1445 482 2 4.0999999999999998e-01 -1.2238082141854234e+01 -5.2946833322611333e+00 -1.2112537716517394e+01 -1 0 0
940 314 1 -8.1999999999999995e-01 -1.2422533819382918e+01 -2.1204093496505259e+00 -1.0815067541253921e+01 1 3 2
1330 444 1 -8.1999999999999995e-01 -1.4735826540851985e+01 -3.3250654337218641e+00 -1.2092212862814449e+01 1 1 1
1750 584 1 -8.1999999999999995e-01 -6.1389980131142341e+00 -2.5199590637908926e+00 -9.7083445551792948e+00 0 2 1
1751 584 2 4.0999999999999998e-01 -6.1862394140121619e+00 -3.0037313376896613e+00 -8.8344389642092995e+00 0 2 1
633 211 2 4.0999999999999998e-01 -8.2145865909872313e+00 -4.8320257929312440e+00 -9.4179969190239632e+00 -1 3 1
1331 444 2 4.0999999999999998e-01 -1.4247941770030813e+01 -3.2470288899757236e+00 -1.2961613281718460e+01 1 1 1
1824 608 2 4.0999999999999998e-01 -7.8140907844055407e+00 -6.6982393691588769e+00 -1.4758651683957789e+01 -2 1 1
1911 637 2 4.0999999999999998e-01 -1.0581606415759301e+01 -1.0520514826307341e+00 -1.0505053657406240e+01 -1 4 -2
1519 507 1 -8.1999999999999995e-01 -1.3021442757673128e+01 -3.5542674343620231e+00 -1.4537280360065541e+01 -2 1 -1
2061 687 2 4.0999999999999998e-01 -8.5548453803705833e+00 -6.7166282902797345e+00 -1.0665898003223917e+01 -2 2 -1
1049 350 2 4.0999999999999998e-01 -8.2803244561409031e+00 -2.7952857050640212e-01 -9.8654897555181940e+00 -2 1 1
1463 488 2 4.0999999999999998e-01 -9.5026997099837693e+00 -3.6821865398455120e+00 -1.2269590103973879e+01 1 0 -1
942 314 2 4.0999999999999998e-01 -1.2087331133589718e+01 -1.4958710610205763e+00 -1.1520453542128408e+01 1 3 2
2059 687 1 -8.1999999999999995e-01 -8.8778627474584901e+00 -7.5254385700768571e+00 -1.1157287941527288e+01 -2 2 -1
189 63 2 4.0999999999999998e-01 -8.3949274402979128e+00 -1.1539662966989269e+01 -8.7108583391813248e+00 -2 0 1
82 28 1 -8.1999999999999995e-01 -7.2412309480493784e+00 -6.6464579391769192e+00 -1.3123983574179439e+01 -1 1 1
1224 408 2 4.0999999999999998e-01 -1.3085456282957333e+01 -6.1301117560333473e+00 -9.2851314026058525e+00 0 2 -1
632 211 2 4.0999999999999998e-01 -7.2720175870422183e+00 -4.8924142032988698e+00 -1.0750095128339375e+01 -1 3 1
84 28 2 4.0999999999999998e-01 -7.8021847705101104e+00 -7.1484657032827306e+00 -1.2465730303498800e+01 -1 1 1
941 314 2 4.0999999999999998e-01 -1.3281939135674094e+01 -2.5333390897552484e+00 -1.1116547003981861e+01 1 3 2
1048 350 1 -8.1999999999999995e-01 -7.6802293083321089e+00 -2.6896418203858907e-01 -9.0656444413493347e+00 -2 1 1
83 28 2 4.0999999999999998e-01 -7.0365040836059558e+00 -5.7369479252703037e+00 -1.2762242252853859e+01 -1 1 1
1464 488 2 4.0999999999999998e-01 -9.4619613115052150e+00 -4.8616777055715303e+00 -1.1141002645757059e+01 1 0 -1
2222 741 2 4.0999999999999998e-01 -6.2470617874975236e+00 -3.4792508578417447e+00 -1.1501425952911662e+01 -1 2 1
2223 741 2 4.0999999999999998e-01 -7.5998457661740204e+00 -3.4242131810183913e+00 -1.2414396422678985e+01 -1 2 1
1462 488 1 -8.1999999999999995e-01 -9.8826554830518063e+00 -4.5666830492833697e+00 -1.1998891266994317e+01 1 0 -1
1752 584 2 4.0999999999999998e-01 -6.7207100104293147e+00 -1.7074176395141816e+00 -9.6713861900704732e+00 0 2 1
2418 806 2 4.0999999999999998e-01 -1.2189870607501870e+01 -4.1445685846798721e+00 -7.9689018502542242e+00 3 0 -1
403 135 1 -8.1999999999999995e-01 -8.9031313569378554e+00 -2.1541272601609442e+00 -1.3157659450305244e+01 2 2 1
1409 470 2 4.0999999999999998e-01 -9.9616331484784872e+00 -3.6863540528188512e+00 -8.2138370205159035e+00 -2 1 0
1436 479 2 4.0999999999999998e-01 -8.2517046700277952e+00 -1.3942602828017773e+01 -8.5860275839102265e+00 -2 1 2
1410 470 2 4.0999999999999998e-01 -8.4363322793584210e+00 -3.4443165634861224e+00 -7.6833242556138028e+00 -2 1 0
1435 479 1 -8.1999999999999995e-01 -8.4656282825624807e+00 -1.3209580998618467e+01 -9.2317008898525685e+00 -2 1 2
1166 389 2 4.0999999999999998e-01 -5.9657282822141795e+00 -1.2157886226496331e+01 -1.4475358711035080e+01 -1 1 0
2320 774 1 -8.1999999999999995e-01 -5.0242568398689205e+00 -1.2746932906530134e+01 -7.9281227207438087e+00 0 3 1
2034 678 2 4.0999999999999998e-01 -5.2710342416683336e+00 -6.0711249143195847e+00 -1.1806439088821946e+01 0 1 2
1549 517 1 -8.1999999999999995e-01 -1.1602825390421961e+01 -1.3855975997507670e+00 -1.3398914138224299e+01 -1 0 2
2004 668 2 4.0999999999999998e-01 -1.2315379905566894e+01 -1.9607220236253031e+00 -7.9380142279096111e+00 -1 2 1
1050 350 2 4.0999999999999998e-01 -8.2284842154275886e+00 -3.7570194978149019e-01 -8.2361856216062250e+00 -2 1 1
1550 517 2 4.0999999999999998e-01 -1.1638895403824112e+01 -1.1778890504142563e+00 -1.4376428565183799e+01 -1 0 2
1551 517 2 4.0999999999999998e-01 -1.1948793902898016e+01 -2.3105699468419392e+00 -1.3241719093906287e+01 -1 0 2
277 93 1 -8.1999999999999995e-01 -1.2696528198634864e+01 -1.0855393655000523e+01 -1.9790779905609135e+00 -1 -1 -1
279 93 2 4.0999999999999998e-01 -1.2702853076561262e+01 -1.1778516601164116e+01 -1.5946532918924579e+00 -1 -1 -1
278 93 2 4.0999999999999998e-01 -1.1851683838685073e+01 -1.0715115278269282e+01 -2.4953514972564736e+00 -1 -1 -1
2183 728 2 4.0999999999999998e-01 -1.3342366723063005e+01 -1.1521392571020240e+01 -6.2350643484878780e+00 2 2 -1
533 178 2 4.0999999999999998e-01 -1.0325484990819152e+01 -1.0068182933446417e+01 -5.0854243417020495e+00 -2 -1 -1
2548 850 1 -8.1999999999999995e-01 -9.1116296505159280e+00 -1.0217215339304163e+01 -6.0993404017564767e+00 -2 0 1
356 119 2 4.0999999999999998e-01 -1.1388479093248257e+01 -1.3638692966484131e+01 -6.7155296941956699e-01 1 1 0
532 178 1 -8.1999999999999995e-01 -1.1095271167514447e+01 -9.9962524541120281e+00 -4.4512054429361925e+00 -2 -1 -1
2147 716 2 4.0999999999999998e-01 -1.3385870670019578e+01 -8.2076168858841889e+00 -6.3677415616900941e+00 2 3 -3
534 178 2 4.0999999999999998e-01 -1.0941893660509329e+01 -9.2307613544784939e+00 -3.8263238120878391e+00 -2 -1 -1
355 119 1 -8.1999999999999995e-01 -1.1944928731724813e+01 -1.3591114809610803e+01 -1.5010579188757980e+00 1 1 0
2321 774 2 4.0999999999999998e-01 -5.8481132300984395e+00 -1.2843565629105703e+01 -7.3696416592370397e+00 0 3 1
116 39 2 4.0999999999999998e-01 -1.0437127202838964e+01 -1.1713109866083348e+01 -6.7861719469168129e+00 -1 -1 1
115 39 1 -8.1999999999999995e-01 -1.1266336544384712e+01 -1.2122532585703159e+01 -7.1666495868992648e+00 -1 -1 1
2152 718 1 -8.1999999999999995e-01 -7.8406536461234042e+00 -9.7552919401861402e+00 -3.3491561391763280e+00 -2 4 1
2550 850 2 4.0999999999999998e-01 -8.7954946326202563e+00 -1.0162329477918753e+01 -7.0464541918417201e+00 -2 0 1
2154 718 2 4.0999999999999998e-01 -6.9468751016274695e+00 -9.8889075886396149e+00 -3.7772742305283167e+00 -2 4 1
2182 728 1 -8.1999999999999995e-01 -1.3476627086742287e+01 -1.1260201566159058e+01 -5.2791711642356738e+00 2 2 -1
2153 718 2 4.0999999999999998e-01 -7.8647272987381296e+00 -1.0233939050999075e+01 -2.4714912031150487e+00 -2 4 1
2272 758 1 -8.1999999999999995e-01 -9.1572219247255795e+00 -1.3340429073729444e+01 -4.5785203328478215e+00 0 0 -1
1389 463 2 4.0999999999999998e-01 -1.2913953771683154e+01 -8.2983996037114629e+00 -1.4470253491653651e+00 -1 0 -2
366 122 2 4.0999999999999998e-01 -1.4768519064914789e+01 -1.0667842850335244e+01 -4.0004900984395348e+00 0 3 1
1651 551 1 -8.1999999999999995e-01 -1.4711543065458869e+01 -1.3834665109430746e+01 -1.6571675839004136e+00 0 2 0
1612 538 1 -8.1999999999999995e-01 -1.3880865819341716e+01 -5.7883374608562637e+00 -4.1417835524663289e+00 -1 2 -2
365 122 2 4.0999999999999998e-01 -1.4417628208953840e+01 -9.9760640652746435e+00 -2.5635188338281392e+00 0 3 1
2273 758 2 4.0999999999999998e-01 -9.9066038998359893e+00 -1.3964089101263900e+01 -4.3561397032064715e+00 0 0 -1
1590 530 2 4.0999999999999998e-01 -9.4159628672192923e+00 -8.2044204837207051e+00 -2.8611680207923254e+00 -1 1 -1
1439 480 2 4.0999999999999998e-01 -1.1852009526895474e+01 -1.3813659095948127e+01 -6.3651961886587980e+00 -1 1 3
1193 398 2 4.0999999999999998e-01 -1.0234192077803248e+01 -9.3262229265865475e+00 -2.6215785365075028e-01 -1 1 2
2549 850 2 4.0999999999999998e-01 -8.3885033431656169e+00 -9.8967548180894056e+00 -5.4874811650044268e+00 -2 0 1
2184 728 2 4.0999999999999998e-01 -1.2649194426131590e+01 -1.0815989853434658e+01 -4.9356460708866230e+00 2 2 -1
1863 621 2 4.0999999999999998e-01 -1.2070510326494517e+01 -1.0694003507016330e+01 -2.6321155677720931e-01 -1 1 1
1614 538 2 4.0999999999999998e-01 -1.4786715795539664e+01 -6.1448628748402871e+00 -3.9130833420757618e+00 -1 2 -2
1387 463 1 -8.1999999999999995e-01 -1.2651449441728031e+01 -7.4917047218996524e+00 -1.9764714502217391e+00 -1 0 -2
1194 398 2 4.0999999999999998e-01 -8.7136494055393854e+00 -9.3568144713545252e+00 -8.5678615858564733e-01 -1 1 2
1192 398 1 -8.1999999999999995e-01 -9.5885409901461500e+00 -8.8729267267952885e+00 -8.7667845567945157e-01 -1 1 2
1653 551 2 4.0999999999999998e-01 -1.3717377933800408e+01 -1.3782056977216961e+01 -1.5631122580098040e+00 0 2 0
1270 424 1 -8.1999999999999995e-01 -1.3865033159898454e+01 -1.4953906988258616e+00 -3.6685705256224033e-01 -1 1 0
2148 716 2 4.0999999999999998e-01 -1.1850684774693098e+01 -8.7504926640026497e+00 -6.2450270753558215e+00 2 3 -3
357 119 2 4.0999999999999998e-01 -1.1588750049713331e+01 -1.4234473188283733e+01 -2.1787046387800135e+00 1 1 0
1945 649 1 -8.1999999999999995e-01 -5.7268998255147299e+00 -3.9189140431045981e+00 -7.3502138467860814e+00 0 0 -1
2274 758 2 4.0999999999999998e-01 -9.4330943135752641e+00 -1.2401380471214782e+01 -4.3734338466155265e+00 0 0 -1
1438 480 1 -8.1999999999999995e-01 -1.2375759740896589e+01 -1.4663125165887127e+01 -6.4290043761775379e+00 -1 1 3
2483 828 2 4.0999999999999998e-01 -8.1147572113388566e+00 -1.4297103005985051e+01 -6.1348687257041945e+00 -1 1 1
2158 720 1 -8.1999999999999995e-01 -8.9006406950816697e+00 -7.9768787451490297e-01 -6.8717953084809960e+00 -2 1 0
2482 828 1 -8.1999999999999995e-01 -7.9728064252680637e+00 -1.4833657414584028e+01 -6.9666966384245974e+00 -1 1 1
1246 416 1 -8.1999999999999995e-01 -8.5279588515495224e+00 -3.1257347550692494e-01 -3.2701432967057631e+00 -1 2 -1
1440 480 2 4.0999999999999998e-01 -1.3111000607233574e+01 -1.4551950232779507e+01 -7.0976144086749864e+00 -1 1 3
1247 416 2 4.0999999999999998e-01 -7.9629568525565091e+00 -1.1240634086505530e+00 -3.4192578675431609e+00 -1 2 -1
888 296 2 4.0999999999999998e-01 -5.9795369781144210e+00 -9.5005623072401519e+00 -5.9295320946588141e+00 -4 2 -2
2347 783 1 -8.1999999999999995e-01 -6.6092012828643050e+00 -4.8889998660399065e+00 -2.9293318299158013e+00 -1 3 1
2146 716 1 -8.1999999999999995e-01 -1.2504105633414818e+01 -8.2755653627361170e+00 -6.8344874773163795e+00 2 3 -3
544 182 1 -8.1999999999999995e-01 -1.3613215558714110e+01 -3.3082809691055193e+00 -5.5008160509956934e+00 -1 0 -1
1977 659 2 4.0999999999999998e-01 -5.2550544001087225e+00 -6.0909292937968011e+00 -5.6404129529444678e+00 -2 1 0
1388 463 2 4.0999999999999998e-01 -1.3010510367248759e+01 -6.6705563548999010e+00 -1.5328849843010151e+00 -1 0 -2
2160 720 2 4.0999999999999998e-01 -9.6376062866849743e+00 -3.3207200960019811e-01 -6.3818341723959726e+00 -2 1 0
1322 441 2 4.0999999999999998e-01 -1.0139759816636836e+01 -4.2318283669781991e+00 -1.8158121295506824e-01 -2 2 1
358 120 1 -8.1999999999999995e-01 -9.6020865239176523e+00 -5.1267735544272774e-01 -5.7805637564344359e-01 -1 1 1
2159 720 2 4.0999999999999998e-01 -8.8880572815694059e+00 -1.7640145296645553e+00 -6.6148268650616302e+00 -2 1 0
529 177 1 -8.1999999999999995e-01 -6.7666457399469770e+00 -2.3218660307156966e+00 -3.9394117971400178e+00 -2 0 0
1652 551 2 4.0999999999999998e-01 -1.4943503124248053e+01 -1.4470065564053220e+01 -2.3936722579973271e+00 0 2 0
393 131 2 4.0999999999999998e-01 -1.4536340247465317e+01 -3.1033258662333001e+00 -2.3718969167737534e+00 0 1 1
775 259 1 -8.1999999999999995e-01 -6.5735425031350214e+00 -6.3129089050670952e+00 -1.3744095912359811e-02 -1 1 0
1271 424 2 4.0999999999999998e-01 -1.3269608232875814e+01 -2.0410212964582932e+00 -9.5654742014709804e-01 -1 1 0
545 182 2 4.0999999999999998e-01 -1.3469124205712896e+01 -4.2040166440722295e+00 -5.0802525821166480e+00 -1 0 -1
1128 376 2 4.0999999999999998e-01 -8.7347458194130070e+00 -4.0188960879882973e+00 -5.6685954319532676e+00 0 1 3
398 133 2 4.0999999999999998e-01 -1.3640369544431838e+01 -5.7993095744939893e-01 -4.1086393019478749e+00 0 0 0
2349 783 2 4.0999999999999998e-01 -6.3867921610906162e+00 -5.3431783590179904e+00 -2.0666416139850607e+00 -1 3 1
1131 377 2 4.0999999999999998e-01 -5.2932888497617547e+00 -1.4236965980948444e+01 -5.1432603873818756e+00 1 4 -1
1613 538 2 4.0999999999999998e-01 -1.3195201288538247e+01 -6.2192775769619804e+00 -3.5551549690157671e+00 -1 2 -2
1123 375 1 -8.1999999999999995e-01 -7.2648639932206578e+00 -7.0606457062071177e+00 -5.5388283658180111e+00 -2 2 0
1125 375 2 4.0999999999999998e-01 -8.2118318318839840e+00 -7.1506774630456587e+00 -5.2304057168031175e+00 -2 2 0
2314 772 1 -8.1999999999999995e-01 -1.2553510262430347e+01 -2.9166507546368035e+00 -2.4546365139878734e+00 1 2 1
5 2 2 4.0999999999999998e-01 -9.8029367390662738e+00 -4.4913020871537750e+00 -3.0019216653597240e+00 -1 1 -2
1491 497 2 4.0999999999999998e-01 -1.3526375284904725e+01 -4.3106377641435571e+00 -1.4422899131715141e+00 0 0 1
1126 376 1 -8.1999999999999995e-01 -8.1400768739277307e+00 -3.2992312491446114e+00 -6.0269663095754460e+00 0 1 3
1589 530 2 4.0999999999999998e-01 -1.0869680331591292e+01 -7.4866090519070445e+00 -2.6661783043332630e+00 -1 1 -1
2348 783 2 4.0999999999999998e-01 -7.5528115530751645e+00 -5.1006581238654292e+00 -3.1838485825108993e+00 -1 3 1
1588 530 1 -8.1999999999999995e-01 -1.0085769157451493e+01 -7.5901661206719853e+00 -3.2783364047924728e+00 -1 1 -1
2416 806 1 -8.1999999999999995e-01 -1.1718334137686519e+01 -3.4206848607187545e+00 -7.4652908256029153e+00 3 0 -1
1127 376 2 4.0999999999999998e-01 -7.6657277532466503e+00 -2.8508121477234543e+00 -5.2694099947550352e+00 0 1 3
1947 649 2 4.0999999999999998e-01 -6.5236406503552402e+00 -3.8263470095048699e+00 -6.7530424023456082e+00 0 0 -1
397 133 1 -8.1999999999999995e-01 -1.2790775245110886e+01 -1.0384201229380743e+00 -4.3693221764731494e+00 0 0 0
1124 375 2 4.0999999999999998e-01 -7.0941313792899061e+00 -7.7057321049216858e+00 -6.2836050038169784e+00 -2 2 0
399 133 2 4.0999999999999998e-01 -1.3000554911283414e+01 -1.8204324545330000e+00 -4.9562016816729386e+00 0 0 0
2417 806 2 4.0999999999999998e-01 -1.2203687421989770e+01 -3.2390796251660152e+00 -6.6100539655043349e+00 3 0 -1
6 2 2 4.0999999999999998e-01 -9.7153562704313217e+00 -6.0252130662490924e+00 -3.5551083098560827e+00 -1 1 -2
531 177 2 4.0999999999999998e-01 -6.1366324469164386e+00 -1.6312935021131718e+00 -3.5842059906335386e+00 -2 0 0
2316 772 2 4.0999999999999998e-01 -1.2611455406449467e+01 -2.3645915063497789e+00 -3.2864125007596314e+00 1 2 1
1489 497 1 -8.1999999999999995e-01 -1.3658439594548206e+01 -5.0704132549636860e+00 -8.0567499581291280e-01 0 0 1
1321 441 1 -8.1999999999999995e-01 -9.9831480893037927e+00 -3.6435714280882578e+00 -9.7493164357317674e-01 -2 2 1
530 177 2 4.0999999999999998e-01 -6.4672710564848881e+00 -3.2292930400637196e+00 -3.6445739304441389e+00 -2 0 0
2315 772 2 4.0999999999999998e-01 -1.1592981608902681e+01 -3.0674195201566050e+00 -2.2209020027748192e+00 1 2 1
4 2 1 -8.1999999999999995e-01 -9.3791172510065941e+00 -5.0917665758627813e+00 -3.6800055665036275e+00 -1 1 -2
110 37 2 4.0999999999999998e-01 -6.9915135010277609e+00 -1.1568450185593179e+01 -9.9857120740746019e-01 0 1 0
252 84 2 4.0999999999999998e-01 -5.3689216785227529e+00 -1.1775565062041879e+01 -4.9693737776469611e+00 -2 1 -1
1976 659 2 4.0999999999999998e-01 -5.2347615695184402e+00 -5.4228296555715545e+00 -4.1505137102962877e+00 -2 1 0
109 37 1 -8.1999999999999995e-01 -7.3499784615697958e+00 -1.0640292158135239e+01 -8.9855185293357565e-01 0 1 0
1323 441 2 4.0999999999999998e-01 -9.3936455805874068e+00 -2.8797088302917935e+00 -7.1229301573874615e-01 -2 2 1
886 296 1 -8.1999999999999995e-01 -5.6821318049356755e+00 -1.0107356916942704e+01 -5.1924236915320829e+00 -4 2 -2
375 125 2 4.0999999999999998e-01 -5.3319701020676469e+00 -2.8408305633525703e+00 -2.7779222559049899e-01 -2 0 -1
976 326 1 -8.1999999999999995e-01 -5.6760169111068617e+00 -1.2719142434242256e+01 -8.4674757434214065e-01 0 1 0
546 182 2 4.0999999999999998e-01 -1.4592148951116712e+01 -3.1058004507578865e+00 -5.5266888027544212e+00 -1 0 -1
359 120 2 4.0999999999999998e-01 -9.2425992370928007e+00 -5.0422411129125777e-01 -1.5111564656137215e+00 -1 1 1
158 53 2 4.0999999999999998e-01 -9.5890903436062729e+00 -7.2199676036597253e+00 -2.6489410010231929e-01 -5 1 -2
250 84 1 -8.1999999999999995e-01 -5.0898917128668231e+00 -1.2703646973017728e+01 -4.7228284749173177e+00 -2 1 -1
1386 462 2 4.0999999999999998e-01 -1.2359059056360159e+01 -2.1972445056018231e-01 -3.7196972739402767e-01 -1 1 -2
1130 377 2 4.0999999999999998e-01 -6.1517259385510119e+00 -1.4964063486489895e+01 -6.3268919552725578e+00 1 4 -1
2454 818 2 4.0999999999999998e-01 -7.6793263859003984e+00 -1.4862683730318572e+01 -1.2796495680161630e+00 -5 -1 -1
1248 416 2 4.0999999999999998e-01 -9.1964901150686131e+00 -2.3146953561729511e-01 -4.0093769683004350e+00 -1 2 -1
111 37 2 4.0999999999999998e-01 -6.6913371998351980e+00 -1.0081061859736787e+01 -3.9513201293090638e-01 0 1 0
978 326 2 4.0999999999999998e-01 -5.9778489847266059e+00 -1.3305251737415828e+01 -9.4848903106148796e-02 0 1 0
343 115 1 -8.1999999999999995e-01 -6.5122594481946052e+00 -1.2372831742263683e+01 7.1871920734393449e+00 -3 -1 0
523 175 1 -8.1999999999999995e-01 -1.2359493614532994e+01 -7.8279950447819173e+00 6.6661084535791879e+00 -2 1 0
55 19 1 -8.1999999999999995e-01 -1.0400566789293654e+01 -1.3178424649238364e+01 3.3885604261636217e+00 0 1 -1
1645 549 1 -8.1999999999999995e-01 -1.2907680828337179e+01 -1.2918677969269947e+01 4.6098733442823772e+00 0 1 0
1567 523 1 -8.1999999999999995e-01 -9.3368589017541801e+00 -1.0920848702729678e+01 2.2265637849176372e+00 -2 1 0
1569 523 2 4.0999999999999998e-01 -9.4675737458872682e+00 -1.1831301171782602e+01 2.6189516864978586e+00 -2 1 0
1568 523 2 4.0999999999999998e-01 -9.9972898905330574e+00 -1.0777610583569569e+01 1.4894802886955993e+00 -2 1 0
2070 690 2 4.0999999999999998e-01 -1.3158119481758790e+01 -8.6785828429118901e+00 2.9975194306763946e+00 0 2 -1
1017 339 2 4.0999999999999998e-01 -1.4075903826184174e+01 -1.0562045902692493e+01 2.8532973670935675e+00 -2 1 0
1661 554 2 4.0999999999999998e-01 -8.6764322805937404e+00 -1.0685723595595533e+01 6.5468070357002972e+00 -2 2 -1
297 99 2 4.0999999999999998e-01 -1.4454406156266085e+01 -8.1576362712526311e+00 6.3168944991710809e+00 -1 2 -3
419 140 2 4.0999999999999998e-01 -5.4136924595843841e+00 -1.2090589984344911e+01 2.8237749840482600e+00 -2 3 -2
1015 339 1 -8.1999999999999995e-01 -1.3220238844988996e+01 -1.0516320730298238e+01 3.3687825458168916e+00 -2 1 0
1576 526 1 -8.1999999999999995e-01 -1.0786055643956992e+01 -9.4089764054374587e+00 5.0930626142112914e+00 0 0 1
420 140 2 4.0999999999999998e-01 -6.7692044844937840e+00 -1.1781307209648364e+01 1.9673288415391958e+00 -2 3 -2
418 140 1 -8.1999999999999995e-01 -6.0468496531588123e+00 -1.2451192136197403e+01 2.1388980743318236e+00 -2 3 -2
562 188 1 -8.1999999999999995e-01 -8.3247335723673679e+00 -8.5620041660712030e+00 3.3960385634565569e+00 3 1 0
563 188 2 4.0999999999999998e-01 -8.4155551572514504e+00 -9.4835352391736514e+00 3.0185332596087022e+00 3 1 0
1577 526 2 4.0999999999999998e-01 -1.1125772695346303e+01 -8.6667560119170268e+00 5.6707126246530599e+00 0 0 1
56 19 2 4.0999999999999998e-01 -1.1177611776534183e+01 -1.2619342905274294e+01 3.6777092111363316e+00 0 1 -1
1016 339 2 4.0999999999999998e-01 -1.3102259113518528e+01 -1.1358888869051377e+01 3.8942709257992512e+00 -2 1 0
564 188 2 4.0999999999999998e-01 -8.2694337291336524e+00 -8.6142260063041967e+00 4.3931308998632872e+00 3 1 0
1529 510 2 4.0999999999999998e-01 -1.3361249893453969e+01 -5.2590297081105160e+00 5.1021457170655715e+00 1 -1 0
1969 657 1 -8.1999999999999995e-01 -1.0389274260800342e+01 -1.4557410420984983e+01 8.6178191400856896e-01 2 1 -1
1971 657 2 4.0999999999999998e-01 -9.5283443920411059e+00 -1.4869079047968260e+01 4.5973618327128563e-01 2 1 -1
1647 549 2 4.0999999999999998e-01 -1.2881343796045895e+01 -1.3128389180276056e+01 5.5872708725637423e+00 0 1 0
269 90 2 4.0999999999999998e-01 -6.6701717802524900e+00 -1.4005718138852039e+01 5.8198054893926603e+00 2 2 0
1646 549 2 4.0999999999999998e-01 -1.3650045840656372e+01 -1.3431573828006057e+01 4.1788160732282300e+00 0 1 0
1578 526 2 4.0999999999999998e-01 -1.1558839816678443e+01 -9.8856362498758870e+00 4.6740419042669750e+00 0 0 1
1992 664 2 4.0999999999999998e-01 -8.7768481870449655e+00 -1.5223859956966432e+00 5.7576995473376513e-01 0 -1 0
162 54 2 4.0999999999999998e-01 -9.9846842052645215e+00 -1.0029811401625452e+01 7.3108385967820695e+00 -2 1 -1
628 210 1 -8.1999999999999995e-01 -5.2996227212034874e+00 -8.9960475277881393e+00 4.2030594376540762e+00 -2 3 -1
1970 657 2 4.0999999999999998e-01 -1.0197944800864779e+01 -1.4012922624401817e+01 1.6784240778177626e+00 2 1 -1
1862 621 2 4.0999999999999998e-01 -1.2071980075055219e+01 -9.7976972751432072e+00 1.1017799013609597e+00 -1 1 1
630 210 2 4.0999999999999998e-01 -5.3285751394741503e+00 -9.9921667168152020e+00 4.1200736579957749e+00 -2 3 -1
525 175 2 4.0999999999999998e-01 -1.2566807311079772e+01 -8.8042087874231889e+00 6.7294022032167966e+00 -2 1 0