2593
Atoms. Timestep: 1000000
O -4.90741 -6.74929 -5.95687
H -4.85622 -5.75077 -5.97562
H -5.72558 -7.03175 -5.45605
O -8.70065 -1.92945 -1.33035
H -7.88076 -2.2523 -0.857513
H -9.29829 -2.70614 -1.52932
O 0.311628 -6.84247 4.05929
H 1.3039 -6.79681 3.94385
H -0.136099 -6.48751 3.23858
O 4.39622 8.36823 3.78525
H 5.2908 8.00278 3.52797
H 3.89285 7.68014 4.30791
O -14.8712 2.82393 -6.61122
H -14.4091 2.21201 -5.9693
H 14.0397 2.58111 -6.66473
O -6.75813 -14.167 -11.103
H -7.29767 -13.3275 -11.0387
H -7.3675 14.9361 -11.2642
O 11.2801 -12.3592 2.02911
H 10.6957 -13.1312 1.77909
H 11.7368 -12.5542 2.89712
O 7.02301 -7.81255 -11.805
H 7.55469 -8.50788 -11.3214
H 7.27164 -7.81672 -12.7736
O -4.93112 5.67457 -6.00676
H -3.94374 5.77306 -5.88271
H -5.17426 4.70475 -5.98841
O -5.09954 2.02186 10.273
H -4.58783 2.50115 9.55997
H -5.98507 2.46748 10.4045
O -12.2107 4.20916 -2.16232
H -11.8386 3.49177 -2.75137
H -11.4773 4.83389 -1.89415
O -6.76123 -11.2202 13.7366
H -6.71453 -11.6214 12.8218
H -7.57416 -10.642 13.8059
O 4.59576 -11.2542 -0.0623122
H 4.13767 -10.3888 0.140722
H 5.21289 -11.4889 0.688746
O -6.06205 2.32068 -12.0886
H -6.02298 2.64462 -13.0338
H -6.06136 3.10433 -11.4674
O -4.09376 -11.1836 -11.7923
H -4.57527 -11.5833 -12.5723
H -4.6409 -10.4398 -11.4084
O 14.8416 -6.9447 6.07375
H -14.2412 -6.37721 5.86566
H -14.8315 -7.89979 5.86114
O 14.4387 10.6529 1.96602
H -14.4574 10.4714 1.96917
H 14.2422 11.4143 1.34826
O -12.7651 14.3144 5.4761
H -13.5688 14.557 6.01938
H -13.0491 13.7756 4.68298
O -11.3467 -14.1468 1.77242
H -11.6843 14.9301 1.28065
H -11.349 -13.3558 1.16069
O -8.01439 -14.8106 13.4905
H -7.79298 -14.5201 14.4214
H -7.19795 -14.7427 12.917
O 7.80031 -7.6289 12.7751
H 8.56079 -7.87316 12.1734
H 7.26924 -6.89113 12.3584
O 1.01976 4.20016 4.56097
H 1.32179 5.15179 4.50447
H 1.62808 3.6244 4.01466
O -1.92106 -2.37842 14.2093
H -2.56916 -2.71666 14.8916
H -1.83741 -1.3854 14.2925
O -2.53596 -12.0443 12.9117
H -1.64535 -12.4597 13.0967
H -2.40423 -11.1505 12.4828
O 9.6693 13.7217 9.68329
H 9.06627 14.4952 9.87822
H 10.6224 14.0145 9.75967
O -13.8054 -11.4062 -10.1983
H -13.6401 -10.8383 -11.0046
H -14.5589 -12.037 -10.3836
O 5.31334 -12.7848 11.1593
H 5.04246 -11.8226 11.1297
H 5.74913 -13.0351 10.2948
O -7.59341 -7.32996 13.8903
H -7.21948 -7.32959 14.8178
H -8.02236 -6.44615 13.7035
O -13.7335 -4.22659 10.3805
H -14.0784 -3.48705 9.80245
H -14.119 -5.09683 10.0738
O -2.63334 -7.95407 -4.93204
H -3.38951 -7.52473 -5.42589
H -2.11007 -8.53064 -5.55955
O 2.49946 10.9176 2.89886
H 3.34615 10.7045 2.4113
H 2.12409 10.0804 3.29658
O 3.57102 -12.3421 -6.62837
H 3.72105 -13.0392 -7.32953
H 2.7772 -12.5924 -6.07406
O 8.18498 11.2184 0.175647
H 7.69273 10.3777 0.401223
H 7.89398 11.5439 -0.724025
O 0.863114 -6.51228 -14.1109
H 0.526401 -6.36102 14.8393
H 1.29871 -7.41077 -14.0563
O 10.4754 -2.61696 13.0676
H 11.2617 -3.18323 12.8203
H 9.83057 -2.59006 12.3038
O -8.91936 7.68609 -10.5526
H -9.28252 6.87214 -10.0992
H -8.13232 7.43141 -11.1145
O -7.95439 -13.1213 0.936186
H -7.21554 -12.4861 0.710987
H -8.32583 -12.8947 1.83659
O 13.435 13.575 -14.6565
H 13.7619 13.3141 14.3147
H 13.9729 13.1004 -13.9597
O -10.9323 -12.347 -4.5152
H -11.5629 -12.6163 -5.24311
H -10.1447 -11.8769 -4.91354
O 0.130565 -9.59086 -8.50244
H 0.584203 -8.87636 -9.03508
H -0.772289 -9.7741 -8.89141
O -4.21294 -1.63362 -13.4102
H -5.07285 -2.07349 -13.6692
H -4.00566 -0.900011 -14.0574
O 10.6665 -4.7681 4.01544
H 9.92401 -5.29607 4.42777
H 11.1245 -5.32317 3.32109
O -2.55395 2.00562 8.55285
H -1.6985 2.25392 8.09836
H -3.30113 2.5563 8.18073
O -14.3285 14.642 7.88086
H -14.2104 13.7018 8.20044
H -14.2617 -14.6107 8.65718
O -0.763919 -11.0844 -1.54336
H -0.735713 -10.694 -2.46358
H 0.00307023 -10.7311 -1.00773
O 4.20243 3.27879 14.6525
H 4.34907 3.33195 13.6648
H 4.57057 2.41565 -14.8813
O 2.17932 -0.270073 -14.3622
H 1.44518 -0.888484 -14.0818
H 2.68502 0.0345675 -13.5551
O 0.952602 5.57327 -0.847996
H 1.76092 5.21002 -1.31134
H 1.11404 5.5915 0.138726
O -4.67082 13.1994 9.5589
H -5.09418 13.5828 10.3797
H -4.27795 13.9377 9.0106
O -5.95308 -4.0514 -5.53744
H -6.1501 -3.46781 -6.32523
H -6.67527 -3.94396 -4.85412
O 9.6815 7.66636 6.86979
H 9.94841 7.53596 5.91492
H 9.45183 8.62744 7.02341
O -3.35859 -8.31144 -14.6561
H -2.71017 -9.02655 -14.3949
H -2.87308 -7.44356 -14.7614
O -7.1336 -8.74228 -0.0779145
H -7.37157 -7.9573 0.494097
H -6.37964 -8.49487 -0.686483
O -8.97574 -11.9241 7.50171
H -9.40575 -11.139 7.94733
H -8.00563 -11.7327 7.35254
O 10.6023 10.3482 0.990267
H 9.75261 10.7541 0.653784
H 10.5524 10.2461 1.9838
O -0.403728 -7.96784 11.4369
H -0.549849 -7.39245 10.6322
H -1.10539 -8.67961 11.4696
O 2.03428 8.06102 1.89867
H 2.92362 8.05371 2.35587
H 1.32392 8.3141 2.55544
O -2.00284 4.51269 -10.0796
H -1.3228 4.11438 -9.4641
H -1.55412 4.81717 -10.9199
O 12.1949 -6.5194 1.99798
H 13.1532 -6.38561 1.74569
H 12.0533 -7.46895 2.27786
O 3.1225 -13.5177 -10.8739
H 2.76661 -12.7358 -10.362
H 3.81881 -13.2043 -11.5196
O 10.1152 7.55396 10.4309
H 9.92709 8.43715 10.0012
H 9.34372 6.93683 10.2758
O -9.37398 10.3062 -4.93682
H -8.47674 10.6407 -5.2251
H -9.50937 9.37681 -5.28029
O -9.19204 -11.6004 -6.55281
H -8.5373 -12.297 -6.84613
H -9.90225 -11.4963 -7.24907
O -0.243864 -0.510091 -5.53509
H 0.349527 0.237462 -5.23665
H 0.0892579 -0.872966 -6.40536
O 6.82663 -6.19296 -4.74587
H 7.67824 -6.32217 -4.23785
H 6.07204 -6.06013 -4.10325
O 5.52503 -6.28762 3.58645
H 6.1345 -5.55904 3.27383
H 6.00095 -7.16557 3.53441
O 11.7357 -11.8663 13.9808
H 11.8155 -10.8699 14.0129
H 12.2578 -12.2176 13.2036
O -14.2835 1.76732 -8.95656
H 14.8985 1.113 -9.24866
H -14.5418 2.15755 -8.0728
O -8.76845 -0.39663 -13.189
H -8.12412 0.0498586 -13.8099
H -8.60362 -0.0813998 -12.2544
O -6.80242 11.0994 -4.88255
H -6.48152 10.8344 -3.97324
H -6.0488 11.0277 -5.53595
O 5.4136 1.95668 -1.85394
H 5.45988 1.00088 -2.14431
H 5.60586 2.01716 -0.874458
O -5.54225 -7.32324 -8.76224
H -5.32402 -7.55092 -7.81326
H -6.27451 -6.64248 -8.78176
O -13.1043 5.74848 1.86582
H -13.3464 5.52261 2.80941
H -12.1983 6.17133 1.8463
O -13.3188 11.4307 -3.7895
H -13.6516 11.1291 -4.68297
H -13.3354 12.4297 -3.74752
O 6.63208 -9.28619 -2.36587
H 5.79357 -9.66574 -2.75685
H 6.43571 -8.39466 -1.95768
O 12.0936 7.64069 8.33378
H 11.6503 7.95644 9.17268
H 11.3964 7.40032 7.65843
O -11.8306 7.57692 -0.307712
H -11.2428 7.05224 -0.923486
H -12.7892 7.38369 -0.516892
O -8.473 8.80789 1.44757
H -9.0823 9.55107 1.17104
H -7.67276 8.79241 0.848085
O 8.5123 -0.568962 -3.69257
H 7.51367 -0.595971 -3.64748
H 8.86504 -0.0133266 -2.93967
O 4.21922 1.35041 7.72616
H 3.6633 0.911354 8.43199
H 5.18087 1.1131 7.86372
O 9.93662 -2.19241 3.52986
H 10.255 -3.14032 3.51872
H 8.96651 -2.16378 3.28886
O -2.05011 12.6645 14.0367
H -1.26618 13.0872 13.5819
H -1.86343 12.583 -14.8638
O 1.43331 -2.18326 -8.15548
H 1.52885 -3.04487 -8.654
H 2.32367 -1.9071 -7.79353
O -5.35073 -12.1812 -0.102466
H -4.35127 -12.2026 -0.12761
H -5.70841 -12.2138 -1.03575
O -1.71532 0.550302 10.8486
H -1.61544 1.00049 9.96129
H -2.6796 0.545899 11.1135
O -0.790644 3.58254 -14.1072
H 0.198186 3.43642 -14.0776
H -1.24255 2.92867 -13.5004
O 7.28917 1.30719 7.90551
H 7.30337 2.26157 8.20379
H 7.84676 1.2072 7.08143
O -3.1557 5.42124 1.62592
H -3.75767 4.63063 1.73807
H -3.63308 6.24839 1.92249
O -13.6366 5.11129 7.36614
H -14.4746 5.16733 7.90887
H -12.858 4.9455 7.97137
O -11.2713 12.4937 6.68992
H -10.6474 12.9265 7.34073
H -11.8497 13.1918 6.26791
O 12.3679 -14.1161 4.39225
H 12.6901 -14.0981 5.33876
H 13.0911 -14.4724 3.80067
O 3.51093 12.5979 13.045
H 4.22528 13.2958 12.9942
H 3.90187 11.7454 13.3922
O -12.9014 -9.45701 -3.1393
H -11.9153 -9.34972 -3.01258
H -13.3622 -8.59986 -2.90922
O 7.41272 13.2651 -13.9946
H 8.16851 13.2431 -14.6491
H 6.61452 12.8122 -14.3919
O 12.8415 -4.97398 -4.60451
H 12.5695 -5.06839 -3.64683
H 12.1038 -5.30244 -5.19441
O -6.30513 -11.9588 7.38946
H -5.47694 -12.3932 7.7436
H -6.37296 -11.028 7.74865
O -7.5329 7.27879 -4.64351
H -7.22268 7.81867 -5.42602
H -8.39456 6.82556 -4.87185
O -6.38448 11.5513 -8.42178
H -7.30741 11.9115 -8.55776
H -5.88544 12.1435 -7.78908
O -13.2585 -9.01746 5.4722
H -13.6012 -9.40832 4.61793
H -12.3405 -9.36933 5.65507
O 0.16586 14.1468 12.735
H 0.99083 14.665 12.5093
H -0.216591 13.7493 11.9009
O 3.59271 8.73215 8.65446
H 4.42454 8.87775 8.11884
H 3.63257 9.28269 9.48832
O 5.79687 -9.5895 12.5934
H 5.03433 -9.55204 13.2393
H 6.41894 -8.82613 12.7675
O -9.61068 12.9446 8.94699
H -9.13199 13.8151 9.06105
H -9.24078 12.274 9.59008
O 14.893 5.12017 -10.2243
H 14.6113 5.31598 -11.1636
H -14.0624 4.738 -10.2263
O 11.9757 3.99029 10.7376
H 12.6871 3.6167 11.333
H 12.4008 4.43917 9.95161
O -4.5021 3.98029 8.3816
H -5.33034 4.42665 8.04279
H -3.96875 4.63229 8.92055
O 11.247 5.68504 -4.04952
H 11.4836 6.45472 -3.45653
H 12.0613 5.12815 -4.21364
O -6.85405 4.74027 6.44228
H -7.68831 4.96946 5.94079
H -6.52929 3.83919 6.15487
O -13.3749 -1.16088 11.3236
H -13.5987 -0.433695 11.9725
H -12.6944 -1.7714 11.7288
O 4.71202 -5.79504 -12.8663
H 5.6479 -6.04425 -12.6172
H 4.10382 -6.57007 -12.6947
O -13.1077 9.28497 2.29745
H -13.0072 8.78933 1.43474
H -12.5269 8.86322 2.99373
O 10.842 -11.5069 10.8286
H 10.9095 -12.2794 11.46
H 9.94498 -11.0755 10.9245
O -12.6481 11.1304 11.4492
H -13.3827 10.9677 12.108
H -11.9255 10.4519 11.5815
O 0.700423 -10.5094 -4.02816
H -0.0438915 -10.2621 -4.64853
H 1.45259 -9.85895 -4.13403
O -6.44954 -12.5002 11.2955
H -5.60596 -12.1306 10.9059
H -6.38145 -13.4962 11.3536
O 12.4525 1.25385 -5.72746
H 12.9481 0.870531 -4.94803
H 11.6268 0.715258 -5.89496
O -2.22243 11.6602 -1.87615
H -2.90737 11.6386 -2.60445
H -1.42656 11.1207 -2.15095
O 9.42937 11.8848 13.9618
H 9.47564 10.8861 13.9835
H 10.3484 12.2635 14.0714
O -11.1301 -12.4918 -1.9649
H -10.3754 -12.0526 -1.47752
H -10.9957 -12.388 -2.95039
O -8.24679 4.57329 -1.9058
H -7.45608 5.17229 -1.77934
H -8.141 4.05656 -2.7554
O 6.9911 14.6822 5.04004
H 6.93321 -14.7812 5.94753
H 6.29773 13.9665 4.95669
O 14.7702 -11.373 -3.989
H -14.592 -11.6841 -3.19172
H 14.7935 -10.3742 -4.0324
O 5.28149 7.74163 -11.4984
H 6.18971 7.32434 -11.4665
H 4.62358 7.14352 -11.0408
O 11.2051 1.77814 -14.2996
H 11.4598 1.73277 -13.3336
H 10.8368 0.894627 -14.589
O -4.13921 -5.69998 0.772638
H -4.66632 -5.84271 1.61037
H -4.19205 -4.73778 0.505442
O 14.4483 -9.15284 13.8191
H -14.5378 -9.15477 14.2684
H 14.54 -8.7779 12.8966
O 7.99576 4.10357 8.41464
H 8.90809 3.72735 8.57629
H 7.84143 4.87858 9.02746
O -12.5507 4.0956 -9.61439
H -11.7239 4.54786 -9.27984
H -12.5587 3.14457 -9.30536
O 4.61018 -7.18907 -6.26346
H 4.74561 -6.79827 -7.17393
H 5.42332 -7.02361 -5.70539
O 5.11167 -10.3357 -7.76231
H 4.68783 -10.9699 -7.11557
H 5.05523 -9.40469 -7.40179
O 14.0531 -4.02401 -1.09026
H 13.5109 -3.99717 -0.250436
H -14.874 -4.23004 -0.865656
O 2.78621 4.57351 7.72037
H 2.23598 3.96294 7.15075
H 3.64051 4.79029 7.24794
O -12.8063 -2.1499 -2.23442
H -12.7551 -2.98806 -1.69138
H -13.61 -2.18613 -2.82838
O 11.5164 11.0827 -13.4699
H 11.4138 11.9345 -12.9563
H 11.1971 10.3166 -12.9121
O -9.08613 -5.1495 14.3061
H -8.76713 -4.72692 -14.725
H -9.37791 -4.43698 13.668
O 3.5517 6.82457 11.0129
H 3.63118 7.36509 10.1753
H 3.05505 7.35067 11.7033
O -1.31043 -14.0277 10.2841
H -0.441117 -13.5529 10.1468
H -1.18871 14.8754 10.1058
O 10.7038 -13.0882 8.35976
H 10.482 -12.5584 9.17839
H 11.4013 -13.7693 8.58238
O 2.55737 -13.9775 11.8431
H 1.98931 -13.7617 11.0489
H 3.36236 -13.3843 11.8482
O -6.90602 -13.3899 5.10451
H -6.50321 -12.92 5.89002
H -7.55669 -12.7815 4.64999
O -9.94915 -3.23763 12.3328
H -9.68386 -2.33405 12.6692
H -9.40314 -3.46681 11.527
O 1.80018 -8.05948 -10.2074
H 2.6893 -8.33791 -10.5707
H 1.92184 -7.28692 -9.58421
O -11.2905 -1.63847 7.01846
H -10.5515 -1.15039 6.55394
H -11.3541 -1.32371 7.9655
O -9.11916 3.92023 1.07838
H -9.90531 3.31464 0.954914
H -8.62465 4.00503 0.213343
O -0.324192 -5.87559 13.5111
H 0.0151355 -4.94361 13.3836
H -0.271494 -6.37111 12.6441
O 7.98319 6.06886 -7.95328
H 8.5486 6.31242 -7.16524
H 8.37684 5.27256 -8.41258
O -7.90614 10.4642 -10.674
H -7.22735 10.5004 -11.4074
H -8.29735 9.54506 -10.627
O -3.1198 14.7122 -8.56568
H -3.45361 -14.6747 -9.36934
H -2.16976 14.4375 -8.71394
O -11.4969 -12.3239 11.8598
H -12.0907 -12.2057 11.0639
H -10.8699 -13.0859 11.6976
O -7.72208 -13.6482 -7.37465
H -7.69033 -14.0629 -8.28409
H -7.93413 -14.3507 -6.69525
O 2.70487 -8.48295 -4.80271
H 3.35747 -7.97066 -5.36099
H 3.20142 -9.08986 -4.18213
O 14.089 -4.83462 3.58003
H 14.794 -4.82399 4.28908
H 13.187 -4.89511 4.00771
O -0.289251 8.7763 0.245563
H 0.544175 8.54436 0.747181
H -0.768562 7.93689 -0.0106886
O 11.6469 6.6298 -12.1383
H 11.5077 6.94389 -13.0774
H 11.9793 5.68669 -12.148
O -11.2385 -11.8596 14.5912
H -11.192 -12.0607 13.6127
H -10.3458 -12.0286 -14.8706
O -14.2624 5.32962 -7.5282
H -14.6981 5.29958 -8.42776
H -14.5006 4.50526 -7.01471
O -10.4028 9.26207 11.7236
H -10.525 8.49561 11.093
H -9.93082 8.94491 12.5462
O 0.851878 13.2347 -3.74725
H 1.08638 12.3128 -3.43905
H 1.60072 13.6024 -4.29868
O -4.91717 -2.46028 9.59373
H -5.46911 -2.76877 10.3685
H -4.21988 -3.14661 9.38697
O -7.61954 -1.16604 12.2668
H -8.22381 -0.93597 11.5039
H -7.19344 -2.05486 12.0981
O 7.45119 11.8055 -2.40477
H 7.56727 12.7623 -2.67123
H 7.8331 11.2132 -3.11426
O -11.824 -8.09264 -8.05179
H -10.8434 -8.26903 -7.96653
H -12.3093 -8.53685 -7.29866
O 11.062 -2.87523 -11.3377
H 11.5187 -3.62431 -11.8175
H 10.2205 -2.63381 -11.821
O -13.3161 0.161374 -5.65626
H -12.5333 -0.123617 -6.20949
H -13.0324 0.258003 -4.7022
O 8.36461 12.8903 6.95299
H 8.17768 13.7065 6.40633
H 8.80296 13.1571 7.81127
O -4.06345 -13.6878 -10.522
H -5.02627 -13.9344 -10.6324
H -3.89991 -12.7907 -10.9323
O -4.58041 9.38108 -8.43984
H -5.08339 10.2378 -8.55429
H -3.8044 9.52953 -7.82682
O 10.2356 -8.17951 11.1013
H 10.8241 -8.50532 11.8413
H 10.4331 -8.69444 10.2671
O -4.79972 0.588785 14.279
H -4.58139 0.388918 13.3239
H -5.78801 0.705228 14.3777
O -3.51088 5.86876 11.013
H -3.636 6.39824 10.1739
H -2.66134 6.14862 11.4602
O 8.10315 1.73321 -14.5204
H 8.74516 0.97564 -14.6384
H 8.51782 2.5775 -14.8598
O 9.08239 -6.92583 2.34967
H 8.99701 -6.58176 3.28474
H 9.85352 -7.56035 2.2971
O -3.72246 -13.5232 11.2312
H -3.35245 -13.0173 12.0104
H -2.97663 -13.7823 10.6175
O -1.45083 12.5463 4.66797
H -1.98371 11.7015 4.71804
H -1.81353 13.1264 3.93868
O -10.785 -10.3151 5.75402
H -10.756 -9.6005 6.45295
H -10.6204 -11.2048 6.17991
O 3.91048 1.52873 10.905
H 3.19573 1.22729 11.5361
H 3.91735 2.52778 10.8618
O -5.86869 -0.736816 -4.16748
H -5.53465 -1.46863 -3.57344
H -5.10367 -0.153246 -4.43987
O -10.1133 -9.2881 -3.05843
H -9.46485 -9.63257 -2.37958
H -9.63804 -9.13229 -3.92437
O -10.4646 7.64888 -6.53618
H -9.98074 6.91687 -6.05654
H -11.4254 7.65087 -6.25885
O 1.2461 -6.18856 -5.25291
H 1.73237 -6.94949 -4.82333
H 0.301512 -6.16915 -4.9252
O -11.4371 -0.417306 9.44258
H -11.8276 0.443575 9.11631
H -12.0888 -0.869121 10.0519
O -14.5653 -4.34174 -7.13691
H 14.8722 -3.4447 -7.14197
H 14.7877 -4.96943 -6.56343
O 1.10702 11.7913 -6.52951
H 0.330827 11.8024 -5.8991
H 1.33614 12.7285 -6.79256
O 14.0709 2.73283 3.84815
H 13.9656 3.72632 3.89172
H -14.837 2.50273 3.79263
O 4.16889 12.9658 -12.2262
H 3.44268 13.2949 -11.6226
H 4.96246 13.5699 -12.153
O 2.97169 6.79142 -9.21863
H 2.08381 6.9288 -8.77955
H 3.51582 7.62662 -9.13878
O 10.9122 -5.92532 -8.94782
H 10.2417 -5.8039 -9.67975
H 11.7579 -6.29872 -9.32908
O -6.57258 -10.5848 1.79828
H -6.85112 -9.78191 1.27114
H -5.73345 -10.9645 1.40883
O 12.0153 2.23703 0.441652
H 11.3682 1.49549 0.264697
H 12.9485 1.87848 0.415056
O -10.2142 9.31978 -8.65048
H -10.2156 8.79994 -7.79621
H -9.94709 8.72032 -9.40502
O -7.60332 0.860789 13.8948
H -7.97537 1.73122 13.5724
H -7.7945 0.146692 13.2213
O -10.7961 2.10089 -8.23199
H -10.4399 2.49386 -9.07977
H -10.1183 1.47664 -7.84344
O 3.59244 11.5989 6.35826
H 2.80163 11.7371 5.76197
H 3.39715 11.9761 7.2636
O 4.22541 -10.428 10.737
H 3.33217 -10.4196 11.1865
H 4.92889 -10.1429 11.3881
O -5.22593 -0.457892 4.83959
H -4.69812 0.222826 4.3316
H -4.71079 -0.744043 5.64753
O -2.14025 0.396084 13.898
H -1.67993 1.07974 13.3316
H -3.03487 0.743598 14.1789
O 11.3877 -9.04745 8.14975
H 12.0752 -9.63779 7.72684
H 11.227 -8.25168 7.56585
O -13.9372 -0.646135 14.0648
H -13.0459 -0.95339 14.3983
H -14.6541 -0.971753 14.6813
O -6.88777 1.17556 -6.97769
H -7.79405 0.917932 -6.64256
H -6.53162 0.45018 -7.56676
O -14.9269 -8.05724 11.1334
H -14.2079 -7.67432 11.7134
H 14.6974 -7.38943 10.4342
O -2.71648 11.2417 10.8429
H -3.17244 11.9301 10.2787
H -3.40355 10.688 11.3133
O -1.86458 -12.7204 -5.38337
H -1.88492 -13.5174 -4.77974
H -1.02659 -12.7367 -5.92882
O 4.71002 10.7281 0.930813
H 5.29272 9.91868 0.858431
H 4.81301 11.2876 0.108369
O -6.00193 12.3519 1.89514
H -6.9824 12.3508 2.09182
H -5.51132 11.9057 2.64365
O 13.3529 -14.0633 -2.82736
H 13.379 -14.8149 -3.48646
H 14.2097 -13.5497 -2.8735
O -2.35704 -9.74781 -10.174
H -1.754 -9.03557 -10.5332
H -2.75212 -10.2644 -10.9336
O -5.388 -6.71131 3.62982
H -6.26866 -6.806 3.16561
H -5.06624 -7.61219 3.92119
O 13.7268 -10.1504 0.911598
H 12.8721 -10.3775 0.444689
H 13.9789 -9.20519 0.704324
O 0.250955 -14.8061 -11.7145
H 0.824579 -14.4292 -12.4418
H -0.660245 14.8771 -12.0767
O -3.12448 -10.7706 2.86697
H -2.18613 -11.0393 2.64937
H -3.6872 -11.5892 2.98261
O -5.95894 -4.44605 -10.7431
H -5.13889 -4.2055 -10.2238
H -5.72893 -5.13761 -11.4278
O 0.810907 10.2456 -8.69143
H 0.967965 9.26706 -8.55828
H 0.887285 10.718 -7.81332
O 0.516519 -3.63541 -2.21318
H 0.373922 -2.78204 -2.71461
H -0.0473504 -4.35664 -2.61554
O -8.94653 11.2481 10.9401
H -9.52304 10.4932 11.2528
H -8.16523 10.8832 10.4337
O -5.50057 7.14716 5.31805
H -6.10355 7.62588 4.67988
H -5.83984 6.21782 5.46378
O 6.85247 9.52806 12.3276
H 6.70094 8.54757 12.2024
H 7.83488 9.71221 12.3588
O 7.18956 -6.79454 -1.14308
H 6.92614 -5.87496 -1.43463
H 7.95895 -7.1123 -1.69723
O 8.53385 11.3951 -10.9691
H 8.43963 12.3904 -10.993
H 7.79081 11.0029 -10.4268
O -9.33225 6.44763 -13.4055
H -10.2275 6.25241 -13.005
H -8.61891 6.01544 -12.8538
O 14.1761 2.37672 -2.84216
H 14.159 1.57023 -3.43317
H 13.9537 3.18941 -3.38075
O 3.55384 8.14096 -0.847817
H 2.81972 7.93727 -0.200068
H 4.01827 8.98235 -0.571445
O -5.8672 4.49257 -9.78889
H -5.22446 3.73759 -9.65886
H -5.44852 5.34461 -9.47463
O 8.90043 2.67741 2.85131
H 9.20157 1.75648 3.09871
H 9.6991 3.25933 2.69802
O 7.3338 3.71547 0.981936
H 8.01682 4.29213 0.533653
H 7.74984 3.25367 1.76531
O -7.25658 7.85784 -14.5041
H -6.38299 7.50317 -14.1709
H -7.97021 7.17143 -14.3642
O 14.1756 6.58248 1.96582
H -14.7451 6.55721 1.68281
H 13.7127 7.34146 1.50783
O 7.59009 6.59213 10.0802
H 7.27814 7.16922 9.32543
H 6.82514 6.4085 10.6976
O 3.67342 9.5429 -5.65312
H 3.50071 10.093 -6.47015
H 4.24372 8.75769 -5.89441
O 6.0388 -11.3666 -12.3264
H 5.10069 -11.0231 -12.3707
H 6.57446 -10.9702 -13.072
O -1.76858 3.50955 -5.74552
H -1.57846 4.47104 -5.94399
H -1.81907 3.37721 -4.7556
O -11.1208 14.7754 -1.7034
H -11.1803 -14.1078 -1.64075
H -10.5778 14.5236 -2.50449
O -8.44565 -14.2765 8.73611
H -8.81892 -13.4992 8.22968
H -7.51321 -14.4603 8.42497
O 4.97461 -12.4754 3.9557
H 4.32971 -13.2265 3.8143
H 5.53156 -12.3551 3.1339
O 2.70048 -1.65902 13.017
H 2.36632 -0.718013 13.0704
H 3.09206 -1.82271 12.1115
O -12.2494 -4.48042 12.7272
H -11.351 -4.04442 12.675
H -12.8043 -4.19504 11.9457
O -12.7016 -7.72527 1.95044
H -12.2993 -8.09906 1.11469
H -11.9776 -7.35321 2.53134
O -4.10663 2.60691 -9.30158
H -3.55092 1.85779 -8.941
H -3.51239 3.36923 -9.55803
O 4.56 8.16948 -13.9691
H 3.566 8.06165 -13.9501
H 4.91525 8.15067 -13.0345
O 8.34071 -10.5518 -6.84879
H 7.56352 -11.1579 -7.01802
H 9.16915 -10.9558 -7.23665
O -10.7215 10.2691 0.334235
H -10.9162 9.2883 0.320609
H -10.8729 10.6516 -0.57721
O 1.24768 -14.5353 -14.2044
H 1.03987 14.6096 -14.8503
H 2.18289 -14.2144 -14.3542
O 13.6686 -8.67061 -4.50832
H 14.008 -8.46095 -5.4253
H 13.896 -7.91925 -3.88884
O 5.28662 7.22288 -7.23667
H 6.16957 7.22571 -7.70614
H 5.03676 6.28339 -7.00226
O 1.27027 -4.72902 -11.9072
H 1.73302 -3.95757 -12.344
H 1.06889 -5.4285 -12.5929
O 8.97359 -9.44343 -10.1356
H 9.76275 -9.84654 -10.599
H 8.30998 -10.1605 -9.92262
O -14.4744 14.6068 -8.26529
H -14.9309 14.3458 -9.1159
H 14.7388 -14.8649 -7.64101
O 9.41735 -7.08757 -3.35296
H 10.1216 -6.41793 -3.58885
H 9.80464 -7.77699 -2.74081
O 3.5298 5.00262 3.69007
H 4.17658 4.67025 4.37653
H 3.89011 4.81807 2.77567
O 13.7248 9.48956 -10.9727
H 13.0943 10.2655 -10.9571
H 13.2653 8.67929 -10.609
O 14.6441 -7.74233 -6.94997
H -14.2882 -7.95101 -6.70644
H 14.6208 -7.29273 -7.84291
O 8.20926 12.2392 11.2518
H 8.67329 12.7899 10.5579
H 8.71937 12.2863 12.1106
O -4.46959 -11.7291 14.8681
H -3.81369 -11.9069 14.1345
H -5.39802 -11.7485 14.4971
O 14.1243 -13.5539 -14.2807
H 13.7896 -14.4943 -14.341
H 13.6516 -12.9879 14.9234
O -0.509325 10.29 12.0683
H -1.39771 10.6994 11.8606
H -0.420521 9.42124 11.581
O -10.8402 12.1855 2.66827
H -11.734 12.5308 2.95429
H -10.9645 11.3928 2.07152
O 1.16647 -13.2629 9.62479
H 1.01939 -12.282 9.49717
H 1.40022 -13.6818 8.74737
O -4.57418 9.70835 12.2675
H -5.48144 9.29754 12.3576
H -3.94742 9.27813 12.9172
O 8.09679 3.3913 -12.4075
H 8.1738 4.25266 -12.9096
H 8.29689 2.62819 -13.022
O -4.98135 -7.3893 -1.49674
H -4.29016 -7.43616 -0.77558
H -4.66175 -7.89496 -2.2981
O -6.01582 10.5626 9.9956
H -5.57487 10.5556 10.8931
H -5.61451 11.2851 9.43268
O 9.21288 10.2413 6.04656
H 8.35415 10.1043 5.55279
H 9.18582 11.1191 6.52499
O -3.51003 2.61203 5.11958
H -3.32831 3.5654 5.36056
H -3.04184 2.3893 4.26448
O -9.05351 4.90478 4.73545
H -8.9415 4.00136 4.32156
H -9.36715 5.55281 4.04141
O 4.20734 -2.31557 10.8605
H 4.4817 -2.4712 9.91158
H 4.11643 -3.19406 11.3296
O -1.80018 -3.13535 11.5777
H -1.8684 -2.70003 12.4754
H -2.42277 -3.91691 11.5381
O 8.07375 13.7152 2.04105
H 8.07345 12.7154 2.02292
H 7.63554 14.0335 2.88171
O 11.1282 0.239261 2.79842
H 10.8615 -0.709293 2.9692
H 11.7681 0.272553 2.03072
O 3.61183 -9.34087 4.88352
H 3.77346 -10.1051 5.5079
H 4.34633 -9.30294 4.20596
O 3.82697 -8.73966 14.8022
H 4.2735 -7.9624 14.3589
H 2.90666 -8.85328 14.4279
O 1.42726 1.6828 -4.52022
H 2.42662 1.65205 -4.53881
H 1.10863 2.47856 -5.03526
O 12.636 8.5357 0.525482
H 13.4545 9.03012 0.233026
H 11.8861 9.18327 0.661272
O -13.7251 4.82866 4.58945
H -13.3928 3.89236 4.47567
H -14.0011 4.97119 5.53998
O 6.12649 1.62728 -8.95041
H 5.68597 2.07196 -9.7303
H 5.50812 1.64317 -8.16468
O -2.17281 9.75402 3.09505
H -1.89496 10.3404 2.33415
H -3.17011 9.7536 3.16861
O 14.8432 -13.6047 5.92832
H -14.8231 -14.0942 6.77387
H 14.8469 -12.6201 6.10322
O 6.47962 -3.26559 12.867
H 6.49266 -4.26031 12.7651
H 6.77632 -2.83908 12.0126
O -12.8519 8.59902 -14.4571
H -12.1699 7.92916 -14.7506
H -13.5793 8.13466 -13.9519
O -6.00003 12.8055 -14.2742
H -5.72509 12.7234 14.6474
H -6.03553 11.8967 -13.8585
O 0.368394 -1.17612 9.71764
H -0.419655 -0.860062 10.2459
H 0.424688 -2.1733 9.76725
O 12.0242 -4.95008 9.05799
H 12.0013 -3.9845 9.31713
H 11.0894 -5.28917 8.95253
O 10.5532 -3.27256 -8.46418
H 10.7589 -4.25115 -8.45694
H 10.8893 -2.86755 -9.31446
O -6.45415 -12.7938 -2.72488
H -6.74097 -13.6779 -3.09394
H -5.56824 -12.5417 -3.11422
O 12.2634 6.17444 -6.73044
H 12.153 7.01314 -6.19713
H 11.6143 5.48591 -6.40694
O 5.59574 7.06877 -2.7581
H 5.81082 6.13645 -2.46736
H 5.00988 7.50426 -2.07463
O -9.90701 -9.29988 2.9292
H -10.1064 -9.76137 3.79365
H -10.0728 -9.92884 2.16962
O -13.0982 -6.94247 13.0476
H -12.5462 -7.27382 13.8128
H -12.8641 -5.98933 12.8559
O 5.16011 12.7868 4.35573
H 4.56464 12.39 5.05432
H 4.61133 13.0586 3.56518
O -9.65754 5.71092 -5.02002
H -10.0873 5.87377 -4.13186
H -10.1889 5.03307 -5.52812
O 8.36711 3.58583 -9.76894
H 8.27095 3.6434 -10.7626
H 7.47516 3.39691 -9.35815
O -13.4462 12.5056 3.26555
H -13.5728 11.7416 3.89816
H -14.0879 12.4174 2.50368
O 6.02982 -3.75034 -8.04336
H 6.64172 -3.83048 -7.25649
H 6.38525 -3.05953 -8.67301
O -4.11273 12.6223 -7.17882
H -3.93798 13.4329 -7.7377
H -3.7338 11.8161 -7.63327
O 7.12608 4.2514 -5.46028
H 7.74022 3.65854 -5.98122
H 7.57301 5.13036 -5.29386
O 6.89694 0.912056 0.250168
H 7.75125 0.948221 -0.268355
H 6.86874 1.67203 0.899524
O 7.57009 11.2992 -7.69549
H 7.9905 11.9926 -8.2807
H 7.49887 10.4376 -8.19801
O -6.99961 -10.0141 -3.21778
H -6.0973 -9.58643 -3.27178
H -6.89392 -11.0017 -3.10141
O -4.0196 9.22602 -11.1283
H -4.43568 9.08838 -10.2294
H -3.43393 10.0362 -11.1039
O -6.97414 2.04881 6.01903
H -7.40226 2.1006 5.11679
H -6.0125 1.79395 5.91753
O -2.60746 -13.9594 5.85411
H -3.07645 -13.7196 5.00408
H -2.62796 14.928 5.97766
O -7.34496 8.24855 9.08701
H -7.72771 8.26409 8.16328
H -6.77026 9.0555 9.2233
O 2.04458 -1.07944 7.54561
H 2.00573 -1.96938 7.09117
H 1.39945 -1.06686 8.30959
O 9.03661 -13.7619 11.1727
H 9.44571 -14.0163 12.0491
H 8.47566 -12.9427 11.292
O -10.763 -0.507072 13.0888
H -11.0278 0.349512 12.6459
H -10.7272 -0.3731 14.0792
O 1.10252 10.1475 14.2988
H 1.19001 11.0397 14.7418
H 0.490051 10.2245 13.5121
O -6.28021 -4.50642 7.41767
H -5.70756 -4.91498 8.12842
H -6.8275 -3.769 7.81353
O 12.0597 -6.08711 -2.23989
H 12.002 -7.07444 -2.09201
H 11.7277 -5.60836 -1.42714
O 0.618532 11.4449 -12.4779
H 1.25248 10.8792 -11.9506
H 1.11766 11.9146 -13.2061
O 5.64119 -14.8989 -4.81973
H 6.1189 14.1027 -4.78763
H 6.15763 -14.2192 -4.29887
O -3.20857 -9.68385 -7.45863
H -3.05314 -9.57479 -8.44044
H -4.09711 -10.1172 -7.30794
O -7.95935 -1.34519 5.75525
H -8.66497 -0.644208 5.85891
H -7.05978 -0.938878 5.91553
O -7.09369 0.637148 1.75182
H -6.63179 -0.243769 1.85501
H -7.25491 0.817329 0.781479
O -9.27408 3.3362 -11.3226
H -9.47811 3.35007 -12.3015
H -9.55767 4.20219 -10.9107
O -9.16401 11.9716 -8.20214
H -9.98884 12.5367 -8.18668
H -9.41296 11.024 -8.40236
O -13.7383 -0.229355 -12.6418
H -14.179 0.66032 -12.5223
H -14.4306 -0.950509 -12.6151
O 13.2047 -9.28995 -13.6895
H 13.5304 -8.42556 -13.3064
H 13.6427 -9.44838 -14.5744
O 1.49379 -13.0821 -4.93568
H 1.38381 -13.2398 -3.95432
H 0.920769 -12.3119 -5.21579
O -13.0838 1.33627 7.85304
H -13.58 0.489621 7.66089
H -13.5339 1.82406 8.601
O 2.21894 -8.73194 8.4763
H 1.81443 -8.24928 7.69949
H 3.20769 -8.80447 8.34545
O 0.895666 -5.98892 6.75789
H 1.76978 -6.34011 6.42232
H 0.195787 -6.10901 6.05379
O 10.9072 -11.4954 -7.76643
H 11.2759 -11.5112 -8.69587
H 11.3299 -10.7487 -7.25284
O 4.99771 10.2704 14.0111
H 5.83887 10.1462 13.4848
H 4.91568 9.53734 14.6863
O 0.0157668 9.96612 -2.17285
H 1.00398 9.93464 -2.32271
H -0.193033 9.62924 -1.25474
O -2.78848 -12.8824 -0.548631
H -2.32049 -13.6685 -0.144881
H -2.14707 -12.1198 -0.632875
O 9.28177 -13.6183 4.53324
H 10.2305 -13.9342 4.52137
H 8.71181 -14.2553 4.01427
O 12.5647 -10.8588 6.0183
H 12.2846 -11.8113 6.13714
H 13.5619 -10.7968 6.06096
O -5.02775 -14.6937 1.44311
H -5.30624 -14.114 0.677378
H -5.71563 14.4751 1.59049
O 0.508947 7.82279 -11.6435
H -0.13682 8.51167 -11.3142
H 1.06423 7.49423 -10.8795
O -12.9479 13.3315 13.8024
H -12.0755 12.9587 13.4862
H -12.8447 14.3084 13.9894
O 1.93329 11.3084 11.2305
H 1.23138 10.8088 11.7382
H 2.35845 11.9869 11.8296
O 5.88255 -13.4723 8.68768
H 6.87294 -13.5702 8.59
H 5.50824 -13.0372 7.86875
O -7.31239 8.53393 -7.21365
H -7.87261 9.32122 -7.47123
H -6.46011 8.54592 -7.73661
O 0.0109863 -3.99453 9.73492
H -0.445721 -4.223 8.87513
H -0.675023 -3.77588 10.4289
O -1.10631 -12.7797 -10.1647
H -0.670822 -13.4861 -10.7227
H -1.99524 -12.5451 -10.5581
O 2.14506 -10.9954 12.289
H 1.63759 -11.857 12.3024
H 1.75306 -10.3671 12.961
O 6.89062 -4.66659 7.27911
H 6.62007 -5.56627 7.62175
H 6.30999 -3.96449 7.69135
O 8.76498 -3.48739 -0.870926
H 9.64221 -3.92031 -0.663383
H 8.74958 -3.20908 -1.8313
O -2.62749 -5.15136 14.8666
H -2.39408 -4.35451 -14.4556
H -1.79704 -5.52211 14.4508
O -3.34282 -1.35563 -2.90929
H -2.83252 -1.96897 -3.51213
H -3.16443 -0.406975 -3.17054
O -14.0935 -10.6305 3.26146
H -14.7292 -10.2657 2.58108
H -13.9652 -11.61 3.1063
O -4.48669 -9.17703 -3.42204
H -4.13196 -8.57258 -4.13536
H -3.94089 -10.0144 -3.39295
O -14.6615 -12.486 0.536859
H 14.5171 -11.7763 0.464849
H -14.3167 -12.5199 1.47491
O -11.0243 -13.5098 6.76667
H -10.0521 -13.3406 6.60463
H -11.2669 -14.4164 6.42126
O -2.91161 -6.33928 -9.24317
H -3.7926 -6.71787 -8.95936
H -2.47947 -6.95699 -9.90021
O 11.2454 -2.47712 -2.29109
H 12.0515 -3.06888 -2.29012
H 10.563 -2.84455 -2.92297
O 2.0094 7.94998 12.9649
H 2.06787 8.69415 13.6303
H 1.41214 7.23105 13.3204
O 11.9037 10.5529 11.189
H 12.3999 11.1996 10.6097
H 10.9903 10.4003 10.8116
O -1.92052 1.07323 -7.86896
H -1.64897 1.81869 -7.26022
H -1.10368 0.62063 -8.22665
O -3.21706 11.8713 -10.5298
H -4.03324 12.4452 -10.5965
H -2.48332 12.2701 -11.0799
O 14.2849 8.68509 4.29035
H 14.9318 9.35507 3.92611
H 14.0845 8.00018 3.58979
O -10.3698 -1.77197 -10.5569
H -11.3305 -1.52154 -10.4374
H -9.82121 -0.94373 -10.6713
O -3.91305 -13.3237 8.14483
H -3.42707 -12.8381 8.87154
H -3.27316 -13.5528 7.41131
O 11.5278 -9.16478 -6.44244
H 12.2319 -9.0435 -5.74275
H 10.8075 -8.48344 -6.31211
O -7.99426 3.20183 -8.54611
H -7.65995 2.42244 -8.0162
H -7.22326 3.65819 -8.99032
O 13.7097 4.69654 -4.56974
H 14.3116 5.30024 -4.04697
H 13.8217 4.87868 -5.54662
O 5.38918 -6.2795 -8.72624
H 6.24631 -6.79319 -8.68808
H 5.57265 -5.31169 -8.55389
O -10.1973 10.8916 -14.283
H -10.2936 11.3749 14.7264
H -9.55242 11.3835 -13.698
O -9.0311 -9.84188 13.9951
H -9.97861 -9.97138 14.2874
H -8.82908 -8.86388 13.9429
O -14.779 -6.16543 -9.01146
H -14.7916 -5.32857 -8.46416
H -13.8528 -6.32702 -9.35215
O 14.5407 1.56034 0.0231311
H -14.8162 2.2451 0.531082
H 14.4699 1.83825 -0.934872
O 7.85114 -6.42963 -14.3438
H 8.05831 -5.45515 -14.4303
H 8.26859 -6.9279 14.7758
O -3.62442 7.94109 -2.48105
H -3.03065 8.18323 -3.24839
H -3.15567 7.28324 -1.89153
O -0.806813 -9.70124 -6.0662
H -1.71071 -9.92014 -6.43373
H -0.153382 -9.61417 -6.81817
O -1.47328 -7.31615 -11.7177
H -1.32112 -7.57822 -12.6707
H -0.792264 -6.63605 -11.4462
O 13.2728 -6.96293 -10.7271
H 13.2259 -7.96147 -10.7
H 13.8134 -6.63351 -9.95296
O 14.1352 12.0361 -12.6617
H 13.7852 11.1053 -12.5562