2593
Atoms. Timestep: 18495000
O 6.85335 -8.85987 3.32984
H 6.51013 -7.99209 2.97051
H 7.383 -9.32749 2.6222
O -13.1319 -12.8713 -8.84754
H -13.2235 -13.8636 -8.93064
H -12.8245 -12.6411 -7.92426
O -7.54018 11.1688 -11.6352
H -7.84176 11.8185 -12.3331
H -7.94007 11.4178 -10.7531
O 2.68457 -10.9909 13.3714
H 2.81306 -10.1256 12.8869
H 3.20828 -11.7098 12.9144
O -7.57224 -2.2038 -4.07639
H -6.82698 -1.91372 -4.67672
H -7.8495 -3.13445 -4.31508
O -12.6948 7.80408 8.70671
H -13.6325 7.54079 8.48021
H -12.4888 7.52867 9.64569
O -12.8052 4.6893 0.707435
H -13.0645 3.84305 1.17284
H -11.9109 4.9909 1.03791
O -3.91505 -3.83738 -10.8797
H -4.6143 -3.25526 -11.2946
H -3.54429 -4.45741 -11.5711
O -5.40283 0.609001 5.67693
H -5.32325 0.253855 6.60832
H -5.04171 1.5409 5.64356
O 2.18263 -11.1605 9.93976
H 1.34881 -11.3877 10.4428
H 2.21937 -10.1734 9.78397
O -14.303 5.32137 10.7268
H -14.4157 5.5622 9.76283
H -13.4191 5.65637 11.053
O -13.6511 -6.32912 -11.4444
H -12.9528 -6.24981 -10.733
H -14.4946 -6.68818 -11.045
O -14.2549 14.3562 -2.92617
H -14.9814 13.6714 -2.98237
H -13.6058 14.2157 -3.67374
O 7.31649 -1.80312 2.8876
H 7.41214 -1.47123 3.82603
H 6.3575 -1.74612 2.61002
O 7.33803 9.02353 -11.2593
H 7.1425 9.99517 -11.3921
H 6.51824 8.56181 -10.9206
O -10.5057 6.0107 1.73728
H -9.98043 6.28107 2.54411
H -9.87874 5.74114 1.00636
O 1.13668 -2.25638 9.07959
H 1.53319 -3.16347 8.93846
H 0.219532 -2.228 8.6821
O 0.441577 9.11194 1.04746
H -0.275906 9.62402 1.51963
H 0.648269 9.55499 0.175141
O -2.71449 -3.09578 -4.91214
H -1.86822 -3.28179 -4.41296
H -2.88048 -3.82892 -5.57162
O -4.72427 -11.1065 -11.3551
H -4.62628 -10.2478 -11.8579
H -4.10144 -11.7893 -11.737
O 11.4126 2.27927 -14.5989
H 10.5264 1.83675 -14.4613
H 11.6353 2.83553 -13.7983
O 9.02389 2.25071 3.90979
H 9.80943 2.21052 3.29232
H 8.82902 3.20422 4.13959
O 10.074 6.65258 9.05273
H 10.6796 6.0575 9.58097
H 9.57252 6.10658 8.38162
O -4.36836 -9.1767 -13.1604
H -4.77866 -8.2791 -12.9993
H -3.85347 -9.15891 -14.0174
O 11.1378 12.9546 -2.74738
H 10.5357 12.5533 -2.05722
H 10.6223 13.6106 -3.29865
O 14.7104 11.8249 2.95257
H 14.448 12.7616 2.72091
H -14.4328 11.5828 2.46338
O 4.22935 -5.39789 9.04861
H 4.40592 -6.30215 8.65991
H 3.29858 -5.11273 8.81989
O 11.3104 -1.06437 -13.9537
H 12.1627 -0.690415 -14.3193
H 10.9152 -1.7016 -14.6153
O 2.3201 14.2682 4.28537
H 3.10042 14.8749 4.13376
H 1.99807 14.3682 5.22677
O 6.59474 10.7185 5.27832
H 7.15183 10.2757 5.98086
H 5.67685 10.3217 5.2817
O -4.41341 -9.66892 -8.74776
H -4.85415 -10.1633 -9.49699
H -3.52621 -9.32302 -9.05303
O -11.2769 -7.99383 -9.07673
H -11.4626 -7.01231 -9.03113
H -11.35 -8.38977 -8.16139
O 8.60177 2.67707 -7.9732
H 9.09014 1.90173 -8.37357
H 7.88119 2.34015 -7.36722
O 13.3689 4.58231 -5.49369
H 13.2201 4.85101 -6.44533
H 14.0539 3.85482 -5.45597
O 12.5147 -11.8846 -14.3541
H 13.4247 -12.2972 -14.3119
H 12.5997 -10.9109 -14.5654
O -11.0067 13.3782 -13.0263
H -11.4339 13.3597 -13.9302
H -10.9877 12.4529 -12.6476
O -11.8189 -11.9499 -1.20733
H -12.4506 -11.18 -1.11756
H -11.6692 -12.1471 -2.17619
O 1.35485 13.1301 -4.86392
H 0.828889 13.9805 -4.85133
H 0.829189 12.4064 -4.41679
O 5.02341 -2.96172 -11.9961
H 5.19946 -3.92847 -12.1815
H 5.89277 -2.47506 -11.9104
O 7.63117 12.746 0.497161
H 8.25579 12.9869 1.23997
H 6.71175 12.6094 0.865894
O -13.791 5.69561 -6.16147
H -14.0755 6.39054 -6.82185
H -12.8678 5.38231 -6.38413
O 9.68478 -5.06884 1.29438
H 9.47589 -5.94807 0.866275
H 9.58559 -5.1491 2.28618
O -8.87964 -9.2806 -10.1229
H -8.32373 -8.44962 -10.143
H -9.82679 -9.04288 -9.90765
O -11.1383 -11.3516 4.10274
H -10.9888 -11.6295 5.05162
H -11.0873 -10.3552 4.03534
O 11.047 13.9655 6.56788
H 11.1411 12.9874 6.38273
H 11.6425 14.2192 7.33014
O -7.96296 -11.4126 7.19466
H -7.54232 -10.9674 6.40421
H -8.88675 -11.7121 6.95608
O 13.8048 6.807 -10.3166
H 13.1538 6.72823 -11.0716
H 14.7356 6.83616 -10.6809
O -1.87216 9.22332 -13.2891
H -2.48358 8.90676 -12.5639
H -1.33377 9.99768 -12.9568
O 8.26634 -13.4816 3.15001
H 8.83176 -12.9199 3.75397
H 7.53797 -12.9199 2.75766
O 12.024 -7.49439 -5.18609
H 11.1737 -7.77285 -4.73958
H 12.3252 -8.21626 -5.80908
O 0.507116 -8.14832 -9.01573
H 0.947518 -8.90328 -8.52988
H 1.1979 -7.47752 -9.28555
O 8.10786 -10.4233 5.43197
H 7.49317 -9.92963 4.81682
H 7.57478 -11.0386 6.0127
O 2.54488 8.47624 -3.15679
H 2.7511 9.43297 -2.95164
H 3.39075 7.94301 -3.14503
O 2.36262 -3.05294 -3.9053
H 1.95111 -2.92574 -4.80776
H 2.78653 -2.19722 -3.60866
O 10.65 -3.22843 8.11832
H 11.6201 -2.99682 8.19028
H 10.3559 -3.14005 7.16666
O 6.55023 -2.73244 8.27929
H 5.90631 -2.78799 7.51624
H 6.69484 -3.64552 8.66052
O 11.3438 -4.77333 -4.11811
H 11.1546 -5.14455 -3.20908
H 11.8634 -5.4422 -4.64974
O -5.58894 -5.24055 13.0083
H -5.83573 -6.00286 12.4101
H -4.61152 -5.04935 12.9186
O -12.5442 -7.41968 5.09327
H -12.7916 -7.94965 5.90439
H -13.0582 -6.56189 5.08612
O 12.3494 -9.22919 -12.7156
H 13.0066 -9.11266 -13.4602
H 11.4392 -9.39126 -13.0967
O -0.29066 -5.34302 13.6014
H 0.0802073 -5.99818 14.2595
H 0.159392 -4.45824 13.7221
O -1.32692 10.8576 2.32815
H -2.22354 10.7209 1.90704
H -1.43495 11.358 3.18716
O -8.00994 14.8275 -8.20081
H -8.25437 14.9328 -9.16473
H -7.9815 -14.2544 -7.76409
O -13.3332 -13.0312 6.32323
H -13.87 -13.1102 7.1632
H -13.3591 -13.8997 5.82823
O -7.83296 12.0858 -8.73011
H -8.09121 11.8879 -7.78452
H -8.08473 13.0272 -8.95439
O -14.9023 13.8792 13.8704
H 14.4624 14.6214 14.1334
H 14.6116 13.2688 13.2308
O -5.93456 1.89942 -5.19471
H -4.96701 1.65154 -5.1461
H -6.21623 2.31428 -4.32955
O -2.99278 -8.59484 14.0374
H -3.27668 -8.7325 13.0885
H -2.01155 -8.76884 14.1204
O 0.0173534 4.47845 -5.79898
H -0.752778 5.0324 -5.48276
H 0.0422281 4.482 -6.79864
O -4.0554 3.11935 9.08526
H -4.22255 4.09414 9.23298
H -3.08207 2.9708 8.91058
O -7.95616 -13.836 8.52984
H -7.96406 -12.8545 8.33844
H -8.26444 -13.9951 9.4677
O 12.166 9.55313 14.0559
H 11.9014 9.79658 13.1228
H 11.8918 10.2836 14.6814
O -9.42716 -5.22883 6.71305
H -8.57838 -4.74981 6.9368
H -10.2056 -4.62434 6.88221
O 13.5391 -13.1908 2.74503
H 13.6831 -14.1364 2.45328
H 13.5053 -13.1516 3.74366
O -8.24057 -3.33711 0.637307
H -8.75225 -2.75685 0.00370798
H -8.78725 -4.14216 0.867551
O -3.94175 3.44209 -13.8632
H -3.16998 2.80834 -13.8114
H -3.90121 4.08026 -13.0944
O 12.0812 9.00495 10.5726
H 11.3848 9.57396 10.1353
H 12.9766 9.43909 10.4738
O 4.53325 12.0878 13.6628
H 3.8018 12.2758 13.0073
H 5.2729 12.7486 13.5354
O 13.867 13.2047 -0.333156
H 13.0935 13.5251 -0.879931
H 14.1874 12.3275 -0.69082
O -3.20872 1.29126 -5.39169
H -2.71165 2.00037 -5.89172
H -2.55849 0.71225 -4.89985
O -12.9397 -1.92367 -0.498748
H -12.6221 -2.76399 -0.937988
H -13.3108 -2.1394 0.404426
O -13.6167 3.72692 -9.7952
H -12.7827 4.07264 -9.36522
H -14.2497 3.41103 -9.08849
O 5.40877 -13.5938 -6.04289
H 6.30628 -13.63 -6.48235
H 4.93995 -12.7523 -6.31112
O 7.30541 1.10639 -3.73987
H 6.4695 0.854914 -3.25203
H 7.70541 0.290879 -4.15808
O -0.827313 -2.5145 11.7705
H 0.000857689 -2.0687 11.4309
H -1.11343 -2.07998 12.6245
O 12.1727 -13.7777 -7.52925
H 11.7209 -14.6453 -7.32166
H 12.0827 -13.5802 -8.50539
O -11.2054 -3.02804 -3.25054
H -11.1902 -2.19971 -3.81054
H -10.6815 -3.74785 -3.70587
O 2.30158 6.72759 14.7133
H 3.1574 6.66168 -14.7547
H 1.71967 7.4292 -14.8566
O -2.8693 4.91267 -5.10719
H -2.84247 5.42918 -4.25135
H -3.76532 5.02546 -5.5366
O -5.54545 5.03542 -6.12924
H -5.37976 4.34594 -6.83431
H -6.44691 4.88659 -5.72282
O 3.06052 -5.62236 -5.00177
H 2.27197 -6.22548 -4.88174
H 2.90482 -4.76763 -4.50663
O -9.25291 -1.18781 7.99479
H -8.56986 -1.63913 7.42058
H -9.59961 -0.376096 7.52482
O 3.10208 -10.9904 1.64341
H 3.30131 -10.0763 1.99664
H 2.49496 -11.468 2.27837
O 4.45065 3.6462 4.09927
H 4.8761 4.47714 4.45773
H 5.00535 3.28427 3.35008
O -12.2797 12.6503 14.6103
H -12.489 13.5129 14.1498
H -12.6482 11.8894 14.0762
O -4.41614 -13.6136 -1.08418
H -3.45103 -13.6664 -0.827794
H -4.61016 -12.7108 -1.46792
O 1.62957 -7.30568 14.6132
H 2.45305 -6.74555 14.5233
H 1.48151 -7.5283 -14.4043
O 5.11215 14.5937 -12.7827
H 4.85695 14.7856 -13.7303
H 4.28882 14.4049 -12.2475
O 8.72912 -8.21224 -13.5304
H 7.76048 -8.1695 -13.7751
H 9.18126 -8.91416 -14.0807
O -5.08698 -11.1165 -2.11061
H -5.897 -10.7019 -1.69598
H -4.76436 -10.5396 -2.86102
O -11.1677 5.23385 -9.12295
H -11.4885 5.86126 -8.41345
H -10.7238 5.7544 -9.85232
O -6.21702 -10.1654 10.6959
H -5.72638 -9.31532 10.8875
H -5.97797 -10.4892 9.78052
O 14.5096 2.46133 -8.24272
H -14.9701 2.38728 -7.38069
H 14.3478 1.54697 -8.61384
O 8.33223 0.230059 -1.09561
H 7.95471 1.0092 -1.59598
H 9.14939 0.518642 -0.596677
O -8.48886 -14.7517 -10.7991
H -7.83738 14.8941 -11.4796
H -8.79502 -13.8346 -11.0543
O 12.1336 -12.4094 -11.4506
H 11.7584 -12.5361 -12.3688
H 12.8017 -13.1289 -11.2613
O 9.13886 13.8116 -13.6765
H 9.87985 14.4653 -13.8301
H 9.14142 13.1274 -14.4058
O 11.9195 13.8837 -14.9386
H 12.1295 12.9273 -14.7359
H 12.5197 14.4775 -14.4028
O 5.99095 -11.3142 7.22643
H 5.20607 -11.5075 6.63773
H 5.75443 -11.5209 8.17579
O 14.7609 3.50767 -11.9069
H -14.9027 2.79056 -12.5273
H -14.7125 3.45335 -11.047
O 10.5555 -5.07304 10.5573
H 10.7078 -4.57388 9.70433
H 10.9878 -4.58128 11.3131
O 11.7185 6.45902 3.74995
H 12.1122 6.6566 4.64771
H 12.2108 5.69623 3.33071
O -1.68764 -9.42921 -10.3477
H -1.01717 -8.94609 -9.78464
H -1.9364 -8.86031 -11.1316
O -13.2625 -2.46759 2.45958
H -13.7565 -1.60065 2.39308
H -12.6815 -2.4586 3.27342
O -10.4715 12.1626 9.69173
H -11.2558 11.7774 10.178
H -9.66917 12.1476 10.2884
O -2.60739 5.05684 14.1569
H -3.12362 4.76844 13.3504
H -3.06047 4.718 14.9814
O -5.6482 -1.91835 -11.6243
H -6.4378 -2.3975 -12.0076
H -5.4452 -1.11243 -12.1804
O 12.481 -9.90757 -9.82465
H 12.6834 -10.8853 -9.88068
H 12.3576 -9.5394 -10.7462
O 0.946113 0.259385 -9.56857
H 1.1094 -0.412935 -10.2906
H 0.492796 -0.184821 -8.79582
O 13.9827 -7.5505 11.5893
H 14.6018 -8.33081 11.5011
H 14.1629 -7.07793 12.452
O 4.11757 11.8053 -13.3832
H 4.3229 11.9202 -14.3551
H 3.57339 12.5809 -13.0634
O 14.5397 -4.46816 10.7395
H 13.905 -5.23719 10.8149
H 14.2854 -3.76026 11.3984
O -14.1373 2.34532 -5.75263
H -14.0827 3.16574 -5.18352
H -13.8404 1.55133 -5.22218
O 8.58043 -6.46048 -2.4487
H 9.02915 -5.81967 -1.82581
H 7.60187 -6.25818 -2.48695
O -7.61271 -13.5085 5.15223
H -8.02437 -13.6759 6.04804
H -6.81291 -12.9177 5.2581
O -0.00117365 10.6253 13.3094
H 0.0323312 11.472 13.8405
H -0.9446 10.2968 13.2651
O 2.68472 -6.01746 11.6513
H 2.68904 -5.23052 12.2683
H 3.13179 -5.76961 10.7919
O -9.25754 9.78901 6.54827
H -10.2071 9.71479 6.85274
H -9.01146 10.7539 6.45629
O 13.5651 14.8565 -12.6449
H 14.0254 -14.7954 -11.8205
H 14.0106 14.0201 -12.964
O -4.95439 12.8967 12.3667
H -4.23333 12.6671 11.713
H -5.58878 12.1278 12.4468
O 9.44137 11.4701 -1.09757
H 9.71494 10.7659 -0.442444
H 8.68695 12.0047 -0.716701
O 4.67854 -11.6805 -8.56466
H 5.13912 -11.1748 -7.83525
H 5.34553 -12.2441 -9.05202
O 13.9554 -10.3278 2.75034
H 14.6408 -10.3209 3.47846
H 13.7032 -11.2721 2.5389
O -4.74747 -13.0329 9.7492
H -4.14642 -13.8098 9.56194
H -4.9363 -12.5446 8.8972
O 6.35348 8.68922 -6.58514
H 6.34535 8.68307 -7.58507
H 5.93732 7.84667 -6.24325
O -14.4167 3.42836 5.86633
H -14.1053 4.34672 5.62226
H 14.5698 3.43032 5.97024
O -10.2088 13.9469 7.12064
H -10.0537 14.8909 7.41183
H -10.3287 13.3654 7.92524
O -0.125004 8.38676 14.8531
H -0.826446 8.52668 -14.4291
H 0.231342 9.27275 14.5565
O -11.9963 -9.82781 10.6486
H -12.5936 -10.5024 11.0823
H -11.0894 -9.86705 11.0681
O -11.4849 7.17088 -7.27623
H -11.826 8.09237 -7.46185
H -10.9741 7.17145 -6.41654
O -6.30084 -3.5689 -7.66639
H -7.29765 -3.63118 -7.61677
H -5.91813 -4.47717 -7.8353
O 1.07153 10.6143 -12.5407
H 0.545717 11.0254 -13.2853
H 1.88181 10.1629 -12.9144
O -14.0685 1.80027 11.7944
H -13.0743 1.89918 11.8358
H -14.4202 2.29689 11.0009
O 4.38441 -6.03535 0.256583
H 4.40209 -5.19647 -0.287417
H 4.2276 -6.81907 -0.344374
O -13.1743 13.5325 -5.45688
H -12.6422 13.6208 -6.29892
H -14.1483 13.4969 -5.68031
O 1.95072 -8.53039 8.74769
H 1.4125 -8.00837 9.40934
H 1.33807 -8.95864 8.08345
O 8.21901 -6.92558 9.4248
H 8.98741 -6.29989 9.55912
H 8.11409 -7.12007 8.44954
O 9.67856 -2.19127 1.21713
H 9.85758 -3.17463 1.18707
H 8.98372 -2.00001 1.91036
O 6.01478 -5.40038 -2.52748
H 6.34362 -4.99422 -1.67492
H 5.0359 -5.22143 -2.62611
O 1.55839 -7.33184 -1.5703
H 2.55462 -7.36052 -1.48865
H 1.14475 -7.64391 -0.715033
O -5.41229 -5.81238 -8.93683
H -6.17892 -6.2777 -9.37923
H -4.87793 -5.32197 -9.62524
O 10.447 7.01758 14.8188
H 10.8455 7.86361 14.4646
H 10.9328 6.2333 14.4329
O -11.2544 10.8758 -12.3044
H -11.8266 10.3362 -12.9218
H -10.73 10.2622 -11.7142
O 0.802025 -3.89769 -0.740514
H 0.352072 -3.21212 -0.168242
H 1.78552 -3.88916 -0.559868
O 13.3714 9.86179 -6.18606
H 13.1581 9.284 -6.97385
H 12.6211 9.81651 -5.5266
O -0.446267 10.4961 -6.43582
H -0.0226688 9.94272 -5.71865
H -1.11336 11.1184 -6.02638
O -3.88913 9.44755 10.8197
H -3.19602 9.16148 11.4813
H -4.75948 9.59236 11.2904
O 4.51904 -0.657363 2.85057
H 4.93792 -0.137786 3.59525
H 4.44442 -0.0767373 2.03985
O -6.37269 13.704 7.74067
H -6.81295 14.5152 8.12549
H -7.0639 13.1197 7.31552
O 11.2008 3.42857 10.6245
H 10.9004 3.07599 11.5107
H 12.0726 3.90605 10.7338
O -13.3928 14.4288 -9.30963
H -12.6358 14.1973 -9.92062
H -14.0468 13.6726 -9.28784
O 2.70276 9.6164 -9.21819
H 2.61266 10.2323 -8.43555
H 1.79952 9.4403 -9.60947
O -14.7436 -10.1261 8.76274
H -14.0511 -10.0977 9.4836
H 14.8256 -11.0368 8.73196
O 2.74044 13.8635 -11.7522
H 2.26755 14.5633 -12.2876
H 2.19929 13.6422 -10.941
O -6.97087 -7.12691 -13.0084
H -7.8172 -6.87248 -13.4763
H -6.18994 -6.92829 -13.6005
O 2.78667 -5.05112 2.63874
H 2.55613 -5.46071 1.7561
H 3.56696 -4.4358 2.52701
O 3.90847 -9.28082 -14.2671
H 3.51414 -10.1963 -14.3468
H 3.98922 -8.87238 14.8048
O -9.68569 2.29339 4.2154
H -10.1543 1.80538 3.47907
H -8.90959 1.74954 4.53456
O -11.0496 -9.73196 -7.03968
H -10.4774 -9.72511 -6.21966
H -11.1998 -10.6759 -7.33343
O -2.92983 -14.8753 14.9142
H -2.41708 -14.9225 -14.2097
H -3.69098 14.458 14.945
O 2.92991 -4.0473 13.3986
H 3.45627 -4.5734 14.0666
H 2.14124 -3.62984 13.85
O -0.944695 -4.39429 9.65363
H -1.59003 -5.14959 9.5395
H -1.13962 -3.91584 10.5098
O 13.6584 -0.0782049 -9.28398
H 13.0792 0.0485544 -10.0892
H 13.1079 -0.437659 -8.53057
O 8.51851 -7.67445 0.375977
H 8.46757 -7.72074 -0.621632
H 8.47711 -8.59886 0.755083
O 9.38701 11.2304 -12.4606
H 9.67909 12.0463 -12.9597
H 8.72544 10.7217 -13.0115
O 11.8879 11.3996 1.96166
H 12.7149 11.0123 2.36925
H 11.7885 12.3518 2.25054
O 4.54843 -14.8706 -2.32724
H 4.32569 14.8078 -3.25395
H 5.51588 14.9367 -2.14338
O -6.04895 10.2321 12.4656
H -6.173 10.334 13.4526
H -6.91787 9.97006 12.0457
O -13.0709 -14.3788 -0.774755
H -12.8997 -13.4565 -1.12118
H -13.3737 -14.9659 -1.52545
O -4.82719 9.32257 3.01964
H -4.92345 9.63959 2.07614
H -5.14279 8.3761 3.08709
O -3.49282 -9.68535 0.791537
H -3.68749 -8.80786 0.353272
H -4.26386 -9.9461 1.37245
O -8.2153 -7.1952 0.457864
H -7.26821 -7.23878 0.775796
H -8.74735 -6.61453 1.07406
O 7.83142 2.15321 -11.0413
H 7.04072 2.2936 -10.4455
H 8.4036 2.97328 -11.0347
O 5.7435 -11.9127 3.49319
H 6.1778 -11.0143 3.55727
H 4.90932 -11.9198 4.0446
O -1.4239 4.57673 -11.435
H -2.19973 5.12542 -11.1235
H -1.19655 4.8252 -12.3765
O 7.42763 -6.32947 -10.2463
H 7.35239 -7.32637 -10.2682
H 8.36699 -6.07097 -10.021
O -6.08464 -7.82573 6.29951
H -5.18781 -8.21732 6.50519
H -6.51662 -8.34953 5.56535
O -3.81602 -8.94167 7.05396
H -3.2799 -8.58418 7.81864
H -3.30595 -8.81818 6.20276
O 13.6942 4.35267 12.3334
H 13.9746 3.40336 12.4755
H 14.4372 4.85736 11.8938
O 6.35998 13.1291 3.78126
H 7.30452 13.1211 3.45304
H 6.19669 12.3207 4.34674
O 6.1279 -5.53606 -7.78601
H 6.69784 -5.80797 -8.56137
H 6.42549 -4.64214 -7.45088
O -13.7022 -11.8827 11.7459
H -13.1747 -11.9203 12.5946
H -14.0654 -12.7911 11.5387
O -12.4042 -2.3841 -11.833
H -12.2511 -2.2488 -12.8119
H -13.2177 -1.87627 -11.5496
O -2.58164 -2.42966 -8.93387
H -3.09586 -1.6181 -8.65655
H -3.16216 -3.01465 -9.50021
O -6.84363 -11.1935 2.16916
H -7.77244 -11.5619 2.20913
H -6.19747 -11.9368 1.99601
O 9.27596 -1.01199 -4.84049
H 10.0485 -0.690095 -4.29324
H 9.19805 -2.00528 -4.7553
O 14.9384 -9.21255 -8.04157
H -14.3072 -8.96271 -7.41186
H 14.1581 -8.60313 -7.90123
O -9.40062 -2.97107 12.4125
H -9.85612 -3.79605 12.7469
H -9.65066 -2.81654 11.4567
O -13.467 14.1631 8.88771
H -13.1458 13.4316 9.48919
H -12.6813 14.6329 8.48529
O 14.6421 -3.05458 -9.42912
H 14.084 -2.28981 -9.10712
H -14.4091 -2.96167 -9.07334
O -13.1842 3.82549 -2.78736
H -12.7978 2.90549 -2.72204
H -14.0875 3.83884 -2.35866
O -8.99963 -11.3112 12.1503
H -8.17994 -11.2262 11.5839
H -9.01291 -10.5774 12.8295
O -7.02595 -9.9499 -5.59912
H -7.8924 -9.68854 -5.17377
H -6.60162 -9.14462 -6.01315
O 1.67415 -14.0654 -13.2772
H 1.61192 -13.7614 -14.2279
H 1.20357 -13.4101 -12.6863
O -8.72568 -13.087 -1.65316
H -8.91992 -12.1088 -1.72612
H -8.9522 -13.404 -0.732205
O -13.9095 -10.2605 14.1891
H -13.3867 -10.3588 -14.9452
H -13.6575 -9.40371 13.7394
O -10.727 -2.10452 10.0516
H -11.7173 -2.21566 9.96852
H -10.3424 -1.86616 9.15991
O 12.5571 6.28735 10.1748
H 13.2899 6.08948 10.8258
H 12.189 7.1996 10.3544
O -4.14346 12.337 14.8274
H -4.54689 12.6697 13.9751
H -3.60451 11.5152 14.6426
O 4.80881 -1.00358 9.81474
H 4.65707 -1.63238 10.5773
H 5.50833 -1.37941 9.20697
O 5.20858 7.80924 -2.89347
H 5.84839 7.47469 -2.2016
H 5.5562 8.66135 -3.28464
O -11.7795 5.11235 8.28022
H -12.2681 5.48729 7.49238
H -10.7957 5.23871 8.1533
O 11.9764 2.08903 -5.69751
H 11.4354 1.4926 -6.29042
H 12.1138 2.97115 -6.14803
O -8.19082 10.056 1.27752
H -7.98286 9.07946 1.22256
H -8.53947 10.2718 2.18959
O -0.755278 5.48563 6.12972
H 0.000233653 4.89421 6.41147
H -0.394664 6.37295 5.84233
O -4.54834 -0.534992 -9.48167
H -4.84937 -0.999325 -10.3146
H -5.25 -0.629124 -8.77543
O -13.8926 -7.85888 7.66174
H -14.7128 -7.28762 7.69211
H -14.1027 -8.76364 8.03218
O 12.2876 1.78749 -2.90247
H 12.4952 0.810506 -2.85393
H 12.0682 2.03513 -3.84612
O -13.4482 -0.0958618 -4.25556
H -14.415 -0.0683438 -4.50947
H -13.1195 -1.03938 -4.29673
O -2.28998 12.0149 -5.20699
H -2.76705 11.8217 -4.34966
H -2.07941 12.9911 -5.25852
O 2.7828 -13.1249 7.80807
H 3.12531 -12.5519 7.06348
H 2.57505 -12.552 8.60093
O -13.382 10.6338 1.43866
H -14.105 10.6094 0.748295
H -12.6073 11.1622 1.09147
O 5.59381 -12.0518 -2.861
H 4.73047 -11.8234 -3.31097
H 5.53305 -12.9699 -2.46959
O -4.57343 3.47882 -2.78624
H -4.51303 2.58086 -2.35037
H -3.74745 3.64396 -3.32517
O 10.2099 -12.6711 9.2519
H 9.69582 -13.2497 8.61872
H 9.74954 -11.7883 9.34534
O 0.816303 -14.9108 12.3685
H -0.0761375 14.6193 12.3812
H 1.22705 14.9709 11.4622
O -11.114 -13.6525 8.9901
H -10.8842 -12.8871 8.38904
H -10.4131 -13.7429 9.69756
O -10.8657 14.0108 -10.3965
H -11.1746 13.7446 -11.3095
H -9.94686 14.401 -10.4561
O -6.69628 -14.9142 12.0353
H -6.66265 -14.2355 12.7689
H -5.79898 14.6363 11.9381
O -14.2492 -3.39372 -14.8418
H -14.8447 -3.37421 -14.0387
H -13.4556 -2.80657 -14.6826
O -2.53637 -14.9269 9.29432
H -2.98077 14.3677 8.71874
H -2.08481 14.6022 10.0636
O 12.6309 14.5904 8.49403
H 12.6007 -14.7225 9.23745
H 13.5613 14.537 8.13151
O 4.98441 -14.5706 3.35504
H 5.5437 -13.7726 3.57964
H 5.54352 14.5837 3.4162
O -1.71892 -8.8874 8.85568
H -1.3754 -8.12047 9.39769
H -1.50027 -9.74668 9.31805
O -1.58355 9.36189 4.79896
H -1.64581 8.83591 3.95077
H -0.622562 9.47458 5.05149
O 8.95049 -3.57836 -9.21146
H 8.34049 -3.22732 -8.50108
H 8.49808 -3.51401 -10.1009
O 0.131409 -9.65491 7.14547
H -0.0629543 -10.6005 6.8847
H -0.611319 -9.30764 7.71794
O -1.39467 2.1102 13.1778
H -2.32924 2.44719 13.0639
H -1.00204 2.4927 14.0142
O 14.499 9.96771 11.1639
H 14.5045 9.25449 11.8648
H -14.5435 10.1622 10.879
O -7.0243 -7.47995 11.7542
H -7.07582 -8.45581 11.5421
H -7.82175 -7.0132 11.3719
O 4.59016 12.8068 1.57679
H 3.63135 13.066 1.46076
H 4.90046 13.0768 2.48826
O -10.9209 -7.32265 -4.50373
H -11.6242 -7.42857 -3.80079
H -10.5365 -6.4008 -4.45441
O -10.8547 11.0205 -8.78753
H -11.1529 10.9132 -7.83911
H -11.1263 11.9227 -9.12235
O 0.892079 -14.7045 6.45268
H 0.962233 14.481 7.05442
H 1.60067 -14.0411 6.69319
O 1.24537 4.90794 -3.24529
H 2.22474 4.98642 -3.43143
H 0.818376 4.33346 -3.94358
O -12.6268 2.23919 1.82716
H -12.5831 1.56278 1.09196
H -12.4138 1.79815 2.69896
O 2.3487 4.71614 -11.5766
H 1.91142 3.85748 -11.3093
H 1.64663 5.39296 -11.7979
O 11.3361 -11.2358 -3.1657
H 11.0502 -10.2847 -3.28226
H 12.0907 -11.436 -3.79057
O 13.8314 13.4195 -8.65663
H 13.9061 13.286 -7.66843
H 12.9909 12.991 -8.98822
O 14.7536 5.90568 -13.3374
H 14.5623 4.98319 -13.0021
H -14.2622 5.97535 -13.5891
O 8.98935 12.6013 -10.3534
H 9.45283 13.483 -10.4417
H 9.24078 12.014 -11.1227
O 5.5111 -5.86321 -12.5787
H 4.92576 -6.53613 -12.1265
H 6.30514 -5.67106 -12.0021
O 13.01 -13.7882 5.31986
H 13.7135 -14.3902 5.69766
H 12.5013 -13.3602 6.06683
O 12.8526 -5.26514 1.66226
H 12.4789 -4.77485 2.44959
H 12.2312 -6.00507 1.40473
O -6.54462 -0.542516 1.44704
H -5.87795 0.197749 1.53377
H -6.64493 -0.789502 0.483247
O 5.41535 7.42433 -13.6475
H 5.75299 6.91105 -12.8585
H 5.74643 6.99773 -14.4892
O 4.23361 14.6372 8.30201
H 3.75663 -14.5077 8.03142
H 5.09257 14.5646 7.79518
O -4.08233 9.37124 -8.50685
H -4.92238 9.83439 -8.78929
H -4.31373 8.54886 -7.98712
O -0.396409 -1.06276 -7.54084
H -0.746047 -0.673555 -6.68865
H -1.06904 -1.70005 -7.91686
O -10.1365 -5.91269 -13.3296
H -11.126 -5.88172 -13.4712
H -9.91898 -5.56067 -12.4193
O -5.25385 12.0161 -9.69231
H -6.13282 11.8945 -9.23124
H -4.75512 12.7704 -9.26547
O 8.74166 -3.73511 -4.37873
H 8.63295 -3.46301 -3.42264
H 9.58989 -4.25431 -4.48312
O -7.28191 8.85974 4.95025
H -7.88977 9.34312 5.58017
H -6.33216 9.09372 5.15807
O 2.6873 -2.3941 5.015
H 2.30512 -3.28091 5.27473
H 2.26824 -1.67523 5.5696
O 11.7518 11.4999 -9.39991
H 10.9808 11.3961 -8.77154
H 12.2136 10.6197 -9.50904
O -0.444455 -11.5807 11.1535
H -1.44163 -11.6301 11.2097
H -0.0415272 -12.1996 11.8277
O 1.42717 -8.66359 -4.20332
H 1.74032 -8.34873 -3.30735
H 0.803925 -7.98691 -4.59529
O -7.48555 -6.70676 -10.3856
H -8.31796 -6.21237 -10.1354
H -7.47334 -6.86023 -11.3737
O -9.4803 -1.67494 -1.22323
H -9.96283 -2.21253 -1.91469
H -10.0306 -0.8769 -0.977665
O 9.15412 12.587 9.71738
H 8.39804 12.2967 9.1308
H 10.0107 12.2052 9.37029
O -10.6197 7.16427 -4.77907
H -10.0483 7.96215 -4.58711
H -10.8262 6.68869 -3.924
O -2.63546 9.75142 13.7747
H -2.44844 8.89703 13.2899
H -2.70852 9.56919 14.7552
O 9.60101 -10.7027 -10.5979
H 10.4584 -10.7745 -11.1075
H 9.59417 -9.84998 -10.0756
O -9.93019 2.4657 -8.49422
H -9.15064 2.54763 -7.87329
H -10.2841 3.37646 -8.70679
O 14.7358 2.42364 9.51938
H 13.9526 2.60866 8.92576
H -14.4185 2.33807 8.96343
O 7.59135 -11.9311 -0.556986
H 6.70658 -12.2383 -0.206635
H 8.05772 -12.696 -1.0013
O -2.77013 12.0516 10.5844
H -3.38882 11.2698 10.507
H -2.23897 12.141 9.74193
O -9.0416 -12.6442 2.96304
H -9.87021 -12.1959 3.29828
H -8.63596 -13.1875 3.69803
O -10.7707 -9.37004 7.63096
H -11.5559 -9.41422 8.2486
H -10.1387 -8.66182 7.94548
O -4.33659 2.92175 -8.32029
H -3.46388 2.46767 -8.49959
H -5.04175 2.23339 -8.15035
O -11.1779 -12.8305 -6.67575
H -10.4906 -12.5405 -7.34175
H -11.0119 -13.7825 -6.41853
O 11.805 3.12683 -11.9783
H 12.7943 3.26131 -12.0352
H 11.6113 2.1766 -11.7343
O -14.3559 1.19667 -13.5147
H 14.8151 0.900512 -14.0207
H -14.0979 0.490236 -12.8556
O -10.9939 8.68832 13.3849
H -10.4439 9.1682 12.7014
H -10.4331 7.99472 13.8369
O 3.95227 14.181 -4.75633
H 2.99542 14.0483 -5.01475
H 4.32282 14.9712 -5.24437
O -9.54554 2.97655 -2.06145
H -8.98726 2.26203 -1.63986
H -10.1859 2.56141 -2.70765
O 9.90298 -11.9498 4.5383
H 10.7342 -11.6063 4.97522
H 9.18464 -11.2567 4.59704
O -5.16649 12.2613 3.85195
H -6.00536 12.8001 3.92861
H -5.37654 11.3742 3.44087
O -10.0671 -7.49227 12.4893
H -10.0622 -6.54627 12.8133
H -9.43006 -8.03528 13.0363
O 14.9374 13.9631 6.51662
H -14.4523 13.7236 7.28662
H 14.9494 13.2229 5.84438
O -3.12763 -11.6478 11.45
H -3.63186 -10.8396 11.1457
H -3.58301 -12.4715 11.1123
O 6.20939 -6.34647 6.09489
H 5.2336 -6.39543 6.30797
H 6.37346 -5.59623 5.45444
O 2.56634 5.70733 -6.59528
H 2.02584 6.50776 -6.8544
H 1.95361 4.96418 -6.32648
O 10.9116 13.9273 -6.75762
H 10.5424 13.0538 -7.07502
H 10.5177 14.1514 -5.86622
O 12.1217 6.795 -13.0281
H 11.3897 6.83292 -13.7083
H 12.9258 6.3552 -13.428
O -0.367435 -12.3369 6.39411
H -1.32615 -12.5766 6.24133
H 0.147055 -13.1591 6.63747
O 11.2794 -1.18636 -2.67132
H 12.0182 -1.77631 -2.34559
H 10.4038 -1.53119 -2.33314
O -7.42225 14.0182 4.01281
H -7.60295 14.1147 3.03403
H -7.51511 14.9087 4.45824
O 7.21845 -12.5074 -9.59425
H 7.43555 -13.0332 -8.77181
H 7.11272 -13.13 -10.3696
O 13.4207 8.96536 2.96749
H 13.2814 8.81863 1.9882
H 14.3559 8.71028 3.213
O -2.33772 7.26913 12.5433
H -2.22249 6.83911 11.6479
H -2.34926 6.56429 13.2526
O 8.22983 -10.3324 1.4408
H 9.22416 -10.3354 1.54697
H 7.97249 -10.9463 0.694498
O 10.9642 14.8993 12.6525
H 11.2128 14.5104 13.5396
H 10.0076 -14.7912 12.6722
O 1.0731 -4.20782 -8.99739
H 1.64564 -5.02312 -8.91112
H 1.2339 -3.78021 -9.88692
O 13.7814 -12.0888 -0.835859
H 12.934 -12.6183 -0.796667
H 14.3663 -12.3383 -0.0641541
O -2.20523 14.7685 -5.24732
H -1.87352 -14.5646 -5.93293
H -3.19692 14.672 -5.3322
O -6.78319 -9.51708 -0.379678
H -6.31124 -9.67923 0.486882
H -7.21003 -8.61293 -0.362645
O 3.05817 14.7068 10.6085
H 3.60814 14.7329 9.77369
H 3.05398 13.7768 10.9759
O 2.17228 -0.533567 11.7095
H 2.85136 -1.18813 12.0417
H 1.7934 -0.857401 10.8426
O 13.9833 -7.00798 -3.44228
H 13.3637 -7.20011 -4.20329
H 13.7019 -6.16241 -2.98866
O -13.0583 -14.7867 1.83578
H -12.9407 -14.7365 0.844004
H -13.0329 -13.8644 2.22154
O -6.38724 2.36939 -10.9004
H -7.16722 1.744 -10.922
H -6.51605 3.08665 -11.5851
O 6.69741 6.86081 -0.831109
H 7.11846 6.04911 -1.23586
H 7.2792 7.6567 -0.998514
O 2.69433 -6.49964 -9.70577
H 3.27667 -7.12322 -10.2273
H 2.92291 -6.56405 -8.7344
O -3.24145 -5.28082 -6.82313
H -3.90466 -5.50394 -7.53751
H -2.3454 -5.64697 -7.07409
O -12.9293 -5.33634 11.4717
H -12.4479 -6.01588 10.9182
H -13.815 -5.13324 11.0543
O 0.0963443 3.05296 -14.3037
H -0.0371144 4.03013 -14.1385
H 0.990446 2.90545 -14.7265
O 9.14082 12.0881 14.3449
H 8.546 11.2936 14.4675
H 9.63825 12.0019 13.4817
O 1.94469 -14.2629 -1.38491
H 2.83318 -14.482 -1.78804
H 2.06703 -14.0128 -0.424459
O -1.86955 -2.55477 7.95768
H -2.86496 -2.62403 7.89194
H -1.52097 -3.29637 8.53082
O -10.9398 14.1137 11.837
H -10.4794 14.8854 11.3982
H -11.44 14.437 12.6403
O -4.64822 -3.13876 7.93737
H -5.28903 -2.51038 7.49638
H -5.02533 -3.43884 8.81356
O -9.74026 -5.44642 1.84587
H -10.5992 -5.95831 1.85482
H -9.30374 -5.51213 2.74314
O 0.933541 -5.95547 -12.2109
H 1.49922 -6.24026 -11.437
H 0.820014 -4.96212 -12.193
O -0.344973 1.46427 -6.09566
H -0.798688 2.35475 -6.1295
H 0.645645 1.59299 -6.14115
O 3.58509 -3.99198 -1.66931
H 3.96825 -3.08081 -1.51791
H 2.88492 -3.94497 -2.38171
O -12.166 -4.65461 -0.48037
H -11.8515 -4.07909 0.274477
H -12.6232 -5.46487 -0.113659
O -12.0411 -7.17019 9.73337
H -12.3825 -7.24129 8.79615
H -11.8751 -8.08638 10.098
O 2.20652 5.89665 7.36229
H 3.02563 5.5935 7.84925
H 1.76202 6.62735 7.88043
O 14.3043 2.80449 -1.64301
H 13.9299 3.54147 -1.08034
H 13.5795 2.42081 -2.21521
O -9.42804 -11.9544 -8.54209
H -9.23627 -11.2761 -9.25137
H -8.58333 -12.1745 -8.05425
O 1.43683 3.28933 8.844
H 1.31836 2.48601 8.26039
H 2.10857 3.90472 8.43168
O -12.9141 -5.78204 -13.9575
H -13.6431 -5.2925 -14.4359
H -13.0167 -5.65217 -12.9714
O -6.93615 7.53533 0.602474
H -6.43512 6.99866 -0.0764328
H -6.53455 7.3879 1.50633
O -7.88697 1.60363 6.55645
H -7.74943 1.87638 7.50864
H -7.03446 1.23089 6.19004
O 9.23227 -10.4773 -7.29062
H 9.73433 -11.0502 -7.93848
H 9.84823 -9.78908 -6.9074
O -1.77414 -14.1474 -0.322985
H -1.02075 -14.131 0.334359
H -1.40895 -14.2728 -1.24542
O -1.88662 6.47905 -9.08648
H -2.77234 6.5556 -8.62865
H -1.89851 7.01937 -9.92783
O -13.058 9.68971 -13.74
H -13.0049 8.87331 -14.315
H -13.9834 10.0666 -13.781
O -6.24711 -0.276461 -7.241
H -5.64919 -0.909947 -6.74993
H -6.05927 0.658998 -6.94167
O -9.5926 6.93923 -14.7373
H -9.14896 7.59406 -14.1255
H -8.90502 6.32265 14.8604
O 0.862791 7.41234 5.06556
H 0.50694 6.85256 4.31724
H 1.84021 7.57172 4.92693
O 9.59078 4.34313 -11.179
H 9.69195 5.33767 -11.154
H 10.3894 3.93792 -11.6239
O 7.22839 9.99606 14.1637
H 7.66078 9.41007 14.849
H 6.26404 10.124 14.3953
O -9.25419 -0.308333 -14.237
H -8.8111 0.358663 -14.836
H -9.86257 0.166888 -13.6014
O -1.94885 9.69758 -2.65078
H -1.26055 9.6123 -1.93042
H -1.53436 9.48236 -3.53499
O -12.0999 -11.7883 -3.90543
H -12.749 -11.0319 -3.98536
H -11.6853 -11.9675 -4.79761
O 8.40374 -7.60654 6.74256
H 7.73227 -6.96813 6.36636
H 8.34316 -8.47854 6.25685
O 9.38856 5.44061 -4.56622
H 9.90266 5.32185 -5.41567
H 10.0137 5.38489 -3.78772
O 7.98285 -10.9972 -4.02802
H 8.41296 -11.7933 -4.45385
H 7.00109 -11.1608 -3.93121
O 10.6601 -8.39603 3.16065
H 11.0554 -8.88661 3.9372
H 10.881 -8.87945 2.31361
O -2.12289 -9.71954 3.88899
H -1.80001 -10.6657 3.86753
H -2.97106 -9.64483 3.3646
O 9.97837 2.73549 12.819
H 10.3021 2.11685 13.5349
H 8.9802 2.78731 12.8496
O -1.86715 10.8732 -8.90431
H -1.29862 10.4946 -8.17397
H -2.81002 10.5609 -8.78863
O 11.0715 9.59821 -4.80961
H 10.6097 10.1827 -4.14254
H 10.4397 8.89127 -5.1273
O 4.59924 -1.79166 -6.38817
H 4.14531 -1.45559 -7.21337
H 3.91827 -2.18218 -5.76872
O -2.37023 3.66527 3.9891
H -2.83447 3.49545 4.85835
H -1.56739 4.24021 4.14676
O 11.8787 7.94527 -1.74863
H 12.3267 7.67841 -2.60187
H 11.6861 7.12912 -1.20386
O 4.25552 -6.03591 14.9568
H 4.90631 -6.5289 14.3794
H 4.67507 -5.84547 -14.1367
O -1.92106 -0.87763 14.5276
H -2.12462 -0.0794344 -14.8866
H -1.72211 -1.66186 -14.8658
O -4.617 9.24247 6.03603
H -4.25782 8.82146 6.86891
H -3.88483 9.3202 5.35939
O 0.882207 -3.27882 -11.6064
H -0.0106501 -2.84936 -11.7418
H 1.5961 -2.69037 -11.9859
O 5.13702 2.15779 -9.47978
H 5.26085 2.82988 -8.74976
H 4.83291 2.62167 -10.3118
O 13.1883 -2.4518 8.02251
H 12.9243 -1.69874 8.62515
H 14.0101 -2.19807 7.51234
O 5.04562 1.79045 10.9198