LAMMPS data file via write_data, version 15 May 2015, timestep = 4999000

2611 atoms
6 atom types
1749 bonds
4 bond types
894 angles
3 angle types
44 dihedrals
3 dihedral types
10 impropers
1 improper types

-1.5048043696927760e+01 1.5048043696927760e+01 xlo xhi
-1.5048043696927760e+01 1.5048043696927760e+01 ylo yhi
-1.5048043696927760e+01 1.5048043696927760e+01 zlo zhi

Masses

1 15.9994
2 1.00794
3 12.0107
4 1.00794
5 12.0107
6 12.0107

Bond Coeffs # harmonic

1 1000 1
2 469 1.4
3 367 1.08
4 469 0.7

Angle Coeffs # harmonic

1 100 109.47
2 35 120
3 63 120

Dihedral Coeffs # opls

1 0 7.25 0 0
2 0 7.25 0 0
3 0 7.25 0 0

Improper Coeffs # cvff

1 2.5 -1 2

Atoms # full

1408 470 1 -8.1999999999999995e-01 -9.8165432025933725e+00 -1.0947433194475611e+01 -1.0938038845944451e+01 1 -1 -1
1409 470 2 4.0999999999999998e-01 -1.0564587337659640e+01 -1.0586847254087019e+01 -1.1495160406746418e+01 1 -1 -1
1410 470 2 4.0999999999999998e-01 -9.5019494201323411e+00 -1.0240479220722346e+01 -1.0304616778255426e+01 1 -1 -1
1838 613 2 4.0999999999999998e-01 -1.1394403434998360e+01 -1.1860331108157862e+01 -9.5400212604481140e+00 2 -1 -1
1144 382 1 -8.1999999999999995e-01 -1.3581188504212692e+01 -8.6233921112907197e+00 -1.2462238677520325e+01 0 1 -2
1146 382 2 4.0999999999999998e-01 -1.4035454652240617e+01 -7.8185396769916977e+00 -1.2080359758874565e+01 0 1 -2
1837 613 1 -8.1999999999999995e-01 -1.2338063672404310e+01 -1.1847236611686963e+01 -9.2093997742221454e+00 2 -1 -1
1839 613 2 4.0999999999999998e-01 -1.2916588992381756e+01 -1.2374611455406480e+01 -9.8316222794108121e+00 2 -1 -1
1609 537 1 -8.1999999999999995e-01 -1.3483543078737210e+01 -9.4039467194314295e+00 -8.1833849420094005e+00 1 -1 -2
1610 537 2 4.0999999999999998e-01 -1.3084271831021006e+01 -1.0118803829638633e+01 -8.7574393118412939e+00 1 -1 -2
1345 449 1 -8.1999999999999995e-01 -9.7966239314658896e+00 -7.1401159863149868e+00 -1.2034996689665304e+01 2 0 2
1346 449 2 4.0999999999999998e-01 -1.0345463099174339e+01 -7.9232462001157842e+00 -1.2327330975828266e+01 2 0 2
742 248 1 -8.1999999999999995e-01 -1.3362935733022081e+01 -1.3685601980154175e+01 -1.1240458804591370e+01 -2 5 -3
744 248 2 4.0999999999999998e-01 -1.3651127242030491e+01 -1.3158861720217873e+01 -1.2040125622896326e+01 -2 5 -3
790 264 1 -8.1999999999999995e-01 -1.0877566574603470e+01 -9.5140396754928709e+00 -1.2975980577539980e+01 4 1 -1
791 264 2 4.0999999999999998e-01 -1.1877184437530373e+01 -9.5383330939600555e+00 -1.2963706586062857e+01 4 1 -1
1484 495 2 4.0999999999999998e-01 -8.6591553138177062e+00 -1.3860644838835192e+01 -1.1964953867921299e+01 -2 -1 1
1485 495 2 4.0999999999999998e-01 -8.9551600596682963e+00 -1.2381998930277605e+01 -1.1338414405252781e+01 -2 -1 1
1611 537 2 4.0999999999999998e-01 -1.2879224974917733e+01 -8.6072673889601194e+00 -8.1745348036603005e+00 1 -1 -2
1347 449 2 4.0999999999999998e-01 -8.9800012903039139e+00 -7.4649122545086044e+00 -1.1557910193499142e+01 2 0 2
417 139 2 4.0999999999999998e-01 -1.0318385189475912e+01 -1.3633218665689581e+01 -1.0238965137678374e+01 3 1 0
1145 382 2 4.0999999999999998e-01 -1.4269024975667332e+01 -9.2943314620261983e+00 -1.2739182830570554e+01 0 1 -2
295 99 1 -8.1999999999999995e-01 -1.1658625621143859e+01 -7.4963763669684562e+00 -8.2028156443542617e+00 -1 3 -1
297 99 2 4.0999999999999998e-01 -1.1714955526785255e+01 -6.9591854255870267e+00 -9.0443793752294521e+00 -1 3 -1
110 37 2 4.0999999999999998e-01 -9.5311901465161117e+00 -8.4496572642732097e+00 -8.1319225861809787e+00 0 -2 -3
111 37 2 4.0999999999999998e-01 -8.0661412692126575e+00 -9.1510557589152981e+00 -8.2999591223522415e+00 0 -2 -3
109 37 1 -8.1999999999999995e-01 -9.0105500855315128e+00 -9.1440631344720238e+00 -8.6286228093081263e+00 0 -2 -3
792 264 2 4.0999999999999998e-01 -1.0554108866278424e+01 -9.5804770749611237e+00 -1.3919875629674621e+01 4 1 -1
2128 710 1 -8.1999999999999995e-01 -1.4451952777534684e+01 -5.9081441478297609e+00 -1.0934861991573626e+01 2 1 -1
1249 417 1 -8.1999999999999995e-01 -1.3261423205899456e+01 -5.0747140172624103e+00 -1.3376300596719444e+01 1 2 0
1483 495 1 -8.1999999999999995e-01 -8.4841868777399050e+00 -1.3251769298348727e+01 -1.1191239904478373e+01 -2 -1 1
743 248 2 4.0999999999999998e-01 -1.2449756304619337e+01 -1.4060681323762520e+01 -1.1399818289430414e+01 -2 5 -3
2385 795 2 4.0999999999999998e-01 -1.4661618852590243e+01 -1.4684745812969240e+01 -1.0007396261269189e+01 -2 1 1
1526 509 2 4.0999999999999998e-01 -1.4447541280608696e+01 -1.1812717489197432e+01 -1.3987724358002588e+01 1 0 -1
1525 509 1 -8.1999999999999995e-01 -1.4544481037972867e+01 -1.2410308757462943e+01 -1.3191819835774945e+01 1 0 -1
1088 363 2 4.0999999999999998e-01 -1.1070102729074971e+01 -6.3353302536360143e+00 -1.1061592940061404e+01 -1 -1 -1
668 223 2 4.0999999999999998e-01 -8.2025532902292255e+00 -1.1100154918584170e+01 -8.5713483801022043e+00 4 4 0
2129 710 2 4.0999999999999998e-01 -1.3465294054912555e+01 -5.7500299380844115e+00 -1.0973348034836388e+01 2 1 -1
2024 675 2 4.0999999999999998e-01 -1.1712052871841671e+01 -1.2065431259728939e+01 -7.6035367453237761e+00 0 3 -1
1097 366 2 4.0999999999999998e-01 -1.0348798944063798e+01 -6.2188536811041164e+00 -1.3358462375579752e+01 1 -1 -2
1322 441 2 4.0999999999999998e-01 -7.6779155530323049e+00 -5.5236669676221162e+00 -9.2052259148304962e+00 0 0 0
1087 363 1 -8.1999999999999995e-01 -1.1701827691012655e+01 -5.8225399205965598e+00 -1.0480261425767225e+01 -1 -1 -1
1096 366 1 -8.1999999999999995e-01 -1.0826022785860374e+01 -5.7426730751829549e+00 -1.4097032716906426e+01 1 -1 -2
415 139 1 -8.1999999999999995e-01 -1.0733041811070620e+01 -1.4524616217328948e+01 -1.0056079978793473e+01 3 1 0
1516 506 1 -8.1999999999999995e-01 -8.7438083928857466e+00 -1.4944388129835010e+01 -1.3416399780994578e+01 2 1 -2
102 34 2 4.0999999999999998e-01 -1.4677679440385786e+01 -8.1413421611321244e+00 -8.6813568569882342e+00 1 3 -1
1251 417 2 4.0999999999999998e-01 -1.4069940950278349e+01 -5.3745308409736694e+00 -1.2869955305858820e+01 1 2 0
669 223 2 4.0999999999999998e-01 -8.5026772057293130e+00 -1.2615194339707438e+01 -9.1015799159385740e+00 4 4 0
667 223 1 -8.1999999999999995e-01 -8.0075895684444340e+00 -1.2069989490299866e+01 -8.4251063280222525e+00 4 4 0
2130 710 2 4.0999999999999998e-01 -1.4692589311720740e+01 -6.2982026870153316e+00 -1.0046084695433212e+01 2 1 -1
296 99 2 4.0999999999999998e-01 -1.0871604695554208e+01 -7.1928933036661018e+00 -7.6657190300083258e+00 -1 3 -1
1098 366 2 4.0999999999999998e-01 -1.1717466629266610e+01 -5.4289852568063086e+00 -1.3770070138200781e+01 1 -1 -2
1518 506 2 4.0999999999999998e-01 -9.0218274365062392e+00 -1.4606239265184067e+01 -1.4315475652934509e+01 2 1 -2
396 132 2 4.0999999999999998e-01 -4.4971690112225406e+00 -5.4016903193655192e+00 -9.0845547715653741e+00 -3 0 -3
844 282 1 -8.1999999999999995e-01 -3.0392516506097955e-01 -1.4758312142371373e+01 -7.8192639986180437e+00 -3 0 0
957 319 2 4.0999999999999998e-01 -5.5363573410229812e+00 -6.8243197733327108e+00 -1.0275714798882266e+01 0 1 -1
955 319 1 -8.1999999999999995e-01 -5.9999284194599429e+00 -7.0356886912989260e+00 -1.1136180801422627e+01 0 1 -1
956 319 2 4.0999999999999998e-01 -5.3549275346043892e+00 -7.4713193716631574e+00 -1.1764015536581853e+01 0 1 -1
334 112 1 -8.1999999999999995e-01 -1.4069397690563950e+00 -1.1656598722263265e+01 -1.0786942887146203e+01 1 0 -2
1439 480 2 4.0999999999999998e-01 -4.1716437854196542e-01 -5.1594092630600183e+00 -1.2355609246192756e+01 -1 0 0
1537 513 1 -8.1999999999999995e-01 -1.8887334565255571e+00 -5.8723169031324343e+00 -1.1740965257359843e+01 1 -1 -2
676 226 1 -8.1999999999999995e-01 -2.7289565734461974e-01 -9.4683783812669873e+00 -1.2140613318820154e+01 1 -1 -1
336 112 2 4.0999999999999998e-01 -1.4086334753792258e+00 -1.2512397908705580e+01 -1.1304225771108833e+01 1 0 -2
394 132 1 -8.1999999999999995e-01 -4.6892949087852926e+00 -6.3564995400836377e+00 -8.8578309647168076e+00 -3 0 -3
1475 492 2 4.0999999999999998e-01 -3.2506041184520615e+00 -8.4827708801669974e+00 -1.2781788983548942e+01 3 -1 0
1292 431 2 4.0999999999999998e-01 -4.5636513955987308e+00 -1.2993970426602568e+01 -7.7623567391151678e+00 2 -1 0
989 330 2 4.0999999999999998e-01 -1.9795813103237325e+00 -5.0552413506407028e+00 -8.2614283874263030e+00 3 -2 0
2071 691 1 -8.1999999999999995e-01 -4.2788117627956179e+00 -1.0007298192220567e+01 -1.4149428348928655e+01 0 -3 0
757 253 1 -8.1999999999999995e-01 -7.4682459811746638e+00 -9.5265717076782401e+00 -1.4356958235357661e+01 1 -1 0
1538 513 2 4.0999999999999998e-01 -2.3948463139948704e+00 -6.7273837291571095e+00 -1.1628328173924483e+01 1 -1 -2
759 253 2 4.0999999999999998e-01 -6.8080144205869804e+00 -1.0044104093105075e+01 -1.3812686998749719e+01 1 -1 0
2072 691 2 4.0999999999999998e-01 -4.3957031664303461e+00 -1.0748158960383417e+01 -1.4810819570844437e+01 0 -3 0
758 253 2 4.0999999999999998e-01 -7.0241521441618229e+00 -8.7148163586089069e+00 -1.4736181919997643e+01 1 -1 0
828 276 2 4.0999999999999998e-01 -6.1654702631214313e+00 -1.3367036364094485e+01 -1.3573303382439160e+01 1 2 0
826 276 1 -8.1999999999999995e-01 -5.3832737439723299e+00 -1.3348993844438692e+01 -1.2950551620022118e+01 1 2 0
2237 746 2 4.0999999999999998e-01 -1.3635760421218244e+00 -1.4041935841286335e+01 -1.3318709037170301e+01 1 1 -5
410 137 2 4.0999999999999998e-01 -2.6965140094220548e+00 -1.0755343787729615e+01 -1.0418727229853364e+01 1 2 0
386 129 2 4.0999999999999998e-01 -4.4708089149192354e-01 -8.0071747325899167e+00 -1.0807755099326494e+01 -1 1 2
1307 436 2 4.0999999999999998e-01 -6.2542278981714361e-01 -9.0091933024552677e+00 -1.3879125187272582e+01 -1 -1 -2
335 112 2 4.0999999999999998e-01 -1.0360506703992236e+00 -1.1820391902112746e+01 -9.8728369016773367e+00 1 0 -2
331 111 1 -8.1999999999999995e-01 -6.3490480720283458e+00 -1.4596224480964542e+01 -9.5612466151887752e+00 2 0 -1
1476 492 2 4.0999999999999998e-01 -3.3676208526143512e+00 -8.8735488553285897e+00 -1.1200598295477420e+01 3 -1 0
827 276 2 4.0999999999999998e-01 -4.5942903069118515e+00 -1.3774234637330803e+01 -1.3394006349713345e+01 1 2 0
799 267 1 -8.1999999999999995e-01 -3.7888567588680981e+00 -1.4937616721279836e+01 -8.5542465282808848e+00 -2 0 0
678 226 2 4.0999999999999998e-01 -9.9664831225701356e-01 -1.0140262163678592e+01 -1.1983352481182685e+01 1 -1 -1
1474 492 1 -8.1999999999999995e-01 -3.3950674529817526e+00 -8.1224681578819045e+00 -1.1860220248609075e+01 3 -1 0
409 137 1 -8.1999999999999995e-01 -3.5399809925440415e+00 -1.0258633898461834e+01 -1.0214229169628631e+01 1 2 0
2173 725 1 -8.1999999999999995e-01 -2.5250852946144153e+00 -8.1724264361531382e+00 -8.4886866394878382e+00 0 2 1
369 123 2 4.0999999999999998e-01 -6.6990740078952893e+00 -5.7699723007673214e+00 -1.2018954618104910e+01 1 1 0
1306 436 1 -8.1999999999999995e-01 -6.8496856868269873e-01 -9.0137461483410455e+00 -1.4877328692952926e+01 -1 -1 -2
2073 691 2 4.0999999999999998e-01 -4.6008109905308743e+00 -1.0308011082115625e+01 -1.3251728583297671e+01 0 -3 0
397 133 1 -8.1999999999999995e-01 -2.2347077564749540e-01 -1.1531699490195519e+01 -8.3180724582733916e+00 1 2 0
411 137 2 4.0999999999999998e-01 -4.3030586142356082e+00 -1.0682551266756924e+01 -1.0702064499636876e+01 1 2 0
385 129 1 -8.1999999999999995e-01 -4.5662961418736003e-01 -7.4891596975921599e+00 -9.9524505332182205e+00 -1 1 2
387 129 2 4.0999999999999998e-01 -1.2304520318433756e+00 -7.7848408408245344e+00 -9.3923182326604433e+00 -1 1 2
2236 746 1 -8.1999999999999995e-01 -8.3139164161233481e-01 -1.3621210672406638e+01 -1.2584034502459605e+01 1 1 -5
362 121 2 4.0999999999999998e-01 -6.4183037500040605e+00 -1.0640696025001798e+01 -1.1482130817241824e+01 0 2 0
395 132 2 4.0999999999999998e-01 -3.8418388673423038e+00 -6.8109634865056439e+00 -8.5835000149810767e+00 -3 0 -3
1539 513 2 4.0999999999999998e-01 -1.9065559465255699e+00 -5.3589479279135386e+00 -1.0882996004744117e+01 1 -1 -2
361 121 1 -8.1999999999999995e-01 -5.5928144794280019e+00 -1.0970430680541021e+01 -1.1940191083240228e+01 0 2 0
363 121 2 4.0999999999999998e-01 -5.7518552303678288e+00 -1.1893704178204976e+01 -1.2289832047352348e+01 0 2 0
262 88 1 -8.1999999999999995e-01 -6.5633468444807335e+00 -9.1093934464291166e+00 -7.6365145088398512e+00 1 2 0
332 111 2 4.0999999999999998e-01 -6.8059536079527767e+00 -1.4052177410440176e+01 -1.0264970023985510e+01 2 0 -1
800 267 2 4.0999999999999998e-01 -4.7746632368791921e+00 -1.4991045668056902e+01 -8.7133299646874569e+00 -2 0 0
2174 725 2 4.0999999999999998e-01 -2.6599474651387887e+00 -9.0572126391265648e+00 -8.9347160619911818e+00 0 2 1
263 88 2 4.0999999999999998e-01 -5.6648067450983319e+00 -9.2363732317352927e+00 -8.0566078013712055e+00 1 2 0
845 282 2 4.0999999999999998e-01 -5.3141441381980314e-01 -1.3793924644272142e+01 -7.6844230273020191e+00 -3 0 0
1293 431 2 4.0999999999999998e-01 -5.8038255520481439e+00 -1.1940691473104055e+01 -7.9006881840922993e+00 2 -1 0
1520 507 2 4.0999999999999998e-01 -3.8011938440909212e+00 -5.0553946545659532e+00 -1.3218974281167480e+01 4 -1 1
84 28 2 4.0999999999999998e-01 -1.3905389246004150e+01 -1.3205978944961030e+01 -4.9786529808201454e+00 2 1 -1
1795 599 1 -8.1999999999999995e-01 -1.4918434234629030e+01 -8.8069765252576744e+00 -8.3178761346510299e-01 0 0 2
881 294 2 4.0999999999999998e-01 -1.2243621828037739e+01 -8.8679888994104967e+00 -5.2266222633961057e+00 1 0 -2
1481 494 2 4.0999999999999998e-01 -1.3637104523215687e+01 -7.3877495109634488e+00 -3.7448992225210525e+00 -1 2 1
658 220 1 -8.1999999999999995e-01 -9.4921261089695790e+00 -5.9926722072564953e+00 -4.0791792877646547e+00 3 2 -3
660 220 2 4.0999999999999998e-01 -1.0206446013310504e+01 -6.0485498207495780e+00 -3.3816110399197505e+00 3 2 -3
1603 535 1 -8.1999999999999995e-01 -8.1535274513427431e+00 -1.2781234952022299e+01 -5.7059511155939795e+00 0 0 -1
1604 535 2 4.0999999999999998e-01 -7.9610348109546933e+00 -1.1868745128171684e+01 -5.3450001659398296e+00 0 0 -1
659 220 2 4.0999999999999998e-01 -8.6109696228094244e+00 -5.8162227391980270e+00 -3.6405387397204620e+00 3 2 -3
1112 371 2 4.0999999999999998e-01 -9.7783515507146888e+00 -1.3305953051951017e+01 -4.4649592096314876e+00 3 -1 0
1111 371 1 -8.1999999999999995e-01 -1.0506046697650699e+01 -1.3351326552440034e+01 -3.7805780090765015e+00 3 -1 0
1480 494 1 -8.1999999999999995e-01 -1.3788534009235633e+01 -6.6293465827876918e+00 -3.1109664236214343e+00 -1 2 1
882 294 2 4.0999999999999998e-01 -1.3781133995975507e+01 -9.1127317695689385e+00 -5.7192898818737898e+00 1 0 -2
2352 784 2 4.0999999999999998e-01 -7.9698908110777511e+00 -8.5587215439117728e+00 -1.5658178068485071e+00 -2 2 -2
1362 454 2 4.0999999999999998e-01 -1.3142345304972212e+01 -9.4624526607950514e+00 -3.4075526672775780e+00 2 2 0
1360 454 1 -8.1999999999999995e-01 -1.3058246253430227e+01 -1.0099752618346333e+01 -2.6415547792125356e+00 2 2 0
880 294 1 -8.1999999999999995e-01 -1.3190678704083401e+01 -8.5620741954094246e+00 -5.1292768303619685e+00 1 0 -2
2351 784 2 4.0999999999999998e-01 -9.4851505999874810e+00 -7.9859347583782681e+00 -1.7718940138847987e+00 -2 2 -2
83 28 2 4.0999999999999998e-01 -1.2482230633005214e+01 -1.3032727719797235e+01 -5.7604251709266698e+00 2 1 -1
761 254 2 4.0999999999999998e-01 -8.7966466811640238e+00 -1.0753939496164854e+01 -3.0252991089391976e+00 0 3 -3
2350 784 1 -8.1999999999999995e-01 -8.5955439684873589e+00 -8.1176004558628190e+00 -2.2092049438013497e+00 -2 2 -2
82 28 1 -8.1999999999999995e-01 -1.3055705721816258e+01 -1.3664521747423981e+01 -5.2389471979096580e+00 2 1 -1
1220 407 2 4.0999999999999998e-01 -9.6808643722980445e+00 -1.0139678563641024e+01 -1.0140564354155952e+00 0 0 -4
1020 340 2 4.0999999999999998e-01 -9.5341301683294368e+00 -1.4387401945819580e+01 -2.6757819151723208e+00 3 0 -2
762 254 2 4.0999999999999998e-01 -9.9910568601453527e+00 -1.1843549595858763e+01 -2.7957376858222052e+00 0 3 -3
760 254 1 -8.1999999999999995e-01 -9.7470786382110699e+00 -1.0875434686884244e+01 -2.7391265832918048e+00 0 3 -3
2295 765 2 4.0999999999999998e-01 -1.0431703834095661e+01 -7.9453596873652845e+00 -4.2227010240199387e+00 2 1 -2
1113 371 2 4.0999999999999998e-01 -1.1394994073515061e+01 -1.3348015903294609e+01 -4.2385496117848884e+00 3 -1 0
1361 454 2 4.0999999999999998e-01 -1.2247679185246033e+01 -1.0670968829204821e+01 -2.7706654492114726e+00 2 2 0
1758 586 2 4.0999999999999998e-01 -1.1142195136806986e+01 -6.1380142029541815e+00 -1.6289432862430111e+00 -2 0 -3
1756 586 1 -8.1999999999999995e-01 -1.1184487520335658e+01 -7.0859746203297149e+00 -1.9444730798476417e+00 -2 0 -3
713 238 2 4.0999999999999998e-01 -8.3666330536296911e+00 -6.5347495447708983e+00 -6.7232783669878486e+00 2 2 1
2293 765 1 -8.1999999999999995e-01 -1.0466583089987084e+01 -8.9036392928674566e+00 -4.5063563075138404e+00 2 1 -2
2025 675 2 4.0999999999999998e-01 -1.0767650939605048e+01 -1.1345356997182844e+01 -6.4827502866414992e+00 0 3 -1
2489 830 2 4.0999999999999998e-01 -1.4762756510738816e+01 -1.0984065801726025e+01 -4.0133846267444220e+00 -1 1 0
2023 675 1 -8.1999999999999995e-01 -1.1292204332886257e+01 -1.2168064479562252e+01 -6.7017771886396087e+00 0 3 -1
1757 586 2 4.0999999999999998e-01 -1.2119039501167597e+01 -7.3017108598833698e+00 -2.2273991585996455e+00 -2 0 -3
712 238 1 -8.1999999999999995e-01 -9.3229829965211906e+00 -6.8243946786813208e+00 -6.6848442470369562e+00 2 2 1
1018 340 1 -8.1999999999999995e-01 -9.0460767336752710e+00 -1.4798374471964195e+01 -1.9057935360257066e+00 3 0 -2
714 238 2 4.0999999999999998e-01 -9.5627522700453245e+00 -7.0584401190658044e+00 -5.7426605579199226e+00 2 2 1
1482 494 2 4.0999999999999998e-01 -1.4439993706965573e+01 -5.9850751466039540e+00 -3.5115799924741662e+00 -1 2 1
1796 599 2 4.0999999999999998e-01 -1.4341516687650744e+01 -9.3717720682886441e+00 -1.4218289854252113e+00 0 0 2
2294 765 2 4.0999999999999998e-01 -1.0081337588895639e+01 -9.4790300682535946e+00 -3.7849077235900523e+00 2 1 -2
1952 651 2 4.0999999999999998e-01 -7.5772156236320445e+00 -6.9695692395935946e+00 -2.3865070687509711e+00 2 2 0
1797 599 2 4.0999999999999998e-01 -1.5011753163067100e+01 -7.8949556124678182e+00 -1.2311447184843978e+00 0 0 2
2488 830 1 -8.1999999999999995e-01 -1.4904684604351953e+01 -1.1278066175907629e+01 -4.9585813710936044e+00 -1 1 0
1605 535 2 4.0999999999999998e-01 -8.1761818588301303e+00 -1.2746504042482375e+01 -6.7050793433367062e+00 0 0 -1
2186 729 2 4.0999999999999998e-01 -8.9485508801019051e+00 -1.3696842764750276e+01 -4.5369693682365231e-01 2 -1 -2
1683 561 2 4.0999999999999998e-01 -1.4699937534240442e+01 -5.3746079494148997e+00 -1.5596495088926829e+00 0 0 -1
615 205 2 4.0999999999999998e-01 -1.5044343286859995e+01 -1.3997920236580923e+01 -5.7415671458096362e-01 -1 0 0
119 40 2 4.0999999999999998e-01 -1.2220139611484193e+01 -5.0869567082784517e+00 -4.2595534251486811e-01 1 -2 1
2568 856 2 4.0999999999999998e-01 -1.4220162394572011e+01 -1.4760470159628323e+01 -6.3558595174670867e+00 1 3 -1
1219 407 1 -8.1999999999999995e-01 -9.7475273231424140e+00 -1.0075828826117270e+01 -1.8337635854258849e-02 0 0 -4
1100 367 2 4.0999999999999998e-01 -2.8190030258544994e+00 -1.3846515202951144e+01 -7.3781300020517016e-01 3 1 1
1182 394 2 4.0999999999999998e-01 -6.1667940995310815e+00 -6.2290286070212968e+00 -7.3882165556887980e+00 1 1 -1
2394 798 2 4.0999999999999998e-01 -2.5725621312105886e+00 -1.3170216639056536e+01 -3.1087038488917056e+00 3 0 -1
1317 439 2 4.0999999999999998e-01 -7.3728374012866906e+00 -1.4114418934432397e+01 -5.0896200008213626e+00 1 2 -1
2432 811 2 4.0999999999999998e-01 -8.7726869150009179e-01 -1.2756794144754402e+01 -4.3995687702850663e+00 1 0 0
1374 458 2 4.0999999999999998e-01 -5.2950749513262831e+00 -5.9577474616155435e+00 -3.9799616062864303e+00 3 2 -2
1953 651 2 4.0999999999999998e-01 -6.4548220348926755e+00 -5.9948988635266875e+00 -1.7106264912325440e+00 2 2 0
1315 439 1 -8.1999999999999995e-01 -6.8972006317855037e+00 -1.4952169679154350e+01 -4.8214408467236574e+00 1 2 -1
2217 739 2 4.0999999999999998e-01 -8.2905073743726021e-01 -1.2188258082422772e+01 -2.3450664302147040e-01 1 1 1
1951 651 1 -8.1999999999999995e-01 -6.8683493955403048e+00 -6.2891391605340807e+00 -2.5722496249910680e+00 2 2 0
2485 829 1 -8.1999999999999995e-01 -5.8462187463517949e+00 -5.4793789516026354e+00 -1.8340965791122343e-01 0 0 -1
2392 798 1 -8.1999999999999995e-01 -2.1473650492399567e+00 -1.4074870987939898e+01 -3.0806928782812317e+00 3 0 -1
1291 431 1 -8.1999999999999995e-01 -4.9895597131470080e+00 -1.2178219656785503e+01 -7.3710391838358316e+00 2 -1 0
1423 475 1 -8.1999999999999995e-01 -3.0253299821851396e+00 -5.4568781510415807e+00 -6.5780190885142034e+00 5 2 2
1372 458 1 -8.1999999999999995e-01 -4.3333187179841861e+00 -5.6838891435616432e+00 -3.9817665531172590e+00 3 2 -2
718 240 1 -8.1999999999999995e-01 -6.4459976148758109e+00 -9.2802500932317855e+00 -5.9954401694422010e-01 2 2 2
2393 798 2 4.0999999999999998e-01 -2.6394537951133223e+00 -1.4693554367025762e+01 -3.6931111983682232e+00 3 0 -1
264 88 2 4.0999999999999998e-01 -6.4506736649018013e+00 -8.9021968507174307e+00 -6.6647372636988376e+00 1 2 0
1180 394 1 -8.1999999999999995e-01 -6.7592272001316598e+00 -5.7392014055095757e+00 -6.7486315797731624e+00 1 1 -1
2011 671 1 -8.1999999999999995e-01 -2.0287024274738918e-01 -7.9956037313027961e+00 -5.4531572831668242e+00 -1 1 1
2265 755 2 4.0999999999999998e-01 -6.6586858202256973e+00 -1.1005605005882966e+01 -1.3386900308816330e+00 3 2 0
2053 685 1 -8.1999999999999995e-01 -1.7845945787299655e-01 -7.5689365747074362e+00 -2.8251837528907000e+00 0 -1 -2
499 167 1 -8.1999999999999995e-01 -1.6449405813600002e+00 -9.5278375560207031e+00 -1.5479740171354415e+00 -2 -1 2
2263 755 1 -8.1999999999999995e-01 -6.4596855722824458e+00 -1.1811693010425660e+01 -1.8960029562093030e+00 3 2 0
501 167 2 4.0999999999999998e-01 -1.2000585174448020e+00 -8.8835603942914929e+00 -2.1700379756800370e+00 -2 -1 2
2013 671 2 4.0999999999999998e-01 -1.1298561605639890e+00 -8.2264455348080663e+00 -5.7487682915828575e+00 -1 1 1
1200 400 2 4.0999999999999998e-01 -6.1384793894574639e+00 -7.8831683859717101e+00 -4.1092493695277703e+00 -2 -1 0
854 285 2 4.0999999999999998e-01 -2.8888139755331341e+00 -5.5837828255811992e+00 -2.7125735016662915e+00 2 2 2
720 240 2 4.0999999999999998e-01 -5.8437252503643418e+00 -8.5050474206513229e+00 -4.0900398986333997e-01 2 2 2
576 192 2 4.0999999999999998e-01 -8.4922437044840571e-01 -1.4696367373486886e+01 -1.8733164463365419e+00 3 1 -2
1199 400 2 4.0999999999999998e-01 -6.4203237623492733e+00 -7.4649704818076081e+00 -5.6623876641459105e+00 -2 -1 0
2215 739 1 -8.1999999999999995e-01 -1.6007412725207182e-01 -1.1562191616245608e+01 -6.3511584941183052e-01 1 1 1
1425 475 2 4.0999999999999998e-01 -3.8661760808864276e+00 -5.6814924360364927e+00 -6.0855732788679688e+00 5 2 2
2433 811 2 4.0999999999999998e-01 -4.3308715920047902e-01 -1.1426179752980273e+01 -5.2354708969427755e+00 1 0 0
855 285 2 4.0999999999999998e-01 -3.0660878423709761e+00 -6.9199480346114033e+00 -1.7907271184034084e+00 2 2 2
2175 725 2 4.0999999999999998e-01 -2.7050695621017109e+00 -8.2620922770673069e+00 -7.5091243165816719e+00 0 2 1
853 285 1 -8.1999999999999995e-01 -2.4575107287174820e+00 -6.1597625375886054e+00 -2.0181661391317132e+00 2 2 2
437 146 2 4.0999999999999998e-01 -3.2095749141620473e+00 -9.4915754620383375e+00 -5.5830257063201003e+00 1 -1 -2
2033 678 2 4.0999999999999998e-01 -6.8507757238881481e+00 -9.6045952350874852e+00 -4.2543554872009004e+00 2 4 -2
1806 602 2 4.0999999999999998e-01 -6.3587859525529051e+00 -1.3641604033532595e+01 -1.8127485227808382e+00 1 2 0
1805 602 2 4.0999999999999998e-01 -5.8924797323935625e+00 -1.4579630534734431e+01 -3.0654372773250991e+00 1 2 0
436 146 1 -8.1999999999999995e-01 -3.0434310530422941e+00 -8.5523817681830359e+00 -5.8835053406337305e+00 1 -1 -2
1804 602 1 -8.1999999999999995e-01 -6.1714180176681896e+00 -1.4579355020656193e+01 -2.1051404257679280e+00 1 2 0
250 84 1 -8.1999999999999995e-01 -3.9428981483705350e+00 -1.1195984778959016e+01 -5.1456520672022208e+00 2 4 -1
251 84 2 4.0999999999999998e-01 -4.4374029753690092e+00 -1.1491123904578895e+01 -5.9631693859836421e+00 2 4 -1
2034 678 2 4.0999999999999998e-01 -6.5991477581711653e+00 -1.1053473042107443e+01 -3.5444254024268051e+00 2 4 -2
2032 678 1 -8.1999999999999995e-01 -7.1463826587950026e+00 -1.0559271329105558e+01 -4.2199069247208030e+00 2 4 -2
1580 527 2 4.0999999999999998e-01 -3.7222868598048233e+00 -1.1592941218225347e+01 -3.2500242242582473e+00 3 1 3
2264 755 2 4.0999999999999998e-01 -5.4728624271359685e+00 -1.1880302503276873e+01 -2.0424594858762291e+00 3 2 0
1579 527 1 -8.1999999999999995e-01 -3.5796621439420768e+00 -1.1648040420400616e+01 -2.2617940435951436e+00 3 1 3
252 84 2 4.0999999999999998e-01 -3.0147850638871159e+00 -1.1567741492549965e+01 -5.1651390809450017e+00 2 4 -1
1198 400 1 -8.1999999999999995e-01 -6.0477596794826205e+00 -8.1726676448040578e+00 -5.0621065383546853e+00 -2 -1 0
438 146 2 4.0999999999999998e-01 -3.9060220534208980e+00 -8.0465283642072016e+00 -5.8885814879518712e+00 1 -1 -2
1581 527 2 4.0999999999999998e-01 -3.0809671991167793e+00 -1.0838770633814892e+01 -1.9513710797123895e+00 3 1 3
2054 685 2 4.0999999999999998e-01 -1.6847216529386166e-01 -7.8195137132958878e+00 -3.7932168155183188e+00 0 -1 -2
2365 789 1 -8.1999999999999995e-01 -4.1616659578604391e+00 -7.8250162097806975e+00 -1.2772555110486117e-01 -1 -3 -1
500 167 2 4.0999999999999998e-01 -9.7703133964087563e-01 -1.0202004730492989e+01 -1.2327398985726870e+00 -2 -1 2
2431 811 1 -8.1999999999999995e-01 -1.2039989239396807e+00 -1.1912352611321452e+01 -4.8240007477978004e+00 1 0 0
2055 685 2 4.0999999999999998e-01 -9.0976651320285207e-01 -6.9072894644139549e+00 -2.6596852424719355e+00 0 -1 -2
1908 636 2 4.0999999999999998e-01 -1.7354145529094218e+00 -5.6710581624374719e+00 -4.9975556546196209e-01 2 1 -2
1101 367 2 4.0999999999999998e-01 -3.4857778085359179e+00 -1.2533393959185513e+01 -3.2342848897060961e-02 3 1 1
1679 560 2 4.0999999999999998e-01 -1.1652436127608933e+01 -1.2486930761130214e+01 6.4240555503816843e-01 3 2 -1
2275 759 1 -8.1999999999999995e-01 -1.0203739565314516e+01 -1.0188733712313475e+01 3.3793371421188070e+00 0 1 -2
1678 560 1 -8.1999999999999995e-01 -1.1489066484801576e+01 -1.3116140772967151e+01 1.4022619917272223e+00 3 2 -1
699 233 2 4.0999999999999998e-01 -1.3247800849401592e+01 -1.2042237928014753e+01 2.2154447904413033e+00 2 1 1
113 38 2 4.0999999999999998e-01 -1.0930720228072119e+01 -1.1477597813817429e+01 4.1489573081592219e+00 2 0 0
698 233 2 4.0999999999999998e-01 -1.3283467062832106e+01 -1.0437251184187474e+01 1.9165977282662929e+00 2 1 1
697 233 1 -8.1999999999999995e-01 -1.3708845544357256e+01 -1.1181557430891264e+01 2.4314160032813312e+00 2 1 1
2276 759 2 4.0999999999999998e-01 -9.7982091915497911e+00 -1.0258532039730451e+01 2.4679371343030105e+00 0 1 -2
2423 808 2 4.0999999999999998e-01 -1.4221353422866605e+01 -1.1211304796322302e+01 4.0943186375496872e+00 1 2 0
2185 729 1 -8.1999999999999995e-01 -9.0494631362892548e+00 -1.3031438372723557e+01 2.8591807233395095e-01 2 -1 -2
114 38 2 4.0999999999999998e-01 -1.1327293536856438e+01 -1.3060807156168494e+01 4.0965955198142048e+00 2 0 0
112 38 1 -8.1999999999999995e-01 -1.1415750190605529e+01 -1.2213849009035378e+01 4.6208224658554933e+00 2 0 0
2277 759 2 4.0999999999999998e-01 -9.8133283531554163e+00 -9.4026663140680462e+00 3.8585590907044747e+00 0 1 -2
2223 741 2 4.0999999999999998e-01 -8.3619811872941323e+00 -6.0469092424397584e+00 2.2101469523271362e+00 4 -2 -1
179 60 2 4.0999999999999998e-01 -1.3194301643434823e+01 -1.3409328265418006e+01 4.6777500306609170e+00 0 1 -2
2187 729 2 4.0999999999999998e-01 -8.1643012876317034e+00 -1.2606249980038323e+01 4.7480943418905319e-01 2 -1 -2
1115 372 2 4.0999999999999998e-01 -1.3917299361245771e+01 -8.3457362516983604e+00 6.1489391921819276e+00 -2 2 0
2397 799 2 4.0999999999999998e-01 -1.3036340799094113e+01 -8.8907454914860544e+00 5.9819725850061900e-02 -2 0 -2
628 210 1 -8.1999999999999995e-01 -1.1899179059723473e+01 -7.8394706321494514e+00 3.1168143242223927e+00 -1 -1 -1
629 210 2 4.0999999999999998e-01 -1.1924742637667727e+01 -8.6612324288632436e+00 2.5475773872113692e+00 -1 -1 -1
630 210 2 4.0999999999999998e-01 -1.1391139992441328e+01 -8.0313259677463193e+00 3.9564955281138197e+00 -1 -1 -1
2313 771 2 4.0999999999999998e-01 -1.0686134606607769e+01 -8.0454678515579108e+00 6.0382529355772405e+00 1 -1 -1
2311 771 1 -8.1999999999999995e-01 -1.0057881643506114e+01 -7.8746175400620384e+00 5.2792502690928593e+00 1 -1 -1
2396 799 2 4.0999999999999998e-01 -1.1481663474186693e+01 -9.3463150283417207e+00 2.6475663558026064e-01 -2 0 -2
2312 771 2 4.0999999999999998e-01 -9.1213921021104767e+00 -8.0680457501570100e+00 5.5717388104877905e+00 1 -1 -1
2422 808 1 -8.1999999999999995e-01 -1.4625901693244726e+01 -1.1001731142612668e+01 4.9844850674240284e+00 1 2 0
2395 799 1 -8.1999999999999995e-01 -1.2408362451914712e+01 -9.4160366624358307e+00 6.3400528366448761e-01 -2 0 -2
485 162 2 4.0999999999999998e-01 -1.1309975036755839e+01 -1.1834907890254538e+01 6.7286080780443385e+00 0 1 -4
1116 372 2 4.0999999999999998e-01 -1.3196078686319263e+01 -9.7382638269434700e+00 5.6936678514295238e+00 -2 2 0
1680 560 2 4.0999999999999998e-01 -1.0523173852943266e+01 -1.3374476193363686e+01 1.4193187653472528e+00 3 2 -1
543 181 2 4.0999999999999998e-01 -1.3739725833173326e+01 -7.3743895715286198e+00 3.3100353145184300e+00 1 0 -2
2483 828 2 4.0999999999999998e-01 -1.0950023395735865e+01 -6.4604267564492233e+00 2.7871723765428023e+00 2 -2 -2
1114 372 1 -8.1999999999999995e-01 -1.3038713224340222e+01 -8.8009214551025394e+00 6.0044765678891352e+00 -2 2 0
541 181 1 -8.1999999999999995e-01 -1.4580940846279725e+01 -7.0243116124671818e+00 2.8979924041054126e+00 1 0 -2
1641 547 2 4.0999999999999998e-01 -1.4876347010622577e+01 -6.8582221348801493e+00 6.2082297576494305e+00 -2 0 -2
34 12 1 -8.1999999999999995e-01 -8.5013976237347375e+00 -1.4606876744009465e+01 3.8285809114320415e+00 3 0 -2
178 60 1 -8.1999999999999995e-01 -1.3605515708212215e+01 -1.4320487617170816e+01 4.6518981569729796e+00 0 1 -2