LAMMPS data file via write_data, version 15 May 2015, timestep = 2000000

2611 atoms
6 atom types
1749 bonds
4 bond types
894 angles
3 angle types
44 dihedrals
3 dihedral types
10 impropers
1 improper types

-1.5038707755771052e+01 1.5038707755771052e+01 xlo xhi
-1.5038707755771052e+01 1.5038707755771052e+01 ylo yhi
-1.5038707755771052e+01 1.5038707755771052e+01 zlo zhi

Masses

1 15.9994
2 1.00794
3 12.0107
4 1.00794
5 12.0107
6 12.0107

Bond Coeffs # harmonic

1 1000 1
2 469 1.4
3 367 1.08
4 469 0.7

Angle Coeffs # harmonic

1 100 109.47
2 35 120
3 63 120

Dihedral Coeffs # opls

1 0 7.25 0 0
2 0 7.25 0 0
3 0 7.25 0 0

Improper Coeffs # cvff

1 2.5 -1 2

Atoms # full

760 254 1 -8.1999999999999995e-01 -1.2727255293666103e+01 -7.9909006207455855e+00 -1.3047099706076267e+01 1 2 0
761 254 2 4.0999999999999998e-01 -1.2680588742627156e+01 -8.8131889486637718e+00 -1.3614302852438147e+01 1 2 0
837 279 2 4.0999999999999998e-01 -1.0681012072220376e+01 -5.9220280201089519e+00 -1.1170300237713004e+01 1 3 0
762 254 2 4.0999999999999998e-01 -1.3329752145886941e+01 -8.1580688053258932e+00 -1.2266646248059917e+01 1 2 0
567 189 2 4.0999999999999998e-01 -1.1677510906788376e+01 -1.0929498853149839e+01 -1.1001181097412282e+01 1 0 0
565 189 1 -8.1999999999999995e-01 -1.1812317732134815e+01 -1.0906951481128871e+01 -1.1991824317660903e+01 1 0 0
1301 434 2 4.0999999999999998e-01 -1.2880562078809788e+01 -6.3443686894606888e+00 -1.4494822540689166e+01 0 0 0
1108 370 1 -8.1999999999999995e-01 -1.1687406411699786e+01 -7.9983937391618030e+00 -8.0871138596950001e+00 0 -1 0
2548 850 1 -8.1999999999999995e-01 -1.1515564279622151e+01 -1.3774187188990240e+01 -8.7231636302892426e+00 2 1 1
187 63 1 -8.1999999999999995e-01 -1.2247094376894701e+01 -1.4970678308272360e+01 -1.4255549257438046e+01 1 0 1
1763 588 2 4.0999999999999998e-01 -9.7141230689102471e+00 -8.2725294305132451e+00 -1.1587244792130971e+01 1 0 1
78 26 2 4.0999999999999998e-01 -1.0210343467923185e+01 -1.4383461429547825e+01 -1.1798395689039108e+01 -1 -1 0
566 189 2 4.0999999999999998e-01 -1.2780428760731009e+01 -1.1046892491533400e+01 -1.2199748750766259e+01 1 0 0
1064 355 2 4.0999999999999998e-01 -1.4931044228528638e+01 -1.1246235605184312e+01 -1.1764163467313040e+01 2 2 0
568 190 1 -8.1999999999999995e-01 -8.3426360443061220e+00 -9.7937973829039997e+00 -1.4853789636567972e+01 1 0 1
1700 567 2 4.0999999999999998e-01 -8.2318086095052205e+00 -5.1549384592115004e+00 -1.4971471874216714e+01 2 2 1
2396 799 2 4.0999999999999998e-01 -9.7232130649152566e+00 -1.4619419678798694e+01 -8.3777716084836875e+00 -1 1 0
1109 370 2 4.0999999999999998e-01 -1.2269660278823089e+01 -7.5065198479852837e+00 -8.7344899247217072e+00 0 -1 0
2550 850 2 4.0999999999999998e-01 -1.2434937389906993e+01 -1.3407646355547172e+01 -8.5801388963728122e+00 2 1 1
2209 737 1 -8.1999999999999995e-01 -7.7795038973029236e+00 -1.2254760098910428e+01 -1.1118240136390064e+01 1 1 -1
1762 588 1 -8.1999999999999995e-01 -1.0196035400509164e+01 -7.4380058886105411e+00 -1.1854426544699955e+01 1 0 1
321 107 2 4.0999999999999998e-01 -1.0162056264074039e+01 -1.0759505187127749e+01 -1.2223876602481578e+01 1 3 1
569 190 2 4.0999999999999998e-01 -8.7643815308590600e+00 -1.0118197041846475e+01 -1.4007060127210503e+01 1 0 1
320 107 2 4.0999999999999998e-01 -8.5945332658209956e+00 -1.1156887595962729e+01 -1.1996428287931945e+01 1 3 1
1764 588 2 4.0999999999999998e-01 -1.0976868448296655e+01 -7.6746181017266233e+00 -1.2432673607998293e+01 1 0 1
319 107 1 -8.1999999999999995e-01 -9.2223149244963256e+00 -1.0571504894621437e+01 -1.2509529157063742e+01 1 3 1
423 141 2 4.0999999999999998e-01 -1.4727639541547731e+01 -7.0383773214113212e+00 -1.0240417969894978e+01 0 1 0
570 190 2 4.0999999999999998e-01 -7.6396186505052173e+00 -9.1162092447946641e+00 -1.4637696896331212e+01 1 0 1
77 26 2 4.0999999999999998e-01 -9.5884481520128375e+00 -1.3210494976483210e+01 -1.0847517380903469e+01 -1 -1 0
76 26 1 -8.1999999999999995e-01 -1.0387814110093359e+01 -1.3787517212182467e+01 -1.1015190804862494e+01 -1 -1 0
1205 402 2 4.0999999999999998e-01 -1.2772018859139139e+01 -1.3898523784477257e+01 -1.2398892689322087e+01 3 1 1
1952 651 2 4.0999999999999998e-01 -9.0413673932129299e+00 -5.3834322172558267e+00 -1.0911493151170522e+01 1 1 0
2398 800 1 -8.1999999999999995e-01 -1.3762450324429578e+01 -1.1565133880144979e+01 -8.7737111381547486e+00 1 0 2
1953 651 2 4.0999999999999998e-01 -7.8956803644258899e+00 -5.4365135652837040e+00 -9.7490141342966563e+00 1 1 0
1206 402 2 4.0999999999999998e-01 -1.3842511572975097e+01 -1.2689829234716649e+01 -1.2154196701752877e+01 3 1 1
2549 850 2 4.0999999999999998e-01 -1.1161033047328267e+01 -1.3451834762398335e+01 -9.6009174273994482e+00 2 1 1
1063 355 1 -8.1999999999999995e-01 -1.4351949960961083e+01 -1.1138839579349227e+01 -1.2572353486307497e+01 2 2 0
1886 629 2 4.0999999999999998e-01 -8.5206127067042559e+00 -1.0383161765620024e+01 -7.8606664655454717e+00 2 1 0
132 44 2 4.0999999999999998e-01 -1.3551105242410083e+01 -5.1170154127820240e+00 -9.9216477013526685e+00 0 0 0
2399 800 2 4.0999999999999998e-01 -1.2965754183127574e+01 -1.1165420794600482e+01 -9.2270983596046925e+00 1 0 2
214 72 1 -8.1999999999999995e-01 -1.1257775235346088e+01 -1.0589524835657897e+01 -9.2005506730264415e+00 0 0 1
1204 402 1 -8.1999999999999995e-01 -1.3712891590936195e+01 -1.3681301909355410e+01 -1.2138838989363594e+01 3 1 1
703 235 1 -8.1999999999999995e-01 -8.0525885693578871e+00 -1.4876289360462604e+01 -1.4687821395148060e+01 0 0 2
216 72 2 4.0999999999999998e-01 -1.1269034332775052e+01 -9.6063827922161256e+00 -9.0179032678202127e+00 0 0 1
215 72 2 4.0999999999999998e-01 -1.0496136271883264e+01 -1.1011260113831487e+01 -8.7085136525811784e+00 0 0 1
2400 800 2 4.0999999999999998e-01 -1.4582674632515314e+01 -1.1377056960790950e+01 -9.3140022030421008e+00 1 0 2
1885 629 1 -8.1999999999999995e-01 -8.8644225246970905e+00 -1.1261618162177040e+01 -7.5287563305636533e+00 2 1 0
1958 653 2 4.0999999999999998e-01 -1.3335583765552338e+01 -1.1185498629210869e+01 -1.4659221257773876e+01 0 0 0
1065 355 2 4.0999999999999998e-01 -1.4770917680547628e+01 -1.0480255220914948e+01 -1.3197483714127266e+01 2 2 0
1951 651 1 -8.1999999999999995e-01 -8.0577528092659421e+00 -5.4243022967918240e+00 -1.0735745441043228e+01 1 1 0
421 141 1 -8.1999999999999995e-01 -1.4333474633326798e+01 -6.8979768842621070e+00 -9.3321355256763177e+00 0 1 0
2397 799 2 4.0999999999999998e-01 -8.2253603666211426e+00 -1.4137147992803317e+01 -7.9411651890363064e+00 -1 1 0
470 157 2 4.0999999999999998e-01 -7.5242195895263766e+00 -1.1794657580864218e+01 -1.4784599804136912e+01 0 -1 0
422 141 2 4.0999999999999998e-01 -1.5027244960443625e+01 -7.0815643485770403e+00 -8.6356920544197369e+00 0 1 0
1959 653 2 4.0999999999999998e-01 -1.1826840280479260e+01 -1.1271929998217072e+01 -1.4040354376528937e+01 0 0 0
1957 653 1 -8.1999999999999995e-01 -1.2370085895762095e+01 -1.1326666646025329e+01 -1.4878174877290954e+01 0 0 0
928 310 1 -8.1999999999999995e-01 -1.5035739658005292e+01 -9.3785469300720230e+00 -1.4706828550946332e+01 0 -3 0
189 63 2 4.0999999999999998e-01 -1.3143446071489775e+01 -1.4528708561133081e+01 -1.4291209130962848e+01 1 0 1
835 279 1 -8.1999999999999995e-01 -1.0796457118665273e+01 -5.0220552471698028e+00 -1.0749852015467553e+01 1 3 0
2395 799 1 -8.1999999999999995e-01 -8.8251671913212810e+00 -1.4927841105792075e+01 -8.0640120192523685e+00 -1 1 0
1950 650 2 4.0999999999999998e-01 -4.3061829506392790e-01 -5.3903587754172495e+00 -9.9936981387407080e+00 0 1 1
222 74 2 4.0999999999999998e-01 -6.1242749065871251e+00 -6.3038138808828226e+00 -8.2813753127258636e+00 1 2 -2
1258 420 1 -8.1999999999999995e-01 -2.8589233327469206e+00 -1.4189199785957854e+01 -1.4003920781669636e+01 1 0 -1
1837 613 1 -8.1999999999999995e-01 -2.2313449628374187e+00 -6.2434133778713878e+00 -1.1139895926473343e+01 1 -1 1
673 225 1 -8.1999999999999995e-01 -4.5173790929701276e+00 -1.3582827566320123e+01 -8.5056791282743855e+00 1 2 0
754 252 1 -8.1999999999999995e-01 -4.5044307851236329e+00 -6.1219353318034031e+00 -8.7167924178651930e+00 0 0 2
715 239 1 -8.1999999999999995e-01 -6.7401686236079730e+00 -1.4961256373742115e+01 -1.1203498866034678e+01 1 1 0
1260 420 2 4.0999999999999998e-01 -3.7347395079669337e+00 -1.4020515591747458e+01 -1.3551652111801982e+01 1 0 -1
2051 684 2 4.0999999999999998e-01 -6.1710431853823113e+00 -8.9240915801653653e+00 -8.8492694793050788e+00 1 2 0
148 50 1 -8.1999999999999995e-01 -2.8391754547515724e-01 -6.6706167804934253e+00 -1.3070071759239777e+01 0 0 0
2050 684 1 -8.1999999999999995e-01 -7.1639223194127579e+00 -8.9514703957130290e+00 -8.7330944194297864e+00 1 2 0
2052 684 2 4.0999999999999998e-01 -7.5041806476309745e+00 -8.0282647269946636e+00 -8.5542906477064165e+00 1 2 0
1218 406 2 4.0999999999999998e-01 -4.9837001706053492e+00 -5.4893391567896916e+00 -1.2174178299609672e+01 1 0 1
756 252 2 4.0999999999999998e-01 -3.8395451077628344e+00 -6.4134393709517781e+00 -8.0290369194373454e+00 0 0 2
1240 414 1 -8.1999999999999995e-01 -2.4014465316792641e+00 -1.2807787554908849e+01 -1.0354071749230101e+01 0 2 1
378 126 2 4.0999999999999998e-01 -5.1364200068796038e+00 -8.8363244971279009e+00 -1.3199441083103642e+01 -1 0 1
2123 708 2 4.0999999999999998e-01 -1.8838480997665599e+00 -9.6868426860326498e+00 -1.4449970079821732e+01 0 1 1
2124 708 2 4.0999999999999998e-01 -2.9049480002259820e+00 -1.0889874125546420e+01 -1.4029441623631337e+01 0 1 1
1088 363 2 4.0999999999999998e-01 -5.9903720910616158e+00 -7.8215519151661317e+00 -1.1900017434486557e+01 -1 -1 0
1839 613 2 4.0999999999999998e-01 -3.2208313031105966e+00 -6.1382685058347324e+00 -1.1239476881152507e+01 1 -1 1
1883 628 2 4.0999999999999998e-01 -5.3210330225719460e-01 -1.2158196003441644e+01 -1.4790361481520538e+01 0 1 0
1089 363 2 4.0999999999999998e-01 -6.8700707462521109e+00 -6.4972249375841855e+00 -1.1527107068213613e+01 -1 -1 0
499 167 1 -8.1999999999999995e-01 -4.7423783891289961e+00 -1.3554566186418999e+01 -1.2181087067353404e+01 0 0 3
1884 628 2 4.0999999999999998e-01 -1.3457877668548814e+00 -1.3509952341688074e+01 -1.4369117911676966e+01 0 1 0
1242 414 2 4.0999999999999998e-01 -2.3569635224914869e+00 -1.2607248484104110e+01 -9.3753682612760372e+00 0 2 1
500 167 2 4.0999999999999998e-01 -5.4827334061279629e+00 -1.4129862769382315e+01 -1.1833289020683280e+01 0 0 3
1517 506 2 4.0999999999999998e-01 -3.0167929495994361e+00 -1.4790718055484174e+01 -1.0561978649543892e+01 1 1 -1
939 313 2 4.0999999999999998e-01 -5.1019762848320802e+00 -1.1917984056409825e+01 -1.4690461411207194e+01 1 1 0
755 252 2 4.0999999999999998e-01 -4.2171070854155204e+00 -5.2479588270813498e+00 -9.1087941836377695e+00 0 0 2
16 6 1 -8.1999999999999995e-01 -5.5466211417087887e+00 -1.1120333366167317e+01 -9.8118074568776947e+00 1 -1 0
2211 737 2 4.0999999999999998e-01 -7.3490795439409089e+00 -1.3143687046234879e+01 -1.1275080846186510e+01 1 1 -1
2210 737 2 4.0999999999999998e-01 -7.2477663594669508e+00 -1.1741123275550175e+01 -1.0444825292307968e+01 1 1 -1
2241 747 2 4.0999999999999998e-01 -4.9267542272230891e-01 -9.9500168417484911e+00 -1.1469643768373132e+01 3 0 -1
232 78 1 -8.1999999999999995e-01 -4.2236726762795591e+00 -8.7254681278025714e+00 -9.7968952729428125e+00 1 1 0
501 167 2 4.0999999999999998e-01 -4.0245736125171661e+00 -1.3480363592352983e+01 -1.1488768104128390e+01 0 0 3
234 78 2 4.0999999999999998e-01 -4.2775886991130125e+00 -7.7271644381079545e+00 -9.7736995245946314e+00 1 1 0
1061 354 2 4.0999999999999998e-01 -6.9678904997639890e-01 -9.1910503148442295e+00 -9.3241398346957638e+00 1 1 -1
18 6 2 4.0999999999999998e-01 -5.1308070866546363e+00 -1.1996273818932922e+01 -9.5670991669408778e+00 1 -1 0
1062 354 2 4.0999999999999998e-01 -2.1225348155657535e+00 -8.8713151823420446e+00 -1.0053380716185345e+01 1 1 -1
17 6 2 4.0999999999999998e-01 -4.9030185042264858e+00 -1.0380000018118913e+01 -9.6175463431495558e+00 1 -1 0
1060 354 1 -8.1999999999999995e-01 -1.1587209340653306e+00 -8.6110645910814476e+00 -9.9951769054294424e+00 1 1 -1
2240 747 2 4.0999999999999998e-01 -1.2520000283689452e+00 -1.0829919510716010e+01 -1.2616801602884809e+01 3 0 -1
376 126 1 -8.1999999999999995e-01 -4.8357026892434298e+00 -9.2992164318896897e+00 -1.2365561390524375e+01 -1 0 1
2466 822 2 4.0999999999999998e-01 -9.1215093360835375e-01 -7.5875442481282125e+00 -1.4225969155528237e+01 1 0 1
1087 363 1 -8.1999999999999995e-01 -6.0489724099159616e+00 -6.8275504391587898e+00 -1.1992658183523686e+01 -1 -1 0
937 313 1 -8.1999999999999995e-01 -4.5254932850174878e+00 -1.1677097625730354e+01 -1.3909630967641661e+01 1 1 0
150 50 2 4.0999999999999998e-01 -1.0104618031209700e+00 -6.2825737401195774e+00 -1.2502963946727149e+01 0 0 0
377 126 2 4.0999999999999998e-01 -4.6906088131290549e+00 -1.0269962391926125e+01 -1.2557017053693531e+01 -1 0 1
938 313 2 4.0999999999999998e-01 -4.6460521419226701e+00 -1.2355162903003382e+01 -1.3184545979426016e+01 1 1 0
233 78 2 4.0999999999999998e-01 -4.6068397254038196e+00 -9.0600551431757808e+00 -1.0657877095822307e+01 1 1 0
1838 613 2 4.0999999999999998e-01 -2.0333108247465574e+00 -7.1018908029446655e+00 -1.0666763636821173e+01 1 -1 1
2239 747 1 -8.1999999999999995e-01 -9.0165068493047329e-01 -1.0837972728801970e+01 -1.1680187647470753e+01 3 0 -1
1882 628 1 -8.1999999999999995e-01 -4.5123475514960099e-01 -1.3140389073415095e+01 -1.4620619704044717e+01 0 1 0
1241 414 2 4.0999999999999998e-01 -1.8983039994300057e+00 -1.2107806146861758e+01 -1.0860953170891932e+01 0 2 1
2122 708 1 -8.1999999999999995e-01 -1.9656864400534264e+00 -1.0671253466627723e+01 -1.4294107387277773e+01 0 1 1
675 225 2 4.0999999999999998e-01 -3.8913410279284246e+00 -1.3369409939894997e+01 -7.7556228061518144e+00 1 2 0
220 74 1 -8.1999999999999995e-01 -7.0722185407681835e+00 -6.2288789635611792e+00 -7.9717904998380682e+00 1 2 -2
1107 369 2 4.0999999999999998e-01 -4.8244676701822087e-02 -1.3789851323519926e+01 -7.6087610028123578e+00 1 1 0
674 225 2 4.0999999999999998e-01 -4.1829387487156620e+00 -1.4384544380309535e+01 -9.0011131970387623e+00 1 2 0
2464 822 1 -8.1999999999999995e-01 -1.4547373634427174e+00 -8.1662290510267574e+00 -1.4834885523089300e+01 1 0 1
231 77 2 4.0999999999999998e-01 -6.3095178452496974e+00 -6.9871605153014631e+00 -1.4986824610634411e+01 1 -2 2
2231 744 2 4.0999999999999998e-01 -6.0100602024397247e+00 -1.3313877118593490e+01 -7.6629356273429599e+00 2 1 0
471 157 2 4.0999999999999998e-01 -7.1170803010713897e+00 -1.3375760081652679e+01 -1.4751039382207063e+01 0 -1 0
1019 340 2 4.0999999999999998e-01 -1.8149719112395495e+00 -6.0956344585165656e+00 -7.6988153647343518e+00 1 0 0
348 116 2 4.0999999999999998e-01 -9.0881994182938168e+00 -8.1810138150004157e+00 -2.0745721992815902e+00 -1 3 -1
2485 829 1 -8.1999999999999995e-01 -1.2867232120448985e+01 -1.1172027229881323e+01 -4.4275480228332107e+00 1 1 -1
2000 667 2 4.0999999999999998e-01 -1.1676962616668565e+01 -1.1876981359168159e+01 -3.0750565534745604e+00 2 1 0
1510 504 1 -8.1999999999999995e-01 -1.0494498447615165e+01 -1.2063188509854987e+01 -5.4845599246088081e+00 -1 0 1
2307 769 2 4.0999999999999998e-01 -1.0701505709966504e+01 -7.5628020384004238e+00 -3.9821602634307531e+00 1 1 0
2305 769 1 -8.1999999999999995e-01 -1.1148489647614037e+01 -7.5812046030875280e+00 -4.8765437764445139e+00 1 1 0
346 116 1 -8.1999999999999995e-01 -9.2620018498093373e+00 -7.6210471073382626e+00 -2.8846865565641924e+00 -1 3 -1
1511 504 2 4.0999999999999998e-01 -1.0274475261873503e+01 -1.1692899366987071e+01 -6.3870736435147020e+00 -1 0 1
347 116 2 4.0999999999999998e-01 -8.4948670050216464e+00 -6.9958671615469274e+00 -3.0285941523867841e+00 -1 3 -1
973 325 1 -8.1999999999999995e-01 -1.3747307872437085e+01 -8.3592003882576442e+00 -3.2374550971463947e+00 2 0 0
2186 729 2 4.0999999999999998e-01 -1.4302016348376402e+01 -1.2262164603720262e+01 -7.2053280536242026e+00 2 -1 -2
1999 667 1 -8.1999999999999995e-01 -1.0937376389500585e+01 -1.2090403661417987e+01 -2.4366848850810872e+00 2 1 0
2001 667 2 4.0999999999999998e-01 -1.0063581330248631e+01 -1.1807477380378398e+01 -2.8322731972518209e+00 2 1 0
1039 347 1 -8.1999999999999995e-01 -8.5150029172463206e+00 -1.0137682137260349e+01 -4.5430042472349186e+00 2 0 0
1040 347 2 4.0999999999999998e-01 -9.1072061494475420e+00 -1.0861112238152309e+01 -4.8979682571442389e+00 2 0 0
354 118 2 4.0999999999999998e-01 -1.0058077694679579e+01 -6.6848609010599578e+00 -6.1890892142466072e+00 1 0 1
627 209 2 4.0999999999999998e-01 -1.0317934849995611e+01 -1.3574784995084668e+01 -1.4307570813280375e+00 0 -1 1
2306 769 2 4.0999999999999998e-01 -1.1821483706417723e+01 -8.3205876714798421e+00 -4.8976840656850822e+00 1 1 0
1041 347 2 4.0999999999999998e-01 -9.0700771239603846e+00 -9.3427504490823843e+00 -4.2979910594910464e+00 2 0 0
1902 634 2 4.0999999999999998e-01 -9.0261402048587858e+00 -1.0580566837561530e+01 -5.5303638977495950e-01 2 1 -1
975 325 2 4.0999999999999998e-01 -1.4054550789461796e+01 -8.3484725812677176e+00 -2.2858554003957980e+00 2 0 0
1512 504 2 4.0999999999999998e-01 -1.1400100227803458e+01 -1.1744082871186139e+01 -5.2050742905879641e+00 -1 0 1
2487 829 2 4.0999999999999998e-01 -1.3500198334529619e+01 -1.1631799257210041e+01 -5.0504592212758830e+00 1 1 -1
353 118 2 4.0999999999999998e-01 -8.8168997254735384e+00 -6.1832886484701053e+00 -7.1243305648815722e+00 1 0 1
352 118 1 -8.1999999999999995e-01 -9.7575862903842570e+00 -5.9916639889566987e+00 -6.8442519645136475e+00 1 0 1
555 185 2 4.0999999999999998e-01 -1.4731404855800497e+01 -5.5934471439524334e+00 -6.5481718793134966e+00 0 -1 -1
1174 392 1 -8.1999999999999995e-01 -1.4063409803053396e+01 -9.3424267838757054e+00 -6.7587360167419561e+00 3 1 1
1900 634 1 -8.1999999999999995e-01 -8.8033869457277056e+00 -9.7265361631208460e+00 -1.0232149397727284e+00 2 1 -1
871 291 1 -8.1999999999999995e-01 -1.4807141271481660e+01 -7.5359347317954164e+00 -7.7402308773024231e-01 1 0 -1
974 325 2 4.0999999999999998e-01 -1.3649742831609412e+01 -7.4200251785922946e+00 -3.5668276031791528e+00 2 0 0
2478 826 2 4.0999999999999998e-01 -1.2289120352372628e+01 -6.2181383450413357e+00 -4.2103408699556741e+00 0 1 0
2486 829 2 4.0999999999999998e-01 -1.3293713407884876e+01 -1.0339714313914079e+01 -4.0733953201124802e+00 1 1 -1
1887 629 2 4.0999999999999998e-01 -8.1086136909305466e+00 -1.1913530694819769e+01 -7.4669642177903990e+00 2 1 0
1132 378 1 -8.1999999999999995e-01 -9.1855696687531037e+00 -5.3601592574487835e+00 -4.0995698043959550e-01 2 0 -2
1176 392 2 4.0999999999999998e-01 -1.4130470164599714e+01 -1.0331803393908199e+01 -6.6295384940784512e+00 3 1 1
1515 505 2 4.0999999999999998e-01 -1.1615635299071485e+01 -1.1947795912808969e+01 -9.6540017001311895e-01 1 0 -1
873 291 2 4.0999999999999998e-01 -1.4082362123333686e+01 -6.9187111461299082e+00 -4.6777891176610709e-01 1 0 -1
2477 826 2 4.0999999999999998e-01 -1.3118916252569566e+01 -5.0668688890449243e+00 -5.0182957846391769e+00 0 1 0
1175 392 2 4.0999999999999998e-01 -1.3223924467857637e+01 -9.1276004609234818e+00 -7.2579045455865607e+00 3 1 1
1584 528 2 4.0999999999999998e-01 -1.4360198342102738e+01 -1.4333578538148615e+01 -6.6078385135267030e+00 1 2 1
2017 673 1 -8.1999999999999995e-01 -1.3204487330047447e+01 -1.4316461154455066e+01 -1.6371111737061561e-01 2 0 1
625 209 1 -8.1999999999999995e-01 -9.7041467376179682e+00 -1.4264011665730578e+01 -1.0456780497083678e+00 0 -1 1
1163 388 2 4.0999999999999998e-01 -8.5900873134063502e+00 -1.4972083617289739e+01 -6.1619491189354303e+00 1 3 1
2185 729 1 -8.1999999999999995e-01 -1.4471648923438963e+01 -1.2539021581882004e+01 -6.2594791429323937e+00 2 -1 -2
1901 634 2 4.0999999999999998e-01 -7.8758130278865668e+00 -9.7816612754108014e+00 -1.3928405883286512e+00 2 1 -1
711 237 2 4.0999999999999998e-01 -7.7176896965033013e+00 -1.2814271601121215e+01 -3.6161024210906056e-01 1 1 0
1133 378 2 4.0999999999999998e-01 -1.0085727826651201e+01 -5.0155138217570450e+00 -6.7639660453683881e-01 2 0 -2
2476 826 1 -8.1999999999999995e-01 -1.3033805608017959e+01 -5.5535220360031019e+00 -4.1488246073436557e+00 0 1 0
1164 388 2 4.0999999999999998e-01 -9.8692561878092668e+00 -1.4273184005691522e+01 -5.4257153821461852e+00 1 3 1
1415 472 2 4.0999999999999998e-01 -1.4937325588295302e+01 -7.8541861486864315e+00 -6.6330181020617704e+00 -1 1 2
1929 643 2 4.0999999999999998e-01 -1.2892555546662546e+01 -1.4238276043520049e+01 -3.6173178061148512e+00 1 0 1
626 209 2 4.0999999999999998e-01 -9.6965889305635358e+00 -1.4183992799089435e+01 -4.8885643489663622e-02 0 -1 1
1134 378 2 4.0999999999999998e-01 -8.8303304619185408e+00 -5.9562180922204746e+00 -1.1300779629565429e+00 2 0 -2
1162 388 1 -8.1999999999999995e-01 -9.0776988495985371e+00 -1.4870143602851014e+01 -5.2948283126211848e+00 1 3 1
2019 673 2 4.0999999999999998e-01 -1.2765832617948361e+01 -1.3417785153121885e+01 -1.6803642089262283e-01 2 0 1
1513 505 1 -8.1999999999999995e-01 -1.1945442575782684e+01 -1.1950501454446483e+01 -2.1326562983844610e-02 1 0 -1
1110 370 2 4.0999999999999998e-01 -1.1271831311880820e+01 -7.3476717685349007e+00 -7.4515720362823181e+00 0 -1 0
339 113 2 4.0999999999999998e-01 -1.4827306373262205e+01 -1.1409867826545629e+01 -1.3170621873532795e-02 0 0 1
2230 744 1 -8.1999999999999995e-01 -6.8805067653233607e+00 -1.3305060372540776e+01 -7.1706955052507872e+00 2 1 0
2102 701 2 4.0999999999999998e-01 -4.1806005949919864e+00 -1.4860244807458882e+01 -3.1446959554155800e+00 0 0 -1
1568 523 2 4.0999999999999998e-01 -1.2136466054704176e+00 -1.4960675617839703e+01 -1.3665897881825941e+00 -1 1 0
2232 744 2 4.0999999999999998e-01 -6.7510235589431780e+00 -1.3691831159379229e+01 -6.2576250175110548e+00 2 1 0
1504 502 1 -8.1999999999999995e-01 -7.2888756609272765e+00 -5.7175246923667302e+00 -2.7415127661995573e+00 2 0 0
776 259 2 4.0999999999999998e-01 -2.7758075373543978e+00 -1.1447123666677589e+01 -2.6117391057136210e+00 1 2 0
1036 346 1 -8.1999999999999995e-01 -4.3132900477486444e+00 -8.6537116113281591e+00 -3.2784754103744564e+00 0 0 1
883 295 1 -8.1999999999999995e-01 -5.0440003706441416e-02 -5.4782073803809723e+00 -4.5977653044313822e+00 1 0 -1
1068 356 2 4.0999999999999998e-01 -1.7611320329817879e+00 -1.1890748365792142e+01 -7.3694771032061297e+00 0 1 0
2569 857 1 -8.1999999999999995e-01 -6.2763111569967904e+00 -1.4289505714957990e+01 -4.6771091343071376e+00 0 0 1
2103 701 2 4.0999999999999998e-01 -4.2305942084036676e+00 -1.4820022416591273e+01 -1.5129311022259948e+00 0 0 -1
298 100 1 -8.1999999999999995e-01 -4.4944215792027560e+00 -1.3755700384221893e+01 -7.4761285609545425e-02 2 1 0
535 179 1 -8.1999999999999995e-01 -6.7425946182035723e-01 -1.4263397726731050e+01 -4.7566633017586089e+00 1 0 0
1066 356 1 -8.1999999999999995e-01 -2.7098818941692979e+00 -1.2170684106316834e+01 -7.2226269932580029e+00 0 1 0
710 237 2 4.0999999999999998e-01 -7.1355996997317463e+00 -1.3694632613267338e+01 -1.6077681384863780e+00 1 1 0
393 131 2 4.0999999999999998e-01 -4.2730359619527469e-01 -7.7729511798235791e+00 -1.8741788701115230e+00 1 1 0
1020 340 2 4.0999999999999998e-01 -1.5328476629519976e+00 -5.7125538254604340e+00 -6.1366281489693559e+00 1 0 0
1067 356 2 4.0999999999999998e-01 -3.0645390361725884e+00 -1.1727524207706654e+01 -6.3992906074218627e+00 0 1 0
2130 710 2 4.0999999999999998e-01 -4.1662704777847441e+00 -5.5334438464732489e+00 -1.6289165075823782e+00 0 0 -1
1359 453 2 4.0999999999999998e-01 -4.3861337884531633e+00 -1.0770205816128962e+01 -4.5708175116554557e+00 1 0 1
777 259 2 4.0999999999999998e-01 -1.2549491899134679e+00 -1.1888193215465686e+01 -2.2127135935756712e+00 1 2 0
1569 523 2 4.0999999999999998e-01 -2.5974531988169041e+00 -1.4408755214093757e+01 -6.9783204477397121e-01 -1 1 0
735 245 2 4.0999999999999998e-01 -2.5640232342033773e+00 -8.3244150882187853e+00 -4.7285789238939913e-01 0 2 -1
1357 453 1 -8.1999999999999995e-01 -3.4663370699507698e+00 -1.0858692276714390e+01 -4.9531777603984715e+00 1 0 1
1038 346 2 4.0999999999999998e-01 -4.3835433504435315e+00 -7.8357237126602239e+00 -2.7074977584290316e+00 0 0 1
2129 710 2 4.0999999999999998e-01 -4.3617156514406563e+00 -6.8808873736576501e+00 -7.2726754170784425e-01 0 0 -1
733 245 1 -8.1999999999999995e-01 -1.8597635344614769e+00 -8.6452612373048776e+00 -1.1062069927286871e+00 0 2 -1
1506 502 2 4.0999999999999998e-01 -6.3930194548292913e+00 -5.8597537221381586e+00 -2.3204809322368547e+00 2 0 0
537 179 2 4.0999999999999998e-01 -4.1886578215880732e-01 -1.3307916265317310e+01 -4.6087292143187835e+00 1 0 0
1358 453 2 4.0999999999999998e-01 -3.0243729556350125e+00 -9.9617743677060844e+00 -4.9693393295407304e+00 1 0 1
2128 710 1 -8.1999999999999995e-01 -4.6697696064692717e+00 -6.3933112968209276e+00 -1.5442299227529492e+00 0 0 -1
32 11 2 4.0999999999999998e-01 -2.1297422721867481e+00 -7.6935686495281193e+00 -5.9059898907957127e+00 2 -2 0
734 245 2 4.0999999999999998e-01 -2.0612186191143813e+00 -9.5857166260485318e+00 -1.3800952558206170e+00 0 2 -1
2323 775 1 -8.1999999999999995e-01 -6.0427981139992930e+00 -1.1470262577771416e+01 -4.1242194957393412e+00 0 1 1
139 47 1 -8.1999999999999995e-01 -3.3521169668474098e+00 -1.4599943371476730e+01 -4.9972556833858022e+00 -2 0 1
1567 523 1 -8.1999999999999995e-01 -1.6013085925945969e+00 -1.4320863498718404e+01 -7.0295296249682693e-01 -1 1 0
31 11 1 -8.1999999999999995e-01 -2.2084768306238267e+00 -8.4506341390166320e+00 -5.2573698452263855e+00 2 -2 0
33 11 2 4.0999999999999998e-01 -1.3510761189269331e+00 -8.5469055995193184e+00 -4.7517503527622793e+00 2 -2 0
935 312 2 4.0999999999999998e-01 -6.3333984381977402e+00 -1.1114649584125191e+01 -1.9304278524382461e+00 0 0 0
1018 340 1 -8.1999999999999995e-01 -2.0554085912409263e+00 -6.3040219289556916e+00 -6.7507541541124123e+00 1 0 0
2571 857 2 4.0999999999999998e-01 -5.3209579948514723e+00 -1.4567250145355150e+01 -4.7781713817588738e+00 0 0 1
709 237 1 -8.1999999999999995e-01 -6.9083588267902698e+00 -1.3009569837763390e+01 -9.1559342158050860e-01 1 1 0
741 247 2 4.0999999999999998e-01 -2.8393592540541555e+00 -1.1753691351299224e+01 -2.3144088482663427e-01 0 0 -1
936 312 2 4.0999999999999998e-01 -5.8928456768439172e+00 -9.6779214876845359e+00 -2.5695673814188851e+00 0 0 0
934 312 1 -8.1999999999999995e-01 -6.2265744874436777e+00 -1.0137506106025906e+01 -1.7464864081850031e+00 0 0 0
300 100 2 4.0999999999999998e-01 -5.4274550717183772e+00 -1.3427778827476278e+01 -2.2298821747849829e-01 2 1 0
2325 775 2 4.0999999999999998e-01 -6.1200815255471284e+00 -1.2389814589465779e+01 -4.5095850619592142e+00 0 1 1
2324 775 2 4.0999999999999998e-01 -6.9111934464779274e+00 -1.0987397538675591e+01 -4.2372946110879646e+00 0 1 1
775 259 1 -8.1999999999999995e-01 -2.0969131903661626e+00 -1.1465215751408264e+01 -1.8776884359711676e+00 1 2 0
1037 346 2 4.0999999999999998e-01 -3.7232948130736716e+00 -8.4628912093084541e+00 -4.0630443750154139e+00 0 0 1
141 47 2 4.0999999999999998e-01 -2.5112812228651116e+00 -1.4064880266456090e+01 -4.9150488364108167e+00 -2 0 1
2176 726 1 -8.1999999999999995e-01 -3.6752281247448160e-01 -1.1607884255272031e+01 -4.3725963324766042e+00 0 1 -1
2177 726 2 4.0999999999999998e-01 -1.2007850473008723e+00 -1.1055462927002656e+01 -4.3962583581716874e+00 0 1 -1
536 179 2 4.0999999999999998e-01 -5.3702636527924241e-01 -1.4779816827643115e+01 -3.9113624413896773e+00 1 0 0
885 295 2 4.0999999999999998e-01 -9.2086443687954045e-02 -6.2895323769312306e+00 -4.0146078968808805e+00 1 0 -1
221 74 2 4.0999999999999998e-01 -7.1424683661362645e+00 -5.5050078572270440e+00 -7.2854010628695196e+00 1 2 -2
1473 491 2 4.0999999999999998e-01 -9.9947958861749377e+00 -9.9363111050353812e+00 1.2825269457188835e+00 2 0 -1
1472 491 2 4.0999999999999998e-01 -1.0874656571194894e+01 -1.0793674293768529e+01 2.3584206806712036e+00 2 0 -1
1471 491 1 -8.1999999999999995e-01 -1.0903086978488105e+01 -1.0056472070478090e+01 1.6833059546505762e+00 2 0 -1
1514 505 2 4.0999999999999998e-01 -1.1791026031339262e+01 -1.1051369035561617e+01 3.8827286977757502e-01 1 0 -1
1465 489 1 -8.1999999999999995e-01 -1.3206633840947966e+01 -1.4966682001194412e+01 2.8472339482670375e+00 0 0 0
107 36 2 4.0999999999999998e-01 -1.0606600973937859e+01 -8.6183648715768051e+00 6.1350996408918927e+00 0 0 -1
1675 559 1 -8.1999999999999995e-01 -1.2844411649819932e+01 -9.1326237839336564e+00 3.8823821379240204e+00 1 1 0
1676 559 2 4.0999999999999998e-01 -1.2117751400656594e+01 -9.1235548363269778e+00 4.5693595058983778e+00 1 1 0
562 188 1 -8.1999999999999995e-01 -1.4278942724043722e+01 -6.8750411056304408e+00 3.0964540107042797e+00 0 -1 1
564 188 2 4.0999999999999998e-01 -1.4561927918769502e+01 -6.2194657052356792e+00 3.7965936851636553e+00 0 -1 1
2443 815 1 -8.1999999999999995e-01 -9.8457183673328714e+00 -7.0993021469924900e+00 3.1722259540482352e+00 0 1 1
2341 781 1 -8.1999999999999995e-01 -1.3624119329304163e+01 -1.3173047314645180e+01 5.2197721933790842e+00 1 1 0
681 227 2 4.0999999999999998e-01 -9.9473874371175857e+00 -1.1728900965320429e+01 4.1224657693896081e+00 0 1 0
106 36 1 -8.1999999999999995e-01 -9.8729604627523830e+00 -8.1376821921749674e+00 5.6547133236483997e+00 0 0 -1
767 256 2 4.0999999999999998e-01 -8.3727771061164624e+00 -7.0055110265201321e+00 6.3912106308342231e-01 0 -1 0
679 227 1 -8.1999999999999995e-01 -1.0758656372678717e+01 -1.1931400013121602e+01 3.5739295971857583e+00 0 1 0
2445 815 2 4.0999999999999998e-01 -9.7777836642870497e+00 -7.4155125475890395e+00 4.1185087493463985e+00 0 1 1
680 227 2 4.0999999999999998e-01 -1.1446123077590226e+01 -1.2376928641683367e+01 4.1474703833219255e+00 0 1 0
766 256 1 -8.1999999999999995e-01 -8.3158509600469017e+00 -7.8888239217093226e+00 1.1044951096393749e+00 0 -1 0
768 256 2 4.0999999999999998e-01 -8.5614215466601244e+00 -8.6183510504255985e+00 4.6610612880693658e-01 0 -1 0
197 66 2 4.0999999999999998e-01 -1.2886130181604452e+01 -1.4046995567180861e+01 6.6923479236417389e+00 0 0 -3
2444 815 2 4.0999999999999998e-01 -9.3286313704533708e+00 -7.7146482419944427e+00 2.5772255579801122e+00 0 1 1
2420 807 2 4.0999999999999998e-01 -1.2127292632245302e+01 -1.0413775389269754e+01 7.2254211696121065e+00 1 0 2