2611
Atoms. Timestep: 4998000
O 10.669 0.40739 -14.2975
H 11.1031 0.228479 -13.4145
H 9.94444 1.08669 -14.1811
O 12.0166 -11.7632 3.3387
H 12.7131 -11.1369 2.98833
H 12.1079 -12.6502 2.88601
O 8.38597 3.49966 11.7649
H 9.27334 3.42707 12.2202
H 8.48784 4.02061 10.9174
O 7.00148 -1.6239 -10.8638
H 6.64769 -2.50587 -10.5524
H 6.47037 -1.31097 -11.6512
O -4.64242 -10.6374 7.45704
H -5.58898 -10.3504 7.60425
H -4.37003 -11.2716 8.1807
O 5.69016 3.31794 7.97681
H 6.47548 2.74645 7.7387
H 5.20319 2.91018 8.74923
O 5.04499 -6.10374 1.2569
H 5.27184 -5.17525 0.962842
H 4.35985 -6.49079 0.639792
O -5.33036 -3.84087 -7.53618
H -5.03259 -3.10532 -6.92763
H -4.85615 -3.76061 -8.41295
O 12.5208 6.83552 2.13589
H 13.0447 6.06095 1.78159
H 11.8657 7.13923 1.444
O 5.91186 10.5726 12.3707
H 6.77217 10.0668 12.4351
H 5.18269 10.047 12.8091
O -1.9104 -14.9936 6.64931
H -1.4825 -14.8858 7.5467
H -2.89615 -14.846 6.73017
O -7.38063 -14.8877 4.67554
H -6.72188 -14.1698 4.45011
H -7.76356 14.949 3.83249
O 4.73026 1.32634 -10.1609
H 4.56705 0.342012 -10.0939
H 4.69201 1.73346 -9.2483
O 5.90651 13.2178 -0.335439
H 6.00735 13.0198 -1.31045
H 6.80808 13.3746 0.0678339
O 7.08234 -9.3157 -4.88201
H 7.72375 -8.70683 -5.34882
H 7.10362 -10.2171 -5.31447
O 11.0306 -11.5639 -2.47575
H 10.2798 -12.0391 -2.01689
H 11.869 -12.1018 -2.38729
O 7.77782 -7.277 -8.58717
H 7.22946 -7.44171 -7.76729
H 7.66932 -6.32552 -8.87515
O 5.11506 6.032 -3.1176
H 5.86973 5.95291 -3.76895
H 4.60792 6.87525 -3.29583
O -10.0902 -0.96802 4.51995
H -10.61 -1.75069 4.86247
H -9.82308 -1.13491 3.57083
O -10.259 3.61933 -12.5615
H -10.7012 2.72297 -12.5297
H -10.9207 4.32648 -12.3123
O -3.39454 -1.6186 -14.7033
H -3.43308 -2.15749 -13.8618
H -2.56463 -1.85127 15.0039
O -13.7159 -2.47333 -8.08448
H -13.0033 -2.2533 -7.41821
H -13.3292 -2.44895 -9.00638
O 3.42604 5.97618 10.6205
H 2.96097 5.24335 10.1238
H 2.86296 6.26308 11.3955
O 6.8803 -10.21 -2.50367
H 6.91919 -9.94063 -3.46594
H 6.82471 -9.39229 -1.93065
O -0.167172 13.802 -4.95683
H 0.612751 14.3688 -4.6913
H -0.910546 14.388 -5.27945
O 5.6182 14.5323 -7.12774
H 5.043 13.7965 -6.77034
H 6.54066 14.4472 -6.75112
O -14.0266 -1.48911 3.09636
H -13.533 -1.43797 3.96454
H -13.3969 -1.76642 2.3707
O -13.5667 -14.2055 -4.94702
H -12.9971 -13.5878 -5.48916
H -14.0862 -13.6769 -4.27565
O 10.6879 2.52216 -9.66489
H 9.76088 2.665 -10.0116
H 10.6667 2.47535 -8.6662
O 10.2479 11.1042 -12.3144
H 9.78732 11.1255 -13.2018
H 10.1068 11.9756 -11.8446
O 3.9493 -10.6685 0.991906
H 4.51801 -11.1575 1.65329
H 4.05933 -9.68308 1.12197
O 1.26696 10.8932 -9.85716
H 0.56818 10.179 -9.81759
H 0.890164 11.7037 -10.3057
O -9.47792 -4.54964 5.96448
H -9.77091 -3.79361 6.54982
H -8.5351 -4.79763 6.18726
O 14.135 -6.53139 -8.13679
H 13.9607 -5.62529 -7.75123
H 14.5861 -7.10385 -7.45208
O 11.9655 1.32011 6.83024
H 12.0979 1.93751 7.6057
H 11.8532 0.384357 7.16459
O 12.8798 -5.58601 -11.608
H 13.5691 -6.24257 -11.3017
H 13.098 -4.68 -11.2453
O -9.00142 -9.44993 -9.35219
H -9.66909 -8.72333 -9.18999
H -8.43071 -9.20901 -10.1372
O -10.9715 -11.9107 5.40066
H -10.6353 -11.5171 4.54506
H -11.9645 -11.8028 5.44971
O 7.92046 5.09114 9.55388
H 7.03856 4.8039 9.18
H 8.62507 5.00512 8.84949
O -11.0942 -4.25917 -0.346973
H -12.0834 -4.39806 -0.299536
H -10.7402 -4.06814 0.568554
O -1.49792 12.1958 -0.199812
H -1.483 13.191 -0.102871
H -1.17378 11.9448 -1.11195
O 3.74844 -7.1311 -12.6466
H 3.67068 -6.14697 -12.8062
H 4.58343 -7.32 -12.1297
O 12.558 -11.4352 -12.0434
H 11.7128 -11.0386 -11.685
H 13.272 -11.3853 -11.345
O -14.7588 15.0692 14.7505
H -14.711 -14.7985 13.8137
H 14.4998 15.0257 15.0415
O -12.8896 1.92371 12.8517
H -12.9711 2.856 13.2041
H -12.7628 1.95212 11.8601
O -1.3509 -2.50625 4.8392
H -1.86643 -2.30455 5.67202
H -0.656892 -1.80032 4.6976
O 11.2158 14.4275 -3.61574
H 11.4681 -15.006 -4.18721
H 11.8011 14.4046 -2.80526
O -7.32767 -8.75516 5.24043
H -7.19442 -7.81591 5.55679
H -6.78492 -8.90893 4.41471
O -12.2631 1.60515 -12.6716
H -12.555 1.33527 -13.5892
H -13.0426 1.55953 -12.0469
O -2.74782 5.82323 9.80175
H -3.4173 5.57734 10.5027
H -2.78304 6.80919 9.63847
O 9.99177 -11.2238 -7.81519
H 9.49262 -11.3358 -6.95592
H 9.42266 -10.7246 -8.46865
O 8.99352 -2.03837 -13.6732
H 8.35073 -2.66659 -13.2348
H 9.51172 -1.54867 -12.972
O 11.5525 -2.39874 -7.51926
H 11.8653 -1.48593 -7.25662
H 11.3225 -2.40508 -8.49245
O -3.28971 -7.28628 0.689957
H -2.47458 -7.81532 0.45394
H -3.01578 -6.42617 1.12033
O 9.09835 -2.54853 6.39903
H 9.10797 -2.21533 5.4562
H 8.23582 -2.29115 6.83472
O 2.94351 10.0316 0.02496
H 3.65132 9.97213 0.728874
H 2.48693 10.9193 0.0855673
O -5.79863 -2.75208 4.40696
H -6.43299 -1.98691 4.29674
H -5.14552 -2.75534 3.64968
O -4.92167 8.72961 9.04532
H -4.20283 9.33469 8.70298
H -5.27553 9.08793 9.90928
O 4.97878 8.98358 8.23016
H 4.40795 8.17667 8.07821
H 4.64153 9.74063 7.67054
O -14.3981 -14.6587 5.48814
H -14.3536 -13.6742 5.65808
H 15.0325 -15.0457 5.97392
O 12.8116 5.49652 -11.4357
H 11.8347 5.52282 -11.6479
H 13.2986 5.01772 -12.1662
O 5.19979 -12.4748 10.3463
H 5.63849 -13.2607 10.7822
H 4.2679 -12.7195 10.0785
O -1.42693 -15.0887 -10.5455
H -0.671857 14.5069 -10.3286
H -1.12075 -14.4106 -11.2136
O -0.284639 10.361 12.6459
H -0.304246 11.3555 12.7485
H -0.0302125 10.1276 11.7074
O 9.51594 9.05129 -6.77369
H 9.36534 9.60022 -5.95148
H 8.7768 8.38453 -6.86932
O -14.6781 1.91804 -11.2445
H 14.9038 2.32215 -11.9054
H -14.9707 2.15163 -10.3172
O -0.671768 -0.774766 -9.77513
H -0.548115 -1.68384 -9.37723
H -0.595755 -0.833447 -10.7705
O 11.7214 -9.62962 4.89709
H 10.9937 -9.05917 4.51609
H 11.735 -10.5114 4.42563
O -11.6264 6.72846 7.95055
H -11.3411 6.34464 7.07228
H -10.9531 7.40273 8.25406
O 2.04695 2.57227 5.31845
H 2.5762 1.85765 5.77589
H 1.39718 2.15203 4.68502
O 1.7853 1.21353 10.5742
H 1.72349 2.15089 10.9171
H 1.36835 0.588895 11.2345
O 1.3245 -14.3372 10.5255
H 1.04224 -14.2007 11.4751
H 2.24251 -14.7332 10.5043
O 11.5042 -13.929 6.913
H 10.5345 -13.8444 6.68406
H 11.6059 -14.023 7.90339
O -9.33699 8.58529 -1.65635
H -9.13123 9.44718 -1.19283
H -10.2247 8.65519 -2.1114
O -7.68304 0.361144 8.50372
H -8.35788 0.343206 7.76596
H -8.15225 0.317827 9.38577
O 6.53184 -9.01187 13.9541
H 7.31682 -9.51005 14.3224
H 6.26217 -9.41445 13.0793
O 8.79283 -5.38962 -6.16776
H 8.09583 -5.33621 -5.45265
H 8.56163 -4.75652 -6.90651
O 8.90579 -13.8305 -8.81062
H 9.42061 -12.9739 -8.84468
H 9.09929 -14.3685 -9.63107
O -5.33194 -13.3393 3.86116
H -4.82576 -12.6157 4.33041
H -4.78703 -13.686 3.09768
O -10.5006 -2.7382 14.1647
H -10.3462 -3.16898 13.2755
H -10.8166 -3.42622 14.818
O 0.715998 -11.6569 9.40368
H 0.868896 -12.4167 10.0356
H 1.11735 -11.8769 8.51456
O 13.6043 5.4143 8.62983
H 13.0236 5.17081 7.85299
H 14.0594 4.59382 8.97587
O -3.29952 -14.1499 2.09776
H -2.82899 -14.1617 1.21544
H -2.63012 -14.0297 2.83091
O -2.75444 -11.7142 -5.58541
H -3.31361 -12.2549 -6.21396
H -1.90921 -12.2084 -5.38196
O 9.30472 2.85499 5.29935
H 10.0889 3.32296 4.89187
H 9.02944 2.09329 4.71278
O -8.81206 0.156208 -4.56549
H -9.53615 -0.200236 -3.97501
H -8.14774 0.658632 -4.01205
O -2.40994 12.9271 -9.67166
H -2.07204 13.7777 -10.0746
H -2.27213 12.9496 -8.68144
O -6.96004 -8.67309 -11.0613
H -6.54044 -9.54426 -11.3163
H -6.24932 -8.03467 -10.7658
O -14.1008 8.55584 -1.4461
H -14.4325 9.48942 -1.58182
H -13.1635 8.48232 -1.78679
O 10.9716 5.55544 -4.73554
H 10.7492 5.95777 -5.62363
H 11.9056 5.80588 -4.48065
O -4.50079 1.57194 -5.88282
H -5.35686 1.28987 -6.31597
H -4.70274 2.11716 -5.06919
O 12.7942 -6.94868 -0.178204
H 12.6248 -6.29465 -0.915494
H 12.3968 -7.83389 -0.420069
O 4.12477 8.58574 -6.94793
H 4.02944 8.26086 -6.00698
H 4.04743 7.81228 -7.57706
O -2.92499 10.9665 -13.5156
H -3.31108 10.9639 -12.5931
H -1.96106 11.2293 -13.4727
O -7.01174 -1.59982 -8.53285
H -7.60686 -2.11163 -9.15248
H -6.25767 -2.18544 -8.23543
O 11.0982 12.156 -5.30769
H 11.2918 13.0696 -4.94997
H 10.1122 11.9907 -5.28365
O 1.2798 -0.455548 12.8374
H 2.0509 -0.0923187 13.3604
H 1.55923 -1.29482 12.371
O 13.4165 6.8932 -1.35264
H 14.2847 7.30269 -1.63312
H 13.4877 5.89678 -1.39857
O -11.522 -8.25825 -8.46027
H -11.1287 -8.75578 -7.68709
H -11.5593 -7.28249 -8.24451
O -7.86481 9.56054 -11.9103
H -8.49153 9.73921 -11.1518
H -6.94136 9.41929 -11.5535
O 7.01506 9.76027 -11.2876
H 6.13692 9.94967 -10.8482
H 7.71275 10.3726 -10.9157
O -15.0568 -10.7999 12.2094
H 14.3232 -11.3391 12.0944
H -14.9859 -10.1333 11.4673
O -12.9037 -7.81213 10.067
H -12.297 -8.3922 9.52345
H -13.8227 -8.20635 10.0751
O 13.7124 -2.6272 6.89932
H 13.0612 -2.84503 6.17241
H 14.1173 -1.72933 6.72612
O -14.1443 -4.34763 6.50495
H -13.5596 -3.7804 5.92493
H -15.029 -3.89786 6.62767
O 8.76996 -11.0589 5.91698
H 8.00221 -10.4497 5.71839
H 9.18784 -10.7959 6.78662
O 11.3645 13.8947 4.26463
H 11.7586 13.6828 5.15898
H 11.6667 13.2138 3.59749
O -14.5827 6.23195 -6.33479
H -14.8968 5.51975 -5.70698
H 14.9575 6.97001 -6.36568
O -5.99578 14.7725 14.2913
H -5.96458 -14.448 14.398
H -6.75571 14.4035 14.8265
O 2.46019 13.2033 5.45085
H 2.19028 12.9187 4.53099
H 1.75324 12.9328 6.10436
O -6.66362 -14.7668 -11.0586
H -7.00171 -13.9706 -11.5604
H -7.34132 14.7135 -11.1024
O -1.26704 -11.1332 -10.7757
H -0.923267 -11.5413 -9.93
H -1.22655 -11.8085 -11.5122
O -6.66014 12.0091 1.9409
H -6.23831 11.3484 2.56187
H -6.48128 11.7387 0.994903
O -11.9197 1.16535 -2.19037
H -11.4269 0.295343 -2.1737
H -12.9043 0.990607 -2.19983
O -10.1624 7.46098 11.572
H -9.87134 6.59283 11.17
H -11.1563 7.46063 11.6824
O -4.81733 4.02424 -4.41938
H -4.02821 4.54583 -4.74381
H -5.09332 4.36237 -3.51964
O 11.9278 -14.3638 2.62999
H 11.6378 15.0562 3.16387
H 12.9259 -14.3033 2.6378
O 7.56553 -1.69914 -0.0587063
H 7.45182 -1.18398 -0.908244
H 8.48943 -1.55657 0.296437
O 12.5748 13.7425 -1.37616
H 13.5436 13.865 -1.59197
H 12.3308 12.7778 -1.4748
O -13.6097 -5.11206 9.24407
H -13.6349 -6.11168 9.23173
H -13.707 -4.76464 8.31141
O -6.49764 -11.4451 -11.779
H -7.42235 -11.7498 -12.0073
H -5.83112 -12.0062 -12.2699
O -14.5774 11.377 -6.40365
H -14.4616 12.3076 -6.05631
H 14.7183 11.2755 -6.78532
O -5.75946 -4.27082 -12.6019
H -5.73535 -4.36277 -13.5974
H -6.54856 -3.71639 -12.3374
O 7.43468 10.0115 -0.918514
H 7.44879 9.97082 0.0805754
H 7.90101 10.8414 -1.22492
O 6.42889 9.55328 5.16538
H 6.71744 8.92236 4.44516
H 5.80078 10.2309 4.7829
O 6.69681 -9.21876 5.33449
H 7.18653 -8.59913 5.9479
H 6.09669 -8.68903 4.73509
O -13.6822 9.49716 9.75627
H -13.7137 10.1152 8.9707
H -14.0729 8.61283 9.50054
O 9.39336 -4.85609 -11.6607
H 9.61134 -5.67527 -11.1302
H 8.40717 -4.81569 -11.8214
O -1.00092 -6.8361 -10.0015
H -0.643061 -7.56389 -10.5866
H -1.91718 -7.08255 -9.68567
O -1.02843 -4.88136 8.80757
H -1.13256 -3.99167 9.25214
H -0.407605 -4.79405 8.02848
O -9.66668 6.61065 5.51755
H -9.18382 6.48092 4.6515
H -9.55818 7.55727 5.82113
O -5.60291 -6.43988 -10.6734
H -4.89643 -6.00433 -10.1155
H -5.82074 -5.853 -11.4532
O -0.202991 -11.9109 -8.34544
H -0.141266 -11.77 -7.35734
H 0.630748 -11.574 -8.78293
O -4.29279 14.2913 0.0476916
H -3.97451 13.3996 -0.274383
H -3.95511 14.4505 0.9754
O -0.896314 11.2036 -2.69571
H -0.463798 11.2662 -3.59518
H -0.814561 10.2685 -2.35085
O -3.89581 13.0175 14.4484
H -4.53786 13.7794 14.534
H -4.10338 12.3273 -15.0727
O -3.88134 -10.0991 -11.0297
H -2.91868 -10.3597 -11.1029
H -4.3761 -10.7941 -10.508
O -12.9262 -2.04132 -13.3935
H -13.5005 -1.9842 -14.2101
H -13.1481 -2.87485 -12.8875
O -10.524 14.724 -9.8293
H -10.9465 14.3302 -10.6456
H -10.0682 -14.6334 -10.0703
O 8.3925 12.0216 -10.3192
H 7.84985 12.8026 -10.6285
H 9.24727 12.3484 -9.91598
O -0.665423 -1.87052 9.05756
H -0.837335 -1.13185 9.70937
H -1.44034 -1.94862 8.43031
O -7.20708 -0.229908 4.91865
H -7.04434 0.529846 4.2891
H -8.17031 -0.495639 4.87843
O -8.48453 -14.152 10.9977
H -8.16972 -13.9101 11.9156
H -9.45677 -14.384 11.0292
O 13.5106 -3.26242 -10.405
H 14.2132 -3.55058 -9.75435
H 13.5764 -2.27536 -10.5512
O -2.80381 -7.01254 8.79548
H -2.62007 -7.77885 8.17981
H -2.17509 -6.26232 8.59074
O -3.62762 -9.38407 -6.8453
H -3.3695 -10.2827 -6.49041
H -4.5216 -9.12541 -6.47936
O -3.71943 7.91422 4.90499
H -4.59932 7.59074 5.25311
H -3.25953 7.1709 4.41919
O 4.80819 11.4263 4.22267
H 4.77533 11.6021 3.23877
H 3.95492 11.7326 4.64469
O -1.12278 -7.32569 12.2287
H -0.331005 -7.929 12.133
H -1.96244 -7.86522 12.166
O -10.8476 -4.55784 9.52799
H -11.8068 -4.80245 9.67024
H -10.3505 -5.35018 9.17429
O 10.8863 -3.18182 -10.1159
H 10.3206 -3.60399 -10.8243
H 11.8432 -3.43503 -10.2586
O 13.1414 6.92758 4.94819
H 13.0619 6.96923 3.95222
H 14.0549 6.60515 5.19643
O 12.2406 12.259 1.7622
H 13.0785 12.8003 1.69142
H 12.4716 11.3176 2.00787
O -2.16403 3.56913 11.7069
H -1.90557 2.95517 12.4528
H -2.61458 3.04469 10.9845
O -9.80431 5.69409 -9.57486
H -9.79364 6.03413 -10.5152
H -9.58612 4.71818 -9.57081
O 12.9401 9.86772 2.64251
H 12.2966 9.68643 3.38616
H 13.1726 9.00885 2.18607
O 4.49632 -7.6222 4.6831
H 4.56563 -6.7317 5.13283
H 3.86728 -8.20651 5.19586
O -4.21439 -0.0762184 -11.3918
H -3.78175 0.699743 -11.8509
H -3.91438 -0.927617 -11.8221
O 12.8617 10.3711 9.06635
H 13.3966 9.64917 8.62723
H 11.8873 10.1635 8.97987
O -10.0621 -2.19173 -12.7128
H -10.905 -2.27005 -13.2452
H -9.28876 -2.05298 -13.3315
O -6.49398 9.62608 -14.297
H -6.94803 9.86711 -13.4392
H -6.0527 10.4376 -14.68
O -10.3185 -11.9876 8.04715
H -10.5448 -12.0158 7.0735
H -9.326 -12.0353 8.16016
O -4.31754 11.5699 -7.82012
H -4.30962 12.5581 -7.97315
H -5.14916 11.1783 -8.21392
O 14.4003 -11.2501 8.38258
H 13.4996 -11.152 8.80577
H 14.2959 -11.6139 7.45694
O 5.29058 6.18146 -8.99673
H 5.88053 6.61169 -8.31344
H 5.23421 5.19926 -8.81744
O -6.17576 -6.31633 3.62419
H -5.2156 -6.11829 3.82147
H -6.75244 -5.60652 4.02872
O -1.11955 -8.49763 -0.311267
H -0.923306 -9.45559 -0.1019
H -0.798905 -8.28576 -1.23448
O 2.61223 -12.9918 -7.93758
H 1.90857 -13.4741 -7.41573
H 2.17954 -12.4447 -8.65413
O -2.50118 -4.99267 -1.74385
H -3.01833 -4.17199 -1.98692
H -2.81486 -5.76153 -2.30106
O -11.6625 -2.81043 -10.1075
H -11.9158 -1.97628 -10.5975
H -10.6847 -2.79062 -9.89886
O 2.54663 8.33777 -14.2082
H 2.98595 7.5678 -14.671
H 2.19581 8.03739 -13.3212
O -14.5313 11.2795 14.4315
H -14.1262 12.1388 14.119
H -14.3256 10.5552 13.7734
O -0.294923 8.29051 -12.7272
H 0.187765 8.79216 -13.4451
H 0.367976 7.91625 -12.0788
O 10.7552 -9.58052 14.9862
H 10.3867 -10.4895 14.7912
H 10.2691 -9.1838 -14.4494
O -13.1557 5.48097 9.93134
H -12.9852 5.77516 10.8718
H -12.4561 5.86615 9.32956
O -9.59429 -4.0197 -2.67016
H -8.78316 -4.51105 -2.35287
H -10.1982 -3.83716 -1.89424
O 8.0768 -10.1127 -9.31114
H 7.38849 -10.4004 -9.97711
H 7.95351 -9.14256 -9.10228
O 2.8532 3.33821 -14.1289
H 2.40591 4.22623 -14.0222
H 2.23052 2.70435 -14.5878
O -12.9473 12.8687 12.657
H -12.9505 12.5738 11.7014
H -12.0179 12.8082 13.0213
O 9.5168 -8.06187 -5.37779
H 9.23887 -7.29304 -5.95372
H 10.5076 -8.18308 -5.43897
O -14.3697 -6.19861 2.94268
H -15.0473 -6.87939 3.22086
H -13.5246 -6.66032 2.67306
O -8.22212 14.25 2.04791
H -7.89015 14.7957 1.27845
H -7.73466 13.3772 2.07243
O 3.84213 -1.13731 -10.851
H 3.02572 -1.54496 -11.26
H 4.35186 -0.637643 -11.5513
O -0.572106 -4.60033 12.5533
H -1.46938 -4.16082 12.5953
H -0.677912 -5.54511 12.2431
O 8.15636 1.91432 7.52659
H 8.70912 2.32632 6.8022
H 8.73682 1.33799 8.10188
O -2.28299 -12.2222 9.69883
H -2.46682 -13.0177 10.2762
H -1.29504 -12.0895 9.61897
O -4.47653 -1.74187 -6.11498
H -3.59638 -1.39276 -6.43666
H -5.17888 -1.04107 -6.23991
O 3.19706 -4.91938 -8.6315
H 3.13318 -5.67984 -9.27777
H 2.35716 -4.37796 -8.66981
O 4.97242 3.41421 -7.82157
H 5.72511 2.84732 -7.48669
H 4.22429 3.40078 -7.15813
O 1.25877 -13.2366 13.0755
H 0.594624 -12.6068 13.4784
H 2.18498 -12.9144 13.2714
O 3.3584 -8.32615 11.8746
H 3.04621 -7.56152 11.3108
H 3.71494 -7.97738 12.7414
O -1.15852 15.0408 -0.303727
H -0.295749 -14.7913 -0.634754
H -1.92249 -14.7092 -0.751758
O 0.419445 -9.73152 7.02687
H 0.448677 -10.5483 6.45064
H -0.311047 -9.82668 7.70316
O -11.7258 5.76181 -3.69626
H -12.5423 5.19163 -3.60517
H -11.2907 5.5824 -4.57861
O -6.98235 8.26109 -3.01751
H -6.92118 8.03056 -3.98867
H -7.94281 8.28258 -2.73987
O 12.745 -0.315987 -6.36394
H 12.5888 0.462709 -5.75627
H 13.5051 -0.11049 -6.98039
O 4.81684 14.5626 2.24595
H 5.37769 13.906 1.74156
H 5.12926 14.6082 3.19482
O -13.3513 1.98474 2.47104
H -13.9156 1.40417 1.88405
H -13.5876 1.82033 3.42871
O -9.2669 14.1618 6.82802
H -9.88727 14.7369 6.29473
H -8.34468 14.5472 6.79586
O -5.83967 6.20728 8.19019
H -5.42293 7.07667 8.45574
H -6.39948 5.86213 8.94353
O 6.71598 9.88229 -14.3928
H 6.79702 8.91645 -14.639
H 7.05865 10.0192 -13.4633
O 0.690434 -6.76812 1.27054
H 0.92663 -6.66525 2.2368
H 0.040096 -7.52037 1.16464
O -5.8246 -3.38388 14.6908
H -5.27987 -4.01241 14.1356
H -5.44706 -2.46084 14.6166
O -0.739467 3.81474 9.02569
H -1.00331 4.69386 9.42262
H -1.44497 3.51351 8.38416
O -14.8695 13.7816 -1.09986
H -14.8461 14.6506 -0.605607
H -13.9778 13.3342 -1.03011
O 9.99884 -7.82729 9.87513
H 9.2959 -8.53774 9.90941
H 10.7323 -8.11354 9.25852
O -0.185949 -11.0384 13.7484
H -0.717018 -10.6112 14.4802
H 0.422805 -10.3593 13.3383
O 4.53715 -1.7378 -6.11156
H 3.94927 -1.60811 -6.91007
H 4.91871 -0.85674 -5.83195
O 2.76873 -9.44449 -5.19124
H 2.65908 -8.66357 -4.57629
H 3.44348 -10.0766 -4.81024
O -11.6824 -7.1282 2.62352
H -12.0108 -7.83627 1.99838
H -11.6339 -7.49885 3.55104
O 13.2622 1.72394 2.84853
H 12.782 1.14 3.50314
H 13.7842 1.15407 2.21385
O 14.6397 -14.4066 3.01087
H 15.024 -13.5794 2.60082
H -14.8703 -14.8704 3.54823
O 9.94564 10.8148 5.49994
H 9.66665 11.4664 4.79445
H 10.1369 9.92847 5.07822
O -3.90198 -2.67652 -9.35692
H -3.93573 -2.07071 -10.1518
H -2.98712 -3.07262 -9.27831
O -10.426 13.4482 0.197626
H -10.0798 14.0068 -0.556098
H -10.0244 13.763 1.05765
O -9.88902 -11.4232 12.8121
H -10.8142 -11.6031 12.4779
H -9.90143 -10.625 13.4143
O -10.4331 -0.992056 -2.67343
H -10.9367 -1.55199 -3.3314
H -9.89159 -1.58459 -2.07701
O -10.4916 0.654712 -6.68036
H -9.79495 0.631167 -5.96333
H -10.8695 -0.262282 -6.80815
O 8.88207 12.1221 -14.7833
H 9.51375 12.2225 14.6623
H 8.23091 11.3892 -14.9806
O -10.0187 -7.70259 -4.1948
H -9.08461 -7.48319 -3.91311
H -10.6556 -7.44206 -3.46915
O 11.7233 1.72575 -4.9698
H 12.4759 2.38407 -4.9858
H 10.981 2.08178 -4.40206
O -2.25967 -10.1659 11.5679
H -1.5664 -10.4051 12.2477
H -2.35338 -10.9133 10.9102
O -7.42995 -11.8833 -9.13869
H -8.1348 -11.1794 -9.22712
H -6.71099 -11.7218 -9.81474
O 14.4576 -4.29387 -14.3698
H 14.2697 -3.54483 -15.0052
H 14.8301 -5.07304 -14.8739
O 13.803 1.60134 9.74377
H 14.5323 1.94247 9.15071
H 12.9708 2.13381 9.58871
O -0.0704748 -8.89536 -11.6049
H 0.922915 -8.89762 -11.7198
H -0.386661 -9.82574 -11.4193
O -6.76015 -4.62807 8.9433
H -7.09584 -3.99231 9.6384
H -6.99066 -5.56426 9.20871
O 13.7864 8.96824 -14.3626
H 13.6441 9.82986 -14.8499
H 13.414 9.04304 -13.4376
O 14.6672 9.77302 5.91569
H 15.0136 8.99149 5.39677
H 14.5226 10.5458 5.29766
O 12.1957 12.7639 12.4895
H 11.274 12.3762 12.5071
H 12.7796 12.2086 11.8972
O 11.7581 3.80553 3.75203
H 12.5723 3.26061 3.55145
H 12.0246 4.75548 3.91505
O 3.93307 -8.04282 14.9093
H 3.73633 -7.61678 -14.4219
H 4.9142 -8.22222 14.837
O -13.5957 -11.0298 2.84788
H -12.9136 -10.3529 3.12463
H -13.1413 -11.7903 2.38401
O 4.19089 -0.320004 14.4163
H 4.88355 0.380734 14.5872
H 4.50846 -0.933104 13.6929
O 5.77678 -11.7183 3.15743
H 6.25564 -11.0848 3.7652
H 5.3981 -12.4727 3.69368
O -3.54576 12.8989 -2.66201
H -2.69597 12.3724 -2.63576
H -3.75646 13.1447 -3.60816
O -9.53186 6.71605 14.0879
H -8.55303 6.61563 14.2663
H -9.67747 6.88281 13.1126
O -9.74461 -6.28824 -6.72352
H -8.75438 -6.17437 -6.80424
H -9.95387 -6.8092 -5.89597
O 14.296 5.06815 -4.30862
H 13.8614 4.31055 -4.79566
H 14.321 4.86457 -3.32986
O -6.43448 -10.4744 -0.469557
H -6.67349 -10.9622 0.370102
H -5.83837 -9.70255 -0.248481
O 5.73333 -9.99355 11.5257
H 5.52204 -10.9048 11.1722
H 4.96985 -9.37661 11.3346
O 14.8148 7.47372 13.7391
H 14.3621 7.83154 14.5559
H 14.5437 6.52152 13.598
O 6.11831 -7.16122 -6.54342
H 5.48695 -6.38869 -6.61139
H 6.11019 -7.51711 -5.60891
O -13.6484 1.3073 -14.9926
H -13.3307 1.42691 14.2811
H -14.5698 0.91881 -14.9988
O -5.16145 -12.4577 14.4349
H -4.1773 -12.5759 14.5673
H -5.32405 -11.9124 13.6126
O -5.89798 -2.99856 -0.779903
H -5.88446 -2.79708 -1.75932
H -5.02079 -2.74122 -0.374523
O 4.39569 -13.7286 4.72092
H 3.47452 -14.1178 4.71812
H 5.06544 -14.4584 4.85827
O -13.8591 -13.9145 -11.482
H -13.2297 -14.6424 -11.7539
H -14.1252 -13.3856 -12.288
O 11.1319 6.74658 -7.09718
H 10.5528 7.56072 -7.14022
H 12.0932 7.02165 -7.08436
O -2.13112 12.3815 5.8071
H -2.25298 13.3664 5.68334
H -3.02615 11.9372 5.84563
O -8.93285 8.95787 -7.50283
H -8.67703 8.06253 -7.13819
H -9.77987 8.87434 -8.02781
O 11.5201 8.92478 11.3221
H 10.8489 9.18505 10.628
H 12.3513 9.46767 11.2021
O -7.44047 -9.03102 -14.6231
H -7.16879 -8.07649 -14.7459
H -6.64091 -9.57503 -14.3685
O -9.78642 -11.9915 -2.53795
H -9.18732 -11.2044 -2.68484
H -9.85489 -12.5207 -3.38371
O -9.93611 10.68 -10.2962
H -10.6045 10.9617 -10.9846
H -10.0609 9.70996 -10.0877
O 0.160058 15.0695 14.5848
H 0.715632 -14.4809 14.0842
H 0.758136 14.4067 15.0354
O 12.5271 -6.04328 2.43671
H 13.0336 -5.96952 1.57762
H 12.9445 -6.74814 3.01029
O -2.73786 14.9935 -14.072
H -3.46521 14.662 -13.4711
H -2.26746 14.2147 -14.487
O 8.60375 -5.33345 13.6185
H 8.64589 -5.16261 12.6341
H 9.49928 -5.63855 13.9425
O 0.0908325 11.2437 -5.44414
H 0.0185468 12.2276 -5.28068
H 0.78557 11.072 -6.14264
O -7.3366 12.7983 -10.7496
H -7.27728 12.5355 -9.7866
H -8.13448 12.362 -11.1657
O -9.2029 4.24166 15.1045
H -9.55184 5.15084 14.8772
H -9.40335 4.03764 -14.1516
O -9.23575 8.06094 8.95107
H -8.35907 7.58376 9.01239
H -9.56738 8.26848 9.87138
O -10.9828 -9.62696 -13.44
H -11.8685 -9.16274 -13.4495
H -10.6829 -9.79173 -14.3797
O 2.75782 -7.11567 -9.85418
H 2.97601 -7.78362 -9.14265
H 2.89818 -7.52915 -10.7538
O -2.99963 -3.74132 2.70215
H -2.61227 -2.9787 3.22021
H -2.28355 -4.16555 2.14781
O -3.91806 -13.8986 -10.1679
H -4.64314 -14.5631 -10.3486
H -3.02736 -14.3291 -10.314
O 5.36044 2.09396 -14.669
H 4.51157 2.59843 -14.827
H 6.13221 2.61996 -15.0264
O 2.07218 -0.392721 -14.3868
H 2.99869 -0.458128 -14.7574
H 1.68434 0.50042 -14.6147
O 6.50275 -13.2664 -14.0771
H 7.04924 -14.1035 -14.0522
H 5.85123 -13.3161 -14.8342
O 12.282 -14.9769 -8.48977
H 12.136 -14.0324 -8.19546
H 13.2624 15.0662 -8.58659
O -1.90747 -14.3878 11.2791
H -2.83809 -14.1306 11.5396
H -1.50235 -14.9489 12.0009
O 14.0305 -10.8046 1.87683
H 14.1942 -10.3447 1.00405
H 14.8908 -10.8782 2.38129
O -14.0132 6.80058 -10.5297
H -14.9574 7.11016 -10.417
H -13.7969 6.12671 -9.82317
O -7.45537 -2.96659 11.0389
H -7.02299 -2.10717 11.3118
H -8.44436 -2.89868 11.1706
O -4.40802 -13.1845 -12.7792
H -4.16397 -13.7337 -11.9798
H -3.80315 -13.4173 -13.5407
O 13.0976 11.804 -15.0924
H 12.756 12.1837 14.2622
H 14.0906 11.9145 -15.0504
O 14.1566 4.25485 -1.22739
H 14.1425 3.30638 -1.544
H 14.0913 4.27422 -0.229694
O -2.76977 5.37245 -5.66574
H -2.03668 5.88625 -5.22007
H -2.52331 5.19918 -6.6193
O 15.0152 -8.95493 14.5488
H 14.8878 -9.57604 13.7755
H -14.2477 -8.64804 14.5765
O 6.65362 11.5757 -5.28673
H 7.15374 12.2205 -5.86479
H 7.25146 10.8111 -5.04569
O 0.560812 -14.2399 -6.55311
H -0.242117 -14.3403 -7.14069
H 0.282211 -13.8637 -5.66943
O -6.42897 0.923238 -9.87887
H -5.63584 0.638659 -10.4174
H -6.92531 0.114404 -9.56349
O -10.3614 4.37671 0.948364
H -10.7627 4.01414 0.107206
H -10.2645 5.36898 0.87068
O -3.50316 -6.95616 -3.27672
H -3.9733 -6.27127 -3.83344
H -4.1152 -7.72986 -3.11295
O -7.88594 4.50644 -4.73863
H -8.4641 4.5663 -3.92489
H -6.92625 4.59905 -4.47321
O -6.88806 4.07678 10.0713
H -6.57813 3.52982 9.29364
H -7.88654 4.05088 10.1202
O -0.948806 0.350847 10.6788
H -0.0819959 0.749217 10.3788
H -1.69342 0.990415 10.4876
O 11.0826 -2.97975 -15.0765
H 10.2508 -2.5775 -14.6939
H 11.3323 -3.79258 -14.5502
O -2.6682 8.90586 -11.4403
H -1.94328 8.93919 -10.7523
H -2.26888 8.71022 -12.336
O 8.48559 -13.661 6.60913
H 8.68583 -14.2229 5.80654
H 8.54193 -12.6938 6.3613
O -10.4533 12.3875 3.94785
H -10.2914 13.3459 3.71269
H -9.70965 12.0567 4.52892
O -14.9926 -10.4932 -11.7673
H 14.6161 -9.94402 -12.3432
H -14.332 -10.9752 -12.3429
O -13.4174 -8.65803 -5.67577
H -12.4765 -8.93505 -5.48078
H -13.8965 -9.40573 -6.13561
O 13.5208 -7.4139 4.65724
H 13.1019 -8.3178 4.57044
H 14.1579 -7.41439 5.42806
O -11.771 8.35656 -2.93082
H -12.1681 8.74714 -3.76137
H -11.6683 7.36822 -3.04338
O 1.499 13.517 -8.4844
H 1.515 14.0154 -7.61759
H 1.83352 12.5858 -8.33968
O 14.1067 -3.84927 12.1246
H 14.0205 -4.80395 12.4095
H 14.1225 -3.26037 12.9326
O 4.28631 4.44313 12.7218
H 4.15671 4.93275 11.8595
H 3.52976 3.80372 12.859
O 11.6013 3.02502 9.09674
H 10.9066 2.35896 9.3684
H 11.1668 3.77543 8.59858
O -0.166955 -9.63874 2.67279
H -0.421689 -10.2963 1.96372
H 0.471042 -10.0682 3.31196
O 14.2147 13.0479 8.72396
H 13.7508 12.4577 9.38468
H -15.0911 12.679 8.52776
O -12.0923 9.99016 4.99649
H -11.2514 9.70757 5.45803
H -11.9327 10.8486 4.50897
O -0.331494 4.47126 -11.3962
H 0.63481 4.36198 -11.163
H -0.890582 3.94554 -10.755
O 10.875 7.58623 13.7715
H 11.5101 7.05471 14.332
H 11.385 8.26339 13.241
O -6.98693 -11.483 2.01213
H -6.70318 -12.0498 2.78558
H -6.65391 -10.5492 2.14332
O 14.3153 -3.63964 3.2699
H 14.8356 -4.46171 3.50146
H 14.9361 -2.85777 3.21162
O -14.4043 15.089 11.2808
H -14.0804 14.9337 10.3475
H -13.9386 14.4607 11.9041
O -10.1115 -2.74978 11.4608
H -10.8067 -2.03098 11.4538
H -10.2766 -3.38067 10.7027
O -4.44566 -8.59003 10.6324
H -4.08863 -7.75666 10.2105
H -3.68547 -9.14286 10.9738
O 5.89329 1.34459 4.20172
H 5.61248 0.872113 5.03715
H 5.55803 0.841192 3.40534
O 4.80481 14.0835 -13.8656
H 4.6537 13.2889 -14.4536
H 5.0264 13.776 -12.9401
O 3.0501 -7.1955 -0.256682
H 2.42709 -7.15609 0.524566
H 2.57802 -7.60127 -1.03932
O -6.20207 11.0605 -3.10009
H -6.53131 10.1226 -2.99059
H -5.53324 11.0944 -3.84276
O 11.4141 -6.99853 14.3615
H 11.3895 -6.35045 -15.0916
H 11.3312 -7.93052 14.7144
O 0.997735 -4.6095 -10.4628
H 0.684533 -5.54636 -10.3071
H 0.681388 -4.29678 -11.3585
O 9.50078 12.2873 2.59568
H 10.3514 12.1934 2.07826
H 8.85879 12.8559 2.08136
O -12.1579 -3.26214 -3.87016
H -13.1354 -3.46774 -3.82262
H -11.6442 -3.97159 -3.38763
O -8.09975 -6.734 -12.6417
H -7.86254 -6.39285 -13.5513
H -7.69355 -7.63802 -12.5084
O 0.489281 -6.99372 -7.74894
H 0.923633 -6.14099 -7.45871
H 0.249324 -6.93262 -8.71782
O 0.56853 12.8177 7.17798
H 0.330387 13.4703 7.89735
H -0.260436 12.5389 6.69306
O -11.6282 2.91043 -7.51889
H -11.4736 2.98705 -8.50391
H -11.1443 2.10921 -7.16687
O 15.0698 -4.32193 -4.62916
H 14.9882 -3.35894 -4.3722
H 14.8239 -4.4319 -5.59224
O -13.1713 2.99495 -4.83751
H -12.3805 3.24684 -5.39537
H -13.3917 2.03113 -4.9876
O -8.84439 3.22276 -9.16949
H -8.72443 2.39491 -8.62149
H -8.1709 3.23371 -9.90863
O 2.91227 13.1046 -2.69806
H 2.69073 12.8298 -1.76239
H 3.90338 13.199 -2.79191
O 13.5535 -11.3584 -14.6182
H 12.9771 -11.2892 -13.8039
H 13.4122 -10.5544 15.0185
O 8.10868 -7.78307 7.09645
H 7.53955 -7.41875 7.8336
H 8.53612 -7.02709 6.60065
O -12.7381 1.69898 9.90686
H -13.4346 2.29618 9.50894
H -11.9506 1.64982 9.29245
O -1.27888 -3.2962 -8.66715
H -1.76648 -4.02221 -8.18218
H -0.362286 -3.61443 -8.90928
O 11.1109 0.214112 4.41074
H 10.1876 0.380145 4.06438
H 11.2465 0.727924 5.25788
O -11.4504 -15.0592 4.99372
H -12.3835 -14.7173 5.10553
H -10.8871 -14.3554 4.56085
O 2.10792 -3.76818 6.33284
H 2.54193 -4.58999 6.70203
H 1.18323 -3.98997 6.02333
O -7.27666 -3.75643 -5.18597
H -7.85234 -3.11009 -5.68685
H -7.85497 -4.42564 -4.71936
O -1.41284 -13.9485 4.13238
H -0.454463 -14.234 4.13818
H -1.8491 -14.228 4.9877
O 13.6539 -8.47977 -12.9246
H 14.1926 -8.60657 -13.7576
H 12.8845 -7.87 -13.1148
O -11.2136 -14.6021 10.9434
H -11.7469 -14.195 11.685
H -11.6637 -14.4184 10.0695
O -12.5274 6.8143 12.2908
H -13.1906 7.39801 12.7593
H -12.5201 5.9096 12.7168
O 14.5441 0.266975 -8.14985
H 14.8043 -0.406516 -8.84175
H 14.8375 1.17681 -8.4434
O -9.29212 -14.7249 -1.15418
H -8.29265 -14.6918 -1.15718
H -9.65031 -14.0366 -1.78499
O -9.44162 -3.43402 -7.38774
H -9.76932 -4.37565 -7.31036
H -9.04469 -3.2927 -8.29467
O 9.02437 8.0045 -12.3915
H 8.06937 8.09777 -12.1099
H 9.49006 8.88326 -12.2869
O 1.89477 7.01453 -11.6265
H 1.9528 6.02203 -11.5188
H 2.52717 7.45641 -10.9902
O -7.40175 -12.6712 8.47968
H -7.86979 -12.9482 9.31885
H -6.57087 -13.2159 8.36602
O -10.4423 14.8714 13.9953
H -10.2891 14.1701 13.2991
H -9.81906 -14.5766 13.8393
O 14.9994 -9.28398 10.1171
H -15.0178 -9.99446 9.44156
H 14.2042 -8.75442 9.82155
O -11.0704 3.26773 3.26959
H -10.606 3.58464 2.44261
H -11.8929 2.75881 3.01569
O 3.33479 -3.99397 14.4134
H 3.11866 -3.44736 13.6044
H 4.32252 -4.14285 14.461
O -7.38145 -2.10496 1.2817
H -7.77098 -1.19636 1.13087
H -6.88675 -2.39568 0.462682
O -14.2794 6.48132 6.44282
H -14.1309 7.20448 5.76824
H -13.9632 6.79176 7.33931
O -12.1565 5.38194 -12.182
H -12.0225 5.87627 -13.0409
H -12.8489 5.84979 -11.6327
O 12.1518 -2.32997 4.69207
H 12.5924 -2.67409 3.86295
H 11.6283 -1.50628 4.47401
O 5.85247 4.17881 3.94561
H 5.21036 4.39326 4.68164
H 5.92077 3.18658 3.84143
O 5.21197 6.02794 1.44599
H 4.24773 6.1877 1.65753
H 5.61987 5.45846 2.15968
O -0.601247 5.57446 12.8106
H -1.07741 6.02003 13.5687
H -1.18675 4.86349 12.421
O 8.25229 14.979 -14.088
H 8.41526 14.0463 -13.7661
H 9.07191 -14.6826 -13.9371
O 5.74853 13.3088 -3.1875
H 6.54934 13.8954 -3.06686
H 5.90466 12.685 -3.95336
O 0.984872 8.97277 -4.09505
H 0.39176 8.45142 -4.7086
H 1.01317 9.92771 -4.39057
O -6.58049 -14.7768 -0.939269
H -6.09643 -14.2928 -1.66831
H -5.92437 -15.0822 -0.249142
O 10.0052 4.6633 1.70251
H 9.46891 5.44467 2.02177
H 10.6297 4.36966 2.42619
O -0.675736 7.66931 -5.74854
H -1.47041 8.16539 -6.09844
H -0.167958 7.27173 -6.51282
O -5.47536 5.01208 -11.8904
H -5.67059 5.53775 -12.7184
H -6.20314 4.34266 -11.7412
O -11.4304 -5.77493 -10.0583
H -11.5403 -6.26814 -10.9213
H -11.6337 -4.8061 -10.1999
O 9.40859 -10.9631 -11.8898
H 8.55712 -10.9245 -11.3668
H 9.54726 -10.0944 -12.3655
O 12.6765 10.4663 -3.77643