LAMMPS data file via write_data, version 15 May 2015, timestep = 23005000

2611 atoms
6 atom types
1749 bonds
4 bond types
894 angles
3 angle types
44 dihedrals
3 dihedral types
10 impropers
1 improper types

-1.4996659942636059e+01 1.4996659942636059e+01 xlo xhi
-1.4996659942636059e+01 1.4996659942636059e+01 ylo yhi
-1.4996659942636059e+01 1.4996659942636059e+01 zlo zhi

Masses

1 15.9994
2 1.00794
3 12.0107
4 1.00794
5 12.0107
6 12.0107

Bond Coeffs # harmonic

1 1000 1
2 469 1.4
3 367 1.08
4 469 0.7

Angle Coeffs # harmonic

1 100 109.47
2 35 120
3 63 120

Dihedral Coeffs # opls

1 0 7.25 0 0
2 0 7.25 0 0
3 0 7.25 0 0

Improper Coeffs # cvff

1 2.5 -1 2

Atoms # full

2270 757 2 4.0999999999999998e-01 -6.0736457712150109e+00 -1.0926402844774007e+01 -1.1043310896584467e+01 0 0 8
1762 588 1 -8.1999999999999995e-01 -1.2260240918236441e+01 -1.1804750200335221e+01 -1.4402051169748171e+01 -2 -3 -1
2470 824 1 -8.1999999999999995e-01 -8.5525569213289927e+00 -9.2794379733480170e+00 -1.0280423626728474e+01 0 -4 0
220 74 1 -8.1999999999999995e-01 -1.1582078577198594e+01 -9.9806520170623916e+00 -1.0074392918020788e+01 -8 -3 -2
2472 824 2 4.0999999999999998e-01 -8.9791371963741096e+00 -9.5396321475768051e+00 -1.1146645070260274e+01 0 -4 0
2471 824 2 4.0999999999999998e-01 -8.8403103240048431e+00 -9.9141724620271798e+00 -9.5632615900952338e+00 0 -4 0
2165 722 2 4.0999999999999998e-01 -8.9025402087645240e+00 -1.2635431475873229e+01 -1.1050693298176025e+01 2 -4 -1
1536 512 2 4.0999999999999998e-01 -1.1415515416738042e+01 -1.4753561055342534e+01 -1.2277055405344054e+01 1 2 -1
392 131 2 4.0999999999999998e-01 -7.0528410421156966e+00 -1.1305180537311339e+01 -1.2906236229570450e+01 0 4 0
221 74 2 4.0999999999999998e-01 -1.1018884329753092e+01 -1.0727712471998888e+01 -1.0427556144084265e+01 -8 -3 -2
393 131 2 4.0999999999999998e-01 -7.0453763219602354e+00 -9.8237701399352204e+00 -1.3593276408518573e+01 0 4 0
2166 722 2 4.0999999999999998e-01 -9.1323620160526104e+00 -1.1593112602034735e+01 -1.2286577576017800e+01 2 -4 -1
1763 588 2 4.0999999999999998e-01 -1.2613391089318947e+01 -1.2739192144746003e+01 -1.4356067611816339e+01 -2 -3 -1
391 131 1 -8.1999999999999995e-01 -7.6062509540251506e+00 -1.0498450832955738e+01 -1.3113446307777878e+01 0 4 0
1534 512 1 -8.1999999999999995e-01 -1.1706377887243232e+01 -1.3920983032166179e+01 -1.1805648817191898e+01 1 2 -1
1535 512 2 4.0999999999999998e-01 -1.0905050150359097e+01 -1.3363342476954182e+01 -1.1589033416423975e+01 1 2 -1
2051 684 2 4.0999999999999998e-01 -1.2812555313847177e+01 -1.4019959030269252e+01 -1.0411389015349748e+01 -2 2 2
2164 722 1 -8.1999999999999995e-01 -9.5608070981875741e+00 -1.2027012130593782e+01 -1.1494001168303905e+01 2 -4 -1
1462 488 1 -8.1999999999999995e-01 -6.1749147259353201e+00 -1.2616087084941931e+01 -1.4243270512978848e+01 -4 3 -2
2353 785 1 -8.1999999999999995e-01 -6.2794812342801656e+00 -1.2705824871098141e+01 -1.1541221327413368e+01 6 0 -2
222 74 2 4.0999999999999998e-01 -1.2235629171848283e+01 -1.0341665912121648e+01 -9.4091472184015856e+00 -8 -3 -2
2354 785 2 4.0999999999999998e-01 -6.8712742483382296e+00 -1.3199767183188015e+01 -1.0904186522045624e+01 6 0 -2
2002 668 1 -8.1999999999999995e-01 -5.5563137855021782e+00 -8.5162595171205222e+00 -1.4088160132371954e+01 -4 0 7
1695 565 2 4.0999999999999998e-01 -1.2710008569488997e+01 -8.1346038665886802e+00 -1.4070029511816124e+01 0 0 5
162 54 2 4.0999999999999998e-01 -5.4803305567106158e+00 -1.1055388213255121e+01 -8.7673896232100574e+00 -5 1 5
1764 588 2 4.0999999999999998e-01 -1.1264164553525788e+01 -1.1828687850309208e+01 -1.4487316361709210e+01 -2 -3 -1
2050 684 1 -8.1999999999999995e-01 -1.3290869909469954e+01 -1.4240896222327819e+01 -9.5614400438419800e+00 -2 2 2
993 331 2 4.0999999999999998e-01 -1.4606991009571704e+01 -1.2844187282315412e+01 -9.3055589479564400e+00 -6 6 -2
2355 785 2 4.0999999999999998e-01 -6.2261998374266554e+00 -1.3208014419887320e+01 -1.2404342433559266e+01 6 0 -2
2261 754 2 4.0999999999999998e-01 -8.5973731000011817e+00 -1.4312186770745974e+01 -9.3938946973599649e+00 1 1 2
334 112 1 -8.1999999999999995e-01 -1.4236197868717733e+01 -1.3323900084210225e+01 -1.2929695448702773e+01 -1 -4 1
2260 754 1 -8.1999999999999995e-01 -8.1190197378846314e+00 -1.4269541882560224e+01 -1.0271032548832260e+01 1 1 2
1694 565 2 4.0999999999999998e-01 -1.1863230231612647e+01 -9.3724341981715966e+00 -1.3423965089800296e+01 0 0 5
1693 565 1 -8.1999999999999995e-01 -1.2621650889943396e+01 -8.7374318690311341e+00 -1.3277058727695692e+01 0 0 5
972 324 2 4.0999999999999998e-01 -1.4127446284405616e+01 -1.0506360135351088e+01 -1.3574841377528873e+01 -2 -3 0
2271 757 2 4.0999999999999998e-01 -5.8121441361519839e+00 -9.4024461753835169e+00 -1.1568505844763404e+01 0 0 8
365 122 2 4.0999999999999998e-01 -7.4900702731572348e+00 -7.8183661097842103e+00 -1.0164714154101503e+01 -4 2 1
2513 838 2 4.0999999999999998e-01 -1.3846008724078665e+01 -8.4920196840319360e+00 -1.2103734746940146e+01 -3 -2 1
2512 838 1 -8.1999999999999995e-01 -1.4590121045465686e+01 -8.2908996089790747e+00 -1.1466664149326535e+01 -3 -2 1
1519 507 1 -8.1999999999999995e-01 -9.4275190083232410e+00 -1.1380105140691231e+01 -8.2655587533695147e+00 -1 1 1
1386 462 2 4.0999999999999998e-01 -1.0784962808987572e+01 -8.0485252256848412e+00 -1.1013042486678831e+01 -2 7 -2
2023 675 1 -8.1999999999999995e-01 -1.2062102927550464e+01 -1.1263700807977900e+01 -7.5026054713919565e+00 -4 3 1
1521 507 2 4.0999999999999998e-01 -9.2537994947550608e+00 -1.2305943583745108e+01 -7.9299160164302291e+00 -1 1 1
336 112 2 4.0999999999999998e-01 -1.4465530358973012e+01 -1.2395860360868982e+01 -1.3223226140087940e+01 -1 -4 1
335 112 2 4.0999999999999998e-01 -1.3342403006483810e+01 -1.3320343946360643e+01 -1.2481220854477890e+01 -1 -4 1
2269 757 1 -8.1999999999999995e-01 -5.5635513706169242e+00 -1.0082217634343863e+01 -1.0878488638438956e+01 0 0 8
892 298 1 -8.1999999999999995e-01 -9.6398091759128590e+00 -1.4410634750633802e+01 -7.6763812660705018e+00 1 2 6
160 54 1 -8.1999999999999995e-01 -5.2135173956211212e+00 -1.1241240793475702e+01 -7.8217253924566288e+00 -5 1 5
1520 507 2 4.0999999999999998e-01 -1.0307629493989245e+01 -1.1058581811125936e+01 -7.9162170874146760e+00 -1 1 1
1463 488 2 4.0999999999999998e-01 -5.8476410223776636e+00 -1.3475580797776100e+01 -1.4635920219863655e+01 -4 3 -2
2003 668 2 4.0999999999999998e-01 -5.2457728020808485e+00 -8.2211382545218896e+00 -1.4991752457272279e+01 -4 0 7
1350 450 2 4.0999999999999998e-01 -8.7883913448583257e+00 -1.1327383122283289e+01 -1.4465550941502586e+01 2 2 -3
1105 369 1 -8.1999999999999995e-01 -1.0041728777725378e+01 -7.5327464183758588e+00 -1.4411516979552074e+01 -1 3 -1
2004 668 2 4.0999999999999998e-01 -5.0578859565510239e+00 -8.0116877935620927e+00 -1.3383186076258943e+01 -4 0 7
2262 754 2 4.0999999999999998e-01 -8.4708840294865482e+00 -1.4982485786683375e+01 -1.0877591573749928e+01 1 1 2
2052 684 2 4.0999999999999998e-01 -1.2772849005652969e+01 -1.4931991634782980e+01 -9.0574035241498354e+00 -2 2 2
1348 450 1 -8.1999999999999995e-01 -9.5908254897885232e+00 -1.1640657299719088e+01 -1.4973458471224257e+01 2 2 -3
1464 488 2 4.0999999999999998e-01 -6.1783879308748588e+00 -1.1907327102592475e+01 -1.4948719733591888e+01 -4 3 -2
1846 616 1 -8.1999999999999995e-01 -5.1431632708626385e+00 -6.9587740382536847e+00 -8.6004248157201300e+00 -2 0 0
872 291 2 4.0999999999999998e-01 -1.3550548353890022e+01 -6.7311685572455655e+00 -7.9823165833643435e+00 1 7 0
2102 701 2 4.0999999999999998e-01 -1.4184255938362357e+01 -2.4952973917531818e+00 -9.4400793969705585e+00 4 1 0
181 61 1 -8.1999999999999995e-01 -8.8837364868859936e+00 -5.5045377667732609e-01 -1.4117260615808883e+01 -2 1 -4
1737 579 2 4.0999999999999998e-01 -1.2039387336390153e+01 -6.9499315937268111e+00 -9.9626567406237783e+00 -7 -2 -1
1736 579 2 4.0999999999999998e-01 -1.3643738367823104e+01 -7.1576068302997404e+00 -1.0185334638089396e+01 -7 -2 -1
1735 579 1 -8.1999999999999995e-01 -1.2948770757206731e+01 -6.7069886688434899e+00 -9.6250002985398595e+00 -7 -2 -1
1194 398 2 4.0999999999999998e-01 -7.0449153280415215e+00 -2.7079378537935028e-01 -1.3976121864543316e+01 6 1 3
182 61 2 4.0999999999999998e-01 -8.8481742670954660e+00 -1.0852669594734792e+00 -1.3273032246493379e+01 -2 1 -4
1106 369 2 4.0999999999999998e-01 -1.0530284476520633e+01 -6.6869352630744654e+00 -1.4625825571842855e+01 -1 3 -1
884 295 2 4.0999999999999998e-01 -8.9959295739640872e+00 -2.2121507469286374e+00 -1.1453409452981191e+01 -4 0 0
341 114 2 4.0999999999999998e-01 -1.3014320086415619e+01 -1.9555072203885047e+00 -1.2641458549672260e+01 0 0 1
2569 857 1 -8.1999999999999995e-01 -1.0344310976114908e+01 -4.0810258230923484e+00 -8.1915930731314539e+00 3 0 4
1385 462 2 4.0999999999999998e-01 -1.1128033278484423e+01 -7.4721729437004720e+00 -1.2501927096705698e+01 -2 7 -2
1193 398 2 4.0999999999999998e-01 -5.4893322680765095e+00 -5.9996232224467505e-01 -1.4348232314169033e+01 6 1 3
2175 725 2 4.0999999999999998e-01 -1.2694937524096300e+01 -9.3877367398512490e-01 -1.0733855049975833e+01 0 -7 7
1192 398 1 -8.1999999999999995e-01 -6.1043324898329185e+00 -2.6007702298212543e-01 -1.3636709975547541e+01 6 1 3
1228 410 1 -8.1999999999999995e-01 -1.3107109493077962e+01 -3.6623542075046718e+00 -8.3240645103698192e+00 4 -2 -3
70 24 1 -8.1999999999999995e-01 -1.4180537133792621e+01 -1.6900219851808931e+00 -1.4126107558209739e+01 -5 1 -1
1230 410 2 4.0999999999999998e-01 -1.3592963056432946e+01 -4.3439478939050531e+00 -7.7769012095277219e+00 4 -2 -3
1968 656 2 4.0999999999999998e-01 -6.5919905588279040e+00 -1.6353504242011550e+00 -1.0917174954757330e+01 -1 -2 -1
2571 857 2 4.0999999999999998e-01 -1.0213040550203624e+01 -4.6594178503498469e+00 -8.9967278874472925e+00 3 0 4
2103 701 2 4.0999999999999998e-01 -1.4859316954627657e+01 -2.2260455952401053e+00 -1.0902424367218874e+01 4 1 0
1452 484 2 4.0999999999999998e-01 -1.1197102287573296e+01 -4.8094239564219130e+00 -1.3505187830229548e+01 -3 1 3
366 122 2 4.0999999999999998e-01 -6.4576251411603067e+00 -6.6087063460057252e+00 -9.7939891699320007e+00 -4 2 1
1966 656 1 -8.1999999999999995e-01 -5.6857437147706662e+00 -1.6963705976730648e+00 -1.1335510320814056e+01 -1 -2 -1
663 221 2 4.0999999999999998e-01 -8.6094486407734312e+00 -5.4733031280059148e+00 -1.0343819513054527e+01 -1 0 2
2101 701 1 -8.1999999999999995e-01 -1.4901526611087395e+01 -1.9992131281098828e+00 -9.9293998526620566e+00 4 1 0
1661 554 2 4.0999999999999998e-01 -8.8974336753326213e+00 -4.3472011828444028e+00 -1.4120160635334582e+01 -3 3 4
2557 853 1 -8.1999999999999995e-01 -8.6444900744877646e+00 -6.7162059075349134e-01 -8.5125018348866703e+00 4 2 -3
976 326 1 -8.1999999999999995e-01 -1.0252928635540224e+01 -2.2723536335425063e+00 -1.0354308072065235e+01 -4 1 2
662 221 2 4.0999999999999998e-01 -1.0082081962169438e+01 -5.7825799257109143e+00 -1.0978134671624364e+01 -1 0 2
1451 484 2 4.0999999999999998e-01 -1.1112608354215674e+01 -4.0557706972945411e+00 -1.4951398160906882e+01 -3 1 3
978 326 2 4.0999999999999998e-01 -1.1180535599891481e+01 -2.2109161786954861e+00 -1.0722794297408461e+01 -4 1 2
1662 554 2 4.0999999999999998e-01 -7.5155096778999244e+00 -5.0389459268756021e+00 -1.3592494103986326e+01 -3 3 4
1450 484 1 -8.1999999999999995e-01 -1.0596219355343344e+01 -4.5727444155069445e+00 -1.4268688895160260e+01 -3 1 3
375 125 2 4.0999999999999998e-01 -6.8665202905491896e+00 -7.3695921544342822e+00 -1.3704849771864106e+01 1 7 0
2125 709 1 -8.1999999999999995e-01 -1.4605587858156273e+01 -5.4607643425913874e+00 -1.3499361731972289e+01 1 -1 -1
883 295 1 -8.1999999999999995e-01 -8.2430432925965587e+00 -2.0488742902374906e+00 -1.2090994251638502e+01 -4 0 0
661 221 1 -8.1999999999999995e-01 -9.5130869203969741e+00 -5.0899463883550258e+00 -1.0534834782137075e+01 -1 0 2
364 122 1 -8.1999999999999995e-01 -7.2550994376610261e+00 -6.8625434616766157e+00 -1.0341358174149653e+01 -4 2 1
885 295 2 4.0999999999999998e-01 -7.9758258571235601e+00 -2.9121037311483917e+00 -1.2519294497760887e+01 -4 0 0
1229 410 2 4.0999999999999998e-01 -1.2123428701535200e+01 -3.8356858023667897e+00 -8.2756948716716199e+00 4 -2 -3
2416 806 1 -8.1999999999999995e-01 -1.2332726254032703e+01 -5.0469515966994525e+00 -1.2356846699726734e+01 2 -2 6
2558 853 2 4.0999999999999998e-01 -9.1882663051369242e+00 -1.2738741420813540e+00 -9.0969754545437027e+00 4 2 -3
2417 806 2 4.0999999999999998e-01 -1.3215739938676982e+01 -5.2017834827304696e+00 -1.2799932817223276e+01 2 -2 6
2069 690 2 4.0999999999999998e-01 -1.3338784942494000e+01 -6.1414034923761385e+00 -1.4466731518431367e+01 -1 9 1
2418 806 2 4.0999999999999998e-01 -1.2075381941787995e+01 -5.8593294045371742e+00 -1.1833561367359898e+01 2 -2 6
1384 462 1 -8.1999999999999995e-01 -1.0962505877863418e+01 -7.2224172026996110e+00 -1.1547865221410213e+01 -2 7 -2
374 125 2 4.0999999999999998e-01 -7.3400016607276539e+00 -6.8800002269282565e+00 -1.2220675963285725e+01 1 7 0
373 125 1 -8.1999999999999995e-01 -7.4766040607792918e+00 -6.7560158470211817e+00 -1.3203518282102253e+01 1 7 0
977 326 2 4.0999999999999998e-01 -1.0022383555379422e+01 -3.2314523381846509e+00 -1.0190021776096742e+01 -4 1 2
1660 554 1 -8.1999999999999995e-01 -7.9018405364559463e+00 -4.2597658601662829e+00 -1.4086091356753762e+01 -3 3 4
342 114 2 4.0999999999999998e-01 -1.2415925326711639e+01 -3.3364081418912814e+00 -1.2007666005218958e+01 0 0 1
340 114 1 -8.1999999999999995e-01 -1.2618957342883917e+01 -2.3745899803561414e+00 -1.1824103547681005e+01 0 0 1
2559 853 2 4.0999999999999998e-01 -9.1987951980066427e+00 -3.7085331772004437e-01 -7.7364243812683631e+00 4 2 -3
1142 381 2 4.0999999999999998e-01 -7.6665385890801527e+00 -2.5267414724597792e+00 -7.8060550217963849e+00 -1 -7 3
1107 369 2 4.0999999999999998e-01 -9.1559393316226512e+00 -7.3117713758510439e+00 -1.4003401282582400e+01 -1 3 -1
1967 656 2 4.0999999999999998e-01 -5.7332868358253695e+00 -1.3768045658384622e+00 -1.2281886871420202e+01 -1 -2 -1
71 24 2 4.0999999999999998e-01 -1.4393416579084596e+01 -8.8616552490834621e-01 -1.4681542952901108e+01 -5 1 -1
881 294 2 4.0999999999999998e-01 -6.5635570752148489e+00 -7.0397815884441135e+00 -7.5279565701403168e+00 -3 -1 0
510 170 2 4.0999999999999998e-01 -6.6577047458027145e+00 -1.3446911103929411e+01 -3.1826317852237871e+00 -6 0 -2
2077 693 1 -8.1999999999999995e-01 -1.1009185052479555e+01 -1.0301558403659403e+01 -4.8243985370628479e+00 -2 1 -1
435 145 2 4.0999999999999998e-01 -1.3607965426102156e+01 -1.2821327886922258e+01 -2.0706375746643761e+00 2 5 0
1808 603 2 4.0999999999999998e-01 -1.2162321106643313e+01 -1.4614802883156305e+01 -5.5813340870563319e+00 -2 3 0
1297 433 1 -8.1999999999999995e-01 -1.3876758519518290e+01 -9.2209961248198749e+00 -6.9234814577218735e+00 0 4 5
794 265 2 4.0999999999999998e-01 -9.5359496815162217e+00 -1.3896487850628358e+01 -2.7009220353247780e+00 2 -1 5
2078 693 2 4.0999999999999998e-01 -1.1381187843877886e+01 -1.0540794622084668e+01 -5.7212771539591856e+00 -2 1 -1
1806 602 2 4.0999999999999998e-01 -6.6656853979861790e+00 -1.4198453098219089e+01 -5.8865583291093166e+00 3 -5 1
509 170 2 4.0999999999999998e-01 -7.8962455638828226e+00 -1.2459788752168969e+01 -3.5804543604201609e+00 -6 0 -2
1807 603 1 -8.1999999999999995e-01 -1.1759136408089706e+01 -1.3700342233025976e+01 -5.5464744953292193e+00 -2 3 0
433 145 1 -8.1999999999999995e-01 -1.3744719001894364e+01 -1.3744900828993986e+01 -2.4288593225514887e+00 2 5 0
572 191 2 4.0999999999999998e-01 -9.4313735269724610e+00 -1.0794162135912050e+01 -4.0554546866489893e+00 -2 -2 2
573 191 2 4.0999999999999998e-01 -8.5553309724377726e+00 -9.9306681281052995e+00 -2.9814042780869681e+00 -2 -2 2
2079 693 2 4.0999999999999998e-01 -1.1587061757228502e+01 -9.6051696098432657e+00 -4.3988254492221532e+00 -2 1 -1
571 191 1 -8.1999999999999995e-01 -8.5669205469785545e+00 -1.0749957782371805e+01 -3.5546768931169961e+00 -2 -2 2
508 170 1 -8.1999999999999995e-01 -7.6531871750712988e+00 -1.3363684109625281e+01 -3.2284498966435020e+00 -6 0 -2
763 255 1 -8.1999999999999995e-01 -8.5994302273779599e+00 -1.2673052034255193e+01 -4.9825138304945149e-01 -1 3 -1
434 145 2 4.0999999999999998e-01 -1.2994415377322953e+01 -1.4333584759421360e+01 -2.1280154256277939e+00 2 5 0
102 34 2 4.0999999999999998e-01 -1.4422015547991883e+01 -7.8756595839390924e+00 -2.6460741102010417e+00 -3 4 4
1805 602 2 4.0999999999999998e-01 -7.9013408500536917e+00 -1.4436277230415465e+01 -4.8457643910062416e+00 3 -5 1
1804 602 1 -8.1999999999999995e-01 -7.5737983074197039e+00 -1.4602307147943490e+01 -5.7759048466200404e+00 3 -5 1
1287 429 2 4.0999999999999998e-01 -7.6871262627284898e+00 -7.8895926751371093e+00 -2.6522075008475614e+00 -3 -3 4
1285 429 1 -8.1999999999999995e-01 -8.5487418271091649e+00 -8.1822050765787431e+00 -3.0669459346558536e+00 -3 -3 4
1286 429 2 4.0999999999999998e-01 -8.5386865624307706e+00 -7.9668721134164491e+00 -4.0434406667387481e+00 -3 -3 4
2483 828 2 4.0999999999999998e-01 -7.3800463400952090e+00 -1.0383031542633153e+01 -5.4013612101486785e+00 1 -2 0
2482 828 1 -8.1999999999999995e-01 -6.6646740309066459e+00 -9.9154109846092702e+00 -5.9205767979465556e+00 1 -2 0
1541 514 2 4.0999999999999998e-01 -1.4428088918479963e+01 -1.3064965941661079e+01 -4.0710391746107142e+00 -2 3 2
677 226 2 4.0999999999999998e-01 -5.9662762120974211e+00 -9.5197165962742645e+00 -1.2451137097181277e+00 -5 -2 -1
1299 433 2 4.0999999999999998e-01 -1.3538188966612973e+01 -8.2805879030815319e+00 -6.8916322095362741e+00 0 4 5
100 34 1 -8.1999999999999995e-01 -1.3824074878409796e+01 -8.5837739786663008e+00 -3.0216433735670201e+00 -3 4 4
894 298 2 4.0999999999999998e-01 -8.9342210541818421e+00 -1.4606192817167489e+01 -6.9952690772582713e+00 1 2 6
963 321 2 4.0999999999999998e-01 -5.0746853143087911e+00 -1.2445580636488982e+01 -6.5739334745039066e+00 -6 4 -1
795 265 2 4.0999999999999998e-01 -1.1006827377780894e+01 -1.4523733578139739e+01 -2.3696543013992937e+00 2 -1 5
793 265 1 -8.1999999999999995e-01 -1.0381288309400338e+01 -1.4250967174241429e+01 -3.1006198265799831e+00 2 -1 5
676 226 1 -8.1999999999999995e-01 -5.9781672848286718e+00 -1.0448765972631861e+01 -8.7533384338639131e-01 -5 -2 -1
893 298 2 4.0999999999999998e-01 -1.0425129984031191e+01 -1.3982419046662086e+01 -7.2292639466506188e+00 1 2 6
1677 559 2 4.0999999999999998e-01 -1.1214299751583773e+01 -9.1315222095302335e+00 -1.1471841274954784e+00 -3 -4 0
2484 828 2 4.0999999999999998e-01 -5.9142013294853992e+00 -9.6695398960659400e+00 -5.3071038200230003e+00 1 -2 0
1298 433 2 4.0999999999999998e-01 -1.4759099358325408e+01 -9.2736097903546213e+00 -6.4558087157484447e+00 0 4 5
1809 603 2 4.0999999999999998e-01 -1.1285174066756568e+01 -1.3578057665422291e+01 -4.6744552660756540e+00 -2 3 0
101 34 2 4.0999999999999998e-01 -1.2922197966772449e+01 -8.5195060795115687e+00 -2.5944443124361758e+00 -3 4 4
1641 547 2 4.0999999999999998e-01 -1.3823041029122452e+01 -9.6574601409161964e+00 -1.5104595374259056e-01 -5 -6 0
1058 353 2 4.0999999999999998e-01 -1.1658374631542504e+01 -1.1210648683031437e+01 -1.8364040191271158e-01 -2 -1 0
2309 770 2 4.0999999999999998e-01 -1.0095423361097968e+01 -8.8920413591227572e+00 -7.1423504104214146e+00 -2 -1 2
1675 559 1 -8.1999999999999995e-01 -1.1069681135133861e+01 -8.2597930541487408e+00 -1.6153561922116193e+00 -3 -4 0
2310 770 2 4.0999999999999998e-01 -9.1907400819578946e+00 -7.5338356038928493e+00 -7.0833417150813869e+00 -2 -1 2
2308 770 1 -8.1999999999999995e-01 -1.0038468397317246e+01 -7.9643230592658023e+00 -6.7734246333862256e+00 -2 -1 2
1676 559 2 4.0999999999999998e-01 -1.0212999160189895e+01 -8.2959184083334740e+00 -2.1299456341104310e+00 -3 -4 0
764 255 2 4.0999999999999998e-01 -8.0879018893660444e+00 -1.2016435494397383e+01 -1.0525119693775924e+00 -1 3 -1
2024 675 2 4.0999999999999998e-01 -1.2432185655891365e+01 -1.2171319421852694e+01 -7.3044172368154952e+00 -4 3 1
882 294 2 4.0999999999999998e-01 -6.8997018561271179e+00 -8.3405853479540042e+00 -6.5997470353274004e+00 -3 -1 0
786 262 2 4.0999999999999998e-01 -1.4895102415674756e+01 -9.0795477775263489e+00 -4.1528621559177008e+00 -1 -3 -2
2025 675 2 4.0999999999999998e-01 -1.2784253968526540e+01 -1.0579603101449157e+01 -7.4000405155773521e+00 -4 3 1
2501 834 2 4.0999999999999998e-01 -4.9989942736836763e+00 -1.4678009955924137e+01 -3.2684310671128678e+00 1 4 4
678 226 2 4.0999999999999998e-01 -5.0978411250176165e+00 -1.0889072710333831e+01 -1.0518757705897723e+00 -5 -2 -1
765 255 2 4.0999999999999998e-01 -7.9607149811942755e+00 -1.3289032388295233e+01 -3.7141429465391340e-02 -1 3 -1
1057 353 1 -8.1999999999999995e-01 -1.0943710615384745e+01 -1.0529040286257517e+01 -3.4072850376143116e-01 -2 -1 0
161 54 2 4.0999999999999998e-01 -5.7564189410335924e+00 -1.0672068718334231e+01 -7.2042203880760312e+00 -5 1 5
119 40 2 4.0999999999999998e-01 -1.2803169895276561e+01 -1.2956423279771611e+01 -5.5080422928741157e-02 -8 6 -7
530 177 2 4.0999999999999998e-01 -1.0298874291415601e+01 -8.0828937015051103e+00 -9.5648111273458625e-03 -11 -1 1
1318 440 1 -8.1999999999999995e-01 -9.0053380361773563e+00 -1.0279027266525471e+00 -5.5356808707358773e-01 1 3 -2
1046 349 2 4.0999999999999998e-01 -1.0752444827998286e+01 -8.8647381344527965e-01 -3.3214480286414414e+00 -6 2 1
880 294 1 -8.1999999999999995e-01 -7.0891438027559817e+00 -7.3692840036975404e+00 -6.7436109362577952e+00 -3 -1 0
1473 491 2 4.0999999999999998e-01 -1.2640734153594815e+01 -2.1244766193682594e+00 -7.3123258897164547e+00 -2 -4 -2
1721 574 2 4.0999999999999998e-01 -1.3322288534503389e+01 -4.6665353325495040e-01 -5.2939178554123654e+00 -2 1 -3
1397 466 2 4.0999999999999998e-01 -6.2621517320438098e+00 -2.8270343726649703e+00 -5.8224730076683926e+00 -6 2 -1
710 237 2 4.0999999999999998e-01 -6.1095229259611656e+00 -5.0412175444638159e+00 -4.6897145623080512e+00 -4 -7 2
810 270 2 4.0999999999999998e-01 -6.9147818862622472e+00 -2.5855028598893277e+00 -2.2073985056835017e+00 -1 1 4
295 99 1 -8.1999999999999995e-01 -6.0496626942100598e+00 -7.4075853355729366e+00 -2.1150616424841822e+00 -10 0 3
808 270 1 -8.1999999999999995e-01 -5.9161222616488089e+00 -2.6231401260236868e+00 -2.2430880776990332e+00 -1 1 4
1472 491 2 4.0999999999999998e-01 -1.1671959777530352e+01 -1.3319328258827277e+00 -6.2635136483225935e+00 -2 -4 -2
1221 407 2 4.0999999999999998e-01 -1.3452872526443288e+01 -6.0764657390674106e+00 -7.2456648276932611e-01 -5 -3 2
283 95 1 -8.1999999999999995e-01 -8.7718129129784188e+00 -5.0707871239658360e+00 -5.8702281082492895e+00 -5 4 2
709 237 1 -8.1999999999999995e-01 -5.4006242779558598e+00 -5.7158587042833808e+00 -4.4839638573369847e+00 -4 -7 2
285 95 2 4.0999999999999998e-01 -9.3003696862235685e+00 -5.2600387155584158e+00 -5.0426878728631603e+00 -5 4 2
82 28 1 -8.1999999999999995e-01 -1.0351115670197835e+01 -1.8571375006490776e-01 -6.2664237533109333e+00 -1 3 5
873 291 2 4.0999999999999998e-01 -1.4849784721580010e+01 -6.5787547667339901e+00 -7.0048650052981358e+00 1 7 0
2373 791 2 4.0999999999999998e-01 -5.0730127092949573e+00 -7.3686968739164636e+00 -4.7282751910592253e+00 -1 7 -3
284 95 2 4.0999999999999998e-01 -8.0410319527569989e+00 -5.7473484232543601e+00 -5.9609766245108275e+00 -5 4 2
296 99 2 4.0999999999999998e-01 -5.7195657566080254e+00 -6.8351716594267575e+00 -2.8656547094999123e+00 -10 0 3
1047 349 2 4.0999999999999998e-01 -1.1668250139745290e+01 -1.6079322204771653e+00 -4.4648880721553734e+00 -6 2 1
1396 466 1 -8.1999999999999995e-01 -5.6695342043437087e+00 -2.6245357072079578e+00 -5.0428512686982714e+00 -6 2 -1
853 285 1 -8.1999999999999995e-01 -1.4176372170135300e+01 -3.3806004651002031e+00 -2.8635750372454734e+00 -2 1 3
2529 843 2 4.0999999999999998e-01 -8.6047902854373817e+00 -2.0099132486478872e+00 -1.7875704994303341e+00 0 6 3
854 285 2 4.0999999999999998e-01 -1.3405349198800568e+01 -3.9110498715693200e+00 -3.2159361352655349e+00 -2 1 3
1471 491 1 -8.1999999999999995e-01 -1.2552185575247265e+01 -1.7937555877551965e+00 -6.3727546930221717e+00 -2 -4 -2
83 28 2 4.0999999999999998e-01 -9.5118206793358837e+00 -3.5434808818875041e-01 -5.7495507749064920e+00 -1 3 5
2388 796 2 4.0999999999999998e-01 -1.1408521580238148e+01 -6.7117285237491018e+00 -1.1517121129768935e+00 -2 2 -6
297 99 2 4.0999999999999998e-01 -5.9407382509414290e+00 -6.9181565311446498e+00 -1.2498413024281660e+00 -10 0 3
180 60 2 4.0999999999999998e-01 -1.2575176776548545e+01 -6.5815416718522872e+00 -5.7985866746093571e+00 -7 1 1
2528 843 2 4.0999999999999998e-01 -9.5242081289190423e+00 -2.5603089897060958e+00 -3.0198010290414086e+00 0 6 3
2057 686 2 4.0999999999999998e-01 -1.4097889435426884e+01 -2.4692853915570101e+00 -5.7457116357363436e+00 -4 5 0
2172 724 2 4.0999999999999998e-01 -1.1969560720564443e+01 -1.7478797888467454e+00 -1.5502058953114304e+00 0 2 -5
2570 857 2 4.0999999999999998e-01 -1.0035181086155196e+01 -4.5700254758420265e+00 -7.3759158135644807e+00 3 0 4
1143 381 2 4.0999999999999998e-01 -7.9774524883807736e+00 -3.8901859366355342e+00 -6.9628418186264298e+00 -1 -7 3
1931 644 2 4.0999999999999998e-01 -6.3755535863756236e+00 -7.7046260077048956e-01 -4.2228355320519295e+00 -5 -2 3
1417 473 1 -8.1999999999999995e-01 -5.9037541498777273e+00 -6.4648079498253885e-01 -2.9647241559626281e-02 0 -2 -1
2386 796 1 -8.1999999999999995e-01 -1.1578121770093674e+01 -5.7453983572081722e+00 -9.5818414899723692e-01 -2 2 -6
178 60 1 -8.1999999999999995e-01 -1.1686348671674249e+01 -6.3918086354231285e+00 -5.3814568153602487e+00 -7 1 1
1045 349 1 -8.1999999999999995e-01 -1.1085680942993680e+01 -1.7636568814631346e+00 -3.6671573484059063e+00 -6 2 1
1141 381 1 -8.1999999999999995e-01 -7.2623892885851014e+00 -3.2525369692783119e+00 -7.2493723751760113e+00 -1 -7 3
179 60 2 4.0999999999999998e-01 -1.0988781960290300e+01 -6.9687730511505297e+00 -5.8063381025649594e+00 -7 1 1
2527 843 1 -8.1999999999999995e-01 -8.5885796525558806e+00 -2.4552421247121003e+00 -2.6827971479263955e+00 0 6 3
1892 631 2 4.0999999999999998e-01 -1.1628898923823623e+01 -3.7588246854954388e+00 -3.8030403597735347e+00 -1 1 2
2171 724 2 4.0999999999999998e-01 -1.0730691686227626e+01 -1.1053494530900867e+00 -7.0225839503274123e-01 0 2 -5
2170 724 1 -8.1999999999999995e-01 -1.1725010661883839e+01 -1.1252490388333669e+00 -8.0687718656660756e-01 0 2 -5
1893 631 2 4.0999999999999998e-01 -1.1596071124384098e+01 -5.3263873615000019e+00 -4.2594681747485801e+00 -1 1 2
1930 644 1 -8.1999999999999995e-01 -7.2609013158143414e+00 -3.8049967265402351e-01 -3.9696564782860140e+00 -5 -2 3
1891 631 1 -8.1999999999999995e-01 -1.1462389170110329e+01 -4.6955642894091820e+00 -3.4951365922774809e+00 -1 1 2
1219 407 1 -8.1999999999999995e-01 -1.4284323374786162e+01 -6.6090122991474782e+00 -8.8298050162498676e-01 -5 -3 2
2387 796 2 4.0999999999999998e-01 -1.1421509712624921e+01 -5.2071353497926456e+00 -1.7862885203235663e+00 -2 2 -6
809 270 2 4.0999999999999998e-01 -5.5349870266519421e+00 -2.0653912294394665e+00 -1.5057527298674440e+00 -1 1 4
1932 644 2 4.0999999999999998e-01 -7.8105794276021401e+00 -1.0750651191552265e+00 -3.5054969231007256e+00 -5 -2 3
855 285 2 4.0999999999999998e-01 -1.4755873597204296e+01 -3.0890235630482277e+00 -3.6246087777928473e+00 -2 1 3
871 291 1 -8.1999999999999995e-01 -1.3881310394012383e+01 -6.3559726351527797e+00 -7.1163859651804051e+00 1 7 0
1398 466 2 4.0999999999999998e-01 -6.0465496085525547e+00 -3.0475227917901773e+00 -4.2188654822134009e+00 -6 2 -1
1320 440 2 4.0999999999999998e-01 -9.1455839340222767e+00 -1.0450895620540201e-01 -9.1090041415518819e-01 1 3 -2
354 118 2 4.0999999999999998e-01 -5.0878278368117957e+00 -4.2423309891304406e+00 -6.8968995524406971e+00 0 0 7
1419 473 2 4.0999999999999998e-01 -5.2148388117831637e+00 -3.6657873971250865e-02 -4.2146737139166213e-01 0 -2 -1
627 209 2 4.0999999999999998e-01 -1.4253261918840362e+01 -6.9913688051038569e-01 -2.6875336802065419e-01 5 8 3
1910 637 2 4.0999999999999998e-01 -6.0842407403678074e+00 -9.4944626451051413e+00 2.6336704232121289e+00 -4 3 4
835 279 1 -8.1999999999999995e-01 -1.3208817274310784e+01 -1.2772778207566050e+01 3.2157573028735786e+00 -1 2 1
1988 663 2 4.0999999999999998e-01 -8.9368020924011198e+00 -9.6669928829257952e+00 2.9199038389989109e+00 -1 -3 -1
1987 663 1 -8.1999999999999995e-01 -9.8026551304236413e+00 -1.0051674188272745e+01 3.2397946332310692e+00 -1 -3 -1
1989 663 2 4.0999999999999998e-01 -1.0562244897643254e+01 -9.5200888960275556e+00 2.8650256130611726e+00 -1 -3 -1
789 263 2 4.0999999999999998e-01 -6.3198177943714153e+00 -1.1887929263201062e+01 2.4196258873439529e+00 -3 1 1
1639 547 1 -8.1999999999999995e-01 -1.4146846302961459e+01 -9.1720257673082344e+00 6.6105929779043215e-01 -5 -6 0
116 39 2 4.0999999999999998e-01 -1.4258319881398373e+01 -1.1489642751930447e+01 2.8016609295448216e+00 -4 2 -6
1918 640 1 -8.1999999999999995e-01 -1.0071522501444530e+01 -1.2815311647064860e+01 3.2666392933376773e+00 6 4 3
1620 540 2 4.0999999999999998e-01 -1.2091801150563093e+01 -1.1808398449616968e+01 4.6602732444815285e+00 -1 -1 -5
314 105 2 4.0999999999999998e-01 -1.3617431692066774e+01 -1.4142513226849722e+01 6.9305879043414205e+00 -5 1 3
817 273 1 -8.1999999999999995e-01 -1.4841368427516706e+01 -1.2305166590565964e+01 6.8193939550187377e+00 -4 1 6
115 39 1 -8.1999999999999995e-01 -1.4911178328372959e+01 -1.0801947663570978e+01 2.4840720856242573e+00 -4 2 -6
1946 649 2 4.0999999999999998e-01 -7.7829665695159056e+00 -1.3165457309822795e+01 5.2597286963429202e+00 0 5 7
1945 649 1 -8.1999999999999995e-01 -8.6704481893120473e+00 -1.3073719418548700e+01 5.7113611488314451e+00 0 5 7
1909 637 1 -8.1999999999999995e-01 -6.7081234627021793e+00 -1.0218217849974760e+01 2.3387804225405500e+00 -4 3 4
836 279 2 4.0999999999999998e-01 -1.3624625108677050e+01 -1.3396726704772682e+01 3.8774244932328994e+00 -1 2 1
2030 677 2 4.0999999999999998e-01 -6.2373456510958878e+00 -8.9239107067820242e+00 5.8047169292212768e+00 -3 -7 1
1919 640 2 4.0999999999999998e-01 -9.6759015772245096e+00 -1.1901839202937548e+01 3.1714367649234756e+00 6 4 3
1920 640 2 4.0999999999999998e-01 -9.5713052967550141e+00 -1.3323797337518423e+01 3.9675218366146208e+00 6 4 3