LAMMPS data file via write_data, version 15 May 2015, timestep = 8008000

2611 atoms
6 atom types
1749 bonds
4 bond types
894 angles
3 angle types
44 dihedrals
3 dihedral types
10 impropers
1 improper types

-1.4965369627352842e+01 1.4965369627352842e+01 xlo xhi
-1.4965369627352842e+01 1.4965369627352842e+01 ylo yhi
-1.4965369627352842e+01 1.4965369627352842e+01 zlo zhi

Masses

1 15.9994
2 1.00794
3 12.0107
4 1.00794
5 12.0107
6 12.0107

Bond Coeffs # harmonic

1 1000 1
2 469 1.4
3 367 1.08
4 469 0.7

Angle Coeffs # harmonic

1 100 109.47
2 35 120
3 63 120

Dihedral Coeffs # opls

1 0 7.25 0 0
2 0 7.25 0 0
3 0 7.25 0 0

Improper Coeffs # cvff

1 2.5 -1 2

Atoms # full

984 328 2 4.0999999999999998e-01 -1.4796067890242217e+01 -1.2806663822387078e+01 -7.9799807598981163e+00 1 -1 5
1132 378 1 -8.1999999999999995e-01 -7.5973124503385820e+00 -7.2306920569677873e+00 -8.0119221314215494e+00 -1 0 1
210 70 2 4.0999999999999998e-01 -1.4046456030576969e+01 -9.7112034823821105e+00 -1.0967359272868887e+01 0 -1 3
208 70 1 -8.1999999999999995e-01 -1.3385365336665059e+01 -9.0697714756985430e+00 -1.0578099857463011e+01 0 -1 3
1924 642 1 -8.1999999999999995e-01 -1.2437887876334926e+01 -8.9945474063724511e+00 -7.9090914180190062e+00 2 -1 5
209 70 2 4.0999999999999998e-01 -1.2462015201138174e+01 -9.3310337464478508e+00 -1.0859463285726164e+01 0 -1 3
1654 552 1 -8.1999999999999995e-01 -1.2277028670697177e+01 -1.2609641880956479e+01 -9.6321454727368554e+00 0 -1 -1
1544 515 2 4.0999999999999998e-01 -1.1864591820426407e+01 -7.1277080075855892e+00 -1.3510326861464216e+01 1 0 2
1656 552 2 4.0999999999999998e-01 -1.3230465819347190e+01 -1.2404618991363334e+01 -9.4109621164751953e+00 0 -1 -1
252 84 2 4.0999999999999998e-01 -8.4705396742689771e+00 -7.4689532980096542e+00 -1.4831983302632127e+01 2 -1 3
1348 450 1 -8.1999999999999995e-01 -1.3174962496153565e+01 -1.2334062399526793e+01 -1.2508306407953071e+01 2 -2 -2
713 238 2 4.0999999999999998e-01 -1.1305262638137469e+01 -1.0247260211417831e+01 -1.2327606031640716e+01 0 0 1
712 238 1 -8.1999999999999995e-01 -1.1057705777795347e+01 -1.0486708660255569e+01 -1.1388788230533898e+01 0 0 1
714 238 2 4.0999999999999998e-01 -1.0155804692486928e+01 -1.0918592225711468e+01 -1.1381729154265992e+01 0 0 1
2460 820 2 4.0999999999999998e-01 -7.7954754800372568e+00 -5.0661378103153947e+00 -1.3793634066798575e+01 6 4 2
1543 515 1 -8.1999999999999995e-01 -1.1013340337148541e+01 -6.9912569036012719e+00 -1.4017032739583847e+01 1 0 2
1532 511 2 4.0999999999999998e-01 -1.4466594136444407e+01 -1.2420200322757506e+01 -1.3683697982456755e+01 1 -2 3
57 19 2 4.0999999999999998e-01 -7.7788278784902136e+00 -1.2230801506779208e+01 -1.1445195971261377e+01 1 -2 2
1545 515 2 4.0999999999999998e-01 -1.1208343435179014e+01 -6.5140990457455406e+00 -1.4873941722105069e+01 1 0 2
1151 384 2 4.0999999999999998e-01 -1.0764824829997815e+01 -8.7950748697594321e+00 -1.4285752614510947e+01 3 0 2
233 78 2 4.0999999999999998e-01 -7.5304253895725104e+00 -9.6645026923093909e+00 -8.0714041347114325e+00 4 2 4
847 283 1 -8.1999999999999995e-01 -1.1591570400410943e+01 -1.3759305691924862e+01 -1.3919084849012872e+01 0 1 1
1350 450 2 4.0999999999999998e-01 -1.2719241342363006e+01 -1.2911606824843467e+01 -1.3185624287261730e+01 2 -2 -2
849 283 2 4.0999999999999998e-01 -1.1342614789810547e+01 -1.4192278015104250e+01 -1.3052739090436500e+01 0 1 1
55 19 1 -8.1999999999999995e-01 -8.2994810314664846e+00 -1.3063674337138673e+01 -1.1257467423124622e+01 1 -2 2
1349 450 2 4.0999999999999998e-01 -1.2648176631033962e+01 -1.2338099500577757e+01 -1.1658318641338711e+01 2 -2 -2
630 210 2 4.0999999999999998e-01 -9.4058157707134136e+00 -1.1272909720415042e+01 -1.4660625068910226e+01 -1 -1 5
504 168 2 4.0999999999999998e-01 -9.7854488648273872e+00 -1.0643067195187310e+01 -8.0121750297719121e+00 2 1 2
1925 642 2 4.0999999999999998e-01 -1.2652916651083395e+01 -8.9111628430261902e+00 -8.8821322940100984e+00 2 -1 5
1363 455 1 -8.1999999999999995e-01 -7.9849560787863822e+00 -7.2558718214390074e+00 -1.0668341589662511e+01 0 -2 6
1855 619 1 -8.1999999999999995e-01 -1.4543775446230185e+01 -1.4874325458167828e+01 -1.0793457176829769e+01 3 0 3
1782 594 2 4.0999999999999998e-01 -1.4644128322852765e+01 -8.1665850161435483e+00 -9.5566367706261595e+00 0 -1 3
1811 604 2 4.0999999999999998e-01 -1.2075214839652876e+01 -1.4236120094073931e+01 -9.5734027838530587e+00 0 -2 -1
1150 384 1 -8.1999999999999995e-01 -1.0917661441226684e+01 -9.7660669316840760e+00 -1.4101866191749933e+01 3 0 2
1152 384 2 4.0999999999999998e-01 -1.1543382762784672e+01 -1.0140446185332774e+01 -1.4786199319150262e+01 3 0 2
1655 552 2 4.0999999999999998e-01 -1.1676195243131396e+01 -1.2135826408974602e+01 -8.9883311164812163e+00 0 -1 -1
1365 455 2 4.0999999999999998e-01 -8.9747770280260468e+00 -7.1217848172120775e+00 -1.0620655079372058e+01 0 -2 6
1364 455 2 4.0999999999999998e-01 -7.6028492163323937e+00 -7.2496250267129438e+00 -9.7442451998036486e+00 0 -2 6
56 19 2 4.0999999999999998e-01 -8.0086963939790703e+00 -1.3786852849988202e+01 -1.1883930503082642e+01 1 -2 2
1010 337 2 4.0999999999999998e-01 -9.7965216359747771e+00 -1.4373927025974432e+01 -1.1273266615945989e+01 1 -2 -2
2349 783 2 4.0999999999999998e-01 -1.0831420851105154e+01 -6.1187590392741171e+00 -9.1694077377041570e+00 -1 -3 4
848 283 2 4.0999999999999998e-01 -1.2064309822720668e+01 -1.4422451032737465e+01 -1.4499390416607689e+01 0 1 1
2347 783 1 -8.1999999999999995e-01 -1.0366021809713152e+01 -6.9909736300737482e+00 -9.0189276297981600e+00 -1 -3 4
2348 783 2 4.0999999999999998e-01 -1.0991889903022987e+01 -7.6299050385926730e+00 -8.5716529332595783e+00 -1 -3 4
319 107 1 -8.1999999999999995e-01 -8.0004081231246200e+00 -1.0222975542122949e+01 -1.1597779597427412e+01 1 -1 2
1919 640 2 4.0999999999999998e-01 -8.3040109098987749e+00 -1.2572143985602688e+01 -9.4146746933661589e+00 6 3 3
1648 550 1 -8.1999999999999995e-01 -8.5014917569903723e+00 -6.6474694216251375e+00 -1.3207833814525609e+01 2 -1 3
1649 550 2 4.0999999999999998e-01 -9.4979388916420451e+00 -6.7210578258259215e+00 -1.3248781074752339e+01 2 -1 3
1650 550 2 4.0999999999999998e-01 -8.1898908740130469e+00 -6.8535300489810300e+00 -1.2280233281796551e+01 2 -1 3
320 107 2 4.0999999999999998e-01 -7.7494802737675217e+00 -9.9728128440796429e+00 -1.2532901325978530e+01 1 -1 2
502 168 1 -8.1999999999999995e-01 -1.0593537860737712e+01 -1.1089926020690189e+01 -7.6283674792273173e+00 2 1 2
1918 640 1 -8.1999999999999995e-01 -8.0244620044391386e+00 -1.2616752553025474e+01 -8.4555806495228047e+00 6 3 3
1920 640 2 4.0999999999999998e-01 -8.0082530798049802e+00 -1.1694275464369710e+01 -8.0698707726200283e+00 6 3 3
629 210 2 4.0999999999999998e-01 -1.0390875895458858e+01 -1.2562322091665164e+01 -1.4477061433525900e+01 -1 -1 5
1901 634 2 4.0999999999999998e-01 -7.6331355619566779e+00 -1.4266708212143406e+01 -8.3293528204489000e+00 1 -1 4
1134 378 2 4.0999999999999998e-01 -8.5774675385600219e+00 -7.0352101696892140e+00 -7.9790336621186642e+00 -1 0 1
1926 642 2 4.0999999999999998e-01 -1.1905941718463918e+01 -9.8272709912573237e+00 -7.7554566592384342e+00 2 -1 5
422 141 2 4.0999999999999998e-01 -1.4857695351220734e+01 -1.3323295922971408e+01 -1.0358380139224101e+01 3 3 6
564 188 2 4.0999999999999998e-01 -8.2398099109604921e+00 -1.4758606316376227e+01 -1.3657364328814449e+01 1 1 3
628 210 1 -8.1999999999999995e-01 -9.5412304728053243e+00 -1.2236391168814777e+01 -1.4891634132824411e+01 -1 -1 5
1462 488 1 -8.1999999999999995e-01 -2.5842952563578088e+00 -1.4101978436816147e+01 -1.3853389462053624e+01 -1 1 0
260 87 2 4.0999999999999998e-01 -5.1528490218542444e+00 -1.4042832873815092e+01 -8.1483688570960346e+00 -1 0 1
2047 683 1 -8.1999999999999995e-01 -1.4994451386206933e+00 -7.9613680010680126e+00 -1.0132167630515220e+01 2 -3 2
1340 447 2 4.0999999999999998e-01 -8.6051136603358458e-01 -6.1054108148069659e+00 -1.0570312082817942e+01 4 -2 0
47 16 2 4.0999999999999998e-01 -5.8001499577729216e+00 -5.6250401777481720e+00 -8.4467564118410898e+00 0 -3 2
1339 447 1 -8.1999999999999995e-01 -4.9426369417837535e-01 -5.2970541550424990e+00 -1.1031203573261672e+01 4 -2 0
865 289 1 -8.1999999999999995e-01 -4.3242607000457607e+00 -1.0041997662713413e+01 -1.4488955291932688e+01 0 -3 0
562 188 1 -8.1999999999999995e-01 -7.3277827119747956e+00 -1.4786505941364757e+01 -1.3248186104733904e+01 1 1 3
563 188 2 4.0999999999999998e-01 -6.7004576517641130e+00 -1.4231013335727507e+01 -1.3793979157936681e+01 1 1 3
2049 683 2 4.0999999999999998e-01 -1.6500679882125038e+00 -8.8499797740151571e+00 -9.6989463406814593e+00 2 -3 2
46 16 1 -8.1999999999999995e-01 -4.9646794074986467e+00 -5.3238758595248932e+00 -7.9870958629494826e+00 0 -3 2
855 285 2 4.0999999999999998e-01 -2.0581596100889588e+00 -9.6764069235092425e+00 -1.2075925936762932e+01 1 1 2
361 121 1 -8.1999999999999995e-01 -3.3614456704026026e+00 -1.4037503334383405e+01 -1.0436235529297807e+01 -3 2 2
1464 488 2 4.0999999999999998e-01 -1.9475687713035406e+00 -1.3826395711652403e+01 -1.3133228122496892e+01 -1 1 0
426 142 2 4.0999999999999998e-01 -6.0662897418481041e+00 -1.0585527726928099e+01 -1.4306434357158791e+01 0 0 -1
1420 474 1 -8.1999999999999995e-01 -1.9120351170492889e+00 -7.9308236753768639e+00 -1.3535590912224013e+01 2 0 3
1421 474 2 4.0999999999999998e-01 -1.1933837521077315e+00 -8.1477790696125503e+00 -1.4196249204709776e+01 2 0 3
321 107 2 4.0999999999999998e-01 -7.2162270688321977e+00 -1.0082542016455783e+01 -1.0993348187864346e+01 1 -1 2
853 285 1 -8.1999999999999995e-01 -2.7290868528935448e+00 -1.0413595605367465e+01 -1.1995874140906700e+01 1 1 2
1463 488 2 4.0999999999999998e-01 -3.5129401153566597e+00 -1.3832731026996752e+01 -1.3598196653273305e+01 -1 1 0
2575 859 1 -8.1999999999999995e-01 -8.6024135330964313e-01 -1.0511323370378395e+01 -8.9034942302935178e+00 1 -2 5
1344 448 2 4.0999999999999998e-01 -6.3850036087088551e+00 -7.8181481217996538e+00 -1.1825082061067544e+01 2 -3 5
828 276 2 4.0999999999999998e-01 -7.2051687625240213e-01 -1.4141463865103191e+01 -9.0463221933391118e+00 2 4 3
48 16 2 4.0999999999999998e-01 -4.1711451691621999e+00 -5.7380663885545076e+00 -8.4329079611210069e+00 0 -3 2
866 289 2 4.0999999999999998e-01 -4.1534311193696194e+00 -1.0273899408341070e+01 -1.3531334443993233e+01 0 -3 0
1163 388 2 4.0999999999999998e-01 -4.3971506589173845e+00 -7.0537665159021152e+00 -1.0968358874612484e+01 -2 -3 -1
293 98 2 4.0999999999999998e-01 -1.5874784370728570e+00 -1.1726446323901332e+01 -1.2819566247752341e+01 -1 1 1
854 285 2 4.0999999999999998e-01 -2.9329392980743982e+00 -1.0575357625595098e+01 -1.1030329708834499e+01 1 1 2
2577 859 2 4.0999999999999998e-01 -8.2203368164285173e-01 -1.1510428426408890e+01 -8.9216077235279307e+00 1 -2 5
2048 683 2 4.0999999999999998e-01 -9.1390143404131052e-01 -8.0767127761661470e+00 -1.0934559654329719e+01 2 -3 2
1343 448 2 4.0999999999999998e-01 -5.2838228883469540e+00 -7.8247610484493313e+00 -1.3030893271388715e+01 2 -3 5
408 136 2 4.0999999999999998e-01 -2.6652882761512000e+00 -1.0780745553812446e+01 -8.7178480326440955e+00 1 -1 2
1342 448 1 -8.1999999999999995e-01 -5.4101691615116714e+00 -7.8764360613930116e+00 -1.2040254517177665e+01 2 -3 5
827 276 2 4.0999999999999998e-01 -1.9507748542055534e+00 -1.3226068569766580e+01 -9.6076956360059569e+00 2 4 3
1172 391 2 4.0999999999999998e-01 -4.8562664038743879e+00 -1.0316669541072477e+01 -9.7793418392574729e+00 -2 -3 2
1422 474 2 4.0999999999999998e-01 -2.6369072040570920e+00 -7.4127976402594458e+00 -1.3989692551274759e+01 2 0 3
1162 388 1 -8.1999999999999995e-01 -3.8219546039984262e+00 -6.5322996287588104e+00 -1.0338104467014603e+01 -2 -3 -1
826 276 1 -8.1999999999999995e-01 -9.9542396475353989e-01 -1.3217529039799132e+01 -9.3123472867207902e+00 2 4 3
407 136 2 4.0999999999999998e-01 -3.9668406971934793e+00 -1.0547185790091257e+01 -7.7597067781835189e+00 1 -1 2
256 86 1 -8.1999999999999995e-01 -4.9094385085304033e+00 -1.2345337495290028e+01 -1.2235925519962581e+01 3 2 6
406 136 1 -8.1999999999999995e-01 -3.5972924789953638e+00 -1.0420259362728622e+01 -8.6802081054388154e+00 1 -1 2
424 142 1 -8.1999999999999995e-01 -7.0605573496349985e+00 -1.0655329375139940e+01 -1.4225449738869475e+01 0 0 -1
292 98 1 -8.1999999999999995e-01 -7.2757593957941502e-01 -1.2236503022500887e+01 -1.2799350421059948e+01 -1 1 1
1171 391 1 -8.1999999999999995e-01 -5.5375640546495593e+00 -1.0128015342872214e+01 -1.0486619716186894e+01 -2 -3 2
363 121 2 4.0999999999999998e-01 -3.8745051272877582e+00 -1.3700400341585761e+01 -1.1225621627222960e+01 -3 2 2
258 86 2 4.0999999999999998e-01 -5.0350099871961387e+00 -1.1472988425786472e+01 -1.1763445127726635e+01 3 2 6
1173 391 2 4.0999999999999998e-01 -5.2516830624268991e+00 -9.3326623389555916e+00 -1.1021114314318030e+01 -2 -3 2
257 86 2 4.0999999999999998e-01 -5.3939515914849263e+00 -1.2323516545690625e+01 -1.3110436656300870e+01 3 2 6
1164 388 2 4.0999999999999998e-01 -2.9267878430620140e+00 -6.9716110647563543e+00 -1.0262733630439872e+01 -2 -3 -1
2426 809 2 4.0999999999999998e-01 -4.9824748736097533e+00 -6.0273268225259091e+00 -1.4556365500085878e+01 -1 1 1
205 69 1 -8.1999999999999995e-01 -5.1727836955495547e+00 -1.3625690459028673e+01 -1.4774226949307980e+01 1 0 4
294 98 2 4.0999999999999998e-01 -3.2665024809443111e-02 -1.1699482960487945e+01 -1.2321117118615113e+01 -1 1 1
2547 849 2 4.0999999999999998e-01 -7.7266407762032365e+00 -1.1358542776239100e+01 -1.3646062035841773e+00 -2 0 -1
1775 592 2 4.0999999999999998e-01 -9.9536212959029857e+00 -1.0388365361060444e+01 -4.2667286457824520e+00 2 4 1
761 254 2 4.0999999999999998e-01 -1.3452949790744713e+01 -9.6490400357639281e+00 -5.2267486062554429e+00 0 0 3
1774 592 1 -8.1999999999999995e-01 -9.0452029754227610e+00 -1.0758964892435444e+01 -4.0732577145737530e+00 2 4 1
1776 592 2 4.0999999999999998e-01 -8.9209621073931693e+00 -1.0837431085584869e+01 -3.0841135818003149e+00 2 4 1
503 168 2 4.0999999999999998e-01 -1.0411493678091592e+01 -1.1350733160085145e+01 -6.6802965727068528e+00 2 1 2
2444 815 2 4.0999999999999998e-01 -1.0691254734727167e+01 -5.2933294634690693e+00 -7.9978746865985428e-01 3 0 2
498 166 2 4.0999999999999998e-01 -1.2516018535701043e+01 -1.3407200078966092e+01 -5.2220812200322086e+00 2 2 6
1844 615 2 4.0999999999999998e-01 -9.4600401031401606e+00 -5.8249858834761366e+00 -4.2157166576884872e+00 0 -3 -1
2221 741 1 -8.1999999999999995e-01 -1.1525040452776317e+01 -1.1513946129394807e+01 -1.3655725713820033e-01 -1 -5 5
1757 586 2 4.0999999999999998e-01 -1.1882867612824219e+01 -1.3129153502496584e+01 -1.5215956293751134e+00 3 0 0
2392 798 1 -8.1999999999999995e-01 -1.3168066888775797e+01 -6.5068691228493822e+00 -6.7557929625813138e+00 2 0 5
496 166 1 -8.1999999999999995e-01 -1.2009864641483322e+01 -1.2661247768310970e+01 -4.7892276472445214e+00 2 2 6
1892 631 2 4.0999999999999998e-01 -1.4762556593315850e+01 -9.6333308049755324e+00 -6.4281488780797975e+00 1 -2 1
1756 586 1 -8.1999999999999995e-01 -1.1958159113102713e+01 -1.3803674834941686e+01 -2.2560008136449259e+00 3 0 0
497 166 2 4.0999999999999998e-01 -1.1840363903997059e+01 -1.2886206511126611e+01 -3.8297163732828032e+00 2 2 6
2069 690 2 4.0999999999999998e-01 -1.0983223653076108e+01 -8.7697428856526471e+00 -2.8496100160602111e+00 1 1 4
818 273 2 4.0999999999999998e-01 -1.3664854739062889e+01 -1.4646376149457545e+01 -1.5550741954449787e+00 1 1 0
762 254 2 4.0999999999999998e-01 -1.2732560867226757e+01 -1.1114052857674320e+01 -5.2641731121732516e+00 0 0 3
2070 690 2 4.0999999999999998e-01 -1.1833399501200518e+01 -8.6247938206699963e+00 -4.2362657632292127e+00 1 1 4
232 78 1 -8.1999999999999995e-01 -7.9632989875502727e+00 -1.0166167524528708e+01 -7.3224370229027729e+00 4 2 4
760 254 1 -8.1999999999999995e-01 -1.3472649243554088e+01 -1.0558202970236678e+01 -5.6427215834450699e+00 0 0 3
2068 690 1 -8.1999999999999995e-01 -1.0934889754835730e+01 -8.8272376422932624e+00 -3.8467845346712295e+00 1 1 4
2393 798 2 4.0999999999999998e-01 -1.3017473604490398e+01 -7.3956297743829760e+00 -7.1887190296501915e+00 2 0 5
234 78 2 4.0999999999999998e-01 -7.6358400528029193e+00 -9.8078550927854948e+00 -6.4481477654551078e+00 4 2 4
2436 812 2 4.0999999999999998e-01 -1.4099481688329002e+01 -7.7916208317985411e+00 -3.8977509614682564e+00 1 -5 4
1672 558 1 -8.1999999999999995e-01 -9.5312549330183902e+00 -1.3897881682651919e+01 -2.9233361440892836e-02 3 -3 6
1368 456 2 4.0999999999999998e-01 -8.3108963039539816e+00 -6.2704044861102783e+00 -1.7665236195880194e+00 -2 -2 2
1704 568 2 4.0999999999999998e-01 -9.5610992198226512e+00 -9.5529431664858961e+00 -1.1130343816509551e+00 -1 4 1
2435 812 2 4.0999999999999998e-01 -1.3556975140977187e+01 -7.4423714101936138e+00 -5.3978625655292092e+00 1 -5 4
1843 615 1 -8.1999999999999995e-01 -9.6932981288667044e+00 -6.0915260572587986e+00 -5.1508882201614909e+00 0 -3 -1
1845 615 2 4.0999999999999998e-01 -1.0564565379513638e+01 -6.5823331662929316e+00 -5.1501000971064741e+00 0 -3 -1
2434 812 1 -8.1999999999999995e-01 -1.3515725856402602e+01 -8.1024702793996877e+00 -4.6478180237485418e+00 1 -5 4
312 104 2 4.0999999999999998e-01 -8.2932634735344770e+00 -1.2047666805259844e+01 -4.9089243660544710e+00 0 -2 1
1217 406 2 4.0999999999999998e-01 -1.4674396804894027e+01 -5.8228574103425395e+00 -6.2777976059836753e+00 6 2 0
1758 586 2 4.0999999999999998e-01 -1.1130764790123390e+01 -1.4364811787999237e+01 -2.2792982628168215e+00 3 0 0
1702 568 1 -8.1999999999999995e-01 -1.0058748427752953e+01 -8.7002941814897490e+00 -9.5386844093847323e-01 -1 4 1
1366 456 1 -8.1999999999999995e-01 -9.3103088256074749e+00 -6.2931632501766188e+00 -1.7921261696506150e+00 -2 -2 2
2100 700 2 4.0999999999999998e-01 -1.2786882749788585e+01 -1.4898001649276274e+01 -3.5643624314165177e+00 1 2 2
1823 608 2 4.0999999999999998e-01 -8.3762622587969524e+00 -8.5804750910144456e+00 -3.7253696608300757e+00 2 -2 1
2545 849 1 -8.1999999999999995e-01 -8.7245027599557083e+00 -1.1406768383225595e+01 -1.4087043606756442e+00 -2 0 -1
1367 456 2 4.0999999999999998e-01 -9.6351804718077840e+00 -7.1418820357123005e+00 -1.3748328195034833e+00 -2 -2 2
605 202 2 4.0999999999999998e-01 -1.3939324603818640e+01 -1.4467975919117917e+01 -7.2483047822401696e+00 1 -2 5
2394 798 2 4.0999999999999998e-01 -1.2871555212121928e+01 -5.7799020699198564e+00 -7.3751463170530718e+00 2 0 5
2546 849 2 4.0999999999999998e-01 -9.0260713574403777e+00 -1.2322176769027653e+01 -1.1420909062149178e+00 -2 0 -1
311 104 2 4.0999999999999998e-01 -8.1739538169708510e+00 -1.2548026454359125e+01 -6.4587723433065864e+00 0 -2 1
310 104 1 -8.1999999999999995e-01 -8.1345720792895975e+00 -1.2836864813236794e+01 -5.5022054118440664e+00 0 -2 1
284 95 2 4.0999999999999998e-01 -8.4345211819971624e+00 -1.4585863165553288e+01 -5.5948612960851030e+00 -1 0 3
231 77 2 4.0999999999999998e-01 -1.4669244170400145e+01 -6.3304557306232638e+00 -2.6304848518088626e+00 -2 1 0
983 328 2 4.0999999999999998e-01 -1.4083022331838993e+01 -1.1895934886830579e+01 -6.8272612901801644e+00 1 -1 5
982 328 1 -8.1999999999999995e-01 -1.4209421356093463e+01 -1.2826680647993955e+01 -7.1703858015791813e+00 1 -1 5
819 273 2 4.0999999999999998e-01 -1.4854523179604627e+01 -1.4381170190620583e+01 -4.6834599594594906e-01 1 1 0
1667 556 2 4.0999999999999998e-01 -1.3498158395134514e+01 -1.2006522525204584e+01 -7.4652712537927712e-02 -2 2 0
383 128 2 4.0999999999999998e-01 -6.5304813959095327e+00 -1.4470971906090373e+01 -5.6254548692173323e-01 -1 0 1
1058 353 2 4.0999999999999998e-01 -3.1063763605004997e+00 -1.4811597607169439e+01 -1.4118973414155782e+00 0 -1 0
1305 435 2 4.0999999999999998e-01 -2.0833864037355099e-02 -8.7409554839313337e+00 -7.0975012284299046e+00 2 0 -1
1059 353 2 4.0999999999999998e-01 -4.4307201734548869e+00 -1.4905407326654522e+01 -2.3626531086838458e+00 0 -1 0
728 243 2 4.0999999999999998e-01 -1.5361606181270435e+00 -1.4098826440235515e+01 -6.4074811737698507e+00 1 -2 2
59 20 2 4.0999999999999998e-01 -5.1973149198854305e+00 -7.2753178719882641e+00 -2.2613898143099398e-01 0 -2 4
1109 370 2 4.0999999999999998e-01 -6.5027391983148135e+00 -1.4288596511614235e+01 -2.9613370707174766e+00 3 0 4
1057 353 1 -8.1999999999999995e-01 -3.4313024456570744e+00 -1.4872019166661786e+01 -2.3557040510425029e+00 0 -1 0
581 194 2 4.0999999999999998e-01 -3.6103751618202793e+00 -5.5796589303438306e+00 -2.7201904551004752e+00 2 -1 0
93 31 2 4.0999999999999998e-01 -5.8876597176488659e+00 -1.0909615694036230e+01 -2.3267810709557857e-01 1 0 3
998 333 2 4.0999999999999998e-01 -6.9824601367474628e+00 -5.3867451392492178e+00 -3.3078773720832366e-01 1 -1 1
160 54 1 -8.1999999999999995e-01 -3.9373867582094277e+00 -1.0143979007435235e+01 -4.1729727682675435e+00 1 -2 4
1822 608 1 -8.1999999999999995e-01 -7.4796283916888511e+00 -8.2896269653248353e+00 -3.3915223581459166e+00 2 -2 1
77 26 2 4.0999999999999998e-01 -1.3726673637118658e+00 -8.7939651106534260e+00 -2.5604295924447236e+00 -1 -1 2
1824 608 2 4.0999999999999998e-01 -6.8408185394458805e+00 -8.2323097314991642e+00 -4.1587482344834346e+00 2 -2 1
838 280 1 -8.1999999999999995e-01 -6.5135688435493524e+00 -6.7271350944200510e+00 -1.4849884951914518e+00 0 -1 2
580 194 1 -8.1999999999999995e-01 -4.4317096839479895e+00 -5.5526923608948362e+00 -3.2899985377229584e+00 2 -1 0
664 222 1 -8.1999999999999995e-01 -5.6073051853465206e+00 -1.3637003145120866e+01 -4.5410107605065839e+00 3 0 2
665 222 2 4.0999999999999998e-01 -4.8181336476481480e+00 -1.3461298430106561e+01 -5.1295130677887819e+00 3 0 2
1130 377 2 4.0999999999999998e-01 -4.5803241885612778e+00 -1.0966691742900389e+01 -5.6474308594934612e+00 -1 1 2
136 46 1 -8.1999999999999995e-01 -9.6502063604230415e-02 -6.3646810513019823e+00 -2.9370209306683748e-01 -2 0 1
839 280 2 4.0999999999999998e-01 -5.9012181896345801e+00 -6.1727423881564949e+00 -2.0486144556476660e+00 0 -1 2
534 178 2 4.0999999999999998e-01 -2.6320111875911412e+00 -7.5106048365077260e+00 -4.6774324633515096e+00 1 -2 6
840 280 2 4.0999999999999998e-01 -6.8442272074546580e+00 -7.5055790330820855e+00 -2.0185510238324103e+00 0 -1 2
727 243 1 -8.1999999999999995e-01 -1.9961376130013040e+00 -1.4567871679867823e+01 -7.1614152188632199e+00 1 -2 2
582 194 2 4.0999999999999998e-01 -4.1896755164022217e+00 -5.7753725922777193e+00 -4.2343670044508013e+00 2 -1 0
666 222 2 4.0999999999999998e-01 -6.4134627680233649e+00 -1.3182622314970271e+01 -4.9200184658971935e+00 3 0 2
92 31 2 4.0999999999999998e-01 -5.1435612251789919e+00 -1.1418679417833131e+01 -1.5942194793770152e+00 1 0 3
91 31 1 -8.1999999999999995e-01 -6.0013289498321232e+00 -1.1074496560013808e+01 -1.2124191185355055e+00 1 0 3
1133 378 2 4.0999999999999998e-01 -7.2540615920286218e+00 -7.3709489014137795e+00 -7.0832102921557851e+00 -1 0 1
451 151 1 -8.1999999999999995e-01 -2.7124330539504999e+00 -1.2760895518103831e+01 -4.3272873347621097e+00 0 1 -1
2560 854 1 -8.1999999999999995e-01 -5.9992885830435796e+00 -8.3451708910324882e+00 -5.8648005847416638e+00 1 -1 0
259 87 1 -8.1999999999999995e-01 -4.6214971582306053e+00 -1.3577054784900932e+01 -7.4407568271605458e+00 -1 0 1
2449 817 1 -8.1999999999999995e-01 -4.0434866938742431e-02 -5.7694519205936778e+00 -6.3789820607243612e+00 3 -4 4
1129 377 1 -8.1999999999999995e-01 -5.1143332933283983e+00 -1.1032033576985825e+01 -6.4903801725495214e+00 -1 1 2
1131 377 2 4.0999999999999998e-01 -4.9487991433561636e+00 -1.1918809095223651e+01 -6.9219198176085257e+00 -1 1 2
2561 854 2 4.0999999999999998e-01 -5.6109345365792169e+00 -9.1388776572397319e+00 -6.3329987437132864e+00 1 -1 0
162 54 2 4.0999999999999998e-01 -4.6541040023873350e+00 -9.6413602440903006e+00 -3.6895582009462871e+00 1 -2 4
261 87 2 4.0999999999999998e-01 -3.6734459244282700e+00 -1.3893499543065799e+01 -7.4733211714157601e+00 -1 0 1
533 178 2 4.0999999999999998e-01 -2.4200630023293854e+00 -6.5917500696128197e+00 -6.0106268339426148e+00 1 -2 6
78 26 2 4.0999999999999998e-01 -7.8847721897896150e-01 -8.5526375801693888e+00 -4.0661208752442928e+00 -1 -1 2
453 151 2 4.0999999999999998e-01 -3.0618940859969452e+00 -1.1825659054915679e+01 -4.3839315810890707e+00 0 1 -1
161 54 2 4.0999999999999998e-01 -3.0704934629479066e+00 -9.6528006355086902e+00 -4.0878924771104206e+00 1 -2 4
452 151 2 4.0999999999999998e-01 -3.2010081855552333e+00 -1.3256351674501675e+01 -3.6090836635477963e+00 0 1 -1
873 291 2 4.0999999999999998e-01 -6.0862655867484960e-01 -1.3399151003235223e+01 -4.8708122760499126e+00 4 4 1
76 26 1 -8.1999999999999995e-01 -1.6180733309135160e+00 -8.6852486039043004e+00 -3.5237340367056689e+00 -1 -1 2
532 178 1 -8.1999999999999995e-01 -3.0711231330821320e+00 -6.8654039100865560e+00 -5.3026486541075393e+00 1 -2 6
2562 854 2 4.0999999999999998e-01 -5.4253860823920999e+00 -7.5441012470713380e+00 -6.0348657407363380e+00 1 -1 0
440 147 2 4.0999999999999998e-01 -1.1650883994306227e+00 -5.4689832648591530e+00 -1.6337998536667424e+00 0 -1 0
947 316 2 4.0999999999999998e-01 -1.1447967106732641e+01 -8.9292443376579662e+00 2.0887165391577227e+00 0 1 1
948 316 2 4.0999999999999998e-01 -1.0479522712471230e+01 -7.6325915828965183e+00 2.3065017991512704e+00 0 1 1
946 316 1 -8.1999999999999995e-01 -1.0522424248599677e+01 -8.5714372569459591e+00 1.9648483536579135e+00 0 1 1
697 233 1 -8.1999999999999995e-01 -8.5331276699637009e+00 -1.0554325021882320e+01 2.2413701971999949e+00 1 -2 3
699 233 2 4.0999999999999998e-01 -8.9230817153827253e+00 -9.6963260586970001e+00 1.9070463329194425e+00 1 -2 3
151 51 1 -8.1999999999999995e-01 -1.3807174705139769e+01 -1.0054112417902731e+01 6.6290883471502120e+00 4 1 -1
1668 556 2 4.0999999999999998e-01 -1.4418381211061646e+01 -1.2923009217433366e+01 9.1522884029595630e-01 -2 2 0
2418 806 2 4.0999999999999998e-01 -9.0936424056220595e+00 -1.3361189186417814e+01 7.1487765299113875e+00 2 -2 3
661 221 1 -8.1999999999999995e-01 -9.5594390281003214e+00 -1.3054499456435870e+01 3.3119109857985336e+00 0 0 2
2 1 2 4.0999999999999998e-01 -1.2163524485589633e+01 -5.7293711111328989e+00 3.7118894430805511e+00 -1 -3 2
1142 381 2 4.0999999999999998e-01 -1.2235033997147136e+01 -1.0986010935570537e+01 5.5855555496688822e+00 1 -3 4
663 221 2 4.0999999999999998e-01 -9.3454673357712110e+00 -1.2284852578280628e+01 2.7103641132379224e+00 0 0 2
607 203 1 -8.1999999999999995e-01 -1.2930544214388076e+01 -1.1156025586210720e+01 2.5605274464133672e+00 2 -4 3
608 203 2 4.0999999999999998e-01 -1.3267086628401874e+01 -1.2097134628343012e+01 2.5280959530069751e+00 2 -4 3
2153 718 2 4.0999999999999998e-01 -8.7711805107177465e+00 -8.8232870222206685e+00 5.0676883635944421e+00 1 -1 5
2119 707 1 -8.1999999999999995e-01 -1.4371514187011190e+01 -1.3459954518996742e+01 2.7950339677538274e+00 3 0 -1
2152 718 1 -8.1999999999999995e-01 -9.7069202879924035e+00 -8.6828287736075573e+00 4.7441742378607614e+00 1 -1 5
1 1 1 -8.1999999999999995e-01 -1.1742232842769907e+01 -5.3313803019122954e+00 2.8969566265934859e+00 -1 -3 2
2154 718 2 4.0999999999999998e-01 -9.8088932596785554e+00 -9.0849082943732782e+00 3.8342663419787328e+00 1 -1 5
1674 558 2 4.0999999999999998e-01 -8.6150892103580006e+00 -1.4127730898987794e+01 2.9910872797690047e-01 3 -3 6
1673 558 2 4.0999999999999998e-01 -1.0192435633317874e+01 -1.4547783709175494e+01 3.4555492698015122e-01 3 -3 6
609 203 2 4.0999999999999998e-01 -1.2608085596285491e+01 -1.0948997540341132e+01 3.4841933269217940e+00 2 -4 3
3 1 2 4.0999999999999998e-01 -1.2426812091396652e+01 -5.2532109692652220e+00 2.1722224455997932e+00 -1 -3 2
1141 381 1 -8.1999999999999995e-01 -1.1602693035575255e+01 -1.1130896574432558e+01 4.8245352676648885e+00 1 -3 4
1435 479 1 -8.1999999999999995e-01 -1.3444999675248503e+01 -5.8013251326781372e+00 5.1860583817254380e+00 3 2 1
186 62 2 4.0999999999999998e-01 -9.5477809822350981e+00 -1.4700385394116120e+01 3.5910977879058983e+00 1 2 -1
2587 863 1 -8.1999999999999995e-01 -1.1927691436781345e+01 -8.1562756611820859e+00 6.5461726144815735e+00 2 -2 1
2588 863 2 4.0999999999999998e-01 -1.2364403686098601e+01 -7.2843024142132515e+00 6.3249399613392931e+00 2 -2 1
662 221 2 4.0999999999999998e-01 -9.6797078929964364e+00 -1.2722810890240055e+01 4.2476015972217205e+00 0 0 2
153 51 2 4.0999999999999998e-01 -1.3053351158778579e+01 -9.4024093570781684e+00 6.7129454949459770e+00 4 1 -1
2589 863 2 4.0999999999999998e-01 -1.1287739732853149e+01 -8.4026812979211343e+00 5.8183368448926522e+00 2 -2 1
1143 381 2 4.0999999999999998e-01 -1.0775480509665275e+01 -1.0588324983155946e+01 4.9705979731432244e+00 1 -3 4
2416 806 1 -8.1999999999999995e-01 -9.5511149233702497e+00 -1.2991625056879885e+01 6.3399872641193760e+00 2 -2 3
1916 639 2 4.0999999999999998e-01 -1.0430045210349224e+01 -8.8445789856781971e+00 7.2785612132375768e+00 1 0 -2
473 158 2 4.0999999999999998e-01 -1.4411607594537362e+01 -6.4039742902629015e+00 1.1583356731912566e+00 0 -2 2
1256 419 2 4.0999999999999998e-01 -1.3736213792068137e+01 -8.3628117445508394e+00 6.2757856036315118e-01 -1 1 4
1257 419 2 4.0999999999999998e-01 -1.3448818632873749e+01 -9.6957852208772408e+00 1.5260267474120326e+00 -1 1 4
2409 803 2 4.0999999999999998e-01 -7.6508643840259829e+00 -6.3413832915382589e+00 2.8714087008454356e+00 2 1 4
1437 479 2 4.0999999999999998e-01 -1.4341080876676141e+01 -5.7133214453401546e+00 4.7509806326993527e+00 3 2 1
2417 806 2 4.0999999999999998e-01 -1.0523588832989953e+01 -1.2865183695442401e+01 6.5357062699785153e+00 2 -2 3
1255 419 1 -8.1999999999999995e-01 -1.3024485983598659e+01 -8.9558549497755813e+00 1.0040652143841839e+00 -1 1 4
698 233 2 4.0999999999999998e-01 -7.7105321088177101e+00 -1.0360622415700860e+01 2.7759865639154242e+00 1 -2 3
1937 646 2 4.0999999999999998e-01 -7.6889267468719584e+00 -5.0643555204029074e+00 5.4948166993784611e+00 0 0 3
152 51 2 4.0999999999999998e-01 -1.4363296130824148e+01 -1.0029189691118537e+01 7.4598149274689618e+00 4 1 -1
411 137 2 4.0999999999999998e-01 -1.4735635988773401e+01 -1.0903278269173068e+01 2.4088862598135492e+00 4 0 4
472 158 1 -8.1999999999999995e-01 -1.3806131337967512e+01 -5.6166145584698643e+00 1.2743614553907818e+00 0 -2 2
1666 556 1 -8.1999999999999995e-01 -1.4376123271839404e+01 -1.2475386697897836e+01 2.2005910519393268e-02 -2 2 0