2611
Atoms. Timestep: 8000000
O -14.3739 -8.37281 7.28145
H -14.0719 -7.6684 6.63904
H 14.9328 -7.96932 7.94821
O 5.62344 9.05832 -14.7232
H 6.094 9.32744 14.3698
H 4.68216 9.39529 -14.7458
O -3.56924 7.32299 -6.30505
H -4.34924 6.95278 -5.80047
H -3.03302 6.57099 -6.68851
O 2.02007 1.82537 -10.0891
H 2.67637 2.17031 -10.7602
H 1.76947 0.88534 -10.3207
O 11.5976 7.59297 -9.18257
H 12.3184 7.08576 -8.70998
H 11.3655 8.4109 -8.65609
O -12.7289 -13.8157 8.32646
H -13.6754 -13.5371 8.16317
H -12.4467 -13.5188 9.23877
O 14.8663 -1.80731 4.71932
H -14.5154 -1.69068 3.89344
H 13.941 -1.46641 4.55296
O -0.0474637 -6.21963 -6.22446
H 0.527614 -6.49252 -5.45317
H -0.998327 -6.14938 -5.92281
O -5.78558 1.18804 11.0213
H -4.88906 0.80893 11.2506
H -6.46892 0.839398 11.6628
O -13.988 13.7684 -0.646712
H -14.4704 14.322 -1.32557
H -13.8334 14.3124 0.178082
O 3.29736 1.0296 6.15421
H 2.38362 1.07677 5.75058
H 3.29319 1.48787 7.04305
O 7.19677 7.39875 -10.3205
H 6.93073 6.53751 -9.88738
H 6.44588 7.73058 -10.8915
O -8.34015 -2.6097 -2.12807
H -8.68504 -2.38734 -1.2161
H -8.9822 -3.22421 -2.58656
O 8.25377 0.532317 -0.157947
H 8.40981 1.51151 -0.287903
H 7.59207 0.395182 0.579219
O 10.7771 -11.066 11.337
H 10.922 -10.904 12.3131
H 9.81314 -10.9201 11.1144
O -8.8953 -3.64738 -12.1811
H -8.97989 -3.56395 -11.1882
H -9.80657 -3.67742 -12.5919
O -4.17339 1.27776 -3.7795
H -3.31428 0.941521 -4.16544
H -4.93717 0.967142 -4.34538
O 2.2251 6.45351 -0.976338
H 2.51823 5.98981 -1.81247
H 2.87042 6.25171 -0.239516
O -8.70505 14.0964 -12.0298
H -8.20342 14.8611 -11.6253
H -8.18214 13.7227 -12.7959
O -4.16963 -10.1547 3.29574
H -4.19929 -10.7196 2.47109
H -3.8158 -9.24795 3.06609
O -1.83178 8.78361 0.117266
H -1.49 9.53214 0.685562
H -1.76588 7.92377 0.623615
O 11.6397 12.2596 -9.73743
H 11.8437 13.0505 -9.16041
H 12.4039 12.0963 -10.3614
O 0.584398 5.72224 1.05528
H 1.2503 5.37182 1.71395
H 1.0445 5.92137 0.189993
O 7.0151 -1.47263 11.9108
H 7.95171 -1.25962 12.1891
H 6.4175 -0.70278 12.135
O -1.14123 -8.30376 11.395
H -1.9312 -7.73904 11.156
H -1.35623 -8.85302 12.2026
O -2.88722 -8.81985 -2.7789
H -2.00879 -8.50388 -2.4203
H -3.56181 -8.08553 -2.70299
O -0.702944 -12.709 -1.95069
H -0.922521 -11.7715 -1.68069
H -1.15917 -13.3494 -1.33274
O 13.4136 -3.02517 -11.4552
H 12.8588 -2.86699 -10.6384
H 12.8628 -3.49185 -12.1471
O 7.54018 5.91151 -5.23556
H 8.50838 6.1176 -5.37762
H 6.98478 6.67314 -5.5695
O -8.40556 0.620943 -0.222177
H -7.76413 1.0597 0.40721
H -7.94975 0.44713 -1.09516
O -4.27031 -11.0971 -1.0984
H -4.11948 -11.7329 -0.341341
H -4.39921 -11.6124 -1.94572
O 4.44085 7.38421 4.67332
H 4.37646 7.86446 5.54813
H 5.32734 7.57612 4.25217
O -1.0089 6.05417 -12.1069
H -1.66001 6.81164 -12.1556
H -0.0768897 6.41631 -12.0903
O 2.9843 7.95009 -11.7687
H 3.72177 8.62048 -11.8511
H 2.27144 8.31098 -11.1673
O -9.53885 10.2469 -14.3182
H -10.1959 10.9464 -14.0372
H -9.99979 9.36145 -14.378
O -14.8971 4.77389 -1.12868
H 14.3224 4.4436 -1.74611
H 14.7848 5.67726 -0.781214
O -3.71901 -10.7735 6.0631
H -3.8563 -10.6394 5.08165
H -3.09875 -11.5439 6.21075
O -4.60419 13.9047 -6.52823
H -3.61564 13.9107 -6.67921
H -4.88475 13.0054 -6.1927
O 0.994696 2.70836 13.3979
H 0.779931 2.97318 12.4578
H 1.11131 1.71633 13.4464
O 9.27781 -9.57372 5.59638
H 9.35195 -8.65666 5.98825
H 8.35779 -9.70502 5.22706
O 7.63968 3.14686 -6.58642
H 7.30157 4.04343 -6.30021
H 7.57643 2.50677 -5.82069
O -3.45713 5.61448 6.02641
H -2.83759 5.10591 6.6244
H -2.92357 6.17191 5.39028
O -7.03823 2.35341 -6.15531
H -7.69636 2.4514 -6.90186
H -7.52827 2.27488 -5.28712
O -3.5397 -2.82114 12.9337
H -3.28683 -3.02602 11.9881
H -4.49568 -3.07265 13.0851
O -11.585 11.8686 -13.7602
H -12.2155 12.5813 -14.068
H -12.0281 10.9755 -13.8373
O -0.181409 -7.67109 -2.37523
H 0.34816 -7.54737 -3.21446
H 0.0141479 -6.92052 -1.74399
O 6.51054 -7.82512 -0.270208
H 6.93122 -8.10753 0.591959
H 6.99871 -8.24817 -1.03361
O 13.4244 8.04951 -11.2114
H 12.7475 7.76705 -10.5317
H 14.0306 8.73745 -10.8122
O 1.02679 -6.5771 10.5415
H 0.277988 -7.12429 10.9155
H 1.45397 -7.07049 9.78373
O 8.62063 -14.4536 -10.5188
H 8.92715 -14.2569 -9.58748
H 8.63933 14.4921 -10.6742
O 14.8626 -12.6634 8.20704
H 14.0334 -12.2305 8.56075
H -14.7208 -12.1323 7.43537
O -1.63309 -10.457 -0.566
H -1.06452 -9.63823 -0.646075
H -2.59043 -10.2147 -0.723737
O 14.8618 -11.9741 12.5262
H -14.2733 -11.7235 13.0738
H 14.5275 -11.1689 12.0363
O -5.89513 -9.41709 -2.6755
H -5.3263 -9.82247 -1.95985
H -6.78722 -9.17401 -2.29451
O -0.976068 -2.71362 13.4112
H -1.96559 -2.56914 13.4174
H -0.560226 -2.20469 14.165
O -9.35399 3.7568 7.89861
H -9.51253 4.30783 7.07928
H -10.1033 3.89826 8.54559
O 11.7128 -7.3026 -6.64029
H 12.2785 -8.05863 -6.31088
H 12.1642 -6.43429 -6.43449
O -6.007 1.57559 8.11692
H -5.67007 1.38753 9.03951
H -5.30999 2.07574 7.60302
O 9.24217 3.1605 7.14016
H 8.4503 2.68038 6.76266
H 8.98535 4.1 7.36698
O -13.1401 3.57516 0.686538
H -12.2088 3.25911 0.505292
H -13.5476 3.9153 -0.161028
O 13.0025 -7.84516 2.6536
H 12.0495 -8.08192 2.84248
H 13.0842 -6.85466 2.54259
O -10.9343 13.0992 2.97599
H -11.4981 12.422 3.44884
H -11.2186 14.0184 3.24841
O 9.8037 -0.0157038 -2.63768
H 9.60786 -0.0894584 -1.65979
H 9.97308 0.941514 -2.87243
O -2.2362 0.73174 -8.64543
H -2.38967 -0.0984048 -9.1815
H -3.1103 1.18915 -8.48171
O 3.72075 1.39925 -5.91901
H 2.93666 1.99975 -6.07608
H 3.44063 0.627856 -5.34757
O -9.75817 -14.4757 -3.50171
H -9.20702 14.6233 -3.48862
H -9.18263 -13.6923 -3.26693
O 3.52208 5.10889 -7.02566
H 4.51757 5.02121 -7.06283
H 3.24593 5.38507 -6.10504
O 10.3364 6.71571 -12.9995
H 10.258 7.67113 -12.7148
H 10.4483 6.13553 -12.1927
O -4.60498 -13.2981 12.7427
H -5.29259 -13.7186 12.1507
H -3.84271 -12.9679 12.1859
O -10.6856 -12.4057 -10.3876
H -9.71079 -12.3158 -10.1834
H -10.8154 -12.4567 -11.3779
O 10.4705 -6.49201 4.95993
H 9.55479 -6.79294 5.22646
H 10.4443 -5.52333 4.71291
O -8.50234 2.06796 3.97424
H -9.41044 2.20841 3.57967
H -8.11204 2.95096 4.23509
O -6.58376 -2.17184 -11.3704
H -7.31543 -2.7151 -11.7822
H -6.3015 -2.59214 -10.508
O 6.94615 13.4814 10.3739
H 6.50952 13.2578 11.2454
H 7.05982 12.6471 9.8343
O 7.2603 2.96082 10.8921
H 7.43645 2.50654 11.7654
H 8.12626 3.11672 10.4168
O 13.3331 -11.993 -2.01081
H 12.745 -12.3927 -1.30762
H 13.8568 -11.2374 -1.61737
O 13.4551 -5.50698 -2.92844
H 13.2369 -6.47455 -2.80106
H 13.0327 -4.97094 -2.19751
O -8.06139 -11.7498 -9.67388
H -7.36603 -11.9141 -10.3736
H -7.61964 -11.4454 -8.8299
O 9.39719 -3.47889 -7.00281
H 8.50841 -3.1833 -7.35318
H 9.34965 -4.44396 -6.74502
O 9.38861 12.3747 -11.0197
H 10.1668 12.3179 -10.3941
H 9.72076 12.4141 -11.9621
O -14.1886 -4.02887 12.937
H -14.536 -4.3721 13.8097
H -13.75 -4.77507 12.4362
O 4.49231 -5.43063 -10.1322
H 3.62404 -5.22871 -10.5854
H 4.37717 -5.35369 -9.14179
O 3.13375 -4.1432 13.2319
H 2.55723 -4.57501 13.9256
H 4.09006 -4.18244 13.5217
O -8.30689 -6.93635 12.4509
H -8.53784 -6.94498 13.4238
H -7.35903 -6.63902 12.3359
O 5.77475 -8.78187 7.04025
H 5.50719 -7.91248 7.45575
H 6.12325 -9.39633 7.7481
O -4.07148 -12.983 -11.2303
H -3.12361 -12.7123 -11.3986
H -4.64173 -12.1658 -11.1468
O -6.64854 -12.0715 -7.17427
H -6.72279 -12.1923 -6.18435
H -5.69509 -11.8933 -7.41773
O 14.6626 0.781098 -10.5712
H 14.7806 -0.11698 -10.995
H 13.9911 1.30927 -11.0909
O 2.12784 11.2299 -3.57429
H 1.50434 11.1467 -4.35171
H 2.06285 10.4098 -3.00564
O -10.3915 7.71863 4.65427
H -9.92618 8.46112 4.17233
H -11.3458 7.97142 4.81405
O -4.16498 4.07667 -4.89749
H -4.15861 4.26053 -5.88046
H -4.4938 3.14641 -4.73451
O -3.97827 -12.2755 1.74939
H -3.09023 -12.3656 2.20032
H -4.5121 -13.1085 1.89505
O 13.9696 -1.2331 13.9542
H 13.5666 -1.65761 13.1434
H 13.2789 -1.16773 14.6744
O -2.18407 -5.51 8.50283
H -2.21552 -6.10327 7.6984
H -1.53438 -4.76662 8.34357
O -8.2723 12.9753 -2.74401
H -7.33768 13.3121 -2.85867
H -8.37584 12.1074 -3.2298
O 7.38129 -6.56212 13.4928
H 7.29288 -6.30905 12.5294
H 6.47327 -6.61319 13.9087
O -5.12078 14.8882 7.88422
H -4.54846 14.0957 8.09514
H -5.07357 -14.3899 8.63809
O 0.650009 -13.9351 -13.4561
H 1.01229 -14.5414 -12.7481
H 1.36062 -13.2907 -13.7386
O -7.89742 12.4454 10.6593
H -8.65136 12.8664 10.155
H -7.92027 12.7524 11.6108
O 1.69754 3.19549 -7.53517
H 2.24267 3.95284 -7.17557
H 1.9606 3.01614 -8.48317
O 12.3802 10.7401 -12.2732
H 11.4717 10.86 -12.6735
H 12.4478 9.82865 -11.8672
O -12.1472 14.5042 5.98095
H -12.5912 -14.947 6.73625
H -11.2808 14.1168 6.29621
O -3.9593 -4.20221 1.69802
H -4.20633 -4.07881 0.736872
H -3.45891 -3.39824 2.01944
O -7.01002 -12.3772 -4.46951
H -7.47223 -11.4919 -4.41781
H -6.78083 -12.688 -3.54702
O -9.91187 -2.89172 14.3872
H -9.24979 -3.54982 14.0286
H -10.1849 -2.26304 13.659
O 9.82699 -0.032181 -11.9883
H 9.69273 -0.456455 -11.0928
H 9.18768 -0.431466 -12.6455
O -6.99138 -12.1759 -12.5698
H -6.52118 -11.5536 -11.944
H -7.84424 -11.7556 -12.8797
O 2.51472 10.0401 -9.77925
H 2.90957 10.5224 -10.5613
H 2.38615 10.6813 -9.02261
O 6.33189 -10.918 -13.3992
H 5.50497 -10.4178 -13.6563
H 6.99147 -10.2853 -12.9933
O -1.31444 -2.44702 4.2168
H -2.04457 -2.61415 4.8794
H -1.57274 -1.68657 3.62092
O -11.631 4.76724 -11.3862
H -11.9092 5.66196 -11.0367
H -11.8466 4.70839 -12.3609
O -4.80277 7.96229 8.56464
H -5.74234 7.64981 8.70479
H -4.45038 8.35126 9.41587
O 5.34231 -0.724194 14.7434
H 4.88714 -0.542401 13.8717
H 4.98802 -0.101092 -14.4926
O 11.1804 -12.185 -7.64953
H 11.1642 -11.4155 -8.28798
H 12.0209 -12.7104 -7.782
O 5.71774 5.70205 -8.95524
H 5.11377 6.49888 -8.97409
H 5.46915 5.07777 -9.69587
O 1.12508 7.21023 7.34074
H 0.377462 7.39607 7.97839
H 0.839781 6.50833 6.68804
O -8.28607 -14.2996 3.74356
H -8.99137 14.9249 3.73769
H -7.96535 -14.1562 4.67985
O 1.60333 -8.52275 8.62819
H 0.818958 -9.0108 8.24525
H 2.4121 -9.1097 8.59011
O -10.9627 2.87807 -9.78448
H -11.0645 3.79241 -10.1765
H -11.8653 2.50582 -9.56815
O -1.92664 0.662069 -5.51408
H -2.60806 0.0654353 -5.93806
H -1.01262 0.392135 -5.81702
O -6.37951 -14.7042 -10.6788
H -6.4564 -14.7279 -9.68197
H -5.47866 -14.3539 -10.9354
O 12.2466 14.6302 -8.36491
H 11.6556 14.5578 -7.56145
H 13.1945 14.7548 -8.07137
O 12.6103 -8.99342 7.83224
H 12.8187 -8.17757 8.37172
H 12.716 -8.78589 6.8597
O 13.3244 5.08816 -11.1979
H 12.3396 5.0008 -11.0473
H 13.5028 5.87594 -11.7876
O -7.93592 4.56946 4.72151
H -7.33958 5.2979 5.05889
H -8.89121 4.84856 4.81944
O 9.37299 8.98549 -10.6883
H 8.50515 8.48902 -10.6674
H 10.059 8.47968 -10.1652
O 10.7826 -10.3997 13.9469
H 11.6693 -9.96296 14.0991
H 10.3078 -10.5034 14.8209
O -6.3059 -13.0597 -1.91588
H -6.89314 -12.389 -1.46275
H -6.21909 -13.8712 -1.33789
O 13.4571 -6.64803 9.19159
H 13.5848 -5.92078 8.51716
H 13.1794 -6.24771 10.0649
O 14.196 -2.29786 -7.94352
H 14.9227 -2.98343 -7.9874
H 13.3689 -2.71267 -7.56415
O -3.03029 2.42767 9.09988
H -3.03783 2.72356 10.0551
H -2.54156 3.10177 8.54598
O -11.8562 1.86315 -12.4486
H -11.3516 2.15015 -11.6343
H -12.3068 2.65635 -12.8583
O -10.8722 -1.37548 9.59778
H -11.3566 -2.12334 10.0518
H -10.5633 -1.6774 8.69586
O 11.4332 -10.0277 -9.50597
H 10.9026 -10.0466 -10.3534
H 12.2144 -9.41304 -9.61549
O -12.1685 4.68412 -14.074
H -13.0339 4.84246 -14.5494
H -11.4093 4.81199 -14.7123
O -6.16575 -5.61759 -10.5926
H -7.01262 -5.70541 -10.0681
H -6.37669 -5.62656 -11.5701
O 14.3877 -12.6477 3.88738
H 14.5344 -13.5915 3.59137
H 14.8034 -12.5119 4.7867
O 10.2599 3.50252 -7.97871
H 10.6081 3.09191 -7.13594
H 9.26878 3.61605 -7.90948
O 6.02213 -1.66206 -3.47553
H 6.51044 -1.87281 -2.62864
H 6.48883 -0.917524 -3.95294
O -2.24173 11.3709 -4.31881
H -2.63452 12.0145 -3.66185
H -2.11096 10.4828 -3.87803
O -14.5843 -8.82715 -12.3243
H 14.7138 -8.05671 -12.3769
H -14.7979 -9.38098 -11.5195
O -5.56558 -10.4125 12.9328
H -6.39467 -10.2572 13.4699
H -5.41497 -11.3957 12.829
O 4.76297 -12.2936 4.47652
H 5.53103 -12.786 4.88596
H 4.57995 -12.6605 3.56441
O -11.3802 1.11654 2.68853
H -11.3296 1.43628 3.63472
H -11.2309 0.128063 2.66228
O 5.04345 1.30005 9.88583
H 5.528 0.486475 9.56431
H 5.70508 1.97344 10.2157
O -5.0644 -2.87385 -3.10406
H -5.68266 -3.36118 -2.48734
H -5.59939 -2.34943 -3.7665
O -2.34402 -4.49558 -2.9891
H -2.42694 -5.2296 -2.31501
H -3.20197 -3.98353 -3.03156
O 8.61385 8.31011 -7.28446
H 9.17369 9.01952 -7.71268
H 9.19883 7.55095 -6.99892
O -6.97551 -5.34244 -13.1518
H -6.24492 -4.85681 -13.6318
H -7.7709 -4.74304 -13.0615
O 12.4858 -11.2397 9.22107
H 12.4889 -10.3308 8.80402
H 12.0187 -11.1995 10.1044
O -1.74738 -13.1636 -4.57989
H -1.59098 -13.1444 -3.59234
H -2.72964 -13.1211 -4.76269
O -2.95059 -1.59702 1.5744
H -2.15087 -0.996826 1.55746
H -3.38424 -1.60002 0.673284
O -10.2925 9.94872 9.69325
H -9.54476 10.1186 9.05126
H -10.0242 9.22988 10.3346
O 5.14417 -14.7851 -9.39529
H 6.02904 -14.8545 -8.93459
H 4.41105 -14.9511 -8.7357
O -6.09208 -4.2191 10.1026
H -5.28675 -4.79002 10.2626
H -5.85862 -3.48433 9.46571
O -0.578991 -14.9495 -6.52332
H -0.509449 -14.3636 -5.71586
H -1.18754 14.2153 -6.32603
O -6.51862 -9.02679 9.59418
H -5.98409 -8.79597 10.4072
H -7.48506 -9.10034 9.84045
O -13.0751 -5.79426 3.13219
H -13.2961 -6.7356 2.87701
H -12.0826 -5.69069 3.19684
O -2.10223 3.59636 11.9093
H -3.03105 3.53135 12.2742
H -1.58121 2.78606 12.1777
O 10.4504 -13.8196 -12.5704
H 10.1451 -13.6726 -13.5112
H 9.77458 -14.3729 -12.0832
O -0.19497 9.02928 -10.2894
H -0.886898 8.76455 -10.9611
H 0.265869 9.86213 -10.5961
O 4.83739 -13.7139 2.08716
H 4.27352 -13.973 1.30295
H 5.18056 -14.538 2.53776
O 13.1552 11.7893 -14.7814
H 12.9281 11.4897 -13.8547
H 13.4216 12.753 -14.7643
O 12.6022 8.20333 10.6046
H 11.6245 8.15266 10.8085
H 13.0938 7.53311 11.1606
O 4.51043 -3.38137 7.89716
H 3.5248 -3.2292 7.82341
H 4.83811 -3.84773 7.07546
O -14.2662 -9.77095 -2.46391
H -14.3637 -9.00924 -1.82332
H -13.3913 -10.229 -2.30648
O 6.02353 -1.02436 -11.4135
H 6.80218 -1.24485 -12.001
H 6.34676 -0.849004 -10.4835
O -11.6359 -10.7604 -7.01777
H -11.1096 -10.9754 -6.19509
H -12.4275 -11.3688 -7.07545
O -6.62156 -14.8459 11.1577
H -7.10993 -14.1424 10.6412
H -6.85573 14.1852 10.7956
O 14.3742 7.54319 -13.6755
H 14.0274 7.75539 -12.7618
H 13.6341 7.6328 -14.342
O -9.01117 -5.13559 6.54711
H -9.44822 -5.0967 7.44574
H -8.4926 -5.98673 6.46521
O 9.40262 1.7549 9.40545
H 9.07195 0.830281 9.21624
H 9.45176 2.27263 8.55127
O 2.18933 -6.19239 7.34848
H 2.05053 -6.24581 6.35957
H 1.84764 -7.02801 7.77866
O -7.26822 13.3375 -14.1013
H -7.11596 14.2658 -14.4408
H -7.8359 12.8335 -14.7522
O 3.60123 13.2714 -6.4972
H 3.17314 14.0761 -6.08577
H 3.06457 12.9757 -7.28755
O 4.07241 5.50748 12.7728
H 3.2103 6.01229 12.7281
H 4.67799 5.9404 13.4405
O -11.7741 3.28493 11.5436
H -12.5285 3.23615 12.1983
H -11.0022 3.76562 11.9597
O -5.27127 -8.70185 -5.18857
H -4.32666 -8.85375 -5.47961
H -5.41489 -9.11957 -4.29138
O -5.15251 -1.13985 3.80705
H -4.47076 -0.868864 3.12745
H -5.62801 -0.327387 4.14449
O -10.133 12.7253 6.95923
H -10.4461 11.8361 6.62538
H -10.4882 12.879 7.88133
O 7.08923 10.3296 -5.18056
H 7.20196 9.59685 -5.85175
H 7.93001 10.4258 -4.64773
O 14.3201 2.20366 0.995203
H 13.7303 2.98934 1.18208
H -14.6614 2.50597 0.944648
O -9.65829 9.14732 -11.7232
H -9.35105 8.19893 -11.6443
H -9.26866 9.55638 -12.5483
O 5.3693 -8.26905 12.2886
H 6.36413 -8.28331 12.1878
H 4.96554 -7.74745 11.5369
O 9.05932 -13.7811 -7.72945
H 9.89462 -13.2313 -7.72894
H 8.31749 -13.2608 -7.30635
O 3.43063 11.7702 -11.7958
H 3.23272 12.7044 -11.499
H 4.01536 11.7949 -12.6067
O 5.25042 9.89238 -2.86418
H 6.03281 9.95849 -3.4835
H 5.11844 10.7679 -2.39924
O -6.93996 -13.9561 -14.8197
H -6.4858 -13.6178 14.2895
H -6.85949 -13.2753 -14.0916
O 7.87577 -3.15046 4.41194
H 6.97841 -3.1858 4.8519
H 7.948 -3.88962 3.74224
O 7.26909 -5.34523 -4.64147
H 6.42504 -4.95485 -5.00922
H 7.69019 -4.69393 -4.01017
O 4.52568 0.781183 -13.0733
H 4.3192 1.74212 -12.8888
H 4.80601 0.331697 -12.2251
O -3.01505 3.10948 4.12018
H -3.70519 3.187 4.83974
H -3.3352 3.58191 3.29897
O 7.71267 1.1215 5.19544
H 7.89406 0.581291 6.01723
H 6.8346 0.847149 4.80329
O -6.06707 -6.08504 -5.45664
H -5.45305 -6.83145 -5.1999
H -6.63441 -6.37083 -6.22899
O 5.90776 4.01834 -11.2186
H 5.03849 3.69437 -11.592
H 6.37904 4.57314 -11.9042
O 8.89333 10.853 9.54865
H 9.027 9.94622 9.94858
H 9.73008 11.3904 9.65402
O 0.195192 9.38422 1.91236
H 0.776359 8.57609 2.00847
H -0.0787711 9.70741 2.81821
O -8.44771 -0.662979 5.5908
H -8.47164 -0.0201719 4.8251
H -8.33051 -0.158301 6.44615
O -10.8937 12.7753 0.123498
H -10.8742 13.1143 1.06415
H -10.0811 12.218 -0.0468833
O 1.29378 -2.75955 5.34186
H 0.319465 -2.54667 5.26792
H 1.50691 -3.02313 6.2827
O 7.48793 0.345195 -4.70875
H 8.11066 0.702933 -4.01284
H 8.01097 -0.156194 -5.39803
O -14.8878 14.597 -7.25516
H -14.8701 14.1289 -6.37163
H -13.952 14.7223 -7.58477
O -13.6679 -11.7539 0.870312
H -13.3623 -12.6917 1.03551
H -14.6339 -11.6701 1.1153
O 5.94325 -1.37437 9.47597
H 5.23811 -2.0559 9.2801
H 6.25546 -1.47967 10.4202
O -10.7015 2.46824 0.0716795
H -10.0629 1.82228 -0.346551
H -10.9458 2.14971 0.987607
O 12.8668 6.90609 1.58828
H 13.4304 7.0751 0.779627
H 12.81 5.92171 1.75514
O 6.99191 7.66262 -1.08125
H 6.5905 8.04783 -0.250259
H 6.9494 8.33911 -1.81651
O 11.6017 2.19697 4.34189
H 10.6494 2.09252 4.05506
H 12.0822 1.32771 4.22531
O -0.602233 0.280806 12.1122
H -0.295431 -0.433068 12.7418
H -0.289177 0.0663497 11.187
O -9.43347 -11.8894 12.1476
H -9.39128 -12.8253 12.4974
H -9.99191 -11.3296 12.7598
O -4.33432 12.5369 -10.4507
H -4.37561 13.472 -10.0985
H -3.38022 12.2416 -10.5014
O 14.599 -14.6606 -2.46716
H 13.8563 -14.8463 -3.11051
H 14.613 -13.6852 -2.24669
O 4.60877 0.186189 12.3566
H 3.73811 -0.298903 12.4385
H 4.71759 0.519934 11.4202
O -10.268 5.41295 14.2138
H -9.9105 5.19589 13.3054
H -9.51351 5.4484 14.8692
O 6.233 6.93673 8.40621
H 5.99532 6.18106 9.01657
H 5.39643 7.36813 8.06841
O -1.9745 7.23484 4.60442
H -1.97572 6.71604 3.74949
H -1.73034 8.18625 4.41662
O 5.53123 11.5846 -8.1717
H 5.03284 12.2126 -7.57403
H 6.08184 10.9618 -7.61582
O 2.24583 -14.0327 -5.54767
H 2.78394 -13.3034 -5.97018
H 1.46718 -14.2552 -6.13444
O 13.7567 6.15799 -7.92307
H 14.4431 5.63245 -8.42579
H 13.6796 5.801 -6.99212
O 13.3782 -14.2845 12.876
H 13.0183 -14.449 11.9576
H 13.7224 -13.3475 12.9362
O -11.4835 -13.8566 3.85975
H -11.6839 -14.2723 4.7469
H -10.8696 -13.0776 3.98781
O -4.34719 -13.4854 -5.47881
H -4.82581 -14.1383 -6.06594
H -5.0148 -12.9586 -4.95267
O 0.267786 11.0281 -5.52597
H 0.386268 10.0397 -5.62107
H -0.679376 11.2277 -5.2747
O -7.47817 6.11574 -7.73126
H -7.95744 5.23914 -7.68729
H -6.85415 6.19383 -6.95373
O -13.6079 7.23561 9.98656
H -13.7721 8.21196 9.84563
H -13.5103 6.78269 9.10032
O 12.9137 -5.48626 11.8176
H 12.257 -4.84064 11.4278
H 13.7049 -4.98562 12.1689
O 1.87676 11.9691 3.31041
H 2.78399 12.0033 3.72971
H 1.49963 12.8936 3.25587
O -5.4658 -4.81289 6.45436
H -6.09201 -5.58609 6.55486
H -5.99015 -3.96229 6.41442
O 2.74751 -13.2443 7.95354
H 3.71727 -13.3625 7.73985
H 2.47379 -13.9155 8.64251
O 1.25106 -1.59427 -7.77354
H 1.39148 -1.7762 -8.74681
H 0.855005 -0.683249 -7.65848
O -12.1687 -6.68436 -5.2931
H -11.7796 -7.18385 -4.51903
H -13.0014 -6.21369 -5.00144
O -5.46078 -7.08263 12.3926
H -5.27901 -7.98925 12.7735
H -4.68985 -6.80026 11.8217
O -9.99301 -11.8044 4.61405
H -9.17405 -11.5687 5.13733
H -10.3742 -10.9773 4.20097
O -10.0686 2.79085 -6.32932
H -10.0408 1.83922 -6.63539
H -9.77823 3.38969 -7.07573
O 11.7764 4.07171 2.28695
H 10.8227 4.1038 1.98799
H 11.8128 3.85403 3.26233
O -0.225907 1.47892 9.14411
H 0.482497 1.87505 9.72833
H -0.964638 2.14146 9.02008
O -5.61775 12.0182 3.50742
H -6.3247 12.1678 2.81612
H -5.99142 12.214 4.41412
O -10.231 -8.61597 -11.7467
H -10.8665 -8.73151 -10.9833
H -10.4952 -7.81366 -12.2819
O -9.75815 -7.28783 0.981798
H -9.90504 -8.2669 1.12291
H -10.6183 -6.79786 1.12369
O 4.6418 4.72988 5.24873
H 4.98973 4.61566 6.1793
H 4.55217 5.70456 5.04368
O -3.84138 -0.0668404 -14.9071
H -3.78371 0.809917 -14.4295
H -3.89099 0.093208 14.0405
O 0.274564 10.9927 14.9057
H -0.369407 10.3889 14.4358
H -0.21978 11.7716 -14.6417
O -1.50382 -12.1077 -7.16321
H -1.72569 -12.6714 -6.36757
H -0.736412 -11.5059 -6.94179
O 11.7085 8.48508 3.44871
H 11.4856 7.9292 4.24958
H 12.1359 7.9092 2.75172
O 1.457 14.7146 3.97635
H 2.07675 14.3117 4.64994
H 1.17734 -14.309 4.28292
O -6.2538 9.16704 -4.04286
H -5.25639 9.23909 -4.04956
H -6.52605 8.35793 -3.52201
O 1.8194 -5.80872 -14.3222
H 1.26989 -6.38294 -14.9291
H 1.28906 -5.5851 -13.5044
O 0.630157 -1.55477 10.2435
H 0.824693 -1.26758 9.30552
H 0.757629 -2.54349 10.3226
O -12.7028 -5.65265 11.1364
H -11.8772 -5.23781 10.7539
H -12.5236 -6.61211 11.3541
O 4.02566 -3.45488 0.545929
H 3.30606 -3.89096 1.08636
H 4.84019 -4.03506 0.545549
O -0.634579 8.20507 9.57526
H -1.18365 8.16576 8.74037
H -0.588901 9.1498 9.9
O 1.5199 10.6025 11.6928
H 2.23422 10.7032 12.3854
H 1.67405 9.7611 11.1748
O 7.52812 -4.39907 -13.9155
H 7.0394 -5.08669 -13.3785
H 8.50646 -4.45354 -13.7156
O -13.7723 -8.60193 -6.61072
H -13.2629 -9.46254 -6.61479
H -13.2187 -7.88901 -6.18021
O -11.6878 2.38856 5.94156
H -11.4437 3.33188 5.71647
H -12.0283 2.34743 6.88093
O -8.99468 8.26603 -6.66912
H -8.57773 7.36335 -6.7758
H -8.28791 8.97004 -6.73921
O -5.54334 -14.4006 2.57791
H -6.40004 -14.485 3.08687
H -4.79359 -14.7762 3.12278
O 3.61502 13.503 5.36093
H 4.33994 12.9741 4.91963
H 3.68165 13.3968 6.35307
O 2.90617 8.32894 10.5744
H 2.9021 7.63804 9.8514
H 2.46231 7.95962 11.3909
O -0.899486 2.78048 -10.4461
H 0.0377251 2.58919 -10.7379
H -1.10763 2.24997 -9.62435
O 11.684 -6.88216 14.0922
H 11.8638 -6.36146 13.2576
H 12.4024 -7.56597 14.2198
O 1.85905 7.15022 12.8154
H 0.86666 7.02776 12.8
H 2.14751 7.41938 13.7343
O -3.59585 -0.0170416 6.13511
H -4.0159 0.871736 5.95154
H -3.90774 -0.680065 5.45453
O 9.78647 5.931 10.6966
H 10.7439 5.6517 10.7697
H 9.30198 5.68302 11.5356
O -10.9561 7.91635 -14.1827
H -10.3498 7.27436 -14.652
H -11.5978 7.40898 -13.6075
O -7.04071 8.22393 12.9339
H -7.43164 8.77039 13.6746
H -6.55741 7.43769 13.319
O 4.69917 -13.2126 -3.59069
H 4.77557 -12.5997 -4.37714
H 3.86417 -13.7569 -3.67214
O -0.249713 10.1094 6.66548
H -0.996998 9.75754 7.22924
H 0.552509 10.273 7.23971
O -14.3131 0.0376372 -6.33823
H -13.781 0.852331 -6.56892
H -14.343 -0.575543 -7.12765
O 10.0536 -5.24183 -11.4876
H 10.7238 -4.92051 -12.1567
H 9.54951 -4.46067 -11.1192
O -1.25349 -3.97798 -11.9187
H -1.4475 -3.54938 -12.8011
H -1.8926 -4.73196 -11.7666
O -13.3835 10.4644 12.9738
H -13.8828 10.1198 13.7688
H -13.7762 11.3381 12.6867
O -11.7453 -10.9268 -0.655033
H -12.5834 -11.3294 -0.286907
H -11.253 -10.455 0.0764486
O 11.9691 1.89955 -9.28933
H 12.137 1.97897 -10.272
H 11.3053 2.5924 -9.00754
O -9.54254 -0.218465 -10.0882
H -9.75916 0.635112 -9.61435
H -9.15405 -0.871385 -9.43796
O -0.687485 -10.53 -10.0529
H -0.963856 -10.9535 -9.19019
H -0.959302 -11.1178 -10.8149
O -8.39024 -8.50039 -1.69083
H -9.20714 -7.94157 -1.54781
H -7.86296 -8.54329 -0.842179
O -2.40092 -8.70624 -6.24498
H -1.50352 -9.14129 -6.31884
H -2.35703 -7.96282 -5.57755
O -4.31063 9.52666 -7.77785
H -4.18136 8.71986 -7.20128
H -3.45653 10.0449 -7.82228
O -4.63271 -6.73037 -2.28606
H -5.14755 -7.5498 -2.53813
H -5.24965 -6.06558 -1.86473
O 9.11083 -13.1878 3.14933
H 10.0347 -12.8067 3.18489
H 8.59062 -12.7337 2.42595
O -5.05008 -11.1304 8.60991
H -4.85413 -11.0881 7.63018
H -5.32777 -10.2259 8.93372
O -9.18839 -14.3004 13.7357
H -8.33357 -14.2815 14.2544
H -9.92732 -14.6309 14.3229
O -3.35524 12.4368 8.42229
H -2.62906 12.4799 7.73609
H -2.95882 12.2174 9.31381
O -1.39695 -12.2308 -11.9877
H -0.61444 -12.8311 -12.1531
H -1.54272 -11.6458 -12.7855
O -6.44142 -1.61542 0.809864
H -7.40111 -1.83131 0.629756
H -6.22486 -1.82886 1.76255
O 10.8853 13.0596 8.90641
H 9.95661 13.0972 8.53749
H 11.509 12.7148 8.20484
O 13.4887 -7.2577 -9.79654
H 14.4495 -7.48172 -9.63313
H 13.1348 -6.72614 -9.02695
O -4.42397 -8.63533 -13.5745
H -5.03377 -8.62441 -12.7819
H -3.89719 -9.48537 -13.578
O 5.19662 -0.986766 0.281876
H 4.64687 -1.82144 0.315991
H 5.95886 -1.11538 -0.352563
O 2.1724 -10.4936 -4.59146
H 2.8558 -9.76382 -4.61393
H 2.43954 -11.22 -5.22469
O -6.15621 0.598115 -11.8508
H -5.19116 0.75426 -12.0614
H -6.306 -0.375059 -11.6759
O -0.0710848 -7.92492 0.592325
H -0.690742 -7.15039 0.719603
H 0.753353 -7.6176 0.117013
O -0.458295 3.56119 -5.58767
H 0.414524 3.26075 -5.97237
H -1.03147 2.76376 -5.39888
O -3.67547 13.9726 11.3278
H -3.46449 13.1932 11.9178
H -4.66481 14.0314 11.1943
O 13.0164 2.40071 -11.8593
H 13.0211 3.34931 -11.5427
H 13.0899 2.38168 -12.8564
O 11.501 -4.41022 -13.8452
H 11.4986 -5.29079 -14.3192
H 11.5528 -3.6706 -14.5163
O 12.9453 5.00202 -3.18945
H 12.6237 5.94185 -3.0738
H 13.5485 4.95171 -3.9855
O -7.34879 9.73185 -0.449252
H -6.46128 9.35145 -0.709413
H -8.01625 9.54364 -1.16976
O 6.85964 9.48814 12.926
H 7.85451 9.4088 12.8627
H 6.45549 9.34276 12.0229
O 5.2336 12.5704 -1.98359
H 5.40188 12.8339 -2.93348
H 4.55623 13.1866 -1.58169
O -1.65383 13.6045 -2.69653
H -0.793099 13.1007 -2.62301
H -1.76644 14.1908 -1.89429
O -9.7331 -3.26121 4.77655
H -8.98721 -2.72222 4.38513
H -9.36136 -3.91659 5.43408
O -3.44661 -6.01083 -14.3798
H -3.94538 -5.21205 -14.0433
H -3.98709 -6.83565 -14.2136
O 1.48701 -4.3427 -10.9317
H 0.622799 -3.99548 -11.2959
H 1.32555 -4.77299 -10.0436
O -3.22828 14.099 -13.0633
H -3.54035 -14.8848 -13.0953
H -3.29366 13.758 -12.1255
O 1.65173 -6.26853 -0.830353
H 1.71217 -5.46049 -1.41644
H 2.52075 -6.76283 -0.853476
O -2.18586 12.8415 -6.63731
H -1.96423 12.1224 -7.29597
H -2.57918 12.4305 -5.81485
O 2.19432 -5.0889 1.74112
H 1.2943 -5.15593 2.17186
H 2.18617 -5.58523 0.872989
O 12.855 -5.12944 3.25597
H 11.9522 -4.94838 3.6461
H 13.5532 -4.66713 3.80267
O -0.178565 -2.37522 -5.59584
H 0.157364 -3.10048 -4.99483
H 0.545007 -2.10785 -6.23226
O 11.8253 1.70633 7.98061
H 11.4184 2.58814 7.74209
H 11.5713 1.02533 7.29374
O 3.2518 0.714358 -1.27106
H 2.41877 0.821418 -0.728226
H 3.98767 0.37006 -0.687951
O -0.988842 -0.389272 7.0046
H -1.90592 -0.238466 6.63542
H -0.8801 0.132739 7.85062
O 5.66092 11.9474 0.786581
H 5.70681 10.9703 0.994354
H 5.48627 12.0727 -0.190084
O -11.4764 -9.33714 4.033
H -12.4406 -9.57955 3.9248
H -11.3609 -8.79223 4.86354
O -6.62724 5.23238 -1.01397
H -6.84783 5.25994 -0.038962
H -6.3854 4.29771 -1.27472
O -11.2271 0.713509 -2.74452
H -10.4314 1.31838 -2.77894
H -12.0622 1.26271 -2.71444
O -13.6644 2.79077 -2.8915
H -13.5707 2.84389 -3.88572
H -13.9223 3.68782 -2.53261
O -6.80759 4.55176 8.14172
H -7.69038 4.10627 7.99243
H -6.94818 5.41781 8.62157
O 3.66403 -8.46532 0.321797
H 3.17138 -9.32466 0.459209
H 4.634 -8.65739 0.172376
O 5.82185 8.01042 -6.77072
H 6.68781 8.04888 -7.26942
H 5.06823 7.9028 -7.41921
O 13.042 2.49508 10.661
H 12.5849 2.09677 9.86571
H 13.5461 1.7816 11.1477
O -12.651 -13.9829 13.9654
H -12.2445 -14.2774 13.1005
H -13.0661 -14.7691 14.4234
O -8.39173 10.6986 -4.36638
H -8.65802 10.6376 -5.32838
H -7.56192 10.1613 -4.2155
O -4.54168 3.05581 13.5957
H -4.84829 2.19013 13.1999
H -4.20051 2.89645 14.5222
O -13.4539 -1.37113 6.79819
H -14.1712 -1.60007 6.14009
H -12.772 -0.7868 6.35816
O 13.6793 -12.8458 -7.96503
H 14.0674 -12.0969 -7.42767
H 14.4118 -13.4608 -8.25716
O -10.6223 5.00798 4.81679
H -11.4371 4.77281 4.28679
H -10.4256 5.98273 4.71079
O 6.32519 -14.8947 -6.6928
H 6.44949 14.2964 -6.03429
H 6.21942 -14.0291 -6.20331
O -14.3647 14.8836 10.8861
H -14.4663 -14.0768 11.0931
H -14.6188 14.7172 9.93329
O -10.0328 14.1882 9.55553
H -10.6093 14.5396 10.2932
H -9.85495 14.9178 8.89511
O -6.8141 -8.67442 0.567359
H -5.83199 -8.84358 0.650498
H -7.11907 -8.10083 1.32766
O -2.16299 -12.5426 11.5812
H -1.34193 -11.9721 11.6014
H -1.94987 -13.4467 11.9517
O 9.04393 9.07764 3.78106
H 9.0624 9.71851 4.54852
H 9.97989 8.82758 3.53301
O 6.64541 -10.1657 4.55073
H 6.20957 -9.71226 5.32823
H 6.03991 -10.8796 4.19889
O -9.71203 14.0585 -7.85819
H -8.85332 14.5267 -8.0666
H -10.4753 14.6937 -7.97626
O 0.745847 7.25373 -8.09489
H 0.673602 7.67871 -7.19253
H 0.397677 7.88389 -8.78896
O 13.467 9.7129 -1.8371
H 12.5606 10.1224 -1.73264
H 13.8148 9.90289 -2.75526
O -3.27919 4.80519 -0.976397
H -3.89276 4.06209 -1.24362
H -2.52285 4.86358 -1.62801
O 1.96731 5.37161 -11.5978
H 2.60386 6.12613 -11.7577
H 1.72903 5.33662 -10.6272
O -13.4515 -12.6388 -6.29091
H -14.0239 -12.1305 -5.64743
H -13.2441 -13.5408 -5.91207
O -9.98473 -14.2551 -0.0698842
H -9.29724 14.9609 -0.182966
H -10.613 -14.27 -0.847767
O 8.31037 -7.44025 -10.8319
H 8.52508 -7.93624 -9.99045
H 8.75632 -6.54533 -10.8143
O -12.9661 11.7649 4.93903
H -12.753 11.0865 5.64221
H -13.7165 12.3464 5.25334
O 5.61965 -0.245957 -7.01855
H 6.26803 -0.00482726 -6.29638
H 4.76919 0.263332 -6.88661
O 13.0097 10.8556 3.80252
H 12.5961 9.98213 3.54563
H 13.8884 10.9583 3.33633
O -1.88368 -14.6382 7.86226
H -2.11642 14.3372 7.69509
H -2.57959 -14.2235 8.44864
O 0.245547 14.3171 -9.0917
H 0.351665 -14.8134 -9.67825
H -0.136335 14.5961 -8.21056
O 6.75331 -14.5458 8.36507
H 7.33449 -13.7335 8.41519
H 6.50382 -14.8347 9.28939
O 2.67072 7.42204 2.57568
H 2.81437 6.45929 2.34647
H 3.16247 7.64099 3.41848
O 3.17619 -9.92716 -10.8678
H 3.51059 -9.23379 -11.5062
H 2.65678 -10.6191 -11.3694
O -2.1321 -14.8395 -0.446105
H -2.00616 -14.9262 0.542173
H -3.09655 -14.6656 -0.645243
O 1.25559 -9.51649 2.3421
H 1.39629 -10.4751 2.09456
H 0.72104 -9.06306 1.62885
O -5.03263 3.39188 6.27378
H -4.38577 4.09966 6.55782
H -5.96722 3.71731 6.41766
O -6.80789 4.57294 1.65816
H -6.86555 3.58594 1.50793
H -7.17585 4.79471 2.56121
O 9.55754 -2.69163 6.58262
H 8.78063 -2.97808 6.02188
H 10.0123 -3.49871 6.95924
O -14.4725 4.09301 8.11175
H 14.8624 3.95499 8.90095
H -14.7288 3.45702 7.38381
O 14.7947 -14.1251 -12.5162
H 14.1813 -13.6378 -11.8946
H -14.45 -14.6191 -11.9855
O 9.15825 2.68584 -11.3719
H 9.50903 1.76793 -11.5576
H 8.41467 2.63005 -10.7055
O 11.3867 -2.95117 13.6332
H 10.6088 -3.45406 13.2563
H 12.0697 -2.80805 12.9169
O -13.1932 2.88416 -5.91561
H -12.2393 3.18091 -5.8711
H -13.6204 3.25755 -6.73913
O 7.11009 -9.25181 1.99223
H 7.33137 -10.1751 1.67832
H 6.95588 -9.26366 2.98024
O -3.62813 -13.1397 9.21657
H -4.20694 -12.3291 9.12675
H -2.95733 -12.9914 9.94328