2611
Atoms. Timestep: 23000000
O -14.0795 3.85695 4.84007
H -13.3536 4.53679 4.94416
H -14.9221 4.20318 5.2527
O 5.59623 1.35447 4.59656
H 5.64714 2.35046 4.67034
H 5.92467 1.06974 3.69596
O -2.54944 7.52523 -10.0659
H -3.04411 7.04088 -9.3443
H -1.93867 8.20201 -9.65489
O 8.88761 -10.8655 -10.3017
H 9.19246 -9.9203 -10.4189
H 8.71522 -11.2737 -11.1982
O -9.3176 3.27154 -2.63655
H -9.34431 2.50658 -3.28009
H -8.75917 4.00839 -3.01766
O 2.38497 10.1505 -10.025
H 2.45681 9.88658 -9.06313
H 2.9353 10.9694 -10.188
O 7.32746 -1.98484 3.27135
H 6.91025 -1.44569 2.53972
H 6.69458 -2.04533 4.04325
O -7.88584 2.63918 7.21851
H -7.46057 1.73994 7.11582
H -7.38901 3.30797 6.66542
O 0.762148 -0.133146 -8.9638
H -0.100126 0.370444 -8.90989
H 1.00654 -0.47375 -8.05589
O 2.33125 -4.17034 -7.19292
H 3.03369 -3.46002 -7.14768
H 1.57982 -3.93577 -6.57619
O 0.230489 9.46779 5.20753
H -0.497985 8.89126 5.57762
H 0.924476 8.89176 4.77556
O -13.7662 4.04028 -13.6815
H -14.1407 4.95694 -13.8211
H -14.0427 3.44838 -14.4386
O -6.60002 -7.43981 4.38965
H -7.35128 -7.91166 3.92815
H -6.88562 -6.51148 4.62767
O 2.63018 -4.1697 13.8249
H 2.90102 -3.24725 13.5497
H 3.4145 -4.78499 13.7456
O -4.53268 -1.47486 -6.36253
H -4.91577 -0.777466 -5.75681
H -4.17639 -1.03917 -7.18912
O -7.66295 3.77891 -12.073
H -7.29631 4.69202 -12.2514
H -8.08755 3.42179 -12.905
O 9.89861 12.8629 13.8072
H 9.03831 12.6267 14.259
H 10.1773 13.7833 14.0814
O -12.9912 6.21614 13.646
H -12.6173 6.35649 12.7292
H -12.3608 5.65309 14.1804
O -14.9509 -4.66831 11.2602
H 14.2555 -4.58929 11.8196
H 14.8238 -4.85395 10.3117
O -6.46219 6.40408 -12.2442
H -6.72176 6.74946 -11.3423
H -6.99908 6.87076 -12.947
O 7.84407 7.85215 -2.46459
H 7.41735 8.62662 -1.99752
H 7.84029 8.01474 -3.45128
O 11.1583 2.88875 -11.4547
H 11.1402 3.54647 -10.7016
H 10.9324 1.97848 -11.1077
O -6.12454 1.64679 2.43562
H -5.38709 1.78397 3.09696
H -6.34859 2.51888 2.00056
O -13.6133 -1.37334 -14.3756
H -13.78 -1.02369 14.734
H -14.2775 -2.091 -14.1662
O -3.99372 -7.97596 1.96073
H -3.95296 -8.97035 2.05844
H -4.8766 -7.64428 2.2932
O 6.67999 -9.26376 7.79582
H 6.98189 -9.18738 8.74611
H 6.26066 -8.4024 7.50905
O 3.172 5.22593 12.9787
H 3.44126 5.80823 13.7458
H 2.17786 5.11778 12.9752
O -9.25528 2.41993 -5.21654
H -9.12895 1.81411 -6.00206
H -8.97846 3.3485 -5.46383
O -12.2029 -3.94402 8.89945
H -11.6233 -4.05506 9.70675
H -12.7268 -3.096 8.97937
O 12.8595 8.71498 -1.95444
H 12.3207 8.09777 -2.52774
H 13.3612 9.35634 -2.53501
O 5.62256 5.18512 -8.2067
H 5.2265 6.07692 -7.98794
H 6.08765 4.82007 -7.4002
O 6.35335 14.4069 -12.2827
H 5.66997 13.8439 -11.8179
H 7.06332 14.6749 -11.6314
O 0.591628 4.29545 -8.39206
H 0.0603423 4.47045 -9.221
H 1.54441 4.11752 -8.63818
O -13.1671 -9.18568 -2.16817
H -13.6964 -8.58221 -2.76452
H -13.6258 -10.0715 -2.0985
O -13.7003 -11.4013 -14.2622
H -13.704 -10.9487 14.8777
H -13.1448 -10.8712 -13.6216
O 12.2564 -0.0922941 -3.82336
H 12.9883 -0.605972 -3.37561
H 11.3816 -0.314645 -3.3929
O -3.03562 5.45731 -3.98014
H -3.81529 4.83944 -4.08198
H -2.8603 5.61538 -3.00839
O 14.4727 -13.2951 3.70243
H 14.7947 -12.3656 3.88245
H 14.7052 -13.8841 4.47638
O -13.9875 -8.46304 3.43579
H -13.8832 -8.93199 2.55873
H -13.1194 -8.48664 3.93167
O -13.1507 -12.7045 -0.847379
H -12.2177 -12.7119 -0.487653
H -13.7557 -13.1882 -0.214877
O -6.31884 6.40124 1.45824
H -7.12887 5.84712 1.26634
H -6.46474 7.33208 1.12316
O 14.1181 4.81463 9.89002
H 14.5788 4.18487 9.26459
H 13.1912 4.99348 9.56006
O -7.6038 -14.7653 3.21309
H -8.4279 14.7125 3.33202
H -6.97804 14.8024 2.58602
O 13.5928 -12.1356 -11.0835
H 13.4507 -11.6112 -10.244
H 14.5585 -12.0983 -11.3404
O -1.7455 -14.6498 -1.68782
H -1.80874 -14.1344 -0.833168
H -2.66135 -14.9267 -1.97861
O -2.06412 0.731478 -4.35172
H -1.82367 1.41847 -3.66598
H -2.46213 1.18283 -5.15041
O -2.77174 12.1382 11.9312
H -2.86092 12.0557 10.9386
H -3.3648 11.467 12.3761
O -1.17354 -4.9436 6.54874
H -0.335492 -5.142 6.04046
H -1.2499 -5.57115 7.32357
O 7.3182 -12.3459 10.6317
H 6.99799 -12.5369 9.70384
H 7.84382 -13.1264 10.9702
O -9.01121 14.503 7.64147
H -9.4524 13.6114 7.53924
H -9.59485 -14.8203 7.24417
O 8.96853 13.4505 -4.37446
H 8.09719 13.5575 -4.85334
H 8.81988 13.5346 -3.38914
O -1.98708 3.19155 4.92105
H -1.64015 2.77112 5.75944
H -1.31048 3.83741 4.56737
O 3.93099 12.2745 4.6206
H 4.91949 12.1237 4.63372
H 3.50311 11.6252 3.99183
O -3.54486 -13.2799 -8.4088
H -4.38461 -13.8115 -8.29832
H -2.92846 -13.7568 -9.03541
O -10.3039 -0.398031 3.69899
H -10.8134 0.38033 4.06582
H -9.34208 -0.320373 3.96151
O 11.2933 -13.0904 3.76279
H 10.4275 -12.6161 3.92251
H 11.2446 -14.0119 4.14806
O 3.99384 -3.12009 10.7346
H 3.12257 -3.46902 10.3894
H 4.72682 -3.36861 10.1014
O 5.55204 3.64901 9.34688
H 4.60559 3.67285 9.66888
H 5.76383 4.50266 8.87101
O -5.90828 9.7732 -13.908
H -4.98185 9.51048 -13.6383
H -6.43036 8.95471 -14.1479
O 13.5286 -5.88319 -2.42249
H 13.8973 -5.62557 -1.52936
H 13.905 -5.27945 -3.12524
O -9.95365 -0.937661 -13.4172
H -10.9123 -0.732616 -13.6147
H -9.85103 -1.91733 -13.2447
O 8.48849 4.61554 13.8973
H 8.84607 5.0919 14.7006
H 7.89795 5.23379 13.3786
O 6.10803 -5.02958 -14.2428
H 5.35557 -5.60481 -13.922
H 5.82444 -4.5386 14.965
O -5.16803 -13.3861 -1.19984
H -5.2406 -14.2579 -1.68428
H -4.75939 -13.5378 -0.29984
O 0.297759 4.83752 4.07613
H 0.989822 4.12001 3.9971
H 0.394162 5.29784 4.95865
O 1.03955 10.8512 0.330432
H 1.1131 9.88942 0.0667622
H 1.89311 11.1451 0.760646
O 13.7967 2.15162 -3.78819
H 13.5782 2.39824 -2.84403
H 13.2936 1.32548 -4.04191
O 11.1012 0.228379 -10.989
H 10.7354 -0.573943 -11.4606
H 11.895 -0.0392342 -10.4427
O -4.013 4.11385 -10.5467
H -3.01603 4.12505 -10.6239
H -4.40221 3.62411 -11.3269
O 8.49528 -1.13247 5.49301
H 8.19129 -1.60299 4.66462
H 7.72036 -1.01768 6.11457
O 6.82229 -14.2688 3.79536
H 7.16451 -14.7545 2.99099
H 5.94241 -14.6568 4.0697
O -3.50423 2.52397 -6.34546
H -4.32165 3.06147 -6.55271
H -2.81949 2.66984 -7.05951
O -8.72316 -10.1277 7.94864
H -7.76005 -9.87249 8.03423
H -9.05527 -10.4747 8.82576
O -8.1488 -9.71293 -9.54383
H -8.39439 -10.5426 -10.0451
H -7.15805 -9.68468 -9.41105
O 8.17026 -11.9411 -7.42802
H 8.93935 -11.3411 -7.20764
H 8.35689 -12.421 -8.28527
O -3.9679 7.56164 -12.2865
H -4.85382 7.10812 -12.1891
H -3.52133 7.61612 -11.3934
O 10.1896 -7.52475 -1.76679
H 10.806 -6.83658 -1.38402
H 10.4009 -8.41849 -1.37106
O -7.57515 7.5164 -14.4773
H -8.41721 8.0355 -14.6239
H -7.15139 7.3125 14.6717
O 4.14891 2.58568 13.0699
H 3.87993 3.54752 13.0194
H 3.34372 2.02395 13.26
O 0.290246 -12.637 -4.80164
H 1.20095 -12.6863 -4.39148
H 0.104356 -13.4821 -5.30297
O 12.7309 -5.71567 12.3671
H 12.4458 -5.00967 13.0155
H 11.958 -5.96333 11.7829
O -13.3509 10.2806 -5.77952
H -12.4642 10.7424 -5.80263
H -13.8799 10.6135 -4.99896
O 5.13254 -10.1749 14.6732
H 4.52733 -10.9077 14.9842
H 5.42491 -10.3598 13.7349
O -0.135121 -0.484234 6.20769
H -0.819307 -1.14461 5.89814
H 0.75911 -0.730851 5.83412
O -1.97824 -11.8961 -3.16755
H -2.24497 -12.3004 -2.29265
H -1.10969 -12.2915 -3.46642
O -1.63214 7.59726 11.6898
H -2.4327 7.87753 11.1601
H -1.92604 7.25554 12.5825
O -12.4896 11.0132 4.06542
H -12.8757 10.4289 3.35165
H -11.5239 10.7879 4.19449
O 4.11131 -1.86867 -9.35797
H 4.27373 -2.294 -8.46761
H 4.76462 -1.12422 -9.49588
O 11.7714 -11.4534 -13.383
H 12.3539 -11.5173 -12.5727
H 10.9121 -11.0028 -13.1411
O 9.87786 -13.9847 11.29
H 10.3708 -13.3221 11.8539
H 10.3575 -14.1049 10.4208
O -1.61555 7.33028 1.57292
H -2.31727 7.30105 2.2848
H -1.85074 6.68468 0.846348
O 14.2069 -14.8076 10.6233
H 14.7534 -13.9903 10.4405
H 14.3233 14.9519 11.5785
O 13.6139 -3.32572 5.04738
H 12.7968 -3.85094 5.285
H 13.9926 -2.90692 5.87273
O -4.65421 -14.3761 9.52569
H -4.76152 -13.6812 8.81458
H -5.53241 -14.5268 9.97965
O -6.76842 -6.13546 -5.57649
H -7.17861 -5.62894 -6.33491
H -7.21621 -5.87526 -4.72103
O 11.1655 -1.83435 11.5257
H 10.5931 -1.14364 11.0838
H 11.9098 -1.38436 12.0193
O 14.338 4.98253 -0.897
H -14.78 4.88697 -1.29223
H 14.2473 5.88792 -0.482184
O 13.3054 2.49366 -13.2095
H 12.5639 2.93484 -12.704
H 14.1385 3.04018 -13.1238
O -5.64857 -7.30763 -2.26594
H -4.7816 -6.8127 -2.32452
H -6.40449 -6.6783 -2.4464
O -4.93082 11.9258 -11.1174
H -4.58598 11.955 -10.1792
H -4.31025 11.3836 -11.6839
O 6.41417 4.62035 -14.17
H 6.81898 3.93858 -13.5606
H 7.11891 4.98225 -14.7802
O 9.71122 -10.1332 10.9104
H 9.95273 -11.0975 11.0191
H 8.71632 -10.0414 10.8684
O -5.92461 1.78574 13.1031
H -6.74045 1.72806 12.5277
H -6.16684 1.56507 14.0479
O 4.51604 -2.51475 -6.86937
H 4.26822 -1.64103 -6.45078
H 5.43796 -2.77308 -6.58066
O -13.3389 -13.122 6.59932
H -14.1026 -13.6286 6.19902
H -13.6835 -12.2936 7.04096
O 11.9116 -0.938575 8.60515
H 12.5816 -0.209582 8.46495
H 11.2053 -0.624643 9.23971
O 5.26069 9.32426 1.83843
H 5.38694 9.37549 0.847744
H 6.15364 9.27893 2.28633
O -14.0252 -12.909 9.71109
H -13.4829 -13.6973 9.42018
H -13.4138 -12.1677 9.98795
O 14.9158 13.9915 8.25598
H 14.7321 14.5778 9.04501
H -14.7759 13.1054 8.57107
O 1.27733 2.35001 12.1515
H 0.446512 2.73405 11.7486
H 2.03725 2.45277 11.5096
O 1.08584 6.08134 1.75905
H 0.947653 5.38115 2.45952
H 0.228781 6.57329 1.60587
O 11.2772 -11.9493 -8.7928
H 11.8165 -11.6233 -8.01634
H 10.5095 -11.3279 -8.94975
O -12.2403 4.18236 -4.75084
H -11.6717 4.95792 -4.47665
H -11.7074 3.3387 -4.68535
O -13.1738 -2.94472 -10.8339
H -13.2084 -2.01326 -11.1961
H -13.0709 -3.59234 -11.5889
O 12.9686 -1.34539 -9.57957
H 13.8039 -0.96304 -9.18435
H 13.2029 -1.91336 -10.3686
O -12.622 10.688 11.7824
H -13.3064 10.0235 12.0825
H -11.8262 10.2051 11.417
O 5.76803 -7.60129 1.79881
H 5.29892 -6.75521 2.05201
H 6.73693 -7.52887 2.03549
O -2.70814 -3.50688 -5.38875
H -3.33925 -2.76041 -5.59975
H -3.12489 -4.37861 -5.6465
O 6.80551 -6.45857 -4.35943
H 6.07476 -5.77771 -4.3097
H 7.2371 -6.41909 -5.26065
O -11.1665 11.2423 -14.9983
H -10.7685 11.7537 -14.2367
H -11.0988 11.7848 14.196
O -3.79708 -0.986163 10.8867
H -3.16971 -0.239892 10.6642
H -4.6615 -0.850463 10.4026
O -5.19682 -5.57202 -10.8947
H -4.45147 -4.91746 -10.7681
H -5.19789 -6.22636 -10.1385
O 11.2658 -14.7775 -4.94204
H 11.1318 -14.0109 -4.31407
H 10.4088 14.7477 -5.03772
O -4.38528 1.7178 4.46351
H -4.19598 0.737524 4.40645
H -3.56401 2.19854 4.77077
O -7.00383 -7.18831 -12.1826
H -6.4813 -6.47642 -11.7134
H -6.41823 -7.64484 -12.8524
O -3.82949 9.65981 -4.12879
H -4.78166 9.57809 -3.83432
H -3.64403 8.98928 -4.84714
O -6.71447 -3.2699 2.44549
H -6.12839 -2.46 2.42088
H -7.52463 -3.11235 1.88082
O 12.4385 5.51184 4.6552
H 12.9315 5.51495 3.78513
H 13.0367 5.85693 5.37845
O -3.44244 -13.5575 11.9634
H -2.87772 -14.2546 12.4053
H -3.88756 -13.9501 11.1586
O 3.15857 -3.2259 -12.5487
H 3.7149 -2.39505 -12.5633
H 3.54915 -3.89963 -13.1761
O -9.40346 -9.92125 -12.7587
H -9.25984 -10.0611 -13.7384
H -8.94759 -10.6499 -12.2476
O -5.15106 10.1483 3.10433
H -4.64047 9.29227 3.18506
H -4.52044 10.8933 2.88683
O -6.16627 13.2607 6.81475
H -5.31806 13.5181 6.35182
H -6.00406 13.2029 7.79983
O 3.91264 -11.7001 -3.51499
H 3.56477 -11.7955 -2.58229
H 3.4969 -10.899 -3.94555
O -14.1571 9.69394 6.02766
H -13.5368 10.4017 5.68952
H -14.4589 9.92895 6.95162
O -8.45743 5.97792 -3.73612
H -8.54852 6.31678 -2.79969
H -7.62947 6.35755 -4.1489
O 14.5114 13.3424 -9.89518
H 13.7622 13.9532 -10.1513
H 14.7865 12.8009 -10.6897
O 4.87101 -4.6858 -3.90021
H 4.49907 -4.92306 -3.00277
H 4.12365 -4.43199 -4.51426
O -6.63644 -9.08154 -0.395759
H -5.93753 -9.7823 -0.538896
H -6.62918 -8.44167 -1.16423
O -13.9973 -0.360553 2.16395
H -14.3214 -1.2071 1.74168
H -14.561 -0.149309 2.96249
O 7.72886 2.8998 1.57969
H 8.35824 2.59948 0.862958
H 7.38364 3.81211 1.35934
O 14.5909 2.59769 2.62395
H 13.994 2.53246 3.42366
H -14.5627 2.99249 2.89464
O 7.09344 3.10698 -6.09343
H 7.63144 3.0729 -5.25116
H 7.70233 3.25941 -6.87192
O 11.6287 -11.7227 8.25569
H 12.3858 -11.5288 8.87949
H 11.9901 -11.925 7.34549
O -13.3594 -14.3569 -4.81142
H -12.5105 -14.7724 -4.48458
H -13.5096 -13.489 -4.33805
O -6.08035 11.2458 -6.54175
H -6.32991 10.9657 -5.61477
H -6.90946 11.3718 -7.08649
O 6.87441 -3.80608 -9.9239
H 6.01731 -3.48206 -10.3244
H 6.76848 -4.75748 -9.63467
O -13.9942 2.13627 -5.65541
H -14.9013 2.28457 -5.26134
H -13.4523 2.97218 -5.56842
O -13.6925 -13.619 -12.5833
H -13.8625 -13.0299 -13.3733
H -14.2041 -14.4719 -12.6873
O -1.79365 10.3239 -2.5909
H -2.0058 11.195 -2.14806
H -2.59459 10.0033 -3.09659
O -14.4611 0.254809 13.3662
H -14.0512 0.383569 12.4632
H -14.5847 1.14434 13.8061
O -5.40115 3.67702 -8.31809
H -5.80146 2.76103 -8.29077
H -4.89446 3.794 -9.17226
O 10.7684 14.5027 5.2108
H 11.5316 14.5067 5.85696
H 9.9528 14.8724 5.65598
O -3.53148 -10.6392 3.016
H -2.89055 -10.8394 3.75704
H -3.84965 -11.4959 2.60993
O 7.84334 13.5663 10.3343
H 7.87808 12.7324 10.8851
H 6.96892 14.028 10.4833
O 13.3532 -8.87171 -8.43078
H 14.3041 -8.57122 -8.50521
H 13.2069 -9.29655 -7.53741
O 1.50265 -3.53624 -10.1736
H 1.90472 -3.41341 -9.26627
H 2.16135 -3.25395 -10.8711
O -2.09926 -9.25746 -11.0678
H -2.25152 -9.59725 -10.1397
H -2.24867 -9.9983 -11.7227
O 8.90156 2.96052 -8.16624
H 9.55803 3.59591 -8.57286
H 9.2688 2.03122 -8.20575
O -13.9994 2.52498 -10.8185
H -13.2062 2.69493 -10.2337
H -13.8028 2.84035 -11.7469
O -14.7631 10.0689 8.65859
H 14.3166 9.87289 8.42305
H -14.729 10.554 9.53242
O -1.7669 9.06346 7.27384
H -2.75351 8.90052 7.26533
H -1.58931 10.0222 7.49582
O 2.07648 0.703295 14.0863
H 1.5535 -0.143303 14.1852
H 1.76062 1.19752 13.2764
O -3.60365 12.321 2.84604
H -2.68448 12.1611 2.48606
H -3.54524 12.8814 3.67219
O -14.4997 -8.92816 8.82975
H 14.9425 -8.59183 9.5643
H -13.9168 -8.1842 8.50304
O -13.7414 -14.9138 12.26
H -13.2542 14.7079 11.4888
H -13.9653 -13.9631 12.0454
O 6.94074 14.3984 -9.44846
H 7.23924 13.5811 -9.94142
H 7.73648 14.9597 -9.22112
O 7.87158 -14.6241 13.1869
H 7.13075 14.9818 12.6673
H 8.55447 -14.2579 12.5548
O 0.583076 10.7281 -4.38021
H 0.160408 10.9581 -3.50359
H 0.560954 11.5273 -4.98085
O -8.00831 -13.9082 -2.7868
H -8.12119 -13.0028 -3.19612
H -7.62185 -13.8134 -1.86937
O -0.126888 8.22001 -2.14024
H -0.156516 7.58288 -2.91044
H -0.636191 9.04848 -2.37321
O 14.2037 -6.38635 0.405754
H -14.9827 -6.20584 -0.0972547
H 14.0602 -7.37374 0.472982
O 12.3649 -10.5401 3.12564
H 12.4878 -11.5287 3.03848
H 12.04 -10.3245 4.04648
O -3.16243 -14.7737 -5.88516
H -3.35953 -14.3737 -6.78023
H -3.04256 -14.0433 -5.21272
O 12.7884 -6.68265 6.45045
H 13.3777 -6.64583 5.64338
H 11.8681 -6.96387 6.17858
O 9.99744 0.365432 10.5321
H 9.04913 0.65151 10.3947
H 10.4445 0.989895 11.1726
O -8.36966 -6.98187 0.834033
H -8.21629 -7.57569 0.0441713
H -7.49369 -6.77219 1.26848
O 9.69172 -3.14148 1.81799
H 8.94111 -2.69367 2.30387
H 10.4873 -2.53586 1.8029
O 10.0451 -5.58783 10.958
H 9.89442 -6.31807 10.2916
H 10.6001 -4.86698 10.5428
O 5.55807 -1.77462 5.44047
H 5.03795 -0.926879 5.33643
H 5.23231 -2.26874 6.24654
O 11.6932 4.14582 -9.07416
H 12.2422 4.97409 -8.96184
H 12.253 3.344 -8.86494
O -7.18533 1.5173 -10.3242
H -7.32876 2.33901 -10.8757
H -7.93329 0.873268 -10.4848
O 2.18101 12.4924 -13.2341
H 1.25253 12.1438 -13.3621
H 2.20419 13.0932 -12.435
O 5.66295 -12.3113 -11.1851
H 6.63298 -12.3346 -11.427
H 5.48142 -11.512 -10.6123
O 4.90128 -11.9172 -0.238524
H 4.65154 -11.3231 0.526178
H 5.40588 -11.388 -0.920705
O -2.65021 -9.2959 8.20782
H -1.93319 -9.98908 8.28134
H -3.08748 -9.36248 7.31095
O -4.66339 3.41531 8.43277
H -4.6316 4.04745 7.65855
H -4.28373 2.53201 8.1577
O 4.22792 -2.19507 1.42169
H 3.78644 -1.3278 1.19152
H 4.65399 -2.57982 0.602877
O 4.26164 6.38722 1.50814
H 3.56906 5.83723 1.9749
H 4.21031 7.33218 1.83132
O 9.47891 12.0839 5.60056
H 9.90893 12.9867 5.58842
H 9.4604 11.711 4.67286
O -8.22168 -11.1258 -3.94399
H -9.07522 -10.8515 -4.38696
H -7.61782 -10.3328 -3.86386
O 2.55938 -13.1776 1.53761
H 3.52017 -13.3699 1.33787
H 2.44298 -13.0487 2.52243
O 1.17717 -7.67677 1.01417
H 1.55253 -6.75117 0.96511
H 1.12833 -8.06583 0.0942368
O -11.7759 6.01863 11.1044
H -10.9392 5.75654 10.6234
H -12.1883 6.80806 10.6498
O 7.06428 7.04259 5.45754
H 7.01956 7.94228 5.89181
H 7.71261 6.46493 5.95351
O 6.2206 -0.46535 11.8567
H 6.83323 -1.20985 12.1221
H 6.30595 0.285912 12.5112
O 0.798982 -8.61802 -8.72237
H -0.186821 -8.45114 -8.70314
H 1.10156 -8.71878 -9.67016
O 0.3996 13.6584 -9.75658
H 1.37938 13.8071 -9.89051
H 0.26164 12.9025 -9.11653
O -5.05742 -2.52673 6.75367
H -4.24216 -2.88649 7.2075
H -5.8628 -3.02978 7.06722
O -2.43867 -3.80755 -11.1697
H -3.29172 -3.64688 -11.6662
H -1.66947 -3.7694 -11.8076
O -14.8315 -13.4742 1.29384
H 14.438 -13.3733 0.654171
H 14.859 -13.4084 2.23159
O -0.0949007 14.3929 1.39084
H 0.816792 14.8037 1.40086
H -0.738298 14.998 1.8598
O 8.19657 8.95802 -4.97756
H 7.69611 9.7198 -5.38898
H 9.13639 8.95336 -5.31925
O 7.00047 -0.796561 -0.4631
H 7.20975 -0.681167 0.507937
H 6.63051 -1.71266 -0.617765
O -4.33565 2.20832 -12.8346
H -3.74905 1.40009 -12.8864
H -5.23237 1.9948 -13.2223
O -0.940626 3.05181 -3.25134
H -0.526759 3.00833 -4.16065
H -0.259811 3.36661 -2.58996
O 4.68585 -0.8525 -12.8353
H 5.42389 -0.70323 -12.1772
H 4.50042 -0.00161561 -13.3268
O 5.9487 7.08034 -10.6694
H 4.97216 7.25699 -10.7927
H 6.07438 6.18193 -10.2486
O 13.6736 0.862218 0.730078
H 14.4457 0.490201 0.214812
H 14.0147 1.4495 1.46409
O -14.2403 6.07483 7.34044
H -14.1018 6.52669 8.22173
H 14.9108 6.35409 6.95739
O 1.85084 9.68648 7.65248
H 1.64879 10.3875 8.33642
H 1.0315 9.50565 7.10842
O -7.30528 4.76888 -6.73901
H -6.64484 4.27204 -7.30203
H -6.86644 5.57636 -6.34477
O 4.47248 -10.1742 1.71306
H 5.04653 -9.36526 1.58595
H 3.71242 -9.95093 2.32339
O 6.858 -6.53217 -12.0623
H 6.92872 -5.95341 -12.8747
H 6.67138 -7.47465 -12.3397
O -8.51983 10.4321 0.00949493
H -8.74061 9.99158 -0.860703
H -8.71292 11.4112 -0.0541189
O 1.52594 1.20166 -13.1964
H 1.8261 0.431121 -12.6341
H 1.69789 0.997883 -14.1602
O 9.52182 5.65737 -2.53666
H 8.97148 6.45008 -2.27442
H 10.2364 5.9441 -3.17474
O -7.50121 10.1324 9.25365
H -8.28088 9.82674 9.80019
H -7.16378 9.37142 8.69952
O -12.3066 13.0527 -6.7382
H -12.1325 12.7329 -7.66954
H -12.942 13.8245 -6.76416
O -4.71969 -3.19706 -12.4541
H -5.15863 -2.38741 -12.0645
H -5.06351 -3.34917 -13.3808
O -9.2323 -4.21806 -8.02802
H -8.89456 -4.83732 -8.73688
H -8.4729 -3.67383 -7.67143
O -6.46145 8.99651 0.514438
H -5.56118 9.40833 0.655647
H -7.13493 9.71665 0.347556
O 11.8145 -3.59574 13.5688
H 11.2434 -3.51022 14.3852
H 11.39 -3.09939 12.8115
O 11.505 10.7388 14.7939
H 11.4959 10.6238 -14.2444
H 10.7983 11.3945 14.5278
O 12.7923 8.6851 2.71324
H 12.1907 8.32038 3.424
H 13.7396 8.65885 3.03252
O -4.69451 -10.7964 -2.07951
H -5.05152 -10.3562 -2.90341
H -4.93534 -11.7669 -2.0891
O 4.76824 1.75934 -14.2482
H 4.52055 2.65411 -13.8766
H 4.73984 1.79381 14.7844
O 6.59309 14.3162 -5.52677
H 6.28621 -14.7985 -5.27134
H 6.04269 13.9815 -6.29166
O 9.08756 13.7003 -1.19779
H 8.797 13.0622 -0.484726
H 8.4968 14.507 -1.18406
O 6.2736 -10.5114 -2.05317
H 6.42592 -9.72486 -1.45468
H 6.11117 -10.193 -2.98714
O 8.63503 0.495399 13.7927
H 9.55223 0.835628 13.5853
H 7.97423 1.24014 13.6992
O 0.0712328 11.8673 12.8045
H -0.89825 11.707 12.9901
H 0.530677 10.9921 12.6527
O -3.73371 5.26376 10.2018
H -3.3354 6.00442 9.66067
H -4.05447 4.53992 9.59088
O 11.1952 10.0009 -7.71614
H 11.843 10.7107 -7.99294
H 10.9745 9.42553 -8.50371
O -13.7766 -2.04601 11.5099
H -14.059 -1.3994 10.8013
H -14.4262 -2.80541 11.5462
O -3.33213 9.56453 0.179625
H -2.51042 10.1322 0.129318
H -3.26027 8.94246 0.959295
O -3.57134 -5.24911 -2.29459
H -2.77503 -5.34654 -2.8916
H -3.28323 -4.87511 -1.41303
O 10.22 -2.58867 7.02264
H 9.5826 -2.06552 6.45688
H 10.8359 -1.9608 7.49845
O 8.74694 -7.69146 1.17737
H 9.59015 -7.20282 0.95324
H 8.52978 -8.33538 0.44372
O -13.8072 9.22723 -0.810379
H -13.1273 9.80105 -0.353769
H -14.6195 9.77287 -1.01656
O 11.2538 9.78812 5.93577
H 10.5724 10.5189 5.97601
H 10.8494 8.97846 5.51036
O 6.36244 -12.7086 7.9248
H 7.2029 -12.2501 7.63598
H 5.57165 -12.1756 7.62391
O -14.7546 3.51537 7.93586
H -14.0165 2.90999 7.63816
H -14.5086 4.46396 7.73671
O 7.58531 11.9597 -10.6274
H 8.0866 11.824 -9.77283
H 8.11183 11.5777 -11.387
O -6.34252 8.66737 -9.31087
H -5.42659 8.91143 -9.62951
H -6.91416 9.48731 -9.27992
O -11.3084 1.48855 14.8371
H -12.2503 1.68455 14.5639
H -10.8766 0.904715 14.1495
O -9.63778 -4.61305 11.1844
H -10.0008 -3.68145 11.2035
H -9.75118 -5.0335 12.0846
O 3.39698 -14.3907 -3.94472
H 3.33938 -14.4308 -2.94718
H 3.81425 -13.5246 -4.21996
O -14.1333 12.432 10.428
H -13.4692 11.7499 10.734
H -14.7845 12.6168 11.1641
O 1.65305 -6.35243 -14.8938
H 1.74963 -5.662 14.4208
H 0.919802 -6.08392 -14.2691
O 0.302833 -0.458433 -5.0988
H -0.518284 -0.396522 -4.53138
H 0.362433 0.347428 -5.68792
O -8.00247 10.2716 3.38292
H -8.52154 9.99815 2.57309
H -7.02364 10.1958 3.1927
O 5.46457 -2.12335 14.7678
H 5.29715 -1.63111 -14.4096
H 4.78097 -1.85506 14.089
O 6.51865 -8.09018 -0.720073
H 7.11568 -7.31634 -0.931596
H 5.94736 -7.86446 0.0690414
O -7.58078 -12.8005 -0.00706808
H -6.67495 -12.6852 -0.414749
H -7.91569 -11.9157 0.316786
O 8.69064 -4.13964 -7.97831
H 9.64373 -3.87283 -8.12131
H 8.13926 -3.8357 -8.75524
O 4.58176 -14.9728 7.49908
H 4.72528 14.1408 7.86872
H 5.27978 -14.3549 7.86098
O -10.0611 6.63054 0.741277
H -9.75681 5.68059 0.67033
H -10.9979 6.70687 0.399727
O 4.41833 -14.2048 -9.4863
H 5.14794 -14.6707 -8.98573
H 4.81704 -13.5179 -10.0939
O 9.63788 -0.694841 -2.4538
H 8.89402 -0.0265002 -2.44982
H 9.59083 -1.25088 -1.62397
O 3.71173 8.90921 -1.81131
H 3.9209 8.3951 -2.64316
H 3.12119 8.36022 -1.2198
O -14.4389 -12.0832 -3.12811
H 14.6202 -11.8509 -3.11072
H -14.157 -12.406 -2.22455
O -7.40569 -12.1146 3.7002
H -7.71557 -13.0639 3.64659
H -7.57688 -11.6583 2.827
O -1.21017 -13.3849 -13.3944
H -0.496207 -13.1153 -14.0406
H -1.63918 -14.2326 -13.7062
O -10.5089 14.9579 -3.69534
H -9.71602 -14.6021 -3.30944
H -10.4665 13.9869 -3.45973
O -11.5451 0.391037 1.12587
H -12.3972 0.0334178 1.50805
H -11.0218 0.846073 1.84635
O -10.0269 8.98886 4.55371
H -9.1919 9.33654 4.12718
H -9.93701 9.03484 5.54861
O -10.4787 0.807159 10.5989
H -11.2445 1.0522 11.1935
H -10.4811 1.39769 9.79189
O 0.833779 5.52806 6.55256
H 1.76777 5.72263 6.85228
H 0.194449 5.74963 7.28889
O -7.21118 -5.22898 -3.03629
H -7.21989 -4.47071 -2.38439
H -8.11853 -5.64783 -3.07252
O 2.31231 0.102779 9.54245
H 2.97857 0.533464 10.1513
H 2.77235 -0.579389 8.97409
O 3.75903 0.503953 0.611234
H 3.32893 1.3809 0.825701
H 3.63275 0.299319 -0.359439
O -14.8623 -11.2745 7.74344
H -14.7084 -10.3808 8.16486
H -14.884 -11.9785 8.45335
O -1.84096 -7.77787 -5.42181
H -1.25733 -7.53836 -4.6459
H -1.63268 -8.7092 -5.72057
O -0.117625 -6.14136 11.1757
H 0.104258 -7.06731 11.4813
H -0.342229 -5.57376 11.9678
O -3.64601 8.38386 15.0004
H -3.81756 8.15547 -14.0728
H -3.25285 7.59139 14.5341
O 5.74438 8.80018 8.15043
H 5.11804 9.00043 7.39702
H 6.65567 9.14627 7.92724
O -8.03492 10.9404 -4.29571
H -8.12404 11.9334 -4.21808
H -8.93255 10.5152 -4.17989
O -12.3639 -11.929 2.62742
H -13.1588 -11.6284 2.10026
H -12.5079 -12.8674 2.94169
O 5.96287 0.0751989 9.09957
H 6.52472 0.883682 8.92434
H 5.85183 -0.0461189 10.086
O -6.18786 1.11061 -7.10247
H -5.93072 1.00544 -6.14183
H -7.18447 1.09869 -7.18399
O 9.16595 6.62496 10.0703
H 9.47009 5.83227 10.5987
H 8.78481 7.31176 10.6892
O 1.95581 8.20443 3.5769
H 2.84383 7.91013 3.93023
H 1.50274 7.43316 3.12981
O -5.35485 11.1285 -1.22361
H -4.73106 10.9611 -0.460126
H -4.97169 10.7352 -2.05943
O 14.0566 -1.96897 -3.00612
H 14.0957 -2.68161 -3.70658
H 13.5614 -2.31263 -2.2082
O -12.3333 12.4104 -9.30668
H -12.8103 11.5363 -9.39779
H -12.8903 13.1375 -9.70797
O -1.31047 12.2236 5.27437
H -1.42162 12.2134 4.2806
H -1.16663 11.2902 5.60327
O 9.05995 6.66826 1.55451
H 8.57249 6.35291 0.740284
H 9.52787 5.89535 1.9831
O -7.85009 -3.32383 13.6748
H -7.23332 -3.59312 12.9351
H -8.59444 -3.98778 13.7464
O 3.65575 -9.29797 10.641
H 3.30014 -8.98767 11.5226
H 2.91817 -9.72028 10.114
O -13.2569 -8.43401 -6.05774
H -13.1187 -9.42442 -6.05145
H -13.9379 -8.18809 -5.36802
O 4.10712 -14.8989 4.71993
H 3.87178 14.1793 4.5309
H 4.38085 -14.8067 5.67731
O -11.6253 10.7277 1.30283
H -10.7559 10.7591 0.809615
H -11.9276 11.6593 1.50491
O -10.0667 -8.18475 -10.7519
H -9.69919 -8.53673 -11.6127
H -9.51978 -8.53092 -9.98962
O -7.41448 -3.33947 -10.3053
H -7.83462 -3.46629 -11.2039
H -6.8222 -4.11896 -10.1013
O -1.7005 -4.77559 -8.734
H -1.80572 -4.24546 -9.57538
H -1.74208 -4.16159 -7.94578
O 14.3727 -0.683099 4.48301
H 13.6441 -0.00436556 4.39106
H 13.9761 -1.60108 4.47435
O -8.63188 14.3209 -6.77314
H -9.53615 14.7361 -6.87311
H -8.43685 14.1764 -5.80304
O -8.77826 12.5411 5.43954
H -8.46796 12.0116 4.64998
H -8.04433 12.5905 6.11698
O 4.49225 -5.22572 2.27123
H 4.48193 -4.50487 1.5782
H 4.19417 -4.84912 3.14835
O -5.95006 -5.74335 1.09521
H -5.68627 -4.84095 1.43595
H -5.30503 -6.0345 0.388675
O 0.930241 -13.3145 11.1407
H 0.331911 -12.5195 11.2405
H 0.42362 -14.1444 11.3745
O -2.86477 -9.06154 -0.45364
H -3.69485 -9.46638 -0.837178
H -3.10898 -8.45192 0.300508
O 0.373572 5.86164 13.0052
H -0.0689651 4.99778 12.7645
H -0.134346 6.30128 13.746
O 6.71547 5.37957 0.460785
H 6.42884 4.74593 -0.257805
H 5.93577 5.93877 0.74255
O 11.6131 6.95235 -3.64098
H 12.4145 6.4796 -4.0073
H 11.3526 7.6944 -4.25866
O -8.95999 -5.31463 8.70902
H -9.23983 -6.2185 8.38538
H -9.17198 -5.22881 9.68253
O 14.3523 -6.50975 3.90822
H -14.8826 -7.11198 3.85655
H 13.6031 -6.90157 3.3742
O -14.2929 11.6576 -11.7048
H -13.8427 10.8801 -11.2657
H -14.4124 11.4668 -12.6791
O -0.942992 11.8073 1.67686
H -0.195943 11.1941 1.41998
H -0.59612 12.7422 1.75156
O -11.8507 12.0663 -2.75406
H -12.8239 11.8384 -2.7233
H -11.5459 12.0988 -3.70593
O -2.03462 1.49678 9.9103
H -1.42522 0.846772 10.3643
H -2.24999 2.24555 10.5372
O -14.2824 5.75691 -5.63789
H 14.937 5.55592 -5.09021
H -13.5738 5.0782 -5.44475
O -0.810936 10.3227 -10.3256
H -0.58528 11.1224 -9.76921
H 0.0310627 9.85318 -10.5913
O 9.18936 -10.5829 -3.96632
H 9.23019 -10.0416 -4.80614
H 8.35998 -10.3489 -3.45894
O 2.72581 3.86699 10.1415
H 2.02863 3.71508 9.4409
H 2.90505 4.84714 10.2264
O -2.52484 14.3059 13.2361
H -2.81326 13.9958 14.142
H -2.5352 13.5339 12.6006
O -0.884606 -11.7131 12.1701
H -0.863786 -11.6793 13.1694
H -1.62782 -12.3123 11.8723
O -4.74554 -10.2651 14.3294
H -3.92679 -10.5003 14.8532
H -4.67181 -10.645 13.4073
O -1.10269 -6.32823 -2.73388
H -1.26397 -7.3003 -2.5633
H -0.228093 -6.0596 -2.33022
O -4.81984 13.1187 -5.06354
H -5.25276 12.5363 -5.75158
H -4.38101 13.8965 -5.51357
O 0.962419 8.30486 -5.50239
H 0.853509 9.08632 -4.88799
H 0.445199 7.52647 -5.14655
O 7.59814 7.70335 -12.968
H 7.04723 7.58728 -12.1415
H 8.16355 6.89059 -13.1085
O -14.1622 -10.1708 -10.241
H -14.2184 -9.42271 -9.57983
H -13.504 -9.93503 -10.956
O 9.78784 -7.74728 -11.2672
H 9.34193 -6.99209 -10.7867
H 10.2228 -7.40255 -12.099
O -11.6117 -3.11095 -8.04022
H -10.704 -3.53032 -8.02622
H -12.1297 -3.46347 -8.81956
O -6.05192 6.46369 4.33157
H -6.54998 6.85036 5.10774
H -6.65944 6.40993 3.53907
O -2.68207 -11.0457 -12.9912
H -3.5524 -11.2566 -12.5462
H -2.08619 -11.848 -12.9552
O 5.77478 13.6189 -3.11962
H 6.04491 13.7526 -4.07313
H 4.77791 13.5671 -3.05972
O 1.12995 11.1721 10.025
H 1.34415 10.5422 10.7716
H 1.37994 12.1028 10.292
O -14.3815 14.7796 -7.91008
H -14.76 14.3054 -8.70499
H -13.6606 -14.626 -8.20745
O -11.043 -2.19509 11.0587
H -11.9035 -2.30836 11.5554
H -10.8955 -1.2253 10.8643
O 1.64896 -4.52912 5.64937
H 2.0647 -4.01026 4.90239
H 2.36434 -4.85447 6.26776
O -2.81166 14.003 8.16071
H -1.91052 14.0642 8.58995
H -3.50202 14.3767 8.78024
O 5.60113 -0.680536 -4.11424
H 5.05355 -1.12235 -3.40361
H 6.57229 -0.826895 -3.92595
O 9.22067 -14.1297 -9.33859
H 9.6114 -13.5574 -10.0596
H 9.86702 -14.1956 -8.57839
O 7.26046 -8.76107 10.8588
H 6.64552 -8.37037 11.5438
H 8.0155 -8.1278 10.6888
O -9.15196 -7.53862 7.04342
H -9.38793 -7.51488 6.07194
H -8.31262 -8.06736 7.16974
O 2.397 3.19718 3.52825
H 2.62013 2.74132 4.38989
H 3.23629 3.53706 3.10388
O 2.49967 -7.9315 5.50318
H 2.03259 -8.23817 4.67383
H 1.85729 -7.93878 6.26956
O 5.32751 -6.99498 9.22654
H 6.29186 -7.01153 9.4907
H 4.86577 -7.79959 9.59992
O 3.64845 -5.81356 7.2786
H 4.0691 -5.99237 8.16804
H 3.41455 -6.68129 6.84002
O 4.51687 8.93355 10.762
H 4.94194 8.75522 9.8746
H 4.57104 9.91079 10.9672
O 6.99941 -3.00807 -3.03267
H 7.99855 -2.9795 -3.00205
H 6.70242 -3.32256 -3.93428
O 11.7005 -3.68198 9.36036
H 11.6873 -2.98165 10.0741
H 11.1139 -3.39655 8.60241
O 1.46495 -4.0895 10.1289
H 1.04843 -4.81043 10.6828
H 0.956161 -3.99022 9.27377
O 8.03267 -4.28082 7.87234
H 7.89343 -4.80453 7.03188
H 8.71413 -3.56692 7.71119
O -14.7371 -0.220346 9.65051
H 14.5754 0.472655 9.70235
H -14.5386 -0.423627 8.69171
O -13.0648 0.0159485 -3.88647
H -13.3621 0.229494 -2.95586
H -13.177 0.823338 -4.46575
O 1.46824 6.9009 -8.49009
H 0.949072 7.28407 -7.72611
H 1.32213 5.91242 -8.5299
O 10.8162 7.74931 4.25394
H 10.2542 7.68303 3.42944
H 11.2731 6.87487 4.41708
O 13.6322 -5.49563 8.74305
H 13.4671 -6.01941 7.90734
H 12.8319 -4.93159 8.94653
O -10.0726 -8.5688 -1.85495
H -10.7124 -8.2771 -1.14391
H -10.1789 -9.54988 -2.01687
O 9.7616 10.574 -0.843747
H 9.15031 10.88 -1.57364
H 10.6775 10.4253 -1.21653
O -5.84164 -4.83298 11.9928
H -5.08282 -4.34235 12.4212
H -6.18527 -5.53021 12.6219
O 7.64433 -12.2696 0.666012
H 8.05137 -11.9698 1.52883
H 6.69035 -11.9723 0.626431
O -2.44835 5.87736 5.70082
H -2.31603 4.93833 5.38344
H -2.00574 5.99419 6.58991
O 0.262954 4.69401 -1.00879
H 0.624319 4.31301 -0.15774
H 1.02161 4.9562 -1.60521
O 6.54305 -6.51168 -9.23627
H 6.75816 -6.51852 -10.2128
H 5.67458 -6.98314 -9.08295
O 1.42389 2.58719 7.97486
H 0.453872 2.44289 7.77926
H 1.7954 1.77938 8.43252
O -1.71483 -12.0805 -0.473445
H -1.19695 -12.0463 0.381341
H -1.95174 -11.1513 -0.757033
O -0.614738 -12.5273 4.62169
H 0.0319405 -11.951 5.12143
H -1.26854 -12.9284 5.26331
O 11.3734 -12.0258 12.2125
H 11.5847 -11.1723 12.6887
H 12.0236 -12.1601 11.4647
O -12.9508 -6.31811 7.82198
H -12.484 -5.60751 8.34847
H -13.4856 -5.89426 7.09099
O -10.5518 -5.04442 4.32149
H -10.9376 -5.96265 4.41115