ITEM: TIMESTEP
0
ITEM: NUMBER OF ATOMS
14336
ITEM: BOX BOUNDS pp pp pp
-2.6505150000000000e+01 2.6505150000000000e+01
-2.6505150000000000e+01 2.6505150000000000e+01
-2.6505150000000000e+01 2.6505150000000000e+01
ITEM: ATOMS id mol type xu yu zu
6474 498 12 -20.1921 -18.6099 -19.1076
9387 695 1 -24.3016 -20.7854 -18.5957
9388 695 2 -23.5478 -20.8979 -19.7047
9389 695 1 -23.0452 -19.6844 -19.9971
9390 695 3 -23.4904 -18.7721 -19.0676
9391 695 3 -24.2887 -19.4708 -18.1756
9392 695 4 -22.288 -19.389 -21.2219
9393 695 4 -25.1578 -21.8567 -18.0431
9394 695 5 -24.5822 -23.247 -18.2985
9395 695 6 -25.4929 -24.324 -17.697
9396 695 7 -24.9565 -25.734 -17.9697
9398 695 8 -23.2217 -17.7208 -19.1071
9399 695 9 -23.4357 -21.7749 -20.3329
9400 695 10 -22.3331 -20.2777 -21.8618
9401 695 10 -22.7861 -18.56 -21.7385
9402 695 10 -21.2532 -19.1305 -20.9631
9403 695 10 -26.1403 -21.7584 -18.5257
9405 695 11 -24.5123 -23.4088 -19.385
9406 695 11 -23.5699 -23.3178 -17.8637
9407 695 11 -26.5019 -24.2208 -18.1317
9409 695 11 -24.8819 -25.9167 -19.0533
9412 696 13 -25.2821 -21.4549 -22.1041
9413 696 14 -25.8378 -22.0284 -20.9029
9414 696 14 -25.1157 -20.0465 -21.8842
9415 696 14 -26.0884 -21.7142 -23.2113
9416 696 14 -23.9618 -22.0303 -22.2797
12671 913 10 -23.3115 -17.9132 -24.6695
14285 1021 6 -19.4655 -23.5385 -18.6978
14286 1021 7 -19.9826 -24.9813 -18.729
14294 1021 10 -19.4973 -20.8903 -17.8592
14298 1021 11 -20.1108 -22.8953 -19.3225
14299 1021 11 -19.3302 -25.6391 -18.1332
14300 1021 11 -21.0016 -25.0422 -18.3119
14301 1021 11 -20.0137 -25.3721 -19.7576
6457 497 6 -16.5114 -19.0537 -20.2938
6458 497 7 -16.4162 -19.4078 -21.7817
6465 497 10 -17.7874 -18.0488 -18.1357
6469 497 11 -17.2405 -19.7173 -19.7998
6470 497 11 -15.5313 -19.2065 -19.805
6471 497 11 -17.4011 -19.2969 -22.262
6472 497 11 -15.7006 -18.7504 -22.3026
6473 497 11 -16.0848 -20.4485 -21.9233
10355 759 6 -11.7316 -24.9367 -24.0586
10356 759 7 -11.9222 -25.8159 -22.8173
10367 759 11 -11.6958 -25.5716 -24.9605
10368 759 11 -12.5958 -24.2583 -24.1739
10370 759 11 -11.9744 -25.1997 -21.9042
10371 759 11 -12.8506 -26.4035 -22.883
12267 887 1 -16.5887 -19.2543 -25.2138
12268 887 2 -15.4773 -19.0708 -24.4775
12269 887 1 -15.1643 -17.7625 -24.5066
12271 887 3 -16.9893 -18.0396 -25.7324
12273 887 4 -17.1617 -20.571 -25.5659
12274 887 5 -16.9237 -21.6152 -24.4785
12275 887 6 -17.546 -22.9583 -24.8782
12276 887 7 -17.2913 -24.0365 -23.8187
12277 887 8 -17.8625 -17.9425 -26.3699
12279 887 9 -14.8616 -19.838 -24.0208
12280 887 10 -13.3047 -18.0475 -23.6139
12283 887 10 -16.6831 -20.8847 -26.5042
12284 887 10 -18.2377 -20.4062 -25.7303
12285 887 11 -15.8393 -21.7521 -24.3482
12286 887 11 -17.354 -21.265 -23.524
12287 887 11 -17.1154 -23.2774 -25.8428
12288 887 11 -18.6327 -22.8344 -25.0336
12289 887 11 -16.21 -24.1906 -23.6757
12290 887 11 -17.7259 -23.7437 -22.8484
12291 887 11 -17.7373 -24.9988 -24.1131
12292 888 13 -13.096 -20.3173 -25.8378
12293 888 14 -14.3085 -21.0472 -26.1163
12294 888 14 -13.2942 -18.9581 -26.2535
12295 888 14 -11.9971 -20.897 -26.4702
12296 888 14 -12.9216 -20.3143 -24.3974
13872 993 10 -14.3867 -18.0824 26.5378
14069 1007 1 -11.6878 -21.7853 -19.6647
14070 1007 3 -12.3212 -22.3884 -18.6019
14072 1007 4 -11.5577 -22.3225 -21.0268
14078 1007 8 -12.8924 -23.3058 -18.7075
14082 1007 10 -12.5221 -22.2506 -21.5459
14297 1021 11 -18.4516 -23.4987 -19.1316
5198 399 11 -9.5446 26.5101 -26.3934
5463 421 1 -8.70313 -17.8742 -23.8658
5464 421 3 -9.64541 -18.047 -24.8608
5466 421 4 -7.8201 -18.9046 -23.3107
5472 421 8 -9.82284 -19.0065 -25.3395
5474 421 10 -7.17539 -18.4256 -22.5646
5475 421 10 -8.42326 -19.6892 -22.8352
5476 421 10 -7.20645 -19.3322 -24.1144
8197 615 8 -7.05921 -26.0945 26.5165
8248 619 2 -3.79388 -18.1526 -19.319
8259 619 9 -4.66161 -18.6388 -19.7514
8265 619 11 -4.17868 -20.7425 -20.0128
8269 619 11 -4.58953 -22.9778 -21.1836
8272 620 13 -6.13265 -19.1307 -17.6916
8273 620 14 -5.12485 -20.1521 -17.8397
8276 620 14 -6.55737 -18.7544 -19.027
9680 713 11 -8.45653 -19.2323 26.51
10347 759 1 -9.02455 -22.4624 -25.1978
10348 759 2 -7.88436 -22.82 -24.579
10349 759 1 -6.93483 -21.9197 -24.8925
10350 759 3 -7.46829 -20.9715 -25.7356
10351 759 3 -8.79694 -21.3148 -25.9301
10352 759 4 -5.52133 -22.0602 -24.5143
10353 759 4 -10.2558 -23.2799 -25.2403
10354 759 5 -10.4378 -24.1179 -23.9778
10358 759 8 -6.88264 -20.1472 -26.1313
10359 759 9 -7.70539 -23.7264 -24.0109
10360 759 10 -5.39492 -23.0529 -24.0676
10361 759 10 -4.91765 -22.008 -25.4282
10362 759 10 -5.24614 -21.2635 -23.8113
10363 759 10 -10.1729 -23.933 -26.1203
10364 759 10 -11.0908 -22.575 -25.3734
10365 759 11 -9.58644 -24.8093 -23.8841
10366 759 11 -10.4585 -23.4591 -23.0921
10372 760 13 -6.77827 -25.3474 -25.7889
10373 760 14 -8.21945 -25.3196 -25.8429
10374 760 14 -6.28915 -24.1779 -26.4616
10376 760 14 -6.40207 -25.2391 -24.3918
11757 853 1 -6.96604 -24.4539 -19.1401
11758 853 2 -7.99 -25.0643 -18.5157
11759 853 1 -9.0299 -25.1196 -19.3678
11760 853 3 -8.67455 -24.5261 -20.5577
11761 853 3 -7.36249 -24.1029 -20.4147
11762 853 4 -10.3699 -25.5907 -18.9894
11763 853 4 -5.69911 -24.0524 -18.4921
11767 853 8 -6.70169 -23.5874 -21.1046
11768 853 8 -9.36006 -24.4431 -21.3957
11770 853 10 -10.371 -25.7506 -17.9051
11771 853 10 -11.0892 -24.798 -19.2272
11773 853 10 -5.85189 -23.038 -18.0977
11774 853 10 -4.93719 -24.0354 -19.2865
11776 853 11 -5.20796 -26.0291 -17.7574
11972 867 4 -4.43801 -18.7841 -25.518
11981 867 10 -5.15155 -19.3409 -24.8991
11982 867 10 -4.23836 -19.3079 -26.4616
14067 1007 1 -11.2721 -20.5559 -17.9125
14068 1007 2 -11.0512 -20.6809 -19.234
14074 1007 5 -10.2983 -18.263 -17.7666
14079 1007 9 -10.3926 -20.0752 -19.8469
14080 1007 10 -10.7807 -21.7433 -21.5386
14081 1007 10 -11.2251 -23.3646 -20.9514
14085 1007 11 -9.60791 -18.4792 -18.5962
14086 1007 11 -11.2272 -17.8338 -18.1811
14092 1008 13 -8.16657 -21.3734 -19.7579
14093 1008 14 -8.30944 -20.548 -18.5837
14094 1008 14 -8.96967 -22.5481 -19.5715
14095 1008 14 -6.83046 -21.6922 -19.9957
14096 1008 14 -8.7272 -20.6311 -20.8714
1303 101 1 1.57309 -25.0907 -18.4099
1304 101 3 2.58714 -25.6956 -17.6933
1306 101 4 1.15417 -25.4177 -19.7764
1312 101 8 3.19097 -26.5028 -18.0997
1313 101 9 0.139194 -23.4408 -17.8838
1314 101 10 0.303986 -24.773 -20.0284
1315 101 10 1.98398 -25.2306 -20.4705
1316 101 10 0.850055 -26.4715 -19.8235
4111 317 1 0.80034 -18.4302 -24.5108
4112 317 3 0.593652 -19.237 -23.409
4113 317 3 0.465865 -18.389 -22.3192
4114 317 4 0.997389 -18.8746 -25.894
4119 317 8 0.297095 -18.6041 -21.2681
4120 317 8 0.558863 -20.3213 -23.4749
4123 317 10 1.90907 -19.4829 -25.9589
4124 317 10 0.126712 -19.4597 -26.2178
6165 475 1 3.34157 -21.6605 -17.7021
6168 475 4 2.71799 -22.0827 -18.9601
6176 475 10 1.77077 -21.5402 -19.062
6177 475 10 3.38128 -21.838 -19.8001
6178 475 10 2.52738 -23.1635 -18.9292
8247 619 1 -2.65571 -18.7406 -18.9071
8251 619 3 -1.86319 -17.7976 -18.2844
8253 619 4 -2.39493 -20.1955 -18.9425
8254 619 5 -3.09141 -20.8798 -20.1155
8255 619 6 -2.78225 -22.3816 -20.1217
8256 619 7 -3.49842 -23.101 -21.2703
8257 619 8 -0.894822 -18.0447 -17.8606
8263 619 10 -2.76143 -20.6069 -17.9915
8264 619 10 -1.30217 -20.3125 -19.0056
8266 619 11 -2.76405 -20.4196 -21.0642
8267 619 11 -3.09994 -22.8147 -19.1577
8268 619 11 -1.69163 -22.5377 -20.2034
8270 619 11 -3.18491 -22.6925 -22.2455
8271 619 11 -3.27531 -24.179 -21.2671
8511 635 11 1.84107 -19.8863 26.5227
10017 737 1 1.28658 -23.4218 -23.2
10018 737 2 0.615418 -23.0582 -24.3082
10019 737 1 -0.394363 -22.2478 -23.9421
10020 737 3 -0.380807 -22.0942 -22.5744
10021 737 3 0.687718 -22.8395 -22.1012
10022 737 4 -1.42927 -21.7653 -24.8679
10023 737 4 2.36175 -24.4358 -23.1571
10024 737 5 3.17328 -24.4736 -24.4492
10027 737 8 1.05282 -22.9984 -21.0914
10028 737 8 -1.11286 -21.4891 -22.0481
10029 737 9 0.771935 -23.4245 -25.317
10030 737 10 -1.28435 -22.2803 -25.8244
10031 737 10 -2.40772 -22.0489 -24.4623
10032 737 10 -1.34664 -20.6766 -24.9793
10033 737 10 1.87578 -25.4066 -22.9859
10034 737 10 2.9969 -24.1771 -22.296
10035 737 11 2.50391 -24.7384 -25.2819
10036 737 11 3.6079 -23.4781 -24.6464
10042 738 13 -0.859161 -25.4159 -25.4666
10043 738 14 0.364114 -25.8212 -24.8186
10044 738 14 -1.65628 -24.7118 -24.5031
11980 867 10 -3.51931 -18.6303 -24.9406
13566 973 7 3.31827 -18.4767 -19.0108
13577 973 11 2.24638 -17.7309 -20.7425
13579 973 11 3.11937 -19.5395 -19.2204
13581 973 11 2.57473 -18.1284 -18.2776
13582 974 13 3.34725 -20.8614 -24.4717
13583 974 14 2.9106 -19.7827 -23.6193
13585 974 14 2.2942 -21.7191 -24.7858
5565 429 1 7.63331 -21.2522 -22.7122
5566 429 2 8.67452 -21.237 -23.5702
5567 429 1 9.16904 -19.9789 -23.5818
5568 429 3 8.4396 -19.1837 -22.7197
5569 429 3 7.46521 -19.9983 -22.1629
5570 429 4 10.3059 -19.5587 -24.4067
5571 429 4 6.89419 -22.4895 -22.3743
5572 429 5 7.6426 -23.2949 -21.3126
5573 429 6 6.98872 -24.6671 -21.1221
5574 429 7 7.75337 -25.5202 -20.1044
5575 429 8 6.68284 -19.7786 -21.4423
5576 429 8 8.65448 -18.1285 -22.5724
5577 429 9 9.01757 -22.1603 -24.1049
5578 429 10 10.6722 -20.4406 -24.9452
5579 429 10 9.9785 -18.793 -25.1223
5580 429 10 11.0991 -19.1601 -23.7607
5581 429 10 6.83827 -23.0781 -23.3011
5582 429 10 5.88982 -22.181 -22.0445
5583 429 11 8.67148 -23.4439 -21.6813
5584 429 11 7.67606 -22.7362 -20.3591
5585 429 11 6.98214 -25.1739 -22.1015
5586 429 11 5.93826 -24.5438 -20.7994
5587 429 11 8.78859 -25.6798 -20.4445
5588 429 11 7.78462 -25.03 -19.1173
5590 430 12 8.97711 -24.169 -24.4312
5780 445 5 8.93551 -19.8483 -17.7127
5782 445 7 6.6686 -20.0298 -18.8317
5791 445 11 9.07953 -18.853 -18.166
5792 445 11 9.36543 -20.6171 -18.3808
5795 445 11 6.80039 -19.047 -19.3109
5796 445 11 7.02792 -20.8057 -19.5278
5797 445 11 5.59018 -20.189 -18.6747
6174 475 8 5.13333 -22.8837 -17.671
7938 597 11 7.48947 26.5082 -24.0067
8417 629 11 10.4785 26.5127 -21.359
8515 636 14 7.47212 -24.7464 26.5159
10025 737 6 4.28385 -25.5266 -24.3551
10026 737 7 5.09369 -25.611 -25.654
10038 737 11 4.9541 -25.2875 -23.5101
10039 737 11 4.44113 -25.8782 -26.5001
10040 737 11 5.57068 -24.6434 -25.8827
10041 737 11 5.8868 -26.3708 -25.5813
10388 761 8 9.2183 -21.4438 26.5068
11926 863 11 10.9 -18.2973 -21.3884
12241 885 3 11.3009 -21.7462 -21.5155
12243 885 4 10.7849 -23.6479 -19.9084
12245 885 6 10.3949 -25.1324 -17.9175
12247 885 8 10.2576 -21.5456 -21.7384
12253 885 10 10.629 -24.485 -20.6034
12254 885 10 9.83579 -23.1151 -19.7438
12257 885 11 10.1843 -25.9636 -18.6121
12258 885 11 9.43411 -24.6243 -17.7193
13557 973 1 5.16173 -17.743 -23.6338
13558 973 2 5.61559 -19.0003 -23.7889
13559 973 1 6.36108 -19.0438 -24.9082
13560 973 3 6.38002 -17.7967 -25.4903
13562 973 4 6.90634 -20.2847 -25.477
13564 973 5 4.28427 -18.1337 -21.3307
13569 973 9 5.35395 -19.868 -23.1931
13570 973 10 6.49144 -21.122 -24.9044
13572 973 10 8.00249 -20.2644 -25.4251
13575 973 11 4.0861 -19.1916 -21.5615
13576 973 11 5.30478 -18.0459 -20.9187
13580 973 11 4.31513 -18.401 -18.5452
13584 974 14 3.93358 -20.2844 -25.6477
13586 974 14 4.39584 -21.5686 -23.7607
53 5 1 18.3601 -18.3469 -24.006
54 5 2 18.5753 -17.8973 -22.7521
56 5 3 16.3761 -17.8444 -23.1459
57 5 3 17.0083 -18.3337 -24.2791
63 5 8 16.6043 -18.656 -25.2343
68 5 10 16.5336 -17.7184 -20.2969
72 5 11 18.9109 -20.9701 -24.7526
4348 335 4 17.7733 -18.7024 -17.886
4356 335 10 18.4355 -18.0744 -18.4936
4357 335 10 17.6765 -19.6957 -18.3436
4358 335 10 16.7874 -18.2277 -17.7968
4967 383 1 17.8627 -23.4582 -18.9141
4968 383 2 17.5172 -22.6105 -19.9053
4969 383 1 18.048 -23.0925 -21.0513
4970 383 3 18.7355 -24.2617 -20.7905
4971 383 3 18.6115 -24.4955 -19.4293
4972 383 4 17.9009 -22.4381 -22.355
4979 383 9 16.8724 -21.7125 -19.7216
4980 383 10 17.2703 -21.5523 -22.215
4981 383 10 18.8883 -22.1386 -22.7302
4982 383 10 17.421 -23.13 -23.0596
4985 383 11 15.3443 -23.3884 -18.1413
4992 384 12 15.6691 -20.5745 -18.5383
11916 863 7 13.613 -18.4923 -20.7769
11928 863 11 12.9775 -17.8582 -22.7554
11929 863 11 13.5706 -18.1375 -19.735
11930 863 11 13.1365 -19.486 -20.819
11931 863 11 14.6715 -18.6123 -21.0538
12237 885 1 11.6859 -22.6919 -20.5868
12238 885 2 13.0299 -22.7294 -20.5317
12239 885 1 13.5124 -21.8205 -21.3988
12240 885 3 12.4628 -21.1937 -22.0311
12242 885 4 14.9401 -21.6746 -21.7167
12244 885 5 11.3667 -24.1573 -18.5926
12248 885 8 12.6104 -20.4262 -22.7849
12249 885 9 13.6422 -23.4319 -19.9768
12250 885 10 15.4743 -22.4973 -21.2279
12251 885 10 15.0593 -21.7755 -22.8019
12252 885 10 15.2982 -20.6975 -21.3676
12255 885 11 12.3098 -24.685 -18.8013
12256 885 11 11.5779 -23.3052 -17.923
12262 886 13 14.0592 -25.3124 -21.6909
12263 886 14 12.7736 -25.4884 -21.0609
12264 886 14 13.9227 -24.2963 -22.6952
12266 886 14 14.9653 -24.8073 -20.6765
59 5 4 19.4474 -18.8647 -24.8669
60 5 5 19.771 -20.3168 -24.5165
61 5 6 21.0302 -20.7782 -25.2571
62 5 7 21.4127 -22.2133 -24.8799
65 5 9 19.6012 -17.8582 -22.3026
69 5 10 20.3277 -18.239 -24.6617
70 5 10 19.1141 -18.7429 -25.9094
71 5 11 19.9676 -20.3546 -23.4317
73 5 11 21.8492 -20.0916 -24.9852
74 5 11 20.8754 -20.7024 -26.3494
75 5 11 21.6086 -22.2821 -23.7983
76 5 11 20.6047 -22.92 -25.1314
77 5 11 22.3222 -22.536 -25.4107
78 6 12 21.5933 -18.2753 -22.3295
1051 81 8 22.9576 -17.8723 -19.1841
1058 81 10 25.1772 -18.0488 -17.8406
3979 307 1 21.9231 -20.8831 -20.2241
3980 307 2 22.4311 -20.5504 -19.0192
3981 307 1 21.5819 -21.0226 -18.0794
3982 307 3 20.5235 -21.667 -18.6895
3983 307 3 20.7458 -21.5815 -20.0556
3985 307 4 22.6308 -20.6049 -21.4942
3986 307 5 23.6926 -21.6699 -21.7673
3987 307 6 24.561 -21.2656 -22.9629
3988 307 7 25.6726 -22.2876 -23.2242
3989 307 8 20.1626 -21.9503 -20.8943
3990 307 8 19.7113 -22.1207 -18.1276
3991 307 9 23.4074 -20.0101 -18.9145
3995 307 10 23.1221 -19.6298 -21.3664
3996 307 10 21.8638 -20.5572 -22.2829
3997 307 11 24.3335 -21.7287 -20.8714
3998 307 11 23.2162 -22.6528 -21.9381
3999 307 11 25.0058 -20.2823 -22.7367
4000 307 11 23.9321 -21.1515 -23.8653
4001 307 11 26.3256 -22.372 -22.3414
4002 307 11 25.2543 -23.2841 -23.4424
4003 307 11 26.2967 -21.9874 -24.0805
4004 308 12 25.1361 -19.2556 -19.6795
4977 383 8 18.9985 -25.2984 -18.8086
4978 383 8 19.2518 -24.823 -21.5649
7046 538 14 23.6526 -23.1795 26.5267
7328 557 8 24.458 -24.09 -18.3142
4420 340 12 -19.462 -9.69743 -24.6288
6450 497 2 -19.1041 -15.8133 -18.4559
6451 497 1 -19.3458 -14.4912 -18.3109
6454 497 4 -20.6892 -13.9038 -18.3156
6461 497 9 -19.8067 -16.6674 -18.6376
6462 497 10 -21.407 -14.7129 -18.4945
6464 497 10 -20.7597 -13.1584 -19.1185
9694 715 5 -23.1511 -9.84113 -25.3711
9695 715 6 -22.4681 -11.1593 -24.9881
9696 715 7 -23.2998 -12.3727 -25.4196
9705 715 11 -24.1384 -9.79989 -24.8862
9706 715 11 -23.291 -9.78829 -26.465
9707 715 11 -22.3218 -11.1802 -23.8945
9708 715 11 -21.4658 -11.2082 -25.4502
9709 715 11 -24.292 -12.3512 -24.9418
9711 715 11 -22.806 -13.3155 -25.1387
12657 913 1 -25.0481 -14.2179 -23.9949
12658 913 2 -24.0011 -14.978 -23.6249
12659 913 1 -23.7673 -15.8757 -24.5995
12660 913 3 -24.6847 -15.6987 -25.6102
12661 913 3 -25.4993 -14.6446 -25.2275
12662 913 4 -22.789 -16.9669 -24.4854
12663 913 4 -25.7204 -13.2256 -23.1292
12664 913 5 -24.7559 -12.5678 -22.146
12665 913 6 -25.4911 -11.5378 -21.2803
12666 913 7 -24.5526 -10.886 -20.2583
12667 913 8 -26.3465 -14.1829 -25.7249
12668 913 8 -24.698 -16.3192 -26.5012
12669 913 9 -23.4875 -14.963 -22.6698
12670 913 10 -22.4136 -16.969 -23.4557
12672 913 10 -21.9788 -16.8139 -25.2098
12674 913 10 -26.1701 -12.4808 -23.8036
12675 913 11 -24.3324 -13.3438 -21.4902
12676 913 11 -23.9324 -12.0827 -22.6987
12677 913 11 -26.32 -12.0414 -20.7539
12678 913 11 -25.9407 -10.7615 -21.9251
12679 913 11 -24.1202 -11.647 -19.5897
12680 913 11 -23.7229 -10.3645 -20.7641
12681 913 11 -25.087 -10.1504 -19.6379
12682 914 13 -24.7532 -16.7486 -21.3066
12683 914 14 -25.4671 -15.4957 -21.271
12684 914 14 -25.0289 -17.3775 -22.5669
12685 914 14 -25.1053 -17.5649 -20.2328
12686 914 14 -23.3373 -16.4335 -21.2743
12957 933 1 -22.8154 -9.91056 -17.7553
12963 933 4 -21.4408 -10.3562 -18.0685
12964 933 5 -20.3982 -9.29134 -17.7391
12965 933 6 -18.9891 -9.80046 -18.0651
12973 933 10 -21.4194 -10.5885 -19.1425
12977 933 11 -18.9506 -10.0843 -19.1308
13157 945 11 -20.9215 -9.55172 26.5823
4395 339 1 -17.4125 -9.08907 -21.6796
4396 339 2 -17.9677 -10.2739 -22.0089
4397 339 1 -17.7056 -11.1359 -21.0011
4398 339 3 -16.9797 -10.4945 -20.0164
4399 339 3 -16.7989 -9.18924 -20.4485
4400 339 4 -18.1372 -12.5371 -20.9953
4406 339 8 -16.6494 -10.9967 -19.1109
4407 339 9 -18.5538 -10.4134 -22.9539
4408 339 10 -18.7191 -12.7112 -21.9079
4409 339 10 -17.257 -13.1933 -20.9821
4410 339 10 -18.7629 -12.7235 -20.1126
6449 497 1 -17.7678 -15.9877 -18.3895
6452 497 3 -18.1523 -13.8138 -18.1547
6453 497 3 -17.1481 -14.7686 -18.2105
6455 497 4 -17.1225 -17.3039 -18.5957
6456 497 5 -16.9806 -17.6102 -20.0864
6459 497 8 -16.0695 -14.6702 -18.1298
6460 497 8 -18.1036 -12.7372 -18.014
6466 497 10 -16.153 -17.2688 -18.0746
6467 497 11 -17.9801 -17.497 -20.5392
6468 497 11 -16.2838 -16.8951 -20.5611
12270 887 3 -16.0827 -17.0925 -25.2827
12272 887 4 -13.9312 -17.2062 -23.9316
12278 887 8 -16.0263 -16.0229 -25.4606
12281 887 10 -13.4052 -16.6565 -24.7212
12282 887 10 -14.1805 -16.5483 -23.0891
12867 927 1 -12.6348 -9.08464 -23.828
12868 927 2 -13.2272 -9.32926 -22.6447
12869 927 1 -12.349 -9.981 -21.8609
12872 927 4 -12.6891 -10.5392 -20.5443
12879 927 9 -14.2625 -9.14228 -22.3809
12880 927 10 -13.7713 -10.432 -20.4084
12881 927 10 -12.4414 -11.6073 -20.5531
12882 927 10 -12.13 -10.009 -19.7627
12883 927 10 -13.719 -9.38998 -25.5784
12892 928 13 -15.4183 -11.3714 -22.9669
12893 928 14 -15.2704 -10.5604 -24.1506
12894 928 14 -14.1519 -11.9892 -22.6946
12895 928 14 -16.4324 -12.3155 -23.1211
12896 928 14 -15.7125 -10.4713 -21.8677
12981 933 11 -16.9148 -9.10717 -18.0161
13738 985 2 -11.8992 -14.0853 -20.041
13739 985 1 -12.9905 -14.4738 -20.7257
13740 985 3 -12.9287 -13.968 -22.0043
13741 985 3 -11.7457 -13.2512 -22.0915
13742 985 4 -14.1272 -15.1789 -20.1163
13748 985 8 -13.7089 -14.1427 -22.739
13749 985 9 -11.7455 -14.2619 -18.982
13750 985 10 -13.962 -15.1998 -19.033
13751 985 10 -15.0359 -14.6003 -20.3207
13752 985 10 -14.2 -16.1917 -20.5328
13762 986 13 -13.0945 -12.3614 -17.8789
13763 986 14 -11.796 -11.881 -18.2837
13764 986 14 -13.9305 -12.4078 -19.0445
1355 105 1 -4.12374 -10.3196 -20.8725
1356 105 3 -3.92915 -9.61071 -22.0418
1358 105 4 -5.37798 -10.9284 -20.4187
1364 105 8 -4.72617 -9.43365 -22.7593
1366 105 10 -5.17669 -11.4411 -19.4708
1367 105 10 -6.13338 -10.1461 -20.2676
1368 105 10 -5.72541 -11.652 -21.1677
5461 421 1 -9.64772 -15.9374 -24.1694
5462 421 2 -8.70817 -16.5874 -23.4516
5465 421 3 -10.2421 -16.8105 -25.0562
5467 421 4 -9.87862 -14.4801 -24.0496
5468 421 5 -8.85873 -13.6999 -24.8786
5469 421 6 -8.96567 -12.2 -24.5854
5470 421 7 -7.91468 -11.3974 -25.3597
5471 421 8 -11.0295 -16.5019 -25.7376
5473 421 9 -8.06996 -16.0626 -22.6945
5477 421 10 -9.74475 -14.233 -22.9868
5478 421 10 -10.9164 -14.2944 -24.3676
5479 421 11 -7.85692 -14.047 -24.5741
5480 421 11 -9.00187 -13.9042 -25.9557
5481 421 11 -8.81702 -12.0591 -23.5019
5482 421 11 -9.97963 -11.8372 -24.8365
5483 421 11 -6.90229 -11.7284 -25.0797
5484 421 11 -8.03413 -11.53 -26.4476
5485 421 11 -7.99306 -10.3212 -25.1391
5486 422 12 -7.39011 -14.3804 -21.772
8252 619 4 -4.86808 -15.9208 -19.1433
8260 619 10 -5.74025 -16.5074 -19.4538
8261 619 10 -5.0795 -15.4689 -18.1669
8262 619 10 -4.61117 -15.1556 -19.8871
9068 673 8 -9.35212 -8.92246 -23.0162
9619 709 11 -10.0225 -14.17 26.5069
9672 713 10 -5.50943 -11.768 26.5229
11967 867 1 -5.25154 -15.2937 -25.7574
11968 867 2 -4.3951 -16.3014 -25.5084
11969 867 1 -5.01312 -17.4608 -25.799
11970 867 3 -6.29262 -17.1975 -26.2327
11971 867 3 -6.4454 -15.8202 -26.2074
11973 867 4 -5.01207 -13.876 -25.4129
11977 867 8 -7.29373 -15.1934 -26.4641
11983 867 10 -5.38958 -13.7295 -24.3911
11984 867 10 -5.60745 -13.2805 -26.1219
11988 867 11 -3.90383 -11.3945 -25.8421
11992 868 13 -3.91735 -16.5689 -22.5461
11993 868 14 -4.16496 -15.1986 -22.9222
11994 868 14 -5.03908 -17.3538 -22.9765
12870 927 3 -11.1744 -10.1691 -22.5533
12871 927 3 -11.3544 -9.59918 -23.8038
12877 927 8 -10.6864 -9.52846 -24.6565
12878 927 8 -10.3204 -10.6845 -22.124
13737 985 1 -11.1293 -13.3457 -20.8602
13743 985 4 -9.92484 -12.5974 -20.4415
13744 985 5 -9.18235 -13.2877 -19.3006
13745 985 6 -7.93492 -12.4866 -18.9093
13746 985 7 -7.18809 -13.1393 -17.7405
13747 985 8 -11.3115 -12.6917 -22.9143
13753 985 10 -10.2642 -11.601 -20.1251
13754 985 10 -9.28819 -12.5107 -21.3353
13755 985 11 -9.85061 -13.3509 -18.4282
13756 985 11 -8.8985 -14.3104 -19.6046
13757 985 11 -8.24151 -11.4643 -18.6287
13758 985 11 -7.26168 -12.3954 -19.7805
13760 985 11 -6.86008 -14.1585 -18.0044
14089 1007 11 -8.577 -16.1508 -18.3684
14090 1007 11 -10.1725 -15.4733 -17.9475
1353 105 1 -2.03726 -9.70132 -20.8838
1354 105 2 -2.96763 -10.373 -20.174
1357 105 3 -2.59787 -9.22248 -22.0494
1359 105 4 -0.61856 -9.62228 -20.4685
1360 105 5 0.136942 -10.8865 -20.8774
1361 105 6 1.54037 -10.8935 -20.2631
1362 105 7 2.30108 -12.1781 -20.6086
1365 105 9 -2.72336 -10.8824 -19.206
1369 105 10 -0.622153 -9.54255 -19.3721
1371 105 11 -0.426068 -11.7466 -20.4774
1372 105 11 0.186287 -10.9654 -21.979
1373 105 11 1.42772 -10.8109 -19.1693
1374 105 11 2.10955 -10.0114 -20.6108
1375 105 11 1.75693 -13.0559 -20.2261
1376 105 11 2.41787 -12.2909 -21.6991
1377 105 11 3.30627 -12.1793 -20.1585
1378 106 12 -1.40408 -11.5309 -17.7982
4109 317 1 0.607735 -17.103 -22.797
4110 317 2 0.805083 -17.1327 -24.1314
4115 317 4 0.465683 -15.8399 -22.0381
4116 317 5 -0.958072 -15.296 -22.1529
4117 317 6 -1.04453 -13.8909 -21.5487
4118 317 7 -2.44846 -13.2961 -21.7021
4121 317 9 0.907927 -16.1959 -24.738
4125 317 10 1.16346 -15.1246 -22.4964
4126 317 10 0.754885 -16.0584 -20.9982
4127 317 11 -1.19698 -15.2317 -23.2278
4128 317 11 -1.67258 -15.9827 -21.6626
4129 317 11 -0.312143 -13.255 -22.0734
4130 317 11 -0.760762 -13.9207 -20.4803
4131 317 11 -2.71664 -13.2262 -22.768
4132 317 11 -3.20292 -13.92 -21.1951
4133 317 11 -2.50157 -12.2837 -21.2717
4134 318 12 0.82614 -14.1733 -24.9506
8249 619 1 -3.74158 -16.8511 -18.9813
8250 619 3 -2.55486 -16.5975 -18.3318
8258 619 8 -2.29518 -15.6129 -17.9547
8436 631 7 1.84118 -15.4268 -17.7123
8449 631 11 2.80987 -15.8254 -18.0529
8451 631 11 1.46802 -14.7332 -18.4813
9359 693 1 3.00288 -9.597 -18.2289
11748 851 11 0.984564 -8.92751 -25.8278
11974 867 5 -3.53355 -13.5044 -25.4864
11975 867 6 -3.33361 -12.025 -25.1366
11976 867 7 -1.85213 -11.6324 -25.1681
11979 867 9 -3.41403 -16.2279 -25.0519
11985 867 11 -2.97626 -14.118 -24.7621
11986 867 11 -3.14625 -13.7121 -26.4992
11987 867 11 -3.74525 -11.8382 -24.1299
11989 867 11 -1.27692 -12.2341 -24.4468
11990 867 11 -1.42328 -11.7985 -26.1704
11991 867 11 -1.71503 -10.5704 -24.9127
11995 868 14 -3.69802 -16.6879 -21.1746
11996 868 14 -2.75752 -17.0137 -23.2958
12804 922 14 2.76506 -9.93197 26.5165
13565 973 6 3.25487 -17.6521 -20.3015
13573 973 10 3.18059 -17.4511 -23.0659
13578 973 11 3.4264 -16.5848 -20.0736
1743 135 1 8.59752 -12.6867 -22.904
1744 135 2 8.38298 -12.6998 -24.236
1745 135 1 7.06306 -12.9182 -24.4296
1746 135 3 6.42743 -13.0415 -23.2096
1747 135 3 7.4061 -12.8883 -22.2391
1748 135 4 6.43895 -13.0123 -25.753
1749 135 4 9.91989 -12.3859 -22.3104
1750 135 5 10.1588 -10.8773 -22.2557
1753 135 8 7.34173 -12.9157 -21.1553
1754 135 8 5.3605 -13.2288 -23.121
1755 135 9 9.20756 -12.5168 -24.9726
1756 135 10 7.21835 -12.8349 -26.5033
1757 135 10 6.01121 -14.0144 -25.8879
1758 135 10 5.65447 -12.2495 -25.8426
1759 135 10 10.667 -12.8459 -22.9728
1760 135 10 9.93668 -12.8556 -21.3145
1761 135 11 9.99635 -10.4842 -23.2734
1762 135 11 9.44152 -10.3994 -21.5632
1768 136 12 11.1141 -11.9791 -25.4407
6830 523 11 10.0266 -9.44757 26.5088
9358 693 2 3.88473 -9.67958 -19.2418
9364 693 5 5.19604 -9.474 -21.8503
9365 693 6 6.08755 -9.05189 -23.0241
9366 693 7 6.74021 -10.2623 -23.7015
9369 693 9 4.66358 -10.4307 -19.3162
9375 693 11 5.81057 -10.0175 -21.1164
9376 693 11 4.39187 -10.1427 -22.2039
9379 693 11 7.36288 -10.8186 -22.9831
9380 693 11 5.97484 -10.9515 -24.0956
9381 693 11 7.38148 -9.95247 -24.5408
9382 694 13 6.52126 -9.48723 -17.7972
9383 694 14 6.58469 -8.8744 -19.1015
9386 694 14 6.14421 -10.8741 -17.9959
11907 863 1 9.32468 -16.1266 -21.9271
11908 863 2 8.79818 -16.2135 -20.6917
11909 863 1 7.51428 -15.8154 -20.7522
11910 863 3 7.21039 -15.4561 -22.0457
11911 863 3 8.36019 -15.654 -22.7939
11912 863 4 6.65809 -15.6411 -19.5702
11913 863 4 10.7544 -16.3172 -22.2521
11917 863 8 8.55945 -15.4928 -23.8487
11918 863 8 6.22961 -15.0903 -22.3343
11919 863 9 9.3222 -16.4543 -19.7731
11920 863 10 7.2883 -15.7692 -18.6827
11921 863 10 6.27022 -14.6156 -19.5791
11922 863 10 5.84151 -16.3741 -19.5942
11923 863 10 11.2362 -15.3344 -22.1529
11924 863 10 10.7916 -16.6492 -23.301
11932 864 13 10.0154 -14.1368 -18.8804
11933 864 14 10.9555 -14.5887 -19.8768
11934 864 14 8.85741 -13.6338 -19.5627
11935 864 14 10.5827 -13.1753 -18.0455
11936 864 14 9.60501 -15.3034 -18.1216
13561 973 3 5.61852 -16.9685 -24.6809
13563 973 4 4.17517 -17.3196 -22.6171
13567 973 8 5.37029 -15.9157 -24.7729
13568 973 8 6.9124 -17.5924 -26.4144
13574 973 10 4.36377 -16.2515 -22.429
55 5 1 17.3708 -17.5867 -22.223
58 5 4 17.1896 -17.0504 -20.8705
64 5 8 15.3245 -17.6624 -22.9403
66 5 10 18.1766 -17.0002 -20.396
67 5 10 16.751 -16.0456 -20.9285
1751 135 6 11.6033 -10.5788 -21.8419
1752 135 7 11.8887 -9.07321 -21.835
1763 135 11 12.269 -11.08 -22.5641
1764 135 11 11.8064 -11.0071 -20.8428
1767 135 11 12.9303 -8.86637 -21.5432
5788 445 10 14.0361 -16.8591 -18.0067
7107 543 1 14.2593 -11.6636 -21.1094
7108 543 2 13.6104 -12.3261 -20.1342
7109 543 1 13.4201 -11.4802 -19.1052
7110 543 3 13.9641 -10.255 -19.4174
7111 543 3 14.4974 -10.3699 -20.6916
7112 543 4 12.8695 -11.8888 -17.805
7113 543 4 14.7991 -12.2838 -22.3383
7114 543 5 13.9573 -13.4676 -22.8068
7115 543 6 14.544 -14.0695 -24.0891
7116 543 7 13.7375 -15.2839 -24.5634
7117 543 8 15.0191 -9.64829 -21.3125
7118 543 8 13.9402 -9.4142 -18.7308
7119 543 9 13.3682 -13.383 -20.1112
7120 543 10 12.7783 -12.981 -17.8122
7123 543 10 15.821 -12.614 -22.1046
7124 543 10 14.8264 -11.4892 -23.0996
7125 543 11 13.9589 -14.2383 -22.0209
7126 543 11 12.9172 -13.1406 -22.9806
7127 543 11 15.5881 -14.3703 -23.8963
7128 543 11 14.5692 -13.3025 -24.8838
7129 543 11 13.7296 -16.0689 -23.7907
7130 543 11 12.6925 -15.0026 -24.7753
7131 543 11 14.1657 -15.7135 -25.482
7132 544 13 15.4023 -14.4144 -18.9081
7133 544 14 15.698 -14.2156 -20.3059
7134 544 14 15.5317 -13.1479 -18.2457
7135 544 14 16.2346 -15.3805 -18.3449
7136 544 14 14.0107 -14.8153 -18.8198
8149 611 11 18.6479 -10.6408 26.509
11339 825 1 18.8778 -11.9949 -24.5354
11342 825 4 17.4806 -12.0828 -24.0874
11350 825 10 17.341 -13.0683 -23.6287
11351 825 10 17.3195 -11.3143 -23.3221
11352 825 10 16.8086 -11.9373 -24.9429
11366 826 14 18.7322 -14.5989 -22.3556
11914 863 5 11.4277 -17.3293 -21.3292
11915 863 6 12.9021 -17.5063 -21.7109
11925 863 11 11.3718 -16.959 -20.2942
11927 863 11 13.4028 -16.524 -21.6633
1041 81 1 24.2355 -16.289 -18.4442
1042 81 2 24.298 -14.9539 -18.629
1043 81 1 23.3096 -14.6192 -19.4884
1044 81 3 22.6061 -15.7506 -19.8526
1045 81 3 23.1944 -16.8123 -19.182
1046 81 4 23.0594 -13.2496 -19.9479
1052 81 8 21.7683 -15.7223 -20.5444
1053 81 9 25.0471 -14.3143 -18.0946
1054 81 10 23.7751 -12.5913 -19.4416
1055 81 10 23.2042 -13.1937 -21.0348
1056 81 10 22.034 -12.9574 -19.686
8156 612 14 19.7366 -15.6582 26.5312
10434 764 14 21.3827 -9.63806 -17.9374
10435 764 14 22.6507 -11.605 -17.8282
11337 825 1 20.9587 -12.5714 -24.8395
11338 825 2 19.7389 -13.0283 -24.5014
11340 825 3 19.555 -10.8506 -24.8912
11341 825 3 20.8779 -11.2157 -25.0855
11343 825 4 22.2078 -13.3587 -24.7623
11344 825 5 21.9736 -14.8431 -25.0294
11345 825 6 23.2949 -15.6173 -24.954
11346 825 7 23.0841 -17.1182 -25.1837
11347 825 8 21.7448 -10.6263 -25.3676
11348 825 8 19.0655 -9.88489 -24.9733
11349 825 9 19.4872 -14.0242 -24.1534
11353 825 10 22.6118 -13.2146 -23.7505
11354 825 10 22.8937 -12.9243 -25.5057
11355 825 11 21.2875 -15.2381 -24.2647
11356 825 11 21.5108 -14.9752 -26.0231
11357 825 11 23.7471 -15.4542 -23.9607
11358 825 11 24.0038 -15.2193 -25.702
11359 825 11 22.4016 -17.5335 -24.4255
11360 825 11 22.6448 -17.3052 -26.1778
11361 825 11 24.0355 -17.6686 -25.1248
11362 826 13 19.6752 -13.8042 -21.5912
11363 826 14 20.9786 -14.0207 -22.1698
11364 826 14 19.3324 -12.4235 -21.7807
11365 826 14 19.6508 -14.1634 -20.2445
12673 913 10 -26.5096 -13.7626 -22.5845
4403 339 6 -19.1638 -6.07269 -23.2417
4404 339 7 -20.5314 -5.41593 -23.0256
4413 339 11 -19.6963 -7.9665 -22.3639
4414 339 11 -18.9469 -6.81865 -21.1973
4415 339 11 -19.1173 -6.51044 -24.2527
4417 339 11 -21.3333 -6.16174 -23.1424
4418 339 11 -20.6085 -4.97926 -22.0162
4419 339 11 -20.7071 -4.61136 -23.7569
5936 457 5 -19.621 -2.5278 -18.7056
5937 457 6 -20.3251 -3.14433 -19.9184
5938 457 7 -20.0649 -2.33521 -21.1936
5947 457 11 -20.0067 -1.50498 -18.5576
5949 457 11 -21.4067 -3.16283 -19.7042
5950 457 11 -19.9913 -4.18923 -20.0585
5951 457 11 -20.4349 -1.30512 -21.0715
5952 457 11 -18.9878 -2.29148 -21.4247
5953 457 11 -20.5793 -2.7802 -22.0598
9687 715 1 -22.9368 -7.35747 -25.261
9688 715 2 -24.261 -7.13308 -25.3449
9689 715 1 -24.4538 -5.81391 -25.5269
9690 715 3 -23.2346 -5.17541 -25.5505
9691 715 3 -22.2692 -6.15555 -25.3822
9692 715 4 -25.7776 -5.17501 -25.5217
9693 715 4 -22.3198 -8.65145 -24.899
9697 715 8 -21.1868 -6.08779 -25.3356
9698 715 8 -23.1413 -4.10083 -25.6755
9699 715 9 -25.0572 -7.85272 -25.1886
9701 715 10 -25.7699 -4.38206 -24.7644
9703 715 10 -22.2278 -8.66382 -23.8038
9704 715 10 -21.32 -8.65713 -25.3596
9712 716 13 -25.5786 -7.5987 -22.6762
9713 716 14 -24.4396 -8.46363 -22.8639
9714 716 14 -25.1307 -6.24269 -22.8183
9715 716 14 -26.1843 -7.81691 -21.4397
9716 716 14 -26.5036 -7.87084 -23.7604
12041 871 10 -22.4413 -0.415265 -20.9313
12958 933 2 -23.2497 -8.63954 -17.8373
12962 933 4 -25.4256 -7.44369 -17.8066
12969 933 9 -22.6686 -7.76659 -18.114
12970 933 10 -24.7961 -6.64459 -18.2143