LAMMPS data file via write_data, version 15 May 2015, timestep = 18500000

2593 atoms
6 atom types
1728 bonds
4 bond types
864 angles
3 angle types
0 dihedrals
3 dihedral types
0 impropers
1 improper types

-1.4904749237135537e+01 1.4904749237135537e+01 xlo xhi
-1.4904749237135537e+01 1.4904749237135537e+01 ylo yhi
-1.4904749237135537e+01 1.4904749237135537e+01 zlo zhi

Masses

1 15.9994
2 1.00794
3 12.0107
4 1.00794
5 12.0107
6 12.0107

Bond Coeffs # harmonic

1 1000 1
2 469 1.4
3 367 1.08
4 469 0.7

Angle Coeffs # harmonic

1 100 109.47
2 35 120
3 63 120

Dihedral Coeffs # opls

1 0 7.25 0 0
2 0 7.25 0 0
3 0 7.25 0 0

Improper Coeffs # cvff

1 2.5 -1 2

Atoms # full

679 227 1 -8.1999999999999995e-01 -7.0733343171265828e+00 -7.8048832149949421e+00 -1.1067948503381414e+01 -25 16 41
1821 607 2 4.0999999999999998e-01 -1.2757979171519340e+01 -1.4256589334254407e+01 -1.2177069464967154e+01 -26 16 51
650 217 2 4.0999999999999998e-01 -1.0246240094299182e+01 -1.3912522363807600e+01 -1.0120447070977491e+01 -22 10 46
649 217 1 -8.1999999999999995e-01 -1.0954859278774103e+01 -1.3208880796564554e+01 -1.0173755078565080e+01 -22 10 46
1820 607 2 4.0999999999999998e-01 -1.1699037662078181e+01 -1.3183669234648971e+01 -1.1549085918537207e+01 -26 16 51
1819 607 1 -8.1999999999999995e-01 -1.2240483099369554e+01 -1.3419774336356712e+01 -1.2356046565536779e+01 -26 16 51
1536 512 2 4.0999999999999998e-01 -8.9160402629290125e+00 -9.8890312320412583e+00 -8.7813325929913795e+00 -25 16 41
1535 512 2 4.0999999999999998e-01 -1.0206310828186574e+01 -9.8650137174699033e+00 -9.7820838751231154e+00 -25 16 41
1534 512 1 -8.1999999999999995e-01 -9.2116488030897443e+00 -9.7754573180536681e+00 -9.7299162332507692e+00 -25 16 41
924 308 2 4.0999999999999998e-01 -1.2917964952267129e+01 -1.0450401512302280e+01 -9.7916314046699267e+00 -17 10 45
1253 418 2 4.0999999999999998e-01 -7.9244510185230261e+00 -1.4477140055670821e+01 -1.4181620638342363e+01 -27 11 49
697 233 1 -8.1999999999999995e-01 -1.3994289987982228e+01 -1.1599395505670586e+01 -1.3254773619474335e+01 -22 9 45
1191 397 2 4.0999999999999998e-01 -1.1271465941609424e+01 -1.3066790726256508e+01 -1.3676091835927608e+01 -23 18 42
651 217 2 4.0999999999999998e-01 -1.0815139064473678e+01 -1.2539168789851885e+01 -9.4443317236290927e+00 -22 10 46
699 233 2 4.0999999999999998e-01 -1.3807019565642682e+01 -1.0867712361905578e+01 -1.2599286063124040e+01 -22 9 45
807 269 2 4.0999999999999998e-01 -6.5394608986686507e+00 -1.3943817546542169e+01 -1.2053455105386824e+01 -20 16 44
922 308 1 -8.1999999999999995e-01 -1.2386691039402191e+01 -1.0608241656397098e+01 -8.9592079009121903e+00 -17 10 45
1213 405 1 -8.1999999999999995e-01 -7.6561834577649588e+00 -1.0527744454855071e+01 -1.1995441988006576e+01 -26 16 44
1214 405 2 4.0999999999999998e-01 -7.3343223176424726e+00 -1.1468712857601306e+01 -1.2100694967090096e+01 -26 16 44
1215 405 2 4.0999999999999998e-01 -8.0984956542603452e+00 -1.0424439105817573e+01 -1.1104497430071632e+01 -26 16 44
2138 713 2 4.0999999999999998e-01 -7.3195552284698451e+00 -1.2212933961101223e+01 -8.2663971742491782e+00 -26 15 44
2139 713 2 4.0999999999999998e-01 -5.9298981087691978e+00 -1.3053319297546272e+01 -8.4381045215780830e+00 -26 15 44
909 303 2 4.0999999999999998e-01 -9.4389188852064798e+00 -1.4551218144849578e+01 -8.2573188058231075e+00 -23 11 43
2137 713 1 -8.1999999999999995e-01 -6.8285282289515639e+00 -1.2871033584340214e+01 -8.8372663466124166e+00 -26 15 44
805 269 1 -8.1999999999999995e-01 -6.7896066888397968e+00 -1.3075495556495806e+01 -1.1625041297662241e+01 -20 16 44
806 269 2 4.0999999999999998e-01 -6.6830147390143431e+00 -1.3150104224435141e+01 -1.0633494003482646e+01 -20 16 44
680 227 2 4.0999999999999998e-01 -7.9582561872732480e+00 -7.4905795324723625e+00 -1.0724116107413877e+01 -25 16 41
2570 857 2 4.0999999999999998e-01 -1.2520372666591888e+01 -1.4616785095508503e+01 -9.0138367420481309e+00 -21 14 50
1189 397 1 -8.1999999999999995e-01 -1.0926798672953073e+01 -1.3178975696046084e+01 -1.4608139787163955e+01 -23 18 42
32 11 2 4.0999999999999998e-01 -1.3145734046457950e+01 -8.7850539102324614e+00 -1.1344567441880926e+01 -22 9 48
923 308 2 4.0999999999999998e-01 -1.2100007292535864e+01 -9.7304549817799249e+00 -8.5752842357400567e+00 -17 10 45
698 233 2 4.0999999999999998e-01 -1.3395769805113103e+01 -1.2377851297288345e+01 -1.3065367756117016e+01 -22 9 45
31 11 1 -8.1999999999999995e-01 -1.3705532390429795e+01 -9.6030656146633167e+00 -1.1211989255602697e+01 -22 9 48
26 9 2 4.0999999999999998e-01 -7.7789613423412076e+00 -1.0516856110017789e+01 -1.3706995252317588e+01 -21 10 45
681 227 2 4.0999999999999998e-01 -7.2040676218298714e+00 -8.6265370410772579e+00 -1.1622825225793459e+01 -25 16 41
272 91 2 4.0999999999999998e-01 -5.9678225038686286e+00 -8.8087474465712106e+00 -1.0057349260536226e+01 -25 9 43
1726 576 1 -8.1999999999999995e-01 -1.1623151099728219e+01 -8.2361965432338611e+00 -7.7598883130691663e+00 -20 11 48
27 9 2 4.0999999999999998e-01 -7.6513258577059808e+00 -1.1744775316506306e+01 -1.4776014338768650e+01 -21 10 45
271 91 1 -8.1999999999999995e-01 -5.3029596458278974e+00 -9.1241890296794672e+00 -9.3801873156229281e+00 -25 9 43
25 9 1 -8.1999999999999995e-01 -7.5791604078250376e+00 -1.0754382591730547e+01 -1.4657655641623746e+01 -21 10 45
1019 340 2 4.0999999999999998e-01 -9.4407065436822819e+00 -7.8943655547016593e+00 -1.1751047739700187e+01 -23 13 40
1252 418 1 -8.1999999999999995e-01 -8.2577943674899039e+00 -1.3641432064606391e+01 -1.4618162456262255e+01 -27 11 49
1254 418 2 4.0999999999999998e-01 -9.2576117036771315e+00 -1.3651300174046172e+01 -1.4637196426805124e+01 -27 11 49
1514 505 2 4.0999999999999998e-01 -5.6447664758499680e+00 -1.0428826760081652e+01 -1.4534111212184484e+01 -20 15 46
33 11 2 4.0999999999999998e-01 -1.4593584603388248e+01 -9.3415397346809215e+00 -1.0833754162483444e+01 -22 9 48
273 91 2 4.0999999999999998e-01 -5.2933438141269296e+00 -8.4939556622277372e+00 -8.6037803197971243e+00 -25 9 43
1991 664 2 4.0999999999999998e-01 -1.2662340462237992e+01 -1.1524138336341966e+01 -7.4923769192072660e+00 -25 11 43
2234 745 2 4.0999999999999998e-01 -1.2733519420548848e+01 -5.3002869276940956e-01 -9.6681543280545235e+00 -30 10 48
1688 563 2 4.0999999999999998e-01 -1.4341668987731977e+01 -4.4551024243752231e+00 -1.3481248683208833e+01 -20 13 47
1111 371 1 -8.1999999999999995e-01 -1.4881425627778661e+01 -2.8210519931675631e+00 -1.1145672747110400e+01 -30 13 42
2233 745 1 -8.1999999999999995e-01 -1.3097531135202786e+01 -7.1577026731301352e-01 -1.0580891931557815e+01 -30 10 48
320 107 2 4.0999999999999998e-01 -7.5465824981752521e+00 -6.2728147970787358e+00 -7.8478412610434161e+00 -22 9 47
1903 635 1 -8.1999999999999995e-01 -1.1051794065585533e+01 -7.9101697190937514e-01 -1.4423859624142629e+01 -21 13 44
2165 722 2 4.0999999999999998e-01 -1.1679235370172387e+01 -5.7923598144804007e+00 -1.4777250068724713e+01 -21 13 45
947 316 2 4.0999999999999998e-01 -5.8780570603703435e+00 -3.7316928048118925e-01 -1.1960371835623217e+01 -23 5 47
2235 745 2 4.0999999999999998e-01 -1.2365431572368792e+01 -1.0620009026350026e+00 -1.1167619253154758e+01 -30 10 48
1375 459 1 -8.1999999999999995e-01 -1.4544526897057334e+01 -6.2542981125771195e+00 -8.7529794290264906e+00 -23 11 49
1018 340 1 -8.1999999999999995e-01 -9.8606879211294221e+00 -7.1283427583393815e+00 -1.1264304761177923e+01 -23 13 40
1890 630 2 4.0999999999999998e-01 -1.2434157873337648e+01 -7.1948643917471777e-01 -7.6173983280795490e+00 -20 15 43
1133 378 2 4.0999999999999998e-01 -1.3174751378838126e+01 -6.7130693496954521e+00 -9.9626413535592206e+00 -24 16 48
1727 576 2 4.0999999999999998e-01 -1.1559681953685789e+01 -7.2607276406092529e+00 -7.9709002876173605e+00 -20 11 48
321 107 2 4.0999999999999998e-01 -9.1092923736953253e+00 -6.4966714675806561e+00 -8.2658176211756622e+00 -22 9 47
1888 630 1 -8.1999999999999995e-01 -1.1931966043409231e+01 -8.0438878794524271e-02 -8.2000783315378420e+00 -20 15 43
101 34 2 4.0999999999999998e-01 -1.0352093446030466e+01 -4.9008786523840797e-01 -9.2905590918105236e+00 -26 12 41
102 34 2 4.0999999999999998e-01 -9.3623465067924521e+00 -1.2892521960286984e+00 -1.0314578365131611e+01 -26 12 41
1376 459 2 4.0999999999999998e-01 -1.4354145183864476e+01 -6.1569775249641570e+00 -7.7760568353765080e+00 -23 11 49
1389 463 2 4.0999999999999998e-01 -5.9156492929645648e+00 -4.9999348658194371e+00 -8.5539100836185096e+00 -27 14 47
948 316 2 4.0999999999999998e-01 -7.0015844333100627e+00 -1.1600103334660137e+00 -1.2846625389390512e+01 -23 5 47
1387 463 1 -8.1999999999999995e-01 -6.3387353487807996e+00 -4.7381877579250844e+00 -7.6863958072979282e+00 -27 14 47
554 185 2 4.0999999999999998e-01 -1.1650278084333509e+01 -3.7319188542306652e+00 -1.3090431593988788e+01 -23 16 44
1687 563 1 -8.1999999999999995e-01 -1.4027081243264343e+01 -5.4012283550248998e+00 -1.3403953252534093e+01 -20 13 47
555 185 2 4.0999999999999998e-01 -1.1304245871954839e+01 -2.1525527905623445e+00 -1.3320088848529327e+01 -23 16 44
946 316 1 -8.1999999999999995e-01 -6.1842876435851259e+00 -5.8523195155230567e-01 -1.2888459418343619e+01 -23 5 47
1112 371 2 4.0999999999999998e-01 -1.4366226037608685e+01 -1.9639412356907879e+00 -1.1140692929787352e+01 -30 13 42
103 35 1 -8.1999999999999995e-01 -8.1113694219965815e+00 -2.6378475491293560e+00 -1.3322146131874266e+01 -27 11 44
192 64 2 4.0999999999999998e-01 -7.8246532464283485e+00 -5.5355528686091446e+00 -1.3633662270683832e+01 -24 10 46
771 257 2 4.0999999999999998e-01 -6.3868465605637024e+00 -1.6020553322445412e+00 -9.3184848951447492e+00 -26 13 42
1380 460 2 4.0999999999999998e-01 -6.2757363254120726e+00 -6.3508137731906498e+00 -1.0666638466710314e+01 -19 14 45
770 257 2 4.0999999999999998e-01 -7.8729585325668801e+00 -2.2790700188715824e+00 -9.3178340200453995e+00 -26 13 42
99 33 2 4.0999999999999998e-01 -9.8900916766981339e+00 -3.7923100656905451e+00 -1.0295962858734022e+01 -26 9 45
1388 463 2 4.0999999999999998e-01 -6.4452886823956845e+00 -3.7443622629206335e+00 -7.6539668946506643e+00 -27 14 47
1378 460 1 -8.1999999999999995e-01 -5.7689115367040475e+00 -5.4909348235314255e+00 -1.0604743546822881e+01 -19 14 45
1020 340 2 4.0999999999999998e-01 -1.0745224498684259e+01 -7.4130235582312674e+00 -1.0894647921014332e+01 -23 13 40
2164 722 1 -8.1999999999999995e-01 -1.1405999193774186e+01 -4.9370670453340342e+00 -1.4336897185791036e+01 -21 13 45
104 35 2 4.0999999999999998e-01 -8.0634916317003231e+00 -3.6367290351173143e+00 -1.3328299792855082e+01 -27 11 44
100 34 1 -8.1999999999999995e-01 -9.7280925500095190e+00 -3.9232134780104033e-01 -1.0065903428463631e+01 -26 12 41
1132 378 1 -8.1999999999999995e-01 -1.2718129843119820e+01 -7.0532307025951448e+00 -1.0784761427769904e+01 -24 16 48
1140 380 2 4.0999999999999998e-01 -1.1388351252246203e+01 -5.3273468960918073e+00 -9.0091444135236536e+00 -22 14 40
1138 380 1 -8.1999999999999995e-01 -1.0725035581578412e+01 -5.5432905593843795e+00 -8.2925726812370151e+00 -22 14 40
1139 380 2 4.0999999999999998e-01 -1.0774177002738323e+01 -4.8504460608339333e+00 -7.5730964533738652e+00 -22 14 40
1134 378 2 4.0999999999999998e-01 -1.3060664410608469e+01 -6.5601162713301520e+00 -1.1584513028759627e+01 -24 16 48
105 35 2 4.0999999999999998e-01 -8.4993912678566783e+00 -2.3174039528248187e+00 -1.4186350506812344e+01 -27 11 44
769 257 1 -8.1999999999999995e-01 -6.9517681778050155e+00 -2.3312135733628203e+00 -8.9321091405604012e+00 -26 13 42
1379 460 2 4.0999999999999998e-01 -6.2184732271474719e+00 -4.7977353154940605e+00 -1.1168182066706187e+01 -19 14 45
1689 563 2 4.0999999999999998e-01 -1.3033947253140607e+01 -5.4325779585058385e+00 -1.3517074731319461e+01 -20 13 47
2238 746 2 4.0999999999999998e-01 -1.1849969401177953e+01 -3.6178151218272614e+00 -1.1017657786022165e+01 -27 10 42
2236 746 1 -8.1999999999999995e-01 -1.2159869472948373e+01 -3.8523301585452110e+00 -1.0096213830506819e+01 -27 10 42
98 33 2 4.0999999999999998e-01 -8.9872088253976408e+00 -3.1074532872412064e+00 -1.1471825080231358e+01 -26 9 45
2237 746 2 4.0999999999999998e-01 -1.2867260258200679e+01 -3.2068312714040506e+00 -9.8080753754923364e+00 -27 10 42
97 33 1 -8.1999999999999995e-01 -9.1843872702024587e+00 -3.1112274492553791e+00 -1.0491416583846998e+01 -26 9 45
190 64 1 -8.1999999999999995e-01 -8.1104335448611948e+00 -5.3211225099556057e+00 -1.2699615388326702e+01 -24 10 46
553 185 1 -8.1999999999999995e-01 -1.1667479094907179e+01 -2.8232015448537062e+00 -1.2673261043983242e+01 -23 16 44
191 64 2 4.0999999999999998e-01 -8.8786280446444223e+00 -5.9077793378141408e+00 -1.2443089947525818e+01 -24 10 46
319 107 1 -8.1999999999999995e-01 -8.3342876919107169e+00 -6.8834809112090092e+00 -7.7659771076133222e+00 -22 9 47
556 186 1 -8.1999999999999995e-01 -5.4804691725001984e+00 -2.6821680418556149e-01 -1.0082232626289841e+01 -30 14 50
1418 473 2 4.0999999999999998e-01 -5.0694134466484062e+00 -2.3622160594623605e+00 -1.4673580709235301e+01 -18 14 44
1998 666 2 4.0999999999999998e-01 -1.0561398100655689e+01 -9.7973837533211263e+00 -5.8014621096121672e+00 -22 12 43
671 224 2 4.0999999999999998e-01 -1.2035292925113731e+01 -1.0074280245447838e+01 -1.0812431966343468e+00 -26 18 40
670 224 1 -8.1999999999999995e-01 -1.2655602624563041e+01 -1.0847523416618273e+01 -1.2131722226352704e+00 -26 18 40
171 57 2 4.0999999999999998e-01 -8.1173139591847843e+00 -1.0216919432633549e+01 -2.4600106553138854e+00 -21 9 42
672 224 2 4.0999999999999998e-01 -1.2534341048230088e+01 -1.1218828701152361e+01 -2.1337820081829673e+00 -26 18 40
2266 756 1 -8.1999999999999995e-01 -1.2419113745213433e+01 -1.2741905658038565e+01 -3.1995851735863070e+00 -24 12 44
1997 666 2 4.0999999999999998e-01 -1.1333115946458914e+01 -9.3964610287787345e+00 -4.4192208988616954e+00 -22 12 43
169 57 1 -8.1999999999999995e-01 -7.9675230800361811e+00 -1.0734453928691366e+01 -1.6175053774208390e+00 -21 9 42
1728 576 2 4.0999999999999998e-01 -1.2334853636843624e+01 -8.3829975166686808e+00 -7.0728488400884491e+00 -20 11 48
2268 756 2 4.0999999999999998e-01 -1.1484380463098953e+01 -1.3026977353164849e+01 -3.4119579324486438e+00 -24 12 44
561 187 2 4.0999999999999998e-01 -9.0504889883799606e+00 -1.2512442293943131e+01 -1.0067434756474523e+00 -25 7 49
170 57 2 4.0999999999999998e-01 -7.0079384960155586e+00 -1.1010524674699834e+01 -1.5620380777212777e+00 -21 9 42
1996 666 1 -8.1999999999999995e-01 -1.1149467630602336e+01 -1.0135992600509489e+01 -5.0668787845190320e+00 -22 12 43
1894 632 1 -8.1999999999999995e-01 -8.1594466931903504e+00 -1.1742375254786683e+01 -5.0743822377756178e+00 -25 15 46
1895 632 2 4.0999999999999998e-01 -7.5002453183576394e+00 -1.1397006720544901e+01 -5.7424154782768362e+00 -25 15 46
2267 756 2 4.0999999999999998e-01 -1.3065671193091738e+01 -1.3336068113062385e+01 -3.6781546187536875e+00 -24 12 44
1940 647 2 4.0999999999999998e-01 -5.8677141562070183e+00 -1.4786304461525070e+01 -5.3157628340031131e+00 -24 18 45
1896 632 2 4.0999999999999998e-01 -8.6706084389165774e+00 -1.0976644830793454e+01 -4.6839146040121324e+00 -25 15 46
1745 582 2 4.0999999999999998e-01 -9.2737048225680407e+00 -1.2883590735708520e+01 -4.3217601231928082e+00 -20 7 45
1744 582 1 -8.1999999999999995e-01 -9.9498792997678862e+00 -1.3474566924851667e+01 -3.8817264724978617e+00 -20 7 45
560 187 2 4.0999999999999998e-01 -1.0031243447178818e+01 -1.3202238035971570e+01 -2.1154276752298280e+00 -25 7 49
1746 582 2 4.0999999999999998e-01 -9.8872242204864307e+00 -1.4395970498769698e+01 -4.2653722263882621e+00 -20 7 45
2125 709 1 -8.1999999999999995e-01 -9.6467590142873600e+00 -8.6751756357440577e+00 -1.8561571085727024e-01 -26 11 54
307 103 1 -8.1999999999999995e-01 -8.2797850434654272e+00 -9.0487410239799573e+00 -3.8384612575748935e+00 -29 10 47
309 103 2 4.0999999999999998e-01 -8.8139005620051449e+00 -8.4171646357471239e+00 -4.4005343849249705e+00 -29 10 47
250 84 1 -8.1999999999999995e-01 -1.0330122680444877e+01 -1.2999544415103214e+01 -7.1902366544373324e+00 -29 13 43
2126 709 2 4.0999999999999998e-01 -9.0278933214629795e+00 -9.1608315371397548e+00 -8.0306044109355490e-01 -26 11 54
308 103 2 4.0999999999999998e-01 -7.3238886122020794e+00 -8.7552351821070928e+00 -3.8239488101725456e+00 -29 10 47
1180 394 1 -8.1999999999999995e-01 -5.1695543530244965e+00 -1.3455013957299565e+01 -4.2115733815283534e+00 -24 14 45
314 105 2 4.0999999999999998e-01 -1.3690189068363772e+01 -9.2634120369801565e+00 -5.2547202721808866e+00 -26 11 45
252 84 2 4.0999999999999998e-01 -9.5291393048093695e+00 -1.2681045621532300e+01 -6.6832075218494911e+00 -29 13 43
1339 447 1 -8.1999999999999995e-01 -5.8615870171026074e+00 -1.1249214467126773e+01 -6.7163858850491245e+00 -25 8 38
559 187 1 -8.1999999999999995e-01 -9.8202103902057392e+00 -1.3136815143655463e+01 -1.1400921898202103e+00 -25 7 49
313 105 1 -8.1999999999999995e-01 -1.3701966179456706e+01 -8.5698384494985351e+00 -5.9750752821632229e+00 -26 11 45
1102 368 1 -8.1999999999999995e-01 -1.4215017428695749e+01 -1.3747927212166321e+01 -4.9967476839230347e+00 -22 12 48
315 105 2 4.0999999999999998e-01 -1.4594801048061303e+01 -8.5722571578933291e+00 -6.4255576374453049e+00 -26 11 45
1990 664 1 -8.1999999999999995e-01 -1.2797119948238844e+01 -1.1896454074707520e+01 -6.5740578700843759e+00 -25 11 43
358 120 1 -8.1999999999999995e-01 -5.1418749978678342e+00 -8.0395021884424143e+00 -6.7538350568586409e+00 -24 16 46
1066 356 1 -8.1999999999999995e-01 -5.1434171741821313e+00 -1.1818271175489013e+01 -1.7995371284559205e+00 -26 16 48
1104 368 2 4.0999999999999998e-01 -1.3896902228421736e+01 -1.2982683332731966e+01 -5.5564787555455766e+00 -22 12 48
1068 356 2 4.0999999999999998e-01 -5.2065849260316384e+00 -1.2630698688979397e+01 -2.3792489173791385e+00 -26 16 48
1992 664 2 4.0999999999999998e-01 -1.2390429536959271e+01 -1.1278723052011237e+01 -5.9009267477357419e+00 -25 11 43
1340 447 2 4.0999999999999998e-01 -5.7885151336063583e+00 -1.0257133750525107e+01 -6.8190050735438419e+00 -25 8 38
1341 447 2 4.0999999999999998e-01 -5.1342422050085741e+00 -1.1692953404154213e+01 -7.2399884634126748e+00 -25 8 38
761 254 2 4.0999999999999998e-01 -1.1004333696265954e+01 -8.1185697041354885e+00 -2.0041595921942239e+00 -27 16 48
2527 843 1 -8.1999999999999995e-01 -9.3631328327219716e+00 -9.2695154819570256e+00 -6.8918143866606876e+00 -21 14 48
760 254 1 -8.1999999999999995e-01 -1.1545283825795543e+01 -8.1872365379089942e+00 -2.8424627332015628e+00 -27 16 48
762 254 2 4.0999999999999998e-01 -1.1057996757606327e+01 -7.7379925805091725e+00 -3.5913456131876806e+00 -27 16 48
251 84 2 4.0999999999999998e-01 -1.1159308097478329e+01 -1.2777942859829080e+01 -6.6769738631499393e+00 -29 13 43
2528 843 2 4.0999999999999998e-01 -8.7120676760155433e+00 -8.5135024719419281e+00 -6.9600251805553297e+00 -21 14 48
901 301 1 -8.1999999999999995e-01 -5.3277304384170154e+00 -8.0283297436879018e+00 -3.6543776833806945e+00 -13 8 42
1181 394 2 4.0999999999999998e-01 -5.8092701763969181e+00 -1.2802616363353533e+01 -4.6180648701877995e+00 -24 14 45
2045 682 2 4.0999999999999998e-01 -1.0968054138462042e+01 -1.4891267669080026e+01 -1.4080971930778645e+00 -19 6 39
2529 843 2 4.0999999999999998e-01 -1.0259576757557033e+01 -8.9677310274419408e+00 -7.2164813857923713e+00 -21 14 48
642 214 2 4.0999999999999998e-01 -1.4020396351453861e+01 -5.2254563908548910e+00 -4.9374451178476875e+00 -25 13 47
2160 720 2 4.0999999999999998e-01 -1.1152173150603581e+01 -9.7807671516252093e-01 -4.2466771004099080e-01 -30 8 43
2427 809 2 4.0999999999999998e-01 -5.3662352969525990e+00 -7.1159706600975907e+00 -1.8860913278700604e+00 -27 13 46
542 181 2 4.0999999999999998e-01 -8.5764950597477743e+00 -7.9165057848126530e-01 -5.0337731753557158e-01 -24 8 37
903 301 2 4.0999999999999998e-01 -5.6800395547643614e+00 -7.2833229658741132e+00 -4.2208911653319383e+00 -13 8 42
1766 589 2 4.0999999999999998e-01 -1.2105957920971193e+01 -4.9554269110895959e+00 -3.0737213085693327e-01 -21 15 44
2014 672 1 -8.1999999999999995e-01 -1.3977997015559600e+01 -9.4864020232680168e-01 -1.6358951639215817e+00 -19 11 43
2016 672 2 4.0999999999999998e-01 -1.3362451343609216e+01 -1.3194360233598221e+00 -9.4040369183329275e-01 -19 11 43
409 137 1 -8.1999999999999995e-01 -1.3787292459344672e+01 -1.4690732334682313e+00 -4.3255550454510949e+00 -23 17 43
535 179 1 -8.1999999999999995e-01 -5.4001014526657620e+00 -5.7778688577491639e+00 -5.2271024376022304e+00 -20 9 50
536 179 2 4.0999999999999998e-01 -5.9410511821268255e+00 -5.3974864033017269e+00 -5.9772870078371803e+00 -20 9 50
1468 490 1 -8.1999999999999995e-01 -1.1397616408600369e+01 -4.0629545917772614e+00 -6.1979036711206597e+00 -23 12 49
1825 609 1 -8.1999999999999995e-01 -6.4257248615390896e+00 -1.1677962799910535e+00 -4.0129557691265880e+00 -26 8 43
2158 720 1 -8.1999999999999995e-01 -1.1818849581384804e+01 -1.6193364663566268e+00 -4.4637624495830863e-02 -30 8 43
1474 492 1 -8.1999999999999995e-01 -1.0871716345596575e+01 -3.8764558379182041e+00 -1.4906389103151447e+00 -30 12 47
2015 672 2 4.0999999999999998e-01 -1.4592782619004867e+01 -2.8136898812643274e-01 -1.2153216805289890e+00 -19 11 43
1469 490 2 4.0999999999999998e-01 -1.2078965313222605e+01 -4.7349995449541264e+00 -5.9077080129022050e+00 -23 12 49
722 241 2 4.0999999999999998e-01 -9.5325018863597144e+00 -6.4429193946967800e+00 -4.5822762381209614e+00 -25 14 44
529 177 1 -8.1999999999999995e-01 -1.3760126084778808e+01 -2.2753153829420505e+00 -7.1097978325557349e+00 -26 10 48
410 137 2 4.0999999999999998e-01 -1.3889275652168989e+01 -1.1568171228329778e+00 -3.3809969652795253e+00 -23 17 43
1298 433 2 4.0999999999999998e-01 -1.4251112977796652e+01 -5.8035191940832274e+00 -2.2997247977231901e+00 -24 11 41
721 241 1 -8.1999999999999995e-01 -9.9015565048490330e+00 -7.2149222753495845e+00 -5.0998712985364563e+00 -25 14 44
2067 689 2 4.0999999999999998e-01 -6.3697259967358288e+00 -4.3967203564184292e+00 -1.5259911008419014e+00 -28 16 49
2001 667 2 4.0999999999999998e-01 -8.0929017800922267e+00 -4.3423438413843751e+00 -4.0643051606699174e+00 -25 14 46
531 177 2 4.0999999999999998e-01 -1.3054996335792584e+01 -2.8908269759228293e+00 -6.7576164548671525e+00 -26 10 48
411 137 2 4.0999999999999998e-01 -1.4025879001558348e+01 -7.2534794710172257e-01 -4.9500897105267505e+00 -23 17 43
1299 433 2 4.0999999999999998e-01 -1.3482651638249120e+01 -7.0497263913148362e+00 -3.0231284691169815e+00 -24 11 41
1827 609 2 4.0999999999999998e-01 -6.7878477512303625e+00 -2.0791727466435201e+00 -3.8171136587160834e+00 -26 8 43
1297 433 1 -8.1999999999999995e-01 -1.4371076619047450e+01 -6.7007583967874780e+00 -2.7247717669854783e+00 -24 11 41
2000 667 2 4.0999999999999998e-01 -8.8800078229285546e+00 -4.1653513740303030e+00 -5.4841699317776467e+00 -25 14 46
641 214 2 4.0999999999999998e-01 -1.3487310828772589e+01 -6.6641159907525349e+00 -5.4968702063401196e+00 -25 13 47
2060 687 2 4.0999999999999998e-01 -1.2180959204858169e+01 -2.1653137077630706e+00 -4.0750330181530501e+00 -28 17 48
1470 490 2 4.0999999999999998e-01 -1.1249085447567703e+01 -3.4004649087797993e+00 -5.4636419576876527e+00 -23 12 49
1826 609 2 4.0999999999999998e-01 -5.8191893701364528e+00 -1.2136105668045971e+00 -4.8067505423015398e+00 -26 8 43
359 120 2 4.0999999999999998e-01 -5.4262771513908739e+00 -7.2121237085888703e+00 -6.2694234022190276e+00 -24 16 46
1999 667 1 -8.1999999999999995e-01 -8.6415315443902507e+00 -4.8097686218724753e+00 -4.7575683507207671e+00 -25 14 46
541 181 1 -8.1999999999999995e-01 -9.2399975424699825e+00 -4.3418364201589732e-01 -1.1607023658277811e+00 -24 8 37
530 177 2 4.0999999999999998e-01 -1.4179447284450742e+01 -1.7790989760686298e+00 -6.3495128096674023e+00 -26 10 48
723 241 2 4.0999999999999998e-01 -9.8452904441118640e+00 -7.0174132265090767e+00 -6.0786045160603717e+00 -25 14 44
1475 492 2 4.0999999999999998e-01 -1.0639293117773068e+01 -3.6335643968359861e+00 -2.4324868603343308e+00 -30 12 47
640 214 1 -8.1999999999999995e-01 -1.3551211285201104e+01 -5.6852662282731394e+00 -5.6914574487184346e+00 -25 13 47
2066 689 2 4.0999999999999998e-01 -5.9159560956310102e+00 -4.7974902498753345e+00 -3.0426830895696710e+00 -28 16 49
2065 689 1 -8.1999999999999995e-01 -6.5775750108720370e+00 -4.2825647723519431e+00 -2.4975165446922496e+00 -28 16 49
2059 687 1 -8.1999999999999995e-01 -1.1197205459601051e+01 -2.3445475888092613e+00 -4.0609546998031885e+00 -28 17 48
2061 687 2 4.0999999999999998e-01 -1.0701553273296522e+01 -1.4786046225070297e+00 -3.9933822798749095e+00 -28 17 48
1476 492 2 4.0999999999999998e-01 -1.0033990795417525e+01 -3.9541042741178529e+00 -9.5000875659835415e-01 -30 12 47
2159 720 2 4.0999999999999998e-01 -1.1595953735067573e+01 -2.5475415520579592e+00 -3.4271002269995421e-01 -30 8 43
54 18 2 4.0999999999999998e-01 -8.4076641808339367e+00 -1.1545189661167575e+01 2.8395599641308742e+00 -31 15 46
1074 358 2 4.0999999999999998e-01 -7.7761207208051291e+00 -9.8803859628148487e+00 1.3845119590140875e+00 -24 11 43
280 94 1 -8.1999999999999995e-01 -1.1301814483150057e+01 -9.5325795319014581e+00 5.4073717538215078e+00 -26 8 42
281 94 2 4.0999999999999998e-01 -1.1497111822520704e+01 -9.6717010260607239e+00 4.4364966432514912e+00 -26 8 42
257 86 2 4.0999999999999998e-01 -1.1867115044157472e+01 -1.2981894200021641e+01 1.3370909956738757e+00 -22 17 46
1313 438 2 4.0999999999999998e-01 -7.8154863488594808e+00 -1.2331267105489299e+01 7.0342673942833329e+00 -26 15 44
1072 358 1 -8.1999999999999995e-01 -7.7588152253988216e+00 -1.0825707521373218e+01 1.0586868084264953e+00 -24 11 43
256 86 1 -8.1999999999999995e-01 -1.0918483258343526e+01 -1.3297835956741057e+01 1.3177805826514231e+00 -22 17 46
1312 438 1 -8.1999999999999995e-01 -7.0646375404063235e+00 -1.2242402398192844e+01 6.3797266966477508e+00 -26 15 44
2318 773 2 4.0999999999999998e-01 -1.2485222155765356e+01 -9.2294593127684834e+00 2.1185221540843884e+00 -20 10 42
2317 773 1 -8.1999999999999995e-01 -1.2665044003788948e+01 -9.9213706434492437e+00 2.8178198244792583e+00 -20 10 42
1073 358 2 4.0999999999999998e-01 -8.2220994134427272e+00 -1.0881960863376623e+01 1.7421098076283670e-01 -24 11 43
2319 773 2 4.0999999999999998e-01 -1.2894648079934843e+01 -1.0789104193412804e+01 2.3768948378206574e+00 -20 10 42
1314 438 2 4.0999999999999998e-01 -7.4319341538424082e+00 -1.2238923613845515e+01 5.4495785941207231e+00 -26 15 44
2167 723 1 -8.1999999999999995e-01 -8.4875774330664449e+00 -7.5631708937573539e+00 2.3023112368951644e+00 -25 12 40
2003 668 2 4.0999999999999998e-01 -1.4448241314822001e+01 -1.2601020810618440e+01 6.9105365344086778e-01 -24 13 45
52 18 1 -8.1999999999999995e-01 -8.3814690570586841e+00 -1.2089054303739852e+01 3.6783802431039625e+00 -31 15 46
479 160 2 4.0999999999999998e-01 -1.0977043919663878e+01 -1.1482791214066085e+01 5.3497333916638432e+00 -21 12 42
2063 688 2 4.0999999999999998e-01 -8.7804421275798887e+00 -1.4267941230291809e+01 1.0151412375565663e+00 -23 17 44
287 96 2 4.0999999999999998e-01 -5.9630124723757643e+00 -1.1807546025957830e+01 1.1328580089764664e+00 -21 12 48
2002 668 1 -8.1999999999999995e-01 -1.3835054308391353e+01 -1.1970892209339775e+01 1.1675343798346134e+00 -24 13 45
1405 469 1 -8.1999999999999995e-01 -1.2183647284115317e+01 -8.3893100365056643e+00 6.0737007305348811e-01 -22 13 50
282 94 2 4.0999999999999998e-01 -1.0878386365282497e+01 -8.6359274382504463e+00 5.5370556437374461e+00 -26 8 42
478 160 1 -8.1999999999999995e-01 -1.0508740429030901e+01 -1.2329764500784838e+01 5.6015715901296872e+00 -21 12 42
662 221 2 4.0999999999999998e-01 -1.3698284960260406e+01 -8.2702338955344210e+00 5.4599983272707497e+00 -20 10 45
53 18 2 4.0999999999999998e-01 -8.6343508896030272e+00 -1.3034100406732685e+01 3.4709363432862688e+00 -31 15 46
661 221 1 -8.1999999999999995e-01 -1.4365708775853737e+01 -8.1034966051655317e+00 4.7341621353073933e+00 -20 10 45
1406 469 2 4.0999999999999998e-01 -1.2618714216506817e+01 -7.5165770211780156e+00 3.8567610715073641e-01 -22 13 50
2004 668 2 4.0999999999999998e-01 -1.3292938073833449e+01 -1.1463101465551194e+01 4.9794284268484290e-01 -24 13 45
2180 727 2 4.0999999999999998e-01 -6.0031718672400860e+00 -1.3959896230255834e+01 3.8666428064218330e+00 -21 11 45
983 328 2 4.0999999999999998e-01 -1.1989404827450020e+01 -9.6823170329568242e+00 7.2220761415960020e+00 -26 16 48
480 160 2 4.0999999999999998e-01 -9.7022726663285255e+00 -1.2449613558991658e+01 5.0224858111546737e+00 -21 12 42
663 221 2 4.0999999999999998e-01 -1.4323861109275319e+01 -8.8462254882804796e+00 4.0658082395576116e+00 -20 10 45
1407 469 2 4.0999999999999998e-01 -1.1251051727335438e+01 -8.3980449017789542e+00 2.4642197289369250e-01 -22 13 50
2442 814 2 4.0999999999999998e-01 -1.0372243240832113e+01 -1.4427018807524707e+01 3.5320485922945970e+00 -20 12 47
437 146 2 4.0999999999999998e-01 -5.1129297271885736e+00 -1.4714664816479111e+01 7.1881635800174735e+00 -26 21 44
2496 832 2 4.0999999999999998e-01 -1.4171710728840486e+01 -1.4311006300675414e+01 4.2183847641660144e+00 -21 15 41
2127 709 2 4.0999999999999998e-01 -9.1212490433323055e+00 -8.0426671007494015e+00 3.8347704281454753e-01 -26 11 54
2179 727 1 -8.1999999999999995e-01 -5.0073404288414096e+00 -1.3989298218554362e+01 3.7797540095934465e+00 -21 11 45
932 311 2 4.0999999999999998e-01 -5.3487293439321455e+00 -1.1953614981560108e+01 6.2357186164583922e+00 -23 11 49
2440 814 1 -8.1999999999999995e-01 -9.4052705287090586e+00 -1.4649617732728480e+01 3.6565792976124598e+00 -20 12 47
2495 832 2 4.0999999999999998e-01 -1.4126729295074735e+01 -1.4414152913842036e+01 2.5892084358979837e+00 -21 15 41
258 86 2 4.0999999999999998e-01 -1.0482161426112787e+01 -1.2991133826141205e+01 4.7181881616719679e-01 -22 17 46
438 146 2 4.0999999999999998e-01 -6.7298159442519161e+00 -1.4574643516673223e+01 7.3696877023957619e+00 -26 21 44
1205 402 2 4.0999999999999998e-01 -8.2516235921034813e+00 -1.4659804009909497e+01 4.8511611105173635e+00 -20 15 41
2494 832 1 -8.1999999999999995e-01 -1.3618689163527492e+01 -1.4588573821880679e+01 3.4327526820910208e+00 -21 15 41
286 96 1 -8.1999999999999995e-01 -5.0365718996193394e+00 -1.1637879157830817e+01 1.4690355434269051e+00 -21 12 48