LAMMPS data file via write_data, version 15 May 2015, timestep = 1009000

2593 atoms
6 atom types
1728 bonds
4 bond types
864 angles
3 angle types
0 dihedrals
3 dihedral types
0 impropers
1 improper types

-1.4896914901711877e+01 1.4896914901711877e+01 xlo xhi
-1.4896914901711877e+01 1.4896914901711877e+01 ylo yhi
-1.4896914901711877e+01 1.4896914901711877e+01 zlo zhi

Masses

1 15.9994
2 1.00794
3 12.0107
4 1.00794
5 12.0107
6 12.0107

Bond Coeffs # harmonic

1 1000 1
2 469 1.4
3 367 1.08
4 469 0.7

Angle Coeffs # harmonic

1 100 109.47
2 35 120
3 63 120

Dihedral Coeffs # opls

1 0 7.25 0 0
2 0 7.25 0 0
3 0 7.25 0 0

Improper Coeffs # cvff

1 2.5 -1 2

Atoms # full

162 54 2 4.0999999999999998e-01 -1.1843504613234309e+01 -1.2763643182022321e+01 -1.3066159458088665e+01 2 0 3
1275 425 2 4.0999999999999998e-01 -9.3332516429110477e+00 -1.0139635082195078e+01 -8.5234253571811749e+00 3 0 4
160 54 1 -8.1999999999999995e-01 -1.1450997230075915e+01 -1.3198719291065235e+01 -1.2255875189381461e+01 2 0 3
2197 733 1 -8.1999999999999995e-01 -9.6800253068927145e+00 -1.4869982018270772e+01 -1.3096223819002182e+01 2 1 7
1508 503 2 4.0999999999999998e-01 -1.4566409498946792e+01 -1.2709142884207711e+01 -1.1122013236547115e+01 1 0 3
1507 503 1 -8.1999999999999995e-01 -1.3790618261810238e+01 -1.3166990529165927e+01 -1.0687919497154420e+01 1 0 3
712 238 1 -8.1999999999999995e-01 -1.4629157918665957e+01 -7.6297044405346224e+00 -8.8710874522312366e+00 1 2 2
1446 482 2 4.0999999999999998e-01 -1.3033922766091797e+01 -9.8059717871425498e+00 -1.3291919796632174e+01 2 0 4
841 281 1 -8.1999999999999995e-01 -1.0193537865328864e+01 -1.2403543397584944e+01 -9.9632976631354602e+00 1 -1 5
713 238 2 4.0999999999999998e-01 -1.4395933050956970e+01 -7.3206275478697318e+00 -9.7930372420213114e+00 1 2 2
2199 733 2 4.0999999999999998e-01 -1.0260203299942241e+01 -1.4137780598588616e+01 -1.2739589037551170e+01 2 1 7
714 238 2 4.0999999999999998e-01 -1.4014485993220347e+01 -7.1996455516708089e+00 -8.2099206100987523e+00 1 2 2
1688 563 2 4.0999999999999998e-01 -1.1768514273672796e+01 -1.0788942779016388e+01 -9.7636743690282710e+00 3 -1 5
1687 563 1 -8.1999999999999995e-01 -1.2719255374354407e+01 -1.0993012960710713e+01 -9.5305208607589300e+00 3 -1 5
1689 563 2 4.0999999999999998e-01 -1.2974956317883724e+01 -1.1878379103394984e+01 -9.9186672170051011e+00 3 -1 5
698 233 2 4.0999999999999998e-01 -9.7211142736666254e+00 -7.2020235223080293e+00 -9.5886525915317335e+00 0 1 4
161 54 2 4.0999999999999998e-01 -1.2133068083097463e+01 -1.3218769231846061e+01 -1.1524922909939853e+01 2 0 3
842 281 2 4.0999999999999998e-01 -1.0456001033458055e+01 -1.2702361769150670e+01 -1.0880758531633756e+01 1 -1 5
699 233 2 4.0999999999999998e-01 -9.6547750947651725e+00 -6.6899098094490981e+00 -1.1137760554021670e+01 0 1 4
2198 733 2 4.0999999999999998e-01 -9.6120651358567759e+00 -1.4787069844798285e+01 -1.4090417339377959e+01 2 1 7
1509 503 2 4.0999999999999998e-01 -1.4073645926274722e+01 -1.4071095091148379e+01 -1.0367913103036722e+01 1 0 3
1273 425 1 -8.1999999999999995e-01 -8.7075860900939510e+00 -9.4081317213280293e+00 -8.7942746032592645e+00 3 0 4
908 303 2 4.0999999999999998e-01 -7.9072067324067508e+00 -1.1924155005691043e+01 -1.2505359541394553e+01 2 -1 4
1274 425 2 4.0999999999999998e-01 -8.9480421214009702e+00 -9.0858440341251878e+00 -9.7098211038116702e+00 3 0 4
1147 383 1 -8.1999999999999995e-01 -1.2999675773994531e+01 -7.1879996085770852e+00 -1.4724466042670167e+01 2 1 5
1565 522 2 4.0999999999999998e-01 -1.2876215074411231e+01 -6.1422330337302657e+00 -1.1039458451985737e+01 2 2 6
532 178 1 -8.1999999999999995e-01 -9.4301967444815027e+00 -5.2737585523012402e+00 -1.2493562088088193e+01 1 -1 3
697 233 1 -8.1999999999999995e-01 -9.8504317818338532e+00 -7.4698550874731264e+00 -1.0543355224656658e+01 0 1 4
1336 446 1 -8.1999999999999995e-01 -6.1346760319375804e-02 -9.6604660215643818e+00 -1.4565990397178703e+01 1 1 1
1444 482 1 -8.1999999999999995e-01 -1.3625972418631392e+01 -9.2713167852137701e+00 -1.2688981090367045e+01 2 0 4
1564 522 1 -8.1999999999999995e-01 -1.2520261129893310e+01 -7.0668543434471038e+00 -1.1174684551255952e+01 2 2 6
1445 482 2 4.0999999999999998e-01 -1.3064739526089449e+01 -8.6837913734232046e+00 -1.2106104377200184e+01 2 0 4
2495 832 2 4.0999999999999998e-01 -1.3977674423195374e+01 -1.0662652372316405e+01 -8.4386970635810918e+00 2 0 2
2409 803 2 4.0999999999999998e-01 -9.6454318146112747e+00 -1.4027574822421768e+01 -8.9618058201037591e+00 3 0 5
4 2 1 -8.1999999999999995e-01 -7.4043005734528924e+00 -5.2090496450601016e+00 -7.6471295838502620e+00 1 2 3
964 322 1 -8.1999999999999995e-01 -5.5882936392122975e+00 -1.3220785645919360e+01 -1.1751341380027009e+01 0 0 4
1566 522 2 4.0999999999999998e-01 -1.1534218285586732e+01 -7.0242118681273205e+00 -1.1335355032694748e+01 2 2 6
843 281 2 4.0999999999999998e-01 -9.2848428908091556e+00 -1.1987431045168181e+01 -9.9955131436262601e+00 1 -1 5
2408 803 2 4.0999999999999998e-01 -8.5423821684737860e+00 -1.4049989664396739e+01 -7.7579886222269510e+00 3 0 5
2496 832 2 4.0999999999999998e-01 -1.4724156260703918e+01 -9.3317163209815952e+00 -7.8575166482432239e+00 2 0 2
558 186 2 4.0999999999999998e-01 -7.9917154358089837e+00 -6.2790059570744763e+00 -1.2727469724241718e+01 0 0 6
1717 573 1 -8.1999999999999995e-01 -3.3536690585558357e+00 -5.3571968902470459e+00 -9.9156706149689242e+00 1 2 5
2149 717 1 -8.1999999999999995e-01 -9.7057172358792609e+00 -6.3417034777819001e+00 -7.8571400762343711e+00 2 -1 7
907 303 1 -8.1999999999999995e-01 -7.7201028420941658e+00 -1.1276102217908976e+01 -1.3243555592390090e+01 2 -1 4
909 303 2 4.0999999999999998e-01 -7.1200646344105483e+00 -1.0550795064562969e+01 -1.2906216795787257e+01 2 -1 4
1718 573 2 4.0999999999999998e-01 -2.3625042803350045e+00 -5.2779560414744768e+00 -9.8097124158975788e+00 1 2 5
1337 446 2 4.0999999999999998e-01 -2.0652060891668889e-01 -9.3809042289969788e+00 -1.3616946869264559e+01 1 1 1
2407 803 1 -8.1999999999999995e-01 -9.3772178495608003e+00 -1.4474448978746787e+01 -8.1084133896459463e+00 3 0 5
533 178 2 4.0999999999999998e-01 -1.0172956646640838e+01 -5.2742890723424658e+00 -1.3163055421047073e+01 1 -1 3
2494 832 1 -8.1999999999999995e-01 -1.4553811160123599e+01 -1.0304994348640246e+01 -7.7038086928977014e+00 2 0 2
1148 383 2 4.0999999999999998e-01 -1.3026437604485293e+01 -8.0309317351756153e+00 -1.4187192342621035e+01 2 1 5
2333 778 2 4.0999999999999998e-01 -4.2501896568737507e-01 -7.1972881756193576e+00 -1.0845233791100368e+01 2 0 3
966 322 2 4.0999999999999998e-01 -5.4599579573803965e+00 -1.3173334910355770e+01 -1.2741892807578688e+01 0 0 4
2352 784 2 4.0999999999999998e-01 -1.3540627511779622e+01 -5.0986805103827813e+00 -9.0932449034548064e+00 3 0 5
1549 517 1 -8.1999999999999995e-01 -5.0121010052637942e+00 -1.3468990875005106e+01 -1.4386518983438272e+01 1 -1 4
1570 524 1 -8.1999999999999995e-01 -3.7545588028378010e+00 -1.4477128937845597e+01 -1.0187754085585931e+01 4 1 5
1551 517 2 4.0999999999999998e-01 -4.1329967570376684e+00 -1.3426521426183612e+01 -1.3911876072805924e+01 1 -1 4
965 322 2 4.0999999999999998e-01 -4.8742474807987097e+00 -1.3794236266232817e+01 -1.1349836307089269e+01 0 0 4
1246 416 1 -8.1999999999999995e-01 -6.5575049408703379e-01 -1.3461171901557368e+01 -1.1400393235008103e+01 1 1 2
42 14 2 4.0999999999999998e-01 -1.1993566089733735e+01 -5.7565918108622451e+00 -1.4526199858662455e+01 2 2 5
1863 621 2 4.0999999999999998e-01 -1.8434999481198293e+00 -1.3017261962069846e+01 -1.2984455949527341e+01 2 -1 4
805 269 1 -8.1999999999999995e-01 -1.2900613851529972e+00 -1.2570693453293764e+01 -7.6227254264460989e+00 1 3 3
1830 610 2 4.0999999999999998e-01 -1.3844905504656188e+01 -5.4631897430697176e+00 -1.4377876201645330e+01 1 -1 6
557 186 2 4.0999999999999998e-01 -6.5408658714230832e+00 -5.8433620106119495e+00 -1.3337097992059586e+01 0 0 6
1699 567 1 -8.1999999999999995e-01 -7.4174865470391351e+00 -1.1965548168415637e+01 -1.0152523742154031e+01 4 0 5
1701 567 2 4.0999999999999998e-01 -6.6287548102900136e+00 -1.2235609805206170e+01 -1.0704685690493179e+01 4 0 5
1104 368 2 4.0999999999999998e-01 -1.2167271380296224e+01 -1.0600846549096095e+01 -7.6637803821210193e+00 2 0 3
313 105 1 -8.1999999999999995e-01 -1.3616102661579408e+00 -5.9924532226655547e+00 -1.4617065634467650e+01 2 0 3
509 170 2 4.0999999999999998e-01 -4.9642705215637122e+00 -1.2282881488916571e+01 -7.5630830862226022e+00 0 0 4
104 35 2 4.0999999999999998e-01 -1.9461370775218256e-02 -6.1614557322257806e+00 -8.4874059244924478e+00 2 0 4
2424 808 2 4.0999999999999998e-01 -3.7706693965117637e+00 -9.5813727351534155e+00 -1.0538121028002156e+01 4 0 4
873 291 2 4.0999999999999998e-01 -3.0531288809074972e+00 -1.0483249009482684e+01 -1.2732715960168173e+01 0 1 3
1448 483 2 4.0999999999999998e-01 -6.9525772891463165e+00 -8.8864798952380646e+00 -8.6057304947460107e+00 2 0 1
1165 389 1 -8.1999999999999995e-01 -6.1157620024900190e+00 -5.8116295368354010e+00 -1.0151450624197178e+01 1 0 4
1719 573 2 4.0999999999999998e-01 -3.7224692738780742e+00 -5.9294620344334827e+00 -9.1832685062270407e+00 1 2 5
6 2 2 4.0999999999999998e-01 -6.9382002151966784e+00 -5.4094751511745471e+00 -8.5088104243823359e+00 1 2 3
1572 524 2 4.0999999999999998e-01 -3.0767715238109901e+00 -1.3985613426914226e+01 -9.6410086781502571e+00 4 1 5
1447 483 1 -8.1999999999999995e-01 -6.0904030540098120e+00 -8.3954811240814902e+00 -8.7301879452481987e+00 2 0 1
1167 389 2 4.0999999999999998e-01 -5.1294541899853083e+00 -5.7152779301651240e+00 -1.0284968817058074e+01 1 0 4
1166 389 2 4.0999999999999998e-01 -6.5507828974622839e+00 -6.0285072029623166e+00 -1.1025312550402326e+01 1 0 4
1064 355 2 4.0999999999999998e-01 -6.1521443216807725e+00 -8.9462164248081528e+00 -1.4056030432685803e+01 1 0 3
2423 808 2 4.0999999999999998e-01 -4.4822722316477837e+00 -8.8534307679317870e+00 -9.2613600026836913e+00 4 0 4
2273 758 2 4.0999999999999998e-01 -1.9099297884263287e+00 -8.5590476734710457e+00 -1.2174288985594936e+01 2 0 3
556 186 1 -8.1999999999999995e-01 -7.0034109465821750e+00 -6.4153049796832029e+00 -1.2659715414475912e+01 0 0 6
871 291 1 -8.1999999999999995e-01 -3.3997039391650627e+00 -9.7191956675691369e+00 -1.2188636834634014e+01 0 1 3
510 170 2 4.0999999999999998e-01 -4.1762824091630542e+00 -1.1321202164005866e+01 -8.6216880366546711e+00 0 0 4
2422 808 1 -8.1999999999999995e-01 -3.7880311628431365e+00 -9.5168154242334886e+00 -9.5404012339213402e+00 4 0 4
2272 758 1 -8.1999999999999995e-01 -1.1915624163401972e+00 -7.8905218820536440e+00 -1.2366475010955076e+01 2 0 3
1449 483 2 4.0999999999999998e-01 -6.2804988798293166e+00 -7.4485652415190851e+00 -8.9892782168832568e+00 2 0 1
806 269 2 4.0999999999999998e-01 -2.2252016291779295e+00 -1.2260971101328487e+01 -7.7944771054230646e+00 1 3 3
807 269 2 4.0999999999999998e-01 -6.5735761963954253e-01 -1.1806823637617869e+01 -7.7496218749697849e+00 1 3 3
1862 621 2 4.0999999999999998e-01 -2.3664397324443822e+00 -1.2637760533358998e+01 -1.4484092386568383e+01 2 -1 4
1700 567 2 4.0999999999999998e-01 -7.1182082065345176e+00 -1.1352937771099114e+01 -9.4210493354985019e+00 4 0 5
508 170 1 -8.1999999999999995e-01 -4.0849016120443338e+00 -1.2101692391250578e+01 -8.0033043111707336e+00 0 0 4
1065 355 2 4.0999999999999998e-01 -6.5020682502423011e+00 -8.1196839657499282e+00 -1.2691921149904061e+01 1 0 3
872 291 2 4.0999999999999998e-01 -4.2027592541258016e+00 -9.3275206883664321e+00 -1.2637643219081966e+01 0 1 3
2274 758 2 4.0999999999999998e-01 -1.6063335871138040e+00 -7.0001155022823180e+00 -1.2553705055786235e+01 2 0 3
1063 355 1 -8.1999999999999995e-01 -6.1638947754620741e+00 -8.9870291320104734e+00 -1.3056975814969299e+01 1 0 3
1861 621 1 -8.1999999999999995e-01 -2.6126915270820348e+00 -1.2661530382601837e+01 -1.3515222526298899e+01 2 -1 4
1547 516 2 4.0999999999999998e-01 -2.2721729413073444e+00 -9.4331975966213566e+00 -8.4527524825814702e+00 3 0 3
1548 516 2 4.0999999999999998e-01 -6.7373219675145180e-01 -9.7622457809012921e+00 -8.3969774486670659e+00 3 0 3
1546 516 1 -8.1999999999999995e-01 -1.4558339887436738e+00 -9.4214222014727511e+00 -7.8753742477752997e+00 3 0 3
1248 416 2 4.0999999999999998e-01 -3.5939473043016257e-01 -1.3020010430155933e+01 -1.0553360958051611e+01 1 1 2
412 138 1 -8.1999999999999995e-01 -4.2012165989577248e+00 -6.5332846140142298e+00 -7.5447565100534124e+00 1 3 3
2580 860 2 4.0999999999999998e-01 -4.1448765439629653e-01 -1.4054872116728042e+01 -7.6418637602186434e+00 1 1 4
2150 717 2 4.0999999999999998e-01 -1.0028994778633145e+01 -5.4665294335255030e+00 -8.2169676082739969e+00 2 -1 7
414 138 2 4.0999999999999998e-01 -3.8809940753618068e+00 -7.4778958342045652e+00 -7.4734755340982018e+00 1 3 3
233 78 2 4.0999999999999998e-01 -6.9380452763139129e+00 -1.4479773881938614e+01 -1.1560442721625924e+01 2 1 1
5 2 2 4.0999999999999998e-01 -8.2544683658937963e+00 -5.7332101473222572e+00 -7.5982992767285875e+00 1 2 3
2040 680 2 4.0999999999999998e-01 -6.2055411615046125e+00 -1.4111283597632546e+01 -7.5519983734444240e+00 3 0 2
2514 838 2 4.0999999999999998e-01 -1.0365563016781962e+00 -9.5683346039286512e+00 -3.0803360327126867e+00 2 0 3
2339 780 2 4.0999999999999998e-01 -7.9415099572872627e+00 -5.5832766950326693e+00 -1.9856929599166637e+00 3 2 2
1469 490 2 4.0999999999999998e-01 -9.8244546344345576e+00 -7.4714510866020110e+00 -1.3905201522576398e+00 3 1 3
1470 490 2 4.0999999999999998e-01 -8.3680294387433065e+00 -8.0910685475793667e+00 -9.8890335945294794e-01 3 1 3
1468 490 1 -8.1999999999999995e-01 -9.3455946477275091e+00 -8.1009692648409040e+00 -7.7870833996826150e-01 3 1 3
1977 659 2 4.0999999999999998e-01 -1.0427320859785478e+01 -1.4864183949421816e+01 -6.6021056342295097e+00 1 2 4
1103 368 2 4.0999999999999998e-01 -1.1692662209171388e+01 -1.0702582675991330e+01 -6.1046805383501521e+00 2 0 3
801 267 2 4.0999999999999998e-01 -1.3089112809209333e+01 -7.4148005507147232e+00 -5.8277899033242395e+00 1 0 2
413 138 2 4.0999999999999998e-01 -4.6093719060148182e+00 -6.2532574372234837e+00 -6.6759021747978551e+00 1 3 3
1304 435 2 4.0999999999999998e-01 -1.1288130906240253e+01 -5.9788269762973520e+00 -2.1738776868037526e+00 2 -1 0
1303 435 1 -8.1999999999999995e-01 -1.1190035849886808e+01 -6.8697896671818590e+00 -2.6171345440914813e+00 2 -1 0
112 38 1 -8.1999999999999995e-01 -9.9640197546666318e+00 -1.1296453952398808e+01 -3.3041681195640837e+00 1 1 4
1305 435 2 4.0999999999999998e-01 -1.0844153250471372e+01 -6.7432703134602114e+00 -3.5467967691970568e+00 2 -1 0
1901 634 2 4.0999999999999998e-01 -1.2945119126674818e+01 -1.2117838611508361e+01 -4.6588334166551455e+00 3 1 3
1362 454 2 4.0999999999999998e-01 -1.2156191558198513e+01 -8.3398743855048281e+00 -2.2882281172676748e+00 1 0 3
113 38 2 4.0999999999999998e-01 -1.0702038105846304e+01 -1.1094099462669430e+01 -3.9478259810386280e+00 1 1 4
1361 454 2 4.0999999999999998e-01 -1.3356505534033849e+01 -9.4410615205865671e+00 -2.1740799095233196e+00 1 0 3
1205 402 2 4.0999999999999998e-01 -8.6541187998259197e+00 -9.3836138192716447e+00 -4.5692839756500288e+00 2 0 3
929 310 2 4.0999999999999998e-01 -9.8406602166038670e+00 -1.3411966544002704e+01 -2.9590103050569709e+00 4 -1 5
1360 454 1 -8.1999999999999995e-01 -1.2540932645710081e+01 -9.0730774492609996e+00 -1.7276022032805773e+00 1 0 3
114 38 2 4.0999999999999998e-01 -1.0298152981961646e+01 -1.1185201052422668e+01 -2.3682772841982498e+00 1 1 4
770 257 2 4.0999999999999998e-01 -8.4132098115351273e+00 -7.2469727907463559e+00 -3.9934752870186312e+00 3 0 2
1902 634 2 4.0999999999999998e-01 -1.3559450219942555e+01 -1.0638980893312176e+01 -4.3394998154227817e+00 3 1 3
769 257 1 -8.1999999999999995e-01 -7.9798507051542167e+00 -6.5550779641756787e+00 -3.4160713705498740e+00 3 0 2
1455 485 2 4.0999999999999998e-01 -1.2770968296931656e+01 -5.9691294196167721e+00 -7.0694558857661907e+00 2 0 4
772 258 1 -8.1999999999999995e-01 -1.0951050421560227e+01 -1.1245751901096559e+01 -6.7371210202969500e-01 2 2 5
423 141 2 4.0999999999999998e-01 -1.3561314725646493e+01 -5.3479313625939060e+00 -4.0554356326340901e-01 0 0 4
1102 368 1 -8.1999999999999995e-01 -1.1526145493452955e+01 -1.0250614338080190e+01 -6.9809855669689265e+00 2 0 3
774 258 2 4.0999999999999998e-01 -1.1433488971428051e+01 -1.0414664370538315e+01 -9.5022692980606926e-01 2 2 5
800 267 2 4.0999999999999998e-01 -1.2135167381714743e+01 -8.4756642985450839e+00 -6.6221154427929285e+00 1 0 2
928 310 1 -8.1999999999999995e-01 -1.0154923674654981e+01 -1.4359735678095719e+01 -2.9052886680723500e+00 4 -1 5
1204 402 1 -8.1999999999999995e-01 -8.9680512836323096e+00 -8.5809418069760284e+00 -5.0763124307582821e+00 2 0 3
799 267 1 -8.1999999999999995e-01 -1.2363273398698469e+01 -7.5086470398306409e+00 -6.5091590210408885e+00 1 0 2
2267 756 2 4.0999999999999998e-01 -9.1643007213637926e+00 -1.1373813169823690e+01 -2.9506033109494822e-01 2 -1 4
1060 354 1 -8.1999999999999995e-01 -4.9605117860200920e-01 -7.0661827785034390e+00 -9.7609146994019014e-01 1 1 2
1224 408 2 4.0999999999999998e-01 -8.8841333528890143e+00 -1.1848071012886166e+01 -4.6030849168190926e+00 4 0 4
1453 485 1 -8.1999999999999995e-01 -1.3292890626055089e+01 -5.1279046283541359e+00 -7.2103521937028896e+00 2 0 4
2205 735 2 4.0999999999999998e-01 -1.2819759373236050e+01 -7.8477772759525362e+00 -4.5155058159388162e-01 3 0 3
1900 634 1 -8.1999999999999995e-01 -1.2745503968337944e+01 -1.1138266216417705e+01 -4.6363491520638469e+00 3 1 3
2353 785 1 -8.1999999999999995e-01 -2.7244769379379008e-01 -1.4072189815480478e+01 -2.8286292946352614e+00 3 0 2
1990 664 1 -8.1999999999999995e-01 -1.4708805750527789e+01 -1.0155057570849612e+01 -2.9656724267323806e+00 3 -1 4
930 310 2 4.0999999999999998e-01 -1.0189158903794219e+01 -1.4752132745150956e+01 -3.8244004020440698e+00 4 -1 5
1975 659 1 -8.1999999999999995e-01 -1.0523647481324037e+01 -1.4868582371562461e+01 -5.6068088422915174e+00 1 2 4
1206 402 2 4.0999999999999998e-01 -8.8093928443297642e+00 -8.7210091946633259e+00 -6.0536161031234546e+00 2 0 3
2549 850 2 4.0999999999999998e-01 -6.7149535757005019e-01 -5.5179687810276459e+00 -2.0156308835507684e+00 0 0 3
2268 756 2 4.0999999999999998e-01 -7.8683684964337868e+00 -1.0382295306656829e+01 -3.5709903093839301e-01 2 -1 4
1903 635 1 -8.1999999999999995e-01 -1.4686173086860604e+01 -7.1536920100397650e+00 -4.9488005731717966e+00 3 0 3
1082 361 2 4.0999999999999998e-01 -6.5615197485010288e+00 -8.9881203391801918e+00 -5.2548662141525568e+00 1 -1 5
1222 408 1 -8.1999999999999995e-01 -7.9813551823891071e+00 -1.2181946391040444e+01 -4.8740694984724726e+00 4 0 4
1223 408 2 4.0999999999999998e-01 -7.4648554447552931e+00 -1.1438638917170932e+01 -5.2990822312993160e+00 4 0 4
164 55 2 4.0999999999999998e-01 -7.3252828806093992e+00 -1.2828231807571179e+01 -6.4227141639019436e-02 1 -3 4
1062 354 2 4.0999999999999998e-01 -1.3338125487750894e+00 -7.5943478950805376e+00 -1.1143350541545729e+00 1 1 2
2512 838 1 -8.1999999999999995e-01 -3.8301772579742988e-01 -9.6240713136419345e+00 -2.3255549181872492e+00 2 0 3
1904 635 2 4.0999999999999998e-01 -1.4733643766870673e+01 -6.4276318940893642e+00 -4.2628726628578910e+00 3 0 3
640 214 1 -8.1999999999999995e-01 -1.0624903609277858e+00 -1.3593719600538746e+01 -3.4734612956849453e-01 2 1 3
584 195 2 4.0999999999999998e-01 -1.3329709695268976e+01 -1.4560526966504497e+01 -4.6630830056406882e+00 2 -1 4
641 214 2 4.0999999999999998e-01 -6.7108103043838163e-01 -1.3543218558417957e+01 -1.2661291598357369e+00 2 1 3
771 257 2 4.0999999999999998e-01 -7.4564000979559868e+00 -5.9237629086027397e+00 -3.9882205066589247e+00 3 0 2
1679 560 2 4.0999999999999998e-01 -5.4234566759366345e+00 -1.3232558420230324e+01 -3.2092535998888874e+00 2 2 4
1933 645 1 -8.1999999999999995e-01 -4.1151221219528864e+00 -5.4459772535490210e+00 -3.5296366962253511e+00 3 -1 6
1934 645 2 4.0999999999999998e-01 -4.9868411487632063e+00 -5.2654693293108874e+00 -3.9850888361310819e+00 3 -1 6
585 195 2 4.0999999999999998e-01 -1.4531852271584615e+01 -1.3675808554426538e+01 -4.0008720201990542e+00 2 -1 4
1673 558 2 4.0999999999999998e-01 -1.9320556556306610e+00 -1.0477571756982123e+01 -1.4493409942717648e+00 1 -1 4
452 151 2 4.0999999999999998e-01 -3.2108523886876306e-01 -1.1624820744681724e+01 -4.8502917122659213e+00 1 -2 3
2355 785 2 4.0999999999999998e-01 -9.8937312374759223e-01 -1.4755085295035984e+01 -2.6886809893778043e+00 3 0 2
1925 642 2 4.0999999999999998e-01 -3.7993898874718113e+00 -1.3328179995622145e+01 -6.5854023259903673e+00 0 3 4
1672 558 1 -8.1999999999999995e-01 -2.1400365995787460e+00 -1.0817748190711512e+01 -5.3231440260993068e-01 1 -1 4
1142 381 2 4.0999999999999998e-01 -4.2555155268383995e+00 -1.1043211532590206e+01 -4.0624029289213723e+00 1 -2 3
451 151 1 -8.1999999999999995e-01 -2.5309129061195357e-01 -1.2591329350960912e+01 -5.0975806457829282e+00 1 -2 3
2354 785 2 4.0999999999999998e-01 -3.6362653920497401e-01 -1.3675610523808530e+01 -3.7420432936761987e+00 3 0 2
198 66 2 4.0999999999999998e-01 -3.9091197273890419e+00 -1.2228741607613829e+01 -1.3204016266563787e+00 1 0 3
2338 780 1 -8.1999999999999995e-01 -7.8885192400765920e+00 -5.1364386370969886e+00 -1.0926971488541941e+00 3 2 2
1181 394 2 4.0999999999999998e-01 -1.3695557436323114e+00 -9.5606038119132002e+00 -6.0723529848615758e+00 2 1 3
2080 694 1 -8.1999999999999995e-01 -2.6739848048336228e+00 -7.7431276942786607e+00 -3.1830692193997550e+00 1 1 4
2186 729 2 4.0999999999999998e-01 -6.3153499435739793e+00 -8.2579808990272401e+00 -2.7816748818178798e+00 2 0 4
1674 558 2 4.0999999999999998e-01 -1.5379184731513380e+00 -1.1586672322141064e+01 -3.1755099434476008e-01 1 -1 4
1081 361 1 -8.1999999999999995e-01 -6.6307879534863599e+00 -9.7423276811889234e+00 -5.9077728455407961e+00 1 -1 5
1678 560 1 -8.1999999999999995e-01 -5.6859345664440983e+00 -1.3502959890597058e+01 -4.1354837065793237e+00 2 2 4
1180 394 1 -8.1999999999999995e-01 -1.4905883680007044e+00 -9.8121512733934662e+00 -5.1121504786097720e+00 2 1 3
1083 361 2 4.0999999999999998e-01 -6.1779173583341560e+00 -9.4864964624791597e+00 -6.7618059122009004e+00 1 -1 5
197 66 2 4.0999999999999998e-01 -5.3639242620221719e+00 -1.2628886054313700e+01 -6.9604205974795086e-01 1 0 3
196 66 1 -8.1999999999999995e-01 -4.8390583242042613e+00 -1.2523106325394862e+01 -1.5405775629299043e+00 1 0 3
453 151 2 4.0999999999999998e-01 -5.7063026272220796e-01 -1.2718074399409231e+01 -6.0372712852780541e+00 1 -2 3
1724 575 2 4.0999999999999998e-01 -6.6110857304552670e+00 -5.1391801875942456e+00 -6.0228038882133479e+00 2 -2 5
1924 642 1 -8.1999999999999995e-01 -3.6912011945254530e+00 -1.3950545979318932e+01 -5.8102445029731609e+00 0 3 4
2082 694 2 4.0999999999999998e-01 -2.6830782736738144e+00 -8.5032715079570487e+00 -3.8326941103760230e+00 1 1 4
1182 394 2 4.0999999999999998e-01 -2.4389396304720172e+00 -1.0088710922163560e+01 -4.9570423749104879e+00 2 1 3
2187 729 2 4.0999999999999998e-01 -4.8349485208385072e+00 -7.6802998830962919e+00 -3.1572984883494932e+00 2 0 4
2081 694 2 4.0999999999999998e-01 -3.0871717961239504e+00 -6.9373096433962180e+00 -3.6071536495693071e+00 1 1 4
1926 642 2 4.0999999999999998e-01 -4.3619221258657177e+00 -1.3723338816448210e+01 -5.1042528539554493e+00 0 3 4
2185 729 1 -8.1999999999999995e-01 -5.6335972957355516e+00 -8.1693931378842333e+00 -3.5078149703231052e+00 2 0 4
1141 381 1 -8.1999999999999995e-01 -4.0223376860359181e+00 -1.0165565865488745e+01 -4.4810674896359011e+00 1 -2 3
1143 381 2 4.0999999999999998e-01 -4.6026588707480567e+00 -9.4479829791043297e+00 -4.0960791763228084e+00 1 -2 3
2039 680 2 4.0999999999999998e-01 -6.9309835888240476e+00 -1.3187582125449490e+01 -6.4175797430870443e+00 3 0 2
1680 560 2 4.0999999999999998e-01 -6.5230466525491266e+00 -1.3023205046602419e+01 -4.3981479805208519e+00 2 2 4
583 195 1 -8.1999999999999995e-01 -1.3742726656255678e+01 -1.3651145697056332e+01 -4.6145383576665200e+00 2 -1 4
163 55 1 -8.1999999999999995e-01 -6.8129497886601751e+00 -1.3683716501205234e+01 -1.3889061092818800e-01 1 -3 4
1309 437 1 -8.1999999999999995e-01 -6.4149642326888827e+00 -8.8721646881040979e+00 -9.8826700678534429e-01 3 -1 5
1310 437 2 4.0999999999999998e-01 -5.6113222289514582e+00 -9.4665188246533241e+00 -1.0168422855900960e+00 3 -1 5
1311 437 2 4.0999999999999998e-01 -6.5089482866741015e+00 -8.4825372545897828e+00 -7.2149456141318069e-02 3 -1 5
2038 680 1 -8.1999999999999995e-01 -6.3745399213471536e+00 -1.3173670349274911e+01 -7.2482966894384626e+00 3 0 2
1154 385 2 4.0999999999999998e-01 -9.5843406361014516e-01 -4.9787149992491084e+00 -6.1045045783726497e+00 1 1 3
2266 756 1 -8.1999999999999995e-01 -8.2006134983382193e+00 -1.1273298357122552e+01 -4.7840728084233675e-02 2 -1 4
642 214 2 4.0999999999999998e-01 -1.1940834755741179e+00 -1.4551879685867256e+01 -9.3325680058681471e-02 2 1 3
165 55 2 4.0999999999999998e-01 -7.4463347891750846e+00 -1.4437291834075218e+01 -3.1456512663445579e-01 1 -3 4
2151 717 2 4.0999999999999998e-01 -1.0281080140852776e+01 -6.6186674072959484e+00 -7.0876191997054088e+00 2 -1 7
2108 703 2 4.0999999999999998e-01 -1.4704481064943515e+01 -1.2949975971077674e+01 -6.0076205230900275e+00 1 -1 3
1061 354 2 4.0999999999999998e-01 -3.7993759562115592e-01 -6.8744045739712334e+00 -1.5902519239947566e-03 1 1 2
436 146 1 -8.1999999999999995e-01 -1.3428026999263794e+01 -5.6711726261012014e+00 4.2114324716927740e+00 3 2 3
777 259 2 4.0999999999999998e-01 -8.6960205109415440e+00 -1.2218387788182369e+01 4.5896754892082789e+00 3 2 3
982 328 1 -8.1999999999999995e-01 -1.3636600072939306e+01 -1.0670880726491756e+01 1.6624283756176190e+00 3 -1 4
1697 566 2 4.0999999999999998e-01 -3.3086284534048112e+00 -1.2721028452032982e+01 3.1256485051344534e+00 1 0 4
677 226 2 4.0999999999999998e-01 -9.7528281927801572e+00 -8.4599803190918070e+00 5.5461220367379127e+00 2 2 3
469 157 1 -8.1999999999999995e-01 -9.6207488581601215e+00 -5.6629900351840021e+00 5.1607106809619800e+00 3 2 4
2029 677 1 -8.1999999999999995e-01 -2.4292768534155940e-01 -9.2415769661212046e+00 2.9256922347227885e+00 1 0 3
1698 566 2 4.0999999999999998e-01 -4.2954839909456997e+00 -1.1457855261379386e+01 2.8143510233384141e+00 1 0 4
1486 496 1 -8.1999999999999995e-01 -1.1270968485890245e+01 -5.8062740507684882e+00 1.9233422582583373e+00 3 1 3
336 112 2 4.0999999999999998e-01 -1.1020496526777023e+01 -1.3416456205097910e+01 1.7528843466712161e+00 1 -1 5
1735 579 1 -8.1999999999999995e-01 -1.0979941828778211e+01 -8.7825305392088211e+00 4.6611791695086815e+00 2 -1 4
312 104 2 4.0999999999999998e-01 -4.6512910127025613e+00 -8.5724123780179404e+00 5.6914014155470767e+00 3 1 5
335 112 2 4.0999999999999998e-01 -1.1102766710756365e+01 -1.4747126294189512e+01 8.1004545414273643e-01 1 -1 5
775 259 1 -8.1999999999999995e-01 -9.6379442750054523e+00 -1.1883363556098095e+01 4.5684091985051296e+00 3 2 3
440 147 2 4.0999999999999998e-01 -1.3584319887066510e+01 -8.7200196333245383e+00 4.4223965668210816e+00 3 -1 4
1703 568 2 4.0999999999999998e-01 -1.4118119254967324e+01 -1.2163554446259722e+01 1.4071753263275006e+00 2 2 3
1737 579 2 4.0999999999999998e-01 -1.1330113965970209e+01 -9.7138787110128817e+00 4.5617627424013953e+00 2 -1 4
1008 336 2 4.0999999999999998e-01 -4.0195941097639025e+00 -5.2862746074104461e+00 1.6509385008183344e+00 1 0 4
678 226 2 4.0999999999999998e-01 -9.0262179100372180e+00 -9.0100083080319564e+00 6.9010770791647644e+00 2 2 3
676 226 1 -8.1999999999999995e-01 -9.0422312854994153e+00 -8.2737979224655493e+00 6.2245775552033216e+00 2 2 3
776 259 2 4.0999999999999998e-01 -1.0096900377307836e+01 -1.2124641795809620e+01 5.4234284869257188e+00 3 2 3
439 147 1 -8.1999999999999995e-01 -1.3826452910899524e+01 -8.4980537274159360e+00 3.4779302740161917e+00 3 -1 4
1355 452 2 4.0999999999999998e-01 -1.2877875166359297e+01 -9.7353567291405483e+00 6.5642642485440348e+00 2 3 4
441 147 2 4.0999999999999998e-01 -1.3601655622680747e+01 -7.5415557000394733e+00 3.2922111954454998e+00 3 -1 4
459 153 2 4.0999999999999998e-01 -5.4617702650643807e-01 -7.6582426455247274e+00 6.9096173516772694e+00 0 -1 3
1736 579 2 4.0999999999999998e-01 -1.1066267106358357e+01 -8.2992325195843204e+00 3.7900392653859747e+00 2 -1 4
984 328 2 4.0999999999999998e-01 -1.2694702203378998e+01 -1.0738226434153272e+01 1.9913763296155942e+00 3 -1 4
470 157 2 4.0999999999999998e-01 -9.6480867348076664e+00 -5.7913846563887699e+00 6.1520135006408658e+00 3 2 4
1353 451 2 4.0999999999999998e-01 -1.0395817388351663e+01 -1.1336516067880552e+01 3.2394549771771821e+00 2 0 3
2204 735 2 4.0999999999999998e-01 -1.2396081904964323e+01 -6.9203469071939114e+00 8.2389720995602467e-01 3 0 3
1351 451 1 -8.1999999999999995e-01 -1.0974507266241055e+01 -1.0905165665100533e+01 2.5473792972997273e+00 2 0 3
1354 452 1 -8.1999999999999995e-01 -1.3738766475014131e+01 -9.3425844683765042e+00 6.2409842227098196e+00 2 3 4
1702 568 1 -8.1999999999999995e-01 -1.4298199836615249e+01 -1.3080589010827246e+01 1.0514613941590927e+00 2 2 3
321 107 2 4.0999999999999998e-01 -8.1175337884101157e+00 -5.7256308876487498e+00 2.1524624978092994e+00 2 -1 4
607 203 1 -8.1999999999999995e-01 -3.6257591622333329e-01 -6.6654395660941503e+00 1.8775461670880702e+00 1 0 4
2441 814 2 4.0999999999999998e-01 -9.5827989807090610e+00 -8.1983836201624918e+00 1.0620083830063152e+00 3 -1 3
983 328 2 4.0999999999999998e-01 -1.3980540221505571e+01 -9.7458457300498580e+00 1.8234541711906793e+00 3 -1 4
2259 753 2 4.0999999999999998e-01 -3.7166588977824837e+00 -1.0630392634495763e+01 3.7220654480369397e-01 4 1 5
1576 526 1 -8.1999999999999995e-01 -1.0509825101000168e+01 -1.2855306665548628e+01 7.0237450208859542e+00 4 1 4
2442 814 2 4.0999999999999998e-01 -1.0623684894364978e+01 -7.4523862065927569e+00 2.0751426364937196e+00 3 -1 3
1577 526 2 4.0999999999999998e-01 -1.0813535557761622e+01 -1.3807327379851445e+01 7.0602196119447669e+00 4 1 4
2440 814 1 -8.1999999999999995e-01 -1.0167590216614785e+01 -8.3169610027383243e+00 1.8644249963067203e+00 3 -1 3
1352 451 2 4.0999999999999998e-01 -1.0576720474560821e+01 -1.0027496141995558e+01 2.2802169109085213e+00 2 0 3