2593
Atoms. Timestep: 1000000
O 1.02524 -14.0606 -4.98647
H 0.397673 -14.7906 -5.25741
H 0.551014 -13.4207 -4.38177
O -3.18549 -5.9963 -13.0393
H -3.39107 -6.16425 -14.0035
H -2.56095 -6.70163 -12.7039
O 6.86236 12.6469 7.37234
H 6.0486 13.1995 7.19233
H 7.28758 12.9478 8.22594
O 13.1262 -0.247585 -13.2067
H 12.8747 0.666495 -12.8885
H 14.0294 -0.487609 -12.8508
O 9.09299 -2.87662 -8.59559
H 9.17077 -3.79441 -8.98503
H 9.16578 -2.19737 -9.32592
O -7.19227 -7.97511 13.3809
H -6.43507 -7.32195 13.39
H -6.9387 -8.77182 12.8323
O -12.2441 -12.6897 3.8225
H -12.0949 -13.5405 4.32644
H -11.8481 -11.9262 4.33281
O 13.468 -2.24013 14.6416
H 14.4321 -2.2334 14.3761
H 13.3108 -1.54579 -14.4375
O 10.4693 -12.3545 -2.59036
H 10.2562 -13.1727 -3.12436
H 9.91645 -12.347 -1.75706
O -2.19994 0.550243 11.6575
H -1.88571 1.47108 11.4265
H -1.50566 -0.116606 11.3867
O -2.64184 13.2081 8.78668
H -3.41034 12.9805 8.18863
H -2.61577 14.1968 8.93426
O 4.01097 -12.0495 12.2208
H 4.27242 -12.1405 13.1817
H 3.92587 -12.9578 11.8111
O -12.7979 -6.50326 4.63363
H -13.2263 -5.82781 5.23387
H -13.0503 -6.31358 3.68474
O -14.522 -5.50396 14.8826
H -14.2232 -4.68879 14.3864
H -13.7661 -6.15638 -14.8436
O 7.59258 -0.372885 -1.94433
H 6.9606 -0.049371 -1.24006
H 8.45463 0.129181 -1.87469
O 4.62534 3.66096 5.82284
H 5.32961 3.2401 6.39462
H 3.72774 3.3058 6.08404
O -1.71239 -4.70979 6.87175
H -1.14443 -5.4525 7.22652
H -1.67286 -3.93143 7.49837
O -7.26737 -12.8686 5.08249
H -6.2756 -12.7428 5.05785
H -7.47876 -13.8456 5.11318
O 3.70041 -6.71383 7.87113
H 2.9652 -6.0725 7.65154
H 4.04145 -7.13106 7.02871
O 6.79631 -11.3053 -2.07536
H 7.32902 -12.0397 -1.65477
H 7.41061 -10.5703 -2.36255
O -10.4125 8.8373 6.30583
H -9.46111 8.63702 6.07161
H -10.5699 9.82308 6.2466
O 0.0371363 5.26397 -0.886078
H 0.812743 5.70135 -0.430896
H 0.0486902 4.28245 -0.694938
O -7.1291 12.5374 -14.3138
H -6.78772 13.2065 14.8074
H -6.49545 12.477 -13.5425
O -5.7378 9.60154 -13.0212
H -4.94616 9.48635 -12.4211
H -6.56405 9.30179 -12.5442
O -7.6441 4.44489 -8.15849
H -6.82412 4.67598 -7.63477
H -7.54209 4.77067 -9.09844
O -10.9646 9.24575 10.1628
H -11.2026 10.1565 9.82536
H -10.1061 9.29328 10.6734
O -10.4161 -4.52987 0.833187
H -10.4238 -5.5026 1.06509
H -10.674 -3.99356 1.63686
O 7.95292 7.39298 14.799
H 7.59658 7.56606 -14.0642
H 8.25244 8.25487 14.3898
O 0.644199 -13.845 9.06748
H 1.28708 -13.5923 9.79058
H 1.04053 -13.6231 8.17657
O -13.7496 11.4006 11.934
H -13.9237 10.4159 11.9421
H -14.6106 11.8903 11.7967
O 14.0984 14.6396 -12.627
H 14.5811 14.4548 -11.7709
H 13.9978 -14.154 -12.7463
O -3.64316 -0.196046 14.0704
H -2.88874 -0.264041 14.7233
H -3.29803 -0.351911 13.1448
O 4.90207 -12.4401 8.13874
H 5.5712 -11.743 8.39651
H 5.30226 -13.0492 7.45402
O 6.59472 -11.5105 -12.9883
H 7.3268 -10.8296 -13.0097
H 6.81776 -12.2187 -12.3184
O 2.0685 -7.30942 -7.22745
H 2.25246 -7.82366 -8.06516
H 1.10057 -7.06019 -7.19509
O 14.7484 -12.6887 -2.42347
H 14.6564 -11.7733 -2.03172
H -14.1551 -13.0817 -2.14998
O 4.55207 -12.8797 -10.7749
H 4.54395 -11.894 -10.9431
H 3.88198 -13.1025 -10.0668
O -9.24212 13.6783 -6.03685
H -8.96804 13.0576 -5.30224
H -10.1296 14.0835 -5.81709
O 5.59168 12.4044 11.0112
H 4.99918 12.6635 10.2484
H 6.34666 13.0562 11.0831
O 1.33485 -9.31418 7.87097
H 1.68635 -9.59147 6.97676
H 2.10016 -9.14316 8.49154
O 5.06883 -5.97664 -2.29309
H 4.47637 -5.2502 -2.64141
H 5.33477 -6.57935 -3.04547
O -3.06372 -9.37715 13.2095
H -3.65719 -9.84593 13.8638
H -2.10742 -9.52242 13.4633
O -10.7082 -2.64731 8.536
H -11.5651 -2.59093 8.0236
H -10.2619 -1.75238 8.53867
O 1.67799 14.3242 -2.28985
H 1.27508 13.5371 -2.75701
H 2.23552 14.8457 -2.9358
O -12.8246 8.659 -1.54896
H -12.0284 8.37845 -2.0851
H -12.9223 9.65329 -1.59257
O 13.5464 -9.1849 7.90075
H 13.7043 -9.99984 8.45843
H 14.4175 -8.85781 7.5344
O 4.96635 -9.19582 11.8503
H 4.88294 -10.1855 11.9673
H 5.90566 -8.96856 11.5933
O 4.80407 -0.149944 -9.0585
H 4.23456 -0.776874 -8.52683
H 5.18783 -0.633869 -9.84501
O 14.1765 3.91736 -7.78432
H 14.7462 3.10874 -7.9314
H 13.2169 3.64245 -7.72341
O 3.41035 -4.47194 -3.96497
H 2.48597 -4.23458 -4.2637
H 3.96179 -4.72796 -4.75896
O 4.90223 4.7779 12.1495
H 4.45694 5.65524 12.3285
H 4.74381 4.16037 12.9199
O -9.69832 8.83226 0.728046
H -10.1646 7.96817 0.538228
H -9.95011 9.15332 1.64105
O -12.8989 11.4542 -5.18799
H -13.8763 11.2551 -5.25945
H -12.7494 12.1383 -4.47405
O -11.6602 -13.7349 -11.4142
H -12.5827 -13.8496 -11.0456
H -11.5056 -12.7712 -11.632
O -11.9057 -13.2551 1.20529
H -11.9665 -13.3497 2.19897
H -10.9859 -13.5047 0.902362
O -14.113 6.84431 -5.04532
H -13.355 7.48755 -5.15347
H -14.4673 6.59225 -5.94586
O -7.76536 6.29966 8.37854
H -7.17104 5.75858 7.78349
H -7.20567 6.88156 8.9686
O -2.80872 13.8984 2.60527
H -3.11516 14.3158 3.46076
H -2.93276 12.9073 2.65485
O -4.87211 1.8151 -12.5883
H -4.45559 2.50435 -13.1812
H -5.7321 2.16817 -12.2198
O 8.55975 8.63918 9.09072
H 9.21022 8.46995 9.8312
H 9.02107 9.12043 8.34531
O -9.45275 9.9333 -2.03187
H -10.0372 9.50595 -2.72164
H -9.67243 9.55935 -1.13078
O 0.788534 -6.23391 13.6185
H 0.335518 -5.8779 14.4358
H 1.65219 -6.66632 13.8777
O -7.51239 -6.03831 6.6138
H -7.39255 -6.51786 7.48312
H -6.97252 -6.49277 5.90524
O 8.18349 -7.37498 -6.20505
H 8.97124 -7.2249 -5.60758
H 8.34095 -6.92429 -7.08377
O 2.81552 -0.969356 -3.67682
H 2.21497 -0.259261 -4.04445
H 2.44385 -1.86992 -3.90244
O -7.26531 -12.1881 -1.46052
H -7.19304 -12.2148 -0.463464
H -7.62766 -11.3004 -1.74478
O 11.5898 -14.5666 0.664268
H 10.6216 -14.7917 0.773222
H 11.8639 -14.7239 -0.284511
O 5.82851 10.0631 14.0688
H 5.36724 10.0229 13.1825
H 6.81632 10.1294 13.9278
O 1.16255 -8.58179 -12.1016
H 1.29882 -9.25342 -11.3733
H 1.59676 -8.90795 -12.9413
O 11.8611 10.3264 -5.63417
H 11.817 9.41524 -6.04389
H 12.2536 10.9691 -6.29217
O 13.2954 -8.85455 13.4568
H 14.1629 -8.77675 12.9654
H 13.4188 -8.54963 14.4011
O -5.19999 9.10578 14.0834
H -5.43321 9.79782 13.4002
H -5.55267 9.38652 -14.8054
O 3.10764 -11.1055 -6.4811
H 2.88813 -10.3324 -5.88594
H 3.76385 -10.8144 -7.1773
O -8.79487 8.48829 -6.88704
H -7.95968 8.87362 -7.27951
H -9.41277 9.22958 -6.62484
O -7.32053 10.3416 3.9484
H -7.35771 9.5308 4.53261
H -7.55986 10.0883 3.01106
O 0.312011 9.91091 -12.721
H -0.25842 9.16995 -12.3665
H 0.256786 9.92566 -13.7194
O -4.5953 -5.76868 8.5637
H -5.23048 -6.54081 8.58416
H -4.87949 -5.12194 7.85588
O -9.36056 13.4942 -13.1568
H -8.48726 13.1846 -13.5331
H -9.6099 14.3699 -13.5702
O 13.1007 12.0273 -7.39994
H 12.84 12.9226 -7.76104
H 13.7354 11.5844 -8.03325
O -6.05209 -7.43582 4.54284
H -6.32851 -7.70978 3.62165
H -5.35698 -8.06851 4.88427
O -5.24364 11.9808 -7.96626
H -4.60205 11.2517 -7.72803
H -4.94673 12.8372 -7.54385
O 3.82318 6.48143 4.95393
H 4.19675 5.58049 5.17485
H 4.32756 7.18374 5.45634
O -2.22568 13.4416 -8.99574
H -2.39203 12.8217 -9.76265
H -3.0768 13.9069 -8.7526
O 2.65809 11.2982 1.16358
H 3.29134 12.0346 0.925322
H 2.06553 11.5971 1.91162
O 0.218081 1.33062 -12.035
H 1.00077 1.11196 -12.6178
H 0.28116 0.810509 -11.1832
O -11.1048 -0.534321 3.45397
H -10.3562 -1.05766 3.86101
H -11.3172 0.251028 4.03549
O 0.853724 5.47526 -11.1102
H 1.16467 5.97755 -11.9171
H 0.484188 4.58943 -11.3909
O -9.39153 -0.531488 7.49249
H -9.38434 0.380774 7.08289
H -8.54504 -0.673094 8.00577
O -1.93629 -8.91639 9.39416
H -1.80884 -8.55498 10.3178
H -1.71815 -9.89229 9.38503
O -6.41253 -3.28447 10.8098
H -5.42285 -3.14738 10.8522
H -6.80083 -2.69403 10.1023
O 7.34377 -4.1047 -13.9745
H 7.70866 -4.14175 -13.0441
H 7.61279 -3.24258 -14.4039
O -14.5693 7.55884 -12.5986
H 14.5146 8.23805 -12.3701
H 14.7719 6.73961 -12.9661
O -13.007 -11.4082 11.7668
H -12.9136 -11.5454 12.7529
H -12.1035 -11.438 11.3391
O -8.66803 -4.70844 3.51968
H -7.79395 -4.60313 3.0454
H -8.75729 -5.64836 3.84929
O -10.3869 5.76093 5.46628
H -9.41158 5.60775 5.30708
H -10.5322 6.01882 6.42149
O 0.131518 2.84519 13.422
H 0.681751 3.50356 12.9084
H 0.717483 2.103 13.7474
O 4.53495 -10.0272 -11.5421
H 5.3615 -10.4127 -11.9523
H 4.29097 -9.18116 -12.0162
O 7.34983 -13.3674 14.6675
H 7.38457 -12.4473 14.2773
H 7.32369 -13.3056 -14.1162
O -9.73177 1.81054 9.10734
H -9.99741 2.16538 8.21091
H -9.97038 2.47701 9.8137
O 3.95118 9.30615 -0.256442
H 3.65972 8.67774 -0.977692
H 3.15489 9.79164 0.104505
O 5.14632 2.8712 -6.02311
H 4.747 3.62407 -5.49987
H 5.7591 3.23944 -6.72237
O 0.31786 12.5704 -3.77099
H 0.0115508 12.7535 -4.70517
H -0.370599 12.0224 -3.29586
O 7.73306 1.98991 5.44844
H 7.64283 2.85052 4.94717
H 8.36648 2.11392 6.21228
O -5.50496 -10.2389 2.77813
H -6.27451 -10.8401 2.56285
H -5.26338 -10.3393 3.74333
O -0.906326 -7.13168 11.8203
H -0.171461 -6.95421 12.4749
H -0.512706 -7.32336 10.9212
O -14.5015 2.74381 -4.94516
H -14.4868 3.19364 -4.05214
H -13.6046 2.83362 -5.37837
O -7.64222 -7.8943 1.48027
H -8.59147 -7.5879 1.40881
H -7.62241 -8.86396 1.72403
O 3.9275 13.9776 14.335
H 4.66128 13.3814 14.0092
H 4.16912 14.3428 -14.5473
O -7.97024 10.0952 -10.5759
H -8.76851 10.4262 -10.0727
H -8.26995 9.50519 -11.3256
O 2.79548 -12.2196 9.73638
H 3.06613 -12.1775 10.6982
H 3.61245 -12.2142 9.15967
O 10.2528 4.97495 -12.0445
H 11.1929 4.95147 -12.385
H 10.1165 5.80188 -11.499
O 14.7947 12.9258 3.20618
H 13.9284 13.425 3.1841
H -14.8454 12.4647 2.33015
O 13.799 1.41714 13.7403
H 13.4329 2.3407 13.8549
H 14.2845 1.14561 14.5713
O -11.3087 1.41273 -9.85229
H -11.3279 0.544432 -10.348
H -10.5624 1.40006 -9.18671
O 8.3499 2.57272 9.03918
H 8.04382 3.22677 9.73098
H 9.07173 2.98716 8.48488
O 11.3949 3.68975 -8.33275
H 10.693 3.5694 -7.6307
H 11.4804 2.84829 -8.86631
O -11.3282 14.2808 7.56579
H -12.113 14.3764 6.95341
H -11.3719 -14.7978 8.27586
O 3.65196 -7.96502 14.1793
H 3.80162 -8.18676 13.2158
H 4.26984 -7.22732 14.4515
O 2.4335 11.9864 -9.71753
H 1.90425 12.8344 -9.6886
H 2.83443 11.8128 -8.81798
O -0.0458889 7.4696 -6.87057
H -0.251757 6.51792 -6.64257
H 0.780954 7.50653 -7.43183
O 1.42403 8.36107 5.98471
H 1.2256 8.55158 5.02326
H 1.73102 7.41415 6.08041
O -13.6058 -1.45804 7.96472
H -14.5748 -1.63756 8.13465
H -13.3931 -1.65527 7.00769
O 10.512 7.45997 10.4394
H 10.1227 6.94316 11.2019
H 11.4763 7.65034 10.6236
O 3.74612 -3.75586 -0.412713
H 3.62001 -3.57892 -1.38885
H 2.9223 -4.1853 -0.0426433
O -11.0566 -3.58312 -14.4191
H -11.3395 -3.73225 -13.4716
H -10.2364 -3.01123 -14.436
O 11.2781 -2.1307 -0.294453
H 10.8482 -2.18276 -1.19586
H 10.5701 -2.09318 0.410814
O -14.5505 2.7576 6.58622
H -14.8586 3.70888 6.60136
H -14.1803 2.5128 7.48237
O -3.29145 -3.50052 11.0862
H -2.66558 -3.4895 11.866
H -3.22064 -4.37939 10.6143
O 12.3957 -5.36117 6.22796
H 11.8632 -5.24854 5.38908
H 13.336 -5.06005 6.06881
O 3.05879 -0.514486 10.5941
H 3.73443 -0.635834 9.86688
H 3.52074 -0.23011 11.4342
O 8.46319 2.74151 -11.6687
H 9.00705 3.40387 -11.1534
H 7.50428 2.81167 -11.3937
O 11.5099 3.85981 -1.92481
H 10.8696 3.77331 -1.16152
H 11.038 3.64983 -2.78114
O -4.07041 14.2729 5.27021
H -4.1865 13.6377 6.03384
H -4.32095 -14.5858 5.56313
O 12.548 -4.26615 11.5714
H 12.5174 -5.20625 11.9109
H 13.4986 -4.001 11.4095
O -4.79279 -13.9315 7.67179
H -5.41949 -13.5132 8.32933
H -3.91136 -13.4603 7.70521
O -12.6526 -1.04859 11.9484
H -13.4505 -0.462395 11.8075
H -12.0387 -0.97044 11.1628
O -10.3945 -11.0674 10.4739
H -9.68264 -11.2761 11.1446
H -10.2775 -10.1305 10.1443
O -0.547681 -6.86717 -7.55469
H -1.33948 -6.66598 -6.97795
H -0.737412 -6.57949 -8.49347
O 7.59514 -1.16181 5.28104
H 6.9479 -0.466785 4.96785
H 7.23081 -1.61377 6.09532
O -2.38227 2.09702 4.80936
H -1.39875 2.27598 4.83628
H -2.75386 2.4082 3.93464
O -12.4897 -1.77236 -3.22795
H -12.2541 -2.69896 -2.93481
H -12.3742 -1.14071 -2.46132
O 8.73339 -1.55641 14.3522
H 9.14041 -2.37955 13.9562
H 9.34596 -0.779216 14.2081
O 0.522299 -2.52118 3.15206
H 0.0389119 -3.33075 2.81891
H 1.42042 -2.7892 3.50077
O 3.55611 11.0452 5.55795
H 4.02883 10.2189 5.25159
H 2.68901 10.7932 5.98771
O 5.49706 3.51107 -9.61964
H 5.44656 4.48518 -9.84012
H 4.57286 3.13255 -9.56845
O -12.0044 -9.23926 4.9554
H -11.2923 -9.27663 5.65653
H -12.2333 -8.28492 4.76332
O -10.0734 -9.50018 7.14573
H -10.612 -10.3418 7.10649
H -10.2498 -9.03164 8.01142
O 5.99657 0.249923 -14.0532
H 5.90683 -0.246658 14.8648
H 6.87597 0.725598 -14.0322
O -1.11312 -11.0446 2.4201
H -0.887172 -10.1111 2.1417
H -1.25865 -11.6088 1.60737
O 1.08997 6.36865 -3.16937
H 0.46853 5.97802 -2.4902
H 0.750539 7.2648 -3.45531
O -2.66145 -14.1409 -6.14615
H -3.49331 -14.2551 -6.68931
H -2.90257 -13.8172 -5.23121
O -12.8649 14.82 11.749
H -12.3945 13.9471 11.6198
H -13.1929 14.8857 12.6914
O 2.57153 -9.19993 5.38788
H 3.27909 -8.50628 5.25273
H 2.70034 -9.9404 4.72821
O -0.947326 -10.443 14.4948
H -0.357013 -10.832 13.7875
H -0.752637 -10.8838 -14.4104
O -12.4411 0.565357 14.1646
H -12.6918 1.45503 13.7829
H -12.8498 -0.161363 13.6124
O 4.67683 -10.3321 -0.269607
H 4.84155 -9.35006 -0.176802
H 5.25951 -10.7008 -0.993883
O -9.54004 -7.72506 4.52431
H -9.14118 -7.89074 5.42626
H -9.22178 -8.42542 3.88536
O 12.516 -7.0645 11.689
H 13.267 -7.2035 11.0435
H 12.4844 -7.8287 12.3332
O -5.96958 11.7577 -3.68042
H -5.1574 11.6055 -4.24368
H -5.72894 11.6585 -2.71486
O 0.575731 8.87224 -3.94622
H 1.46915 9.30602 -4.06326
H 0.213351 8.60892 -4.84031
O 13.1878 8.16131 11.2
H 12.8951 8.45216 12.1109
H 14.1816 8.24533 11.1266
O 4.90237 -14.3293 -0.344945
H 4.95405 -14.4529 -1.33595
H 3.96102 -14.4733 -0.0397056
O 6.49506 2.07532 12.7388
H 6.40284 2.81685 12.0742
H 7.21654 1.44962 12.4421
O 4.08567 11.5497 -7.43911
H 3.4934 11.6549 -6.64023
H 4.29319 10.5809 -7.57493
O 13.1919 -9.68849 -11.7539
H 13.2582 -8.858 -12.307
H 14.1106 -10.0159 -11.5327
O 3.25687 7.66092 -12.556
H 3.38094 8.30501 -11.8012
H 3.25858 6.72627 -12.2004
O 4.83681 -5.59146 14.8078
H 5.61972 -5.10202 -14.5895
H 4.64794 -5.24826 13.8877
O 10.0779 -6.08616 -9.65888
H 10.2929 -5.92972 -8.69484
H 10.7482 -6.71571 -10.0519
O -9.17219 0.743976 -7.42335
H -9.39823 1.69954 -7.23399
H -8.67878 0.35745 -6.64412
O -1.64635 -10.1532 -10.5764
H -1.19867 -9.7784 -9.76446
H -1.25019 -11.0453 -10.7936
O 10.908 0.0204568 13.7241
H 11.4482 -0.445038 13.023
H 11.5013 0.275001 14.4877
O 0.409505 -2.98787 -9.35922
H -0.214012 -3.33557 -10.0595
H 0.802488 -2.12024 -9.66392
O 6.73822 1.27132 -3.77244
H 7.12822 0.504266 -3.26295
H 5.9202 0.966113 -4.26003
O -12.0844 -3.07996 2.55609
H -11.7613 -2.13597 2.62346
H -11.9586 -3.53889 3.43565
O -12.8978 2.94945 13.1675
H -13.8347 3.29892 13.1748
H -12.3564 3.46121 12.5003
O 3.21491 -7.11972 2.15049
H 3.83285 -7.05284 1.36708
H 3.17695 -8.06822 2.46506
O 8.20416 13.0399 -4.5714
H 7.33484 13.529 -4.49998
H 8.48211 12.7202 -3.66555
O -8.02929 -5.19267 -14.6272
H -8.70269 -4.84436 14.5021
H -7.17132 -4.69005 -14.7336
O 11.026 9.9301 -10.6132
H 11.6724 10.5825 -10.2176
H 10.101 10.3073 -10.5663
O 5.52935 -2.19809 -3.13168
H 6.105 -1.47633 -2.74732
H 4.66131 -1.80562 -3.43585
O -13.2175 7.21687 -10.0868
H -12.6765 8.00139 -9.78355
H -14.0001 7.5378 -10.6202
O -10.2412 11.683 14.4655
H -10.8257 10.9988 -14.8798
H -9.91934 12.3337 -14.6281
O 13.709 6.86473 8.67052
H 14.653 6.97911 8.98024
H 13.1027 6.8068 9.46366
O 6.12671 13.1287 -11.4387
H 6.05597 12.9159 -10.4642
H 6.12193 12.2793 -11.9666
O 6.12128 -4.02009 -5.09003
H 7.09176 -4.15478 -4.8898
H 5.71735 -3.42401 -4.39607
O -8.186 -6.76764 -12.3993
H -9.02227 -7.28631 -12.5774
H -7.98942 -6.17407 -13.1798
O -4.67106 2.77409 -0.315771
H -5.21824 2.02285 0.0534118
H -4.08629 2.43068 -1.05073
O 13.5724 3.95162 1.24701
H 13.6961 3.19073 0.609989
H 13.2609 4.75886 0.745587
O 7.34633 10.386 -3.21758
H 7.7064 9.53349 -2.8386
H 6.65834 10.7623 -2.59699
O 8.45184 9.94018 14.0718
H 8.91977 10.0764 -14.8364
H 8.99943 10.3365 13.3348
O -2.02076 5.2745 3.41233
H -2.08242 6.11285 2.87065
H -1.06529 4.98527 3.47131
O 12.5424 14.2297 -8.98814
H 12.7446 -14.5996 -9.21736
H 12.6661 13.658 -9.7993
O 2.56611 -4.39051 -7.27182
H 2.87368 -5.34193 -7.28738
H 1.57913 -4.36182 -7.11339
O 10.1872 -10.2514 -4.51541
H 10.3363 -11.144 -4.09002
H 10.3049 -10.33 -5.50537
O 9.18494 11.7955 -6.88272
H 10.1488 11.5316 -6.91904
H 9.0279 12.3749 -6.08291
O -9.18617 -2.11846 4.56065
H -8.76802 -2.38339 5.42957
H -9.0194 -2.83132 3.87943
O 4.69745 12.9477 -3.12654
H 4.84703 13.9364 -3.12939
H 3.90887 12.7282 -3.70102
O 2.77565 -11.4554 3.80091
H 1.86818 -11.8599 3.91479
H 3.39644 -12.1345 3.40905
O -2.23744 5.94297 -3.55525
H -1.7473 5.49311 -4.30187
H -2.47794 5.26652 -2.8591
O -11.2679 12.3951 0.34106
H -11.5647 12.0803 1.24267
H -11.4849 11.6988 -0.343138
O -9.89472 11.2557 -9.12041
H -9.99219 12.2246 -9.34773
H -9.79537 11.1539 -8.13055
O -3.50923 10.9192 -4.61096
H -3.01991 11.1743 -3.77696
H -3.81814 9.97082 -4.53931
O -1.00242 -5.1069 1.50358
H -1.71336 -5.72844 1.83268
H -1.39309 -4.4813 0.828262
O 4.58076 -0.471145 8.36541
H 4.93501 0.460762 8.28725
H 5.298 -1.1223 8.11718
O 8.60314 6.57743 2.75888
H 8.81074 5.89649 3.46122
H 8.32303 7.43222 3.19583
O 1.07859 14.82 12.3176
H 1.01584 13.8508 12.0793
H 1.6207 -14.8576 13.1515
O 7.51706 -7.52204 -10.8808
H 6.65734 -7.31291 -11.3469
H 7.54909 -7.03685 -10.007
O 7.60106 6.57174 6.04837
H 7.45556 6.36454 7.01582
H 8.10598 5.82271 5.61935
O 14.7506 -3.2185 3.40681
H 14.2059 -2.81178 2.67335
H -14.0586 -3.0994 3.20531
O -9.4084 0.872411 1.50101
H -10.1521 0.547991 2.08559
H -9.36248 0.308619 0.676334
O -6.95832 6.27529 12.8847
H -6.34788 7.01053 13.1794
H -6.83265 5.47992 13.4777
O 11.3152 1.03974 0.40017
H 11.0827 1.99322 0.592204
H 11.6826 0.613285 1.2267
O -2.77658 -2.53131 8.19992
H -3.7092 -2.72676 7.89649
H -2.74189 -2.5429 9.19928
O -4.70213 -11.2192 -0.170557
H -3.82648 -11.6797 -0.0248755
H -5.42168 -11.7073 0.323461
O -13.6265 11.1807 -1.01494
H -13.4994 10.9783 -0.0438908
H -14.6029 11.2686 -1.21214
O 11.0224 12.1514 10.078
H 11.035 13.1072 9.7843
H 11.5086 11.5904 9.40794
O -13.681 8.65344 12.0093
H -12.6857 8.57327 12.0634
H -14.0951 8.20482 12.8013
O 8.63006 8.00238 -2.16844
H 8.11898 7.20593 -1.84513
H 9.60404 7.77935 -2.2092
O 4.94998 4.53352 2.74767
H 4.53783 4.22008 3.6032
H 4.26352 4.51534 2.02069
O 12.7497 12.6133 -14.2841
H 11.9012 12.8745 -14.7444
H 13.079 13.3795 -13.7322
O -4.13354 -9.26423 5.55924
H -3.46828 -9.9999 5.43165
H -3.68326 -8.47703 5.98068
O 2.01578 -14.5453 0.346388
H 1.69125 -14.8137 -0.560639
H 1.40187 14.8652 1.04327
O -12.2408 3.35111 -14.1127
H -12.0333 4.29532 -13.8568
H -12.316 3.28422 14.6738
O -9.65231 6.94061 -9.36584
H -10.2742 6.15897 -9.41389
H -9.58314 7.2538 -8.41865
O 5.76271 -4.5496 -9.79251
H 5.0212 -4.27219 -10.4035
H 5.84493 -3.88862 -9.04659
O -7.92172 -11.5555 7.25692
H -8.61761 -10.8962 6.97205
H -7.78795 -12.2326 6.53326
O -10.6582 3.95729 11.4934
H -10.621 4.83513 11.9709
H -10.9418 4.10506 10.5458
O 4.22767 0.227133 13.0531
H 4.86743 0.959323 12.8193
H 4.71781 -0.643624 13.0931
O 2.40285 6.51506 8.75257
H 1.68036 6.70727 9.41674
H 1.99489 6.17429 7.90552
O -0.674853 -11.1546 7.3513
H -0.21544 -11.9684 7.7073
H -0.248814 -10.336 7.73651
O -10.8893 11.5512 6.41042
H -11.6511 12.1541 6.17318
H -10.1828 12.0773 6.88387
O -12.4083 9.38112 -8.52455
H -11.7217 9.97947 -8.93765
H -13.3142 9.79187 -8.62827
O -10.4568 -6.95351 -10.3919
H -10.3709 -6.00952 -10.7106
H -9.57069 -7.27432 -10.0574
O -1.44806 13.9116 5.24481
H -2.35396 14.3295 5.31353
H -1.50558 13.0802 4.69198
O 4.9905 -10.1117 2.86238
H 4.10721 -10.5104 3.10926
H 5.21804 -10.3625 1.92142
O -0.888853 -9.62547 -7.95725
H -0.521062 -9.9245 -7.07671
H -0.678354 -8.6576 -8.09504
O -3.84684 -1.02232 -10.7231
H -3.45101 -0.600892 -11.5391
H -3.13013 -1.49675 -10.212
O -13.9351 -10.7109 -11.2362
H -13.0068 -10.5451 -11.569
H -14.1026 -10.1524 -10.4238
O 13.7735 5.07983 -12.4935
H 13.5091 5.34593 -11.5665
H 14.016 4.10974 -12.5055
O -14.7326 -3.25607 10.6692
H -14.0202 -3.91013 10.4148
H -14.3915 -2.32486 10.5408
O 14.117 12.4016 8.88319
H 14.8612 11.7859 8.62418
H 14.4121 12.9796 9.64401
O -5.31443 -3.19502 7.41545
H -5.30552 -2.98389 6.438
H -6.1639 -2.85804 7.82152
O 8.58297 -4.48909 -11.2214
H 9.07084 -5.24904 -10.7919
H 7.70737 -4.35093 -10.7585
O -2.19626 7.80153 -8.39767
H -1.88112 8.06578 -9.30921
H -1.41228 7.73408 -7.78051
O 0.195958 -7.07487 6.89075
H 0.808321 -7.8619 6.96587
H -0.678377 -7.36852 6.50428
O 5.89345 11.4678 -1.28879
H 5.1811 10.8083 -1.04862
H 5.54826 12.0903 -1.99122
O 2.00956 5.65034 1.04296
H 2.5837 6.35872 1.45359
H 2.43086 4.75489 1.1869
O -6.44514 2.03364 11.7345
H -6.84832 2.85193 12.1443
H -6.1067 2.25146 10.8191
O 0.87187 12.2423 11.2391
H 1.09754 11.2931 11.4584
H 0.424176 12.2805 10.3457
O 11.3185 7.58537 -2.74763
H 10.9387 7.05933 -3.50859
H 12.2518 7.86729 -2.97033
O 1.12129 1.26058 9.0156
H 1.61276 0.750017 9.72117
H 1.74776 1.89958 8.56919
O -11.0227 -4.72082 5.47669
H -11.4861 -5.50028 5.05513
H -10.1097 -4.62185 5.08072
O 0.839638 -3.99411 -12.1586
H 1.25834 -3.08928 -12.2362
H 0.147773 -4.10357 -12.8723
O 9.91655 -6.27891 13.8117
H 10.684 -5.77016 14.2018
H 9.85454 -7.17603 14.2491
O 11.0236 13.9678 5.62023
H 11.2723 13.1407 6.12433
H 11.1411 13.8087 4.63996
O -13.5782 3.75436 -2.05888
H -13.4244 4.52507 -1.44048
H -14.2321 3.12066 -1.64551
O -8.39785 -5.46453 -7.68635
H -8.1005 -5.20928 -8.60639
H -7.62436 -5.39901 -7.05589
O -12.7189 13.1883 -2.9287
H -13.0301 14.0981 -2.65385
H -13.0226 12.5145 -2.25509
O -13.7181 -11.4497 0.87903
H -13.5369 -11.006 0.0013382
H -13.095 -12.2231 0.99645
O 0.934514 -11.2707 12.8092
H 1.75964 -10.9186 13.2511
H 1.15503 -11.5683 11.8803
O -14.4777 11.1806 -9.59266
H 14.8461 10.2971 -9.49171
H -14.1412 11.2765 -10.5295
O -4.92362 12.7027 -12.6743
H -4.09971 12.1762 -12.884
H -5.23103 12.4856 -11.7477
O -6.96194 -1.20584 9.05119
H -6.2962 -0.815616 8.41514
H -7.15774 -0.544986 9.77575
O 11.7532 -5.7917 -1.30147
H 11.124 -5.05558 -1.05187
H 12.015 -5.69516 -2.26179
O 11.1178 -10.3762 14.4342
H 10.6163 -10.9474 13.7844
H 11.7148 -9.74848 13.9347
O 7.44281 -8.3119 10.8879
H 7.25709 -7.64578 11.6103
H 8.26108 -8.03676 10.3831
O -14.5247 -10.2018 -8.46421
H 14.2732 -10.2164 -8.64467
H -14.366 -9.99504 -7.49874
O 13.5692 -0.317479 -7.54053
H 14.533 -0.274707 -7.80369
H 13.4704 -0.0275459 -6.58857
O -1.38553 -13.0176 -11.0723
H -1.54743 -13.9221 -11.4667
H -1.25745 -13.1029 -10.0841
O 13.5319 12.5999 11.6755
H 13.186 13.31 12.2888
H 12.7871 12.2677 11.0966
O 5.29516 8.42425 6.22329
H 6.04065 7.75834 6.19376
H 5.50525 9.13002 6.89991
O -0.967315 5.5003 8.82809
H -0.588553 6.33682 9.22412
H -1.03453 5.60216 7.83554
O -2.45546 6.03075 -12.8218
H -2.9211 6.31595 -13.6596
H -1.93406 5.19579 -12.998
O 4.37309 13.5109 6.78234
H 4.23136 12.6304 6.32988
H 4.0246 14.2451 6.19956
O -10.3797 7.43794 -14.5431
H -10.749 6.81229 -13.8559
H -10.3421 6.97549 14.3524
O -12.3487 8.8425 -5.74107
H -12.0098 8.77955 -6.67981
H -12.6675 9.77356 -5.56354
O -3.73393 -8.70702 1.31896
H -3.35813 -9.12824 0.49349
H -4.20643 -9.40128 1.86193
O -8.31043 -3.64748 -5.48083
H -7.65711 -3.2243 -6.10865
H -8.94022 -4.22824 -5.99672
O -13.776 -14.6285 14.3354
H -14.7035 -14.2692 14.4388
H -13.7007 14.2806 14.8187
O -4.55235 12.1644 13.6118
H -3.80284 12.5809 13.0972
H -5.24644 12.8568 13.809
O -8.61932 -14.2034 -8.9695
H -8.27185 -14.4638 -9.87033
H -7.97646 -14.5035 -8.26473
O -14.4127 -3.24786 -7.28178
H 14.4021 -3.29504 -7.02975
H -13.8546 -3.19396 -6.45375
O 7.87009 13.9825 9.7292
H 8.4932 13.5388 10.3734
H 7.66785 -14.8721 10.0457
O 0.481249 4.15616 3.25644
H 1.10734 3.58286 3.78502
H 1.00753 4.76517 2.66299
O -7.77772 -1.17175 -11.0949
H -8.22608 -0.599632 -11.7817
H -6.78552 -1.09577 -11.194
O 6.17643 -5.25523 3.38842
H 7.03321 -5.74881 3.23888
H 5.95179 -4.72261 2.5724
O -11.8083 -4.57006 -3.32344
H -11.4815 -4.42835 -4.25788
H -11.0757 -4.96743 -2.77077
O 7.01309 -13.6834 1.7867
H 6.29697 -13.8193 1.10206
H 6.96226 -14.4107 2.47116
O -2.41061 -11.2898 5.05023
H -2.00111 -11.3185 4.13835
H -1.72561 -10.9893 5.71394
O 14.7573 4.63628 12.9003
H 13.8476 4.25032 13.0536
H 14.8746 5.44962 13.4702
O -3.5938 -11.4344 -12.6237
H -2.99491 -11.9406 -12.0031
H -4.54822 -11.6419 -12.409
O 6.76435 14.1791 3.81953
H 6.51463 14.6506 4.66532
H 6.19335 13.3654 3.71046
O 9.05438 -3.15081 9.85032
H 9.52735 -3.54823 9.06393
H 9.69279 -3.06614 10.6154
O -5.26818 -14.7369 11.3096
H -5.35703 -13.8313 10.8948
H -5.53517 14.3461 10.6455
O -14.6363 -3.76258 -2.68238
H -14.5365 -4.49052 -2.004
H -13.774 -3.64571 -3.17522
O 13.3745 4.94654 6.4425
H 13.5132 5.37878 7.33357
H 12.4751 5.19911 6.08587
O 9.35984 -12.398 8.27179
H 9.75011 -11.5075 8.03784
H 10.0148 -13.1189 8.04514
O -12.0327 0.126759 9.59711
H -12.476 -0.507969 8.96413
H -11.1573 0.422205 9.21439
O -2.89791 11.4763 -14.0149
H -3.43313 11.813 -14.7896
H -1.96061 11.2934 -14.3117
O -2.55329 -7.45383 7.16732
H -2.56471 -6.4984 7.4624
H -2.30114 -8.03798 7.93884
O -10.3548 6.66015 8.02964
H -9.38721 6.63574 8.28119
H -10.5575 7.52374 7.56791
O 13.5747 -11.6701 8.95245
H 13.7946 -11.9288 9.89308
H 13.6782 -12.4655 8.35516
O -7.97024 -10.8858 -12.7819
H -8.23936 -10.8366 -11.82
H -7.39707 -11.6923 -12.9268
O -13.4633 2.36851 9.02435
H -12.9606 1.50659 9.09114
H -13.0967 3.02052 9.68804
O 12.4374 12.5827 -11.228
H 12.8917 13.3846 -11.6162
H 12.6464 11.7789 -11.7851
O -13.7413 6.4351 0.0542961
H -13.4808 7.26967 -0.431191
H -14.6294 6.11874 -0.279407
O 1.71456 12.4009 3.695
H 2.40533 13.0735 3.96063
H 1.17628 12.1414 4.49686
O 10.8565 6.35824 5.46733
H 10.9515 5.7813 4.65606
H 10.6833 7.30228 5.18656
O -2.79218 7.41123 1.96061
H -2.04042 7.77917 1.41332
H -3.61114 7.33292 1.39208
O -11.3405 14.7037 -5.05603
H -11.7468 14.4719 -4.17212
H -12.0092 14.5442 -5.7823
O 8.81532 -4.34733 -4.45529
H 9.15846 -5.285 -4.51068
H 9.37345 -3.75336 -5.03473
O 6.90845 0.0912602 -7.17058
H 6.42433 0.228166 -6.30633
H 6.24517 0.00150606 -7.91359
O 14.0782 8.25831 -2.3384
H 14.7523 8.03767 -3.04337
H 13.8366 7.4277 -1.83664
O 14.8638 0.830022 -10.4983
H -14.795 1.39609 -9.68312
H -14.8542 -0.135627 -10.2463
O 9.31487 1.18999 11.9074
H 9.9604 1.14499 11.1449
H 9.76292 0.871356 12.7427
O 5.62782 2.24827 8.60245
H 5.27576 2.78718 9.36775
H 6.62414 2.32761 8.56936
O -12.4159 13.039 4.05026
H -13.3942 13.0527 3.84367
H -12.0608 13.9738 4.04423
O 6.96111 -6.41648 -8.56093
H 6.4388 -5.67274 -8.97818
H 6.49995 -6.7209 -7.72743
O 6.19931 5.78153 -10.8377
H 6.01487 5.10307 -11.5488
H 7.06081 6.2483 -11.0377
O -5.08494 11.6037 -1.049
H -4.3355 11.2535 -0.487067
H -5.50634 12.3871 -0.591984
O 4.33229 -1.53342 1.48196
H 4.2878 -2.41454 1.01112
H 4.41717 -1.68561 2.46669
O -6.44779 -12.9725 -13.2742
H -6.51993 -13.9026 -12.9141
H -6.04758 -12.9998 -14.1902
O -1.12249 -12.5062 -8.15693
H -1.73821 -12.995 -7.53886
H -1.05644 -11.5494 -7.87373
O -8.30679 11.0406 1.36784
H -8.5858 10.2213 0.867041
H -9.06377 11.3551 1.9407
O -6.57086 -7.63697 8.78098
H -6.18775 -8.51987 8.50937
H -7.38603 -7.7854 9.3409
O -14.6204 -9.61962 -1.57407
H -14.8149 -8.72481 -1.17214
H 14.3084 -10.0349 -1.89139
O 3.12571 -14.7479 4.78393
H 3.48893 -14.2455 3.99928
H 2.40186 -14.2111 5.21742
O 13.7657 -11.1781 2.51815
H 14.6161 -11.1933 1.99228
H 13.0039 -11.4449 1.92774
O -4.3889 7.16828 4.78842
H -4.51928 8.06194 4.35899
H -3.98639 6.53592 4.12647
O 13.8129 -12.6559 14.5228
H 13.1299 -13.2162 -14.7901
H 14.1139 -11.9203 -14.6517
O 0.148212 7.6392 10.25
H -0.115298 7.8367 11.1943
H 0.235682 8.49622 9.74218
O 11.7805 -13.6431 7.14268
H 11.7456 -14.5444 6.71083
H 12.5313 -13.1133 6.74817
O -12.238 -2.30478 5.60484
H -11.8792 -3.23821 5.60042
H -11.54 -1.67775 5.25881
O 0.923682 -3.18608 -4.21124
H 0.255173 -3.45126 -3.51639
H 0.616134 -3.50394 -5.10815
O -2.60528 8.27083 -1.2808
H -3.39058 8.16008 -1.88997
H -1.86238 7.67332 -1.58267
O -3.86687 -5.47349 -1.79151
H -3.36114 -5.74219 -2.61133
H -4.46873 -6.22127 -1.51109
O -12.7438 -0.714618 -5.75996
H -12.6754 0.282874 -5.7402
H -12.6372 -1.07445 -4.83302
O -8.41529 -10.772 3.41991
H -8.13087 -11.15 4.30097
H -9.32485 -11.1165 3.18739
O 14.0358 2.48885 -1.34909
H 13.2472 3.05836 -1.58118
H 13.8589 1.54493 -1.62796
O -14.809 -4.5728 5.99603
H -14.7865 -3.86799 5.28694
H -14.7648 -4.14084 6.89687
O 10.2693 10.9956 -3.4927
H 10.9607 10.7129 -4.15761
H 9.36922 10.6801 -3.79316
O 11.2648 -14.5679 12.4584
H 10.6114 -13.8186 12.5663
H 11.784 -14.4384 11.6136
O 0.623572 6.99979 -14.26
H 1.19209 6.29891 -14.6908
H 1.19623 7.77381 -13.9898
O 11.0225 8.16246 -12.9485
H 10.9545 7.97378 -11.9688
H 10.9837 7.30229 -13.4571
O -12.0729 -0.0563117 -12.8716
H -12.2508 0.391076 -13.7481
H -12.8084 -0.703967 -12.6726
O -12.5549 -12.1158 14.3678
H -12.8442 -13.0668 14.2581
H -13.2884 -11.5922 14.8012
O 9.64354 -3.00513 3.81386
H 10.5208 -2.79325 4.24472
H 8.91619 -2.49063 4.26806
O -2.50813 11.604 -11.4514
H -2.49491 11.4911 -12.4449
H -2.87284 10.7754 -11.0266
O 13.2594 -10.5308 -5.50264
H 12.5309 -10.5769 -6.1861
H 12.8589 -10.3879 -4.59755
O -10.7905 1.47178 -3.30956
H -10.6315 2.14874 -2.59089
H -11.3181 0.708167 -2.93734
O -3.50209 9.95034 -7.27677
H -3.00914 9.15661 -7.63319
H -3.13176 10.1983 -6.38155
O -8.95384 -0.418574 -5.04274
H -9.62233 0.0361978 -4.45421
H -8.88546 -1.38276 -4.78639
O 8.96564 14.2443 0.139828
H 9.37011 13.5235 -0.423236
H 8.12434 13.9055 0.561126
O 0.531119 -6.26322 -1.69803
H -0.0615859 -5.49684 -1.94586
H 0.937562 -6.09349 -0.800224
O -4.72329 -10.088 -14.6033
H -4.26541 -10.5956 -13.8734
H -5.40127 -9.47016 -14.2049
O 1.59138 -1.16824 -13.8687
H 1.71991 -0.291006 -14.3313
H 2.06913 -1.88563 -14.3758
O -10.2497 -1.82474 0.0589214
H -9.35161 -1.43634 -0.147382
H -10.1938 -2.823 0.0387984
O -12.0628 6.04452 -12.5724
H -11.6875 5.9659 -11.6489
H -12.9903 6.41529 -12.5249
O -13.5847 7.86436 6.08409
H -13.9165 7.38989 5.26869
H -12.5847 7.86339 6.08659
O -13.4495 3.81704 2.3721
H -13.2051 3.30068 1.55131
H -14.354 4.22627 2.25145
O -8.86413 -8.54409 -6.93708
H -9.69734 -8.97271 -7.28652
H -8.42075 -8.02979 -7.67122
O -2.02027 -13.8626 8.97501
H -1.04206 -14.0657 9.01868
H -2.21394 -13.0394 9.50872
O -2.22703 -12.6634 0.153295
H -1.71557 -13.5112 0.0132195
H -1.73458 -11.9031 -0.270503
O -14.4704 -10.8694 -14.1328
H -14.5786 -9.92081 -14.4302
H -14.2553 -10.8902 -13.1564
O 10.1097 6.17868 -4.79523
H 10.2236 5.29819 -5.25547
H 9.2623 6.1702 -4.26433