2593
Atoms. Timestep: 18495000
O -13.3761 -4.27494 4.76864
H -13.4673 -3.99546 5.72446
H -14.1807 -4.80343 4.49775
O 12.5869 -6.40946 -6.3135
H 13.4394 -6.70627 -5.88312
H 11.965 -7.18844 -6.39329
O -6.89137 4.70656 9.39453
H -6.13457 5.33239 9.2059
H -7.71281 5.23325 9.61327
O -1.06718 4.09625 9.43024
H -1.51625 3.99112 10.3175
H -0.608664 3.24195 9.18543
O 4.34851 -9.02927 -14.0303
H 5.0351 -9.75619 -14.0434
H 3.93531 -8.94468 14.7634
O 13.624 -9.09273 4.8653
H 14.4333 -9.22671 5.43711
H 12.8302 -9.5097 5.30817
O 2.59521 7.11778 -8.90134
H 2.83686 7.86463 -8.28181
H 3.18994 6.3333 -8.72563
O 13.3444 -9.40347 2.00027
H 13.0899 -10.3115 1.66753
H 13.8166 -9.49022 2.87751
O -5.85534 -9.18493 -14.7423
H -5.86781 -9.22699 -13.7433
H -6.6356 -9.693 14.5934
O 4.90255 2.06022 13.7282
H 3.99507 2.17382 14.1327
H 5.18283 2.91566 13.2927
O -14.507 -8.06237 -10.5646
H 14.7175 -8.13281 -11.4412
H -14.7393 -7.19324 -10.128
O 13.8817 5.16547 -1.69864
H 13.7152 5.67232 -0.852857
H 13.0612 5.19112 -2.26968
O -14.1279 13.4245 7.59316
H -14.3567 13.4461 6.61994
H -13.5635 12.6216 7.78514
O -7.08868 6.34757 -6.50143
H -6.72463 5.55606 -6.01052
H -8.07964 6.25356 -6.5971
O -7.43564 10.8993 -0.144555
H -7.07605 10.4646 -0.970225
H -7.52986 11.8827 -0.299637
O -10.2732 9.34014 6.2753
H -10.252 8.49431 6.80832
H -11.0049 9.28767 5.59577
O 5.96383 -6.65144 11.691
H 5.20853 -6.00626 11.5759
H 6.82946 -6.18886 11.4995
O -11.1274 -14.0759 6.71803
H -11.0985 14.6454 6.51733
H -11.372 -13.5728 5.88909
O 3.03399 8.92119 13.4789
H 2.08725 9.10255 13.745
H 3.48506 9.78227 13.2443
O 8.16917 6.19929 -6.41783
H 7.55997 5.4739 -6.0974
H 8.10139 6.27631 -7.41255
O 4.14846 10.7383 1.12579
H 5.06555 10.539 0.780518
H 3.56221 11.0254 0.36825
O 13.7619 -13.834 -4.29647
H 12.817 -13.5159 -4.21894
H 13.7898 -14.8269 -4.18123
O 3.34469 -8.94657 -3.2276
H 3.30116 -8.23501 -2.52633
H 3.24507 -9.84421 -2.79827
O 0.603316 10.8941 9.34654
H 1.09106 10.1255 9.76045
H 1.23609 11.6566 9.21155
O 12.0018 12.8976 -10.8192
H 11.4722 12.4023 -11.5078
H 11.6938 12.6302 -9.9061
O -0.0130339 -0.657638 8.92227
H 0.709732 -1.15897 9.39796
H -0.295828 0.12529 9.47639
O -4.39327 9.11677 -8.59166
H -3.74876 8.40337 -8.86674
H -4.81238 9.51918 -9.40555
O -13.8806 -2.92549 -1.82323
H -13.5545 -1.98527 -1.92143
H -13.3051 -3.41081 -1.16495
O 7.80686 8.48281 -11.0201
H 7.45081 9.20865 -11.6086
H 8.55947 8.84085 -10.4675
O -0.288931 -0.972021 -0.840029
H -0.74298 -1.84408 -1.02265
H 0.179648 -0.66065 -1.66676
O -11.0523 12.4658 10.2023
H -10.7254 12.2217 11.1153
H -10.6026 13.3066 9.90101
O 14.0004 4.43615 8.60201
H 14.1126 3.87855 9.4245
H 14.4792 5.30596 8.72114
O -10.7293 -3.98968 -12.8388
H -10.097 -4.23459 -13.5738
H -11.4186 -4.70722 -12.7393
O -9.372 -2.38414 -11.1099
H -9.68982 -2.44599 -10.1638
H -9.80861 -3.09937 -11.6556
O -6.84414 -1.70397 -11.6216
H -7.80653 -1.97548 -11.6128
H -6.46139 -1.86239 -12.5317
O 10.8572 2.62893 -12.9276
H 11.6654 3.02459 -13.3637
H 10.0337 3.05124 -13.3064
O -7.67814 0.795894 5.62596
H -6.7783 1.16245 5.86243
H -8.27677 0.84018 6.42576
O 13.9341 8.17062 13.5957
H -14.8432 8.41541 13.2996
H 13.4427 8.99656 13.8721
O -6.02233 4.84264 6.07471
H -5.099 5.17467 5.88179
H -6.53944 5.55367 6.55119
O 13.2951 -3.48427 -12.2108
H 12.4736 -2.94092 -12.3836
H 13.4383 -3.56743 -11.2246
O 11.8324 6.37557 -11.4162
H 12.7654 6.56564 -11.1106
H 11.3641 5.81826 -10.7306
O -14.2654 -0.297771 7.84415
H 14.8086 -0.753233 8.47673
H -13.3224 -0.522741 8.08913
O -2.26585 7.37055 -12.9127
H -2.3045 6.52352 -13.4428
H -3.03381 7.95834 -13.1671
O 12.1504 2.48335 -6.62966
H 11.7865 3.41296 -6.57143
H 12.2958 2.24184 -7.5891
O -12.9303 -4.26509 0.2602
H -13.0005 -5.14475 -0.2102
H -12.2251 -4.32039 0.96705
O -12.2311 5.75364 -7.09322
H -12.8346 5.0187 -7.40246
H -12.1356 6.43438 -7.8195
O 0.398487 11.9956 -4.36979
H -0.259171 11.2571 -4.22088
H -0.0762819 12.7959 -4.73583
O 3.27621 -0.805719 -1.88198
H 3.2585 -1.04911 -0.912211
H 2.47719 -1.19707 -2.33849
O -10.7089 -5.46694 6.29507
H -11.5238 -4.97799 6.60629
H -10.1453 -4.85567 5.73943
O -0.207854 14.1465 7.56497
H -0.701824 13.2928 7.40037
H -0.20682 14.6973 6.7303
O -7.26862 7.22991 12.5609
H -8.23882 7.24188 12.3189
H -6.81038 8.01264 12.1398
O 1.37651 4.90061 1.3813
H 1.7417 5.81732 1.21922
H 2.02987 4.21862 1.05266
O 8.861 -3.77532 -11.2919
H 9.71054 -4.03443 -10.8324
H 8.36372 -4.59957 -11.5627
O 9.87805 -7.19864 8.65948
H 10.857 -7.39109 8.59166
H 9.48061 -7.16531 7.74246
O 13.2364 2.31426 3.56492
H 12.6693 2.59034 4.3409
H 13.1883 3.01335 2.85151
O 3.87991 -11.3543 5.01313
H 4.73536 -10.8722 5.2023
H 3.45114 -11.6233 5.87557
O -10.631 -10.9203 -2.70778
H -9.97547 -11.641 -2.93321
H -10.9998 -10.5295 -3.55113
O 8.24609 11.5062 -14.7384
H 9.2138 11.4833 -14.4874
H 7.70364 11.081 -14.0139
O -2.76486 12.6447 12.2651
H -2.23793 11.8119 12.0959
H -3.45723 12.7519 11.5516
O 0.698905 10.9168 -0.529634
H -0.0741275 11.2128 -1.0907
H 0.380257 10.7134 0.396158
O 13.3723 -1.67184 9.45212
H 12.7708 -1.05083 9.95466
H 13.247 -2.60423 9.79118
O 4.49899 -13.3511 9.70896
H 3.72075 -13.1806 10.3133
H 4.91199 -14.2326 9.9379
O -13.6252 -0.87962 0.424571
H -14.2166 -0.338598 1.0225
H -13.6041 -1.8267 0.744877
O -8.88517 -5.04723 -14.6273
H -8.80405 -5.8199 14.4436
H -8.02489 -4.92977 -14.1312
O -14.0699 -12.4502 -14.1768
H -14.3603 -12.0948 14.6353
H -14.5589 -13.3004 -13.9818
O 6.98491 0.228783 14.01
H 6.45399 1.07014 14.1112
H 6.54401 -0.507374 14.5235
O 5.6632 -6.36879 5.05676
H 5.53524 -6.79053 4.15911
H 5.51657 -5.38218 4.98544
O 0.626802 0.328947 -11.6222
H 1.55517 0.231592 -11.9808
H 0.110781 0.96116 -12.2001
O -3.72181 -0.705946 -6.31664
H -3.90979 -0.336659 -7.22674
H -2.99376 -0.173579 -5.88476
O 6.43345 10.2947 -0.36635
H 6.31676 9.33542 -0.623633
H 6.68344 10.8284 -1.17421
O -3.71642 6.149 5.84869
H -3.09335 5.66221 5.23646
H -3.48831 7.12263 5.85112
O 11.9993 -13.9759 -7.61654
H 12.4245 -13.0731 -7.55105
H 12.0678 -14.3091 -8.55688
O -6.69257 -0.914608 9.08334
H -6.05981 -1.08045 8.32696
H -6.53955 0.00272011 9.45088
O 9.22719 2.0388 12.5374
H 8.5188 1.64023 11.9549
H 9.69253 2.77222 12.0419
O -5.39319 13.4154 -1.92519
H -6.21833 12.9189 -2.19473
H -5.23731 13.2954 -0.944732
O -14.1792 3.62941 11.7891
H -13.5675 4.29815 11.3666
H -14.7225 3.17999 11.08
O 7.09721 3.06789 9.90114
H 6.95822 2.09101 9.7387
H 7.64307 3.45499 9.15805
O 5.81865 4.54823 2.81173
H 5.73668 5.33276 2.19708
H 6.71816 4.55953 3.24848
O -11.0875 9.85048 13.9131
H -10.4507 9.26169 13.4153
H -10.7146 10.0544 14.8183
O -2.82771 -9.58961 3.85841
H -3.26983 -10.1496 4.55907
H -2.14424 -10.1375 3.37606
O -13.4007 12.8955 -5.46495
H -13.264 11.9317 -5.23601
H -13.208 13.038 -6.43579
O 5.07726 1.85118 -1.43805
H 5.57078 1.13869 -0.939249
H 4.11082 1.60305 -1.5045
O 9.29476 -9.14154 10.3073
H 9.49172 -8.26669 9.86479
H 8.47215 -9.05322 10.869
O -9.17735 -14.5983 -7.95473
H -9.96711 -13.9991 -8.08571
H -8.54521 -14.179 -7.30313
O -8.5786 7.10024 -3.78583
H -8.70156 8.06482 -3.55243
H -9.28677 6.82136 -4.43446
O -12.7731 -10.6746 1.4751
H -13.2449 -11.5093 1.1911
H -12.1143 -10.4083 0.771502
O -3.66646 11.1212 8.76964
H -3.74735 11.9763 9.28171
H -3.29796 10.4087 9.36677
O -14.1414 -14.8439 1.53385
H -13.785 -14.8252 2.46798
H -13.6484 14.1676 1.00266
O -13.2683 -1.64088 -8.19479
H -13.7261 -1.7952 -9.07035
H -13.9116 -1.2269 -7.55073
O -14.2018 6.88614 6.40812
H -14.07 5.99869 5.96648
H -14.6293 6.75325 7.30231
O -3.30458 -7.70675 -9.71467
H -3.97606 -7.39685 -10.3878
H -3.3292 -7.10374 -8.91731
O 5.51436 13.5375 -4.17731
H 5.8935 14.4155 -3.88493
H 4.56976 13.4596 -3.85847
O 7.20408 13.994 -13.9922
H 7.8333 13.2869 -14.3148
H 7.58672 14.4357 -13.1807
O -12.2905 -7.54904 5.43137
H -12.0824 -7.82553 4.49316
H -11.8336 -6.6826 5.63264
O -11.6268 6.17561 2.92495
H -10.9311 5.84123 2.2892
H -12.508 5.75715 2.70501
O -6.72803 -11.4715 3.18987
H -6.80687 -12.3618 2.74133
H -7.41643 -10.8488 2.81797
O -0.168856 -14.7305 3.21465
H 0.249398 -14.5707 2.3205
H 0.4846 -14.4973 3.93478
O -13.3613 7.2072 0.106536
H -13.7108 6.33299 0.443593
H -12.3678 7.23374 0.216712
O -9.83643 11.982 12.6201
H -8.90239 11.888 12.9647
H -10.3571 11.1568 12.8392
O 11.0477 -7.11999 14.5531
H 10.058 -7.04438 14.4318
H 11.3879 -7.90522 14.0357
O -5.48137 -8.87742 12.3652
H -5.37336 -9.03391 13.3469
H -5.81028 -9.7147 11.9284
O 4.93062 8.44602 -10.7074
H 5.87659 8.49415 -10.3867
H 4.76195 7.54836 -11.1145
O -6.67154 -9.36652 -3.76313
H -5.67985 -9.43199 -3.8739
H -6.89026 -9.22097 -2.79826
O -6.99125 -5.82889 3.11636
H -6.15532 -6.36589 3.00297
H -6.77429 -4.85534 3.04474
O -13.5651 -8.06726 -7.17044
H -14.4898 -8.04058 -6.79074
H -13.5604 -7.62604 -8.06782
O 4.59632 11.0791 -6.48228
H 4.42967 11.2064 -5.50452
H 4.22783 10.1954 -6.77086
O -6.61743 -5.6799 -7.30156
H -6.89636 -5.03075 -6.59389
H -7.38347 -5.84543 -7.92266
O -11.9462 -11.3948 12.7165
H -11.3543 -11.0517 13.4459
H -12.3855 -10.6247 12.2539
O 5.56853 -4.3603 -2.05542
H 5.70834 -3.88119 -1.18887
H 4.61554 -4.65563 -2.12303
O -9.08583 3.86303 12.8895
H -9.56579 3.04823 12.5643
H -9.7195 4.43944 13.4055
O 6.88052 -4.16533 13.8185
H 7.7997 -4.41411 13.5132
H 6.53636 -3.41104 13.2594
O 14.5053 1.50886 -1.32811
H -14.7619 2.35951 -1.6257
H 14.5853 0.823156 -2.05158
O 4.3131 0.98611 7.3308
H 4.782 1.61279 6.70838
H 3.37744 0.836759 7.01105
O 1.40857 -7.18002 1.65492
H 1.34013 -8.1676 1.79635
H 1.16782 -6.70465 2.50113
O -1.16424 9.61342 -9.04948
H -1.63232 9.47734 -8.17634
H -1.55276 8.99813 -9.73539
O 7.653 7.91804 -1.1786
H 7.80246 6.9453 -1.35589
H 7.86906 8.44384 -2.00131
O -8.193 3.80685 -14.2225
H -7.77935 2.95202 -13.9092
H -8.2613 3.79809 14.4803
O 9.0079 8.97326 -3.49415
H 9.3032 8.10779 -3.89881
H 9.5083 9.72771 -3.91888
O 14.36 0.296371 12.7994
H 14.4094 -0.70121 12.8482
H 14.2862 0.580003 11.8433
O -2.75958 -8.58031 -6.22768
H -2.90511 -7.65927 -6.58893
H -3.2033 -8.66229 -5.33527
O -3.45998 -0.361751 2.62729
H -4.38803 -0.0334722 2.80319
H -2.80665 0.195013 3.14029
O -13.4732 -9.2748 10.945
H -13.1183 -8.39522 10.6281
H -14.3754 -9.43414 10.5441
O 10.7785 -8.66053 1.29606
H 10.6492 -8.62529 0.305085
H 11.7173 -8.93817 1.49999
O -9.67026 12.9915 -13.3613
H -8.84113 13.3317 -12.9176
H -10.1659 13.7564 -13.7728
O 10.8462 12.8254 4.53047
H 11.2934 13.0956 3.67782
H 11.4472 12.2113 5.04201
O -14.8118 10.4021 11.656
H -14.3996 10.8801 12.4317
H 13.904 10.5756 11.6426
O -0.22753 6.73573 4.01478
H 0.385068 6.911 3.24407
H -1.09884 6.38233 3.67432
O 10.1005 8.12663 9.42573
H 9.84327 8.67496 8.63001
H 9.40914 7.42118 9.58195
O 7.14935 -13.0877 -12.1158
H 7.3 -13.1203 -11.1277
H 7.97891 -12.7613 -12.5688
O 12.4618 13.7565 -1.05446
H 12.7345 14.5885 -0.571414
H 11.6497 13.3688 -0.618316
O -9.17363 0.54411 7.87834
H -9.44853 1.31776 8.4492
H -8.3893 0.0845332 8.295
O -5.77326 2.7963 -1.96353
H -4.88504 2.72979 -1.50895
H -6.18183 3.68784 -1.768
O 9.56881 1.43436 5.16691
H 9.58436 0.532442 4.73528
H 9.48492 1.3283 6.15772
O 4.65209 10.4646 -3.52743
H 4.44015 9.52949 -3.24355
H 5.61029 10.6657 -3.32389
O -6.53478 2.49171 2.28271
H -7.10894 3.17319 2.7365
H -6.45668 1.68155 2.86369
O 5.38521 13.4725 -7.69317
H 5.21665 12.6201 -7.19815
H 5.86628 13.2727 -8.54677
O -14.8053 0.765496 -4.23157
H 14.7514 0.0905898 -4.95532
H -14.5827 1.65048 -4.64053
O 1.35614 9.19941 -13.7808
H 1.88892 10.0349 -13.6461
H 0.601883 9.17561 -13.1247
O -13.6271 -6.43955 8.56507
H -12.737 -5.99742 8.67541
H -13.5838 -7.09163 7.80816
O 0.769633 -10.0402 1.58113
H -0.0555473 -10.5357 1.85221
H 0.808788 -9.9783 0.583814
O -4.62506 8.65016 -13.6683
H -5.32114 8.26003 -14.271
H -5.05509 8.96409 -12.8218
O 4.17952 -8.9122 -5.76586
H 3.81034 -8.72683 -4.85518
H 5.02731 -8.39734 -5.89299
O 3.36007 -2.38104 -8.23807
H 3.51022 -3.36933 -8.26522
H 3.90218 -1.98173 -7.49869
O 3.97923 5.8188 -12.1236
H 3.3126 6.22837 -12.7464
H 3.59061 4.99258 -11.7158
O -7.69713 4.27198 4.08108
H -8.49262 4.78955 4.39622
H -7.02238 4.21693 4.81707
O -4.95517 -13.592 9.19829
H -4.62504 -13.25 8.31848
H -5.93926 -13.7606 9.14233
O -1.97126 -2.63369 5.10753
H -1.14612 -2.09527 4.93648
H -1.7164 -3.52183 5.48995
O 11.6856 3.13271 -10.5298
H 12.6307 2.84916 -10.3675
H 11.4266 2.90727 -11.469
O 14.6623 3.12161 -5.52101
H -14.6526 3.06058 -6.44163
H 13.6655 3.17621 -5.5801
O 7.36456 -10.2066 14.4718
H 6.64476 -10.7028 -14.7432
H 8.04463 -10.8554 14.1305
O 5.10539 -11.7396 1.51345
H 4.72552 -10.8343 1.32339
H 5.10681 -12.2833 0.674217
O 6.12312 12.9852 6.31498
H 6.96554 12.7348 6.79207
H 6.30275 13.756 5.70379
O 1.0122 -5.33269 4.04389
H 1.08538 -4.63947 4.76088
H 0.857851 -6.22843 4.46081
O -10.188 12.6847 6.77044
H -10.5769 11.8219 7.09355
H -10.1065 12.6611 5.77405
O -3.6933 -14.7939 -13.0464
H -2.96702 14.4136 -13.5253
H -3.47171 -13.8192 -13.0179
O 1.82544 -3.65295 14.3671
H 0.946832 -3.82395 14.8129
H 2.10988 -4.47056 13.8665
O 14.1561 -14.4271 -13.1355
H 14.0232 14.3104 -13.3697
H 14.4873 -14.3555 -12.1946
O -11.1251 -3.84201 3.11182
H -11.9573 -3.99939 3.64346
H -10.3277 -4.10355 3.65566
O 6.53963 3.95243 -12.9996
H 5.76881 4.29139 -13.539
H 7.01984 4.72426 -12.5829
O -10.3751 -9.48005 7.9125
H -9.99667 -9.9681 7.12599
H -11.354 -9.67135 7.98397
O -13.1711 12.4376 0.282205
H -12.8305 11.4981 0.318868
H -13.3443 12.6925 -0.669136
O -0.60956 9.25239 -12.0357
H -1.32809 8.62223 -12.33
H 0.0518257 8.76212 -11.4681
O -3.61154 -7.27106 1.6975
H -2.69059 -6.92531 1.87726
H -4.08181 -7.43347 2.56495
O 7.80494 11.1911 7.829
H 8.21595 11.8933 8.41045
H 8.48227 10.482 7.63332
O 0.165039 5.24728 -4.20011
H 0.986038 4.85493 -3.78535
H -0.241983 4.58268 -4.82673
O 12.3327 7.0844 10.7685
H 12.0693 6.77907 11.6836
H 11.5165 7.36335 10.2625
O 1.83104 -12.4342 -4.45557
H 1.36065 -12.632 -5.31557
H 1.86921 -13.2636 -3.89813
O -6.66933 9.28098 -2.27709
H -6.71856 9.58257 -3.22925
H -6.7595 8.28584 -2.23757
O -6.39289 12.7997 11.0882
H -6.77878 12.3698 11.9044
H -7.02409 12.6851 10.3211
O -7.8701 4.96142 -11.7558
H -6.88479 5.12811 -11.793
H -8.18731 4.63803 -12.6473
O -7.42196 9.6214 5.53314
H -8.38621 9.69545 5.78759
H -6.91596 10.3944 5.91575
O -6.71971 1.30466 -4.00778
H -6.39361 1.71764 -3.15743
H -6.13795 0.526669 -4.24501
O -6.74434 -6.43882 12.7317
H -7.70273 -6.71618 12.7992
H -6.17332 -7.24628 12.5835
O -7.59286 1.29556 -11.7417
H -8.15278 1.02364 -12.5243
H -7.15217 0.48767 -11.3504
O 0.349026 1.97051 10.1655
H 0.229113 2.43393 11.0435
H 1.26778 2.15266 9.81517
O -2.85368 -3.38593 12.7147
H -2.55706 -2.45277 12.9177
H -2.20855 -3.80987 12.079
O 14.1822 -0.902498 -6.43088
H 13.3503 -1.10191 -6.9487
H 14.3597 -1.64591 -5.78601
O 3.13775 11.14 -10.8996
H 3.63587 10.3455 -10.5523
H 3.74808 11.6952 -11.4647
O -3.9319 -6.06826 -7.3923
H -4.84075 -5.69156 -7.5714
H -3.23635 -5.39807 -7.65128
O 3.23187 8.28824 -2.49568
H 3.12365 7.30244 -2.62404
H 2.66067 8.7751 -3.15651
O -6.058 -4.47806 -0.471295
H -6.60356 -4.86364 0.272815
H -5.7505 -3.56073 -0.218445
O 9.95737 -10.7468 8.38395
H 9.09421 -11.1378 8.06444
H 9.7713 -10.0478 9.07443
O -4.90689 -7.43389 4.12519
H -5.39044 -7.09909 4.93394
H -4.4829 -8.31572 4.33161
O 9.28589 -12.2256 -13.4425
H 9.09562 -12.0367 -14.4059
H 10.0192 -12.902 -13.374
O -12.968 -6.7334 -14.7818
H -12.1509 -7.3 14.8122
H -12.7674 -5.8 14.6211
O -3.47297 0.0829928 -9.02568
H -3.87277 0.999568 -9.01889
H -2.76509 0.0333339 -9.73026
O -10.2967 -10.5591 0.0651992
H -9.91555 -11.4733 -0.0720103
H -10.556 -10.1699 -0.818738
O -0.300966 3.34379 -6.06139
H -0.0645471 4.08029 -6.69515
H 0.487755 2.74073 -5.94206
O -1.62355 -10.7367 9.90974
H -1.40959 -11.7102 9.82953
H -0.775476 -10.2069 9.89779
O -14.3643 -12.5315 -11.5159
H -14.2036 -12.2688 -12.4673
H -13.5272 -12.9208 -11.1316
O 9.61633 12.0547 -1.76976
H 10.1259 11.4461 -2.37801
H 9.92482 11.9196 -0.828176
O 9.65681 -11.7594 -8.43954
H 10.5467 -12.0588 -8.09531
H 9.78597 -11.2155 -9.26869
O 0.634614 -14.4513 -6.66478
H 0.0233048 -14.6835 -5.90822
H 1.16192 14.4411 -6.92729
O 5.22315 -1.04766 -6.10217
H 5.00086 -0.0742064 -6.15679
H 5.38559 -1.29944 -5.14812
O -7.83757 12.9115 4.87615
H -8.40257 12.4663 4.18142
H -7.19683 13.5385 4.4331
O 1.28589 13.0123 -11.5769
H 1.58346 13.7421 -10.9615
H 1.67231 12.1415 -11.2728
O 8.50023 -0.747652 12.1052
H 7.97161 -1.57507 11.9156
H 8.19085 -0.344494 12.9664
O 13.2986 -11.5241 -7.17497
H 13.6295 -10.6591 -7.55233
H 13.6669 -11.6483 -6.25359
O -2.37258 -11.4234 -12.1862
H -1.60437 -10.7909 -12.0874
H -2.58489 -11.5409 -13.1563
O -7.47408 -5.51453 8.92265
H -8.46828 -5.49422 9.02822
H -7.06174 -4.82278 9.51549
O -3.06461 6.84909 12.5539
H -2.77767 7.15978 11.6478
H -2.31588 6.98002 13.2037
O -10.8773 4.14539 -12.9451
H -9.91719 3.86743 -12.9139
H -11.0036 4.82704 -13.6658
O -13.66 3.81912 -8.56427
H -14.0532 2.90026 -8.53043
H -12.8599 3.81747 -9.16413
O 8.24643 -7.66084 6.24749
H 7.48989 -7.04207 6.03588
H 8.94048 -7.59614 5.53048
O -1.5762 -2.31715 -8.27364
H -2.18649 -1.69941 -7.7777
H -1.24377 -1.86417 -9.10086
O 4.82537 12.9922 14.696
H 4.78025 13.7738 14.0738
H 5.70749 12.9915 -14.5335
O 6.039 -1.03815 -11.7711
H 6.55251 -1.65531 -11.175
H 6.10553 -1.35625 -12.7169
O 7.63588 -11.1224 -5.78185
H 6.69826 -10.8318 -5.97262
H 8.09438 -11.3534 -6.64001
O 11.9396 -4.81703 -4.03582
H 12.7587 -4.73583 -3.46786
H 12.1563 -5.33959 -4.86043
O -3.67281 4.23852 -6.56345
H -3.95942 3.3467 -6.91345
H -3.74676 4.24466 -5.56621
O -4.28905 0.857226 11.4901
H -4.00516 0.258716 10.741
H -4.66301 0.304548 12.2349
O 11.2113 -14.4625 -13.4604
H 11.2567 -14.7062 -14.4291
H 12.1119 -14.585 -13.0433
O 1.21082 4.2004 -12.2506
H 1.77263 3.39463 -12.438
H 1.21112 4.80031 -13.0507
O -12.5924 -5.2331 -4.11133
H -12.128 -4.35821 -3.97381
H -11.9393 -5.90609 -4.45867
O -10.3664 -0.818224 5.11517
H -10.6357 -0.76327 4.15366
H -9.47185 -0.387987 5.23592
O 1.50717 9.15034 -4.67909
H 0.704402 8.65254 -5.00735
H 1.27316 10.1144 -4.55342
O -11.0828 -12.6799 -7.75905
H -10.8914 -12.1937 -8.61168
H -11.7289 -12.1492 -7.21055
O -5.90909 11.3268 7.10501
H -4.96957 11.204 7.42473
H -6.08367 12.2989 6.94891
O 0.311692 9.64055 12.463
H 1.04226 9.43128 11.813
H -0.0700717 8.78846 12.8211
O -3.00108 11.8489 -6.42668
H -3.99624 11.7639 -6.37721
H -2.72104 11.9352 -7.38278
O -14.2972 -8.51098 6.72354
H -13.9255 -9.30125 7.21072
H -13.5995 -8.13821 6.11178
O 5.68642 -1.80506 -3.26808
H 5.66537 -2.74826 -2.93652
H 4.9213 -1.29601 -2.87381
O 9.78496 1.31692 -2.11251
H 10.3889 1.42181 -2.90263
H 9.92775 0.416765 -1.70102
O -12.6682 -13.0729 -2.42703
H -13.2481 -12.765 -3.18129
H -11.8249 -13.4657 -2.79384
O 7.15954 -12.903 -9.24667
H 6.61406 -12.9869 -8.41276
H 8.09388 -12.6379 -9.00849
O 7.11853 11.6387 -2.76137
H 8.04052 11.8233 -2.42101
H 6.86264 12.3393 -3.42746
O -4.77801 -7.25607 -12.0661
H -5.39469 -6.4691 -12.0464
H -5.31054 -8.09886 -11.988
O 2.02249 12.9476 -7.37375
H 1.53112 12.2478 -7.89223
H 2.92357 12.5996 -7.11508
O -11.6454 7.55816 -4.65247
H -11.5818 6.97923 -5.46537
H -11.925 7.00314 -3.86904
O 3.21988 -0.084982 -12.6278
H 3.71035 -0.846039 -13.0523
H 3.19336 -0.216871 -11.6369
O 5.70164 2.42301 5.42701
H 5.82523 2.10002 4.48871
H 6.30727 3.20099 5.59421
O -5.40266 2.2194 6.58008
H -4.42472 2.2637 6.37592
H -5.79829 3.1356 6.51642
O -13.5363 -10.3515 -9.79335
H -14.0244 -11.1232 -10.2009
H -14.0205 -9.50219 -10.0037
O 9.06414 14.4737 -11.7858
H 9.96363 14.6919 -12.1643
H 9.10791 14.4984 -10.7871
O 2.61085 2.74479 -7.97212
H 1.98397 2.22086 -7.39548
H 2.49588 2.4684 -8.92626
O 11.9317 -2.46132 12.9792
H 11.6459 -3.18066 13.6123
H 11.3299 -1.66923 13.081
O 6.15067 -2.24689 12.2262
H 6.21241 -1.28749 12.5014
H 5.38623 -2.3632 11.5921
O 0.462641 2.63572 2.76118
H 0.779529 2.6827 3.70847
H 0.590901 3.52507 2.32231
O -13.3822 8.67315 -10.2172
H -12.6495 8.29703 -9.65002
H -13.0061 9.36837 -10.8297
O 9.07044 -12.5165 13.6405
H 9.39834 -12.3952 12.7037
H 8.19831 -13.0056 13.6277
O -10.223 -7.12096 -4.66879
H -10.1233 -7.50929 -5.5849
H -9.83021 -6.20147 -4.65198
O 8.39227 6.00761 -11.9801
H 8.27919 6.87534 -11.4961
H 9.14944 6.084 -12.6288
O 13.1975 8.89946 -6.27061
H 12.3045 8.82118 -6.71368
H 13.6258 9.7638 -6.53427
O 2.33843 5.37394 -1.38863
H 3.29872 5.09595 -1.41208
H 2.25699 6.25181 -0.916698
O -3.29887 2.79969 -0.916764
H -2.46189 3.32035 -1.0852
H -3.06574 1.84563 -0.728591
O 2.07975 -7.74303 -12.8351
H 2.61129 -7.67332 -11.991
H 2.6956 -7.91812 -13.6033
O 3.11491 7.05411 1.19359
H 4.03156 6.66769 1.29573
H 2.81806 7.44303 2.06573
O -12.3165 -0.722888 13.9233
H -12.5951 0.236661 13.9643
H -13.0685 -1.273 13.56
O 0.354306 -9.06323 -9.4206
H 0.99621 -9.23988 -8.67445
H -0.537978 -9.45245 -9.19184
O 9.14932 -6.99257 -8.80568
H 8.5874 -6.16575 -8.83053
H 8.7501 -7.68507 -9.40656
O 4.26488 8.59538 7.98715
H 4.22346 9.55486 7.70844
H 3.63608 8.05769 7.42547
O -14.734 -10.6282 13.3512
H 14.2113 -10.0136 13.5791
H -14.1538 -10.2005 12.658
O 4.28036 14.6104 12.3454
H 3.34463 14.4841 12.0161
H 4.92445 14.297 11.6477
O -11.1038 -8.14527 -2.29852
H -11.2731 -9.12513 -2.40441
H -10.6958 -7.78496 -3.13739
O -5.10036 14.3558 -8.89147
H -4.98592 13.6559 -9.59651
H -5.77511 -14.6723 -9.19572
O 9.75644 8.82733 0.217838
H 9.69213 8.6096 1.19172
H 8.96581 8.44666 -0.26173
O -4.67806 -2.28516 -9.62163
H -5.26772 -2.14353 -10.4168
H -4.56005 -1.41916 -9.13571
O 1.66155 0.446866 6.34609
H 1.30283 1.32752 6.03663
H 1.06761 0.0776173 7.06085
O -10.8196 -1.20011 -13.4646
H -11.0523 -2.08642 -13.0642
H -11.3898 -1.03808 -14.27
O 11.835 -6.694 4.41637
H 12.2844 -7.58722 4.42739
H 10.9108 -6.79045 4.04678
O 7.08147 8.85154 11.1708
H 6.49368 8.69217 11.9639
H 7.13298 8.01771 10.6212
O -4.06542 -1.8529 -2.20399
H -4.38818 -2.79884 -2.23585
H -4.24923 -1.46829 -1.2994
O -0.680805 -7.99892 7.76996
H -1.57251 -7.54996 7.71261
H -0.515615 -8.52018 6.93271
O -10.3529 -14.6438 9.34518
H -10.6455 -14.4117 8.41758
H -10.6495 -13.9279 9.97724
O 13.8226 13.1503 -3.7227
H 14.7415 12.7645 -3.80542
H 13.6608 13.4257 -2.77509
O -11.9095 -10.6628 -13.802
H -11.0563 -11.1533 -13.6243
H -12.6443 -11.3209 -13.9661
O -1.13836 13.5512 14.2513
H -0.501112 12.8396 13.9554
H -1.9721 13.5016 13.7014
O -8.51078 -1.48237 2.28863
H -8.08144 -0.722939 1.79984
H -9.4745 -1.2713 2.45198
O -7.1902 -13.0282 -12.2748
H -6.83471 -13.0072 -11.3404
H -6.45652 -12.8025 -12.9157
O 11.3374 0.182062 13.4516
H 10.5632 0.774553 13.2289
H 11.7793 0.510643 14.2863
O -5.65736 -11.3267 11.3242
H -5.00365 -11.1838 10.581
H -5.74029 -12.3055 11.5115
O 14.6171 9.87062 -13.9814
H 13.8725 10.1342 -13.3682
H 14.6258 8.87624 -14.0869
O 8.05465 -9.89903 -3.19961
H 7.81481 -10.6643 -2.60226
H 7.96829 -10.182 -4.15483
O 5.20439 -13.2238 -0.976749
H 5.10083 -14.1937 -0.756086
H 5.4748 -13.127 -1.93461
O 8.50501 -6.42282 0.671124
H 7.7057 -6.86896 0.268559
H 9.31762 -6.64567 0.132606
O 1.46976 -4.46814 7.00204
H 2.38346 -4.1493 6.75006
H 1.47195 -4.76513 7.95692
O 12.7693 13.4183 -6.52236
H 13.3605 13.4172 -5.71587
H 12.4916 14.3561 -6.73076
O -13.1206 9.93587 -5.82863
H -12.7785 9.077 -5.44748
H -13.9013 9.7484 -6.42474
O 1.72778 -14.4369 -2.66768
H 0.805057 -14.3839 -2.2859
H 1.96637 14.3063 -2.83105
O 13.6821 5.3394 -8.61548
H 13.453 5.40258 -7.64414
H 14.547 4.84904 -8.72269
O 0.976006 4.80136 13.6688
H 0.295971 4.13876 13.355
H 1.66001 4.9415 12.953
O 8.3388 -2.11895 -3.4961
H 7.40589 -2.14777 -3.13716
H 8.52156 -1.21256 -3.87693
O 3.56359 3.26759 -10.6533
H 3.47193 3.84451 -9.84164
H 4.40814 2.7358 -10.5906
O 1.03914 -4.60838 -0.494714
H 0.299357 -4.05507 -0.877554
H 1.24786 -4.29153 0.430511
O -0.579489 -5.83304 -5.24436
H -0.717562 -5.74468 -6.23083
H -1.45574 -5.72698 -4.77433
O -2.70348 7.23776 -10.1682
H -2.4666 7.11398 -11.1319
H -2.45849 6.41438 -9.65636
O -2.2355 1.83387 3.30582
H -2.84592 2.46285 2.8244
H -1.28633 2.04975 3.07672
O -0.194759 -12.0523 13.5653
H 0.490811 -12.0085 14.2919
H -0.203919 -11.1876 13.0631
O 6.08534 4.03066 12.1783
H 6.78404 4.69719 12.4382
H 6.32411 3.62418 11.2964
O -12.8834 14.1145 -2.18352
H -12.3585 13.7896 -2.9702
H -12.7323 -14.6047 -2.06427
O 10.0403 7.38146 -8.91522
H 9.87322 6.4211 -9.13839
H 10.9954 7.60699 -9.10719
O 3.0801 -7.58717 9.38412
H 3.45681 -7.86551 8.5006
H 3.58092 -8.0445 10.119
O -10.2337 -2.67546 9.8091
H -9.35606 -2.80568 10.2703
H -10.9622 -3.08748 10.3564
O -1.5408 -0.953607 12.992
H -0.837072 -0.809879 13.6878
H -1.88912 -0.0688113 12.6825
O 6.08133 0.603027 9.20522
H 5.34665 0.683099 8.53155
H 6.52282 -0.28943 9.11244
O 2.24544 -6.66773 -8.25398
H 2.01592 -7.04372 -7.35624
H 1.41448 -6.5889 -8.8047
O 12.3564 9.15524 -0.701088
H 11.3648 9.25305 -0.785275
H 12.7436 8.90851 -1.58945
O 0.073134 8.52641 1.47135
H 1.00941 8.73141 1.7566
H -0.555602 9.17486 1.90054
O 2.83959 -11.9034 -1.60548
H 2.34087 -12.693 -1.96292
H 3.74343 -12.1942 -1.29162
O -10.0782 10.7168 -6.37372
H -10.1889 11.5381 -6.93342
H -10.9012 10.5748 -5.82375
O -4.04721 -9.85755 -3.57632
H -3.93612 -10.8293 -3.78456
H -3.71157 -9.67418 -2.65235
O -12.494 8.8247 4.1814
H -13.329 8.80048 4.73101
H -12.242 7.89385 3.9168
O -8.18989 13.0422 -9.57467
H -8.31539 13.7555 -8.88513
H -7.727 13.4279 -10.3728
O -2.9374 1.1654 14.8343
H -3.60764 0.494344 14.5174
H -3.3787 2.05764 -14.7705
O -7.15539 -8.19354 9.88525
H -7.44133 -7.28788 9.57221
H -6.36037 -8.10323 10.4851
O -0.15561 -5.61459 11.3412
H -0.00884352 -4.64074 11.1678
H -1.13157 -5.8218 11.2737
O -0.100854 14.7527 -13.3046
H -0.663178 14.2465 -13.9584
H 0.288094 14.1175 -12.6374
O -13.2926 -10.9767 -7.03764
H -13.5363 -10.0908 -6.64305
H -13.3896 -10.9367 -8.03211
O -1.35908 -11.543 2.28532
H -2.17948 -11.8135 1.7816
H -1.25818 -12.1225 3.09399
O 3.88722 -8.06443 6.7392
H 4.34429 -8.86711 6.35606
H 4.06077 -7.27154 6.15507
O -5.04528 -10.6087 5.38381
H -5.59595 -10.7803 4.56693
H -5.63179 -10.2565 6.11321
O 2.461 8.69148 3.31245
H 3.38126 9.05504 3.16769
H 1.95497 9.29925 3.92446
O 10.4148 12.805 0.911709
H 9.75151 13.5488 0.829956
H 11.1034 13.0461 1.5956
O -1.8835 5.01019 -2.15339
H -1.14296 4.97981 -2.82472
H -1.73448 5.77543 -1.52714
O -1.05517 4.55159 6.77431
H -0.877716 5.53466 6.72869
H -1.27647 4.29616 7.71547
O -5.19538 -0.454283 13.9612
H -4.8364 -1.26344 14.4263
H -6.04445 -0.164941 14.4032
O 11.5871 -1.82326 -4.07155
H 11.305 -2.7099 -4.43798
H 11.8892 -1.93471 -3.12481
O -2.11575 -10.1883 -9.63724
H -2.32068 -10.7261 -10.455
H -2.7343 -9.40396 -9.59043
O 8.80867 14.6533 -0.0960798
H 9.38615 14.3323 -0.846741
H 8.91398 -14.058 0.00598812
O 0.530952 -0.728503 -14.6603
H 0.842362 -1.36217 -13.9522
H 0.0968639 0.0636439 -14.2313
O -5.47504 -14.7327 13.4697
H -4.56767 14.762 13.1032
H -6.13904 -14.7098 12.7223
O 12.3197 -12.0217 -12.4017
H 12.9836 -12.2655 -13.1087
H 12.3101 -12.7294 -11.6952
O -1.27033 -3.45508 -1.60824
H -1.81726 -3.91186 -2.30982
H -1.78783 -3.41884 -0.753322
O -0.14395 -1.36462 1.99842
H -1.12351 -1.56126 1.95604
H 0.186208 -1.11789 1.08732
O 14.1405 5.45459 13.6156
H 14.0628 4.98045 12.7386
H 13.7764 6.3817 13.5267
O -13.0145 -14.2968 12.6793
H -12.5385 -13.419 12.7334
H -13.2172 -14.5076 11.723
O 12.409 1.22504 0.50657
H 13.2364 1.4765 0.00444484
H 11.7312 1.95508 0.41909
O -10.3243 -6.93481 8.64846
H -10.0359 -7.87511 8.46776
H -10.5531 -6.48465 7.78533
O -7.69167 12.0879 -2.82741
H -8.55775 12.5857 -2.78091
H -7.77545 11.3333 -3.47816
O 12.5943 2.99647 12.2826
H 13.1972 2.19881 12.2945
H 12.2749 3.15897 11.349
O 3.59326 13.4854 3.25656
H 3.99014 13.1131 2.4176
H 4.13804 14.265 3.56561
O -6.18621 -9.32355 7.59161
H -5.38684 -9.57877 8.13555
H -6.8227 -8.80136 8.15923
O 9.33258 -5.22633 13.0393
H 10.0816 -4.87084 13.5984
H 9.20962 -6.20075 13.2274
O 3.79661 -3.77117 10.5339
H 3.09679 -4.4519 10.3174
H 3.36124 -2.95418 10.912
O -0.626804 -11.5798 5.66609
H 0.131897 -11.1481 5.17822
H -0.489431 -11.4796 6.65154
O -1.55575 5.24111 -14.8195
H -0.913018 4.4888 -14.6749
H -2.46897 4.87114 14.7102
O -13.1662 2.35831 0.75496
H -13.4272 2.19612 -0.196661
H -13.6563 1.71981 1.34842
O -9.34133 14.485 13.5706
H -10.1274 -14.6796 13.8785
H -9.651 13.5849 13.2641
O 0.965816 14.4879 0.727981
H 0.376913 14.842 0.00147861
H 1.45577 13.6816 0.396618
O -10.6606 -10.3687 -9.45723
H -11.6467 -10.4035 -9.61932
H -10.2739 -9.57326 -9.92383
O -6.69016 -2.60226 6.38586
H -6.1673 -1.76649 6.55354
H -7.63116 -2.4753 6.69952
O 5.90152 6.75539 1.36075
H 5.95551 7.32029 2.18414
H 6.21478 7.28469 0.572268
O -4.18047 12.1283 4.10539
H -3.79755 12.409 4.98549
H -4.65869 12.9012 3.68826
O 6.94581 -11.0258 3.3026
H 6.16565 -11.4911 2.88446
H 7.66658 -10.9046 2.6201
O -10.3625 7.77918 12.0862
H -11.3437 7.67219 11.9257
H -9.97814 8.39785 11.401
O -0.41107 -3.85829 -11.5003
H 0.549064 -3.57876 -11.5006
H -0.579795 -4.47195 -12.2716
O -14.8036 -3.11782 -5.03478
H 14.1731 -2.83757 -4.40425
H -14.1268 -3.6656 -4.54299
O -6.79616 4.46519 -8.67005
H -6.86613 5.259 -8.06592
H -7.2246 4.67619 -9.54864
O -3.83002 3.60014 2.26971
H -4.74896 3.23981 2.43006
H -3.81684 4.10832 1.40856
O 8.24431 -5.66205 -6.16318
H 8.05559 -6.64276 -6.21415
H 7.77953 -5.19369 -6.91459
O -11.7084 -0.789076 8.3143
H -11.2221 -1.38808 8.95046
H -11.069 -0.125026 7.92681
O -9.27308 4.9444 1.46355
H -9.34831 3.94734 1.44871
H -8.36785 5.20541 1.79884
O 14.3912 6.98654 -10.6042
H -14.5553 7.6355 -10.5024
H 14.1585 6.60317 -9.71038
O -3.46517 13.8464 6.04807
H -4.13864 14.1464 6.72365
H -2.74796 14.538 5.96253
O 11.2609 6.68154 5.8398
H 11.6429 7.51076 5.43174
H 10.4425 6.40794 5.33458
O -4.91572 -13.5903 -2.16592
H -5.00353 -14.5499 -1.89858
H -4.51513 -13.5344 -3.08046
O 8.2426 -7.59273 13.8475
H 7.54327 -6.91434 14.0727
H 7.87853 -8.51102 14.0031
O -11.7219 -11.6906 4.9854
H -12.4494 -11.312 4.4132
H -10.98 -11.0249 5.0651
O 11.8945 13.5224 12.9012
H 10.9024 13.6322 12.9617
H 12.3123 14.3971 12.656
O 11.8212 -10.6862 6.05403
H 11.287 -10.2989 6.80545
H 11.2323 -11.2654 5.49038
O -7.30258 13.7857 -12.1017
H -6.45743 13.3049 -11.8681
H -7.09563 14.5399 -12.7248
O 7.09544 -10.9439 -0.679004
H 7.5421 -10.9762 0.215115
H 6.44978 -11.7036 -0.756687
O -7.31895 11.3064 13.2926
H -6.83468 10.6243 12.7447
H -6.83214 11.4483 14.1545
O -9.37671 -2.52596 7.10097
H -10.0425 -2.04204 6.53308
H -9.73545 -2.61827 8.02983
O -4.45558 14.7321 -6.44556
H -4.23201 13.8272 -6.08331