LAMMPS data file via write_data, version 15 May 2015, timestep = 2000000

2611 atoms
6 atom types
1749 bonds
4 bond types
894 angles
3 angle types
44 dihedrals
3 dihedral types
10 impropers
1 improper types

-1.5148023750319277e+01 1.5148023750319277e+01 xlo xhi
-1.5148023750319277e+01 1.5148023750319277e+01 ylo yhi
-1.5148023750319277e+01 1.5148023750319277e+01 zlo zhi

Masses

1 15.9994
2 1.00794
3 12.0107
4 1.00794
5 12.0107
6 12.0107

Bond Coeffs # harmonic

1 1000 1
2 469 1.4
3 367 1.08
4 469 0.7

Angle Coeffs # harmonic

1 100 109.47
2 35 120
3 63 120

Dihedral Coeffs # opls

1 0 7.25 0 0
2 0 7.25 0 0
3 0 7.25 0 0

Improper Coeffs # cvff

1 2.5 -1 2

Atoms # full

2199 733 2 4.0999999999999998e-01 -1.0134637239676746e+01 -5.8628268843541864e+00 -1.1691668868899823e+01 1 0 0
2197 733 1 -8.1999999999999995e-01 -9.4110341192010303e+00 -6.0040991578543288e+00 -1.1016032304449755e+01 1 0 0
1154 385 2 4.0999999999999998e-01 -9.3174153496501120e+00 -8.3379465832506625e+00 -1.0704549311306332e+01 0 1 -1
1153 385 1 -8.1999999999999995e-01 -8.9930201812451447e+00 -8.9152883939951959e+00 -9.9552240866289843e+00 0 1 -1
2024 675 2 4.0999999999999998e-01 -1.1232095583925966e+01 -1.2247030231812444e+01 -1.1884377471635446e+01 1 1 -1
1155 385 2 4.0999999999999998e-01 -9.7539045355019915e+00 -9.1216589901801441e+00 -9.3399922099720882e+00 0 1 -1
2198 733 2 4.0999999999999998e-01 -9.8177499593933426e+00 -6.2768505953857492e+00 -1.0144118909493786e+01 1 0 0
2023 675 1 -8.1999999999999995e-01 -1.0984566300267296e+01 -1.1494059322816563e+01 -1.1274616719426708e+01 1 1 -1
2025 675 2 4.0999999999999998e-01 -1.0550089766649066e+01 -1.0765420069816399e+01 -1.1804106163922045e+01 1 1 -1
1392 464 2 4.0999999999999998e-01 -1.2168627022830112e+01 -1.0430133569068765e+01 -1.0470958757484755e+01 1 2 -1
1390 464 1 -8.1999999999999995e-01 -1.2659226682666608e+01 -9.8531196098928984e+00 -9.8179572558579586e+00 1 2 -1
331 111 1 -8.1999999999999995e-01 -1.0332459216567095e+01 -9.0116128859798508e+00 -1.2596084377089436e+01 0 1 1
1544 515 2 4.0999999999999998e-01 -8.2041749012975504e+00 -1.2973777161196463e+01 -8.3250611243989017e+00 1 1 -1
1391 464 2 4.0999999999999998e-01 -1.2003550170283907e+01 -9.4091393364999938e+00 -9.2072085958351977e+00 1 2 -1
911 304 2 4.0999999999999998e-01 -9.6050991758907376e+00 -1.2257797384928841e+01 -1.0291467889666034e+01 1 2 -1
910 304 1 -8.1999999999999995e-01 -8.6741321131965083e+00 -1.2497560765418392e+01 -1.0016044676148613e+01 1 2 -1
1603 535 1 -8.1999999999999995e-01 -1.0808586565799061e+01 -5.4143092593358713e+00 -8.4065497879412625e+00 0 1 1
1104 368 2 4.0999999999999998e-01 -1.1454759758262711e+01 -7.3197927263898936e+00 -8.5445942710308174e+00 1 3 0
2437 813 1 -8.1999999999999995e-01 -1.2026055684080090e+01 -1.3500062893461523e+01 -1.2552505644178895e+01 0 2 2
1102 368 1 -8.1999999999999995e-01 -1.1085488913918182e+01 -8.1858253803810719e+00 -8.2074435971156419e+00 1 3 0
1514 505 2 4.0999999999999998e-01 -1.4601442619916490e+01 -1.2840295808517226e+01 -8.2119783993164326e+00 1 2 -1
2439 813 2 4.0999999999999998e-01 -1.1557627201567112e+01 -1.3433975675959122e+01 -1.3433556892923368e+01 0 2 2
1223 408 2 4.0999999999999998e-01 -1.3119228982397299e+01 -1.1066524673126793e+01 -8.4156537826884019e+00 0 2 2
2500 834 1 -8.1999999999999995e-01 -1.1475876087841435e+01 -7.1405506881576493e+00 -1.4460301246118702e+01 1 0 1
1877 626 2 4.0999999999999998e-01 -9.1041147535544695e+00 -1.2406580073475226e+01 -1.4512281545109557e+01 1 1 0
333 111 2 4.0999999999999998e-01 -1.0929661001840163e+01 -8.4979499962308829e+00 -1.3212156184571827e+01 0 1 1
2438 813 2 4.0999999999999998e-01 -1.2082985705431264e+01 -1.4459529348514675e+01 -1.2276412938251831e+01 0 2 2
332 111 2 4.0999999999999998e-01 -9.5318229500089870e+00 -9.3348212130500166e+00 -1.3100625652563773e+01 0 1 1
1701 567 2 4.0999999999999998e-01 -7.8575062626169681e+00 -9.9188407262309966e+00 -1.1007992560430434e+01 -1 4 0
2501 834 2 4.0999999999999998e-01 -1.1373299813194778e+01 -6.2584530144435959e+00 -1.4000490521241355e+01 1 0 1
1222 408 1 -8.1999999999999995e-01 -1.3610932264016727e+01 -1.1529880271429139e+01 -7.6783793665317077e+00 0 2 2
1026 342 2 4.0999999999999998e-01 -7.6964173491620240e+00 -1.4133367112255989e+01 -9.9205512547264583e+00 2 3 0
437 146 2 4.0999999999999998e-01 -1.4153459162965117e+01 -9.2437383582462616e+00 -1.0326700325037045e+01 0 2 -1
1513 505 1 -8.1999999999999995e-01 -1.4968924392623146e+01 -1.3615638104957581e+01 -8.7256374119920324e+00 1 2 -1
1720 574 1 -8.1999999999999995e-01 -1.4730691639433914e+01 -5.4704078122347184e+00 -7.8929192369886891e+00 1 2 1
1876 626 1 -8.1999999999999995e-01 -9.9192567275054593e+00 -1.2806370321510911e+01 -1.4931513471651639e+01 1 1 0
912 304 2 4.0999999999999998e-01 -8.0255792330326763e+00 -1.1878721621750335e+01 -1.0459284307590814e+01 1 2 -1
430 144 1 -8.1999999999999995e-01 -1.4753247490604663e+01 -1.5037250005971947e+01 -1.3967158411716774e+01 0 0 0
436 146 1 -8.1999999999999995e-01 -1.5076609932654476e+01 -9.1140539030397498e+00 -1.0688665397563248e+01 0 2 -1
2528 843 2 4.0999999999999998e-01 -7.7845682635656610e+00 -5.2613851122235396e+00 -1.1371856600658569e+01 0 0 -1
1601 534 2 4.0999999999999998e-01 -1.4276083351935533e+01 -1.1952125117436488e+01 -1.4786296840878641e+01 0 2 -1
2502 834 2 4.0999999999999998e-01 -1.2408811007182205e+01 -7.2278278526222071e+00 -1.4809670998768844e+01 1 0 1
1515 505 2 4.0999999999999998e-01 -1.5025064907783365e+01 -1.4415149785073197e+01 -8.1275793820241979e+00 1 2 -1
2321 774 2 4.0999999999999998e-01 -1.3702098184468804e+01 -5.1614736582793235e+00 -1.5093471005589459e+01 2 0 1
1103 368 2 4.0999999999999998e-01 -1.0283523512730380e+01 -8.0068694950011974e+00 -7.6374695659003633e+00 1 3 0
1024 342 1 -8.1999999999999995e-01 -7.2402745310286605e+00 -1.4966745315867110e+01 -1.0232734834838732e+01 2 3 0
95 32 2 4.0999999999999998e-01 -1.2235015377572953e+00 -1.4956674642020333e+01 -7.6776238051077721e+00 0 2 -1
1025 342 2 4.0999999999999998e-01 -6.2496324131087029e+00 -1.4831317148078003e+01 -1.0214529349579969e+01 2 3 0
2091 697 2 4.0999999999999998e-01 -5.4459605135356952e+00 -5.5634893798987815e+00 -1.1060427215818427e+01 0 2 -1
2089 697 1 -8.1999999999999995e-01 -4.5941218622653341e+00 -6.0824936754884131e+00 -1.0989366960547706e+01 0 2 -1
2378 793 2 4.0999999999999998e-01 -1.4372564963595913e-01 -8.1198625365638009e+00 -1.0600792878567979e+01 0 1 -1
740 247 2 4.0999999999999998e-01 -1.3055661224572539e+00 -6.6058881996334939e+00 -7.7991566343457501e+00 1 2 -1
905 302 2 4.0999999999999998e-01 -3.1462638820211541e+00 -1.5102725956619325e+01 -1.0790363103863097e+01 2 0 1
169 57 1 -8.1999999999999995e-01 -1.6365385367442435e+00 -5.3181593454607299e+00 -8.9224232099659702e+00 0 2 1
2090 697 2 4.0999999999999998e-01 -3.8522307103035427e+00 -5.5655543659593842e+00 -1.1416468066467200e+01 0 2 -1
2061 687 2 4.0999999999999998e-01 -3.5566095227602617e+00 -8.4747673258403182e+00 -8.2559767990339328e+00 0 2 0
904 302 1 -8.1999999999999995e-01 -4.0599089980943699e+00 -1.5040505843389008e+01 -1.0388585357743015e+01 2 0 1
170 57 2 4.0999999999999998e-01 -1.7363330736991269e+00 -5.4628484417130601e+00 -9.9068774479009125e+00 0 2 1
2041 681 1 -8.1999999999999995e-01 -3.7048655812231903e+00 -1.3142208369499793e+01 -1.3068336741034377e+01 2 1 0
2042 681 2 4.0999999999999998e-01 -3.5115308973428565e+00 -1.3043238202790864e+01 -1.4044487686471077e+01 2 1 0
956 319 2 4.0999999999999998e-01 -3.1009111966605882e+00 -1.2303061126924419e+01 -8.4386650466566060e+00 0 1 -1
848 283 2 4.0999999999999998e-01 -5.1934111590439418e+00 -6.8151686309660775e+00 -9.2540500912876222e+00 -2 1 1
1087 363 1 -8.1999999999999995e-01 -5.0035054851988292e+00 -8.5262683284260845e+00 -1.4561703254779101e+01 0 1 0
788 263 2 4.0999999999999998e-01 -2.2064468315197967e+00 -9.3674108983788003e+00 -1.2118771416539644e+01 -1 1 1
787 263 1 -8.1999999999999995e-01 -1.7592388938038255e+00 -8.4730638298268488e+00 -1.2132643271596962e+01 -1 1 1
2403 801 2 4.0999999999999998e-01 -1.0116748888998277e+00 -9.1633381586135449e+00 -1.4772733382610875e+01 0 1 0
847 283 1 -8.1999999999999995e-01 -5.3298735868765110e+00 -7.6201639664439433e+00 -8.6766381067730940e+00 -2 1 1
1419 473 2 4.0999999999999998e-01 -7.1755540810249521e+00 -1.3206442147525463e+01 -1.3366048849498505e+01 1 2 2
2040 680 2 4.0999999999999998e-01 -5.1103307284126736e+00 -8.0334511076222626e+00 -1.1504683185492190e+01 0 2 0
955 319 1 -8.1999999999999995e-01 -3.9195570650076021e+00 -1.2734419554465127e+01 -8.8178654140729762e+00 0 1 -1
1089 363 2 4.0999999999999998e-01 -5.0398740313372841e+00 -8.5982096838536535e+00 -1.3564935553503316e+01 0 1 0
1676 559 2 4.0999999999999998e-01 -3.4910543948600630e+00 -1.1609392427141714e+01 -1.2058942187360557e+01 0 0 0
62 21 2 4.0999999999999998e-01 -1.0434823458234455e+00 -1.1798851454328547e+01 -8.8426748411483764e+00 1 0 0
1683 561 2 4.0999999999999998e-01 -7.1052019640468345e-01 -6.4550736714386154e+00 -1.4363328444183082e+01 0 2 1
2039 680 2 4.0999999999999998e-01 -4.2606271798507542e+00 -9.4200381827124566e+00 -1.1653425297687845e+01 0 2 0
1700 567 2 4.0999999999999998e-01 -6.3962656474276578e+00 -1.0010958262416230e+01 -1.1731203665607749e+01 -1 4 0
63 21 2 4.0999999999999998e-01 -3.6231930815028335e-01 -1.1736567422780197e+01 -1.0325537496990767e+01 1 0 0
996 332 2 4.0999999999999998e-01 -8.2715860402254826e-01 -1.4634966006482445e+01 -1.1561269595971037e+01 0 1 1
1317 439 2 4.0999999999999998e-01 -5.6094384319337909e+00 -9.9464108632416597e+00 -8.5270184826215996e+00 1 1 0
1624 542 1 -8.1999999999999995e-01 -2.3460016434786315e+00 -1.0050624198564243e+01 -1.4952941551040636e+01 2 2 2
1699 567 1 -8.1999999999999995e-01 -7.1570421867811476e+00 -1.0541347760064056e+01 -1.1357104554975432e+01 -1 4 0
2038 680 1 -8.1999999999999995e-01 -5.0479123786044493e+00 -8.9045658330019499e+00 -1.1991825028401225e+01 0 2 0
2043 681 2 4.0999999999999998e-01 -4.4971236492071416e+00 -1.3739703396702257e+01 -1.2944357139715700e+01 2 1 0
906 302 2 4.0999999999999998e-01 -4.0244854215999464e+00 -1.4472378497924314e+01 -9.5663806408483048e+00 2 0 1
1677 559 2 4.0999999999999998e-01 -2.4924789702535310e+00 -1.1148321841027151e+01 -1.0851877525204173e+01 0 0 0
957 319 2 4.0999999999999998e-01 -4.5346192976145616e+00 -1.2029420793111289e+01 -9.1710215075051416e+00 0 1 -1
1681 561 1 -8.1999999999999995e-01 -1.1234048305406823e+00 -5.5476375412715839e+00 -1.4441622908714303e+01 0 2 1
1315 439 1 -8.1999999999999995e-01 -6.0435662891813280e+00 -1.0752671324070416e+01 -8.9289153454908394e+00 1 1 0
995 332 2 4.0999999999999998e-01 -1.2608550298580035e+00 -1.3827053976697375e+01 -1.2912539195772684e+01 0 1 1
1997 666 2 4.0999999999999998e-01 -6.9776609389873467e+00 -1.4715602943253536e+01 -1.2313933262489066e+01 -1 2 1
1626 542 2 4.0999999999999998e-01 -3.1820686922923915e+00 -9.5489353301469642e+00 -1.4730805900658789e+01 2 2 2
61 21 1 -8.1999999999999995e-01 -1.1721424342866786e+00 -1.1500460454660546e+01 -9.7884303395231598e+00 1 0 0
994 332 1 -8.1999999999999995e-01 -4.9148845820496945e-01 -1.4213080572246380e+01 -1.2403517966858956e+01 0 1 1
789 263 2 4.0999999999999998e-01 -2.3672628031383027e+00 -7.8029268400876175e+00 -1.2558398327506138e+01 -1 1 1
1675 559 1 -8.1999999999999995e-01 -3.2266344916020770e+00 -1.0851463487472902e+01 -1.1462561485719753e+01 0 0 0
1996 666 1 -8.1999999999999995e-01 -6.2057471126828609e+00 -1.4696643769932699e+01 -1.2949412357408178e+01 -1 2 1
1625 542 2 4.0999999999999998e-01 -2.5562572121604887e+00 -1.1023751755993525e+01 -1.5047066158703609e+01 2 2 2
1316 439 2 4.0999999999999998e-01 -6.4217583479276055e+00 -1.0516296486395397e+01 -9.8239805920945038e+00 1 1 0
1418 473 2 4.0999999999999998e-01 -7.1855541367429110e+00 -1.1577096348638955e+01 -1.3257070432579393e+01 1 2 2
1417 473 1 -8.1999999999999995e-01 -7.4646317777134596e+00 -1.2359960454659239e+01 -1.3813203095399516e+01 1 2 2
2401 801 1 -8.1999999999999995e-01 -1.9738210266067924e-01 -8.5850780052051654e+00 -1.4721875495596432e+01 0 1 0
2059 687 1 -8.1999999999999995e-01 -2.7779003219390326e+00 -8.9989548410770546e+00 -7.9111819082746138e+00 0 2 0
849 283 2 4.0999999999999998e-01 -6.3061287792878300e+00 -7.7385164296057285e+00 -8.4950821304264963e+00 -2 1 1
1088 363 2 4.0999999999999998e-01 -4.7248326998422030e+00 -7.6010119394014311e+00 -1.4819164283784852e+01 0 1 0
134 45 2 4.0999999999999998e-01 -3.4456489166252009e+00 -5.1348172596213519e+00 -8.5503294563306440e+00 1 1 1
2327 776 2 4.0999999999999998e-01 -1.7436942828231548e+00 -5.0667599154962204e+00 -1.2683234449330033e+01 1 0 -1
1176 392 2 4.0999999999999998e-01 -6.6285355851756922e+00 -6.0326781920572472e+00 -1.5047007618552724e+01 0 3 0
1171 391 1 -8.1999999999999995e-01 -8.3966974191670349e+00 -1.3784358560566448e+01 -2.3223535947216636e+00 1 2 1
766 256 1 -8.1999999999999995e-01 -1.1378231412593880e+01 -1.1922813266125575e+01 -4.1611562014178300e+00 0 1 1
768 256 2 4.0999999999999998e-01 -1.1601700469266721e+01 -1.2264055978968255e+01 -5.0742055449418721e+00 0 1 1
1505 502 2 4.0999999999999998e-01 -8.2914356596226320e+00 -1.1393513134519889e+01 -4.2422363259196754e+00 1 1 1
1504 502 1 -8.1999999999999995e-01 -8.7567533990189510e+00 -1.1301471124319281e+01 -3.3618660761503936e+00 1 1 1
321 107 2 4.0999999999999998e-01 -1.4374619416449821e+01 -6.7152956885378448e+00 -6.7139058494657355e-01 0 2 0
162 54 2 4.0999999999999998e-01 -8.5619726565994121e+00 -7.6091224541092695e+00 -5.3583733845996910e+00 0 0 0
767 256 2 4.0999999999999998e-01 -1.1373011991330218e+01 -1.2684172194961095e+01 -3.5128125744135037e+00 0 1 1
831 277 2 4.0999999999999998e-01 -1.2213207970721284e+01 -6.1522531975410004e+00 -5.9230986081174120e+00 -1 1 -1
982 328 1 -8.1999999999999995e-01 -1.1040362150962078e+01 -1.4207570154737807e+01 -2.7050926180879529e+00 2 1 0
1172 391 2 4.0999999999999998e-01 -8.2954807856383681e+00 -1.2815993894110010e+01 -2.5505402894970910e+00 1 2 1
829 277 1 -8.1999999999999995e-01 -1.3179165845805834e+01 -6.3433394147282165e+00 -5.7485834407159118e+00 -1 1 -1
73 25 1 -8.1999999999999995e-01 -1.0182457618114576e+01 -7.0255230011612024e+00 -2.7315309115147048e+00 -1 0 -1
1018 340 1 -8.1999999999999995e-01 -1.2483343660792459e+01 -9.4338921191702916e+00 -3.6576231021738739e+00 1 1 -1
1019 340 2 4.0999999999999998e-01 -1.3099771486953124e+01 -9.1498451920685717e+00 -4.3920468009498208e+00 1 1 -1
1020 340 2 4.0999999999999998e-01 -1.2073453242470972e+01 -1.0316207077874996e+01 -3.8890409860461777e+00 1 1 -1
580 194 1 -8.1999999999999995e-01 -1.3137397378527409e+01 -1.2945369965287252e+01 -8.8173252892119436e-01 1 2 -1
74 25 2 4.0999999999999998e-01 -1.0261921349843108e+01 -6.7749114231600931e+00 -3.6963746507126540e+00 -1 0 -1
581 194 2 4.0999999999999998e-01 -1.3994772931612321e+01 -1.3460103892146096e+01 -8.8124249112305186e-01 1 2 -1
1506 502 2 4.0999999999999998e-01 -9.7429045306018924e+00 -1.1230468324492561e+01 -3.5118949118795406e+00 1 1 1
2511 837 2 4.0999999999999998e-01 -8.9398670550730337e+00 -1.0097129656928715e+01 -1.8730711740462986e+00 2 3 0
1721 574 2 4.0999999999999998e-01 -1.4033789726503141e+01 -5.5522879875563635e+00 -7.1804114283882488e+00 1 2 1
582 194 2 4.0999999999999998e-01 -1.2426505274100510e+01 -1.3482339012382766e+01 -1.3359799621747861e+00 1 2 -1
1299 433 2 4.0999999999999998e-01 -1.2370187308164532e+01 -5.9607202191884063e+00 -3.0600075721914237e+00 1 1 0
719 240 2 4.0999999999999998e-01 -1.4783466571474040e+01 -1.2072780650464603e+01 -2.4534926171273241e+00 1 2 2
1342 448 1 -8.1999999999999995e-01 -1.0581123125175765e+01 -5.4117382680435391e+00 -5.0467236787955780e+00 1 0 1
2310 770 2 4.0999999999999998e-01 -1.3718933518658410e+01 -8.0484916415511805e+00 -6.0345917151940505e+00 3 1 0
1173 391 2 4.0999999999999998e-01 -8.4896403511007144e+00 -1.3885447049646858e+01 -1.3318048419307296e+00 1 2 1
528 176 2 4.0999999999999998e-01 -1.0212830810123886e+01 -1.2867368930724245e+01 -6.6843040264580686e+00 0 2 1
1297 433 1 -8.1999999999999995e-01 -1.3179686395817782e+01 -5.3815547572349072e+00 -3.1565616799713077e+00 1 1 0
2074 692 1 -8.1999999999999995e-01 -1.2266148220357021e+01 -8.2661230207170497e+00 -1.3542254636871167e+00 0 2 0
2049 683 2 4.0999999999999998e-01 -1.4326232106122486e+01 -8.9118145471256689e+00 -7.4623502838074351e-01 1 2 -1
2308 770 1 -8.1999999999999995e-01 -1.4288932134076248e+01 -8.8668780117793311e+00 -6.1080044958323860e+00 3 1 0
2076 692 2 4.0999999999999998e-01 -1.2394879412346334e+01 -8.7522982978855666e+00 -2.2185783747453947e+00 0 2 0
2509 837 1 -8.1999999999999995e-01 -8.7235970322664773e+00 -9.2309370615461255e+00 -1.4225362067044394e+00 2 3 0
160 54 1 -8.1999999999999995e-01 -8.6644335156488914e+00 -7.8964529871034346e+00 -6.3107320346338813e+00 0 0 0
2510 837 2 4.0999999999999998e-01 -8.9496134150129016e+00 -8.4720194971919653e+00 -2.0332774109855887e+00 2 3 0
319 107 1 -8.1999999999999995e-01 -1.3947224914471347e+01 -5.8115206319716997e+00 -6.4754387852380901e-01 0 2 0
75 25 2 4.0999999999999998e-01 -9.9982519406165355e+00 -6.2062795952254923e+00 -2.1884355525709260e+00 -1 0 -1
830 277 2 4.0999999999999998e-01 -1.3478408092148610e+01 -5.8366116173099005e+00 -4.9400507454046085e+00 -1 1 -1
1543 515 1 -8.1999999999999995e-01 -8.3435953639023097e+00 -1.2986543707384300e+01 -7.3348879015574679e+00 1 1 -1
984 328 2 4.0999999999999998e-01 -1.1187063696895240e+01 -1.5129932120954493e+01 -2.3476417415032422e+00 2 1 0
2369 790 2 4.0999999999999998e-01 -1.1491065908911530e+01 -1.4864859009049676e+01 -5.7287494292951759e+00 0 3 1
527 176 2 4.0999999999999998e-01 -1.1578832784053244e+01 -1.3480792775340365e+01 -7.3358359406572147e+00 0 2 1
526 176 1 -8.1999999999999995e-01 -1.1132632789777794e+01 -1.3205080758853567e+01 -6.4844062400366926e+00 0 2 1
161 54 2 4.0999999999999998e-01 -7.8345131741867116e+00 -8.3689113486065239e+00 -6.6074801020735894e+00 0 0 0
983 328 2 4.0999999999999998e-01 -1.0067032969615191e+01 -1.4073059605110192e+01 -2.8910529069663884e+00 2 1 0
2075 692 2 4.0999999999999998e-01 -1.1515747611403111e+01 -7.6118436790292909e+00 -1.4483611601918209e+00 0 2 0
1298 433 2 4.0999999999999998e-01 -1.3758191059071931e+01 -5.4795962660277890e+00 -2.3467689090541484e+00 1 1 0
720 240 2 4.0999999999999998e-01 -1.5096880951745218e+01 -1.0613447356370305e+01 -3.1159590850361170e+00 1 2 2
2548 850 1 -8.1999999999999995e-01 -8.4449970260253977e+00 -5.5630417321665107e+00 -8.7804760403383852e-01 0 2 0
57 19 2 4.0999999999999998e-01 -7.7542672933544692e+00 -1.4608352073464276e+01 -6.9492659819486242e+00 1 0 0
1343 448 2 4.0999999999999998e-01 -9.9284950339780185e+00 -5.0814255465884397e+00 -5.7286431098255779e+00 1 0 1
2309 770 2 4.0999999999999998e-01 -1.5023958129710593e+01 -8.7032106384219130e+00 -6.7660271983101907e+00 3 1 0
1224 408 2 4.0999999999999998e-01 -1.3538170731253024e+01 -1.0991035275129573e+01 -6.8390963878129121e+00 0 2 2
1545 515 2 4.0999999999999998e-01 -7.9797412540668127e+00 -1.2144715329412547e+01 -6.9361659043567379e+00 1 1 -1
772 258 1 -8.1999999999999995e-01 -7.0688833333665357e+00 -1.0998693274938287e+01 -5.5708895604843107e+00 0 1 -1
519 173 2 4.0999999999999998e-01 -4.9020305785073166e+00 -1.4593212730925950e+01 -2.7670047608845039e+00 2 1 -1
1356 452 2 4.0999999999999998e-01 -2.1024284211612354e+00 -1.0674392735023602e+01 -7.4280454233992392e+00 1 0 1
1354 452 1 -8.1999999999999995e-01 -1.8727429512049536e+00 -1.1620186031641390e+01 -7.1983418638030523e+00 1 0 1
378 126 2 4.0999999999999998e-01 -6.7172302675368467e+00 -1.4198006341328433e+01 -3.7999409220218325e+00 -1 3 0
1185 395 2 4.0999999999999998e-01 -5.0171014393605908e+00 -9.7961319629694756e+00 -3.5742638196535204e-01 1 2 -1
376 126 1 -8.1999999999999995e-01 -6.0402152801191633e+00 -1.4671920245691556e+01 -4.3630575990861775e+00 -1 3 0
674 225 2 4.0999999999999998e-01 -9.5656989455631525e-01 -8.9954798192982928e+00 -1.8592250225158580e-01 1 2 0
2550 850 2 4.0999999999999998e-01 -7.5343351123242259e+00 -5.8662733275116494e+00 -1.1587424032727274e+00 0 2 0
1004 335 2 4.0999999999999998e-01 -1.3462466141493934e-01 -1.1034204639155242e+01 -4.1153796608786717e+00 1 2 1
37 13 1 -8.1999999999999995e-01 -3.1153275519485302e+00 -6.5443342595347289e+00 -9.6997715797196804e-01 0 1 0
774 258 2 4.0999999999999998e-01 -6.3153983778338443e+00 -1.1635379867050997e+01 -5.7350075074192866e+00 0 1 -1
1338 446 2 4.0999999999999998e-01 -5.2844761718525231e+00 -8.7935902957720629e+00 -5.1981647055631406e+00 0 2 0
1005 335 2 4.0999999999999998e-01 -1.2383426647879574e+00 -1.2229749144919616e+01 -4.2540302279537734e+00 1 2 1
673 225 1 -8.1999999999999995e-01 -8.6192427396459159e-01 -8.1267462990293353e+00 -6.7212038384548123e-01 1 2 0
773 258 2 4.0999999999999998e-01 -6.8413727759808776e+00 -1.0105760663022624e+01 -5.9594180551144458e+00 0 1 -1
1337 446 2 4.0999999999999998e-01 -6.0133401662959223e+00 -7.3684510322399479e+00 -5.5213974752632140e+00 0 2 0
2553 851 2 4.0999999999999998e-01 -5.8170963331622598e+00 -7.7689947803524912e+00 -2.1730207386814797e+00 2 1 -2
2552 851 2 4.0999999999999998e-01 -4.8537961033574799e+00 -6.5790851141794278e+00 -1.6047675156757819e+00 2 1 -2
1355 452 2 4.0999999999999998e-01 -1.3835065308826984e+00 -1.1642049509470462e+01 -6.3264394605985466e+00 1 0 1
1871 624 2 4.0999999999999998e-01 -2.5962275212380170e+00 -6.3624709181526171e+00 -3.9576896990895847e+00 0 1 1
2058 686 2 4.0999999999999998e-01 -6.5861742828808243e+00 -9.9806871571304967e+00 -2.2119539517820677e+00 1 2 0
344 115 2 4.0999999999999998e-01 -4.4821485612674223e+00 -1.2863197466837272e+01 -6.9373399044376267e+00 -3 3 1
39 13 2 4.0999999999999998e-01 -3.1856649959931627e+00 -5.9521428566481784e+00 -1.7727262240674726e+00 0 1 0
715 239 1 -8.1999999999999995e-01 -2.1803605878488277e+00 -1.2669222145155302e+01 -1.0357580016385484e+00 -1 2 1
2056 686 1 -8.1999999999999995e-01 -5.7680339778914220e+00 -9.4134554451627057e+00 -2.1174091571927338e+00 1 2 0
377 126 2 4.0999999999999998e-01 -5.6161097600079426e+00 -1.4021100295339938e+01 -4.9928289715273415e+00 -1 3 0
2551 851 1 -8.1999999999999995e-01 -5.7522443557524472e+00 -6.7877946381419658e+00 -1.9911289619364538e+00 2 1 -2
717 239 2 4.0999999999999998e-01 -1.5844273002730755e+00 -1.3437375937661983e+01 -1.2699531355096685e+00 -1 2 1
345 115 2 4.0999999999999998e-01 -4.1697855132831840e+00 -1.2665969285356312e+01 -5.3466562630178345e+00 -3 3 1
2416 806 1 -8.1999999999999995e-01 -3.0828836459798961e+00 -1.2770684068748636e+01 -3.8930546075920525e+00 0 3 0
94 32 1 -8.1999999999999995e-01 -2.0984574264728622e+00 -1.4795194662588997e+01 -7.2210928651053523e+00 0 2 -1
716 239 2 4.0999999999999998e-01 -3.1297856176790493e+00 -1.2910587390599854e+01 -1.2367033256287403e+00 -1 2 1
1336 446 1 -8.1999999999999995e-01 -6.0981462294248416e+00 -8.3626183907223535e+00 -5.5883548184954321e+00 0 2 0
518 173 2 4.0999999999999998e-01 -4.6479348059060914e+00 -1.4650710018532626e+01 -1.1549026196299419e+00 2 1 -1
2082 694 2 4.0999999999999998e-01 -3.1802079682647939e+00 -1.0689133096650000e+01 -4.0112463906907845e+00 0 1 1
2081 694 2 4.0999999999999998e-01 -3.3521249265154616e+00 -9.1089630618145598e+00 -4.3857477680405150e+00 0 1 1
2080 694 1 -8.1999999999999995e-01 -3.8193165916826022e+00 -9.9917203036560203e+00 -4.3355913464483802e+00 0 1 1
2418 806 2 4.0999999999999998e-01 -3.4411935208245108e+00 -1.3024330203906603e+01 -2.9945437357804998e+00 0 3 0
367 123 1 -8.1999999999999995e-01 -6.5956023461196178e+00 -5.7098496910367800e+00 -4.9013314808519208e+00 0 1 0
2417 806 2 4.0999999999999998e-01 -2.9518192202408589e+00 -1.3594649368206374e+01 -4.4443688650407740e+00 0 3 0
343 115 1 -8.1999999999999995e-01 -4.8701908518300634e+00 -1.2911338705361054e+01 -6.0169325531364670e+00 -3 3 1
1872 624 2 4.0999999999999998e-01 -1.9179716769032247e+00 -7.1193149970154490e+00 -5.2359307159989541e+00 0 1 1
38 13 2 4.0999999999999998e-01 -2.3250609515263179e+00 -7.1489167980617871e+00 -1.0699909558239522e+00 0 1 0
517 173 1 -8.1999999999999995e-01 -4.4757824151088617e+00 -1.4129049251846203e+01 -1.9905327172550180e+00 2 1 -1
1003 335 1 -8.1999999999999995e-01 -5.7994487004157769e-01 -1.1664632245170960e+01 -4.7512216664784503e+00 1 2 1
1870 624 1 -8.1999999999999995e-01 -2.5564777929720783e+00 -7.2187380077783319e+00 -4.4727340896976617e+00 0 1 1
2057 686 2 4.0999999999999998e-01 -5.1251165336201669e+00 -9.6306936337492264e+00 -2.8519217993309276e+00 1 2 0
739 247 1 -8.1999999999999995e-01 -8.6404652221184897e-01 -7.2784515054692500e+00 -7.2052179478222600e+00 1 2 -1
1296 432 2 4.0999999999999998e-01 -1.5157892449071397e+00 -1.4686342148547162e+01 -3.5155470158575426e+00 -1 2 2
2060 687 2 4.0999999999999998e-01 -2.0790978522117829e+00 -8.3711685109468696e+00 -7.5682482125660098e+00 0 2 0
368 123 2 4.0999999999999998e-01 -6.6507121528137407e+00 -5.9398579783002834e+00 -3.9296817581704513e+00 0 1 0
1294 432 1 -8.1999999999999995e-01 -6.3163372488957670e-01 -1.4499508232528715e+01 -3.0872875340151182e+00 -1 2 2
1983 661 2 4.0999999999999998e-01 -6.0215483289827176e-03 -1.1246159677776252e+01 -4.6327584321554127e-01 1 0 -1
1137 379 2 4.0999999999999998e-01 -1.6860997222051299e+00 -1.1314845434591021e+01 -6.1244523582129062e-02 0 2 -1
1184 395 2 4.0999999999999998e-01 -3.4379972997742669e+00 -1.0102167880316756e+01 -7.5440258933948456e-02 1 2 -1
96 32 2 4.0999999999999998e-01 -2.3666754533951302e+00 -1.3839561233825730e+01 -7.3430269280522316e+00 0 2 -1
2563 855 1 -8.1999999999999995e-01 -1.0589865652379260e+01 -1.0980211097875486e+01 1.6488151732119505e-01 -1 3 0
1899 633 2 4.0999999999999998e-01 -1.3215593075633841e+01 -6.4221077739295591e+00 5.3859360316233005e+00 1 1 -1
2405 802 2 4.0999999999999998e-01 -9.1769815298409227e+00 -1.1565791096957582e+01 1.0434050975071987e+00 -1 2 -1
2404 802 1 -8.1999999999999995e-01 -8.4724316423265158e+00 -1.2113211638428011e+01 1.4950512516977579e+00 -1 2 -1
1251 417 2 4.0999999999999998e-01 -1.5067828155293276e+01 -1.3414657938221314e+01 5.5775723045449066e+00 0 1 -1
2564 855 2 4.0999999999999998e-01 -1.0974243986831663e+01 -1.0071408365566217e+01 2.4778910834903911e-03 -1 3 0
138 46 2 4.0999999999999998e-01 -9.2662653570695834e+00 -1.3815368152473370e+01 3.2923506206287829e+00 0 2 0
682 228 1 -8.1999999999999995e-01 -1.3034793215245561e+01 -9.0292839280304698e+00 1.1335461773100288e+00 0 2 2
1249 417 1 -8.1999999999999995e-01 -1.4581750726574507e+01 -1.3221837088939839e+01 4.7251680984927642e+00 0 1 -1
2406 802 2 4.0999999999999998e-01 -8.0077844493189989e+00 -1.1556167432789891e+01 2.1834180390443567e+00 -1 2 -1
683 228 2 4.0999999999999998e-01 -1.2825927988255557e+01 -8.3931047058336183e+00 1.8763081866553062e+00 0 2 2
634 212 1 -8.1999999999999995e-01 -1.2456424905057030e+01 -7.8614831442686697e+00 4.2837855627182915e+00 0 0 0
2031 677 2 4.0999999999999998e-01 -1.3096102097497875e+01 -1.3616467980439106e+01 3.2234517877470292e+00 1 3 0
1898 633 2 4.0999999999999998e-01 -1.4651626865537944e+01 -5.8381417377371037e+00 5.8992923227111635e+00 1 1 -1
684 228 2 4.0999999999999998e-01 -1.2793307054745604e+01 -8.6104635317698808e+00 2.5815025908404898e-01 0 2 2
1897 633 1 -8.1999999999999995e-01 -1.3736730452860749e+01 -6.1230763432647972e+00 6.1853358831084595e+00 1 1 -1
1035 345 2 4.0999999999999998e-01 -1.0620500997622976e+01 -1.1844412964887464e+01 5.9542370559186342e+00 1 1 0
2029 677 1 -8.1999999999999995e-01 -1.2559829662114749e+01 -1.4348218644540074e+01 2.8027417780555037e+00 1 3 0
1033 345 1 -8.1999999999999995e-01 -9.7087991544967913e+00 -1.1480259720080245e+01 6.1445952065369926e+00 1 1 0
607 203 1 -8.1999999999999995e-01 -1.1768059065045707e+01 -5.7981495447722082e+00 9.4260621642454900e-01 -1 2 0
781 261 1 -8.1999999999999995e-01 -1.0322496775541763e+01 -9.8330413480620642e+00 3.9024548716111180e+00 0 2 -1
2030 677 2 4.0999999999999998e-01 -1.1638287534519042e+01 -1.4351635712999334e+01 3.1910618885616540e+00 1 3 0
636 212 2 4.0999999999999998e-01 -1.3181901000400096e+01 -8.3000701703809128e+00 4.8142287263903345e+00 0 0 0
600 200 2 4.0999999999999998e-01 -7.8456385896210641e+00 -1.1090222812298130e+01 5.3539286901765859e+00 0 2 0
782 261 2 4.0999999999999998e-01 -1.0299468437525446e+01 -1.0296307054160685e+01 4.7883999429686117e+00 0 2 -1
2582 861 2 4.0999999999999998e-01 -1.2668170494668813e+01 -1.1854638330864358e+01 7.0644672470069114e+00 1 1 -1
1427 476 2 4.0999999999999998e-01 -1.0364161315240288e+01 -8.7066844691226351e+00 2.3503939499720961e+00 0 1 0
1426 476 1 -8.1999999999999995e-01 -1.0203984684808376e+01 -7.9758847622488949e+00 1.6868283329799265e+00 0 1 0
783 261 2 4.0999999999999998e-01 -9.7566260160283029e+00 -1.0335537223004195e+01 3.2487483087689188e+00 0 2 -1
136 46 1 -8.1999999999999995e-01 -9.8085889377595130e+00 -1.3881945227490267e+01 4.1299046280456455e+00 0 2 0
2581 861 1 -8.1999999999999995e-01 -1.2409935355309422e+01 -1.2032996984152604e+01 6.1149690271371799e+00 1 1 -1
635 212 2 4.0999999999999998e-01 -1.1748229545415910e+01 -8.5337796471728922e+00 4.0680986628429299e+00 0 0 0
2583 861 2 4.0999999999999998e-01 -1.3195646908579988e+01 -1.2403960256169537e+01 5.6199056995254129e+00 1 1 -1
608 203 2 4.0999999999999998e-01 -1.1381088608963545e+01 -6.7043478982291784e+00 1.1132008491176233e+00 -1 2 0
1428 476 2 4.0999999999999998e-01 -9.2671020844230227e+00 -8.0376574028379117e+00 1.3426202272573544e+00 0 1 0
408 136 2 4.0999999999999998e-01 -8.3989856433744450e+00 -1.3646464496577265e+01 9.0152633774126123e-01 1 1 -1
137 46 2 4.0999999999999998e-01 -9.4296270486232672e+00 -1.3267689319638592e+01 4.8220907674657401e+00 0 2 0
1034 345 2 4.0999999999999998e-01 -9.7147907149612021e+00 -1.1011724430737143e+01 7.0280446081825172e+00 1 1 0
1727 576 2 4.0999999999999998e-01 -1.3476823152708825e+01 -1.0476233817165930e+01 5.5789901376213376e+00 2 1 0
609 203 2 4.0999999999999998e-01 -1.1115553870299664e+01 -5.0973800874209818e+00 1.2310559405234880e+00 -1 2 0
406 136 1 -8.1999999999999995e-01 -8.2605789623913317e+00 -1.4508338306877246e+01 4.1361113572173558e-01 1 1 -1