LAMMPS data file via write_data, version 15 May 2015, timestep = 4999000

2611 atoms
6 atom types
1749 bonds
4 bond types
894 angles
3 angle types
44 dihedrals
3 dihedral types
10 impropers
1 improper types

-1.5054733178725206e+01 1.5054733178725206e+01 xlo xhi
-1.5054733178725206e+01 1.5054733178725206e+01 ylo yhi
-1.5054733178725206e+01 1.5054733178725206e+01 zlo zhi

Masses

1 15.9994
2 1.00794
3 12.0107
4 1.00794
5 12.0107
6 12.0107

Bond Coeffs # harmonic

1 1000 1
2 469 1.4
3 367 1.08
4 469 0.7

Angle Coeffs # harmonic

1 100 109.47
2 35 120
3 63 120

Dihedral Coeffs # opls

1 0 7.25 0 0
2 0 7.25 0 0
3 0 7.25 0 0

Improper Coeffs # cvff

1 2.5 -1 2

Atoms # full

1995 665 2 4.0999999999999998e-01 -1.4043101854204028e+01 -5.7928465992277598e+00 -8.7835077303775400e+00 0 1 2
154 52 1 -8.1999999999999995e-01 -1.3848098425324022e+01 -8.9665992314733742e+00 -1.2396437096161495e+01 1 1 -2
1106 369 2 4.0999999999999998e-01 -1.0804371443747911e+01 -7.6737535579080811e+00 -1.2773869781434477e+01 2 2 -1
1058 353 2 4.0999999999999998e-01 -1.1635357118687658e+01 -1.2134841464271084e+01 -1.1393424496199133e+01 2 2 3
1057 353 1 -8.1999999999999995e-01 -1.1916404739485158e+01 -1.2928535021014680e+01 -1.1932926534925045e+01 2 2 3
1173 391 2 4.0999999999999998e-01 -1.2143924984926013e+01 -1.2317306108712554e+01 -1.3476487694258314e+01 3 0 1
1059 353 2 4.0999999999999998e-01 -1.1638795707763094e+01 -1.3766343662828044e+01 -1.1462809984649677e+01 2 2 3
2201 734 2 4.0999999999999998e-01 -1.1136049997244230e+01 -1.0247935333786788e+01 -9.5786596716562080e+00 -1 -1 2
782 261 2 4.0999999999999998e-01 -1.3849524812189367e+01 -1.3144281129181319e+01 -1.2266375441625456e+01 0 2 -2
2200 734 1 -8.1999999999999995e-01 -1.0900364960785012e+01 -1.0656417729292219e+01 -1.0460472795839166e+01 -1 -1 2
2160 720 2 4.0999999999999998e-01 -9.4305471420974030e+00 -7.0909810366222574e+00 -9.6284408385618132e+00 4 2 1
1713 571 2 4.0999999999999998e-01 -1.1605210973442826e+01 -1.3005481761588278e+01 -8.7828004362642087e+00 0 1 0
2202 734 2 4.0999999999999998e-01 -1.0873152652365480e+01 -9.9436612418825003e+00 -1.1161356072041347e+01 -1 -1 2
457 153 1 -8.1999999999999995e-01 -1.4424201537973889e+01 -6.2320924563486511e+00 -1.3820220407240207e+01 1 -1 0
1195 399 1 -8.1999999999999995e-01 -1.3866849537865450e+01 -9.1057038293176475e+00 -9.6344471783916781e+00 -1 1 1
458 153 2 4.0999999999999998e-01 -1.4209654522965129e+01 -7.1787381669664265e+00 -1.3579739315172706e+01 1 -1 0
783 261 2 4.0999999999999998e-01 -1.4391367363269779e+01 -1.2801532314611816e+01 -1.3768226138874793e+01 0 2 -2
1196 399 2 4.0999999999999998e-01 -1.3973275701387861e+01 -8.1113865621439381e+00 -9.6369643735767809e+00 -1 1 1
1104 368 2 4.0999999999999998e-01 -1.2729423473153471e+01 -9.7746148621904307e+00 -8.6510174531381629e+00 0 2 -1
1711 571 1 -8.1999999999999995e-01 -1.2511516416158607e+01 -1.2743400068494950e+01 -8.4512535600296008e+00 0 1 0
1822 608 1 -8.1999999999999995e-01 -9.9606853046543495e+00 -1.3107599099837691e+01 -9.1621610189575495e+00 2 1 -1
1103 368 2 4.0999999999999998e-01 -1.2136379163832316e+01 -1.1225783063027105e+01 -8.1938140746007324e+00 0 2 -1
156 52 2 4.0999999999999998e-01 -1.3831041127757089e+01 -8.8873522963357967e+00 -1.1399728194628507e+01 1 1 -2
781 261 1 -8.1999999999999995e-01 -1.4661072863096484e+01 -1.3083498239518862e+01 -1.2847490649584607e+01 0 2 -2
1712 571 2 4.0999999999999998e-01 -1.3152092908356417e+01 -1.3496402143162838e+01 -8.6017504497690975e+00 0 1 0
2158 720 1 -8.1999999999999995e-01 -1.0269082488072105e+01 -6.5688098612788846e+00 -9.7839896006900133e+00 4 2 1
2159 720 2 4.0999999999999998e-01 -1.0355633755291652e+01 -6.3596329715392521e+00 -1.0758029431885330e+01 4 2 1
1993 665 1 -8.1999999999999995e-01 -1.4377038510044432e+01 -6.2876042914628982e+00 -9.5858173983587349e+00 0 1 2
1102 368 1 -8.1999999999999995e-01 -1.2013672033715331e+01 -1.0235628831117060e+01 -8.1264550905099728e+00 0 2 -1
1198 400 1 -8.1999999999999995e-01 -7.8928854787664537e+00 -8.2955856895967912e+00 -8.8428707120715835e+00 0 4 0
1997 666 2 4.0999999999999998e-01 -9.6538063510907790e+00 -5.2608892157063885e+00 -8.6377533089240899e+00 -4 3 2
1495 499 1 -8.1999999999999995e-01 -9.9230236961079239e+00 -1.0159246721564212e+01 -1.4197858628188669e+01 0 1 1
1496 499 2 4.0999999999999998e-01 -1.0348038412776049e+01 -9.7889804248571686e+00 -1.3371865249172616e+01 0 1 1
892 298 1 -8.1999999999999995e-01 -1.0382244702118975e+01 -6.0138754414493913e+00 -1.2545219086004575e+01 0 0 2
1107 369 2 4.0999999999999998e-01 -1.1985346924932339e+01 -8.7920906985264757e+00 -1.2628114526825939e+01 2 2 -1
1105 369 1 -8.1999999999999995e-01 -1.1011086775829259e+01 -8.6111653366415766e+00 -1.2493641977719225e+01 2 2 -1
1199 400 2 4.0999999999999998e-01 -7.6284536316772744e+00 -9.2368700750668609e+00 -8.6329678940618670e+00 0 4 0
1824 608 2 4.0999999999999998e-01 -9.0097842250623277e+00 -1.3416358426495805e+01 -9.1408423495232540e+00 2 1 -1
1171 391 1 -8.1999999999999995e-01 -1.2253393847921339e+01 -1.1842661986004186e+01 -1.4349831393523379e+01 3 0 1
470 157 2 4.0999999999999998e-01 -7.5776364954795659e+00 -7.6431924197474519e+00 -1.5044141326338952e+01 -1 -1 -1
1497 499 2 4.0999999999999998e-01 -9.1842948324578977e+00 -1.0782713718508052e+01 -1.3941795653523576e+01 0 1 1
1823 608 2 4.0999999999999998e-01 -9.9971340212255626e+00 -1.2162813081136663e+01 -9.4878150371064187e+00 2 1 -1
47 16 2 4.0999999999999998e-01 -1.0868212627543059e+01 -7.3084007170926126e+00 -7.9878725394783032e+00 -1 1 -1
183 61 2 4.0999999999999998e-01 -1.3543616711047603e+01 -5.2818715237944129e+00 -1.2580215064044559e+01 -1 -2 2
893 298 2 4.0999999999999998e-01 -1.1215135925443544e+01 -5.4763708845034724e+00 -1.2413383102779909e+01 0 0 2
1998 666 2 4.0999999999999998e-01 -8.2641298869922757e+00 -5.5300670876872378e+00 -7.8235246958705522e+00 -4 3 2
155 52 2 4.0999999999999998e-01 -1.4524090149285767e+01 -9.6529397944723438e+00 -1.2664712167945511e+01 1 1 -2
1172 391 2 4.0999999999999998e-01 -1.1622674314454031e+01 -1.1067657803671736e+01 -1.4389341729226604e+01 3 0 1
2376 792 2 4.0999999999999998e-01 -7.6362557575428225e+00 -6.6066954207533950e+00 -1.1647113011568393e+01 2 1 1
459 153 2 4.0999999999999998e-01 -1.4968863260955464e+01 -6.2164457685552819e+00 -1.4658730075991548e+01 1 -1 0
894 298 2 4.0999999999999998e-01 -9.7861220472993597e+00 -5.5495988607731093e+00 -1.3200264663464296e+01 0 0 2
1197 399 2 4.0999999999999998e-01 -1.4768274834878023e+01 -9.5373199710022565e+00 -9.6006888698475663e+00 -1 1 1
22 8 1 -8.1999999999999995e-01 -1.2794378465273901e+00 -9.8362510901067530e+00 -8.5132998469945669e+00 -1 0 0
361 121 1 -8.1999999999999995e-01 -2.7582135445018352e+00 -7.9387876737620351e+00 -1.4854310690756016e+01 0 5 -1
553 185 1 -8.1999999999999995e-01 -7.0619049567126648e+00 -1.0722214701694080e+01 -1.4137999774267874e+01 -1 0 0
764 255 2 4.0999999999999998e-01 -7.1300406036713309e+00 -1.1158749258383354e+01 -8.5024551444182048e+00 -1 -1 1
849 283 2 4.0999999999999998e-01 -5.1673181765087435e+00 -1.4735679058594828e+01 -9.4584486760431012e+00 -1 2 1
1200 400 2 4.0999999999999998e-01 -7.4989796893052105e+00 -7.6788460283458138e+00 -8.1613502670271849e+00 0 4 0
2375 792 2 4.0999999999999998e-01 -7.3714143103310859e+00 -7.2722789369681466e+00 -1.0179637892357730e+01 2 1 1
249 83 2 4.0999999999999998e-01 -3.9398249043696278e+00 -6.2256321921657083e+00 -8.5243866605519756e+00 -1 -1 1
469 157 1 -8.1999999999999995e-01 -6.7089877669970903e+00 -7.2398341210242689e+00 -1.4756476336243155e+01 -1 -1 -1
554 185 2 4.0999999999999998e-01 -6.8078251577004156e+00 -1.1661005257569974e+01 -1.3905372534162010e+01 -1 0 0
1310 437 2 4.0999999999999998e-01 -9.0503972363840290e-01 -1.4515962300052671e+01 -1.2197260939739262e+01 0 0 0
23 8 2 4.0999999999999998e-01 -5.6703141981621741e-01 -1.0420756801733699e+01 -8.9016680147141862e+00 -1 0 0
474 158 2 4.0999999999999998e-01 -2.3165846159345094e-01 -9.5092980347598761e+00 -1.2802462007559111e+01 1 0 1
24 8 2 4.0999999999999998e-01 -1.2119347332252541e+00 -8.9205350372146270e+00 -8.9094148839570106e+00 -1 0 0
1311 437 2 4.0999999999999998e-01 -1.4081390581991471e+00 -1.3374183348081983e+01 -1.3250758692528965e+01 0 0 0
810 270 2 4.0999999999999998e-01 -4.4484547226436746e+00 -9.0923781604280123e+00 -1.4578263752569788e+01 0 -2 1
1616 539 2 4.0999999999999998e-01 -1.9829618368127537e+00 -1.0727710942565219e+01 -1.0853656534599898e+01 0 0 -1
2374 792 1 -8.1999999999999995e-01 -7.2228184104309445e+00 -6.4630213355805601e+00 -1.0747987329376532e+01 2 1 1
558 186 2 4.0999999999999998e-01 -4.4138968588782248e+00 -8.5389524636457992e+00 -9.1504771868744292e+00 1 1 0
556 186 1 -8.1999999999999995e-01 -4.8793717451320777e+00 -8.7557886998988401e+00 -1.0008565094560399e+01 1 1 0
1650 550 2 4.0999999999999998e-01 -2.8578218117712151e+00 -1.3995331632603646e+01 -9.2922473814086501e+00 -1 2 -1
1309 437 1 -8.1999999999999995e-01 -6.1560783077440107e-01 -1.3884096585005965e+01 -1.2916270385952890e+01 0 0 0
2412 804 2 4.0999999999999998e-01 -4.2694648255873062e+00 -1.3863074706137340e+01 -1.2116114685480607e+01 0 2 1
2410 804 1 -8.1999999999999995e-01 -3.6070905575562850e+00 -1.3280461325270769e+01 -1.2587094152889918e+01 0 2 1
3 1 2 4.0999999999999998e-01 -1.1734250203240943e+00 -7.3336167863640620e+00 -1.0177886640635334e+01 -5 -2 1
695 232 2 4.0999999999999998e-01 -5.9590166638070929e+00 -1.4624379291101970e+01 -7.5834793749751652e+00 -1 2 2
555 185 2 4.0999999999999998e-01 -6.3149497257859011e+00 -1.0104233064435327e+01 -1.3892731993944841e+01 -1 0 0
809 270 2 4.0999999999999998e-01 -4.5313460467998965e+00 -8.4085909522101794e+00 -1.3097659243839196e+01 0 -2 1
557 186 2 4.0999999999999998e-01 -4.7576820498104464e+00 -8.0014214369721053e+00 -1.0653639775845846e+01 1 1 0
473 158 2 4.0999999999999998e-01 -1.4841646629787419e+00 -1.0272859823734182e+01 -1.3519976649708546e+01 1 0 1
2 1 2 4.0999999999999998e-01 -1.7942290423133755e+00 -6.8219028016891041e+00 -8.7568388579334417e+00 -5 -2 1
1991 664 2 4.0999999999999998e-01 -1.2938275391612475e+00 -7.9467235810898078e+00 -1.2239513291477811e+01 3 1 2
847 283 1 -8.1999999999999995e-01 -4.4166374790572327e+00 -1.4854367109858153e+01 -1.0108365065343708e+01 -1 2 1
763 255 1 -8.1999999999999995e-01 -7.1045537865292365e+00 -1.0596204058654102e+01 -7.6760817600144842e+00 -1 -1 1
1649 550 2 4.0999999999999998e-01 -2.7052042838567960e+00 -1.2373163382222012e+01 -9.4013514014648258e+00 -1 2 -1
362 121 2 4.0999999999999998e-01 -2.1842886548098637e+00 -8.0179052235066948e+00 -1.4039233820942847e+01 0 5 -1
1990 664 1 -8.1999999999999995e-01 -1.4074565479606509e+00 -7.0511766905665105e+00 -1.1809299503548823e+01 3 1 2
1917 639 2 4.0999999999999998e-01 -3.5530652525146245e+00 -6.5977144537993038e+00 -1.2187633757879505e+01 1 -1 -2
2355 785 2 4.0999999999999998e-01 -5.7714203676183242e+00 -1.0941755803388887e+01 -1.0564480123960042e+01 0 0 3
2353 785 1 -8.1999999999999995e-01 -6.4672131330086415e+00 -1.1576248709173324e+01 -1.0227893074158146e+01 0 0 3
2528 843 2 4.0999999999999998e-01 -7.1101115238079986e+00 -1.4294093404014513e+01 -1.1579112641993085e+01 1 2 -1
808 270 1 -8.1999999999999995e-01 -4.9783745898044902e+00 -9.0394156430209236e+00 -1.3731871650968046e+01 0 -2 1
2354 785 2 4.0999999999999998e-01 -6.6968462927474626e+00 -1.2231513621207730e+01 -1.0947543118974840e+01 0 0 3
471 157 2 4.0999999999999998e-01 -6.2993770650962979e+00 -7.8058382460990154e+00 -1.4041033761890567e+01 -1 -1 -1
1916 639 2 4.0999999999999998e-01 -5.1491971178258460e+00 -6.2559108017641893e+00 -1.2141169181199324e+01 1 -1 -2
1915 639 1 -8.1999999999999995e-01 -4.4450894875036600e+00 -6.9071951147415618e+00 -1.1858218889300423e+01 1 -1 -2
2529 843 2 4.0999999999999998e-01 -6.9711361753277181e+00 -1.3846824337078004e+01 -1.3143485315206854e+01 1 2 -1
2527 843 1 -8.1999999999999995e-01 -6.7816040879546122e+00 -1.3580879880215928e+01 -1.2198312946364343e+01 1 2 -1
247 83 1 -8.1999999999999995e-01 -3.4493644998017228e+00 -6.9715156012634232e+00 -8.0737136066027890e+00 -1 -1 1
1992 664 2 4.0999999999999998e-01 -5.2337498771415270e-01 -6.5854590416536727e+00 -1.1770485180198936e+01 3 1 2
472 158 1 -8.1999999999999995e-01 -1.2280702157519379e+00 -9.5844734164777350e+00 -1.2841346037890172e+01 1 0 1
1648 550 1 -8.1999999999999995e-01 -2.4801107096743724e+00 -1.3179484932795692e+01 -8.8543796200632272e+00 -1 2 -1
1617 539 2 4.0999999999999998e-01 -3.5373974284424428e+00 -1.0324368395814648e+01 -1.0557564642661060e+01 0 0 -1
1835 612 2 4.0999999999999998e-01 -4.3207760078188873e+00 -1.2740418467520552e+01 -1.4011856905125587e+01 0 1 -2
2048 683 2 4.0999999999999998e-01 -3.0499947629669730e+00 -1.1752550017136274e+01 -1.4680978786511975e+01 0 2 0
2047 683 1 -8.1999999999999995e-01 -2.1554796335902022e+00 -1.1315132792866109e+01 -1.4588737021208287e+01 0 2 0
2411 804 2 4.0999999999999998e-01 -3.3533697643827107e+00 -1.2516847817742232e+01 -1.1993360327054525e+01 0 2 1
1834 612 1 -8.1999999999999995e-01 -4.6228218488357680e+00 -1.2385589820979359e+01 -1.4896653291843871e+01 0 1 -2
1 1 1 -8.1999999999999995e-01 -1.0237570061532519e+00 -7.2894773352863229e+00 -9.1901362135503515e+00 -5 -2 1
1615 539 1 -8.1999999999999995e-01 -2.9094136954655152e+00 -1.1083243493692390e+01 -1.0730031150679121e+01 0 0 -1
1985 662 2 4.0999999999999998e-01 -5.9603336277863601e+00 -5.8584358122084623e+00 -7.7909312945730287e+00 1 -1 1
1061 354 2 4.0999999999999998e-01 -4.1460821069360776e-01 -6.0340401124315584e+00 -7.5495957268406224e+00 -2 2 -1
477 159 2 4.0999999999999998e-01 -9.6242038973837545e+00 -1.1022253494475841e+01 -4.5013627859152692e+00 1 0 0
707 236 2 4.0999999999999998e-01 -1.1707586432736418e+01 -1.3324046985213107e+01 -6.8870585512436726e+00 0 1 1
708 236 2 4.0999999999999998e-01 -1.0253066800088499e+01 -1.3075221783046166e+01 -6.1877129460487783e+00 0 1 1
706 236 1 -8.1999999999999995e-01 -1.1197537038904205e+01 -1.3362261216058661e+01 -6.0277629302070874e+00 0 1 1
1244 415 2 4.0999999999999998e-01 -1.2851625174186479e+01 -9.6154216137200521e+00 -4.8603851580667552e+00 -1 1 2
1245 415 2 4.0999999999999998e-01 -1.1304489155721793e+01 -9.4054529027132130e+00 -4.3819408925249697e+00 -1 1 2
376 126 1 -8.1999999999999995e-01 -1.4393372705978663e+01 -8.7797097987520445e+00 -5.5776527080694560e+00 -2 2 -1
1243 415 1 -8.1999999999999995e-01 -1.2162633685501635e+01 -9.8798194147282672e+00 -4.1855635393353907e+00 -1 1 2
300 100 2 4.0999999999999998e-01 -1.1723301926239410e+01 -1.2188417091925007e+01 -1.4248359820925991e+00 -2 1 -2
2306 769 2 4.0999999999999998e-01 -1.4623401923823987e+01 -1.1000746111673818e+01 -8.9618727509840568e-02 2 2 0
103 35 1 -8.1999999999999995e-01 -7.9677776983046531e+00 -1.2471757465144295e+01 -1.7592222809544715e+00 -2 0 0
475 159 1 -8.1999999999999995e-01 -9.9959706905399131e+00 -1.1214536854614185e+01 -3.5931688385882623e+00 1 0 0
476 159 2 4.0999999999999998e-01 -1.0975612598957198e+01 -1.1013962987549547e+01 -3.5847105023325678e+00 1 0 0
46 16 1 -8.1999999999999995e-01 -1.1364889720784182e+01 -7.6276773502467332e+00 -7.1807951064013151e+00 -1 1 -1
299 100 2 4.0999999999999998e-01 -1.0873057351719154e+01 -1.1025667858705614e+01 -6.5559999564305649e-01 -2 1 -2
1875 625 2 4.0999999999999998e-01 -8.9039614015840733e+00 -1.0675569852578079e+01 -6.9305292682771125e+00 -1 0 0
1873 625 1 -8.1999999999999995e-01 -9.7436474427860436e+00 -1.0932236313024642e+01 -6.4519382604495306e+00 -1 0 0
729 243 2 4.0999999999999998e-01 -1.2760716691771542e+01 -1.3456070918910914e+01 -5.1305215674321385e+00 1 1 -2
728 243 2 4.0999999999999998e-01 -1.4109555716194510e+01 -1.2552030550302112e+01 -4.9574032525608178e+00 1 1 -2
1874 625 2 4.0999999999999998e-01 -1.0534789154194893e+01 -1.0599113844886780e+01 -6.9648942784698136e+00 -1 0 0
317 106 2 4.0999999999999998e-01 -7.5663821907383708e+00 -1.1844575150025101e+01 -5.7089189349752836e+00 1 1 1
2195 732 2 4.0999999999999998e-01 -1.3102126727965146e+01 -1.0617092223493838e+01 -2.8516755072482471e+00 -1 -2 3
2194 732 1 -8.1999999999999995e-01 -1.3782241975756882e+01 -1.0867817059841776e+01 -2.1627778449683177e+00 -1 -2 3
1817 606 2 4.0999999999999998e-01 -8.9636351682723880e+00 -6.5930554379324349e+00 -2.4328141044889353e+00 1 0 1
1816 606 1 -8.1999999999999995e-01 -9.3819905121906935e+00 -6.1320417188764331e+00 -3.2154026559089779e+00 1 0 1
2543 848 2 4.0999999999999998e-01 -1.2680432619961801e+01 -8.5536871098619898e+00 -2.2739703868431924e+00 1 1 0
2542 848 1 -8.1999999999999995e-01 -1.3027034273676572e+01 -7.6188636244138621e+00 -2.1966916708171880e+00 1 1 0
2279 760 2 4.0999999999999998e-01 -1.4895865434551787e+01 -7.9897107263839215e+00 -2.3347582539008069e+00 -2 0 4
1828 610 1 -8.1999999999999995e-01 -9.7392947760753295e+00 -8.1698711795647618e+00 -5.1795797485969430e+00 1 -2 0
1829 610 2 4.0999999999999998e-01 -9.3456018618407253e+00 -7.3210804533062159e+00 -4.8266493819721514e+00 1 -2 0
1830 610 2 4.0999999999999998e-01 -1.0266244252685535e+01 -7.9742475366919185e+00 -6.0066561226207362e+00 1 -2 0
8 3 2 4.0999999999999998e-01 -8.8750470542680304e+00 -9.7683526102078080e+00 -2.4379743692359721e+00 -1 -2 1
2196 732 2 4.0999999999999998e-01 -1.4696913749815556e+01 -1.0647910005090175e+01 -2.5019180928446385e+00 -1 -2 3
727 243 1 -8.1999999999999995e-01 -1.3711694627479183e+01 -1.3459321480437895e+01 -4.8212804108745910e+00 1 1 -2
9 3 2 4.0999999999999998e-01 -9.0187881105824861e+00 -8.5589119819822059e+00 -3.5257323860275172e+00 -1 -2 1
1202 401 2 4.0999999999999998e-01 -1.1067247694150570e+01 -5.3561730442409345e+00 -2.5956088171468252e+00 -2 1 2
1818 606 2 4.0999999999999998e-01 -9.2364284412942155e+00 -5.1457176933612523e+00 -3.1380962575352704e+00 1 0 1
2135 712 2 4.0999999999999998e-01 -1.4277363637215844e+01 -1.4626092955600690e+01 -5.8420817780362917e+00 1 2 2
2431 811 1 -8.1999999999999995e-01 -7.6263635060390822e+00 -6.1649722463870908e+00 -9.9543524684509954e-01 0 3 2
377 126 2 4.0999999999999998e-01 -1.3781927750215857e+01 -8.0393746668079373e+00 -5.2982987548087124e+00 -2 2 -1
105 35 2 4.0999999999999998e-01 -7.6639255719542980e+00 -1.3275401053142724e+01 -2.2709160950556253e+00 -2 0 0
1100 367 2 4.0999999999999998e-01 -1.3777147925262291e+01 -6.5762519407276905e+00 -7.8104158426585713e-01 -1 1 0
298 100 1 -8.1999999999999995e-01 -1.1015482114077162e+01 -1.2011792618244634e+01 -7.4088087849528250e-01 -2 1 -2
104 35 2 4.0999999999999998e-01 -8.9473207755198221e+00 -1.2333977192154228e+01 -1.9058907567578860e+00 -2 0 0
7 3 1 -8.1999999999999995e-01 -8.5056821200628114e+00 -8.8870063110146411e+00 -2.7325892487864021e+00 -1 -2 1
135 45 2 4.0999999999999998e-01 -1.2942597444010314e+01 -5.4183578956831333e+00 -5.2239065946322221e+00 1 -2 2
133 45 1 -8.1999999999999995e-01 -1.2942410447449898e+01 -6.4177783111658435e+00 -5.1898701653507047e+00 1 -2 2
2544 848 2 4.0999999999999998e-01 -1.2526509838924472e+01 -7.0246848262324999e+00 -2.8263157654010787e+00 1 1 0
134 45 2 4.0999999999999998e-01 -1.2216561004807787e+01 -6.7712450499827987e+00 -5.7799578875199806e+00 1 -2 2
1142 381 2 4.0999999999999998e-01 -1.4791201282037827e+01 -1.0459507823606177e+01 -5.5977040745491387e+00 -1 2 1
48 16 2 4.0999999999999998e-01 -1.1755728719703477e+01 -8.5294982778259438e+00 -7.3650872094785571e+00 -1 1 -1
2432 811 2 4.0999999999999998e-01 -7.6587655226820317e+00 -5.2686489593602754e+00 -5.5321996441631960e-01 0 3 2
467 156 2 4.0999999999999998e-01 -1.4597413701980530e+01 -1.4402463801175736e+01 -3.7422448095002991e+00 0 3 0
1013 338 2 4.0999999999999998e-01 -7.8293485901619952e+00 -1.3527802946647837e+01 -3.1705313233869603e-02 -1 1 1
1334 445 2 4.0999999999999998e-01 -8.8399014836256669e+00 -6.7300709969533443e+00 -9.2083174281635038e-02 0 2 0
248 83 2 4.0999999999999998e-01 -3.5616581447879501e+00 -6.8936780469621670e+00 -7.0830920175185668e+00 -1 -1 1
950 317 2 4.0999999999999998e-01 -2.7445027500946750e-01 -1.1041983385349100e+01 -3.5240428699052053e+00 -1 1 1
1506 502 2 4.0999999999999998e-01 -4.3404231421100015e+00 -1.5039318383399731e+01 -2.4922290465668535e+00 -2 0 2
1524 508 2 4.0999999999999998e-01 -4.4143291128584856e+00 -1.4703907274109906e+01 -5.0013225467887654e+00 0 -1 1
1442 481 2 4.0999999999999998e-01 -3.5295513874515194e+00 -1.0397794496572789e+01 -7.1945167976018967e+00 -2 2 1
2433 811 2 4.0999999999999998e-01 -6.7214729990751092e+00 -6.3059891159790151e+00 -1.3970408877102187e+00 0 3 2
1504 502 1 -8.1999999999999995e-01 -4.2866035074730693e+00 -1.4583109337173978e+01 -1.6039855939537198e+00 -2 0 2
540 180 2 4.0999999999999998e-01 -3.5577438659681864e+00 -6.2701496038234232e+00 -1.8037812068911503e+00 -3 0 1
1850 617 2 4.0999999999999998e-01 -7.9115737484847237e-01 -1.3942867855632555e+01 -2.6427789124663406e+00 1 1 2
215 72 2 4.0999999999999998e-01 -2.0004007969777629e+00 -9.8434558031254333e+00 -4.6200785104479145e+00 0 0 3
2501 834 2 4.0999999999999998e-01 -3.7489111631387715e+00 -1.3357875362727388e+01 -7.1952249347414377e+00 -1 -1 3
1340 447 2 4.0999999999999998e-01 -6.8808658369092619e+00 -1.3670554514121463e+01 -4.1878895748452720e+00 -1 0 2
1569 523 2 4.0999999999999998e-01 -7.2225877670304932e+00 -7.6507679751338644e+00 -3.8744846960649273e+00 0 2 0
539 180 2 4.0999999999999998e-01 -3.6080407680623594e+00 -6.1773047805769359e+00 -1.7421816980633587e-01 -3 0 1
216 72 2 4.0999999999999998e-01 -1.8891121114769938e+00 -9.9168017221357125e+00 -6.2476106361901991e+00 0 0 3
693 231 2 4.0999999999999998e-01 -3.0009034435164850e-01 -8.2066579522397713e+00 -5.3795622190347991e-01 1 1 2
1986 662 2 4.0999999999999998e-01 -6.3827623576131085e+00 -6.3864864624904616e+00 -6.3045457072728741e+00 1 -1 1
178 60 1 -8.1999999999999995e-01 -2.1116235615333974e+00 -1.2924429580579291e+01 -1.3439835962798536e+00 1 0 -3
214 72 1 -8.1999999999999995e-01 -2.2307980984576741e+00 -9.3803761783979258e+00 -5.4759254713534862e+00 0 0 3
1505 502 2 4.0999999999999998e-01 -3.5626997758444645e+00 -1.3893584035713531e+01 -1.6267437514654155e+00 -2 0 2
180 60 2 4.0999999999999998e-01 -1.9983667291464045e+00 -1.2193622476096621e+01 -2.0171058179633476e+00 1 0 -3
1984 662 1 -8.1999999999999995e-01 -6.6878496231702922e+00 -6.2818872601998983e+00 -7.2511081467989804e+00 1 -1 1
68 23 2 4.0999999999999998e-01 -4.2317932095215216e+00 -5.7599934026506734e+00 -3.8566000083245218e+00 -3 2 2
316 106 1 -8.1999999999999995e-01 -6.8071096420260169e+00 -1.2160864824291908e+01 -5.1401784741092253e+00 1 1 1
67 23 1 -8.1999999999999995e-01 -4.7859033922263912e+00 -5.3711406354322548e+00 -3.1205598460048432e+00 -3 2 2
179 60 2 4.0999999999999998e-01 -2.0566797776621364e+00 -1.2540183640301837e+01 -4.2238936689346396e-01 1 0 -3
2483 828 2 4.0999999999999998e-01 -3.9335749035102641e+00 -9.6399113488208776e+00 -9.2645177355871411e-01 -1 1 2
2484 828 2 4.0999999999999998e-01 -2.8512668498014708e+00 -8.4172344249868853e+00 -9.0924596569814220e-01 -1 1 2
1060 354 1 -8.1999999999999995e-01 -3.0567382157328815e-01 -5.1490119329206525e+00 -7.0969831968470141e+00 -2 2 -1
538 180 1 -8.1999999999999995e-01 -3.2549085579079424e+00 -6.6974281365457227e+00 -9.5188713488406052e-01 -3 0 1
2024 675 2 4.0999999999999998e-01 -2.4742541309632617e+00 -6.4017430242749480e+00 -4.9207305499662581e+00 1 2 -1
1441 481 1 -8.1999999999999995e-01 -4.4290167747447633e+00 -1.0617010482676324e+01 -6.8164876387114255e+00 -2 2 1
1437 479 2 4.0999999999999998e-01 -6.5452747249946643e+00 -1.1366594833160818e+01 -1.8886098128171511e+00 1 1 0
1339 447 1 -8.1999999999999995e-01 -6.9939923173779395e+00 -1.4375166720172206e+01 -3.4873728139742113e+00 -1 0 2
318 106 2 4.0999999999999998e-01 -6.4973502294064414e+00 -1.1413698556743528e+01 -4.5521382125022321e+00 1 1 1
2023 675 1 -8.1999999999999995e-01 -3.2558894193267669e+00 -7.0174178222165313e+00 -5.0206831105897951e+00 1 2 -1
2502 834 2 4.0999999999999998e-01 -5.1363905059487855e+00 -1.2652607350620038e+01 -6.7011361449931037e+00 -1 -1 3
1435 479 1 -8.1999999999999995e-01 -5.7904116181290739e+00 -1.0837466604867167e+01 -1.5010473015017656e+00 1 1 0
1568 523 2 4.0999999999999998e-01 -6.0674469966238540e+00 -6.5218730865535228e+00 -3.6339192663414845e+00 0 2 0
2500 834 1 -8.1999999999999995e-01 -4.6911075481723614e+00 -1.3524578777908680e+01 -6.9045780308493487e+00 -1 -1 3
1436 479 2 4.0999999999999998e-01 -5.6214836103387320e+00 -1.1136446114209683e+01 -5.6185922065909644e-01 1 1 0
1567 523 1 -8.1999999999999995e-01 -6.5854117531479091e+00 -7.0256207771417145e+00 -4.3252588740503555e+00 0 2 0
33 11 2 4.0999999999999998e-01 -6.8631039441297936e-01 -1.4214835116303837e+01 -6.0509258223716174e+00 -1 0 -1
32 11 2 4.0999999999999998e-01 -1.7657466765904299e+00 -1.3475272961242819e+01 -7.0279062604300346e+00 -1 0 -1
1443 481 2 4.0999999999999998e-01 -4.5428557752848757e+00 -1.0154301541023862e+01 -5.9373171214875633e+00 -2 2 1
1249 417 1 -8.1999999999999995e-01 -4.9591009139557958e+00 -9.9560194761481089e+00 -4.1477603786328245e+00 -2 0 0
1515 505 2 4.0999999999999998e-01 -2.9548867484776711e+00 -1.1658373330473541e+01 -4.3805951227910533e+00 1 2 2
2482 828 1 -8.1999999999999995e-01 -2.9893117938015621e+00 -9.3882687434994132e+00 -7.1421875934258061e-01 -1 1 2
1513 505 1 -8.1999999999999995e-01 -1.9794166565638740e+00 -1.1664831509753533e+01 -4.1605585842074859e+00 1 2 2
31 11 1 -8.1999999999999995e-01 -1.2197035881305833e+00 -1.3381401648687770e+01 -6.1954251450673645e+00 -1 0 -1
1251 417 2 4.0999999999999998e-01 -5.2440350119298103e+00 -1.0122298483677740e+01 -3.2037457934255738e+00 -2 0 0
1514 505 2 4.0999999999999998e-01 -1.4829371220081775e+00 -1.2176504562464810e+01 -4.8617707198596314e+00 1 2 2
2025 675 2 4.0999999999999998e-01 -2.9284003239734648e+00 -7.9519428137047177e+00 -5.1600159239384418e+00 1 2 -1
1250 417 2 4.0999999999999998e-01 -4.7496309283472637e+00 -8.9854606067958418e+00 -4.2666615360583098e+00 -2 0 0
765 255 2 4.0999999999999998e-01 -6.1570390556993360e+00 -1.0489180951403629e+01 -7.3748152153675468e+00 -1 -1 1
1954 652 1 -8.1999999999999995e-01 -1.3212490476608243e+01 -1.0292366638164264e+01 5.1770376257608941e+00 1 2 0
1955 652 2 4.0999999999999998e-01 -1.2325662897661267e+01 -9.8845654544531918e+00 4.9597021302921593e+00 1 2 0
989 330 2 4.0999999999999998e-01 -1.1887292242108344e+01 -7.0265225692180522e+00 4.8276463957121596e+00 1 -1 2
2312 771 2 4.0999999999999998e-01 -1.1642562969549086e+01 -1.3357914470337381e+01 5.0238113620627320e+00 3 1 0
294 98 2 4.0999999999999998e-01 -1.2753000088708919e+01 -1.1671479743446186e+01 6.4744531482146197e+00 -1 3 2
292 98 1 -8.1999999999999995e-01 -1.2530369832834232e+01 -1.2634295909759819e+01 6.6274906498352575e+00 -1 3 2
977 326 2 4.0999999999999998e-01 -9.1085344067194640e+00 -1.0696939370943468e+01 7.3834449153877859e+00 -1 -2 -1
460 154 1 -8.1999999999999995e-01 -1.0625193561974827e+01 -7.3166154970164339e+00 5.7872051611998305e+00 2 0 -1
462 154 2 4.0999999999999998e-01 -9.8700713732054091e+00 -7.9429073200532709e+00 5.9809800803687825e+00 2 0 -1
2313 771 2 4.0999999999999998e-01 -1.1342803405639934e+01 -1.3446667101393398e+01 3.4210347718181051e+00 3 1 0
2311 771 1 -8.1999999999999995e-01 -1.1305289119952866e+01 -1.3944501420711877e+01 4.2874950120634221e+00 3 1 0
70 24 1 -8.1999999999999995e-01 -8.9921990265916421e+00 -7.5766470742310750e+00 3.3936462763014479e+00 -2 1 0
71 24 2 4.0999999999999998e-01 -9.7799371002280715e+00 -7.0509810842610943e+00 3.7148061633974816e+00 -2 1 0
72 24 2 4.0999999999999998e-01 -8.1542000353534512e+00 -7.0573694597573873e+00 3.5613010736687389e+00 -2 1 0
976 326 1 -8.1999999999999995e-01 -8.9237009269610787e+00 -9.9164326386135873e+00 6.7862468735398078e+00 -1 -2 -1
978 326 2 4.0999999999999998e-01 -8.7810658752976796e+00 -1.0239106831181665e+01 5.8505459168300096e+00 -1 -2 -1
2400 800 2 4.0999999999999998e-01 -1.1932464694970047e+01 -9.0514603069896218e+00 2.6039780641176513e-01 1 -2 1
251 84 2 4.0999999999999998e-01 -9.6983517901770817e+00 -1.3734970002479789e+01 1.4573338544634407e+00 0 -1 0
513 171 2 4.0999999999999998e-01 -9.1000250025101046e+00 -5.1068559984042210e+00 6.2178247894886081e+00 3 3 -1
330 110 2 4.0999999999999998e-01 -8.4871869685203123e+00 -1.2465927858982308e+01 1.5515653672701308e+00 0 1 2
250 84 1 -8.1999999999999995e-01 -1.0590760008896932e+01 -1.3335171445950898e+01 1.6665427999297631e+00 0 -1 0
252 84 2 4.0999999999999998e-01 -1.0921482005532891e+01 -1.2824422545498123e+01 8.7296973023410196e-01 0 -1 0
203 68 2 4.0999999999999998e-01 -1.2625703667805551e+01 -1.4697394171919077e+01 3.4306895126862340e+00 -2 0 2
1449 483 2 4.0999999999999998e-01 -1.5039902506882752e+01 -6.9908004292753230e+00 4.6098963047105936e+00 1 1 -2
1956 652 2 4.0999999999999998e-01 -1.3425275661342031e+01 -1.1003877714031795e+01 4.5073554997218590e+00 1 2 0
293 98 2 4.0999999999999998e-01 -1.3302118333644747e+01 -1.3088125213824803e+01 7.0729599424740801e+00 -1 3 2
461 154 2 4.0999999999999998e-01 -1.1122634436582178e+01 -7.1225769887954238e+00 6.6327235492152763e+00 2 0 -1
586 196 1 -8.1999999999999995e-01 -1.4789471324588842e+01 -8.3496868204622245e+00 3.3654006229369440e+00 2 2 -2
952 318 1 -8.1999999999999995e-01 -1.4321321096444317e+01 -1.1372845552572613e+01 3.0727533039637880e+00 1 1 -1
204 68 2 4.0999999999999998e-01 -1.3329853134912335e+01 -1.4820170834478541e+01 1.9624507540401961e+00 -2 0 2
1335 445 2 4.0999999999999998e-01 -9.3181943182748199e+00 -7.0072463605449471e+00 1.4444829411119162e+00 0 2 0
1012 338 1 -8.1999999999999995e-01 -8.1730489873580385e+00 -1.4041005080810880e+01 7.5473812609351931e-01 -1 1 1
328 110 1 -8.1999999999999995e-01 -8.2095398266661768e+00 -1.1549002413281240e+01 1.8382000877270190e+00 0 1 2
202 68 1 -8.1999999999999995e-01 -1.3425437259484017e+01 -1.5035176998329648e+01 2.9343744654427955e+00 -2 0 2
1333 445 1 -8.1999999999999995e-01 -9.6190576512701895e+00 -6.7213277219741503e+00 5.3468545728974171e-01 0 2 0
988 330 1 -8.1999999999999995e-01 -1.2600440484447111e+01 -6.8202757168989994e+00 4.1576601891998610e+00 1 -1 2
756 252 2 4.0999999999999998e-01 -1.5017208635748078e+01 -1.4188251646148014e+01 3.2288646221538482e+00 3 1 0