2611
Atoms. Timestep: 4998000
O -1.43803 -7.89245 -9.79675
H -2.25928 -8.45652 -9.71073
H -1.60104 -7.166 -10.4644
O 13.12 2.21055 -3.72327
H 13.6683 1.42535 -3.43533
H 13.6422 3.05156 -3.58176
O -7.95213 -9.18759 -2.99964
H -8.63924 -8.91653 -2.32553
H -8.38208 -9.74935 -3.70646
O 10.6959 -11.5492 -8.204
H 10.2312 -11.8984 -9.01775
H 10.2535 -11.9146 -7.38498
O -12.1144 12.1666 -7.87103
H -12.2734 11.5508 -7.09933
H -11.5106 11.7224 -8.53297
O -6.1827 -11.8673 4.90718
H -6.77145 -11.348 4.28776
H -6.47833 -12.8225 4.92548
O -14.0015 -10.2823 9.99641
H -13.3624 -11.0031 10.265
H -13.551 -9.39268 10.0708
O 0.225885 -9.70265 -8.49331
H -0.0658421 -10.6464 -8.33775
H -0.418321 -9.25224 -9.11149
O -2.17986 5.32622 -4.64904
H -2.31157 4.86312 -5.52551
H -2.81786 4.95283 -3.97558
O -13.9827 7.40133 11.0712
H -13.6442 6.62554 10.5387
H -14.9749 7.46957 10.9671
O -1.95505 -13.3718 -5.16522
H -2.24656 -13.5227 -6.10982
H -1.37961 -14.1338 -4.86823
O 7.95289 0.185308 -8.0301
H 8.56633 0.878679 -8.40818
H 7.19112 0.0349185 -8.66026
O 7.46673 2.02667 10.0746
H 6.82067 2.5367 9.50672
H 8.01148 2.66662 10.6166
O -8.15094 9.32039 3.63391
H -7.71627 10.1146 3.20936
H -7.92613 9.29842 4.60808
O 11.2842 -8.79695 -5.53714
H 10.8241 -9.13336 -6.35881
H 11.6031 -9.57262 -4.99249
O -10.429 -8.00289 -7.27107
H -10.2597 -7.29238 -7.95412
H -10.7127 -8.84512 -7.72948
O 4.8877 -3.94193 -4.68934
H 4.9485 -4.86035 -4.29841
H 5.70457 -3.42019 -4.4433
O 9.10609 4.42811 -13.9585
H 8.40368 4.87921 -14.509
H 9.26471 4.9552 -13.1236
O -1.74821 -6.97735 10.7609
H -2.69701 -7.00112 10.4459
H -1.15128 -7.34728 10.049
O -14.5521 12.2215 2.18754
H 14.6991 11.7328 2.3218
H -13.8014 11.685 2.5731
O 12.135 -14.5811 -8.29843
H 12.5151 -13.7278 -7.94154
H 12.0803 -14.5303 -9.29565
O 4.42096 3.5225 -3.60307
H 4.90665 3.51805 -2.72893
H 3.54261 3.98792 -3.49398
O -4.84265 -5.6868 -3.45264
H -3.87931 -5.83724 -3.6748
H -5.21952 -4.98747 -4.06003
O -9.82921 -8.1115 2.33019
H -10.607 -7.69245 2.79867
H -9.03936 -8.12637 2.94332
O 4.80869 -14.7365 13.5315
H 4.05969 -14.0976 13.7067
H 4.83932 -14.9547 12.556
O 13.353 -3.89045 -11.8635
H 12.3915 -3.84219 -11.5928
H 13.4685 -4.60092 -12.5577
O 12.6276 -9.70428 14.6686
H 12.4846 -10.6428 14.9829
H 13.5939 -9.56991 14.4491
O 8.23172 14.5236 -9.50337
H 8.13104 14.2594 -8.54417
H 8.70964 13.7992 -10.0002
O 4.11315 13.5013 -2.68624
H 3.46985 13.1854 -3.38367
H 3.97173 14.4772 -2.51985
O -13.8525 2.83271 -2.76214
H -13.1651 3.33487 -2.23739
H -13.9957 1.93334 -2.34906
O 14.3134 4.9827 -13.4966
H 13.4718 5.35419 -13.8888
H 14.3043 5.11184 -12.505
O 10.3346 3.40333 5.15798
H 11.1369 2.86824 4.89339
H 9.74416 3.53472 4.36165
O -11.7189 -1.0019 8.78313
H -12.6392 -1.07033 9.16823
H -11.1162 -0.546884 9.43871
O 5.20921 3.34779 8.86355
H 4.57603 3.92639 9.37768
H 4.82391 3.15125 7.96192
O -9.7845 -14.8645 -2.00636
H -10.4051 -14.1029 -1.81937
H -8.97926 -14.5263 -2.49347
O -14.3577 -0.965471 9.18152
H -14.6115 -0.148227 8.66411
H 14.9897 -1.6085 9.18574
O 4.51203 8.65143 -5.6148
H 5.07942 7.86099 -5.84562
H 3.5479 8.38665 -5.63398
O 0.685458 13.8677 -14.4162
H 0.00123133 14.5736 -14.2332
H 1.17257 14.0868 14.8517
O 7.43232 -14.2939 11.0781
H 6.66619 -13.7043 11.3338
H 7.18845 -14.8238 10.2658
O 0.574397 6.8173 5.69455
H 0.725817 7.80044 5.59188
H 0.115444 6.63987 6.56512
O -7.26997 -9.12073 13.3529
H -6.3374 -8.77771 13.2404
H -7.29006 -9.79603 14.0902
O 7.96575 -7.66707 13.5626
H 7.98374 -7.01895 12.8012
H 8.58607 -8.42695 13.3681
O -11.198 -0.411552 14.9561
H -10.3765 -0.587461 14.4137
H -11.0412 0.375365 -14.5604
O 12.0419 7.93918 13.8331
H 12.6248 8.2118 13.0676
H 11.1662 8.41821 13.7722
O -12.2351 -5.7561 -7.47
H -11.2423 -5.8227 -7.37037
H -12.5301 -4.82538 -7.2538
O -10.3116 -10.6392 7.65163
H -10.9223 -11.3902 7.40053
H -9.41424 -11.0068 7.89603
O 13.2875 -0.597422 -0.817764
H 13.2809 -1.39986 -0.221045
H 12.5323 -0.660971 -1.47016
O 8.73015 13.5337 12.0423
H 9.68349 13.4731 11.7465
H 8.40715 14.474 11.9354
O 13.9074 -4.73742 -0.534756
H 13.9334 -4.36251 -1.46146
H 14.7281 -5.2857 -0.373852
O 8.18217 -1.1837 -12.63
H 8.44717 -1.403 -11.691
H 8.92716 -0.691489 -13.0803
O -7.70108 14.1169 11.7829
H -7.14327 13.3451 12.0882
H -8.32437 13.8133 11.0623
O -13.3685 -9.84575 -12.3038
H -13.6923 -10.6414 -12.8157
H -13.9134 -9.74036 -11.4719
O 10.6746 12.1804 -9.38352
H 10.1911 11.3143 -9.25627
H 10.7385 12.6583 -8.50743
O 0.826721 13.2565 9.40566
H 1.32519 13.2608 8.53875
H 1.39527 13.6662 10.1191
O -3.80521 -8.03266 2.99726
H -4.28535 -8.47618 3.75408
H -4.10525 -8.43347 2.13161
O 10.3103 -3.42588 5.62053
H 10.6365 -2.73828 6.26925
H 11.0629 -3.70482 5.02399
O 12.7146 -13.4058 12.9789
H 13.5941 -13.265 13.4336
H 12.1982 -14.1119 13.4634
O 11.9412 7.46632 -10.7701
H 11.6159 8.0295 -10.0105
H 12.5024 8.02385 -11.3819
O -2.88757 -3.46264 -10.9302
H -2.02045 -3.89217 -11.1825
H -2.93018 -3.35605 -9.93682
O -3.03733 -12.6872 -1.73471
H -2.97093 -12.1339 -0.904333
H -2.25689 -12.4919 -2.32866
O -13.3966 -4.8667 -12.3853
H -13.4635 -5.0863 -11.412
H -14.186 -5.24636 -12.8677
O 4.71665 14.5448 10.8696
H 5.16818 14.6978 9.99057
H 5.17605 13.8011 11.3553
O -6.40782 12.6631 -6.12488
H -6.41607 12.5648 -7.12002
H -5.68772 12.0864 -5.73899
O 6.81507 -2.28689 -7.07508
H 7.32293 -1.44478 -7.25659
H 7.45668 -3.04615 -6.9661
O 11.1203 2.79881 -5.35162
H 10.7192 3.71456 -5.32692
H 11.7367 2.68377 -4.57266
O 8.21245 -2.59679 8.80691
H 7.5331 -2.34721 9.497
H 8.09358 -2.02039 7.99842
O 11.3473 -3.90862 14.6744
H 12.2567 -3.62554 14.9791
H 10.7789 -4.11676 -14.6429
O -13.7299 -13.9699 0.910446
H -12.7801 -13.843 1.1967
H -13.7696 -14.6521 0.180338
O 8.59214 3.71143 -3.92886
H 8.44187 4.55654 -3.41581
H 8.92939 3.93252 -4.84396
O 5.20149 -12.4159 11.5144
H 4.36349 -12.4417 12.0595
H 5.01654 -11.9678 10.6398
O -1.72511 2.42246 -9.27087
H -1.13295 2.70571 -8.51645
H -2.07717 3.23218 -9.74036
O -1.57232 -9.04071 -6.42489
H -1.70967 -9.78802 -5.77474
H -0.840143 -9.28305 -7.06145
O -8.98942 9.55095 -11.8076
H -9.00343 9.02494 -12.658
H -9.07304 8.92863 -11.0293
O -7.438 4.52973 -9.04616
H -7.71158 5.49139 -9.02644
H -8.10497 3.98299 -8.53996
O -0.535338 -7.5828 13.0811
H -0.869522 -7.37473 12.1619
H 0.136356 -6.89456 13.3553
O 3.99364 -2.36011 7.48763
H 3.97101 -2.27324 8.4836
H 4.46256 -1.56912 7.09463
O 2.04353 -3.36816 -8.16482
H 2.78404 -2.79786 -8.52038
H 2.15074 -3.47557 -7.17639
O 13.9368 -0.695472 -7.21629
H 13.7871 -1.65517 -7.45422
H 13.0687 -0.280363 -6.94389
O 13.936 -14.1467 5.58008
H 13.348 -14.7711 5.06597
H 13.4002 -13.3593 5.88499
O 12.4745 1.71969 4.55403
H 12.6714 0.835586 4.97784
H 13.0462 1.83451 3.74157
O 13.0294 -0.558696 6.00516
H 13.3542 -1.32473 5.45043
H 12.2213 -0.840675 6.52227
O -12.9211 1.63199 9.85749
H -13.4524 1.43519 9.03349
H -13.4238 1.31523 10.6618
O -4.06915 -8.35353 -7.40248
H -3.15195 -8.33949 -7.00427
H -4.59689 -7.58014 -7.05122
O -10.2844 -13.5868 2.48999
H -9.85741 -13.9849 1.67807
H -10.5844 -12.655 2.28583
O 5.00959 -14.5982 4.31031
H 4.52888 -14.0323 3.64048
H 5.96849 -14.6903 4.0419
O 8.05928 6.9726 -6.95126
H 7.69849 6.04459 -6.8582
H 7.96209 7.45677 -6.08169
O -13.4786 -4.30575 14.8756
H -13.1864 -4.92396 -14.508
H -14.2119 -3.71527 -14.9006
O 8.2196 -4.24076 -11.9706
H 8.49527 -3.96798 -11.0488
H 9.03385 -4.38866 -12.5319
O 14.5846 -6.43385 -4.43127
H 14.2501 -6.92714 -5.23427
H 14.0016 -5.63931 -4.26144
O 0.514099 9.45628 5.2323
H 1.34716 9.86291 4.85723
H -0.187631 9.41799 4.52088
O 0.94985 10.163 12.024
H 0.315974 9.90959 12.7547
H 1.8892 10.002 12.3268
O 14.056 -9.99328 11.7981
H 13.1732 -9.66949 11.4577
H 14.6395 -10.2439 11.0256
O -0.578711 -12.4136 7.84285
H 0.305655 -12.168 8.23979
H -0.674509 -11.9788 6.94744
O 5.40122 2.07355 -5.62878
H 4.77038 1.33054 -5.85236
H 5.04483 2.59055 -4.85049
O -14.4102 11.3262 -5.76275
H -13.5654 10.7995 -5.85735
H -14.1953 12.2437 -5.42816
O 2.16188 -14.3784 5.02886
H 2.87758 -13.9143 5.55075
H 2.20215 -14.0848 4.07379
O 0.554654 8.84173 -1.90542
H -0.440966 8.83496 -1.99877
H 0.844491 8.04945 -1.36849
O -12.4763 -12.4318 6.28116
H -12.9068 -13.1166 6.86909
H -13.1837 -11.8905 5.82668
O -2.15081 -7.65104 5.29909
H -2.65303 -7.90549 4.47262
H -2.77837 -7.23037 5.95424
O -11.4742 -11.1981 1.82037
H -10.8609 -10.4109 1.75458
H -12.2684 -11.0521 1.23046
O -14.2922 1.41714 12.474
H -13.7175 1.99438 13.0541
H -14.4237 0.528698 12.9137
O -5.05793 9.17165 4.18591
H -4.27231 8.62047 3.90479
H -4.73648 10.0099 4.62636
O -6.46748 -3.34608 -13.3921
H -6.12173 -3.02079 -12.512
H -5.70149 -3.48903 -14.0189
O 14.9867 3.80433 -8.55223
H -14.835 2.96331 -8.09653
H 14.2711 4.24586 -8.01088
O 9.01456 -10.4781 -3.71783
H 9.25648 -10.5844 -2.75336
H 8.47017 -9.64755 -3.83537
O -7.28371 -12.9459 -4.02789
H -7.94433 -12.3382 -4.46864
H -6.78408 -12.4408 -3.32411
O 9.81993 7.25126 -12.6951
H 10.364 7.30544 -11.8578
H 9.43466 8.1508 -12.901
O -9.24591 3.14198 -7.33397
H -9.23413 3.62854 -6.4604
H -8.66251 2.33213 -7.27233
O 14.68 4.68159 -4.19788
H -14.8767 4.23719 -3.49591
H -14.851 5.26235 -4.76675
O -7.37647 -11.9851 -0.036336
H -8.13514 -11.6394 -0.588538
H -7.58751 -12.9108 0.277736
O -4.89386 -3.9486 13.2027
H -5.65472 -3.39944 12.8569
H -4.26533 -4.15658 12.4532
O 14.9125 -6.52978 6.92515
H 14.7636 -5.56099 7.12345
H 14.1553 -7.06641 7.29769
O 6.447 -8.5422 -7.60155
H 7.1923 -8.49464 -8.2666
H 5.68888 -9.06783 -7.98755
O -0.809146 2.14284 -12.6955
H -1.24942 1.64626 -13.4436
H -0.0642318 1.59031 -12.3216
O -4.95463 10.5731 -14.4818
H -5.88841 10.2659 -14.2982
H -4.81211 10.6344 14.6436
O 6.04905 8.05713 11.1411
H 7.00506 7.98654 11.4258
H 5.94691 7.681 10.2201
O 6.59946 -3.99072 12.2303
H 5.95212 -3.9413 12.9909
H 7.17896 -3.17574 12.2323
O -13.2744 2.78882 -6.69588
H -12.6032 2.09798 -6.96471
H -13.8223 2.44263 -5.93434
O -9.01602 -1.31262 5.41947
H -8.13151 -0.927049 5.68215
H -9.41524 -1.79323 6.20028
O -12.8064 -7.13147 8.17706
H -13.6882 -7.2769 7.72824
H -12.5852 -6.15626 8.16916
O -2.90161 -7.57006 14.8867
H -2.88902 -8.0516 -14.3503
H -2.17253 -7.92445 14.3011
O 3.49064 6.20748 6.9482
H 4.22944 5.87306 6.36308
H 3.39014 7.19496 6.82657
O 3.07075 -6.17486 6.63116
H 2.32753 -6.31537 7.2853
H 3.82575 -5.69845 7.08175
O -13.1621 5.40358 -5.79174
H -12.8377 6.06451 -6.46846
H -13.0179 4.47588 -6.13611
O 7.04123 -9.84075 10.8099
H 6.96978 -8.86612 10.5977
H 6.51667 -10.3669 10.1405
O -13.7901 -8.30517 -6.68772
H -13.1004 -7.58771 -6.78534
H -14.6886 -7.88755 -6.55203
O -4.14254 11.5411 -4.84665
H -4.09451 12.3831 -4.30924
H -3.68759 11.6807 -5.72618
O -3.82752 0.481841 -5.52965
H -4.64493 0.715609 -6.05616
H -4.09784 0.122763 -4.63633
O 13.9496 4.6705 -1.01972
H 14.3012 3.91289 -0.469794
H 14.7048 5.27231 -1.27959
O -8.71809 12.1802 -0.0191708
H -7.86384 12.6188 -0.298243
H -8.99114 11.5118 -0.711091
O -11.4408 -2.07392 -3.81541
H -10.6936 -1.56483 -4.24261
H -12.0882 -2.36838 -4.51841
O 8.52563 5.4215 9.27318
H 8.87311 6.27418 9.6633
H 8.87641 5.31322 8.34299
O -4.64444 13.0656 9.2319
H -4.55965 12.3798 9.95475
H -3.73937 13.4267 9.0072
O -9.04558 4.54648 -4.98198
H -9.63865 4.09249 -4.31701
H -9.11463 5.53759 -4.86816
O -5.76423 -0.453375 -3.19226
H -6.04658 -0.311186 -4.14098
H -6.23488 0.202887 -2.60249
O 0.957036 3.20246 13.0009
H 1.12309 4.0669 12.5264
H 0.276197 2.67099 12.4969
O -4.32156 -0.389024 5.214
H -5.21506 -0.069403 5.52946
H -4.41188 -1.3098 4.83449
O 9.00158 2.92566 13.8802
H 8.88341 3.32416 14.7898
H 8.46552 3.44656 13.2159
O -5.27737 -5.41042 -8.40123
H -5.94919 -5.30561 -9.1345
H -4.51993 -4.77462 -8.54976
O 10.9128 -4.14703 -10.8638
H 10.464 -3.34744 -10.4647
H 10.917 -4.89358 -10.1984
O 12.6497 -12.5557 -1.90262
H 11.7796 -12.5753 -1.41016
H 13.2324 -11.8379 -1.5214
O 11.382 3.8692 -11.1837
H 11.422 4.28245 -12.0934
H 12.2298 3.36898 -11.0072
O 7.46748 -5.8711 -8.50501
H 6.82624 -5.10477 -8.5446
H 7.32767 -6.37914 -7.65509
O 10.1143 -10.9898 -1.0219
H 9.91177 -11.9607 -0.893867
H 10.4177 -10.5954 -0.154489
O -10.1174 -2.6012 -1.47031
H -10.8869 -2.23438 -0.947525
H -10.3721 -2.6695 -2.43492
O 1.38563 13.1436 -2.66058
H 0.997054 14.047 -2.8423
H 0.796818 12.441 -3.0601
O 10.8883 -2.74794 12.2776
H 11.6539 -2.12248 12.1272
H 11.0585 -3.29165 13.0994
O -10.8665 14.1284 -11.5546
H -9.9228 13.9113 -11.3051
H -11.4024 14.2875 -10.7254
O -8.74743 -2.33431 -7.38864
H -8.47243 -3.29519 -7.42189
H -9.74113 -2.27511 -7.29342
O 13.8837 -1.95437 -14.8196
H 14.5838 -1.39028 14.8558
H 14.0779 -2.02685 -13.8413
O 5.912 6.08465 -4.9331
H 5.16459 6.00819 -4.27314
H 6.03132 5.2107 -5.40427
O -2.15085 -10.1379 12.6252
H -1.82326 -10.7012 11.8666
H -1.91347 -9.18124 12.4568
O -14.0407 -7.18376 -14.3464
H -13.3423 -7.53775 -13.7243
H -14.1503 -7.81201 14.9967
O -11.9913 -7.88848 5.59074
H -12.1762 -7.8133 6.57064
H -11.2344 -8.52491 5.4422
O 15.02 13.1913 -14.5079
H -14.7278 13.4925 14.7247
H -14.3844 13.2727 -13.8073
O 12.9708 -14.1054 -3.92652
H 13.7661 -13.7956 -4.44766
H 12.9127 -13.5919 -3.0704
O -7.71778 -7.44762 -12.9473
H -8.43447 -7.28665 -13.6259
H -6.98642 -7.9923 -13.3578
O -2.05434 -8.98092 -12.9351
H -2.35563 -9.90182 -13.1824
H -1.25039 -9.04091 -12.3434
O -9.75961 -11.5869 -2.15874
H -9.99304 -10.75 -1.66376
H -9.3589 -11.35 -3.0438
O -5.24212 -2.73743 3.43749
H -4.75796 -3.59065 3.63146
H -5.24437 -2.57226 2.45122
O 3.53224 -12.9929 -4.55632
H 3.45628 -12.3097 -5.28262
H 3.46586 -13.9088 -4.95204
O 13.3931 -1.37691 12.0575
H 13.9568 -2.13131 12.3939
H 13.3831 -0.640762 12.7342
O 13.2922 11.3049 -7.02258
H 14.2204 11.1831 -6.67082
H 13.0336 10.5053 -7.56463
O 2.56562 10.4701 -2.87066
H 1.83447 11.1494 -2.80717
H 2.32489 9.66909 -2.32258
O 14.2901 12.8432 6.7171
H 14.876 13.3617 6.09426
H 14.318 11.8742 6.4718
O -2.99071 7.43273 0.46
H -2.50788 8.06253 -0.148489
H -3.89018 7.22277 0.0767515
O -2.09124 12.0545 -12.0461
H -2.27108 11.1755 -12.4876
H -1.27093 11.981 -11.4789
O -6.48171 -1.11615 -14.9712
H -6.70406 -1.76841 -14.2466
H -5.6773 -0.5846 -14.7059
O 8.7097 -8.65489 -0.962131
H 9.2939 -9.46633 -0.979648
H 9.26898 -7.83837 -1.10537
O 0.188409 -12.6966 -8.79489
H 0.0591357 -13.6369 -8.48015
H 0.245703 -12.6841 -9.79318
O -9.00213 -5.12882 6.35226
H -8.47534 -5.96118 6.52458
H -8.59982 -4.63309 5.58257
O 10.5574 -10.6482 5.60755
H 10.7232 -9.7704 5.15815
H 9.62147 -10.9468 5.4207
O 12.7757 -4.42876 -3.24457
H 12.4003 -4.02423 -2.41068
H 12.1378 -5.11177 -3.60023
O -10.3037 7.37876 4.06069
H -9.71501 8.13769 3.78235
H -10.7954 7.62707 4.89531
O 10.9833 6.80693 5.37904
H 10.3914 6.40181 6.07585
H 10.4452 7.00806 4.56051
O 10.1695 1.91279 -2.72483
H 9.47436 2.49922 -3.14069
H 10.8048 1.59755 -3.4298
O -12.3944 2.65594 14.1348
H -13.0082 2.44493 14.8955
H -12.4948 3.6184 13.8825
O -14.1166 7.4148 2.47989
H -13.1727 7.38374 2.1512
H -14.7415 7.26885 1.71298
O 5.75696 -7.14604 -5.2712
H 5.84364 -7.72952 -6.0787
H 6.17524 -7.60081 -4.48492
O -5.61523 -7.35833 -1.38788
H -6.32553 -7.14756 -0.716268
H -5.49202 -6.57658 -1.99919
O -10.4973 5.1361 -8.85325
H -10.206 4.42573 -8.21253
H -11.2982 4.81882 -9.36111
O -12.0189 6.82478 -3.77882
H -11.8896 6.20849 -3.00198
H -12.2708 6.29331 -4.58759
O -6.54438 -6.15625 9.59364
H -5.86296 -6.69128 10.0931
H -7.29812 -6.75207 9.31634
O 2.62565 12.2235 -12.8956
H 3.35316 12.4351 -13.5482
H 1.77747 12.6659 -13.1869
O -7.96493 -10.226 -14.148
H -8.23745 -10.9238 -13.4855
H -6.98984 -10.0302 -14.0437
O -3.86674 -9.21411 -9.71393
H -3.98941 -8.49684 -10.3999
H -3.98274 -8.8248 -8.80014
O 6.00574 -4.16393 -14.4473
H 6.19702 -3.3573 -15.0066
H 6.84524 -4.46058 -13.9921
O -5.08461 7.87708 9.97386
H -5.02684 8.34219 10.8572
H -5.1853 8.55538 9.24599
O -7.55846 10.0403 -14.636
H -8.16861 10.8277 -14.5476
H -8.04765 9.20848 -14.3738
O 14.1239 -10.2997 0.4898
H 13.341 -9.74583 0.206558
H 13.7985 -11.1329 0.936976
O 10.4344 -3.80031 9.81047
H 10.6455 -3.34094 10.6733
H 9.67103 -3.33458 9.3629
O 4.36929 0.709614 -11.4216
H 5.1047 1.28256 -11.0598
H 4.75855 -0.00376628 -12.0044
O -0.635973 11.8256 -3.96826
H -0.920318 12.5708 -4.57156
H -1.0977 10.9815 -4.24073
O -11.8402 7.28064 1.08826
H -11.1902 6.52399 1.01757
H -11.3416 8.14719 1.11215
O 6.37377 -1.04414 -10.0057
H 5.6432 -1.70364 -9.82865
H 6.29246 -0.699728 -10.941
O 14.9864 -7.9359 2.51653
H -14.7732 -7.57293 1.65446
H 14.8229 -8.91797 2.4226
O 12.5566 12.3407 4.52196
H 12.3495 13.3055 4.35971
H 12.8102 12.2109 5.48053
O 10.7858 -8.30388 4.52216
H 11.2286 -7.65413 5.14003
H 10.4881 -7.82734 3.69493
O -1.38815 6.85037 13.6068
H -0.656489 6.40394 13.0917
H -2.1754 6.23672 13.6675
O -0.267741 -8.61887 9.0665
H -0.889357 -8.98209 8.37247
H 0.47462 -9.27039 9.22284
O -8.46223 11.9289 -3.9776
H -7.95748 12.7601 -4.21068
H -9.4189 12.1589 -3.79902
O -14.5704 15.0176 -10.7265
H 14.6858 14.519 -10.5971
H -14.7256 -14.3188 -11.3367
O 8.82061 -3.96604 -6.12121
H 8.77089 -4.96455 -6.09865
H 9.76798 -3.68278 -6.2705
O -1.37448 2.15798 9.96873
H -0.733827 2.06831 9.20614
H -1.28906 1.36419 10.5709
O -12.4739 -1.47032 11.5545
H -13.2021 -2.03719 11.1693
H -12.0362 -1.95795 12.3099
O -2.41783 7.65814 -10.577
H -3.03452 8.06955 -11.2482
H -1.51085 8.07092 -10.6607
O 0.49375 -6.50518 4.53801
H 1.26968 -6.57255 5.16524
H -0.358872 -6.51324 5.06049
O -3.8877 -6.67661 7.01232
H -4.56646 -7.01592 7.6636
H -3.93901 -5.67896 6.96681
O 13.2778 1.10983 13.8211
H 13.9155 1.8234 13.531
H 12.3412 1.39977 13.6243
O 10.0431 7.37142 -8.42956
H 9.23541 7.23282 -7.8564
H 9.99369 6.76912 -9.22631
O 0.846019 9.46671 -7.25968
H 1.32745 9.09425 -8.0531
H -0.0626157 9.05381 -7.19709
O 1.12983 -4.58442 -11.0745
H 1.95934 -5.13569 -11.1641
H 1.27046 -3.69685 -11.5132
O 1.62037 4.97739 -3.90621
H 1.13848 4.57759 -4.68593
H 1.48813 5.96862 -3.90526
O -8.4477 -4.66757 11.1574
H -9.28434 -4.31915 10.7347
H -7.90478 -5.15237 10.4716
O 1.11805 -2.40759 -12.605
H 1.9889 -2.62659 -13.0451
H 0.370719 -2.55559 -13.2528
O 6.49884 14.5082 8.81554
H 7.07193 13.742 8.52484
H 6.30818 -15.015 8.03101
O -6.77772 0.13835 6.34066
H -6.99326 1.11474 6.32586
H -6.58299 -0.145817 7.27946
O 8.49813 -14.1733 1.3178
H 8.85165 -13.3598 1.77959
H 8.76383 -14.9896 1.83066
O -0.25317 13.0969 2.16479
H -0.786516 13.3429 1.35543
H -0.786972 13.2919 2.98763
O 10.7289 -0.628686 1.76973
H 11.2168 -1.34905 2.26269
H 10.9433 0.258642 2.17801
O 13.1369 4.56671 -6.75728
H 12.2399 4.26568 -6.43337
H 13.7166 4.78996 -5.97362
O 5.15379 10.2124 -3.50914
H 4.28713 10.4476 -3.06916
H 4.97236 9.76576 -4.38529
O 6.40866 -11.5431 -5.40851
H 6.10154 -10.889 -4.71729
H 7.38369 -11.4083 -5.58506
O 4.93263 -13.706 -13.2849
H 5.44619 -14.0338 -12.4919
H 3.96175 -13.6479 -13.0524
O -1.94558 -1.14184 -12.0527
H -1.87564 -0.453901 -11.3303
H -2.1862 -2.02492 -11.6499
O -10.3355 3.88675 -12.2348
H -9.75872 4.66394 -12.4864
H -11.1647 4.21882 -11.7851
O 13.4456 8.28057 11.0272
H 12.6263 7.72664 10.8787
H 13.1924 9.24735 11.0624
O 7.72112 -6.2069 2.52644
H 7.79112 -6.42213 3.5005
H 6.8491 -6.54476 2.17226
O -8.80509 -10.5693 11.5427
H -8.04795 -10.9579 11.0176
H -8.44255 -9.97242 12.2585
O 9.54649 -12.4525 -5.9575
H 9.56844 -11.947 -5.09495
H 9.51095 -13.4338 -5.76796
O 0.267356 -8.93133 -1.64096
H 0.311166 -9.77634 -1.108
H -0.636214 -8.51638 -1.5342
O -6.60065 -14.8089 -7.89264
H -6.2715 -14.5216 -6.9931
H -7.59387 -14.9216 -7.86377
O 7.20886 -14.7332 -1.09098
H 6.94062 14.7707 -0.344855
H 7.75596 -13.9799 -0.725823
O -6.28268 -4.25801 -5.44024
H -7.16231 -4.53512 -5.82687
H -5.57131 -4.33927 -6.13836
O 12.2655 -7.57792 -10.2541
H 11.7318 -8.21477 -10.8105
H 11.9027 -7.56457 -9.32231
O -11.4102 -13.5929 -5.49424
H -11.3024 -13.5965 -6.48841
H -10.5217 -13.4355 -5.06319
O 3.21466 -3.43533 -13.9865
H 4.10005 -3.67881 -14.3826
H 2.54762 -3.30027 -14.7192
O 3.79374 11.8345 2.87054
H 3.65395 11.7193 3.85401
H 3.35673 12.6818 2.56879
O -11.2993 9.37114 -3.28484
H -11.5497 8.40392 -3.32663
H -11.3857 9.77745 -4.19449
O -3.0759 1.02222 7.12889
H -3.75899 1.57779 7.60296
H -3.42273 0.765652 6.22672
O 7.40454 9.46541 8.85804
H 7.01545 8.65911 8.4125
H 7.52149 9.28292 9.83428
O 10.8789 3.30134 8.14855
H 10.1129 3.93642 8.24864
H 10.975 3.04404 7.187
O -14.2587 -13.528 -5.18753
H -14.7509 -12.6703 -5.33691
H -13.2867 -13.3922 -5.379
O -10.7488 -4.26235 9.99717
H -11.5072 -3.8011 9.53659
H -11.0853 -5.09038 10.4457
O 1.65765 -7.45054 -13.4076
H 2.5917 -7.5907 -13.7361
H 1.25955 -6.65497 -13.8643
O -10.8545 -14.1779 10.0378
H -10.4572 -14.982 10.4801
H -11.0587 -14.3901 9.08212
O 9.32878 2.39487 -8.89287
H 9.43424 3.35068 -9.16732
H 10.0488 1.84508 -9.31641
O -0.973645 11.5523 10.6405
H -0.304177 10.9783 11.1121
H -0.497332 12.2613 10.1205
O 0.887092 -11.5382 -14.49
H -0.0275821 -11.2109 -14.7273
H 0.912654 -11.7823 -13.5206
O 12.5687 -12.1657 6.75125
H 13.2529 -11.6566 7.27344
H 11.8805 -11.5324 6.3973
O -0.620213 -13.7805 14.8477
H -1.37354 -13.6771 -14.6161
H 0.148624 -13.2094 -14.9779
O 14.2484 -12.7185 1.92905
H 13.3882 -13.2156 2.04288
H 14.8967 -13.286 1.42142
O 3.3064 -0.16714 -8.38635
H 3.70453 -0.471027 -9.2519
H 3.92792 -0.392789 -7.63615
O 11.4077 0.462117 -6.8079
H 11.4885 1.3963 -6.46035
H 10.6449 0.00218464 -6.35334
O -8.05871 -11.6612 -7.41839
H -8.63614 -11.5592 -8.22844
H -7.13625 -11.3339 -7.62324
O -5.36742 9.03687 -5.26015
H -4.93254 9.87448 -5.59078
H -5.98022 9.25672 -4.50109
O 11.8593 14.3674 10.0278
H 12.4411 14.9718 10.5721
H 11.3552 14.9078 9.35413
O -4.56346 -1.26477 10.6166
H -4.08422 -1.8906 10.0012
H -5.45036 -1.6548 10.8642
O 7.98732 -12.2125 4.63768
H 7.28215 -11.7889 5.20623
H 8.09187 -13.1727 4.89661
O 14.7862 -13.6337 10.9509
H 13.9283 -13.1665 11.1647
H 14.6694 -14.6189 11.0763
O -13.9581 -12.49 -12.7816
H -13.199 -12.6181 -12.1434
H -13.7011 -12.8441 -13.6808
O 5.81231 2.87522 -1.33217
H 5.70818 1.88353 -1.25652
H 6.74351 3.13321 -1.07463
O -1.76951 7.88093 -2.55965
H -1.97054 6.94652 -2.85373
H -1.88141 8.50509 -3.3329
O -14.1132 -14.6509 7.68192
H -14.4268 -14.5808 8.62889
H -14.8896 -14.5285 7.06373
O 10.9073 -9.0965 9.98649
H 10.8144 -9.09051 10.9822
H 10.7093 -10.0129 9.63876
O 3.9234 3.12557 -8.66835
H 4.3685 2.73367 -9.47353
H 4.46501 2.91771 -7.85381
O 6.20725 5.8942 2.41212
H 6.67344 5.0124 2.34052
H 6.23218 6.20831 3.36119
O 0.104883 14.5139 -8.89178
H -0.699458 14.0364 -8.53821
H 0.67737 13.8709 -9.40056
O 9.43019 -13.1105 -10.0694
H 8.75349 -13.7647 -9.7317
H 10.2347 -13.6039 -10.4
O -5.51081 -8.82815 -13.9498
H -4.86709 -8.81782 -13.1846
H -5.11654 -9.3444 -14.7101
O -2.26333 -1.28523 8.12299
H -1.43265 -1.09033 8.64453
H -2.52974 -0.472683 7.60453
O -12.3483 0.758725 6.93743
H -13.3461 0.720322 6.88407
H -12.0214 0.0598287 7.57359
O 14.5763 12.9132 -0.359001
H -14.5996 13.2413 -0.475648
H 14.2616 13.1253 0.56621
O 6.81794 -8.03133 6.5434
H 7.6197 -7.7152 6.03618
H 6.04339 -7.42847 6.35197
O -8.67171 6.62513 8.11302
H -8.26793 5.80434 7.70894
H -8.54556 7.3989 7.49222
O 1.06662 -8.48887 -4.22452
H 0.983589 -8.9175 -3.32485
H 0.745824 -7.54306 -4.174
O -14.574 13.8324 4.59025
H 14.9363 14.6253 4.6781
H -14.4061 13.647 3.62204
O 0.657741 -13.1628 -12.1352
H 1.41252 -13.5183 -11.5839
H -0.0765935 -13.8406 -12.1715
O -11.7623 4.23147 -0.934121
H -11.725 3.90977 0.0119942
H -11.172 5.03198 -1.03751
O 13.369 11.0809 11.7726
H 13.577 11.5944 10.9401
H 14.1326 10.4724 11.9884
O -8.03371 5.80785 -12.0928
H -7.98331 5.98515 -11.11
H -7.313 5.16527 -12.353
O 2.15336 -3.72037 -5.53137
H 1.71921 -2.86287 -5.25525
H 3.11802 -3.70539 -5.26828
O -4.41181 14.0401 -8.70608
H -4.57066 13.3414 -9.40363
H -5.28897 14.4057 -8.39475
O 1.18675 -2.7619 14.3708
H 1.62956 -2.04189 13.8364
H 0.280849 -2.45282 14.6603
O 6.5517 0.240533 -0.977199
H 6.07004 -0.482792 -0.482405
H 7.48927 0.310158 -0.636392
O -5.60139 4.8055 -11.5071
H -6.09977 4.84764 -10.6412
H -4.62906 4.96922 -11.3404
O 1.56985 6.25265 9.23594
H 2.23289 6.30638 8.48927
H 0.655218 6.10508 8.85953
O -4.64543 3.95159 4.7996
H -3.71758 3.67406 4.55044
H -4.91883 3.48393 5.64017
O 8.82734 2.92852 2.70608
H 8.57899 2.03298 3.07535
H 9.82044 2.98232 2.60182
O 3.03873 -12.714 13.1618
H 2.75638 -11.807 13.4743
H 2.37117 -13.0626 12.504
O 10.7097 11.9471 0.718753
H 11.5375 11.4726 1.01818
H 10.2372 11.3929 0.033458
O -9.06239 4.34577 11.2249
H -8.49501 5.05556 10.8074
H -9.65671 3.94212 10.5292
O -4.40127 11.9456 1.57185
H -3.65111 11.3868 1.21826
H -5.2295 11.389 1.63703
O -7.66884 4.7139 6.3779
H -7.06124 5.30602 5.84854
H -7.72874 3.81831 5.93705
O -9.8162 0.648968 -5.98771
H -9.02661 0.0466141 -5.87048
H -10.1718 0.555236 -6.91765
O 12.0266 -7.78081 -13.6358
H 12.0857 -8.44419 -14.3817
H 11.2963 -8.04968 -13.0077
O 2.8849 -14.3183 -10.8739
H 3.65565 -13.7482 -10.5893
H 2.97625 14.8849 -10.4696
O -10.7215 -5.1807 -11.9808
H -11.668 -4.88025 -12.0986
H -10.1491 -4.76345 -12.6867
O 14.1084 -2.30704 4.16611
H 13.568 -3.13973 4.28738
H -15.0472 -2.49665 4.38261
O -12.9857 12.8099 8.21434
H -13.8256 13.3455 8.12663
H -12.357 13.2753 8.83738
O -11.3797 -3.20876 7.4096
H -10.5165 -3.67296 7.60822
H -11.4264 -2.35536 7.92879
O 12.0517 -14.1492 1.72024
H 11.9074 -14.9664 1.1622
H 11.2831 -13.5215 1.59711
O -9.72396 -2.4203 2.94456
H -10.4271 -3.11367 3.10201
H -9.4945 -1.97567 3.8104
O 7.55007 -1.34444 6.51129
H 6.85911 -0.643373 6.68764
H 7.68471 -1.43907 5.52491
O 1.04778 6.4615 -0.728845
H 0.497517 5.89979 -1.34668
H 1.99887 6.46298 -1.03777
O 7.79918 -6.35766 -14.1372
H 8.72534 -6.1131 -13.8501
H 7.83392 -6.80025 -15.0333
O 11.3785 13.1911 12.9912
H 11.7593 13.8382 13.6517
H 12.1105 12.8434 12.4053
O 9.93186 -8.71708 -11.7509
H 9.14692 -8.57049 -11.1489
H 9.9327 -9.6638 -12.073
O 9.71988 8.41507 3.22144
H 10.5146 8.11477 2.69389
H 9.93268 9.27581 3.68388
O -9.24266 -4.74352 13.7038
H -8.79597 -4.62394 12.8171
H -9.15736 -5.69663 13.9942
O 12.1628 -6.5744 10.8071
H 12.1109 -7.47952 10.3851
H 12.4558 -5.90474 10.1246
O 1.59408 5.82469 -13.1909
H 2.58576 5.74092 -13.2887
H 1.15046 5.02522 -13.5959
O -9.77535 0.694926 -1.79424
H -9.71723 -0.239555 -2.1455
H -8.85351 1.05508 -1.65094
O 1.57235 -6.42519 8.95626
H 0.757773 -6.87119 9.32717
H 1.37139 -5.46278 8.77352
O -4.91201 7.55182 -12.7965
H -5.06695 6.58822 -12.5786
H -4.84964 7.66341 -13.7883
O -3.9167 3.44398 9.86992
H -3.66369 4.40764 9.95578
H -3.1186 2.87174 10.0586
O 0.519683 -11.4711 -3.79244
H -0.442537 -11.2429 -3.64397
H 0.845382 -11.0185 -4.62254
O -14.0685 -10.9298 3.39949
H -14.6115 -11.5263 2.80839
H -13.1247 -11.259 3.42844
O -12.7485 4.01583 -10.1872
H -13.538 4.30841 -9.64772
H -12.9975 3.21848 -10.737
O 8.75221 -11.5896 11.7365
H 8.34447 -10.7065 11.5043
H 8.13913 -12.3256 11.4494
O -1.67046 13.7207 -0.000805176
H -2.51025 13.8703 -0.522726
H -1.0579 14.5015 -0.124027
O 6.41547 -10.2649 14.0736
H 6.71548 -9.31164 14.0386
H 6.06911 -10.5386 13.1763
O -13.4572 4.69702 9.99465
H -14.2056 4.54986 10.6414
H -12.8908 3.87425 9.94753
O -14.5621 5.65097 4.92245
H -14.4171 6.24091 4.12811
H -13.6787 5.33469 5.26839
O -1.94105 0.856035 -14.9346
H -2.54639 1.52616 -14.505
H -2.30973 -0.0631598 -14.7961
O -9.71343 -9.46002 5.39669
H -9.97608 -9.92069 6.24452
H -9.26507 -10.1138 4.78718
O -4.93002 9.22555 12.5149
H -4.06887 9.03216 12.985
H -5.64456 8.62028 12.8657
O 3.17002 -5.54246 11.2003
H 3.20973 -6.38913 11.731
H 2.89181 -5.74966 10.2624
O 8.64611 -6.70469 -5.9775
H 9.27978 -7.47299 -5.887
H 7.8187 -6.89086 -5.44765
O -13.1206 -6.34687 3.45098
H -13.0211 -6.82324 4.32458
H -13.7166 -6.87724 2.8481
O -6.3926 2.52794 -12.7708
H -6.28951 3.25286 -12.0897
H -6.00842 1.67698 -12.4126
O 4.27472 6.21801 12.7287
H 5.05974 6.83459 12.6688
H 4.45405 5.51608 13.418
O 10.5636 5.90516 -5.36705
H 9.89423 6.57212 -5.69437
H 11.4827 6.29269 -5.4386
O 1.43026 1.69812 -8.27
H 1.96197 2.3827 -8.76865
H 1.92541 0.82931 -8.26634
O -0.959685 -9.54434 6.58236
H -1.48305 -8.79728 6.17248
H -0.261747 -9.85548 5.93731
O 2.88284 11.3176 -5.60146
H 2.84674 10.686 -4.82697
H 2.03599 11.2473 -6.12864
O -7.56081 -0.00860389 -8.70125
H -6.83392 0.354891 -8.11857
H -7.81252 -0.92433 -8.38803
O -8.53319 -14.5868 0.399881
H -9.28195 -14.9231 -0.171329
H -7.72436 14.9555 0.259357
O 13.8627 7.50332 0.508983
H 13.9369 6.80542 -0.203368
H 13.3204 8.27125 0.168044
O 8.35381 -5.90205 11.3355
H 9.2681 -5.81709 11.7316
H 7.77298 -5.16272 11.6762
O -11.0148 7.29639 8.92854
H -10.0535 7.02058 8.93136
H -11.2901 7.5359 7.99749
O -6.0667 9.44725 1.4198
H -6.90855 8.91179 1.35206
H -5.66215 9.31916 2.32531
O -15.0239 7.54833 -8.8749
H 14.9758 6.79128 -9.51832
H -14.2912 8.14954 -9.19363
O -5.53154 0.468552 -10.7063
H -6.49734 0.524828 -10.4532
H -5.01787 0.0337078 -9.96669
O 1.46815 8.91668 9.74371
H 0.891609 9.45699 10.3566
H 1.26973 7.94473 9.87006
O -5.9881 6.60479 5.15263
H -5.21293 5.97625 5.08888
H -5.75147 7.47147 4.71343
O 0.845947 4.75188 -10.6176
H 1.11923 5.30551 -11.4043
H 1.26859 3.84796 -10.6832
O -4.44843 -10.6522 14.2296
H -3.63845 -10.3918 13.7041
H -5.10261 -11.111 13.6283
O 5.06085 -14.7263 -7.78385
H 4.89665 -13.7499 -7.64349
H 5.60528 15.0282 -7.02564
O -8.08357 2.60529 4.60414
H -8.70829 3.33528 4.32689
H -7.90638 2.00431 3.82475
O 5.79708 6.84381 8.61864
H 6.16314 5.98094 8.27012
H 4.87572 6.98545 8.25661
O 4.33821 12.9313 -14.7878
H 5.26584 12.7664 -14.4526
H 4.2903 13.8399 14.9106
O -11.2402 -13.3691 -12.2641
H -11.0752 -12.7802 -11.4729
H -11.1253 -14.3259 -11.9971
O -0.658682 -5.43578 -8.61772
H -0.982566 -6.26472 -9.07376
H 0.0636149 -5.01426 -9.16602
O 5.39956 -9.64564 -11.9564
H 6.12128 -10.1796 -12.397
H 5.76049 -8.75113 -11.6926
O -8.30082 10.7079 -8.57207
H -7.33874 10.5334 -8.78174
H -8.48482 10.4606 -7.62076
O 11.7152 3.79614 13.2131
H 11.739 4.38545 14.0207
H 10.8415 3.31077 13.1804
O 3.9545 -7.35228 -14.9639
H 4.1434 -7.84558 14.3003
H 4.67002 -6.67135 -14.8077
O 11.7813 4.62448 10.6155
H 11.46 3.91865 9.98414
H 11.6136 4.33114 11.5567
O -9.86332 10.1844 10.9226
H -9.47334 9.26976 11.0294
H -10.5643 10.1667 10.2097
O -7.55203 6.58079 -2.61122
H -6.76823 7.12433 -2.31083
H -7.65719 5.78765 -2.01131
O 12.4195 8.78919 -8.17154
H 13.2355 8.26163 -8.40768
H 11.6194 8.18951 -8.18535
O -7.87744 1.64189 1.99567
H -8.87209 1.54168 1.97003
H -7.46329 1.02961 1.32216
O 11.1734 13.3834 -6.91471
H 11.8638 12.7001 -6.67731
H 11.5988 14.1167 -7.44511
O -14.6053 -6.54008 11.479