LAMMPS data file via write_data, version 15 May 2015, timestep = 4999000

2611 atoms
6 atom types
1749 bonds
4 bond types
894 angles
3 angle types
44 dihedrals
3 dihedral types
10 impropers
1 improper types

-1.5049331239839368e+01 1.5049331239839368e+01 xlo xhi
-1.5049331239839368e+01 1.5049331239839368e+01 ylo yhi
-1.5049331239839368e+01 1.5049331239839368e+01 zlo zhi

Masses

1 15.9994
2 1.00794
3 12.0107
4 1.00794
5 12.0107
6 12.0107

Bond Coeffs # harmonic

1 1000 1
2 469 1.4
3 367 1.08
4 469 0.7

Angle Coeffs # harmonic

1 100 109.47
2 35 120
3 63 120

Dihedral Coeffs # opls

1 0 7.25 0 0
2 0 7.25 0 0
3 0 7.25 0 0

Improper Coeffs # cvff

1 2.5 -1 2

Atoms # full

2165 722 2 4.0999999999999998e-01 -1.3901665267011584e+01 -1.1438870754116078e+01 -9.2965351735287207e+00 1 0 2
1155 385 2 4.0999999999999998e-01 -9.3701693061406104e+00 -1.4969306767413528e+01 -1.1258053607227398e+01 2 0 0
91 31 1 -8.1999999999999995e-01 -9.5259793003303024e+00 -1.1200309801662566e+01 -1.2645519590558809e+01 -1 2 1
92 31 2 4.0999999999999998e-01 -1.0255938337394737e+01 -1.1844388350681751e+01 -1.2874242062508008e+01 -1 2 1
199 67 1 -8.1999999999999995e-01 -1.1986608151491360e+01 -1.0985344974069751e+01 -9.1817405837371293e+00 0 -1 0
1741 581 1 -8.1999999999999995e-01 -8.9503387175901690e+00 -1.1156267150790569e+01 -9.7626812392548512e+00 1 -4 3
1742 581 2 4.0999999999999998e-01 -8.5653071911373129e+00 -1.1738449834832757e+01 -9.0465770002026034e+00 1 -4 3
2150 717 2 4.0999999999999998e-01 -1.0947420951746318e+01 -8.6777658114359824e+00 -1.1128514629044140e+01 2 2 2
200 67 2 4.0999999999999998e-01 -1.2015095733335425e+01 -1.1698051496345791e+01 -8.4808631258271383e+00 0 -1 0
2149 717 1 -8.1999999999999995e-01 -1.1798415731091541e+01 -8.7630122926399352e+00 -1.1646715517946589e+01 2 2 2
103 35 1 -8.1999999999999995e-01 -1.3128520930133895e+01 -1.4706665623627286e+01 -1.3912726393908656e+01 -2 -1 3
1442 481 2 4.0999999999999998e-01 -1.2147557851925598e+01 -1.1505469941409133e+01 -1.4441168058896407e+01 2 -5 0
1154 385 2 4.0999999999999998e-01 -8.5096604447935373e+00 -1.3827651503241269e+01 -1.0468907836150350e+01 2 0 0
2151 717 2 4.0999999999999998e-01 -1.2451485942589027e+01 -9.3136815653007687e+00 -1.1126856044296803e+01 2 2 2
648 216 2 4.0999999999999998e-01 -1.4608894957841654e+01 -1.4434598406124184e+01 -1.4755878085042816e+01 -2 0 2
1620 540 2 4.0999999999999998e-01 -7.8543124640958757e+00 -1.2461142301772162e+01 -1.2352157405618865e+01 2 1 2
1441 481 1 -8.1999999999999995e-01 -1.1656649286729463e+01 -1.2364157310390040e+01 -1.4294008123733269e+01 2 -5 0
1153 385 1 -8.1999999999999995e-01 -9.3721806086858308e+00 -1.4333365744152312e+01 -1.0486324180031438e+01 2 0 0
201 67 2 4.0999999999999998e-01 -1.1093274336673190e+01 -1.0995203015455550e+01 -9.6310165027842700e+00 0 -1 0
1443 481 2 4.0999999999999998e-01 -1.2286984021111735e+01 -1.3050513506698289e+01 -1.3931262279740960e+01 2 -5 0
467 156 2 4.0999999999999998e-01 -1.3746085786159661e+01 -5.1641095453575154e+00 -9.1618526223369283e+00 0 0 1
1384 462 1 -8.1999999999999995e-01 -9.5889222927025521e+00 -8.3470028785217352e+00 -1.0066494088992087e+01 -1 -3 0
1386 462 2 4.0999999999999998e-01 -9.6002547601865267e+00 -8.1183554108823035e+00 -9.0930552603383976e+00 -1 -3 0
1095 365 2 4.0999999999999998e-01 -1.2239699726845277e+01 -7.4211122792732134e+00 -1.2733099618139658e+01 1 0 2
1094 365 2 4.0999999999999998e-01 -1.3294152724368352e+01 -6.7976406723019061e+00 -1.3812921521837193e+01 1 0 2
1093 365 1 -8.1999999999999995e-01 -1.2328155284063566e+01 -6.8753189655423625e+00 -1.3566332268715636e+01 1 0 2
1485 495 2 4.0999999999999998e-01 -9.3044316533250360e+00 -6.4629854476463713e+00 -1.0482468785203434e+01 1 -1 3
1483 495 1 -8.1999999999999995e-01 -9.4527140717955191e+00 -5.4812622356982388e+00 -1.0601729429454181e+01 1 -1 3
2454 818 2 4.0999999999999998e-01 -1.4454448274414057e+01 -7.0249205333740345e+00 -1.0178280984473254e+01 0 0 1
1679 560 2 4.0999999999999998e-01 -1.4809632811224974e+01 -1.3867613042224676e+01 -8.7285090498722298e+00 0 -3 4
2452 818 1 -8.1999999999999995e-01 -1.3985565781373557e+01 -6.2778578281235475e+00 -1.0649489924323255e+01 0 0 1
2453 818 2 4.0999999999999998e-01 -1.4197408925646588e+01 -6.3147280336409821e+00 -1.1626093419176991e+01 0 0 1
120 40 2 4.0999999999999998e-01 -1.2319751965978238e+01 -9.2906320186635316e+00 -8.5106309444589670e+00 -1 -2 4
2164 722 1 -8.1999999999999995e-01 -1.4812244943095253e+01 -1.1820739053465504e+01 -9.1383816983090167e+00 1 0 2
1117 373 1 -8.1999999999999995e-01 -7.9064070862512041e+00 -1.3092743410986392e+01 -7.9539343090761436e+00 2 -1 4
1385 462 2 4.0999999999999998e-01 -9.0904817507869868e+00 -9.2032706015765626e+00 -1.0201970826989925e+01 -1 -3 0
1743 581 2 4.0999999999999998e-01 -8.8103807708616841e+00 -1.1587520601129462e+01 -1.0653985601773076e+01 1 -4 3
119 40 2 4.0999999999999998e-01 -1.3581083124011538e+01 -8.3864612371391054e+00 -8.0025737196341922e+00 -1 -2 4
118 40 1 -8.1999999999999995e-01 -1.2603741445354359e+01 -8.5631435990361950e+00 -7.8860496170977754e+00 -1 -2 4
93 31 2 4.0999999999999998e-01 -9.2832026137915165e+00 -1.0669594063114744e+01 -1.3457548849894859e+01 -1 2 1
1484 495 2 4.0999999999999998e-01 -8.5940291252455978e+00 -5.0446498469026455e+00 -1.0870096771348884e+01 1 -1 3
2450 817 2 4.0999999999999998e-01 -1.5004148536072503e+01 -9.9594668109742592e+00 -1.4347307221394352e+01 0 -3 3
2537 846 2 4.0999999999999998e-01 -1.1692764352040385e+01 -5.2936015124772791e+00 -1.2933888276158170e+01 0 0 1
2075 692 2 4.0999999999999998e-01 -7.8597939792055840e+00 -6.1880019827512438e+00 -1.4171360156180576e+01 -1 0 3
2439 813 2 4.0999999999999998e-01 -7.6432689961343074e+00 -9.6538503711832782e+00 -1.3267588459405307e+01 1 0 3
724 242 1 -8.1999999999999995e-01 -9.0384649038080589e+00 -9.3598413522712995e+00 -1.4922005179058997e+01 0 0 2
891 297 2 4.0999999999999998e-01 -1.4867674907447414e+01 -6.9343499457346454e+00 -1.4062026278840536e+01 2 -2 4
1678 560 1 -8.1999999999999995e-01 -1.4804387007435238e+01 -1.4803431449193715e+01 -8.3760778057105334e+00 0 -3 4
546 182 2 4.0999999999999998e-01 -1.1599617308970085e+01 -7.7177416924159790e+00 -1.4927907186171957e+01 1 -4 2
1430 477 2 4.0999999999999998e-01 -1.0213262299098400e+01 -5.0262997139496743e+00 -7.8598116064887007e+00 2 0 5
761 254 2 4.0999999999999998e-01 -8.4470687097713366e+00 -1.4819588647665238e+01 -1.3566056932487754e+01 3 0 1
2449 817 1 -8.1999999999999995e-01 -1.4331230657539390e+01 -1.0369181200371646e+01 -1.4963186181481117e+01 0 -3 3
715 239 1 -8.1999999999999995e-01 -2.8975510310065413e+00 -1.3760691859113470e+01 -8.9359381688165911e+00 0 2 0
881 294 2 4.0999999999999998e-01 -1.6540358324431956e+00 -5.5759368051904517e+00 -1.1289439738157128e+01 0 -4 2
1618 540 1 -8.1999999999999995e-01 -7.3906742063103419e+00 -1.2930119660856860e+01 -1.1600432037964604e+01 2 1 2
1949 650 2 4.0999999999999998e-01 -4.2943683905344088e-01 -1.2677654158000022e+01 -1.4135332726975394e+01 -1 1 0
1205 402 2 4.0999999999999998e-01 -2.1591693376472065e+00 -1.0074056335204178e+01 -1.4610694212462677e+01 2 2 0
2152 718 1 -8.1999999999999995e-01 -1.1851862482166275e+00 -7.3680710624753587e+00 -8.8863918333166154e+00 0 0 1
2153 718 2 4.0999999999999998e-01 -2.0399614930829024e+00 -7.5135190087525858e+00 -8.3881996684074238e+00 0 0 1
578 193 2 4.0999999999999998e-01 -2.6250553311763021e+00 -1.0045022343184115e+01 -1.1198172854270624e+01 -1 0 2
1298 433 2 4.0999999999999998e-01 -8.6204245191817463e-02 -9.1447559002156851e+00 -9.5284488722583625e+00 0 -1 -1
459 153 2 4.0999999999999998e-01 -2.6613021653020841e+00 -1.2306865299491824e+01 -9.8294865945892305e+00 1 0 2
529 177 1 -8.1999999999999995e-01 -4.5490535849890534e+00 -1.2334481726804235e+01 -1.4654050775365191e+01 1 -4 -1
1118 373 2 4.0999999999999998e-01 -7.1099764952407973e+00 -1.3694705846602158e+01 -8.0116472896734088e+00 2 -1 4
1075 359 1 -8.1999999999999995e-01 -3.2561260194222843e+00 -1.4667019981643209e+01 -1.3378679362642069e+01 0 -2 4
1262 421 2 4.0999999999999998e-01 -6.8372543713997356e+00 -8.1535647719565070e+00 -7.7269883752108584e+00 0 1 0
682 228 1 -8.1999999999999995e-01 -5.3187427233545304e+00 -1.2282222490285868e+01 -1.0096020668783753e+01 0 1 0
684 228 2 4.0999999999999998e-01 -4.5062879388067980e+00 -1.2859054274742995e+01 -1.0011323683689778e+01 0 1 0
1704 568 2 4.0999999999999998e-01 -3.7009507566138620e+00 -6.2571404071159211e+00 -1.4576768424916045e+01 2 -1 2
531 177 2 4.0999999999999998e-01 -4.0962284572421641e+00 -1.3150479397548725e+01 -1.4294761893541942e+01 1 -4 -1
1261 421 1 -8.1999999999999995e-01 -5.9847450694926234e+00 -8.6459487424881978e+00 -7.9024227427793790e+00 0 1 0
2154 718 2 4.0999999999999998e-01 -1.3800857517585747e+00 -7.2756393149094540e+00 -9.8628455201551226e+00 0 0 1
882 294 2 4.0999999999999998e-01 -2.2392200238279916e+00 -6.7270771104322389e+00 -1.2288958902984195e+01 0 -4 2
2049 683 2 4.0999999999999998e-01 -5.9068777642822852e+00 -1.4529530668438639e+01 -1.1634114623839441e+01 1 -2 3
1204 402 1 -8.1999999999999995e-01 -3.0937999361701625e+00 -1.0141656108590830e+01 -1.4261570830413616e+01 2 2 0
717 239 2 4.0999999999999998e-01 -3.0016902389096050e+00 -1.4057413028738191e+01 -7.9866737868397086e+00 0 2 0
2265 755 2 4.0999999999999998e-01 -5.2842155434886866e+00 -6.4725960582487296e+00 -7.8173883944295852e+00 2 -1 4
1130 377 2 4.0999999999999998e-01 -2.0626046366072135e+00 -8.2384148704619982e+00 -1.3682585061680152e+01 -2 -3 2
1702 568 1 -8.1999999999999995e-01 -4.4654557372559118e+00 -5.7272584692938651e+00 -1.4943849530889729e+01 2 -1 2
716 239 2 4.0999999999999998e-01 -2.3796923261519076e+00 -1.4448109527188050e+01 -9.4451243687412880e+00 0 2 0
1619 540 2 4.0999999999999998e-01 -6.5611700382499691e+00 -1.2428194642105311e+01 -1.1355512925924042e+01 2 1 2
1131 377 2 4.0999999999999998e-01 -1.6517660891883814e+00 -6.8991254501719883e+00 -1.4521702932705681e+01 -2 -3 2
551 184 2 4.0999999999999998e-01 -1.6437300731889462e+00 -1.2273936107319004e+01 -1.1765554521993447e+01 -1 -1 3
1547 516 2 4.0999999999999998e-01 -5.1226648221904121e+00 -6.1030916446935404e+00 -1.0356915726634927e+01 0 2 0
1129 377 1 -8.1999999999999995e-01 -2.2948537910331464e+00 -7.2817802732441734e+00 -1.3858374344334411e+01 -2 -3 2
530 177 2 4.0999999999999998e-01 -4.1847364525884263e+00 -1.1522810426037379e+01 -1.4197483173714165e+01 1 -4 -1
2438 813 2 4.0999999999999998e-01 -6.6530900441848573e+00 -8.3562259206055032e+00 -1.3219424064769786e+01 1 0 3
1263 421 2 4.0999999999999998e-01 -5.6800814912711246e+00 -8.4623943087127351e+00 -8.8370238780652457e+00 0 1 0
457 153 1 -8.1999999999999995e-01 -2.3787012153870464e+00 -1.1555457204544361e+01 -1.0425736442861567e+01 1 0 2
2437 813 1 -8.1999999999999995e-01 -6.7749224823112186e+00 -9.3019367422018782e+00 -1.2918128054632188e+01 1 0 3
1715 572 2 4.0999999999999998e-01 -6.0857025886226079e+00 -9.5679309551206408e+00 -1.1308061348354169e+01 1 -1 2
683 228 2 4.0999999999999998e-01 -6.1156972795290159e+00 -1.2775750552656987e+01 -9.7477611176479595e+00 0 1 0
880 294 1 -8.1999999999999995e-01 -2.2679540904674660e+00 -6.3622902382298303e+00 -1.1358315960714762e+01 0 -4 2
1548 516 2 4.0999999999999998e-01 -3.7446639418943448e+00 -6.9741253102983904e+00 -1.0261956980298233e+01 0 2 0
2074 692 1 -8.1999999999999995e-01 -7.0306924925353744e+00 -6.6880763641551511e+00 -1.4421375690478845e+01 -1 0 3
2076 692 2 4.0999999999999998e-01 -6.2530475663173277e+00 -6.0594869994404235e+00 -1.4432995809472159e+01 -1 0 3
550 184 1 -8.1999999999999995e-01 -1.2685020207382092e+00 -1.2870257554185637e+01 -1.2475199455775774e+01 -1 -1 3
1546 516 1 -8.1999999999999995e-01 -4.6421616629922475e+00 -6.8183041428835658e+00 -9.8493932311848695e+00 0 2 0
1714 572 1 -8.1999999999999995e-01 -5.5004151466382307e+00 -9.5847197348144668e+00 -1.0497414656855806e+01 1 -1 2
579 193 2 4.0999999999999998e-01 -3.9666926541595693e+00 -9.1172632717411517e+00 -1.1274825026000325e+01 -1 0 2
1716 572 2 4.0999999999999998e-01 -5.5930079264591370e+00 -1.0467935334966555e+01 -1.0037688499311891e+01 1 -1 2
552 184 2 4.0999999999999998e-01 -1.9701184136787688e+00 -1.3518405367295321e+01 -1.2771223660643830e+01 -1 -1 3
458 153 2 4.0999999999999998e-01 -1.8686281317998006e+00 -1.0880575805022147e+01 -9.8924898760085131e+00 1 0 2
577 193 1 -8.1999999999999995e-01 -3.1285100193153728e+00 -9.3816925368557129e+00 -1.1751813814745166e+01 -1 0 2
1206 402 2 4.0999999999999998e-01 -3.1222841771853620e+00 -9.8094571925663594e+00 -1.3318796296117963e+01 2 2 0
218 73 2 4.0999999999999998e-01 -4.9875176265511865e+00 -9.2885229186920366e+00 -1.5019518703405559e+01 1 -1 2
1068 356 2 4.0999999999999998e-01 -3.7776484191307631e+00 -5.2273740488768166e+00 -1.1699536982719163e+01 -2 -2 2
1299 433 2 4.0999999999999998e-01 -6.8059713862602678e-02 -1.0133232138824194e+01 -1.0828136798164602e+01 0 -1 -1
484 162 1 -8.1999999999999995e-01 -5.9548282572205302e+00 -1.4820357397058300e+01 -8.1165923126218242e+00 -1 -1 2
1297 433 1 -8.1999999999999995e-01 -1.4809688904907681e-01 -1.0095534209579059e+01 -9.8320624055200661e+00 0 -1 -1
907 303 1 -8.1999999999999995e-01 -1.9710017921141265e-01 -9.0888498077065112e+00 -1.2428808454625059e+01 -2 -1 3
909 303 2 4.0999999999999998e-01 -3.6940005745549875e-01 -9.3664607611941371e+00 -1.3373920196708307e+01 -2 -1 3
1963 655 1 -8.1999999999999995e-01 -1.3795668399956785e+01 -1.2766013662232590e+01 -3.6674506404360283e+00 0 -1 2
1964 655 2 4.0999999999999998e-01 -1.2832475780486998e+01 -1.3026416572931611e+01 -3.7340959463160015e+00 0 -1 2
2465 822 2 4.0999999999999998e-01 -1.1279215858133096e+01 -1.1488877268053612e+01 -4.0428122659156465e+00 0 0 0
2464 822 1 -8.1999999999999995e-01 -1.0740776572994715e+01 -1.1567022263839423e+01 -4.8818401090588104e+00 0 0 0
60 20 2 4.0999999999999998e-01 -1.4612942233576636e+01 -1.0007424311323692e+01 -4.8410231357903069e+00 0 0 0
1181 394 2 4.0999999999999998e-01 -1.1036051288072077e+01 -8.0670171176128456e+00 -3.9134466052391996e+00 0 -2 -1
1392 464 2 4.0999999999999998e-01 -9.3068233164227969e+00 -1.3803944667245378e+01 -7.1479603210224774e-01 -2 -1 2
2475 825 2 4.0999999999999998e-01 -1.1289719652283608e+01 -9.8478959410927374e+00 -5.0938707716755101e+00 -2 0 3
2473 825 1 -8.1999999999999995e-01 -1.1418169950440689e+01 -8.8842385640845229e+00 -5.3280848948808206e+00 -2 0 3
981 327 2 4.0999999999999998e-01 -1.2227687927657383e+01 -1.0247118681639108e+01 -2.0715829397931600e+00 -1 -3 1
2474 825 2 4.0999999999999998e-01 -1.2123337441188719e+01 -8.8035626733571419e+00 -6.0325147939050900e+00 -2 0 3
979 327 1 -8.1999999999999995e-01 -1.1561771088510383e+01 -1.0946360038504388e+01 -2.3315974088561831e+00 -1 -3 1
1774 592 1 -8.1999999999999995e-01 -1.1680320000156327e+01 -6.0652307971108765e+00 -7.0525601783322305e+00 2 0 1
85 29 1 -8.1999999999999995e-01 -8.8399923080534517e+00 -8.7769962260652772e+00 -1.3387988389419068e+00 1 -2 1
515 172 2 4.0999999999999998e-01 -1.1449973396654340e+01 -1.2289748551173611e+01 -6.1504429796067637e+00 -2 1 -2
1914 638 2 4.0999999999999998e-01 -1.3529049291569915e+01 -8.7633988770999132e+00 -2.7368164407092372e+00 -2 0 2
2466 822 2 4.0999999999999998e-01 -9.8038030382089794e+00 -1.1831208180922550e+01 -4.6531971046028033e+00 0 0 0
980 327 2 4.0999999999999998e-01 -1.0877587424645316e+01 -1.1040387329489104e+01 -1.6083804185660480e+00 -1 -3 1
1180 394 1 -8.1999999999999995e-01 -1.0873200688048254e+01 -7.6158507406051186e+00 -3.0359958591771328e+00 0 -2 -1
86 29 2 4.0999999999999998e-01 -8.0960223215323701e+00 -8.1089482228799010e+00 -1.3533506003071256e+00 1 -2 1
87 29 2 4.0999999999999998e-01 -9.6103021462874239e+00 -8.4297236708860055e+00 -1.8736032613096611e+00 1 -2 1
514 172 1 -8.1999999999999995e-01 -1.1816532464068077e+01 -1.2653873907928514e+01 -7.0066196200711133e+00 -2 1 -2
834 278 2 4.0999999999999998e-01 -1.3530866796902762e+01 -5.1936450029418992e+00 -1.3384723075670770e+00 -2 1 1
1391 464 2 4.0999999999999998e-01 -1.0383575616769527e+01 -1.4910719588455617e+01 -1.8351743403865406e-01 -2 -1 2
1583 528 2 4.0999999999999998e-01 -9.9981393100948353e+00 -6.7544146290012410e+00 -4.2187666881646528e+00 2 0 1
816 272 2 4.0999999999999998e-01 -1.0077757083125878e+01 -8.2804259399525186e+00 -6.9594089231201295e+00 -1 1 1
1582 528 1 -8.1999999999999995e-01 -9.6564905799465386e+00 -6.3478313204752883e+00 -5.0660903672462965e+00 2 0 1
1182 394 2 4.0999999999999998e-01 -1.1705918687092066e+01 -7.6511543625341742e+00 -2.4834329767771308e+00 0 -2 -1
1927 643 1 -8.1999999999999995e-01 -1.3923483462570395e+01 -5.6011999154961210e+00 -2.9410983319758923e+00 1 -3 3
844 282 1 -8.1999999999999995e-01 -8.4017615273305388e+00 -1.2229293660673921e+01 -4.1615236196937460e+00 -1 -2 1
1912 638 1 -8.1999999999999995e-01 -1.3115809539387115e+01 -8.8522809312024471e+00 -1.8305470893660090e+00 -2 0 2
342 114 2 4.0999999999999998e-01 -1.3838269238446735e+01 -1.1559169985937777e+01 -6.0716519791142343e+00 1 1 2
516 172 2 4.0999999999999998e-01 -1.1280063296729919e+01 -1.3449817941102584e+01 -7.2870927541369976e+00 -2 1 -2
815 272 2 4.0999999999999998e-01 -8.8812618037791093e+00 -9.3566270095609987e+00 -7.2365255508287003e+00 -1 1 1
632 211 2 4.0999999999999998e-01 -1.1289536497780723e+01 -1.4193418658578764e+01 -2.1069853595238275e+00 2 -1 1
814 272 1 -8.1999999999999995e-01 -9.2521657082665172e+00 -8.4640646395015686e+00 -7.4929509198454660e+00 -1 1 1
846 282 2 4.0999999999999998e-01 -8.0183535791352973e+00 -1.1950725047457944e+01 -3.2809614298260463e+00 -1 -2 1
570 190 2 4.0999999999999998e-01 -8.9219660590404004e+00 -1.0235372077052887e+01 -5.6843547449500598e-01 0 -2 1
283 95 1 -8.1999999999999995e-01 -1.0191941466929496e+01 -1.4963190185336739e+01 -7.4100779004996582e+00 0 0 1
1913 638 2 4.0999999999999998e-01 -1.3832824748742796e+01 -9.0078511102277581e+00 -1.1510779199013452e+00 -2 0 2
1390 464 1 -8.1999999999999995e-01 -1.0277561284944078e+01 -1.4037561034376697e+01 -6.5927617058169119e-01 -2 -1 2
832 278 1 -8.1999999999999995e-01 -1.3307680122265905e+01 -5.1616582032115854e+00 -3.6422593602585351e-01 -2 1 1
1775 592 2 4.0999999999999998e-01 -1.1105563134832796e+01 -6.2843258990771584e+00 -6.2641166972873652e+00 2 0 1
654 218 2 4.0999999999999998e-01 -1.4077642230968699e+01 -1.3798965444998259e+01 -6.1484056266855447e-01 -1 0 -2
1776 592 2 4.0999999999999998e-01 -1.2145387853469725e+01 -6.8930360276153255e+00 -7.3663143678268197e+00 2 0 1
631 211 1 -8.1999999999999995e-01 -1.1507070134780786e+01 -1.4554562013841091e+01 -3.0137630857189883e+00 2 -1 1
845 282 2 4.0999999999999998e-01 -7.8957195083818892e+00 -1.1785156609340277e+01 -4.9008848167362657e+00 -1 -2 1
692 231 2 4.0999999999999998e-01 -8.1519041381224682e+00 -6.7670465001265416e+00 -5.5966638599248295e+00 -4 1 1
1965 655 2 4.0999999999999998e-01 -1.4158334826146540e+01 -1.3054292769795143e+01 -2.7812455601802046e+00 0 -1 2
1584 528 2 4.0999999999999998e-01 -9.9044890926577320e+00 -5.3795010078769732e+00 -5.0948064254008880e+00 2 0 1
652 218 1 -8.1999999999999995e-01 -1.4814324526594387e+01 -1.3254860421159357e+01 -1.0163877961241585e+00 -1 0 -2
633 211 2 4.0999999999999998e-01 -1.0672622736549034e+01 -1.4601459347275094e+01 -3.5628436246250033e+00 2 -1 1
340 114 1 -8.1999999999999995e-01 -1.4228573608504018e+01 -1.0772781919156513e+01 -6.5504499945339933e+00 1 1 2
1929 643 2 4.0999999999999998e-01 -1.4754958228959826e+01 -6.1376709016313118e+00 -3.0854585317023915e+00 1 -3 3
568 190 1 -8.1999999999999995e-01 -8.9715775798828901e+00 -1.1139542999725720e+01 -1.4416562798380284e-01 0 -2 1
569 190 2 4.0999999999999998e-01 -8.3159454240108808e+00 -1.1751624873166659e+01 -5.8631209136381912e-01 0 -2 1
2177 726 2 4.0999999999999998e-01 -8.8897813444688119e+00 -1.4985625208148564e+01 -4.8832220492028906e+00 1 -2 2
600 200 2 4.0999999999999998e-01 -1.2067551575288730e+01 -9.3520560192609388e+00 -2.8970378896399751e-02 -4 0 1
341 114 2 4.0999999999999998e-01 -1.4710313186777091e+01 -1.1086270279959466e+01 -7.3687673624922958e+00 1 1 2
1119 373 2 4.0999999999999998e-01 -8.6588639085857473e+00 -1.3577345464988895e+01 -7.5078839579078052e+00 2 -1 4
2263 755 1 -8.1999999999999995e-01 -5.3905364553185020e+00 -5.7592359620756390e+00 -7.1247090862794682e+00 2 -1 4
612 204 2 4.0999999999999998e-01 -4.9348613179946010e+00 -8.8961040340261910e+00 -3.1299891969854521e-01 0 3 1
1059 353 2 4.0999999999999998e-01 -2.4714276065962384e+00 -1.4578732232281270e+01 -2.4712056507637499e+00 3 1 -1
1012 338 1 -8.1999999999999995e-01 -1.8404200730375155e+00 -9.1012733338489600e+00 -1.6406445849734030e+00 -3 -1 1
1013 338 2 4.0999999999999998e-01 -2.4102260140702025e+00 -8.4661306313177036e+00 -1.1191981870197729e+00 -3 -1 1
392 131 2 4.0999999999999998e-01 -4.0698779264545255e+00 -6.7116092238681606e+00 -8.6456493989012095e-01 -1 -1 1
295 99 1 -8.1999999999999995e-01 -5.0981333767407335e+00 -1.2052654408546804e+01 -6.4170929585396408e-01 -3 -3 2
741 247 2 4.0999999999999998e-01 -7.4257967025923959e+00 -1.4056551298147077e+01 -1.6083269444421351e+00 0 2 1
739 247 1 -8.1999999999999995e-01 -7.4368177629725842e+00 -1.3352155311350028e+01 -8.9861137642849265e-01 0 2 1
2109 703 2 4.0999999999999998e-01 -6.9336325176932316e+00 -6.1034129407706068e+00 -2.6194390972113997e+00 -2 0 -3
528 176 2 4.0999999999999998e-01 -3.4812976455398239e+00 -9.5687356171080591e+00 -3.4506470686717883e+00 2 2 2
391 131 1 -8.1999999999999995e-01 -4.4895045302045986e+00 -7.5568470856370729e+00 -1.1954394007136688e+00 -1 -1 1
1254 418 2 4.0999999999999998e-01 -3.2687247744538048e+00 -1.4425602228292018e+01 -5.8780827840445316e+00 1 -1 2
1744 582 1 -8.1999999999999995e-01 -5.1350757028764527e-01 -1.0050576762660034e+01 -6.1748430589350001e+00 2 0 1
1601 534 2 4.0999999999999998e-01 -5.9182966907762715e+00 -1.3522319330622688e+01 -3.7932758494703975e+00 -1 -2 0
526 176 1 -8.1999999999999995e-01 -3.6304675361990348e+00 -8.6412018655001290e+00 -3.7933141407267694e+00 2 2 2
1973 658 2 4.0999999999999998e-01 -1.5848882547851524e+00 -1.2015217896021703e+01 -2.2766832842936715e+00 0 0 2
740 247 2 4.0999999999999998e-01 -6.5220555577335713e+00 -1.2959229035510099e+01 -8.0474795210540151e-01 0 2 1
2107 703 1 -8.1999999999999995e-01 -6.7846394226060927e+00 -7.0624824290949455e+00 -2.3786528274789802e+00 -2 0 -3
2264 755 2 4.0999999999999998e-01 -6.0047307479014300e+00 -6.0825468493220018e+00 -6.4048294059842625e+00 2 -1 4
1972 658 1 -8.1999999999999995e-01 -1.5384762715137992e+00 -1.2889297371546990e+01 -1.7931313834284843e+00 0 0 2
1602 534 2 4.0999999999999998e-01 -5.2319588710023961e+00 -1.4366963741516040e+01 -5.0106990707059591e+00 -1 -2 0
1556 519 2 4.0999999999999998e-01 -7.5092258870896424e+00 -1.1491081685214091e+01 -6.9876343513269763e+00 2 0 2
693 231 2 4.0999999999999998e-01 -7.0075436570452823e+00 -7.7942136747513642e+00 -5.0471459857636809e+00 -4 1 1
2011 671 1 -8.1999999999999995e-01 -3.2992742635491368e+00 -9.4902828939425525e+00 -6.3609999263767065e+00 -2 1 1
801 267 2 4.0999999999999998e-01 -7.3530443675227772e+00 -9.7293533198266626e+00 -4.9067428121354091e+00 1 0 2
527 176 2 4.0999999999999998e-01 -3.6080937038366887e+00 -7.9960913273491965e+00 -3.0295582634223734e+00 2 2 2
2012 671 2 4.0999999999999998e-01 -3.6318156374880832e+00 -9.0537375022809936e+00 -5.5250360280050046e+00 -2 1 1
1555 519 1 -8.1999999999999995e-01 -7.3516002835869800e+00 -1.0651289844921740e+01 -6.4681200287187224e+00 2 0 2
1746 582 2 4.0999999999999998e-01 -1.4192911595509550e+00 -9.6338303013732229e+00 -6.2514570362406374e+00 2 0 1
1628 543 2 4.0999999999999998e-01 -3.3161617314079965e+00 -1.1128804270601261e+01 -5.3678219226910233e+00 1 2 0
1600 534 1 -8.1999999999999995e-01 -5.5669838635089359e+00 -1.4416801005901165e+01 -4.0698134634766614e+00 -1 -2 0
799 267 1 -8.1999999999999995e-01 -7.0820429675109029e+00 -9.1770436817017291e+00 -4.1183878523342354e+00 1 0 2
2108 703 2 4.0999999999999998e-01 -6.8468700598713834e+00 -7.6264251348634913e+00 -3.2021133429145188e+00 -2 0 -3
1974 658 2 4.0999999999999998e-01 -1.1875859186691802e+00 -1.2740536744041908e+01 -8.6861119148473342e-01 0 0 2
393 131 2 4.0999999999999998e-01 -5.4410776306088628e+00 -7.3802651997335547e+00 -1.4470715612553082e+00 -1 -1 1
2013 671 2 4.0999999999999998e-01 -3.9118199719561986e+00 -9.2679107188752212e+00 -7.1195047713311119e+00 -2 1 1
297 99 2 4.0999999999999998e-01 -5.4001038094840421e+00 -1.1121663627806784e+01 -4.3662089464876175e-01 -3 -3 2
1686 562 2 4.0999999999999998e-01 -8.3526926982321825e-01 -1.3339018226671135e+01 -6.1023006091969165e+00 2 -1 -1
800 267 2 4.0999999999999998e-01 -6.4854934547040575e+00 -9.7156088949695878e+00 -3.5233521994108266e+00 1 0 2
691 231 1 -8.1999999999999995e-01 -7.1762891292291044e+00 -6.9860226186991898e+00 -5.6113652997356098e+00 -4 1 1
2283 761 2 4.0999999999999998e-01 -5.5735926803244347e+00 -1.1905206617907828e+01 -2.4097682181516937e+00 1 -1 0
2281 761 1 -8.1999999999999995e-01 -5.6184679500473838e+00 -1.1373767371426171e+01 -3.2556699763821957e+00 1 -1 0
2282 761 2 4.0999999999999998e-01 -4.8458347381753004e+00 -1.1615629690870819e+01 -3.8426383147802259e+00 1 -1 0
1557 519 2 4.0999999999999998e-01 -6.7809765094228869e+00 -1.0029587018928742e+01 -7.0046509672659081e+00 2 0 2
1684 562 1 -8.1999999999999995e-01 -1.4130577955910830e+00 -1.3905302138344519e+01 -5.5145299875239875e+00 2 -1 -1
1058 353 2 4.0999999999999998e-01 -4.0052813889145966e+00 -1.4957721849015654e+01 -2.8838344859949068e+00 3 1 -1
1627 543 1 -8.1999999999999995e-01 -3.3422396087970530e+00 -1.1873163808119779e+01 -4.7005588124605229e+00 1 2 0
1629 543 2 4.0999999999999998e-01 -2.5447192335677808e+00 -1.2462891088701440e+01 -4.8277368190473613e+00 1 2 0
1685 562 2 4.0999999999999998e-01 -8.8929314259948455e-01 -1.4197922136325202e+01 -4.7145078136424701e+00 2 -1 -1
1014 338 2 4.0999999999999998e-01 -1.1422632321651545e+00 -8.5890552546000158e+00 -2.1408454597857247e+00 -3 -1 1
1252 418 1 -8.1999999999999995e-01 -4.0906219028473849e+00 -1.4821127184394351e+01 -6.2880052895842926e+00 1 -1 2
181 61 1 -8.1999999999999995e-01 -3.4020683488197925e+00 -5.4354677576281620e+00 -8.7512589443756283e-02 0 -1 4
102 34 2 4.0999999999999998e-01 -1.4765531034355828e+00 -1.0397137620903139e+01 -1.1846453478447927e-04 0 -1 1
485 162 2 4.0999999999999998e-01 -5.2044619256755400e+00 -1.5027414705643656e+01 -7.4888431231926642e+00 -1 -1 2
2544 848 2 4.0999999999999998e-01 -1.2274270769659703e+01 -1.4454555159871626e+01 1.4641192653395088e+00 -2 0 -1
275 92 2 4.0999999999999998e-01 -1.2986830271857063e+01 -1.1128619757038670e+01 5.7738292185547486e+00 2 1 2
274 92 1 -8.1999999999999995e-01 -1.2672615335257394e+01 -1.1524593807042919e+01 4.9110054884522434e+00 2 1 2
5 2 2 4.0999999999999998e-01 -9.9483136260854863e+00 -1.1961033228697916e+01 1.6166714478751487e+00 1 -2 0
6 2 2 4.0999999999999998e-01 -1.1265503119078259e+01 -1.2480309442538310e+01 2.4302850808376952e+00 1 -2 0
4 2 1 -8.1999999999999995e-01 -1.0330663500430479e+01 -1.2137741463084753e+01 2.5236301030579860e+00 1 -2 0
276 92 2 4.0999999999999998e-01 -1.3456222203529300e+01 -1.1674401640482383e+01 4.3080883033451691e+00 2 1 2
2288 763 2 4.0999999999999998e-01 -9.1094940474469652e+00 -5.8139227664246533e+00 2.4252953701023898e+00 0 -3 0
1688 563 2 4.0999999999999998e-01 -1.2927105460372086e+01 -1.2872216512454802e+01 7.3178122487793971e+00 0 -2 3
2342 781 2 4.0999999999999998e-01 -9.1547842895100224e+00 -1.1376824684207524e+01 3.6548203115653415e+00 0 -1 1
2341 781 1 -8.1999999999999995e-01 -8.3685320906993006e+00 -1.1055758382285219e+01 4.1827553593118232e+00 0 -1 1
659 220 2 4.0999999999999998e-01 -8.9144055412693000e+00 -1.4072403222033639e+01 5.9356475770318333e+00 1 -1 1
2229 743 2 4.0999999999999998e-01 -9.7549821746344829e+00 -8.2225891929551089e+00 4.7370159279000639e+00 1 -5 1
723 241 2 4.0999999999999998e-01 -1.3255107168338558e+01 -6.5880527948451846e+00 1.5128861500087929e+00 -2 -3 3
237 79 2 4.0999999999999998e-01 -1.2818007819742457e+01 -8.8899102727326547e+00 4.1831810036429147e+00 2 -1 2
599 200 2 4.0999999999999998e-01 -1.0738569584581725e+01 -1.0271564971482212e+01 2.0536552413181042e-01 -4 0 1
598 200 1 -8.1999999999999995e-01 -1.1653759854016720e+01 -1.0057301576032588e+01 5.4669998087561567e-01 -4 0 1
2133 711 2 4.0999999999999998e-01 -7.6004633519054652e+00 -1.3627504883147218e+01 9.8734600731313193e-01 1 0 2
2227 743 1 -8.1999999999999995e-01 -8.9960538423549572e+00 -7.8715436653471507e+00 5.2854556948798859e+00 1 -5 1
2228 743 2 4.0999999999999998e-01 -9.3424315546795036e+00 -7.5500648216050683e+00 6.1667417954751897e+00 1 -5 1
660 220 2 4.0999999999999998e-01 -9.3625614242084865e+00 -1.2528469049551951e+01 6.2220505643279900e+00 1 -1 1
2418 806 2 4.0999999999999998e-01 -1.3748627776916123e+01 -1.4713920761872620e+01 4.7648055739823327e+00 0 0 0
2289 763 2 4.0999999999999998e-01 -7.7978098426035354e+00 -5.3278144282389732e+00 1.5828071912059727e+00 0 -3 0
1466 489 2 4.0999999999999998e-01 -1.1029533557975098e+01 -9.4408469388933653e+00 2.8045896850435348e+00 2 1 2
580 194 1 -8.1999999999999995e-01 -1.0683419134158560e+01 -1.5029574635314821e+01 2.9299766799277336e+00 1 -3 -2
1248 416 2 4.0999999999999998e-01 -1.4531602084463643e+01 -1.0121126494773737e+01 9.3889057632823203e-01 1 1 1
236 79 2 4.0999999999999998e-01 -1.4157713399458325e+01 -9.7546884367816187e+00 4.5352475128702565e+00 2 -1 2
235 79 1 -8.1999999999999995e-01 -1.3695537272794814e+01 -8.8770863630584351e+00 4.6625231155780931e+00 2 -1 2
1465 489 1 -8.1999999999999995e-01 -1.1197403041312096e+01 -9.3913630880688928e+00 3.7891517239886880e+00 2 1 2
1467 489 2 4.0999999999999998e-01 -1.1318351944777017e+01 -1.0314743301769280e+01 4.1534752317843981e+00 2 1 2
411 137 2 4.0999999999999998e-01 -1.1576966513137689e+01 -5.3973837022854614e+00 5.6708433852239430e+00 3 0 2
2416 806 1 -8.1999999999999995e-01 -1.2782303137209054e+01 -1.4766874543727070e+01 5.0166068521503959e+00 0 0 0
481 161 1 -8.1999999999999995e-01 -1.2187936060287356e+01 -5.7890101201503494e+00 7.3380226932931798e+00 -2 1 2