LAMMPS data file via write_data, version 15 May 2015, timestep = 2000000

2611 atoms
6 atom types
1749 bonds
4 bond types
894 angles
3 angle types
44 dihedrals
3 dihedral types
10 impropers
1 improper types

-1.5141402902792059e+01 1.5141402902792059e+01 xlo xhi
-1.5141402902792059e+01 1.5141402902792059e+01 ylo yhi
-1.5141402902792059e+01 1.5141402902792059e+01 zlo zhi

Masses

1 15.9994
2 1.00794
3 12.0107
4 1.00794
5 12.0107
6 12.0107

Bond Coeffs # harmonic

1 1000 1
2 469 1.4
3 367 1.08
4 469 0.7

Angle Coeffs # harmonic

1 100 109.47
2 35 120
3 63 120

Dihedral Coeffs # opls

1 0 7.25 0 0
2 0 7.25 0 0
3 0 7.25 0 0

Improper Coeffs # cvff

1 2.5 -1 2

Atoms # full

2221 741 1 -8.1999999999999995e-01 -1.1346880769974874e+01 -9.3319037799743025e+00 -9.5460433876730697e+00 1 0 1
1242 414 2 4.0999999999999998e-01 -8.8707699748962323e+00 -6.5051631622676069e+00 -8.8357670654285059e+00 -1 0 1
2222 741 2 4.0999999999999998e-01 -1.1000311700380575e+01 -8.3989078103340020e+00 -9.4492347133607666e+00 1 0 1
1240 414 1 -8.1999999999999995e-01 -9.4345269525638784e+00 -7.2067805871024033e+00 -9.2715131550644081e+00 -1 0 1
222 74 2 4.0999999999999998e-01 -1.0446691530339633e+01 -7.0371411283032366e+00 -1.2493270233123214e+01 1 0 0
221 74 2 4.0999999999999998e-01 -1.2009150759865648e+01 -6.6063995837598117e+00 -1.2692549142546742e+01 1 0 0
2223 741 2 4.0999999999999998e-01 -1.2011378357041252e+01 -9.3648463323701954e+00 -1.0292582912244914e+01 1 0 1
220 74 1 -8.1999999999999995e-01 -1.1119145001588816e+01 -6.6813491946070300e+00 -1.3142255563882017e+01 1 0 0
840 280 2 4.0999999999999998e-01 -8.9943856705678940e+00 -8.7100602530463007e+00 -1.1801478180386306e+01 1 1 -1
838 280 1 -8.1999999999999995e-01 -8.8675562418152456e+00 -7.7210854814410377e+00 -1.1725276238917372e+01 1 1 -1
949 317 1 -8.1999999999999995e-01 -9.2740692184603777e+00 -1.2123101074474240e+01 -9.9562790812214264e+00 -1 -1 1
951 317 2 4.0999999999999998e-01 -1.0182701385809292e+01 -1.2495411184659455e+01 -1.0145319525243249e+01 -1 -1 1
691 231 1 -8.1999999999999995e-01 -1.3623925984986789e+01 -7.7660268420323595e+00 -1.2684713003920878e+01 -1 1 0
692 231 2 4.0999999999999998e-01 -1.3773121862356584e+01 -8.7547518124519428e+00 -1.2673440735700433e+01 -1 1 0
1441 481 1 -8.1999999999999995e-01 -1.3979512455075163e+01 -9.8777707975063045e+00 -1.0976028209453588e+01 1 -2 -1
839 280 2 4.0999999999999998e-01 -8.2511378455869124e+00 -7.4074702702379902e+00 -1.2447520964419308e+01 1 1 -1
950 317 2 4.0999999999999998e-01 -8.5950934955808602e+00 -1.2854840645655694e+01 -1.0015547106738119e+01 -1 -1 1
2461 821 1 -8.1999999999999995e-01 -1.1510246025712657e+01 -1.4420895932177682e+01 -1.0010204836075765e+01 1 0 1
1313 438 2 4.0999999999999998e-01 -1.1614339472814942e+01 -1.0214665556667791e+01 -7.9510579725070230e+00 0 0 0
1315 439 1 -8.1999999999999995e-01 -9.9202602999463103e+00 -1.2663953257456813e+01 -1.4161384576444105e+01 1 0 0
673 225 1 -8.1999999999999995e-01 -8.5923603612223367e+00 -9.8123982047648948e+00 -8.4553593019021864e+00 1 -1 1
674 225 2 4.0999999999999998e-01 -8.8840040002381464e+00 -8.8572763009620274e+00 -8.5068342984072611e+00 1 -1 1
1241 414 2 4.0999999999999998e-01 -9.2785557889876724e+00 -7.1937579843290473e+00 -1.0259170464798540e+01 -1 0 1
675 225 2 4.0999999999999998e-01 -8.9735225798479341e+00 -1.0319409658955486e+01 -9.2284170488985673e+00 1 -1 1
1316 439 2 4.0999999999999998e-01 -1.0891833158708806e+01 -1.2757852367994463e+01 -1.3944145800347330e+01 1 0 0
1026 342 2 4.0999999999999998e-01 -9.3401963862358954e+00 -1.1184815808949702e+01 -1.3168360302695028e+01 1 0 1
2463 821 2 4.0999999999999998e-01 -1.2206303302727548e+01 -1.3728375364140339e+01 -1.0199633062101029e+01 1 0 1
1024 342 1 -8.1999999999999995e-01 -8.9148998208043722e+00 -1.0585990294679149e+01 -1.2489762958219481e+01 1 0 1
1317 439 2 4.0999999999999998e-01 -9.3809063607002727e+00 -1.3207845725673392e+01 -1.3518545669071559e+01 1 0 0
1555 519 1 -8.1999999999999995e-01 -1.3802715330787480e+01 -1.2617510320148043e+01 -1.0513002702879760e+01 2 0 1
1443 481 2 4.0999999999999998e-01 -1.4463198044104395e+01 -9.3022285593984684e+00 -1.0316662668891375e+01 1 -2 -1
1176 392 2 4.0999999999999998e-01 -1.2909882250428238e+01 -1.0336196849921965e+01 -1.4369475528691508e+01 1 0 0
356 119 2 4.0999999999999998e-01 -1.2835806803521375e+01 -1.2324391507606267e+01 -1.3647406131236847e+01 -1 1 0
1025 342 2 4.0999999999999998e-01 -9.3425354847205888e+00 -1.0735855302334492e+01 -1.1598341771456887e+01 1 0 1
2074 692 1 -8.1999999999999995e-01 -1.2598278243723808e+01 -6.5852594976818946e+00 -1.0257954578448077e+01 1 -1 0
2075 692 2 4.0999999999999998e-01 -1.3132466313150102e+01 -7.0979999241304554e+00 -1.0930043776126485e+01 1 -1 0
1175 392 2 4.0999999999999998e-01 -1.4289365461982376e+01 -9.8795712397526412e+00 -1.5114491176410363e+01 1 0 0
2076 692 2 4.0999999999999998e-01 -1.2672744847123420e+01 -7.0285223106759513e+00 -9.3646817575501746e+00 1 -1 0
641 214 2 4.0999999999999998e-01 -1.2061904052563804e+01 -1.4590075652332503e+01 -7.9722408957038597e+00 -2 -2 -1
1174 392 1 -8.1999999999999995e-01 -1.3872365107587026e+01 -1.0564112502332936e+01 -1.4516596973027942e+01 1 0 0
1224 408 2 4.0999999999999998e-01 -8.5983876830492427e+00 -5.4102066616391742e+00 -1.3276307043984239e+01 0 0 1
1442 481 2 4.0999999999999998e-01 -1.3951424121970062e+01 -1.0818960234153835e+01 -1.0639372576666785e+01 1 -2 -1
355 119 1 -8.1999999999999995e-01 -1.2582918708364813e+01 -1.3291770720550662e+01 -1.3633672960592961e+01 -1 1 0
1516 506 1 -8.1999999999999995e-01 -7.6133391769562699e+00 -1.4981921876988610e+01 -1.0329024210004036e+01 1 -1 -1
357 119 2 4.0999999999999998e-01 -1.3328384628609955e+01 -1.3825520384579200e+01 -1.3234479530914406e+01 -1 1 0
693 231 2 4.0999999999999998e-01 -1.4402220192656475e+01 -7.3164797098184824e+00 -1.3123038325953861e+01 -1 1 0
1956 652 2 4.0999999999999998e-01 -7.7256153200338336e+00 -1.4197906586124134e+01 -1.1774707951611582e+01 0 -2 0
1954 652 1 -8.1999999999999995e-01 -7.6692841353558734e+00 -1.3861851160769159e+01 -1.2714844694512379e+01 0 -2 0
2466 822 2 4.0999999999999998e-01 -1.1128928168840218e+01 -8.6753737219257605e+00 -1.3848789340513079e+01 0 1 -1
1556 519 2 4.0999999999999998e-01 -1.4282668262457308e+01 -1.2949540568311320e+01 -9.7009900041375161e+00 2 0 1
664 222 1 -8.1999999999999995e-01 -7.7156577901696464e+00 -5.4899951104597591e+00 -8.2157833631183461e+00 1 0 -1
2147 716 2 4.0999999999999998e-01 -1.1156138833531486e+01 -5.7425240677761504e+00 -1.4756725828013106e+01 0 0 0
65 22 2 4.0999999999999998e-01 -7.9131976572627769e+00 -1.1320164874321410e+01 -7.9141659211616506e+00 0 -1 1
1557 519 2 4.0999999999999998e-01 -1.4192281666626736e+01 -1.3045248547575639e+01 -1.1328626157635174e+01 2 0 1
1963 655 1 -8.1999999999999995e-01 -1.3727621305557582e+01 -7.7807916630336917e+00 -8.0558181317856050e+00 0 -1 1
1491 497 2 4.0999999999999998e-01 -1.1770793046967526e+01 -1.4992029482376546e+01 -1.4216548639879459e+01 1 1 0
2462 821 2 4.0999999999999998e-01 -1.1392880740556190e+01 -1.5004082987698840e+01 -1.0813996964930910e+01 1 0 1
2464 822 1 -8.1999999999999995e-01 -1.1145651096497874e+01 -9.5428559382771923e+00 -1.4345939739728575e+01 0 1 -1
2509 837 1 -8.1999999999999995e-01 -1.5049784164318215e+01 -1.5037675703246483e+01 -8.9000210660711154e+00 1 2 1
642 214 2 4.0999999999999998e-01 -1.3641434862236792e+01 -1.4979244619558605e+01 -8.1142239203048607e+00 -2 -2 -1
2465 822 2 4.0999999999999998e-01 -1.0537054410834822e+01 -9.4852769581165663e+00 -1.5137304544418031e+01 0 1 -1
136 46 1 -8.1999999999999995e-01 -5.5182064245992155e+00 -8.9892433786466537e+00 -1.4256087177051679e+01 -2 -1 1
812 271 2 4.0999999999999998e-01 -6.6966152202169766e+00 -9.4627128935778924e+00 -7.9031654187561777e+00 0 2 1
1971 657 2 4.0999999999999998e-01 -8.3845133820284268e-01 -1.5134071831374754e+01 -9.7071565962591109e+00 1 2 1
1435 479 1 -8.1999999999999995e-01 -1.5223898083988452e-01 -1.2622191641717444e+01 -1.0830833036319508e+01 -1 -1 1
666 222 2 4.0999999999999998e-01 -6.7513448832318925e+00 -5.6178876022160669e+00 -8.4475325573225213e+00 1 0 -1
1703 568 2 4.0999999999999998e-01 -4.6600187655780285e+00 -1.2016055075234044e+01 -1.2236243302966521e+01 2 0 2
1601 534 2 4.0999999999999998e-01 -3.5464984924752017e+00 -5.5288963387053585e+00 -8.1119662156386205e+00 -1 -1 0
2536 846 1 -8.1999999999999995e-01 -1.3817818701062841e+00 -7.6780995921618009e+00 -7.7013327208589528e+00 1 1 -1
501 167 2 4.0999999999999998e-01 -6.4057384012785334e-01 -1.5021821653578817e+01 -1.4748603280863446e+01 -1 -1 0
2481 827 2 4.0999999999999998e-01 -4.2739728999024660e+00 -5.6571120239940917e+00 -1.2668723853351150e+01 0 0 0
137 46 2 4.0999999999999998e-01 -4.5263128534270738e+00 -9.0015443927021472e+00 -1.4382417498910234e+01 -2 -1 1
1941 647 2 4.0999999999999998e-01 -5.0862330753549330e+00 -5.4558846998475605e+00 -9.7259403321885003e+00 2 0 1
1610 537 2 4.0999999999999998e-01 -6.5523996523396679e+00 -5.9113693142959480e+00 -1.3735773926637119e+01 1 0 0
1600 534 1 -8.1999999999999995e-01 -4.2480037263505110e+00 -6.1157677421630403e+00 -7.7076941372875432e+00 -1 -1 0
2317 773 1 -8.1999999999999995e-01 -3.8167493317160588e+00 -8.5852476229119912e+00 -1.1005600280548130e+01 0 -1 2
2538 846 2 4.0999999999999998e-01 -2.0983698360233660e+00 -8.3411007195037676e+00 -7.9178847001205055e+00 1 1 -1
630 210 2 4.0999999999999998e-01 -3.6137060534368395e+00 -9.4712719913545911e+00 -9.2078468713812143e+00 -1 2 0
1955 652 2 4.0999999999999998e-01 -6.7560292522710572e+00 -1.3490311672617436e+01 -1.2881840065615386e+01 0 -2 0
2318 773 2 4.0999999999999998e-01 -4.0368132363536215e+00 -9.1986852409906170e+00 -1.1764039275559620e+01 0 -1 2
1597 533 1 -8.1999999999999995e-01 -3.1259956639718496e+00 -8.6786133246663901e+00 -1.4977476086660294e+01 3 -1 1
390 130 2 4.0999999999999998e-01 -2.0507466120170150e+00 -5.3970162356171532e+00 -1.1902019035730730e+01 0 -1 1
1437 479 2 4.0999999999999998e-01 -4.2089720938742126e-01 -1.2089971776227515e+01 -1.1633658238164614e+01 -1 -1 1
1609 537 1 -8.1999999999999995e-01 -7.1571518470291773e+00 -6.7006734353039210e+00 -1.3629767567002087e+01 1 0 0
1702 568 1 -8.1999999999999995e-01 -3.7324121778311863e+00 -1.2386738446393657e+01 -1.2190380429992867e+01 2 0 2
1147 383 1 -8.1999999999999995e-01 -2.5232319931024598e+00 -1.4434640926359222e+01 -8.6256430586312298e+00 1 2 -1
1766 589 2 4.0999999999999998e-01 -8.2781818323120149e-02 -1.0873210807067025e+01 -9.4683631839991698e+00 2 0 0
1765 589 1 -8.1999999999999995e-01 -8.3040688049074163e-01 -1.0211265724354924e+01 -9.5217391012076078e+00 2 0 0
749 250 2 4.0999999999999998e-01 -6.0044791889985660e+00 -1.0585771086135738e+01 -1.3629702535913765e+01 1 0 0
1723 575 1 -8.1999999999999995e-01 -4.6283837788507984e+00 -1.2850451556170734e+01 -7.9997463907999640e+00 2 -1 2
2479 827 1 -8.1999999999999995e-01 -3.5668881072499534e+00 -6.3114331446572685e+00 -1.2400659492326891e+01 0 0 0
2160 720 2 4.0999999999999998e-01 -2.5926598755350287e+00 -1.1110288511161148e+01 -1.2372093240921448e+01 1 0 0
750 250 2 4.0999999999999998e-01 -7.2578118836022956e+00 -1.1560435193272850e+01 -1.3247974539807304e+01 1 0 0
1725 575 2 4.0999999999999998e-01 -4.1034755959361817e+00 -1.2183589665862606e+01 -8.5286416288238058e+00 2 -1 2
1724 575 2 4.0999999999999998e-01 -5.5685872972247719e+00 -1.2526608563012253e+01 -7.8943585800296390e+00 2 -1 2
628 210 1 -8.1999999999999995e-01 -3.4968870510155305e+00 -1.0157515809075409e+01 -8.4899427866320636e+00 -1 2 0
88 30 1 -8.1999999999999995e-01 -5.1021459700452958e+00 -1.4958254795855913e+01 -1.3811549428945000e+01 -1 0 0
1148 383 2 4.0999999999999998e-01 -3.4039678606207584e+00 -1.4068137701479364e+01 -8.3257376666677132e+00 1 2 -1
748 250 1 -8.1999999999999995e-01 -6.2613930379805574e+00 -1.1476342754717855e+01 -1.3254414754909204e+01 1 0 0
629 210 2 4.0999999999999998e-01 -4.2339926317061884e+00 -1.0067987076378909e+01 -7.8201491686348366e+00 -1 2 0
1611 537 2 4.0999999999999998e-01 -6.6343003860220655e+00 -7.5419675835258619e+00 -1.3766931890940475e+01 1 0 0
1767 589 2 4.0999999999999998e-01 -1.5732227707921460e+00 -1.0497928178649481e+01 -8.9167492436144684e+00 2 0 0
2480 827 2 4.0999999999999998e-01 -3.3573920049603174e+00 -6.9108979134880322e+00 -1.3173134017835711e+01 0 0 0
1704 568 2 4.0999999999999998e-01 -3.6179468491754587e+00 -1.3086670990661739e+01 -1.2895331254188388e+01 2 0 2
2319 773 2 4.0999999999999998e-01 -3.7251267969873467e+00 -7.6504784430946451e+00 -1.1348784520091147e+01 0 -1 2
2537 846 2 4.0999999999999998e-01 -9.5106244835100462e-01 -7.3645163068720221e+00 -8.5475654744351477e+00 1 1 -1
2158 720 1 -8.1999999999999995e-01 -1.6625504315855792e+00 -1.0743074698548327e+01 -1.2375833367236011e+01 1 0 0
2159 720 2 4.0999999999999998e-01 -1.5771375865541710e+00 -1.0044531140075783e+01 -1.1665407377452311e+01 1 0 0
1599 533 2 4.0999999999999998e-01 -2.2158089539521857e+00 -9.0010310724969020e+00 -1.4717532864410837e+01 3 -1 1
1149 383 2 4.0999999999999998e-01 -1.7834652335199657e+00 -1.3935821246604991e+01 -8.1741038960084680e+00 1 2 -1
1940 647 2 4.0999999999999998e-01 -6.5391659491941496e+00 -5.5506725951984617e+00 -1.0465217361010396e+01 2 0 1
1796 599 2 4.0999999999999998e-01 -2.5802115744117256e+00 -1.4729124592122336e+01 -1.1689375776675089e+01 0 -1 1
138 46 2 4.0999999999999998e-01 -5.9648725452073617e+00 -8.8441470821272290e+00 -1.5138923491014518e+01 -2 -1 1
1436 479 2 4.0999999999999998e-01 -8.4170794459758014e-01 -1.3323512699582327e+01 -1.0649877591942012e+01 -1 -1 1
1312 438 1 -8.1999999999999995e-01 -1.1450504527028327e+01 -1.0611413012829061e+01 -7.0478896076488855e+00 0 0 0
16 6 1 -8.1999999999999995e-01 -1.2065829211321933e+01 -7.5427126405540275e+00 -1.0520736483542379e+00 -2 0 0
17 6 2 4.0999999999999998e-01 -1.2714974698449744e+01 -7.3196542080880693e+00 -1.7792727936861503e+00 -2 0 0
1944 648 2 4.0999999999999998e-01 -1.0109354926266690e+01 -8.2536743331366580e+00 -3.7993663819613808e+00 0 0 0
127 43 1 -8.1999999999999995e-01 -9.6295486873978540e+00 -1.4484708787898136e+01 -2.4869397584299442e+00 -1 -1 -1
2141 714 2 4.0999999999999998e-01 -1.0239337653325821e+01 -5.8222937771628853e+00 -4.5391097159746483e+00 0 1 2
1699 567 1 -8.1999999999999995e-01 -1.3163322018909451e+01 -1.3116220594878838e+01 -3.3860969973397701e+00 1 1 -2
1863 621 2 4.0999999999999998e-01 -1.1169174892917468e+01 -1.0239777139595301e+01 -3.8778221618014026e+00 2 -1 0
1102 368 1 -8.1999999999999995e-01 -1.2725019261607017e+01 -5.8302343471713289e+00 -6.6380383151196742e+00 -1 1 -2
986 329 2 4.0999999999999998e-01 -8.6180898421679455e+00 -1.0439104304355027e+01 -4.3133277526093696e+00 1 0 1
987 329 2 4.0999999999999998e-01 -9.2843896478029553e+00 -1.1172371732174501e+01 -3.0152936075326213e+00 1 0 1
985 329 1 -8.1999999999999995e-01 -9.3432258078114252e+00 -1.0383498904471475e+01 -3.6269973711143155e+00 1 0 1
105 35 2 4.0999999999999998e-01 -1.2000378930233584e+01 -1.4529654279546607e+01 -5.8577969483522097e+00 0 1 0
1995 665 2 4.0999999999999998e-01 -1.2902607520636241e+01 -8.4768600726515650e+00 -3.8312497331263042e+00 1 -1 0
627 209 2 4.0999999999999998e-01 -1.2185073042231664e+01 -1.0347523149539505e+01 -2.6388861051547039e+00 0 1 1
1262 421 2 4.0999999999999998e-01 -8.2382772742202199e+00 -6.2218098146954457e+00 -5.0201585754973905e+00 0 0 0
1861 621 1 -8.1999999999999995e-01 -1.2101345855995424e+01 -1.0088221364685069e+01 -4.2065343151239531e+00 2 -1 0
304 102 1 -8.1999999999999995e-01 -9.8299085776589337e+00 -1.1997141299333112e+01 -1.4572046837890476e+00 0 2 0
2439 813 2 4.0999999999999998e-01 -8.5678903405604885e+00 -1.3442106568730479e+01 -7.1506967204399654e+00 1 1 1
1862 621 2 4.0999999999999998e-01 -1.2088155720576912e+01 -9.9581617910934384e+00 -5.1979343717120248e+00 2 -1 0
1942 648 1 -8.1999999999999995e-01 -1.0057195656017399e+01 -7.2577957217818136e+00 -3.7254153644556158e+00 0 0 0
1943 648 2 4.0999999999999998e-01 -9.8746759760369827e+00 -7.0031927179895117e+00 -2.7757694262775789e+00 0 0 0
1502 501 2 4.0999999999999998e-01 -1.4763975907393169e+01 -6.7353062656581528e+00 -4.4574985293691451e+00 2 0 1
492 164 2 4.0999999999999998e-01 -7.6247144378177003e+00 -8.2678039297219890e+00 -2.1826011706809822e+00 -1 -1 0
305 102 2 4.0999999999999998e-01 -1.0319601342271227e+01 -1.1172006961388645e+01 -1.7388389164104847e+00 0 2 0
1311 437 2 4.0999999999999998e-01 -1.4309157023097342e+01 -1.4234117470217447e+01 -6.5166196149239095e+00 1 0 -1
2438 813 2 4.0999999999999998e-01 -9.1332644280250967e+00 -1.4138895966253482e+01 -5.7863778882032193e+00 1 1 1
665 222 2 4.0999999999999998e-01 -7.8746675909772543e+00 -5.7882272041453664e+00 -7.2746473185805609e+00 1 0 -1
1310 437 2 4.0999999999999998e-01 -1.4584129779029045e+01 -1.3838192537205263e+01 -4.9564392706127585e+00 1 0 -1
626 209 2 4.0999999999999998e-01 -1.3367365988829285e+01 -1.0585229893686918e+01 -1.5378828813232950e+00 0 1 1
1445 482 2 4.0999999999999998e-01 -8.4210145459719286e+00 -1.4455983775610923e+01 -3.8539911149979673e+00 0 3 0
1700 567 2 4.0999999999999998e-01 -1.3009947157432222e+01 -1.2215686729435639e+01 -3.7928874088652673e+00 1 1 -2
1993 665 1 -8.1999999999999995e-01 -1.3537966353692372e+01 -7.7600049480597164e+00 -3.5441932709215305e+00 1 -1 0
129 43 2 4.0999999999999998e-01 -9.8330412604395399e+00 -1.3697928569370491e+01 -1.9042467144484156e+00 -1 -1 -1
2040 680 2 4.0999999999999998e-01 -1.2978660553912249e+01 -1.3413186613389190e+01 -1.3620493404401444e+00 0 1 -1
625 209 1 -8.1999999999999995e-01 -1.2381838176299061e+01 -1.0632122661338631e+01 -1.7006696380687067e+00 0 1 1
306 102 2 4.0999999999999998e-01 -9.7238802370535318e+00 -1.1998763600370705e+01 -4.6286124492807623e-01 0 2 0
2535 845 2 4.0999999999999998e-01 -1.0203490665238309e+01 -7.9122258416923072e+00 -8.7534286002535211e-01 0 -1 0
1104 368 2 4.0999999999999998e-01 -1.1813274732029953e+01 -5.7890688599897580e+00 -6.2293931958261055e+00 -1 1 -2
1314 438 2 4.0999999999999998e-01 -1.0482761514516854e+01 -1.0846581972345884e+01 -6.9577090052170263e+00 0 0 0
821 274 2 4.0999999999999998e-01 -1.4377016514255919e+01 -1.1407227282216619e+01 -6.8927299765419043e+00 1 1 2
1994 665 2 4.0999999999999998e-01 -1.4359332775526497e+01 -8.1783102243090582e+00 -3.1564544107273758e+00 1 -1 0
2533 845 1 -8.1999999999999995e-01 -9.3510945128899188e+00 -8.3972394989816674e+00 -1.0706530487171388e+00 0 -1 0
2038 680 1 -8.1999999999999995e-01 -1.3035689657768254e+01 -1.3984441848684813e+01 -5.4328278561693288e-01 0 1 -1
1701 567 2 4.0999999999999998e-01 -1.2781626871018320e+01 -1.3821297735153502e+01 -3.9837077446468481e+00 1 1 -2
1965 655 2 4.0999999999999998e-01 -1.4013773778213734e+01 -8.5332297869624103e+00 -7.4625920757403481e+00 0 -1 1
103 35 1 -8.1999999999999995e-01 -1.1905407087226166e+01 -1.4926675983210378e+01 -4.9449346077843952e+00 0 1 0
930 310 2 4.0999999999999998e-01 -1.4555575531882248e+01 -1.3793479028614758e+01 -2.7185192808516021e+00 0 -2 1
820 274 1 -8.1999999999999995e-01 -1.4637883806764689e+01 -1.0493859925588616e+01 -6.5802050289403446e+00 1 1 2
2437 813 1 -8.1999999999999995e-01 -9.2412210509215988e+00 -1.4081095594972521e+01 -6.7788334289197003e+00 1 1 1
2039 680 2 4.0999999999999998e-01 -1.2301280520999896e+01 -1.4662952491499832e+01 -5.5845070303170630e-01 0 1 -1
18 6 2 4.0999999999999998e-01 -1.2298418196514596e+01 -8.4322869484610568e+00 -6.5897895887372115e-01 -2 0 0
2534 845 2 4.0999999999999998e-01 -9.1224429311032491e+00 -8.9927128957573785e+00 -3.0052746116160201e-01 0 -1 0
1309 437 1 -8.1999999999999995e-01 -1.4957149383752583e+01 -1.3810280152673174e+01 -5.8838231152534721e+00 1 0 -1
730 244 1 -8.1999999999999995e-01 -8.1759663481929596e+00 -5.1557960745284106e+00 -2.1995035366285709e+00 -1 0 -1
1109 370 2 4.0999999999999998e-01 -9.7348648278358780e+00 -5.1522607611006972e+00 -1.0588012076969715e+00 1 -1 2
1103 368 2 4.0999999999999998e-01 -1.3346167270310479e+01 -5.2355082882064661e+00 -6.1277054714351067e+00 -1 1 -2
1503 501 2 4.0999999999999998e-01 -1.5110072246331814e+01 -5.3441536283628768e+00 -5.2394454370834467e+00 2 0 1
1757 586 2 4.0999999999999998e-01 -9.0401167923805161e+00 -1.4895198503966100e+01 -7.1454563308374475e-01 -2 1 -1
640 214 1 -8.1999999999999995e-01 -1.2941349800743819e+01 -1.4619879442306853e+01 -7.4972140959630140e+00 -2 -2 -1
1964 655 2 4.0999999999999998e-01 -1.3281668616169693e+01 -7.0742459298707487e+00 -7.5063794709261273e+00 0 -1 1
732 244 2 4.0999999999999998e-01 -7.3100238604287950e+00 -5.1566405030351241e+00 -1.6993971187568295e+00 -1 0 -1
64 22 1 -8.1999999999999995e-01 -7.5295574708376165e+00 -1.2054498733019162e+01 -7.3542217024505279e+00 0 -1 1
1105 369 1 -8.1999999999999995e-01 -5.1776044330171977e+00 -1.4463333009690626e+01 -5.7575083092816861e+00 1 2 2
1261 421 1 -8.1999999999999995e-01 -7.5211333104549825e+00 -5.8618156224339977e+00 -5.6168764642112379e+00 0 0 0
1263 421 2 4.0999999999999998e-01 -6.8255627604250986e+00 -6.5650734447562940e+00 -5.7637559066023680e+00 0 0 0
2524 842 1 -8.1999999999999995e-01 -9.5518989402696697e-01 -5.5746451476331185e+00 -1.2092440856825402e+00 0 1 -1
66 22 2 4.0999999999999998e-01 -7.2837000138654409e+00 -1.1693889771447685e+01 -6.4545112928190154e+00 0 -1 1
2364 788 2 4.0999999999999998e-01 -4.8813012106789877e-01 -1.1453579266865690e+01 -2.3242541963599983e-01 0 -1 0
154 52 1 -8.1999999999999995e-01 -6.9108159164421288e+00 -1.1633260382790105e+01 -4.7457405194723439e+00 -1 1 0
1771 591 1 -8.1999999999999995e-01 -9.2552115280835778e-01 -1.2932882679922027e+01 -6.9793610111867412e+00 0 1 -1
1602 534 2 4.0999999999999998e-01 -3.9154336107782921e+00 -6.4828166902910009e+00 -6.8389964264853731e+00 -1 -1 0
2022 674 2 4.0999999999999998e-01 -6.2954969302439068e-01 -8.8292488582196107e+00 -2.6473434371046842e+00 0 1 0
1063 355 1 -8.1999999999999995e-01 -6.0828328492005141e+00 -1.0672489325111854e+01 -1.7541627627527134e+00 2 -1 0
2363 788 2 4.0999999999999998e-01 -7.1187325366381060e-02 -1.1308391719366714e+01 -1.8045604280793697e+00 0 -1 0
1155 385 2 4.0999999999999998e-01 -1.1319777278845891e+00 -5.0988921712536754e+00 -5.6719892672340801e+00 1 1 -1
1762 588 1 -8.1999999999999995e-01 -6.3384010396013934e-02 -9.1799884938376444e+00 -5.5314555134627135e+00 -1 -2 0
490 164 1 -8.1999999999999995e-01 -6.7545938791979889e+00 -8.0065516465792754e+00 -2.6004540068293860e+00 -1 -1 0
156 52 2 4.0999999999999998e-01 -6.0340807964718728e+00 -1.1338295485449521e+01 -4.3658789406560476e+00 -1 1 0
58 20 1 -8.1999999999999995e-01 -2.8601159321712171e+00 -1.1452996063084019e+01 -5.6735288606840566e+00 -1 1 0
155 52 2 4.0999999999999998e-01 -7.1109624930642372e+00 -1.2563670757448572e+01 -4.4387528141654755e+00 -1 1 0
341 114 2 4.0999999999999998e-01 -6.2663257284379572e+00 -8.1784136707281263e+00 -4.5370948997086220e+00 -1 1 2
910 304 1 -8.1999999999999995e-01 -4.2924742213801874e+00 -1.2396995991601280e+01 -3.3623385596863127e+00 -1 1 1
342 114 2 4.0999999999999998e-01 -4.7509960831649991e+00 -7.9507638421295077e+00 -5.1014360100326943e+00 -1 1 2
1429 477 1 -8.1999999999999995e-01 -3.6946958107952899e+00 -8.8468279564736552e+00 -3.3860750880289423e+00 1 -1 3
1772 591 2 4.0999999999999998e-01 -1.4727605937167674e+00 -1.2506712747203961e+01 -6.2590335005375302e+00 0 1 -1
1764 588 2 4.0999999999999998e-01 -4.0815725048073404e-03 -8.2811573643489140e+00 -5.0972328090339207e+00 -1 -2 0
1431 477 2 4.0999999999999998e-01 -3.4254870556297643e+00 -9.8019337295669757e+00 -3.5096191720005816e+00 1 -1 3
1106 369 2 4.0999999999999998e-01 -5.1427141557340388e+00 -1.3909399006939740e+01 -6.5893155655376656e+00 1 2 2
2413 805 1 -8.1999999999999995e-01 -5.8168504264605829e+00 -5.5104574951913783e+00 -1.1536175906402786e+00 0 0 0
813 271 2 4.0999999999999998e-01 -5.8631629591623291e+00 -8.9094214605050048e+00 -6.6125239930291553e+00 0 2 1
60 20 2 4.0999999999999998e-01 -3.4482368889072621e+00 -1.1414262718945766e+01 -6.4813512471271437e+00 -1 1 0
811 271 1 -8.1999999999999995e-01 -5.8035891198919405e+00 -9.4472207275919455e+00 -7.4534677822654301e+00 0 2 1
2052 684 2 4.0999999999999998e-01 -5.1793945005527160e+00 -7.1789819611821395e+00 -7.1650979429818840e-01 -1 0 1
1153 385 1 -8.1999999999999995e-01 -1.8253538938737304e+00 -5.8105831727837316e+00 -5.7846344240171206e+00 1 1 -1
1154 385 2 4.0999999999999998e-01 -1.5814845993092188e+00 -6.3938703340009759e+00 -6.5594036752909428e+00 1 1 -1
1931 644 2 4.0999999999999998e-01 -2.0992176719395363e+00 -1.4156542045920705e+01 -2.0612680165196586e+00 1 -1 0
2379 793 2 4.0999999999999998e-01 -1.4963787360101843e+00 -6.4843978708464842e+00 -2.5686349720286561e+00 0 1 0
1763 588 2 4.0999999999999998e-01 -7.8053553404314968e-01 -9.1668823932454160e+00 -6.2282233781666658e+00 -1 -2 0
2051 684 2 4.0999999999999998e-01 -4.9671672163975611e+00 -8.6473912084860416e+00 -1.3986117785910306e+00 -1 0 1
59 20 2 4.0999999999999998e-01 -3.3885976936017315e+00 -1.1784692267010534e+01 -4.8920890342827601e+00 -1 1 0
2020 674 1 -8.1999999999999995e-01 -3.2228994904957986e-01 -9.7656759809905296e+00 -2.8166337727334128e+00 0 1 0
2021 674 2 4.0999999999999998e-01 -3.4987971142003182e-01 -9.9531528184706506e+00 -3.7984966809051315e+00 0 1 0
726 242 2 4.0999999999999998e-01 -3.8542903687152794e+00 -1.3473547277770365e+01 -4.0455528023120202e-01 -2 1 0
2362 788 1 -8.1999999999999995e-01 -2.8278592547096792e-01 -1.1955802619978433e+01 -1.0724069611775331e+00 0 -1 0
491 164 2 4.0999999999999998e-01 -6.5016746165604058e+00 -7.0878847029638390e+00 -2.2970624697144704e+00 -1 -1 0
1107 369 2 4.0999999999999998e-01 -6.0448830443644770e+00 -1.4302831587976238e+01 -5.2863069993796010e+00 1 2 2
1444 482 1 -8.1999999999999995e-01 -7.4816155138959504e+00 -1.4404777300124614e+01 -4.1929172102630741e+00 0 3 0
2050 684 1 -8.1999999999999995e-01 -4.7920736321787505e+00 -8.0916156257986636e+00 -5.8594993192156153e-01 -1 0 1
1930 644 1 -8.1999999999999995e-01 -2.4378826495008568e+00 -1.3439376667101742e+01 -1.4522167321698340e+00 1 -1 0
1064 355 2 4.0999999999999998e-01 -6.2294643047089888e+00 -9.8105729293288206e+00 -2.2395109611652622e+00 2 -1 0
1065 355 2 4.0999999999999998e-01 -6.8681981758047268e+00 -1.0860743151352088e+01 -1.1644803538704434e+00 2 -1 0
2377 793 1 -8.1999999999999995e-01 -1.5589074360202400e+00 -7.0465293112481575e+00 -3.3932936558352136e+00 0 1 0
912 304 2 4.0999999999999998e-01 -3.6890177842433722e+00 -1.2955641944506937e+01 -2.7933758601192640e+00 -1 1 1
911 304 2 4.0999999999999998e-01 -4.9669306118061645e+00 -1.1939096582744376e+01 -2.7832010652497825e+00 -1 1 1
1932 644 2 4.0999999999999998e-01 -1.7957223387980736e+00 -1.2672831982003860e+01 -1.4505107950935834e+00 1 -1 0
1430 477 2 4.0999999999999998e-01 -2.8764484899254406e+00 -8.2774152104509433e+00 -3.3073095357233502e+00 1 -1 3
2378 793 2 4.0999999999999998e-01 -1.6625744490789458e+00 -6.4549701816842244e+00 -4.1928400772089880e+00 0 1 0
340 114 1 -8.1999999999999995e-01 -5.7233949576024177e+00 -7.8978951420460257e+00 -5.3286118631217150e+00 -1 1 2
2415 805 2 4.0999999999999998e-01 -5.4609519492544880e+00 -5.4322818258388548e+00 -2.2238810109313079e-01 0 0 0
1446 482 2 4.0999999999999998e-01 -6.9007719184219898e+00 -1.5019431659385313e+01 -3.6592653771605317e+00 0 3 0
735 245 2 4.0999999999999998e-01 -4.0550225789467778e+00 -5.4873505799416602e+00 -3.5762755173532543e+00 0 1 -1
2525 842 2 4.0999999999999998e-01 -1.6367423737664879e+00 -5.3854976571836222e+00 -5.0236858089981062e-01 0 1 -1
2476 826 1 -8.1999999999999995e-01 -1.2647363993434839e+01 -7.2946471341417514e+00 5.8625377069146367e+00 0 -2 0
1984 662 1 -8.1999999999999995e-01 -8.2490807719083215e+00 -8.0389937592250469e+00 4.8735297873616226e+00 0 1 -1
2308 770 1 -8.1999999999999995e-01 -1.3565311244656039e+01 -1.0123487847797227e+01 5.8854164343516651e+00 -1 -1 0
2477 826 2 4.0999999999999998e-01 -1.3189689928670649e+01 -6.8684860649189172e+00 6.5865769730785679e+00 0 -2 0
1985 662 2 4.0999999999999998e-01 -8.9746353978794104e+00 -7.5092863353420496e+00 4.4342757657796810e+00 0 1 -1
1981 661 1 -8.1999999999999995e-01 -1.0790821481747480e+01 -1.3568789084061180e+01 2.5091152938996402e+00 3 1 1
1983 661 2 4.0999999999999998e-01 -9.8841381153523926e+00 -1.3152270527404438e+01 2.5754561715948903e+00 3 1 1
2478 826 2 4.0999999999999998e-01 -1.2828649372603916e+01 -8.2779053664412707e+00 5.8451484936623714e+00 0 -2 0
1982 661 2 4.0999999999999998e-01 -1.1414777894062437e+01 -1.2937420791628593e+01 2.0486633169980522e+00 3 1 1
920 307 2 4.0999999999999998e-01 -1.0678129581983267e+01 -5.5490698867686703e+00 2.3856926490264136e+00 0 0 0
1325 442 2 4.0999999999999998e-01 -1.1815242629687331e+01 -7.0352611781486960e+00 4.1549433943348362e+00 1 -1 -1
2310 770 2 4.0999999999999998e-01 -1.3295527584974360e+01 -9.8555290898877601e+00 6.8102831324262851e+00 -1 -1 0
1986 662 2 4.0999999999999998e-01 -7.9936378471299525e+00 -8.8061867574332950e+00 4.2852038514198583e+00 0 1 -1
1589 530 2 4.0999999999999998e-01 -7.9384880806765814e+00 -6.6707763243758560e+00 6.0347512693412426e+00 0 1 -1
1688 563 2 4.0999999999999998e-01 -1.2651732421160364e+01 -1.0682296667189782e+01 3.9425191569428861e+00 1 -2 0
1687 563 1 -8.1999999999999995e-01 -1.2385885335315212e+01 -1.0697266599553501e+01 2.9786391064044722e+00 1 -2 0
1324 442 1 -8.1999999999999995e-01 -1.1239654766821202e+01 -6.8640696986222896e+00 3.3553462248806483e+00 1 -1 -1
1326 442 2 4.0999999999999998e-01 -1.1056230887898845e+01 -7.7276190814163801e+00 2.8856636950279082e+00 1 -1 -1
1866 622 2 4.0999999999999998e-01 -1.1009130753614137e+01 -9.7093901835379626e+00 2.8237618425886559e+00 1 1 1
1581 527 2 4.0999999999999998e-01 -9.0925666113256334e+00 -1.2292100123830918e+01 4.4629696615703942e+00 1 0 -1
1865 622 2 4.0999999999999998e-01 -9.7199194129207100e+00 -9.7134349508804601e+00 1.8215408145575829e+00 1 1 1
1579 527 1 -8.1999999999999995e-01 -8.5662189582282622e+00 -1.2397516813899188e+01 3.6192819133966339e+00 1 0 -1
1588 530 1 -8.1999999999999995e-01 -8.0646509083020703e+00 -5.9288598820822251e+00 6.6932392838697226e+00 0 1 -1