2611
Atoms. Timestep: 4998000
O 0.884867 10.8419 11.4202
H -0.0761578 10.8696 11.145
H 0.949009 10.5679 12.3798
O -10.1884 -11.405 2.90723
H -10.1517 -10.6708 2.22923
H -11.0363 -11.3316 3.43239
O -9.18693 5.41475 2.60926
H -9.35138 4.43073 2.67808
H -8.41019 5.5812 2.00178
O -5.62323 -0.571358 4.26266
H -4.83951 -0.626913 4.88134
H -5.44513 0.11769 3.56012
O -7.12784 6.65433 14.6299
H -8.04069 6.37608 14.331
H -7.03503 7.64586 14.5387
O -0.735562 3.85793 13.503
H -1.49085 3.8468 12.8476
H -1.00992 4.36648 14.3192
O 4.79364 10.9927 9.35347
H 5.5737 11.5345 9.66654
H 3.94845 11.5037 9.51029
O -13.6605 10.5222 2.20629
H -13.2557 9.68387 1.84094
H -13.3663 10.649 3.15362
O 10.4358 -5.98689 5.13678
H 9.53234 -5.96982 5.56531
H 11.1407 -5.91058 5.842
O -9.89907 -13.4647 13.5798
H -9.74005 -12.5679 13.1669
H -10.2524 -13.3464 14.5078
O 8.17866 -4.30491 6.19327
H 8.30873 -3.31544 6.25726
H 7.28522 -4.54875 6.57059
O 5.28788 -6.14576 -1.94152
H 5.93761 -5.56395 -1.45223
H 5.66162 -6.38164 -2.8386
O -14.9084 7.00765 0.335291
H 14.8064 7.56155 -0.349881
H 14.7642 7.02576 1.19218
O 13.2045 -10.2677 7.85323
H 12.2426 -10.2546 8.12669
H 13.7828 -10.2784 8.669
O -6.74479 -3.24952 -8.54891
H -7.72243 -3.39172 -8.39375
H -6.22232 -3.91296 -8.01323
O -11.7936 -5.21092 10.8239
H -12.2239 -4.34391 11.0753
H -10.8001 -5.12335 10.8965
O 0.990112 0.357841 -6.40938
H 0.748337 1.18282 -5.89847
H 0.181485 0.0112657 -6.88486
O -4.95702 14.1942 -1.96879
H -5.50327 14.7338 -2.60947
H -3.9852 14.3501 -2.14576
O 5.59661 9.67434 -0.943476
H 6.3756 9.9942 -0.404088
H 5.92382 9.09743 -1.69192
O -14.5751 -9.63947 -3.73807
H -14.6851 -10.6179 -3.91321
H -13.7925 -9.29405 -4.25611
O 6.30808 -12.3892 5.92311
H 5.63831 -13.0703 6.21893
H 5.85208 -11.5091 5.7903
O 4.90609 5.1962 -13.4549
H 4.21548 5.48151 -12.7903
H 4.48276 4.60754 -14.1437
O -1.0314 8.52642 -8.04349
H -1.54814 8.82634 -8.84542
H -1.14775 9.19018 -7.3046
O -13.8431 -14.5823 -5.66978
H -14.0368 14.7433 -5.20182
H -14.1791 -13.82 -5.11656
O -12.7975 -10.2483 7.30642
H -13.3844 -9.44892 7.17734
H -11.9459 -9.9685 7.74963
O -2.79398 -13.0574 0.299393
H -2.28718 -12.3608 0.807313
H -2.15032 -13.6887 -0.133256
O -14.816 4.58748 13.8116
H 14.8231 5.33465 13.4365
H 14.9067 4.19923 14.6073
O 14.5973 -2.13245 4.62624
H 13.7405 -2.19022 4.11378
H 14.9131 -3.05392 4.85255
O -9.39054 -7.90925 -1.73371
H -8.66185 -7.22453 -1.71787
H -10.1817 -7.54275 -2.22336
O 8.45003 12.0319 -5.12106
H 7.49051 12.0539 -4.84015
H 8.50424 11.9366 -6.11507
O -9.94354 -11.5952 -14.2723
H -10.7111 -11.5305 -13.6345
H -10.1225 -11.0178 -15.0689
O 7.7645 5.04398 10.2378
H 7.87948 4.83833 11.2097
H 7.22402 5.87914 10.1355
O 11.9457 -3.08505 -9.86519
H 11.778 -3.25989 -10.8354
H 12.8124 -2.59737 -9.75932
O -0.916609 -10.5825 0.530923
H -0.0811945 -10.2971 0.0611481
H -1.54839 -9.80937 0.586739
O -12.0779 -14.0889 -13.108
H -11.7973 -14.5568 -12.2699
H -11.9652 -14.7051 -13.8875
O 0.858958 -14.8298 -3.17753
H 0.0383642 -14.6543 -2.63355
H 1.40258 -13.9927 -3.24021
O 10.2601 2.29732 -9.35125
H 9.4084 2.78703 -9.16435
H 10.5546 1.81421 -8.52668
O 13.1488 -14.2096 -6.97911
H 14.0141 -14.71 -6.95058
H 13.3256 -13.2502 -7.19912
O -0.327113 11.544 -10.5073
H -1.05713 12.1745 -10.2433
H 0.457307 11.6692 -9.8998
O -13.1401 -8.54505 -8.13679
H -14.0315 -8.75604 -8.53798
H -12.4537 -9.17538 -8.49956
O -5.729 8.94337 -8.07682
H -6.6284 8.65221 -7.75066
H -5.15271 8.13997 -8.22688
O 12.483 -3.33423 -13.4043
H 13.3086 -2.82338 -13.644
H 12.1585 -3.83795 -14.205
O 2.15065 -2.54339 10.873
H 2.99814 -3.07141 10.928
H 2.36548 -1.58878 10.6665
O 0.668275 11.3534 4.72753
H 1.06659 11.1803 3.82672
H -0.304503 11.122 4.71189
O 6.06075 14.8889 3.10335
H 6.48954 14.3502 2.37807
H 5.07599 14.7149 3.11
O 8.74237 3.12284 -4.94569
H 7.76571 3.28676 -5.08473
H 8.89991 2.14498 -4.80775
O 6.31573 -5.66546 -4.44751
H 6.93593 -6.30622 -4.90012
H 5.6087 -5.37432 -5.09204
O -3.49479 -0.318132 -9.97972
H -4.37014 -0.1183 -9.53938
H -3.32264 -1.30272 -9.9477
O -10.9245 -0.28405 -13.3377
H -9.93107 -0.18157 -13.2856
H -11.3576 0.323925 -12.6723
O 14.9823 -8.28271 9.32265
H 14.3106 -7.57673 9.09789
H -14.582 -8.4073 8.55085
O -14.5789 0.68885 4.39433
H -14.0845 1.18354 3.67958
H -14.8579 1.32863 5.11054
O -10.3591 0.0918956 -10.1662
H -11.0506 0.730251 -10.5044
H -10.6501 -0.845911 -10.3557
O 10.3934 5.16629 9.54086
H 9.47522 5.3288 9.9022
H 10.3304 4.62859 8.70004
O -4.54204 2.94954 4.95762
H -5.23874 2.85431 5.66868
H -3.71517 2.45931 5.23336
O 1.84585 -14.776 10.9816
H 2.24531 -14.2478 11.731
H 1.17865 14.764 11.3491
O -1.89389 5.57276 -14.0832
H -2.8515 5.85687 -14.0347
H -1.40316 5.91694 -13.2827
O 11.836 12.0402 -6.58251
H 11.8931 12.3944 -5.64903
H 10.8768 11.9839 -6.85956
O 10.5612 -8.59565 4.43156
H 10.206 -8.80316 3.52006
H 10.6086 -7.60416 4.55307
O -7.80677 6.30628 -4.55916
H -7.44693 6.31715 -3.62617
H -7.15913 5.83864 -5.16078
O 9.93921 5.49658 -5.64966
H 9.57771 4.60659 -5.92769
H 10.8235 5.37138 -5.19966
O -4.42127 -5.91788 1.24275
H -4.92548 -5.82623 2.1015
H -3.46302 -6.12563 1.43938
O -7.98457 -2.15013 -1.24845
H -7.78061 -1.84826 -2.17976
H -7.43852 -2.95985 -1.0334
O 9.21207 -1.0098 -13.2603
H 9.18017 -1.9933 -13.4386
H 10.0527 -0.628421 -13.6449
O 10.5712 -14.7204 -11.9841
H 9.67302 -15.0547 -12.2699
H 10.6584 -14.8062 -10.9915
O -4.263 1.97773 -3.50772
H -4.00725 1.28643 -2.83188
H -3.99593 1.66692 -4.41993
O -8.85205 11.2115 -3.09989
H -9.24914 11.7292 -3.85777
H -9.30445 11.4702 -2.24636
O -11.149 -10.358 -8.75853
H -11.1281 -11.1417 -8.13768
H -10.7364 -10.6142 -9.6327
O -7.66493 -0.965166 -3.74152
H -7.5027 0.0170499 -3.83639
H -8.59773 -1.17853 -4.03209
O 13.8686 5.14358 4.85748
H 14.3288 4.34075 5.23661
H 13.4438 5.66485 5.59769
O 12.645 -0.597965 9.09913
H 13.33 -0.915055 8.4431
H 13.0561 -0.541248 10.009
O -5.00577 8.15518 -12.3437
H -5.42158 8.97819 -12.7308
H -4.82622 7.49699 -13.0749
O -0.491313 5.50426 3.65792
H -0.628951 4.87688 4.42442
H -0.307582 6.42286 4.00792
O -4.96479 -7.2039 14.32
H -4.95745 -8.16291 14.0367
H -5.21159 -7.14401 -14.9006
O -12.59 6.41112 12.1038
H -12.9983 7.26421 12.4288
H -12.1651 5.9313 12.8715
O 2.0652 -8.31811 -7.346
H 2.53664 -7.56426 -7.80374
H 1.49959 -7.9565 -6.60479
O -12.2604 0.0801656 1.54086
H -13.0993 0.0439306 0.99771
H -11.4847 -0.19972 0.975158
O -0.106487 8.40279 4.53576
H -0.114837 9.03502 5.31054
H 0.144004 8.89821 3.70396
O 10.3315 -9.64754 -6.6155
H 11.232 -9.76918 -6.19801
H 10.4397 -9.44976 -7.58978
O -13.9867 -8.69984 2.89029
H -13.1957 -8.94627 2.33018
H -13.8119 -7.8285 3.34886
O -4.61065 10.5792 -5.63023
H -5.59983 10.5998 -5.77576
H -4.14375 10.5708 -6.51454
O -4.78916 11.2549 -8.77078
H -5.10541 10.3066 -8.74093
H -5.50665 11.8567 -8.42
O -10.6338 -1.74744 -3.23759
H -10.7042 -2.38845 -2.47323
H -11.369 -1.07235 -3.17518
O -8.37901 0.0848529 2.51964
H -8.75933 -0.833396 2.40898
H -7.40877 0.0751973 2.27751
O -14.1666 5.03443 10.2416
H -13.3443 4.72661 9.76295
H -13.9075 5.46541 11.106
O -1.18582 -3.17851 -11.5734
H -1.59108 -2.55278 -12.2399
H -1.55642 -2.9838 -10.6652
O -6.80322 -12.2061 10.9832
H -7.29973 -12.8863 11.5225
H -7.43669 -11.7483 10.3594
O 6.16254 3.18634 13.7338
H 6.54592 2.34762 14.1206
H 6.87489 3.67867 13.2335
O -7.08411 10.747 10.7715
H -7.66563 10.6244 9.96726
H -6.17278 10.381 10.5829
O 9.16223 -4.13205 3.06393
H 9.58987 -4.62339 2.30512
H 9.19131 -4.69937 3.88696
O 3.5535 4.71234 -4.98583
H 3.64072 5.417 -5.69004
H 2.95903 5.04468 -4.25355
O 11.3548 2.83039 14.7891
H 10.6155 3.46824 15.0052
H 11.4413 2.74443 13.7965
O -12.4133 -10.8329 4.47811
H -12.6293 -10.3578 5.33119
H -13.1211 -11.513 4.28688
O 13.2608 6.38003 -13.1285
H 13.6874 5.56578 -13.5223
H 12.3622 6.51979 -13.5446
O 5.97678 7.39607 3.66732
H 5.11258 7.89184 3.58097
H 6.30161 7.13176 2.75919
O -9.95063 14.9477 -7.91279
H -9.24895 14.9343 -8.6252
H -10.8309 -14.9909 -8.31658
O 7.72264 14.5138 -6.37058
H 7.69186 14.8013 -7.32792
H 8.5757 14.8295 -5.95502
O 11.7003 -14.0617 0.19426
H 11.777 -14.9659 0.61449
H 11.89 -14.1321 -0.785091
O -3.67426 1.05992 -6.29903
H -3.87789 1.83154 -6.9017
H -2.89245 0.551857 -6.66058
O -5.18024 -12.4608 -0.729667
H -4.23199 -12.4801 -0.412635
H -5.69172 -11.7766 -0.209741
O -0.546637 14.6617 -7.83373
H -0.059302 -15.0215 -8.54643
H -1.1162 13.956 -8.25517
O 8.79461 -8.05175 -4.91764
H 9.27047 -8.5555 -5.63866
H 9.45603 -7.74472 -4.2333
O -3.29083 14.1368 -14.85
H -3.74085 13.4455 -14.2846
H -3.8209 14.2805 14.5022
O -1.97384 -6.31536 2.57261
H -2.20898 -5.5752 3.20265
H -0.993902 -6.50555 2.6327
O 11.5941 13.2423 -14.8846
H 11.4549 12.6808 14.4876
H 12.216 12.7721 -14.2583
O -6.60059 11.8258 -11.1885
H -6.29152 12.5246 -11.8337
H -5.90345 11.6905 -10.4844
O 6.83102 5.36558 -1.14982
H 7.69454 5.1397 -1.6008
H 6.48206 4.55796 -0.674372
O -1.28629 -5.84223 6.17646
H -0.765134 -5.03077 6.44103
H -2.03582 -5.98258 6.82343
O -10.936 10.1875 11.761
H -10.8659 10.9724 11.1453
H -10.0193 9.89296 12.0313
O 3.78 -7.97086 -0.707726
H 3.59256 -7.78299 0.256453
H 4.42735 -7.29459 -1.05938
O -9.57512 2.62774 -6.16192
H -10.2902 1.96211 -5.94835
H -9.93869 3.3186 -6.78689
O -3.93692 -0.532704 -2.52129
H -4.21001 -0.890678 -3.41424
H -4.43793 -1.01386 -1.80188
O 3.97497 2.70134 4.45917
H 3.44373 3.46986 4.10246
H 4.89416 2.72037 4.06573
O 3.8834 -5.31607 5.06607
H 4.41794 -4.92133 4.31873
H 2.99518 -5.61629 4.71821
O -14.8307 -11.7462 -7.25289
H -14.8369 -11.5973 -8.24176
H -13.8915 -11.8981 -6.94463
O 3.26633 -13.316 -5.65478
H 3.90296 -12.626 -5.99928
H 2.4473 -13.3298 -6.22843
O -0.893793 13.0815 -1.4909
H -0.221072 12.6567 -2.0967
H -1.80873 12.7541 -1.72706
O -0.186391 6.18811 -9.09765
H -0.607232 7.08708 -8.97591
H 0.809056 6.27947 -9.06919
O 2.31705 12.6218 -9.37008
H 2.61185 11.8126 -8.86176
H 2.90105 13.3973 -9.13004
O 11.1867 -14.7293 -9.26612
H 10.4907 -14.0184 -9.1644
H 11.5562 -14.9651 -8.36726
O 6.53738 -11.8317 -2.19509
H 5.56224 -11.7025 -2.01487
H 7.00574 -12.0654 -1.34299
O -7.50574 -1.86191 9.33555
H -8.11746 -1.10602 9.10208
H -7.22969 -2.33748 8.50026
O -7.24095 5.77477 -9.48542
H -7.33545 6.23051 -8.60029
H -6.47046 5.13814 -9.45196
O 4.89817 2.97655 -11.1577
H 5.65024 3.6235 -11.2839
H 4.95935 2.56775 -10.2471
O 12.709 11.2079 5.00882
H 12.1499 12.037 5.01564
H 13.0878 11.0538 5.92142
O 13.3893 -0.166621 2.90312
H 13.3755 -0.662829 2.03498
H 14.2786 -0.290298 3.34365
O 2.1482 -8.91976 4.08615
H 2.86527 -9.50147 4.47021
H 1.3002 -9.44397 4.00752
O -7.48378 -14.3824 12.6886
H -8.31784 -14.229 13.2186
H -7.50895 14.891 12.2847
O 10.6553 -9.5081 13.9702
H 10.0372 -10.1452 14.4308
H 10.5187 -8.58761 14.3364
O 9.12705 11.2449 -11.7644
H 9.69143 11.3066 -10.9412
H 9.23549 10.3399 -12.1759
O -4.06614 8.86031 6.18117
H -4.35772 9.50305 6.88965
H -4.84111 8.28964 5.90946
O -5.49945 -7.57705 -0.760366
H -5.53567 -7.10406 0.119995
H -6.33141 -7.38001 -1.2791
O 11.1871 -1.78401 7.08273
H 11.4289 -2.64179 7.5364
H 11.3683 -1.01806 7.6996
O -5.50856 -2.0421 14.2824
H -6.18977 -2.38528 14.9291
H -5.75171 -2.33233 13.3568
O -9.51282 9.65934 2.16388
H -10.3635 9.37128 2.60366
H -9.5448 10.6434 1.98862
O 13.4259 -4.41521 -7.24532
H 13.0002 -5.09499 -6.64801
H 12.7609 -4.1058 -7.92514
O -10.2348 -0.879545 -0.12684
H -9.42381 -1.38792 -0.416448
H -10.4084 -0.134079 -0.770448
O -11.1664 -5.0682 3.65788
H -11.1257 -4.15001 4.05202
H -11.3281 -5.73598 4.3845
O 5.0014 -4.07276 -8.63435
H 5.00989 -4.9542 -9.10666
H 5.38599 -3.37009 -9.23304
O 3.48421 1.86204 -6.0649
H 3.44776 2.86043 -6.02072
H 2.55514 1.49688 -6.12449
O 7.59819 -13.6245 -12.8769
H 7.48488 -14.4542 -12.3303
H 7.65849 -13.8686 -13.8448
O 15.028 13.8849 -15.0454
H 15.027 14.6 -14.3463
H 14.7253 14.2704 14.2708
O 11.5699 -8.12404 -11.8191
H 11.4754 -9.03763 -12.2147
H 12.5041 -7.79554 -11.9583
O -2.40749 -3.07113 7.82409
H -3.22172 -2.71301 8.28109
H -2.41833 -4.07052 7.85851
O 9.11464 -7.77903 8.8433
H 8.16301 -7.71241 8.54326
H 9.53353 -8.59487 8.44455
O 9.69625 -9.23077 1.99948
H 8.89687 -9.78981 1.77919
H 9.52515 -8.2833 1.72912
O -2.66804 13.2318 2.74656
H -3.59282 13.5066 2.4832
H -2.04069 13.9983 2.60912
O 11.7297 9.58636 0.958864
H 11.1635 10.3587 1.24691
H 12.5572 9.55236 1.51938
O 3.01492 9.21753 0.42028
H 3.94959 9.17516 0.067199
H 2.48571 8.45147 0.055374
O 6.35857 7.35417 9.59704
H 7.04543 7.93716 9.16296
H 5.8209 7.89657 10.2426
O -11.2047 6.68676 -12.5584
H -10.4395 6.15293 -12.9185
H -11.7704 7.01166 -13.3163
O 9.6383 4.67679 -14.7264
H 10.1153 5.5281 -14.9452
H 8.65236 4.84283 -14.7062
O -13.0456 2.59718 8.30097
H -13.5446 2.13342 9.03311
H -12.0647 2.56314 8.49263
O -2.41042 -9.9767 -9.80416
H -1.49348 -9.64891 -10.0318
H -2.35002 -10.6518 -9.06889
O -1.3766 6.51217 -3.19635
H -1.92544 5.9918 -3.85061
H -0.413672 6.47287 -3.46338
O -14.4258 -12.7821 9.29767
H 15.0363 -12.1561 9.58326
H -13.5922 -12.5833 9.81303
O -13.1227 -4.25746 -8.92323
H -13.7798 -4.8085 -9.43773
H -12.4789 -4.86029 -8.4519
O -0.460981 6.59075 1.05546
H -0.680462 6.40346 2.01297
H -1.28611 6.49272 0.499017
O -12.7473 0.207716 -2.98034
H -12.2251 0.898876 -2.48071
H -12.8509 0.492582 -3.93334
O 14.9031 -10.7378 -12.9153
H 14.2478 -11.4932 -12.9147
H 14.5587 -9.99828 -13.4937
O -3.33118 10.4142 14.6774
H -2.58226 9.81061 14.4038
H -3.16661 10.7503 -14.5831
O -11.4601 -6.58049 5.92239
H -10.6768 -6.93506 6.43315
H -11.9149 -5.8705 6.46009
O -6.50409 -14.7857 -7.63962
H -5.59474 -14.7967 -7.22364
H -6.81901 14.463 -7.7773
O 14.7022 9.64023 9.10097
H 14.2021 10.4089 8.70212
H -14.5043 9.83018 9.07224
O -12.4922 -4.60937 7.36661
H -13.1429 -4.62514 8.12582
H -11.7437 -3.98212 7.58208
O 5.32405 -9.85301 5.45716
H 5.75227 -9.35123 4.70555
H 5.01735 -9.20762 6.15678
O -8.91535 3.02276 -2.56766
H -8.28043 2.51859 -3.15312
H -8.67589 3.99368 -2.57472
O -6.29909 -0.772689 -9.61193
H -6.36003 -1.69544 -9.23128
H -7.05751 -0.219285 -9.26753
O 11.2149 7.03219 14.8369
H 11.9761 6.9651 14.1919
H 11.0142 7.99525 15.0168
O -12.005 -2.79666 -0.293559
H -11.2852 -2.1218 -0.130483
H -12.8993 -2.35772 -0.206726
O -14.2411 13.4218 -3.72128
H 15.0152 13.5825 -3.39495
H -13.5877 13.7394 -3.03404
O -13.6452 5.76977 7.20215
H -13.6371 5.23618 8.0479
H -14.3556 6.47147 7.25756
O -11.8893 -12.1544 -6.85283
H -11.2346 -11.9722 -6.11912
H -12.0371 -13.1404 -6.93033
O 2.00507 -14.1942 6.58469
H 1.9772 -14.5022 5.63366
H 2.95627 -14.0682 6.86648
O -10.9406 10.0133 -14.6321
H -11.3954 10.7089 14.9995
H -11.4803 9.17153 -14.6441
O 0.85512 -0.495201 7.75714
H 0.211812 -1.18427 8.09092
H 0.720299 0.358285 8.26058
O -3.5242 -7.64995 -3.47766
H -3.26977 -6.87635 -2.89723
H -4.46737 -7.91808 -3.28115
O -3.49146 -13.2155 -14.9731
H -3.65762 -12.23 -14.9373
H -2.89557 -13.4809 -14.2151
O -12.1892 0.538014 14.6635
H -12.1245 -0.0648233 13.8682
H -11.7685 0.0931288 -14.7338
O 3.81057 1.42211 -13.3469
H 4.02363 0.491576 -13.6448
H 4.38817 1.66278 -12.5668
O -5.9731 -6.45046 9.86483
H -6.02096 -7.2864 9.31804
H -5.21718 -6.52075 10.5158
O 9.46289 6.02493 3.82527
H 8.75896 5.92149 4.52802
H 9.93154 6.89963 3.94912
O -11.7925 -8.26685 12.6849
H -12.6589 -7.9974 12.2644
H -11.2432 -7.45155 12.8681
O 11.2866 4.29426 4.45696
H 10.6989 5.00358 4.06766
H 12.2405 4.48948 4.22886
O -1.32322 -12.0462 -12.0487
H -1.85486 -11.265 -12.376
H -1.89484 -12.8667 -12.0601
O -7.93823 14.6752 -3.0611
H -8.61824 14.0454 -2.68567
H -7.51704 14.2669 -3.87103
O 9.83675 8.60926 -12.333
H 10.5257 8.15112 -11.7712
H 10.2861 9.08691 -13.0879
O 9.53042 -4.42169 -1.71153
H 8.77315 -3.92728 -2.13836
H 10.3893 -3.94754 -1.90522
O 2.37753 5.78518 -9.43373
H 2.17109 5.02221 -10.0464
H 2.81309 6.52082 -9.95257
O 6.99379 -14.8299 10.0115
H 5.99546 -14.8882 10.0158
H 7.28312 -14.1144 9.3755
O -9.55455 -10.1902 -0.149716
H -8.72146 -10.7252 -0.0091069
H -9.47344 -9.66319 -0.995765
O 6.26656 -10.2749 -13.4731
H 5.88741 -10.8733 -12.7672
H 5.63896 -10.2375 -14.2508
O 12.2409 14.6275 10.7467
H 11.3082 14.4572 11.0648
H 12.7826 15.0128 11.4938
O -3.82929 -9.63543 -12.1287
H -3.26623 -9.43435 -11.327
H -4.59797 -10.2155 -11.8591
O -10.0884 -14.346 3.49525
H -9.81783 -13.5287 2.98653
H -9.77927 -14.2663 4.44297
O 9.26972 10.6826 2.75345
H 8.63314 10.5962 3.51985
H 9.44093 11.6506 2.56984
O -7.09689 1.87717 -4.06772
H -7.46978 2.33253 -4.87621
H -6.12475 2.09511 -3.98104
O 9.51359 2.16851 -12.1719
H 9.96644 1.50678 -12.7695
H 10.0066 2.22565 -11.3037
O 10.7786 -10.7411 -12.4745
H 10.4654 -10.7903 -13.4229
H 9.99438 -10.8255 -11.8597
O 14.4073 6.93619 8.95161
H 15.0095 6.38198 9.5263
H 14.5858 7.90573 9.11955
O -11.827 -8.6021 0.950193
H -10.9044 -8.73409 0.587621
H -12.4941 -8.9862 0.311843
O 14.1369 12.2752 11.6073
H 14.7438 11.6067 12.0373
H 14.6833 13.0015 11.1902
O 2.46834 3.13937 14.976
H 1.90709 2.41633 14.5731
H 3.11139 2.73786 -14.5597
O -14.4105 -0.612374 -11.5285
H -14.148 -0.620328 -10.5636
H -13.8553 -1.27566 -12.0305
O -6.62837 -10.5132 0.327405
H -6.83346 -10.2404 1.26741
H -6.54254 -9.69772 -0.245099
O 1.81035 0.622726 -9.09586
H 1.75932 -0.314568 -9.44075
H 1.8082 0.610536 -8.09591
O 11.451 -5.9863 12.2233
H 11.903 -5.87307 11.3385
H 11.8065 -6.80345 12.6771
O 3.55092 -10.831 7.68027
H 2.92993 -10.0852 7.92183
H 3.42645 -11.0696 6.71715
O 6.92547 -5.07945 0.217853
H 7.56861 -5.12389 0.982357
H 6.90144 -4.1474 -0.143771
O 11.4459 -2.0188 4.15423
H 11.7488 -2.03254 5.10718
H 11.9974 -1.36304 3.63857
O -1.22228 0.604331 11.0942
H -1.70271 0.45296 11.9582
H -0.94625 -0.275706 10.7077
O -11.8726 14.7764 -2.58265
H -11.5053 -15.0066 -1.74528
H -11.5677 -14.8787 -3.3721
O -12.1075 12.0223 13.8429
H -12.1635 11.8255 12.8641
H -13.0066 11.8924 14.2611
O -13.8247 8.66344 12.4853
H -14.1213 9.3468 13.1525
H -13.0527 9.02272 11.9609
O 14.9894 -14.694 4.90916
H 14.4907 -14.5455 5.76315
H -14.9977 -13.812 4.48275
O 5.92116 6.99545 -9.03305
H 6.69919 7.23592 -9.61348
H 5.0844 7.38329 -9.41969
O -14.8005 -13.8595 -13.8331
H -14.9726 -13.4987 -12.9165
H -13.8269 -14.0648 -13.9331
O -9.37554 13.3654 -1.18261
H -8.39236 13.2821 -1.01989
H -9.87511 12.9078 -0.447028
O 14.8468 -14.3221 -1.36802
H -14.9107 -14.9716 -0.741145
H 13.9724 -14.6918 -1.68245
O 4.20162 14.9382 -8.93048
H 4.79207 14.8821 -9.73564
H 4.54577 14.323 -8.22118
O -7.87745 -13.716 6.9154
H -7.55772 -14.4601 6.32875
H -8.10187 -12.9206 6.35238
O 6.46908 9.76762 1.79704
H 6.45512 8.82636 1.45956
H 7.1829 9.86238 2.49098
O 10.6186 9.83107 11.6034
H 10.5526 9.96182 10.6142
H 9.69986 9.76859 11.9934
O -10.457 2.61527 14.5989
H -9.58068 2.18274 14.8113
H -11.181 1.92561 14.6123
O 0.00592287 -8.47385 13.2994
H 0.726761 -9.0327 12.8893
H -0.799367 -8.48104 12.7065
O 13.8906 0.00176705 11.5018
H 14.1199 -0.627905 12.2441
H 13.521 0.848271 11.885
O -1.57324 10.7193 10.4013
H -1.7658 11.3924 9.68725
H -2.20011 10.858 11.168
O -14.3504 4.0575 -9.8261
H 14.9618 4.35768 -10.2044
H -13.7474 3.76872 -10.5698
O -4.77396 -12.7288 -9.77991
H -5.15104 -13.4067 -9.14877
H -3.8351 -12.5109 -9.51316
O -11.1914 3.22082 11.7239
H -10.5173 3.2057 12.4625
H -11.9792 2.66068 11.9801
O 5.74609 -14.8752 -0.579045
H 5.05972 -14.1486 -0.611362
H 5.86799 14.9284 -1.4942
O -6.46956 -5.07003 -6.41201
H -6.46117 -4.93614 -5.42101
H -7.2321 -5.66708 -6.66125
O 8.64186 -11.8994 -6.70477
H 9.1374 -11.0428 -6.5607
H 8.44344 -12.3225 -5.82062
O -4.03849 -13.9936 4.90329
H -3.07495 -13.7544 4.78319
H -4.13859 -14.5804 5.70685
O -5.66465 0.583037 8.79846
H -6.14235 -0.181791 9.23079
H -4.67759 0.46196 8.90388
O 5.8793 -5.31075 7.39093
H 5.54416 -4.50603 7.88102
H 5.24444 -5.53998 6.65305
O 6.8223 -7.98216 12.8507
H 7.32307 -7.59691 12.0756
H 6.50855 -8.90331 12.6203
O -14.4889 9.98511 -2.52468
H -13.9138 9.16747 -2.49673
H 14.7873 9.76339 -2.17853
O 8.66768 1.38521 10.7564
H 7.9159 0.735375 10.8687
H 8.70969 1.68481 9.80318
O -2.0826 -12.0423 -8.24275
H -1.22563 -12.3653 -8.64439
H -2.10247 -12.2727 -7.26984
O 2.46718 13.1768 -4.99603
H 2.21249 13.333 -4.04166
H 3.25715 13.7447 -5.2274
O -13.6565 -5.83095 2.66925
H -12.7115 -5.5282 2.79302
H -13.9188 -5.7211 1.71052
O -8.73286 -8.7424 14.4618
H -8.0845 -8.03452 14.7422
H -8.81999 -8.73894 13.4656
O 12.7398 -10.8871 12.8521
H 13.2485 -11.4546 13.4995
H 11.9253 -10.5185 13.3003
O 8.63195 13.9617 -2.41452
H 8.94869 13.4619 -1.60833
H 7.72424 13.6328 -2.67526
O -2.55443 0.327592 13.6555
H -2.03616 0.890336 14.2996
H -3.51263 0.613791 13.659
O 13.2864 0.103385 -8.30752
H 13.774 -0.204701 -7.49054
H 12.5065 0.667941 -8.03721
O -7.85903 -13.5299 -1.24467
H -7.02409 -12.9795 -1.24828
H -7.81587 -14.2058 -1.98039
O -9.86615 -13.1368 8.69071
H -10.6363 -13.2821 8.06957
H -9.00803 -13.2599 8.19217
O -12.8132 10.2677 8.87879
H -12.1776 9.75684 9.45769
H -12.3196 10.6483 8.09682
O -14.5949 6.48635 3.2128
H -14.3852 5.73684 2.58484
H 14.807 6.2371 3.77864
O -4.90422 6.36029 5.02221
H -4.94964 5.43435 5.39722
H -4.27586 6.37444 4.24437
O -4.54002 3.63005 13.7032
H -4.52334 3.93543 12.751
H -4.61553 2.63329 13.7322
O -6.01608 13.191 8.60227
H -5.28323 13.817 8.3354
H -6.53273 13.5871 9.36141
O -6.32009 13.7932 -12.9042
H -6.00437 14.5617 -13.4608
H -7.27021 13.5829 -13.1346
O -1.94263 -13.6417 12.0268
H -1.61586 -13.3486 11.1283
H -2.94167 -13.6858 12.0201
O 2.98104 6.51506 11.5411
H 3.30648 6.31247 10.6175
H 3.48788 5.96152 12.202
O 7.43833 12.4546 9.69933
H 7.5065 12.5444 10.693
H 7.65551 13.3312 9.26977
O 4.67556 -12.632 9.40249
H 4.3356 -13.5538 9.21614
H 4.30862 -11.9975 8.72214
O 7.08139 7.20021 -12.2266
H 7.11241 6.24024 -11.948
H 7.9298 7.43756 -12.6998
O -12.6414 -14.7901 -7.98826
H -13.3411 -14.3654 -8.56279
H -12.9638 -14.8265 -7.04233
O 1.24658 9.31245 -9.87361
H 0.788844 9.36591 -8.98609
H 0.692563 9.77917 -10.563
O 9.23969 8.58868 0.340711
H 8.84305 9.44198 0.00216182
H 10.2373 8.64588 0.300725
O -12.0252 12.2436 0.626675
H -12.1295 11.7543 -0.23919
H -12.595 11.8105 1.32508
O -5.17661 -1.4122 -4.72772
H -6.07832 -1.4389 -4.29612
H -5.22863 -0.885354 -5.57613
O 12.1752 -4.85967 3.29412
H 11.5105 -4.14552 3.51369
H 12.5619 -5.22658 4.14022
O 4.01334 11.1465 2.10568
H 3.34207 10.6271 1.57683
H 4.87579 10.6413 2.13747
O -6.28379 -8.28067 -3.85927
H -5.82652 -9.06165 -3.43377
H -6.31311 -8.411 -4.85035
O -2.61611 11.2132 -12.9498
H -1.95469 10.5226 -13.2424
H -2.71746 11.1776 -11.9556
O 11.894 -7.1051 1.67818
H 12.4471 -7.9329 1.77262
H 12.247 -6.39682 2.28957
O 5.01192 14.7932 -5.75055
H 5.98635 14.8997 -5.94863
H 4.57018 -14.4975 -5.75876
O -0.167711 -13.1646 7.64947
H -0.583497 -13.8537 8.24313
H 0.751519 -13.46 7.38898
O -8.4287 -8.02935 -7.15711
H -8.04996 -8.88395 -6.80175
H -8.87918 -7.53093 -6.41635
O 7.76665 -10.7294 1.17643
H 7.6176 -11.3702 1.9296
H 8.19626 -11.2087 0.411082
O 3.2492 9.50911 7.22997
H 4.17097 9.85786 7.0603
H 3.04954 9.55721 8.20869
O -6.56667 13.6216 1.91719
H -5.78517 14.1807 1.64013
H -7.35661 14.2119 2.0833
O -11.9867 -3.12388 13.9962
H -12.666 -2.39126 13.9535
H -11.0737 -2.74043 13.8563
O 3.25835 6.78205 6.00025
H 3.52652 7.51701 5.37736
H 2.86582 6.0268 5.47528
O -13.5134 -5.29075 -0.229125
H -12.7818 -4.60904 -0.238045
H -13.6665 -5.62758 -1.1582
O -6.17419 2.803 -9.46612
H -6.9544 2.22054 -9.23788
H -6.1717 2.98677 -10.4491
O 3.89418 -10.4365 -8.09445
H 3.14403 -9.82698 -7.83786
H 3.5207 -11.2916 -8.45413
O 4.72602 1.59881 -8.80027
H 3.7527 1.44769 -8.97318
H 4.87281 1.73863 -7.821
O -7.94785 -11.6226 -4.17917
H -7.52488 -11.1375 -4.94455
H -7.89522 -11.0571 -3.3561
O -8.33011 1.22058 -14.2973
H -7.68246 1.94579 -14.5312
H -8.10355 0.848932 -13.397
O 4.84144 -2.52456 -11.4077
H 4.90741 -2.17155 -12.341
H 3.99358 -3.04528 -11.3074
O -7.71732 -9.13192 11.8104
H -6.77618 -9.46171 11.7359
H -7.7671 -8.18887 11.4814
O -4.5936 7.63543 12.5241
H -5.28425 7.95354 13.1736
H -3.76789 7.36706 13.0203
O 4.34187 -6.31142 11.5813
H 5.01265 -6.57119 12.2761
H 3.55107 -5.888 12.0234
O -1.56403 -14.8617 9.35177
H -2.46401 -14.4443 9.47767
H -1.31937 14.8079 10.1713
O -7.47672 -10.3423 8.87115
H -6.61581 -9.87721 9.07749
H -7.66436 -10.2769 7.89106
O -12.8361 -4.41912 -4.61221
H -11.9181 -4.74689 -4.83542
H -13.2044 -3.90564 -5.38733
O 10.7993 13.4537 -4.4363
H 10.5942 14.3638 -4.79641
H 9.95651 13.0275 -4.10744
O 5.90733 12.4532 -7.86259
H 6.7172 11.872 -7.7821
H 5.94232 13.1717 -7.16794
O 7.16447 -3.67099 -14.0343
H 7.27186 -4.52997 -14.535
H 8.06576 -3.3095 -13.7954
O -0.943884 -6.07805 -10.3825
H -0.820502 -5.15576 -10.7489
H -0.297892 -6.70111 -10.8236
O -12.8927 -0.377273 7.46381
H -12.0224 -0.190074 7.00832
H -13.4197 0.469532 7.53673
O 4.90704 -2.50964 11.5747
H 5.63993 -2.91898 12.1182
H 4.24016 -2.08044 12.1839
O 13.7757 -6.11323 -13.7041
H 13.6977 -5.30305 -13.1231
H 14.1822 -5.85662 -14.5811
O -8.64115 4.25868 12.8138
H -7.79893 4.11579 13.3337
H -8.41378 4.48779 11.8673
O 9.54722 -3.35333 -5.11943
H 9.07659 -2.90781 -5.88107
H 9.01415 -3.2329 -4.28193
O 6.06238 14.5317 -11.3452
H 5.28157 15.0265 -11.7267
H 5.88247 13.5485 -11.3784
O -4.07294 3.48215 -7.8046
H -4.81815 3.17722 -8.39768
H -3.25336 3.64241 -8.35476
O 8.22973 2.76994 8.24556
H 7.85433 3.50664 8.80808
H 9.08126 3.07631 7.82002
O 0.835 -7.82592 -11.8123
H 1.82226 -7.89562 -11.9556
H 0.394737 -7.53382 -12.6614
O -1.09846 3.62198 5.35505
H -1.06649 3.60775 6.35447
H -0.956204 2.69654 5.00379
O -13.5923 9.02362 -11.1066
H -13.4306 8.07793 -10.8245
H -12.7259 9.44364 -11.3767
O -8.73982 12.6569 -13.512
H -8.24236 11.8852 -13.1158
H -9.29026 13.098 -12.8031
O -2.39419 6.6106 -0.703765
H -2.6828 7.55017 -0.519433
H -2.09753 6.53371 -1.65568
O 2.39781 -13.2307 13.5994
H 3.30041 -13.2538 14.0293
H 1.69231 -13.1938 14.3072
O 3.61781 13.936 2.51238
H 3.69198 12.9387 2.52072
H 3.30317 14.2393 1.6129
O 11.3544 0.466429 -14.0507
H 11.3826 1.35333 -14.5118
H 12.287 0.132711 -13.9127
O 5.84415 3.57826 0.86163
H 6.65862 3.39165 1.41106
H 5.34336 2.72639 0.707971
O 7.06161 6.05204 15
H 6.57817 6.17561 14.1334
H 6.44475 5.63855 -14.5181
O 8.58552 11.3413 -7.72022
H 8.86609 10.4715 -7.31407
H 9.22759 11.5936 -8.44422
O -3.4355 11.8669 12.2451
H -3.773 12.7523 11.9256
H -3.86206 11.6442 13.1218
O -8.62123 13.3045 7.06438
H -8.47024 14.095 7.65791
H -8.1593 13.4513 6.18966
O -7.40872 10.5791 -5.4654
H -8.03584 10.0789 -6.06255
H -7.81454 10.6684 -4.55578
O -9.92344 6.37055 13.853
H -9.80019 5.51372 13.3523
H -9.6911 7.14041 13.2586
O 2.17344 2.65807 11.3217
H 2.73837 3.0293 10.5847
H 1.77407 3.40981 11.8465
O 13.3133 12.2226 8.72913
H 13.063 12.0627 9.68403
H 13.9457 12.9954 8.67523
O 12.1368 11.252 13.4099
H 12.6203 11.899 12.8203
H 11.4971 10.7142 12.8607
O -4.75532 -10.5361 10.5347
H -4.12635 -10.3956 11.2994
H -5.38441 -11.2821 10.7534
O 9.63642 13.4599 2.2508
H 8.80325 13.2849 1.72611
H 9.70338 14.4367 2.4541
O -8.19744 7.55315 -7.00683
H -8.25335 7.21617 -6.06694
H -9.11495 7.58963 -7.40298
O -10.8328 1.4573 -1.43287
H -10.1686 1.94764 -1.99721
H -11.1984 2.07457 -0.73617
O 13.494 -3.61456 7.90847
H 13.3228 -4.26384 7.16738
H 13.9638 -2.81007 7.54494
O 8.86563 -1.54387 1.99246
H 9.68426 -1.08797 1.64308
H 9.1281 -2.38805 2.45995
O -11.8896 -11.7747 -2.14657
H -11.442 -12.3228 -1.44
H -12.1892 -10.9051 -1.75398
O -10.7134 2.35011 5.64324
H -10.4865 1.54436 5.09609
H -11.4255 2.87783 5.18007
O 9.01422 -11.173 -14.8285
H 8.17147 -10.6919 -14.5868
H 8.79205 -11.9806 14.813
O -9.49914 4.67775 -10.8586
H -9.42468 4.33238 -11.7941
H -8.61556 5.04455 -10.5674
O -12.5502 4.39274 -14.7235
H -11.7143 3.97201 -15.0762
H -13.2178 4.47879 14.7248
O 0.0706374 12.1003 -13.3477
H 0.710373 12.566 -12.7363
H -0.763653 11.8718 -12.846
O 13.9127 1.13396 -3.8182
H 14.4847 1.74814 -3.27441
H 13.0142 1.04712 -3.38796
O -2.31857 7.54172 14.2429
H -2.18075 6.83971 14.9417
H -1.67645 7.39384 13.4907
O 1.05712 14.2521 4.32003
H 1.58253 14.2104 3.47016
H 1.02188 13.3429 4.73502
O -11.2981 14.8671 1.38242
H -11.5641 13.9039 1.42102
H -10.8447 -15.0657 2.23648
O 0.894332 -7.46584 -4.8763
H 1.73132 -7.14323 -4.43421
H 0.233351 -6.717 -4.92536
O -3.69535 -9.234 0.288101
H -4.31959 -8.54194 -0.0744689
H -3.41036 -9.84538 -0.45018
O -14.4411 -3.01747 -6.60977
H -13.8434 -3.28702 -7.36486
H 14.8539 -3.45439 -6.71913
O -13.7929 -3.79041 11.8395
H -13.3002 -3.68898 12.7038
H -14.5453 -3.13252 11.8055
O 13.7086 0.908221 -12.7587
H 14.6082 0.472302 -12.7322
H 13.1747 0.619282 -11.964
O -4.83898 -13.7167 11.5483
H -4.67589 -13.8348 10.5688
H -5.67587 -13.1867 11.6854
O 3.10305 -1.80805 6.9595
H 3.30107 -1.23286 6.16577
H 2.30298 -1.44893 7.44011
O -1.49829 10.2479 -5.84267
H -0.639213 10.7588 -5.87497
H -1.63588 9.88511 -4.92099
O 7.55999 9.58072 4.98839
H 7.15096 8.67557 4.87232
H 7.11261 10.0538 5.74739
O -4.19925 5.61889 -11.1969
H -4.65127 4.96167 -11.8001
H -4.70872 6.47942 -11.2001
O 13.2905 -2.13572 0.794931
H 12.3049 -1.96826 0.823059
H 13.4589 -3.10812 0.633257
O -14.1871 8.1634 5.25693
H -14.4507 7.79022 4.36735
H -13.8505 7.42521 5.84156
O -11.2101 -5.77483 13.5945
H -11.5008 -4.81915 13.642
H -11.4673 -6.24388 14.4394
O -4.65372 5.89501 -14.638
H -5.49018 6.31982 -14.9843
H -4.37086 5.16247 14.9307
O 14.7205 14.4156 9.48135
H -14.9582 -14.9319 9.29545
H 13.7873 14.6455 9.75779
O -10.382 -10.6478 12.4096
H -9.43499 -10.3284 12.3744
H -10.983 -9.88364 12.644
O -2.45862 -14.1518 -2.99821
H -3.37772 -13.7646 -3.07193
H -1.86456 -13.5101 -2.51302
O -9.291 -2.38094 13.9332
H -8.69008 -2.53226 14.7181
H -9.10491 -1.48064 13.5397
O -7.19639 1.46516 -0.676617
H -7.88008 1.47525 -1.40637
H -7.11821 2.38003 -0.280428
O -4.44242 -2.49038 -12.5632
H -3.72277 -1.85783 -12.8496
H -4.34182 -3.35486 -13.0558
O -14.7064 -2.83877 -14.6702
H -14.164 -2.54018 -13.8849
H -14.6754 -3.8361 -14.7369
O -13.6784 11.1326 -5.95459
H -14.1003 11.6359 -5.20039
H -14.3879 10.8278 -6.59005
O -2.57393 -14.4837 -12.6569
H -3.36468 -14.7219 -12.093
H -2.55677 -15.066 -13.4698
O -9.30601 11.0472 8.62494
H -10.0205 11.4302 9.21051
H -8.84473 11.7867 8.1347
O -3.65269 13.2244 -4.88533
H -3.59181 12.2289 -4.81261
H -2.78001 13.6323 -4.61667
O -11.2654 12.0011 6.80516
H -10.3603 12.2949 7.11255
H -11.7831 12.795 6.48611
O -11.1192 -2.67057 -10.3748
H -12.0194 -2.98599 -10.0744
H -10.8089 -3.23086 -11.1428
O 1.23898 -6.33933 5.30998
H 0.270551 -6.22843 5.53339
H 1.42429 -7.2988 5.09749
O -12.1251 -7.16118 -14.1872
H -12.7981 -7.7201 -13.7026