LAMMPS data file via write_data, version 15 May 2015, timestep = 590000

4560 atoms
7 atom types
5040 bonds
3 bond types
7200 angles
2 angle types
10560 dihedrals
3 dihedral types
2400 impropers
1 improper types

-1.0763502675555259e-01 4.1387635026745990e+01 xlo xhi
-4.0433884491974936e-02 3.5938433884472119e+01 ylo yhi
-3.5711112484589691e-01 2.9555111124838550e+01 zlo zhi
-6.7234083837551181e-02 -1.7036217651000683e+01 -4.1707816797290791e-02 xy xz yz

Masses

1 12.0107
2 1.008
3 12.0107
4 12.0107
5 12.0107
6 12.0107
7 12.0107

Pair Coeffs # lj/cut/coul/long

1 0.00531 3.55
2 0.00228 2.42
3 0.00531 3.55
4 0.00531 3.55
5 0.00531 3.55
6 0 0
7 0.00531 3.55

Bond Coeffs # harmonic

1 469 1.4
2 367 1.08
3 469 0.7

Angle Coeffs # harmonic

1 35 120
2 63 120

Dihedral Coeffs # opls

1 0 7.25 0 0
2 0 7.25 0 0
3 0 7.25 0 0

Improper Coeffs # cvff

1 2.5 -1 2

Atoms # full

219 13 3 0.0000000000000000e+00 -2.7156996739502270e-01 3.0967216869086300e+00 3.1786227840214751e+00 1 0 0
220 13 4 -1.1500000000000000e-01 3.0203634791057299e-01 4.1169007197095446e+00 2.3590074694724072e+00 1 0 0
224 13 2 1.1500000000000000e-01 4.9179101243510548e-01 5.1146957966133897e+00 2.6945334365784670e+00 1 0 0
580 33 4 -1.1500000000000000e-01 2.6719938446930098e+00 6.7580384737308421e+00 4.0001669502852515e+00 1 0 0
228 13 3 0.0000000000000000e+00 -5.6067903932152863e-01 1.8423749336226418e+00 2.5877194145841602e+00 1 0 0
989 53 4 -1.1500000000000000e-01 -1.3559529970514428e+00 7.0424124631391010e+00 3.5011465335528063e+00 1 0 0
600 34 2 1.1500000000000000e-01 3.1122400436847464e-01 5.9385243311821423e+00 7.0283645330263509e+00 1 0 0
245 14 4 -1.1500000000000000e-01 -4.9194682632206437e+00 1.4130155954238262e+00 9.0747156041844654e+00 1 0 0
227 13 4 -1.1500000000000000e-01 -1.7258980658961010e-01 1.5476672751083047e+00 1.2612085609567807e+00 1 0 0
4390 233 1 -1.1500000000000000e-01 2.4897038849404645e+00 8.1816140252729319e-01 5.5166037464857807e+00 1 1 0
733 13 6 0.0000000000000000e+00 -4.3510123100856379e-01 2.4365240258924539e+00 2.9365846959600828e+00 1 0 0
1765 94 4 -1.1500000000000000e-01 -5.2300288022699730e+00 1.3737027149065463e+01 8.6220566090043746e+00 1 0 0
230 13 1 -1.1500000000000000e-01 5.4034921357656940e-01 3.8506484838802026e+00 1.0323461549009558e+00 1 0 0
217 13 7 -1.1500000000000000e-01 -1.3339002767029253e+00 2.4875431326139696e+00 5.1576593894727036e+00 1 0 0
218 13 5 -1.1500000000000000e-01 -5.8341679963587012e-01 3.3853075149577938e+00 4.4888747897710450e+00 1 0 0
221 13 1 -1.1500000000000000e-01 -1.6312277321737865e+00 1.1574870198014433e+00 4.6631814840354133e+00 1 0 0
222 13 2 1.1500000000000000e-01 -1.6190244551439861e+00 2.7743547914816009e+00 6.1773759895274685e+00 1 0 0
223 13 2 1.1500000000000000e-01 -1.9102887588548700e-01 4.2678997834140757e+00 4.9770012080169854e+00 1 0 0
248 14 1 -1.1500000000000000e-01 -3.5794475183365417e+00 3.4104684960677076e+00 8.6732519180941061e+00 1 0 0
4380 233 4 -1.1500000000000000e-01 2.5654255894258080e+00 1.1086297195811783e+00 4.1492417112954509e+00 1 1 0
244 14 1 -1.1500000000000000e-01 -4.0849034936755571e+00 2.1703908227283448e+00 8.2185384216743245e+00 1 0 0
603 34 2 1.1500000000000000e-01 1.1476746993230975e+00 3.5975532136684083e+00 7.6636419546239036e+00 1 0 0
4396 234 5 -1.1500000000000000e-01 -7.4888246091890220e-01 2.0126655808881638e-01 9.2571624403203074e+00 1 1 0
4394 233 2 1.1500000000000000e-01 1.9917917941401773e+00 1.4363361284112794e+00 6.2632391114841157e+00 1 1 0
579 33 3 0.0000000000000000e+00 3.3259471110935857e+00 5.8241362170766990e+00 3.1673861403833294e+00 1 0 0
252 14 2 1.1500000000000000e-01 -2.9728416286502890e+00 4.0713397420089672e+00 8.0288423284491319e+00 1 0 0
581 33 1 -1.1500000000000000e-01 4.5388570192349125e+00 3.9674686095046114e+00 1.4846117818738225e+00 1 0 0
596 34 5 -1.1500000000000000e-01 -5.5239752653460084e-01 6.3222985575403774e+00 8.8767886014320965e+00 1 0 0
577 33 7 -1.1500000000000000e-01 4.1219428656622030e+00 5.2200899928657947e+00 9.9594505584040527e-01 1 0 0
588 33 3 0.0000000000000000e+00 3.9252738649867829e+00 4.6827421038495762e+00 3.7403780344006901e+00 1 0 0
589 33 4 -1.1500000000000000e-01 4.5269096730763181e+00 3.7331483595868122e+00 2.8725360464196115e+00 1 0 0
593 33 2 1.1500000000000000e-01 4.8692822604587196e+00 2.7811608545324118e+00 3.2835890049648415e+00 1 0 0
753 33 6 0.0000000000000000e+00 3.6325009010427918e+00 5.1807201688553262e+00 3.3139152637498035e+00 1 0 0
4383 233 2 1.1500000000000000e-01 3.1564217187184749e+00 1.5209354171232055e+00 1.6135473630571313e+00 1 1 0
4379 233 3 0.0000000000000000e+00 3.2423119514084693e+00 2.3079224115179497e-01 3.3163806746168083e+00 1 1 0
578 33 5 -1.1500000000000000e-01 3.4683441834729107e+00 6.1429169547403450e+00 1.8176968071549746e+00 1 0 0
226 13 1 -1.1500000000000000e-01 3.2026353666650298e-01 2.6113662907721058e+00 5.5529056378590191e-01 1 0 0
4384 233 2 1.1500000000000000e-01 2.2132274859366206e+00 2.0258828730449094e+00 3.7123125874155134e+00 1 1 0
586 33 1 -1.1500000000000000e-01 3.2929297507021800e+00 5.4117677471365724e+00 5.9479209648984250e+00 1 0 0
587 33 4 -1.1500000000000000e-01 3.8044705181052461e+00 4.4401448020736565e+00 5.1597461973758332e+00 1 0 0
585 33 2 1.1500000000000000e-01 4.9633778341757253e+00 3.2665564691078703e+00 8.2248790605464706e-01 1 0 0
591 33 2 1.1500000000000000e-01 3.2507883958720143e+00 5.2228522618209876e+00 6.9688469960694759e+00 1 0 0
592 33 2 1.1500000000000000e-01 4.1687759139608147e+00 3.4965062748871798e+00 5.5386083215027435e+00 1 0 0
590 33 1 -1.1500000000000000e-01 2.7441169169172399e+00 6.6015732997899335e+00 5.4352245826873338e+00 1 0 0
1756 94 5 -1.1500000000000000e-01 -4.6261054376771007e+00 1.5172074737681589e+01 1.2021454797729877e+01 1 0 0
234 13 2 1.1500000000000000e-01 8.0586450284871214e-01 4.5897808014381551e+00 3.5621747016203087e-01 1 0 0
229 13 4 -1.1500000000000000e-01 -1.2119089375097811e+00 8.4387125918295935e-01 3.3373209601192073e+00 1 0 0
1011 54 2 1.1500000000000000e-01 -6.3643112246076150e+00 6.2657817064569272e+00 1.0715262608413569e+01 1 0 0
985 53 2 1.1500000000000000e-01 -1.5985718443989740e+00 6.3127474994003761e+00 5.5053902697783688e+00 1 0 0
599 34 1 -1.1500000000000000e-01 6.3031563295638549e-01 4.2821164723391991e+00 8.3168466474669138e+00 1 0 0
4401 234 2 1.1500000000000000e-01 -8.7054558040838348e-01 1.1876662152461106e+00 8.8641768816642657e+00 1 1 0
225 13 2 1.1500000000000000e-01 -2.0586876851516238e+00 3.6257948020729336e-01 5.3313323153196217e+00 1 0 0
595 34 7 -1.1500000000000000e-01 1.9403386315435522e-01 5.5606740589604797e+00 8.0260084115484727e+00 1 0 0
981 53 1 -1.1500000000000000e-01 -1.2656326740180692e+00 7.1097647334418239e+00 4.8937949443951245e+00 1 0 0
4378 233 5 -1.1500000000000000e-01 3.4225221915428707e+00 5.0955659943184317e-01 1.9104408637763814e+00 1 1 0
582 33 2 1.1500000000000000e-01 4.0843985268135032e+00 5.4652227394640249e+00 -9.3668782096390402e-02 1 0 0
583 33 2 1.1500000000000000e-01 3.0144391957549583e+00 7.0085910890588474e+00 1.4663629893863581e+00 1 0 0
993 53 2 1.1500000000000000e-01 -1.8657147217267449e+00 6.1482688981974523e+00 2.9929318654449633e+00 1 0 0
232 13 2 1.1500000000000000e-01 -2.9342156031034988e-01 5.0665296514815938e-01 9.9211533443437228e-01 1 0 0
235 14 7 -1.1500000000000000e-01 -5.2655430830452161e+00 2.2293652355957136e+00 1.3165798715345870e+01 1 0 0
236 14 5 -1.1500000000000000e-01 -4.5570328723267668e+00 3.1295369023958268e+00 1.2330140497418462e+01 1 0 0
597 34 3 0.0000000000000000e+00 -6.3413716670140463e-01 5.9063064817556814e+00 1.0254574148999712e+01 1 0 0
734 14 6 0.0000000000000000e+00 -4.6134632577424712e+00 2.3344842422132115e+00 1.0485289240015671e+01 1 0 0
239 14 1 -1.1500000000000000e-01 -5.8004844349535247e+00 1.0995609096666121e+00 1.2605081748018399e+01 1 0 0
240 14 2 1.1500000000000000e-01 -5.3804587029532476e+00 2.4863355026762153e+00 1.4168350449769505e+01 1 0 0
243 14 2 1.1500000000000000e-01 -6.4063680137220569e+00 3.5218104187161398e-01 1.3163840389710707e+01 1 0 0
237 14 3 0.0000000000000000e+00 -4.4478781247092876e+00 2.8736754629874155e+00 1.0929624300649760e+01 1 0 0
4402 234 2 1.1500000000000000e-01 -1.7763978204189605e+00 1.7902436831199289e+00 1.1162724545956051e+01 1 1 0
1758 94 4 -1.1500000000000000e-01 -3.8339844810492876e+00 1.5962793354825461e+01 9.7890093334648416e+00 1 0 0
242 14 2 1.1500000000000000e-01 -3.1300685034775286e+00 4.5133986615434214e+00 1.0453651929698577e+01 1 0 0
4408 234 1 -1.1500000000000000e-01 -1.9142206202114700e+00 3.7896477044064802e-01 1.2724572496691748e+01 1 1 0
238 14 4 -1.1500000000000000e-01 -3.7138583655415465e+00 3.7392810272376709e+00 1.0013866515913438e+01 1 0 0
246 14 3 0.0000000000000000e+00 -5.0722113255257675e+00 1.7717644233057170e+00 1.0425837012176691e+01 1 0 0
604 34 1 -1.1500000000000000e-01 -9.8466605179104327e-01 4.9936559692482492e+00 1.2778973868197607e+01 1 0 0
605 34 4 -1.1500000000000000e-01 -4.0167168213601734e-01 4.1019859249852155e+00 1.1865589721505904e+01 1 0 0
606 34 3 0.0000000000000000e+00 -2.0231765274783076e-01 4.5835895038305443e+00 1.0564820423672893e+01 1 0 0
607 34 4 -1.1500000000000000e-01 4.0957936009261697e-01 3.7384334166839475e+00 9.6082043428325274e+00 1 0 0
611 34 2 1.1500000000000000e-01 7.1107586498350006e-01 2.7344181981124911e+00 9.9651083157378366e+00 1 0 0
610 34 2 1.1500000000000000e-01 -1.3841232389800773e-01 3.1419552729965581e+00 1.2185455127882278e+01 1 0 0
241 14 2 1.1500000000000000e-01 -4.1023396950824838e+00 4.0004533241811400e+00 1.2636917576782642e+01 1 0 0
2513 133 2 1.1500000000000000e-01 -1.5230892060836347e+00 1.7822516183975782e+01 3.1272972937973234e+00 1 0 0
598 34 4 -1.1500000000000000e-01 -1.1537731293923921e+00 6.7704412541072339e+00 1.1215045169700987e+01 1 0 0
754 34 6 0.0000000000000000e+00 -4.5391541252091461e-01 5.2672260013517667e+00 1.0497704935317493e+01 1 0 0
609 34 2 1.1500000000000000e-01 -1.1605162832754834e+00 4.6871339739522631e+00 1.3746576877713915e+01 1 0 0
4398 234 4 -1.1500000000000000e-01 -1.5984408382417676e+00 7.6556708841483501e-01 1.1417277730431630e+01 1 1 0
4412 234 2 1.1500000000000000e-01 -2.4766815050828530e+00 1.0169723628851284e+00 1.3445409108972900e+01 1 1 0
247 14 4 -1.1500000000000000e-01 -5.7595657996291765e+00 8.7999321459680391e-01 1.1253898906031479e+01 1 0 0
608 34 1 -1.1500000000000000e-01 -1.3034646703087427e+00 6.3437327411229454e+00 1.2486160598707739e+01 1 0 0
612 34 2 1.1500000000000000e-01 -1.6963221473267343e+00 7.0569439885061183e+00 1.3245393221390350e+01 1 0 0
979 53 3 0.0000000000000000e+00 -1.6099978250663449e-01 9.1506039305905009e+00 3.3302266823509630e+00 1 0 0
980 53 4 -1.1500000000000000e-01 5.8590095781678353e-01 1.0012784702040353e+01 2.4963101348755177e+00 1 0 0
984 53 2 1.1500000000000000e-01 1.1343488311031500e+00 1.0871144476595319e+01 2.7225905982970517e+00 1 0 0
1361 74 2 1.1500000000000000e-01 -1.1669505997357645e+00 1.3234240202195904e+01 8.4446480082516580e+00 1 0 0
990 53 1 -1.1500000000000000e-01 5.5512850952002557e-01 9.8217886599093873e+00 1.0817420846216186e+00 1 0 0
2253 93 6 0.0000000000000000e+00 -3.6267043921997688e-01 1.4240641440747257e+01 3.0022535705511797e+00 1 0 0
1493 53 6 0.0000000000000000e+00 -5.5215326160574274e-01 8.6601200254180615e+00 2.9802068708601435e+00 1 0 0
986 53 1 -1.1500000000000000e-01 -2.0610447641383534e-01 8.8667337160656423e+00 4.7626535716180574e-01 1 0 0
1005 54 4 -1.1500000000000000e-01 -4.5173627076046863e+00 7.1989003833437426e+00 8.8904591481122957e+00 1 0 0
994 53 2 1.1500000000000000e-01 1.1713308178607036e+00 1.0560887362047129e+01 5.3264624114284398e-01 1 0 0
594 33 2 1.1500000000000000e-01 2.2987223847792380e+00 7.3149606795707562e+00 6.1139182035618509e+00 1 0 0
1741 93 1 -1.1500000000000000e-01 -1.5761004526844158e+00 1.3483768170199552e+01 4.8572761366213832e+00 1 0 0
977 53 7 -1.1500000000000000e-01 -6.9422610421579822e-01 8.2096726324543301e+00 5.4915786825167574e+00 1 0 0
978 53 5 -1.1500000000000000e-01 -1.6146096978133739e-01 9.2879532098751891e+00 4.7183486121812175e+00 1 0 0
982 53 2 1.1500000000000000e-01 -5.9864025748432947e-01 8.2327699086063131e+00 6.5712345570681139e+00 1 0 0
983 53 2 1.1500000000000000e-01 2.9939070716276017e-01 1.0162408196353766e+01 5.1822653730852606e+00 1 0 0
1012 54 2 1.1500000000000000e-01 -2.2361147433791562e+00 9.4998598815479181e+00 7.7793943266538506e+00 1 0 0
1004 54 1 -1.1500000000000000e-01 -3.6760674618884526e+00 7.8882759060401240e+00 7.9801786120161431e+00 1 0 0
1363 74 2 1.1500000000000000e-01 1.1590369689052515e+00 9.6132538058486521e+00 7.8162051450801435e+00 1 0 0
1745 93 2 1.1500000000000000e-01 -2.1649371687113934e+00 1.2885968163709490e+01 5.5515615681716994e+00 1 0 0
1008 54 1 -1.1500000000000000e-01 -2.9833150947127658e+00 9.0214052107366509e+00 8.3768377470216411e+00 1 0 0
1338 73 5 -1.1500000000000000e-01 3.6830842527413252e+00 1.2256533939037167e+01 1.6470078423656158e+00 1 0 0
1339 73 3 0.0000000000000000e+00 3.4793047213970594e+00 1.1922254690033537e+01 3.0480185920839578e+00 1 0 0
1340 73 4 -1.1500000000000000e-01 2.8112366169587033e+00 1.2796421069788167e+01 3.9268839495170269e+00 1 0 0
1341 73 1 -1.1500000000000000e-01 4.8863862954496140e+00 1.0159651482422742e+01 1.2944003271706326e+00 1 0 0
1337 73 7 -1.1500000000000000e-01 4.4638485590415788e+00 1.1441669758876607e+01 8.6672198892888153e-01 1 0 0
1343 73 2 1.1500000000000000e-01 3.4029019978745074e+00 1.3144977995951361e+01 1.1947616103212455e+00 1 0 0
988 53 3 0.0000000000000000e+00 -8.1295245538543193e-01 8.0615318558250237e+00 2.7361288399272299e+00 1 0 0
1348 73 3 0.0000000000000000e+00 3.9354543327789346e+00 1.0637232064734274e+01 3.4483766054870584e+00 1 0 0
1349 73 4 -1.1500000000000000e-01 4.6456815215954306e+00 9.8168532668585708e+00 2.6050180448302167e+00 1 0 0
1353 73 2 1.1500000000000000e-01 4.9255203575648103e+00 8.8571202837752505e+00 2.9238860081881106e+00 1 0 0
1513 73 6 0.0000000000000000e+00 3.7009322391645800e+00 1.1289507706570699e+01 3.2461985169446286e+00 1 0 0
1356 74 5 -1.1500000000000000e-01 -6.5585454022079315e-01 1.2340982098727849e+01 8.8137645860672507e+00 1 0 0
1354 73 2 1.1500000000000000e-01 2.0759776305651712e+00 1.3081865114129249e+01 5.9515800871616449e+00 1 0 0
1346 73 1 -1.1500000000000000e-01 2.9514673145563610e+00 1.1095475986045976e+01 5.6741825360352083e+00 1 0 0
1347 73 4 -1.1500000000000000e-01 3.6430807458062993e+00 1.0241800482231424e+01 4.7668222263731215e+00 1 0 0
1350 73 1 -1.1500000000000000e-01 2.5810089054973440e+00 1.2411584780863715e+01 5.2764393291224083e+00 1 0 0
1351 73 2 1.1500000000000000e-01 2.8280714524153048e+00 1.0852807786077156e+01 6.6796478964128960e+00 1 0 0
1352 73 2 1.1500000000000000e-01 3.9304144982495877e+00 9.2927698916077404e+00 5.1423567445514697e+00 1 0 0
1345 73 2 1.1500000000000000e-01 5.3946929613642753e+00 9.5191747279630849e+00 5.7110884000206641e-01 1 0 0
1355 74 7 -1.1500000000000000e-01 1.6076136672849906e-02 1.1433640583171343e+01 7.9512630384716481e+00 1 0 0
1359 74 1 -1.1500000000000000e-01 5.9577382144388391e-01 1.0274367894451467e+01 8.4109352061546137e+00 1 0 0
1360 74 2 1.1500000000000000e-01 6.0440421055971250e-02 1.1675058635604476e+01 6.9226219831989741e+00 1 0 0
1747 93 4 -1.1500000000000000e-01 -6.1422748814115080e-01 1.3207717196551368e+01 1.2923616261241810e+00 1 0 0
1748 93 3 0.0000000000000000e+00 -7.0360508259491428e-01 1.3709544493749183e+01 2.6345054956230993e+00 1 0 0
601 34 2 1.1500000000000000e-01 -9.3442987111437681e-01 7.2575051404807853e+00 8.5100081934608216e+00 1 0 0
1064 57 2 1.1500000000000000e-01 7.1980933814338544e+00 6.3149393410200529e+00 1.0211169389753028e+00 1 0 0
1746 93 1 -1.1500000000000000e-01 1.3637298614698867e-01 1.3875493073092064e+01 3.2090728503894350e-01 1 0 0
584 33 2 1.1500000000000000e-01 2.2739520978395968e+00 7.6704607385347217e+00 3.6715735260582250e+00 1 0 0
1753 93 2 1.1500000000000000e-01 -1.9561108664731353e+00 1.2076519036425996e+01 3.3619905060243700e+00 1 0 0
1749 93 4 -1.1500000000000000e-01 -1.4804544575536602e+00 1.3040225099203226e+01 3.5734533701856859e+00 1 0 0
249 14 2 1.1500000000000000e-01 -4.1727610044198800e+00 2.0321584659647720e+00 7.1640531739325093e+00 1 0 0
1344 73 2 1.1500000000000000e-01 2.3753799378112537e+00 1.3718950339683090e+01 3.5206999512703301e+00 1 0 0
1009 54 2 1.1500000000000000e-01 -3.4386690556115416e+00 7.5590209550375622e+00 6.9222687988027758e+00 1 0 0
987 53 4 -1.1500000000000000e-01 -8.0350077251272745e-01 7.9588795557720937e+00 1.3411520555631371e+00 1 0 0
995 54 7 -1.1500000000000000e-01 -5.4024507341683865e+00 8.8666033115712803e+00 1.2655385798655809e+01 1 0 0
996 54 5 -1.1500000000000000e-01 -4.5336045831978069e+00 9.5456620543559758e+00 1.1753002405565397e+01 1 0 0
997 54 3 0.0000000000000000e+00 -4.1884741122353084e+00 8.9792450124858156e+00 1.0504510845841104e+01 1 0 0
1001 54 2 1.1500000000000000e-01 -4.2421837395735205e+00 1.0530222329657175e+01 1.2131291326410290e+01 1 0 0
1371 74 2 1.1500000000000000e-01 1.1766865933484425e+00 9.3196420077624946e+00 1.0158423938778823e+01 1 0 0
1357 74 3 0.0000000000000000e+00 -6.9301298486569429e-01 1.2160569905660504e+01 1.0208177237943348e+01 1 0 0
1767 94 4 -1.1500000000000000e-01 -6.0207031796741441e+00 1.3058605983614752e+01 1.0853624876886389e+01 1 0 0
998 54 4 -1.1500000000000000e-01 -3.2725167227637266e+00 9.6140046194602800e+00 9.6188486031015348e+00 1 0 0
1494 54 6 0.0000000000000000e+00 -4.5378245073852428e+00 8.4160835266178928e+00 1.0317345047695698e+01 1 0 0
1362 74 2 1.1500000000000000e-01 -1.6701848251435756e+00 1.3963166668205629e+01 1.0772801278872235e+01 1 0 0
1003 54 2 1.1500000000000000e-01 -6.7595266445906841e+00 7.2288231508624037e+00 1.2926005525872869e+01 1 0 0
999 54 1 -1.1500000000000000e-01 -6.0335863662421838e+00 7.7179716927196811e+00 1.2304218344578818e+01 1 0 0
1372 74 2 1.1500000000000000e-01 -1.7775933039537914e+00 1.3452052495897997e+01 1.3042071094869954e+01 1 0 0
1514 74 6 0.0000000000000000e+00 -2.8146781357957895e-01 1.1631133097153624e+01 1.0552643390904796e+01 1 0 0
602 34 2 1.1500000000000000e-01 -1.5309880584859998e+00 7.7256069751376790e+00 1.0914971595069922e+01 1 0 0
1358 74 4 -1.1500000000000000e-01 -1.2865801047592944e+00 1.3048568026550839e+01 1.1128586047677821e+01 1 0 0
1364 74 1 -1.1500000000000000e-01 -7.7575384690845617e-01 1.1464829192778446e+01 1.2914345932555557e+01 1 0 0
1365 74 4 -1.1500000000000000e-01 -1.0730883490298826e-01 1.0581705865823270e+01 1.2022750349518398e+01 1 0 0
1366 74 3 0.0000000000000000e+00 -8.2992947539881179e-02 1.0961435268277866e+01 1.0665662947153132e+01 1 0 0
1759 94 1 -1.1500000000000000e-01 -6.1052931244248505e+00 1.3283513447324246e+01 1.2271708798573908e+01 1 0 0
1368 74 1 -1.1500000000000000e-01 -1.3072832750073466e+00 1.2696995086451002e+01 1.2459186643989359e+01 1 0 0
1369 74 2 1.1500000000000000e-01 -9.6837847466646743e-01 1.1143972160988769e+01 1.3923916050926714e+01 1 0 0
1370 74 2 1.1500000000000000e-01 2.5798182514454382e-01 9.5983573098405550e+00 1.2306162988490609e+01 1 0 0
1378 75 2 1.1500000000000000e-01 -4.4796589643941127e+00 1.1361552114047164e+01 1.3803415262985002e+01 1 0 0
1000 54 2 1.1500000000000000e-01 -5.5146355109803373e+00 9.2845936209052304e+00 1.3588395797317125e+01 1 0 0
1766 94 3 0.0000000000000000e+00 -5.2730164066621628e+00 1.3990804364527422e+01 1.0059250178361820e+01 1 0 0
1006 54 3 0.0000000000000000e+00 -4.7673234809086109e+00 7.7506175588225581e+00 1.0176145586677482e+01 1 0 0
1763 94 2 1.1500000000000000e-01 -6.5650390835321888e+00 1.2651574720014432e+01 1.3022288879163202e+01 1 0 0
1367 74 4 -1.1500000000000000e-01 5.6149011921202430e-01 1.0082681751928401e+01 9.7609057166960049e+00 1 0 0
1002 54 2 1.1500000000000000e-01 -2.8287741225090013e+00 1.0524242477398504e+01 9.8939561223696515e+00 1 0 0
1755 94 7 -1.1500000000000000e-01 -5.3053806418014400e+00 1.4286557435329128e+01 1.2822433707462507e+01 1 0 0
1007 54 4 -1.1500000000000000e-01 -5.7032384157681877e+00 7.1484495327819788e+00 1.1040208555148755e+01 1 0 0
1737 93 7 -1.1500000000000000e-01 -9.5975867742412957e-01 1.4674686798293163e+01 5.2148014699362353e+00 1 0 0
1740 93 4 -1.1500000000000000e-01 6.8175820788119124e-01 1.5616053536853720e+01 1.9997010745222070e+00 1 0 0
1744 93 2 1.1500000000000000e-01 1.2897380251513662e+00 1.6464419722490220e+01 2.2228126531918306e+00 1 0 0
1768 94 1 -1.1500000000000000e-01 -3.7377959595631882e+00 1.5739489671080987e+01 8.4408276723962583e+00 1 0 0
1750 93 1 -1.1500000000000000e-01 7.6193055465282111e-01 1.5104332522901164e+01 6.6261654278928961e-01 1 0 0
2112 113 2 1.1500000000000000e-01 3.8629387731316807e+00 1.5617984982168391e+01 5.6390695677516964e+00 1 0 0
2119 114 1 -1.1500000000000000e-01 6.2831529654449092e-01 1.5751431496451941e+01 8.1263761278943214e+00 1 0 0
2131 114 2 1.1500000000000000e-01 1.0063722256288079e+00 1.4571764376415667e+01 9.9590918897815381e+00 1 0 0
1743 93 2 1.1500000000000000e-01 2.2501991718829117e-01 1.6369627081594896e+01 4.5856140332274586e+00 1 0 0
2127 114 4 -1.1500000000000000e-01 6.2549057526087370e-01 1.5485927955675599e+01 9.5437096810491848e+00 1 0 0
1772 94 2 1.1500000000000000e-01 -3.2057045176128489e+00 1.6501406059187079e+01 7.9014537283529904e+00 1 0 0
1739 93 3 0.0000000000000000e+00 -2.2441418059533813e-02 1.4902510191007581e+01 2.9924745358224341e+00 1 0 0
1754 93 2 1.1500000000000000e-01 1.2446820705937511e+00 1.5664404099062745e+01 -6.7224511207104820e-02 1 0 0
2097 113 7 -1.1500000000000000e-01 4.4136368060566404e+00 1.7350939079353633e+01 1.1463449144333009e+00 1 0 0
1342 73 2 1.1500000000000000e-01 4.6473873878478882e+00 1.1724119670091667e+01 -1.6991082627234783e-01 1 0 0
2101 113 1 -1.1500000000000000e-01 4.8841684418392131e+00 1.6160600831201496e+01 1.6824825721685803e+00 1 0 0
2113 113 2 1.1500000000000000e-01 4.9769883217292019e+00 1.4948613731663499e+01 3.4750177670513489e+00 1 0 0
1738 93 5 -1.1500000000000000e-01 -1.3714756768154501e-01 1.5372500010879934e+01 4.3231692831049653e+00 1 0 0
2108 113 3 0.0000000000000000e+00 3.8615843248128705e+00 1.6829712638872515e+01 3.8140205944645880e+00 1 0 0
2109 113 4 -1.1500000000000000e-01 4.5464453422119062e+00 1.5858269899396490e+01 3.0536866579595321e+00 1 0 0
2273 113 6 0.0000000000000000e+00 3.6409276587406034e+00 1.7336876636650462e+01 3.3955040578431617e+00 1 0 0
2106 113 1 -1.1500000000000000e-01 2.9348580002815674e+00 1.7441192216800758e+01 5.9395578592925471e+00 1 0 0
2107 113 4 -1.1500000000000000e-01 3.5917480733301268e+00 1.6498226586562449e+01 5.1453607729051960e+00 1 0 0
2111 113 2 1.1500000000000000e-01 2.6990796556045424e+00 1.7219991505444302e+01 6.9521166353159005e+00 1 0 0
2115 114 7 -1.1500000000000000e-01 3.9393911915242441e-02 1.7016789862303813e+01 7.7181010748918233e+00 1 0 0
2102 113 2 1.1500000000000000e-01 4.6106263922385136e+00 1.7547653864757692e+01 1.0664675394502043e-01 1 0 0
2120 114 2 1.1500000000000000e-01 7.0176870884221643e-02 1.7398092642935826e+01 6.7228704283815794e+00 1 0 0
2123 114 2 1.1500000000000000e-01 1.0123897180865775e+00 1.5038072651297355e+01 7.4017621584289968e+00 1 0 0
1760 94 2 1.1500000000000000e-01 -5.2703156004839453e+00 1.4291131224311211e+01 1.3898252324101881e+01 1 0 0
2105 113 2 1.1500000000000000e-01 5.5146517719352142e+00 1.5492740445480376e+01 1.1278033831176788e+00 1 0 0
1742 93 2 1.1500000000000000e-01 -1.0319104041803535e+00 1.5109918585884092e+01 6.2398663280496045e+00 1 0 0
1764 94 1 -1.1500000000000000e-01 -4.4425185895502821e+00 1.4654163203006783e+01 7.8610980921886302e+00 1 0 0
2117 114 3 0.0000000000000000e+00 -4.7733538970794598e-01 1.7605558939848919e+01 1.0000991436545350e+01 1 0 0
1761 94 2 1.1500000000000000e-01 -4.1723187364268721e+00 1.5935731342659095e+01 1.2583551269002356e+01 1 0 0
2274 114 6 0.0000000000000000e+00 -2.7599124487238491e-01 1.7032123261888483e+01 1.0283330761243791e+01 1 0 0
2254 94 6 0.0000000000000000e+00 -5.0592444782838113e+00 1.4613506960602669e+01 1.0292724260239321e+01 1 0 0
2130 114 2 1.1500000000000000e-01 6.7678287922732316e-01 1.5402444841229805e+01 1.2170572918166332e+01 1 0 0
2124 114 1 -1.1500000000000000e-01 -5.0532329016802890e-01 1.7133422548845353e+01 1.2702140208267449e+01 1 0 0
2125 114 4 -1.1500000000000000e-01 1.7176567598271664e-01 1.6263597216969782e+01 1.1802871466954521e+01 1 0 0
2126 114 3 0.0000000000000000e+00 1.6243804796803918e-01 1.6445767444337285e+01 1.0424581236404801e+01 1 0 0
2129 114 2 1.1500000000000000e-01 -5.9284814031792443e-01 1.6848099260491068e+01 1.3734399117064433e+01 1 0 0
1757 94 3 0.0000000000000000e+00 -4.6043232417232014e+00 1.5079416206322538e+01 1.0600709982049281e+01 1 0 0
1010 54 2 1.1500000000000000e-01 -5.0010264847088983e+00 6.2748143238024268e+00 8.6154347178210156e+00 1 0 0
1762 94 2 1.1500000000000000e-01 -3.3374607331117736e+00 1.6865824116816693e+01 1.0211025157507914e+01 1 0 0
2138 115 2 1.1500000000000000e-01 -3.8642270348714574e+00 1.7240622206448826e+01 1.4303893744341419e+01 1 0 0
251 14 2 1.1500000000000000e-01 -6.2378804893673596e+00 8.7845371847513398e-02 1.0800658637406787e+01 1 0 0
1027 55 2 1.1500000000000000e-01 -8.2682947820313508e+00 8.1834720922251183e+00 1.4225681613601987e+01 1 0 0
2116 114 5 -1.1500000000000000e-01 -5.2850978535562643e-01 1.7929595493344372e+01 8.6420250570104944e+00 1 0 0
1769 94 2 1.1500000000000000e-01 -4.2288988952577542e+00 1.4382449668993843e+01 6.8810553506583396e+00 1 0 0
267 15 2 1.1500000000000000e-01 -8.3140778588228130e+00 1.6634842953466453e+00 1.4563436516050519e+01 1 0 0
4416 235 4 -1.1500000000000000e-01 -5.8482969776718559e+00 8.7880130256541522e-01 1.9054965805472893e+01 1 1 0
4420 235 2 1.1500000000000000e-01 -6.1965581057064467e+00 1.9005464168523509e+00 1.8744035159377400e+01 1 1 0
255 15 3 0.0000000000000000e+00 -8.7713383712257826e+00 3.1208695471825725e+00 1.8185795620219746e+01 1 0 0
256 15 4 -1.1500000000000000e-01 -8.0458320416017379e+00 3.8603881189838116e+00 1.7201601389669289e+01 1 0 0
260 15 2 1.1500000000000000e-01 -7.5739780998489721e+00 4.7792667121293384e+00 1.7419496013263487e+01 1 0 0
286 16 2 1.1500000000000000e-01 -1.3584785288770403e+01 4.6041972561595712e-01 2.3607354894530328e+01 1 0 0
4414 235 5 -1.1500000000000000e-01 -4.8683775129650755e+00 3.3189052695039634e-01 1.6853105455661829e+01 1 1 0
264 15 3 0.0000000000000000e+00 -9.3482577027570244e+00 1.8836576219466283e+00 1.7787173057712014e+01 1 0 0
262 15 1 -1.1500000000000000e-01 -8.5326930625411777e+00 2.1555447662296108e+00 1.5531551022480070e+01 1 0 0
266 15 1 -1.1500000000000000e-01 -7.8877596183180039e+00 3.3427652136675898e+00 1.5874690166127419e+01 1 0 0
263 15 4 -1.1500000000000000e-01 -9.1706916969106160e+00 1.4014841085052556e+00 1.6513581933665364e+01 1 0 0
735 15 6 0.0000000000000000e+00 -8.9371414047182647e+00 2.4188016749326988e+00 1.8066354467180677e+01 1 0 0
265 15 4 -1.1500000000000000e-01 -1.0045447652948130e+01 1.1140625267103064e+00 1.8736582802412894e+01 1 0 0
2256 96 6 0.0000000000000000e+00 -1.3145593103981925e+01 1.4320518691238769e+01 2.5035025958140178e+01 1 0 0
613 35 7 -1.1500000000000000e-01 -4.6807182878348357e+00 5.6245455985301946e+00 1.6113110870547061e+01 1 0 0
618 35 2 1.1500000000000000e-01 -4.8469250474297390e+00 6.0287027973721896e+00 1.5149894378771162e+01 1 0 0
615 35 3 0.0000000000000000e+00 -5.2764859023149242e+00 5.7718432819882199e+00 1.8421530415450583e+01 1 0 0
617 35 1 -1.1500000000000000e-01 -4.0288594972621219e+00 4.4456980492096285e+00 1.6396943094829432e+01 1 0 0
621 35 2 1.1500000000000000e-01 -3.6027695660059429e+00 3.9952588034356649e+00 1.5553992645151194e+01 1 0 0
624 35 3 0.0000000000000000e+00 -4.7249371060976610e+00 4.4872555526455828e+00 1.8695259757503941e+01 1 0 0
625 35 4 -1.1500000000000000e-01 -4.0438236547840605e+00 3.8050180669165785e+00 1.7627387626708288e+01 1 0 0
629 35 2 1.1500000000000000e-01 -3.6262100967936357e+00 2.8283014131677016e+00 1.7802508721978839e+01 1 0 0
755 35 6 0.0000000000000000e+00 -4.9667803449233645e+00 5.1110853009106973e+00 1.8451204191665294e+01 1 0 0
270 15 2 1.1500000000000000e-01 -7.3073786653999733e+00 3.9475049608399035e+00 1.5132546564692079e+01 1 0 0
614 35 5 -1.1500000000000000e-01 -5.2009955361326030e+00 6.3153091373388781e+00 1.7129815797320305e+01 1 0 0
4419 235 2 1.1500000000000000e-01 -5.0822602852628549e+00 1.3429504222213027e+00 1.6486414533754147e+01 1 1 0
1025 55 4 -1.1500000000000000e-01 -9.7925148512250608e+00 6.7461792762541792e+00 1.8348508223144570e+01 1 0 0
616 35 4 -1.1500000000000000e-01 -5.9559974522770096e+00 6.5122761995583849e+00 1.9406155526180655e+01 1 0 0
231 13 2 1.1500000000000000e-01 -1.6530100312506313e+01 2.3643976234457411e+00 2.9395758210480004e+01 1 0 -1
1381 75 2 1.1500000000000000e-01 -3.1505887821837915e+00 9.5383970284052957e+00 1.4730066512551245e+01 1 0 0
254 15 5 -1.1500000000000000e-01 -8.9389558838877257e+00 3.5653444140004455e+00 1.9529440834126397e+01 1 0 0
280 16 1 -1.1500000000000000e-01 -1.2715423798508400e+01 2.3198814943931052e+00 2.3120453070122824e+01 1 0 0
2151 116 7 -1.1500000000000000e-01 -8.7705536519798315e+00 1.7662099921025639e+01 2.3478202923585545e+01 1 0 0
258 15 2 1.1500000000000000e-01 -9.5436904255251243e+00 3.0416990932472463e+00 2.1561081121599752e+01 1 0 0
634 36 4 -1.1500000000000000e-01 -1.0198898255798721e+01 6.4179929918107161e+00 2.6174051993203221e+01 1 0 0
4433 236 3 0.0000000000000000e+00 -9.5481238921366156e+00 7.2135808846644917e-02 2.5605559426361186e+01 1 1 0
257 15 1 -1.1500000000000000e-01 -1.0062324285351401e+01 1.5122502754080247e+00 2.0070623713123613e+01 1 0 0
284 16 1 -1.1500000000000000e-01 -1.2159438090041490e+01 3.5487257184041061e+00 2.3591702648178462e+01 1 0 0
279 16 2 1.1500000000000000e-01 -1.5025357989342995e+01 8.8155246054604719e-01 2.8393877005801780e+01 1 0 0
1047 56 2 1.1500000000000000e-01 -1.4888469635749184e+01 6.2393983557479213e+00 2.5959890926325023e+01 1 0 0
288 16 2 1.1500000000000000e-01 -1.1754295450846071e+01 4.2755228414574109e+00 2.2893165332289144e+01 1 0 0