LAMMPS (15 May 2015)
Reading data file ...
  triclinic box = (-0.107635 -0.0404339 -0.357111) to (41.3876 35.9384 29.5551) with tilt (-0.0672341 -17.0362 -0.0417078)
  5 by 2 by 2 MPI processor grid
  reading atoms ...
  4560 atoms
  reading velocities ...
  4560 velocities
  scanning bonds ...
  3 = max bonds/atom
  scanning angles ...
  3 = max angles/atom
  scanning dihedrals ...
  8 = max dihedrals/atom
  scanning impropers ...
  1 = max impropers/atom
  reading bonds ...
  5040 bonds
  reading angles ...
  7200 angles
  reading dihedrals ...
  10560 dihedrals
  reading impropers ...
  2400 impropers
Finding 1-2 1-3 1-4 neighbors ...
 Special bond factors lj:   0          0          0         
 Special bond factors coul: 0          0          0         
  4 = max # of 1-2 neighbors
  8 = max # of 1-3 neighbors
  20 = max # of 1-4 neighbors
  16 = max # of special neighbors
4560 atoms in group all
720 atoms in group C
480 atoms in group S
1920 atoms in group H
720 atoms in group Si
240 atoms in group Na
240 atoms in group Ba
240 atoms in group O
4560 atoms in group naphthalene
1200 atoms in group fixed
960 atoms in group CO
Setting atom values ...
  720 settings made for charge
Setting atom values ...
  720 settings made for charge
Setting atom values ...
  1920 settings made for charge
Setting atom values ...
  480 settings made for charge
Setting atom values ...
  240 settings made for charge
Setting atom values ...
  240 settings made for charge
Setting atom values ...
  240 settings made for charge
Finding 1-2 1-3 1-4 neighbors ...
 Special bond factors lj:   0          0          0.5       
 Special bond factors coul: 0          0          0.5       
  4 = max # of 1-2 neighbors
  8 = max # of 1-3 neighbors
  20 = max # of 1-4 neighbors
  16 = max # of special neighbors
PPPM initialization ...
  G vector (1/distance) = 0.253736
  grid = 20 18 24
  stencil order = 5
  estimated absolute RMS force accuracy = 0.00131269
  estimated relative force accuracy = 3.95312e-06
  using double precision FFTs
  3d grid and FFT values/proc = 3344 720
Neighbor list info ...
  6 neighbor list requests
  update every 1 steps, delay 0 steps, check yes
  master list distance cutoff = 12
Setting up run ...
Memory usage per processor = 14.3555 Mbytes
Step Temp Density PotEng E_vdwl E_tail E_coul E_long Press Volume Xy Xz Yz E_mol E_bond E_angle E_dihed 14[1] 14[2] 14[3] msd[4] msd2[4] msd3[4] msd4[4] naphthal Cella Cellb Cellc CellAlpha CellBeta CellGamma 27[1] 27[2] 27[3] 
       0          298    1.2509986    3171.8689   -89.097668   -16.048584    2133.4636   -2371.3301   -14725.455    44657.537 -0.067234084   -17.036218 -0.041707817     3498.833    1521.0094     935.4334    889.67826    28.379601    18.846571    14.337846 2.3535127e-29 2.7422013e-29 2.2534249e-29 2.2900766e-29          298     41.49527    35.978931    34.423473    90.016431    119.66323    90.107069    28.379761    18.846182    14.337739 
   10000    301.58798    1.2509986    3293.3975   -71.441499   -16.048584    2136.4575   -2371.6483    -7640.217    44657.537 -0.067234084   -17.036218 -0.041707817    3600.0298     1519.156    986.12809    931.48371    28.379995    18.846019    14.337873 0.00032566902 0.00032561704 0.0003421745 0.00034207751    301.58798     41.49527    35.978931    34.423473    90.016431    119.66323    90.107069    28.379901    18.846034    14.337842 
   20000    304.10448    1.2509986    3297.2669   -73.369119   -16.048584    2139.0544   -2371.7758   -8713.5957    44657.537 -0.067234084   -17.036218 -0.041707817    3603.3575    1519.9861    985.04357    931.12439    28.378669    18.846241    14.337055 0.00033339662 0.00033326038 0.00033786491 0.00033758118    304.10448     41.49527    35.978931    34.423473    90.016431    119.66323    90.107069    28.379811    18.846042    14.338077 
   30000    299.36883    1.2509986    3249.7109   -72.518798   -16.048584    2137.0869   -2371.3845    -7500.761    44657.537 -0.067234084   -17.036218 -0.041707817    3556.5273    1531.2465    952.92724     911.1815    28.377949    18.844359    14.336919 0.00032540793 0.00032531791 0.00032390986 0.00032376016    299.36883     41.49527    35.978931    34.423473    90.016431    119.66323    90.107069    28.379802    18.846189    14.337442 
   40000     299.6054    1.2509986    3270.0628   -71.933384   -16.048584    2133.1233   -2371.7076   -7923.5117    44657.537 -0.067234084   -17.036218 -0.041707817    3580.5804    1513.4528    1001.8151    909.67281    28.378951    18.845968    14.337273 0.00033446265 0.00033426167 0.00034631961 0.00034599681     299.6054     41.49527    35.978931    34.423473    90.016431    119.66323    90.107069    28.379406    18.846429    14.337622 
   50000    291.38273    1.2509986    3262.2549   -71.790227   -16.048584    2134.2352   -2371.9213   -6633.7152    44657.537 -0.067234084   -17.036218 -0.041707817    3571.7312    1522.4993    980.47688     910.5419    28.381075    18.844915    14.337024 0.00034343195 0.0003433001 0.00035232006 0.00035219962    291.38273     41.49527    35.978931    34.423473    90.016431    119.66323    90.107069    28.379653    18.846191    14.337393 
   60000    298.43481    1.2509986    3170.4404   -73.044325   -16.048584    2133.1233   -2371.6432   -8878.2495    44657.537 -0.067234084   -17.036218 -0.041707817    3482.0047    1458.1988    958.04959     908.1805    28.379098    18.844901    14.337158 0.00034857268 0.00034841511 0.00035592194 0.00035578846    298.43481     41.49527    35.978931    34.423473    90.016431    119.66323    90.107069    28.379607    18.845829    14.337835 
   70000    301.68234    1.2509986     3234.371   -71.883975   -16.048584    2134.5831   -2371.7242   -7033.3157    44657.537 -0.067234084   -17.036218 -0.041707817     3543.396    1521.1973    978.11356    889.48989    28.380829    18.847582    14.338471 0.00034731572 0.00034614452 0.00035327881 0.0003517282    301.68234     41.49527    35.978931    34.423473    90.016431    119.66323    90.107069    28.380291    18.847113    14.337895 
   80000    301.42328    1.2509986    3145.3945   -71.034497   -16.048584    2135.2937   -2371.8157   -7843.1586    44657.537 -0.067234084   -17.036218 -0.041707817     3452.951    1440.3848    986.33019    879.13073    28.381211    18.844769    14.337639 0.00034020587 0.00033993424 0.00034602418 0.00034558133    301.42328     41.49527    35.978931    34.423473    90.016431    119.66323    90.107069    28.380121    18.846269    14.337373 
   90000    301.45312    1.2509986    3150.2421   -72.630011   -16.048584    2135.7261   -2371.7194   -8763.1967    44657.537 -0.067234084   -17.036218 -0.041707817    3458.8654    1467.4358    961.40432    877.65342    28.377022    18.846411    14.336177 0.00034385089 0.00034369085 0.00034529576 0.00034511128    301.45312     41.49527    35.978931    34.423473    90.016431    119.66323    90.107069    28.379858    18.845814    14.337617 
  100000    301.57651    1.2509986    3225.1175    -74.35774   -16.048584    2136.4514   -2371.7742   -8235.2673    44657.537 -0.067234084   -17.036218 -0.041707817    3534.7981    1523.1713    966.21468     889.5794    28.380746    18.845133     14.33738 0.00034487068 0.00034478676 0.0003470204 0.00034680113    301.57651     41.49527    35.978931    34.423473    90.016431    119.66323    90.107069    28.379837    18.845916    14.337653 
  110000    297.79498    1.2509986    3245.3812   -75.686267   -16.048584    2137.7168    -2371.442   -9681.5512    44657.537 -0.067234084   -17.036218 -0.041707817    3554.7927    1524.2857    980.08766    896.41154    28.377967    18.846219    14.337558 0.00035524938 0.00035509782 0.00035634785 0.00035599265    297.79498     41.49527    35.978931    34.423473    90.016431    119.66323    90.107069    28.379728    18.846238    14.338123 
  120000    296.14459    1.2509986    3153.6083   -72.846734   -16.048584    2137.6398   -2371.4153   -6105.6971    44657.537 -0.067234084   -17.036218 -0.041707817    3460.2306     1463.161    965.65576      879.354    28.380377    18.845682    14.338195 0.00035993518 0.00035984404 0.00036432754 0.00036427764    296.14459     41.49527    35.978931    34.423473    90.016431    119.66323    90.107069    28.379544    18.845972    14.337732 
  130000    300.10143    1.2509986    3209.5467   -73.906875   -16.048584    2136.4578   -2371.9545    -7742.656    44657.537 -0.067234084   -17.036218 -0.041707817    3518.9503    1489.7411      983.396    891.35467    28.378591    18.844708    14.336722 0.00033989082 0.00033928224 0.00034226065 0.00034101214    300.10143     41.49527    35.978931    34.423473    90.016431    119.66323    90.107069     28.38001    18.845489    14.337481 
  140000    291.82686    1.2509986    3188.8754   -71.846271   -16.048584    2133.1429    -2371.846   -7817.5771    44657.537 -0.067234084   -17.036218 -0.041707817    3499.4248    1478.7592    966.89972    902.64881    28.380534    18.845102    14.337882 0.00036019666 0.00035990335 0.00036971364 0.0003694357    291.82686     41.49527    35.978931    34.423473    90.016431    119.66323    90.107069    28.379622    18.845689    14.337563 
  150000    298.88474    1.2509986    3186.2393   -72.111488   -16.048584    2142.0367   -2371.2652   -7335.4849    44657.537 -0.067234084   -17.036218 -0.041707817    3487.5793    1485.9111    993.72473    853.80444    28.379165    18.844792    14.337772 0.00035380624 0.00035362146 0.00036184631 0.00036166287    298.88474     41.49527    35.978931    34.423473    90.016431    119.66323    90.107069    28.379701    18.845991     14.33812 
  160000    300.23951    1.2509986    3251.8203   -75.816312   -16.048584    2139.0132   -2371.3073   -7903.0628    44657.537 -0.067234084   -17.036218 -0.041707817    3559.9307    1531.2354    970.42719    901.25746    28.381533    18.845841    14.337927 0.00035860912 0.00035805647 0.0003589433 0.0003581711    300.23951     41.49527    35.978931    34.423473    90.016431    119.66323    90.107069    28.380068    18.846572    14.337186 
  170000    294.13193    1.2509986     3187.149   -72.595266   -16.048584    2135.3699   -2371.9373   -8004.4198    44657.537 -0.067234084   -17.036218 -0.041707817    3496.3116    1515.5515    935.44971    892.89097    28.379245    18.844652    14.337872 0.00034257928 0.00034193719 0.00034523387 0.0003448037    294.13193     41.49527    35.978931    34.423473    90.016431    119.66323    90.107069    28.379429    18.845827    14.338376 
  180000    298.41847    1.2509986    3198.9434   -72.154068   -16.048584     2137.519    -2371.798   -6782.7516    44657.537 -0.067234084   -17.036218 -0.041707817    3505.3765    1478.3999     978.5245    889.05515    28.379821    18.845642      14.3369 0.00035777872 0.00035742318 0.00036293126 0.00036255627    298.41847     41.49527    35.978931    34.423473    90.016431    119.66323    90.107069    28.379887    18.846153    14.337157 
  190000    301.15975    1.2509986    3187.6639    -74.82071   -16.048584    2132.2216   -2372.1163   -10094.688    44657.537 -0.067234084   -17.036218 -0.041707817    3502.3793    1509.8281    986.02963    856.86386    28.380015    18.845045    14.336527 0.00036515942 0.00036480756 0.00037093527  0.000370527    301.15975     41.49527    35.978931    34.423473    90.016431    119.66323    90.107069    28.379213    18.846368    14.337608 
  200000    299.03956    1.2509986    3193.3015   -73.784061   -16.048584    2134.8213   -2371.4134   -8264.4246    44657.537 -0.067234084   -17.036218 -0.041707817    3503.6776    1495.8606    960.93821    890.06043    28.380956    18.844566    14.336871 0.00034267435 0.00034200081 0.00034860889 0.00034739401    299.03956     41.49527    35.978931    34.423473    90.016431    119.66323    90.107069    28.380105    18.846865     14.33744 
Loop time of 513.957 on 20 procs for 200000 steps with 4560 atoms

Pair  time (%) = 324.29 (63.0966)
Bond  time (%) = 34.3743 (6.68816)
Kspce time (%) = 110.553 (21.5102)
Neigh time (%) = 6.05487 (1.17809)
Comm  time (%) = 23.6301 (4.59767)
Outpt time (%) = 0.0616486 (0.0119949)
Other time (%) = 14.9936 (2.91728)

Nlocal:    228 ave 238 max 222 min
Histogram: 2 6 1 1 2 5 1 1 0 1
Nghost:    5785.6 ave 5839 max 5752 min
Histogram: 2 2 3 6 3 0 1 1 0 2
Neighs:    84313.4 ave 88407 max 81357 min
Histogram: 1 3 4 3 0 2 6 0 0 1

Total # of neighbors = 1686268
Ave neighs/atom = 369.796
Ave special neighs/atom = 10.6316
Neighbor list builds = 1274
Dangerous builds = 0
System init for write_data ...
PPPM initialization ...
  G vector (1/distance) = 0.253736
  grid = 20 18 24
  stencil order = 5
  estimated absolute RMS force accuracy = 0.00131269
  estimated relative force accuracy = 3.95312e-06
  using double precision FFTs
  3d grid and FFT values/proc = 3344 720
