LAMMPS data file via write_data, version 15 May 2015, timestep = 2000000

4560 atoms
7 atom types
5040 bonds
3 bond types
7200 angles
2 angle types
10560 dihedrals
3 dihedral types
2400 impropers
1 improper types

-1.0763502675555259e-01 4.1387635026745990e+01 xlo xhi
-4.0433884491974936e-02 3.5938433884472119e+01 ylo yhi
-3.5711112484589691e-01 2.9555111124838550e+01 zlo zhi
-6.7234083837551181e-02 -1.7036217651000683e+01 -4.1707816797290791e-02 xy xz yz

Masses

1 12.0107
2 1.008
3 12.0107
4 12.0107
5 12.0107
6 12.0107
7 12.0107

Pair Coeffs # lj/cut/coul/cut

1 0 0
2 0 0
3 0 0
4 0 0
5 0 0
6 0 0
7 0 0

Bond Coeffs # harmonic

1 469 1.4
2 367 1.08
3 469 0.7

Angle Coeffs # harmonic

1 35 120
2 63 120

Dihedral Coeffs # opls

1 0 7.25 0 0
2 0 7.25 0 0
3 0 7.25 0 0

Improper Coeffs # cvff

1 2.5 -1 2

Atoms # full

219 13 3 0.0000000000000000e+00 -8.8807451552131100e-01 2.9004131020298458e+00 3.1592200232074479e+00 1 0 0
1740 93 4 0.0000000000000000e+00 -2.7652665474961613e-01 1.6125179946608572e+01 2.4295716116429902e+00 1 0 0
1738 93 5 0.0000000000000000e+00 -8.0775858892808605e-01 1.5068375694599467e+01 4.6266027343843410e+00 1 0 0
580 33 4 0.0000000000000000e+00 2.6472882620497082e+00 6.9143869453267772e+00 3.4705753458971289e+00 1 0 0
228 13 3 0.0000000000000000e+00 -1.0666614096201243e-01 1.8879914929863606e+00 2.6047936719066440e+00 1 0 0
593 33 2 0.0000000000000000e+00 5.3302725322556288e+00 3.3885501683148158e+00 3.9634710727846931e+00 1 0 0
1753 93 2 0.0000000000000000e+00 -1.2039709045943976e+00 1.1651743563771960e+01 2.6645390949884904e+00 1 0 0
240 14 2 0.0000000000000000e+00 -4.4139772362762653e+00 1.8004899369565317e+00 1.3913651776565889e+01 1 0 0
2117 114 3 0.0000000000000000e+00 -9.8064019049749707e-01 1.6910722570978397e+01 1.0075802184004077e+01 1 0 0
221 13 1 0.0000000000000000e+00 -1.2730750174612775e+00 1.5466242203727923e-01 3.8480474811630083e+00 1 0 0
733 13 6 0.0000000000000000e+00 -4.4155499292443379e-01 2.4434284923369813e+00 2.9145954548567725e+00 1 0 0
1859 99 2 0.0000000000000000e+00 -6.5429301877999357e-01 1.4602173808729781e+01 1.4456579718349731e+01 1 0 0
982 53 2 0.0000000000000000e+00 1.6254472784143270e+00 8.1494867092048136e+00 5.6116807447938681e+00 1 0 0
1767 94 4 0.0000000000000000e+00 -5.9474487974313730e+00 1.3124271166106185e+01 1.0646152057248406e+01 1 0 0
582 33 2 0.0000000000000000e+00 3.3749287030159456e+00 3.8845215938214053e+00 1.7842696374751166e-01 1 0 0
2097 113 7 0.0000000000000000e+00 3.9376269214404962e+00 1.6405664708920103e+01 1.1673898966739915e+00 1 0 0
1004 54 1 0.0000000000000000e+00 -3.2711284234868154e+00 8.2663772992667628e+00 8.1670755428319062e+00 1 0 0
586 33 1 0.0000000000000000e+00 3.9257783028204623e+00 6.6905798784246704e+00 5.5507782571026185e+00 1 0 0
2123 114 2 0.0000000000000000e+00 8.3458551888836219e-01 1.3900829251331796e+01 8.4977294155182186e+00 1 0 0
600 34 2 0.0000000000000000e+00 2.1917610456734682e-01 6.1739587277288086e+00 7.0639171049790956e+00 1 0 0
234 13 2 0.0000000000000000e+00 3.1636165817762563e-01 5.5986303948444007e+00 1.4903220283364351e+00 1 0 0
4377 233 7 0.0000000000000000e+00 5.5553792569366909e+00 1.1892942392750192e+00 2.7768323503485832e+00 1 1 0
222 13 2 0.0000000000000000e+00 -3.0276028366382390e+00 1.0351779900133824e+00 4.9207253187977464e+00 1 0 0
1741 93 1 0.0000000000000000e+00 -1.1933759998856925e+00 1.2653739381976708e+01 4.6701577540483621e+00 1 0 0
579 33 3 0.0000000000000000e+00 3.2442005824890847e+00 5.7591675543964325e+00 2.9834257675574336e+00 1 0 0
2119 114 1 0.0000000000000000e+00 3.2624617773401532e-01 1.4792528069769668e+01 8.9057446212747138e+00 1 0 0
984 53 2 0.0000000000000000e+00 -7.7549291907502460e-01 1.1411544122797851e+01 3.3047086828927528e+00 1 0 0
596 34 5 0.0000000000000000e+00 -3.6635169133832246e-01 6.5478773735318301e+00 9.1475504351674797e+00 1 0 0
978 53 5 0.0000000000000000e+00 1.6577370623751309e-01 9.3163063308369747e+00 4.4739403392270596e+00 1 0 0
588 33 3 0.0000000000000000e+00 4.1081320646603903e+00 5.0407076754832660e+00 3.7815500241404454e+00 1 0 0
589 33 4 0.0000000000000000e+00 4.6626264720213548e+00 3.8784859540536858e+00 3.2681728241018346e+00 1 0 0
595 34 7 0.0000000000000000e+00 3.9558423432346501e-02 5.7749306693560438e+00 8.0288713805619079e+00 1 0 0
753 33 6 0.0000000000000000e+00 3.6280742596041691e+00 5.2030091930988727e+00 3.2972201267457439e+00 1 0 0
590 33 1 0.0000000000000000e+00 2.9495787909039155e+00 7.3510515216703638e+00 4.7591159693997982e+00 1 0 0
241 14 2 0.0000000000000000e+00 -3.0899694000517197e+00 3.2266468289257695e+00 1.2398215237712138e+01 1 0 0
578 33 5 0.0000000000000000e+00 2.8986667753184232e+00 5.3733459873520752e+00 1.6564730243518335e+00 1 0 0
2531 134 2 0.0000000000000000e+00 -4.8775301325471858e+00 1.7834679879605851e+01 9.6294768942791489e+00 1 0 0
993 53 2 0.0000000000000000e+00 -6.1275878762884450e-01 5.9400389692203666e+00 2.7133124305476901e+00 1 0 0
980 53 4 0.0000000000000000e+00 -1.0083447211674836e+00 1.0504699750594783e+01 2.7720184756480797e+00 1 0 0
587 33 4 0.0000000000000000e+00 4.5000561207749694e+00 5.4796136495910623e+00 5.0859732191168385e+00 1 0 0
235 14 7 0.0000000000000000e+00 -4.6669576477565968e+00 1.8390204651602751e+00 1.2855053028242004e+01 1 0 0
321 18 2 0.0000000000000000e+00 2.0326617179862296e+00 2.3382730672106748e+00 7.5842923421848010e+00 1 0 0
1279 69 2 0.0000000000000000e+00 -2.4657634827363357e+00 9.0573577344870966e+00 4.7925186651455789e+00 1 0 0
242 14 2 0.0000000000000000e+00 -2.6300853902029671e+00 4.2771586453276420e+00 1.0503401666970039e+01 1 0 0
608 34 1 0.0000000000000000e+00 -1.2713779287155740e+00 6.1583975801374757e+00 1.2740256401520547e+01 1 0 0
601 34 2 0.0000000000000000e+00 -4.3055248890634790e-01 7.6334068244832922e+00 9.1106082658019840e+00 1 0 0
1367 74 4 0.0000000000000000e+00 1.5516063709681891e+00 1.1122425163499205e+01 1.0188571172074125e+01 1 0 0
1770 94 2 0.0000000000000000e+00 -4.5456105504797293e+00 1.2584610233051070e+01 8.5360875495317448e+00 1 0 0
2099 113 3 0.0000000000000000e+00 3.1174666038551866e+00 1.7743596049755830e+01 3.0815473619815350e+00 1 0 0
1749 93 4 0.0000000000000000e+00 -1.0014277357847505e+00 1.2528225279872508e+01 3.2448161346399202e+00 1 0 0
1754 93 2 0.0000000000000000e+00 -4.3874148854524397e-02 1.6837631559235106e+01 4.1716491453826765e-01 1 0 0
1378 75 2 0.0000000000000000e+00 -4.9781958527823296e+00 1.0925837616002889e+01 1.3899908405903545e+01 1 0 0
4382 233 2 0.0000000000000000e+00 6.2570476454212445e+00 1.6683851372692480e+00 2.1361576701440965e+00 1 1 0
1012 54 2 0.0000000000000000e+00 -1.3074397825239723e+00 8.9597972370333316e+00 8.8206249490507194e+00 1 0 0
218 13 5 0.0000000000000000e+00 -1.9291458966909323e+00 2.5500940773541818e+00 4.0079364683788201e+00 1 0 0
4396 234 5 0.0000000000000000e+00 -1.3503591848836880e+00 1.1431476428116746e-01 9.2422388099427746e+00 1 1 0
236 14 5 0.0000000000000000e+00 -3.9367781774092094e+00 2.7330559825616323e+00 1.2046101678854576e+01 1 0 0
1742 93 2 0.0000000000000000e+00 -1.1336597829274693e+00 1.3879872774461864e+01 6.4151898383021599e+00 1 0 0
2131 114 2 0.0000000000000000e+00 2.1498240203657906e+00 1.5771877300922091e+01 9.5865626207408461e+00 1 0 0
1769 94 2 0.0000000000000000e+00 -2.9031497609177226e+00 1.4079812878123215e+01 7.4052216433721352e+00 1 0 0
4401 234 2 0.0000000000000000e+00 -1.9559031387805161e+00 1.0050343657384757e+00 9.0665333418072507e+00 1 1 0
597 34 3 0.0000000000000000e+00 -6.8591713229909512e-01 5.9185403737863318e+00 1.0394301218052146e+01 1 0 0
734 14 6 0.0000000000000000e+00 -4.6343258719849354e+00 2.3488332963417990e+00 1.0508200559954586e+01 1 0 0
1005 54 4 0.0000000000000000e+00 -4.6545593042858355e+00 8.1111611838086706e+00 8.4751873994115421e+00 1 0 0
224 13 2 0.0000000000000000e+00 -1.1781767008171844e+00 5.0149023365998442e+00 3.2279685809462499e+00 1 0 0
1344 73 2 0.0000000000000000e+00 2.4325432710362000e+00 1.3309740420094750e+01 3.9982454928865945e+00 1 0 0
237 14 3 0.0000000000000000e+00 -4.2026119303157978e+00 2.8623166600902716e+00 1.0720752390160973e+01 1 0 0
584 33 2 0.0000000000000000e+00 1.9143854576912984e+00 7.3814895420519262e+00 2.7976995528419750e+00 1 0 0
227 13 4 0.0000000000000000e+00 8.2754135784481675e-01 2.1542972378796743e+00 1.6410552340498170e+00 1 0 0
4402 234 2 0.0000000000000000e+00 -2.5321668072099452e+00 1.2560894147590613e+00 1.1308679216498282e+01 1 1 0
4379 233 3 0.0000000000000000e+00 3.4030124361036558e+00 4.4701943521422071e-03 2.9828124143074639e+00 1 1 0
591 33 2 0.0000000000000000e+00 4.0876020654588991e+00 6.7771711717561516e+00 6.6030913268428408e+00 1 0 0
246 14 3 0.0000000000000000e+00 -5.2224326451603842e+00 2.1311445345538993e+00 1.0142297993854454e+01 1 0 0
1065 57 2 0.0000000000000000e+00 5.4250028604861278e+00 6.8918380789846294e+00 2.8372542062083994e+00 1 0 0
605 34 4 0.0000000000000000e+00 -8.2056893713898660e-01 4.0335089447826133e+00 1.1738548674391284e+01 1 0 0
606 34 3 0.0000000000000000e+00 -5.8889300250510512e-01 4.5773331102854184e+00 1.0505119611465759e+01 1 0 0
607 34 4 0.0000000000000000e+00 -1.5677759117379875e-01 3.8192702926472575e+00 9.4310342640788711e+00 1 0 0
4389 233 4 0.0000000000000000e+00 4.8060329714859709e+00 2.6292752365675454e-01 4.8572891712783015e+00 1 1 0
1372 74 2 0.0000000000000000e+00 -3.5203423806923877e+00 1.0846440650925476e+01 1.1562186371280992e+01 1 0 0
2125 114 4 0.0000000000000000e+00 1.0965161777073504e+00 1.7827637533710931e+01 1.0961552764000245e+01 1 0 0
1355 74 7 0.0000000000000000e+00 1.2708008276703442e+00 1.3466351239992060e+01 9.6348315569807639e+00 1 0 0
598 34 4 0.0000000000000000e+00 -1.0789769508561049e+00 6.7300465579077118e+00 1.1498364905124278e+01 1 0 0
754 34 6 0.0000000000000000e+00 -4.3963448396007543e-01 5.2932688613646839e+00 1.0505781979631507e+01 1 0 0
2274 114 6 0.0000000000000000e+00 -2.6531918202976357e-01 1.7032049984309833e+01 1.0296451559789757e+01 1 0 0
230 13 1 0.0000000000000000e+00 2.4476147774546964e-01 4.5175414591991663e+00 1.7898541393510521e+00 1 0 0
2254 94 6 0.0000000000000000e+00 -5.0435831428123148e+00 1.4599934587114559e+01 1.0293192455647068e+01 1 0 0
2103 113 2 0.0000000000000000e+00 2.1767596009803509e+00 1.7621407593321511e+01 1.1496177586199448e+00 1 0 0
1001 54 2 0.0000000000000000e+00 -4.0105149005557239e+00 9.2097328542241073e+00 1.2812686902140424e+01 1 0 0
1765 94 4 0.0000000000000000e+00 -4.3528593314131676e+00 1.3550886678371320e+01 8.9116042140605956e+00 1 0 0
979 53 3 0.0000000000000000e+00 -5.5289932599846936e-01 9.2770895265403670e+00 3.2471807399165025e+00 1 0 0
1762 94 2 0.0000000000000000e+00 -3.6254434684092969e+00 1.6936327611059379e+01 1.0502928499353045e+01 1 0 0
1756 94 5 0.0000000000000000e+00 -5.2154276696430886e+00 1.5530969924475716e+01 1.1998721765969607e+01 1 0 0
1744 93 2 0.0000000000000000e+00 3.0818046959975920e-02 1.7031288073690071e+01 2.9735305799424587e+00 1 0 0
231 13 2 0.0000000000000000e+00 1.7189720536850044e+00 3.6821073413197918e+00 5.0368336053316809e-01 1 0 0
2253 93 6 0.0000000000000000e+00 -3.8796702166851671e-01 1.4272621769320143e+01 3.0009950463765165e+00 1 0 0
1493 53 6 0.0000000000000000e+00 -5.6173471227575633e-01 8.6475749352276932e+00 2.9559928693237021e+00 1 0 0
1342 73 2 0.0000000000000000e+00 4.8796684348940431e+00 1.2828976291688701e+01 8.8296621048032098e-02 1 0 0
1755 94 7 0.0000000000000000e+00 -6.2323816205581810e+00 1.4691542268736542e+01 1.2478681103520875e+01 1 0 0
239 14 1 0.0000000000000000e+00 -5.7292622973822542e+00 1.1541729263840350e+00 1.2254105237861506e+01 1 0 0
583 33 2 0.0000000000000000e+00 2.2484926211042766e+00 6.1077172937135735e+00 1.0711652633754227e+00 1 0 0
1337 73 7 0.0000000000000000e+00 4.6485099877347587e+00 1.2229758034079033e+01 9.2957811877006069e-01 1 0 0
2109 113 4 0.0000000000000000e+00 4.9774267994314041e+00 1.6122398752821336e+01 3.3439579946585454e+00 1 0 0
247 14 4 0.0000000000000000e+00 -6.0555546436632524e+00 1.2907360567289288e+00 1.0936846335226596e+01 1 0 0
1350 73 1 0.0000000000000000e+00 2.4351661875255468e+00 1.1564124333333552e+01 5.1709758125949739e+00 1 0 0
2107 113 4 0.0000000000000000e+00 4.0327502902840822e+00 1.7353130668722777e+01 5.2671625380909353e+00 1 0 0
226 13 1 0.0000000000000000e+00 9.5602939252466090e-01 3.4487590547756795e+00 1.2302542998822599e+00 1 0 0
1365 74 4 0.0000000000000000e+00 -2.9599155348925876e-01 9.9770281830270715e+00 1.1190737197175455e+01 1 0 0
1008 54 1 0.0000000000000000e+00 -2.3412965451735839e+00 8.7050982577890057e+00 9.1047628114714829e+00 1 0 0
1002 54 2 0.0000000000000000e+00 -2.1690450389158222e+00 9.4765582651549529e+00 1.1126301572336693e+01 1 0 0
1346 73 1 0.0000000000000000e+00 2.9587247744730756e+00 1.0279460846082518e+01 5.2009917503321041e+00 1 0 0
1338 73 5 0.0000000000000000e+00 3.8874438016275130e+00 1.2711943898697918e+01 1.9758314829301815e+00 1 0 0
1339 73 3 0.0000000000000000e+00 3.6573747307649098e+00 1.1889929324568710e+01 3.0807685895970089e+00 1 0 0
1340 73 4 0.0000000000000000e+00 2.8782148661342082e+00 1.2396085316502299e+01 4.1296377887579556e+00 1 0 0
1758 94 4 0.0000000000000000e+00 -3.8115743926964312e+00 1.5965716378321501e+01 1.0128389649951341e+01 1 0 0
232 13 2 0.0000000000000000e+00 1.4367210147985796e+00 1.3748614541664204e+00 1.3425426027961622e+00 1 0 0
1764 94 1 0.0000000000000000e+00 -3.4596310818522475e+00 1.4393174238278426e+01 8.2669792611399622e+00 1 0 0
988 53 3 0.0000000000000000e+00 -8.7011910910045609e-01 8.0644808812781505e+00 2.6837386264813246e+00 1 0 0
1348 73 3 0.0000000000000000e+00 4.1415335406084886e+00 1.0639936821947003e+01 3.1450712766946154e+00 1 0 0
1349 73 4 0.0000000000000000e+00 4.8885812748540598e+00 1.0127026663590499e+01 2.0561126622883652e+00 1 0 0
599 34 1 0.0000000000000000e+00 7.5582863766917363e-02 4.3402410499411461e+00 8.1404928916314887e+00 1 0 0
1513 73 6 0.0000000000000000e+00 3.7074670841664701e+00 1.1242126984213618e+01 3.2445717642840224e+00 1 0 0
1356 74 5 0.0000000000000000e+00 -1.0379020802399896e-01 1.3441850648355519e+01 9.9533365711164272e+00 1 0 0
1027 55 2 0.0000000000000000e+00 -7.6944232597262561e+00 9.6009079691354984e+00 1.4500017433710823e+01 1 0 0
297 17 2 0.0000000000000000e+00 5.1075304115401456e+00 2.2896560994956683e-01 4.2198206241261520e+00 1 0 0
1347 73 4 0.0000000000000000e+00 3.9236622254934597e+00 9.8419122799739025e+00 4.2542229181141655e+00 1 0 0
243 14 2 0.0000000000000000e+00 -6.2691511077828856e+00 5.1597330861345669e-01 1.2926492840988798e+01 1 0 0
2523 134 2 0.0000000000000000e+00 -6.3699750028637121e+00 1.7190453820665208e+01 1.1509159711572019e+01 1 0 0
1358 74 4 0.0000000000000000e+00 -1.9818574976529426e+00 1.2206169957610518e+01 1.0914312664529206e+01 1 0 0
1360 74 2 0.0000000000000000e+00 1.8268730458150317e+00 1.4360981449390216e+01 9.3537845748731989e+00 1 0 0
1747 93 4 0.0000000000000000e+00 -5.8643652271736069e-01 1.3566803729672566e+01 1.1791529156977307e+00 1 0 0
1370 74 2 0.0000000000000000e+00 4.1841335306840222e-01 9.1433714226094640e+00 1.1339171237363550e+01 1 0 0
1341 73 1 0.0000000000000000e+00 5.1697528908210133e+00 1.0950920369538764e+01 9.9346980241544403e-01 1 0 0
2105 113 2 0.0000000000000000e+00 5.5974686818250987e+00 1.5119482426943479e+01 1.5452355665913000e+00 1 0 0
1748 93 3 0.0000000000000000e+00 -6.8877179867392058e-01 1.3713202467309591e+01 2.5346099005907181e+00 1 0 0
1768 94 1 0.0000000000000000e+00 -3.2333518463208843e+00 1.5568041620589273e+01 8.9473429131368416e+00 1 0 0
317 18 4 0.0000000000000000e+00 2.0768147405853776e+00 1.6756075156229602e+00 9.5468437222367104e+00 1 0 0
252 14 2 0.0000000000000000e+00 -3.2021796818789543e+00 4.7072816650365317e+00 8.0667255214894062e+00 1 0 0
238 14 4 0.0000000000000000e+00 -3.5097666185160450e+00 3.8408132938883899e+00 9.9760633966744532e+00 1 0 0
610 34 2 0.0000000000000000e+00 -7.4916905202389206e-01 2.9933981285821205e+00 1.1881072800172422e+01 1 0 0
998 54 4 0.0000000000000000e+00 -2.8072712146479497e+00 9.0269563611630854e+00 1.0413408117378641e+01 1 0 0
1760 94 2 0.0000000000000000e+00 -6.7073353426044688e+00 1.4940186726758995e+01 1.3411685392662561e+01 1 0 0
1359 74 1 0.0000000000000000e+00 2.1063558046155197e+00 1.2338326787161149e+01 9.7803448931796471e+00 1 0 0
1757 94 3 0.0000000000000000e+00 -4.7101830829898388e+00 1.5125392669012935e+01 1.0708982699233022e+01 1 0 0
996 54 5 0.0000000000000000e+00 -4.6258667649675864e+00 8.8438488765705170e+00 1.2014776992523299e+01 1 0 0
977 53 7 0.0000000000000000e+00 7.6509392895470762e-01 8.0964886411002190e+00 4.9015336973040835e+00 1 0 0
1750 93 1 0.0000000000000000e+00 -2.1448024913738173e-01 1.5936189127966037e+01 1.0165300957912045e+00 1 0 0
997 54 3 0.0000000000000000e+00 -4.1073026490335884e+00 8.6342133033697124e+00 1.0757994247336590e+01 1 0 0
1000 54 2 0.0000000000000000e+00 -6.3116609398669876e+00 8.9959566962681361e+00 1.3310395849952023e+01 1 0 0
2120 114 2 0.0000000000000000e+00 -1.6392275813695631e+00 1.4152614483975201e+01 8.2375821367913566e+00 1 0 0
1357 74 3 0.0000000000000000e+00 -6.5382829853761848e-01 1.2258668298145377e+01 1.0495820976601710e+01 1 0 0
585 33 2 0.0000000000000000e+00 4.8697849109985620e+00 2.5934323881634791e+00 1.5632505677859034e+00 1 0 0
1772 94 2 0.0000000000000000e+00 -2.6149806606411961e+00 1.6309990837076658e+01 8.4728201163254457e+00 1 0 0
1494 54 6 0.0000000000000000e+00 -4.5565930778393708e+00 8.4167212328338028e+00 1.0293558690632461e+01 1 0 0
611 34 2 0.0000000000000000e+00 -5.4644469704292042e-02 2.7456816225240992e+00 9.5100575003820786e+00 1 0 0
602 34 2 0.0000000000000000e+00 -1.3146708546204451e+00 7.7300307716262271e+00 1.1190586709874717e+01 1 0 0
1745 93 2 0.0000000000000000e+00 -1.4471792253787927e+00 1.1836154789522386e+01 5.2987164008998873e+00 1 0 0
1759 94 1 0.0000000000000000e+00 -6.5641069225963902e+00 1.3533872330360417e+01 1.1806295245099490e+01 1 0 0
1514 74 6 0.0000000000000000e+00 -2.5366178015523744e-01 1.1650577232116200e+01 1.0525254787115506e+01 1 0 0
1737 93 7 0.0000000000000000e+00 -1.0621751595246898e+00 1.3886171793287463e+01 5.3566766378077562e+00 1 0 0
985 53 2 0.0000000000000000e+00 1.1121329896873129e+00 5.9890515568473930e+00 4.5605938660858358e+00 1 0 0
1369 74 2 0.0000000000000000e+00 -2.1221893983772953e+00 9.0096050019810523e+00 1.2021725342663087e+01 1 0 0
1746 93 1 0.0000000000000000e+00 -3.6945603386906367e-01 1.4704720096867597e+01 4.1982784222005787e-01 1 0 0
1366 74 3 0.0000000000000000e+00 2.0751322563270858e-01 1.1128870731920726e+01 1.0622539435549520e+01 1 0 0
1361 74 2 0.0000000000000000e+00 -7.4475381948714237e-01 1.4333826287464349e+01 9.9915140829165860e+00 1 0 0
1364 74 1 0.0000000000000000e+00 -1.6130734757542173e+00 9.9053212120358722e+00 1.1628070587246897e+01 1 0 0
2126 114 3 0.0000000000000000e+00 3.6651836222080725e-01 1.6814736091838885e+01 1.0268987910719250e+01 1 0 0
981 53 1 0.0000000000000000e+00 5.8983164407316790e-01 6.8501518598289026e+00 4.2287767678181085e+00 1 0 0
1343 73 2 0.0000000000000000e+00 3.3529625865916861e+00 1.3621281285227582e+01 2.0703323749916098e+00 1 0 0
612 34 2 0.0000000000000000e+00 -1.4811728124517982e+00 6.8005740665637520e+00 1.3597324517519452e+01 1 0 0
1766 94 3 0.0000000000000000e+00 -4.9874506656763851e+00 1.3925580363962426e+01 1.0066671164343783e+01 1 0 0
1006 54 3 0.0000000000000000e+00 -5.0452629589960543e+00 8.2868657039263720e+00 9.7965195611250540e+00 1 0 0
2121 114 2 0.0000000000000000e+00 -2.7502205320188935e+00 1.6149094221196133e+01 9.0968832103924875e+00 1 0 0
2127 114 4 0.0000000000000000e+00 1.0510916200865941e+00 1.5737090186877492e+01 9.6586226307824621e+00 1 0 0
1362 74 2 0.0000000000000000e+00 -2.7140489140547204e+00 1.3001753885934820e+01 1.0809553303537541e+01 1 0 0
2039 109 2 0.0000000000000000e+00 -3.9193171636717579e+00 1.6497306775725463e+01 6.4782302490360362e+00 1 0 0
577 33 7 0.0000000000000000e+00 3.4943355071919271e+00 4.2107361571846962e+00 1.1836438990284683e+00 1 0 0
1345 73 2 0.0000000000000000e+00 5.7508149578945300e+00 1.0535552316548532e+01 1.9666093776276838e-01 1 0 0
581 33 1 0.0000000000000000e+00 4.3499843120787247e+00 3.4424245503767996e+00 1.9719066452272758e+00 1 0 0
2116 114 5 0.0000000000000000e+00 -1.6799227583741092e+00 1.5979511800689631e+01 9.2906982284364172e+00 1 0 0
594 33 2 0.0000000000000000e+00 2.4899810665813829e+00 8.2631912661647835e+00 5.0681993988273399e+00 1 0 0
1351 73 2 0.0000000000000000e+00 2.7657650593960543e+00 9.6485910045530598e+00 6.0790181796241507e+00 1 0 0
1743 93 2 0.0000000000000000e+00 -7.5156447271161309e-01 1.6063185107801310e+01 5.1057431149753238e+00 1 0 0
217 13 7 0.0000000000000000e+00 -2.1615367511116834e+00 1.1711449553458073e+00 4.2926459300290736e+00 1 0 0
520 29 2 0.0000000000000000e+00 -2.6002631342538289e+00 5.0578346876763725e+00 4.8188559203901074e+00 1 0 0
1288 70 2 0.0000000000000000e+00 -6.1986169871213859e+00 1.3289890482414647e+01 1.0391743123485078e+01 1 0 0
1354 73 2 0.0000000000000000e+00 1.7221506816331043e+00 1.1934819769926827e+01 5.9107936556110747e+00 1 0 0
995 54 7 0.0000000000000000e+00 -5.9771181860681883e+00 8.7193678043398553e+00 1.2407350114388775e+01 1 0 0
1739 93 3 0.0000000000000000e+00 -5.3934517670146476e-01 1.4976850633810450e+01 3.2003001284144510e+00 1 0 0
4378 233 5 0.0000000000000000e+00 4.3804537487250776e+00 7.0485209979991803e-01 2.1994956083540904e+00 1 1 0
1761 94 2 0.0000000000000000e+00 -4.8167295201567129e+00 1.6386944565910362e+01 1.2570686074592919e+01 1 0 0
2101 113 1 0.0000000000000000e+00 4.9774413810187550e+00 1.5867753989808087e+01 1.9612045046851549e+00 1 0 0
322 18 2 0.0000000000000000e+00 1.4258099154602926e+00 7.8158883708719318e-01 9.4145382863277405e+00 1 0 0
989 53 4 0.0000000000000000e+00 -3.7071929601605857e-01 6.8653146763882713e+00 3.1725159433034515e+00 1 0 0
229 13 4 0.0000000000000000e+00 -1.9743849050535922e-01 5.4137862501303158e-01 2.9913685610173135e+00 1 0 0
2108 113 3 0.0000000000000000e+00 4.0624012606679827e+00 1.7089115114544416e+01 3.9045208384507566e+00 1 0 0
4383 233 2 0.0000000000000000e+00 4.2128252588783228e+00 8.8286824882799897e-01 1.1623939671738910e+00 1 1 0
2273 113 6 0.0000000000000000e+00 3.6324607726998837e+00 1.7305931744478048e+01 3.4140103269444215e+00 1 0 0
1368 74 1 0.0000000000000000e+00 -2.4638422804764684e+00 1.1020289925630108e+01 1.1518933977252731e+01 1 0 0
604 34 1 0.0000000000000000e+00 -1.0929135800795589e+00 4.7907747935516607e+00 1.2840777557679303e+01 1 0 0
609 34 2 0.0000000000000000e+00 -1.2949821406453861e+00 4.2854745632105233e+00 1.3793058266865502e+01 1 0 0
983 53 2 0.0000000000000000e+00 2.9036817753820143e-01 1.0281657015745525e+01 4.9585840394759400e+00 1 0 0
220 13 4 0.0000000000000000e+00 -7.0098365099967408e-01 4.2279255787591792e+00 2.7657543683832784e+00 1 0 0
248 14 1 0.0000000000000000e+00 -3.7328692394881173e+00 3.9837652555971692e+00 8.6373946935951036e+00 1 0 0
4398 234 4 0.0000000000000000e+00 -1.9829252426858659e+00 3.3759135764752657e-01 1.1580736349560731e+01 1 1 0
2115 114 7 0.0000000000000000e+00 -1.0680647189590635e+00 1.4902523766873031e+01 8.7262620754613582e+00 1 0 0
1824 97 2 0.0000000000000000e+00 6.2015396214012970e+00 1.2155749913903342e+01 2.1110823771020812e+00 1 0 0
1353 73 2 0.0000000000000000e+00 5.2530537691635164e+00 9.0901922078970241e+00 2.2391522686139460e+00 1 0 0
2113 113 2 0.0000000000000000e+00 5.6794179581395330e+00 1.5652773596009860e+01 3.9413646127853941e+00 1 0 0
603 34 2 0.0000000000000000e+00 3.3656245754166569e-01 3.7107904411470489e+00 7.2858924058624943e+00 1 0 0
316 18 1 0.0000000000000000e+00 2.4680588678729096e+00 2.5240752032657712e+00 8.4944347763667096e+00 1 0 0
305 17 2 0.0000000000000000e+00 6.1647462250603180e+00 4.9768091562040739e-01 2.0994772761435887e+00 1 0 0
1009 54 2 0.0000000000000000e+00 -3.0036138866596338e+00 8.1422885351235887e+00 7.1245214116210054e+00 1 0 0
244 14 1 0.0000000000000000e+00 -4.7786125187076154e+00 3.2667978432492601e+00 8.0154454870594467e+00 1 0 0
519 29 2 0.0000000000000000e+00 -1.2457207367522547e+00 6.5129769691111434e+00 3.0542490104032827e+00 1 0 0
1825 97 2 0.0000000000000000e+00 5.3319248634884939e+00 1.3502287279003605e+01 4.2569622175878585e+00 1 0 0
1282 69 2 0.0000000000000000e+00 -3.8452550879528902e+00 1.0432831147614342e+01 6.2793965476061731e+00 1 0 0
1823 97 2 0.0000000000000000e+00 7.6122723056931374e+00 1.2139255717381262e+01 2.3895473656041466e-01 1 0 0
1352 73 2 0.0000000000000000e+00 4.3374288361467324e+00 8.8577579055088158e+00 4.3028429479448054e+00 1 0 0
2102 113 2 0.0000000000000000e+00 3.7542128465071802e+00 1.6057728599712487e+01 1.3253449973942905e-01 1 0 0
1763 94 2 0.0000000000000000e+00 -7.3235766728211917e+00 1.2902417889139501e+01 1.2318484427095168e+01 1 0 0
4412 234 2 0.0000000000000000e+00 -2.2872329127213762e+00 6.4284334855122116e-01 1.3697410006295792e+01 1 1 0
2098 113 5 0.0000000000000000e+00 3.0158184570772772e+00 1.7279443450478027e+01 1.7838850375784623e+00 1 0 0
1064 57 2 0.0000000000000000e+00 6.4879629338550426e+00 7.2326716016147250e+00 5.1730277510506018e-01 1 0 0
1371 74 2 0.0000000000000000e+00 1.9882013595624022e+00 1.0092445301285181e+01 1.0289309949596404e+01 1 0 0
1752 93 2 0.0000000000000000e+00 -7.1134904896231765e-01 1.2612725303154656e+01 7.6275467882871428e-01 1 0 0
223 13 2 0.0000000000000000e+00 -2.6183430776597425e+00 3.2782545001125403e+00 4.4208795000829069e+00 1 0 0
1291 70 2 0.0000000000000000e+00 -5.7200008835203526e+00 1.1017100445345342e+01 9.9042004153646754e+00 1 0 0
1059 57 4 0.0000000000000000e+00 7.2426106011234133e+00 7.8239360125569313e+00 1.0310253140663601e+00 1 0 0
323 18 2 0.0000000000000000e+00 1.2965230316156529e+00 3.7134268177149576e-01 1.1615859325479674e+01 1 0 0
1804 96 1 0.0000000000000000e+00 -1.1781283979320417e+01 1.5100649310783691e+01 2.2994698130449137e+01 1 0 0
1026 55 1 0.0000000000000000e+00 -6.8054010481173499e+00 9.2771848844204836e+00 1.6352253776149563e+01 1 0 0
255 15 3 0.0000000000000000e+00 -8.7415855948937278e+00 3.1283141418792706e+00 1.8162111904130033e+01 1 0 0
1790 95 2 0.0000000000000000e+00 -8.9893811846235980e+00 1.6957624242701876e+01 1.5872919124881744e+01 1 0 0
2164 116 1 0.0000000000000000e+00 -1.0415752025006626e+01 1.7532609250939874e+01 2.7972436497478547e+01 1 0 0
1038 56 2 0.0000000000000000e+00 -1.3593726245156878e+01 1.1184863371264028e+01 2.5286434281448621e+01 1 0 0
4358 231 2 0.0000000000000000e+00 -9.8382241081135824e+00 7.3037915248761437e-02 1.9009080180640289e+01 1 1 0
264 15 3 0.0000000000000000e+00 -9.0360048283466767e+00 1.8031109367170053e+00 1.7722856877825723e+01 1 0 0
626 35 1 0.0000000000000000e+00 -6.9542933551479065e+00 5.2490707495339199e+00 2.0074660013108215e+01 1 0 0
1095 59 4 0.0000000000000000e+00 -2.0322083448982342e+00 8.2474143776091235e+00 1.6957666541658948e+01 1 0 0
2549 135 2 0.0000000000000000e+00 -9.7399115654823714e+00 1.7641699465855609e+01 1.8536406653666859e+01 1 0 0
735 15 6 0.0000000000000000e+00 -8.9429465907280417e+00 2.4177672385744060e+00 1.8048900052019469e+01 1 0 0
1796 96 2 0.0000000000000000e+00 -1.4624767636748613e+01 1.5884559352043363e+01 2.7937643991134202e+01 1 0 0
1063 57 2 0.0000000000000000e+00 -8.6586119047934549e+00 8.2488010260753448e+00 2.9127909402149104e+01 1 0 -1
2153 116 3 0.0000000000000000e+00 -9.4589324987958783e+00 1.7868340996031232e+01 2.5754764416904454e+01 1 0 0
1022 55 1 0.0000000000000000e+00 -7.8791083395103474e+00 9.2660070065344229e+00 1.5509197196221413e+01 1 0 0
615 35 3 0.0000000000000000e+00 -5.3397179715483389e+00 5.6995397813823887e+00 1.8320067367104993e+01 1 0 0
1386 75 1 0.0000000000000000e+00 -6.1109009039154003e+00 1.1722560882875580e+01 1.9499924117160798e+01 1 0 0
640 36 1 0.0000000000000000e+00 -9.1990081799375787e+00 5.4427339326805182e+00 2.7952915530428974e+01 1 0 0
624 35 3 0.0000000000000000e+00 -4.9014071169605282e+00 4.3548766608903460e+00 1.8372711059071932e+01 1 0 0
625 35 4 0.0000000000000000e+00 -3.8545191586682295e+00 3.9762334831390289e+00 1.7518980613311506e+01 1 0 0
1390 75 2 0.0000000000000000e+00 -6.7705781469384627e+00 1.2248533990316520e+01 2.0275104769817421e+01 1 0 0
755 35 6 0.0000000000000000e+00 -4.9563835277242392e+00 5.1076319330320192e+00 1.8417769783320839e+01 1 0 0
613 35 7 0.0000000000000000e+00 -3.6956464771214073e+00 6.3012667829351923e+00 1.6544618740128591e+01 1 0 0
614 35 5 0.0000000000000000e+00 -4.7713672066832649e+00 6.6322855164005992e+00 1.7389207645833419e+01 1 0 0
1399 76 2 0.0000000000000000e+00 -6.8519632284210967e+00 9.2845102882996926e+00 2.3575754991257696e+01 1 0 0
4444 236 1 0.0000000000000000e+00 -9.6063067879010866e+00 5.7440310885807633e-01 2.7946187637244929e+01 1 1 0
616 35 4 0.0000000000000000e+00 -6.4565431171485805e+00 6.0942008189669785e+00 1.9095758901840373e+01 1 0 0
277 16 2 0.0000000000000000e+00 -1.1949343690013418e+01 4.4597175822597759e+00 2.6978487406113356e+01 1 0 0
1773 95 7 0.0000000000000000e+00 -8.9240752368684646e+00 1.3561030935108123e+01 2.0451829234434097e+01 1 0 0
635 36 1 0.0000000000000000e+00 -9.5272289901491209e+00 3.3566443568807749e+00 2.3606460300545869e+01 1 0 0
1806 96 2 0.0000000000000000e+00 -1.3274736030148652e+01 1.2028912981957742e+01 2.3578912430717782e+01 1 0 0
2136 115 4 0.0000000000000000e+00 -6.0637970721969801e+00 1.7904874035714361e+01 1.8955803926777765e+01 1 0 0
288 16 2 0.0000000000000000e+00 -1.0390945705702364e+01 2.0166863856652788e+00 2.3356064362277721e+01 1 0 0
634 36 4 0.0000000000000000e+00 -9.5226392102884283e+00 6.7660228126281003e+00 2.5950818164234704e+01 1 0 0
1387 75 2 0.0000000000000000e+00 -4.8669548361180865e+00 1.0684286441370082e+01 2.1096438730843410e+01 1 0 0
1017 55 1 0.0000000000000000e+00 -1.0633056559841652e+01 7.2006271817676275e+00 1.8856667650222324e+01 1 0 0
268 15 2 0.0000000000000000e+00 -8.3076983682967835e+00 -1.7762195461412483e-02 1.6697375977186013e+01 1 0 0
2162 116 3 0.0000000000000000e+00 -8.5719052413602270e+00 1.6809657211185609e+01 2.5940903990197775e+01 1 0 0
2141 115 2 0.0000000000000000e+00 -2.2779368484087934e+00 1.7093826948139231e+01 1.5480101221038300e+01 1 0 0