LAMMPS (15 May 2015)
Reading data file ...
  triclinic box = (-0.107635 -0.0404339 -0.357111) to (41.3876 35.9384 29.5551) with tilt (-0.0672341 -17.0362 -0.0417078)
  5 by 2 by 2 MPI processor grid
  reading atoms ...
  4560 atoms
  reading velocities ...
  4560 velocities
  scanning bonds ...
  3 = max bonds/atom
  scanning angles ...
  3 = max angles/atom
  scanning dihedrals ...
  8 = max dihedrals/atom
  scanning impropers ...
  1 = max impropers/atom
  reading bonds ...
  5040 bonds
  reading angles ...
  7200 angles
  reading dihedrals ...
  10560 dihedrals
  reading impropers ...
  2400 impropers
Finding 1-2 1-3 1-4 neighbors ...
 Special bond factors lj:   0          0          0         
 Special bond factors coul: 0          0          0         
  4 = max # of 1-2 neighbors
  8 = max # of 1-3 neighbors
  20 = max # of 1-4 neighbors
  16 = max # of special neighbors
4560 atoms in group all
720 atoms in group C
480 atoms in group S
1920 atoms in group H
720 atoms in group Si
240 atoms in group Na
240 atoms in group Ba
240 atoms in group O
4560 atoms in group naphthalene
2400 atoms in group carbon
960 atoms in group CO
Setting atom values ...
  720 settings made for charge
Setting atom values ...
  720 settings made for charge
Setting atom values ...
  1920 settings made for charge
Setting atom values ...
  480 settings made for charge
Setting atom values ...
  240 settings made for charge
Setting atom values ...
  240 settings made for charge
Setting atom values ...
  240 settings made for charge
Finding 1-2 1-3 1-4 neighbors ...
 Special bond factors lj:   0          0          0.5       
 Special bond factors coul: 0          0          0.5       
  4 = max # of 1-2 neighbors
  8 = max # of 1-3 neighbors
  20 = max # of 1-4 neighbors
  16 = max # of special neighbors
Neighbor list info ...
  4 neighbor list requests
  update every 1 steps, delay 0 steps, check yes
  master list distance cutoff = 12
Setting up run ...
Memory usage per processor = 13.4064 Mbytes
Step Temp Density PotEng E_vdwl E_tail E_coul E_long Press Volume Xy Xz Yz E_mol E_bond E_angle E_dihed 14[1] 14[2] 14[3] msd[4] msd2[4] msd3[4] msd4[4] naphthal Cella Cellb Cellc CellAlpha CellBeta CellGamma 2 3 27[1] 27[2] 27[3] 28[1] 28[2] 28[3] 
       0          298    1.2509986     3498.833            0            0            0            0   -15873.524    44657.537 -0.067234084   -17.036218 -0.041707817     3498.833    1521.0094     935.4334    889.67826    28.379601    18.846571    14.337846 7.7711016e-30 8.8746852e-30 6.8181724e-30 5.7534156e-30          298     41.49527    35.978931    34.423473    90.016431    119.66323    90.107069 1.445573e-27 4.9466509e-24    28.379557    18.849013    14.339638    28.379812    18.845474    14.337264 
   10000    299.94454    1.2509986    3630.6422            0            0            0            0    317.19602    44657.537 -0.067234084   -17.036218 -0.041707817    3630.6422    1462.3796    1063.0065    947.30537    28.379016    18.847909    14.337062 0.00034828989 0.00034397929   0.98852159   0.98851076    299.94454     41.49527    35.978931    34.423473    90.016431    119.66323    90.107069    184.65267    208.97394    28.378541    18.847203    14.339588    28.379818    18.848545     14.33608 
   20000    303.75792    1.2509986     3573.798            0            0            0            0    -1415.997    44657.537 -0.067234084   -17.036218 -0.041707817     3573.798    1463.5943    1028.4266    920.38622    28.381482     18.85311    14.341743 0.00039069807 0.00038934469    1.0548714    1.0548046    303.75792     41.49527    35.978931    34.423473    90.016431    119.66323    90.107069    197.04661    234.41884    28.378524    18.848872    14.339121    28.382168    18.852356    14.340999 
   30000    303.11667    1.2509986    3547.7524            0            0            0            0    334.36965    44657.537 -0.067234084   -17.036218 -0.041707817    3547.7524    1460.7592    1022.6274    908.40753    28.377483    18.849456    14.340291 0.00036860147 0.00036799362    1.1578922    1.1578431    303.11667     41.49527    35.978931    34.423473    90.016431    119.66323    90.107069    216.29055    221.16088    28.379393    18.849321    14.340335    28.375939    18.850369    14.340449 
   40000    298.86375    1.2509986     3522.834            0            0            0            0    583.37372    44657.537 -0.067234084   -17.036218 -0.041707817     3522.834    1469.1624    1021.6883    879.22912    28.389202    18.849284    14.341168 0.00037145978 0.00036899361    1.2854001    1.2852993    298.86375     41.49527    35.978931    34.423473    90.016431    119.66323    90.107069    240.10862    222.87587    28.379839    18.850528    14.339337    28.388122    18.848337    14.342112 
   50000    293.91538    1.2509986    3585.2198            0            0            0            0    157.48386    44657.537 -0.067234084   -17.036218 -0.041707817    3585.2198    1465.4413     1032.357    929.30665    28.377368    18.847186    14.339243 0.00033816443 0.00033625075    1.2979702     1.297953    293.91538     41.49527    35.978931    34.423473    90.016431    119.66323    90.107069    242.45667    202.89866    28.380634    18.848308    14.339132    28.378262    18.848361    14.339792 
   60000    297.27703    1.2509986    3663.3246            0            0            0            0    814.76436    44657.537 -0.067234084   -17.036218 -0.041707817    3663.3246    1533.3761    1056.3134    918.71568    28.381775     18.84367    14.341928 0.00038159205 0.00037982647    1.2829431    1.2829187    297.27703     41.49527    35.978931    34.423473    90.016431    119.66323    90.107069    239.64966    228.95523    28.380238    18.848962    14.340778     28.38037    18.844398    14.342055 
   70000    295.18713    1.2509986    3566.4981            0            0            0            0     985.5921    44657.537 -0.067234084   -17.036218 -0.041707817    3566.4981    1473.5517    1023.9425    913.11241    28.376768    18.853036    14.345276 0.00037200518 0.00037068061    1.1638841    1.1637596    295.18713     41.49527    35.978931    34.423473    90.016431    119.66323    90.107069    217.40982    223.20311    28.378668    18.849219     14.34034    28.375667    18.852666    14.344719 
   80000    294.09318    1.2509986    3601.4858            0            0            0            0   -333.76103    44657.537 -0.067234084   -17.036218 -0.041707817    3601.4858    1511.8445    1019.1364    918.34816     28.37756     18.84699    14.336857 0.00035445428 0.00035361968    1.2102652    1.2102462    294.09318     41.49527    35.978931    34.423473    90.016431    119.66323    90.107069    226.07366    212.67257    28.379571    18.848995    14.340551    28.375963    18.847519    14.337196 
   90000    298.73537    1.2509986    3658.7119            0            0            0            0    -1380.101    44657.537 -0.067234084   -17.036218 -0.041707817    3658.7119    1493.1716     1055.144    953.32713    28.380089    18.852822    14.338838 0.00035588131 0.00035535318    1.2670084    1.2669484    298.73537     41.49527    35.978931    34.423473    90.016431    119.66323    90.107069    236.67312    213.52878    28.379955    18.849334    14.339123    28.378191    18.853045    14.336966 
  100000    299.52003    1.2509986    3537.5956            0            0            0            0    109.22501    44657.537 -0.067234084   -17.036218 -0.041707817    3537.5956    1450.2111    989.68171    936.86333    28.379895    18.850466    14.338841 0.00036234414 0.00036189212    1.1883381     1.188319    299.52003     41.49527    35.978931    34.423473    90.016431    119.66323    90.107069    221.97775    217.40649    28.379785    18.848832    14.339032     28.37967    18.849733    14.338209 
  110000    301.14113    1.2509986    3640.6945            0            0            0            0    1040.9489    44657.537 -0.067234084   -17.036218 -0.041707817    3640.6945    1556.9497    1002.3814    924.71109    28.375004    18.855418    14.343931 0.00037175013 0.00037084398    1.1823135    1.1821478    301.14113     41.49527    35.978931    34.423473    90.016431    119.66323    90.107069    220.85239    223.05008    28.378761    18.848501    14.339742     28.37419    18.855319    14.343364 
  120000    302.98343    1.2509986    3616.6542            0            0            0            0    -367.6118    44657.537 -0.067234084   -17.036218 -0.041707817    3616.6542    1507.0935    1000.4844    945.63442    28.376655    18.844064    14.339123 0.00033699064 0.00033404258    1.2661008    1.2660824    302.98343     41.49527    35.978931    34.423473    90.016431    119.66323    90.107069    236.50358    202.19439    28.379429    18.847943    14.338301    28.377533     18.84252    14.339387 
  130000    297.39568    1.2509986    3577.5688            0            0            0            0    370.85649    44657.537 -0.067234084   -17.036218 -0.041707817    3577.5688    1487.2427    1032.5919    902.44232    28.380806    18.854929    14.336831 0.00036264776  0.000361019     1.339018    1.3389528    297.39568     41.49527    35.978931    34.423473    90.016431    119.66323    90.107069    250.12428    217.58866    28.379839    18.849939    14.338806    28.381989     18.85325    14.337143 
  140000    295.67794    1.2509986    3551.6366            0            0            0            0    2198.4383    44657.537 -0.067234084   -17.036218 -0.041707817    3551.6366    1431.8727    1011.3673    944.38589    28.377671    18.853043    14.332881 0.00033683636 0.0003358051    1.3511975    1.3511318    295.67794     41.49527    35.978931    34.423473    90.016431    119.66323    90.107069    252.39937    202.10182    28.379902     18.84912    14.338689    28.379016    18.852789    14.333862 
  150000    299.01047    1.2509986    3594.2835            0            0            0            0    920.80044    44657.537 -0.067234084   -17.036218 -0.041707817    3594.2835    1474.1277    1021.7633    941.67975    28.377543    18.846588    14.332601 0.00035851527 0.00035815229    1.4284712    1.4284462    299.01047     41.49527    35.978931    34.423473    90.016431    119.66323    90.107069    266.83384    215.10916     28.38006    18.849248     14.33987    28.377261    18.848262    14.333994 
  160000    298.09851    1.2509986    3586.6391            0            0            0            0    1222.6859    44657.537 -0.067234084   -17.036218 -0.041707817    3586.6391    1456.7285    1032.7361    940.06087    28.383042    18.846451    14.340615 0.00032408302 0.00032382472    1.2628154    1.2627903    298.09851     41.49527    35.978931    34.423473    90.016431    119.66323    90.107069    235.88987    194.44981    28.379336    18.848571    14.339758    28.383132    18.846548    14.340856 
  170000    298.48429    1.2509986    3518.8899            0            0            0            0   -1897.3102    44657.537 -0.067234084   -17.036218 -0.041707817    3518.8899    1436.3154    1032.2559    898.55401    28.375694    18.845681    14.341688 0.00039550726 0.0003937738    1.3141738    1.3141406    298.48429     41.49527    35.978931    34.423473    90.016431    119.66323    90.107069    245.48346    237.30436    28.380087    18.849418    14.338503    28.376269    18.845353    14.341808 
  180000    290.45696    1.2509986    3576.9363            0            0            0            0   -324.18364    44657.537 -0.067234084   -17.036218 -0.041707817    3576.9363    1516.5427    978.02733    925.13847     28.37643    18.848497    14.341574 0.00036815767 0.00036635337    1.3533954    1.3533567    290.45696     41.49527    35.978931    34.423473    90.016431    119.66323    90.107069    252.80993     220.8946    28.380485    18.848838    14.340593    28.375279    18.848894    14.339801 
  190000    296.10191    1.2509986    3561.1356            0            0            0            0    1532.6724    44657.537 -0.067234084   -17.036218 -0.041707817    3561.1356     1455.762    1012.7603    932.22088    28.382207     18.85017    14.341832 0.0003345544 0.00033445589    1.2856021    1.2855416    296.10191     41.49527    35.978931    34.423473    90.016431    119.66323    90.107069    240.14636    200.73264    28.379596     18.84922     14.33987     28.38413    18.849686    14.342172 
  200000    297.45796    1.2509986    3564.4086            0            0            0            0    -932.1534    44657.537 -0.067234084   -17.036218 -0.041707817    3564.4086    1499.7535    992.38773    914.60747    28.382766    18.851961    14.343057 0.00038281626 0.00038247735    1.3531192    1.3530217    297.45796     41.49527    35.978931    34.423473    90.016431    119.66323    90.107069    252.75834    229.68976    28.379752     18.84952    14.339429    28.383926    18.852101    14.343322 
  210000    298.15408    1.2509986    3603.6862            0            0            0            0   -1209.2203    44657.537 -0.067234084   -17.036218 -0.041707817    3603.6862    1477.6394    999.76169    962.64738    28.384152    18.844181    14.336896 0.00036135394 0.00035679653    1.2886348    1.2886289    298.15408     41.49527    35.978931    34.423473    90.016431    119.66323    90.107069    240.71285    216.81236      28.3805    18.847107    14.339821    28.381794    18.844088    14.337186 
  220000    302.35281    1.2509986    3596.3621            0            0            0            0   -1269.0134    44657.537 -0.067234084   -17.036218 -0.041707817    3596.3621    1477.4836    1013.4306    943.35894    28.377146    18.853049    14.338198 0.00034842757 0.00034497125    1.2852584    1.2852034    302.35281     41.49527    35.978931    34.423473    90.016431    119.66323    90.107069    240.08216    209.05654    28.380291     18.85072    14.339612    28.377954    18.852585    14.338261 
  230000    295.48607    1.2509986    3569.4736            0            0            0            0    1251.1135    44657.537 -0.067234084   -17.036218 -0.041707817    3569.4736    1489.1808    1010.2412    915.04285    28.378045    18.842954    14.337337 0.0003341973 0.00033332086    1.2329852    1.2329674    295.48607     41.49527    35.978931    34.423473    90.016431    119.66323    90.107069    230.31768    200.51838    28.378899    18.848366    14.339801    28.376484    18.842938    14.336769 
  240000    289.21962    1.2509986    3512.8625            0            0            0            0    263.65982    44657.537 -0.067234084   -17.036218 -0.041707817    3512.8625    1416.7929    1021.5702    922.41611    28.379115    18.852317    14.335332 0.00037128355 0.00036979064    1.3485206    1.3484607    289.21962     41.49527    35.978931    34.423473    90.016431    119.66323    90.107069    251.89933    222.77013    28.378965    18.849022    14.340707    28.380406    18.852766    14.334741 
  250000    298.92039    1.2509986    3612.2462            0            0            0            0    -565.8269    44657.537 -0.067234084   -17.036218 -0.041707817    3612.2462    1456.9114    1057.8719    935.53259    28.381752    18.853258     14.34213 0.0003603088 0.00035752072    1.3057165     1.305669    298.92039     41.49527    35.978931    34.423473    90.016431    119.66323    90.107069    243.90366    216.18528    28.378704    18.850435    14.339837    28.379888    18.851523    14.340566 
  260000    295.86737    1.2509986    3576.4426            0            0            0            0    881.09233    44657.537 -0.067234084   -17.036218 -0.041707817    3576.4426    1526.7121    995.92906    903.06452    28.382233    18.850612    14.342307 0.00034750849 0.00034480668    1.2274349    1.2273883    295.86737     41.49527    35.978931    34.423473    90.016431    119.66323    90.107069     229.2809    208.50509    28.379287    18.849928    14.338299     28.38112    18.850452    14.341746 
  270000    300.22418    1.2509986    3527.1617            0            0            0            0   -712.41771    44657.537 -0.067234084   -17.036218 -0.041707817    3527.1617    1435.6308    990.90718    935.59605    28.380547    18.847048    14.340095 0.00035844159 0.00035729608    1.2992712    1.2992575    300.22418     41.49527    35.978931    34.423473    90.016431    119.66323    90.107069     242.6997    215.06495    28.379859    18.847994    14.339763    28.380392    18.847625    14.340222 
  280000    298.14357    1.2509986    3626.1538            0            0            0            0    623.31973    44657.537 -0.067234084   -17.036218 -0.041707817    3626.1538    1525.4056    1048.1926    903.17057    28.389074    18.855113    14.341019 0.0003457261 0.00034404505    1.3237722    1.3235914    298.14357     41.49527    35.978931    34.423473    90.016431    119.66323    90.107069    247.27641    207.43566    28.379474    18.848093    14.338728     28.38939    18.854029    14.341245 
  290000    296.81883    1.2509986    3620.9133            0            0            0            0   -48.099691    44657.537 -0.067234084   -17.036218 -0.041707817    3620.9133    1473.8794    1045.6847    945.09277    28.381152    18.851208    14.332382 0.00040603876 0.00040519878    1.3020632    1.3020269    296.81883     41.49527    35.978931    34.423473    90.016431    119.66323    90.107069    243.22125    243.62326    28.379556    18.848137    14.339908    28.380475    18.849371    14.332716 
  300000    293.16531    1.2509986    3628.0311            0            0            0            0    116.68724    44657.537 -0.067234084   -17.036218 -0.041707817    3628.0311    1511.3876    999.68729     953.9522    28.379081    18.847624     14.34221 0.00035069434 0.0003489242    1.3025961    1.3025675    293.16531     41.49527    35.978931    34.423473    90.016431    119.66323    90.107069    243.32078     210.4166    28.380012    18.848345    14.338582    28.377872    18.846028    14.342214 
  310000    294.16623    1.2509986     3634.688            0            0            0            0    655.48495    44657.537 -0.067234084   -17.036218 -0.041707817     3634.688    1517.0456    1020.4701    940.82811    28.383352     18.84473    14.340391 0.00037871555 0.00037387043    1.1685696    1.1685053    294.16623     41.49527    35.978931    34.423473    90.016431    119.66323    90.107069    218.28507    227.22933    28.378306    18.847556    14.340714    28.386809    18.846368    14.341084 
  320000    292.73639    1.2509986    3553.5126            0            0            0            0    508.20341    44657.537 -0.067234084   -17.036218 -0.041707817    3553.5126    1473.9402    1029.3857    896.70171     28.38133     18.85019    14.339052 0.00033663876 0.00033482723    1.3353501    1.3353292    292.73639     41.49527    35.978931    34.423473    90.016431    119.66323    90.107069    249.43913    201.98326    28.379397    18.849953    14.338689    28.381621    18.849534    14.338326 
  330000     297.2079    1.2509986    3592.4881            0            0            0            0      715.802    44657.537 -0.067234084   -17.036218 -0.041707817    3592.4881    1496.1688    1009.3154    929.25713    28.376011    18.846439    14.334724 0.0003765006 0.00037587064    1.3254679    1.3254355     297.2079     41.49527    35.978931    34.423473    90.016431    119.66323    90.107069    247.59315    225.90036    28.379269    18.849752    14.339667    28.375268    18.845673    14.333846 
  340000    290.96508    1.2509986    3599.5073            0            0            0            0    1470.4415    44657.537 -0.067234084   -17.036218 -0.041707817    3599.5073    1458.2753     1063.643    921.19388    28.384136    18.849043     14.34283 0.00035858537 0.0003577588    1.4384018    1.4383433    290.96508     41.49527    35.978931    34.423473    90.016431    119.66323    90.107069    268.68886    215.15122    28.379502    18.849607    14.340324    28.383413     18.84968    14.342543 
  350000    298.25875    1.2509986    3544.3892            0            0            0            0    742.91422    44657.537 -0.067234084   -17.036218 -0.041707817    3544.3892    1459.8449    1000.0957    926.52044    28.376474    18.850897      14.3406 0.0003691159 0.00036475197    1.3127636    1.3126999    298.25875     41.49527    35.978931    34.423473    90.016431    119.66323    90.107069    245.22004    221.46954    28.380472    18.850818    14.340154    28.376363     18.84982    14.343004 
  360000    296.75366    1.2509986    3651.4173            0            0            0            0   -921.56757    44657.537 -0.067234084   -17.036218 -0.041707817    3651.4173    1540.5314    1039.8068    910.07154    28.383006    18.851346    14.338417 0.00033492198 0.00033274545    1.2226061    1.2225303    296.75366     41.49527    35.978931    34.423473    90.016431    119.66323    90.107069    228.37891    200.95319    28.380898    18.849214    14.340218    28.384273    18.852892    14.338206 
  370000    303.36193    1.2509986    3513.1795            0            0            0            0   -420.18948    44657.537 -0.067234084   -17.036218 -0.041707817    3513.1795    1449.1176    1016.2877     893.1118    28.377311    18.850168    14.335855 0.00036623455 0.00036317011    1.3252694    1.3252533    303.36193     41.49527    35.978931    34.423473    90.016431    119.66323    90.107069    247.55608    219.74073      28.3807    18.847692     14.33953    28.379159    18.848702    14.334982 
  380000    300.23144    1.2509986    3541.6556            0            0            0            0    1352.5481    44657.537 -0.067234084   -17.036218 -0.041707817    3541.6556    1490.1584    1003.1067    894.27415    28.386861    18.849943    14.337402 0.00041091175 0.00041019852    1.3460803    1.3459927    300.23144     41.49527    35.978931    34.423473    90.016431    119.66323    90.107069     251.4435    246.54705    28.379206    18.849103    14.338875    28.388375    18.849184    14.338018 
  390000    297.52691    1.2509986    3621.7261            0            0            0            0    1414.5652    44657.537 -0.067234084   -17.036218 -0.041707817    3621.7261    1503.4841     1022.114    935.46216    28.392223     18.84819    14.339312 0.00034501232 0.00034393338    1.3219636    1.3217657    297.52691     41.49527    35.978931    34.423473    90.016431    119.66323    90.107069    246.93857    207.00739    28.378596    18.849175    14.339276    28.393061    18.848739    14.340689 
  400000    298.54945    1.2509986    3565.6835            0            0            0            0    844.90423    44657.537 -0.067234084   -17.036218 -0.041707817    3565.6835    1465.4342    1024.8241    920.46244    28.381609    18.847556    14.345148 0.00035953228 0.00035921439    1.3175322    1.3174849    298.54945     41.49527    35.978931    34.423473    90.016431    119.66323    90.107069    246.11079    215.71937    28.379037    18.848975    14.339423    28.382266    18.845548    14.343686 
  410000    295.82092    1.2509986    3598.1399            0            0            0            0   -223.36072    44657.537 -0.067234084   -17.036218 -0.041707817    3598.1399     1494.836    994.16284    947.36052    28.375266    18.855896    14.340082 0.00037865903 0.00037698564    1.3638499    1.3636841    295.82092     41.49527    35.978931    34.423473    90.016431    119.66323    90.107069     254.7628    227.19542     28.38056    18.849495    14.338979     28.37565    18.856912    14.341466 
  420000    299.34921    1.2509986    3519.1497            0            0            0            0    1249.7947    44657.537 -0.067234084   -17.036218 -0.041707817    3519.1497     1492.372    973.77699    897.49379    28.385882    18.844494    14.335876 0.00036336288 0.00036120768    1.2673179    1.2672609    299.34921     41.49527    35.978931    34.423473    90.016431    119.66323    90.107069    236.73092    218.01773    28.378838    18.850234    14.339254    28.386336    18.844431    14.333611 
  430000    298.36091    1.2509986    3671.6017            0            0            0            0   -236.50639    44657.537 -0.067234084   -17.036218 -0.041707817    3671.6017    1481.3424    1088.9514    937.42709    28.386426    18.855599    14.338909 0.00033593476 0.00033511733     1.322551    1.3223612    298.36091     41.49527    35.978931    34.423473    90.016431    119.66323    90.107069     247.0483    201.56085      28.3799    18.849785    14.339317    28.387239    18.856858     14.33952 
  440000    304.80523    1.2509986    3545.3945            0            0            0            0   -21.257361    44657.537 -0.067234084   -17.036218 -0.041707817    3545.3945    1440.7653    1002.6701    939.98149    28.377073    18.851362    14.337905 0.00038499256 0.00038419202      1.27592    1.2758745    304.80523     41.49527    35.978931    34.423473    90.016431    119.66323    90.107069    238.33777    230.99554    28.379813    18.849823    14.339358    28.377627    18.851711    14.338621 
  450000    298.59392    1.2509986    3602.1971            0            0            0            0    1083.5896    44657.537 -0.067234084   -17.036218 -0.041707817    3602.1971    1486.0881    1034.6552    920.18892    28.384228    18.851177    14.339201 0.00037682574 0.00037619466     1.227143    1.2270913    298.59392     41.49527    35.978931    34.423473    90.016431    119.66323    90.107069    229.22638    226.09545    28.380328    18.848915    14.339799    28.384733    18.850072    14.339788 
  460000    300.67065    1.2509986      3549.74            0            0            0            0     372.1291    44657.537 -0.067234084   -17.036218 -0.041707817      3549.74      1472.33    1035.7541    892.88616    28.383819    18.847191     14.34495 0.00038717181 0.00038540112    1.2525043    1.2524278    300.67065     41.49527    35.978931    34.423473    90.016431    119.66323    90.107069    233.96379    232.30309    28.380495    18.848072    14.339704    28.383085    18.847076    14.345215 
  470000    296.42167    1.2509986     3573.746            0            0            0            0    1386.0695    44657.537 -0.067234084   -17.036218 -0.041707817     3573.746    1433.7692    1052.7986     930.1235    28.371518    18.851284    14.339103 0.00036461862 0.00036387743    1.3384587    1.3383412    296.42167     41.49527    35.978931    34.423473    90.016431    119.66323    90.107069    250.01981    218.77117    28.378853    18.848606     14.33992    28.372312    18.852798    14.340026 
  480000    298.73266    1.2509986    3667.0087            0            0            0            0   -891.18813    44657.537 -0.067234084   -17.036218 -0.041707817    3667.0087    1542.7408    1043.1274    924.16276    28.378521    18.849231    14.339287 0.00038394121 0.00038033006    1.2753417    1.2753127    298.73266     41.49527    35.978931    34.423473    90.016431    119.66323    90.107069    238.22974    230.36473    28.378141    18.848767    14.340882    28.379247    18.849369    14.340932 
  490000    298.65664    1.2509986    3583.9699            0            0            0            0    780.74568    44657.537 -0.067234084   -17.036218 -0.041707817    3583.9699    1489.5316    1000.9699    935.50035    28.384092    18.852016    14.337998 0.00034772363  0.000346165    1.3909052    1.3908567    298.65664     41.49527    35.978931    34.423473    90.016431    119.66323    90.107069    259.81663    208.63418    28.378883    18.848357    14.338816    28.383664    18.851141    14.338507 
  500000    301.20206    1.2509986    3649.7233            0            0            0            0    703.26323    44657.537 -0.067234084   -17.036218 -0.041707817    3649.7233    1520.4391    1057.4486    915.44386    28.383172    18.848004    14.338666 0.00037219336 0.0003680398    1.3710153    1.3709902    301.20206     41.49527    35.978931    34.423473    90.016431    119.66323    90.107069    256.10127    223.31601    28.378077     18.85018    14.340413    28.383701    18.848441    14.338339 
  510000    301.47921    1.2509986    3524.1905            0            0            0            0    897.53338    44657.537 -0.067234084   -17.036218 -0.041707817    3524.1905    1481.4995    993.81131    895.31857    28.376762    18.849367    14.337613 0.0003104577 0.00030630786    1.4721809    1.4721424    301.47921     41.49527    35.978931    34.423473    90.016431    119.66323    90.107069    274.99869    186.27462    28.381284    18.848407    14.340531    28.376235    18.850341     14.33871 
  520000    295.56665    1.2509986    3647.7873            0            0            0            0   -8.8259787    44657.537 -0.067234084   -17.036218 -0.041707817    3647.7873    1522.3722    1039.4684    928.44796      28.3769    18.850878    14.334383 0.0003347952 0.00033323908    1.3308156    1.3307791    295.56665     41.49527    35.978931    34.423473    90.016431    119.66323    90.107069     248.5921    200.87712    28.378812    18.848462    14.338802    28.377745    18.849841    14.333634 
  530000     298.5229    1.2509986    3593.8547            0            0            0            0   -75.741704    44657.537 -0.067234084   -17.036218 -0.041707817    3593.8547    1495.0254    966.29389    970.53134    28.379828    18.844121    14.342107 0.00035814631 0.00035745834    1.3880343    1.3879926     298.5229     41.49527    35.978931    34.423473    90.016431    119.66323    90.107069    259.28036    214.88779    28.379715    18.848667    14.340375     28.38084     18.84577    14.343631 
  540000    296.04649    1.2509986    3590.8492            0            0            0            0   -682.12004    44657.537 -0.067234084   -17.036218 -0.041707817    3590.8492    1483.6436    1007.9205    933.85158    28.384759    18.852298    14.338736 0.00035454895 0.00035341596    1.2251784    1.2251182    296.04649     41.49527    35.978931    34.423473    90.016431    119.66323    90.107069    228.85941    212.72937    28.379126    18.849593     14.34042    28.382969    18.852409    14.338719 
  550000    300.73638    1.2509986    3615.6843            0            0            0            0     468.3089    44657.537 -0.067234084   -17.036218 -0.041707817    3615.6843     1476.572    1029.8655     944.4391    28.377543    18.849988    14.341097 0.00035786009 0.00035682448    1.3120065    1.3119295    300.73638     41.49527    35.978931    34.423473    90.016431    119.66323    90.107069    245.07862    214.71606    28.379986    18.848179    14.340033    28.375333    18.851547    14.341744 
  560000    293.11493    1.2509986    3552.4798            0            0            0            0   -31.920803    44657.537 -0.067234084   -17.036218 -0.041707817    3552.4798    1419.5129    1048.7914    925.72891    28.372877    18.847992    14.337413 0.0003460132 0.00034357074    1.3518819    1.3518357    293.11493     41.49527    35.978931    34.423473    90.016431    119.66323    90.107069    252.52721    207.60792    28.380301     18.84764    14.339588    28.373978    18.848952    14.337047 
  570000    296.97952    1.2509986    3546.3024            0            0            0            0    -81.36759    44657.537 -0.067234084   -17.036218 -0.041707817    3546.3024    1485.2695    997.26608    911.01605    28.376906    18.851152     14.33053 0.00036105347 0.00035774467    1.2163426    1.2162569    296.97952     41.49527    35.978931    34.423473    90.016431    119.66323    90.107069    227.20891    216.63208    28.379892    18.848414    14.337954    28.375484    18.849897    14.330381 
  580000    297.30263    1.2509986    3598.9633            0            0            0            0   -1103.7212    44657.537 -0.067234084   -17.036218 -0.041707817    3598.9633      1482.08    1065.4875    899.43245    28.382992    18.844749    14.343425 0.00036918981 0.00036858359    1.1966354     1.196571    297.30263     41.49527    35.978931    34.423473    90.016431    119.66323    90.107069    223.52767    221.51389     28.37995    18.849037    14.338967    28.383658    18.845032    14.344297 
  590000    295.15946    1.2509986    3559.9521            0            0            0            0    913.73041    44657.537 -0.067234084   -17.036218 -0.041707817    3559.9521     1483.617    1005.4187    907.94139    28.374822    18.853479    14.336215 0.00032617803 0.00032587938    1.2095202    1.2094273    295.15946     41.49527    35.978931    34.423473    90.016431    119.66323    90.107069     225.9345    195.70682    28.379276    18.848586    14.339445    28.374587    18.853318    14.335238 
  600000    290.44403    1.2509986     3585.704            0            0            0            0   -1447.8787    44657.537 -0.067234084   -17.036218 -0.041707817     3585.704    1477.1302    1012.0975    935.67591    28.379754    18.845042    14.340743 0.00036352119 0.00036250759    1.3015475     1.301522    290.44403     41.49527    35.978931    34.423473    90.016431    119.66323    90.107069    243.12491    218.11272    28.379677    18.848224    14.339024    28.381659    18.845726    14.341961 
  610000    292.56457    1.2509986    3534.2333            0            0            0            0   -1500.4781    44657.537 -0.067234084   -17.036218 -0.041707817    3534.2333    1466.6842     1016.492    899.50432     28.38086    18.850957    14.345299 0.00039830015 0.00039794171    1.3279592    1.3278331    292.56457     41.49527    35.978931    34.423473    90.016431    119.66323    90.107069    248.05853    238.98009    28.379833    18.848483    14.339604    28.382298    18.850631    14.346925 
  620000    302.45688    1.2509986    3515.5215            0            0            0            0    195.11925    44657.537 -0.067234084   -17.036218 -0.041707817    3515.5215     1439.997    997.88888    924.75989     28.38336    18.851779    14.338427 0.00033691562 0.00033159089    1.3432142    1.3431459    302.45688     41.49527    35.978931    34.423473    90.016431    119.66323    90.107069    250.90811    202.14937    28.379502    18.850741     14.33811     28.38437    18.852294    14.338249 
  630000    303.11444    1.2509986    3562.4939            0            0            0            0    949.91733    44657.537 -0.067234084   -17.036218 -0.041707817    3562.4939    1485.7628    1000.7626    921.82683    28.386038     18.84881    14.341544 0.00035432697 0.00035390191    1.2525996    1.2525334    303.11444     41.49527    35.978931    34.423473    90.016431    119.66323    90.107069     233.9816    212.59618    28.379196    18.848474    14.339567     28.38498    18.847556    14.343193 
  640000    292.90716    1.2509986    3579.1132            0            0            0            0   -1355.2971    44657.537 -0.067234084   -17.036218 -0.041707817    3579.1132    1446.5427    1025.1335     945.9083     28.37702    18.852152    14.333296 0.00032347002 0.00032261023    1.2473977    1.2473493    292.90716     41.49527    35.978931    34.423473    90.016431    119.66323    90.107069     233.0099    194.08201     28.37929    18.848215    14.339248    28.379252    18.850436    14.332422 
  650000    295.68202    1.2509986    3546.8173            0            0            0            0    1060.4108    44657.537 -0.067234084   -17.036218 -0.041707817    3546.8173    1462.8346    1000.9231    922.61093    28.378794    18.856015    14.343436 0.00032936919 0.00032656916    1.3490519    1.3488666    295.68202     41.49527    35.978931    34.423473    90.016431    119.66323    90.107069    251.99858    197.62152    28.380758    18.848119    14.340384    28.379206     18.85743    14.343746 
  660000    297.08009    1.2509986    3551.7623            0            0            0            0    544.80748    44657.537 -0.067234084   -17.036218 -0.041707817    3551.7623    1429.4071    1018.2902    946.09889    28.377333    18.849573    14.336899 0.00033064459 0.00032810403    1.3155645    1.3155423    297.08009     41.49527    35.978931    34.423473    90.016431    119.66323    90.107069    245.74324    198.38675    28.380141    18.849342    14.338192    28.376978    18.848983    14.335897 
  670000    301.59243    1.2509986    3566.9713            0            0            0            0    509.25165    44657.537 -0.067234084   -17.036218 -0.041707817    3566.9713    1461.5521    1041.4659    910.52462    28.381388    18.848289    14.344008 0.00034670441 0.00034572793    1.2390273    1.2389936    301.59243     41.49527    35.978931    34.423473    90.016431    119.66323    90.107069    231.44633    208.02265    28.379962    18.849686    14.340237     28.38226    18.847752    14.342008 
  680000    298.19692    1.2509986    3651.9816            0            0            0            0   -1276.9318    44657.537 -0.067234084   -17.036218 -0.041707817    3651.9816    1477.2008     1044.951    965.89931    28.381684    18.849158    14.333859 0.00036267637 0.0003615506    1.2367605    1.2367365    298.19692     41.49527    35.978931    34.423473    90.016431    119.66323    90.107069     231.0229    217.60582       28.379    18.849728    14.339087    28.379855    18.848867    14.333732 
  690000    304.17103    1.2509986    3562.5447            0            0            0            0      1178.33    44657.537 -0.067234084   -17.036218 -0.041707817    3562.5447    1461.1381    1036.2435    909.95925    28.378272    18.849383    14.334622 0.00037813124 0.00037593249    1.2172484    1.2172244    304.17103     41.49527    35.978931    34.423473    90.016431    119.66323    90.107069     227.3781    226.87875     28.37866    18.847937    14.339151    28.381624    18.848622    14.333979 
  700000    299.74179    1.2509986    3635.5181            0            0            0            0   -725.57405    44657.537 -0.067234084   -17.036218 -0.041707817    3635.5181    1557.9602     1017.865    907.64403    28.380418    18.851625    14.340512 0.00036357797 0.0003631386    1.3036703    1.3036349    299.74179     41.49527    35.978931    34.423473    90.016431    119.66323    90.107069    243.52144    218.14678    28.378942    18.849008    14.339887    28.378711    18.850782    14.339712 
  710000    305.03942    1.2509986    3681.7743            0            0            0            0    904.07814    44657.537 -0.067234084   -17.036218 -0.041707817    3681.7743    1511.2659    1028.9635    975.58055    28.375469    18.836933    14.332523 0.00035783207 0.00035734598    1.2464642    1.2463622    305.03942     41.49527    35.978931    34.423473    90.016431    119.66323    90.107069    232.83553    214.69924    28.379061    18.848812    14.339191    28.375986    18.836856    14.333637 
  720000    301.79813    1.2509986    3495.3614            0            0            0            0   -197.46429    44657.537 -0.067234084   -17.036218 -0.041707817    3495.3614    1440.8923    997.57299     905.9111     28.38619     18.85622    14.340036 0.00036927759 0.00036744078    1.2205264    1.2203511    301.79813     41.49527    35.978931    34.423473    90.016431    119.66323    90.107069    227.99043    221.56656    28.380797    18.848479    14.339526    28.385126    18.857308    14.339914 
  730000    299.36142    1.2509986    3575.6837            0            0            0            0   -418.52228    44657.537 -0.067234084   -17.036218 -0.041707817    3575.6837    1448.4291    1001.8448    959.32963    28.381667    18.847598    14.341362 0.00034259024 0.00033922122    1.2831019    1.2830709    299.36142     41.49527    35.978931    34.423473    90.016431    119.66323    90.107069    239.67933    205.55415    28.380661    18.847915    14.340609    28.380624    18.849416    14.341109 
  740000    299.51542    1.2509986    3642.4884            0            0            0            0    1224.2492    44657.537 -0.067234084   -17.036218 -0.041707817    3642.4884     1495.066    1026.0346    957.35748    28.377315    18.845017    14.337255 0.00034776702 0.00034769651    1.2842691    1.2842646    299.51542     41.49527    35.978931    34.423473    90.016431    119.66323    90.107069    239.89737    208.66021    28.379797    18.849058    14.339535    28.378275    18.844355    14.338239 
  750000    296.46573    1.2509986    3596.5899            0            0            0            0    745.89173    44657.537 -0.067234084   -17.036218 -0.041707817    3596.5899      1498.18    984.22016    953.83676    28.385639    18.854313    14.341937 0.00036770485 0.00036753533    1.2096303    1.2095135    296.46573     41.49527    35.978931    34.423473    90.016431    119.66323    90.107069    225.95508    220.62291    28.379614    18.849266    14.339958    28.383547    18.854693    14.341489 
  760000    298.60701    1.2509986    3567.2292            0            0            0            0    1131.5323    44657.537 -0.067234084   -17.036218 -0.041707817    3567.2292    1464.8936    1034.1592    910.61616     28.37945    18.850508    14.342192 0.00035355959 0.00034993408    1.2981613    1.2981105    298.60701     41.49527    35.978931    34.423473    90.016431    119.66323    90.107069    242.49238    212.13576    28.379518    18.850408    14.340933    28.380945    18.851638    14.340664 
  770000    294.21194    1.2509986    3614.5218            0            0            0            0    296.62388    44657.537 -0.067234084   -17.036218 -0.041707817    3614.5218    1505.9576    1020.3001     931.6203     28.38241     18.84743    14.348449 0.0003639354 0.00036066853    1.2013267    1.2011362    294.21194     41.49527    35.978931    34.423473    90.016431    119.66323    90.107069    224.40398    218.36124     28.38048    18.847661    14.338872    28.383493    18.848579    14.350197 
  780000    294.92019    1.2509986    3589.1481            0            0            0            0    1343.5214    44657.537 -0.067234084   -17.036218 -0.041707817    3589.1481     1492.984    1035.9237    903.39591      28.3778    18.852886    14.337889 0.0003590234 0.00035649958    1.2585305      1.25848    294.92019     41.49527    35.978931    34.423473    90.016431    119.66323    90.107069    235.08947    215.41404    28.378628    18.849083    14.340925    28.376677    18.851831    14.336708 
  790000    296.44001    1.2509986    3607.2611            0            0            0            0    2242.2772    44657.537 -0.067234084   -17.036218 -0.041707817    3607.2611    1484.9964    1019.1675    943.68313    28.378555    18.849797    14.336946 0.00034159877 0.0003405888    1.2564851    1.2564438    296.44001     41.49527    35.978931    34.423473    90.016431    119.66323    90.107069     234.7074    204.95926    28.379052    18.848833    14.340489    28.377643    18.851201    14.335309 
  800000    298.39893    1.2509986    3599.3381            0            0            0            0   -377.43862    44657.537 -0.067234084   -17.036218 -0.041707817    3599.3381    1465.3083    1056.0496    923.74367    28.378361    18.851311    14.337532 0.00036905813 0.00036885842    1.3817025    1.3816627    298.39893     41.49527    35.978931    34.423473    90.016431    119.66323    90.107069    258.09761    221.43488     28.37944     18.84918    14.340036    28.377378    18.851241    14.336449 
  810000    295.64062    1.2509986     3570.074            0            0            0            0   -932.87179    44657.537 -0.067234084   -17.036218 -0.041707817     3570.074    1486.6023    1005.3447    921.53349    28.377997    18.841564    14.342332 0.00036000824 0.00035515172    1.3874123    1.3873519    295.64062     41.49527    35.978931    34.423473    90.016431    119.66323    90.107069    259.16417    216.00495    28.381638    18.849182    14.338935    28.377976    18.839999    14.342457 
  820000    303.11925    1.2509986    3598.6536            0            0            0            0   -382.42867    44657.537 -0.067234084   -17.036218 -0.041707817    3598.6536    1439.7705    1045.1193    953.70898    28.372972     18.84732    14.336953 0.00034005301 0.00033812925    1.3471548    1.3470522    303.11925     41.49527    35.978931    34.423473    90.016431    119.66323    90.107069    251.64421    204.03181     28.37968    18.848019    14.338678    28.369943    18.847299    14.335885 
  830000    292.38001    1.2509986    3528.7959            0            0            0            0   -1498.5493    44657.537 -0.067234084   -17.036218 -0.041707817    3528.7959    1486.6268    1026.9458    864.83276    28.377477    18.844535    14.338165 0.00036619341 0.00036573597    1.4215759     1.421572    292.38001     41.49527    35.978931    34.423473    90.016431    119.66323    90.107069    265.54584    219.71605    28.380165    18.848786     14.33945    28.378054    18.844635    14.336896 
  840000    294.95525    1.2509986    3639.1542            0            0            0            0    325.64274    44657.537 -0.067234084   -17.036218 -0.041707817    3639.1542    1492.8137    1060.9446    932.28664    28.375994    18.851382     14.33628 0.00035648983 0.00035512657    1.3982057    1.3981838    294.95525     41.49527    35.978931    34.423473    90.016431    119.66323    90.107069    261.18035     213.8939    28.378745    18.848291     14.33921    28.377618    18.849454    14.336156 
  850000    298.98558    1.2509986    3528.4765            0            0            0            0     1511.262    44657.537 -0.067234084   -17.036218 -0.041707817    3528.4765    1461.5097    1006.2667    910.48065    28.378975    18.849163    14.337748 0.00038721166 0.00038639635     1.142324    1.1423117    298.98558     41.49527    35.978931    34.423473    90.016431    119.66323    90.107069    213.38246      232.327    28.380425    18.849025    14.339883    28.379013    18.848626     14.33857 
  860000    297.91081    1.2509986    3634.7223            0            0            0            0    121.36678    44657.537 -0.067234084   -17.036218 -0.041707817    3634.7223    1471.2762    1052.8551    952.34187    28.379605     18.84739    14.343301 0.00036749751 0.00036714649    1.2288165    1.2287836    297.91081     41.49527    35.978931    34.423473    90.016431    119.66323    90.107069    229.53899    220.49851    28.379869    18.848823    14.339172    28.378011    18.848075    14.342042 
  870000    296.38847    1.2509986    3612.2533            0            0            0            0   -223.89333    44657.537 -0.067234084   -17.036218 -0.041707817    3612.2533    1483.2589    1007.4604    957.26328    28.378656    18.857449       14.342 0.00039097557 0.00039011589    1.3275412    1.3273739    296.38847     41.49527    35.978931    34.423473    90.016431    119.66323    90.107069    247.98045    234.58534    28.378967    18.849196    14.338946    28.378752    18.857404    14.342152 
  880000    297.95707    1.2509986    3611.3027            0            0            0            0    308.55912    44657.537 -0.067234084   -17.036218 -0.041707817    3611.3027    1489.2115    1041.3699    926.48931    28.374131    18.852718    14.343439 0.0003685828 0.00036811469    1.3370465    1.3369021    297.95707     41.49527    35.978931    34.423473    90.016431    119.66323    90.107069    249.75601    221.14968    28.379788    18.849145    14.340268    28.373264    18.853141      14.3438 
  890000    296.16161    1.2509986    3620.2017            0            0            0            0    2691.1693    44657.537 -0.067234084   -17.036218 -0.041707817    3620.2017    1496.7405     1004.447    951.80499    28.381045    18.846486    14.347083 0.00040469259 0.00040377363     1.294962    1.2948298    296.16161     41.49527    35.978931    34.423473    90.016431    119.66323    90.107069    241.89476    242.81556    28.379516    18.848578    14.340491    28.381113    18.847025    14.348583 
  900000     300.8073    1.2509986    3601.8964            0            0            0            0    279.42456    44657.537 -0.067234084   -17.036218 -0.041707817    3601.8964    1467.0277    1051.2516    928.10485    28.376456    18.846013    14.338567 0.00034791669 0.00034720476    1.2969442    1.2969397     300.8073     41.49527    35.978931    34.423473    90.016431    119.66323    90.107069    242.26503    208.75001    28.379828    18.849529    14.339029    28.378046    18.845453    14.338452 
  910000    298.32205    1.2509986     3555.098            0            0            0            0   -735.35942    44657.537 -0.067234084   -17.036218 -0.041707817     3555.098    1441.7286    1021.6879    934.35251    28.373866      18.8508    14.339346 0.00035741368 0.00035592153    1.2968489    1.2967482    298.32205     41.49527    35.978931    34.423473    90.016431    119.66323    90.107069    242.24723    214.44821    28.379219    18.849607    14.338626    28.373782    18.852917    14.340263 
  920000    290.64749    1.2509986    3629.6978            0            0            0            0   -441.47985    44657.537 -0.067234084   -17.036218 -0.041707817    3629.6978    1532.0562    1011.1368    929.22921    28.374588    18.851275    14.340691 0.00038751149 0.0003871949    1.2395195    1.2394672    290.64749     41.49527    35.978931    34.423473    90.016431    119.66323    90.107069    231.53828     232.5069    28.379212    18.848753    14.339277    28.376224    18.850502    14.341026 
  930000    290.85377    1.2509986    3598.1322            0            0            0            0    2012.5709    44657.537 -0.067234084   -17.036218 -0.041707817    3598.1322    1533.9781     1012.944    891.81839    28.384951    18.848876    14.340277 0.00035425373 0.00035171233    1.2154147    1.2153793    290.85377     41.49527    35.978931    34.423473    90.016431    119.66323    90.107069    227.03558    212.55224    28.379401    18.849187    14.338061    28.383852    18.848435    14.340484 
  940000    298.41253    1.2509986    3647.4674            0            0            0            0    100.61495    44657.537 -0.067234084   -17.036218 -0.041707817    3647.4674    1512.3665    1030.8888    943.47095    28.380873    18.849757    14.340592 0.00036279318 0.0003622685    1.3035981    1.3035482    298.41253     41.49527    35.978931    34.423473    90.016431    119.66323    90.107069    243.50796    217.67591    28.378906    18.849173    14.339913    28.381652    18.849546    14.342739 
  950000    297.19928    1.2509986    3593.6382            0            0            0            0    1960.2716    44657.537 -0.067234084   -17.036218 -0.041707817    3593.6382    1459.1868    1052.5624    928.24335     28.38249    18.850155    14.343142 0.00036578767 0.00036416027    1.3105325    1.3104906    297.19928     41.49527    35.978931    34.423473    90.016431    119.66323    90.107069    244.80329     219.4726    28.380766    18.849299    14.339927    28.383517     18.84784    14.342022 
  960000    289.97353    1.2509986    3541.3019            0            0            0            0   -2497.8973    44657.537 -0.067234084   -17.036218 -0.041707817    3541.3019    1479.9138    1000.1904    906.67858    28.383743     18.84326    14.340208 0.00032215022 0.00032205066    1.2899845    1.2899576    289.97353     41.49527    35.978931    34.423473    90.016431    119.66323    90.107069    240.96498    193.29013    28.379728     18.84909    14.339892    28.384011     18.84389    14.339871 
  970000    303.24998    1.2509986    3575.8947            0            0            0            0     550.6877    44657.537 -0.067234084   -17.036218 -0.041707817    3575.8947    1499.6613    992.69694    929.43788    28.379667    18.843401     14.34658 0.00036746101 0.00036704271    1.3058722     1.305731    303.24998     41.49527    35.978931    34.423473    90.016431    119.66323    90.107069    243.93275     220.4766    28.379614    18.848854    14.339014    28.380969     18.84488    14.349077 
  980000    298.74012    1.2509986    3614.6043            0            0            0            0    887.86875    44657.537 -0.067234084   -17.036218 -0.041707817    3614.6043    1497.4755     1012.162     943.1437    28.379498    18.850067    14.335246 0.00038821439 0.00038708712    1.2565029    1.2564802    298.74012     41.49527    35.978931    34.423473    90.016431    119.66323    90.107069    234.71072    232.92863    28.378798    18.848398    14.339221     28.37822    18.848969    14.334439 
  990000    298.91386    1.2509986    3573.7588            0            0            0            0    814.72605    44657.537 -0.067234084   -17.036218 -0.041707817    3573.7588    1455.8808    1034.8787    925.81539    28.374702    18.850537    14.335597 0.00037350652 0.00037074538    1.2638269    1.2637666    298.91386     41.49527    35.978931    34.423473    90.016431    119.66323    90.107069    236.07883    224.10391    28.381086    18.849421    14.339133    28.374717    18.850855    14.334927 
 1000000    297.64237    1.2509986    3574.2626            0            0            0            0    1022.6126    44657.537 -0.067234084   -17.036218 -0.041707817    3574.2626    1459.0121    1001.8496    954.79423    28.379757    18.844978    14.342876 0.00034803376 0.00034691036    1.3493762    1.3493301    297.64237     41.49527    35.978931    34.423473    90.016431    119.66323    90.107069    252.05915    208.82026    28.378979    18.848666    14.340457    28.380834    18.844931    14.343955 
 1010000    303.05451    1.2509986    3561.9846            0            0            0            0   -1800.8948    44657.537 -0.067234084   -17.036218 -0.041707817    3561.9846    1511.3766    970.06237    920.82132    28.382072    18.844888    14.345832 0.00034892084 0.0003460619     1.213154    1.2130877    303.05451     41.49527    35.978931    34.423473    90.016431    119.66323    90.107069    226.61329     209.3525    28.379467    18.847976    14.338305    28.379977      18.8448    14.345381 
 1020000    303.86711    1.2509986    3611.2373            0            0            0            0    842.34137    44657.537 -0.067234084   -17.036218 -0.041707817    3611.2373    1514.9584    1028.6654    913.26606    28.379329    18.848023     14.33942 0.00035701391 0.00035588188    1.1549895    1.1549815    303.86711     41.49527    35.978931    34.423473    90.016431    119.66323    90.107069    215.74834    214.20834    28.379447    18.848507    14.338709    28.379366    18.847817     14.33877 
 1030000     297.6457    1.2509986    3508.8662            0            0            0            0   -245.78221    44657.537 -0.067234084   -17.036218 -0.041707817    3508.8662    1475.7221     994.1493    883.74933    28.381537    18.857722    14.339829 0.00038957638 0.00038679626    1.2185806    1.2183749     297.6457     41.49527    35.978931    34.423473    90.016431    119.66323    90.107069    227.62696    233.74583    28.380941    18.848378    14.340317    28.380304    18.859801      14.3377 
 1040000    296.78456    1.2509986    3543.6398            0            0            0            0    443.11083    44657.537 -0.067234084   -17.036218 -0.041707817    3543.6398     1494.152    1026.0442    871.60445    28.376257    18.847071    14.343651 0.00036363576 0.00036234029     1.306055    1.3060071    296.78456     41.49527    35.978931    34.423473    90.016431    119.66323    90.107069    243.96689    218.18146    28.380342    18.849795    14.339896     28.37815    18.847168    14.343762 
 1050000     298.4213    1.2509986    3612.4113            0            0            0            0    1554.8509    44657.537 -0.067234084   -17.036218 -0.041707817    3612.4113    1532.4784    1019.6571     910.0943    28.374844    18.849045    14.342698 0.00036365011 0.00036354439    1.3048017    1.3047458     298.4213     41.49527    35.978931    34.423473    90.016431    119.66323    90.107069    243.73277    218.19006    28.379258    18.849093    14.339739    28.373655     18.84715    14.341156 
 1060000    293.33692    1.2509986    3546.6206            0            0            0            0    1420.3745    44657.537 -0.067234084   -17.036218 -0.041707817    3546.6206     1477.688    989.03573    920.09144    28.383064    18.847059    14.341757 0.00032801747 0.00032675982    1.3633183     1.363273    293.33692     41.49527    35.978931    34.423473    90.016431    119.66323    90.107069    254.66349    196.81048    28.380461    18.848674    14.340208    28.384467    18.848189    14.341296 
 1070000    297.48707    1.2509986    3626.8475            0            0            0            0   -763.81132    44657.537 -0.067234084   -17.036218 -0.041707817    3626.8475    1524.5933    1031.3525    915.06383    28.381176    18.851434    14.341753 0.00034723575 0.00034707738    1.3694136    1.3693324    297.48707     41.49527    35.978931    34.423473    90.016431    119.66323    90.107069    255.80207    208.34145    28.379612    18.849339    14.339859    28.378871    18.852817    14.342396 
 1080000    293.81993    1.2509986    3646.1355            0            0            0            0    413.46554    44657.537 -0.067234084   -17.036218 -0.041707817    3646.1355    1477.9659    1055.8085    949.53661    28.381331     18.84606    14.337143 0.00034062718 0.00033826017    1.4485561    1.4485523    293.81993     41.49527    35.978931    34.423473    90.016431    119.66323    90.107069    270.58564    204.37631      28.3784    18.848795    14.338647    28.381403     18.84436    14.337424 
 1090000    301.75557    1.2509986    3561.6822            0            0            0            0   -14.318989    44657.537 -0.067234084   -17.036218 -0.041707817    3561.6822    1507.2806    984.88138    913.65323    28.381094    18.851872    14.329115 0.00031164761 0.00030948219    1.3099883    1.3098656    301.75557     41.49527    35.978931    34.423473    90.016431    119.66323    90.107069    244.70163    186.98857    28.378941    18.850102    14.340413    28.379231    18.851931    14.328281 
 1100000    295.04915    1.2509986    3547.7696            0            0            0            0   -655.70154    44657.537 -0.067234084   -17.036218 -0.041707817    3547.7696    1455.2725    999.75906    936.27686    28.374122    18.850632    14.341254 0.00036303972 0.00036255483    1.2779499    1.2778585    295.04915     41.49527    35.978931    34.423473    90.016431    119.66323    90.107069    238.71695    217.82383    28.379564     18.84836    14.339397    28.372846     18.84954    14.342391 
 1110000    297.74677    1.2509986    3610.2512            0            0            0            0    788.49106    44657.537 -0.067234084   -17.036218 -0.041707817    3610.2512    1464.6755    1016.6111    968.50032      28.3777    18.844004    14.340143 0.00035967031 0.00035781765       1.1937    1.1936764    297.74677     41.49527    35.978931    34.423473    90.016431    119.66323    90.107069    222.97934    215.80219    28.378903    18.849624    14.338612    28.375955    18.844644    14.340102 
 1120000    300.46531    1.2509986    3630.0318            0            0            0            0    3075.6984    44657.537 -0.067234084   -17.036218 -0.041707817    3630.0318    1465.9324     1064.236    939.77328     28.37996    18.851966    14.336752 0.00035641943 0.00035449442    1.3863615    1.3863122    300.46531     41.49527    35.978931    34.423473    90.016431    119.66323    90.107069    258.96789    213.85166    28.380756    18.848408    14.339985     28.37906    18.852318    14.335898 
 1130000    299.37544    1.2509986    3599.2195            0            0            0            0    356.43841    44657.537 -0.067234084   -17.036218 -0.041707817    3599.2195    1493.4353    1019.0927    929.01847    28.377385    18.845919    14.340238 0.00038945902 0.00038838419    1.2987279    1.2986866    299.37544     41.49527    35.978931    34.423473    90.016431    119.66323    90.107069    242.59822    233.67541    28.379271     18.84999    14.339441    28.374504    18.845304    14.340884 
 1140000    299.58768    1.2509986    3540.2443            0            0            0            0   -1149.0188    44657.537 -0.067234084   -17.036218 -0.041707817    3540.2443    1465.3557    1007.7103    913.24688    28.376994     18.85204      14.3419 0.00035276808 0.00035146112    1.4100273    1.4099602    299.58768     41.49527    35.978931    34.423473    90.016431    119.66323    90.107069    263.38858    211.66085     28.37993    18.848893    14.338564    28.378967    18.851473    14.342777 
 1150000    305.91857    1.2509986    3539.8135            0            0            0            0   -129.27165    44657.537 -0.067234084   -17.036218 -0.041707817    3539.8135    1438.3344    1023.1516    920.67137    28.376842    18.843869    14.339425 0.00035897267 0.00035682553    1.3358068     1.335785    305.91857     41.49527    35.978931    34.423473    90.016431    119.66323    90.107069    249.52444     215.3836    28.378445    18.849546    14.338845    28.376254    18.843947     14.33987 
 1160000    301.56712    1.2509986    3633.0196            0            0            0            0    131.29244    44657.537 -0.067234084   -17.036218 -0.041707817    3633.0196    1444.3641    1050.2672    968.21644    28.376962    18.852971    14.336409 0.00035420139 0.00034962221    1.3004114    1.3003423    301.56712     41.49527    35.978931    34.423473    90.016431    119.66323    90.107069    242.91269    212.52083    28.378707    18.850218    14.341189    28.376172    18.852265    14.334136 
 1170000    298.40443    1.2509986    3562.8321            0            0            0            0    648.70066    44657.537 -0.067234084   -17.036218 -0.041707817    3562.8321    1480.4615    1014.7527    914.99197    28.382442    18.852625    14.339934 0.00037628524 0.0003746043    1.2851186    1.2850258    298.40443     41.49527    35.978931    34.423473    90.016431    119.66323    90.107069    240.05604    225.77114    28.378464    18.848366    14.339898    28.383124    18.854019     14.34023 
 1180000    301.49723    1.2509986    3556.2263            0            0            0            0    1440.3053    44657.537 -0.067234084   -17.036218 -0.041707817    3556.2263    1481.5849    1022.5238    901.23439    28.379019    18.851101     14.34068 0.00036495678 0.00036066716    1.2746913    1.2746524    301.49723     41.49527    35.978931    34.423473    90.016431    119.66323    90.107069    238.10826    218.97407    28.378105    18.847537    14.339713    28.377915    18.850895    14.339697 
 1190000     293.7419    1.2509986    3588.5248            0            0            0            0    1005.1139    44657.537 -0.067234084   -17.036218 -0.041707817    3588.5248    1465.8408    1038.8315    931.16249    28.375774    18.853313    14.338731 0.00033514242 0.00033394204    1.3949794    1.3948578     293.7419     41.49527    35.978931    34.423473    90.016431    119.66323    90.107069    260.57768    201.08545    28.378587    18.848518    14.339758    28.373474    18.854431    14.338368 
 1200000    293.13765    1.2509986    3625.2351            0            0            0            0    2294.7492    44657.537 -0.067234084   -17.036218 -0.041707817    3625.2351    1496.3641    1019.9171    947.55991    28.374172    18.849521    14.338086 0.00034250908 0.00033963425     1.275627     1.275565    293.13765     41.49527    35.978931    34.423473    90.016431    119.66323    90.107069    238.28304    205.50545    28.381132     18.84935    14.340167    28.372818    18.849021    14.337959 
 1210000    296.89732    1.2509986     3589.558            0            0            0            0    514.55581    44657.537 -0.067234084   -17.036218 -0.041707817     3589.558    1448.3858    1032.0806       948.45    28.385858    18.843557    14.343361 0.00035089876 0.00034998361    1.3406523    1.3405726    296.89732     41.49527    35.978931    34.423473    90.016431    119.66323    90.107069    250.42956    210.53925    28.380483    18.849209      14.3395    28.386085    18.842898    14.343075 
 1220000    297.18608    1.2509986    3579.9069            0            0            0            0   -1661.4823    44657.537 -0.067234084   -17.036218 -0.041707817    3579.9069    1480.3361    993.58883    941.46401    28.387358    18.845575    14.350495 0.00035953468  0.000356336    1.3185931    1.3183263    297.18608     41.49527    35.978931    34.423473    90.016431    119.66323    90.107069    246.30897    215.72081    28.379567    18.850091    14.341065    28.388079    18.844267    14.351299 
 1230000    303.50013    1.2509986    3610.0558            0            0            0            0    1462.9871    44657.537 -0.067234084   -17.036218 -0.041707817    3610.0558    1505.4393    1019.1761    931.48397    28.384356    18.846754    14.340576 0.00035908583 0.00035880568    1.2926248    1.2925776    303.50013     41.49527    35.978931    34.423473    90.016431    119.66323    90.107069    241.45818     215.4515    28.379924    18.848986    14.339258    28.384649    18.844599    14.342066 
 1240000    296.78064    1.2509986    3574.5451            0            0            0            0    277.38949    44657.537 -0.067234084   -17.036218 -0.041707817    3574.5451    1485.1077    1036.3007    900.03212    28.385126    18.850293    14.339241 0.00035403355 0.00035265257    1.2903276    1.2902483    296.78064     41.49527    35.978931    34.423473    90.016431    119.66323    90.107069    241.02907    212.42013    28.378639    18.849589    14.340094    28.386812    18.850583    14.339301 
 1250000    302.02444    1.2509986    3533.6371            0            0            0            0   -1287.4591    44657.537 -0.067234084   -17.036218 -0.041707817    3533.6371    1487.3386    991.29616    903.30959    28.378845    18.848233     14.33807 0.00037047855 0.00037017059    1.2075165    1.2075117    302.02444     41.49527    35.978931    34.423473    90.016431    119.66323    90.107069    225.56022    222.28713    28.379776    18.849496    14.339475    28.380975    18.846953    14.338397 
 1260000    298.14469    1.2509986    3532.3491            0            0            0            0   -710.03833    44657.537 -0.067234084   -17.036218 -0.041707817    3532.3491    1439.8565     1008.624    930.92505    28.374937    18.851295    14.338811 0.00036170733 0.00036064953    1.2506774    1.2505966    298.14469     41.49527    35.978931    34.423473    90.016431    119.66323    90.107069    233.62253     217.0244    28.379305    18.848338    14.338903    28.376684    18.852512    14.341892 
 1270000    296.35945    1.2509986    3613.5633            0            0            0            0   -539.93586    44657.537 -0.067234084   -17.036218 -0.041707817    3613.5633    1476.5837    1035.1541    945.87088    28.382312    18.847355    14.335625 0.0003561268 0.00035259387    1.2186922    1.2186734    296.35945     41.49527    35.978931    34.423473    90.016431    119.66323    90.107069    227.64781    213.67608    28.380712    18.848082    14.338485     28.38215    18.848653    14.335454 
 1280000    303.97796    1.2509986    3498.0823            0            0            0            0   -681.66401    44657.537 -0.067234084   -17.036218 -0.041707817    3498.0823    1439.2865    1043.6331    869.06932    28.379462    18.849014    14.341957 0.00033976986 0.00033864125    1.2892825    1.2892448    303.97796     41.49527    35.978931    34.423473    90.016431    119.66323    90.107069    240.83384    203.86192    28.378808     18.84851      14.3402    28.378407    18.849879    14.341306 
 1290000    292.02308    1.2509986    3549.3629            0            0            0            0   -1592.1882    44657.537 -0.067234084   -17.036218 -0.041707817    3549.3629    1485.0537    1000.5097    904.41773    28.382158    18.850619    14.337589 0.00036119046 0.0003600184    1.2905655    1.2905355    292.02308     41.49527    35.978931    34.423473    90.016431    119.66323    90.107069     241.0735    216.71428    28.379094    18.849433    14.338754    28.382527    18.850071    14.338482 
 1300000    296.22673    1.2509986    3589.3185            0            0            0            0    360.70209    44657.537 -0.067234084   -17.036218 -0.041707817    3589.3185    1519.2243    993.82208    917.14059    28.381804    18.852518    14.340491 0.0003900157 0.00038954409     1.293093    1.2930336    296.22673     41.49527    35.978931    34.423473    90.016431    119.66323    90.107069    241.54563    234.00942    28.379227    18.848609    14.339191    28.384491    18.850962     14.33997 
 1310000    295.55272    1.2509986    3574.5712            0            0            0            0   -340.30825    44657.537 -0.067234084   -17.036218 -0.041707817    3574.5712    1503.6254     1010.975    903.36748    28.377001    18.849531    14.341029 0.00036491532 0.00036251072    1.3311174    1.3310862    295.55272     41.49527    35.978931    34.423473    90.016431    119.66323    90.107069    248.64847    218.94919    28.379764    18.848997    14.341175    28.377295    18.848874    14.340904 
 1320000    299.09155    1.2509986    3536.4418            0            0            0            0    1006.3182    44657.537 -0.067234084   -17.036218 -0.041707817    3536.4418    1471.6437    1012.2316    898.09622    28.375773    18.845776     14.33837 0.00038536971 0.00038522703    1.3617542    1.3617444    299.09155     41.49527    35.978931    34.423473    90.016431    119.66323    90.107069    254.37133    231.22183    28.379828    18.849233    14.339781    28.376978    18.845484    14.338599 
 1330000    298.20183    1.2509986    3588.6497            0            0            0            0   -1505.4411    44657.537 -0.067234084   -17.036218 -0.041707817    3588.6497    1467.2452    1013.0868    948.65226    28.380648    18.852105    14.340136 0.00038592301 0.00038460035    1.3124712    1.3124139    298.20183     41.49527    35.978931    34.423473    90.016431    119.66323    90.107069    245.16542    231.55381    28.379531    18.850023    14.340187    28.380262    18.852442    14.340194 
 1340000    301.87901    1.2509986    3517.1039            0            0            0            0    1276.3167    44657.537 -0.067234084   -17.036218 -0.041707817    3517.1039    1471.1159    969.09891    920.22678    28.385496    18.850585    14.341368 0.00035526367 0.00035453744    1.2559346    1.2558328    301.87901     41.49527    35.978931    34.423473    90.016431    119.66323    90.107069    234.60457     213.1582    28.380217    18.849274    14.339167    28.386493    18.851554     14.34176 
 1350000    298.72377    1.2509986    3621.2211            0            0            0            0    909.58437    44657.537 -0.067234084   -17.036218 -0.041707817    3621.2211    1523.1735    1026.4193    919.17537    28.382653    18.849083    14.336848 0.00035180433 0.00035173931     1.280765    1.2807285    298.72377     41.49527    35.978931    34.423473    90.016431    119.66323    90.107069     239.2428     211.0826    28.379531    18.849266    14.339659    28.383629    18.850079    14.336462 
 1360000    301.51706    1.2509986    3610.4784            0            0            0            0    486.37321    44657.537 -0.067234084   -17.036218 -0.041707817    3610.4784    1535.8347    1002.4699    920.50306    28.376115    18.854674    14.339409 0.00036039988 0.00035989577    1.3395913    1.3394874    301.51706     41.49527    35.978931    34.423473    90.016431    119.66323    90.107069    250.23137    216.23993    28.379048    18.849322    14.339251    28.375998    18.854745    14.339118 
 1370000    300.21082    1.2509986    3638.6836            0            0            0            0   -580.36942    44657.537 -0.067234084   -17.036218 -0.041707817    3638.6836     1480.945     1069.252    931.11562    28.379609    18.843837    14.335449 0.00038257983 0.00038074333    1.3301158    1.3301106    300.21082     41.49527    35.978931    34.423473    90.016431    119.66323    90.107069    248.46138     229.5479    28.379574    18.848512    14.340897    28.378577    18.845156     14.33536 
 1380000    294.80615    1.2509986    3579.1062            0            0            0            0    565.57887    44657.537 -0.067234084   -17.036218 -0.041707817    3579.1062    1443.5624    1033.0642    945.78101    28.373385    18.848081    14.337601 0.00034580387 0.0003434444    1.2434175    1.2433563    294.80615     41.49527    35.978931    34.423473    90.016431    119.66323    90.107069    232.26641    207.48232     28.37842    18.849312    14.338649    28.372136    18.846995    14.337173 
 1390000    296.97767    1.2509986    3564.5698            0            0            0            0   -484.19746    44657.537 -0.067234084   -17.036218 -0.041707817    3564.5698    1500.0697    1002.9751    909.17842    28.371802    18.844451    14.336992 0.00036350538 0.00036156809    1.3162058    1.3161095    296.97767     41.49527    35.978931    34.423473    90.016431    119.66323    90.107069    245.86303    218.10323    28.380837    18.849506    14.339407    28.370015    18.845466    14.337842 
 1400000    298.72473    1.2509986    3524.8087            0            0            0            0     2024.097    44657.537 -0.067234084   -17.036218 -0.041707817    3524.8087    1470.0553    968.24592    932.23362    28.378922    18.847981    14.343741 0.0003297049 0.00032835096    1.3054251     1.305369    298.72473     41.49527    35.978931    34.423473    90.016431    119.66323    90.107069    243.84922    197.82294    28.378461    18.848621     14.33962    28.379327    18.848217    14.344211 
 1410000     292.3126    1.2509986    3562.3543            0            0            0            0   -661.83839    44657.537 -0.067234084   -17.036218 -0.041707817    3562.3543    1506.4663    1023.3549    879.95126     28.38143    18.851024     14.33957 0.00032666304 0.00032581953    1.2405234     1.240484     292.3126     41.49527    35.978931    34.423473    90.016431    119.66323    90.107069     231.7258    195.99782    28.379143    18.849691      14.3401    28.381672    18.851174    14.339122 
 1420000    295.39992    1.2509986    3550.0692            0            0            0            0    1524.0023    44657.537 -0.067234084   -17.036218 -0.041707817    3550.0692    1448.0148    1021.8606    922.56825    28.372852    18.846671    14.345046 0.00035699533 0.00035683384    1.2541403    1.2540069    295.39992     41.49527    35.978931    34.423473    90.016431    119.66323    90.107069     234.2694     214.1972    28.379283     18.84872    14.339612    28.371955    18.846407    14.345677 
 1430000    302.21478    1.2509986    3609.0272            0            0            0            0    2310.1155    44657.537 -0.067234084   -17.036218 -0.041707817    3609.0272    1480.7069    1035.1203    932.77176    28.384493    18.844625     14.34404 0.00038189717 0.00038028563     1.373389    1.3733203    302.21478     41.49527    35.978931    34.423473    90.016431    119.66323    90.107069    256.54467     229.1383    28.379272    18.850075    14.340272     28.38566     18.84661    14.343023 
 1440000    299.88636    1.2509986    3573.1944            0            0            0            0   -335.42224    44657.537 -0.067234084   -17.036218 -0.041707817    3573.1944    1423.6804    1003.6217    981.57902    28.384672    18.851143    14.340175 0.00036037919 0.00035972024     1.371229    1.3711891    299.88636     41.49527    35.978931    34.423473    90.016431    119.66323    90.107069     256.1412    216.22751      28.3794    18.848979    14.340434    28.382084    18.850936     14.33949 
 1450000    291.95464    1.2509986    3627.4497            0            0            0            0    -279.9629    44657.537 -0.067234084   -17.036218 -0.041707817    3627.4497    1553.7999     1024.975    890.34972    28.385602    18.846906    14.335995 0.00036425174 0.00036398552    1.3630362    1.3629688    291.95464     41.49527    35.978931    34.423473    90.016431    119.66323    90.107069    254.61079    218.55105     28.37981     18.84879    14.340029    28.387685    18.847584    14.336289 
 1460000    295.98085    1.2509986    3535.8929            0            0            0            0    1778.2246    44657.537 -0.067234084   -17.036218 -0.041707817    3535.8929    1413.3158    1042.5775      922.962    28.377358    18.855056    14.338424 0.00038900658 0.00038827936    1.2894025    1.2892999    295.98085     41.49527    35.978931    34.423473    90.016431    119.66323    90.107069    240.85626    233.40395    28.379497    18.849752    14.339217    28.379632    18.855598    14.337016 
 1470000    299.35586    1.2509986    3558.3227            0            0            0            0    968.59396    44657.537 -0.067234084   -17.036218 -0.041707817    3558.3227     1471.783    1002.4806    929.18899    28.384722    18.849737    14.337382 0.00037755318 0.0003771144    1.3349378    1.3348763    299.35586     41.49527    35.978931    34.423473    90.016431    119.66323    90.107069     249.3621    226.53191    28.379876    18.849461     14.33927    28.386332     18.84962    14.338604 
 1480000     290.8426    1.2509986    3592.4103            0            0            0            0   -1185.2871    44657.537 -0.067234084   -17.036218 -0.041707817    3592.4103    1481.2537    1004.6834    944.04369     28.37086     18.85088    14.336766 0.00031678343 0.00031458328     1.276837    1.2767064     290.8426     41.49527    35.978931    34.423473    90.016431    119.66323    90.107069    238.50907    190.07006    28.378981    18.849989    14.338681    28.369576    18.850513    14.336605 
 1490000    291.74234    1.2509986    3475.5597            0            0            0            0   -415.09931    44657.537 -0.067234084   -17.036218 -0.041707817    3475.5597    1435.5141    1003.3823    879.83495    28.374765    18.845373    14.333539 0.00038702207 0.00038616561    1.3176076    1.3175423    291.74234     41.49527    35.978931    34.423473    90.016431    119.66323    90.107069    246.12488    232.21324    28.378994    18.849636    14.339248    28.373318    18.844884    14.332488 
 1500000    300.60571    1.2509986    3545.5617            0            0            0            0    368.12576    44657.537 -0.067234084   -17.036218 -0.041707817    3545.5617    1436.8129    1008.8912    939.47854    28.384125    18.852985    14.336936 0.00038807255 0.00038736819    1.2144156    1.2142935    300.60571     41.49527    35.978931    34.423473    90.016431    119.66323    90.107069    226.84895    232.84353     28.37962    18.849593    14.340241    28.385255    18.854852    14.335148 
 1510000    297.10484    1.2509986    3590.8502            0            0            0            0     562.9008    44657.537 -0.067234084   -17.036218 -0.041707817    3590.8502    1506.6763    1029.3852     902.8537    28.378196    18.848595    14.339702 0.00038477548 0.00038255986    1.2655668    1.2655506    297.10484     41.49527    35.978931    34.423473    90.016431    119.66323    90.107069    236.40382    230.86529    28.379828    18.847553    14.339531    28.377531    18.847564    14.339822 
 1520000    293.51914    1.2509986    3688.9421            0            0            0            0   -716.92665    44657.537 -0.067234084   -17.036218 -0.041707817    3688.9421    1487.2773    1100.2033    944.59559    28.384887    18.849014     14.34064 0.00035285043 0.00035206206     1.277921    1.2778454    293.51914     41.49527    35.978931    34.423473    90.016431    119.66323    90.107069    238.71155    211.71026    28.380269    18.849504    14.339836    28.386535    18.847792    14.342264 
[...]
 1630000    299.32176    1.2509986    3613.7904            0            0            0            0     502.3687    44657.537 -0.067234084   -17.036218 -0.041707817    3613.7904    1460.4467    1052.8276     945.4564    28.378282    18.851991    14.341601 0.00036509585 0.0003643458    1.1948132    1.1947443    299.32176     41.49527    35.978931    34.423473    90.016431    119.66323    90.107069    223.18729    219.05751    28.379432    18.849214    14.338805    28.378203    18.851818    14.342371 
 1640000    291.43526    1.2509986    3528.8339            0            0            0            0    526.93414    44657.537 -0.067234084   -17.036218 -0.041707817    3528.8339    1459.0071    972.74031     939.1951    28.375959    18.844823    14.344416 0.00037183085 0.00037148659     1.267174    1.2671009    291.43526     41.49527    35.978931    34.423473    90.016431    119.66323    90.107069    236.70404    223.09851    28.379218    18.848556    14.339782    28.376199    18.844183      14.3449 
 1650000    299.81192    1.2509986    3582.8851            0            0            0            0   -4.0982752    44657.537 -0.067234084   -17.036218 -0.041707817    3582.8851    1481.0476    1007.9498    930.82036    28.381223    18.846996    14.337681 0.00036615309 0.00036410287    1.2895235    1.2895131    299.81192     41.49527    35.978931    34.423473    90.016431    119.66323    90.107069    240.87885    219.69185    28.380821    18.849361    14.340213    28.382908    18.845435    14.338154 
 1660000     296.1574    1.2509986    3601.6795            0            0            0            0   -1008.4621    44657.537 -0.067234084   -17.036218 -0.041707817    3601.6795    1447.8004    1034.9261    956.57428    28.380482     18.85169    14.341862 0.00036954066 0.00036842169    1.3325048    1.3324182     296.1574     41.49527    35.978931    34.423473    90.016431    119.66323    90.107069    248.90763     221.7244    28.378979    18.848523      14.3389    28.382902     18.85227    14.342817 
 1670000    304.08964    1.2509986    3531.5657            0            0            0            0    1904.6655    44657.537 -0.067234084   -17.036218 -0.041707817    3531.5657    1475.7126    1012.1049    893.10557     28.38301    18.847255    14.339038 0.00034828663 0.00034777512    1.2268331    1.2268178    304.08964     41.49527    35.978931    34.423473    90.016431    119.66323    90.107069     229.1685    208.97198    28.379177    18.849521    14.339307    28.382971    18.845942     14.33953 
 1680000    297.59905    1.2509986    3612.0222            0            0            0            0   -1489.7037    44657.537 -0.067234084   -17.036218 -0.041707817    3612.0222      1439.51    1043.4065    963.93567    28.377228    18.850165    14.339937 0.00033568094 0.00033360314    1.3581344    1.3580791    297.59905     41.49527    35.978931    34.423473    90.016431    119.66323    90.107069    253.69517    201.40856    28.378788    18.850146    14.339186    28.374149    18.850046    14.338786 
 1690000     293.0277    1.2509986    3546.8534            0            0            0            0   -169.48813    44657.537 -0.067234084   -17.036218 -0.041707817    3546.8534    1473.7554    973.33819    943.14832    28.381079    18.847706    14.345119 0.00032788534 0.00032764472     1.332219    1.3321392     293.0277     41.49527    35.978931    34.423473    90.016431    119.66323    90.107069    248.85424     196.7312    28.379069    18.849026    14.339585     28.38209    18.846641    14.345819 
 1700000     298.4138    1.2509986     3619.859            0            0            0            0    479.73778    44657.537 -0.067234084   -17.036218 -0.041707817     3619.859    1486.6694    1030.0312    940.40019    28.376957    18.846782    14.338885 0.0003496926 0.00034937905    1.2519624    1.2519349     298.4138     41.49527    35.978931    34.423473    90.016431    119.66323    90.107069    233.86256    209.81556    28.379242    18.849272    14.340022    28.375351     18.84817    14.336753 
 1710000     301.3663    1.2509986    3557.2018            0            0            0            0    1164.4226    44657.537 -0.067234084   -17.036218 -0.041707817    3557.2018     1469.234    1001.7071    927.83015     28.37669    18.850503    14.336341 0.00034197992 0.00034032664    1.3492735    1.3492268     301.3663     41.49527    35.978931    34.423473    90.016431    119.66323    90.107069    252.03996    205.18795    28.379442    18.848362    14.338535    28.377321    18.851488    14.335206 
 1720000    290.13089    1.2509986    3571.5632            0            0            0            0    333.65174    44657.537 -0.067234084   -17.036218 -0.041707817    3571.5632    1487.7835    994.78083     933.0087    28.376658     18.85628    14.341487 0.00036989375  0.000365616    1.2593178    1.2592066    290.13089     41.49527    35.978931    34.423473    90.016431    119.66323    90.107069    235.23653    221.93625     28.38004    18.850022    14.337899     28.37816     18.85498    14.341513 
 1730000    302.01257    1.2509986    3531.2146            0            0            0            0    241.96636    44657.537 -0.067234084   -17.036218 -0.041707817    3531.2146     1483.394      1042.74    860.66886    28.382911    18.845215    14.335495 0.00039820813 0.00039765728    1.4424359    1.4424258    302.01257     41.49527    35.978931    34.423473    90.016431    119.66323    90.107069    269.44242    238.92488    28.379009    18.848551    14.339832    28.381088     18.84394    14.334775 
 1740000    299.40679    1.2509986    3583.1905            0            0            0            0    1096.6939    44657.537 -0.067234084   -17.036218 -0.041707817    3583.1905     1505.355    1004.7761    918.23639    28.381109    18.847445    14.336099 0.0003762522 0.00037488802    1.3417016    1.3416978    299.40679     41.49527    35.978931    34.423473    90.016431    119.66323    90.107069    250.62557    225.75132    28.379148    18.850107    14.339653    28.380702    18.846647    14.335987 
 1750000    295.56677    1.2509986    3579.0837            0            0            0            0    852.38041    44657.537 -0.067234084   -17.036218 -0.041707817    3579.0837    1521.1726    962.59515    936.01961    28.378745    18.851193    14.342468 0.00032388663 0.00032298819    1.4272311    1.4271662    295.56677     41.49527    35.978931    34.423473    90.016431    119.66323    90.107069    266.60221    194.33198    28.379132      18.8498    14.339323    28.378757    18.852139    14.341672 
 1760000    305.50873    1.2509986    3619.3566            0            0            0            0    1213.2706    44657.537 -0.067234084   -17.036218 -0.041707817    3619.3566    1468.1216    1059.1852    939.24872    28.375072    18.850831    14.339427 0.0003758011 0.00037464149    1.2950052    1.2949471    305.50873     41.49527    35.978931    34.423473    90.016431    119.66323    90.107069    241.90283    225.48066    28.380233    18.849845    14.339737    28.374226     18.85027    14.339231 
 1770000     297.0413    1.2509986     3595.463            0            0            0            0   -193.36343    44657.537 -0.067234084   -17.036218 -0.041707817     3595.463    1487.0097    1026.3898    925.15625    28.373506    18.852128    14.337471 0.00037058756 0.00036903376    1.2961385    1.2960309     297.0413     41.49527    35.978931    34.423473    90.016431    119.66323    90.107069    242.11453    222.35253    28.380064    18.847904    14.339382    28.371293    18.851368    14.337833 
 1780000    298.42739    1.2509986    3536.6303            0            0            0            0    108.86611    44657.537 -0.067234084   -17.036218 -0.041707817    3536.6303     1446.396    1011.0291    919.23909    28.383699    18.846284     14.33774 0.00035812451 0.00035713176    1.3154319    1.3154135    298.42739     41.49527    35.978931    34.423473    90.016431    119.66323    90.107069    245.71847     214.8747    28.379631    18.849958    14.339946    28.383838    18.846836    14.337831 
 1790000     297.4875    1.2509986    3610.5594            0            0            0            0   -1420.0499    44657.537 -0.067234084   -17.036218 -0.041707817    3610.5594     1507.779    1008.5257     937.6801    28.383054    18.850642    14.335616 0.00032838675 0.00032761906    1.3573919    1.3573474     297.4875     41.49527    35.978931    34.423473    90.016431    119.66323    90.107069    253.55646    197.03205    28.378933    18.848593    14.339188    28.383567    18.850967    14.336769 
 1800000    295.95396    1.2509986    3623.1119            0            0            0            0   -417.31335    44657.537 -0.067234084   -17.036218 -0.041707817    3623.1119    1503.1519    998.69642    958.20487    28.384456    18.850315    14.341174 0.00037927394 0.00037890486     1.308043    1.3079766    295.95396     41.49527    35.978931    34.423473    90.016431    119.66323    90.107069    244.33825    227.56436    28.379825     18.84951    14.339414    28.383735    18.851043    14.341738 
 1810000    296.28742    1.2509986    3543.1044            0            0            0            0    241.98775    44657.537 -0.067234084   -17.036218 -0.041707817    3543.1044     1485.457    999.15912    906.99529    28.380503    18.845071    14.344408 0.00036231286 0.00036133969    1.1282667    1.1282073    296.28742     41.49527    35.978931    34.423473    90.016431    119.66323    90.107069     210.7566    217.38772    28.378671    18.848791    14.340013    28.380468    18.847729      14.3446 
 1820000      298.429    1.2509986    3645.1463            0            0            0            0   -752.50436    44657.537 -0.067234084   -17.036218 -0.041707817    3645.1463    1483.5954    1063.8679    933.74273    28.377877    18.846899    14.337411 0.00037092845 0.00037020967    1.2623712    1.2623695      298.429     41.49527    35.978931    34.423473    90.016431    119.66323    90.107069    235.80689    222.55707    28.378919    18.848584    14.339279    28.380063    18.845641     14.33603 
 1830000    301.91928    1.2509986    3588.5579            0            0            0            0    887.64785    44657.537 -0.067234084   -17.036218 -0.041707817    3588.5579    1503.1085    992.79718    936.37363    28.371304    18.853436    14.335008 0.00036691367 0.00036490508    1.3630778    1.3629069    301.91928     41.49527    35.978931    34.423473    90.016431    119.66323    90.107069    254.61856     220.1482    28.379248    18.850178    14.340383    28.370222      18.8542    14.335621 
 1840000    295.71866    1.2509986    3541.1326            0            0            0            0    1226.3455    44657.537 -0.067234084   -17.036218 -0.041707817    3541.1326    1476.0804    1023.5864    886.78679     28.37947    18.849523    14.336284 0.00033905377 0.00033653134    1.4443501     1.444326    295.71866     41.49527    35.978931    34.423473    90.016431    119.66323    90.107069    269.79997    203.43226    28.378924    18.848156    14.340816    28.378372    18.849426    14.334738 
 1850000    295.30563    1.2509986     3611.575            0            0            0            0    -366.2268    44657.537 -0.067234084   -17.036218 -0.041707817     3611.575    1477.2875    1033.5268    939.62434    28.375843    18.851733    14.339314 0.00037008903 0.00036830379    1.2953313    1.2952822    295.30563     41.49527    35.978931    34.423473    90.016431    119.66323    90.107069    241.96374    222.05342    28.378509    18.849131    14.340459    28.375066    18.850422    14.338728 
 1860000    299.46915    1.2509986    3614.7442            0            0            0            0   -1804.5763    44657.537 -0.067234084   -17.036218 -0.041707817    3614.7442     1442.491    1085.1488    931.39057    28.381485     18.84636    14.342661 0.00038164805 0.00037672492    1.4350992    1.4350556    299.46915     41.49527    35.978931    34.423473    90.016431    119.66323    90.107069    268.07193    228.98883    28.378323    18.847317    14.340362    28.380852    18.847213    14.343542 
 1870000    298.90359    1.2509986    3536.0446            0            0            0            0    363.85315    44657.537 -0.067234084   -17.036218 -0.041707817    3536.0446    1427.9316    1029.5518    922.05688    28.380851    18.849599    14.339916 0.00036183544 0.00036135203    1.3701721    1.3701533    298.90359     41.49527    35.978931    34.423473    90.016431    119.66323    90.107069    255.94377    217.10127    28.379754    18.849511    14.339195    28.381133     18.84936    14.338687 
 1880000    300.37708    1.2509986     3532.561            0            0            0            0    1514.8143    44657.537 -0.067234084   -17.036218 -0.041707817     3532.561    1449.6845    1005.5462    919.46509    28.379403    18.845095    14.341941 0.00036417388 0.00036284123    1.3444851      1.34444    300.37708     41.49527    35.978931    34.423473    90.016431    119.66323    90.107069    251.14551    218.50433    28.380272    18.848462    14.338919    28.379044      18.8443    14.343828 
 1890000    293.57487    1.2509986    3535.0425            0            0            0            0   -547.64116    44657.537 -0.067234084   -17.036218 -0.041707817    3535.0425    1408.7848    1043.3133    928.62982    28.379106    18.855651    14.341148 0.00034920011 0.00034898173    1.3082705    1.3081476    293.57487     41.49527    35.978931    34.423473    90.016431    119.66323    90.107069    244.38074    209.52007    28.379907    18.849131    14.339923    28.377969    18.855667    14.341221 
 1900000    293.46799    1.2509986    3582.1091            0            0            0            0    62.536634    44657.537 -0.067234084   -17.036218 -0.041707817    3582.1091    1443.7201    1043.7179    937.09457    28.374189     18.84545    14.340219 0.00035764893 0.00035737319    1.2964715    1.2964224    293.46799     41.49527    35.978931    34.423473    90.016431    119.66323    90.107069    242.17673    214.58936    28.379269    18.849407    14.339444      28.3734     18.84535    14.340083 
 1910000    299.22049    1.2509986    3550.2969            0            0            0            0    16.731196    44657.537 -0.067234084   -17.036218 -0.041707817    3550.2969    1487.0822    986.24567    920.12166    28.382705    18.846678    14.339763 0.00039545733 0.00039422853    1.3209363    1.3209192    299.22049     41.49527    35.978931    34.423473    90.016431    119.66323    90.107069    246.74668     237.2744    28.379345    18.848534    14.340615      28.3824    18.846372     14.34037 
 1920000    300.99915    1.2509986    3585.3199            0            0            0            0    1499.7053    44657.537 -0.067234084   -17.036218 -0.041707817    3585.3199     1452.431    1041.9777     930.3606     28.38012    18.845508    14.338491 0.00036955335 0.00036894647     1.284908     1.284902    300.99915     41.49527    35.978931    34.423473    90.016431    119.66323    90.107069     240.0167    221.73201     28.37899    18.848561    14.339923    28.378445    18.844697    14.339144 
 1930000    299.70382    1.2509986    3511.4158            0            0            0            0   -127.65814    44657.537 -0.067234084   -17.036218 -0.041707817    3511.4158    1462.6505    1001.6869    895.18434    28.380069    18.850651    14.339431 0.00033705692 0.00033697551    1.3378487    1.3377961    299.70382     41.49527    35.978931    34.423473    90.016431    119.66323    90.107069    249.90586    202.23415    28.379673    18.849218    14.339477    28.379136    18.852134    14.340066 
 1940000    298.49674    1.2509986    3546.9099            0            0            0            0     194.3742    44657.537 -0.067234084   -17.036218 -0.041707817    3546.9099    1465.3187    1042.8702    888.47621    28.372232    18.854653     14.34014 0.00035803847 0.00035650148    1.4004442    1.4002634    298.49674     41.49527    35.978931    34.423473    90.016431    119.66323    90.107069     261.5985    214.82308    28.378371    18.848889    14.339297    28.371846    18.855943    14.340064 
 1950000    301.65811    1.2509986     3700.282            0            0            0            0    871.67305    44657.537 -0.067234084   -17.036218 -0.041707817     3700.282    1566.1546    1040.7548    939.34777    28.377657    18.855169    14.343174 0.00036151776 0.00036034084    1.3159546    1.3158109    301.65811     41.49527    35.978931    34.423473    90.016431    119.66323    90.107069     245.8161    216.91065     28.38044    18.849555    14.339318    28.377849    18.855318    14.343812 
 1960000    300.47775    1.2509986    3623.0619            0            0            0            0    3608.9889    44657.537 -0.067234084   -17.036218 -0.041707817    3623.0619     1487.069    1045.9655     932.9649    28.385172    18.850617    14.348376 0.00035383171 0.00035077684    1.2464151    1.2462308    300.47775     41.49527    35.978931    34.423473    90.016431    119.66323    90.107069    232.82635    212.29903    28.378064    18.849918     14.33955     28.38572    18.849067    14.348945 
 1970000    297.54649    1.2509986    3532.2724            0            0            0            0    1538.2254    44657.537 -0.067234084   -17.036218 -0.041707817    3532.2724    1464.3297    1012.8502    900.69289    28.385472    18.851353    14.338508 0.00033947484  0.000338458    1.1994477     1.199377    297.54649     41.49527    35.978931    34.423473    90.016431    119.66323    90.107069    224.05299    203.68491    28.378832    18.848672    14.340252    28.384823    18.852225    14.337485 
 1980000    293.91916    1.2509986    3556.7105            0            0            0            0   -207.93206    44657.537 -0.067234084   -17.036218 -0.041707817    3556.7105    1484.6994    1016.6121    904.23973    28.385192    18.847349     14.33801 0.00036401805 0.00036336631    1.2297845    1.2297309    293.91916     41.49527    35.978931    34.423473    90.016431    119.66323    90.107069    229.71981    218.41083    28.379352    18.848289    14.339346     28.38632    18.848764    14.337939 
 1990000    303.11326    1.2509986    3601.0191            0            0            0            0   -204.27926    44657.537 -0.067234084   -17.036218 -0.041707817    3601.0191    1504.1023    1025.2551    913.58985    28.377326     18.84827    14.345017 0.00036755551 0.00036688494    1.4597437    1.4596654    303.11326     41.49527    35.978931    34.423473    90.016431    119.66323    90.107069    272.67545    220.53331    28.378982    18.849591    14.339717     28.37478    18.848428    14.343915 
 2000000    296.14207    1.2509986    3638.6643            0            0            0            0    1492.2728    44657.537 -0.067234084   -17.036218 -0.041707817    3638.6643    1488.0176    1070.8474    921.97058    28.374019    18.855044    14.335748 0.00036607862 0.00036498708    1.3311518    1.3309677    296.14207     41.49527    35.978931    34.423473    90.016431    119.66323    90.107069    248.65489    219.64717    28.379093    18.849054    14.338703    28.371587    18.856118    14.335503 
Loop time of 3915.16 on 20 procs for 2000000 steps with 4560 atoms

Pair  time (%) = 2854.4 (72.9064)
Bond  time (%) = 343.288 (8.76816)
Neigh time (%) = 77.1123 (1.96958)
Comm  time (%) = 488.892 (12.4871)
Outpt time (%) = 0.532737 (0.013607)
Other time (%) = 150.934 (3.85511)

Nlocal:    228 ave 239 max 215 min
Histogram: 1 0 2 3 2 4 3 2 1 2
Nghost:    5876.15 ave 5929 max 5809 min
Histogram: 1 1 1 2 5 1 4 1 0 4
Neighs:    83954.1 ave 88490 max 76808 min
Histogram: 1 0 0 1 3 6 1 3 3 2

Total # of neighbors = 1679082
Ave neighs/atom = 368.22
Ave special neighs/atom = 10.6316
Neighbor list builds = 15427
Dangerous builds = 0
System init for write_data ...
