LAMMPS data file via write_data, version 15 May 2015, timestep = 1009000

2593 atoms
6 atom types
1728 bonds
4 bond types
864 angles
3 angle types
0 dihedrals
3 dihedral types
0 impropers
1 improper types

-1.5071085438984499e+01 1.5071085438984499e+01 xlo xhi
-1.5071085438984499e+01 1.5071085438984499e+01 ylo yhi
-1.5071085438984499e+01 1.5071085438984499e+01 zlo zhi

Masses

1 15.9994
2 1.00794
3 12.0107
4 1.00794
5 12.0107
6 12.0107

Bond Coeffs # harmonic

1 1000 1
2 469 1.4
3 367 1.08
4 469 0.7

Angle Coeffs # harmonic

1 100 109.47
2 35 120
3 63 120

Dihedral Coeffs # opls

1 0 7.25 0 0
2 0 7.25 0 0
3 0 7.25 0 0

Improper Coeffs # cvff

1 2.5 -1 2

Atoms # full

1991 664 2 4.0999999999999998e-01 -1.2396640706534988e+01 -9.5550820252041504e+00 -1.4687646212508870e+01 1 0 1
39 13 2 4.0999999999999998e-01 -1.4485586001678350e+01 -1.2199483153584907e+01 -1.1989448889886955e+01 1 1 1
934 312 1 -8.1999999999999995e-01 -5.6319711954036773e+00 -9.1618507184210003e+00 -1.4315297991807121e+01 0 0 3
726 242 2 4.0999999999999998e-01 -2.3044543989129647e+00 -5.6978841838529313e+00 -1.2199386462336049e+01 1 3 1
711 237 2 4.0999999999999998e-01 -1.0362738290357912e+01 -1.1165702581405487e+01 -8.9762064159168986e+00 0 3 0
1931 644 2 4.0999999999999998e-01 -9.4136639131651521e+00 -1.0155032886510487e+01 -1.1241281289618396e+01 2 0 0
709 237 1 -8.1999999999999995e-01 -1.0145404664339498e+01 -1.0793211662020667e+01 -8.0739794481764093e+00 0 3 0
1930 644 1 -8.1999999999999995e-01 -8.5510995857930219e+00 -1.0544093989392003e+01 -1.1564717809455054e+01 2 0 0
1990 664 1 -8.1999999999999995e-01 -1.3167433950612365e+01 -1.0191125552364955e+01 -1.4651268939211848e+01 1 0 1
1679 560 2 4.0999999999999998e-01 -1.0515953061014336e+01 -1.2547476924227613e+01 -1.1111343631620496e+01 1 2 1
392 131 2 4.0999999999999998e-01 -8.6600105125795093e+00 -9.3468874265273616e+00 -1.2759455225492674e+01 0 0 1
391 131 1 -8.1999999999999995e-01 -8.4200931443778586e+00 -8.6354771192849142e+00 -1.3420009487317170e+01 0 0 1
1780 594 1 -8.1999999999999995e-01 -1.3064888657251608e+01 -1.0532224283109260e+01 -9.7569513448441381e+00 1 3 1
1680 560 2 4.0999999999999998e-01 -1.1485811158999493e+01 -1.3465577877866082e+01 -1.0171618082695741e+01 1 2 1
899 300 2 4.0999999999999998e-01 -9.0316965477268276e+00 -1.1789378906621442e+01 -1.2646655965451323e+01 1 0 0
898 300 1 -8.1999999999999995e-01 -9.4127259854037391e+00 -1.2368357272115958e+01 -1.3367487097970471e+01 1 0 0
900 300 2 4.0999999999999998e-01 -8.9327100250531632e+00 -1.3245538905249724e+01 -1.3379061536651658e+01 1 0 0
1678 560 1 -8.1999999999999995e-01 -1.0582393800660942e+01 -1.3043218852869526e+01 -1.0245420743184713e+01 1 2 1
269 90 2 4.0999999999999998e-01 -1.1452733612311530e+01 -9.1301899257865031e+00 -1.2098121595728474e+01 2 1 0
480 160 2 4.0999999999999998e-01 -1.2539108508913852e+01 -1.2511235724524441e+01 -1.2986269973801145e+01 0 3 0
1252 418 1 -8.1999999999999995e-01 -8.7617170350742377e+00 -1.4819990977082425e+01 -9.0542302144618709e+00 -1 3 0
38 13 2 4.0999999999999998e-01 -1.3806750083384021e+01 -1.0993694561273795e+01 -1.2856555492738359e+01 1 1 1
210 70 2 4.0999999999999998e-01 -6.8826824358153864e+00 -5.4661889261564607e+00 -1.3019871837424589e+01 -2 0 1
1362 454 2 4.0999999999999998e-01 -1.3618891015399015e+01 -9.0564616635216222e+00 -9.1100316843619602e+00 -1 0 1
1782 594 2 4.0999999999999998e-01 -1.3482796713540482e+01 -1.1052067191645300e+01 -1.0502010461925092e+01 1 3 1
1454 485 2 4.0999999999999998e-01 -8.7123337300572565e+00 -6.6943025647962475e+00 -1.3439245065080105e+01 0 1 -1
268 90 1 -8.1999999999999995e-01 -1.0969890802722063e+01 -9.3936222223647654e+00 -1.1262979007940931e+01 2 1 0
336 112 2 4.0999999999999998e-01 -7.9311304090116046e+00 -6.3387906963352751e+00 -9.7955809889119045e+00 -1 0 2
270 90 2 4.0999999999999998e-01 -1.1080594560236730e+01 -8.6773995423793195e+00 -1.0573945881413488e+01 2 1 0
335 112 2 4.0999999999999998e-01 -8.6587424768846759e+00 -6.2844268545892508e+00 -1.1256486014155048e+01 -1 0 2
2227 743 1 -8.1999999999999995e-01 -1.1029697080351973e+01 -8.2324874569144768e+00 -1.4214822155207193e+01 -1 -2 0
415 139 1 -8.1999999999999995e-01 -1.1128821283281091e+01 -5.3386714432889288e+00 -1.4019481295313444e+01 0 3 1
1777 593 1 -8.1999999999999995e-01 -1.0631639385132203e+00 -1.4283442110969425e+01 -8.1143073327754323e+00 2 0 0
37 13 1 -8.1999999999999995e-01 -1.3700522042050180e+01 -1.1583673548153715e+01 -1.2056157282591318e+01 1 1 1
2229 743 2 4.0999999999999998e-01 -1.1287939430695328e+01 -7.2957850800464117e+00 -1.4451246409470462e+01 -1 -2 0
1138 380 1 -8.1999999999999995e-01 -1.0485919814625955e+01 -7.8995814741100370e+00 -8.8312855904917242e+00 -2 1 -1
1781 594 2 4.0999999999999998e-01 -1.2139031892150815e+01 -1.0259897897478133e+01 -1.0018914085200478e+01 1 3 1
1453 485 1 -8.1999999999999995e-01 -8.5918762286594763e+00 -5.7875198030076458e+00 -1.3035225374667039e+01 0 1 -1
1455 485 2 4.0999999999999998e-01 -9.2029146967416899e+00 -5.1374887531732565e+00 -1.3486986959562500e+01 0 1 -1
1139 380 2 4.0999999999999998e-01 -9.9182805476811708e+00 -7.4342486243455177e+00 -9.5104379468244513e+00 -2 1 -1
416 139 2 4.0999999999999998e-01 -1.1627940576008527e+01 -5.1335822495964560e+00 -1.4861392954455297e+01 0 3 1
417 139 2 4.0999999999999998e-01 -1.1769453421519364e+01 -5.6598203262781421e+00 -1.3322021075745985e+01 0 3 1
2228 743 2 4.0999999999999998e-01 -1.0033175877426405e+01 -8.3019906227411724e+00 -1.4168869002737452e+01 -1 -2 0
334 112 1 -8.1999999999999995e-01 -8.7916743106966031e+00 -6.4802859584823196e+00 -1.0284907283177342e+01 -1 0 2
1988 663 2 4.0999999999999998e-01 -1.4793920579762842e+01 -7.2069533948523663e+00 -1.0000157457737025e+01 0 1 0
2322 774 2 4.0999999999999998e-01 -6.1321944547446741e+00 -6.0776860073216241e+00 -1.4910819186409597e+01 0 2 1
1360 454 1 -8.1999999999999995e-01 -1.3984721174820431e+01 -8.1485576073355759e+00 -8.9053968465970321e+00 -1 0 1
256 86 1 -8.1999999999999995e-01 -1.2550762610604076e+01 -1.5062295879287749e+01 -9.7477830351679948e+00 1 2 0
2116 706 1 -8.1999999999999995e-01 -1.4511273233033062e+01 -1.1288654742980142e+01 -7.5853407255128902e+00 2 1 0
257 86 2 4.0999999999999998e-01 -1.3397217045874701e+01 -1.4866996058527761e+01 -9.2524349170086353e+00 1 2 0
936 312 2 4.0999999999999998e-01 -5.6005269559069362e+00 -1.0159183492953606e+01 -1.4249453189851973e+01 0 0 3
1140 380 2 4.0999999999999998e-01 -1.0186354656003166e+01 -8.8493636921866852e+00 -8.7408901246533759e+00 -2 1 -1
2462 821 2 4.0999999999999998e-01 -1.9512744911378412e+00 -1.2348856530015272e+01 -1.4544075492843364e+01 0 2 1
644 215 2 4.0999999999999998e-01 -1.4733977604287242e+01 -9.1067286393738183e+00 -1.4375005044070143e+01 0 0 1
1326 442 2 4.0999999999999998e-01 -1.3205041486246978e+01 -1.4336539315246924e+01 -1.4051992417655798e+01 1 0 3
918 306 2 4.0999999999999998e-01 -1.3601472037176773e+01 -6.0201855642082194e+00 -1.1282704838382557e+01 2 1 1
2153 718 2 4.0999999999999998e-01 -3.4144770953478645e+00 -1.0324078699348295e+01 -1.1198125122799000e+01 -2 2 2
478 160 1 -8.1999999999999995e-01 -1.1988271964239056e+01 -1.3169310018002207e+01 -1.3499606344482315e+01 0 3 0
2077 693 1 -8.1999999999999995e-01 -1.2410968841416885e+00 -7.8300062331657649e+00 -7.9480421275661834e+00 1 1 0
1779 593 2 4.0999999999999998e-01 -1.6920194362124619e-01 -1.3959831754710773e+01 -8.4243157307051284e+00 2 0 0
157 53 1 -8.1999999999999995e-01 -8.1690818668487886e-01 -8.0249823808281704e+00 -1.0990147691157869e+01 -4 0 0
2185 729 1 -8.1999999999999995e-01 -7.6986954247889043e+00 -1.4458995536727061e+01 -1.3358326680311164e+01 -1 0 1
1361 454 2 4.0999999999999998e-01 -1.3518618976168346e+01 -7.7743165311719276e+00 -8.1037178345571874e+00 -1 0 1
479 160 2 4.0999999999999998e-01 -1.1021333605578546e+01 -1.2926010367408129e+01 -1.3423236257662079e+01 0 3 0
2118 706 2 4.0999999999999998e-01 -1.3696434158938235e+01 -1.1038750494630985e+01 -8.1083914242994517e+00 2 1 0
1254 418 2 4.0999999999999998e-01 -9.2881550436625560e+00 -1.4169636433881870e+01 -9.6018604786451309e+00 -1 3 0
1267 423 1 -8.1999999999999995e-01 -5.9184266649574528e+00 -1.2047515917936536e+01 -1.1683453555688958e+01 0 2 1
1932 644 2 4.0999999999999998e-01 -7.8477885685958979e+00 -1.0424014771861520e+01 -1.0864052764228688e+01 2 0 0
2219 740 2 4.0999999999999998e-01 -4.4654713795936392e+00 -1.2179625870368078e+01 -1.4011176163667891e+01 -1 2 1
1643 548 2 4.0999999999999998e-01 -5.5471593617881645e+00 -5.8328091686213206e+00 -9.9647102608949965e+00 -2 2 1
2241 747 2 4.0999999999999998e-01 -1.4997955664788059e+00 -9.0828120995389483e+00 -1.4584095182260343e+01 0 -1 -2
2187 729 2 4.0999999999999998e-01 -7.1990298343185195e+00 -1.4406246387647158e+01 -1.4222935679416398e+01 -1 0 1
724 242 1 -8.1999999999999995e-01 -2.8615685968392501e+00 -6.4756251964332794e+00 -1.1908285808529897e+01 1 3 1
2464 822 1 -8.1999999999999995e-01 -2.7500061654750318e+00 -7.8472391922451905e+00 -1.4304318445604261e+01 1 1 -1
2465 822 2 4.0999999999999998e-01 -2.9260663156168434e+00 -7.4907304993334423e+00 -1.3386766663597244e+01 1 1 -1
2186 729 2 4.0999999999999998e-01 -7.0489535501819791e+00 -1.4475950285129271e+01 -1.2598362920232198e+01 -1 0 1
158 53 2 4.0999999999999998e-01 -1.2227598195643825e+00 -7.3087497407366353e+00 -1.1557855511425831e+01 -4 0 0
725 242 2 4.0999999999999998e-01 -3.6561279444671211e+00 -6.1445272304961094e+00 -1.1399319708064191e+01 1 3 1
1253 418 2 4.0999999999999998e-01 -8.1260779014746483e+00 -1.4321568008664245e+01 -8.4647097875572150e+00 -1 3 0
2537 846 2 4.0999999999999998e-01 -6.5001518055046130e+00 -1.0147045865201493e+01 -8.9404296777318706e+00 2 1 -1
208 70 1 -8.1999999999999995e-01 -6.0176843391026313e+00 -5.0736984374192993e+00 -1.3332484085145532e+01 -2 0 1
2536 846 1 -8.1999999999999995e-01 -6.7212168516896611e+00 -9.6008635841549683e+00 -9.7483975407580505e+00 2 1 -1
916 306 1 -8.1999999999999995e-01 -1.2911540342576824e+01 -5.7848288278714968e+00 -1.1967247333939422e+01 2 1 1
2538 846 2 4.0999999999999998e-01 -5.9470938489543723e+00 -9.6135404104343127e+00 -1.0381303375364368e+01 2 1 -1
227 76 2 4.0999999999999998e-01 -2.3594074809317647e+00 -1.2045503023985452e+01 -1.2583371403144813e+01 0 2 0
961 321 1 -8.1999999999999995e-01 -1.5350573745080816e+00 -1.0768990874974707e+01 -1.1978956130810861e+01 -1 1 2
935 312 2 4.0999999999999998e-01 -4.7419167340620092e+00 -8.7828613070584662e+00 -1.4061985965644633e+01 0 0 3
1642 548 1 -8.1999999999999995e-01 -4.8688188357878008e+00 -5.2798119201558293e+00 -1.0448492319074379e+01 -2 2 1
2577 859 2 4.0999999999999998e-01 -6.8883260101806094e+00 -7.8490321386248443e+00 -9.2701114946290541e+00 -1 3 2
2218 740 1 -8.1999999999999995e-01 -5.3505270104086708e+00 -1.2023363863488008e+01 -1.4449645776804742e+01 -1 2 1
2152 718 1 -8.1999999999999995e-01 -4.1548320714298725e+00 -9.7412543469197033e+00 -1.0863181592562896e+01 -2 2 2
393 131 2 4.0999999999999998e-01 -7.5285906701595788e+00 -8.8419869653160053e+00 -1.3823214059663890e+01 0 0 1
2575 859 1 -8.1999999999999995e-01 -6.5582959698761254e+00 -6.9548829624456516e+00 -8.9674989821594373e+00 -1 3 2
1787 596 2 4.0999999999999998e-01 -5.9805242670163761e+00 -1.3969550136338761e+01 -1.1000197963652134e+01 0 1 0
2576 859 2 4.0999999999999998e-01 -6.1900575924369114e+00 -7.0316102895926758e+00 -8.0409406620512058e+00 -1 3 2
2154 718 2 4.0999999999999998e-01 -3.8898254457832664e+00 -9.3353912481388761e+00 -9.9885139307297539e+00 -2 2 2
1268 423 2 4.0999999999999998e-01 -6.2079851413313811e+00 -1.1956399804609287e+01 -1.2636265511792850e+01 0 2 1
962 321 2 4.0999999999999998e-01 -9.4436378656573972e-01 -1.1338663896961133e+01 -1.1407510031939701e+01 -1 1 2
2487 829 2 4.0999999999999998e-01 -1.4859965457848174e+01 -6.0225553190929642e+00 -1.2843064833113292e+01 0 1 -1
228 76 2 4.0999999999999998e-01 -2.8381261314758479e+00 -1.3603993910503416e+01 -1.2490889995878113e+01 0 2 0
226 76 1 -8.1999999999999995e-01 -2.7577607691974908e+00 -1.2808833013524040e+01 -1.3091936944842006e+01 0 2 0
1269 423 2 4.0999999999999998e-01 -5.2709030979780351e+00 -1.1318748472829594e+01 -1.1460724691566746e+01 0 2 1
159 53 2 4.0999999999999998e-01 -1.2125781259554564e+00 -7.9872271075376595e+00 -1.0072532996287503e+01 -4 0 0
963 321 2 4.0999999999999998e-01 -1.2740307459995481e+00 -9.8092439711921120e+00 -1.1875284104569545e+01 -1 1 2
1686 562 2 4.0999999999999998e-01 -2.5777641715762005e+00 -1.2605070967486171e+01 -8.3732948107883161e+00 0 3 0
1684 562 1 -8.1999999999999995e-01 -2.9813210141907511e+00 -1.1823939774536827e+01 -7.8968781698334158e+00 0 3 0
1987 663 1 -8.1999999999999995e-01 -1.5014781155782188e+01 -6.3670970541034801e+00 -1.0495999004068691e+01 0 1 0
1786 596 1 -8.1999999999999995e-01 -6.0395877724575051e+00 -1.4967533668391557e+01 -1.1023377121894598e+01 0 1 0
2230 744 1 -8.1999999999999995e-01 -2.6894473422862930e-01 -1.1531523685547631e+01 -9.5417644471118273e+00 -3 2 3
2466 822 2 4.0999999999999998e-01 -2.6131803572818697e+00 -7.0853169082711895e+00 -1.4937366687203641e+01 1 1 -1
94 32 1 -8.1999999999999995e-01 -5.6505125749768830e+00 -1.0834806622712108e+01 -7.6066365541509722e+00 0 2 0
722 241 2 4.0999999999999998e-01 -1.4033184328349670e+01 -5.8088952286898436e+00 -1.4507170664317629e+01 -1 1 -3
2239 747 1 -8.1999999999999995e-01 -6.9721251917667537e-01 -9.5295426608544744e+00 -1.4979429423538589e+01 0 -1 -2
737 246 2 4.0999999999999998e-01 -9.1977675006389585e+00 -1.1494306023349875e+01 -1.5019427091832499e+01 1 2 0
1212 404 2 4.0999999999999998e-01 -1.0348367501318645e+01 -1.3015472047972899e+01 -5.8574204601024800e+00 0 1 0
1210 404 1 -8.1999999999999995e-01 -1.1192043157608692e+01 -1.2607539887392237e+01 -6.2064185490615049e+00 0 1 0
1426 476 1 -8.1999999999999995e-01 -1.1935366130733918e+01 -1.3618099357076995e+01 -3.6318103981071186e+00 2 1 -1
1427 476 2 4.0999999999999998e-01 -1.0996337910160292e+01 -1.3788872535400852e+01 -3.3333821583591696e+00 2 1 -1
1192 398 1 -8.1999999999999995e-01 -7.9406243706183268e+00 -6.3450141276547622e+00 -1.9441048326581036e+00 0 1 2
452 151 2 4.0999999999999998e-01 -1.0903831323470937e+01 -7.5951253991959131e+00 -3.4123828597063959e+00 1 -1 0
1751 584 2 4.0999999999999998e-01 -1.3207621043129125e+01 -9.8846624834678263e+00 -4.9233306273833968e+00 0 3 1
221 74 2 4.0999999999999998e-01 -7.1561627721371401e+00 -1.1819328218948883e+01 -4.6652694117763573e+00 1 3 -1
453 151 2 4.0999999999999998e-01 -1.1041879881277129e+01 -9.1662131138214704e+00 -3.8357553051042022e+00 1 -1 0
222 74 2 4.0999999999999998e-01 -8.7325172058008906e+00 -1.2159149057656659e+01 -4.4078851112918009e+00 1 3 -1
1127 376 2 4.0999999999999998e-01 -3.3531037429539250e+00 -1.4152997591647996e+01 -5.0929480115782937e+00 1 0 2
1255 419 1 -8.1999999999999995e-01 -9.4673944517106392e+00 -1.4581134156944620e+01 -5.7478250074125832e+00 1 1 1
1428 476 2 4.0999999999999998e-01 -1.2301165804556966e+01 -1.2825435659684443e+01 -3.1440894213887312e+00 2 1 -1
1750 584 1 -8.1999999999999995e-01 -1.2226196531942193e+01 -1.0041298335288657e+01 -5.0340918413319944e+00 0 3 1
220 74 1 -8.1999999999999995e-01 -8.0519689112412234e+00 -1.1916008679479141e+01 -5.0990679095454983e+00 1 3 -1
782 261 2 4.0999999999999998e-01 -9.7559316093963950e+00 -1.2462070125431758e+01 -1.6043664290452693e+00 0 2 1
33 11 2 4.0999999999999998e-01 -1.3147691918480358e+01 -1.0653810052959077e+01 -1.5190481470452699e+00 1 1 1
451 151 1 -8.1999999999999995e-01 -1.0556788934006246e+01 -8.5185005869566162e+00 -3.2482587451890623e+00 1 -1 0
2457 819 2 4.0999999999999998e-01 -1.1617102923708011e+01 -8.1855106937227653e+00 -6.0765489875562881e+00 2 1 1
31 11 1 -8.1999999999999995e-01 -1.3229176128957832e+01 -1.1649602566284807e+01 -1.4771615431279628e+00 1 1 1
560 187 2 4.0999999999999998e-01 -7.4670980025823095e+00 -1.3211546782719990e+01 -6.3548347086787338e+00 0 1 3
1070 357 2 4.0999999999999998e-01 -7.9383832850622262e+00 -9.7833186893747115e+00 -5.3791327969791212e+00 -2 0 1
1752 584 2 4.0999999999999998e-01 -1.2079472053477469e+01 -1.0807682146183042e+01 -5.6594914439690633e+00 0 3 1
2455 819 1 -8.1999999999999995e-01 -1.1737283786947767e+01 -7.3430705700417684e+00 -6.6017614145975969e+00 2 1 1
1685 562 2 4.0999999999999998e-01 -2.2664067620530375e+00 -1.1329297482370828e+01 -7.4026884272708493e+00 0 3 0
1410 470 2 4.0999999999999998e-01 -9.6273426914083551e+00 -8.7079126276606100e+00 -1.7424270676151803e+00 0 2 0
1193 398 2 4.0999999999999998e-01 -8.0557017224384690e+00 -6.3961099419077545e+00 -2.9361448077358947e+00 0 1 2
1069 357 1 -8.1999999999999995e-01 -8.3783474885104230e+00 -9.0791677695312263e+00 -5.9364476847693322e+00 -2 0 1
783 261 2 4.0999999999999998e-01 -8.6116112844726054e+00 -1.3546168079903730e+01 -2.0308413884930125e+00 0 2 1
1023 341 2 4.0999999999999998e-01 -1.4734552465889815e+01 -8.9949062921863838e+00 -7.8970890146182882e-01 0 0 1
781 261 1 -8.1999999999999995e-01 -9.4612012525618141e+00 -1.3101490267202291e+01 -2.3144881132241331e+00 0 2 1
1755 585 2 4.0999999999999998e-01 -1.4373869293617917e+01 -9.2603312521062371e+00 -3.0563592645805198e+00 1 -1 2
1408 470 1 -8.1999999999999995e-01 -8.8477381910550470e+00 -8.8332627239825676e+00 -1.1288301844672972e+00 0 2 0
32 11 2 4.0999999999999998e-01 -1.4195773345013782e+01 -1.1903877178015360e+01 -1.4450502979262190e+00 1 1 1
329 110 2 4.0999999999999998e-01 -1.2310158684748103e+01 -5.9470605484218044e+00 -6.0068480982143608e+00 0 0 1
1211 404 2 4.0999999999999998e-01 -1.1896239038772073e+01 -1.2640072485218560e+01 -5.4971606964115605e+00 0 1 0
1514 505 2 4.0999999999999998e-01 -1.4911921235362614e+01 -5.7350571808841924e+00 -4.6259888390551502e+00 0 2 -1
710 237 2 4.0999999999999998e-01 -1.0555171323496733e+01 -1.1370336622902112e+01 -7.3675695339290233e+00 0 3 0
1151 384 2 4.0999999999999998e-01 -4.1456116514726205e-01 -1.4621860178668044e+01 -5.2649508237635469e+00 0 1 0
1733 578 2 4.0999999999999998e-01 -1.0928769518593956e+01 -5.3607398007290232e+00 -2.7501072600651995e+00 1 -1 -1
1409 470 2 4.0999999999999998e-01 -8.1645845298347908e+00 -9.4135774495028954e+00 -1.5721504554483232e+00 0 2 0
1126 376 1 -8.1999999999999995e-01 -4.3146502437371552e+00 -1.4359265452150531e+01 -4.9116228672742395e+00 1 0 2
2573 858 2 4.0999999999999998e-01 -3.2368744806717711e+00 -1.0218435694955893e+01 -4.1073213675749276e+00 -1 3 -2
96 32 2 4.0999999999999998e-01 -6.2789302467339745e+00 -1.1604540797148930e+01 -7.4943982955893791e+00 0 2 0
2157 719 2 4.0999999999999998e-01 -8.6151998282357418e+00 -7.7172293848405529e+00 -4.9973501993295173e+00 -1 0 -1
1698 566 2 4.0999999999999998e-01 -1.3304979321786119e+01 -1.4795406495237966e+01 -3.3429529962894833e+00 0 1 1
2155 719 1 -8.1999999999999995e-01 -8.4065897468153921e+00 -6.7895908045094799e+00 -4.6875673402644136e+00 -1 0 -1
2535 845 2 4.0999999999999998e-01 -5.9025677993989802e+00 -1.4240550614458950e+01 -9.0188095619347841e-01 -2 1 1
2135 712 2 4.0999999999999998e-01 -2.1571791233747692e+00 -6.5414843346453644e+00 -4.8901195730900060e+00 0 3 -1
2136 712 2 4.0999999999999998e-01 -1.7356313059439330e+00 -7.1014438611622843e+00 -3.4152090714730932e+00 0 3 -1
260 87 2 4.0999999999999998e-01 -3.2969052126131189e+00 -7.3749184432657602e+00 -8.7028449719821843e-01 -1 1 1
808 270 1 -8.1999999999999995e-01 -3.3635044665203591e+00 -1.1295837783290743e+01 -2.9624471346759940e-01 1 1 1
1128 376 2 4.0999999999999998e-01 -4.7193075042609571e+00 -1.4795391639848745e+01 -5.7153910868041908e+00 1 0 2
1713 571 2 4.0999999999999998e-01 -6.7221701250116528e+00 -6.1540548043783367e+00 -4.5426207225539077e+00 2 1 1
328 110 1 -8.1999999999999995e-01 -1.2702726052481232e+01 -5.1298824649340684e+00 -5.5848199938496670e+00 0 0 1
2134 712 1 -8.1999999999999995e-01 -1.3909221954541184e+00 -6.8178117851851283e+00 -4.3100416799417207e+00 0 3 -1
244 82 1 -8.1999999999999995e-01 -4.7717785973918527e+00 -8.0008788901883676e+00 -3.5717922047329171e+00 0 2 0
399 133 2 4.0999999999999998e-01 -1.2279919395419903e-01 -8.0518557320727187e+00 -4.6190914507792140e+00 0 1 0
2476 826 1 -8.1999999999999995e-01 -3.6078850777327354e+00 -6.1389999009771365e+00 -5.8963874826458955e+00 3 1 -1
1711 571 1 -8.1999999999999995e-01 -5.9371220721914160e+00 -5.6112484624075112e+00 -4.2441952980292523e+00 2 1 1
1416 472 2 4.0999999999999998e-01 -1.2244238366014734e+01 -1.2441000682852842e+01 -7.6224778020344885e-02 0 3 1
398 133 2 4.0999999999999998e-01 -1.9209920622573939e-01 -9.2153854921330929e+00 -3.4754069679304003e+00 0 1 0
2478 826 2 4.0999999999999998e-01 -3.7728556811009657e+00 -5.2801761459299001e+00 -6.3813651557853976e+00 3 1 -1
475 159 1 -8.1999999999999995e-01 -1.0316646186054417e+00 -9.6575119405099077e+00 -2.0351702731410430e+00 -1 1 0
561 187 2 4.0999999999999998e-01 -6.5285000552529571e+00 -1.4350871581639488e+01 -7.0531119381577447e+00 0 1 3
2123 708 2 4.0999999999999998e-01 -1.4419206699663274e+00 -1.3670089970534461e+01 -1.5856446629919176e+00 -1 1 -1
2477 826 2 4.0999999999999998e-01 -4.1494136001604787e+00 -6.8677779636708429e+00 -6.3154653716396663e+00 3 1 -1
2122 708 1 -8.1999999999999995e-01 -1.7058174587946020e+00 -1.4336353783056913e+01 -8.8818647707713083e-01 -1 1 -1
2359 787 1 -8.1999999999999995e-01 -6.7897082257921664e+00 -1.0010653388843824e+01 -2.4286398011789281e+00 1 0 0
1450 484 1 -8.1999999999999995e-01 -7.1456933895765218e-01 -1.2690038881897458e+01 -2.9916299218736810e+00 2 0 -1
1071 357 2 4.0999999999999998e-01 -8.8437684333924054e+00 -9.5089888859668186e+00 -6.7101621264549980e+00 -2 0 1
2574 858 2 4.0999999999999998e-01 -4.2245462437219548e+00 -1.1481256828973740e+01 -3.7968290716007900e+00 -1 3 -2
932 311 2 4.0999999999999998e-01 -5.5471220995945192e+00 -8.3356561278431727e+00 -5.6337301912400228e+00 -1 1 0
2078 693 2 4.0999999999999998e-01 -1.9529457968911110e+00 -7.3297606539704123e+00 -7.4550691384654897e+00 1 1 0
559 187 1 -8.1999999999999995e-01 -6.9418795779663061e+00 -1.3448141963278154e+01 -7.1722484430748592e+00 0 1 3
1778 593 2 4.0999999999999998e-01 -1.1599528649509985e+00 -1.4107579130122760e+01 -7.1346640071538570e+00 2 0 0
1022 341 2 4.0999999999999998e-01 -1.3166728502069397e+01 -8.6825811776385642e+00 -4.5654339931438059e-01 0 0 1
2079 693 2 4.0999999999999998e-01 -1.0628661213906891e+00 -8.6985011160277512e+00 -7.4854977212958032e+00 1 1 0
2156 719 2 4.0999999999999998e-01 -9.2453609397034260e+00 -6.3480432046089774e+00 -4.3689837438530787e+00 -1 0 -1
476 159 2 4.0999999999999998e-01 -1.7273782696033351e+00 -1.0291009385301290e+01 -1.6965548701711448e+00 -1 1 0
2572 858 1 -8.1999999999999995e-01 -3.2712362047731354e+00 -1.1183674762552819e+01 -3.8482273710401351e+00 -1 3 -2
933 311 2 4.0999999999999998e-01 -5.4921167628054199e+00 -9.2533775231328832e+00 -6.9833153429616850e+00 -1 1 0
809 270 2 4.0999999999999998e-01 -4.0078226666326202e+00 -1.1921802025562037e+01 -7.3558479476004024e-01 1 1 1
245 82 2 4.0999999999999998e-01 -5.2701610067701328e+00 -7.2553619687825286e+00 -4.0143037170553058e+00 0 2 0
931 311 1 -8.1999999999999995e-01 -5.4212464889131038e+00 -8.3222095496087825e+00 -6.6256835332622455e+00 -1 1 0
246 82 2 4.0999999999999998e-01 -4.2129402035482464e+00 -7.6331842977553270e+00 -2.8284906275195265e+00 0 2 0
259 87 1 -8.1999999999999995e-01 -2.7793979638138442e+00 -7.4457356416959177e+00 -1.7230259971544264e+00 -1 1 1
2533 845 1 -8.1999999999999995e-01 -6.7471640889206910e+00 -1.4086202703354090e+01 -1.4145511787069598e+00 -2 1 1
1753 585 1 -8.1999999999999995e-01 -1.4543935504606440e+01 -9.6669501014710413e+00 -3.9539869631372646e+00 1 -1 2
2554 852 1 -8.1999999999999995e-01 -9.8345567701772474e-01 -1.0304514850931008e+01 -6.7599586959846096e+00 0 2 2
1619 540 2 4.0999999999999998e-01 -5.2053357335464447e+00 -1.3077595737550826e+01 -4.1432588656439631e+00 0 0 -1
1899 633 2 4.0999999999999998e-01 -5.5130511885354156e+00 -5.6737736457471097e+00 -1.4128588931938424e+00 0 1 1
2361 787 2 4.0999999999999998e-01 -6.3455530862027434e+00 -9.1514900871615161e+00 -2.6827293835136032e+00 1 0 0
1618 540 1 -8.1999999999999995e-01 -5.8351833059916451e+00 -1.2522825539394749e+01 -3.5996422944797644e+00 0 0 -1
2360 787 2 4.0999999999999998e-01 -6.4887818657778027e+00 -1.0736943182014649e+01 -3.0466554577950529e+00 1 0 0
2555 852 2 4.0999999999999998e-01 -5.1087482434959774e-01 -1.0261569289079258e+01 -5.8797201511151513e+00 0 2 2
1451 484 2 4.0999999999999998e-01 -1.5343514035473707e+00 -1.2123849131916272e+01 -3.0775568147374575e+00 2 0 -1
477 159 2 4.0999999999999998e-01 -2.5803971170813078e-01 -9.6423733163420504e+00 -1.4017097473247340e+00 -1 1 0
1152 384 2 4.0999999999999998e-01 -1.3950891626867019e+00 -1.3480924852617051e+01 -4.6297739864157954e+00 0 1 0
261 87 2 4.0999999999999998e-01 -2.2325436880901073e+00 -8.2828954543959874e+00 -1.7125020901972281e+00 -1 1 1
1620 540 2 4.0999999999999998e-01 -6.0678213515449464e+00 -1.3010611621341225e+01 -2.7582498882971151e+00 0 0 -1
2534 845 2 4.0999999999999998e-01 -7.1354918673264374e+00 -1.4965676433051151e+01 -1.6897318403965844e+00 -2 1 1
1732 578 1 -8.1999999999999995e-01 -1.0700229150260295e+01 -5.7070945462060063e+00 -3.6599449419991199e+00 1 -1 -1
1256 419 2 4.0999999999999998e-01 -9.8001012998142407e+00 -1.4988448249663591e+01 -6.5983532349980454e+00 1 1 1
1194 398 2 4.0999999999999998e-01 -8.1392121847921768e+00 -7.2375059524746614e+00 -1.5391133320069876e+00 0 1 2
1150 384 1 -8.1999999999999995e-01 -1.2665834155513593e+00 -1.4114239943638939e+01 -5.3929221807665861e+00 0 1 0
2556 852 2 4.0999999999999998e-01 -4.0817618117359800e-01 -1.0781853436790037e+01 -7.4241862599642854e+00 0 2 2
1734 578 2 4.0999999999999998e-01 -1.1379368560493209e+01 -5.3849846003744997e+00 -4.3194991418632860e+00 1 -1 -1
1021 341 1 -8.1999999999999995e-01 -1.3821220692742447e+01 -8.8907719393348170e+00 -1.1833813986408757e+00 0 0 1
50 17 2 4.0999999999999998e-01 -1.4010998417420527e+01 -6.8286315678960250e+00 -6.9066035582905982e-01 0 0 0
51 17 2 4.0999999999999998e-01 -1.2558076754956149e+01 -6.0832450359322277e+00 -6.8468321346268368e-01 0 0 0
1184 395 2 4.0999999999999998e-01 -8.3262485217404869e+00 -5.3836701993501705e+00 -7.2574814262167155e+00 -1 2 2
646 216 1 -8.1999999999999995e-01 -1.4733593303886312e+01 -1.4318147407137767e+01 -7.5032326041659330e+00 1 1 2
49 17 1 -8.1999999999999995e-01 -1.3470118551552607e+01 -6.0975107962096526e+00 -2.7483795132350330e-01 0 0 0
2456 819 2 4.0999999999999998e-01 -1.1224819086881652e+01 -7.4081274120397094e+00 -7.4579999747236290e+00 2 1 1
1712 571 2 4.0999999999999998e-01 -5.5720884061233438e+00 -5.0980711387055972e+00 -5.0209812163620082e+00 2 1 1
374 125 2 4.0999999999999998e-01 -3.8517662036507989e+00 -9.6963351956576318e+00 -4.4935631485978789e-02 1 1 -1
1665 555 2 4.0999999999999998e-01 -3.4622522625502299e+00 -1.4101234111085239e+01 -1.4943100612319249e-01 0 2 1
2117 706 2 4.0999999999999998e-01 -1.4560069888787545e+01 -1.2283771678152092e+01 -7.4995616036318795e+00 2 1 0
95 32 2 4.0999999999999998e-01 -4.7113055220785451e+00 -1.1148066151060380e+01 -7.4660823658881208e+00 0 2 0
2183 728 2 4.0999999999999998e-01 -9.5136950583126634e+00 -1.0745852234821250e+01 2.5703118487532475e+00 2 3 -1
2184 728 2 4.0999999999999998e-01 -9.7067174327427850e+00 -9.2263761657227690e+00 3.1364858788662620e+00 2 3 -1
2182 728 1 -8.1999999999999995e-01 -9.9435914568489210e+00 -1.0187303717511000e+01 3.2796845017992009e+00 2 3 -1
1441 481 1 -8.1999999999999995e-01 -9.2578616095516253e+00 -8.2087999182362665e+00 1.5317819120524678e+00 1 1 2
684 228 2 4.0999999999999998e-01 -1.3020263791137527e+01 -1.0221973862006042e+01 1.6167736342353702e+00 -1 1 2
682 228 1 -8.1999999999999995e-01 -1.2442323315782216e+01 -9.4377009411583046e+00 1.3911684523686123e+00 -1 1 2
817 273 1 -8.1999999999999995e-01 -1.4108055969567163e+01 -1.1239084352205532e+01 2.4377877415219924e+00 -1 2 1
1442 481 2 4.0999999999999998e-01 -1.0012754583524366e+01 -7.6078143888594028e+00 1.7943650998120528e+00 1 1 2
2080 694 1 -8.1999999999999995e-01 -9.6772687788471785e+00 -1.1362818156159360e+01 9.3288503623425534e-01 -1 3 0
2074 692 1 -8.1999999999999995e-01 -1.2423282720599868e+01 -1.0762194706196350e+01 4.6053530831208516e+00 2 2 0
1443 481 2 4.0999999999999998e-01 -9.2276044559744541e+00 -8.2901313995866079e+00 5.3555573528841549e-01 1 1 2
1663 555 1 -8.1999999999999995e-01 -4.4157414734420541e+00 -1.4246237473032696e+01 1.1482133578913434e-01 0 2 1
683 228 2 4.0999999999999998e-01 -1.2525129891650117e+01 -8.7454604942791914e+00 2.1080667202879066e+00 -1 1 2
1549 517 1 -8.1999999999999995e-01 -2.3555459097525890e+00 -1.4633699423216987e+01 5.0448460367920962e+00 -1 1 2
252 84 2 4.0999999999999998e-01 -7.0344536489953491e-01 -1.4120682388615403e+01 2.3607792369012710e+00 -2 1 -1
527 176 2 4.0999999999999998e-01 -6.1373463549674980e+00 -1.3379674181527541e+01 4.3223527738243224e+00 0 2 -1
2076 692 2 4.0999999999999998e-01 -1.1640292671644042e+01 -1.0856549122822278e+01 3.9905191858124436e+00 2 2 0
2416 806 1 -8.1999999999999995e-01 -1.3449745716666163e+01 -5.2342961514002688e+00 5.4933718320461455e+00 2 2 0
1488 496 2 4.0999999999999998e-01 -9.3749921391008204e+00 -1.1229538574186797e+01 6.1876586385796291e+00 2 1 -1
819 273 2 4.0999999999999998e-01 -1.4890883890366014e+01 -1.1839342663569219e+01 2.6017002226423802e+00 -1 2 1
1486 496 1 -8.1999999999999995e-01 -8.6386853630384906e+00 -1.1107438680704087e+01 5.5221206066998487e+00 2 1 -1
520 174 1 -8.1999999999999995e-01 -1.4057562859254453e+01 -1.2804994002922218e+01 5.7931526319972004e+00 1 2 -1
384 128 2 4.0999999999999998e-01 -1.2419942410938113e+01 -8.1408428442526635e+00 6.9888952798552406e+00 -1 1 0
2518 840 1 -8.1999999999999995e-01 -1.0170633178963179e+01 -6.8130163296188400e+00 5.2548162405449421e+00 0 0 -1
2519 840 2 4.0999999999999998e-01 -1.0261472607985521e+01 -5.8260887522170641e+00 5.3879291529401581e+00 0 0 -1
522 174 2 4.0999999999999998e-01 -1.3944295013461682e+01 -1.3659047872978510e+01 5.2854526506086419e+00 1 2 -1
2520 840 2 4.0999999999999998e-01 -9.4169569100698070e+00 -6.9962409958805587e+00 4.6236287236181628e+00 0 0 -1