LAMMPS data file via write_data, version 15 May 2015, timestep = 18500000

2593 atoms
6 atom types
1728 bonds
4 bond types
864 angles
3 angle types
0 dihedrals
3 dihedral types
0 impropers
1 improper types

-1.5082093593434784e+01 1.5082093593434784e+01 xlo xhi
-1.5082093593434784e+01 1.5082093593434784e+01 ylo yhi
-1.5082093593434784e+01 1.5082093593434784e+01 zlo zhi

Masses

1 15.9994
2 1.00794
3 12.0107
4 1.00794
5 12.0107
6 12.0107

Bond Coeffs # harmonic

1 1000 1
2 469 1.4
3 367 1.08
4 469 0.7

Angle Coeffs # harmonic

1 100 109.47
2 35 120
3 63 120

Dihedral Coeffs # opls

1 0 7.25 0 0
2 0 7.25 0 0
3 0 7.25 0 0

Improper Coeffs # cvff

1 2.5 -1 2

Atoms # full

2035 679 1 -8.1999999999999995e-01 -1.3914730868453638e+01 -1.1081012045618643e+01 -1.3345136993569785e+01 0 2 4
2092 698 1 -8.1999999999999995e-01 -1.5042212316779775e+01 -1.1615240105051853e+01 -1.1027820381180337e+01 6 -1 2
2036 679 2 4.0999999999999998e-01 -1.4292079870186026e+01 -1.1155059030490882e+01 -1.4268214501995287e+01 0 2 4
2037 679 2 4.0999999999999998e-01 -1.2923366913903962e+01 -1.1207445249721975e+01 -1.3379188867937659e+01 0 2 4
98 33 2 4.0999999999999998e-01 -1.2978468143736777e+01 -1.2198385422671567e+01 -8.1050059296794998e+00 -1 -1 4
1478 493 2 4.0999999999999998e-01 -1.1261459382088324e+01 -1.4750936779479678e+01 -1.2972541252837367e+01 1 0 5
1946 649 2 4.0999999999999998e-01 -9.2162116176220614e+00 -5.2792977153798244e+00 -9.6754045793484913e+00 -1 2 1
1503 501 2 4.0999999999999998e-01 -1.3286163451817545e+01 -9.6267580787446931e+00 -9.8371147548961950e+00 -1 2 4
1208 403 2 4.0999999999999998e-01 -1.4081738882793630e+01 -7.3191216856148325e+00 -1.3327753338766424e+01 5 -1 4
2353 785 1 -8.1999999999999995e-01 -1.2257119494616509e+01 -7.9801179584551880e+00 -1.0403861685810970e+01 0 2 4
2354 785 2 4.0999999999999998e-01 -1.2552833217527381e+01 -7.8554867169645055e+00 -1.1350945587208116e+01 0 2 4
1514 505 2 4.0999999999999998e-01 -1.1047585753077261e+01 -8.9876790847654249e+00 -9.7858316761192867e+00 2 2 5
691 231 1 -8.1999999999999995e-01 -1.1523992539633925e+01 -8.4907632269790554e+00 -1.4754649678951267e+01 -5 -1 7
693 231 2 4.0999999999999998e-01 -1.2401455025367966e+01 -8.5612687756045744e+00 -1.4280270169799042e+01 -5 -1 7
1207 403 1 -8.1999999999999995e-01 -1.3601139467243062e+01 -8.0033013407752414e+00 -1.2779237298595486e+01 5 -1 4
2547 849 2 4.0999999999999998e-01 -1.0312008955318053e+01 -1.0750280016110036e+01 -8.3821983452953823e+00 -1 7 5
2355 785 2 4.0999999999999998e-01 -1.1913586182876806e+01 -7.1122739715414625e+00 -1.0045003650630122e+01 0 2 4
1209 403 2 4.0999999999999998e-01 -1.4041351562203412e+01 -8.8935049195034495e+00 -1.2896276183192521e+01 5 -1 4
914 305 2 4.0999999999999998e-01 -1.0572818464386245e+01 -7.0502862108449680e+00 -1.4059822000183233e+01 -6 -5 3
1477 493 1 -8.1999999999999995e-01 -1.2185241289235602e+01 -1.4372829590422961e+01 -1.3032614210253099e+01 1 0 5
86 29 2 4.0999999999999998e-01 -1.3568048639669703e+01 -5.4898693758993158e+00 -9.6567434825301977e+00 -1 3 6
903 301 2 4.0999999999999998e-01 -1.0347244102703799e+01 -1.1335024732398663e+01 -1.3909808994255267e+01 2 9 3
901 301 1 -8.1999999999999995e-01 -1.0963515981033680e+01 -1.1440020618980874e+01 -1.3129339739321797e+01 2 9 3
913 305 1 -8.1999999999999995e-01 -9.9602758613640727e+00 -6.4955439744075196e+00 -1.3496794454465521e+01 -6 -5 3
902 301 2 4.0999999999999998e-01 -1.0495132983077069e+01 -1.1152848015654165e+01 -1.2293818010794627e+01 2 9 3
1501 501 1 -8.1999999999999995e-01 -1.3579508396054216e+01 -1.0319174927751382e+01 -9.1779827021457940e+00 -1 2 4
1513 505 1 -8.1999999999999995e-01 -1.0158952868185033e+01 -9.3715686643691249e+00 -9.5350173826633196e+00 2 2 5
2271 757 2 4.0999999999999998e-01 -9.2279120421367988e+00 -1.0528692199446624e+01 -1.0340894109970897e+01 0 1 2
2270 757 2 4.0999999999999998e-01 -7.9436220926501324e+00 -1.1423065249556224e+01 -1.0806922525647195e+01 0 1 2
1059 353 2 4.0999999999999998e-01 -9.4075193650489890e+00 -1.3245530944224077e+01 -1.0957212299094531e+01 3 3 1
2269 757 1 -8.1999999999999995e-01 -8.9372602873512861e+00 -1.1327978516872736e+01 -1.0866831629427931e+01 0 1 2
1515 505 2 4.0999999999999998e-01 -9.6143717926618528e+00 -8.6744939881818066e+00 -9.0686850962498937e+00 2 2 5
85 29 1 -8.1999999999999995e-01 -1.2584988140292969e+01 -5.3273704372288861e+00 -9.5722827476707870e+00 -1 3 6
2093 698 2 4.0999999999999998e-01 -1.4523665980132135e+01 -1.1398297938946364e+01 -1.0200781740505393e+01 6 -1 2
1057 353 1 -8.1999999999999995e-01 -9.3979358432697602e+00 -1.4243731087164281e+01 -1.1015964813749893e+01 3 3 1
1502 501 2 4.0999999999999998e-01 -1.4122605287446213e+01 -9.8858376923300177e+00 -8.4588081553252721e+00 -1 2 4
1947 649 2 4.0999999999999998e-01 -9.8145509505516983e+00 -5.5226709030625241e+00 -1.1175153094615514e+01 -1 2 1
2094 698 2 4.0999999999999998e-01 -1.4450668405843295e+01 -1.1515521684958232e+01 -1.1827869875621815e+01 6 -1 2
279 93 2 4.0999999999999998e-01 -8.3624918055792943e+00 -6.5138007873550698e+00 -1.3370662329234786e+01 -3 -4 3
1479 493 2 4.0999999999999998e-01 -1.2140163089923929e+01 -1.3374710716538511e+01 -1.2991698554551249e+01 1 0 5
1196 399 2 4.0999999999999998e-01 -9.1015888565374201e+00 -1.4445343644541580e+01 -1.4224137127359986e+01 -4 2 5
1058 353 2 4.0999999999999998e-01 -9.8298556334639571e+00 -1.4629749789279689e+01 -1.0200868396971801e+01 3 3 1
1990 664 1 -8.1999999999999995e-01 -9.4646675016413262e+00 -1.3119441691314746e+01 -1.5005203608865097e+01 -4 0 0
1197 399 2 4.0999999999999998e-01 -8.9382461748745605e+00 -1.4872443092475770e+01 -1.2656530234577881e+01 -4 2 5
2545 849 1 -8.1999999999999995e-01 -1.0137154810195934e+01 -1.1381683977864885e+01 -7.6267498665888773e+00 -1 7 5
697 233 1 -8.1999999999999995e-01 -9.4385393963112563e+00 -6.9114031474408648e+00 -7.6751897293022120e+00 0 5 1
1460 487 2 4.0999999999999998e-01 -8.1480783284827147e+00 -8.0969439510746106e+00 -1.4531659657903413e+01 -2 0 -2
940 314 1 -8.1999999999999995e-01 -1.1475003301507254e+01 -1.5068892516532458e+01 -8.3628904457560651e+00 -4 -1 2
117 39 2 4.0999999999999998e-01 -7.5464161857849206e+00 -6.7009996422097000e+00 -8.5117108882700521e+00 -1 1 2
915 305 2 4.0999999999999998e-01 -1.0219593239762306e+01 -5.5326657863513731e+00 -1.3571409912485269e+01 -6 -5 3
942 314 2 4.0999999999999998e-01 -1.2160094879713615e+01 -1.4463320548118002e+01 -7.9580700553603680e+00 -4 -1 2
1082 361 2 4.0999999999999998e-01 -1.1753587783238236e+01 -8.2507538167255667e+00 -7.6055761061358611e+00 1 3 0
1002 334 2 4.0999999999999998e-01 -8.2292751466306306e+00 -1.1105478219170204e+01 -7.7010185921673440e+00 0 1 5
1901 634 2 4.0999999999999998e-01 -3.6441247752190229e+00 -6.6786694883113835e+00 -7.7178477406829860e+00 1 -6 -1
1603 535 1 -8.1999999999999995e-01 -6.3604486130703677e+00 -1.4833571785173698e+01 -1.0697523631213176e+01 3 0 3
16 6 1 -8.1999999999999995e-01 -1.2277706143334655e+00 -1.4276054737372323e+01 -1.4302160889650313e+01 -5 1 8
1636 546 1 -8.1999999999999995e-01 -3.2907918667895579e+00 -9.4602029687511084e+00 -1.3948000149409996e+01 -3 -3 6
1245 415 2 4.0999999999999998e-01 -5.2585778645483678e+00 -1.4962267058868447e+01 -1.2194690568320741e+01 -2 9 5
1604 535 2 4.0999999999999998e-01 -5.8966213418463873e+00 -1.4090208266349158e+01 -1.0215629104617140e+01 3 0 3
1001 334 2 4.0999999999999998e-01 -6.7556663905530723e+00 -1.1369243692759136e+01 -8.3532387638681964e+00 0 1 5
1000 334 1 -8.1999999999999995e-01 -7.2587130087903056e+00 -1.0870826419260634e+01 -7.6472135482491828e+00 0 1 5
1609 537 1 -8.1999999999999995e-01 -4.9426312529516423e+00 -7.3033774022691436e+00 -1.4893337449549458e+01 -4 3 -2
1902 634 2 4.0999999999999998e-01 -3.7541563282196346e+00 -6.3033349774496781e+00 -9.3032509645713120e+00 1 -6 -1
393 131 2 4.0999999999999998e-01 -2.4334612839008756e+00 -1.3508032994483443e+01 -1.0969713624836583e+01 0 -1 1
1638 546 2 4.0999999999999998e-01 -3.5715978377910140e+00 -1.0415443449232290e+01 -1.3855204337893158e+01 -3 -3 6
2074 692 1 -8.1999999999999995e-01 -5.6546719548190154e+00 -7.7647643264810204e+00 -1.1401450929490453e+01 -4 1 4
391 131 1 -8.1999999999999995e-01 -2.5593430415964402e+00 -1.3319537201748595e+01 -1.1943659500960674e+01 0 -1 1
1094 365 2 4.0999999999999998e-01 -3.0487365606494254e+00 -1.2218480249077469e+01 -8.3307233048487515e+00 -6 -3 -1
1900 634 1 -8.1999999999999995e-01 -4.2388174935205427e+00 -6.3029718455636559e+00 -8.4285791210277772e+00 1 -6 -1
1317 439 2 4.0999999999999998e-01 -6.2296067518253757e+00 -9.7040469362291013e+00 -1.1269736242143109e+01 -2 0 6
717 239 2 4.0999999999999998e-01 -3.9128118203026130e+00 -7.9573042798884508e+00 -1.1115497186160477e+01 0 6 9
1374 458 2 4.0999999999999998e-01 -5.6611403998031324e+00 -1.1886748096966828e+01 -1.4587800508807412e+01 3 5 4
2183 728 2 4.0999999999999998e-01 -5.1722926488859855e-01 -1.0303817179435335e+01 -9.5607794571094313e+00 3 2 1
2549 850 2 4.0999999999999998e-01 -1.9603923287641720e+00 -8.7051345979299732e+00 -8.1481439011634986e+00 -5 -2 -2
17 6 2 4.0999999999999998e-01 -1.3815274894379730e+00 -1.3502014833876556e+01 -1.4916301295875172e+01 -5 1 8
18 6 2 4.0999999999999998e-01 -1.8349152680254690e+00 -1.4199745616070038e+01 -1.3511275462495162e+01 -5 1 8
2548 850 1 -8.1999999999999995e-01 -1.3342283245023374e+00 -8.7679996392956259e+00 -8.9252629595847957e+00 -5 -2 -2
1315 439 1 -8.1999999999999995e-01 -6.1454771837597892e+00 -1.0673690322916059e+01 -1.1499216909213239e+01 -2 0 6
605 202 2 4.0999999999999998e-01 -2.6214977917256554e-01 -5.9204363138530240e+00 -8.4067532807070258e+00 -2 0 2
392 131 2 4.0999999999999998e-01 -3.4782083424243950e+00 -1.3599761781295529e+01 -1.2221342789507107e+01 0 -1 1
278 93 2 4.0999999999999998e-01 -7.1056868123843380e+00 -5.5220522864965425e+00 -1.3049162147992620e+01 -3 -4 3
1243 415 1 -8.1999999999999995e-01 -4.6626847702301397e+00 -1.4750495058434348e+01 -1.2969294634018311e+01 -2 9 5
715 239 1 -8.1999999999999995e-01 -2.9568166667163922e+00 -7.7992366431673394e+00 -1.0868443879005483e+01 0 6 9
2550 850 2 4.0999999999999998e-01 -1.8282194630920561e+00 -8.5586478447514853e+00 -9.7691183928844065e+00 -5 -2 -2
606 202 2 4.0999999999999998e-01 -1.1958569405101649e-01 -7.2853684071919282e+00 -9.2916952268281072e+00 -2 0 2
2358 786 2 4.0999999999999998e-01 -5.8645160668552343e-01 -1.0301482936326035e+01 -1.2749480071707687e+01 -2 4 0
259 87 1 -8.1999999999999995e-01 -5.7964455412569276e+00 -1.2463713253263736e+01 -9.5566043086630046e+00 -5 4 3
2357 786 2 4.0999999999999998e-01 -1.6206439384896179e+00 -9.1110714503265520e+00 -1.3173570540827766e+01 -2 4 0
1111 371 1 -8.1999999999999995e-01 -1.0540706094153585e+00 -1.4863847393979560e+01 -9.0127321051006444e+00 2 2 6
2356 786 1 -8.1999999999999995e-01 -6.6754270953415151e-01 -9.3278270032065755e+00 -1.2962472372419235e+01 -2 4 0
261 87 2 4.0999999999999998e-01 -4.8394706489351069e+00 -1.2669697498353361e+01 -9.3523570043176640e+00 -5 4 3
716 239 2 4.0999999999999998e-01 -2.4636113462159788e+00 -7.4372810180732598e+00 -1.1659445838468567e+01 0 6 9
1373 458 2 4.0999999999999998e-01 -4.9863976946293604e+00 -1.2864437379200858e+01 -1.3467384457393781e+01 3 5 4
1093 365 1 -8.1999999999999995e-01 -3.1581954165655119e+00 -1.3072925876676491e+01 -8.8385508606476648e+00 -6 -3 -1
277 93 1 -8.1999999999999995e-01 -7.3654810029123832e+00 -6.4406201228862745e+00 -1.3346966690105146e+01 -3 -4 3
1591 531 1 -8.1999999999999995e-01 -1.1134780541417442e+00 -6.5808965004867339e+00 -1.2592832695458180e+01 -5 0 -1
1593 531 2 4.0999999999999998e-01 -5.8857207730804717e-01 -6.0349302437510204e+00 -1.3245781347099108e+01 -5 0 -1
2076 692 2 4.0999999999999998e-01 -6.1456796394301048e+00 -7.6523740131944420e+00 -1.0537606446163693e+01 -4 1 4
1316 439 2 4.0999999999999998e-01 -5.9840135845026747e+00 -1.0770996178310860e+01 -1.2481259951556485e+01 -2 0 6
116 39 2 4.0999999999999998e-01 -6.0094493197132426e+00 -6.3899983200891519e+00 -8.9672296566679748e+00 -1 1 2
115 39 1 -8.1999999999999995e-01 -6.8758343668189781e+00 -6.8040434378193027e+00 -9.2463192487671577e+00 -1 1 2
1372 458 1 -8.1999999999999995e-01 -5.0588908034244078e+00 -1.1920801592451394e+01 -1.3790252285208190e+01 3 5 4
1095 365 2 4.0999999999999998e-01 -2.3595901184343511e+00 -1.3655352724632564e+01 -8.6870387785286312e+00 -6 -3 -1
1592 531 2 4.0999999999999998e-01 -9.0473930524777124e-01 -7.5498942807040628e+00 -1.2724812600701568e+01 -5 0 -1
537 179 2 4.0999999999999998e-01 -5.9400635855048733e-01 -1.2574161521140530e+01 -1.2641623915191028e+01 -1 -3 -1
1605 535 2 4.0999999999999998e-01 -7.3425510567854948e+00 -1.4648166400992332e+01 -1.0729882120640163e+01 3 0 3
260 87 2 4.0999999999999998e-01 -5.8434929856380986e+00 -1.1687078286621826e+01 -1.0184754084804553e+01 -5 4 3
1610 537 2 4.0999999999999998e-01 -5.7212152531374656e+00 -6.7210672662022777e+00 -1.4659523080425879e+01 -4 3 -2
2075 692 2 4.0999999999999998e-01 -6.1505245173047367e+00 -7.2929966604675345e+00 -1.2130500289180016e+01 -4 1 4
1637 546 2 4.0999999999999998e-01 -4.0859245330087752e+00 -8.9001304353007651e+00 -1.4180444078541651e+01 -3 -3 6
344 115 2 4.0999999999999998e-01 -8.1527181861236642e-02 -1.3867833858379111e+01 -7.8014017608855077e+00 -4 0 1
1594 532 1 -8.1999999999999995e-01 -6.7647251844156688e+00 -1.4812050032399741e+01 -7.5640721546898249e+00 1 1 2
2434 812 1 -8.1999999999999995e-01 -1.3008360528550519e+01 -1.1342351591228535e+01 -4.3736476224982166e+00 -2 -1 -7
668 223 2 4.0999999999999998e-01 -9.9082720840593375e+00 -5.0983068519681964e+00 -3.3464716695566246e+00 0 -1 -3
1219 407 1 -8.1999999999999995e-01 -9.5434448632050461e+00 -1.2221240033974983e+01 -1.8116055830273723e+00 -3 7 0
731 244 2 4.0999999999999998e-01 -8.9943595019058762e+00 -1.0307646990834574e+01 -1.9755685585709255e+00 -1 6 -1
1268 423 2 4.0999999999999998e-01 -8.1497798913913542e+00 -8.1853567511061840e+00 -1.0361105628761624e+00 -2 0 5
2436 812 2 4.0999999999999998e-01 -1.3172986836269729e+01 -1.1261875360592676e+01 -3.3906068659554212e+00 -2 -1 -7
2136 712 2 4.0999999999999998e-01 -1.0965557118886002e+01 -1.1602048118459344e+01 -4.4012501143139993e-01 -1 2 2
1985 662 2 4.0999999999999998e-01 -1.2326637582826608e+01 -5.0625939949973748e+00 -7.2630553152862838e+00 -4 4 2
2435 812 2 4.0999999999999998e-01 -1.2088719574928405e+01 -1.1702937376122080e+01 -4.5291651237846295e+00 -2 -1 -7
1989 663 2 4.0999999999999998e-01 -1.1138113096394681e+01 -5.9714719128725875e+00 -1.1996132066615832e+00 -1 -2 4
1986 662 2 4.0999999999999998e-01 -1.1842253343548958e+01 -6.3863504108654947e+00 -6.4387209781203225e+00 -4 4 2
2581 861 1 -8.1999999999999995e-01 -9.9553020388569884e+00 -1.2268222489767872e+01 -4.6935015994728140e+00 -1 -3 6
1304 435 2 4.0999999999999998e-01 -1.2754452841021768e+01 -7.8204910042600932e+00 -5.5531569492245225e-01 -6 -4 4
1221 407 2 4.0999999999999998e-01 -8.7395240446672275e+00 -1.2743247734726152e+01 -1.5267080739050751e+00 -3 7 0
1220 407 2 4.0999999999999998e-01 -9.6602249588631839e+00 -1.2302793105067890e+01 -2.8013827855048046e+00 -3 7 0
1083 361 2 4.0999999999999998e-01 -1.1618275606796999e+01 -9.0393833318997761e+00 -6.1821153783486196e+00 1 3 0
1081 361 1 -8.1999999999999995e-01 -1.1605842480568496e+01 -8.1417403398077042e+00 -6.6226036686635350e+00 1 3 0
2057 686 2 4.0999999999999998e-01 -1.3483314330856871e+01 -1.0192629718870959e+01 -1.5892801591672097e+00 0 3 -8
2056 686 1 -8.1999999999999995e-01 -1.3961335966993989e+01 -1.1031663245811346e+01 -1.8490210635560373e+00 0 3 -8
1601 534 2 4.0999999999999998e-01 -1.4597808834001381e+01 -1.3198922947887777e+01 -4.8098267419074094e+00 0 -4 0
465 155 2 4.0999999999999998e-01 -1.3690640772228370e+01 -1.3798847818150259e+01 -2.0410728353846004e+00 -4 -1 0
2058 686 2 4.0999999999999998e-01 -1.4553793934216234e+01 -1.1323769181478411e+01 -1.0982779983279318e+00 0 3 -8
1420 474 1 -8.1999999999999995e-01 -1.4836508591286005e+01 -1.0172625533889470e+01 -6.3883848549717257e+00 -4 8 2
463 155 1 -8.1999999999999995e-01 -1.3842374861546013e+01 -1.4281563350906843e+01 -2.9035748170133999e+00 -4 -1 0
2582 861 2 4.0999999999999998e-01 -1.0500268750156891e+01 -1.3089869429489864e+01 -4.5266041864621922e+00 -1 -3 6
1303 435 1 -8.1999999999999995e-01 -1.3182026895723371e+01 -8.6258160178205099e+00 -9.6589966288197715e-01 -6 -4 4
464 155 2 4.0999999999999998e-01 -1.2983161640707459e+01 -1.4332615273101176e+01 -3.4125872401921633e+00 -4 -1 0
1917 639 2 4.0999999999999998e-01 -1.2345691590552399e+01 -6.0697041415970041e+00 -3.5117284701270339e+00 -2 1 0
1984 662 1 -8.1999999999999995e-01 -1.1932396312845967e+01 -5.3910268826389327e+00 -6.4047703463569583e+00 -4 4 2
2135 712 2 4.0999999999999998e-01 -1.2241724321880884e+01 -1.0648046057656684e+01 -8.2684829791288550e-02 -1 2 2
2583 861 2 4.0999999999999998e-01 -9.8605933639982446e+00 -1.2125514058350943e+01 -5.6786980152966855e+00 -1 -3 6
1915 639 1 -8.1999999999999995e-01 -1.3265795484594172e+01 -6.4338311585702410e+00 -3.6558373066892429e+00 -2 1 0
1600 534 1 -8.1999999999999995e-01 -1.4711344181923959e+01 -1.3386011853577028e+01 -5.7855596430316627e+00 0 -4 0
1306 436 1 -8.1999999999999995e-01 -7.8244291467949321e+00 -5.8626791803539220e+00 -5.2150824534531370e+00 4 -2 2
1916 639 2 4.0999999999999998e-01 -1.3469158830819095e+01 -7.1140010323488365e+00 -2.9515932547236616e+00 -2 1 0
698 233 2 4.0999999999999998e-01 -1.0258618789533156e+01 -7.2660331529106035e+00 -7.2261298292289000e+00 0 5 1
1422 474 2 4.0999999999999998e-01 -1.4213723469678435e+01 -1.0626209934953536e+01 -5.7509310819353079e+00 -4 8 2
809 270 2 4.0999999999999998e-01 -9.9873852282756701e+00 -1.4429723805434325e+01 -3.0817433870768678e+00 -1 9 1
1554 518 2 4.0999999999999998e-01 -1.4602336084461102e+01 -6.8817123738879324e+00 -5.0724982203344204e+00 -1 5 3
699 233 2 4.0999999999999998e-01 -8.8079903478077419e+00 -6.5560138221370430e+00 -6.9852232562215679e+00 0 5 1
730 244 1 -8.1999999999999995e-01 -8.1262263587546819e+00 -9.8384536633168693e+00 -2.1372776059362923e+00 -1 6 -1
1602 534 2 4.0999999999999998e-01 -1.4591582132041063e+01 -1.4364486170068693e+01 -5.9534653851641810e+00 0 -4 0
364 122 1 -8.1999999999999995e-01 -7.6563735912662825e+00 -1.3394909253279113e+01 -2.5271149542279936e-01 -3 -2 3
1987 663 1 -8.1999999999999995e-01 -1.0816052013651284e+01 -6.4815608447667383e+00 -1.9971302076088921e+00 -1 -2 4
1254 418 2 4.0999999999999998e-01 -7.6370951724551759e+00 -1.4509170417465100e+01 -2.1026847569049778e+00 -4 2 6
97 33 1 -8.1999999999999995e-01 -1.2600862877251771e+01 -1.2567864541293591e+01 -7.2559789370271188e+00 -1 -1 4
1305 435 2 4.0999999999999998e-01 -1.4145108798978040e+01 -8.6641512926615416e+00 -6.9953384490937331e-01 -6 -4 4
808 270 1 -8.1999999999999995e-01 -1.0827574651972103e+01 -1.4428997199427615e+01 -3.6239872889345079e+00 -1 9 1
1308 436 2 4.0999999999999998e-01 -8.7038274948509731e+00 -5.6317829027088635e+00 -4.7987978135117686e+00 4 -2 2
1829 610 2 4.0999999999999998e-01 -8.3793084468752532e+00 -1.2709334013635484e+01 -4.8908038953104356e+00 -4 -5 -1
1988 663 2 4.0999999999999998e-01 -1.0129024963349565e+01 -7.1492536486976901e+00 -1.7105511632161043e+00 -1 -2 4
1267 423 1 -8.1999999999999995e-01 -7.9625771986773799e+00 -7.2468345105447876e+00 -7.4614775401875022e-01 -2 0 5
99 33 2 4.0999999999999998e-01 -1.3347966994766741e+01 -1.2826580094578034e+01 -6.6437297540901259e+00 -1 -1 4
2546 849 2 4.0999999999999998e-01 -1.0934025399106792e+01 -1.1970938195651913e+01 -7.4936178618879072e+00 -1 7 5
2540 847 2 4.0999999999999998e-01 -2.5391786031417443e+00 -7.3117772071135025e+00 -5.3518144385622275e+00 2 3 3
1269 423 2 4.0999999999999998e-01 -7.1482125863636972e+00 -7.2333858941330833e+00 -1.6599529061581642e-01 -2 0 5
1506 502 2 4.0999999999999998e-01 -3.9977448175894086e+00 -1.0601130080723351e+01 -6.5163646782417359e+00 2 -2 8
28 10 1 -8.1999999999999995e-01 -2.0023789393969427e+00 -1.3989885236283884e+01 -6.6028316991118174e-01 -4 4 2
29 10 2 4.0999999999999998e-01 -1.5307002256804694e+00 -1.3113203340824633e+01 -7.5459866168404055e-01 -4 4 2
829 277 1 -8.1999999999999995e-01 -2.2576721455964979e+00 -1.1692778245949974e+01 -4.2016601119408392e+00 -1 3 4
621 207 2 4.0999999999999998e-01 -2.6990052053635516e+00 -5.6304128938812976e+00 -1.8842239032469266e-01 -5 -1 1
1523 508 2 4.0999999999999998e-01 -6.2110900166616787e+00 -1.1960713895414777e+01 -3.5753613511979321e+00 -2 4 -5
1522 508 1 -8.1999999999999995e-01 -6.0168024711178738e+00 -1.1450048986436791e+01 -2.7378524987861699e+00 -2 4 -5
1215 405 2 4.0999999999999998e-01 -3.8380858483809455e+00 -1.1414814358255498e+01 -7.3985861275498266e-01 -3 2 0
246 82 2 4.0999999999999998e-01 -4.9235988692210011e+00 -1.3865964291398210e+01 -2.2675578236909839e+00 1 4 1
1025 342 2 4.0999999999999998e-01 -7.4217796739107946e+00 -5.4203762769306305e+00 -1.7172883046486209e+00 2 3 -2
1307 436 2 4.0999999999999998e-01 -7.4000933029925395e+00 -6.6104954509333922e+00 -4.7045363305797974e+00 4 -2 2
2152 718 1 -8.1999999999999995e-01 -5.4819886885179745e+00 -9.0905526087070960e+00 -5.6624353784694499e+00 -2 0 5
1504 502 1 -8.1999999999999995e-01 -3.2181514064465606e+00 -1.1196806726790626e+01 -6.7096281235168096e+00 2 -2 8
831 277 2 4.0999999999999998e-01 -2.5482400474071714e+00 -1.1449394713782743e+01 -3.2763049573126892e+00 -1 3 4
1788 596 2 4.0999999999999998e-01 -1.9444177997705232e+00 -1.4588062468055535e+01 -3.6767028445864263e+00 -4 5 3
2153 718 2 4.0999999999999998e-01 -6.1453181827089640e+00 -8.6070988110972131e+00 -5.0912840972501847e+00 -2 0 5
244 82 1 -8.1999999999999995e-01 -4.6882614129153719e+00 -1.4635305631808617e+01 -1.6736911513569535e+00 1 4 1
1505 502 2 4.0999999999999998e-01 -2.6817663332257951e+00 -1.1324971867073705e+01 -5.8754746045029194e+00 2 -2 8
1643 548 2 4.0999999999999998e-01 -2.8866639369019733e+00 -7.9319147287759488e+00 -2.4240546807654635e+00 -6 4 0
1880 627 2 4.0999999999999998e-01 -1.3094676617577505e-01 -9.3752836760349556e+00 -3.2339482955616976e+00 0 2 -5
1830 610 2 4.0999999999999998e-01 -7.4460672137109833e+00 -1.3809103362519878e+01 -5.6563458815182397e+00 -4 -5 -1
732 244 2 4.0999999999999998e-01 -7.3942911952973400e+00 -1.0513698520619254e+01 -2.2281749972259242e+00 -1 6 -1
2575 859 1 -8.1999999999999995e-01 -2.5156390175597352e+00 -6.3161586798472573e+00 -3.9515620409133518e+00 -1 3 2
830 277 2 4.0999999999999998e-01 -2.4552033425900142e+00 -1.2658509038678069e+01 -4.3698645806314573e+00 -1 3 4
2154 718 2 4.0999999999999998e-01 -5.9451662726634478e+00 -9.8187868904187212e+00 -6.1674985235777697e+00 -2 0 5
2539 847 1 -8.1999999999999995e-01 -2.7380073226311517e+00 -7.8573268392584152e+00 -6.1659334908423844e+00 2 3 3
2577 859 2 4.0999999999999998e-01 -3.4153221234603102e+00 -5.8840082769224296e+00 -4.0129112338379134e+00 -1 3 2
1786 596 1 -8.1999999999999995e-01 -2.7620005063990405e+00 -1.4488349603577637e+01 -4.2437683349399169e+00 -4 5 3
1644 548 2 4.0999999999999998e-01 -3.1089591556331317e+00 -8.0933156477325845e+00 -8.1438987536511398e-01 -6 4 0
2576 859 2 4.0999999999999998e-01 -1.8068943314683104e+00 -5.6107746189001872e+00 -3.9437039346113743e+00 -1 3 2
1642 548 1 -8.1999999999999995e-01 -2.9471380139947136e+00 -8.5855141437507640e+00 -1.6696687716964256e+00 -6 4 0
1828 610 1 -8.1999999999999995e-01 -7.4530890155050953e+00 -1.3076564848396714e+01 -4.9756951223963135e+00 -4 -5 -1
439 147 1 -8.1999999999999995e-01 -6.8638027880862609e+00 -7.8887623400159015e+00 -3.5887264327373316e+00 1 1 -1
441 147 2 4.0999999999999998e-01 -7.4926262990872647e+00 -8.6425718682867476e+00 -3.3982018802472691e+00 1 1 -1
1214 405 2 4.0999999999999998e-01 -3.3931303211497585e+00 -1.0110309306875372e+01 -1.6155110997922275e+00 -3 2 0
440 147 2 4.0999999999999998e-01 -6.2877197516159971e+00 -7.7247920821748703e+00 -2.7879833259095150e+00 1 1 -1
1213 405 1 -8.1999999999999995e-01 -3.4621258523467873e+00 -1.1107898996505838e+01 -1.6141608659748314e+00 -3 2 0
2541 847 2 4.0999999999999998e-01 -3.4555859816931473e+00 -8.5211352084761991e+00 -5.9552519827852901e+00 2 3 3
245 82 2 4.0999999999999998e-01 -3.6985509396261502e+00 -1.4656718967878987e+01 -1.5324042689906161e+00 1 4 1
1524 508 2 4.0999999999999998e-01 -5.0282914887769614e+00 -1.1413846831524900e+01 -2.5912832804868113e+00 -2 4 -5
365 122 2 4.0999999999999998e-01 -6.7994130533276405e+00 -1.3851810266171912e+01 -1.4368287705341487e-02 -3 -2 3
1596 532 2 4.0999999999999998e-01 -6.3812658732655532e+00 -1.3889383957595944e+01 -7.5241524631786252e+00 1 1 2
173 58 2 4.0999999999999998e-01 -1.3306453992134504e+01 -1.2213591327079701e+01 4.8849928468371928e+00 0 -1 -3
172 58 1 -8.1999999999999995e-01 -1.2379937488921890e+01 -1.2124610973515672e+01 5.2505022447161167e+00 0 -1 -3
174 58 2 4.0999999999999998e-01 -1.1825830151303652e+01 -1.1576201327215449e+01 4.6242760332256623e+00 0 -1 -3
2310 770 2 4.0999999999999998e-01 -1.3747894059420641e+01 -1.2261027839608634e+01 9.0483298258251565e-01 -4 5 1
142 48 1 -8.1999999999999995e-01 -1.2972989571840346e+01 -6.4781682880101172e+00 4.8171505688170342e+00 1 3 -3
66 22 2 4.0999999999999998e-01 -1.1398913105910308e+01 -6.4406209363514790e+00 2.9126230163968678e+00 -5 4 5
64 22 1 -8.1999999999999995e-01 -1.0743964583832426e+01 -5.8148142556012612e+00 3.3361272862265743e+00 -5 4 5
65 22 2 4.0999999999999998e-01 -9.8453919257289897e+00 -5.9375773847009601e+00 2.9148866613128419e+00 -5 4 5
144 48 2 4.0999999999999998e-01 -1.3632576514874708e+01 -5.7668054312527754e+00 4.5745497577576657e+00 1 3 -3
877 293 1 -8.1999999999999995e-01 -1.1708242928770304e+01 -7.5132153914436763e+00 1.3995707907143959e+00 1 0 6
143 48 2 4.0999999999999998e-01 -1.2118437157259795e+01 -6.3234024512237053e+00 4.3214337906031730e+00 1 3 -3
972 324 2 4.0999999999999998e-01 -9.1051987886226335e+00 -8.3214126589680646e+00 5.7084467849233675e+00 -3 -1 0
971 324 2 4.0999999999999998e-01 -7.8365618269002608e+00 -8.9708452580952436e+00 6.5054936717992327e+00 -3 -1 0
970 324 1 -8.1999999999999995e-01 -8.6798000409333760e+00 -9.1752403766846484e+00 6.0083827142461423e+00 -3 -1 0
879 293 2 4.0999999999999998e-01 -1.2469931121853687e+01 -8.0606731813043559e+00 1.7460798926468826e+00 1 0 6
1162 388 1 -8.1999999999999995e-01 -1.3614623179977425e+01 -9.2405721964328524e+00 2.4184888892058574e+00 -4 2 3
1164 388 2 4.0999999999999998e-01 -1.3495407631931378e+01 -9.3042496146262881e+00 3.4092867041930752e+00 -4 2 3
878 293 2 4.0999999999999998e-01 -1.0998519185015475e+01 -8.1192054102474245e+00 1.0403842346680818e+00 1 0 6
1163 388 2 4.0999999999999998e-01 -1.4331528764312969e+01 -9.8741338398793772e+00 2.1276394166255983e+00 -4 2 3
2369 790 2 4.0999999999999998e-01 -9.7292043249341447e+00 -1.2444161525019011e+01 2.0398862944938188e+00 -4 4 0
2368 790 1 -8.1999999999999995e-01 -9.1776216778819961e+00 -1.3222510452655127e+01 1.7400913898879580e+00 -4 4 0
2370 790 2 4.0999999999999998e-01 -9.7548208951178381e+00 -1.3866258064264974e+01 1.2377194829906770e+00 -4 4 0
1121 374 2 4.0999999999999998e-01 -8.8258664797201725e+00 -8.0007441714835501e+00 2.7223026658928475e+00 -2 0 8
1120 374 1 -8.1999999999999995e-01 -8.9448952123719359e+00 -8.8799018051204541e+00 2.2609335448331862e+00 -2 0 8
1004 335 2 4.0999999999999998e-01 -1.1252592711110090e+01 -1.4503337549084703e+01 3.6785200630266672e+00 -6 2 1
2308 770 1 -8.1999999999999995e-01 -1.3764296783596865e+01 -1.3260089567734720e+01 9.4425338273736870e-01 -4 5 1
612 204 2 4.0999999999999998e-01 -1.1857100920289103e+01 -5.7744689015375386e+00 7.6374136207686760e-01 -3 5 4
366 122 2 4.0999999999999998e-01 -8.2369020216523730e+00 -1.3330858074422551e+01 5.5897276818656927e-01 -3 -2 3
2030 677 2 4.0999999999999998e-01 -1.1729994769440722e+01 -1.2081512050650616e+01 6.8093022561309944e+00 2 1 -1
982 328 1 -8.1999999999999995e-01 -1.5076911292402331e+01 -1.2681917823313443e+01 4.7139351981719919e+00 1 3 1
1970 657 2 4.0999999999999998e-01 -1.1225195103403982e+01 -1.1010836598483651e+01 2.5504597804750375e+00 3 1 5
2309 770 2 4.0999999999999998e-01 -1.2827099701420357e+01 -1.3608520395648560e+01 9.5857212141610049e-01 -4 5 1
1122 374 2 4.0999999999999998e-01 -8.1806059668302726e+00 -9.0338765897386537e+00 1.6347537469688511e+00 -2 0 8
918 306 2 4.0999999999999998e-01 -1.4163656141400551e+01 -9.4460711972523743e+00 5.9426373549385616e+00 0 -1 5
1969 657 1 -8.1999999999999995e-01 -1.0514080383425284e+01 -1.0947639738984758e+01 3.2506522182226689e+00 3 1 5
723 241 2 4.0999999999999998e-01 -9.3622191537275761e+00 -1.2375598431257318e+01 7.0290073666064785e+00 1 5 -4
1971 657 2 4.0999999999999998e-01 -9.8492657651066757e+00 -1.0248236296070948e+01 2.9883474653857967e+00 3 1 5
917 306 2 4.0999999999999998e-01 -1.3832942745268870e+01 -8.1374011504294437e+00 5.0236718219169987e+00 0 -1 5
916 306 1 -8.1999999999999995e-01 -1.4083619580403139e+01 -9.1052823636848679e+00 5.0059387836999072e+00 0 -1 5
1005 335 2 4.0999999999999998e-01 -1.1593589438484086e+01 -1.3638089156061431e+01 5.0207393960998132e+00 -6 2 1
498 166 2 4.0999999999999998e-01 -8.0024409007894715e+00 -1.3425111212060653e+01 3.5560590295414904e+00 -3 4 -2
496 166 1 -8.1999999999999995e-01 -7.5816160667616579e+00 -1.3634665952140649e+01 4.4386351721810904e+00 -3 4 -2
497 166 2 4.0999999999999998e-01 -7.8810321294047201e+00 -1.2964849567664817e+01 5.1180786644603629e+00 -3 4 -2
721 241 1 -8.1999999999999995e-01 -8.7478691460032145e+00 -1.2059520061696418e+01 6.3060857676922808e+00 1 5 -4
484 162 1 -8.1999999999999995e-01 -9.5381027548757977e+00 -6.2552699333437474e+00 6.6435924490301232e+00 -1 1 1
965 322 2 4.0999999999999998e-01 -7.6219495907734025e+00 -5.2840381786253587e+00 3.7081278326465323e+00 -3 5 2
964 322 1 -8.1999999999999995e-01 -7.6977960566133845e+00 -6.2650726809397490e+00 3.5298975099090875e+00 -3 5 2
485 162 2 4.0999999999999998e-01 -9.1019153674892674e+00 -5.7028822461900663e+00 5.9332715789747930e+00 -1 1 1
1003 335 1 -8.1999999999999995e-01 -1.1369875585326515e+01 -1.4547651698774514e+01 4.6706029157914060e+00 -6 2 1
722 241 2 4.0999999999999998e-01 -8.9587054701219806e+00 -1.1108090217030064e+01 6.0818612027791445e+00 1 5 -4