2593
Atoms. Timestep: 18495000
O -10.3199 4.69725 -1.23107
H -10.9025 5.27959 -1.79802
H -9.88419 5.25136 -0.521802
O 9.71686 14.7199 -9.54998
H 10.6355 14.973 -9.24677
H 9.36225 -14.656 -10.1637
O 2.64772 6.81386 -5.58441
H 2.95388 7.76547 -5.55864
H 2.31474 6.54625 -4.68027
O 4.45996 1.50312 -12.8996
H 5.162 2.12818 -12.5585
H 3.65847 2.02722 -13.1876
O -5.61028 2.56508 -12.0003
H -5.96817 3.14069 -11.265
H -4.86927 3.0457 -12.4692
O -2.92173 14.6374 13.9912
H -3.21779 13.9543 13.3236
H -2.32649 -14.7765 13.5436
O -9.07607 8.14587 9.38562
H -10.041 8.40704 9.36166
H -8.81996 7.73567 8.51035
O -3.51796 7.08068 -5.7791
H -2.68219 7.15272 -6.3234
H -3.89405 6.15823 -5.86632
O -8.78041 9.13036 -1.41625
H -9.00294 9.25791 -2.38277
H -8.83219 10.01 -0.943401
O -1.79933 -14.0795 1.40594
H -1.85432 -13.4332 2.16703
H -1.08354 -14.7527 1.59138
O -4.92077 -0.589009 2.47408
H -5.03825 0.10142 3.18784
H -4.35381 -1.33543 2.82246
O -13.2454 -2.62741 -5.47206
H -12.6921 -3.45416 -5.57327
H -14.2093 -2.8518 -5.61557
O -6.0733 -4.88852 9.76468
H -6.7622 -5.10255 9.07217
H -5.16189 -4.94723 9.35745
O 12.5581 -8.91025 7.1088
H 12.1991 -9.44696 7.87233
H 13.3199 -9.4008 6.68566
O 14.856 -13.8077 10.7409
H 14.119 -14.4801 10.6719
H -14.9626 -13.6981 11.6995
O 12.0615 10.1849 11.345
H 12.2086 10.9923 10.7736
H 11.0869 9.96167 11.3619
O -0.963738 -2.98698 -13.8762
H -1.55122 -2.55989 -14.5635
H -0.988563 -2.44731 -13.0347
O 13.2354 6.66045 2.51015
H 14.0971 6.78802 2.0191
H 12.8942 5.73429 2.34957
O 9.6751 -0.290395 10.6779
H 9.47824 -0.762689 11.537
H 10.4513 0.326686 10.807
O 10.6308 -11.8365 -11.8917
H 10.0301 -12.605 -12.1118
H 10.1571 -11.2097 -11.2731
O 6.2057 -3.02134 4.82812
H 6.04397 -3.07454 3.84275
H 6.52504 -2.10366 5.06441
O -11.5162 -6.42723 2.50606
H -10.5254 -6.29545 2.53526
H -11.7402 -7.12077 1.82138
O -2.17703 -0.510022 -12.7253
H -1.45779 0.136893 -12.472
H -3.06633 -0.143601 -12.4517
O 1.47329 -3.70372 -4.6344
H 0.602484 -3.3346 -4.30973
H 1.33183 -4.62753 -4.99009
O 13.1226 1.0032 -11.6289
H 13.5175 0.990455 -12.5475
H 13.7417 0.541879 -10.9934
O -8.12714 14.5987 -4.02354
H -7.6195 13.7968 -3.70878
H -7.55356 -14.6683 -3.93316
O -4.72781 -4.93148 13.5619
H -4.08486 -5.51736 14.0552
H -5.29739 -5.493 12.9617
O 4.63966 14.2812 11.2439
H 4.00796 14.9906 11.5564
H 4.1214 13.4729 10.9648
O 14.8751 -5.92271 -9.88972
H 14.2209 -6.4496 -10.4323
H 14.5565 -5.86931 -8.94333
O -7.9425 1.90638 14.2712
H -8.09958 1.7132 -14.8416
H -7.85685 1.04575 13.7693
O -11.8983 -0.400703 -6.38557
H -12.4193 -1.1398 -5.95857
H -12.4624 0.423987 -6.42678
O -0.353292 9.62166 2.13881
H -0.515539 8.77565 1.63098
H -0.255297 10.3821 1.49691
O -13.663 -12.6449 -10.3074
H -14.1217 -11.9197 -10.8208
H -14.0291 -12.6777 -9.37743
O 8.62523 -8.74548 5.95138
H 9.55652 -8.38719 5.88595
H 8.26985 -8.58392 6.87201
O 10.8795 -5.7385 -3.04713
H 10.0759 -5.14343 -3.03326
H 10.812 -6.40698 -2.30649
O -2.89028 14.0358 8.81228
H -1.91928 13.8263 8.69739
H -3.23415 13.5822 9.63443
O 1.7514 11.7226 12.0385
H 1.34541 10.8921 12.4198
H 2.54484 11.4798 11.4804
O -11.9883 1.59249 -10.6611
H -12.8694 1.71222 -10.2036
H -12.0513 0.837252 -11.3134
O -6.41775 -5.82531 -8.74232
H -6.7289 -6.15074 -7.84944
H -6.99877 -6.21137 -9.45879
O -12.9583 10.7391 -10.7287
H -12.2147 10.7006 -10.0613
H -13.7877 11.078 -10.2845
O 4.88335 -7.89388 -4.76073
H 4.20439 -8.05761 -5.47639
H 5.77622 -7.72913 -5.17979
O 0.257812 -3.27653 11.6003
H 0.934966 -3.82937 12.0859
H -0.656374 -3.49187 11.9436
O 14.7859 8.62431 14.1025
H -14.7075 8.43031 13.3171
H 13.9949 9.15785 13.803
O 2.1508 -11.8831 13.2772
H 2.82524 -11.4229 13.8545
H 2.60216 -12.2465 12.4622
O -12.9879 6.48908 -1.67361
H -13.5501 6.16004 -2.43227
H -13.4351 6.26807 -0.806962
O -10.7599 11.1526 9.81511
H -10.1479 11.6669 10.4158
H -11.6561 11.5957 9.79397
O 14.5518 -9.63373 -2.43848
H 13.6288 -9.39809 -2.13446
H -14.8623 -9.28312 -1.7812
O -12.5922 -9.36782 3.78642
H -13.4184 -8.89327 3.48291
H -11.9266 -8.69924 4.11796
O 1.95579 0.757335 -7.88759
H 1.48376 0.0179322 -7.40756
H 1.28974 1.30358 -8.39548
O -6.67291 13.3667 2.50955
H -7.4031 14.0055 2.26706
H -5.89828 13.8739 2.88731
O -13.642 -5.00858 9.81919
H -13.6688 -4.54681 10.7058
H -12.7316 -4.90717 9.41803
O -0.444162 5.38318 -4.16068
H -0.833228 5.11114 -3.28058
H 0.544319 5.23243 -4.149
O 4.16506 -10.0291 -10.8052
H 3.1691 -10.0045 -10.8913
H 4.58001 -9.61512 -11.6154
O 10.2153 -10.302 12.6561
H 10.6642 -11.1335 12.9835
H 9.22638 -10.3873 12.7773
O -5.92548 3.83808 3.23633
H -5.63275 4.67796 2.7793
H -6.88043 3.92795 3.51909
O -2.30627 -5.60872 -14.3329
H -1.78281 -4.76249 -14.2337
H -2.27343 -6.12333 -13.4761
O 3.68252 10.0205 -3.30573
H 3.01631 9.99052 -2.5606
H 4.60751 10.0256 -2.92581
O -9.3441 -12.3547 4.83987
H -8.76931 -11.7244 5.36161
H -9.63655 -11.9143 3.99109
O -14.5135 -1.58461 7.25306
H -14.3484 -2.19373 6.47739
H -15.0391 -2.0698 7.95186
O -9.34424 0.832145 -2.71406
H -9.40886 0.125219 -3.41836
H -9.39118 1.73456 -3.1423
O 4.78672 11.3423 -14.5769
H 4.47938 10.8667 14.6801
H 4.76205 10.7131 -13.8001
O -2.24881 -0.657104 -9.54981
H -2.56785 -0.251022 -8.6935
H -2.53141 -0.0816356 -10.3172
O 8.76615 -10.2197 -7.69368
H 9.37666 -9.98507 -6.93725
H 8.81681 -9.50923 -8.39556
O -11.6413 -12.8565 6.52901
H -10.8003 -12.7177 6.0062
H -11.649 -12.2415 7.31749
O 12.2038 -5.00695 10.9544
H 11.2226 -5.19888 10.9349
H 12.4502 -4.62055 11.8432
O -9.94039 9.83517 -3.98766
H -10.6781 10.0802 -3.35868
H -10.0758 8.89887 -4.31163
O -4.74161 -0.0284791 -11.4935
H -4.93231 0.951426 -11.4354
H -5.59875 -0.527968 -11.6192
O 7.51738 9.27787 -4.2754
H 7.77408 8.64434 -3.54554
H 6.82963 8.84984 -4.86171
O -7.57951 10.3263 -14.8496
H -7.50207 11.3024 15.0286
H -7.74656 9.82194 14.3845
O 2.1189 12.1108 5.34642
H 2.61592 12.4762 6.13345
H 1.24373 12.5859 5.25505
O 0.318951 -9.24231 -5.99478
H 0.182886 -10.0227 -6.60504
H -0.536998 -9.03707 -5.52025
O 11.8966 14.9912 -7.99812
H 12.6908 14.9564 -7.39148
H 11.3484 -14.2817 -7.78345
O -10.5229 7.59616 -5.61973
H -11.2513 6.91118 -5.60617
H -9.64078 7.14222 -5.74516
O -0.559811 -10.135 4.92444
H 0.0669627 -9.39262 4.68788
H -1.25049 -9.79714 5.56379
O -3.83054 9.80873 -5.03375
H -4.19486 9.20868 -5.74591
H -3.97134 9.38676 -4.13816
O 5.25366 -8.89378 -13.1944
H 4.35815 -8.47632 -13.3485
H 5.75454 -8.93676 -14.0588
O -2.78457 -12.3933 8.0801
H -2.43146 -13.2994 7.84704
H -3.32173 -12.4513 8.92157
O 0.643444 8.51405 -13.8333
H 1.11676 9.28292 -14.2631
H -0.317565 8.7514 -13.6915
O 11.2175 9.46221 -4.35541
H 11.5794 8.84538 -3.6565
H 10.3526 9.10062 -4.70352
O 11.5583 5.56271 -11.2486
H 12.0734 5.95635 -10.4872
H 11.9155 5.91867 -12.1121
O -14.4567 -1.39862 -2.14974
H -14.956 -0.680376 -1.66519
H -14.4111 -1.17428 -3.12316
O -4.55133 -14.64 1.13988
H -4.76458 -14.1413 1.98
H -3.6427 -14.3755 0.816786
O -3.54889 -14.7728 6.27251
H -3.51404 14.972 7.21355
H -4.46135 -14.411 6.08146
O 13.0061 3.06438 -9.55605
H 13.5235 3.83982 -9.91788
H 12.7566 2.45132 -10.3056
O 0.0219763 -11.9331 3.05814
H -0.0967487 -11.1229 3.63205
H 0.0770695 -11.6568 2.09868
O 4.14564 10.0089 13.1913
H 3.91362 9.04981 13.0294
H 4.34392 10.4557 12.3189
O -6.59912 -13.4722 -7.22072
H -6.58264 -13.5454 -8.21788
H -5.75844 -13.0324 -6.90484
O 12.6648 -3.74215 5.9531
H 13.3104 -3.50402 6.67867
H 12.3793 -4.69449 6.06032
O 9.10707 14.7247 4.25098
H 8.72108 -14.4379 4.33506
H 9.59979 14.6482 3.38419
O -12.5088 0.331131 1.42965
H -11.8055 0.348301 2.14031
H -12.2083 -0.255382 0.677513
O 11.8002 7.03527 12.9163
H 12.7147 6.65327 12.7827
H 11.8478 7.79504 13.5647
O 12.8176 -14.1377 2.90948
H 13.229 15.0324 2.88479
H 13.4739 -13.4859 3.28945
O -5.03645 -6.02403 -12.0214
H -4.96987 -5.05468 -11.785
H -5.99793 -6.29847 -12.0352
O 6.86766 11.3709 10.7315
H 7.58057 11.2905 11.4281
H 7.27142 11.2452 9.8253
O -2.80837 -3.06501 -10.3692
H -2.56928 -2.1921 -9.94397
H -1.98922 -3.47666 -10.7686
O 6.39734 2.11073 -2.64273
H 6.07907 1.16876 -2.74927
H 6.28056 2.60166 -3.50604
O -10.0534 -1.50739 2.10821
H -9.27203 -2.12983 2.15334
H -9.78887 -0.675236 1.62085
O -14.9047 -13.8312 7.78497
H -15.0075 -13.6665 8.76591
H -14.2228 -13.2026 7.41105
O -5.23325 9.49674 8.70402
H -5.83652 10.1028 8.18563
H -4.29627 9.84353 8.66199
O 3.61189 -6.14297 -11.2873
H 4.58289 -6.26867 -11.4905
H 3.4389 -5.18286 -11.0677
O 7.92784 -13.5991 -2.32967
H 7.74477 -13.5904 -3.31271
H 8.29587 -12.712 -2.05124
O 13.1205 -4.19765 13.1788
H 13.9032 -3.67161 13.5113
H 13.1423 -5.11496 13.5763
O 3.02749 -0.57296 14.4283
H 2.18449 -0.155988 14.7681
H 2.88407 -0.901649 13.4949
O -0.326491 13.5026 4.40572
H -0.246309 13.4687 3.40954
H -0.559205 14.4327 4.68992
O -14.4331 6.23048 0.920035
H -13.6437 5.80934 1.3666
H -14.3989 7.22165 1.04801
O -7.40729 6.71514 -2.39995
H -7.57109 7.45825 -1.75117
H -8.28264 6.36076 -2.72878
O 13.6767 -7.45019 -11.8364
H 13.047 -7.42195 -12.6127
H 14.1163 -8.34746 -11.7963
O 11.3338 -5.3714 -9.41693
H 12.0611 -5.02257 -8.82583
H 10.4467 -5.21043 -8.98439
O -5.80621 -2.67522 11.876
H -6.05716 -3.47638 11.3327
H -5.08914 -2.16318 11.4031
O -8.16736 0.609727 4.53692
H -7.18949 0.801962 4.6193
H -8.55846 0.475209 5.44736
O -11.0178 10.0703 -8.40579
H -10.6208 10.9275 -8.07762
H -11.4795 9.60599 -7.65005
O -7.50457 4.84403 10.4461
H -7.12381 4.12409 9.8659
H -6.99926 5.69404 10.2975
O -14.2052 11.7667 0.87928
H -13.9233 12.4561 0.21204
H -13.7796 11.9639 1.76239
O -11.8075 4.57849 13.5701
H -12.5345 5.26367 13.6151
H -11.3538 4.63184 12.6806
O -0.45834 15.0191 -8.67521
H -1.07347 -14.4044 -8.24045
H -0.290297 14.2566 -8.05052
O -3.9614 9.0629 13.2597
H -3.63881 9.56108 12.4549
H -4.35056 8.1867 12.9755
O -7.75655 1.07117 -12.9906
H -7.19064 1.83736 -12.6862
H -7.8168 0.390578 -12.2604
O 10.1903 -6.37641 -5.75622
H 10.6375 -6.40386 -4.86221
H 10.6873 -6.96305 -6.39562
O -11.071 6.27436 7.30923
H -11.4077 7.19358 7.51328
H -10.1101 6.32412 7.03709
O 12.0897 14.0824 -12.3511
H 12.7632 13.4449 -12.7253
H 12.4805 14.5541 -11.5608
O -3.77864 -7.89818 8.58119
H -4.718 -7.78762 8.25665
H -3.77156 -8.49285 9.3851
O -6.79256 -13.822 -0.39282
H -6.24676 -14.1013 0.397145
H -7.115 -12.8847 -0.260569
O -1.0732 -14.4035 11.1417
H -0.742591 -13.7288 10.4818
H -0.709536 -14.189 12.0482
O 11.5481 -0.744209 -8.5941
H 10.9511 -0.355021 -7.89262
H 11.0662 -1.47863 -9.07192
O 0.270501 0.881585 -12.64
H 0.50667 1.79784 -12.3165
H 1.0312 0.258076 -12.4596
O -1.24164 9.11831 -3.35751
H -1.57963 8.63328 -4.16403
H -0.807556 9.97355 -3.6405
O -2.25442 4.8086 6.24607
H -2.00674 4.62769 5.29429
H -1.43014 4.80126 6.81215
O -11.0946 14.2274 2.32618
H -11.747 13.477 2.43217
H -11.393 15.0084 2.87473
O 6.10294 7.54255 6.74514
H 5.47022 8.1319 6.24286
H 5.59166 6.98678 7.40064
O 9.73898 -5.93366 10.5887
H 10.0667 -6.84921 10.3556
H 8.80192 -5.99261 10.9328
O -2.52878 -14.9685 -10.8143
H -2.16294 14.6396 -11.6157
H -1.86339 -15.012 -10.0691
O 9.7723 3.40706 0.213691
H 8.92738 3.9051 0.408686
H 9.55022 2.51638 -0.182954
O -11.4211 6.17273 2.32413
H -10.9853 5.37118 2.7335
H -10.7603 6.65339 1.74769
O 8.83867 13.6091 -6.68125
H 8.47189 12.6789 -6.69212
H 8.74708 14.0142 -7.59092
O 10.4177 11.504 1.16071
H 9.43733 11.397 0.995255
H 10.6073 12.4442 1.44373
O 6.1456 -12.4868 -14.6923
H 5.77623 -13.1292 -14.021
H 5.39871 -11.9531 14.9922
O -0.454946 7.02108 0.322934
H 0.0897669 6.35221 0.828752
H -0.0235775 7.20236 -0.560817
O -13.8397 -6.05051 14.4581
H -13.5783 -5.45923 13.6952
H -14.8353 -6.05277 14.5521
O -5.70494 1.05519 -1.7843
H -5.64151 1.456 -0.870358
H -6.11925 1.71605 -2.41005
O 3.60626 -4.86004 10.746
H 2.95508 -4.64117 11.4727
H 3.76908 -5.84655 10.7304
O 9.97326 -2.04036 2.15318
H 10.1629 -2.51078 3.01498
H 10.2716 -2.61192 1.3888
O -1.0613 3.67999 10.7336
H -0.748511 4.27787 11.4716
H -1.01533 2.72738 11.0343
O 6.01513 3.54772 12.4321
H 6.26078 2.59559 12.6139
H 6.83704 4.06381 12.1911
O -9.69563 0.320947 6.83985
H -10.016 1.26508 6.91679
H -9.5082 -0.0428176 7.75227
O 9.74977 -7.6579 13.638
H 9.46679 -8.57114 13.931
H 10.4602 -7.73744 12.9388
O 1.83649 -10.3784 -2.02364
H 1.62902 -10.249 -1.05401
H 1.49292 -11.2688 -2.32211
O -6.20298 -4.73427 -5.28478
H -5.89353 -5.44352 -4.6514
H -7.20241 -4.70104 -5.2855
O 3.28875 -14.3093 -6.69935
H 2.83707 14.8862 -6.80639
H 2.60126 -13.6025 -6.5326
O -10.9744 -13.5423 10.7989
H -11.6793 -14.2452 10.7033
H -10.2177 -13.9014 11.3451
O -10.7598 6.64925 -14.4902
H -11.4425 5.96991 -14.2211
H -10.7618 6.74768 14.5959
O 6.79403 -14.0302 3.1052
H 6.53543 -14.9958 3.07954
H 5.99814 -13.466 2.88557
O -0.292552 4.81685 8.37848
H -0.722779 4.45175 9.20405
H 0.364896 5.52665 8.63128
O -4.03528 0.884711 6.76052
H -3.26284 0.255297 6.67612
H -4.84922 0.3774 7.04354
O -7.16076 0.373979 -5.3835
H -7.83962 -0.0963403 -4.81968
H -6.44078 -0.269149 -5.64424
O -12.6467 -14.4163 -2.69726
H -12.109 -14.9506 -3.34951
H -12.0527 -14.095 -1.9598
O 3.19308 12.4718 1.05081
H 3.76988 12.9873 0.417192
H 2.98109 11.5777 0.656338
O 9.06111 1.21609 4.20323
H 9.91539 0.868582 3.8167
H 9.21047 2.13425 4.57016
O -4.89704 0.766288 12.4218
H -5.12992 0.679656 13.3904
H -3.98552 1.16775 12.3328
O 3.87386 13.9365 14.9358
H 4.29018 14.5891 -14.5124
H 4.08089 13.0047 -14.8474
O 13.1132 -11.6399 14.0054
H 12.4265 -12.2315 13.5831
H 13.9967 -12.1082 14.0141
O 3.82823 -10.5548 14.8382
H 3.77538 -9.65578 14.4035
H 3.2244 -10.5758 -14.4462
O -6.65952 -3.54121 6.48164
H -5.97209 -4.1047 6.93977
H -7.54032 -4.0145 6.49365
O -13.9268 3.82963 6.77863
H -14.0899 2.84795 6.87684
H -14.7857 4.32493 6.90875
O 11.5227 -10.8872 8.58904
H 12.1485 -11.0767 9.34559
H 10.6222 -11.2688 8.7978
O -2.29401 2.89911 -11.7728
H -2.40869 2.8158 -12.7627
H -1.4066 3.31491 -11.5739
O -7.53741 -14.06 3.62263
H -8.07318 -13.3177 4.02506
H -8.01304 -14.4163 2.81841
O -9.06233 3.99567 -3.78881
H -9.64479 3.66594 -4.53175
H -9.63444 4.31409 -3.03298
O 5.76495 14.2068 -3.80357
H 6.41421 13.9606 -3.08399
H 6.20766 14.8223 -4.45561
O 12.0341 5.34186 -6.87069
H 12.5638 4.55166 -6.56254
H 12.5949 5.90164 -7.48074
O 14.1772 -6.53826 -0.891522
H 13.4963 -7.21318 -0.607294
H 14.4214 -5.96229 -0.111414
O -1.15498 -10.9044 -14.8642
H -1.93389 -10.3666 -14.5416
H -0.698008 -10.4163 14.4735
O -9.76751 -5.96609 -13.1505
H -10.7635 -6.03395 -13.208
H -9.4943 -5.00659 -13.2189
O -6.7499 10.4406 2.46822
H -6.9196 11.4253 2.50609
H -5.79575 10.2574 2.7049
O 10.6858 -4.28993 -12.529
H 11.0873 -4.90562 -11.8511
H 10.5607 -4.78006 -13.3916
O 10.9158 1.41818 -2.81171
H 11.3914 2.237 -2.49033
H 10.2168 1.15606 -2.14643
O -7.16505 -0.772883 13.7892
H -7.05077 -1.25397 14.6584
H -6.65861 -1.25333 13.0732
O -6.96745 11.104 -7.63867
H -7.30741 10.9011 -6.7204
H -7.05762 10.2915 -8.21456
O -5.17171 6.15869 1.08727
H -4.2674 6.51096 0.846227
H -5.61447 5.78992 0.270003
O -1.67741 -12.123 -10.6966
H -0.720527 -12.3729 -10.8447
H -2.24668 -12.9441 -10.7391
O 9.7907 -14.4713 -0.436365
H 10.3482 15.0352 -1.03543
H 8.92424 -14.2603 -0.888772
O 6.12968 -1.01101 -11.4763
H 6.61578 -1.4179 -12.2497
H 5.63171 -0.200544 -11.7847
O -8.5892 -5.95131 13.5009
H -7.84298 -6.00121 12.8371
H -9.4652 -6.01804 13.0233
O -12.0146 -0.450401 -13.0556
H -12.713 -0.379344 -13.7677
H -11.1128 -0.531149 -13.48
O -12.4855 -8.48108 13.7976
H -13.1695 -8.9464 14.3594
H -12.5217 -7.4976 13.9749
O 7.91091 -9.49509 8.79067
H 7.03516 -9.38277 9.26014
H 7.82118 -10.1932 8.08036
O 8.93241 6.89418 -12.1229
H 8.92517 7.21276 -13.0708
H 9.76672 6.36943 -11.954
O 11.815 11.8293 6.54547
H 11.0122 12.2407 6.11393
H 12.6215 11.9986 5.979
O 12.281 12.2816 9.49672
H 12.1085 12.0876 8.531
H 13.2669 12.333 9.65549
O -3.84346 10.4277 -14.4126
H -4.4145 10.2953 -13.6025
H -4.35684 10.1636 14.8521
O -4.0335 3.84715 -2.17994
H -4.09879 2.8498 -2.21151
H -4.80573 4.21551 -1.66232
O 5.26188 10.9735 6.05762
H 5.15696 11.9632 6.1551
H 6.03001 10.7782 5.44786
O -10.1229 4.70421 11.2118
H -9.16294 4.42703 11.2515
H -10.5379 4.34941 10.3741
O -2.19334 -3.78896 5.71464
H -1.6107 -4.5723 5.49816
H -2.86672 -3.66302 4.98618
O 9.27645 7.52378 -14.6403
H 9.28032 8.50682 -14.8235
H 8.40278 7.13394 -14.9313
O 12.5635 1.08354 11.6372
H 12.2668 1.94231 12.0549
H 13.4101 1.23594 11.1273
O 10.9152 12.8647 -5.09379
H 11.6415 12.4338 -5.62931
H 10.1858 13.1698 -5.7061
O 5.87122 -4.66714 -8.12627
H 5.57277 -4.21358 -8.96602
H 5.72424 -4.05713 -7.34766
O -11.6698 8.8822 8.57675
H -12.5427 9.10939 8.14497
H -11.2585 9.71204 8.95374
O -9.83044 -8.79408 12.3452
H -10.594 -8.15846 12.2316
H -10.0513 -9.45568 13.0618
O 1.3996 -10.3214 -9.77034
H 0.90481 -10.5828 -8.94162
H 1.70613 -9.37291 -9.69027
O 0.676997 -11.5403 0.320888
H 1.6562 -11.7427 0.333722
H 0.224831 -12.1239 -0.353585
O -1.24054 -6.53273 -6.73853
H -1.28575 -5.56407 -6.98267
H -1.53611 -7.08675 -7.51677
O 9.11053 -12.2464 9.76463
H 8.38073 -11.7095 10.1879
H 9.33467 -13.0248 10.3509
O -11.7224 -8.22228 0.618793
H -10.7983 -8.58387 0.494998
H -12.1722 -8.14536 -0.270997
O -2.6218 9.84931 -0.693649
H -3.01471 10.6157 -1.20183
H -2.18734 9.21389 -1.33196
O 1.56424 -11.1526 7.66215
H 2.3749 -11.146 8.24759
H 1.76097 -10.6591 6.81493
O -1.29114 -8.61005 1.14061
H -0.328258 -8.82748 1.30042
H -1.60685 -7.96429 1.8358
O -2.36265 -9.73908 7.06201
H -2.72545 -9.08512 7.72584
H -2.48074 -10.6687 7.41115
O 2.54361 -13.5075 11.0405
H 2.35249 -14.0911 11.8296
H 1.73463 -13.4641 10.4543
O 10.7727 -12.88 13.4156
H 10.6314 -13.3887 14.2648
H 10.3061 -13.348 12.6651
O 6.57017 2.93128 -11.942
H 6.4555 3.54826 -11.1634
H 7.31877 2.29503 -11.7556
O 6.70349 -6.41613 -11.7253
H 6.34949 -7.09765 -12.3657
H 7.5444 -6.75803 -11.3059
O 11.363 11.913 -9.65209
H 10.9595 11.2322 -10.2634
H 10.9209 12.7976 -9.80023
O -4.86148 4.55808 -5.12974
H -4.36175 4.70052 -4.27538
H -5.58257 3.88053 -4.98512
O 2.9566 2.82451 10.321
H 2.19387 2.5863 10.9222
H 2.61996 2.94443 9.38704
O -13.5647 -10.9852 8.26911
H -13.443 -10.0037 8.41644
H -14.3411 -11.3096 8.80941
O -10.9971 11.8012 -5.73125
H -11.9839 11.679 -5.83776
H -10.6643 11.2045 -5.00108
O 3.1026 -7.34101 -13.7689
H 2.12004 -7.2452 -13.9282
H 3.32472 -7.01497 -12.8501
O -9.53933 6.64721 12.955
H -9.80017 5.95487 12.2822
H -9.00936 6.21819 13.6864
O 3.40413 -14.3639 -3.63748
H 3.38086 -13.5535 -4.22275
H 4.08006 -15.0108 -3.99061
O 14.9602 4.50689 -10.9742
H 14.8002 4.23654 -11.9236
H -14.4641 5.26037 -10.9484
O 10.3772 -7.7261 -1.31145
H 9.45748 -7.94029 -1.64039
H 10.4322 -7.91269 -0.330572
O -10.6359 -3.60263 -4.08034
H -11.2061 -3.76436 -3.275
H -10.9974 -4.12209 -4.85455
O 4.04761 4.74145 -14.2877
H 4.0948 5.73506 -14.1854
H 4.96271 4.38119 -14.4687
O 2.5633 6.39101 5.19087
H 2.74211 7.09652 5.87661
H 1.61694 6.46425 4.87623
O 12.5819 10.0403 -0.119267
H 12.9381 9.24001 0.362971
H 12.0571 10.6063 0.516517
O -4.27049 -4.52677 -1.95189
H -4.55179 -5.17826 -2.65644
H -4.8812 -3.73509 -1.96705
O -8.54344 1.42883 0.161149
H -8.75412 1.01637 -0.725106
H -7.56046 1.36492 0.333287
O -7.38582 -9.23685 10.9721
H -6.9879 -10.0462 11.404
H -8.21073 -8.9659 11.4682
O -13.0167 9.12277 3.96645
H -12.0472 9.19544 3.73238
H -13.2352 8.17309 4.19084
O -8.76037 -9.11489 -12.0287
H -8.94141 -9.90259 -12.6175
H -9.177 -9.26606 -11.1323
O -10.1722 0.993274 -8.44584
H -10.7792 0.656406 -7.72616
H -10.7188 1.32673 -9.21395
O -8.96103 -7.3395 -7.5963
H -8.38992 -7.5332 -6.79863
H -9.18877 -6.36598 -7.61469
O 14.5265 -12.2672 3.68989
H 14.6192 -11.7993 2.81101
H -14.8361 -11.9549 4.31118
O 4.59631 5.35809 -6.89896
H 4.31218 4.49617 -7.31887
H 3.8148 5.77735 -6.437
O -6.6339 -8.59268 8.32859
H -6.81144 -8.8823 9.2691
H -7.11672 -7.73605 8.14686
O 4.66308 -5.80245 14.3724
H 4.05088 -6.27426 15.0069
H 4.86605 -4.88814 14.7229
O -8.61219 14.9452 1.36231
H -9.5926 14.8514 1.53534
H -8.46632 -14.8599 0.412339
O -3.58306 -10.678 -8.9868
H -3.99585 -9.97497 -9.5659
H -2.96183 -11.2384 -9.53443
O 14.3463 6.47469 5.16545
H 13.8691 5.83099 4.56721
H -14.7702 6.21926 5.22783
O -8.23401 -10.2802 6.23203
H -7.68812 -9.64639 5.68407
H -7.81601 -10.3861 7.13426
O 1.10669 13.055 -11.0456
H 1.84465 13.6971 -10.838
H 1.49532 12.2013 -11.3922
O 5.80358 -1.88078 -7.32955
H 6.24822 -1.71348 -8.20947
H 4.984 -1.3125 -7.25685
O -9.10382 -7.33568 -4.11725
H -9.05051 -7.55447 -3.14296
H -8.82666 -8.13289 -4.65353
O 1.333 13.9849 -2.17278
H 1.6297 14.2445 -1.25379
H 1.95565 14.3801 -2.84812
O 10.1095 -5.24426 -15.0264
H 9.89713 -6.20674 14.886
H 9.73067 -4.68509 14.3174
O 10.295 6.45089 8.53756
H 9.69874 7.25278 8.50083
H 11.2271 6.73846 8.75778
O -8.75941 7.38412 -12.4566
H -8.97791 8.31113 -12.1519
H -9.44336 7.08158 -13.1204
O 9.29141 0.351273 -7.27071
H 8.68938 -0.350624 -7.65131
H 9.09151 1.23123 -7.7016
O 7.65225 12.4215 1.40388
H 7.1341 13.1839 1.01635
H 7.51107 12.3913 2.39338
O -2.51303 -4.00833 12.0506
H -3.30177 -4.44039 12.4878
H -2.72322 -3.0503 11.8558
O -8.54475 4.12058 -8.01475
H -9.091 4.93008 -7.79965
H -9.11165 3.45543 -8.5007
O 1.44432 -7.68533 1.26658
H 2.37178 -7.50875 0.937053
H 0.786348 -7.45464 0.549771
O -4.88598 -3.35817 -12.1911
H -5.60404 -2.66228 -12.2009
H -4.1439 -3.06293 -11.5893
O 11.916 -11.0418 -0.663595
H 12.8158 -11.4013 -0.416314
H 11.3175 -11.0618 0.137238
O 3.47602 -3.21512 -14.704
H 4.12576 -3.44451 -13.9793
H 3.21588 -2.25273 -14.6261
O 7.73936 -0.0854594 0.907298
H 8.48805 -0.701259 1.15268
H 7.72027 0.685993 1.54327
O 8.01031 -14.4743 -13.7508
H 7.7916 14.7066 -14.1269
H 7.79623 -13.7696 -14.4272
O -11.8954 -7.99128 8.13224
H -12.1877 -8.36171 9.01389
H -12.4735 -7.21222 7.88986
O -12.1279 9.63123 0.361878
H -13.0932 9.59447 0.62035
H -11.5762 9.85683 1.16481
O -0.661878 5.31119 12.8081
H -0.369754 4.61566 13.4645
H -1.33243 5.9152 13.2388
O -7.49613 -2.14343 4.05049
H -6.84879 -2.58015 4.67513
H -7.66214 -1.20282 4.34656
O 6.14097 -2.65027 13.2644
H 5.65083 -2.33594 12.4514
H 5.50189 -2.72828 14.0295
O 9.49259 -4.27669 -7.77611
H 9.67368 -4.81622 -6.95387
H 8.50831 -4.25655 -7.95146
O -0.390694 -13.2699 13.7656
H 0.512964 -12.8513 13.6755
H -0.962258 -12.7043 14.36
O -5.01552 1.78985 -8.61165
H -5.84371 1.2347 -8.53499
H -4.35002 1.49191 -7.92733
O 7.66407 6.08445 4.91119
H 8.23907 6.87894 4.71593
H 6.92824 6.35052 5.53386
O 14.7872 13.6538 -6.27573
H -14.5688 14.2551 -6.61115
H 14.294 14.1082 -5.53392
O -13.7659 3.81015 2.35108
H -13.9228 3.30972 1.49966
H -14.4847 3.5834 3.00825
O -9.17132 -14.645 -1.42025
H -9.57825 -13.766 -1.66898
H -8.20255 -14.5158 -1.20869
O 0.803796 8.11618 -1.99301
H -0.00723186 8.29387 -2.55034
H 1.50549 8.79833 -2.1986
O -2.01495 11.9917 5.86716
H -1.51211 11.9221 6.7287
H -1.49632 12.554 5.22307
O 14.5094 4.3705 -13.7591
H 14.3536 3.48668 -14.2002
H -14.601 4.60364 -13.8136
O 0.91175 11.4053 -2.63993
H 1.14409 11.1968 -3.58993
H 1.17711 12.3465 -2.43072
O 13.5292 2.79321 -6.71875
H 13.2723 2.71855 -7.68227
H 14.1306 2.03264 -6.47428
O -1.8701 7.18699 -10.8389
H -1.75744 7.9522 -11.4727
H -2.38108 7.49222 -10.0354
O -1.56924 -13.3388 -1.47134
H -1.56796 -14.1057 -2.11307
H -1.89628 -13.6511 -0.579437
O 5.36752 -2.11425 1.86853
H 5.9598 -1.43623 1.43327
H 4.41337 -1.91657 1.64386
O 2.73709 14.003 3.05767
H 2.93735 13.2757 2.40123
H 2.1627 13.6406 3.79165
O 6.61904 3.44119 4.17047
H 6.83743 4.41479 4.23661
H 6.77048 3.00464 5.05729
O 6.81148 -2.32067 -5.07002
H 6.49499 -2.24956 -6.01592
H 7.14941 -3.24639 -4.90031
O -1.26302 12.0579 -11.4371
H -0.393122 12.5432 -11.3493
H -1.84049 12.5271 -12.1052
O -12.2397 -11.3966 12.1399
H -12.5007 -10.6669 11.508
H -11.8058 -12.1395 11.6302
O 1.88261 -3.54451 -11.1903
H 2.14798 -3.08775 -12.0394
H 1.0456 -4.07016 -11.3421
O 8.59195 1.37569 -1.23395
H 7.76896 1.6051 -1.75358
H 8.37008 0.684361 -0.54635
O -5.48236 -14.5367 14.5364
H -6.03996 14.8033 14.1628
H -4.52461 -14.8226 14.5664
O -3.41932 12.241 -2.26272
H -2.71435 12.6892 -2.81238
H -4.2258 12.83 -2.21053
O 13.7007 14.0997 6.64794
H 14.0623 14.7518 7.3142
H 12.7094 14.2106 6.57717
O 13.9585 12.0193 4.57198
H 13.7831 12.344 3.64257
H 14.4347 12.7305 5.08913
O 12.2104 -2.78775 -4.37065
H 11.5143 -3.27972 -3.8478
H 11.8643 -1.8826 -4.61729
O -10.3847 3.79698 -10.3915
H -10.9583 2.97785 -10.3877
H -9.63668 3.67709 -11.0442
O 1.27412 4.98157 -7.26442
H 0.970631 5.26029 -8.17556
H 1.72187 5.75272 -6.81186
O -7.90432 -10.0611 2.73886
H -7.63993 -9.31034 3.34418
H -8.86103 -10.3009 2.90359
O 9.37316 7.36619 -3.40431
H 8.82416 6.96639 -2.67034
H 10.2763 6.93697 -3.4167
O 3.93856 3.10048 -8.52061
H 4.81278 2.64595 -8.35002
H 3.18972 2.46931 -8.31858
O -3.54088 8.29304 -9.02125
H -4.38259 7.87619 -9.36433
H -3.60327 9.28754 -9.10502
O -5.23819 -3.29638 -8.89412
H -4.30682 -3.14808 -9.22655
H -5.43576 -4.27658 -8.88233
O 3.54033 9.34898 -5.99706
H 3.5619 9.62804 -5.03705
H 4.46864 9.13962 -6.30425
O 9.75557 -8.7626 10.5338
H 9.99801 -9.3847 11.2782
H 8.99615 -9.14905 10.0104
O 0.425268 5.99073 -9.82084
H 1.14518 6.50625 -10.2855
H -0.466958 6.37174 -10.0632
O -8.98029 -11.8372 -13.0077
H -8.86032 -12.7612 -12.6449
H -8.46965 -11.7458 -13.8626
O -11.7687 12.7186 -14.7715
H -12.3675 12.914 -13.9948
H -11.6462 11.7299 -14.8575
O -1.64766 -4.48643 -3.49518
H -2.28546 -4.05288 -2.85862
H -1.77332 -4.09907 -4.40848
O -9.26178 11.5948 12.305
H -9.59432 11.6605 13.2458
H -8.71536 10.7637 12.202
O -7.64917 -6.50225 -11.3009
H -8.11611 -7.28325 -10.8862
H -8.21966 -6.1205 -12.028
O -13.6976 -11.3055 5.4202
H -13.7659 -11.3167 6.41777
H -13.0841 -10.5686 5.13636
O -1.34712 10.7118 14.2632
H -2.29185 10.6788 14.5893
H -0.729716 10.8269 -15.0399
O 14.5308 8.54386 11.1041
H 13.5661 8.76082 11.2536
H 14.6272 7.56674 10.9146
O 13.4916 -2.89469 -14.0033
H 14.0735 -3.31865 -13.3093
H 12.5311 -3.05476 -13.7759
O 13.1898 -9.4683 12.0465
H 12.2152 -9.68885 12.085
H 13.5849 -9.54284 12.9621
O 4.98118 9.64379 -12.6089
H 4.9256 8.87428 -13.2451
H 5.36522 9.331 -11.7402
O -13.9081 1.04999 7.15123
H -14.0613 0.0625556 7.11313
H -13.6464 1.38189 6.24497
O 13.3731 12.0335 14.4561
H 12.919 11.1585 14.2886
H 13.5612 12.1298 -14.6478
O -12.3726 14.8375 -10.6029
H -11.7512 14.7948 -9.82064
H -12.6898 -14.3034 -10.7257
O 0.218448 14.9756 -5.47543
H 0.43786 -14.199 -5.8357
H 1.00617 14.3708 -5.59251
O -12.9388 1.59876 13.1295
H -12.3515 2.40052 13.2401
H -13.5451 1.73524 12.3461
O 5.37937 3.53134 9.04953
H 4.56494 3.26362 9.5643
H 6.17982 3.06485 9.42584
O 9.16467 2.47028 8.02666
H 9.21873 3.34607 8.50626
H 8.58344 1.84225 8.54406
O 1.23396 -10.1377 -13.3649
H 0.857006 -10.5722 -14.1829
H 1.07144 -10.7239 -12.5712
O -7.54514 12.8956 14.5928
H -8.13316 13.6125 14.9673
H -7.6699 12.846 13.6019
O 5.92685 3.65496 -4.96125
H 6.54473 3.39802 -5.70433
H 5.59445 4.5861 -5.11107
O -3.84063 -8.43864 4.82984
H -3.24921 -8.88082 5.50413
H -3.31846 -7.74674 4.33128
O -7.75693 5.47029 -14.9717
H -7.59617 6.45673 -15.004
H -7.23673 5.02376 14.3815
O -8.60381 -6.78303 5.48442
H -8.92015 -5.83728 5.41063
H -9.38134 -7.38014 5.68155
O 7.28459 -6.20594 11.7962
H 7.08866 -7.17532 11.9441
H 6.62523 -5.65141 12.3039
O -8.03802 8.08294 2.21879
H -7.51724 8.9308 2.11938
H -7.52503 7.44163 2.78932
O 10.9597 9.27965 7.14964
H 11.4149 10.1698 7.16691
H 10.0662 9.35358 7.59237
O -13.0516 13.5141 6.44119
H -13.9563 13.9084 6.27991
H -13.1494 12.6364 6.91025
O 11.6653 6.13501 -3.1458
H 11.6911 5.41459 -2.45277
H 11.3936 5.7426 -4.02451
O 5.98101 8.21843 -6.72054
H 6.85694 7.98205 -7.14105
H 5.23537 7.83555 -7.26587
O -2.63593 5.79649 -8.1166
H -2.83525 6.70916 -8.47334
H -3.08666 5.1099 -8.68704
O -6.64795 7.50934 10.3974
H -7.58922 7.73655 10.1477
H -6.01963 7.91777 9.73532
O 9.59396 11.4572 -3.2783
H 9.03351 10.7327 -3.67944
H 10.2065 11.8295 -3.97559
O -7.68386 -10.3608 -7.86956
H -7.12051 -10.6946 -8.6253
H -8.60342 -10.1556 -8.20464
O -10.495 13.1054 5.87192
H -9.97928 13.5761 6.58772
H -11.4509 13.3974 5.903
O -8.55793 4.70665 4.23151
H -8.18156 4.55577 5.14559
H -9.48436 4.33293 4.18666
O -6.48033 8.23757 -13.4846
H -6.8592 9.00855 -13.9964
H -7.22488 7.71581 -13.0682
O -1.42632 -13.8606 4.42013
H -1.17541 -13.0914 3.83244
H -2.16555 -13.5837 5.03401
O -5.9795 -2.96008 1.17366
H -5.98542 -2.07693 1.64267
H -5.41318 -2.89727 0.351895
O 14.8616 11.8094 10.3813
H 15.0223 12.5266 11.0593
H 14.9723 10.9134 10.8113
O -11.7294 8.97796 -12.4661
H -12.5181 8.61589 -12.9628
H -12.0459 9.55143 -11.7105
O -7.8922 -3.23196 -1.63496
H -7.46949 -4.09279 -1.35169
H -8.88721 -3.33128 -1.62859
O 1.98952 6.44137 8.88213
H 2.83074 5.95014 8.6563
H 2.1453 7.42551 8.79754
O 7.13442 -6.84712 -14.4935
H 7.76663 -6.40164 -13.8597
H 6.27305 -6.33971 -14.5168
O 6.22587 12.2169 -8.9339
H 5.98569 11.2514 -9.03414
H 5.98944 12.5253 -8.01251
O -6.11281 3.11006 9.03708
H -5.6907 2.98562 8.13915
H -5.54727 3.72263 9.58924
O -0.677694 -4.31403 8.90494
H -1.1315 -3.4419 9.0877
H 0.274121 -4.14705 8.6478
O 7.32031 -11.3052 -11.9622
H 6.32405 -11.2661 -12.039
H 7.58812 -12.1691 -11.5359
O -10.0377 -15.0221 7.86749
H -10.3576 14.5969 8.69448
H -10.7723 -14.4528 7.49849
O 2.42587 6.99712 -11.3579
H 2.33848 7.56761 -12.1745
H 2.91243 6.15495 -11.5901
O -11.5127 -3.40291 -14.5146
H -11.883 -4.27168 -14.1859
H -12.1875 -2.67847 -14.3741
O 13.4333 -11.5499 10.315
H 13.6879 -10.9313 11.0584
H 13.713 -12.4817 10.5462
O -9.20136 -14.8159 -11.9712
H -10.1665 -14.948 -11.7452
H -8.74371 -14.3455 -11.2167
O -5.35035 5.80826 -12.6137
H -5.23668 6.77711 -12.8336
H -5.40502 5.27855 -13.4601
O -9.20076 -0.135657 9.46109
H -8.38668 0.411909 9.65451
H -9.13534 -1.01088 9.94032
O -6.46139 -10.4774 14.554
H -5.85565 -10.7919 13.8232
H -6.77313 -9.54894 14.3521
O -2.18769 -6.78805 13.2216
H -1.35405 -6.65531 12.6855
H -2.06211 -6.40009 14.1346
O -14.7019 -4.41547 -12.1537
H -14.0085 -3.81599 -11.754
H 15.0273 -5.0331 -11.4504
O -8.09072 6.82303 -6.75273
H -7.90245 7.50702 -7.45747
H -7.33729 6.16659 -6.71562
O -3.39548 11.504 -9.76559
H -2.57269 11.8471 -10.2187
H -3.86666 10.8628 -10.3712
O -11.8237 -7.09232 -3.90941
H -11.9751 -8.06808 -4.06729
H -10.8487 -6.88798 -3.99652
O 5.05578 -9.30008 -8.1559
H 4.71228 -9.47285 -9.079
H 5.05896 -10.1544 -7.63613
O 1.14428 13.9522 7.25588
H 0.441571 14.6635 7.24036
H 0.724717 13.0741 7.48592
O -1.06367 -9.78734 10.9623
H -2.05134 -9.94233 10.9414
H -0.835122 -9.0136 10.3715
O -4.56407 -11.7103 -6.5721
H -4.84559 -11.0389 -5.8866