2593
Atoms. Timestep: 1000000
O 7.83163 2.71196 3.28754
H 7.31448 3.19375 3.99493
H 7.79542 1.72768 3.46028
O -9.72532 5.84944 -8.36487
H -10.5374 5.4846 -7.90944
H -8.97854 5.18808 -8.29498
O -3.06243 -2.36663 13.4188
H -3.86384 -2.87142 13.098
H -3.32821 -1.4304 13.6486
O 0.322459 7.34883 -12.4707
H -0.0446508 6.91234 -13.2921
H 0.603461 8.28375 -12.6873
O -13.0682 3.58333 -5.29944
H -13.9557 3.13437 -5.40324
H -12.463 3.00333 -4.75418
O 8.01726 -13.9356 -12.0908
H 8.35182 -14.6132 -12.7457
H 7.01739 -13.947 -12.0808
O 11.7957 4.14504 1.37137
H 12.3992 3.3769 1.15745
H 11.3974 4.50135 0.526194
O -5.83335 -9.44883 1.78309
H -5.55355 -10.3919 1.60326
H -6.8237 -9.36783 1.67081
O -11.3282 0.304855 6.65913
H -11.3525 -0.591585 6.21668
H -12.006 0.33237 7.39389
O -4.60895 -4.29237 12.3624
H -5.52228 -4.59364 12.6363
H -4.639 -3.94813 11.424
O 14.8694 -9.0341 -1.92911
H 14.5056 -8.6506 -2.77798
H 14.1271 -9.14433 -1.2682
O 5.96215 5.86715 -7.69459
H 5.93999 6.81456 -7.3754
H 5.13253 5.6722 -8.21774
O -14.196 -11.1883 -11.9617
H -13.8238 -10.2839 -11.7532
H 14.8368 -11.1528 -11.9307
O 14.9249 5.25673 -11.3079
H -14.4314 5.94198 -11.5804
H 14.0201 5.6801 -11.2628
O -10.7143 11.7969 -11.0504
H -9.85177 12.1699 -11.3922
H -11.3014 12.5448 -10.7405
O 0.152329 9.20302 -9.97291
H 0.380274 10.1381 -10.2442
H -0.514773 8.82324 -10.6138
O 14.9952 -5.59835 -0.395987
H -14.473 -6.42436 -0.387518
H -14.8719 -5.07396 0.439405
O -14.9997 1.29363 -3.50043
H 14.5919 1.6678 -4.31673
H 14.9418 0.297721 -3.50001
O -8.87544 -13.2629 9.91051
H -8.80875 -12.3015 10.1775
H -9.19267 -13.3247 8.9642
O 6.81804 -10.7151 0.0300302
H 6.25358 -10.3883 0.788003
H 7.7637 -10.8174 0.338643
O -6.88959 2.73088 -12.7604
H -7.57602 2.35732 -13.3843
H -6.36405 3.44068 -13.2294
O -2.72599 -5.47239 -8.16888
H -2.88943 -4.72534 -8.81322
H -2.42112 -5.09694 -7.29364
O -10.7768 -10.8843 -13.8894
H -10.0644 -10.4234 -14.4185
H -11.665 -10.4756 -14.0993
O 8.97436 10.4257 -6.8248
H 9.9432 10.2355 -6.98339
H 8.73991 10.1962 -5.88017
O -4.7932 -1.38751 -14.1225
H -4.00159 -1.93293 -13.8471
H -4.55685 -0.41644 -14.0889
O 2.90457 -3.70545 4.46868
H 3.43567 -3.59407 3.62875
H 2.05201 -4.18575 4.26272
O 5.75246 -7.25532 10.5585
H 6.32241 -7.96149 10.9786
H 5.27132 -7.64018 9.77088
O -5.32488 11.8291 -5.80923
H -4.42675 11.521 -5.49553
H -5.44007 12.798 -5.59031
O -12.8143 10.9639 12.22
H -13.6519 10.8884 11.6791
H -12.6415 11.9252 12.4344
O -0.949925 2.18366 -13.235
H -1.13593 3.16478 -13.1822
H -1.19918 1.84552 -14.1424
O 13.4119 -2.4337 -14.4111
H 13.0071 -1.63382 -13.9681
H 12.7335 -2.86393 -15.0066
O -10.7614 -9.64206 -3.63932
H -11.7239 -9.37113 -3.64915
H -10.3147 -9.31566 -4.47233
O 10.438 1.23507 -9.50633
H 10.0951 0.519255 -8.89803
H 10.5164 0.873627 -10.4354
O 4.64331 12.5194 -7.36819
H 4.51165 12.1369 -6.45365
H 3.78613 12.9239 -7.68686
O 10.1009 7.62864 14.3493
H 9.82387 7.01623 -14.942
H 10.0928 8.57323 14.6774
O 2.67679 -5.46658 -6.47577
H 2.49697 -6.27646 -7.03409
H 1.96609 -4.78293 -6.64158
O 14.3305 2.72319 -5.79202
H 14.2788 3.70936 -5.94937
H 14.1879 2.23991 -6.65577
O 11.7997 1.00699 -1.87982
H 11.9146 0.33505 -2.61142
H 12.3058 1.83859 -2.10851
O 9.59793 -6.71761 14.3356
H 9.08261 -6.05348 14.8772
H 9.29601 -7.64242 14.5669
O 10.8006 -5.55883 -3.78583
H 10.9163 -4.57027 -3.88247
H 11.141 -5.84837 -2.89128
O 3.36053 5.46526 -9.08756
H 2.68471 5.83987 -8.45282
H 3.29974 4.46713 -9.08831
O 7.14623 -4.81979 9.82291
H 6.7449 -5.66499 10.1758
H 7.16271 -4.85055 8.82354
O 4.66347 -10.8868 -10.0204
H 3.98259 -10.6369 -9.33201
H 4.35586 -10.5787 -10.9207
O -14.4984 10.1349 -0.50726
H 14.751 9.51367 -0.461577
H -13.7318 9.74357 0.00187564
O 0.827199 -3.58061 -7.36502
H -0.0412006 -3.62995 -6.87165
H 0.691479 -3.88003 -8.30942
O 10.3997 -9.11652 5.88707
H 9.87177 -8.87475 6.70121
H 10.6785 -8.2826 5.41085
O -12.5513 5.06181 -7.84273
H -13.4725 5.42641 -7.9782
H -12.5608 4.40326 -7.09027
O -1.06781 14.4808 14.1216
H -0.797909 14.0186 14.9662
H -2.0494 14.6703 14.1443
O -5.7745 2.80468 -3.93261
H -6.73946 2.88083 -3.68161
H -5.54633 1.84421 -4.09195
O 14.4197 -14.2764 1.4547
H 14.5086 -14.2517 0.45899
H 13.6122 -14.8109 1.70408
O -1.03261 -9.40171 -12.6203
H -1.5295 -8.74663 -12.0512
H -0.982288 -9.05772 -13.5579
O 2.66573 11.2028 14.5819
H 3.19593 10.3831 14.3653
H 1.75961 11.1336 14.1646
O -3.32747 -5.52033 14.909
H -4.2401 -5.83647 -14.8636
H -3.39209 -4.95149 14.0891
O 4.64415 -5.86263 13.0114
H 4.78549 -6.48945 12.2452
H 3.98689 -6.26106 13.6511
O -2.27675 -0.409247 6.20545
H -1.35291 -0.0292446 6.25099
H -2.88899 0.253725 5.77464
O -4.90807 5.82705 1.37278
H -5.04149 6.00011 2.3486
H -5.10509 4.86691 1.17457
O 6.85586 -1.74409 -14.2474
H 6.32759 -2.33714 -14.855
H 7.83044 -1.8458 -14.4469
O -0.20214 -7.35163 -1.05518
H -0.0216789 -8.28771 -1.35709
H 0.391308 -6.7202 -1.55426
O 6.7579 -13.8301 -5.0278
H 5.98713 -13.3573 -5.45481
H 7.17371 -14.4545 -5.68907
O -12.3177 -0.624944 -4.43992
H -12.9619 -0.877837 -3.71802
H -12.8108 -0.514304 -5.30281
O 8.2987 12.5206 -1.62514
H 7.86883 12.1321 -2.44015
H 8.41537 13.5062 -1.74753
O -12.8532 -2.15627 14.1376
H -13.4821 -2.42836 14.8659
H -11.9942 -1.83964 14.54
O -7.1213 -0.0854412 6.22624
H -7.84854 -0.765477 6.13328
H -6.61784 -0.249687 7.07449
O -3.57643 4.51787 13.9008
H -3.38737 3.88278 13.1519
H -3.76469 5.4264 13.5279
O 13.88 -0.928716 -10.56
H 13.9385 -0.183821 -9.89543
H 13.7235 -0.550036 -11.4722
O 9.31929 -13.729 6.55735
H 9.05346 -14.6611 6.80357
H 10.2868 -13.5914 6.76917
O -10.3845 5.96788 14.8504
H -10.7427 6.49917 14.0827
H -9.38499 5.97004 14.8198
O -9.35986 7.63239 -0.40153
H -10.1872 7.2569 0.0160689
H -9.47307 8.61635 -0.539243
O 5.11898 10.5666 -9.98101
H 5.10465 11.5462 -10.181
H 5.99856 10.3226 -9.57264
O -10.3981 -1.48467 -14.3315
H -10.1079 -2.24247 -13.7471
H -10.7186 -0.728105 -13.7615
O 11.9809 -14.1312 5.78974
H 12.3962 -13.2244 5.71768
H 12.6998 -14.8216 5.87047
O 11.7341 8.68087 -11.2346
H 11.433 9.14466 -12.0678
H 11.0433 8.79611 -10.5208
O 7.39391 -11.3701 -6.93973
H 7.89665 -10.9099 -6.208
H 7.77114 -12.2857 -7.07855
O -10.2451 -10.3499 -1.17736
H -9.48821 -11.0027 -1.14771
H -10.4663 -10.1391 -2.1295
O 8.40481 -2.15709 2.95078
H 7.53588 -2.01066 2.47805
H 8.59154 -1.38095 3.55303
O -3.63286 -11.3903 -14.424
H -2.68474 -11.4263 -14.7398
H -3.73087 -11.9475 -13.5994
O -7.43759 -8.91985 10.6708
H -7.57041 -9.06695 9.69064
H -6.54938 -8.48731 10.8256
O 9.73844 -1.13451 5.38989
H 8.7861 -0.916732 5.60339
H 10.0741 -1.82524 6.03038
O 8.69979 13.6333 -13.155
H 8.19725 13.5073 -14.0103
H 8.41016 12.9418 -12.4933
O -3.24349 -0.364487 10.8106
H -3.94783 -0.931706 11.2374
H -3.09867 -0.66578 9.8682
O -11.4759 5.55117 8.07121
H -11.7765 6.34845 7.54782
H -12.2655 4.97639 8.28598
O -5.91892 -7.02536 -1.89813
H -6.40629 -6.16745 -2.06066
H -5.18404 -6.87128 -1.2377
O 5.11677 -2.74387 -12.3264
H 5.59686 -2.86389 -11.4575
H 5.77409 -2.49997 -13.0395
O 3.06115 -14.6421 3.65773
H 2.98022 -13.6528 3.53678
H 2.34531 14.9299 3.13216
O 7.66407 -7.78097 1.58158
H 8.47763 -7.21656 1.72131
H 7.06241 -7.70099 2.37629
O -13.2362 -13.2684 -7.62839
H -14.1709 -13.3712 -7.96851
H -12.5981 -13.2803 -8.39828
O -2.71793 -3.6015 -1.07024
H -3.57217 -3.09086 -0.972842
H -2.72477 -4.10034 -1.93689
O 4.04263 -10.7181 11.5424
H 3.35798 -10.3527 10.9117
H 4.54991 -11.4539 11.0938
O 5.52226 -9.12985 -6.49885
H 6.07508 -8.33172 -6.25939
H 6.10627 -9.82746 -6.91385
O -11.5011 -3.82017 -10.4804
H -12.2111 -4.19368 -9.8834
H -11.5078 -2.82191 -10.4221
O -5.80606 14.4171 -4.57401
H -6.60543 14.4739 -5.17212
H -6.07284 14.0142 -3.6985
O 8.61606 9.61876 8.74007
H 7.81121 9.02901 8.80618
H 9.20266 9.47265 9.53664
O 3.8061 13.6223 -14.9374
H 4.77581 13.5403 -14.7074
H 3.40446 12.7101 15.0134
O 10.3766 5.32963 12.4238
H 11.3719 5.42601 12.4171
H 9.98866 5.92661 13.126
O -0.0203139 11.5811 -3.67522
H 0.766541 10.9855 -3.83681
H 0.285458 12.4252 -3.23485
O 0.271108 -11.6274 12.0342
H 0.433155 -11.9548 11.1033
H 0.813559 -10.8032 12.1967
O -0.46353 -2.60151 -9.69097
H -0.485724 -1.65629 -9.36534
H -1.30452 -2.80057 -10.194
O -0.135852 -11.6924 -13.5716
H -0.793993 -11.653 -14.3235
H -0.310775 -10.9406 -12.9359
O -8.68247 1.5706 -3.17193
H -8.41664 1.50311 -2.21029
H -7.95379 1.19743 -3.74615
O -1.68157 4.74583 -13.8284
H -2.26445 4.57069 -14.6219
H -2.10686 5.44147 -13.2495
O 13.3788 8.50018 -1.97527
H 13.3695 8.81604 -2.92401
H 12.8459 9.12923 -1.40932
O 12.6429 -4.89604 11.1399
H 13.4391 -5.24981 10.6492
H 12.232 -5.62959 11.6813
O 5.71797 -5.23309 3.12619
H 5.09663 -4.67143 2.57989
H 6.49317 -4.67718 3.42615
O 6.15024 2.77648 12.9676
H 5.91531 2.21702 13.7625
H 5.77167 3.69484 13.0828
O -5.93875 -13.8055 -14.7777
H -6.55132 -14.5343 -14.4718
H -6.47439 -13.0777 14.8259
O 7.26109 7.87038 -4.58399
H 7.4603 6.89106 -4.61854
H 7.95835 8.33325 -4.03668
O -7.54165 4.65253 4.29111
H -7.83766 5.14802 3.47451
H -8.26036 4.69428 4.98513
O -10.1267 10.6795 4.73116
H -10.6555 10.8157 5.56893
H -9.53144 11.4687 4.58065
O 13.9486 14.1449 6.11084
H 14.2637 13.9424 7.03803
H 14.4378 13.5658 5.45866
O -14.409 -4.05728 -4.28644
H -13.5919 -4.61976 -4.16005
H 14.8276 -4.53602 -3.91414
O -5.08513 8.74653 -11.5478
H -4.88586 9.24236 -10.7026
H -5.73159 8.00799 -11.3565
O -9.12252 -4.32667 -9.11247
H -9.86131 -3.95133 -9.67218
H -9.30533 -5.29128 -8.92254
O 10.2686 -13.4184 9.99091
H 10.7307 -12.5961 9.65881
H 10.0035 -13.2889 10.9464
O 10.8013 -9.56135 -3.34736
H 9.90621 -10.0048 -3.30155
H 11.3029 -9.73456 -2.49978
O 2.31121 -1.28382 -7.867
H 2.4293 -1.61824 -8.80198
H 1.60392 -1.82115 -7.40767
O -10.0992 4.51792 5.70954
H -10.3387 5.27721 5.10448
H -10.2917 4.77328 6.65702
O -7.49694 -9.07614 7.94367
H -7.15136 -9.33094 7.04056
H -8.47262 -8.86644 7.88021
O -2.34599 6.87404 10.2103
H -2.4259 7.47312 9.41366
H -2.28953 5.92265 9.90761
O 7.22032 0.209838 4.0471
H 6.43777 0.44527 3.47078
H 7.0274 0.469278 4.99338
O 7.76319 -10.4749 -13.1986
H 8.35852 -11.0443 -13.7655
H 7.97745 -10.6262 -12.2336
O 7.43572 -14.9734 -0.291093
H 6.8797 -14.8393 -1.11134
H 7.73295 -14.0851 0.0590268
O 4.2939 -3.91001 -2.471
H 4.42537 -4.38102 -1.59875
H 4.49997 -2.93789 -2.35923
O 2.2042 -6.98157 3.51399
H 1.39823 -6.46838 3.219
H 2.15863 -7.13521 4.50105
O -0.748695 -3.36306 10.3632
H -1.727 -3.36605 10.5703
H -0.538462 -2.59537 9.75789
O -4.70057 -7.14464 0.648682
H -3.72703 -7.37196 0.626028
H -5.21191 -7.90771 1.04391
O 10.7378 13.368 -6.63069
H 11.1188 12.7457 -7.3145
H 11.2595 14.2211 -6.62883
O 6.56957 -3.17395 -9.90098
H 7.5695 -3.17221 -9.91137
H 6.24611 -3.46457 -9.00049
O -10.2192 -8.52261 8.14705
H -10.5634 -8.95612 8.97986
H -10.4024 -7.54019 8.18252
O 6.35935 14.1229 -8.87907
H 5.64812 14.7952 -9.08437
H 5.94327 13.3135 -8.46479
O 8.23473 -2.25261 -3.26984
H 7.81291 -3.06241 -3.67757
H 8.27597 -2.36251 -2.27677
O -8.61064 -6.85495 -11.6467
H -9.11175 -7.2685 -10.8866
H -7.65544 -7.14918 -11.6156
O 11.6126 -3.07334 -2.92736
H 11.4441 -2.74861 -1.9967
H 11.8952 -2.30549 -3.50223
O 0.524689 -6.3125 -4.33544
H 0.853723 -5.59083 -3.72642
H 1.20962 -7.03888 -4.39203
O 4.10833 -3.59094 2.08239
H 3.77953 -4.01211 1.23713
H 4.73852 -2.84682 1.8608
O -14.3557 -5.00482 14.1562
H -14.1979 -5.63121 13.3928
H -14.6458 -4.11541 13.8031
O -3.74604 -3.69252 -9.90269
H -3.52485 -2.74436 -10.1308
H -4.69886 -3.8793 -10.1419
O -9.41664 2.16981 7.70891
H -10.31 1.72491 7.6465
H -8.73056 1.60574 7.24947
O 5.67258 0.910949 0.552829
H 6.32715 1.66385 0.484644
H 4.74703 1.25956 0.405239
O -14.8211 -3.37819 -10.923
H -14.5295 -3.38741 -11.8795
H -15.0059 -2.43707 -10.64
O -5.97422 -4.92509 1.27172
H -5.51694 -5.79543 1.0891
H -5.67104 -4.24319 0.606089
O -8.73362 -12.7989 13.3159
H -8.11588 -12.0583 13.58
H -9.11899 -12.6057 12.4136
O -11.2913 -9.33933 10.6346
H -11.3881 -8.45122 11.0839
H -12.1947 -9.74908 10.5082
O 1.88715 6.79207 2.30689
H 0.980277 6.64282 1.91285
H 1.83322 7.50375 3.00729
O 10.9346 3.64843 -4.11069
H 10.4963 4.49166 -3.79953
H 11.6747 3.4063 -3.48327
O -9.06789 9.22348 -5.22304
H -9.1778 9.83902 -6.00342
H -8.42244 9.62274 -4.57192
O 1.04044 11.0313 10.9952
H 1.06815 10.1021 10.6267
H 0.0940823 11.2801 11.2013
O -8.94634 13.4146 5.58597
H -9.64114 13.3873 6.30462
H -8.44005 14.275 5.6444
O 1.63633 8.70771 0.0942469
H 1.82597 7.91225 0.669785
H 1.45266 8.40604 -0.841288
O -14.6848 -8.78941 10.0996
H -14.3218 -8.55477 11.0013
H -14.3927 -9.71339 9.85278
O -13.0271 9.64934 -14.9957
H -12.1822 9.35691 -14.5478
H -12.8147 10.0153 14.13
O -13.7423 -7.93115 0.105797
H -12.7832 -8.19884 0.197006
H -14.1113 -8.29882 -0.747821
O 14.2057 7.41133 9.85417
H 14.8054 7.34989 10.652
H 14.7281 7.74468 9.06937
O 12.7375 -10.5402 -0.958753
H 12.0218 -10.8691 -0.342587
H 13.6345 -10.7541 -0.572049
O 9.03232 -11.0867 8.45207
H 9.99064 -10.8968 8.66547
H 8.98198 -11.7782 7.73152
O 6.57242 -10.2889 14.4794
H 6.88426 -10.262 -14.6025
H 5.61628 -10.5803 14.4507
O 7.37312 -5.01588 -14.6215
H 6.96555 -4.37923 14.7555
H 6.99666 -5.93069 -14.7677
O 4.052 -11.4389 14.385
H 3.2917 -11.8473 14.8901
H 3.77423 -11.2768 13.4381
O 7.86828 4.64482 -14.3736
H 7.81379 5.22346 14.8443
H 6.94657 4.466 -14.0295
O 1.8004 -5.6738 -1.93611
H 2.3718 -4.86895 -2.09642
H 2.31813 -6.35146 -1.41391
O -14.6577 -13.9195 -12.8101
H -14.4841 -12.9468 -12.6567
H 14.6979 -14.2457 -12.1495
O -3.27084 10.7956 3.19442
H -4.13013 10.2918 3.10587
H -3.26599 11.5619 2.552
O 3.87196 8.47497 -6.64792
H 3.43449 9.10847 -7.28609
H 4.82008 8.32258 -6.92687
O -4.67548 -11.0571 6.88188
H -3.79443 -10.5919 6.96737
H -5.34975 -10.4261 6.49833
O 13.6696 3.47354 10.7151
H 14.3986 3.08981 11.2819
H 13.0969 4.07571 11.2714
O 4.67255 -7.85629 -3.25699
H 5.07618 -7.44772 -4.0756
H 5.24943 -7.65559 -2.46523
O 13.617 1.74492 8.7167
H 13.5658 2.26973 9.56635
H 12.8442 1.98516 8.12942
O 9.89538 -12.8919 3.85594
H 9.79666 -13.344 4.74241
H 10.8565 -12.9054 3.58012
O 5.70441 13.2917 9.52881
H 5.64382 13.8356 8.69186
H 4.78477 13.1197 9.88183
O 1.59405 -9.07947 -11.9356
H 0.6184 -9.11603 -12.1518
H 1.73775 -8.48766 -11.1425
O 3.55152 -12.0856 3.9068
H 3.63314 -11.8415 4.87308
H 3.19878 -11.303 3.39392
O 2.12136 6.1541 14.2969
H 2.27984 5.53317 -14.9671
H 1.18432 6.04265 13.966
O 7.77854 7.28418 -1.48339
H 6.79547 7.18831 -1.32737
H 8.07167 8.20024 -1.20978
O 7.42176 6.91158 -10.073
H 6.66481 7.39561 -10.512
H 7.13577 6.59642 -9.16807
O -9.4507 -13.4041 7.3623
H -8.72395 -13.9928 7.00834
H -9.58867 -12.6339 6.73968
O -4.06707 4.6255 -2.80119
H -4.69373 4.01498 -3.28547
H -3.12444 4.39657 -3.04409
O -5.39775 14.9917 3.25028
H -4.47332 14.6936 3.01259
H -5.8699 -14.7286 2.42563
O -2.73679 -2.91514 -13.3907
H -1.78359 -2.72948 -13.1522
H -2.83842 -3.88065 -13.6304
O 14.6638 5.92829 -4.34585
H -14.8667 6.74169 -4.64097
H -14.7579 5.33193 -3.82409
O 5.09642 2.77898 6.8554
H 5.74206 3.52585 7.01451
H 5.5567 1.90349 7.00248
O 6.13524 -14.5438 7.38842
H 6.6013 -13.7671 7.81208
H 5.29903 -14.227 6.9408
O 14.7487 7.96931 -14.3924
H 14.0526 8.22094 14.9669
H -14.6615 8.74001 -14.2517
O -2.43633 -4.41793 4.60312
H -1.82453 -4.30674 5.38626
H -3.21665 -3.80003 4.69938
O 9.86206 10.954 14.5157
H 10.4356 11.7472 14.3113
H 9.27858 10.753 13.7289
O -7.69759 -2.84861 5.82217
H -7.65774 -3.56418 5.12479
H -8.15098 -3.20447 6.63934
O 1.71816 11.9421 -0.590627
H 2.2271 11.3761 0.0579591
H 0.736976 11.8115 -0.448515
O 13.3908 -6.46216 14.7009
H 13.0757 -6.02069 -14.4906
H 14.2461 -6.03859 14.4024
O -7.07651 -11.0822 -5.32204
H -6.72063 -10.5091 -4.58387
H -7.66708 -11.7918 -4.9379
O 2.2629 -1.92365 -13.2182
H 2.45994 -1.57877 -14.136
H 3.0167 -2.50478 -12.9116
O -11.7175 9.07102 -2.82659
H -11.6505 9.09855 -3.82395
H -12.4351 9.69785 -2.52328
O -13.3931 -1.06586 5.17622
H -14.2754 -0.595354 5.16753
H -12.8241 -0.720975 4.42974
O 11.7736 7.71043 2.45102
H 11.9971 7.21003 1.61462
H 11.5301 7.06206 3.17235
O 3.38197 -1.35963 14.2353
H 2.63939 -1.04469 13.6443
H 3.78459 -0.577168 14.7103
O -11.2941 0.626432 -12.9571
H -10.8606 1.45642 -13.3081
H -12.2736 0.651907 -13.157
O -11.6438 12.8488 -0.910419
H -11.9106 13.0415 0.0338313
H -11.5364 13.7091 -1.40869
O -11.3914 -7.08677 12.2591
H -10.6054 -6.55991 12.5825
H -11.8452 -6.58885 11.5201
O -1.64741 -12.1626 14.0241
H -1.19654 -11.8771 13.1784
H -2.15359 -13.0097 13.8624
O 3.86856 0.739671 -14.29
H 4.63223 0.793633 -13.6467
H 3.00576 0.81594 -13.7903
O 6.91904 -5.1273 7.03196
H 6.02268 -4.89501 6.65442
H 7.63573 -4.75742 6.44076
O 2.88779 13.3668 -11.2209
H 3.81053 13.3111 -11.6022
H 2.94217 13.5926 -10.2482
O 5.09136 -10.3583 -2.1079
H 4.71185 -9.46521 -2.34953
H 5.69347 -10.2612 -1.31544
O 9.61137 -9.60746 14.3949
H 8.62455 -9.70217 14.2638
H 10.0887 -9.93137 13.5781
O 11.6218 2.29945 6.6443
H 10.7745 1.78596 6.78034
H 11.7394 2.49656 5.67103
O -3.90237 12.7216 1.42662
H -3.4617 13.5893 1.19663
H -4.14796 12.2393 0.585747
O 7.58989 9.84745 -0.542196
H 6.96527 10.3243 -1.16061
H 8.12832 10.5171 -0.0307118
O -12.5463 8.65608 -8.47027
H -11.6396 8.97597 -8.19552
H -12.6461 7.69058 -8.22984
O 4.71669 -11.259 -4.83024
H 4.80894 -10.4203 -5.36697
H 4.65934 -11.0284 -3.85888
O 4.91117 8.21385 -3.04007
H 4.44716 7.34686 -3.22171
H 5.71876 8.28861 -3.62502
O 11.5165 -8.15723 1.09622
H 12.1011 -8.42046 1.86364
H 10.7731 -8.81925 1.0011
O 3.40452 -7.34334 -14.5259
H 2.43603 -7.20677 -14.7341
H 3.5066 -8.12805 -13.9146
O -0.656903 -6.65925 12.4826
H -0.00816544 -5.96804 12.1643
H -1.55504 -6.48426 12.0792
O -7.67525 13.933 -14.3448
H -8.51753 14.466 -14.2645
H -7.74562 13.1113 -13.7792
O -0.610988 -3.7184 6.44266
H 0.0122581 -2.9399 6.51667
H -0.231294 -4.49787 6.94088
O -1.36054 2.76381 10.7018
H -1.05813 3.32599 11.4715
H -0.89187 1.8809 10.7295
O -11.0325 10.7334 10.1206
H -11.7517 10.9356 10.7853
H -10.7917 9.76441 10.1745
O 14.8197 -8.03678 -9.47028
H -14.9576 -8.09432 -10.4357
H 15.0032 -7.11393 -9.13169
O 12.4985 -14.2336 -6.41183
H 12.929 -13.6819 -5.69754
H 12.9693 -14.0803 -7.28063
O 3.28876 2.87261 9.07427
H 2.40244 3.29484 8.88424
H 3.92285 3.07885 8.32904
O -3.66543 -14.7055 13.778
H -4.07181 14.7853 13.0416
H -4.38696 -14.3767 14.3873
O 2.28836 -8.61722 -4.52047
H 1.9752 -8.41867 -5.44917
H 3.16806 -8.1688 -4.36235
O 12.9215 -11.6315 -14.8578
H 12.5211 -12.4085 -14.372
H 13.0011 -10.8538 -14.2343
O 13.8173 -11.2653 4.67959
H 13.0348 -11.7792 5.03125
H 13.759 -10.3162 4.98893
O -2.37337 14.6876 -10.4343
H -2.05222 14.7288 -9.48821
H -1.64651 14.9981 -11.0469
O 2.69227 14.3405 -8.80853
H 3.01722 -14.767 -9.00948
H 1.99872 14.3801 -8.08923
O 10.106 -7.36114 -11.5403
H 10.8903 -6.97733 -11.0529
H 10.2374 -7.24769 -12.5251
O -11.3442 -11.699 -11.4124
H -10.8257 -11.2708 -12.1525
H -12.3121 -11.4652 -11.5048
O -6.78843 11.2381 0.0777156
H -6.87296 11.8607 0.855673
H -7.69803 10.9372 -0.20871
O -8.77089 -14.3353 -8.70471
H -8.01738 -14.4239 -9.35612
H -8.4911 -13.7417 -7.95015
O -11.7498 -12.7986 2.02038
H -10.8323 -12.4795 2.25747
H -12.4285 -12.1565 2.37669
O 6.44813 12.2134 -4.09938
H 6.82045 12.8223 -4.79979
H 5.63852 11.7487 -4.4579
O -11.2448 13.7856 14.2374
H -10.7332 12.9264 14.2385
H -10.7609 14.4625 14.792
O -5.74327 6.14804 -10.2963
H -5.45349 5.50663 -9.58599
H -6.70891 6.3738 -10.1678
O -14.3183 2.5063 12.6483
H -14.0796 3.09146 13.4233
H -13.5085 2.00087 12.3505
O 8.69912 4.59742 -0.203293
H 8.9776 4.62584 -1.1633
H 8.72076 5.52179 0.177536
O 7.58612 2.35501 -9.50554
H 7.07538 1.75772 -8.8872
H 8.56572 2.25684 -9.33027
O -7.67806 6.01532 -14.7646
H -7.38452 6.24251 14.3385
H -7.17584 5.2125 -14.4433
O 6.75543 8.47493 14.5719
H 7.10622 9.29497 14.1197
H 6.95839 7.67236 14.0109
O -10.8333 -10.238 -9.22015
H -10.3562 -10.7183 -8.48418
H -10.8381 -10.8079 -10.0418
O 11.1093 0.860365 4.04713
H 10.7023 0.0548323 4.47769
H 10.4069 1.35609 3.53641
O -0.173712 -2.83794 -12.5637
H 0.00605053 -3.33082 -11.7124
H 0.641952 -2.32447 -12.8302
O 13.301 3.24842 -2.43927
H 14.0733 2.94306 -2.99623
H 13.6337 3.83536 -1.7012
O -14.2002 -3.23782 -13.6532
H -14.0463 -4.07406 -14.1795
H 14.9376 -2.85599 -13.8879
O -7.79699 -3.84742 -14.2833
H -8.57141 -4.27885 -13.8206
H -7.2695 -3.31325 -13.6227
O 12.1704 -0.623362 -4.34923
H 11.2637 -0.586975 -4.76937
H 12.8693 -0.626565 -5.06443
O -7.87737 9.74933 7.72723
H -8.52221 10.4859 7.93108
H -7.22738 10.058 7.03284
O 1.98718 -2.1331 6.67976
H 2.47756 -2.51256 5.89522
H 2.3604 -2.51782 7.52396
O -8.92852 -9.42119 14.216
H -8.24546 -10.1492 14.274
H -9.29358 -9.37994 13.286
O -2.51224 -8.37732 -6.88417
H -1.97683 -8.22371 -6.05369
H -1.90121 -8.39883 -7.67546
O 6.79946 -7.9097 7.65787
H 6.51024 -7.04944 8.07772
H 6.21071 -8.65163 7.97864
O -1.6775 10.9035 11.2029
H -2.61068 10.6993 10.9073
H -1.53055 11.8925 11.1832
O 9.80694 12.2979 4.39164
H 9.32908 12.6939 5.17575
H 9.6386 12.8585 3.58088
O -0.220139 10.8016 13.7879
H -0.559439 11.2343 14.6232
H -0.884925 10.9303 13.0521
O 12.2892 -2.19295 11.1405
H 11.3288 -1.93367 11.0387
H 12.3761 -3.18632 11.0654
O 2.3461 2.65152 13.4334
H 3.05757 2.26846 14.0225
H 2.72857 3.40097 12.893
O 9.55261 12.862 8.6185
H 10.2987 13.5129 8.75842
H 9.92113 11.9327 8.5949
O 1.79827 -12.3411 1.49864
H 1.54037 -11.375 1.49156
H 2.61168 -12.4731 0.932153
O -0.504727 9.79882 2.93635
H -1.06428 10.264 2.25045
H -0.216709 10.4559 3.63295
O -0.898698 -14.8369 9.83129
H -1.2454 14.5665 10.5277
H -1.5998 -14.1568 9.61727
O 3.57646 13.5154 -2.22409
H 4.04954 14.3951 -2.17668
H 3.08449 13.355 -1.3684
O 5.4135 -12.8872 10.8869
H 6.28651 -13.1679 10.4882
H 5.22991 -13.4325 11.7048
O 13.6947 -9.01949 -14.0184
H 13.6207 -8.11188 -14.4316
H 12.8897 -9.19426 -13.4514
O -6.66536 -14.695 0.863968
H -7.49196 -14.6269 0.305336
H -5.89617 -14.9729 0.288585
O 6.43801 -7.67371 -0.869075
H 7.18679 -7.3236 -1.43185
H 6.76637 -7.83086 0.0622926
O -14.6676 -1.57307 -3.21558
H -14.9407 -1.59615 -2.2539
H -14.4519 -2.49981 -3.52314
O -6.65547 -14.8411 6.03771
H -5.93558 -15.0108 5.36471
H -6.29229 -14.2769 6.77918
O 7.66024 10.0362 -9.18226
H 8.34823 9.3393 -9.38459
H 8.0183 10.6685 -8.49527
O 5.57148 -3.92577 -7.63514
H 5.01683 -4.65679 -7.23771
H 5.43876 -3.08436 -7.11133
O 12.0183 10.3679 4.17783
H 11.7713 9.47144 3.80988
H 11.2213 10.9711 4.14899
O 7.57191 8.91596 -12.9207
H 7.47575 8.65276 -13.8806
H 6.72876 8.69796 -12.4292
O 13.9944 -14.7962 -3.91729
H 14.3089 14.7696 -4.74436
H 13.1793 -14.2566 -4.12812
O -2.34641 -8.20551 0.2143
H -2.33623 -9.00225 -0.3899
H -1.59091 -7.59579 -0.0253453
O 11.0213 -10.0153 11.8646
H 10.8625 -9.30951 11.1742
H 11.9804 -9.99558 12.1469
O -2.44741 5.24443 3.53981
H -2.21141 6.21156 3.63435
H -2.00465 4.72062 4.26751
O -13.7903 -10.9788 3.39947
H -13.9583 -10.0601 3.04227
H -14.5835 -11.2811 3.92811
O 5.46365 7.14699 2.0246
H 5.27183 8.06975 1.69041
H 5.37577 6.49483 1.27165
O 7.61208 10.4211 2.60574
H 7.35382 10.5428 3.5641
H 6.795 10.2291 2.06216
O 8.86787 10.2075 5.58889
H 9.37149 10.105 6.44669
H 9.28616 10.9322 5.04137
O -3.4253 -12.2636 4.27283
H -3.81745 -11.5326 4.83124
H -2.44871 -12.0943 4.14021
O 10.9985 -3.41531 2.71404
H 10.8236 -4.19042 2.10693
H 10.1755 -2.85112 2.77977
O 12.187 3.34983 -9.1087
H 12.0031 3.89647 -9.92562
H 11.6855 2.48655 -9.16549
O -4.60211 -2.37632 5.2434
H -3.81181 -1.83424 5.52896
H -5.42511 -2.02746 5.69165
O -9.86347 -11.3039 5.45082
H -9.74404 -11.7669 4.57258
H -9.79951 -10.3149 5.31761
O -12.9226 4.78004 1.70352
H -12.6829 3.86756 1.37205
H -13.8924 4.80228 1.94645
O -10.9851 2.657 1.9182
H -11.62 2.76653 2.68295
H -10.1072 3.07531 2.1513
O 12.2999 10.1393 -0.271306
H 12.6825 10.9927 -0.62524
H 11.6582 10.343 0.468061
O -1.54563 2.46604 -10.7134
H -1.31852 3.43919 -10.6764
H -1.44115 2.13478 -11.6511
O 13.0856 8.57075 13.4795
H 12.3315 8.04722 13.8761
H 12.8612 8.81619 12.5365
O -13.6991 3.72006 8.24847
H -14.3084 4.14908 8.91532
H -13.7132 2.72809 8.37399
O 11.3143 5.23322 4.07404
H 11.4946 4.89547 3.15024
H 10.3729 5.56569 4.12959
O 3.45453 5.70213 -2.94853
H 3.25016 5.70959 -3.92738
H 3.96006 4.87018 -2.71992
O -12.6889 1.07358 -1.9844
H -12.3232 1.98538 -2.17104
H -13.5684 0.965865 -2.44806
O 10.995 -13.6061 -1.90032
H 11.261 -13.5266 -0.939646
H 10.0499 -13.2986 -2.01105
O -11.0339 6.8856 4.45649
H -11.736 6.22806 4.18314
H -11.3215 7.80747 4.19678
O 13.5864 -10.2752 12.7719
H 14.3443 -9.64526 12.9413
H 13.1546 -10.5184 13.6404
O -13.3856 12.6678 7.21431
H -14.2038 12.8498 7.75956
H -13.6199 12.6944 6.24253
O -4.86405 -8.44386 11.7731
H -4.94633 -8.40012 12.7687
H -4.0775 -9.01074 11.5282
O 14.4835 -2.36514 -0.472584
H 14.6706 -2.03987 0.454324
H 13.4986 -2.3375 -0.643063
O -2.65151 9.11145 -3.45537
H -3.11824 9.89286 -3.04121
H -3.32429 8.51512 -3.89321
O -12.3651 14.2027 -11.0054
H -11.77 14.7561 -10.4226
H -13.0255 14.7957 -11.466
O -1.88155 13.5299 11.7137
H -1.59753 13.9182 12.5903
H -2.84908 13.7294 11.5586
O -5.14002 -10.1839 -11.6105
H -4.67925 -9.5956 -12.2751
H -4.75626 -11.106 -11.6592
O -9.12274 10.1463 -13.5762
H -9.24492 10.6808 -14.4125
H -9.81607 9.42679 -13.5363
O 8.49657 6.88648 6.16621
H 8.59603 6.39828 5.29919
H 7.68079 7.4638 6.13196
O 2.43126 10.6305 1.61808
H 2.06688 10.478 2.53675
H 2.09228 9.91883 1.00275
O 5.64838 -0.942445 -3.5529
H 6.61759 -1.18802 -3.53589
H 5.27625 -1.11705 -4.46448
O 12.7733 -14.4638 -11.4838
H 12.2208 -14.6434 -12.2977
H 12.9288 14.7119 -10.9909
O -13.5772 -0.270763 -6.82958
H -14.3284 0.337138 -7.08671
H -13.9218 -1.20462 -6.73427
O 8.10939 13.2343 10.8658
H 7.20972 13.0187 10.4862
H 8.81742 12.9958 10.2012
O -0.889522 -7.22838 -10.1361
H -1.76317 -6.74508 -10.0803
H -0.143204 -6.56412 -10.1777
O -5.19321 8.39157 -8.16549
H -5.50463 7.44144 -8.18082
H -5.985 9.00213 -8.1811
O -3.27376 -8.62026 4.56467
H -4.09931 -8.48314 4.0173
H -2.46847 -8.5547 3.97545
O -9.43784 -5.89675 -4.14348
H -9.48232 -5.28969 -4.93687
H -9.37878 -6.84583 -4.45287
O -8.75903 -7.10003 -14.6321
H -8.84637 -8.0615 -14.8927
H -8.3948 -7.03834 -13.7029
O -6.75788 -2.96023 -7.06342
H -7.06592 -3.6535 -7.71492
H -7.45421 -2.24725 -6.98129
O -10.9008 1.66681 -4.77409
H -10.0545 1.80362 -4.25929
H -11.3586 0.839354 -4.44901
O 13.0808 -11.3602 -11.299
H 12.2164 -10.8761 -11.1631
H 12.896 -12.3219 -11.501
O 9.83895 -3.91976 9.30036
H 9.16958 -4.56123 9.67509
H 9.86236 -3.09477 9.86498
O -6.75328 11.4536 5.46201
H -7.57085 12.0131 5.598
H -6.51747 11.4387 4.49035
O 9.13954 -9.46395 -0.262865
H 8.51655 -9.14004 0.449122
H 8.67331 -9.44558 -1.14731
O 3.65629 -14.5962 12.9576
H 3.79256 -14.7673 13.9334
H 2.6778 -14.603 12.7515
O 11.0536 -7.95831 9.94574
H 10.5027 -7.59716 9.19336
H 10.7633 -7.53562 10.8042
O -4.15637 -12.8849 -12.358
H -4.68814 -13.6756 -12.6612
H -3.85605 -13.027 -11.4148
O 8.51328 -2.09533 -0.360941
H 8.46318 -1.22563 -0.851946
H 9.4715 -2.35061 -0.232065
O -6.56415 12.4702 2.70296
H -7.15375 13.1783 3.0914
H -5.66418 12.858 2.50393
O 12.53 -5.83449 -10.4362
H 12.1343 -6.19275 -9.59062
H 13.4884 -6.11261 -10.4998
O -3.4278 11.7704 -1.79707
H -4.03829 10.9916 -1.65287
H -2.50655 11.5333 -1.48879
O -5.94736 -4.35465 3.79546
H -5.83185 -4.43115 2.80512
H -5.51612 -3.51175 4.1172
O 4.22336 -12.54 0.101072
H 4.97791 -11.888 0.0263754
H 4.49195 -13.2933 0.701348
O -13.9645 0.648857 -13.2553
H -14.7337 1.08102 -12.7846
H -14.1711 -0.316488 -13.4147
O 5.07721 -5.14021 -0.201585
H 4.73539 -6.06892 -0.0580177
H 6.07692 -5.15234 -0.221432
O -1.44572 -4.7433 -5.81625
H -2.2302 -4.47684 -5.25629
H -0.9032 -5.42587 -5.32662
O 5.23516 3.65963 -13.8937
H 5.77302 3.49859 -13.0662
H 4.27908 3.81445 -13.6449
O -4.67439 14.0948 11.4641
H -4.99069 14.9905 11.1517
H -5.29619 13.3866 11.1299
O 5.21732 -3.31287 13.5667
H 4.46964 -2.69318 13.8053
H 4.85128 -4.22859 13.401
O 7.62355 -7.77781 -5.21328
H 7.97067 -7.31072 -4.40008
H 7.85092 -7.24326 -6.02724
O -13.813 4.24537 5.48305
H -13.6116 5.19542 5.24471
H -13.6192 4.09672 6.45274
O -2.07222 11.9189 -5.51215
H -1.42917 11.8309 -4.75141
H -2.21052 11.0241 -5.93678
O 6.11938 -13.1269 3.45202
H 5.1335 -13.0004 3.5616
H 6.59944 -12.6682 4.19973
O -13.7244 7.49049 -1.39193
H -13.1833 7.72343 -2.19997
H -14.6859 7.70702 -1.56088
O 6.15786 10.6896 10.8672
H 5.29008 10.9231 11.3059
H 6.01504 10.579 9.88372
O 7.70113 11.3172 -11.5595
H 7.56908 10.4857 -12.0991
H 7.71147 11.0851 -10.5869
O -14.5728 -8.40058 2.67654
H -14.4527 -8.11802 1.72486
H 14.8799 -7.73728 3.1506
O 2.85822 6.28667 -5.56877
H 2.17518 5.84887 -6.15336
H 3.15865 7.14221 -5.99038
O 0.245005 -5.40673 8.73258
H -0.449923 -6.11281 8.59661
H -0.053402 -4.77952 9.45197
O 5.15245 -9.95956 2.0694
H 4.78982 -9.02798 2.09433
H 5.50376 -10.2048 2.97296
O -6.58927 -9.80713 5.52302
H -7.05984 -10.6163 5.17114
H -6.63593 -9.07333 4.84528
O 6.66575 4.24834 -11.5219
H 6.46952 3.79672 -10.6515
H 6.53583 5.23482 -11.4222
O -13.6861 -10.8038 14.6689
H -14.5534 -10.814 -14.8651
H -13.3539 -11.7406 14.5591
O -14.0744 -1.35179 1.93978
H -13.2692 -1.19862 2.51265
H -14.899 -1.11512 2.45363
O 9.04162 -12.7189 -14.5286
H 8.11563 -12.8562 -14.8803
H 9.03483 -12.7988 -13.5319
O -8.1009 -0.12246 -11.0034
H -8.51459 0.77919 -10.8776
H -7.28945 -0.200669 -10.4243
O 13.4848 0.997043 13.2083
H 14.3557 1.33634 12.8529
H 13.286 0.103431 12.8059
O 11.2529 -11.531 -6.36256
H 11.5471 -11.802 -5.44605
H 11.2955 -12.3215 -6.97355
O 11.5916 4.49648 -14.3941
H 11.0316 5.26733 -14.0905
H 12.5404 4.79444 -14.4984
O -6.20388 -13.844 10.8897
H -5.71623 -13.1991 11.4782
H -7.16472 -13.5747 10.8245
O 2.8931 -11.9448 -12.2072
H 2.599 -10.9951 -12.3146
H 2.64714 -12.4644 -13.0255
O -3.72242 3.94373 -5.843
H -4.68747 3.93587 -5.58115
H -3.56163 3.24909 -6.54413
O -11.9758 -8.04674 -8.12782
H -12.7794 -8.31616 -7.59717
H -11.6707 -8.81846 -8.68582
O 14.6845 14.645 10.887
H 14.6622 -14.3936 11.0017
H -14.698 14.2489 11.5363
O 11.7978 4.83548 8.27743
H 12.7415 5.08933 8.4892
H 11.7857 3.94202 7.82849
O -14.1572 -4.22077 1.83778
H -14.1981 -3.2546 1.58319
H -13.244 -4.57847 1.64289
O 11.8375 -0.376481 1.2723
H 11.4965 -0.356792 2.21215
H 12.6114 0.250794 1.18531
O -10.8611 13.7506 7.56045
H -11.0517 14.5971 8.05745
H -11.7184 13.2668 7.38493
O -11.9112 6.87641 0.571845
H -12.5748 7.11014 -0.138758
H -12.3216 6.22473 1.20974
O 10.5517 -6.00209 3.99814
H 11.306 -6.64989 3.89157
H 10.5086 -5.6941 4.94853
O -9.30967 3.64304 -6.66265