LAMMPS data file via write_data, version 15 May 2015, timestep = 8008000

2611 atoms
6 atom types
1749 bonds
4 bond types
894 angles
3 angle types
44 dihedrals
3 dihedral types
10 impropers
1 improper types

-1.5005500769651242e+01 1.5005500769651242e+01 xlo xhi
-1.5005500769651242e+01 1.5005500769651242e+01 ylo yhi
-1.5005500769651242e+01 1.5005500769651242e+01 zlo zhi

Masses

1 15.9994
2 1.00794
3 12.0107
4 1.00794
5 12.0107
6 12.0107

Bond Coeffs # harmonic

1 1000 1
2 469 1.4
3 367 1.08
4 469 0.7

Angle Coeffs # harmonic

1 100 109.47
2 35 120
3 63 120

Dihedral Coeffs # opls

1 0 7.25 0 0
2 0 7.25 0 0
3 0 7.25 0 0

Improper Coeffs # cvff

1 2.5 -1 2

Atoms # full

42 14 2 4.0999999999999998e-01 -1.3177675179974239e+01 -1.0115797204965357e+01 -9.6664015267842416e+00 0 -3 3
431 144 2 4.0999999999999998e-01 -1.3993318444527866e+01 -1.1486122226573292e+01 -1.3074143027550395e+01 -5 -3 1
2147 716 2 4.0999999999999998e-01 -8.4990471475071541e+00 -8.7683773358312180e+00 -1.3957442668165502e+01 2 1 3
2396 799 2 4.0999999999999998e-01 -1.2662237155785700e+01 -1.2063232884457523e+01 -1.1366140782216803e+01 3 -3 1
2395 799 1 -8.1999999999999995e-01 -1.2300969811014804e+01 -1.1411013063889552e+01 -1.0699737272914032e+01 3 -3 1
1458 486 2 4.0999999999999998e-01 -1.0116032543969888e+01 -8.5753314894801207e+00 -8.7590662141232016e+00 1 -2 1
1457 486 2 4.0999999999999998e-01 -1.0357749754842530e+01 -8.4244215050670732e+00 -1.0366990729883437e+01 1 -2 1
1456 486 1 -8.1999999999999995e-01 -1.0059963749809979e+01 -7.9508609820812719e+00 -9.5380984777335698e+00 1 -2 1
2397 799 2 4.0999999999999998e-01 -1.1687793700872920e+01 -1.1885166712671214e+01 -1.0067920980999357e+01 3 -3 1
2148 716 2 4.0999999999999998e-01 -9.5732192172658177e+00 -9.8471238842569342e+00 -1.4548274772944705e+01 2 1 3
2146 716 1 -8.1999999999999995e-01 -9.1921342461085409e+00 -9.4471423432094550e+00 -1.3714735725333469e+01 2 1 3
176 59 2 4.0999999999999998e-01 -1.0143114479895271e+01 -1.1227848788071880e+01 -7.8302893368335509e+00 0 -3 1
1586 529 2 4.0999999999999998e-01 -1.2380691481849162e+01 -1.3670057907609603e+01 -1.2777196159616057e+01 -1 -3 1
1709 570 2 4.0999999999999998e-01 -1.2947712640243784e+01 -7.4398750946297643e+00 -1.4029823102046779e+01 -1 -3 1
1442 481 2 4.0999999999999998e-01 -1.0748701544510070e+01 -1.3893193685905505e+01 -9.6930544075785825e+00 0 -2 5
1587 529 2 4.0999999999999998e-01 -1.3943409374341547e+01 -1.4088278931439786e+01 -1.2999965057989705e+01 -1 -3 1
1585 529 1 -8.1999999999999995e-01 -1.3326992082930291e+01 -1.3446644470751114e+01 -1.2543529718641302e+01 -1 -3 1
362 121 2 4.0999999999999998e-01 -1.2305271199078639e+01 -7.6282732538958795e+00 -1.1823713702076304e+01 -4 0 0
363 121 2 4.0999999999999998e-01 -1.2617344109632398e+01 -6.0422816027328299e+00 -1.1591629155580844e+01 -4 0 0
361 121 1 -8.1999999999999995e-01 -1.2950180341088952e+01 -6.8871704480053921e+00 -1.2010414675166725e+01 -4 0 0
2246 749 2 4.0999999999999998e-01 -8.9642075194771742e+00 -1.3621111595869914e+01 -8.0268373425869548e+00 0 -2 -1
603 201 2 4.0999999999999998e-01 -8.7688903885957252e+00 -7.1924018600765258e+00 -1.0662011982054572e+01 1 -4 1
1441 481 1 -8.1999999999999995e-01 -1.1127890847256364e+01 -1.3111688717498538e+01 -9.1976113023829882e+00 0 -2 5
1770 590 2 4.0999999999999998e-01 -1.0193525785959766e+01 -8.9625518515441360e+00 -1.2385400869583599e+01 -1 -2 2
1769 590 2 4.0999999999999998e-01 -1.1408936916720968e+01 -9.8527877687046104e+00 -1.1755418245070922e+01 -1 -2 2
1768 590 1 -8.1999999999999995e-01 -1.1005831304242246e+01 -8.9388549381272711e+00 -1.1802651726689376e+01 -1 -2 2
1443 481 2 4.0999999999999998e-01 -1.1622653613915977e+01 -1.3436299229408320e+01 -8.3914870860242203e+00 0 -2 5
40 14 1 -8.1999999999999995e-01 -1.3902463286877872e+01 -9.7924564813643684e+00 -9.0580172592285209e+00 0 -3 3
41 14 2 4.0999999999999998e-01 -1.3617220929340389e+01 -8.9375489371457384e+00 -8.6246947968687238e+00 0 -3 3
1308 436 2 4.0999999999999998e-01 -1.0047757633309393e+01 -1.4223555628016371e+01 -1.1439024181612425e+01 0 -3 0
1482 494 2 4.0999999999999998e-01 -8.8411975254277522e+00 -6.8254277803873578e+00 -8.6592430339519559e+00 -2 0 -1
2180 727 2 4.0999999999999998e-01 -9.5689056816693210e+00 -1.3314902426765983e+01 -1.3288587678757825e+01 1 -1 2
430 144 1 -8.1999999999999995e-01 -1.4017638923344190e+01 -1.0550788232476201e+01 -1.3427069632550840e+01 -5 -3 1
563 188 2 4.0999999999999998e-01 -1.4625489429677785e+01 -7.0018851209721973e+00 -1.2075973841662922e+01 -3 -5 4
1708 570 1 -8.1999999999999995e-01 -1.2972116126547434e+01 -8.1594187720263989e+00 -1.4723840234446040e+01 -1 -3 1
432 144 2 4.0999999999999998e-01 -1.4746925201904009e+01 -1.0041141253104220e+01 -1.2970561303383567e+01 -5 -3 1
340 114 1 -8.1999999999999995e-01 -7.9441911133705307e+00 -1.4697585153898558e+01 -1.4875220888213297e+01 -2 -6 5
2179 727 1 -8.1999999999999995e-01 -1.0377165906867550e+01 -1.3867039648592133e+01 -1.3083994661125651e+01 1 -1 2
952 318 1 -8.1999999999999995e-01 -8.0870782738420122e+00 -1.2152600910378162e+01 -1.3034285783976326e+01 0 -4 0
1307 436 2 4.0999999999999998e-01 -8.7619026470879540e+00 -1.4632655705588311e+01 -1.0519330585718649e+01 0 -3 0
1710 570 2 4.0999999999999998e-01 -1.3255585248736510e+01 -9.0203903874774056e+00 -1.4301499644841005e+01 -1 -3 1
954 318 2 4.0999999999999998e-01 -8.2699359052746892e+00 -1.1196127178347147e+01 -1.3261704832838188e+01 0 -4 0
1093 365 1 -8.1999999999999995e-01 -1.3638597846342869e+01 -7.3928909828138938e+00 -8.1278620048602459e+00 -1 -1 -2
1306 436 1 -8.1999999999999995e-01 -9.7131087781444947e+00 -1.4851738992712558e+01 -1.0736603926276480e+01 0 -3 0
602 201 2 4.0999999999999998e-01 -7.8852773984194693e+00 -7.0217525192841137e+00 -1.2024630475678133e+01 1 -4 1
175 59 1 -8.1999999999999995e-01 -1.0412773232513491e+01 -1.0269647147015153e+01 -7.9258518118582186e+00 0 -3 1
601 201 1 -8.1999999999999995e-01 -7.8776492524315014e+00 -6.9262487688314121e+00 -1.1029231509033210e+01 1 -4 1
642 214 2 4.0999999999999998e-01 -1.4663035064665976e+01 -1.4467918255013304e+01 -1.0768415759287345e+01 0 -3 3
1094 365 2 4.0999999999999998e-01 -1.3054707094007243e+01 -6.6594900203527541e+00 -8.4759898615901097e+00 -1 -1 -2
654 218 2 4.0999999999999998e-01 -1.3648231568964949e+01 -1.3680299280178090e+01 -7.7754891094873662e+00 -1 1 4
2247 749 2 4.0999999999999998e-01 -8.4021565710457704e+00 -1.2574403619406873e+01 -9.1471602247218318e+00 0 -2 -1
2181 727 2 4.0999999999999998e-01 -1.0655548785537855e+01 -1.4367064971644330e+01 -1.3904040953297216e+01 1 -1 2
1480 494 1 -8.1999999999999995e-01 -8.3202708241169621e+00 -6.4527198691119860e+00 -7.8913090347317407e+00 -2 0 -1
2245 749 1 -8.1999999999999995e-01 -8.2828448121490315e+00 -1.2913502426416510e+01 -8.2140068916094080e+00 0 -2 -1
1829 610 2 4.0999999999999998e-01 -1.1518953167440110e+01 -5.4432995177532923e+00 -9.1432832984045831e+00 -4 -2 3
1095 365 2 4.0999999999999998e-01 -1.4548515592282023e+01 -7.0287038633582153e+00 -7.9293276858635178e+00 -1 -1 -2
454 152 1 -8.1999999999999995e-01 -1.4920315027920514e+01 -1.2242883666620516e+01 -8.2106310722088836e+00 1 -4 1
456 152 2 4.0999999999999998e-01 -1.4357558218133564e+01 -1.1625678700150040e+01 -8.7605048966021499e+00 1 -4 1
1828 610 1 -8.1999999999999995e-01 -1.2407998533020713e+01 -5.1076816823542295e+00 -8.8319034450520846e+00 -4 -2 3
753 251 2 4.0999999999999998e-01 -8.4226710401943699e+00 -5.0192340357596770e+00 -1.0214097281844658e+01 0 -4 1
1824 608 2 4.0999999999999998e-01 -5.7340495616573861e-01 -5.2261493663690946e+00 -1.2980528317957024e+01 -2 -2 2
1343 448 2 4.0999999999999998e-01 -6.3834123291770712e+00 -5.0495884790166539e+00 -1.3004838184874405e+01 1 -3 -2
1194 398 2 4.0999999999999998e-01 -4.4532334049213738e+00 -1.3688914007490402e+01 -1.4558429077364565e+01 1 -1 3
2581 861 1 -8.1999999999999995e-01 -1.3283326711932020e-01 -1.4701708341835861e+01 -9.9838363779159263e+00 0 1 -4
2494 832 1 -8.1999999999999995e-01 -1.9031386519130891e+00 -1.0867845038180015e+01 -1.4112994228566818e+01 -4 -1 1
953 318 2 4.0999999999999998e-01 -7.3082931361141181e+00 -1.2479491433929898e+01 -1.3569668531174880e+01 0 -4 0
1428 476 2 4.0999999999999998e-01 -6.8826427388638365e+00 -1.2932128899042555e+01 -1.1408252430213526e+01 0 3 1
2160 720 2 4.0999999999999998e-01 -2.7599991681919853e+00 -7.7183977415081362e+00 -1.4292719966985764e+01 0 -1 6
781 261 1 -8.1999999999999995e-01 -5.2064990857768851e+00 -6.4800477787731214e+00 -1.0811383583679795e+01 0 -1 4
532 178 1 -8.1999999999999995e-01 -3.9295648813089805e+00 -6.3295345121838107e+00 -8.5123498513328446e+00 -2 -5 2
166 56 1 -8.1999999999999995e-01 -1.7032863076490532e+00 -1.0646429652313092e+01 -9.4060815972078800e+00 -2 -3 0
1508 503 2 4.0999999999999998e-01 -4.7967207402532619e+00 -1.0066268692602598e+01 -1.0249846163705207e+01 0 -4 1
241 81 1 -8.1999999999999995e-01 -1.1572135723469046e+00 -7.0660223519093313e+00 -8.8757996535950241e+00 -1 -4 5
2087 696 2 4.0999999999999998e-01 -1.1409642471134358e+00 -1.3507306112858462e+01 -1.1117147246401601e+01 1 0 3
167 56 2 4.0999999999999998e-01 -2.6817393454703442e+00 -1.0569690383281131e+01 -9.2144071978586268e+00 -2 -3 0
906 302 2 4.0999999999999998e-01 -3.3030131178852304e+00 -1.3219768848945019e+01 -1.0458494037082783e+01 0 2 1
2088 696 2 4.0999999999999998e-01 -2.1028367858062929e+00 -1.2900875862074145e+01 -1.2289182184014276e+01 1 0 3
1671 557 2 4.0999999999999998e-01 -7.1847520998431849e+00 -6.9318350484836309e+00 -1.4387121557804720e+01 -1 -1 0
730 244 1 -8.1999999999999995e-01 -4.9894022837035514e+00 -8.9381359515689240e+00 -1.2125895860140634e+01 -3 -4 2
905 302 2 4.0999999999999998e-01 -4.2457916849736250e+00 -1.2208271269190316e+01 -9.5897803417821592e+00 0 2 1
168 56 2 4.0999999999999998e-01 -1.5604038769707014e+00 -1.1290046881346244e+01 -1.0157972398817634e+01 -2 -3 0
534 178 2 4.0999999999999998e-01 -4.2532825393362241e+00 -6.4116451489611315e+00 -9.4549330867477934e+00 -2 -5 2
1670 557 2 4.0999999999999998e-01 -6.5804987269774777e+00 -8.1141777260967345e+00 -1.3436560775967973e+01 -1 -1 0
2250 750 2 4.0999999999999998e-01 -4.2317162579053775e+00 -1.2120692755402821e+01 -1.2162310117226527e+01 -1 0 3
782 261 2 4.0999999999999998e-01 -5.0078388646567031e+00 -5.8353871083382192e+00 -1.1549587598659462e+01 0 -1 4
1426 476 1 -8.1999999999999995e-01 -6.6406579194835906e+00 -1.3810408583116480e+01 -1.0995861220247090e+01 0 3 1
783 261 2 4.0999999999999998e-01 -6.1637796059697081e+00 -6.7640906713502016e+00 -1.0865531415438827e+01 0 -1 4
731 244 2 4.0999999999999998e-01 -4.5753874829757244e+00 -8.8828606278906861e+00 -1.3034485119886865e+01 -3 -4 2
1669 557 1 -8.1999999999999995e-01 -7.3919701202341157e+00 -7.5677211844021413e+00 -1.3643678254598580e+01 -1 -1 0
1507 503 1 -8.1999999999999995e-01 -4.5481572461485236e+00 -1.0484391269548667e+01 -9.3761254199378889e+00 0 -4 1
1029 343 2 4.0999999999999998e-01 -1.2214746572748627e+00 -6.8371819035406389e+00 -1.4873169724024436e+01 -2 -5 1
1027 343 1 -8.1999999999999995e-01 -1.4825392527308558e+00 -6.8195968530048976e+00 -1.3908009393865203e+01 -2 -5 1
1427 476 2 4.0999999999999998e-01 -5.7422162929259031e+00 -1.3738950866630253e+01 -1.0562623578985884e+01 0 3 1
2496 832 2 4.0999999999999998e-01 -2.5111817834604828e+00 -1.0088826299449934e+01 -1.3959985123946291e+01 -4 -1 1
1877 626 2 4.0999999999999998e-01 -3.1186651792734796e+00 -5.9805652421858380e+00 -1.3120437108957638e+01 -1 -2 4
1876 626 1 -8.1999999999999995e-01 -4.0021038916948601e+00 -5.5416085584896742e+00 -1.2956573131231529e+01 -1 -2 4
2158 720 1 -8.1999999999999995e-01 -3.5239822254075790e+00 -8.3410281532146939e+00 -1.4462011602562741e+01 0 -1 6
2086 696 1 -8.1999999999999995e-01 -1.7871199898354213e+00 -1.2779877089705355e+01 -1.1348076183808974e+01 1 0 3
732 244 2 4.0999999999999998e-01 -4.9049744958172390e+00 -8.0537826132396972e+00 -1.1666777636531513e+01 -3 -4 2
2582 861 2 4.0999999999999998e-01 -1.0381374032718327e-01 -1.4972236523607155e+01 -9.0215626380397840e+00 0 1 -4
1005 335 2 4.0999999999999998e-01 -5.8419239923164152e+00 -1.5004599636745166e+01 -1.2504591636912050e+01 0 -1 1
1509 503 2 4.0999999999999998e-01 -4.8460847122157098e+00 -9.8929426381759775e+00 -8.6268417487975135e+00 0 -4 1
1028 343 2 4.0999999999999998e-01 -7.1107174760927094e-01 -7.1225083525345871e+00 -1.3348473046230181e+01 -2 -5 1
2248 750 1 -8.1999999999999995e-01 -4.1470846190622090e+00 -1.2460725328362493e+01 -1.3098906988199600e+01 -1 0 3
242 81 2 4.0999999999999998e-01 -2.0834094633799047e+00 -6.7200364206714305e+00 -8.7259552155839408e+00 -1 -4 5
904 302 1 -8.1999999999999995e-01 -4.0433909228386611e+00 -1.3167228085212576e+01 -9.7883607799475882e+00 0 2 1
2249 750 2 4.0999999999999998e-01 -3.4188354519374009e+00 -1.1962778894258875e+01 -1.3569758212991236e+01 -1 0 3
533 178 2 4.0999999999999998e-01 -4.5767547624133531e+00 -5.7796455861552509e+00 -7.9843670262848967e+00 -2 -5 2
624 208 2 4.0999999999999998e-01 -4.8832056982771377e-02 -5.6587830545130569e+00 -9.2958072628348702e+00 -2 -1 1
14 5 2 4.0999999999999998e-01 -9.0669629282180253e-02 -9.9069782803387483e+00 -9.4951962704405126e+00 -5 -5 5
2183 728 2 4.0999999999999998e-01 -5.6621400492880642e+00 -1.4987097225934233e+01 -8.4255697434727708e+00 2 -1 1
2184 728 2 4.0999999999999998e-01 -6.8992946081184670e+00 -1.4166856238111476e+01 -7.7449263339748731e+00 2 -1 1
2182 728 1 -8.1999999999999995e-01 -5.9393619718555151e+00 -1.4428275201772570e+01 -7.6439916498875169e+00 2 -1 1
243 81 2 4.0999999999999998e-01 -6.9448530801315833e-01 -7.1718716996212200e+00 -7.9956424058221556e+00 -1 -4 5
2304 768 2 4.0999999999999998e-01 -4.7715224957403990e-02 -1.2290172114589037e+01 -1.2942692410737287e+01 2 0 0
1011 337 2 4.0999999999999998e-01 -4.4225656955258046e+00 -8.0807784979833315e+00 -7.5139243270191853e+00 2 -3 1
15 5 2 4.0999999999999998e-01 -9.3636057431165653e-03 -8.2827057197891278e+00 -9.3477168070772052e+00 -5 -5 5
646 216 1 -8.1999999999999995e-01 -9.3440924528110862e+00 -1.4122069845782276e+01 -4.4624851341108780e+00 0 0 0
1713 571 2 4.0999999999999998e-01 -1.3413802480844300e+01 -7.1974200338612873e+00 -3.9512394016944103e+00 -3 -3 3
2562 854 2 4.0999999999999998e-01 -1.3887184412788129e+01 -1.0023583656403993e+01 -1.2868230671448497e+00 3 2 3
670 224 1 -8.1999999999999995e-01 -1.3496639603916568e+01 -1.3175882781624871e+01 -3.8706602035160298e+00 3 -4 2
803 268 2 4.0999999999999998e-01 -1.2316039080978527e+01 -1.0479917832825588e+01 -5.4792018745013653e+00 0 0 -2
2483 828 2 4.0999999999999998e-01 -1.4843431226463208e+01 -8.6724274887330584e+00 -4.9975331345818415e+00 0 1 2
383 128 2 4.0999999999999998e-01 -7.6645067515006531e+00 -1.0334519026819036e+01 -4.4332558744778616e+00 1 2 1
2560 854 1 -8.1999999999999995e-01 -1.3090954005805415e+01 -9.4213202338383830e+00 -1.2294269760396279e+00 3 2 3
2561 854 2 4.0999999999999998e-01 -1.2373100519178108e+01 -9.8678385477399715e+00 -6.9528636730654547e-01 3 2 3
673 225 1 -8.1999999999999995e-01 -1.0096458690156034e+01 -7.7454133105743477e+00 -4.6419775826949046e+00 0 0 7
2103 701 2 4.0999999999999998e-01 -7.6478320879867319e+00 -1.2627067939379677e+01 -1.9756665132290383e+00 -1 -2 0
647 216 2 4.0999999999999998e-01 -9.6031482948801958e+00 -1.4060023324526679e+01 -5.4263516234773252e+00 0 0 0
382 128 1 -8.1999999999999995e-01 -8.3462805184173448e+00 -9.8202398491023253e+00 -3.9129675898688081e+00 1 2 1
418 140 1 -8.1999999999999995e-01 -1.0373787008485962e+01 -1.2040800819688329e+01 -3.1234068574506892e+00 -2 -4 2
1298 433 2 4.0999999999999998e-01 -1.0848937998911115e+01 -8.1853727359867925e+00 -9.4409357735211508e-01 -4 -2 -2
419 140 2 4.0999999999999998e-01 -9.8145809039531731e+00 -1.2789908994259511e+01 -3.4785461413893373e+00 -2 -4 2
648 216 2 4.0999999999999998e-01 -8.3974796410237893e+00 -1.4436490402315897e+01 -4.3913357889029587e+00 0 0 0
1297 433 1 -8.1999999999999995e-01 -1.0387536760726414e+01 -7.4441669876718670e+00 -1.4316603439897513e+00 -4 -2 -2
420 140 2 4.0999999999999998e-01 -1.1318985158875613e+01 -1.2156744331208600e+01 -3.4286213939906105e+00 -2 -4 2
802 268 1 -8.1999999999999995e-01 -1.1803840101635329e+01 -9.6671139358973157e+00 -5.7566913707289959e+00 0 0 -2
384 128 2 4.0999999999999998e-01 -9.1546619927797401e+00 -1.0390703340606159e+01 -3.7677463656560999e+00 1 2 1
804 268 2 4.0999999999999998e-01 -1.2122292906570816e+01 -8.8773660969253054e+00 -5.2323970493926009e+00 0 0 -2
610 204 1 -8.1999999999999995e-01 -1.1569572848145615e+01 -1.4651695274635490e+01 -7.7160491076080540e-01 -1 -3 1
1299 433 2 4.0999999999999998e-01 -1.0498174773936583e+01 -7.5737843780534666e+00 -2.4170318365799357e+00 -4 -2 -2
1567 523 1 -8.1999999999999995e-01 -1.1277203442727002e+01 -5.3077624962768670e+00 -4.4182542096573982e+00 -3 -2 1
1568 523 2 4.0999999999999998e-01 -1.0989218330753928e+01 -6.2652441209599594e+00 -4.4011688883968265e+00 -3 -2 1
1569 523 2 4.0999999999999998e-01 -1.2264710046639674e+01 -5.2593400623615505e+00 -4.5682021193509996e+00 -3 -2 1
712 238 1 -8.1999999999999995e-01 -1.4142410610746767e+01 -1.3549782088581978e+01 -1.3175248717758414e+00 -2 -1 2
671 224 2 4.0999999999999998e-01 -1.3969329798281219e+01 -1.3906857482043412e+01 -4.3628373771803073e+00 3 -4 2
1628 543 2 4.0999999999999998e-01 -7.5824657664840664e+00 -7.5424091783226492e+00 -3.9241085697074318e-01 3 0 0
1613 538 2 4.0999999999999998e-01 -1.4204342470018092e+01 -1.1905162938953811e+01 -4.9340041379933872e+00 -3 -3 0
1711 571 1 -8.1999999999999995e-01 -1.3147514684910094e+01 -8.1519923052765684e+00 -4.0849592648089370e+00 -3 -3 3
672 224 2 4.0999999999999998e-01 -1.3639272436348977e+01 -1.3289676743401181e+01 -2.8874485176976314e+00 3 -4 2
1712 571 2 4.0999999999999998e-01 -1.2746393813909432e+01 -8.5075305530591194e+00 -3.2407477839227852e+00 -3 -3 3
2265 755 2 4.0999999999999998e-01 -1.1152493483819324e+01 -1.4570608898974660e+01 -6.9007292463102026e+00 2 -2 4
2263 755 1 -8.1999999999999995e-01 -1.0163456281523246e+01 -1.4711521317742033e+01 -6.8565989396798468e+00 2 -2 4
1639 547 1 -8.1999999999999995e-01 -1.3879234065046099e+01 -5.5067739739514696e+00 -4.4122627117985083e+00 1 -3 1
674 225 2 4.0999999999999998e-01 -1.0630534381618098e+01 -8.2278936056152094e+00 -5.3362212182685465e+00 0 0 7
713 238 2 4.0999999999999998e-01 -1.3348436937448781e+01 -1.3959452424922697e+01 -8.6833174154632431e-01 -2 -1 2
652 218 1 -8.1999999999999995e-01 -1.3118453579583905e+01 -1.4402964669349906e+01 -7.3315426603905340e+00 -1 1 4
675 225 2 4.0999999999999998e-01 -9.2866432469885929e+00 -8.2844020551610988e+00 -4.4102701959435588e+00 0 0 7
455 152 2 4.0999999999999998e-01 -1.4976131597544688e+01 -1.1897442215261529e+01 -7.2738530096495264e+00 1 -4 1
1640 547 2 4.0999999999999998e-01 -1.4384173393183799e+01 -5.0609850799734470e+00 -3.6731369053988825e+00 1 -3 1
1661 554 2 4.0999999999999998e-01 -9.4135724886290078e+00 -1.1820323919514209e+01 -9.0464229594058310e-01 1 -4 1
1660 554 1 -8.1999999999999995e-01 -8.6746041206080662e+00 -1.2406720875707212e+01 -5.7288528581622700e-01 1 -4 1
1031 344 2 4.0999999999999998e-01 -1.1221334793921415e+01 -6.2060542550828153e+00 -5.3377896007195247e-01 3 -1 4
1481 494 2 4.0999999999999998e-01 -7.8837314207531488e+00 -7.2002057809831532e+00 -7.3906128873453367e+00 -2 0 -1
611 204 2 4.0999999999999998e-01 -1.1067267616770719e+01 -1.4907387050699679e+01 -1.5976250419250917e+00 -1 -3 1
1629 543 2 4.0999999999999998e-01 -8.8894340256236504e+00 -6.5700474094050243e+00 -5.0629152539434408e-01 3 0 0
491 164 2 4.0999999999999998e-01 -7.5500121165074425e+00 -9.2643548033426892e+00 -6.8757006617247907e+00 0 -1 3
189 63 2 4.0999999999999998e-01 -7.6133222101082136e+00 -5.7092465097294092e+00 -4.0554796336323200e+00 -3 1 2
714 238 2 4.0999999999999998e-01 -1.4729334764119908e+01 -1.4272924439178283e+01 -1.6816452127761465e+00 -2 -1 2
177 59 2 4.0999999999999998e-01 -1.0922808555233591e+01 -9.9844002454792111e+00 -7.1143737798515643e+00 0 -3 1
1612 538 1 -8.1999999999999995e-01 -1.4904310260100086e+01 -1.1624282183801030e+01 -5.5906238074286012e+00 -3 -3 0
1627 543 1 -8.1999999999999995e-01 -8.0135983391415486e+00 -6.7099350599692045e+00 -4.4402313497567292e-02 3 0 0
2431 811 1 -8.1999999999999995e-01 -8.0131717382653633e-01 -1.1318512883954288e+01 -2.8516731703091658e+00 1 -2 -1
842 281 2 4.0999999999999998e-01 -4.7378222351893697e+00 -1.3699784100820109e+01 -6.5405968894971824e+00 -1 -3 1
1415 472 2 4.0999999999999998e-01 -3.1838233485659231e+00 -9.6255017727669809e+00 -6.3993781391682649e+00 -1 -3 2
442 148 1 -8.1999999999999995e-01 -6.6012483692570569e+00 -1.4950186426185681e+01 -4.3836054733152618e+00 0 -2 2
2154 718 2 4.0999999999999998e-01 -2.1610830729757957e-01 -7.7404171755117055e+00 -3.4006889982698318e-01 0 -1 0
444 148 2 4.0999999999999998e-01 -5.7157965588028379e+00 -1.4715622219998608e+01 -4.7847951289944888e+00 0 -2 2
2029 677 1 -8.1999999999999995e-01 -4.6477118033736264e+00 -5.4313490486766369e+00 -5.0715390986608835e+00 -3 0 4
1988 663 2 4.0999999999999998e-01 -8.4027571187157335e-01 -9.0608444085460960e+00 -4.7701184453913292e+00 -1 -2 1
281 94 2 4.0999999999999998e-01 -3.8104135383986666e+00 -9.3322810552122988e+00 -1.4696848698855955e+00 -3 -3 6
2101 701 1 -8.1999999999999995e-01 -7.0349749318929025e+00 -1.3133600411092267e+01 -2.5821558159844198e+00 -1 -2 0
357 119 2 4.0999999999999998e-01 -1.6251614235306100e-01 -1.2179260686507879e+01 -5.6103441509001950e+00 -3 -3 1
1262 421 2 4.0999999999999998e-01 -6.2362160073850976e+00 -1.1357546651115262e+01 -5.4850296322301144e+00 -4 -1 7
1261 421 1 -8.1999999999999995e-01 -7.0735891820124666e+00 -1.1200213575325149e+01 -6.0085283557471758e+00 -4 -1 7
1009 337 1 -8.1999999999999995e-01 -4.5288993554489636e+00 -8.8844374601986082e+00 -6.9284126943412883e+00 2 -3 1
1647 549 2 4.0999999999999998e-01 -3.8244968314599515e+00 -7.4391652371821682e+00 -1.8705373914370824e+00 0 -3 2
1414 472 1 -8.1999999999999995e-01 -2.2200830544875227e+00 -9.7003439841612451e+00 -6.1432497508979544e+00 -1 -3 2
255 85 2 4.0999999999999998e-01 -7.2772530569981217e+00 -9.0002015796299890e+00 -2.7160321694749729e+00 -1 -1 4
269 90 2 4.0999999999999998e-01 -4.0419638610941355e-01 -1.3458620225765383e+01 -9.4349174085038356e-01 -2 -2 2
1739 580 2 4.0999999999999998e-01 -2.0322000955540727e+00 -6.9708157088233698e+00 -1.9038155629640254e+00 -3 0 1
443 148 2 4.0999999999999998e-01 -6.7473546059116369e+00 -1.4406299235628587e+01 -3.5572652985062980e+00 0 -2 2
1263 421 2 4.0999999999999998e-01 -7.1222062746460892e+00 -1.1853733385260085e+01 -6.7638737592460014e+00 -4 -1 7
2438 813 2 4.0999999999999998e-01 -2.8111894812164184e+00 -1.2620975505859983e+01 -1.0142776485926159e+00 -2 -3 4
2439 813 2 4.0999999999999998e-01 -4.1205562816883798e+00 -1.1811045589427870e+01 -4.7004018004421333e-01 -2 -3 4
2102 701 2 4.0999999999999998e-01 -6.3630510323676255e+00 -1.2506628837197610e+01 -2.9763934022133096e+00 -1 -2 0
2427 809 2 4.0999999999999998e-01 -7.4304150795569583e+00 -1.4264647636201943e+01 -6.0769082851792255e-01 -1 0 0
1740 580 2 4.0999999999999998e-01 -7.4274989733039654e-01 -5.9759036114338482e+00 -1.7851132491939410e+00 -3 0 1
2437 813 1 -8.1999999999999995e-01 -3.7394191627426796e+00 -1.2324444958658580e+01 -1.2389055951925947e+00 -2 -3 4
355 119 1 -8.1999999999999995e-01 -9.7226892721203129e-01 -1.2644505958627844e+01 -5.2527889402543853e+00 -3 -3 1
583 195 1 -8.1999999999999995e-01 -2.3541106268810967e+00 -6.9184431624135136e+00 -5.2909510773847366e+00 4 -2 -1
1645 549 1 -8.1999999999999995e-01 -3.6325269778327023e+00 -6.5259847423899799e+00 -2.2300473390551918e+00 0 -3 2
584 195 2 4.0999999999999998e-01 -2.1749718797102719e+00 -7.4735599550466425e+00 -6.1032029411690978e+00 4 -2 -1
843 281 2 4.0999999999999998e-01 -3.1756473507669423e+00 -1.3615627061355285e+01 -6.0724631262383664e+00 -1 -3 1
62 21 2 4.0999999999999998e-01 -2.2157243522876691e+00 -1.0106217725616943e+01 -2.8896278833848719e+00 1 -3 3
253 85 1 -8.1999999999999995e-01 -6.7325704577382783e+00 -8.3671634905210475e+00 -2.1659576900901012e+00 -1 -1 4
490 164 1 -8.1999999999999995e-01 -7.1810625263727408e+00 -8.3757611465293600e+00 -6.6031645588138819e+00 0 -1 3
1839 613 2 4.0999999999999998e-01 -4.3924796600036018e+00 -1.2010466749713633e+01 -3.0405344958298670e+00 0 -6 2
492 164 2 4.0999999999999998e-01 -7.3447644071933667e+00 -8.2320282644910989e+00 -5.6271825029693101e+00 0 -1 3
254 85 2 4.0999999999999998e-01 -6.5787196825697123e+00 -7.5245600315532783e+00 -2.6820461479956013e+00 -1 -1 4
282 94 2 4.0999999999999998e-01 -5.3795997469095571e+00 -8.9040042398737071e+00 -1.3252696190437714e+00 -3 -3 6
280 94 1 -8.1999999999999995e-01 -4.4812904713401700e+00 -8.8736392924318181e+00 -8.8695827626131596e-01 -3 -3 6
188 63 2 4.0999999999999998e-01 -6.0361469187192558e+00 -6.0511689165433786e+00 -4.3049376355155751e+00 -3 1 2
356 119 2 4.0999999999999998e-01 -1.2010034326285730e+00 -1.2271700355839803e+01 -4.3535143037355457e+00 -3 -3 1
585 195 2 4.0999999999999998e-01 -1.4864922666909983e+00 -6.6557200416745559e+00 -4.8687978159205034e+00 4 -2 -1
2031 677 2 4.0999999999999998e-01 -3.7902286176629136e+00 -5.9082618566125120e+00 -5.2646067597255044e+00 -3 0 4
268 90 1 -8.1999999999999995e-01 -1.2083827792926485e+00 -1.2942842409484903e+01 -6.4810059987359203e-01 -2 -2 2
187 63 1 -8.1999999999999995e-01 -6.8852553697276395e+00 -6.3736121686565532e+00 -3.8865555857707754e+00 -3 1 2
2433 811 2 4.0999999999999998e-01 -1.1150154086497164e+00 -1.1837778729842508e+01 -2.0567176725947753e+00 1 -2 -1
841 281 1 -8.1999999999999995e-01 -4.0836774127508733e+00 -1.3211229292217666e+01 -5.9631827886105420e+00 -1 -3 1
1646 549 2 4.0999999999999998e-01 -3.5097987536067876e+00 -6.5769800947921695e+00 -3.2211758231380241e+00 0 -3 2
1837 613 1 -8.1999999999999995e-01 -4.7660079937526518e+00 -1.1743755116499266e+01 -3.9289824815055177e+00 0 -6 2
1738 580 1 -8.1999999999999995e-01 -1.1002742763449014e+00 -6.8804043221517421e+00 -1.5526198737014294e+00 -3 0 1
63 21 2 4.0999999999999998e-01 -2.8227185434172721e+00 -9.4204090349233471e+00 -4.2416066998692212e+00 1 -3 3
1010 337 2 4.0999999999999998e-01 -5.4621220233721068e+00 -8.9148784498706171e+00 -6.5704085608935987e+00 2 -3 1
1838 613 2 4.0999999999999998e-01 -4.3369283815652349e+00 -1.2289845405050478e+01 -4.6484785042534504e+00 0 -6 2
1416 472 2 4.0999999999999998e-01 -1.8424852460566594e+00 -1.0550148612314402e+01 -6.5110137032494944e+00 -1 -3 2
61 21 1 -8.1999999999999995e-01 -2.8364931093597683e+00 -9.4057801798032585e+00 -3.2418093884524062e+00 1 -3 3
113 38 2 4.0999999999999998e-01 -3.6207736879514130e+00 -5.2989532033043876e+00 -9.1932004838838388e-01 -3 -4 -1
2030 677 2 4.0999999999999998e-01 -5.0810183580451760e+00 -5.1632052128897161e+00 -5.9319708108301423e+00 -3 0 4
36 12 2 4.0999999999999998e-01 -6.6694682937748286e+00 -5.4096260032318266e+00 -7.4915992705933769e+00 -1 1 1
2406 802 2 4.0999999999999998e-01 -1.0531741106424032e+01 -9.7379105460997550e+00 7.4786579386929830e-01 -3 0 2
326 109 2 4.0999999999999998e-01 -1.3670045345225285e+01 -1.0436857942303252e+01 7.3522234890893685e+00 -1 -4 1
1125 375 2 4.0999999999999998e-01 -1.4224323563722036e+01 -8.6992382028197905e+00 2.2027085585724073e+00 -1 -2 -1
1186 396 1 -8.1999999999999995e-01 -1.4534108273694896e+01 -1.2886678357200431e+01 5.0532471144892135e+00 0 -1 3
1227 409 2 4.0999999999999998e-01 -1.0008347969645760e+01 -8.5923672352951215e+00 2.8116082501886552e+00 -1 -3 2
1225 409 1 -8.1999999999999995e-01 -1.0041563179924896e+01 -9.5771953589028662e+00 2.9819278068525108e+00 -1 -3 2
1035 345 2 4.0999999999999998e-01 -1.3159965780644953e+01 -1.2708675718580094e+01 1.3490687692965402e+00 0 -3 0
1820 607 2 4.0999999999999998e-01 -1.3457944476941721e+01 -7.9541480092321422e+00 3.8388821452435238e+00 0 -4 -1
1188 396 2 4.0999999999999998e-01 -1.4284447568877118e+01 -1.2016797263577255e+01 5.4786583775556217e+00 0 -1 3
1123 375 1 -8.1999999999999995e-01 -1.4679671766714131e+01 -9.1420148577203939e+00 2.9751108227064158e+00 -1 -2 -1
1187 396 2 4.0999999999999998e-01 -1.4966754990499686e+01 -1.2713027602901738e+01 4.1685660388863219e+00 0 -1 3
1033 345 1 -8.1999999999999995e-01 -1.2256248244041082e+01 -1.2287457868629339e+01 1.2724623861981463e+00 0 -3 0
556 186 1 -8.1999999999999995e-01 -1.3518210046011838e+01 -7.6893787611498547e+00 9.3165809658405330e-01 1 -2 1
43 15 1 -8.1999999999999995e-01 -1.4523568259313880e+01 -1.4259842875732993e+01 2.0512394713740356e+00 -2 3 2
558 186 2 4.0999999999999998e-01 -1.2789964647518534e+01 -7.0094202302087565e+00 8.4614087554461292e-01 1 -2 1
1047 349 2 4.0999999999999998e-01 -9.4913171048476705e+00 -1.3762786510578547e+01 1.3654955077517421e+00 -2 -2 2
1034 345 2 4.0999999999999998e-01 -1.1551896044338474e+01 -1.2975768581880306e+01 1.4459983838648576e+00 0 -3 0
1431 477 2 4.0999999999999998e-01 -1.2236567250002732e+01 -1.2434982815327656e+01 6.6189782641100017e+00 2 -4 -1
327 109 2 4.0999999999999998e-01 -1.3063030861173861e+01 -9.8157296126267930e+00 5.9693442505040615e+00 -1 -4 1
1662 554 2 4.0999999999999998e-01 -8.5747049409384175e+00 -1.2290187187995190e+01 4.1526370352690201e-01 1 -4 1
1588 530 1 -8.1999999999999995e-01 -9.1152887519096062e+00 -5.8246725082350554e+00 6.8244714047006916e+00 3 -2 -1
1045 349 1 -8.1999999999999995e-01 -9.9627423575400709e+00 -1.4633893484682529e+01 1.5030792026254645e+00 -2 -2 2
86 29 2 4.0999999999999998e-01 -1.1663858006192063e+01 -7.0784203940646560e+00 5.2238670934861524e+00 -1 -1 0
2404 802 1 -8.1999999999999995e-01 -1.0929911276541302e+01 -1.0314732031616604e+01 3.4608549653334819e-02 -3 0 2
774 258 2 4.0999999999999998e-01 -9.8468684235147137e+00 -1.0248182358778489e+01 6.9344410785205213e+00 0 -1 4
87 29 2 4.0999999999999998e-01 -1.1899457038151251e+01 -7.4704497494534259e+00 6.7914857692575090e+00 -1 -1 0
1030 344 1 -8.1999999999999995e-01 -1.1611361302694446e+01 -5.6207867252455976e+00 1.7709321147052748e-01 3 -1 4
1226 409 2 4.0999999999999998e-01 -9.7504843207687699e+00 -9.7631614048795932e+00 3.9203776708954940e+00 -1 -3 2