LAMMPS data file via write_data, version 15 May 2015, timestep = 23005000

2611 atoms
6 atom types
1749 bonds
4 bond types
894 angles
3 angle types
44 dihedrals
3 dihedral types
10 impropers
1 improper types

-1.5024329316004289e+01 1.5024329316004289e+01 xlo xhi
-1.5024329316004289e+01 1.5024329316004289e+01 ylo yhi
-1.5024329316004289e+01 1.5024329316004289e+01 zlo zhi

Masses

1 15.9994
2 1.00794
3 12.0107
4 1.00794
5 12.0107
6 12.0107

Bond Coeffs # harmonic

1 1000 1
2 469 1.4
3 367 1.08
4 469 0.7

Angle Coeffs # harmonic

1 100 109.47
2 35 120
3 63 120

Dihedral Coeffs # opls

1 0 7.25 0 0
2 0 7.25 0 0
3 0 7.25 0 0

Improper Coeffs # cvff

1 2.5 -1 2

Atoms # full

2131 711 1 -8.1999999999999995e-01 -1.1860367990834447e+01 -1.1359889140676604e+01 -1.2299047080339601e+01 4 -1 5
2020 674 1 -8.1999999999999995e-01 -1.4432646415527065e+01 -1.1415062003558193e+01 -1.1035607295943906e+01 -6 -9 12
2129 710 2 4.0999999999999998e-01 -1.2451038535943617e+01 -8.8148062927347119e+00 -1.4043504921771216e+01 0 4 -1
373 125 1 -8.1999999999999995e-01 -1.0433104725545828e+01 -8.7778569236250057e+00 -1.1607101833463560e+01 -3 1 6
374 125 2 4.0999999999999998e-01 -1.0427904379338539e+01 -8.2129015200858291e+00 -1.0781998261688118e+01 -3 1 6
375 125 2 4.0999999999999998e-01 -1.0704603261429012e+01 -9.7107779860582735e+00 -1.1370576028976956e+01 -3 1 6
2130 710 2 4.0999999999999998e-01 -1.1736084030339878e+01 -8.2144774708858037e+00 -1.2703704453798572e+01 0 4 -1
2128 710 1 -8.1999999999999995e-01 -1.2487336490329678e+01 -8.0929366580175461e+00 -1.3352430226872944e+01 0 4 -1
1036 346 1 -8.1999999999999995e-01 -1.4189509756470914e+01 -1.1297109642719867e+01 -8.3406737399343935e+00 -1 0 0
2132 711 2 4.0999999999999998e-01 -1.1614223294001619e+01 -1.1017336056253827e+01 -1.3205726590987625e+01 4 -1 5
2133 711 2 4.0999999999999998e-01 -1.1232300855473660e+01 -1.2092904556218620e+01 -1.2037862045940120e+01 4 -1 5
1410 470 2 4.0999999999999998e-01 -8.8155833141606728e+00 -8.2548330086471360e+00 -1.4225920223579175e+01 0 -1 1
1137 379 2 4.0999999999999998e-01 -1.2576843931033830e+01 -1.0330301136151199e+01 -7.7724849022258322e+00 -2 -6 -1
1723 575 1 -8.1999999999999995e-01 -1.0438329652837252e+01 -1.0948922275048062e+01 -1.4512715280989195e+01 2 -4 1
1363 455 1 -8.1999999999999995e-01 -1.1434400047762523e+01 -1.2267531898110137e+01 -9.4472057041748663e+00 9 -6 -1
1408 470 1 -8.1999999999999995e-01 -8.4054980113961921e+00 -8.5195471894504671e+00 -1.3353135012085996e+01 0 -1 1
1409 470 2 4.0999999999999998e-01 -9.0875124260999236e+00 -8.4387273777376741e+00 -1.2626277333982323e+01 0 -1 1
1098 366 2 4.0999999999999998e-01 -1.4559951654072286e+01 -1.0362838758146303e+01 -1.4589875465351138e+01 6 -5 4
1032 344 2 4.0999999999999998e-01 -1.3790947700922386e+01 -1.3898621643399693e+01 -1.3281590016326280e+01 5 1 5
2021 674 2 4.0999999999999998e-01 -1.3498306865634630e+01 -1.1388580857105804e+01 -1.1391002729975680e+01 -6 -9 12
134 45 2 4.0999999999999998e-01 -1.3899323395875410e+01 -7.2031592393816322e+00 -1.2755547153633662e+01 1 -6 10
1048 350 1 -8.1999999999999995e-01 -1.0732975243122468e+01 -7.7422459918279367e+00 -8.8903900817963439e+00 -4 1 1
1050 350 2 4.0999999999999998e-01 -1.1105552106599355e+01 -6.9582725715171811e+00 -8.3938322134993477e+00 -4 1 1
1254 418 2 4.0999999999999998e-01 -1.4207360109530857e+01 -6.1520500630224930e+00 -9.1182734544820079e+00 -4 0 1
1038 346 2 4.0999999999999998e-01 -1.4120298853127498e+01 -1.1269323216800260e+01 -9.3378875546774616e+00 -1 0 0
1049 350 2 4.0999999999999998e-01 -1.1082457961021431e+01 -8.5883714025218758e+00 -8.4879833119290495e+00 -4 1 1
465 155 2 4.0999999999999998e-01 -1.0213419330390771e+01 -5.6469157927688194e+00 -1.1170269623187087e+01 0 -2 6
1096 366 1 -8.1999999999999995e-01 -1.3655126371823222e+01 -1.0224875946696756e+01 -1.4992684442157808e+01 6 -5 4
1724 575 2 4.0999999999999998e-01 -9.7133866549042089e+00 -1.1550228478806229e+01 -1.4848700456752054e+01 2 -4 1
393 131 2 4.0999999999999998e-01 -8.0379591297855839e+00 -1.0930865303129590e+01 -7.7743348839735527e+00 3 0 5
586 196 1 -8.1999999999999995e-01 -9.5433546272263392e+00 -1.3108796130159375e+01 -1.1538892278854584e+01 -1 -2 1
588 196 2 4.0999999999999998e-01 -9.0732548201628571e+00 -1.3389025659335767e+01 -1.0701948338397088e+01 -1 -2 1
1030 344 1 -8.1999999999999995e-01 -1.3956517758452550e+01 -1.4199667061959801e+01 -1.2342465002166941e+01 5 1 5
1365 455 2 4.0999999999999998e-01 -1.1065957894590506e+01 -1.2741971396862670e+01 -1.0246677479513910e+01 9 -6 -1
133 45 1 -8.1999999999999995e-01 -1.4579901940682024e+01 -6.5052058118179144e+00 -1.2532676276337856e+01 1 -6 10
1364 455 2 4.0999999999999998e-01 -1.0680738470588047e+01 -1.1937625405413343e+01 -8.8787398147748924e+00 9 -6 -1
2524 842 1 -8.1999999999999995e-01 -1.1778949712034045e+01 -5.4739863122025945e+00 -8.1245850200602376e+00 -3 0 11
114 38 2 4.0999999999999998e-01 -7.6335697036486687e+00 -1.0446553336701980e+01 -1.3153558648060214e+01 -4 -10 -3
587 196 2 4.0999999999999998e-01 -9.5206287553765563e+00 -1.3858055527068554e+01 -1.2200777048717306e+01 -1 -2 1
1252 418 1 -8.1999999999999995e-01 -1.4503756361391837e+01 -5.6353714861647504e+00 -9.9215106807625819e+00 -4 0 1
1517 506 2 4.0999999999999998e-01 -1.1759429121302592e+01 -1.2884198835301444e+01 -1.4604146842460954e+01 1 -5 1
890 297 2 4.0999999999999998e-01 -1.4819408104803934e+01 -9.6017447567673369e+00 -8.3490654185557922e+00 3 -5 -1
1172 391 2 4.0999999999999998e-01 -8.6079528524525486e+00 -7.8291028472061948e+00 -8.9367005731928515e+00 -5 -9 7
1725 575 2 4.0999999999999998e-01 -1.0239858428243522e+01 -1.0005971374540369e+01 -1.4780017229956886e+01 2 -4 1
1031 344 2 4.0999999999999998e-01 -1.4227689995618389e+01 -1.3415685232533537e+01 -1.1784042459387674e+01 5 1 5
65 22 2 4.0999999999999998e-01 -8.2049477805068562e+00 -1.2722628109330204e+01 -9.1074822477132926e+00 -5 -8 4
1173 391 2 4.0999999999999998e-01 -7.8078722755750594e+00 -6.5768770000794081e+00 -8.2596323281470774e+00 -5 -9 7
135 45 2 4.0999999999999998e-01 -1.4702983677764959e+01 -6.4642894687971637e+00 -1.1541124795637611e+01 1 -6 10
1171 391 1 -8.1999999999999995e-01 -7.7108249196671448e+00 -7.4917986409800426e+00 -8.6514202217175509e+00 -5 -9 7
64 22 1 -8.1999999999999995e-01 -7.6581947077678336e+00 -1.3407375509715735e+01 -9.5893324591431863e+00 -5 -8 4
113 38 2 4.0999999999999998e-01 -7.8774186484545314e+00 -1.1858366152626948e+01 -1.2370014003212999e+01 -4 -10 -3
1037 346 2 4.0999999999999998e-01 -1.4285452678642248e+01 -1.2245846553019943e+01 -8.0395245525343473e+00 -1 0 0
993 331 2 4.0999999999999998e-01 -1.2275589796844754e+01 -1.3483052929073544e+01 -8.1803504698133516e+00 2 4 3
992 331 2 4.0999999999999998e-01 -1.3620484543993497e+01 -1.4328549431222243e+01 -7.8021787130910543e+00 2 4 3
391 131 1 -8.1999999999999995e-01 -8.8951422720531639e+00 -1.1386121087271823e+01 -8.0151185993593472e+00 3 0 5
2525 842 2 4.0999999999999998e-01 -1.2616915342017268e+01 -5.7522303110769748e+00 -7.6551263582363847e+00 -3 0 11
1135 379 1 -8.1999999999999995e-01 -1.1762744565199270e+01 -9.7868939958587404e+00 -7.5676715974869833e+00 -2 -6 -1
2172 724 2 4.0999999999999998e-01 -3.3697437349193038e-01 -7.4331440560870625e+00 -8.0270542945434524e+00 3 -3 2
1921 641 1 -8.1999999999999995e-01 -4.2644256782358063e+00 -5.1482448940965959e+00 -7.7986423732306775e+00 -3 -4 9
626 209 2 4.0999999999999998e-01 -2.7892116199163368e+00 -9.6954877276976390e+00 -7.8413058043155752e+00 -2 -8 2
1213 405 1 -8.1999999999999995e-01 -2.0035946408628824e+00 -1.1595316950544092e+01 -1.4887268948129078e+01 -2 1 7
1155 385 2 4.0999999999999998e-01 -2.0096278171500792e-01 -1.2434838395804325e+01 -1.2972734498021314e+01 7 1 2
2043 681 2 4.0999999999999998e-01 -1.8794480395303399e+00 -9.3240720243945070e+00 -1.4607532137657918e+01 -2 0 6
859 287 1 -8.1999999999999995e-01 -5.8925446806516337e+00 -1.4718851984924996e+01 -1.4149160301451642e+01 -1 1 8
861 287 2 4.0999999999999998e-01 -5.2579354684620174e+00 -1.4482283339307322e+01 -1.4884893936691080e+01 -1 1 8
1612 538 1 -8.1999999999999995e-01 -3.9854494080793277e+00 -1.2352381220062936e+01 -1.0266559423033947e+01 4 -4 7
1154 385 2 4.0999999999999998e-01 -4.2385466184534337e-01 -1.3575921425675322e+01 -1.4119411709088434e+01 7 1 2
1558 520 1 -8.1999999999999995e-01 -3.1643092629933811e-01 -1.4063917557949200e+01 -7.5515730545396949e+00 -3 -2 2
1145 382 2 4.0999999999999998e-01 -3.1714343703379537e+00 -7.5888558142756350e+00 -1.3726540644005913e+01 0 1 0
1475 492 2 4.0999999999999998e-01 -1.7474490344679872e-01 -1.0059089876703950e+01 -1.3026153235957079e+01 -4 -8 9
268 90 1 -8.1999999999999995e-01 -4.2437273626919367e+00 -1.4629559155671160e+01 -1.1736669733406298e+01 -1 -3 11
269 90 2 4.0999999999999998e-01 -4.1970326304364924e+00 -1.3782232538966484e+01 -1.1207656689989218e+01 -1 -3 11
533 178 2 4.0999999999999998e-01 -4.1043304609756319e+00 -1.1897797576964276e+01 -1.2563410934812794e+01 -3 -4 6
1560 520 2 4.0999999999999998e-01 -1.1385174463269916e+00 -1.4249554502250444e+01 -8.0898204099736510e+00 -3 -2 2
625 209 1 -8.1999999999999995e-01 -3.7468853368416379e+00 -9.4581921408893432e+00 -7.6783650447294276e+00 -2 -8 2
522 174 2 4.0999999999999998e-01 -4.5925889646569846e+00 -8.9678204107124628e+00 -1.0505483288258594e+01 0 -2 7
1214 405 2 4.0999999999999998e-01 -2.8848097129265771e+00 -1.1494823720491107e+01 -1.4425361325832661e+01 -2 1 7
1613 538 2 4.0999999999999998e-01 -4.0994697931817452e+00 -1.1367382072713621e+01 -1.0396072417312624e+01 4 -4 7
241 81 1 -8.1999999999999995e-01 -1.0742229976968876e+00 -1.0097343064964175e+01 -7.9027480317155794e+00 2 0 3
1308 436 2 4.0999999999999998e-01 -4.8751570819413867e+00 -1.4823947540521734e+01 -7.6796075270956718e+00 -1 -2 5
1306 436 1 -8.1999999999999995e-01 -5.2795834992115775e+00 -1.3922329316722866e+01 -7.8329743851264455e+00 -1 -2 5
2469 823 2 4.0999999999999998e-01 -7.1590598467100719e+00 -8.9711369417210385e+00 -7.8359644986415606e+00 -5 2 1
860 287 2 4.0999999999999998e-01 -5.4450812209797945e+00 -1.4580388366243517e+01 -1.3265643545498062e+01 -1 1 8
345 115 2 4.0999999999999998e-01 -4.5218920213208129e+00 -6.7274986799967760e+00 -8.9896462143835656e+00 2 -1 4
243 81 2 4.0999999999999998e-01 -7.3827158888822453e-01 -1.0883959374239263e+01 -8.4207914387320990e+00 2 0 3
627 209 2 4.0999999999999998e-01 -4.0256904139871654e+00 -8.7405548409315674e+00 -8.3165358645937335e+00 -2 -8 2
112 38 1 -8.1999999999999995e-01 -7.2103079896568705e+00 -1.1307564958285013e+01 -1.2871590474960378e+01 -4 -10 -3
2108 703 2 4.0999999999999998e-01 -6.5380374647973305e-01 -5.5456356113458796e+00 -1.4417859864205296e+01 3 0 11
894 298 2 4.0999999999999998e-01 -1.1476958367638268e+00 -5.4987825993991439e+00 -1.2081070892501687e+01 3 -3 3
2041 681 1 -8.1999999999999995e-01 -2.6201761590844370e+00 -8.7234048454194273e+00 -1.4908394803772548e+01 -2 0 6
1146 382 2 4.0999999999999998e-01 -4.4635118501370030e+00 -6.8277067518851293e+00 -1.3080160101776395e+01 0 1 0
66 22 2 4.0999999999999998e-01 -6.8133235526680362e+00 -1.3576645056983658e+01 -9.0818503417264207e+00 -5 -8 4
868 290 1 -8.1999999999999995e-01 -6.2294873245218216e+00 -6.6338322504879539e+00 -1.3733186259364658e+01 4 -6 -1
344 115 2 4.0999999999999998e-01 -5.9340234474585198e+00 -7.4725872342054753e+00 -9.3322069648236425e+00 2 -1 4
809 270 2 4.0999999999999998e-01 -1.7557169378202033e+00 -6.4983182699218869e+00 -1.0383609437326321e+01 4 -1 1
869 290 2 4.0999999999999998e-01 -6.9470320815406197e+00 -7.3292776639603314e+00 -1.3771692792675168e+01 4 -6 -1
1144 382 1 -8.1999999999999995e-01 -3.5056722627376864e+00 -7.0760777823663181e+00 -1.2935755411985555e+01 0 1 0
532 178 1 -8.1999999999999995e-01 -4.6688012898541356e+00 -1.1968147776301079e+01 -1.3385859153575902e+01 -3 -4 6
808 270 1 -8.1999999999999995e-01 -2.3059368788625623e+00 -5.7559562460522109e+00 -1.0765910598609331e+01 4 -1 1
810 270 2 4.0999999999999998e-01 -3.0742183588961183e+00 -6.1400876541183997e+00 -1.1277949875024490e+01 4 -1 1
145 49 1 -8.1999999999999995e-01 -1.5280898396846894e+00 -1.0862167092192184e+01 -1.1894534527142511e+01 -2 -1 5
146 49 2 4.0999999999999998e-01 -2.3128120900661777e+00 -1.0316337768502326e+01 -1.1600801871891623e+01 -2 -1 5
521 174 2 4.0999999999999998e-01 -5.0679988647971328e+00 -9.8661663718573109e+00 -1.1783599042856043e+01 0 -2 7
343 115 1 -8.1999999999999995e-01 -4.9428707317222500e+00 -7.5900285470490623e+00 -9.2703893238871622e+00 2 -1 4
147 49 2 4.0999999999999998e-01 -1.0140128544791462e+00 -1.1165505009472236e+01 -1.1092220064772793e+01 -2 -1 5
520 174 1 -8.1999999999999995e-01 -4.4339238560128962e+00 -9.8153234296080001e+00 -1.1012002350960856e+01 0 -2 7
534 178 2 4.0999999999999998e-01 -5.6234024568546115e+00 -1.2109844790153447e+01 -1.3123835961922543e+01 -3 -4 6
870 290 2 4.0999999999999998e-01 -6.1716304176383954e+00 -6.1654337405382282e+00 -1.4614805770434504e+01 4 -6 -1
2171 724 2 4.0999999999999998e-01 -7.4591046489704205e-01 -8.5045329481790226e+00 -9.1896019378693303e+00 3 -3 2
1614 538 2 4.0999999999999998e-01 -4.2708222803714033e+00 -1.2602140105894771e+01 -9.3412592189870303e+00 4 -4 7
2170 724 1 -8.1999999999999995e-01 -4.3766006503949484e-01 -7.5698532028603687e+00 -9.0125341492313744e+00 3 -3 2
892 298 1 -8.1999999999999995e-01 -2.7189916459102115e-01 -5.4730085135460662e+00 -1.2563059952186675e+01 3 -3 3
1077 359 2 4.0999999999999998e-01 -5.3008602843894312e+00 -1.0858818543072328e+01 -1.4875210363970741e+01 -3 0 8
1939 647 1 -8.1999999999999995e-01 -9.5574184215816302e+00 -9.0849692971181657e+00 -1.4209447263233770e+00 0 0 1
1940 647 2 4.0999999999999998e-01 -9.0409260828543641e+00 -9.0704071009805105e+00 -2.2771112641484645e+00 0 0 1
2257 753 1 -8.1999999999999995e-01 -9.9963463231970273e+00 -1.1733855755320469e+01 -5.4251401802404491e+00 1 -6 2
1941 647 2 4.0999999999999998e-01 -9.5063006851921159e+00 -9.9980250833938733e+00 -1.0163292236192198e+00 0 0 1
2258 753 2 4.0999999999999998e-01 -9.8672489044521043e+00 -1.2420355374880135e+01 -4.7095637061607167e+00 1 -6 2
2259 753 2 4.0999999999999998e-01 -9.5616291109037714e+00 -1.0877162233661583e+01 -5.1474808509050263e+00 1 -6 2
1780 594 1 -8.1999999999999995e-01 -9.1246796023310743e+00 -9.0866215714555771e+00 -4.4492268363589087e+00 6 -2 5
2032 678 1 -8.1999999999999995e-01 -9.9037563872576015e+00 -1.2942712896018641e+01 -2.6353436435059088e+00 1 -3 0
459 153 2 4.0999999999999998e-01 -1.4260086474072702e+01 -1.4461126074959845e+01 -2.0032358812284006e+00 -5 0 0
1136 379 2 4.0999999999999998e-01 -1.1212423401076345e+01 -1.0257838124530290e+01 -6.8782110779989800e+00 -2 -6 -1
656 219 2 4.0999999999999998e-01 -1.0737122408186089e+01 -7.8405684432298406e+00 -1.3143754538062833e+00 2 -3 3
835 279 1 -8.1999999999999995e-01 -1.2518683984201303e+01 -1.3245597058985393e+01 -4.9150838148581695e+00 -6 -5 2
837 279 2 4.0999999999999998e-01 -1.2745012399401375e+01 -1.3623591773483133e+01 -5.8127992548745269e+00 -6 -5 2
1333 445 1 -8.1999999999999995e-01 -1.1811964394157666e+01 -1.1789785346761855e+01 -4.3191585479030259e-01 4 1 8
1281 427 2 4.0999999999999998e-01 -1.2003244453118850e+01 -5.9623844688170866e+00 -3.9453763047754240e+00 -2 2 3
1664 555 2 4.0999999999999998e-01 -1.0626285831076919e+01 -6.0354162745160362e+00 -6.5179620933841100e+00 -1 -1 8
1993 665 1 -8.1999999999999995e-01 -1.2490531850555755e+01 -9.5894672213843677e+00 -3.6079429548219153e+00 4 0 4
1280 427 2 4.0999999999999998e-01 -1.1016056119902180e+01 -6.9308462649392215e+00 -4.8138006508504851e+00 -2 2 3
1438 480 1 -8.1999999999999995e-01 -1.3982541183176746e+01 -6.8213292586050436e+00 -7.0170072782903450e+00 -1 2 7
655 219 1 -8.1999999999999995e-01 -1.1259086064755040e+01 -6.9925895583859763e+00 -1.2222703669663932e+00 2 -3 3
1781 594 2 4.0999999999999998e-01 -9.0672862662016094e+00 -8.2711106310064082e+00 -5.0251135227496082e+00 6 -2 5
836 279 2 4.0999999999999998e-01 -1.1853958443522998e+01 -1.2506298742689747e+01 -5.0226732867427852e+00 -6 -5 2
1440 480 2 4.0999999999999998e-01 -1.3589791294329499e+01 -7.1883544013428819e+00 -6.1737768199754228e+00 -1 2 7
1663 555 1 -8.1999999999999995e-01 -9.7893316625051270e+00 -6.2628209673593975e+00 -6.0201746262120057e+00 -1 -1 8
1279 427 1 -8.1999999999999995e-01 -1.1941684106247560e+01 -6.8228810475052377e+00 -4.4510970732166903e+00 -2 2 3
1665 555 2 4.0999999999999998e-01 -9.0099304992384006e+00 -5.8117092305562288e+00 -6.4549499836453297e+00 -1 -1 8
1335 445 2 4.0999999999999998e-01 -1.2550307383181430e+01 -1.2146174257435476e+01 -1.0044838516027639e+00 4 1 8
2034 678 2 4.0999999999999998e-01 -1.0180434149149210e+01 -1.2784350547741260e+01 -1.6875206927745996e+00 1 -3 0
1995 665 2 4.0999999999999998e-01 -1.2192883315853445e+01 -8.9211290502925458e+00 -4.2896518451413055e+00 4 0 4
44 15 2 4.0999999999999998e-01 -7.9343728893908843e+00 -1.4936010176248510e+01 -5.6847313581094845e+00 1 4 5
2033 678 2 4.0999999999999998e-01 -1.0229954321349680e+01 -1.3840166162055647e+01 -2.9322781780162437e+00 1 -3 0
1994 665 2 4.0999999999999998e-01 -1.1718050942767299e+01 -9.8347370215979986e+00 -3.0221840277868814e+00 4 0 4
1688 563 2 4.0999999999999998e-01 -1.1642569806623431e+01 -5.1274190251375593e+00 -2.2763362906748839e+00 -1 -6 4
392 131 2 4.0999999999999998e-01 -9.3718477231461463e+00 -1.1662118041192510e+01 -7.1805077552478505e+00 3 0 5
458 153 2 4.0999999999999998e-01 -1.3188382276127511e+01 -1.3495267583695350e+01 -2.7682113241099806e+00 -5 0 0
590 197 2 4.0999999999999998e-01 -1.4477329737168779e+01 -5.2885963463385366e+00 -6.2560589239488102e+00 2 -6 -1
1428 476 2 4.0999999999999998e-01 -8.9166520530613571e+00 -5.4394371392152880e+00 -4.3207795393052635e+00 0 4 7
1934 645 2 4.0999999999999998e-01 -8.3956878648334410e+00 -6.1568309624436548e+00 -1.0059846573692681e+00 3 -6 6
2312 771 2 4.0999999999999998e-01 -1.4273878362099207e+01 -9.4693256950847307e+00 -3.7116860633269706e+00 5 -1 2
457 153 1 -8.1999999999999995e-01 -1.3874038872914980e+01 -1.3539447867877735e+01 -2.0416298082871940e+00 -5 0 0
1782 594 2 4.0999999999999998e-01 -8.2643416644522318e+00 -9.2059377276442778e+00 -3.9536666947469676e+00 6 -2 5
1593 531 2 4.0999999999999998e-01 -1.4692451750286402e+01 -5.8375944062150040e+00 -1.4392744849011105e+00 -1 5 4
1933 645 1 -8.1999999999999995e-01 -7.7082133064644527e+00 -6.4714094925437831e+00 -1.6605201024418008e+00 3 -6 6
1935 645 2 4.0999999999999998e-01 -7.8760907760101375e+00 -6.0467571950750614e+00 -2.5501745976093506e+00 3 -6 6
657 219 2 4.0999999999999998e-01 -1.2056000206802187e+01 -7.1533039963158229e+00 -6.3995063103535266e-01 2 -3 3
2388 796 2 4.0999999999999998e-01 -1.4948269390375053e+01 -8.1348386288391801e+00 -2.2490233909881834e+00 2 -3 4
991 331 1 -8.1999999999999995e-01 -1.2763936065900623e+01 -1.3954869637206938e+01 -7.4462493201291240e+00 2 4 3
1439 480 2 4.0999999999999998e-01 -1.4551322926236418e+01 -7.5197663661065244e+00 -7.4513694559668169e+00 -1 2 7
2467 823 1 -8.1999999999999995e-01 -6.9335715718148982e+00 -9.8037390227737635e+00 -7.3300728545925447e+00 -5 2 1
2468 823 2 4.0999999999999998e-01 -6.0243463076196377e+00 -9.7112069657200450e+00 -6.9241852165276629e+00 -5 2 1
1987 663 1 -8.1999999999999995e-01 -3.3704382905197736e+00 -1.4369366759719247e+01 -2.5123102600465508e-01 -3 -7 1
474 158 2 4.0999999999999998e-01 -1.3002579751400667e-01 -1.3072629854618670e+01 -6.3268178280476253e+00 1 -7 3
927 309 2 4.0999999999999998e-01 -3.7360179925110302e+00 -5.9098846331220205e+00 -2.3790251668754614e-01 -2 -1 4
1018 340 1 -8.1999999999999995e-01 -2.7800141866480637e+00 -1.4522136177907475e+01 -5.4156769627683055e+00 5 -2 6
60 20 2 4.0999999999999998e-01 -3.3016883061776490e+00 -5.7919011824780533e+00 -6.2312368082683882e+00 2 -1 3
887 296 2 4.0999999999999998e-01 -1.2873523125434936e+00 -6.7053824395998021e+00 -6.0810885028860753e+00 0 1 2
18 6 2 4.0999999999999998e-01 -3.6587576347497972e+00 -1.0083828368370931e+01 -1.8744830734639883e-01 1 -5 7
1387 463 1 -8.1999999999999995e-01 -9.6563316356695239e-02 -1.0632366937357077e+01 -8.2299869132531889e-01 0 1 3
1885 629 1 -8.1999999999999995e-01 -1.8228433467696359e+00 -9.9512888211856527e+00 -3.4523392361990393e+00 2 -2 7
888 296 2 4.0999999999999998e-01 -4.0846764748293651e-01 -7.8781583351483322e+00 -5.3608258082023017e+00 0 1 2
1388 463 2 4.0999999999999998e-01 -1.3507186580257624e-02 -9.6451826228067024e+00 -9.5925713309225102e-01 0 1 3
58 20 1 -8.1999999999999995e-01 -3.1888335763232085e+00 -5.9668379104459710e+00 -5.2531475925952744e+00 2 -1 3
2162 721 2 4.0999999999999998e-01 -6.7522671221800827e+00 -1.1346854597766015e+01 -2.7117276093802705e+00 1 0 2
886 296 1 -8.1999999999999995e-01 -4.0130639936821666e-01 -7.1687168623131861e+00 -6.0655520303759047e+00 0 1 2
1307 436 2 4.0999999999999998e-01 -4.9551005784669790e+00 -1.3287777705250488e+01 -7.1315097434978494e+00 -1 -2 5
2161 721 1 -8.1999999999999995e-01 -6.3597210010456617e+00 -1.2166668338377653e+01 -3.1286334804856413e+00 1 0 2
2163 721 2 4.0999999999999998e-01 -7.0330683095290363e+00 -1.2905727561076834e+01 -3.1088241986221679e+00 1 0 2
242 81 2 4.0999999999999998e-01 -7.0832153629723393e-01 -1.0129869958071041e+01 -6.9726643518268556e+00 2 0 3
473 158 2 4.0999999999999998e-01 -1.8554276352633359e-01 -1.3222747206512834e+01 -4.7017016587866376e+00 1 -7 3
2415 805 2 4.0999999999999998e-01 -1.7154542066378777e+00 -8.2598393919072368e+00 -2.9903791538588234e+00 8 -2 4
2063 688 2 4.0999999999999998e-01 -1.2530759545886916e-01 -7.1121342999003243e+00 -8.3803077641705670e-01 1 0 3
235 79 1 -8.1999999999999995e-01 -4.5155438227187403e+00 -1.2404055669796637e+01 -5.3197513890302961e+00 -2 1 -2
681 227 2 4.0999999999999998e-01 -5.2061618624446560e+00 -5.9010284196951872e+00 -2.5580075166332872e+00 4 -2 1
1019 340 2 4.0999999999999998e-01 -2.0461220945384113e+00 -1.4294957152908209e+01 -4.7755287681671543e+00 5 -2 6
2352 784 2 4.0999999999999998e-01 -4.1891263506482908e+00 -8.9856223348782773e+00 -5.4323633140405665e+00 1 -2 1
926 309 2 4.0999999999999998e-01 -2.8092508830258183e+00 -6.8862546644649321e+00 -1.1622532339262541e+00 -2 -1 4
1886 629 2 4.0999999999999998e-01 -1.0843741812317056e+00 -1.0055480536365504e+01 -4.1185261201339038e+00 2 -2 7
925 309 1 -8.1999999999999995e-01 -3.1420107823222470e+00 -6.7143377683089245e+00 -2.3504613813035569e-01 -2 -1 4
287 96 2 4.0999999999999998e-01 -2.5515597183647998e-01 -1.3736283550677481e+01 -2.7366666247419662e+00 -3 1 5
1020 340 2 4.0999999999999998e-01 -3.4190354357330346e+00 -1.3755309222921987e+01 -5.4758923021139321e+00 5 -2 6
396 132 2 4.0999999999999998e-01 -7.0677961694636835e+00 -7.7285657412006472e+00 -3.8167637681553046e-01 4 0 4
1120 374 1 -8.1999999999999995e-01 -6.7432292633755075e+00 -9.2361596394891912e+00 -2.8643152051156466e+00 3 -5 3
1122 374 2 4.0999999999999998e-01 -6.9301173956128039e+00 -8.2588768984586327e+00 -2.7643711607010246e+00 3 -5 3
1121 374 2 4.0999999999999998e-01 -5.9531366692383259e+00 -9.3648371186005477e+00 -3.4636426256046153e+00 3 -5 3
236 79 2 4.0999999999999998e-01 -5.2673447128917008e+00 -1.2592723123949419e+01 -4.6879305407131131e+00 -2 1 -2
2350 784 1 -8.1999999999999995e-01 -4.4722128798338723e+00 -9.4436139496808984e+00 -4.5896870510591388e+00 1 -2 1
2414 805 2 4.0999999999999998e-01 -2.0074600930433260e+00 -6.7444926249384345e+00 -3.5243048560590609e+00 8 -2 4
801 267 2 4.0999999999999998e-01 -6.1423072513864536e+00 -5.6733381871480493e+00 -3.6230442218369063e-01 -6 1 6
1887 629 2 4.0999999999999998e-01 -1.9676201348513764e+00 -1.0818980551564254e+01 -2.9767887013039047e+00 2 -2 7
2413 805 1 -8.1999999999999995e-01 -1.8663830966110382e+00 -7.3111496135196683e+00 -2.7125199894217307e+00 8 -2 4
818 273 2 4.0999999999999998e-01 -4.7127163023493228e+00 -1.2012426203850637e+01 -1.8637594484426625e+00 1 -3 2
59 20 2 4.0999999999999998e-01 -4.0872269522267342e+00 -6.0059392721342153e+00 -4.8157027545127864e+00 2 -1 3
817 273 1 -8.1999999999999995e-01 -4.0982609537142274e+00 -1.1954332462442608e+01 -1.0769511590727419e+00 1 -3 2
819 273 2 4.0999999999999998e-01 -3.7399322704693265e+00 -1.2863784316739777e+01 -8.6601172065004128e-01 1 -3 2
679 227 1 -8.1999999999999995e-01 -5.3832225423436046e+00 -5.8740032406639902e+00 -3.5418350900024400e+00 4 -2 1
680 227 2 4.0999999999999998e-01 -6.3559819271147440e+00 -5.7054011244834690e+00 -3.7009264631972876e+00 4 -2 1
286 96 1 -8.1999999999999995e-01 -7.6711214339474587e-01 -1.4123804765408424e+01 -3.5032993689878502e+00 -3 1 5
2351 784 2 4.0999999999999998e-01 -3.6642531881919496e+00 -9.7775723715254124e+00 -4.1042280405427594e+00 1 -2 1
237 79 2 4.0999999999999998e-01 -4.3767318978715206e+00 -1.1416030104504959e+01 -5.3870888038337519e+00 -2 1 -2
2457 819 2 4.0999999999999998e-01 -1.4104615310593159e+01 -9.9395956365988489e+00 1.8854274714978647e+00 -3 -1 -1
2244 748 2 4.0999999999999998e-01 -1.1595348234170704e+01 -1.3212068346617144e+01 4.6544008524718006e+00 4 -5 2
2242 748 1 -8.1999999999999995e-01 -1.2456621305135378e+01 -1.3065155719228672e+01 5.1408398587244175e+00 4 -5 2
2456 819 2 4.0999999999999998e-01 -1.4099029817008230e+01 -8.9072262484473086e+00 3.1506555810923000e+00 -3 -1 -1
2243 748 2 4.0999999999999998e-01 -1.3182246284407931e+01 -1.2867774763952658e+01 4.4816686504036429e+00 4 -5 2
90 30 2 4.0999999999999998e-01 -1.1806154663145048e+01 -8.0048243664036018e+00 3.5206315794370884e+00 3 -1 3
2455 819 1 -8.1999999999999995e-01 -1.3632975393228763e+01 -9.1633701320634859e+00 2.3037901079473659e+00 -3 -1 -1
2031 677 2 4.0999999999999998e-01 -1.2671450246111270e+01 -6.0179096026474319e+00 6.2476409939298367e+00 -1 1 3
2030 677 2 4.0999999999999998e-01 -1.1509245566920708e+01 -6.8864982579975287e+00 5.4983386823023768e+00 -1 1 3
2228 743 2 4.0999999999999998e-01 -9.8548367742000273e+00 -9.7007048153284678e+00 4.3313083098218268e+00 3 -3 7
2029 677 1 -8.1999999999999995e-01 -1.1862565506715017e+01 -6.5894983573965540e+00 6.3854427678398320e+00 -1 1 3
737 246 2 4.0999999999999998e-01 -9.1018583750897939e+00 -1.4182357926727212e+01 2.8186103798678683e+00 -3 3 5
2229 743 2 4.0999999999999998e-01 -1.0619857196553248e+01 -1.0652103099775015e+01 5.4158381714338137e+00 3 -3 7
2227 743 1 -8.1999999999999995e-01 -1.0111769289394116e+01 -1.0640982071080984e+01 4.5546061408123872e+00 3 -3 7
2112 704 2 4.0999999999999998e-01 -1.3372621929549638e+01 -1.3146882789358015e+01 1.7073210785258492e+00 2 1 3
1355 452 2 4.0999999999999998e-01 -1.4262782331855213e+01 -9.0855322534221479e+00 5.3621310610897357e+00 1 4 10
89 30 2 4.0999999999999998e-01 -1.0206333362133023e+01 -7.6992694974349929e+00 3.4030392275979420e+00 3 -1 3
2422 808 1 -8.1999999999999995e-01 -1.1766223001402462e+01 -1.1493299723851099e+01 2.4708319844201281e+00 6 -3 0
2424 808 2 4.0999999999999998e-01 -1.2521905731181329e+01 -1.0840108799308169e+01 2.5186106693392016e+00 6 -3 0
1354 452 1 -8.1999999999999995e-01 -1.4545811303532233e+01 -8.3177130241899064e+00 4.7873739301161304e+00 1 4 10
2423 808 2 4.0999999999999998e-01 -1.0989653173697519e+01 -1.1143490496322393e+01 2.9948266126601322e+00 6 -3 0
1791 597 2 4.0999999999999998e-01 -1.3867196848229655e+01 -6.5857834568971985e+00 4.2307000774826573e+00 4 -5 1
403 135 1 -8.1999999999999995e-01 -9.1946825214153129e+00 -1.1152450768330352e+01 5.9896025992793334e-01 -1 -3 4
877 293 1 -8.1999999999999995e-01 -1.0942661906192575e+01 -9.3348055658415543e+00 7.1114173901277038e+00 1 -7 5
88 30 1 -8.1999999999999995e-01 -1.0949582469725604e+01 -7.9296164991041067e+00 4.0311464198435818e+00 3 -1 3
1790 597 2 4.0999999999999998e-01 -1.3581355798288522e+01 -6.3657905208272787e+00 2.6380551295048935e+00 4 -5 1
1789 597 1 -8.1999999999999995e-01 -1.3417297969872104e+01 -6.0018950541639136e+00 3.5549317158326073e+00 4 -5 1
599 200 2 4.0999999999999998e-01 -1.4665459580646683e+01 -1.1471130166543043e+01 3.2856362299679827e+00 -1 0 1
1304 435 2 4.0999999999999998e-01 -1.2201809513268053e+01 -5.4302875691258556e+00 1.1015843518847870e+00 -3 0 4
404 135 2 4.0999999999999998e-01 -1.0096806995062419e+01 -1.1510055792874942e+01 3.5753192562975755e-01 -1 -3 4
1321 441 1 -8.1999999999999995e-01 -1.3520917528540636e+01 -6.9988549641938729e+00 8.8786714450220749e-01 -2 -4 5
1322 441 2 4.0999999999999998e-01 -1.3480080564122794e+01 -7.8569848878119997e+00 1.3996707262661285e+00 -2 -4 5
1323 441 2 4.0999999999999998e-01 -1.4059604226951816e+01 -7.1322217517124944e+00 5.5985258601731758e-02 -2 -4 5
213 71 2 4.0999999999999998e-01 -1.2882776037877917e+01 -1.1984748195825681e+01 6.7942567521707158e+00 5 1 5
738 246 2 4.0999999999999998e-01 -9.5973049946380087e+00 -1.4679380651545920e+01 4.2931004845124594e+00 -3 3 5
792 264 2 4.0999999999999998e-01 -7.7925254263241870e+00 -1.4185805101718707e+01 1.1437707996040682e+00 -6 6 2
1282 428 1 -8.1999999999999995e-01 -7.6531965250692302e+00 -1.1692830868004137e+01 4.7724644986047355e+00 1 -3 2
1283 428 2 4.0999999999999998e-01 -8.6056713469762371e+00 -1.1504864405616003e+01 4.5327607452502097e+00 1 -3 2
2448 816 2 4.0999999999999998e-01 -9.5395987920103806e+00 -5.2682068285289549e+00 3.7448566484526591e+00 0 -3 2
598 200 1 -8.1999999999999995e-01 -1.4743121439684213e+01 -1.1806794111920462e+01 4.2244098377293025e+00 -1 0 1
1705 569 1 -8.1999999999999995e-01 -7.6250424517004820e+00 -1.2925309558966013e+01 7.2309660694787841e+00 3 0 6
1707 569 2 4.0999999999999998e-01 -7.6487585493319825e+00 -1.2524184434220508e+01 6.3152511767399435e+00 3 0 6
2111 704 2 4.0999999999999998e-01 -1.4280535012064025e+01 -1.4499285108040452e+01 1.5919012379042972e+00 2 1 3
736 246 1 -8.1999999999999995e-01 -9.8991871798258266e+00 -1.4350782478326684e+01 3.3981770605752768e+00 -3 3 5
2017 673 1 -8.1999999999999995e-01 -1.0059553217616765e+01 -7.8781632787968947e+00 1.4756469304619468e+00 -2 -1 -2
879 293 2 4.0999999999999998e-01 -1.1332649914972103e+01 -8.4932164686091269e+00 6.7377401191388682e+00 1 -7 5
790 264 1 -8.1999999999999995e-01 -7.8417152102117074e+00 -1.3620648346338402e+01 1.9672850894150944e+00 -6 6 2
2019 673 2 4.0999999999999998e-01 -9.4965876663540030e+00 -7.1465185688894941e+00 1.0912469157337750e+00 -2 -1 -2