2611
Atoms. Timestep: 23000000
O 3.34829 12.3124 -13.6307
H 2.91327 12.5968 -12.7764
H 3.91699 13.0574 -13.9793
O -8.46129 6.96866 7.96108
H -9.34696 6.83908 7.51521
H -8.54108 6.74437 8.93232
O 12.5687 -14.2114 -12.58
H 13.3949 -13.8571 -12.1419
H 12.479 14.6973 -12.3821
O -6.96875 12.6676 -12.5656
H -7.21848 12.8972 -11.6249
H -7.44654 11.8342 -12.8433
O 2.2921 -12.8316 8.4998
H 1.63372 -12.3627 9.08853
H 1.99932 -12.7567 7.54656
O -3.59979 -11.963 2.51391
H -3.2131 -11.3969 3.24193
H -3.19214 -12.8755 2.54907
O 0.379267 8.78898 -2.30056
H -0.239848 8.44322 -3.00564
H 1.13542 8.14642 -2.1767
O 5.81288 5.93982 -12.5931
H 5.98086 6.6144 -11.8742
H 6.45211 6.09019 -13.3472
O -1.97515 -14.4145 -0.79717
H -2.96554 -14.2859 -0.746452
H -1.73402 14.5816 -0.407072
O -1.32144 -7.44081 4.22346
H -0.877524 -6.74013 4.78201
H -0.640676 -8.10957 3.9246
O 13.9328 8.65139 6.72988
H 13.5023 8.85296 7.60969
H 13.8867 9.45991 6.14323
O -1.38899 -2.33511 -13.7499
H -1.31145 -2.284 -14.7455
H -1.49602 -1.41377 -13.3761
O -2.96552 2.36977 7.20881
H -3.79224 2.64728 6.7194
H -2.93576 1.37235 7.27401
O 5.60121 -13.6362 11.2805
H 6.41832 -14.2121 11.3071
H 4.80593 -14.1965 11.049
O -5.80602 14.073 -4.71742
H -6.45626 14.699 -5.14789
H -5.11084 14.5994 -4.22781
O 8.40436 3.361 -11.5344
H 8.85719 3.65771 -10.6936
H 7.9023 4.12924 -11.9315
O 5.65435 9.96073 3.08333
H 5.05563 10.7606 3.04257
H 6.02284 9.77345 2.17276
O -13.8991 2.67833 -9.7133
H -14.7076 3.26206 -9.63855
H -14.1745 1.7637 -10.0092
O 4.98081 11.6834 9.54596
H 5.14688 12.6379 9.79344
H 5.38844 11.0845 10.2353
O -3.36448 -8.2053 -5.3724
H -4.01832 -7.54593 -5.00129
H -3.24688 -8.04281 -6.35208
O -5.05728 -4.35264 -0.129594
H -4.60666 -3.94855 0.66643
H -6.04041 -4.4178 0.0412956
O -5.58678 -12.2299 -8.52321
H -6.57858 -12.1417 -8.43082
H -5.17862 -11.3218 -8.61647
O -4.56833 6.45976 7.02433
H -5.29902 6.24702 6.37562
H -4.699 7.38439 7.38209
O 14.8117 5.67432 -12.6543
H 14.8282 5.91058 -13.6258
H 14.0031 6.07858 -12.2267
O -5.38073 3.2377 12.5121
H -4.77457 2.89131 13.228
H -6.17143 3.68351 12.9316
O 10.107 -10.6241 -0.96851
H 9.98688 -10.8264 -1.94045
H 9.29954 -10.9276 -0.462639
O 5.82663 -14.4035 1.70485
H 5.54457 -13.4471 1.6293
H 5.47736 -14.9169 0.921013
O 10.2222 2.84614 11.1466
H 10.725 3.70967 11.1078
H 9.93321 2.67068 12.0877
O -7.57434 3.64755 -1.48314
H -8.07071 3.68348 -2.3505
H -7.3886 2.69434 -1.24463
O -8.60085 -7.43492 1.74232
H -7.70526 -7.86145 1.61583
H -9.3102 -8.13969 1.7315
O -2.69833 -4.50417 -5.64849
H -1.78763 -4.6138 -6.04674
H -2.77338 -5.07003 -4.82741
O -11.6162 -3.56 1.05136
H -11.2614 -2.72374 1.4694
H -11.126 -4.35032 1.4189
O -10.546 9.75574 4.81361
H -11.3196 10.3825 4.90736
H -10.8743 8.86625 4.4958
O 7.55143 9.49581 -4.2377
H 7.70639 10.0255 -5.07164
H 7.31403 10.1148 -3.48902
O -8.05808 -3.71661 0.225654
H -7.45745 -3.64657 1.0221
H -8.40751 -2.80954 -0.00910113
O 13.4694 5.89498 14.5385
H 14.355 5.63687 14.1521
H 12.898 5.08013 14.6358
O 13.7362 6.54935 -9.47742
H 14.7244 6.60744 -9.33551
H 13.5441 6.46795 -10.4554
O -7.39565 -13.5486 -11.297
H -6.46907 -13.6548 -10.9362
H -8.05325 -13.5926 -10.5449
O 3.81949 0.397775 -13.1935
H 2.89822 0.218211 -12.8485
H 4.40103 0.712058 -12.4431
O -2.69318 -7.26932 8.71273
H -3.05397 -7.42141 7.79257
H -2.81937 -6.31016 8.9659
O 5.20445 1.11394 -11.0119
H 5.3219 2.10124 -10.905
H 4.52917 0.785172 -10.3517
O 2.43542 -8.41423 10.7341
H 3.41204 -8.44696 10.5216
H 2.15088 -7.4624 10.8483
O 6.66169 7.12141 -2.6756
H 6.62798 7.56559 -3.5709
H 7.29599 7.61629 -2.08167
O -4.34311 7.28827 -9.94057
H -5.00284 6.98835 -9.25151
H -3.5178 7.62524 -9.48745
O -13.9584 -6.5916 -12.9371
H -13.4041 -7.32945 -13.3221
H -13.7382 -6.4801 -11.968
O 1.03907 14.2214 14.3613
H 1.42179 13.4094 13.9205
H 0.776187 14.8871 13.6629
O 8.89629 0.313542 8.46167
H 9.31333 1.16994 8.15727
H 8.65038 0.387612 9.42813
O 5.02821 9.8153 -8.38456
H 5.32728 10.7694 -8.40282
H 5.28416 9.40243 -7.51047
O -0.925041 -11.2859 -11.3056
H -1.88143 -11.123 -11.0632
H -0.529991 -11.9529 -10.6739
O 11.4902 -10.6826 -13.3601
H 11.6153 -11.5836 -13.7755
H 10.9228 -10.116 -13.9576
O 0.824848 -11.9922 2.35386
H 0.733114 -12.9681 2.15561
H 0.547178 -11.4618 1.55287
O -1.05001 8.00413 -4.40773
H -2.04411 8.0932 -4.34586
H -0.72384 8.4726 -5.2288
O 11.3247 3.66857 5.13768
H 11.3284 4.18035 5.99679
H 12.2639 3.43913 4.88228
O -12.0801 -5.0437 12.4284
H -11.4202 -5.79364 12.4745
H -12.4775 -4.89313 13.3336
O -11.4863 5.87722 0.340611
H -10.6069 5.50343 0.635553
H -12.1771 5.15427 0.3538
O 3.00186 6.64785 5.73971
H 2.7256 6.05849 4.98054
H 2.57316 6.32663 6.58413
O -0.703994 12.1845 -8.27913
H -0.829707 11.4465 -8.9422
H -1.58757 12.6089 -8.08128
O 8.66274 -9.01475 -3.67513
H 8.61365 -9.99787 -3.4989
H 8.04475 -8.77932 -4.42524
O -10.0577 14.68 -7.79682
H -9.60397 14.7159 -6.90643
H -10.9577 14.2558 -7.69543
O 0.34519 -3.58261 10.4551
H -0.349322 -3.67524 11.1686
H 1.02851 -2.91053 10.7404
O 5.55335 -5.09599 6.05821
H 5.69669 -5.84581 6.70414
H 4.62079 -4.74777 6.15337
O 6.54075 1.26044 -6.67394
H 5.6867 1.7806 -6.66947
H 7.24399 1.77005 -6.1782
O -3.66344 12.7666 -1.2706
H -3.31301 12.4308 -2.14491
H -2.89946 12.9338 -0.64741
O -7.24003 9.78769 -12.8095
H -6.35022 9.98467 -13.2211
H -7.10799 9.2875 -11.9537
O -9.33438 -6.11854 -0.35891
H -8.80089 -6.65774 0.292731
H -9.17858 -5.1449 -0.192322
O 12.235 6.4098 -11.7912
H 12.0125 5.60652 -12.3437
H 11.7164 7.19736 -12.1241
O 2.64483 4.45327 3.73092
H 1.82608 4.24752 3.1949
H 2.74339 3.77765 4.46155
O -10.2092 -4.34336 -9.00578
H -10.807 -3.80421 -9.59896
H -9.67642 -3.72968 -8.42305
O 5.15688 3.7145 -10.5614
H 4.40942 4.16469 -10.0729
H 5.49832 4.32056 -11.2798
O 10.4766 8.57688 6.13196
H 11.1088 7.84529 5.87678
H 9.80447 8.70601 5.40285
O -11.1419 -11.8937 7.12061
H -10.9578 -12.7892 7.52592
H -11.4674 -12.013 6.18265
O 9.37689 13.074 -5.06966
H 10.2051 12.9681 -4.51937
H 9.48462 13.8527 -5.6877
O 5.95645 -7.80019 1.6507
H 6.43155 -8.25682 0.898524
H 6.54097 -7.79858 2.46207
O 3.36809 -14.7948 10.1551
H 3.21766 -14.163 9.39468
H 2.51343 14.6173 10.3698
O 1.49707 -2.88133 -12.4986
H 0.707865 -3.10785 -13.0694
H 1.58456 -1.88753 -12.43
O -6.81862 -7.11801 10.4611
H -7.23303 -7.64763 11.2012
H -6.49135 -7.73947 9.74928
O 7.8305 -9.64207 12.37
H 7.76907 -8.70682 12.0214
H 8.7708 -9.97027 12.2799
O 9.91565 2.20357 13.6978
H 10.5621 1.47421 13.9217
H 9.00935 1.96416 14.0461
O -3.96172 -13.7696 -4.0853
H -4.08892 -13.1981 -3.27457
H -4.31829 -13.2925 -4.8886
O 1.08837 14.378 -0.195084
H 1.96361 13.9172 -0.341865
H 0.87406 14.3832 0.781665
O -2.29359 14.3462 -9.83759
H -2.09702 14.7167 -8.9298
H -1.49126 14.4577 -10.424
O -12.3531 0.138773 5.67362
H -11.7678 -0.644103 5.46262
H -12.218 0.851153 4.98496
O 10.2477 -0.740441 13.2573
H 10.8543 -0.485437 14.0102
H 10.6574 -0.459436 12.3894
O 6.52371 -9.18294 -14.4418
H 5.93217 -8.92164 14.6802
H 6.66801 -10.1724 -14.4557
O -13.6379 -3.96604 8.0396
H -12.8643 -4.59729 7.98418
H -13.993 -3.95527 8.97436
O 8.42056 -3.99901 -12.675
H 7.9474 -3.26458 -12.1885
H 9.0026 -3.6062 -13.387
O 0.359874 14.6072 -10.911
H 0.332636 -14.6046 -10.1718
H 1.12481 13.9803 -10.763
O -13.8636 0.367533 -1.19671
H -12.8851 0.161407 -1.20458
H -14.0074 1.31315 -1.48848
O 10.5018 -11.6763 -6.17862
H 11.3916 -11.2398 -6.04543
H 10.2547 -11.6407 -7.14695
O -4.70347 14.2735 -12.962
H -4.50046 -14.8926 -12.297
H -5.62753 13.9252 -12.8047
O 12.6898 6.6248 4.41283
H 12.3221 5.92994 5.03089
H 13.4333 7.11536 4.86734
O -5.60179 3.81352 0.180647
H -6.28185 3.6917 -0.542312
H -5.03013 4.6066 -0.0296893
O -13.1267 11.4648 -5.12168
H -12.4959 10.8238 -4.68444
H -12.6303 12.2906 -5.38935
O -6.65062 -3.38663 -12.6111
H -7.10633 -4.25802 -12.7927
H -5.98962 -3.50429 -11.87
O 1.40506 4.78415 12.7347
H 1.92544 5.57124 13.0658
H 1.11158 4.22765 13.5119
O 0.44041 13.8262 -2.82401
H 0.557239 13.9685 -1.8411
H 0.716007 12.8946 -3.06102
O 4.59654 -3.94943 -8.90987
H 4.7028 -4.79076 -9.43984
H 5.32588 -3.89049 -8.22827
O 0.366818 -11.3993 11.3048
H -0.0174201 -10.5621 10.9155
H 1.33773 -11.2609 11.5002
O 4.96992 -8.36757 10.5233
H 5.49503 -9.21393 10.4343
H 4.91549 -8.10897 11.4878
O 8.7237 1.326 0.63195
H 8.94338 0.351236 0.592432
H 9.13893 1.79317 -0.148653
O 5.99472 7.04563 10.2884
H 5.49109 6.18252 10.2512
H 6.94297 6.89043 10.0114
O 6.61019 -9.13933 -0.808008
H 7.22514 -9.17785 -1.59563
H 5.68747 -9.39939 -1.09253
O 11.0768 -14.364 -9.76299
H 10.6123 -13.608 -10.2241
H 10.7543 14.6522 -10.1394
O 14.418 10.7612 11.1138
H 14.7846 10.1355 10.4253
H 14.2741 11.6616 10.7031
O -6.5474 -7.59237 -7.21156
H -5.75686 -6.98059 -7.18403
H -7.36473 -7.07008 -7.45483
O -7.69521 -2.98424 -2.84125
H -7.98194 -2.49627 -2.01683
H -8.38695 -2.86927 -3.55418
O 9.25504 -6.35188 -0.431529
H 9.02636 -6.16295 0.523461
H 10.1852 -6.71505 -0.485977
O 0.865523 8.66732 -11.5305
H 0.638663 8.20501 -10.6733
H 1.56172 8.14118 -12.0188
O 10.6879 0.807677 4.48614
H 9.70986 0.610895 4.41725
H 10.8188 1.77524 4.70221
O 2.35715 -13.9126 4.32974
H 2.18489 -13.1388 4.93928
H 3.20131 -14.3725 4.60528
O 1.51519 -10.7235 14.8565
H 0.515436 -10.7319 14.8768
H 1.83012 -10.8133 13.9117
O 9.43991 14.6551 -13.0566
H 8.7528 13.9635 -12.8341
H 10.3501 14.303 -12.8385
O 0.374718 3.63925 -14.5706
H 0.0816079 4.54737 -14.2716
H 1.33052 3.49615 -14.3137
O -3.77861 9.73014 -0.642504
H -3.26177 9.44911 0.166135
H -4.06581 10.6825 -0.540153
O -4.92434 -9.67495 -9.10536
H -5.87707 -9.47843 -9.33705
H -4.48337 -8.84127 -8.77292
O -9.66492 -2.61529 -12.1874
H -9.00395 -3.32205 -11.9352
H -9.19118 -1.86541 -12.6492
O -4.69674 -0.733428 -1.39467
H -4.69607 -1.68344 -1.08246
H -4.19014 -0.664665 -2.25411
O 13.5423 -10.8332 10.6879
H 13.2418 -11.7193 10.3348
H 13.4839 -10.8351 11.6862
O -14.8165 -4.13003 10.5875
H 14.0866 -3.99588 10.7227
H -14.3834 -4.33124 11.4661
O 4.5356 -12.0709 14.0221
H 3.85184 -11.7822 13.3519
H 4.17742 -12.8379 14.5545
O -0.56572 10.6973 14.1874
H -0.712477 11.5975 14.5975
H -1.44489 10.3104 13.9092
O -12.6484 -2.79164 -1.24542
H -12.5412 -3.02021 -0.277811
H -12.0532 -2.02122 -1.47381
O 5.89556 -14.2541 -4.17946
H 6.35153 -13.8075 -3.40965
H 6.37367 -14.0264 -5.02773
O 11.7095 -5.03337 -13.7144
H 11.0979 -5.24773 -14.476
H 11.9572 -4.06513 -13.7482
O -10.0065 -9.12246 -11.5164
H -10.2195 -8.49732 -10.7655
H -10.3718 -10.0298 -11.3085
O 7.1808 13.4075 -2.79795
H 7.86993 13.678 -3.47021
H 6.39542 13.0057 -3.26887
O 7.32802 -13.6984 -6.33857
H 8.22851 -14.1331 -6.32533
H 7.27117 -13.0731 -7.11688
O 13.9352 9.93945 13.5872
H 13.7753 10.2703 12.6571
H 13.6414 10.6346 14.2433
O 7.68325 -1.85017 2.98512
H 7.07572 -2.64439 2.99639
H 7.18158 -1.04237 3.29462
O 8.38936 2.63311 -5.26371
H 9.30315 3.03926 -5.26697
H 7.71519 3.33119 -5.02252
O -8.50847 -11.9632 -7.11988
H -9.43994 -11.6181 -7.00461
H -7.8578 -11.2902 -6.76813
O -9.48684 -10.6557 -1.29283
H -10.4737 -10.5425 -1.40831
H -9.05986 -10.7902 -2.18703
O -6.13903 6.81541 -2.83998
H -6.63993 7.63333 -3.123
H -6.62689 6.36862 -2.09007
O -0.225003 -12.1938 -0.367638
H -0.252235 -11.864 -1.31128
H -0.660139 -13.0927 -0.316059
O -14.099 -11.8099 -0.73464
H -13.9428 -12.549 -1.38995
H 14.9223 -11.9665 -0.255204
O -13.865 -0.607697 -9.70333
H -14.6864 -1.17102 -9.7917
H -13.2563 -0.782146 -10.4774
O 1.24938 1.53498 -3.16925
H 1.45095 1.56288 -2.19017
H 1.76296 0.78955 -3.59418
O -10.4288 6.98272 3.72927
H -9.61128 7.32251 3.2643
H -10.2007 6.74478 4.67337
O -11.8427 1.61393 -8.09791
H -12.5196 1.8747 -8.78625
H -11.77 0.617195 -8.0628
O 3.07028 5.59611 -9.56065
H 3.45514 6.50727 -9.70785
H 3.13747 5.35847 -8.59162
O 12.0014 12.8589 -4.29489
H 12.7437 12.1998 -4.41513
H 12.2148 13.4652 -3.5288
O -11.059 -5.73849 -12.2486
H -11.3408 -6.51231 -12.8158
H -11.8694 -5.2528 -11.9209
O 7.60311 10.0286 0.69827
H 7.91594 10.6281 1.43496
H 7.65784 10.5153 -0.173546
O -11.5147 1.36753 1.14951
H -10.6086 1.78375 1.22448
H -12.2118 2.08457 1.1478
O 2.37234 9.11897 -7.76963
H 2.02889 8.36082 -7.21534
H 3.34314 9.26045 -7.57591
O 1.79864 11.642 5.19015
H 2.39923 10.8936 5.47172
H 0.903436 11.5314 5.62185
O -0.94033 -13.6687 12.6193
H -0.48484 -12.9859 12.048
H -0.936944 -13.3626 13.5713
O 8.46811 6.87265 -6.56973
H 8.85612 7.75772 -6.82684
H 9.14997 6.15541 -6.71334
O -8.08202 6.80537 -0.749765
H -8.92408 7.16346 -0.346399
H -8.2168 5.84879 -1.00821
O -0.676741 1.10813 -4.86592
H -0.00252632 1.31246 -4.15622
H -1.52938 1.59018 -4.66435
O -3.58874 -0.0981576 8.39305
H -2.73008 -0.608259 8.34315
H -3.8389 0.0404148 9.35129
O 11.2509 0.0300885 -2.64376
H 11.5023 0.606601 -1.86629
H 10.2582 0.0456579 -2.76308
O 12.8514 14.583 -2.61068
H 13.5129 -14.6067 -2.89237
H 13.0404 14.3054 -1.66874
O 11.015 -7.03994 -9.70408
H 11.6092 -6.35678 -10.1285
H 11.363 -7.95557 -9.90526
O -8.48985 -5.26564 -11.7802
H -8.28393 -5.99661 -11.1296
H -9.44827 -5.32759 -12.0588
O 0.503861 -6.05562 14.9031
H 1.1916 -6.76788 14.7628
H 0.0321404 -6.21404 -14.1142
O 4.27606 -13.7384 -11.374
H 3.57386 -13.5798 -12.0681
H 4.32258 -12.95 -10.7607
O 0.588231 -13.5305 -5.1911
H 1.46953 -13.9282 -5.44634
H -0.0235084 -14.2538 -4.87062
O -0.186829 -4.18231 7.50588
H 0.635944 -4.2559 8.06946
H -0.652621 -3.32058 7.70698
O -3.94598 -1.78057 12.4519
H -3.66957 -2.66775 12.0824
H -4.45162 -1.91715 13.3038
O 0.112824 10.9117 -0.041374
H -0.130673 9.9684 0.184174
H 0.128043 11.0236 -1.03498
O 7.14239 -11.6662 -8.32815
H 7.41175 -10.7076 -8.2355
H 6.42581 -11.7455 -9.02112
O 7.37887 -11.551 0.241113
H 7.11985 -10.5857 0.206671
H 7.4792 -11.8354 1.19456
O 4.81595 -12.0147 8.24287
H 3.85312 -12.2839 8.26536
H 5.20792 -12.102 9.15869
O 8.53833 -7.87757 3.40892
H 8.86361 -7.00407 3.7711
H 9.27629 -8.55114 3.45034
O 4.84036 12.3118 -4.7632
H 5.01785 13.1992 -5.18863
H 3.87787 12.0699 -4.88596
O 13.7991 -6.36105 -14.6844
H 12.9925 -6.06311 -14.1739
H 14.5894 -6.38891 -14.0724
O 0.720618 -9.76363 3.81074
H 0.514415 -10.4022 3.06932
H 1.7119 -9.6782 3.91103
O 2.07497 -2.97468 -5.10391
H 1.36382 -3.64659 -4.897
H 2.94221 -3.27398 -4.70603
O -10.672 4.00708 -7.91583
H -9.87709 3.87646 -8.50836
H -11.212 3.16577 -7.89231
O 9.80001 -11.2383 -9.10339
H 9.91971 -11.547 -10.047
H 8.95115 -11.6165 -8.73408
O 11.4096 5.07299 10.7249
H 11.5699 4.50883 9.91494
H 12.1755 5.70396 10.8485
O 10.1041 -12.446 7.60143
H 9.16818 -12.2785 7.29158
H 10.2276 -12.0571 8.51439
O -3.61727 -11.4671 -11.1256
H -4.13819 -11.3287 -11.9679
H -3.94257 -10.8326 -10.4244
O 3.11737 12.6523 -0.811942
H 3.04817 12.0586 -1.61362
H 3.58965 12.166 -0.0767839
O 3.83276 -3.31911 -13.8086
H 4.57643 -3.66276 -13.2351
H 3.02699 -3.14721 -13.2419
O 7.04846 0.877158 3.1376
H 6.41696 1.64945 3.0685
H 7.75972 0.964757 2.44015
O -5.92289 -12.8029 13.8704
H -6.53871 -13.3219 14.4631
H -5.62954 -11.9709 14.3413
O -1.35076 1.81577 11.1117
H -1.95837 2.55454 10.8201
H -1.57854 1.54661 12.0475
O -6.10399 -8.39393 8.18679
H -5.82702 -9.31351 7.90814
H -6.03061 -7.7729 7.40645
O -14.228 12.6425 -0.746799
H 14.8963 13.2382 -0.488154
H -14.0674 11.9731 -0.0214748
O -4.68871 10.3934 -14.1692
H -4.46115 9.54404 -13.6929
H -3.92157 11.031 -14.0985
O 7.45587 -5.34948 9.73558
H 7.27502 -4.40442 9.46325
H 6.84873 -5.96364 9.23141
O -4.58461 -1.90728 6.63541
H -4.26258 -1.09339 7.11902
H -4.16812 -1.94179 5.72693
O -9.03611 -10.6004 8.49633
H -8.58597 -9.81012 8.08056
H -9.57661 -11.0785 7.80406
O 7.08058 -11.8824 14.6444
H 6.1884 -11.9351 14.1958
H 7.64987 -11.2069 14.1757
O -4.78163 0.761323 -4.08203
H -5.73938 0.533697 -3.90629
H -4.24607 -0.0804178 -4.15019
O 12.4011 13.3635 4.49035
H 12.0143 14.2596 4.70789
H 11.7454 12.6491 4.7347
O 10.4167 9.86711 -3.62728
H 9.58242 9.47689 -4.01686
H 11.1335 9.88449 -4.32424
O 10.4928 6.14046 -2.6414
H 9.72704 5.51529 -2.79208
H 10.3987 6.57285 -1.74464
O 10.0927 11.505 -13.8764
H 9.37715 11.8354 -14.492
H 10.9893 11.6797 -14.2834
O 2.5873 4.06937 -12.7166
H 2.30412 3.44863 -11.9855
H 2.61666 5.00554 -12.3663
O 6.77791 -7.76989 -12.2597
H 6.76442 -8.23122 -13.1468
H 7.71891 -7.52598 -12.0251
O -13.2222 7.95302 -5.22678
H -12.6278 8.71575 -4.97189
H -13.1599 7.79693 -6.21255
O 12.3891 3.33567 8.87748
H 12.5375 2.40086 8.55482
H 13.06 3.94472 8.45439
O -5.847 14.8965 -7.98504
H -5.62055 14.2002 -8.66608
H -5.55696 -14.0906 -8.31697
O 14.3208 -3.40743 -4.96092
H 13.5466 -3.86368 -5.39962
H 13.9821 -2.72639 -4.31172
O 10.9954 12.6948 -9.44938
H 11.6989 12.6856 -8.73881
H 10.182 12.2157 -9.11933
O -9.59532 1.90565 4.4131
H -9.3173 1.1054 3.88178
H -9.72752 1.64186 5.36857
O 13.0437 -12.8648 2.81359
H 12.2961 -13.1209 2.2008
H 13.5121 -12.0597 2.44961
O 1.08286 2.61568 -10.6437
H 0.535483 3.40549 -10.9204
H 1.05575 2.52364 -9.64827
O 9.53431 -0.0602512 -9.74953
H 8.58473 -0.106322 -9.43941
H 9.55534 0.0597174 -10.7421
O -13.297 -10.6845 10.0766
H -12.7491 -10.5476 10.9018
H -14.2071 -11.0114 10.3312
O 8.25808 8.50587 4.44581
H 8.32342 7.80141 3.73908
H 7.35274 8.47047 4.86902
O -6.21982 13.3031 7.50086
H -5.98969 13.8969 6.7299
H -6.90471 13.7521 8.07467
O -11.4388 -1.7891 -4.81727
H -12.0017 -2.61536 -4.83745
H -11.9071 -1.07948 -4.29088
O -14.7825 3.20988 7.43234
H 14.7416 2.66712 6.67384
H -14.5251 2.60258 8.18397
O 5.26683 -7.67201 -7.40165
H 6.12555 -8.18344 -7.43366
H 5.32706 -6.96314 -6.69889
O -2.82096 -11.8127 -6.64991
H -3.16923 -11.129 -7.29122
H -3.26844 -11.6964 -5.76321
O -5.4928 10.9784 -4.78387
H -5.70671 11.955 -4.80761
H -6.32417 10.4599 -4.58412
O 5.74455 2.94571 -14.0127
H 4.92168 3.46309 -13.7778
H 6.01367 2.37667 -13.2357
O -1.09444 5.80584 11.9961
H -0.160514 5.61874 12.3007
H -1.38656 5.09237 11.3592
O 9.76644 -5.28867 14.2712
H 8.87601 -5.74295 14.2437
H 9.64601 -4.33578 14.5496
O 3.32228 -0.309627 -9.62404
H 2.86405 0.395007 -9.08227
H 3.30504 -1.17669 -9.12614
O 5.07017 14.6567 -0.637827
H 5.87279 14.5615 -1.22667
H 4.39199 13.9644 -0.884266
O 7.67366 -1.06897 -13.2865
H 7.32334 -1.51762 -12.4643
H 7.02153 -0.374658 -13.5909
O 14.363 -7.70931 3.18468
H 13.5258 -7.24833 3.47906
H 14.6544 -8.35421 3.89118
O -3.2965 3.98531 -11.2145
H -4.04777 4.63731 -11.317
H -2.42577 4.47706 -11.2166
O -12.5153 -7.6688 -0.330986
H -12.5937 -8.50395 -0.875379
H -12.3384 -6.89218 -0.935618
O -2.98328 3.91237 9.76557
H -2.98569 3.14441 9.12508
H -3.92413 4.20001 9.94462
O 13.0412 9.86492 3.09089
H 13.5385 9.10089 2.67985
H 12.0633 9.65624 3.10661
O 7.58044 -6.72732 -5.46569
H 8.00133 -6.50489 -4.58627
H 8.28564 -7.03533 -6.1043
O -4.38403 14.1713 11.7474
H -4.29808 -14.8721 11.2138
H -4.89376 14.3596 12.5869
O 14.534 11.7953 5.97413
H 14.0198 12.3997 6.58261
H 14.0779 11.7506 5.08534
O 12.0118 -4.09985 8.21635
H 11.1632 -3.81303 7.7718
H 11.8796 -4.99574 8.64049
O -13.138 -14.1993 9.84267
H -13.8418 -14.1536 10.5517
H -13.4991 -14.6829 9.04531
O -5.2686 -7.01363 -3.94566
H -6.20978 -6.84261 -4.23709
H -4.99078 -6.31323 -3.2882
O 14.8492 13.1014 -9.90834
H 14.0477 13.1309 -9.31106
H -14.6497 12.1788 -9.90306
O 8.69698 0.17633 -4.00104
H 8.73015 -0.572727 -4.66272
H 8.51044 1.03489 -4.47861
O 11.5755 -0.377921 -12.7243
H 12.1579 -0.296835 -11.9155
H 10.7424 0.158794 -12.5903
O -13.159 6.51817 -7.75622
H -12.2201 6.17879 -7.6989
H -13.7924 5.79426 -7.48271
O -7.56757 0.481132 -3.73069
H -7.71679 1.06371 -4.52965
H -8.10089 -0.359314 -3.82674
O 7.07037 -2.33002 9.3428
H 7.66463 -1.55581 9.56065
H 7.15847 -2.55512 8.37246
O 1.71394 4.93807 7.91357
H 1.10076 5.71628 7.77794
H 1.30141 4.11624 7.52061
O -14.8433 13.3937 -14.0239
H -14.3931 13.7834 -14.8273
H -14.1847 13.3218 -13.2749
O -7.66312 9.11001 -4.25097
H -8.26911 9.241 -5.03558
H -8.20653 9.07552 -3.41222
O -2.2156 2.5772 -8.56628
H -2.6843 3.10742 -9.27281
H -2.68996 1.70704 -8.43285
O -7.21301 -4.98582 6.64093
H -7.45186 -4.81865 7.59748
H -7.85282 -4.49758 6.0474
O 7.55677 -9.05283 -7.64492
H 8.31698 -8.40388 -7.61404
H 7.43601 -9.4679 -6.74318
O -3.78242 0.468107 1.83133
H -3.43082 -0.0556377 1.05539
H -3.01703 0.83536 2.35982
O -0.267297 6.22496 -13.9655
H 0.36481 6.81397 -14.469
H -1.20608 6.42978 -14.2425
O 4.06715 12.2097 3.39701
H 4.50776 13.1065 3.43589
H 3.37002 12.1495 4.11143
O -2.16167 -11.4533 6.97456
H -2.37493 -12.4299 7.00097
H -1.69234 -11.2377 6.11827
O 10.2584 -14.4537 -2.88219
H 9.83404 -14.7402 -2.02323
H 11.1982 -14.7934 -2.91928
O 0.38602 5.66656 0.239423
H 0.300522 5.27544 -0.676932
H 1.15509 6.30544 0.258717
O -10.6974 -14.0347 2.91879
H -11.1416 -13.7709 2.06257
H -9.71577 -14.1469 2.76426
O 1.56562 -3.15455 3.91258
H 2.32222 -2.50771 3.81683
H 1.71656 -3.93602 3.30718
O 13.8863 8.36345 -5.14464
H 14.8858 8.3614 -5.11343
H 13.5271 8.74693 -4.29383
O -7.56789 5.4174 -6.0316
H -7.35591 4.78203 -5.28906
H -8.51454 5.7277 -5.94471
O -13.0677 8.89775 10.456
H -12.5545 8.90149 11.3142
H -12.8551 9.72564 9.93692
O 14.6198 -3.96192 14.0203
H 14.1091 -3.12025 13.8449
H 14.0027 -4.74607 13.9545
O 10.9777 -13.5968 0.975785
H 10.32 -13.2674 1.65324
H 10.5041 -14.1578 0.296833
O 5.71887 1.81632 0.257058
H 6.55897 1.27962 0.335602
H 5.79771 2.4479 -0.514227
O -6.86948 6.06915 -13.2614
H -6.10676 6.6074 -13.62
H -6.52274 5.21151 -12.8817
O -12.5284 0.50907 -12.8596
H -12.935 -0.110982 -13.5305
H -13.2123 1.17653 -12.5651
O 7.01815 -3.7496 -2.16089
H 6.87853 -3.46507 -1.21245
H 7.34667 -4.69389 -2.18067
O -3.40979 -10.1687 10.3119
H -2.5844 -9.6565 10.5494
H -3.68754 -9.93929 9.37904
O 10.3537 13.3422 11.022
H 10.5143 14.0042 10.2899
H 9.65153 12.6909 10.7344
O 0.0573342 13.2228 11.3592
H -0.406214 13.9964 10.9271
H -0.535694 12.4183 11.3265
O -11.5404 -1.0976 -7.72336
H -11.2601 -1.27484 -6.77996
H -12.4714 -1.43491 -7.86345
O 8.98184 10.6565 -9.28043
H 8.67655 10.8888 -8.35694
H 9.15298 9.6729 -9.33739
O -0.752139 -4.5901 12.8072
H -1.73644 -4.72775 12.6967
H -0.426889 -5.12195 13.5891
O 11.895 0.694563 10.8902
H 11.2915 1.4863 10.7958
H 12.1081 0.327989 9.98459
O -7.90871 -13.9309 1.90696
H -7.28177 -13.3707 1.36556
H -8.35404 -14.6012 1.31335
O 13.1117 -2.00108 13.3855
H 13.0502 -2.43857 12.4884
H 13.0459 -1.00908 13.2778
O 6.40067 9.20428 7.59746
H 6.41731 8.53584 6.85388
H 5.82111 8.86452 8.33818
O -2.15445 -5.59646 -0.295915
H -1.4773 -5.00819 -0.737952
H -2.18579 -5.39184 0.682423
O -13.5191 5.53192 11.452
H -14.0375 6.17055 10.8833
H -12.5839 5.46021 11.1051
O 11.9809 6.29751 -5.30351
H 12.6101 7.06754 -5.40943
H 11.3981 6.45061 -4.50546
O -5.55684 -7.46939 -12.1937
H -6.08248 -8.07381 -11.595
H -6.07827 -7.2909 -13.0281
O -3.93142 -2.4877 -12.5425
H -4.35805 -1.95573 -13.2739
H -3.07226 -2.87886 -12.8724
O -2.50809 9.6813 5.0134
H -2.71152 9.02803 4.28413
H -3.36241 9.99449 5.4282
O -6.50374 -13.7778 -1.84708
H -7.44109 -13.4838 -1.66016
H -6.38448 -14.7235 -1.54477
O 11.9922 -8.48689 10.2434
H 12.832 -8.93109 10.5555
H 11.613 -7.9327 10.9844
O -7.32811 4.34787 14.2134
H -6.91807 5.01403 14.8364
H -8.02489 3.82112 14.7003
O 9.96106 3.93864 -9.03422
H 9.92834 3.18491 -8.37785
H 10.5385 4.67064 -8.67266
O 13.2507 9.55882 -9.26985
H 13.4238 8.93425 -10.0314
H 12.5542 9.16673 -8.6689
O 14.6888 11.7726 -3.29052
H -14.8135 12.2732 -2.51395
H -14.5029 11.6877 -4.00634
O 14.2115 -13.1876 -3.75879
H 13.7657 -12.3533 -3.43442
H -14.7995 -13.3038 -3.2865
O -9.37069 6.73072 -11.4024
H -8.79042 6.30554 -12.097
H -10.1845 7.11546 -11.8379
O -10.8249 6.75784 6.542
H -11.6051 7.34966 6.74474
H -11.1162 5.80157 6.56852
O 10.2101 4.19848 0.190623
H 10.5139 4.637 1.03643
H 9.21063 4.19567 0.157011
O 0.232557 -1.87367 -6.78204
H 0.00508897 -0.944517 -6.49063
H 0.851747 -2.28969 -6.11606
O -11.2978 6.00309 -14.3693
H -10.438 6.46418 -14.5886
H -11.7322 6.45974 -13.5929
O 5.24397 -14.8014 7.67934
H 4.32374 14.8593 7.35843
H 5.3038 -13.82 7.86125
O 13.5839 -1.013 -3.76562
H 13.603 -0.812681 -4.74517
H 12.7392 -0.654301 -3.36844
O -5.3044 13.241 14.1741
H -4.69416 13.6958 14.8227
H -5.00802 12.2948 14.0448
O -0.415916 -2.46225 -9.54987
H -0.105124 -3.34755 -9.89579
H -0.135477 -2.36024 -8.59543
O 2.73797 7.50295 -0.0367321
H 2.51337 8.26804 0.566744
H 3.63395 7.13463 0.211366
O -6.80624 -7.62773 -14.5794
H -7.18536 -8.53117 -14.7795
H -7.4371 -6.92242 -14.9027
O 11.8582 3.12142 -11.3597
H 11.1234 2.89327 -10.721
H 11.4867 3.65833 -12.1172
O 9.34292 1.05087 -12.3154
H 8.92625 1.91735 -12.0404
H 8.76042 0.600908 -12.9923
O -9.63753 -8.89172 5.50167
H -10.1732 -8.68121 6.31945
H -8.81421 -8.32433 5.48731
O -11.4663 -14.7105 -11.2246
H -10.9205 14.6305 -11.8621
H -10.8735 -14.3415 -10.5088
O -12.7362 2.36157 -5.20926
H -12.2249 3.17508 -4.93229
H -12.483 2.11077 -6.14358
O -0.835549 -9.03098 -4.45167
H -1.60929 -8.78552 -5.03568
H -0.873393 -10.0079 -4.24139
O 13.9495 -8.12472 -9.15554
H 13.4774 -7.56742 -8.47249
H 13.4261 -8.96012 -9.3236
O -1.08088 -6.70756 -12.763
H -0.600857 -5.99433 -12.2523
H -0.864246 -7.60156 -12.3708
O 1.7412 10.8729 -9.79543
H 2.15287 10.5121 -8.95859
H 1.63514 10.1336 -10.4604
O 6.91954 0.0809098 -9.19189
H 6.64075 0.683459 -8.44409
H 6.41314 0.321205 -10.02
O 10.1902 6.03564 12.8656
H 10.6063 5.42011 13.5349
H 10.5176 5.80269 11.9498
O 13.7912 5.833 7.4737
H 14.1433 6.53985 8.0872
H 14.4746 5.11024 7.37092
O -8.36611 -3.95378 4.22667
H -9.05714 -3.2581 4.42289
H -8.74295 -4.62811 3.59163
O 13.728 2.94402 4.82988
H 13.755 2.03913 4.40511
H 14.4391 3.52168 4.42924
O -10.8893 -2.55545 -14.6139
H -11.5231 -3.29731 -14.8329
H -10.483 -2.71866 -13.7149
O -2.24244 10.8788 -10.4008
H -2.41607 11.8563 -10.2804
H -1.85969 10.7178 -11.3105
O -5.6137 4.58416 10.2436
H -5.26364 5.50854 10.3951
H -5.76907 4.13793 11.1249
O 12.8347 12.5306 14.363
H 13.5023 12.7335 -14.8054
H 12.9215 13.2017 13.6268
O -1.87093 -6.02986 -3.05397
H -2.08435 -6.02549 -2.07702
H -2.00308 -6.95108 -3.41989
O 10.571 8.47687 -12.1432
H 11.0387 9.35056 -12.0092
H 9.63991 8.6435 -12.4677
O -2.90213 -10.1222 4.55073
H -2.44161 -9.23477 4.57001
H -3.89221 -9.98463 4.5793
O 11.9358 -9.7035 2.66574
H 11.4986 -10.3854 3.25217
H 11.8993 -8.8087 3.1107
O 4.78826 14.858 4.18115
H 5.48401 14.4103 4.74288
H 5.20028 -14.7172 3.32417
O -5.90568 10.9119 4.78488
H -5.59917 11.5022 4.03809
H -6.74402 11.2852 5.18215
O 13.9743 2.47164 11.9938
H 13.529 1.66096 11.6137
H 14.498 2.9314 11.2766
O 4.381 13.8272 14.0278
H 4.11983 14.7654 14.2549
H 3.75454 13.4645 13.3379
O 13.4248 3.74845 -9.30612
H 13.6295 4.70745 -9.11013
H 12.7199 3.69591 -10.0135
O -0.230333 3.23228 6.72969
H -1.1533 3.27086 7.11263
H -0.238329 3.60638 5.80234
O -2.98318 -1.44636 4.36415
H -2.08558 -1.8696 4.24099
H -2.9377 -0.484203 4.09549
O -12.0132 11.508 2.71545
H -11.0704 11.3458 2.4243
H -12.1007 12.4444 3.05528
O -2.06902 8.58471 -9.11824
H -2.13204 9.3689 -9.73555
H -1.87897 8.90539 -8.19032
O 2.95216 -12.4993 -1.03486
H 3.45275 -13.3545 -0.90007
H 2.04893 -12.5716 -0.611819
O -10.7082 -14.3248 8.4648
H -11.4808 -14.351 9.09917
H -9.86138 -14.5107 8.96304
O 7.0329 -0.557239 -1.47694
H 7.81203 -1.03233 -1.06799
H 7.36407 0.143957 -2.10832
O 9.40869 -7.18888 -12.101
H 9.24951 -6.22091 -12.2952
H 9.96999 -7.27583 -11.278
O -0.608737 -14.2887 7.03018
H -0.938754 -13.8977 6.17099
H 0.343549 -14.5742 6.9224
O -14.6141 2.05025 -12.4051
H 14.9156 2.98506 -12.3993
H -14.9004 1.5901 -13.2455
O 5.11261 -6.7975 -9.96299
H 5.98864 -6.97649 -10.4108
H 5.10828 -7.22183 -9.0575
O 5.61877 3.06052 2.57001
H 5.67079 2.60402 1.68181
H 5.14817 3.93687 2.4673
O 2.05439 -5.99926 2.04676
H 3.0061 -5.94448 1.7447
H 1.58345 -6.7185 1.53598
O -11.6794 -12.5502 -3.61216
H -11.0952 -13.339 -3.80339
H -11.9122 -12.0921 -4.47001
O -5.28412 3.06856 -7.43592
H -4.5944 3.6226 -6.96975
H -4.92657 2.14649 -7.58406
O 1.58731 -4.8514 -9.00107
H 2.49483 -4.55976 -8.69883
H 0.928815 -4.71157 -8.26159
O -7.47978 3.8448 4.38185
H -8.25296 3.21338 4.44103
H -6.68694 3.36644 4.00427
O -12.6591 -4.4362 -4.76776
H -12.3861 -4.7601 -3.86191
H -13.657 -4.40175 -4.82267
O -5.44798 -5.20931 14.0674
H -4.70585 -5.6167 14.5996
H -5.52992 -4.23963 14.2976
O -5.03371 -0.969489 -9.86271
H -5.90586 -0.906686 -10.3479
H -4.41161 -1.56494 -10.3711
O 11.9647 10.2436 -5.98574
H 12.7617 9.64045 -6.01563
H 12.2374 11.1696 -6.24687
O -12.0351 -2.09281 11.0374
H -11.8344 -2.9765 10.6145
H -13.0256 -1.97082 11.1005
O -1.59271 14.695 -4.43669
H -1.07137 14.1598 -3.77199
H -2.29035 -14.6548 -3.9602
O -4.79451 -5.4773 -7.09338
H -4.02689 -5.08155 -6.58925
H -5.30141 -4.74899 -7.55446
O 11.4735 -6.89341 3.47377
H 10.9869 -6.19811 4.00271
H 11.6782 -6.53623 2.56245
O -11.6731 4.86072 -3.97599
H -11.4755 5.66047 -3.40912
H -12.6179 4.9073 -4.30035
O 14.4992 -14.1683 -10.514
H 14.2849 14.7464 -10.628
H 14.1999 -13.8649 -9.6094
O 5.09099 -6.99725 8.36807
H 4.86265 -7.6281 7.62653
H 5.27792 -7.51667 9.20189
O -13.1269 -9.75961 -8.76734
H -13.5054 -10.1083 -9.62474
H -13.444 -8.82281 -8.61964
O 10.8026 -7.24479 12.4926
H 10.9962 -6.57563 13.2101
H 9.84863 -7.15886 12.2053
O -1.30068 -11.8686 -3.98367
H -0.591105 -12.4285 -4.41144
H -2.15403 -12.3881 -3.94002
O 3.56007 -12.7721 -4.72056
H 3.30008 -12.0088 -4.12922
H 4.26642 -13.3176 -4.26948
O -8.43338 -6.51669 -9.03184
H -9.30869 -6.9802 -8.89407
H -8.59019 -5.53587 -9.1476
O -13.16 12.9539 -11.8451
H -12.496 13.6774 -11.656
H -13.9486 13.0585 -11.2391
O -3.67368 8.19988 -12.664
H -2.68992 8.36764 -12.7279
H -3.88879 7.81638 -11.7659
O 3.98904 -1.52723 7.48552
H 4.93034 -1.21686 7.35277
H 3.79056 -1.5806 8.46417
O -6.59093 -8.27867 -1.3262
H -7.43776 -8.04026 -1.80164
H -5.87195 -8.46059 -1.99698
O 1.12042 8.28906 9.10629
H 2.10073 8.43892 8.97773
H 0.813221 8.77592 9.92396
O 4.65685 7.55078 13.7037
H 5.14999 8.42036 13.7289
H 4.03404 7.54329 12.9214
O -14.2461 4.48342 3.82743
H -14.1398 5.42785 3.51639
H -13.3583 4.12602 4.11741
O 1.77758 -11.6488 5.99042
H 1.29794 -11.258 6.77603
H 1.48325 -11.1842 5.15528
O -7.41857 -13.3824 11.4195
H -8.03699 -12.5986 11.4755
H -6.80239 -13.3778 12.2071
O -7.63041 2.00932 -5.95312
H -6.8789 2.64666 -6.12349
H -7.76133 1.42636 -6.755
O -3.3814 1.67634 -12.7303
H -3.11692 2.5065 -12.2395
H -2.87729 0.895753 -12.3608
O -14.886 -14.6424 4.02932
H 14.3667 14.4806 4.17193
H 14.4811 -13.8185 3.79849
O -4.90199 -7.1685 0.415287
H -5.57164 -7.52833 -0.234389
H -4.74814 -6.19756 0.231973
O 5.50061 -3.8633 3.49585
H 5.28084 -4.50673 2.76257
H 5.58708 -4.35941 4.3598
O -1.69242 13.0405 0.526114