2611
Atoms. Timestep: 8000000
O 2.08481 -11.2865 14.3579
H 1.30104 -11.2009 13.7428
H 2.91134 -11.4603 13.8225
O 10.9187 -9.14081 12.8741
H 10.4583 -9.22256 13.758
H 11.1223 -8.17882 12.692
O 9.98201 -4.83254 8.55297
H 10.287 -4.79933 7.60117
H 10.7022 -4.47319 9.14645
O 7.90369 -12.8823 -3.72569
H 8.7649 -12.4721 -4.02572
H 7.20307 -12.1723 -3.65495
O 0.825928 -6.28148 -8.28994
H 0.0172764 -6.00729 -8.81044
H 0.561268 -6.49058 -7.34854
O 12.3651 0.696788 -10.513
H 12.6618 0.297561 -11.3806
H 11.7233 1.44261 -10.6915
O 3.61242 2.46128 11.1279
H 3.07563 3.05804 11.7243
H 3.45047 1.50677 11.3783
O -5.66679 -6.8439 1.5421
H -4.88324 -7.32407 1.14776
H -5.37381 -6.33786 2.35334
O -11.8891 -3.77914 -9.39683
H -12.8712 -3.61623 -9.49172
H -11.7128 -4.76347 -9.39916
O 12.6621 -6.44063 -4.78911
H 11.7351 -6.16342 -5.04179
H 12.8742 -6.09905 -3.87351
O 6.67545 -4.71904 3.79347
H 7.42527 -4.28481 3.29425
H 6.3369 -5.50202 3.27161
O -1.17083 -2.2276 -4.63903
H -2.00222 -2.14308 -4.08979
H -0.521222 -1.5157 -4.37214
O -13.841 -2.08174 9.4265
H -13.8194 -1.11356 9.67586
H -13.796 -2.17074 8.43148
O -12.9584 -6.56981 -7.16461
H -12.809 -7.44953 -6.71319
H -13.434 -5.95091 -6.53946
O -13.5306 -11.7294 1.77846
H -13.2165 -11.9736 0.860986
H -14.2865 -11.0784 1.70971
O 12.1883 -14.5577 13.9403
H 11.4521 14.5607 13.8025
H 12.5053 -14.2223 13.0532
O -7.22491 -3.33397 7.18645
H -7.70221 -4.19558 7.01374
H -6.23735 -3.48643 7.14772
O -11.2255 -1.82566 0.307227
H -11.1063 -2.70519 0.76791
H -11.3744 -1.97858 -0.669739
O 5.77064 14.293 -7.58578
H 6.60338 14.8269 -7.43912
H 5.85759 13.4077 -7.12909
O 2.48602 -1.66425 4.14258
H 3.1637 -1.91541 3.45144
H 2.2872 -0.686562 4.07461
O -0.914551 -9.43664 -2.16766
H -1.28307 -9.97417 -1.4092
H -0.923741 -9.98767 -3.00211
O -4.23194 13.425 -4.64328
H -4.51039 13.689 -3.71984
H -3.30613 13.7589 -4.82055
O -8.51868 11.9562 -0.824612
H -8.14039 11.3213 -1.49827
H -9.05673 12.6572 -1.29267
O 1.08949 7.70293 6.53585
H 1.05486 7.20183 5.67114
H 0.891799 7.07821 7.29127
O 7.71647 -9.79083 -12.0858
H 7.38821 -9.47267 -12.9752
H 8.36859 -9.1295 -11.7152
O -0.444737 -6.85447 -13.1367
H 0.388014 -7.19365 -13.5743
H -0.443298 -5.85452 -13.1473
O -13.9051 0.787104 0.250465
H -14.6979 1.27933 0.609973
H -13.4334 0.322375 0.999816
O 8.15539 -12.3758 3.71431
H 7.49083 -13.059 4.01702
H 7.99109 -12.154 2.75316
O -9.53893 -8.27666 8.03446
H -9.71532 -7.44291 8.55768
H -9.83412 -8.14503 7.08812
O 7.93201 1.49803 9.30179
H 8.40318 0.958378 9.9995
H 7.4677 0.884473 8.66305
O 3.21627 -4.42322 -3.70259
H 3.83274 -3.6625 -3.90581
H 2.96074 -4.39614 -2.73616
O 11.8414 -11.1802 11.3453
H 11.5215 -10.3411 11.7854
H 11.0977 -11.8483 11.3211
O 6.6717 3.66138 14.4749
H 6.97087 2.7613 14.1581
H 5.84461 3.56205 -14.7528
O 8.06922 -1.26698 -7.17362
H 8.82839 -0.812253 -7.63936
H 7.59645 -1.86939 -7.81674
O -9.62352 12.5476 -4.08035
H -10.1941 13.0661 -4.7173
H -8.70531 12.4452 -4.46297
O -11.8618 7.45368 -0.97312
H -12.4276 7.89976 -0.279619
H -12.4106 6.77998 -1.46809
O 5.14498 6.41216 2.90336
H 5.31913 6.19883 3.86471
H 5.94635 6.16798 2.35729
O -2.46876 -5.81224 2.02464
H -2.39783 -5.4023 1.11528
H -1.88211 -5.31275 2.66211
O -9.86099 2.67303 9.27855
H -9.17373 2.39257 9.94865
H -10.2731 3.53775 9.56569
O -12.0737 -14.5018 2.90875
H -11.7388 14.7199 2.15032
H -12.6574 -13.7721 2.55253
O -8.4488 10.2562 13.1908
H -8.51689 10.6288 12.2653
H -8.32727 11.0044 13.8432
O 7.90232 13.533 5.4231
H 7.94488 13.0348 6.28916
H 8.8176 13.8515 5.17643
O -1.54756 -0.432317 10.2676
H -0.816173 -1.08939 10.085
H -2.31017 -0.600267 9.6429
O 4.05905 -11.8309 3.9699
H 4.50091 -12.6073 4.41934
H 3.0698 -11.9758 3.95042
O -14.2705 -2.07485 5.80551
H -14.2386 -3.03202 6.09332
H -13.3845 -1.81191 5.42361
O 13.995 8.90573 -5.34465
H 13.4595 8.76615 -6.17755
H 14.1894 9.88027 -5.23273
O 8.4414 7.51006 1.49959
H 8.70541 7.91742 0.625303
H 7.70318 8.04691 1.90804
O -9.06135 -8.62448 12.5113
H -8.2226 -8.16118 12.7974
H -9.25214 -9.38322 13.1341
O -7.94266 13.3073 8.58484
H -7.82956 14.1896 9.04176
H -7.06569 13.0144 8.20387
O -3.31647 -0.702306 8.36556
H -2.87576 0.138532 8.05125
H -4.27705 -0.517579 8.57336
O -4.18705 2.3072 1.7711
H -3.46104 2.87984 2.15191
H -5.07446 2.63393 2.09631
O 10.7317 5.6539 10.2188
H 9.73403 5.72153 10.2244
H 11.1281 6.56223 10.3524
O -7.99276 11.0514 10.5719
H -8.16959 10.3645 9.86695
H -8.42432 11.9151 10.3115
O 1.61254 -3.95093 -14.8162
H 2.08472 -3.23959 14.4441
H 1.07575 -3.5286 -14.0858
O 5.83803 6.54798 -3.35382
H 4.86908 6.78527 -3.28417
H 6.03801 5.78094 -2.74417
O -1.97085 -10.1229 -10.7602
H -2.37644 -10.0412 -9.84983
H -1.99822 -9.23435 -11.2183
O -0.73866 5.83683 -2.48611
H 0.00943345 5.98069 -3.13393
H -1.5874 5.67149 -2.98841
O -2.51322 14.0719 9.66938
H -2.4941 -14.7135 9.57641
H -2.85293 13.8285 10.5779
O -10.0818 -9.00784 -6.27167
H -9.75233 -9.92264 -6.03796
H -11.0665 -8.95568 -6.10557
O -3.56743 12.754 11.809
H -4.02308 11.9334 11.4638
H -3.49897 12.7031 12.8053
O 4.79765 -1.29283 7.61956
H 4.84909 -1.9322 6.85237
H 3.89449 -1.35405 8.04449
O -7.51437 -14.4576 5.74028
H -7.61841 -14.7791 4.79909
H -7.0414 14.6269 6.28003
O -4.99093 -7.28834 -4.37992
H -4.61721 -7.51041 -3.47935
H -5.42676 -6.38889 -4.34739
O 6.65258 5.03746 -5.35035
H 6.66466 4.04138 -5.26266
H 6.12199 5.43171 -4.59997
O 5.86918 10.1292 -12.2152
H 6.31891 10.0448 -11.326
H 5.9274 9.25774 -12.7022
O 0.0414765 -0.914988 -10.7529
H 0.199807 0.0724066 -10.7513
H 0.414721 -1.31109 -11.5918
O -12.3995 8.48781 -7.36397
H -12.1645 7.81085 -6.66645
H -11.5976 8.67343 -7.93185
O -7.10004 6.54968 -5.25542
H -6.22834 6.97876 -5.01865
H -7.61352 7.15283 -5.8658
O -13.4913 -1.14118 2.20614
H -14.2449 -1.75502 2.441
H -12.8572 -1.61153 1.59232
O -11.3678 -1.85381 -11.2953
H -12.0076 -2.53109 -10.932
H -10.4362 -2.21323 -11.242
O 12.4236 -13.8595 -13.2172
H 12.2632 -14.5772 -12.5396
H 12.4552 -14.2648 -14.1308
O -8.47299 -0.374471 14.3513
H -8.27562 0.0955906 -14.5694
H -9.38603 -0.780027 14.3949
O -5.49361 -6.93734 9.24881
H -5.77192 -7.89776 9.26115
H -5.2383 -6.67624 8.31786
O -11.0166 -3.99863 1.82013
H -10.0746 -4.25473 1.60332
H -11.1491 -4.0233 2.81102
O -13.4664 5.45341 -2.04548
H -13.7564 5.87684 -2.90373
H -13.7625 4.49841 -2.02819
O -2.86414 11.66 6.13569
H -3.07373 11.7259 7.11126
H -3.71564 11.6563 5.61133
O -4.01778 -8.61783 4.26563
H -4.49388 -8.01075 4.90187
H -3.08912 -8.27939 4.11372
O -1.85444 -13.5231 -4.5275
H -1.70392 -14.4988 -4.36824
H -2.49901 -13.4042 -5.28276
O 11.658 -3.32829 9.81843
H 12.0564 -2.57305 9.29794
H 12.0971 -3.38319 10.7152
O -1.42854 6.45492 3.61402
H -1.53434 7.40642 3.32511
H -0.485516 6.29867 3.9078
O 0.148828 -6.9857 -5.84255
H -0.816932 -7.20608 -5.9795
H 0.226651 -6.17416 -5.26344
O 0.24069 6.92115 13.1201
H 0.622813 7.21433 13.9965
H 0.897391 7.11049 12.3901
O -7.45308 6.23641 7.40228
H -8.36876 6.04332 7.04976
H -7.42765 6.04919 8.38428
O -14.0127 11.4576 0.175936
H -14.3844 11.9558 0.959217
H -13.3612 10.7701 0.496916
O -7.69292 -8.94511 0.786679
H -7.74994 -9.68211 1.46017
H -6.97955 -8.29932 1.05886
O 11.4053 14.1045 -11.1143
H 10.6242 14.357 -10.5433
H 11.1362 13.3758 -11.744
O 11.7747 5.95341 -13.4037
H 12.3082 6.47526 -14.0693
H 11.6628 6.49319 -12.5694
O -5.85132 -11.9601 -0.274664
H -6.44599 -12.7103 -0.563733
H -6.10036 -11.6751 0.650937
O 11.3862 5.61084 -8.80187
H 10.6111 5.47797 -8.1841
H 12.1757 5.93556 -8.28106
O -1.43407 -14.7737 0.389623
H -2.35027 -14.4289 0.593964
H -0.84255 -14.6398 1.18473
O -6.53725 3.895 10.6265
H -6.07994 4.01139 11.5082
H -5.95735 3.35172 10.0194
O 10.7123 -1.19198 -3.69432
H 11.417 -1.88296 -3.85515
H 10.9429 -0.357785 -4.19527
O 12.1593 4.0504 -10.9006
H 11.9874 4.38968 -11.8255
H 11.8617 4.7339 -10.2341
O -3.74508 -8.23484 -2.17208
H -3.10905 -8.85612 -2.62979
H -4.58297 -8.72819 -1.93851
O 10.3687 -8.06329 0.642858
H 9.66622 -7.62744 0.0802554
H 10.5587 -8.97899 0.288708
O 4.17581 9.03552 3.52056
H 4.61036 8.93612 4.41572
H 4.15834 8.14897 3.05824
O 1.7144 13.9232 8.12852
H 0.980059 13.7635 7.46878
H 2.59352 13.6938 7.71076
O 5.81068 -1.02895 -10.8293
H 5.70416 -0.581736 -9.94126
H 5.98051 -0.338155 -11.5322
O 7.6182 -6.92961 0.654581
H 8.13952 -6.07635 0.640728
H 7.61558 -7.3335 -0.260232
O -9.17722 9.13657 -4.18872
H -8.91619 10.1001 -4.12945
H -8.75823 8.72697 -4.99909
O -1.6467 7.13229 -0.354661
H -0.952921 6.82382 0.296129
H -1.51017 6.67069 -1.23119
O 0.10227 3.8994 14.5785
H -0.547832 3.81284 -14.4475
H -0.397441 4.00254 13.7184
O 12.2754 8.28299 6.14079
H 12.2905 7.48484 5.53851
H 13.0522 8.24109 6.76917
O 6.71245 -5.29851 -8.0233
H 6.53836 -5.33192 -7.03913
H 5.89954 -4.95572 -8.49414
O -11.7579 -1.87391 -2.44978
H -11.606 -2.48996 -3.22271
H -11.2875 -1.00737 -2.61676
O -8.52012 -0.586145 -9.21891
H -8.65928 -1.00967 -8.32377
H -8.90336 -1.17581 -9.92985
O 10.1761 -10.7217 -9.89999
H 9.8489 -11.4661 -10.4821
H 11.1482 -10.8534 -9.70546
O -5.40735 7.75308 10.1754
H -6.30909 7.39423 10.4164
H -5.4262 8.09917 9.23735
O -12.6586 -10.8794 9.48985
H -13.2129 -10.2365 8.96118
H -11.7977 -10.4419 9.74967
O 13.3167 -7.02172 -12.844
H 14.2774 -6.8598 -12.6186
H 12.9888 -7.82549 -12.3476
O 11.2576 -12.5712 2.13568
H 11.484 -13.4672 2.51784
H 10.503 -12.1688 2.65401
O -1.05014 13.4896 -5.12542
H -1.0654 12.913 -5.94228
H -0.104274 13.723 -4.89976
O -4.00369 11.9374 8.73068
H -3.40526 12.6447 9.10703
H -4.45662 11.4516 9.47825
O -6.55015 -14.1824 -11.6692
H -7.2796 -14.8181 -11.4164
H -6.12102 -13.8213 -10.8412
O -5.48813 0.591544 10.9801
H -5.52556 1.1518 10.1526
H -5.2579 -0.350199 10.7349
O -4.29652 -3.1082 7.59743
H -3.75587 -2.27871 7.45725
H -3.85256 -3.68327 8.28462
O -2.52215 -7.25418 14.1831
H -1.6381 -6.84552 13.9562
H -2.39303 -8.21671 14.4216
O 9.76353 12.2637 -6.13221
H 9.41005 13.1992 -6.1398
H 10.0213 12.0124 -5.19925
O 2.20992 -11.4219 -2.29398
H 1.30261 -11.61 -2.67004
H 2.52655 -10.5303 -2.61759
O 0.770073 -13.4833 -13.4035
H 1.00167 -12.8412 -14.1343
H 1.07473 -13.1134 -12.5258
O -6.70389 -8.03829 -11.3109
H -5.95382 -7.90882 -10.6623
H -7.10899 -8.94254 -11.1758
O 4.43338 -3.36356 -9.30443
H 4.26223 -3.44806 -10.2861
H 3.6223 -3.65668 -8.79822
O -2.64501 -3.00126 13.4365
H -2.81034 -2.17291 13.9717
H -1.94767 -2.81689 12.7438
O -5.11512 9.18937 0.961234
H -5.43684 8.71916 1.78307
H -5.38356 8.66713 0.151774
O 1.99277 -12.5964 2.00391
H 1.7533 -11.759 1.51246
H 2.53408 -13.1894 1.40788
O 5.9154 -14.3581 -12.1811
H 6.52001 14.6347 -12.2962
H 5.37763 -14.2261 -13.0138
O -5.06943 -0.648189 -14.1838
H -5.85627 -1.09638 -13.7595
H -5.38167 -0.0697489 14.8435
O -9.41031 -8.99744 -1.36007
H -8.7768 -9.06177 -2.13114
H -8.89238 -8.89456 -0.510848
O 0.976406 -14.4635 -3.85141
H 1.41524 -14.1994 -4.71032
H 0.165333 -13.8974 -3.70374
O 10.6778 7.51916 -4.84605
H 10.5955 6.63082 -5.29784
H 10.8751 7.38239 -3.8753
O -5.38399 7.44746 2.98192
H -5.42868 6.82144 3.76045
H -4.98001 6.97608 2.19793
O -0.233238 8.45264 -10.4591
H -1.1652 8.32969 -10.8001
H 0.333443 8.85809 -11.1763
O -10.2161 -6.36037 14.3435
H -9.98452 -5.45476 14.6989
H -9.59706 -6.59234 13.5932
O 11.3027 8.18033 10.5769
H 11.4277 8.95519 9.95728
H 10.4588 8.30394 11.0991
O 10.0788 1.80379 12.8522
H 10.2477 2.54649 13.5002
H 9.14345 1.46878 12.9655
O 14.4848 -9.36039 1.62228
H 14.1161 -9.14275 2.52602
H 14.8208 -8.52404 1.1891
O 7.38738 10.1007 -9.702
H 7.37583 10.9787 -9.22348
H 7.93932 9.44646 -9.18489
O -12.6605 1.95018 -7.86644
H -12.2342 2.46039 -8.61341
H -13.4058 2.49089 -7.47622
O 8.17159 5.61383 13.2799
H 8.19003 5.2975 12.3314
H 7.79414 4.89502 13.8637
O -13.1144 -11.2177 -3.41249
H -12.255 -11.48 -3.85136
H -13.8629 -11.7593 -3.7952
O 8.45996 7.17332 -14.0065
H 9.16594 7.88153 -14.0129
H 8.49473 6.66034 -14.8642
O -10.6791 -6.24522 -8.66837
H -11.4186 -6.53701 -8.06175
H -10.7593 -6.72078 -9.5444
O -3.50491 -1.8465 -3.43019
H -4.00099 -1.30538 -2.75114
H -4.13959 -2.46803 -3.88943
O -14.03 -9.96687 -10.8876
H -14.6709 -10.2708 -10.1827
H -14.0838 -8.97265 -10.9807
O 5.82531 3.22723 9.8331
H 6.62942 2.63273 9.8331
H 5.08793 2.79054 10.3485
O 4.40643 -7.75295 -2.43518
H 3.51734 -8.02322 -2.80463
H 4.33612 -6.841 -2.03092
O -7.64501 -6.08146 10.7686
H -7.48301 -6.4464 11.6854
H -6.81299 -6.1733 10.2215
O -6.05336 -13.2151 -3.00946
H -5.23759 -12.8454 -2.56468
H -5.93635 -13.1808 -4.00201
O 1.54016 8.62874 -0.227939
H 1.7689 8.66681 0.744813
H 0.569104 8.83392 -0.350286
O 7.4673 -10.3435 -5.91673
H 8.19519 -10.3996 -5.23331
H 6.67503 -9.87781 -5.52243
O -10.3181 11.1174 3.8121
H -10.0597 11.6121 4.64185
H -9.60909 10.4487 3.58819
O 13.0983 -11.4784 -9.60555
H 13.5188 -12.3702 -9.43804
H 13.1789 -10.9125 -8.78505
O -1.34643 -13.8774 13.6923
H -1.84879 -14.6257 14.1256
H -0.416625 -14.1787 13.4808
O -10.2347 -2.31347 9.14259
H -10.6271 -1.4484 9.45523
H -9.43024 -2.53334 9.69441
O 4.82252 2.93241 -10.6941
H 5.69528 2.66544 -11.1028
H 4.1047 2.30905 -11.0042
O 12.3094 -10.6097 8.64771
H 12.0589 -10.9889 9.5385
H 11.486 -10.4892 8.09323
O -0.173847 -2.11765 -13.3925
H -0.906381 -1.76262 -13.9733
H -0.56921 -2.66282 -12.6532
O -13.0774 -9.19 5.38308
H -12.8745 -10.1669 5.44989
H -13.6448 -8.91361 6.15875
O 4.23786 -6.3551 -12.4214
H 5.12951 -6.72465 -12.1598
H 3.65305 -6.29171 -11.6127
O -0.362145 6.31115 8.82476
H 0.00547884 5.59113 9.41335
H -1.30216 6.51672 9.09705
O -5.98222 -3.42985 0.842488
H -5.7713 -2.95305 -0.0108533
H -5.78737 -4.40494 0.736423
O -1.9951 -3.21336 -7.17524
H -1.11205 -2.94679 -7.56148
H -2.02136 -2.9714 -6.2053
O 10.9834 3.01324 10.3038
H 10.3341 2.73892 11.0131
H 10.8407 3.97637 10.0757
O -8.14734 -10.1111 -3.85173
H -9.04217 -10.4225 -4.17167
H -7.51544 -10.0619 -4.62522
O -10.0404 5.90742 -8.1342
H -9.78115 6.80502 -8.49073
H -10.3834 5.3383 -8.88153
O 10.9103 -9.90854 -2.46187
H 11.8612 -10.2178 -2.47798
H 10.4016 -10.4306 -1.77728
O -3.89258 0.230127 -5.74084
H -4.28711 0.886564 -5.09784
H -4.04122 -0.698904 -5.40198
O -6.2429 0.683608 13.5776
H -6.07153 0.542254 12.6026
H -7.08047 0.205279 13.8416
O -1.73212 3.63688 12.2924
H -2.31649 4.43649 12.4308
H -2.29371 2.80945 12.2933
O 1.81472 7.48015 10.1695
H 0.905002 7.30358 9.79369
H 2.41902 6.71307 9.95404
O -14.645 -14.0337 -9.40526
H -14.8294 -14.4827 -10.2796
H -13.8761 -13.403 -9.51002
O 6.97883 5.20297 1.30362
H 7.42934 6.08284 1.15239
H 7.4603 4.49 0.793833
O 8.92985 -8.21302 5.93843
H 9.18754 -8.14083 4.97489
H 8.10182 -7.67704 6.10307
O -12.466 0.340102 -10.2389
H -11.9125 -0.490221 -10.3042
H -12.692 0.515536 -9.2807
O 0.737458 12.9163 10.926
H 1.26324 13.1033 10.0962
H 0.272637 12.0356 10.8347
O -6.09319 -9.54036 8.94898
H -6.65153 -9.86445 8.18528
H -6.06292 -10.2419 9.661
O -10.0545 -13.7563 -14.5275
H -9.98397 -13.6067 14.2672
H -10.9406 -14.1686 -14.3155
O -6.27464 -9.24302 -5.74644
H -5.68304 -8.5606 -5.31712
H -5.71171 -9.93992 -6.1908
O 1.20057 6.42436 3.91732
H 1.46641 5.50371 3.63143
H 1.58945 7.09489 3.28552
O 0.370985 -4.75345 -4.35077
H -0.114135 -3.88013 -4.39536
H 1.29281 -4.60478 -3.99277
O 13.871 -8.41765 4.34426
H 13.7855 -9.35798 4.67361
H 13.2711 -7.82165 4.87802
O 12.285 6.25432 4.566
H 11.6629 6.40194 3.79705
H 12.9656 5.56548 4.3166
O 8.20258 1.0166 1.13612
H 9.02686 0.500124 1.36813
H 7.5304 0.918871 1.87004
O -11.7294 -8.0202 11.5147
H -10.83 -8.35786 11.7921
H -11.6173 -7.2657 10.8681
O 2.64447 -1.21529 -13.6366
H 3.06607 -1.91362 -13.0581
H 1.65888 -1.37625 -13.6888
O -13.7762 -7.32676 0.360386
H -13.278 -8.00721 -0.177074
H -13.3401 -6.4332 0.253401
O 8.20232 12.2357 -8.29151
H 8.70742 12.0157 -7.45695
H 8.4909 13.1315 -8.62943
O 12.6116 -4.57765 -8.92999
H 13.0825 -4.10044 -8.18804
H 11.8902 -3.99126 -9.29851
O -11.4968 2.25038 2.02631
H -10.8794 1.49435 1.80895
H -11.2115 3.06802 1.52621
O 2.74971 0.367096 -9.20253
H 2.50244 0.66858 -10.1234
H 1.99249 0.553 -8.57638
O 9.88921 -10.4043 7.26506
H 9.43098 -10.4338 8.15342
H 9.52243 -9.64624 6.7258
O -0.323732 12.614 6.60167
H -0.17941 11.9726 7.35516
H -1.23136 12.4674 6.20831
O -14.1366 7.49371 1.65344
H -13.2044 7.51575 2.0147
H -14.7647 7.88169 2.32795
O 8.62298 4.79419 -11.9764
H 8.27969 5.16688 -11.1142
H 8.84895 5.54467 -12.5974
O -0.611178 -6.59447 -2.50445
H -1.02266 -7.36728 -2.98763
H -0.0892001 -6.03729 -3.15028
O 2.89359 -6.93457 -9.86393
H 3.45982 -7.69457 -9.54487
H 2.13671 -6.79212 -9.22607
O 6.28752 4.51043 -1.74624
H 7.21754 4.28837 -1.45339
H 5.83117 3.67971 -2.06511
O -13.1519 -5.62767 8.2125
H -13.5981 -5.17973 8.98732
H -13.5418 -5.28293 7.35856
O -10.9853 13.4113 -13.2396
H -11.6384 14.1337 -13.4672
H -10.8271 12.8394 -14.0446
O -0.855981 11.3002 2.04643
H -1.01883 10.9748 1.11498
H -0.428047 12.2035 2.0139
O -7.85304 -9.52349 -8.31429
H -8.45057 -9.61169 -9.11128
H -8.36119 -9.10527 -7.56137
O -7.2573 10.7439 -12.8599
H -7.16906 10.8852 -11.8739
H -7.90961 11.4031 -13.234
O 2.25517 12.1287 -7.68943
H 2.86706 12.9118 -7.57887
H 2.35152 11.5169 -6.90423
O -14.2984 -14.4506 0.354902
H -13.4536 14.7967 0.394782
H -14.1795 -13.6851 -0.277515
O -9.97986 -4.11382 -13.983
H -9.15816 -4.46533 -13.5344
H -10.2743 -3.27331 -13.5282
O 5.33192 11.9948 -6.0107
H 4.52656 11.4543 -5.76728
H 6.15922 11.4874 -5.76951
O 1.83312 -4.60781 -11.4902
H 2.15965 -5.03616 -10.6477
H 2.56276 -4.0491 -11.8846
O -1.78789 -5.55054 -9.42976
H -2.26607 -6.39693 -9.66424
H -2.20527 -5.14641 -8.61582
O 0.319401 3.85882 6.92142
H 0.228709 4.70964 7.43901
H 1.21176 3.83641 6.47063
O -0.000518272 -6.22424 13.605
H 0.535598 -5.55448 14.1188
H 0.0428104 -6.00825 12.6296
O 13.5464 8.58995 12.1826
H 13.8164 9.53978 12.0247
H 12.672 8.41251 11.7308
O 2.92757 3.83519 -6.5963
H 3.40217 3.84421 -7.47647
H 2.74789 4.77476 -6.30486
O -7.04323 6.56656 14.8463
H -6.70371 7.49397 -14.7776
H -6.4975 5.91761 -14.4044
O -11.8088 13.1416 -10.4885
H -11.5298 13.8642 -9.85595
H -11.3956 13.3051 -11.3844
O 10.7729 -4.15898 -6.02578
H 10.6381 -4.69483 -6.85928
H 10.0538 -4.38054 -5.36714
O -8.94682 -13.6902 -3.36129
H -7.96343 -13.7713 -3.19883
H -9.36064 -13.142 -2.6345
O 3.63843 4.94459 -9.02009
H 4.35717 4.36723 -9.4075
H 3.88863 5.90662 -9.12926
O -12.8809 -12.1157 -6.63207
H -13.3596 -12.9882 -6.53359
H -12.5739 -12.0089 -7.57778
O 11.2986 3.65907 14.5298
H 12.2915 3.72013 14.6327
H 10.866 4.41918 -14.7663
O 11.7532 14.4581 1.75171
H 12.6553 14.6539 2.13625
H 11.3478 13.6802 2.23182
O -2.13521 -14.4661 6.84825
H -2.48372 -13.8148 7.52229
H -2.09496 14.4026 7.25602
O -2.84924 3.2568 -5.55272
H -3.75397 2.93236 -5.27662
H -2.43356 2.5945 -6.17609
O 4.27995 5.6692 9.64045
H 4.8881 6.46096 9.69774
H 4.82415 4.83892 9.52009
O 14.7907 -13.1105 -4.07042
H -14.6767 -13.6261 -4.86787
H 14.5186 -13.7464 -3.34826
O -8.33792 -7.16818 -5.5351
H -9.14075 -7.67288 -5.85253
H -7.70912 -7.79628 -5.07672
O 2.61639 -3.97455 -1.18032
H 3.17441 -4.62974 -0.671046
H 2.9846 -3.05351 -1.05333
O 5.39513 -0.33691 13.5006
H 5.00453 0.0795232 14.3216
H 4.86426 -1.14745 13.2532
O 0.364907 -0.165181 -3.94289
H 1.25403 0.0506385 -4.3465
H 0.348931 0.13804 -2.9901
O -1.77 1.899 -8.26741
H -1.39298 1.22039 -7.63703
H -1.06725 2.57523 -8.4885
O 3.83269 -6.00156 3.44133
H 4.53715 -6.69667 3.29791
H 3.44823 -6.10103 4.35911
O -8.80772 2.78702 -3.69736
H -7.9665 2.56814 -3.20293
H -9.38513 1.97224 -3.74981
O 14.3653 -8.29096 -2.46801
H -14.4282 -8.17983 -2.35511
H 14.1037 -9.22241 -2.21512
O 9.1496 7.93899 12.2545
H 8.92331 7.0213 12.5811
H 8.34475 8.34746 11.8239
O 3.81997 7.64004 -14.4315
H 3.36078 6.7587 -14.543
H 4.20609 7.7007 -13.5111
O 10.2134 2.3553 -12.9373
H 10.6446 2.6878 -13.7761
H 9.69618 3.0977 -12.5115
O 13.2732 7.38886 14.6737
H 13.8169 6.55612 14.5689
H 13.1544 7.82394 13.7812
O 13.0322 -5.97479 -2.22512
H 13.4527 -6.88021 -2.1668
H 13.6608 -5.29084 -1.85498
O 13.3963 -14.6629 -2.334
H 13.453 14.1201 -2.36585
H 13.167 -14.3716 -1.40528
O 12.7868 -1.60879 7.7277
H 12.8406 -1.36521 6.7593
H 12.9608 -0.797358 8.28566
O -3.00126 6.21295 6.00665
H -3.09467 7.10454 6.44976
H -2.46094 6.31105 5.17092
O 2.56598 0.980091 3.23924
H 1.86149 1.57502 3.62625
H 3.2428 1.53555 2.75613
O -2.73275 9.0015 -11.4224
H -3.28467 8.40017 -12.0001
H -2.764 9.93291 -11.785
O 2.53429 10.7667 -5.31582
H 2.04446 9.94714 -5.61319
H 3.00862 10.5779 -4.45594
O -5.28667 -12.727 -9.5872
H -4.3031 -12.8631 -9.70581
H -5.49182 -11.7483 -9.60175
O -1.74185 3.58576 -13.2894
H -2.3305 2.78141 -13.3703
H -1.72284 3.89053 -12.3372
O 14.0027 12.375 -2.73337
H 13.276 11.7872 -2.37779
H 14.876 11.8901 -2.68758
O 12.8321 10.7608 0.07894
H 12.7573 10.3139 -0.812519
H 13.7811 11.0344 0.235992
O 1.70801 -11.1464 6.61043
H 2.66275 -11.4368 6.67513
H 1.13424 -11.7657 7.14644
O 13.7277 12.1956 7.24953
H 13.2188 11.7497 6.51319
H 13.7063 13.1866 7.11686
O 3.75318 -5.23111 -6.24555
H 3.19882 -4.6775 -6.86702
H 3.41237 -5.12575 -5.31134
O -7.95284 -4.97756 -9.69877
H -6.97528 -5.13168 -9.55515
H -8.47528 -5.68494 -9.22265
O -9.33278 -0.764678 -5.94514
H -9.88793 -1.38889 -6.49485
H -9.61932 0.17745 -6.11922
O -0.017938 9.8531 -8.31735
H 0.776639 10.4516 -8.41992
H -0.0633256 9.22347 -9.09293
O 6.54146 8.54664 5.03645
H 6.38838 9.15633 5.81418
H 7.08259 7.75922 5.33167
O 4.12477 -3.0505 -12.0607
H 4.65726 -2.27024 -11.7325
H 4.7087 -3.6427 -12.6159
O -7.0761 9.54391 4.31202
H -7.5528 9.2607 5.14422
H -6.51111 8.78928 3.97832
O -14.3135 -3.25295 -10.5222
H -14.2454 -2.25849 -10.6024
H 14.6061 -3.56174 -10.9257
O -8.18333 -10.5604 7.11574
H -8.83292 -9.95876 7.58055
H -8.63039 -11.4276 6.8964
O 10.6661 7.51308 -2.0628
H 10.8532 6.68757 -1.53029
H 9.67861 7.61581 -2.18256
O -9.71371 0.237805 4.51871
H -8.85702 -0.216123 4.76376
H -9.96065 0.891994 5.2336
O -5.31899 -9.96304 -9.10181
H -4.85059 -9.13656 -9.41415
H -6.19358 -9.71355 -8.68604
O -12.8414 2.57455 11.4091
H -12.7709 3.50063 11.0384
H -13.7284 2.46138 11.8568
O 13.9325 6.54657 -7.87222
H 14.2694 5.81685 -8.46723
H 14.3444 7.416 -8.14512
O 6.59059 4.5908 -8.20675
H 6.8633 3.62924 -8.1743
H 6.39426 4.91301 -7.28065
O 12.2996 0.0187574 12.179
H 11.561 0.629864 12.4636
H 12.1806 -0.873454 12.6146
O 8.48719 3.46001 0.0650478
H 8.07757 2.62198 0.425523
H 9.4729 3.44826 0.233153
O 4.50083 -4.04467 11.0827
H 3.88856 -4.68076 11.5523
H 4.18058 -3.90405 10.1458
O -12.845 -9.20617 -5.84061
H -12.9222 -10.1878 -5.66588
H -13.7057 -8.75642 -5.60184
O 4.15957 12.9946 6.99985
H 4.37059 13.3903 6.10604
H 4.29096 12.0039 6.96518
O -4.46311 11.6819 1.88026
H -3.47862 11.514 1.82882
H -4.95189 10.81 1.85022
O 14.2788 -12.9759 5.49478
H -14.5402 -12.7528 5.33673
H 13.7365 -12.1358 5.48954
O -9.70989 0.100806 1.7801
H -9.52297 -0.120935 2.73713
H -10.2378 -0.639257 1.36346
O -3.39432 14.3099 -11.4539
H -4.13059 14.4983 -12.1038
H -2.81939 -14.6586 -11.3568
O -4.61286 -2.89196 -7.6456
H -3.64864 -3.08775 -7.46681
H -4.70447 -1.95928 -7.99449
O -0.663026 9.6466 -3.51666
H -0.0259512 9.46019 -2.76872
H -1.16552 10.4895 -3.32421
O 7.6512 12.7782 -12.4532
H 8.39736 13.1397 -11.8941
H 6.92932 12.4255 -11.8578
O -12.885 0.931881 6.55209
H -13.5891 1.06491 7.24971
H -13.2685 1.12888 5.64977
O -6.14731 -12.1598 5.50193
H -6.79255 -11.6494 6.07041
H -6.44912 -13.1101 5.42632
O -2.89169 12.5383 14.2912
H -3.62383 12.7098 -14.8305
H -2.01785 12.4731 14.7731
O 2.92084 -11.207 -11.8508
H 3.7844 -10.7501 -12.0641
H 2.17429 -10.5427 -11.8874
O 0.0293343 -11.2431 -4.38827
H -0.795384 -11.7558 -4.62688
H 0.281783 -10.6451 -5.14899
O -5.64653 7.48954 -1.62801
H -5.40795 7.89597 -2.51
H -5.49625 6.50157 -1.66471
O 2.30039 5.51903 -14.6914
H 2.52317 5.3222 -13.7366
H 1.4827 5.00736 14.8257
O 5.16303 14.1022 1.70398
H 5.6845 13.2622 1.85401
H 4.59491 14.0005 0.887333
O 8.32517 0.9486 -3.17139
H 9.30678 0.76081 -3.20595
H 7.90315 0.38666 -2.45995
O 9.70138 -6.8361 -13.7632
H 9.86127 -7.46437 -13.0018
H 10.3649 -6.08897 -13.7239
O 6.34752 -13.11 7.27083
H 6.6734 -12.2921 6.79667
H 6.2921 -13.8705 6.62385
O -5.04939 9.00332 -9.59303
H -5.50299 9.89385 -9.62806
H -4.16377 9.062 -10.0537
O 4.54795 -11.6037 -8.9968
H 4.53929 -11.9816 -8.071
H 5.22681 -12.0884 -9.54836
O -13.6757 13.1702 12.3773
H -13.3372 12.6125 13.1352
H -13.2131 14.0568 12.3833
O -0.896733 -4.04968 -11.5719
H 0.0805845 -4.25777 -11.5324
H -1.35328 -4.43999 -10.7724
O -3.49602 0.234329 -10.3654
H -2.80862 0.814518 -9.9285
H -4.21138 0.00923867 -9.70387
O 14.5908 -12.3159 8.17829
H 14.5215 -12.8645 7.34506
H 13.8477 -11.647 8.19973
O 8.95417 -0.209983 -11.8964
H 9.42252 -1.0618 -12.1311
H 9.42561 0.559334 -12.3276
O -2.13774 -14.3458 4.17755
H -1.80594 -14.8769 4.95719
H -2.64878 -13.5523 4.50807
O 0.181431 13.5831 -8.87883
H 0.0220403 13.1212 -9.75134
H 0.985574 13.1881 -8.43459
O 10.7362 1.78698 7.68581
H 10.4669 2.2217 8.54516
H 11.5442 2.2475 7.31823
O 4.72057 -13.0942 10.4977
H 5.27676 -13.8126 10.0799
H 4.55283 -12.3707 9.82811
O 9.87192 -12.7142 -11.9429
H 9.58571 -13.2192 -12.7572
H 10.8322 -12.4507 -12.0346
O -12.1286 -4.06046 13.8293
H -12.5845 -3.24894 14.1949
H -11.3632 -4.3087 14.423
O 10.5874 2.46837 3.43742
H 10.1515 1.75552 2.88797
H 11.5387 2.21697 3.61557
O -0.380497 -11.831 -7.69015
H -0.970424 -11.0331 -7.81438
H 0.541978 -11.6167 -8.0113
O 11.6656 -2.06727 13.6526
H 11.7829 -2.15421 14.6419
H 12.467 -2.44366 13.1876
O -5.34672 -0.543764 -8.54134
H -5.44673 -0.166467 -7.62065
H -6.20547 -0.433636 -9.04179
O -13.046 11.27 14.5505
H -13.3311 11.4337 -14.286
H -13.266 10.3287 14.2943
O 2.84417 -8.57457 6.52409
H 3.78841 -8.38066 6.25795
H 2.65632 -9.54892 6.40013
O 0.136671 -1.5841 -8.22415
H 0.196187 -1.36836 -9.19879
H -0.303152 -0.826796 -7.74138
O 11.8029 1.51049 -1.02463
H 11.9175 2.14423 -0.2596
H 11.5773 0.601664 -0.673675
O 12.041 10.1007 2.6416
H 11.073 9.86698 2.73351
H 12.3554 9.86336 1.72245
O -8.00895 1.14113 -13.3634
H -8.39691 2.04161 -13.56
H -7.5202 1.17189 -12.4916
O -12.5271 -14.2996 -13.7886
H -13.3893 -14.4703 -14.2656
H -12.619 -13.4856 -13.215
O 14.8595 14.8136 -14.7263
H 14.7174 13.9363 -14.2679
H 13.9777 -14.597 14.7626
O -6.39183 -1.05228 8.8853
H -6.74311 -1.60607 8.13036
H -5.87179 -1.63351 9.5112
O 3.22314 -6.70308 1.0379
H 3.92775 -6.26276 0.481433
H 3.49538 -6.68001 1.99986
O 10.2366 -0.686009 2.06754
H 11.0708 -1.06451 1.6663
H 10.0766 -1.10541 2.96112
O 10.6918 10.8946 7.65664
H 11.5305 10.8175 8.19585
H 10.9227 10.9292 6.68428
O 0.563315 4.15417 -8.53071
H 1.38741 3.91156 -8.01883
H 0.15024 4.97168 -8.12938
O -8.87101 -12.5452 -8.03496
H -8.62986 -11.6031 -8.26783
H -8.03841 -13.0945 -7.96364
O -5.71584 -10.2725 14.4274
H -6.48143 -10.7875 14.0418
H -5.39447 -9.60211 13.7586
O -5.03841 -3.53077 -4.94237
H -5.88877 -4.04522 -4.83167
H -4.82496 -3.4451 -5.91557
O 7.22522 -2.33808 -14.2624
H 7.44993 -2.51272 -13.3037
H 6.34376 -1.86909 -14.318
O -7.77486 7.94893 -0.116255
H -7.29995 7.90701 -0.995304
H -8.00986 7.02321 0.180117
O 6.89885 -8.90571 -14.6371
H 7.12642 -7.99837 14.7903
H 6.26218 -9.35702 14.5186
O -1.17332 0.319483 5.4873
H -0.678491 0.973969 4.91563
H -1.62868 0.805849 6.23304
O -3.0856 -13.8553 -7.04694
H -2.17396 -14.0578 -7.4046
H -3.77696 -14.2168 -7.67253
O 11.9323 -14.7917 -4.97017
H 11.8176 -13.8668 -4.60759
H 12.7302 14.5613 -4.54553
O -11.693 -14.0155 5.71764
H -12.3426 -14.2277 6.4477
H -11.8927 -14.5825 4.91853
O -2.33621 -5.12832 -0.635555
H -1.78671 -5.41114 -1.42173
H -3.2362 -4.82582 -0.949458
O -3.15469 4.19101 7.90833
H -3.1239 4.83095 7.14051
H -3.13907 4.70117 8.76827
O -2.88099 -9.76565 10.9857
H -3.3878 -10.4325 10.4393
H -2.10849 -10.2181 11.4313
O 5.09114 -1.92528 1.51709
H 4.47734 -2.59262 1.93889
H 5.67006 -2.38426 0.843139
O -14.7632 5.071 0.662897
H -14.3737 5.91683 1.0274
H -14.313 4.84149 -0.200043
O 14.1326 4.93344 14.2304
H -14.6577 5.03487 14.1392
H 13.7735 4.44173 13.4371
O -13.4264 11.3634 7.66497
H -14.3726 11.0588 7.55536
H -13.416 12.2906 8.03939
O -4.87969 -13.53 -13.6926
H -4.40539 -12.7468 -13.2906
H -5.41397 -13.9946 -12.9865
O 9.60362 -14.8654 -9.14807
H 9.01563 -14.0637 -9.2554
H 10.5149 -14.5739 -8.85714
O -2.51087 -8.15256 -5.71966
H -2.4666 -9.06372 -5.30998
H -3.28977 -7.65369 -5.33958
O -8.5185 7.46459 12.7517
H -8.72358 8.43423 12.8849
H -7.82182 7.17781 13.4093
O -13.895 7.0441 -4.3059
H -12.9951 6.93788 -4.72902
H -14.3391 7.86342 -4.66844
O 3.26851 14.7028 -8.37019
H 3.30731 -14.5063 -9.18965
H 4.19753 14.5059 -8.0568
O 1.93918 12.0913 4.85505
H 1.18706 12.4736 5.3919
H 2.16486 11.18 5.19928
O -9.6147 8.39216 -9.24296
H -8.9127 8.18828 -9.92534
H -10.1628 9.16994 -9.55071
O -2.68048 -8.14842 -12.329
H -1.80087 -7.8608 -12.7079
H -3.4154 -7.88051 -12.952
O -12.4962 -5.11224 -0.0794202
H -11.86 -5.28729 -0.83083
H -12.0284 -4.60007 0.640913
O -10.7262 -10.3738 3.13595
H -10.1234 -10.2991 3.93037
H -11.4907 -9.73712 3.23658
O -6.92919 13.9433 3.35849
H -7.71935 13.8105 2.76014
H -6.11537 14.114 2.80296
O -0.844623 -2.69704 6.22128
H -1.28817 -3.17056 5.46032
H -1.04262 -1.7184 6.16573
O -9.34282 6.15883 -1.8715
H -10.0463 6.585 -1.30269
H -8.99007 6.82966 -2.52386
O -12.7498 -12.0527 -0.779365
H -11.7599 -12.0173 -0.642255
H -12.9636 -11.8182 -1.7277
O -14.4403 11.2168 -12.8888
H 14.5744 10.6466 -13.1852
H -13.6419 10.6395 -12.7175
O -8.01179 -5.16032 -12.4801
H -7.80861 -5.20325 -11.5019
H -7.2287 -5.50379 -12.9986
O -10.8038 12.1104 13.81
H -11.751 11.8728 14.0252
H -10.7488 12.4408 12.8678
O -13.5063 5.36194 4.96112
H -13.726 6.20589 5.4505
H -12.5255 5.18073 5.03284
O -3.33915 5.94007 10.3577
H -2.78565 5.99071 11.189
H -4.15889 6.50205 10.4683
O 7.34384 14.7038 -2.04679
H 8.01375 14.4665 -1.34327
H 7.52447 -14.1519 -2.3805
O -14.3731 -8.65765 11.1923
H -13.3992 -8.55644 11.3953
H -14.7699 -9.3475 11.7978
O 8.54204 12.6274 7.78952
H 9.35413 12.0446 7.75881
H 8.24757 12.739 8.73865
O -10.591 5.64117 1.42351
H -11.0033 5.15072 0.655751
H -9.63068 5.37628 1.51113
O 13.9562 -10.674 13.1148
H 14.238 -11.1283 13.9599
H 13.1048 -11.0819 12.785
O 5.01386 9.88485 10.1274
H 5.23309 10.8301 10.3693
H 4.02341 9.78679 10.0303
O -12.1117 13.8409 0.58339
H -12.359 12.8857 0.420832
H -11.3773 14.1061 -0.0414412
O 9.97454 -13.726 11.6527
H 9.19109 -13.9114 11.0596
H 9.72708 -13.0259 12.3226
O 11.7933 -4.0942 6.71785
H 12.1921 -3.1816 6.62729
H 12.3491 -4.64005 7.34489
O -6.83867 -2.81707 13.6532
H -7.16094 -3.57389 14.2218
H -7.19104 -1.95425 14.0157