LAMMPS data file via write_data, version 15 May 2015, timestep = 8008000

2611 atoms
6 atom types
1749 bonds
4 bond types
894 angles
3 angle types
44 dihedrals
3 dihedral types
10 impropers
1 improper types

-1.4936354907078808e+01 1.4936354907078808e+01 xlo xhi
-1.4936354907078808e+01 1.4936354907078808e+01 ylo yhi
-1.4936354907078808e+01 1.4936354907078808e+01 zlo zhi

Masses

1 15.9994
2 1.00794
3 12.0107
4 1.00794
5 12.0107
6 12.0107

Bond Coeffs # harmonic

1 1000 1
2 469 1.4
3 367 1.08
4 469 0.7

Angle Coeffs # harmonic

1 100 109.47
2 35 120
3 63 120

Dihedral Coeffs # opls

1 0 7.25 0 0
2 0 7.25 0 0
3 0 7.25 0 0

Improper Coeffs # cvff

1 2.5 -1 2

Atoms # full

1345 449 1 -8.1999999999999995e-01 -1.1714712705229871e+01 -1.1190473510073716e+01 -1.0714896054511204e+01 4 1 -3
567 189 2 4.0999999999999998e-01 -1.0720483092656050e+01 -1.1058265782962529e+01 -1.3666834653484372e+01 -2 -2 2
1346 449 2 4.0999999999999998e-01 -1.1113212077251697e+01 -1.1181583475588511e+01 -9.9160549737752994e+00 4 1 -3
2247 749 2 4.0999999999999998e-01 -1.3087554115461318e+01 -6.6172398017407179e+00 -9.6515683895656217e+00 -1 2 2
2245 749 1 -8.1999999999999995e-01 -1.3469817426120729e+01 -5.8784542098678561e+00 -1.0206635693189192e+01 -1 2 2
2246 749 2 4.0999999999999998e-01 -1.3045863377705981e+01 -5.8883478975502719e+00 -1.1112281401939150e+01 -1 2 2
2104 702 1 -8.1999999999999995e-01 -1.2760386980993074e+01 -1.3513334319239924e+01 -1.3089657798630057e+01 0 -3 1
464 155 2 4.0999999999999998e-01 -1.3893489760383606e+01 -9.0164923678351947e+00 -1.1521261820680900e+01 -2 2 -3
463 155 1 -8.1999999999999995e-01 -1.2957009464182683e+01 -8.7833767370083109e+00 -1.1259172397066012e+01 -2 2 -3
917 306 2 4.0999999999999998e-01 -1.1801664777676855e+01 -1.4485733677749991e+01 -1.3940770308272045e+01 0 -1 -2
1763 588 2 4.0999999999999998e-01 -9.3847221909356620e+00 -1.4183603438427964e+01 -7.5036434746140745e+00 2 2 1
380 127 2 4.0999999999999998e-01 -8.5928200586835768e+00 -1.0434707830821125e+01 -1.0243921426830882e+01 1 1 1
465 155 2 4.0999999999999998e-01 -1.2524458139252204e+01 -9.5754557078859488e+00 -1.0828429595162177e+01 -2 2 -3
2137 713 1 -8.1999999999999995e-01 -9.4219421397528489e+00 -1.1143271079875268e+01 -9.0825021556293244e+00 0 -1 1
205 69 1 -8.1999999999999995e-01 -1.0634078891514868e+01 -1.4584709923086955e+01 -1.1003473800623397e+01 5 2 1
1762 588 1 -8.1999999999999995e-01 -9.9486526570331826e+00 -1.3400684620620050e+01 -7.7664167426602573e+00 2 2 1
381 127 2 4.0999999999999998e-01 -8.1498392302034635e+00 -1.0627622138934891e+01 -1.1803811211783547e+01 1 1 1
1347 449 2 4.0999999999999998e-01 -1.2590494659259450e+01 -1.1605356692240321e+01 -1.0468102498018329e+01 4 1 -3
2249 750 2 4.0999999999999998e-01 -8.8491822013523489e+00 -6.8270314497658902e+00 -1.3208575377948989e+01 2 4 -3
206 69 2 4.0999999999999998e-01 -1.1328739218120219e+01 -1.3961678727651504e+01 -1.1363068587810787e+01 5 2 1
565 189 1 -8.1999999999999995e-01 -1.0091064159577968e+01 -1.1136519459638720e+01 -1.2893699961173091e+01 -2 -2 2
2138 713 2 4.0999999999999998e-01 -9.7649610980403239e+00 -1.0589219508503927e+01 -8.3239548863238682e+00 0 -1 1
2105 702 2 4.0999999999999998e-01 -1.3716684627171405e+01 -1.3531153903204686e+01 -1.3381559125847470e+01 0 -3 1
685 229 1 -8.1999999999999995e-01 -1.4180656522790837e+01 -1.2058121262359530e+01 -1.0413975899083068e+01 0 0 0
2139 713 2 4.0999999999999998e-01 -9.3409231890408151e+00 -1.2095942543592642e+01 -8.7894456481003509e+00 0 -1 1
1259 420 2 4.0999999999999998e-01 -9.9373527662733263e+00 -5.5618417719369138e+00 -1.1216148089529938e+01 0 -1 1
35 12 2 4.0999999999999998e-01 -1.1791344479346819e+01 -7.9956919025010267e+00 -1.3195434247172164e+01 1 -1 1
2387 796 2 4.0999999999999998e-01 -1.4793295308233718e+01 -7.4317396509857856e+00 -1.3705200972161457e+01 -1 2 -2
34 12 1 -8.1999999999999995e-01 -1.1557099739020028e+01 -7.7277432575402845e+00 -1.4129972633917358e+01 1 -1 1
1264 422 1 -8.1999999999999995e-01 -1.0854722214374597e+01 -8.1668547546715970e+00 -9.0819557201691996e+00 -2 1 -1
686 229 2 4.0999999999999998e-01 -1.4790092950058991e+01 -1.2848978201816783e+01 -1.0470204316297593e+01 0 0 0
1265 422 2 4.0999999999999998e-01 -1.1302316387634939e+01 -8.3870338137216756e+00 -9.9486792943226874e+00 -2 1 -1
36 12 2 4.0999999999999998e-01 -1.2227129760341528e+01 -8.1124219830312683e+00 -1.4764882966724505e+01 1 -1 1
2106 702 2 4.0999999999999998e-01 -1.2431574846462400e+01 -1.2568949718430776e+01 -1.3082627611624348e+01 0 -3 1
2386 796 1 -8.1999999999999995e-01 -1.4584654479410727e+01 -8.2979052289883342e+00 -1.4159354346090492e+01 -1 2 -2
293 98 2 4.0999999999999998e-01 -8.1237905776078154e+00 -6.0017105206354238e+00 -7.6733854246825599e+00 -5 1 -4
207 69 2 4.0999999999999998e-01 -1.0412314896217142e+01 -1.4329294717623508e+01 -1.0062403730105768e+01 5 2 1
720 240 2 4.0999999999999998e-01 -1.3055486073631048e+01 -9.8103139684869856e+00 -1.3902906886310902e+01 1 4 -3
718 240 1 -8.1999999999999995e-01 -1.2562556817662170e+01 -1.0560715000962347e+01 -1.4343302308038544e+01 1 4 -3
9 3 2 4.0999999999999998e-01 -9.1931320999876576e+00 -9.2656177135626816e+00 -1.3260705510830686e+01 4 -1 -1
566 189 2 4.0999999999999998e-01 -1.0609217798886856e+01 -1.1115885953458797e+01 -1.2038644216207345e+01 -2 -2 2
379 127 1 -8.1999999999999995e-01 -8.0780559580671305e+00 -1.0034308091315314e+01 -1.1002029027979061e+01 1 1 1
1266 422 2 4.0999999999999998e-01 -9.9524245769710440e+00 -7.7754555227206428e+00 -9.2627724890398078e+00 -2 1 -1
230 77 2 4.0999999999999998e-01 -1.1631367766563413e+01 -5.7533537850138856e+00 -1.3484817926010333e+01 1 -4 -2
2248 750 1 -8.1999999999999995e-01 -8.3938239005514976e+00 -5.9630709740870440e+00 -1.2993516724067900e+01 2 4 -3
916 306 1 -8.1999999999999995e-01 -1.1144277741874838e+01 -1.4845756573271249e+01 -1.4602778549040554e+01 0 -1 -2
229 77 1 -8.1999999999999995e-01 -1.2157504224061441e+01 -5.1855842614273513e+00 -1.2851692858044881e+01 1 -4 -2
413 138 2 4.0999999999999998e-01 -8.4281464273952409e+00 -1.4039917632902817e+01 -1.3288871859861073e+01 -2 1 -1
7 3 1 -8.1999999999999995e-01 -8.7345174750357568e+00 -8.8745235931191324e+00 -1.4058669907206600e+01 4 -1 -1
412 138 1 -8.1999999999999995e-01 -8.4189029823394002e+00 -1.4823727894266364e+01 -1.2667916774000656e+01 -2 1 -1
46 16 1 -8.1999999999999995e-01 -1.4511757816542620e+01 -6.9729782803725904e+00 -7.6623832474005109e+00 1 -1 2
819 273 2 4.0999999999999998e-01 -1.3784178922696739e+01 -9.5685054543121630e+00 -9.2796983911884396e+00 1 1 0
1569 523 2 4.0999999999999998e-01 -8.2482015601532090e+00 -8.4088727179175820e+00 -1.0145439363027805e+01 1 3 -1
687 229 2 4.0999999999999998e-01 -1.4519865357493142e+01 -1.1332674124223015e+01 -1.1012885669145470e+01 0 0 0
817 273 1 -8.1999999999999995e-01 -1.3516190105396598e+01 -9.5647097167521338e+00 -8.3162687409318643e+00 1 1 0
936 312 2 4.0999999999999998e-01 -1.3947236391058402e+01 -5.4136426286239843e+00 -1.3024774079143794e+01 -3 -4 2
1567 523 1 -8.1999999999999995e-01 -8.2735066891066360e+00 -7.5462349623273530e+00 -9.6402217439446076e+00 1 3 -1
104 35 2 4.0999999999999998e-01 -1.0939128363301609e+01 -9.2483498449732835e+00 -7.8516446465458838e+00 0 0 0
934 312 1 -8.1999999999999995e-01 -1.4926549399009208e+01 -5.4998898309646957e+00 -1.3207903918380898e+01 -3 -4 2
8 3 2 4.0999999999999998e-01 -9.3920411210399788e+00 -8.7750385931852062e+00 -1.4805526354319662e+01 4 -1 -1
414 138 2 4.0999999999999998e-01 -9.2699363312301362e+00 -1.4843283036145326e+01 -1.2143141598851466e+01 -2 1 -1
818 273 2 4.0999999999999998e-01 -1.4267970315212587e+01 -9.9185169712711421e+00 -7.7597833168941399e+00 1 1 0
1585 529 1 -8.1999999999999995e-01 -3.0583249708423565e+00 -8.6349912884433415e+00 -1.3650265167603065e+01 0 -3 -1
326 109 2 4.0999999999999998e-01 -5.9791010828340365e+00 -1.3135948807764727e+01 -1.4735886251037666e+01 0 -1 -2
1971 657 2 4.0999999999999998e-01 -6.9745354237158468e+00 -1.4559883038303616e+01 -1.1641793476765239e+01 3 1 3
2199 733 2 4.0999999999999998e-01 -2.8976539346739791e+00 -1.4454985540451114e+01 -1.0604105970081493e+01 2 2 -1
1587 529 2 4.0999999999999998e-01 -2.9901261171432871e+00 -9.5488596088449675e+00 -1.3249986901770558e+01 0 -3 -1
2250 750 2 4.0999999999999998e-01 -7.4317960460498096e+00 -6.0177275553348490e+00 -1.3260994154454620e+01 2 4 -3
1562 521 2 4.0999999999999998e-01 -3.4902431847417219e+00 -8.4713642906507545e+00 -1.0742337096629186e+01 2 1 -3
1175 392 2 4.0999999999999998e-01 -1.4750020460784725e+00 -8.1253984117838236e+00 -1.4428221230509333e+01 0 3 -1
2257 753 1 -8.1999999999999995e-01 -1.3219252517028846e+00 -1.2234208122160073e+01 -8.0059511898657760e+00 2 1 -2
1923 641 2 4.0999999999999998e-01 -3.5703216483891467e+00 -1.3838681302441559e+01 -1.4429843620671104e+01 2 -1 -1
2198 733 2 4.0999999999999998e-01 -4.3635017366159197e+00 -1.4700060649605613e+01 -1.1280813024269307e+01 2 2 -1
1561 521 1 -8.1999999999999995e-01 -3.8966389362923266e+00 -9.3838401225855677e+00 -1.0694803304277880e+01 2 1 -3
2364 788 2 4.0999999999999998e-01 -6.7700713001480270e+00 -9.1058929314384152e+00 -1.3702350164334449e+01 0 3 1
755 252 2 4.0999999999999998e-01 -1.8258267507931691e-01 -9.2404263498315746e+00 -1.0195080759373553e+01 3 5 0
1682 561 2 4.0999999999999998e-01 -5.0361920025386500e+00 -7.0507852363343515e+00 -9.5875029350950296e+00 0 0 1
107 36 2 4.0999999999999998e-01 -4.7329000382774922e-01 -1.1734987871780984e+01 -1.4363028756651678e+01 3 3 -3
568 190 1 -8.1999999999999995e-01 -5.9971636764818594e+00 -6.5713260809301808e+00 -1.3977471533729013e+01 -1 1 3
386 129 2 4.0999999999999998e-01 -7.4385805172892461e-01 -5.1561536374352812e+00 -1.1853791951048102e+01 3 0 2
159 53 2 4.0999999999999998e-01 -2.1872229190471320e+00 -1.0378513398261244e+01 -1.0526068190121471e+01 -6 5 0
1969 657 1 -8.1999999999999995e-01 -6.1799466561608067e+00 -1.4489933366835150e+01 -1.1038664270516264e+01 3 1 3
2363 788 2 4.0999999999999998e-01 -5.7214008571593773e+00 -1.0316762341606903e+01 -1.3384876264948467e+01 0 3 1
202 68 1 -8.1999999999999995e-01 -2.8724337110328459e+00 -7.0172686064050813e+00 -1.1237276622464595e+01 -1 3 -1
2362 788 1 -8.1999999999999995e-01 -5.8081877194275506e+00 -9.3347313217737131e+00 -1.3552543433832401e+01 0 3 1
204 68 2 4.0999999999999998e-01 -2.5475400351156789e+00 -7.1733159774111224e+00 -1.2170080138553748e+01 -1 3 -1
569 190 2 4.0999999999999998e-01 -5.8416187829281192e+00 -7.4930898880241834e+00 -1.3622244318720369e+01 -1 1 3
2034 678 2 4.0999999999999998e-01 -5.3449332316431875e+00 -1.2054994314568704e+01 -1.1689330732656099e+01 2 1 4
2033 678 2 4.0999999999999998e-01 -4.5524201290984063e+00 -1.2252139534577523e+01 -1.3103459712230174e+01 2 1 4
1568 523 2 4.0999999999999998e-01 -7.3589352311088261e+00 -7.1420708882669857e+00 -9.6247450797971190e+00 1 3 -1
1681 561 1 -8.1999999999999995e-01 -5.4961751830883117e+00 -6.2832593513582822e+00 -9.1410181944218323e+00 0 0 1
2259 753 2 4.0999999999999998e-01 -1.1313637735687667e+00 -1.3177160290088759e+01 -8.2790018468811546e+00 2 1 -2
1970 657 2 4.0999999999999998e-01 -6.2487662201865071e+00 -1.3655304577007092e+01 -1.0492140960260304e+01 3 1 3
1586 529 2 4.0999999999999998e-01 -3.9892945354352545e+00 -8.4856757754134868e+00 -1.3983476278052779e+01 0 -3 -1
157 53 1 -8.1999999999999995e-01 -1.3891112025027450e+00 -1.0955077222722586e+01 -1.0351079770816487e+01 -6 5 0
158 53 2 4.0999999999999998e-01 -1.4934206124323026e+00 -1.1409011015349202e+01 -9.4661544909018964e+00 -6 5 0
269 90 2 4.0999999999999998e-01 -4.6276820333128299e-01 -1.0825443949042004e+01 -1.2010751968160779e+01 -2 2 -1
1683 561 2 4.0999999999999998e-01 -5.2882138682639948e+00 -6.2933243299335686e+00 -8.1629180338086247e+00 0 0 1
771 257 2 4.0999999999999998e-01 -6.4311972744665606e+00 -1.1127176883823179e+01 -9.6904167795100022e+00 1 -1 1
203 68 2 4.0999999999999998e-01 -2.7323583460381293e+00 -6.0580714125948312e+00 -1.0991616820470920e+01 -1 3 -1
769 257 1 -8.1999999999999995e-01 -6.1697640153406379e+00 -1.2092308950788048e+01 -9.7046236766426404e+00 1 -1 1
2032 678 1 -8.1999999999999995e-01 -5.2807248908688855e+00 -1.1748291526333663e+01 -1.2638983176865931e+01 2 1 4
1563 521 2 4.0999999999999998e-01 -4.5636554098100550e+00 -9.4904744902562292e+00 -1.1432195572852473e+01 2 1 -3
1921 641 1 -8.1999999999999995e-01 -3.6253144030392406e+00 -1.2841594635748821e+01 -1.4482976311924203e+01 2 -1 -1
770 257 2 4.0999999999999998e-01 -6.4570953989371080e+00 -1.2528061970676845e+01 -8.8516353526838749e+00 1 -1 1
1922 641 2 4.0999999999999998e-01 -2.7038498418693990e+00 -1.2460498149539999e+01 -1.4558459096270868e+01 2 -1 -1
1916 639 2 4.0999999999999998e-01 -7.0571260695198914e+00 -1.4215984652761822e+01 -8.0122822104606222e+00 3 3 3
570 190 2 4.0999999999999998e-01 -5.6597288495280758e+00 -6.5148991726137098e+00 -1.4917143210616180e+01 -1 1 3
1174 392 1 -8.1999999999999995e-01 -5.8492359222899282e-01 -7.9329693092977216e+00 -1.4841452992635906e+01 0 3 -1
2060 687 2 4.0999999999999998e-01 -1.2415829231836106e+01 -9.7335526284397691e+00 -1.3437235551387410e+00 -2 -1 -2
2147 716 2 4.0999999999999998e-01 -9.4713810958427338e+00 -1.0371632633554421e+01 -5.5200166215647197e+00 0 -2 -2
1023 341 2 4.0999999999999998e-01 -1.2989997413656090e+01 -1.0912380418846084e+01 -4.6149950372743032e+00 3 2 -3
2291 764 2 4.0999999999999998e-01 -8.0291892977626294e+00 -5.5045874743349881e+00 -1.7880708970122701e+00 0 1 -3
1211 404 2 4.0999999999999998e-01 -1.1332584076462915e+01 -6.0109915950856987e+00 -1.7492715093131537e+00 0 3 0
1210 404 1 -8.1999999999999995e-01 -1.1640273975484838e+01 -6.4085672211035707e+00 -2.6137306671213842e+00 0 3 0
2095 699 1 -8.1999999999999995e-01 -1.1406253885235603e+01 -1.2398868335904165e+01 -3.1787724338637275e+00 2 5 1
2097 699 2 4.0999999999999998e-01 -1.0944988421748565e+01 -1.1568991922267722e+01 -3.4927285133376031e+00 2 5 1
1247 416 2 4.0999999999999998e-01 -1.4246483759637915e+01 -8.0172212669959819e+00 -4.1106797161675974e+00 3 -1 2
2096 699 2 4.0999999999999998e-01 -1.0815480162433037e+01 -1.3189602333846690e+01 -3.3392567798328798e+00 2 5 1
1406 469 2 4.0999999999999998e-01 -1.1040672547208398e+01 -8.2816137280533884e+00 -2.9312516717985666e+00 -1 0 -1
121 41 1 -8.1999999999999995e-01 -1.4600218104150770e+01 -5.2657591050383399e+00 -3.1999499417217478e+00 1 5 0
1407 469 2 4.0999999999999998e-01 -1.0285399174854319e+01 -9.6114734170753202e+00 -3.5037369433286401e+00 -1 0 -1
1405 469 1 -8.1999999999999995e-01 -1.0791917757797547e+01 -9.2292356048640833e+00 -2.7308448007151807e+00 -1 0 -1
1437 479 2 4.0999999999999998e-01 -1.3962499200054438e+01 -7.8277376831088050e+00 -1.7995654001400272e+00 0 1 -1
1021 341 1 -8.1999999999999995e-01 -1.2889807479073902e+01 -1.0490345019821843e+01 -5.5160373323933225e+00 3 2 -3
2064 688 2 4.0999999999999998e-01 -8.1874395447180675e+00 -1.0253594946157902e+01 -3.3079671162578403e+00 2 4 -2
2059 687 1 -8.1999999999999995e-01 -1.2641430271573714e+01 -9.4723222457372120e+00 -4.0516511918876930e-01 -2 -1 -2
1212 404 2 4.0999999999999998e-01 -1.2033360083986574e+01 -5.6914127500386176e+00 -3.1892320644275607e+00 0 3 0
2094 698 2 4.0999999999999998e-01 -1.1265080200641821e+01 -1.4393093413643788e+01 -5.2793481384501142e+00 -2 3 -2
292 98 1 -8.1999999999999995e-01 -8.5486200353249782e+00 -5.3615894078507136e+00 -7.0332338962708096e+00 -5 1 -4
113 38 2 4.0999999999999998e-01 -1.0658519482379756e+01 -8.2410054402179505e+00 -6.2103501698584402e+00 2 5 0
2287 763 1 -8.1999999999999995e-01 -9.6367940626342907e+00 -8.4546355609383390e+00 -2.7954916340023850e-01 -2 -1 1
1522 508 1 -8.1999999999999995e-01 -1.4654832756361277e+01 -1.3658602781209890e+01 -7.2142163180870273e+00 -2 2 -3
112 38 1 -8.1999999999999995e-01 -1.0191573400654159e+01 -7.3858455541566714e+00 -5.9852012789767244e+00 2 5 0
1094 365 2 4.0999999999999998e-01 -1.2092125426866270e+01 -1.2172523099047531e+01 -5.8584222311131722e+00 0 -3 2
1093 365 1 -8.1999999999999995e-01 -1.2218186917227744e+01 -1.3141141548779101e+01 -6.0727021698669219e+00 0 -3 2
1022 341 2 4.0999999999999998e-01 -1.3239320999306329e+01 -9.5538733410612693e+00 -5.4862012836667642e+00 3 2 -3
2416 806 1 -8.1999999999999995e-01 -1.3963368336827077e+01 -1.1805460172143665e+01 -2.0883103728023507e+00 -1 0 -2
2148 716 2 4.0999999999999998e-01 -8.9986653944391293e+00 -1.1623126926249984e+01 -4.5835306622139900e+00 0 -2 -2
114 38 2 4.0999999999999998e-01 -9.2688968645448853e+00 -7.5865664491427065e+00 -5.6559472165573581e+00 2 5 0
2418 806 2 4.0999999999999998e-01 -1.4484434511220895e+01 -1.1116300102274348e+01 -2.5918751870479326e+00 -1 0 -2
2417 806 2 4.0999999999999998e-01 -1.3051247964875456e+01 -1.1892246283588754e+01 -2.4889770294348139e+00 -1 0 -2
294 98 2 4.0999999999999998e-01 -9.4514127586605081e+00 -5.7024081544615459e+00 -6.7708659167567760e+00 -5 1 -4
2146 716 1 -8.1999999999999995e-01 -9.5104042079806419e+00 -1.0764148251822801e+01 -4.6010836698292348e+00 0 -2 -2
1246 416 1 -8.1999999999999995e-01 -1.3444909578635517e+01 -8.0385741691335504e+00 -4.7082179907302244e+00 3 -1 2
1248 416 2 4.0999999999999998e-01 -1.3131337014074770e+01 -7.1044383603656494e+00 -4.8787806939449005e+00 3 -1 2
164 55 2 4.0999999999999998e-01 -1.3255195863366311e+01 -6.0367897110309467e+00 -6.7700615379866083e+00 2 3 1
165 55 2 4.0999999999999998e-01 -1.1741234709983143e+01 -6.3348864725432055e+00 -6.2354925477318357e+00 2 3 1
2290 764 1 -8.1999999999999995e-01 -7.5120454984288472e+00 -5.3047361414441756e+00 -2.6203273541120318e+00 0 1 -3
2289 763 2 4.0999999999999998e-01 -9.7747149354745382e+00 -8.7355191565716090e+00 -1.2293445986658078e+00 -2 -1 1
1518 506 2 4.0999999999999998e-01 -7.8743713341963968e+00 -1.2896019878356759e+01 -5.9658947696262619e+00 3 3 -1
1516 506 1 -8.1999999999999995e-01 -8.1645684349011809e+00 -1.2906091361708537e+01 -5.0089656633988646e+00 3 3 -1
1517 506 2 4.0999999999999998e-01 -8.1406045159989233e+00 -1.3844138501753289e+01 -4.6632455444509660e+00 3 3 -1
2035 679 1 -8.1999999999999995e-01 -8.6988886100991465e+00 -5.9153234408069792e+00 -1.8489701651435020e-01 2 4 -1
2579 860 2 4.0999999999999998e-01 -1.4488934614358181e+01 -1.2102462232706733e+01 -4.0330848484493664e-01 -2 -1 -2
105 35 2 4.0999999999999998e-01 -1.1695190866878800e+01 -1.0036680363337599e+01 -6.6377218571241681e+00 0 0 0
163 55 1 -8.1999999999999995e-01 -1.2492978313691818e+01 -5.6754137137344980e+00 -6.2329759955565454e+00 2 3 1
103 35 1 -8.1999999999999995e-01 -1.0806958695780512e+01 -9.7499202390865207e+00 -6.9966666150683157e+00 0 0 0
1095 365 2 4.0999999999999998e-01 -1.3112284762279623e+01 -1.3274293863369035e+01 -6.5003569376139936e+00 0 -3 2
2062 688 1 -8.1999999999999995e-01 -7.7838238678731226e+00 -1.0255524200601595e+01 -2.3930246361806251e+00 2 4 -2
1694 565 2 4.0999999999999998e-01 -7.8962915527570372e+00 -1.2682097836349989e+01 -6.4553803464891324e-01 0 4 -2
1435 479 1 -8.1999999999999995e-01 -1.4871635838657227e+01 -7.8551803455957740e+00 -2.2151934091360541e+00 0 1 -1
1764 588 2 4.0999999999999998e-01 -1.0881791926982405e+01 -1.3535152148270193e+01 -7.4329521088769219e+00 2 2 1
2036 679 2 4.0999999999999998e-01 -9.1187664971640139e+00 -6.8182656891406364e+00 -2.7669567350424273e-01 2 4 -1
47 16 2 4.0999999999999998e-01 -1.4010791116231896e+01 -7.7982111976956521e+00 -7.4015152200607766e+00 1 -1 2
960 320 2 4.0999999999999998e-01 -3.5624723388324142e-01 -1.1009109009163453e+01 -7.1117339334393037e+00 2 -1 2
1915 639 1 -8.1999999999999995e-01 -6.8758766940376983e+00 -1.3439361245467492e+01 -7.4089300392400661e+00 3 3 3
1343 448 2 4.0999999999999998e-01 -4.2393011112160099e+00 -8.1770854913469861e+00 -6.5533328499132697e+00 1 2 -2
1225 409 1 -8.1999999999999995e-01 -5.1749239588220970e+00 -7.1614952940511145e+00 -3.1157548653428790e-02 2 4 3
958 320 1 -8.1999999999999995e-01 -8.4521492679934696e-02 -1.0412763365319867e+01 -6.3563756582305295e+00 2 -1 2
2219 740 2 4.0999999999999998e-01 -3.6995558130268762e+00 -1.4677833412287223e+01 -2.9858594067017421e+00 -2 -1 1
2258 753 2 4.0999999999999998e-01 -2.0746264900933120e+00 -1.2223456052560465e+01 -7.3476545839041618e+00 2 1 -2
1227 409 2 4.0999999999999998e-01 -4.4697725462406286e+00 -7.8661102273948167e+00 -1.1058281565449057e-01 2 4 3
1997 666 2 4.0999999999999998e-01 -6.1965433898096833e-01 -7.0715060299216219e+00 -4.8312016725594358e+00 -4 5 -2
1917 639 2 4.0999999999999998e-01 -6.0011793576323083e+00 -1.3575666873823147e+01 -6.9437908789281559e+00 3 3 3
365 122 2 4.0999999999999998e-01 -2.8493147666347429e+00 -1.0680967272779471e+01 -6.3391327864484506e+00 -2 1 0
353 118 2 4.0999999999999998e-01 -6.0881354448744567e+00 -7.1608927544290015e+00 -6.0041165736060815e+00 1 2 1
352 118 1 -8.1999999999999995e-01 -5.2589717107195000e+00 -6.6961575340170167e+00 -6.3148218546142143e+00 1 2 1
836 279 2 4.0999999999999998e-01 -4.7821104886744692e-01 -1.0116197327125857e+01 -2.9312493339953125e+00 2 1 -4
798 266 2 4.0999999999999998e-01 -3.9389108105723984e+00 -1.0695430250975194e+01 -2.9272439514205981e+00 0 1 0
967 323 1 -8.1999999999999995e-01 -4.1018055127105910e+00 -1.3809502502861676e+01 -6.9189531424511710e+00 1 -3 2
232 78 1 -8.1999999999999995e-01 -1.6461922091053918e+00 -1.3373458761210422e+01 -1.3925099715800666e+00 -4 4 2
1931 644 2 4.0999999999999998e-01 -8.7841750813096198e-02 -7.2947569291767325e+00 -8.3633953185855070e-01 2 1 -2
2222 741 2 4.0999999999999998e-01 -1.8243648830252006e+00 -5.3954071530701420e+00 -5.2556750116470958e+00 2 1 2
1908 636 2 4.0999999999999998e-01 -6.4803649346109182e+00 -1.1470529884404611e+01 -5.0871467346844401e+00 -1 2 0
233 78 2 4.0999999999999998e-01 -1.0440533127807488e+00 -1.2815912537182223e+01 -1.9639992760905578e+00 -4 4 2
2063 688 2 4.0999999999999998e-01 -7.1547743223197706e+00 -1.1028226946744420e+01 -2.3078412082270656e+00 2 4 -2
1784 595 2 4.0999999999999998e-01 -1.8095902763106100e+00 -1.4890213809198807e+01 -4.7241723834263620e+00 1 4 -4
1906 636 1 -8.1999999999999995e-01 -6.2681131065605094e+00 -1.0592483606599444e+01 -5.5161141065916368e+00 -1 2 0
1783 595 1 -8.1999999999999995e-01 -1.3514466300912211e+00 -1.4686763248928584e+01 -5.5894708046760542e+00 1 4 -4
1907 636 2 4.0999999999999998e-01 -5.3359925225954612e+00 -1.0614798094046549e+01 -5.8776142817304997e+00 -1 2 0
354 118 2 4.0999999999999998e-01 -5.2301136213658861e+00 -5.7734227869169921e+00 -5.9304302878137225e+00 1 2 1
605 202 2 4.0999999999999998e-01 -7.2542399285640142e+00 -8.6573788324290781e+00 -2.0597139352758607e+00 0 2 -2
234 78 2 4.0999999999999998e-01 -1.4200432054455714e+00 -1.4339971764442831e+01 -1.5139114207998770e+00 -4 4 2
796 266 1 -8.1999999999999995e-01 -3.0395498659300220e+00 -1.0258260005610445e+01 -2.9194239343634845e+00 0 1 0
2515 839 1 -8.1999999999999995e-01 -3.3024869674324346e+00 -7.5374939009098885e+00 -2.8970811893930808e+00 2 4 0
1592 531 2 4.0999999999999998e-01 -6.9707029623097663e+00 -8.2224677730600888e+00 -4.3751968399474634e+00 1 -4 0
1342 448 1 -8.1999999999999995e-01 -3.5127606622973229e+00 -8.8397519884195344e+00 -6.3715604779273498e+00 1 2 -2
1344 448 2 4.0999999999999998e-01 -2.7260162834531787e+00 -8.3702414596670920e+00 -5.9707834269792102e+00 1 2 -2
1844 615 2 4.0999999999999998e-01 -3.0115904620953682e+00 -1.2573122949360865e+01 -5.7429885076888354e-01 0 0 -1
968 323 2 4.0999999999999998e-01 -3.2406356311952411e+00 -1.4292562132975643e+01 -6.7606214074465303e+00 1 -3 2
1591 531 1 -8.1999999999999995e-01 -7.3514979557022837e+00 -8.1767516674335834e+00 -5.2987412634538025e+00 1 -4 0
2391 797 2 4.0999999999999998e-01 -5.4884626407308978e+00 -1.2899444784496891e+01 -2.6372921358612373e+00 1 4 1
2390 797 2 4.0999999999999998e-01 -5.1743205105201522e+00 -1.1926540350323602e+01 -1.3639203524562742e+00 1 4 1
2516 839 2 4.0999999999999998e-01 -3.6724132850130022e+00 -7.6577944490563929e+00 -1.9758258386356857e+00 2 4 0
2389 797 1 -8.1999999999999995e-01 -5.4950980552837940e+00 -1.1954292991644440e+01 -2.3106835955199045e+00 1 4 1
1996 666 1 -8.1999999999999995e-01 -1.5770819472551878e+00 -7.2295437335899386e+00 -5.0728327016466963e+00 -4 5 -2
2517 839 2 4.0999999999999998e-01 -3.9318730516990694e+00 -6.9803919667345964e+00 -3.4388742055949990e+00 2 4 0
797 266 2 4.0999999999999998e-01 -3.1488310940747155e+00 -9.2692104919429301e+00 -3.0187605400960695e+00 0 1 0
969 323 2 4.0999999999999998e-01 -4.0033078639229149e+00 -1.2853403173546022e+01 -6.6429071446521206e+00 1 -3 2
355 119 1 -8.1999999999999995e-01 -3.3184696195659082e+00 -9.0024587295353733e+00 -4.3529737919940459e-01 0 2 -5
357 119 2 4.0999999999999998e-01 -2.9869972501930082e+00 -9.5334171056349000e+00 -1.2151937766290821e+00 0 2 -5
1785 595 2 4.0999999999999998e-01 -5.8845317940057917e-01 -1.4061926588310911e+01 -5.4237926640948544e+00 1 4 -4
1593 531 2 4.0999999999999998e-01 -7.0985686943191464e+00 -9.0013702463715255e+00 -5.8047650624465614e+00 1 -4 0
366 122 2 4.0999999999999998e-01 -2.0504559177077315e+00 -1.1406789804219827e+01 -5.1136899239443334e+00 -2 1 0
1843 615 1 -8.1999999999999995e-01 -3.8555766135755505e+00 -1.2415252454879559e+01 -6.1665050760993267e-02 0 0 -1
364 122 1 -8.1999999999999995e-01 -2.7917392885438890e+00 -1.1506351348707220e+01 -5.7774787230455082e+00 -2 1 0
1998 666 2 4.0999999999999998e-01 -2.1069705343732110e+00 -7.3990173291877621e+00 -4.2418538135112005e+00 -4 5 -2
1204 402 1 -8.1999999999999995e-01 -5.5837329833842873e+00 -1.4885425823630095e+01 -2.6951572266520945e+00 2 -1 -1
606 202 2 4.0999999999999998e-01 -6.1538771340466205e+00 -7.5626079011372980e+00 -1.5523851844745682e+00 0 2 -2
604 202 1 -8.1999999999999995e-01 -6.6255409725803531e+00 -7.9363485214254625e+00 -2.3510592631164293e+00 0 2 -2
2292 764 2 4.0999999999999998e-01 -7.0132787254909195e+00 -6.1226014893165335e+00 -2.9073065311325816e+00 0 1 -3
1421 474 2 4.0999999999999998e-01 -9.8500844545388819e+00 -1.3964662118539417e+01 3.1763278167329645e+00 5 2 0
752 251 2 4.0999999999999998e-01 -1.0041928320762000e+01 -1.3830943290217757e+01 5.4934743413609333e+00 0 0 -1
1252 418 1 -8.1999999999999995e-01 -1.2973092174632203e+01 -9.6660179466862228e+00 6.1487869310134329e+00 4 2 -2
1254 418 2 4.0999999999999998e-01 -1.3427434586503750e+01 -1.0319698490490442e+01 6.7540173551964813e+00 4 2 -2
2119 707 1 -8.1999999999999995e-01 -1.4621903979946781e+01 -1.2984519481258545e+01 3.4210862819133787e+00 1 0 -3
1420 474 1 -8.1999999999999995e-01 -9.2336777891684001e+00 -1.4008918303814058e+01 3.9625296400759709e+00 5 2 0
1422 474 2 4.0999999999999998e-01 -8.6274143403140826e+00 -1.3213663515285514e+01 3.9559321381847425e+00 5 2 0
75 25 2 4.0999999999999998e-01 -1.3430050794762609e+01 -1.1740184478442938e+01 3.7561395072205350e+00 -1 -2 0
73 25 1 -8.1999999999999995e-01 -1.2909885107770075e+01 -1.0886973938680658e+01 3.7175576886402268e+00 -1 -2 0
1036 346 1 -8.1999999999999995e-01 -1.1546184525056901e+01 -1.1281402131923125e+01 1.4720731687795059e+00 -2 2 -1
74 25 2 4.0999999999999998e-01 -1.2959953149892538e+01 -1.0425721798642659e+01 4.6034294505641817e+00 -1 -2 0
1038 346 2 4.0999999999999998e-01 -1.1055895661814660e+01 -1.2150514322074809e+01 1.5375708656988785e+00 -2 2 -1
1037 346 2 4.0999999999999998e-01 -1.1936062756711284e+01 -1.1050636602004792e+01 2.3635726605365228e+00 -2 2 -1
1805 602 2 4.0999999999999998e-01 -9.6935023156847802e+00 -1.3899716556474280e+01 8.0003245089662478e-01 3 0 -2
521 174 2 4.0999999999999998e-01 -1.0803186847327668e+01 -7.8644765476076905e+00 4.0695646642028969e+00 0 1 1
522 174 2 4.0999999999999998e-01 -9.9167913724857115e+00 -7.7179734101405275e+00 5.4332156207022670e+00 0 1 1
520 174 1 -8.1999999999999995e-01 -9.9401017084844447e+00 -8.1073594785003174e+00 4.5124202037018684e+00 0 1 1
1804 602 1 -8.1999999999999995e-01 -1.0433788874892128e+01 -1.3723980444679436e+01 1.4489713557392534e+00 3 0 -2
179 60 2 4.0999999999999998e-01 -1.3868653805787462e+01 -6.6958861639637117e+00 8.1694109444655716e-01 4 1 -1
1261 421 1 -8.1999999999999995e-01 -1.0497238053136016e+01 -1.0860901914131894e+01 7.1343231192879557e+00 3 -1 -5
178 60 1 -8.1999999999999995e-01 -1.2913041819429946e+01 -6.8824991823550778e+00 5.8888324415123172e-01 4 1 -1
1002 334 2 4.0999999999999998e-01 -9.0762602404154560e+00 -6.4391330445020252e+00 7.2773302399782800e+00 -1 4 -1
1263 421 2 4.0999999999999998e-01 -1.0429439959028814e+01 -1.1852499023164462e+01 7.0240159274364622e+00 3 -1 -5
949 317 1 -8.1999999999999995e-01 -1.3821200491110233e+01 -7.1782213417718141e+00 6.8285988606040320e+00 2 1 1
2120 707 2 4.0999999999999998e-01 -1.4361384195081996e+01 -1.2713553347550528e+01 2.4944062403055867e+00 1 0 -3
1253 418 2 4.0999999999999998e-01 -1.3294753305239817e+01 -8.7418220422905630e+00 6.3547607886355841e+00 4 2 -2
662 221 2 4.0999999999999998e-01 -1.4217928760686714e+01 -5.4551523580594736e+00 6.2452410235823628e+00 4 1 -2
507 169 2 4.0999999999999998e-01 -1.2911270661701886e+01 -7.5300471439927330e+00 2.6231197731153095e+00 1 4 0
1000 334 1 -8.1999999999999995e-01 -9.5298333690807464e+00 -7.3281473807123509e+00 7.2144492445426600e+00 -1 4 -1
505 169 1 -8.1999999999999995e-01 -1.2299828427865286e+01 -8.0030400467925720e+00 3.2575054640519383e+00 1 4 0
506 169 2 4.0999999999999998e-01 -1.2731706137899046e+01 -8.8499568079615116e+00 3.5677356375586449e+00 1 4 0
581 194 2 4.0999999999999998e-01 -1.1850006829599709e+01 -5.2511319672662502e+00 2.0061928899332493e-01 -1 5 0
1262 421 2 4.0999999999999998e-01 -1.1086006433891271e+01 -1.0485383245153823e+01 6.4185252346036457e+00 3 -1 -5
2306 769 2 4.0999999999999998e-01 -8.2170311696908520e+00 -5.4978041372542279e+00 2.5112185391397404e+00 3 0 -2
1928 643 2 4.0999999999999998e-01 -9.1566159516875363e+00 -9.6214343021675361e+00 4.1765814301689872e+00 0 3 3
2288 763 2 4.0999999999999998e-01 -1.0517347279388403e+01 -8.2116292000869269e+00 1.2739438852903717e-01 -2 -1 1
753 251 2 4.0999999999999998e-01 -1.1441608225957896e+01 -1.4292658019080779e+01 6.1966241776088218e+00 0 0 -1
2037 679 2 4.0999999999999998e-01 -8.3926932796412927e+00 -5.7844207464439279e+00 7.5804415418056692e-01 2 4 -1