LAMMPS data file via write_data, version 15 May 2015, timestep = 23005000

2611 atoms
6 atom types
1749 bonds
4 bond types
894 angles
3 angle types
44 dihedrals
3 dihedral types
10 impropers
1 improper types

-1.5024796976462081e+01 1.5024796976462081e+01 xlo xhi
-1.5024796976462081e+01 1.5024796976462081e+01 ylo yhi
-1.5024796976462081e+01 1.5024796976462081e+01 zlo zhi

Masses

1 15.9994
2 1.00794
3 12.0107
4 1.00794
5 12.0107
6 12.0107

Bond Coeffs # harmonic

1 1000 1
2 469 1.4
3 367 1.08
4 469 0.7

Angle Coeffs # harmonic

1 100 109.47
2 35 120
3 63 120

Dihedral Coeffs # opls

1 0 7.25 0 0
2 0 7.25 0 0
3 0 7.25 0 0

Improper Coeffs # cvff

1 2.5 -1 2

Atoms # full

2364 788 2 4.0999999999999998e-01 -1.2782090360360684e+01 -1.3189096074421876e+01 -1.1934570583111453e+01 0 4 -1
1186 396 1 -8.1999999999999995e-01 -1.3083409535105469e+01 -6.4681344827863310e+00 -1.4478510305744411e+01 5 -4 -1
1051 351 1 -8.1999999999999995e-01 -1.0051544533616312e+01 -8.5621076767234623e+00 -1.1637419985854660e+01 -3 -5 -4
893 298 2 4.0999999999999998e-01 -1.4371083918450829e+01 -9.6863366411294933e+00 -1.1514822492309706e+01 2 -6 -8
892 298 1 -8.1999999999999995e-01 -1.4803686021098413e+01 -1.0582135632120195e+01 -1.1413192112234775e+01 2 -6 -8
1053 351 2 4.0999999999999998e-01 -1.1021408608498241e+01 -8.3295275404620668e+00 -1.1565313862985285e+01 -3 -5 -4
1052 351 2 4.0999999999999998e-01 -9.8301506964225744e+00 -9.2773839973057797e+00 -1.0974627644780522e+01 -3 -5 -4
2363 788 2 4.0999999999999998e-01 -1.3499556118415512e+01 -1.1732578759110075e+01 -1.1760680363238615e+01 0 4 -1
2362 788 1 -8.1999999999999995e-01 -1.2661459887912056e+01 -1.2254148540753967e+01 -1.1601028122110321e+01 0 4 -1
296 99 2 4.0999999999999998e-01 -1.0307370426508005e+01 -1.1198605705997505e+01 -9.6020554551408175e+00 3 -7 -3
422 141 2 4.0999999999999998e-01 -9.2387161133528117e+00 -6.0945854170166083e+00 -1.0575034320956647e+01 1 -5 -3
295 99 1 -8.1999999999999995e-01 -1.0211025212295795e+01 -1.0205496611216528e+01 -9.6682452855941499e+00 3 -7 -3
2234 745 2 4.0999999999999998e-01 -1.3495114040153737e+01 -7.5678645215890175e+00 -1.3135384938136266e+01 0 -3 -2
2233 745 1 -8.1999999999999995e-01 -1.3829451676678795e+01 -8.1730763959941388e+00 -1.2412981942024047e+01 0 -3 -2
2235 745 2 4.0999999999999998e-01 -1.3367730314580315e+01 -7.9531634762372203e+00 -1.1553691037622864e+01 0 -3 -2
297 99 2 4.0999999999999998e-01 -9.9513322524588546e+00 -9.8356361476316536e+00 -8.7762296264890995e+00 3 -7 -3
2126 709 2 4.0999999999999998e-01 -9.2739406300858196e+00 -1.2727935846963122e+01 -1.0416151151333054e+01 0 -4 1
1648 550 1 -8.1999999999999995e-01 -9.7142475971678994e+00 -6.7870004943449960e+00 -1.3858660636154584e+01 -1 1 0
12 4 2 4.0999999999999998e-01 -1.1040732386505827e+01 -1.1909586921990623e+01 -1.2765692086331928e+01 -2 0 6
1113 371 2 4.0999999999999998e-01 -8.7368446058743885e+00 -1.1595978052737603e+01 -1.4104336571977118e+01 5 7 0
10 4 1 -8.1999999999999995e-01 -1.0140458172661695e+01 -1.2164455383061439e+01 -1.3118505838903491e+01 -2 0 6
1389 463 2 4.0999999999999998e-01 -1.1464311867715482e+01 -1.2703040965430237e+01 -1.0462740688761157e+01 0 -4 -4
1649 550 2 4.0999999999999998e-01 -9.8104417236484487e+00 -7.3674352269022094e+00 -1.3050099358315626e+01 -1 1 0
2106 702 2 4.0999999999999998e-01 -8.3705773406317565e+00 -8.2167656854058357e+00 -8.1181285527400586e+00 1 -8 4
2125 709 1 -8.1999999999999995e-01 -8.4372216675148195e+00 -1.2816155849057459e+01 -1.0956565573534808e+01 0 -4 1
1030 344 1 -8.1999999999999995e-01 -1.3492521895225703e+01 -1.4799150053497311e+01 -1.3506874349899544e+01 6 -4 1
1026 342 2 4.0999999999999998e-01 -1.0267461907308725e+01 -1.4065543087658178e+01 -1.3417505910336930e+01 -1 2 3
11 4 2 4.0999999999999998e-01 -9.5127530105405036e+00 -1.2312717815677740e+01 -1.2354350341970747e+01 -2 0 6
309 103 2 4.0999999999999998e-01 -1.2780462442228236e+01 -7.8650436857526049e+00 -9.3232827944335153e+00 0 1 -3
2127 709 2 4.0999999999999998e-01 -7.6922460606495466e+00 -1.2330697189578151e+01 -1.0499104739996010e+01 0 -4 1
1024 342 1 -8.1999999999999995e-01 -1.0615447542153991e+01 -1.5002831485145425e+01 -1.3435550018517878e+01 -1 2 3
1650 550 2 4.0999999999999998e-01 -9.2052867624723476e+00 -5.9608080188880788e+00 -1.3617219151028907e+01 -1 1 0
1387 463 1 -8.1999999999999995e-01 -1.0796595434214549e+01 -1.3031205788177820e+01 -9.7946151160061792e+00 0 -4 -4
722 241 2 4.0999999999999998e-01 -1.0356347599469641e+01 -9.2770406328571688e+00 -1.4420747668063976e+01 2 -6 -1
1772 591 2 4.0999999999999998e-01 -8.2209162339514279e+00 -1.4800261612926082e+01 -1.1396397064401759e+01 1 -4 1
701 234 2 4.0999999999999998e-01 -8.6991462940466775e+00 -6.2155324334900524e+00 -8.2645440058110839e+00 2 0 2
307 103 1 -8.1999999999999995e-01 -1.2496465087921443e+01 -7.5147361393280425e+00 -1.0215784502082851e+01 0 1 -3
1031 344 2 4.0999999999999998e-01 -1.4202031954118359e+01 -1.4895829326724582e+01 -1.4204855550297333e+01 6 -4 1
2104 702 1 -8.1999999999999995e-01 -8.9836626563813695e+00 -8.8463341304448271e+00 -7.6409502835013399e+00 1 -8 4
308 103 2 4.0999999999999998e-01 -1.2182009508453911e+01 -6.5704953862697408e+00 -1.0118541446451943e+01 0 1 -3
2117 706 2 4.0999999999999998e-01 -8.2873282556995385e+00 -7.9026182165125158e+00 -1.5010127363278418e+01 0 1 0
1388 463 2 4.0999999999999998e-01 -1.1275095958940351e+01 -1.3456762639618685e+01 -9.0265866325142099e+00 0 -4 -4
1103 368 2 4.0999999999999998e-01 -1.1970052157862717e+01 -5.2275516244668427e+00 -1.3209283165877300e+01 -1 3 1
421 141 1 -8.1999999999999995e-01 -9.9481615718420286e+00 -5.4068612336286304e+00 -1.0728825450160757e+01 1 -5 -3
1225 409 1 -8.1999999999999995e-01 -1.4023909006296675e+01 -8.5698382233944983e+00 -7.8884033468385173e+00 3 0 0
1762 588 1 -8.1999999999999995e-01 -1.3299115452063424e+01 -1.1612985015236411e+01 -8.5601972404936415e+00 0 1 -3
1764 588 2 4.0999999999999998e-01 -1.3975465343708356e+01 -1.1260400374697237e+01 -9.2068532655122581e+00 0 1 -3
2542 848 1 -8.1999999999999995e-01 -7.7303430541114695e+00 -7.3979920164712665e+00 -1.1086306994931805e+01 6 2 3
2544 848 2 4.0999999999999998e-01 -8.6568710258895827e+00 -7.7700539725609508e+00 -1.1141488109347371e+01 6 2 3
1700 567 2 4.0999999999999998e-01 -8.2880580620828290e+00 -1.4150626035396844e+01 -8.5727391327202440e+00 6 1 0
1112 371 2 4.0999999999999998e-01 -7.5132154076844602e+00 -1.0623012895339329e+01 -1.3632629121458391e+01 5 7 0
700 234 1 -8.1999999999999995e-01 -7.8167083509099982e+00 -6.5422681276636521e+00 -8.6028873022192656e+00 2 0 2
1111 371 1 -8.1999999999999995e-01 -7.8205457991462755e+00 -1.1267246393093460e+01 -1.4332943594622101e+01 5 7 0
234 78 2 4.0999999999999998e-01 -1.2892398373100310e+01 -1.3111770586700327e+01 -1.4925002100482249e+01 -4 0 4
2543 848 2 4.0999999999999998e-01 -7.5366882912868975e+00 -7.1241665468259781e+00 -1.0144263142654829e+01 6 2 3
565 189 1 -8.1999999999999995e-01 -1.2860991841754844e+01 -5.3356037067190325e+00 -8.0545816631592739e+00 -6 -4 3
1187 396 2 4.0999999999999998e-01 -1.3992770184710741e+01 -6.5694011087202604e+00 -1.4881917565757975e+01 5 -4 -1
569 190 2 4.0999999999999998e-01 -1.2681764793957099e+01 -1.3124759392204320e+01 -7.7314088380472112e+00 3 0 0
1227 409 2 4.0999999999999998e-01 -1.4953293902727395e+01 -8.2753200820689177e+00 -7.6660704859477971e+00 3 0 0
1699 567 1 -8.1999999999999995e-01 -8.4439879789813865e+00 -1.4383882065516239e+01 -7.6129440480423138e+00 6 1 0
567 189 2 4.0999999999999998e-01 -1.3254597425726747e+01 -6.2521353765146266e+00 -7.9840585716144581e+00 -6 -4 3
1763 588 2 4.0999999999999998e-01 -1.3019069353708147e+01 -1.0881325207056655e+01 -7.9387656449308315e+00 0 1 -3
1782 594 2 4.0999999999999998e-01 -1.0981425883368239e+01 -5.6689745229914124e+00 -7.8266844409624730e+00 -1 2 -3
1025 342 2 4.0999999999999998e-01 -1.1612920022266167e+01 -1.4989424068319138e+01 -1.3366282109574936e+01 -1 2 3
568 190 1 -8.1999999999999995e-01 -1.1990050126352722e+01 -1.3814741895301989e+01 -7.5183733678176399e+00 3 0 0
1436 479 2 4.0999999999999998e-01 -2.2812183945034086e+00 -5.0794888024140352e+00 -1.2317657886190737e+01 -2 -4 -5
2103 701 2 4.0999999999999998e-01 -6.3941211702203713e+00 -1.4282213438039472e+01 -1.4066200180830913e+01 -4 -4 -3
1498 500 1 -8.1999999999999995e-01 -5.1320209808342359e+00 -9.0843618035714311e+00 -9.4115934683385980e+00 1 0 -5
1939 647 1 -8.1999999999999995e-01 -1.9811684361269730e+00 -1.1336650073590095e+01 -1.4773736674282119e+01 -7 0 -2
1377 459 2 4.0999999999999998e-01 -4.5216241296810900e-01 -1.3015774821728787e+01 -8.7983852994647940e+00 -2 -1 -1
702 234 2 4.0999999999999998e-01 -7.0791489922027928e+00 -6.0805758126060869e+00 -8.1101647391482743e+00 2 0 2
2101 701 1 -8.1999999999999995e-01 -6.2770110340524070e+00 -1.3541483276258329e+01 -1.3404737276361788e+01 -4 -4 -3
2319 773 2 4.0999999999999998e-01 -1.3012336216612983e+00 -1.4653640497367808e+01 -1.2056998367505294e+01 -2 0 -1
796 266 1 -8.1999999999999995e-01 -4.4535980501798917e+00 -1.2662335870500904e+01 -1.1471716575952254e+01 -1 3 0
412 138 1 -8.1999999999999995e-01 -1.3737398610523339e+00 -1.0091165192055616e+01 -1.1133491575645028e+01 -5 -2 -2
2481 827 2 4.0999999999999998e-01 -1.2605716321698726e+00 -6.7424476304254028e+00 -1.3310550383803189e+01 -2 2 2
2231 744 2 4.0999999999999998e-01 -5.5273138081987288e+00 -6.2122516579450320e+00 -1.4534161131351413e+01 4 -4 0
2479 827 1 -8.1999999999999995e-01 -1.0452526325550267e+00 -7.1750837329810615e+00 -1.4185989049390209e+01 -2 2 2
1529 510 2 4.0999999999999998e-01 -1.0816324566332121e+00 -6.8043640952775064e+00 -1.0532256536203100e+01 0 1 -4
1574 525 2 4.0999999999999998e-01 -5.1433231910807429e+00 -6.5459863122982114e+00 -1.2504203483981998e+01 -2 -6 1
413 138 2 4.0999999999999998e-01 -1.7461746220632559e+00 -1.0503030685288294e+01 -1.0301873702358499e+01 -5 -2 -2
1573 525 1 -8.1999999999999995e-01 -6.0090511564197371e+00 -6.2762179872962847e+00 -1.2925711806512236e+01 -2 -6 1
1500 500 2 4.0999999999999998e-01 -5.2368632173957721e+00 -8.8619012482250827e+00 -8.4423419224044292e+00 1 0 -5
1941 647 2 4.0999999999999998e-01 -2.4411359887388500e+00 -1.0449279689024337e+01 -1.4743195155795400e+01 -7 0 -2
909 303 2 4.0999999999999998e-01 -6.7259497279794633e+00 -9.1284273723555529e+00 -1.1945786161732961e+01 0 1 0
1435 479 1 -8.1999999999999995e-01 -2.1190377646908196e+00 -5.9497896257615590e+00 -1.1852681463333496e+01 -2 -4 -5
1575 525 2 4.0999999999999998e-01 -6.7542851216700921e+00 -6.4125462039523473e+00 -1.2273047963382533e+01 -2 -6 1
1258 420 1 -8.1999999999999995e-01 -2.9734437604273722e+00 -1.3088885660969396e+01 -9.2190812713489390e+00 0 -2 -3
1530 510 2 4.0999999999999998e-01 -1.4734578840035297e+00 -7.8958710098242761e+00 -9.3826813917583554e+00 0 1 -4
1000 334 1 -8.1999999999999995e-01 -2.8549814802210065e+00 -1.0378597475331574e+01 -8.6879781216452479e+00 2 6 -4
929 310 2 4.0999999999999998e-01 -5.5230670751233681e+00 -1.2075958564817372e+01 -1.0315455098922136e+01 1 -6 1
2582 861 2 4.0999999999999998e-01 -3.9418664997713400e+00 -1.4415241671379002e+01 -8.1589219149142078e+00 2 4 5
282 94 2 4.0999999999999998e-01 -1.1885399809745909e+00 -1.2345096416257867e+01 -1.3211028539598013e+01 -5 1 -3
907 303 1 -8.1999999999999995e-01 -6.3474550145859947e+00 -9.6330529715557454e+00 -1.2721688157822774e+01 0 1 0
414 138 2 4.0999999999999998e-01 -8.6487422958172466e-01 -9.2636200254356886e+00 -1.0896523438406298e+01 -5 -2 -2
928 310 1 -8.1999999999999995e-01 -6.2050244520563815e+00 -1.1795495718933175e+01 -9.6400264396995183e+00 1 -6 1
1001 334 2 4.0999999999999998e-01 -2.3300413389576011e+00 -9.9944958632448149e+00 -7.9284829403953418e+00 2 6 -4
930 310 2 4.0999999999999998e-01 -5.9017969469147964e+00 -1.2068452855419331e+01 -8.7270770313341188e+00 1 -6 1
908 303 2 4.0999999999999998e-01 -5.3627975016558249e+00 -9.7515326316319673e+00 -1.2593855128768251e+01 0 1 0
1259 420 2 4.0999999999999998e-01 -3.4042147312579534e+00 -1.3130184387622432e+01 -1.0120557795721933e+01 0 -2 -3
241 81 1 -8.1999999999999995e-01 -3.2587759786051969e+00 -9.2750060088451391e+00 -1.2876518259657125e+01 0 3 -3
1260 420 2 4.0999999999999998e-01 -3.0900848025531324e+00 -1.2172771625784394e+01 -8.8355983883541995e+00 0 -2 -3
1437 479 2 4.0999999999999998e-01 -2.9007735640523347e+00 -6.1659338448679613e+00 -1.1267788307438083e+01 -2 -4 -5
243 81 2 4.0999999999999998e-01 -2.9011456646572267e+00 -8.3802112343038360e+00 -1.3143673626675627e+01 0 3 -3
2464 822 1 -8.1999999999999995e-01 -4.0944054971559964e+00 -6.6932131047000460e+00 -1.0234604943479811e+01 1 -4 1
1528 510 1 -8.1999999999999995e-01 -7.3130578534161472e-01 -7.5368342730189593e+00 -9.9485718446287095e+00 0 1 -4
280 94 1 -8.1999999999999995e-01 -1.2809771495531770e+00 -1.2928762788887054e+01 -1.2404357536551229e+01 -5 1 -3
797 266 2 4.0999999999999998e-01 -3.5438212253468375e+00 -1.2629038897206019e+01 -1.1885391042913366e+01 -1 3 0
2465 822 2 4.0999999999999998e-01 -4.5745338613984075e+00 -7.5650872828451146e+00 -1.0138473255651501e+01 1 -4 1
242 81 2 4.0999999999999998e-01 -2.5865186476564634e+00 -9.7455431368269885e+00 -1.2305034168863875e+01 0 3 -3
2102 701 2 4.0999999999999998e-01 -6.7752956315106179e+00 -1.2733064250725544e+01 -1.3717946933185489e+01 -4 -4 -3
2466 822 2 4.0999999999999998e-01 -4.1659702403268533e+00 -6.1774107121209756e+00 -9.3809331532045910e+00 1 -4 1
798 266 2 4.0999999999999998e-01 -5.1174667986371265e+00 -1.2974622155791796e+01 -1.2151190421005881e+01 -1 3 0
1499 500 2 4.0999999999999998e-01 -5.6301358253531717e+00 -9.9270099021550600e+00 -9.6159337444608326e+00 1 0 -5
281 94 2 4.0999999999999998e-01 -9.2350224165780581e-01 -1.2449024848684886e+01 -1.1603113300376567e+01 -5 1 -3
2118 706 2 4.0999999999999998e-01 -7.0110772917612501e+00 -8.7374425013303707e+00 -1.4426441331962101e+01 0 1 0
2480 827 2 4.0999999999999998e-01 -5.3156301707211639e-02 -7.2064328230891377e+00 -1.4307196481192957e+01 -2 2 2
1002 334 2 4.0999999999999998e-01 -3.6648560030231732e+00 -9.8154164256445338e+00 -8.8518668707574584e+00 2 6 -4
1376 459 2 4.0999999999999998e-01 -1.3276324296819908e-01 -1.3860414488090912e+01 -1.0158901999454471e+01 -2 -1 -1
750 250 2 4.0999999999999998e-01 -1.0313755431565554e+01 -7.9164547505445286e+00 -4.1932724247314717e+00 2 -6 -2
1004 335 2 4.0999999999999998e-01 -1.2637611736420293e+01 -9.5353998985616713e+00 -5.0818617213742066e+00 1 3 -1
748 250 1 -8.1999999999999995e-01 -9.7725812861809800e+00 -7.8686432209847359e+00 -5.0327804493517156e+00 2 -6 -2
749 250 2 4.0999999999999998e-01 -8.8242634679207086e+00 -7.6470044664467745e+00 -4.8058471129141065e+00 2 -6 -2
2555 852 2 4.0999999999999998e-01 -7.6197634692515299e+00 -6.4721533609702302e+00 -3.2780989044564279e+00 4 6 1
1780 594 1 -8.1999999999999995e-01 -1.0137526570508625e+01 -5.6998260302001960e+00 -7.2911368089285702e+00 -1 2 -3
832 278 1 -8.1999999999999995e-01 -1.3760840507633217e+01 -6.8717905399460637e+00 -2.1012741043409395e+00 0 0 -2
1784 595 2 4.0999999999999998e-01 -8.8139358101662069e+00 -1.1678678596665886e+01 -2.7780296840940579e+00 -2 5 -3
1783 595 1 -8.1999999999999995e-01 -8.9002569785874073e+00 -1.1001162583021832e+01 -3.5084061900712999e+00 -2 5 -3
1785 595 2 4.0999999999999998e-01 -9.2376329999437097e+00 -1.0140704463863905e+01 -3.1266753610127562e+00 -2 5 -3
1427 476 2 4.0999999999999998e-01 -1.4467236826095426e+01 -5.0557889566880760e+00 -4.1608396949784989e+00 -4 -1 0
570 190 2 4.0999999999999998e-01 -1.1360916907286944e+01 -1.3454432665584042e+01 -6.8296805577819359e+00 3 0 0
1981 661 1 -8.1999999999999995e-01 -1.3728696120917716e+01 -1.2189075958879583e+01 -2.4024297991254890e+00 4 5 2
620 207 2 4.0999999999999998e-01 -1.0835474625511402e+01 -1.1443335845970033e+01 -1.3415201577700522e+00 3 2 2
619 207 1 -8.1999999999999995e-01 -1.1492486664754205e+01 -1.0818189770639901e+01 -1.7627762493327968e+00 3 2 2
1003 335 1 -8.1999999999999995e-01 -1.3028220433474797e+01 -1.0124208640757701e+01 -5.7894338241240426e+00 1 3 -1
1781 594 2 4.0999999999999998e-01 -1.0305786018750005e+01 -6.1820576900861859e+00 -6.4314447016887826e+00 -1 2 -3
40 14 1 -8.1999999999999995e-01 -9.3802250924313526e+00 -1.2637719200006174e+01 -1.1306212606928892e+00 -1 3 -4
2564 855 2 4.0999999999999998e-01 -8.2382493870329654e+00 -1.0074374442334863e+01 -6.5173483481586096e+00 5 0 -1
41 14 2 4.0999999999999998e-01 -9.3164574118961347e+00 -1.3616815206290271e+01 -1.3235819386447396e+00 -1 3 -4
42 14 2 4.0999999999999998e-01 -8.6123687500852348e+00 -1.2361176524675855e+01 -5.5282377677278838e-01 -1 3 -4
2529 843 2 4.0999999999999998e-01 -1.1383704075853304e+01 -1.1204682409081650e+01 -5.8430875122962789e+00 3 -2 6
2477 826 2 4.0999999999999998e-01 -1.0392979353337298e+01 -9.5438149922420514e+00 -1.5876973598018456e+00 -1 -4 3
2527 843 1 -8.1999999999999995e-01 -1.0855485397802296e+01 -1.1948707608277605e+01 -5.4340145890996077e+00 3 -2 6
2528 843 2 4.0999999999999998e-01 -1.0280862013607811e+01 -1.1585500618851860e+01 -4.7006539796489974e+00 3 -2 6
2565 855 2 4.0999999999999998e-01 -8.1027206879698390e+00 -1.0714562465220180e+01 -5.0212772388797262e+00 5 0 -1
141 47 2 4.0999999999999998e-01 -1.1244142351025125e+01 -1.4511771331950946e+01 -3.2959619527719237e+00 3 -5 -4
757 253 1 -8.1999999999999995e-01 -1.2235995168970430e+01 -8.6277164036852909e+00 -3.5599995630464321e+00 10 0 0
1226 409 2 4.0999999999999998e-01 -1.3647396517107454e+01 -9.0913391353536284e+00 -7.1227635624102987e+00 3 0 0
621 207 2 4.0999999999999998e-01 -1.2410392957519669e+01 -1.1210627033543103e+01 -1.7047230519696885e+00 3 2 2
760 254 1 -8.1999999999999995e-01 -1.3215170369860120e+01 -1.4947858796837281e+01 -2.4978127670308385e+00 -1 2 1
1982 661 2 4.0999999999999998e-01 -1.3457778344251249e+01 -1.3150920895702686e+01 -2.3651870577786589e+00 4 5 2
139 47 1 -8.1999999999999995e-01 -1.0824130704373381e+01 -1.4488647152254607e+01 -4.2031469450296584e+00 3 -5 -4
2476 826 1 -8.1999999999999995e-01 -9.4651683434122944e+00 -9.1832783894081693e+00 -1.4922549855768743e+00 -1 -4 3
833 278 2 4.0999999999999998e-01 -1.3122843003760098e+01 -6.1675278024883298e+00 -1.7899827371337995e+00 0 0 -2
2393 798 2 4.0999999999999998e-01 -1.4190941169628097e+01 -8.2529591816409038e+00 -1.1132799966775249e+00 1 3 0
81 27 2 4.0999999999999998e-01 -8.0193643499357172e+00 -9.1565573212960665e+00 -4.4953703914542409e-01 -5 -1 0
759 253 2 4.0999999999999998e-01 -1.2749743984154199e+01 -7.9444357105587571e+00 -3.0412329614865214e+00 10 0 0
1005 335 2 4.0999999999999998e-01 -1.3787455326820238e+01 -1.0649007256570243e+01 -5.4046247752759626e+00 1 3 -1
2478 826 2 4.0999999999999998e-01 -9.5073429377973877e+00 -8.2261492735825748e+00 -1.2058037334760421e+00 -1 -4 3
682 228 1 -8.1999999999999995e-01 -1.3820577255630772e+01 -1.4809282232691316e+01 -5.7242601045420045e+00 2 0 -1
758 253 2 4.0999999999999998e-01 -1.2153672338849979e+01 -9.4645119123382386e+00 -3.0187737738887854e+00 10 0 0
1983 661 2 4.0999999999999998e-01 -1.3966863875555822e+01 -1.1946056821718191e+01 -3.3427206888440644e+00 4 5 2
2563 855 1 -8.1999999999999995e-01 -7.5951394853750225e+00 -1.0376606237070352e+01 -5.8137897315738662e+00 5 0 -1
834 278 2 4.0999999999999998e-01 -1.4524011256925068e+01 -6.4408643556667879e+00 -2.5827324803123730e+00 0 0 -2
140 47 2 4.0999999999999998e-01 -1.0859913879043583e+01 -1.3556494760332928e+01 -4.5633421785343540e+00 3 -5 -4
420 140 2 4.0999999999999998e-01 -1.1039812786799418e+01 -5.6314645640796108e+00 -2.5462013517277526e-01 3 -2 0
683 228 2 4.0999999999999998e-01 -1.2955797737114638e+01 -1.4704418911171667e+01 -6.2152684434753187e+00 2 0 -1
2392 798 1 -8.1999999999999995e-01 -1.4712732730919443e+01 -8.5489239274145561e+00 -3.1323777578409739e-01 1 3 0
2105 702 2 4.0999999999999998e-01 -9.4075953569429238e+00 -8.3761945747323150e+00 -6.8668837549006465e+00 1 -8 4
205 69 1 -8.1999999999999995e-01 -9.4274999868406013e+00 -6.6754677785610053e+00 -4.6843077166349723e-01 5 2 0
207 69 2 4.0999999999999998e-01 -9.0153616484572581e+00 -6.0435650253361342e+00 -1.1247615060785652e+00 5 2 0
418 140 1 -8.1999999999999995e-01 -1.1976866001171784e+01 -5.4434566030375198e+00 -5.4875176974515405e-01 3 -2 0
337 113 1 -8.1999999999999995e-01 -7.4661386695633425e-01 -5.0251451322415619e+00 -3.9885504004853392e+00 -4 0 -3
1230 410 2 4.0999999999999998e-01 -5.6129719377389797e+00 -1.4870075705864325e+01 -6.5031997089012812e+00 5 2 -6
1750 584 1 -8.1999999999999995e-01 -7.8142051749621011e-01 -1.0324227937392788e+01 -2.9274427336307163e-01 4 -6 -1
2554 852 1 -8.1999999999999995e-01 -7.3552074492593640e+00 -7.1439096476990827e+00 -3.9699679152491605e+00 4 6 1
923 308 2 4.0999999999999998e-01 -3.8798228834856374e-01 -8.4858188914321460e+00 -6.8213435532069209e+00 3 -2 2
1351 451 1 -8.1999999999999995e-01 -5.4735795699154508e+00 -1.1647130316614554e+01 -6.9547445407923423e+00 0 7 -4
416 139 2 4.0999999999999998e-01 -1.1947066086319040e+00 -6.6172975843295596e+00 -5.9034065100039275e+00 2 -1 -3
1353 451 2 4.0999999999999998e-01 -4.8305730081400782e+00 -1.1744284591316049e+01 -6.1951178211894522e+00 0 7 -4
1228 410 1 -8.1999999999999995e-01 -6.2497955442972817e+00 -1.4668944151399737e+01 -5.7589343096642338e+00 5 2 -6
415 139 1 -8.1999999999999995e-01 -4.4720392747671589e-01 -6.6353640855294564e+00 -6.5673662102686059e+00 2 -1 -3
581 194 2 4.0999999999999998e-01 -1.7941433507819369e+00 -1.2783414972603882e+01 -6.7902036632842488e+00 4 6 3
1269 423 2 4.0999999999999998e-01 -2.0085950119745526e+00 -6.3119820005648020e+00 -2.9094495472720006e-01 -2 3 -3
1281 427 2 4.0999999999999998e-01 -5.8321091516673196e+00 -6.9984323130840664e+00 -6.3076276727438625e+00 2 -1 -1
600 200 2 4.0999999999999998e-01 -6.3216001832381394e+00 -1.2013990803334993e+01 -1.7305858837526422e-01 -3 -1 1
818 273 2 4.0999999999999998e-01 -6.5531641325720393e+00 -9.0391925977669523e+00 -1.6186342084876610e+00 2 0 -1
1280 427 2 4.0999999999999998e-01 -6.4333220383759731e+00 -8.5166417220697337e+00 -6.3121804365961882e+00 2 -1 -1
2556 852 2 4.0999999999999998e-01 -6.7918069568466652e+00 -7.8536515648452339e+00 -3.5471494770050676e+00 4 6 1
1279 427 1 -8.1999999999999995e-01 -5.6821317016131623e+00 -7.9350262728749863e+00 -6.6242151617846403e+00 2 -1 -1
1392 464 2 4.0999999999999998e-01 -1.0694691892849306e+00 -1.0496098040434543e+01 -3.8479043514707971e+00 2 6 -5
1391 464 2 4.0999999999999998e-01 -2.6293106948928902e-01 -1.1458284723203526e+01 -2.8038111904501530e+00 2 6 -5
265 89 1 -8.1999999999999995e-01 -3.1832415589038359e+00 -1.1829664798857799e+01 -5.0880710591122131e+00 -1 -2 4
676 226 1 -8.1999999999999995e-01 -3.8031520817223310e+00 -7.4667081514562454e+00 -3.3092282915680364e+00 1 5 1
580 194 1 -8.1999999999999995e-01 -8.6602717792469264e-01 -1.3125958490017844e+01 -6.6446240076831184e+00 4 6 3
1393 465 1 -8.1999999999999995e-01 -3.3708124707473228e+00 -9.0694338082182675e+00 -5.4584076622365654e+00 3 0 -5
1395 465 2 4.0999999999999998e-01 -4.0955394876454658e+00 -8.8465937849107483e+00 -6.1103602800843877e+00 3 0 -5
582 194 2 4.0999999999999998e-01 -8.7519130307124549e-01 -1.3816368992561808e+01 -5.9213132197019522e+00 4 6 3
266 89 2 4.0999999999999998e-01 -3.1060460423956862e+00 -1.0889117603500971e+01 -5.4187385199181808e+00 -1 -2 4
720 240 2 4.0999999999999998e-01 -1.9223303644995049e+00 -7.4763546752630932e+00 -2.2194675317326720e+00 0 4 -2
347 116 2 4.0999999999999998e-01 -3.0191945216587541e+00 -9.3817627324919126e+00 -1.1709657666639348e+00 3 -5 -1
718 240 1 -8.1999999999999995e-01 -1.3100800373112218e+00 -7.5134754333931166e+00 -1.4297202780929883e+00 0 4 -2
817 273 1 -8.1999999999999995e-01 -5.8496178548222559e+00 -8.9374570643245406e+00 -2.3219134092638605e+00 2 0 -1
1390 464 1 -8.1999999999999995e-01 -1.1391150425406416e+00 -1.1016831491543567e+01 -2.9970722551956293e+00 2 6 -5
510 170 2 4.0999999999999998e-01 -4.3631236245459331e+00 -1.1837030182810608e+01 -9.9607705831092197e-01 1 3 1
1229 410 2 4.0999999999999998e-01 -7.1689282369089433e+00 -1.4542168591830974e+01 -6.1318313590623816e+00 5 2 -6
819 273 2 4.0999999999999998e-01 -5.0674370943770946e+00 -9.5185944999874259e+00 -2.0974102266200028e+00 2 0 -1
348 116 2 4.0999999999999998e-01 -2.7325589593485269e+00 -1.0547504703172429e+01 -2.2779089538224468e+00 3 -5 -1
922 308 1 -8.1999999999999995e-01 -7.4996756264029507e-01 -9.4179589109807544e+00 -6.8180606635651664e+00 3 -2 2
346 116 1 -8.1999999999999995e-01 -3.4418654817707974e+00 -1.0074199926577425e+01 -1.7556102121366308e+00 3 -5 -1
267 89 2 4.0999999999999998e-01 -2.5766024939702898e+00 -1.1958004290366835e+01 -4.3035666646682280e+00 -1 -2 4
719 240 2 4.0999999999999998e-01 -3.6218852852017491e-01 -7.4373618306712395e+00 -1.7389734966594599e+00 0 4 -2
677 226 2 4.0999999999999998e-01 -4.5473888733678471e+00 -7.7844711399001918e+00 -2.7218038778358995e+00 1 5 1
678 226 2 4.0999999999999998e-01 -3.8275447323122123e+00 -6.4687508495692416e+00 -3.3676692471634091e+00 1 5 1
509 170 2 4.0999999999999998e-01 -5.0099736002596398e+00 -1.2910974424541838e+01 -2.0423401016595246e+00 1 3 1
417 139 2 4.0999999999999998e-01 -5.0199217449852718e-01 -5.8267037542901523e+00 -7.1530246994107127e+00 2 -1 -3
508 170 1 -8.1999999999999995e-01 -5.0629610829926879e+00 -1.2541362713946212e+01 -1.1147040322434254e+00 1 3 1
1394 465 2 4.0999999999999998e-01 -3.2455781075174848e+00 -8.3055967349574047e+00 -4.8253212457094694e+00 3 0 -5
658 220 1 -8.1999999999999995e-01 -5.0363740879859389e+00 -1.3415032892812448e+01 -3.6441766964480653e+00 -1 -2 -3
659 220 2 4.0999999999999998e-01 -5.7737056247688727e+00 -1.3600825302492561e+01 -4.2936014740064383e+00 -1 -2 -3
660 220 2 4.0999999999999998e-01 -4.3375852141804128e+00 -1.2852059251573031e+01 -4.0854067312059374e+00 -1 -2 -3
1752 584 2 4.0999999999999998e-01 -1.0237686309671865e+00 -1.0471959733946196e+01 -1.2515830827889989e+00 4 -6 -1
1352 451 2 4.0999999999999998e-01 -6.3170220922846809e+00 -1.1222878794208231e+01 -6.6252835905651715e+00 0 7 -4
1062 354 2 4.0999999999999998e-01 -5.6762640568687406e+00 -1.3965739679821828e+01 -5.5224093330714652e-03 -1 5 5
1867 623 1 -8.1999999999999995e-01 -3.4049891939885271e+00 -1.4949312736250398e+01 -1.1166542529677770e-01 7 1 3
924 308 2 4.0999999999999998e-01 -1.5882739777826060e-02 -1.0059804769454148e+01 -6.5965149679756347e+00 3 -2 2
1018 340 1 -8.1999999999999995e-01 -9.9269874495841108e+00 -1.4254451865542697e+01 1.3342409797180927e+00 2 3 0
2483 828 2 4.0999999999999998e-01 -1.1403781385201480e+01 -9.5760107526433629e+00 2.3051639965364608e+00 6 0 0
739 247 1 -8.1999999999999995e-01 -1.2322266402664965e+01 -8.6051383947193063e+00 1.1734867336181374e+00 1 -3 2
2484 828 2 4.0999999999999998e-01 -1.1268988645323608e+01 -1.0931643405984730e+01 3.2054576862464330e+00 6 0 0
2482 828 1 -8.1999999999999995e-01 -1.0761766571237668e+01 -1.0197878738564368e+01 2.7535236541005617e+00 6 0 0
1698 566 2 4.0999999999999998e-01 -7.7823963057007708e+00 -1.4827555928277286e+01 7.3091293239783610e+00 -1 1 0
2273 758 2 4.0999999999999998e-01 -1.0433383925573906e+01 -9.0586102957919685e+00 5.4185406976118067e+00 4 3 -7
2533 845 1 -8.1999999999999995e-01 -9.9544777617132247e+00 -1.2906802872149175e+01 5.4527316140074049e+00 1 -8 2
2534 845 2 4.0999999999999998e-01 -1.0810420481881117e+01 -1.2413973313121396e+01 5.2964939626380065e+00 1 -8 2
2535 845 2 4.0999999999999998e-01 -9.2202727144989325e+00 -1.2473631830566887e+01 4.9300128426495178e+00 1 -8 2
1841 614 2 4.0999999999999998e-01 -1.1689829407782225e+01 -6.7912858768911661e+00 5.3061177784078097e+00 1 -3 -10
240 80 2 4.0999999999999998e-01 -1.1403298053873932e+01 -1.3486470425330232e+01 2.3649174927641816e+00 4 -4 -1
1595 532 2 4.0999999999999998e-01 -1.2196632642152498e+01 -1.0261784103019131e+01 5.4859207568485644e+00 -1 0 -9
2274 758 2 4.0999999999999998e-01 -1.0088412159360789e+01 -8.3454342900174616e+00 3.9906709723879032e+00 4 3 -7
2272 758 1 -8.1999999999999995e-01 -1.0483504002721526e+01 -8.2059111627877002e+00 4.8986163877895841e+00 4 3 -7
238 80 1 -8.1999999999999995e-01 -1.2170293067886222e+01 -1.2945494420094924e+01 2.7098707241181117e+00 4 -4 -1
72 24 2 4.0999999999999998e-01 -9.1804697362210845e+00 -9.3819678526778638e+00 2.5015132140139613e+00 2 3 -6
869 290 2 4.0999999999999998e-01 -1.4360453443244836e+01 -1.1888356823917137e+01 4.4572404795693679e+00 0 0 -6
70 24 1 -8.1999999999999995e-01 -8.4388964120689902e+00 -8.7628677446838346e+00 2.7598023529135638e+00 2 3 -6
1696 566 1 -8.1999999999999995e-01 -7.8018255917521397e+00 -1.4448082961538949e+01 6.3841688449795910e+00 -1 1 0
740 247 2 4.0999999999999998e-01 -1.1962423538979403e+01 -7.6790548889564860e+00 1.0602984194017324e+00 1 -3 2
1840 614 1 -8.1999999999999995e-01 -1.2196155138546356e+01 -5.9429885370894695e+00 5.1513436510970223e+00 1 -3 -10
71 24 2 4.0999999999999998e-01 -7.9045399039202797e+00 -9.1729326200217436e+00 3.4988822191806648e+00 2 3 -6
239 80 2 4.0999999999999998e-01 -1.2664075927052606e+01 -1.2539254713197170e+01 1.9410554644988309e+00 4 -4 -1
1842 614 2 4.0999999999999998e-01 -1.2788696645014149e+01 -6.0494438133623927e+00 4.3529133169806116e+00 1 -3 -10
1302 434 2 4.0999999999999998e-01 -8.6630113735628846e+00 -7.0222108182199943e+00 2.3054504415456911e+00 2 -4 -3
1594 532 1 -8.1999999999999995e-01 -1.2994456144516169e+01 -1.0852339950197759e+01 5.3648811471592381e+00 -1 0 -9
1300 434 1 -8.1999999999999995e-01 -9.0930889517319642e+00 -6.1197361979681073e+00 2.3278552435150210e+00 2 -4 -3
1501 501 1 -8.1999999999999995e-01 -1.4207414629426946e+01 -5.4110587735617006e+00 6.9354153540115924e+00 1 -2 -4
206 69 2 4.0999999999999998e-01 -9.2508495614584678e+00 -6.3524553816580056e+00 4.6129324801955107e-01 5 2 0
1596 532 2 4.0999999999999998e-01 -1.3778753985139089e+01 -1.0454732908815924e+01 5.8410267847396433e+00 -1 0 -9
80 27 2 4.0999999999999998e-01 -7.7076438722341551e+00 -8.8243906000168284e+00 1.1185615215488198e+00 -5 -1 0
741 247 2 4.0999999999999998e-01 -1.3135014628773767e+01 -8.7190518826872534e+00 6.0217841932729499e-01 1 -3 2