2611
Atoms. Timestep: 23000000
O -12.5205 -14.1386 1.35943
H -12.0261 -13.3152 1.08089
H -13.1614 -13.9106 2.09244
O 9.35643 -0.0568124 10.1646
H 10.2435 -0.165783 10.6133
H 9.48252 0.397718 9.28287
O -3.81969 -14.2549 4.29846
H -4.41412 14.9229 4.6471
H -3.09148 -14.6587 3.74469
O -8.60416 -11.1801 -11.7743
H -8.7775 -11.5934 -10.8804
H -9.30588 -10.494 -11.9661
O -12.0404 3.66477 -0.0948416
H -12.3929 4.25377 -0.822093
H -11.1305 3.97838 0.176514
O -8.85156 12.8608 -2.76726
H -9.37884 13.1524 -3.56535
H -8.40861 11.9856 -2.96203
O 7.1052 4.20231 8.28378
H 7.20905 4.41749 7.31274
H 7.05517 3.21057 8.40192
O 12.9625 -9.72365 -13.1856
H 13.3802 -10.6311 -13.2308
H 12.9735 -9.30606 -14.0942
O 2.30336 4.62148 1.55116
H 1.45155 4.28775 1.95498
H 2.74588 3.88016 1.04654
O 9.1438 8.18201 2.27619
H 9.41384 8.8408 2.97839
H 8.85578 8.67146 1.45309
O 9.68957 6.86252 -8.83952
H 10.0392 5.92696 -8.78956
H 9.36356 7.14513 -7.93738
O 5.78297 8.0759 7.17586
H 5.7296 7.50404 6.35723
H 5.17073 8.86014 7.0751
O -4.12581 -4.17657 8.5371
H -5.07073 -4.23515 8.21505
H -3.67215 -5.05733 8.40124
O -12.1153 -12.1714 -1.85101
H -11.7173 -12.0858 -0.937591
H -11.4654 -11.8315 -2.53086
O -0.593591 10.8286 4.10855
H -0.195496 11.4508 3.43436
H -0.0702825 9.97667 4.12579
O -11.9115 -6.70597 14.163
H -11.3392 -7.22569 13.5287
H -11.3491 -6.03498 14.6462
O -5.12234 9.14919 -6.86858
H -4.72252 8.61165 -7.61102
H -5.39881 10.0448 -7.21699
O -5.69924 11.3815 -8.49758
H -4.70831 11.4726 -8.59649
H -6.15332 12.119 -8.9976
O 14.3297 0.672388 10.4193
H 14.4968 1.56204 9.9943
H -14.6991 0.243565 10.6493
O -12.7385 4.14582 -13.0266
H -11.7512 4.14066 -13.1853
H -13.2124 3.87786 -13.8654
O 11.6389 10.7312 12.4058
H 11.0644 9.97908 12.0828
H 11.5929 10.781 13.4035
O -6.6441 -4.61283 8.02589
H -6.88948 -5.58183 7.99661
H -7.21014 -4.14604 8.70539
O -3.82089 -9.17326 7.2198
H -3.58091 -10.144 7.21968
H -4.34093 -8.95856 8.04652
O -9.8238 -8.116 3.21421
H -10.7583 -7.86059 3.46228
H -9.80818 -8.44768 2.27094
O 2.45377 -4.10782 8.2224
H 1.65763 -3.54172 8.43618
H 2.20768 -5.07361 8.30422
O 1.65289 5.30529 -7.05702
H 1.80665 5.4124 -6.07473
H 1.30443 6.1629 -7.43531
O -10.5606 -6.18092 -0.0101736
H -11.5373 -6.39571 -0.00312829
H -10.4318 -5.22321 -0.267515
O -2.39257 3.00652 -11.8926
H -3.05758 3.1691 -12.6215
H -1.49174 3.32684 -12.1857
O -10.2259 8.7103 4.72008
H -10.4035 9.15494 3.84214
H -10.1171 9.40605 5.43009
O -7.72869 11.3072 -12.3017
H -6.81624 10.9533 -12.5071
H -7.96964 12.0139 -12.9669
O -0.0960417 0.541833 8.08458
H -0.926347 1.09652 8.03042
H 0.450118 0.835077 8.86927
O 14.5699 -1.79993 4.24273
H 14.731 -1.98366 3.27303
H 13.6625 -1.39608 4.35923
O -7.89119 -4.03614 -6.12084
H -7.84715 -4.07292 -7.1192
H -7.38162 -4.80579 -5.73615
O 2.82735 -7.20201 -9.87012
H 1.84529 -7.33525 -9.73664
H 3.2813 -8.09188 -9.9157
O 10.4202 12.6329 8.17098
H 10.9812 13.2547 7.62456
H 10.4731 12.8957 9.13438
O -11.0666 10.3251 -5.38953
H -11.6305 10.848 -4.75027
H -10.4476 10.945 -5.87192
O 5.94963 14.5791 8.3625
H 6.48033 13.752 8.54802
H 5.76521 -14.846 9.22162
O -3.23377 0.90961 7.1471
H -3.13204 0.732383 8.126
H -4.09507 0.516663 6.82496
O -10.4011 7.44164 2.02551
H -11.0483 7.73728 1.3229
H -9.58001 8.01089 1.98303
O 7.23139 -11.0298 -2.37233
H 7.33335 -11.4857 -1.48816
H 7.67213 -11.5782 -3.08294
O 3.69144 2.14731 10.0269
H 3.83829 1.70862 9.1403
H 2.7188 2.11616 10.2571
O 4.73401 8.61869 -7.90778
H 5.09774 9.42794 -8.36911
H 3.94992 8.26749 -8.41953
O -9.17315 -3.27025 3.6084
H -8.55738 -3.13851 4.38524
H -9.60825 -2.40019 3.37667
O -5.74329 8.07045 -11.4429
H -6.67986 8.22874 -11.1301
H -5.13663 7.99135 -10.6519
O -3.80059 6.38787 2.99954
H -3.47289 6.00973 3.86536
H -4.59465 5.86633 2.68732
O 9.10761 -13.3271 -6.8247
H 8.91925 -13.2677 -7.80501
H 9.80634 -12.6555 -6.57823
O -11.4776 -14.5192 -3.03575
H -12.2881 14.9075 -2.69398
H -11.1845 -13.8369 -2.36601
O -4.7045 -3.73578 -0.183242
H -4.21991 -2.89068 0.0425615
H -4.04306 -4.47382 -0.316695
O 4.37409 2.51899 -5.7204
H 4.63568 3.22227 -5.05936
H 4.59433 2.83162 -6.6444
O 12.7293 2.48458 -11.2573
H 12.1472 1.67197 -11.2283
H 13.18 2.54018 -12.1482
O -0.542583 9.00575 -0.312172
H 0.107071 9.53663 0.232004
H -1.34804 8.79555 0.241961
O 2.51994 7.60304 -9.18081
H 1.77756 7.677 -8.51491
H 2.2464 8.04455 -10.0354
O 1.32067 -13.8825 12.3014
H 1.66937 -13.3485 13.0716
H 0.431642 -13.521 12.0205
O 14.1693 -3.42915 -10.3462
H 14.9361 -3.73367 -10.9113
H 13.3089 -3.6399 -10.8103
O -0.649618 3.45696 10.5867
H -0.106826 4.0806 10.0242
H -1.60393 3.48469 10.2892
O -13.1079 4.73704 -6.26589
H -12.52 5.02634 -7.0213
H -12.549 4.57019 -5.45358
O 12.4006 -1.21636 -13.5875
H 13.2113 -1.6076 -14.0231
H 11.7095 -1.02156 -14.2835
O -2.76343 -9.37396 10.6071
H -2.39349 -9.22375 11.524
H -3.19215 -10.2764 10.5644
O 6.92235 5.97095 0.233231
H 6.08595 6.37077 0.608189
H 6.84394 4.97402 0.232394
O 0.961778 -14.1653 -0.751677
H 1.82455 -14.3479 -0.28017
H 0.550941 14.8727 -1.0415
O -8.29111 -9.77863 11.1712
H -7.54034 -9.14415 10.9873
H -8.34936 -10.4493 10.4317
O -0.704011 -1.26323 5.97158
H -0.531377 -0.673563 6.76057
H -0.506635 -0.760322 5.13007
O 5.95287 -12.223 2.13415
H 5.44814 -12.9532 2.59472
H 5.54208 -12.0469 1.23959
O -5.10571 -1.24685 -5.16785
H -5.81536 -0.584289 -4.92821
H -5.29276 -2.11592 -4.70987
O -7.19587 7.67931 3.82674
H -8.16446 7.76823 4.059
H -6.645 7.76199 4.65723
O -11.1998 -14.8471 9.38177
H -11.3205 -14.0449 8.79704
H -12.0431 14.8843 9.89128
O -0.413423 -9.11841 7.07766
H -1.01696 -8.94302 7.85547
H -0.879121 -9.71245 6.42172
O -2.97889 -6.44629 7.51264
H -3.41005 -7.33972 7.38655
H -2.27549 -6.3141 6.81423
O -10.0896 -3.488 -0.773955
H -9.10289 -3.62318 -0.864499
H -10.3891 -2.78005 -1.41357
O -1.55937 -11.1556 5.58591
H -0.75054 -11.6628 5.28821
H -1.87553 -10.5662 4.8425
O -12.8316 -9.14798 7.6167
H -13.3579 -8.40872 8.03682
H -12.5071 -9.77187 8.32766
O -11.4111 14.1835 -10.8721
H -11.3849 13.4696 -11.5718
H -11.8275 -14.8936 -11.2535
O -4.38863 9.20414 -3.9725
H -5.19371 9.06886 -3.39496
H -4.6706 9.25604 -4.93053
O -0.914723 5.8293 -10.9373
H -1.85945 6.15037 -11.0038
H -0.654532 5.75629 -9.97447
O 8.61859 -5.32709 -6.85537
H 7.78002 -4.83388 -7.08677
H 8.50181 -5.78894 -5.97612
O 7.01334 -8.32729 8.56814
H 6.02884 -8.43157 8.70926
H 7.19226 -7.46759 8.08967
O 5.8418 0.959333 -3.70475
H 6.75635 1.11041 -4.07997
H 5.15576 1.20584 -4.3893
O -10.5012 -10.3781 -14.8117
H -10.4493 -9.37952 -14.8239
H -9.79172 -10.756 14.4959
O 2.75897 10.0911 -12.4043
H 2.89997 10.1691 -11.4173
H 2.65986 11.0042 -12.8
O -13.649 -10.6666 1.29104
H -14.4872 -11.1219 1.59128
H -13.7886 -10.2781 0.380209
O -2.58182 -10.1549 -13.7122
H -2.57283 -11.0554 -14.1471
H -1.64307 -9.82788 -13.6035
O -14.6925 10.8895 1.39084
H 14.6359 11.1823 2.15555
H -13.7338 11.0812 1.60123
O -2.99977 11.5402 -4.7428
H -3.70766 12.1501 -5.09901
H -3.38752 10.6305 -4.59425
O -12.9472 4.02372 8.80216
H -12.3843 3.28186 8.43771
H -12.3556 4.75306 9.14581
O 9.30365 -3.99808 2.26582
H 9.73062 -4.8891 2.11152
H 8.53415 -4.10186 2.89599
O -10.6837 7.66281 -9.41138
H -11.3267 8.15913 -9.99463
H -9.75758 7.76409 -9.77478
O 5.73234 -13.3768 -10.8486
H 5.11982 -13.3935 -10.0583
H 5.48466 -14.1134 -11.4779
O -11.5966 0.747243 -1.53865
H -11.0702 1.48839 -1.95538
H -11.9436 1.04417 -0.649028
O -3.09527 -10.3272 -3.89929
H -3.33977 -9.45149 -4.31572
H -2.58756 -10.8802 -4.5599
O -7.98726 -3.20659 -3.41608
H -8.31771 -3.97021 -2.86136
H -7.60408 -3.55679 -4.27079
O 13.304 -0.841814 8.15393
H 13.0768 -1.67471 8.65857
H 13.5864 -0.129426 8.79639
O 14.2967 -1.54551 -8.32769
H 14.1318 -2.17971 -7.57231
H 14.4544 -2.06282 -9.16885
O 8.01105 -6.61216 -12.3517
H 8.28324 -6.01973 -11.5934
H 7.93698 -7.55535 -12.0278
O -1.46101 -12.8804 -12.3617
H -0.76586 -12.4635 -11.776
H -1.02954 -13.5499 -12.9664
O -13.3374 6.80717 -14.688
H -13.1987 7.35981 -13.8662
H -12.6204 6.11263 -14.7476
O 11.1388 -13.9561 12.1228
H 11.135 -12.9826 12.3516
H 12.0515 -14.3324 12.2822
O -14.2436 13.1334 -11.8744
H -14.0563 12.2663 -11.4129
H -14.501 12.9566 -12.8244
O -8.49678 -7.87764 0.289484
H -9.3527 -7.39828 0.0954946
H -8.02081 -7.41935 1.04011
O -8.27893 -8.38444 -10.3282
H -8.11857 -9.08823 -9.63613
H -8.69765 -7.58416 -9.89899
O 0.241283 -10.402 -3.36597
H 1.17776 -10.7226 -3.22375
H -0.375746 -10.8911 -2.74951
O 4.54993 3.41857 -11.1584
H 4.62122 3.24842 -12.1413
H 4.42823 2.55013 -10.6778
O 2.13383 -11.0368 -13.6004
H 2.42493 -10.12 -13.3268
H 1.712 -11.4991 -12.8204
O -11.9725 -5.55705 -10.7955
H -11.7976 -4.6712 -10.3657
H -11.4143 -6.2585 -10.3524
O 13.9002 2.76437 6.5024
H 13.0883 3.33607 6.38436
H 14.1867 2.78591 7.46026
O -0.203395 -8.51773 10.1227
H -1.19014 -8.67988 10.1147
H 0.20003 -8.95673 10.9255
O 12.3205 4.48281 -5.05564
H 12.3159 3.83979 -4.28979
H 13.0538 4.23972 -5.69061
O 0.53761 -10.8197 1.37924
H 1.41123 -10.4312 1.08616
H -0.21192 -10.3178 0.947627
O -9.55726 -1.15176 -8.0758
H -10.1814 -0.493986 -8.4974
H -8.74615 -1.25753 -8.65107
O -6.24451 5.39383 2.51797
H -6.59796 6.16767 3.04357
H -6.98892 4.97787 1.99562
O -13.0125 7.50574 4.44866
H -13.2418 6.82507 5.14448
H -12.0253 7.66482 4.45053
O -3.262 12.6623 -1.20115
H -3.51772 13.0962 -2.06506
H -3.69567 13.1487 -0.442641
O -2.87355 5.81998 13.8644
H -2.62132 4.87012 13.6796
H -2.35717 6.4258 13.2592
O -1.89872 -2.97821 -3.51627
H -1.01641 -3.43216 -3.64072
H -2.0226 -2.28901 -4.23019
O 10.9232 3.08961 1.90792
H 11.2074 2.39541 1.24661
H 10.689 2.64855 2.77431
O -11.0472 0.920768 -8.79918
H -11.9857 0.675617 -9.04266
H -11.0584 1.69571 -8.16724
O -4.79937 -8.59569 -0.336553
H -5.11635 -9.45929 0.0555227
H -5.25526 -7.83363 0.123285
O 8.10592 13.4318 14.1431
H 7.83377 12.5418 13.7774
H 8.36582 14.0363 13.3901
O 14.6219 7.84688 13.3573
H 13.8988 8.23741 13.9271
H -14.5796 7.43834 13.9418
O 10.1242 -13.3942 -2.28313
H 10.3838 -12.4771 -1.98056
H 10.6325 -14.0753 -1.75624
O 12.9144 -0.243761 2.23439
H 13.7368 0.251117 1.9536
H 12.4071 0.303456 2.90012
O 5.87924 11.3613 10.3873
H 6.45545 11.6563 9.62512
H 6.3848 10.712 10.9555
O 0.755056 13.556 -12.2019
H 1.39971 13.2077 -12.8824
H 1.25385 14.0638 -11.4995
O -9.54132 13.8826 -0.183732
H -9.47488 14.8136 -0.54253
H -9.40536 13.2282 -0.927602
O 11.9472 14.8083 -6.52697
H 12.6806 -14.8784 -7.17159
H 11.8296 -14.3331 -5.88899
O 5.02657 2.76814 -13.8363
H 4.02672 2.77885 -13.8222
H 5.35028 3.05697 -14.7373
O 8.08202 11.4019 -8.31231
H 8.3104 12.3663 -8.44557
H 8.90302 10.8993 -8.04151
O -3.15463 -11.887 7.85796
H -2.4889 -11.6305 7.15721
H -3.56702 -12.7664 7.61997
O 1.37465 11.6128 8.05454
H 2.09242 11.5298 8.74587
H 1.33601 12.5565 7.72586
O -8.22075 2.92017 -7.28788
H -8.09543 2.66329 -8.24617
H -7.6622 2.32705 -6.70801
O 4.36009 -12.6418 -8.27865
H 5.02807 -12.5434 -7.541
H 3.47153 -12.89 -7.89277
O 9.13791 10.4681 -12.9692
H 8.89016 11.0798 -12.2179
H 9.57477 9.64756 -12.6006
O -11.5587 11.4245 13.2425
H -11.6786 12.4171 13.2241
H -12.4375 10.9794 13.0704
O 0.0271492 12.9326 2.0249
H -0.91832 13.1848 2.23103
H 0.174034 12.9695 1.03643
O -6.07534 14.2715 4.6182
H -6.7968 14.3782 5.3024
H -6.21784 13.42 4.11359
O -3.04158 -12.9929 0.000712725
H -2.60983 -12.8286 -0.886194
H -2.33606 -13.0766 0.704456
O -1.72193 3.04066 -5.53124
H -1.10397 3.6643 -5.05247
H -1.3411 2.11615 -5.51471
O 1.96405 -1.15993 10.7168
H 1.53697 -1.76199 10.0422
H 2.32428 -0.347692 10.258
O 0.806855 -10.1759 -9.62009
H 0.894108 -9.51704 -10.3673
H -0.0387278 -9.99877 -9.11649
O -0.309793 -5.09411 -6.05823
H 0.130395 -4.54288 -5.34943
H 0.339127 -5.77153 -6.40466
O -12.9434 -3.91059 0.0249905
H -13.0512 -3.45919 0.910786
H -11.9702 -4.01148 -0.181436
O -7.02317 -4.8376 -9.67786
H -7.31002 -5.24731 -10.5438
H -7.34766 -3.8928 -9.63246
O 2.19681 -7.60638 2.71717
H 1.5743 -7.17347 2.06519
H 3.08077 -7.13934 2.69452
O -12.488 -0.124072 -11.8954
H -13.1083 0.0607967 -11.1331
H -11.5844 0.250859 -11.6883
O 8.40129 14.2562 4.15164
H 7.74714 13.6638 4.62184
H 8.13496 14.3517 3.19249
O 14.1862 2.33201 -8.81589
H 13.8998 2.84824 -9.62306
H 13.5863 1.5409 -8.69612
O 10.6476 8.13477 -1.56283
H 9.72449 7.75037 -1.57388
H 11.2245 7.59874 -0.946521
O 8.59485 -9.17039 -4.16023
H 8.36102 -9.80886 -3.42696
H 9.12975 -9.64616 -4.85848
O -8.46086 8.71095 -7.49662
H -7.68477 8.57716 -6.88033
H -8.70148 9.6812 -7.52382
O -9.10439 -5.95044 10.6829
H -8.55258 -5.21203 10.2953
H -8.52846 -6.75438 10.8312
O 0.597578 14.6587 -5.74944
H 0.969091 -14.7077 -4.9914
H 0.515278 13.7015 -5.47192
O -2.5426 -2.36412 12.8115
H -3.48138 -2.09109 13.0216
H -2.49235 -2.68396 11.8653
O 13.4124 12.4799 -3.50022
H 12.9413 12.7363 -2.65624
H 12.7766 12.5436 -4.26944
O -11.8361 10.6403 2.21413
H -11.4791 11.5601 2.37733
H -12.3644 10.342 3.00906
O 13.4611 1.23392 -5.25576
H 12.4703 1.36606 -5.28276
H 13.9141 2.02402 -5.66875
O -1.55939 11.7409 13.8354
H -1.95771 12.1275 14.6672
H -2.18772 11.8787 13.0697
O 3.50053 -11.4647 -4.31396
H 4.15173 -12.1497 -4.64066
H 3.89009 -10.5514 -4.43231
O 1.82955 9.16949 4.2443
H 2.74746 8.83103 4.03719
H 1.63327 9.02821 5.21463
O -1.62263 9.7475 -8.78376
H -0.7632 9.85323 -9.28398
H -2.19027 10.5593 -8.92111
O -2.67496 -14.5484 -7.34311
H -2.94119 -13.6451 -7.0066
H -1.69246 -14.6778 -7.20906
O 6.71524 -10.9816 4.43458
H 7.49912 -11.3954 4.89751
H 6.33865 -11.6298 3.77279
O -6.34879 3.04441 -2.85206
H -6.59008 2.35958 -2.16445
H -5.35608 3.16372 -2.86961
O 4.23185 0.239907 -1.4171
H 4.85454 0.684305 -2.06113
H 4.31208 -0.752817 -1.50698
O -10.0799 10.0602 11.2524
H -10.1677 9.079 11.4242
H -10.6241 10.5659 11.9218
O 1.60091 -9.49006 12.4842
H 2.38014 -9.92403 12.9364
H 1.26854 -8.73287 13.0465
O -0.678658 -12.6953 9.81493
H -0.0690569 -11.9067 9.89618
H -1.62503 -12.3998 9.9458
O 13.8733 -3.96525 13.8479
H 14.2582 -4.88577 13.9156
H 14.0688 -3.45971 14.6883
O 6.15831 -5.10432 -4.22458
H 6.92429 -5.68549 -4.4994
H 6.33621 -4.16209 -4.50844
O 2.14858 -4.64342 -10.9036
H 2.42422 -5.49251 -10.453
H 2.29972 -4.72467 -11.8888
O 12.8433 0.459437 5.75559
H 13.2598 -0.197921 6.38359
H 13.2226 1.369 5.92528
O -6.83361 -12.787 -1.53262
H -5.96742 -12.992 -1.98839
H -6.66086 -12.5642 -0.573174
O 1.07324 -1.98438 -12.1755
H 0.255876 -1.42919 -12.0216
H 1.00961 -2.8268 -11.6405
O -8.55081 2.24908 14.432
H -8.33119 2.69849 13.5661
H -7.7058 1.95493 14.8786
O 11.5808 -0.694099 11.951
H 12.4425 -0.22765 11.7513
H 11.6808 -1.67198 11.7672
O 6.1829 -8.23447 3.92042
H 6.8361 -7.98899 3.20413
H 6.34913 -9.1756 4.21482
O -5.81957 12.5145 -5.51005
H -6.55179 11.9224 -5.17359
H -6.20018 13.1879 -6.14383
O -9.33993 -8.19857 8.74241
H -9.67945 -7.31179 9.05603
H -10.0766 -8.87316 8.78951
O 8.82329 3.42435 11.8857
H 9.7904 3.54793 12.108
H 8.64369 2.45729 11.7053
O 0.759323 -6.3659 8.65517
H 0.12294 -6.50861 7.89711
H 0.887339 -7.22583 9.14929
O 7.80047 4.11735 -5.84722
H 8.46323 4.86041 -5.94005
H 7.96433 3.43376 -6.55847
O 11.6605 -10.0426 0.797431
H 11.5158 -10.5054 -0.0771275
H 12.2586 -9.25274 0.661594
O 12.8696 13.4187 -14.6706
H 12.8266 14.2741 -14.1544
H 13.7906 13.0349 -14.6035
O -1.71478 5.51846 -7.41166
H -1.90139 4.7433 -8.01525
H -1.43003 5.1812 -6.51434
O 5.92604 13.9234 2.08878
H 5.56608 13.0699 2.46565
H 6.60347 13.7165 1.38288
O -0.757777 -5.58669 11.601
H 0.0580107 -5.83447 12.1236
H -0.695083 -5.97457 10.6814
O -10.4754 -2.08468 -13.5552
H -10.512 -1.53732 -12.7191
H -10.5075 -1.48006 -14.3511
O 7.88626 4.47052 -2.98953
H 7.92478 4.44589 -3.98849
H 8.73483 4.09782 -2.61396
O -6.85959 -0.872444 -2.54794
H -7.0451 -1.85187 -2.62747
H -7.6551 -0.355749 -2.86449
O 13.573 -12.0011 2.09702
H 13.1412 -11.3278 1.49673
H 13.1744 -11.9361 3.01186
O -12.1251 -4.74936 -6.16031
H -11.926 -4.23696 -5.32494
H -13.1018 -4.68592 -6.36552
O -13.3995 -14.3071 -5.24172
H -13.1677 -14.9082 -6.0065
H -12.6426 -14.2919 -4.5884
O -12.4548 -13.5872 -14.4504
H -11.9506 -13.8828 14.6406
H -12.7331 -12.633 -14.5602
O 11.4477 -6.78134 -9.62116
H 10.6376 -6.26828 -9.90483
H 11.9622 -7.06585 -10.4301
O -9.20607 13.4823 10.2229
H -9.36573 12.7748 9.5345
H -9.76481 14.2845 10.0123
O 1.77383 -13.2714 -7.4938
H 1.30555 -12.4309 -7.76638
H 1.23538 -13.7411 -6.79416
O -1.06744 -12.5164 -1.8823
H -0.883991 -13.0599 -2.70147
H -0.340203 -12.6671 -1.21263
O -5.60166 -3.3801 3.24981
H -5.74053 -2.62134 2.61341
H -6.16896 -3.24225 4.06171
O -5.70865 2.90573 3.7441
H -5.85515 3.81482 3.35409
H -5.52583 2.25309 3.00882
O 12.811 -3.0189 2.20229
H 12.567 -2.05289 2.28761
H 12.5657 -3.34529 1.28943
O 10.928 11.0879 14.9319
H 10.2303 10.6282 -14.4212
H 11.1757 11.9546 -14.5375
O -7.26756 -10.3066 -2.79771
H -7.46571 -10.0594 -1.84921
H -7.31054 -11.3005 -2.89908
O -5.84644 8.36331 6.51444
H -5.52864 9.19978 6.06796
H -5.25038 8.15183 7.28904
O 3.54369 13.6407 -8.99003
H 2.85191 14.1812 -9.46891
H 3.88744 14.1582 -8.20645
O 3.26966 -4.33737 5.34488
H 2.97041 -4.07496 6.26227
H 2.48996 -4.30978 4.71932
O -14.1376 10.6238 -10.2282
H -14.6363 10.9826 -9.4391
H -14.7864 10.3735 -10.9468
O -7.67061 10.6671 -4.23236
H -8.41785 10.3957 -4.83899
H -7.36981 9.8761 -3.69958
O -13.8283 0.350779 -9.34048
H -14.2469 1.17602 -8.96132
H -14.3051 -0.455676 -8.99068
O -13.9427 -9.64689 -1.62061
H -13.4691 -10.5038 -1.82392
H -14.1812 -9.1868 -2.47587
O 9.01678 -6.68611 10.8092
H 8.49274 -6.306 10.047
H 9.94903 -6.32505 10.7856
O 8.23603 -5.05735 -10.1263
H 7.53506 -5.12235 -9.41612
H 9.0293 -4.56531 -9.76769
O 11.1053 -2.32562 -3.95704
H 10.1435 -2.44722 -3.71171
H 11.4904 -1.56764 -3.43051
O -13.7876 -3.47686 9.8556
H -13.1643 -4.25768 9.89863
H -14.288 -3.49717 8.99007
O -1.37687 7.12857 9.80291
H -1.73772 7.90906 9.29239
H -1.50188 7.2846 10.7827
O -14.2236 6.55549 11.2202
H -14.4187 7.29337 11.8663
H -14.477 5.67876 11.629
O -10.6115 4.70602 10.3274
H -9.93744 4.28407 9.7211
H -11.2016 3.99739 10.7143
O -14.8344 -8.51464 -10.2446
H -14.6705 -7.85709 -9.50923
H 14.2642 -8.23442 -10.7693
O -9.24038 5.43077 -1.96433
H -8.39284 5.4899 -2.49178
H -9.97708 5.88507 -2.46523
O -5.26035 11.4305 6.09012
H -4.61148 12.1685 6.2755
H -5.20508 11.1725 5.12554
O 11.8552 -13.9827 -10.3841
H 12.0056 -13.259 -9.71053
H 12.3016 -14.8228 -10.0761
O -13.9187 -7.00687 9.37333
H -14.8174 -6.57267 9.43444
H -13.2262 -6.31323 9.17498
O -4.60486 -12.6493 -3.21209
H -5.11932 -12.5685 -4.0658
H -3.8694 -11.9718 -3.20071
O -6.89805 -7.25907 11.6283
H -7.14797 -7.85605 12.3906
H -6.13552 -6.67221 11.9006
O 8.26154 8.12228 -5.91842
H 8.8138 7.90269 -5.11417
H 7.78214 8.98683 -5.76762
O -1.67856 -9.40483 13.2648
H -1.44363 -10.0919 13.9524
H -1.19614 -8.5525 13.4669
O 13.1385 8.95859 7.59673
H 13.0598 8.06505 7.15468
H 14.1045 9.1826 7.72595
O 13.9213 11.1644 -8.23631
H 13.0922 11.5302 -8.65922
H 13.6998 10.3247 -7.74046
O -5.17945 -5.41067 -5.05312
H -5.73303 -6.07374 -4.54923
H -5.01318 -4.6097 -4.47795
O 8.79247 -3.6763 11.5656
H 8.91584 -3.22276 10.6829
H 9.67783 -3.76316 12.0223
O 14.4132 -14.7932 -3.62333
H -14.6433 -14.5026 -4.0704
H 14.1016 14.2489 -4.02669
O 14.2211 11.4856 3.79086
H 14.5825 10.7287 4.33546
H 14.2525 12.328 4.32876
O 3.9413 -12.4409 9.02146
H 3.28339 -11.9145 9.56007
H 3.64038 -13.3929 8.9654
O -8.54878 -11.4696 13.355
H -8.30944 -10.8855 12.5794
H -7.75187 -11.5776 13.9493
O 10.1507 -7.46758 -1.94352
H 10.8549 -8.11849 -2.22704
H 10.4238 -6.54351 -2.21097
O -12.4289 8.81239 -7.29257
H -12.0107 9.11097 -6.4347
H -11.7676 8.27572 -7.81671
O -4.84844 -6.78902 -8.93643
H -5.52175 -6.12125 -9.25385
H -4.0846 -6.31156 -8.50216
O 4.02351 9.96948 7.22341
H 4.32691 10.7496 6.6762
H 3.47191 10.2953 7.99124
O 6.76931 -4.02592 14.9432
H 7.5962 -3.48055 -14.822
H 6.95526 -4.75249 14.2817
O -0.0608695 -14.594 -14.0244
H 0.176316 -14.948 -13.1197
H 0.775864 -14.3798 -14.5284
O -6.50488 1.45655 -0.707813
H -5.62327 1.63702 -0.271679
H -6.46044 0.58879 -1.20283
O -12.4513 7.83776 0.0360421
H -12.7724 8.4078 -0.720263
H -13.2338 7.40037 0.47926
O -2.54096 -5.03879 -1.10795
H -1.8789 -5.78818 -1.11891
H -2.35348 -4.41725 -1.86858
O -8.83834 -7.83165 14.6474
H -9.15786 -7.89405 -14.3096
H -7.89929 -7.48806 14.6348
O 8.70627 12.7031 -11.255
H 9.00081 13.3533 -11.9554
H 7.95867 13.1016 -10.7237
O -12.696 14.6828 6.54729
H -11.9938 14.4142 5.8879
H -12.384 -14.4193 7.05915
O -5.47795 6.02756 13.7484
H -4.49186 6.03272 13.9145
H -5.9444 6.50038 14.4959
O 1.73035 -2.06193 14.6557
H 2.23595 -1.48143 -14.6085
H 2.37188 -2.51127 14.0339
O -7.18983 13.0494 -10.197
H -7.56506 12.5408 -10.972
H -7.93839 13.4338 -9.6567
O -12.5819 -6.3774 2.45579
H -12.2291 -5.48927 2.75029
H -12.7184 -6.36999 1.46516
O 7.47811 9.80925 11.8456
H 6.97771 9.37289 12.5934
H 8.38739 9.40006 11.7695
O 0.677089 2.86818 -7.95184
H 0.213559 2.7569 -7.07277
H 1.2219 3.70663 -7.9376
O -11.2695 -8.44559 -4.13259
H -10.7335 -9.09366 -3.59152
H -12.1682 -8.32289 -3.71145
O 9.08796 0.415573 -4.53675
H 9.20607 0.597345 -3.56052
H 9.66874 1.03587 -5.06395
O 2.71058 9.16962 12.0228
H 3.46179 8.52997 12.1857
H 3.04237 9.94263 11.482
O 14.4916 -5.73771 0.34374
H 13.7334 -5.09681 0.223442
H -14.5486 -5.23216 0.373515
O 14.7817 14.3351 -1.11505
H -14.1851 13.9844 -1.07517
H 14.6122 14.7307 -2.0177
O -7.32017 9.46671 1.30483
H -6.70447 8.90934 1.86184
H -6.78534 10.0028 0.65173
O -13.2005 11.6259 -7.50462
H -13.661 11.6254 -6.61695
H -13.0364 10.6834 -7.79563
O -7.11327 -2.12816 -9.10406
H -7.04929 -1.94922 -10.0858
H -6.42267 -1.58953 -8.62138
O 11.599 -4.92052 -5.77836
H 11.5679 -4.13554 -6.39712
H 10.6881 -5.32764 -5.71047
O 10.3122 -10.4307 5.61229
H 9.60733 -11.1355 5.53264
H 10.2825 -10.0317 6.52877
O 2.67434 -3.50306 0.0672179
H 2.10122 -3.06049 0.756916
H 3.60813 -3.5885 0.414714
O 3.55962 9.88026 -1.18387
H 3.39325 8.89482 -1.14847
H 3.32691 10.2895 -0.301606
O 6.32878 6.52552 -7.19401
H 7.11847 6.89779 -6.70634
H 5.75351 7.27616 -7.51898
O 12.6466 14.4648 0.988264
H 13.0724 14.384 1.88947
H 13.3472 14.38 0.279776
O -14.458 1.83696 -14.5114
H -14.4277 0.837871 -14.5417
H 14.5635 2.13267 -14.142
O -5.58493 10.5242 -0.357728
H -4.75319 11.0675 -0.471633
H -5.53963 9.71779 -0.947408
O -5.99941 -13.6947 -10.5582
H -5.88765 -12.9039 -11.16
H -6.85758 -14.16 -10.7751
O -9.50168 5.09539 0.750671
H -9.21755 5.36579 -0.169206
H -10.0289 5.83568 1.16778
O 3.35891 11.1917 -9.91679
H 3.287 12.1061 -9.51857
H 4.26522 10.815 -9.72514
O 0.403354 3.54273 6.58726
H 0.537824 4.02817 7.45113
H 0.521541 4.17943 5.82524
O 12.5148 -8.93676 11.224
H 11.858 -9.65464 10.9932
H 13.444 -9.27403 11.073
O 14.554 6.18901 -4.61564
H 13.6917 5.84953 -4.99153
H -14.5838 5.73601 -5.07391
O 1.37825 -14.7665 -9.82456
H 0.698699 14.4723 -9.51194
H 1.56096 -14.1076 -9.09481
O -7.75235 -7.39428 -2.44393
H -8.11611 -7.58736 -1.53266
H -6.76993 -7.2187 -2.38035
O -3.42032 -4.86966 3.4055
H -3.1261 -4.55215 4.30696
H -4.35473 -4.55897 3.23129
O -2.08936 13.6074 -13.8181
H -1.31937 14.2097 -14.0288
H -2.84192 14.1478 -13.4417
O 7.21918 6.93591 14.4463
H 7.03426 6.64317 13.5081
H 6.98079 6.19876 -14.8239
O 4.24981 12.3752 5.60973
H 4.43088 12.1629 4.64944
H 3.96734 13.3309 5.6923
O -14.769 -4.40851 -2.24834
H -13.904 -4.1814 -1.80094
H 14.7648 -3.59301 -2.69449
O 12.7923 -14.4131 -12.9365
H 12.3509 -14.1725 -12.072
H 13.341 -13.6408 -13.2568
O 11.5961 2.35137 12.1483
H 12.0432 2.00205 12.9718
H 12.2808 2.76058 11.5453
O 3.90409 -0.402392 -5.77476
H 3.33872 -1.03861 -6.29974
H 3.72757 0.532496 -6.08272
O 4.41454 14.8841 -13.5483
H 4.88894 14.4133 -12.8045
H 5.08052 -14.5294 -14.1117
O 6.66961 10.2783 -5.2265
H 7.16912 11.0736 -5.56984
H 5.69351 10.4911 -5.18259
O 9.8707 -6.82049 -14.4504
H 9.09573 -6.4176 -13.9634
H 9.59459 -7.05122 14.519
O 9.85554 5.63943 0.176421
H 10.289 5.5969 1.0766
H 8.88089 5.83525 0.284698
O -6.24748 13.8289 12.7907
H -5.87985 13.1067 13.3766
H -7.23435 13.7045 12.6876
O 4.93307 -10.2505 6.79692
H 4.99414 -10.8329 7.6075
H 5.76259 -10.3548 6.24826
O -9.09569 12.1771 3.66017
H -8.42232 11.6136 3.18158
H -9.70164 12.6108 2.99333
O 4.23394 4.26357 6.49194
H 4.85168 4.82798 5.94436
H 3.80031 3.57906 5.90591
O -13.718 -11.8302 5.19199
H -14.2091 -10.9597 5.22181
H -12.8225 -11.6934 4.76846
O 12.4041 7.95834 -8.1522
H 13.2674 7.92311 -7.64876
H 12.245 7.07996 -8.60292
O 6.93096 -12.6134 7.96182
H 6.54475 -12.1962 8.78451
H 6.7475 -13.5964 7.96899
O 13.3186 6.02941 -9.68671
H 12.588 5.3743 -9.87904
H 14.1978 5.63699 -9.95701
O 6.29106 5.56167 -10.4887
H 5.72162 4.92962 -11.0143
H 6.17919 5.37775 -9.51214
O 0.413257 5.44782 4.7029
H 0.163399 5.10706 3.79655
H 0.0608936 6.37651 4.81865
O -7.08107 3.66925 0.685835
H -6.96879 2.75854 0.288328
H -8.04849 3.92208 0.671856
O -3.76927 5.56473 -10.5942
H -4.2062 5.21787 -9.76422
H -3.51385 4.7972 -11.1821
O -11.5505 -10.725 -11.9979
H -11.5862 -10.8463 -12.9898
H -12.0404 -9.89023 -11.7463
O 7.7248 -8.49214 -0.819577
H 8.61691 -8.21599 -1.17721
H 7.4848 -9.39284 -1.18173
O 7.15951 14.0201 -9.41449
H 7.87243 14.3345 -8.78769
H 6.78978 14.8012 -9.91763
O 8.499 -7.7148 -8.068
H 8.91558 -7.16452 -7.34436
H 7.66036 -7.27076 -8.3835
O 11.3227 13.2583 -1.39269
H 10.4663 12.7722 -1.5667
H 11.7528 12.891 -0.568028
O -5.38549 -9.40522 -13.9388
H -4.38694 -9.44787 -13.9719
H -5.66824 -8.76218 -13.2271
O -11.095 13.3171 1.82956
H -10.5087 13.4783 1.03565
H -11.664 14.1231 1.99279
O -0.191456 0.804772 -5.80476
H -0.672707 0.193291 -5.17667
H 0.492342 1.33097 -5.29924
O 9.67375 -10.0489 -8.82801
H 9.99472 -10.1881 -9.76483
H 9.32911 -9.11545 -8.72892
O 1.74418 9.7066 1.36095
H 2.039 10.0524 2.25176
H 1.5321 8.73216 1.43519
O 2.52819 -8.48526 -4.90364
H 1.93148 -8.42577 -4.10338
H 2.03825 -8.93193 -5.65228
O -2.68758 4.57364 5.04413
H -2.75548 4.91254 5.98251
H -1.72982 4.38638 4.82585
O -7.66371 -10.5038 -8.09857
H -7.79645 -10.3808 -7.11507
H -6.71221 -10.3055 -8.33384
O -14.3509 3.19372 4.43804
H -14.9333 2.97446 5.22089
H -14.809 2.91572 3.59369
O -2.02856 -4.58208 -9.55223
H -2.46292 -3.83523 -10.0558
H -2.27379 -4.51876 -8.58483
O -4.81061 -1.51773 9.90041
H -4.55147 -2.36259 9.43236
H -5.80638 -1.47326 9.98099
O 5.01498 -13.2773 -1.18726
H 5.94359 -13.4741 -0.872676
H 4.6611 -14.0634 -1.69401
O -8.36341 -3.33799 9.79859
H -9.22514 -3.1705 9.31963
H -8.00649 -2.47426 10.1544
O 5.51588 10.9236 14.1398
H 5.94441 11.1177 -14.8803
H 4.8874 10.1518 14.237
O 8.74317 5.90094 -11.3086
H 7.76931 5.70612 -11.1916
H 9.00401 6.66334 -10.7163
O 9.70651 14.0319 -13.5006
H 10.4291 14.582 -13.9193
H 9.14365 13.62 -14.2172
O 6.09578 0.754026 1.14892
H 5.15913 0.841185 0.809658
H 6.36311 -0.209583 1.14579
O -8.1631 2.93955 -10.8859
H -7.6077 3.69662 -11.23
H -7.56668 2.2432 -10.4867
O -11.2802 8.3755 -12.9735
H -11.1207 9.11129 -13.6317
H -11.7652 8.73907 -12.1782
O -4.89534 -11.6084 3.68494
H -4.28302 -12.3413 3.98149
H -4.47089 -10.7227 3.87329
O 13.7912 -10.7901 -6.90468
H 13.4349 -9.86505 -7.03632
H 14.4675 -10.9908 -7.61348
O -14.7814 0.482439 0.767589
H 14.7662 1.34375 0.403954
H -13.8305 0.60683 1.05084
O -1.35362 10.6188 6.59906
H -1.21798 10.9112 5.65241
H -0.589347 10.9382 7.15932
O 14.7019 -13.2145 9.1814
H 13.9053 -13.1421 8.58123
H -14.3692 -13.0361 8.65494
O 9.18723 0.91546 -1.89945
H 9.52953 1.84991 -1.99765
H 9.78374 0.405385 -1.27975
O 6.39416 2.62272 -0.860267
H 6.36445 1.81333 -0.273731
H 7.28498 2.67474 -1.31165
O 4.77709 -14.2661 3.74646
H 3.94987 -14.1837 3.19064
H 5.41629 -14.8936 3.30182
O -12.6752 -2.55456 2.32966
H -12.7465 -1.56379 2.44502
H -12.2511 -2.95503 3.14194
O 10.3762 8.94238 -10.7624
H 10.0414 9.85339 -10.5216
H 10.4125 8.3728 -9.94125
O 8.796 -1.00286 -9.18715
H 8.44888 -0.814263 -8.26849
H 8.7998 -0.157908 -9.722
O 12.7286 10.8872 0.160893
H 13.616 11.1927 0.506148
H 12.8648 10.1553 -0.506793
O -1.91 -7.69694 -7.84376
H -2.1171 -6.80044 -7.45208
H -2.24268 -8.41347 -7.23063
O -13.9685 -8.49745 -3.9677
H -14.1253 -7.51365 -4.05474
H -14.1707 -8.94553 -4.83853
O -0.897885 8.03161 -14.7357
H -0.200846 8.56943 14.6925
H -1.77596 8.13861 14.7003
O 4.27612 11.9811 3.04906
H 4.46547 11.4424 2.22807
H 3.48728 12.5733 2.8846
O 12.7438 5.04421 9.38548
H 12.9138 5.76776 8.71646
H 11.8721 5.21354 9.84532
O -11.9044 10.9782 -0.515662
H -12.4736 10.2082 -0.803832
H -11.871 11.0125 0.483196
O -11.0845 -11.6618 0.599008
H -10.1136 -11.427 0.552186
H -11.5418 -11.0597 1.25352
O 11.0217 14.6949 4.79343
H 11.2513 14.43 5.72997
H 10.0876 14.4053 4.58456
O -8.9553 -14.0706 -12.2797
H -9.86096 -14.0611 -11.8558
H -8.61757 -13.1333 -12.3656
O 0.922902 6.38058 -13.203
H 0.467513 7.18398 -13.5866
H 0.384964 6.02598 -12.4382
O -13.5884 -14.1813 -11.9032
H -13.0848 -14.1835 -12.7671
H -14.2318 -14.9468 -11.8904
O 5.98512 10.3146 -9.55495
H 6.24628 9.64471 -10.25
H 6.79505 10.5914 -9.03784
O 6.93846 -6.56598 13.423
H 6.38572 -6.61366 12.591
H 7.90498 -6.66756 13.1874
O -0.0995817 12.854 -8.43965
H -0.0156633 12.4692 -7.52049
H -0.99313 12.616 -8.82036
O 10.2225 -9.40569 8.33101
H 9.31744 -9.12099 8.64708
H 10.734 -9.79871 9.09513
O 6.08201 0.799153 6.10335
H 5.08483 0.872325 6.12018
H 6.43026 0.774242 7.04043
O 1.12165 -11.239 4.12736
H 0.962199 -11.1535 3.14387
H 1.60764 -10.43 4.45787
O -10.076 -8.00725 -12.715
H -9.8305 -7.88976 -11.7527
H -11.069 -7.94541 -12.8155
O -12.0186 0.903196 1.37333
H -12.0847 0.768193 2.36198
H -11.9228 1.87881 1.17581
O -13.4951 5.11869 6.08932
H -13.7118 4.39285 5.43645
H -13.1864 4.71227 6.94928
O -9.3054 -13.6278 -1.05872
H -9.65209 -12.9777 -0.382591
H -8.36064 -13.3958 -1.29032
O -5.39519 -1.49048 -13.9311
H -4.50868 -1.03758 -13.8363
H -5.27578 -2.47918 -13.8404
O 2.32264 13.894 3.06541
H 2.20711 14.0224 4.05039
H 1.45929 13.5857 2.66594
O -0.423542 4.26117 2.09494
H -1.33118 3.88654 2.2843
H -0.443174 4.76071 1.22887
O -9.77941 2.70313 -2.28739
H -9.00651 2.06862 -2.2935
H -9.44335 3.63659 -2.16195
O -13.0182 5.48619 -1.84267
H -12.4681 6.23908 -2.20405
H -13.9149 5.83152 -1.56571
O -13.0815 -10.7807 14.8434
H -13.295 -9.81784 -14.8937
H -12.1096 -10.941 -14.8871
O -3.90911 8.04805 -9.24906
H -2.95352 8.2771 -9.06359
H -4.0141 7.05398 -9.27769
O -5.85837 5.36024 8.55624
H -6.23391 6.2481 8.29037
H -4.8758 5.34493 8.37091
O 13.17 9.07925 -14.3712
H 12.7168 8.66432 -13.5822
H 12.7251 9.94703 -14.5928
O -1.71981 12.5729 11.0176
H -1.14636 11.7638 11.1462
H -1.24379 13.2292 10.4323