2611
Atoms. Timestep: 8000000
O 8.78431 -14.4384 -8.68793
H 8.10319 -13.9487 -9.23227
H 8.70833 14.5587 -8.8635
O -11.2065 10.6538 -13.3701
H -11.836 10.8422 -12.6163
H -10.8423 11.5154 -13.7235
O -0.0863653 12.4819 4.76727
H 0.379621 11.6195 4.56948
H 0.0854019 13.1311 4.02632
O -12.6425 14.4791 9.11855
H -11.9903 13.912 8.61546
H -13.1783 -14.9552 8.47303
O 4.20433 5.71029 -14.8702
H 3.69884 4.86838 -14.6814
H 5.01874 5.74711 -14.291
O -10.3158 12.6969 -10.2845
H -10.4013 11.7569 -10.6149
H -9.97942 12.6899 -9.34284
O 8.51403 10.4826 0.26759
H 8.88937 11.0171 1.02485
H 8.03252 9.68441 0.629506
O 1.31696 -14.0722 -13.3153
H 1.62044 -13.8195 -12.3966
H 0.349385 -13.843 -13.4215
O -0.443687 5.39656 12.9918
H -1.17249 4.72585 13.1296
H -0.446211 6.05154 13.7474
O 7.47063 -10.1358 8.02791
H 6.90308 -10.2358 8.84515
H 7.35906 -10.94 7.44415
O 10.8387 7.41751 6.8564
H 11.6757 6.88542 6.98427
H 10.1265 6.83093 6.47086
O 10.3478 -1.27083 6.24567
H 10.1405 -2.0842 5.7021
H 11.0791 -1.48103 6.8945
O -5.56102 7.04413 -7.49593
H -4.86378 6.34083 -7.35728
H -6.46294 6.61474 -7.54242
O -14.8914 -0.0217179 3.47393
H 14.6099 -0.0412183 2.59542
H 14.6465 0.642212 4.07806
O -2.81278 13.7621 -13.6327
H -3.63674 14.2227 -13.3026
H -3.05679 12.8639 -13.9982
O 8.78727 -0.183074 0.282678
H 9.44797 -0.827081 -0.102982
H 7.88491 -0.354455 -0.112761
O 10.0479 6.99003 -1.94583
H 9.78926 6.59229 -2.82613
H 11.0177 6.81719 -1.77402
O 2.75129 12.3744 6.98993
H 2.34526 12.1877 7.8845
H 3.72898 12.5542 7.0986
O 13.7386 -14.7561 8.62021
H 13.7046 -14.7071 9.61843
H 13.8118 -13.8327 8.24343
O -2.97787 12.0909 2.73254
H -3.44825 11.7524 3.54749
H -3.23277 11.5313 1.94395
O -0.936817 7.9912 8.67307
H -1.57008 7.6348 7.98608
H -0.0858874 8.27117 8.22861
O 0.0135421 9.70886 10.942
H -0.370754 9.00677 10.3425
H 0.571555 10.3391 10.4022
O 5.00676 13.0417 -13.7711
H 5.41045 12.1656 -14.0345
H 5.45025 13.3765 -12.9397
O -14.2203 -12.4749 -8.6615
H -14.2764 -13.4678 -8.55661
H -14.9086 -12.1699 -9.31969
O 1.92481 11.3352 -1.134
H 2.38581 11.0471 -1.97331
H 0.935996 11.3437 -1.28289
O 3.49258 4.76283 -12.0193
H 3.68815 5.51121 -11.3856
H 2.53896 4.81737 -12.3154
O 7.52757 3.27553 -13.421
H 7.28893 2.51736 -14.0279
H 8.49542 3.2151 -13.1769
O 14.4836 7.51331 -11.5578
H -14.6299 7.87819 -11.9018
H 13.8014 8.24391 -11.5297
O 3.91459 14.518 -4.52773
H 3.1115 -14.8752 -4.41651
H 4.16794 14.128 -3.64247
O -9.19979 1.6436 -7.77214
H -9.39783 1.10974 -6.95009
H -9.47295 2.59439 -7.62595
O -9.0623 -11.9867 13.3026
H -8.32161 -12.376 13.8501
H -9.71831 -11.5317 13.9048
O 3.3769 -8.20377 -5.52025
H 3.90638 -7.46205 -5.93196
H 3.9618 -8.72638 -4.89995
O 3.2643 -9.2262 0.579611
H 3.08293 -8.47312 -0.0528269
H 4.2415 -9.25701 0.789702
O -14.2335 11.0474 3.50819
H -13.2938 10.8162 3.25609
H -14.6122 10.3225 4.08365
O -0.182452 -5.21493 -13.5947
H -0.975936 -5.76273 -13.8598
H -0.0898173 -5.22256 -12.599
O -10.6838 -6.49669 -7.80568
H -10.1245 -6.81289 -7.03938
H -10.3792 -6.94294 -8.64714
O -14.0186 13.7034 4.83852
H -13.7886 12.7448 4.67067
H 14.9718 13.8294 4.75102
O 8.96684 -6.98298 1.44936
H 9.45747 -7.30107 2.2606
H 8.84097 -5.99238 1.50303
O 4.62221 4.90894 11.6258
H 5.08844 4.88901 12.5103
H 3.75422 5.39699 11.7175
O 1.70813 -9.00993 4.9037
H 2.65461 -8.74326 5.08553
H 1.68263 -9.64026 4.12779
O 5.09123 13.7391 -9.04098
H 4.11665 13.9572 -8.98942
H 5.58843 14.2705 -8.35514
O 13.9684 -7.87835 -13.8952
H 13.7607 -8.21844 -14.8124
H 13.34 -8.29181 -13.2362
O 4.37551 -7.97843 4.83176
H 4.26792 -7.11382 4.34098
H 5.16325 -8.47378 4.46556
O -7.49835 -7.97562 -12.7237
H -6.51629 -7.99639 -12.5362
H -7.88958 -8.87981 -12.5523
O 10.6125 4.90323 -9.40229
H 10.1975 4.86977 -10.3115
H 10.7637 5.85624 -9.13979
O -6.44357 13.5009 -0.180326
H -6.73197 14.3891 0.177393
H -5.67559 13.6278 -0.808097
O 2.52814 14.7248 5.32776
H 2.17165 14.1269 4.60982
H 2.78602 14.1748 6.12207
O -10.2152 12.4928 -7.32334
H -11.122 12.8983 -7.43872
H -10.3104 11.5297 -7.07162
O -0.601453 -4.98027 -10.647
H -0.357452 -4.02952 -10.4559
H -0.205668 -5.5734 -9.94593
O -9.81278 8.86509 4.88253
H -10.1796 9.44068 4.15167
H -8.85443 9.10102 5.04344
O -1.50381 -14.785 12.4349
H -2.47638 -14.7058 12.2162
H -1.31032 14.2693 12.7639
O -4.87412 4.31713 14.8422
H -4.69556 5.09143 -14.5293
H -4.93589 3.47763 -14.5965
O -14.9822 -6.48825 5.65541
H 14.9511 -5.57474 6.0597
H -14.5918 -7.12714 6.31826
O -11.0205 -8.70963 5.62479
H -10.6314 -9.53406 5.21381
H -11.9728 -8.8807 5.87735
O 9.33344 8.48465 -7.96457
H 8.49837 8.01722 -7.67447
H 10.1297 7.99851 -7.60462
O 3.6483 -1.15707 9.97336
H 3.31694 -0.382391 10.5119
H 3.53284 -2.00097 10.4973
O -3.0534 -11.2711 -13.5163
H -2.81745 -10.5241 -14.1379
H -3.51611 -10.9009 -12.7108
O 13.7713 -12.1079 7.92848
H 13.6505 -11.3598 8.58103
H 13.7149 -11.7496 6.99656
O 2.23698 -12.383 -1.24042
H 3.23165 -12.3294 -1.32857
H 1.91525 -13.2513 -1.61805
O 7.29267 -13.5258 -2.337
H 8.1621 -13.0886 -2.56713
H 7.42768 -14.5132 -2.25444
O 9.05839 3.21418 -0.0897038
H 8.42243 3.02006 0.657203
H 9.09934 2.4274 -0.705577
O 0.350922 -12.8635 13.3517
H -0.0938561 -12.0264 13.6704
H -0.339543 -13.4928 12.9951
O -2.20511 -11.7083 5.82845
H -2.01776 -11.096 6.59659
H -1.63721 -11.4471 5.04787
O 0.124341 14.327 -9.58321
H -0.139032 14.2144 -10.5413
H -0.444744 13.7378 -9.00965
O 13.8966 -4.06671 -12.038
H 14.1182 -4.34049 -12.9739
H 13.4786 -4.83652 -11.5556
O 8.82195 0.751627 4.91715
H 9.47431 0.170078 5.40319
H 8.76598 1.64108 5.37075
O 2.84703 -8.4399 12.812
H 3.18421 -8.22355 11.8957
H 2.35049 -7.6532 13.1788
O 12.4175 -11.105 -1.91067
H 11.5127 -11.5261 -1.8479
H 13.1197 -11.7981 -1.74777
O -0.902827 12.6289 13.3552
H 0.0638716 12.864 13.2541
H -1.00365 11.9305 14.0638
O -12.6316 5.55977 6.78772
H -13.3851 5.16251 7.31159
H -12.0636 6.11856 7.39206
O -9.70331 -2.98677 -2.66015
H -8.86831 -2.4889 -2.89447
H -10.0888 -3.39841 -3.48596
O 10.1426 4.3019 -14.3895
H 9.92819 5.27541 -14.3102
H 9.6494 3.91432 14.8103
O -1.39339 -10.0455 3.64444
H -1.07877 -9.70775 2.75736
H -1.34664 -9.30764 4.31774
O 3.18913 -3.4751 11.586
H 2.28035 -3.5084 11.17
H 3.79547 -4.11492 11.1138
O -1.2797 -3.71035 -4.53858
H -1.98214 -3.28731 -5.11096
H -0.619518 -4.18722 -5.11888
O 5.29582 1.6788 -0.534575
H 4.61238 1.67158 -1.26455
H 5.6698 0.758586 -0.418998
O 4.44034 8.91037 0.0492677
H 4.29642 9.7448 0.58126
H 3.96335 8.98688 -0.826306
O -0.179316 5.7916 -7.62225
H 0.555341 6.26748 -8.10581
H 0.0468425 5.72986 -6.65012
O 9.28678 14.2361 5.89876
H 9.84029 14.8458 6.46615
H 8.9204 14.7462 5.1206
O -13.7346 -7.78453 7.8125
H -13.2686 -6.90776 7.93123
H -13.4776 -8.40199 8.55592
O 3.53499 -6.56659 2.49934
H 2.60652 -6.51544 2.13147
H 3.99925 -7.36799 2.12221
O -14.4573 -14.9716 -7.7252
H -14.2515 14.088 -8.06141
H -14.505 -14.9849 -6.72642
O -5.2819 9.77321 -7.45521
H -5.79998 9.99539 -6.62923
H -5.17157 8.78162 -7.52282
O 13.7479 11.154 -9.10762
H 14.1896 11.5261 -9.92396
H 12.986 11.745 -8.84225
O -10.4369 1.92989 -13.7349
H -9.80149 2.3491 -14.3834
H -11.2217 1.55771 -14.2305
O 12.6741 -14.1522 11.2178
H 12.6461 -13.1595 11.1005
H 13.2221 -14.3774 12.0234
O 6.12324 -8.37953 -9.55067
H 5.59904 -8.19762 -10.3826
H 6.76853 -7.63201 -9.39316
O 5.76177 10.1787 6.63365
H 5.72819 9.45666 7.32468
H 5.48978 11.048 7.04638
O 4.30771 13.259 -0.917537
H 4.9771 12.8379 -1.5296
H 3.39347 13.1726 -1.31338
O 5.50721 -12.5326 -4.52936
H 5.83502 -12.3653 -5.45917
H 5.84975 -13.4158 -4.20903
O 13.8189 -11.1616 12.6944
H 13.9739 -11.7772 13.4671
H 14.6331 -11.1434 12.1142
O -9.58089 1.33675 1.62318
H -9.28399 0.704718 2.33899
H -9.94062 2.1702 2.04264
O -7.78529 3.32472 -2.10896
H -7.09797 3.88559 -2.5705
H -7.87577 3.62317 -1.15883
O -10.8906 7.21373 8.11612
H -9.91385 7.30526 7.92242
H -11.033 7.18561 9.10553
O 1.37815 0.935847 -4.51335
H 1.59251 1.45131 -3.68368
H 0.572871 1.33287 -4.9537
O -14.966 -2.98387 -2.95961
H -14.978 -3.81269 -2.40022
H -14.7775 -2.19222 -2.37846
O -5.09449 -11.4703 12.9331
H -4.98234 -12.1107 13.693
H -4.93427 -11.9471 12.0689
O -8.51647 -8.2321 3.2796
H -8.8792 -9.05833 3.7106
H -7.65847 -7.97377 3.72356
O 2.31714 -10.6235 -11.347
H 3.18913 -10.689 -10.8618
H 2.38526 -11.1042 -12.2212
O -9.99092 -7.97524 -1.38587
H -9.01985 -8.06398 -1.16415
H -10.5335 -8.07133 -0.551366
O 0.852158 12.1559 -4.32467
H 0.883731 13.0662 -4.7376
H 1.76434 11.7469 -4.34935
O 8.67519 -5.8822 -9.39874
H 8.88976 -5.54228 -8.48308
H 7.69202 -5.8011 -9.56247
O -4.8805 -8.81787 10.2627
H -5.55652 -9.20955 9.6385
H -4.36799 -8.10019 9.79121
O 7.83979 -8.83313 -5.01878
H 7.63241 -8.18937 -4.28219
H 8.1406 -9.70253 -4.62677
O -10.9129 12.9188 7.64785
H -11.1174 12.0161 7.26913
H -10.0849 13.2803 7.21913
O 7.65432 5.70762 9.61353
H 7.56066 5.80902 8.6231
H 7.49759 4.7531 9.86717
O -10.5157 3.26947 3.20369
H -11.3804 3.11499 2.72577
H -10.701 3.55527 4.14391
O 14.2131 -1.48295 -13.1383
H 14.2757 -2.31149 -12.5819
H 14.7672 -0.760765 -12.7243
O 1.67874 -2.58316 14.2915
H 2.53539 -2.19948 13.9466
H 1.728 -2.66722 -14.6919
O -4.47099 -8.60877 2.70107
H -4.7733 -7.67318 2.51865
H -3.69912 -8.59171 3.33662
O 11.4253 -11.305 2.18891
H 12.2706 -11.5663 1.72279
H 10.9501 -12.1268 2.50308
O -13.5618 -10.3663 -2.15849
H -13.779 -10.0914 -1.22188
H -14.2898 -10.0617 -2.77262
O 2.11397 7.21055 -6.21452
H 1.56758 7.89328 -6.69965
H 3.03031 7.57442 -6.04742
O -2.73898 -5.93949 -14.8122
H -3.33525 -6.37127 -14.1354
H -3.0895 -6.123 14.248
O 2.33604 -9.8188 -2.6306
H 1.80133 -8.97555 -2.68548
H 2.22004 -10.2288 -1.72591
O -9.63488 7.48855 -3.13288
H -8.84201 7.41702 -2.52769
H -9.35024 7.31963 -4.07651
O -5.01999 0.448272 4.58289
H -4.95053 1.36029 4.98713
H -5.70758 -0.0838162 5.07697
O -1.54868 -8.3796 1.21466
H -1.67665 -8.75738 0.29765
H -2.41005 -7.98648 1.53639
O 14.2312 -10.4152 2.25194
H 13.5807 -9.7881 2.68043
H 14.7533 -9.92721 1.55239
O 13.7677 -12.3702 -12.2072
H 13.2975 -13.1473 -11.7888
H 13.8733 -11.6411 -11.5309
O -0.0414132 3.54796 10.8803
H 0.814471 3.66888 11.3831
H 0.0127308 4.03443 10.0082
O -7.72523 10.6376 -5.82379
H -7.61881 11.6251 -5.70737
H -8.68617 10.4244 -6.00034
O -7.50488 4.32402 5.61816
H -7.59442 4.12109 6.59325
H -8.19786 4.9941 5.35214
O 5.00109 -6.33674 14.5107
H 5.32674 -5.39977 14.384
H 4.03968 -6.3212 14.7854
O -3.40201 8.76688 -12.0579
H -2.47892 9.04252 -11.7898
H -4.07081 9.23716 -11.4822
O -4.89672 1.5622 -14.3261
H -5.08567 1.08839 -13.466
H -4.15369 1.09661 -14.8069
O 8.07462 -2.17463 -10.4109
H 8.35057 -3.11351 -10.6166
H 7.69967 -1.74927 -11.2346
O 7.01931 7.07786 -6.70057
H 7.42259 6.19853 -6.95382
H 6.92407 7.1269 -5.70632
O -5.70028 -14.4386 4.96789
H -5.06425 -14.4906 4.19798
H -5.77562 14.641 5.39934
O 8.68971 8.97182 13.7022
H 8.8184 9.91076 13.3831
H 8.45538 8.38542 12.9268
O 8.31481 13.7106 -2.42898
H 8.94105 13.3671 -1.72912
H 8.72263 13.5826 -3.33302
O 11.8749 -9.2425 0.515298
H 11.5805 -9.80563 1.28742
H 11.6707 -9.71748 -0.340684
O -8.03066 -9.08883 -8.85956
H -7.10493 -8.73664 -8.99736
H -8.6752 -8.55539 -9.40729
O 4.20514 1.48717 -8.03571
H 3.95911 0.697435 -8.59766
H 4.63419 2.18429 -8.61012
O -13.364 10.3124 10.7045
H -13.3165 9.50349 11.2905
H -13.3891 10.0287 9.74598
O 8.80247 -1.13178 11.1393
H 7.8829 -0.745958 11.2137
H 9.26392 -1.06638 12.0241
O 12.7583 9.43523 -11.0595
H 12.9882 10.1204 -10.3684
H 12.2234 8.703 -10.6379
O 5.25685 -10.0389 -3.28878
H 4.35471 -10.1644 -2.876
H 5.42491 -10.7691 -3.95102
O 1.45167 -8.88734 -14.2521
H 1.92309 -9.72315 -14.5335
H 2.00141 -8.09225 -14.5082
O -1.08735 -2.81364 14.7041
H -0.107238 -2.64848 14.5941
H -1.22737 -3.60149 -14.6747
O -7.32693 13.9471 -11.6192
H -8.02996 14.5061 -11.1796
H -7.74428 13.1172 -11.9894
O -3.11307 7.92865 6.95116
H -2.57356 7.86028 6.11196
H -3.69426 8.7413 6.90849
O 7.18459 4.25871 -2.08571
H 6.88096 5.09649 -1.6319
H 7.83722 3.77949 -1.49885
O -7.23245 -12.1525 10.7601
H -6.52164 -11.5039 11.0322
H -8.13195 -11.7666 10.965
O -3.91289 6.82316 -13.8461
H -3.81014 7.49586 -13.1134
H -3.1006 6.83871 -14.4292
O 2.30899 13.2183 -13.5163
H 3.27193 13.3626 -13.7442
H 1.86094 14.1029 -13.3869
O 9.13361 12.022 -13.9584
H 9.07501 12.9916 -14.1959
H 9.38512 11.9294 -12.995
O 7.031 -12.0518 6.21093
H 7.46831 -11.8137 5.34369
H 6.09255 -12.3518 6.03971
O -4.7659 -3.75177 3.44321
H -5.16385 -2.85984 3.22847
H -5.26198 -4.46576 2.94912
O 13.2502 13.2896 6.62566
H 13.5426 13.9686 7.29898
H 13.1868 12.3925 7.0629
O 14.1993 8.96464 -5.08213
H -14.9295 9.21954 -4.62086
H 14.3939 8.7327 -6.03518
O -2.40815 -1.59722 12.5748
H -3.15032 -2.16948 12.226
H -2.02011 -2.01792 13.3948
O 9.96574 -0.965915 -4.23302
H 9.15293 -0.807046 -3.67256
H 10.774 -0.627054 -3.75154
O 5.29991 -14.4594 13.7425
H 4.98424 -14.9503 14.5545
H 4.54953 -13.9129 13.3707
O 9.14308 -6.60747 10.3794
H 9.49401 -7.31011 9.76043
H 8.6658 -5.90563 9.85061
O -2.74125 3.86044 -4.04105
H -3.65863 3.58355 -4.32695
H -2.43443 3.27381 -3.29156
O -12.1219 5.07576 -5.64808
H -13.1048 5.12381 -5.82591
H -11.9647 4.99815 -4.66356
O -13.8039 0.103076 -12.186
H -13.4056 -0.518182 -11.5112
H -13.3252 -0.000455407 -13.0579
O -14.5772 5.05718 8.6527
H -14.1338 4.16111 8.63177
H 14.9309 5.1759 9.52708
O 1.6773 6.98044 -14.6164
H 1.49792 6.25179 -13.9555
H 2.58724 6.85521 14.9668
O -8.49017 -13.1337 4.86894
H -8.81759 -13.9522 4.39686
H -7.54719 -12.9454 4.59448
O 5.14401 -1.92597 2.2129
H 4.39726 -1.67094 2.82716
H 5.1976 -2.9225 2.14917
O 9.25209 -8.04984 -14.4817
H 9.82862 -8.78927 -14.8293
H 9.82913 -7.2903 -14.1815
O -5.05654 -10.7853 -6.2447
H -5.48531 -10.5969 -5.36114
H -4.38952 -10.0693 -6.45091
O 6.8003 -13.0876 -10.222
H 6.53659 -12.7687 -9.31158
H 7.11731 -12.3121 -10.7679
O 0.507578 3.42955 -9.63301
H 1.43108 3.68936 -9.91523
H 0.405293 3.57855 -8.64948
O 6.69657 -8.93116 3.82457
H 7.06027 -8.50107 4.65085
H 7.2846 -9.6956 3.56025
O 4.80684 6.29286 -2.94
H 4.66152 5.89901 -3.84762
H 5.66643 6.80379 -2.93211
O 4.85124 2.46002 7.00318
H 5.39173 2.7009 6.19704
H 4.95207 1.48327 7.19239
O -7.90716 7.86131 -13.1682
H -7.88358 8.38045 -14.0226
H -7.33462 8.31603 -12.486
O -10.2969 -14.7381 -11.1194
H -10.4357 14.2837 -10.8639
H -11.1808 -14.2721 -11.159
O 7.24987 7.19514 -3.94695
H 8.00328 6.53963 -3.99879
H 7.27102 7.65782 -3.06067
O -1.76124 -13.4426 -10.3547
H -1.6095 -13.7202 -11.3033
H -1.20141 -12.6401 -10.1486
O 0.758392 -6.01339 2.4074
H -0.0218334 -5.47745 2.72992
H 0.445783 -6.92017 2.1245
O 7.7615 -1.30896 14.861
H 7.84111 -2.04641 -14.4469
H 8.64761 -1.1607 14.4219
O -4.54166 -10.6088 0.951516
H -4.4372 -9.74123 1.43769
H -3.68724 -11.1257 1.0047
O -8.87249 13.157 5.34914
H -8.50288 12.547 4.64823
H -8.18565 13.301 6.06155
O 14.5349 -5.11685 9.15524
H 14.551 -6.04609 9.52437
H -14.911 -5.08489 8.30955
O -14.9747 -8.40778 -7.68771
H -14.0074 -8.64705 -7.60349
H 14.5577 -8.5051 -6.79805
O -10.0796 6.0243 4.75659
H -10.245 5.68331 5.682
H -9.98842 7.01987 4.77956
O -13.1171 -1.42103 -10.2528
H -13.8714 -1.21897 -9.62823
H -12.2482 -1.20693 -9.8064
O 11.3655 -10.9041 -6.32617
H 11.7077 -10.1506 -5.76477
H 11.4836 -11.7667 -5.8342
O -5.03413 -14.9105 -12.7451
H -5.10574 -14.3542 -11.9172
H -5.60669 14.2538 -12.6501
O -11.8293 -8.67709 12.7924
H -11.3472 -9.46068 13.1843
H -11.5039 -7.83572 13.224
O 9.98059 -12.5109 -1.11096
H 10.3219 -13.3378 -1.55801
H 9.19867 -12.7433 -0.532516
O 6.34747 -3.95068 14.4333
H 6.65267 -3.81468 13.4907
H 7.14349 -4.02488 -14.9446
O -13.3996 4.32039 -14.1461
H -12.438 4.08702 -14.0016
H -13.4615 5.18773 -14.64
O -10.0154 -2.84701 -6.00271
H -10.4415 -2.18697 -6.62136
H -10.726 -3.34382 -5.50447
O -12.4194 3.15301 -9.44592
H -12.8295 2.91412 -10.3261
H -13.0443 2.8998 -8.70743
O 0.55206 -6.58723 5.51489
H 0.489355 -5.90806 4.78359
H 0.773454 -7.48001 5.12255
O 7.60427 -2.05537 -5.87985
H 8.51075 -1.72597 -5.61568
H 6.9204 -1.35843 -5.66396
O 5.42786 0.166791 8.29439
H 6.15778 -0.486941 8.09476
H 4.70696 -0.287963 8.81737
O -4.16937 -3.48818 11.7383
H -3.37509 -3.81726 11.2276
H -4.55377 -4.23828 12.2764
O -2.72307 -5.29336 -7.76025
H -2.64505 -4.43858 -7.24714
H -3.21299 -5.12511 -8.61563
O 14.91 -12.0829 4.29212
H 14.52 -11.3268 3.76658
H 14.3476 -12.9003 4.16769
O -8.63293 -6.78842 9.31537
H -8.71152 -6.71633 10.3097
H -9.14091 -7.58922 8.99806
O 10.4469 -8.20618 -3.21555
H 9.9398 -9.03385 -2.97518
H 10.5105 -7.60998 -2.41523
O -4.16728 -14.3535 2.82129
H -3.35043 -14.748 2.40042
H -4.67581 -13.8312 2.13674
O -9.55132 -2.12209 14.0375
H -8.88992 -2.82807 14.2908
H -9.09025 -1.40597 13.5135
O -0.647979 1.72266 12.9764
H -0.616665 2.35697 12.2039
H -1.59971 1.56444 13.2394
O -1.46018 -9.15541 -10.8358
H -1.53738 -8.62472 -9.99172
H -1.374 -8.5333 -11.6139
O 6.34708 -14.9225 6.64672
H 6.90316 -14.0921 6.61206
H 6.53978 14.4922 5.8437
O -12.2498 0.0246276 -14.7914
H -13.1379 0.105369 14.7347
H -11.9807 -0.937786 -14.7546
O -6.86712 7.23667 13.2429
H -6.37007 6.41943 12.9512
H -6.21766 7.92184 13.5726
O 0.966273 0.0796 14.5085
H 0.915203 -0.794095 14.0247
H 0.26266 0.697008 14.1567
O -7.17654 4.80578 8.5052
H -6.47485 4.48235 9.14003
H -7.76384 5.46999 8.9677
O -11.0126 -10.7851 -10.4537
H -11.8942 -10.7881 -10.9256
H -11.0998 -11.2661 -9.58136
O -7.9372 8.00487 7.64508
H -7.09542 8.24351 7.16087
H -7.78384 8.06809 8.63122
O -6.41642 -10.1553 8.34047
H -7.36576 -10.4465 8.45861
H -5.93924 -10.8059 7.74976
O 0.00760954 -5.30097 -6.44048
H 0.745794 -5.77069 -5.95627
H -0.291875 -5.85945 -7.21405
O -7.28705 -2.72671 -5.8665
H -6.83242 -2.00113 -5.34993
H -8.27774 -2.64023 -5.76131
O 5.36368 0.468385 -5.24278
H 5.54991 0.516897 -6.22409
H 4.96177 1.3314 -4.93673
O 9.02413 -10.469 -2.71729
H 9.39626 -11.1412 -2.07722
H 8.24841 -10.0003 -2.29476
O 4.51923 -10.8696 -9.97587
H 4.21086 -11.3226 -9.13937
H 5.0961 -10.0881 -9.73845
O -9.12928 -14.9202 9.82399
H -9.84464 -14.2289 9.92641
H -8.45294 -14.6038 9.15877
O 12.5612 -4.09276 -0.637637
H 13.0162 -3.75235 0.185192
H 12.9468 -4.9806 -0.888689
O 8.89155 14.7196 2.32388
H 8.47206 -14.7037 1.60574
H 9.64056 -14.748 2.74561
O 7.44431 -7.92647 6.34341
H 8.30373 -7.47654 6.1006
H 7.63855 -8.82069 6.74669
O 7.07218 -9.26208 -1.1341
H 6.27431 -9.61769 -1.62087
H 6.80373 -8.98554 -0.211351
O 11.0622 11.8731 -11.5364
H 11.9867 12.1859 -11.3185
H 11.1038 10.9485 -11.9152
O 8.56584 6.15461 5.93497
H 7.67959 6.03364 6.3821
H 8.77649 5.34448 5.38786
O 0.99531 -12.2993 8.8229
H 0.216704 -12.8917 9.0296
H 1.38081 -11.9459 9.67528
O -12.5362 -13.9811 11.5471
H -12.83 -14.6566 10.8708
H -11.9041 -14.4092 12.1929
O -11.5799 -4.55775 -4.62492
H -11.2499 -5.49524 -4.73537
H -12.5799 -4.55303 -4.63513
O 0.00464864 -2.18692 -10.0075
H 0.325557 -1.40112 -10.5362
H 0.609072 -2.3307 -9.22388
O 6.02591 -1.3195 5.63404
H 6.22077 -2.18232 5.16759
H 6.56838 -1.26384 6.47227
O -11.0882 -12.672 3.21099
H -10.9864 -12.9545 4.16482
H -10.8602 -13.4382 2.61023
O 3.43018 -13.7013 -10.9059
H 4.00479 -12.9787 -10.5216
H 3.08194 -14.2785 -10.1672
O 14.4225 -14.6365 -10.4319
H 14.5839 14.9887 -9.51039
H 13.445 -14.679 -10.6387
O -0.186154 -13.3864 -7.80324
H -0.580545 -14.0783 -8.40808
H 0.286227 -12.6955 -8.35048
O 12.3203 13.9216 -14.5867
H 11.419 13.7351 -14.1958
H 12.8445 13.0715 -14.6362
O 1.23802 -6.97702 -4.2729
H 1.97093 -7.5265 -4.67403
H 1.61018 -6.10392 -3.95796
O -6.70916 -14.2672 8.80685
H -6.72426 -13.379 9.26623
H -5.76247 -14.571 8.6999
O 6.14765 -8.38551 1.35327
H 6.25922 -8.70266 2.29506
H 6.65401 -7.53254 1.22662
O 9.28533 1.24188 -2.18964
H 9.93301 1.81672 -2.68971
H 8.64708 0.820627 -2.83399
O 11.832 -3.08175 12.9529
H 11.9004 -4.06085 13.1445
H 12.5838 -2.60057 13.4039
O -9.24054 -10.5835 -4.47101
H -9.50543 -10.5206 -5.43323
H -10.0246 -10.355 -3.89385
O -2.45681 -10.6309 10.2355
H -1.5693 -10.2108 10.4249
H -3.18692 -10.0185 10.5387
O -0.998664 -3.09034 7.34063
H -1.9857 -3.11938 7.49846
H -0.70214 -2.13888 7.25821
O -8.75744 0.418403 -10.0909
H -9.47386 0.491726 -10.7847
H -9.01003 0.964231 -9.29197
O 6.97315 4.48447 13.0555
H 7.18008 4.53337 14.0327
H 7.25384 5.33583 12.6124
O 2.37585 3.10687 12.5658
H 2.1537 2.90277 13.5192
H 2.46074 4.09625 12.4478
O -9.60199 -10.5862 4.182
H -10.0982 -11.2304 3.60003
H -8.80812 -11.0429 4.58343
O -11.3752 -9.06841 -3.43571
H -12.1054 -9.69286 -3.15835
H -10.8725 -8.76326 -2.62693
O 14.2367 -10.328 -10.1131
H -14.9043 -10.3 -10.6586
H 14.341 -9.73919 -9.31161
O 12.1035 -13.2809 -5.1117
H 13.0879 -13.1797 -4.96721
H 11.9381 -13.6751 -6.01571
O 14.2913 7.48034 1.54121
H 13.341 7.7845 1.47389
H 14.8348 8.18381 1.99916
O -10.2811 1.54433 -5.24739
H -11.0085 0.990104 -4.84288
H -10.2737 2.44821 -4.81967
O 5.12313 -5.95153 -6.08633
H 6.12307 -5.94485 -6.09492
H 4.78082 -5.09066 -6.4628
O 4.29392 -4.46387 -1.49867
H 3.31749 -4.24928 -1.52186
H 4.48183 -5.2287 -2.11489
O -14.1843 -0.627087 -1.43675
H -14.4638 0.313003 -1.24146
H -13.1943 -0.71098 -1.32307
O 13.1126 11.0798 8.01897
H 13.4669 10.1666 8.22049
H 13.2435 11.6712 8.81464
O -7.23387 -13.7357 0.679041
H -7.0094 -13.0904 1.40922
H -6.92583 -13.367 -0.197987
O 8.42739 -8.14114 12.7892
H 8.89525 -7.87799 13.6329
H 8.72802 -7.5479 12.0424
O -14.7904 5.57593 -5.97576
H -14.7642 6.52412 -6.29237
H 14.2686 5.20579 -6.10776
O 7.73854 13.0624 -6.71683
H 8.44784 13.3983 -6.09715
H 6.9727 13.7053 -6.72671
O 11.4504 12.4468 4.72716
H 10.6041 12.9487 4.90561
H 12.1635 12.7624 5.35318
O 11.8245 9.05812 4.96673
H 11.1554 9.30223 4.26475
H 11.3499 8.68605 5.76446
O 11.7383 -2.71295 -10.8569
H 12.0692 -2.48455 -9.94135
H 12.5116 -2.97039 -11.4363
O -3.22594 -2.64545 -6.58597
H -4.19958 -2.54368 -6.38184
H -2.87377 -1.78998 -6.96562
O 8.48879 -12.1151 -6.96194
H 9.47223 -11.9374 -6.92639
H 8.32496 -12.9948 -7.40846
O 1.93657 12.7217 12.6923
H 2.04119 13.4368 13.3836
H 2.5795 12.885 11.944
O -1.68962 7.713 14.6607
H -1.34259 8.4358 -14.7203
H -1.92456 8.10138 13.7696
O -13.4344 4.60691 -0.399696
H -12.9995 5.13661 0.32856
H -14.3783 4.915 -0.517831
O -7.53743 -4.13132 14.6823
H -7.07597 -4.37066 -14.442
H -8.0525 -4.92106 14.3491
O -10.3119 10.3945 -2.79299
H -9.80016 9.53606 -2.75708
H -9.89045 11.0598 -2.17675
O -11.287 -11.0243 0.733609
H -11.113 -11.397 1.64508
H -10.6834 -10.2436 0.571858
O -2.53554 3.88203 13.7655
H -3.37159 4.34794 14.0552
H -2.69328 2.89471 13.7475
O -7.4143 8.70888 -9.83649
H -6.97019 7.93077 -10.2807
H -6.85361 9.01898 -9.06872
O -12.1087 1.59765 10.9653
H -12.5008 2.03597 11.7741
H -11.8524 0.656886 11.1873
O 14.6221 -1.98733 5.22696
H 14.0834 -2.64887 4.70532
H 14.8983 -1.2359 4.62774
O -11.6727 10.7313 6.25097
H -11.2068 9.93171 5.87199
H -11.6643 11.4717 5.57885
O -13.1035 2.89008 2.14882
H -13.0995 3.35259 1.26221
H -13.5323 3.48176 2.83149
O -3.36725 2.31663 -7.08985
H -4.15753 2.02585 -6.55049
H -3.66557 2.56351 -8.01183
O -10.7919 -12.6075 9.93078
H -11.301 -12.835 10.7609
H -11.4326 -12.4522 9.17884
O -12.7694 -12.6834 14.4278
H -11.9442 -12.7402 -14.9888
H -12.778 -13.4375 13.7711
O -6.40452 -2.40259 10.6992
H -6.85139 -1.71278 11.2689
H -5.63584 -2.80102 11.1996
O -3.8946 11.6278 -8.79976
H -4.34433 12.4164 -9.21908
H -4.58237 11.0378 -8.37682
O -8.97189 14.2067 -3.27572
H -8.8604 -14.7826 -3.18106
H -8.5388 13.9021 -4.12406
O -6.63063 13.4303 6.82407
H -6.69027 12.6446 7.43979
H -7.052 14.2266 7.25805
O -5.7304 11.2953 1.45927
H -4.9397 10.8599 1.02888
H -6.04279 12.056 0.890282
O -6.98069 -0.509954 6.02096
H -7.64588 -0.466789 5.27554
H -7.21152 -1.26862 6.63017
O -14.6671 5.16518 11.6766
H -13.7236 4.94929 11.9279
H 14.6934 4.84197 12.3931
O -1.04152 -4.78425 -1.95744
H -1.01835 -4.14461 -2.72576
H -1.32002 -5.68748 -2.28397
O 5.60751 -10.1442 9.92107
H 4.93521 -9.57531 9.44738
H 5.3309 -10.263 10.8747
O 11.4193 -6.03904 -13.1791
H 12.0423 -6.65099 -12.6918
H 11.0826 -5.33726 -12.5513
O 4.07272 7.04957 -10.1319
H 4.82977 7.32171 -10.7259
H 4.34761 7.14774 -9.17545
O 8.49024 3.09093 6.54476
H 9.03438 3.22254 7.37337
H 7.51986 3.19367 6.76341
O 6.40771 13.641 10.1252
H 7.384 13.5862 9.91582
H 6.23247 13.213 11.0119
O -11.3309 12.9199 4.33295
H -10.5711 13.4524 4.70605
H -12.1881 13.413 4.48134
O -1.2983 -10.025 7.65647
H -1.48529 -10.3731 8.57511
H -0.471796 -9.4624 7.67506
O 8.05566 -1.53178 8.46027
H 8.12864 -1.39188 9.44775
H 8.92379 -1.29359 8.02482
O -4.49468 -2.74859 -11.2406
H -5.3137 -2.21137 -11.0391
H -3.73181 -2.13246 -11.4366
O 11.1464 0.279286 -10.9261
H 10.995 1.05107 -11.5437
H 11.4185 -0.523639 -11.4565
O -1.85851 -14.4619 -0.526684
H -1.74315 -14.7772 0.415276
H -2.76666 -14.7205 -0.855882
O -13.3798 12.0957 -5.07328
H -13.5907 11.148 -4.83342
H -12.5863 12.4036 -4.5484
O 9.60601 -8.3049 -6.94014
H 8.99497 -8.5948 -6.20353
H 9.82549 -9.08987 -7.5195
O 4.80748 -10.3206 -14.5871
H 5.34336 -9.52711 -14.2985
H 5.13868 -11.1366 -14.1134
O -8.3099 -0.333017 -0.843196
H -7.44279 -0.218193 -0.3585
H -8.5752 0.535444 -1.262
O 2.07516 -0.224258 -11.5359
H 2.09142 -1.15813 -11.8931
H 1.47633 0.339743 -12.1045
O -9.37025 -3.6873 5.12846
H -10.1468 -4.18912 5.50949
H -9.57379 -3.42419 4.18541
O -9.15873 -10.4241 -12.3019
H -8.69525 -11.2695 -12.5675
H -9.80681 -10.6167 -11.5651
O 13.71 13.0457 3.14946
H 12.8356 12.8053 3.57101
H 14.3419 12.2749 3.23007
O -8.78824 4.4972 12.1793
H -7.7904 4.4609 12.1245
H -9.18159 3.8457 11.5306
O -0.449223 2.55972 -6.60325
H -1.44633 2.62857 -6.57091
H -0.0467675 3.28401 -6.0434
O 1.7311 -1.78236 -7.74762
H 1.28806 -0.890549 -7.83923
H 1.62317 -2.11343 -6.8102
O 4.49935 -2.04169 13.5841
H 4.05729 -2.59446 12.8777
H 5.33163 -2.50099 13.8946
O -4.00266 -4.44957 -2.31779
H -3.04885 -4.17014 -2.20754
H -4.08925 -5.02633 -3.1301
O 4.89478 -12.5222 -7.80392
H 5.34231 -11.7298 -7.3893
H 3.98521 -12.6379 -7.40482
O -12.5875 -11.1088 -5.30515
H -12.9894 -10.9309 -6.20338
H -12.0077 -10.338 -5.04096
O 9.63463 -4.24473 -11.3101
H 9.37948 -4.92442 -10.6224
H 10.4832 -3.7934 -11.0339
O 14.3873 -13.2657 -1.65346
H 14.0072 -13.9688 -2.25451
H -14.7925 -12.8509 -2.08917
O -9.57247 4.09417 -4.09717
H -9.02939 3.77382 -3.321
H -10.393 4.55686 -3.76152
O -3.9199 -12.7617 9.22265
H -3.47121 -11.9095 9.49177
H -4.34998 -12.6437 8.32759
O -12.9634 11.8606 -11.3698
H -12.1242 12.2536 -10.9939
H -13.7491 12.3995 -11.066
O 1.7943 8.66834 8.51201
H 1.45739 9.59723 8.66578
H 2.1723 8.3056 9.36379
O -7.17925 10.0918 14.8019
H -7.70763 10.1758 13.957
H -6.33523 9.58782 14.6185
O 5.04074 2.06881 12.0712
H 5.59513 2.82064 12.4281
H 4.07169 2.27721 12.2036
O 7.11699 3.05277 9.6406
H 6.64608 2.25831 9.25709
H 6.70623 3.29094 10.5207
O 8.80263 12.0601 7.68435
H 9.39438 11.254 7.67909
H 9.1211 12.7118 6.99603
O -1.81502 10.9651 -10.766
H -1.49207 11.8676 -11.0512
H -2.54397 11.0704 -10.0896
O 9.90428 2.81484 11.1382
H 9.20445 2.76322 10.4257
H 9.47714 2.69448 12.0343
O -11.4899 5.51075 -2.71204
H -12.0707 5.59574 -1.90242
H -10.9049 6.31813 -2.78883
O -2.34526 11.3384 11.2773
H -1.50659 10.8263 11.0918
H -2.22234 11.8924 12.1006
O -13.3254 9.21573 -4.25787
H -12.8837 8.31882 -4.27732
H -13.2905 9.58444 -3.32898
O -7.56882 3.10393 3.04297
H -8.5073 3.32724 2.77957
H -7.5051 3.05481 4.03973
O 4.16566 4.64765 8.65631
H 4.12249 3.74338 8.23152
H 4.35263 4.54821 9.63363
O -1.27979 -10.5856 -1.33805
H -0.56365 -10.9263 -0.728886
H -1.54942 -11.3095 -1.97308
O 4.55167 3.12465 -10.0937
H 5.45258 3.51513 -9.90429
H 4.14844 3.58506 -10.8846
O -13.4596 2.46245 8.70556
H -13.0516 2.1825 9.57457
H -13.0078 1.98067 7.9547
O 4.6793 9.31407 -12.0413
H 4.7739 10.1295 -11.4702
H 3.86373 9.40066 -12.6134
O 13.6308 -3.16091 1.61918
H 13.4683 -3.55264 2.52479
H 13.4261 -2.18227 1.63771
O 11.4019 -14.2078 -7.68344
H 10.4998 -14.4928 -8.00757
H 11.631 -13.3171 -8.07607
O 13.0808 -0.399221 1.51574
H 12.4115 -0.318214 2.2543
H 12.8194 0.202956 0.761416
O -14.9777 10.5469 0.202924
H -14.1442 11.0022 0.515951
H -14.901 10.3457 -0.773608
O -1.62004 14.5311 2.19045
H -0.656455 14.5922 2.45076
H -1.98201 13.6385 2.45949
O 11.1603 -12.6049 13.9689
H 12.0678 -12.592 14.3889
H 10.6363 -13.3757 14.3312
O 9.866 -10.5227 -9.45222
H 10.258 -11.4408 -9.51179
H 8.94416 -10.5281 -9.83975
O -7.97859 7.60569 -0.936941
H -7.7898 8.36884 -0.318904
H -7.43087 6.81409 -0.666092
O 14.6316 9.10427 5.10698
H 13.6436 9.19457 4.98172
H 14.8198 8.35726 5.74459
O -14.1869 7.82044 11.9363
H -14.9435 8.33802 11.5368
H -14.3813 6.84171 11.8709
O -12.975 10.7064 -2.10938
H -12.0472 10.4229 -2.35195
H -12.9753 11.6777 -1.87139
O 9.62047 5.87718 -4.43222
H 10.1845 5.063 -4.29435
H 9.33388 5.92601 -5.38902
O -9.84893 11.0007 0.863505
H -9.22948 10.2217 0.961016
H -9.54508 11.5751 0.1034
O 6.62058 11.2544 14.595
H 7.42357 11.4656 -14.8262
H 6.28668 10.3401 14.8244
O -2.28642 -14.4191 5.47564
H -2.14862 -13.4601 5.72341
H -2.21139 -14.5211 4.4837
O 0.633964 0.588572 -8.31975
H 1.15619 1.06699 -9.02572
H 0.313711 1.24681 -7.63845
O -2.87523 -9.1003 -6.02639
H -1.95703 -9.28233 -5.67458
H -3.09783 -8.13453 -5.89315
O -8.21407 0.886017 -3.69501
H -7.91194 1.65046 -3.12549
H -8.72447 1.23669 -4.48019
O 9.3417 -5.61913 -4.05934
H 8.61077 -5.46814 -4.72487
H 9.66726 -6.56201 -4.12998
O -6.26534 6.17262 -3.44303
H -6.15685 6.95027 -4.06229
H -5.70179 6.31357 -2.62905
O -13.0348 7.90858 3.91265
H -13.9145 8.11554 4.34086
H -12.2953 8.11817 4.55227
O -11.7157 6.98096 -7.27153
H -10.7741 7.07382 -7.59537
H -11.7855 6.1819 -6.67434
O -7.12599 -7.28263 -3.31636
H -7.02658 -8.18359 -3.73872
H -6.28412 -7.04751 -2.83058
O 12.4343 4.9881 -11.8953
H 13.2446 4.7775 -11.3485
H 12.6842 5.01943 -12.8631
O -4.15357 6.20797 8.77696
H -4.01328 6.88295 8.05258
H -3.50047 6.37186 9.51629
O 12.9662 3.26341 -8.95349
H 12.1409 3.82715 -8.98709
H 13.6109 3.57433 -9.65184
O 2.50487 -11.4535 -14.2662
H 2.51794 -12.4444 -14.4
H 3.44243 -11.1057 -14.259
O 6.9674 4.48403 -10.2542
H 7.70161 3.80819 -10.1896
H 7.35053 5.40266 -10.1575
O -7.2563 -12.6176 -14.9134
H -7.76521 -12.9072 -14.1027
H -6.29737 -12.8847 -14.818
O 0.000868826 -11.5034 -9.74451
H 0.687435 -11.2934 -10.4406
H -0.591396 -10.709 -9.61009
O 0.393037 -11.4768 0.512449
H 0.927713 -11.2343 1.32197
H 1.00322 -11.8311 -0.196196
O 0.778858 4.65637 -12.5718
H 0.201945 3.98304 -13.0342
H 0.458679 4.78079 -11.6327
O -5.23441 -5.35699 13.2765
H -5.74436 -4.68132 13.8088
H -5.79275 -6.17805 13.1576
O -4.70229 3.90707 10.0447
H -3.93389 3.37629 10.4022