LAMMPS data file via write_data, version 15 May 2015, timestep = 23005000

2611 atoms
6 atom types
1749 bonds
4 bond types
894 angles
3 angle types
44 dihedrals
3 dihedral types
10 impropers
1 improper types

-1.4978045178777133e+01 1.4978045178777133e+01 xlo xhi
-1.4978045178777133e+01 1.4978045178777133e+01 ylo yhi
-1.4978045178777133e+01 1.4978045178777133e+01 zlo zhi

Masses

1 15.9994
2 1.00794
3 12.0107
4 1.00794
5 12.0107
6 12.0107

Bond Coeffs # harmonic

1 1000 1
2 469 1.4
3 367 1.08
4 469 0.7

Angle Coeffs # harmonic

1 100 109.47
2 35 120
3 63 120

Dihedral Coeffs # opls

1 0 7.25 0 0
2 0 7.25 0 0
3 0 7.25 0 0

Improper Coeffs # cvff

1 2.5 -1 2

Atoms # full

1087 363 1 -8.1999999999999995e-01 -7.1788388393180762e+00 -1.0885106359512996e+01 -1.3741692941830719e+01 -2 0 4
2257 753 1 -8.1999999999999995e-01 -1.3777572166671867e+01 -1.3961794628146798e+01 -1.2216448290642925e+01 7 2 -2
85 29 1 -8.1999999999999995e-01 -1.1234205818357150e+01 -1.1904103493171011e+01 -1.2405129633469134e+01 1 4 -3
2135 712 2 4.0999999999999998e-01 -7.2531468547592084e+00 -9.9013174219542641e+00 -8.0295799552768319e+00 3 2 -1
1088 363 2 4.0999999999999998e-01 -6.6036930246845049e+00 -1.1681514959116683e+01 -1.3928612557326412e+01 -2 0 4
87 29 2 4.0999999999999998e-01 -1.0387806489944484e+01 -1.2218165684805028e+01 -1.2835212722982991e+01 1 4 -3
2134 712 1 -8.1999999999999995e-01 -7.5974303898578102e+00 -1.0779529918855069e+01 -8.3615589227406062e+00 3 2 -1
1089 363 2 4.0999999999999998e-01 -7.2857477152815733e+00 -1.0347491203704813e+01 -1.4578077157875438e+01 -2 0 4
2047 683 1 -8.1999999999999995e-01 -1.1413719263218786e+01 -1.2654106258723150e+01 -9.2788449696025879e+00 5 -1 -3
86 29 2 4.0999999999999998e-01 -1.1083758606730637e+01 -1.1780574065736019e+01 -1.1424260402366698e+01 1 4 -3
2049 683 2 4.0999999999999998e-01 -1.2403711178927935e+01 -1.2513138927719011e+01 -9.2853738944140876e+00 5 -1 -3
2136 712 2 4.0999999999999998e-01 -7.5956610738019235e+00 -1.0781744115187019e+01 -9.3615541243502882e+00 3 2 -1
2048 683 2 4.0999999999999998e-01 -1.1008649599852415e+01 -1.2138851657406246e+01 -8.5235769983259146e+00 5 -1 -3
502 168 1 -8.1999999999999995e-01 -7.9118865131091347e+00 -1.0617788827331118e+01 -1.1098408243506061e+01 2 12 2
2259 753 2 4.0999999999999998e-01 -1.4028930838945620e+01 -1.3341615054899270e+01 -1.1473350380203652e+01 7 2 -2
503 168 2 4.0999999999999998e-01 -8.4996603445316605e+00 -9.8104617819863336e+00 -1.1046030893863078e+01 2 12 2
504 168 2 4.0999999999999998e-01 -7.6851732754715831e+00 -1.0803562015716700e+01 -1.2054487681801257e+01 2 12 2
414 138 2 4.0999999999999998e-01 -9.9699904780231101e+00 -1.2814750460843303e+01 -1.0149957967083221e+01 4 3 -3
468 156 2 4.0999999999999998e-01 -7.2611736883750471e+00 -1.3277160884494439e+01 -9.7407212444992091e+00 2 8 -2
356 119 2 4.0999999999999998e-01 -1.3600711897367033e+01 -8.7118601009145689e+00 -1.0695426043494516e+01 3 -1 1
1533 511 2 4.0999999999999998e-01 -1.2920216582258687e+01 -1.1040908769269560e+01 -1.3123990933127958e+01 1 1 -5
466 156 1 -8.1999999999999995e-01 -6.2697621979083245e+00 -1.3390363716100881e+01 -9.6752481520111449e+00 2 8 -2
1064 355 2 4.0999999999999998e-01 -8.6525116879112236e+00 -1.4131230439115372e+01 -1.3989190073598186e+01 4 5 2
2437 813 1 -8.1999999999999995e-01 -5.1250628112663925e+00 -1.0930319930620179e+01 -1.0761523480344312e+01 -1 0 2
175 59 1 -8.1999999999999995e-01 -9.4065613972061826e+00 -8.3130188669421763e+00 -1.3809846561722129e+01 -3 7 -1
2438 813 2 4.0999999999999998e-01 -6.0639990579823522e+00 -1.0702429803686346e+01 -1.0503718751429439e+01 -1 0 2
467 156 2 4.0999999999999998e-01 -5.8273316336716299e+00 -1.2890752007518298e+01 -1.0419990820873689e+01 2 8 -2
412 138 1 -8.1999999999999995e-01 -9.0404772633036625e+00 -1.2951298209403664e+01 -1.0492533896539502e+01 4 3 -3
2258 753 2 4.0999999999999998e-01 -1.2858807050632166e+01 -1.3737537520235877e+01 -1.2541375683695293e+01 7 2 -2
1327 443 1 -8.1999999999999995e-01 -1.4221083498577551e+01 -1.2638525745061751e+01 -9.6454801331176512e+00 5 5 1
413 138 2 4.0999999999999998e-01 -8.7033640721720591e+00 -1.2098235251460435e+01 -1.0890826165341835e+01 4 3 -3
1065 355 2 4.0999999999999998e-01 -8.4110985395952174e+00 -1.2527426343535335e+01 -1.3799047177247434e+01 4 5 2
1328 443 2 4.0999999999999998e-01 -1.4349762462066376e+01 -1.3439462183242528e+01 -9.0607229907480669e+00 5 5 1
1724 575 2 4.0999999999999998e-01 -1.1234554314139428e+01 -8.1233858343893495e+00 -1.0337767256301587e+01 1 3 -1
1723 575 1 -8.1999999999999995e-01 -1.2053729424936609e+01 -8.6764411866629025e+00 -1.0185845131555759e+01 1 3 -1
2569 857 1 -8.1999999999999995e-01 -7.9517911232813319e+00 -8.1424080476894964e+00 -8.3405126186112817e+00 -1 4 4
731 244 2 4.0999999999999998e-01 -1.1172002354387102e+01 -1.4616534061381152e+01 -8.8918381841899841e+00 7 5 -3
1531 511 1 -8.1999999999999995e-01 -1.3822711570705073e+01 -1.0613318049564146e+01 -1.3175637360483170e+01 1 1 -5
858 286 2 4.0999999999999998e-01 -1.2302497329849396e+01 -8.3378090027855727e+00 -1.2521003118188828e+01 6 5 2
357 119 2 4.0999999999999998e-01 -1.4589030560884224e+01 -9.5404333095140501e+00 -1.1697081993842271e+01 3 -1 1
2416 806 1 -8.1999999999999995e-01 -9.1276673933368571e+00 -8.3745634756100191e+00 -1.1165122147003380e+01 -4 7 3
2417 806 2 4.0999999999999998e-01 -8.5520988984845125e+00 -7.6073652550174726e+00 -1.0882056815922002e+01 -4 7 3
1725 575 2 4.0999999999999998e-01 -1.2144954442914397e+01 -8.8759936894782996e+00 -9.2102144393782890e+00 1 3 -1
857 286 2 4.0999999999999998e-01 -1.1093449503431799e+01 -8.0093997534379326e+00 -1.3568367892630448e+01 6 5 2
1593 531 2 4.0999999999999998e-01 -8.8651422679707537e+00 -1.4909701162566979e+01 -1.1083771873161101e+01 2 5 1
177 59 2 4.0999999999999998e-01 -9.6191046133022660e+00 -8.9203527041549808e+00 -1.4575332996188852e+01 -3 7 -1
645 215 2 4.0999999999999998e-01 -6.7505815772678641e+00 -1.4775940054659614e+01 -8.7391430275873745e+00 0 7 -2
1063 355 1 -8.1999999999999995e-01 -9.0664566235875004e+00 -1.3226096121323188e+01 -1.4086039708507654e+01 4 5 2
1329 443 2 4.0999999999999998e-01 -1.4843765831244541e+01 -1.1911362686344916e+01 -9.3565181533089810e+00 5 5 1
856 286 1 -8.1999999999999995e-01 -1.1919378948263970e+01 -7.6481790282551794e+00 -1.3135518554657486e+01 6 5 2
2418 806 2 4.0999999999999998e-01 -9.3961747537333444e+00 -8.2549196165811942e+00 -1.2120939909063532e+01 -4 7 3
2406 802 2 4.0999999999999998e-01 -1.4663056644475164e+01 -9.5707160380502181e+00 -1.4163992933735985e+01 6 4 -4
176 59 2 4.0999999999999998e-01 -8.5948731179540143e+00 -7.7717091971553458e+00 -1.4029264947446045e+01 -3 7 -1
355 119 1 -8.1999999999999995e-01 -1.4482355695891091e+01 -8.6991190766917583e+00 -1.1167167793592293e+01 3 -1 1
2001 667 2 4.0999999999999998e-01 -9.5394784665530743e+00 -1.0664841693898765e+01 -7.8994395011861904e+00 5 0 -3
1532 511 2 4.0999999999999998e-01 -1.4495026028201718e+01 -1.1197984693835586e+01 -1.2721592850811462e+01 1 1 -5
1999 667 1 -8.1999999999999995e-01 -1.0483151356625665e+01 -1.0671126494770887e+01 -7.5686216727991589e+00 5 0 -3
315 105 2 4.0999999999999998e-01 -1.1727438147790172e+01 -1.2782076573696990e+01 -1.4838089133149147e+01 5 11 1
1320 440 2 4.0999999999999998e-01 -6.2221857955204118e+00 -1.1884003740593929e+00 -8.0965586092986950e+00 -2 4 9
1318 440 1 -8.1999999999999995e-01 -7.1541238261411175e+00 -8.3169988524924854e-01 -8.1617870892933340e+00 -2 4 9
1376 459 2 4.0999999999999998e-01 -1.4974437860279842e+01 -5.0548908212868913e+00 -8.3414250653899042e+00 6 8 -1
2570 857 2 4.0999999999999998e-01 -7.3262923545418177e+00 -7.3626465398359091e+00 -8.3136477354728555e+00 -1 4 4
2545 849 1 -8.1999999999999995e-01 -6.0352610916516252e+00 -1.1151805424602887e+00 -1.4206074244210031e+01 5 1 3
1973 658 2 4.0999999999999998e-01 -1.4145377373004019e+01 -3.6904159064009310e+00 -1.1461037610197913e+01 5 3 0
1016 339 2 4.0999999999999998e-01 -1.2567598602032703e+01 -6.7015170140499176e+00 -1.4427800664900824e+01 11 5 -3
2547 849 2 4.0999999999999998e-01 -5.5429800349905296e+00 -1.9015530397065454e+00 -1.4579271385681727e+01 5 1 3
1284 428 2 4.0999999999999998e-01 -8.1172293728086373e+00 -2.5516978164934656e-01 -1.1838720957818724e+01 -3 10 3
1319 440 2 4.0999999999999998e-01 -7.7153543295676261e+00 -1.4617240988934928e+00 -8.6985256202364152e+00 -2 4 9
744 248 2 4.0999999999999998e-01 -9.0346671010370532e+00 -2.7212291560636288e+00 -9.9263070954184087e+00 6 7 -1
601 201 1 -8.1999999999999995e-01 -1.4665213710613273e+01 -1.5520114095886477e+00 -7.7036358870394563e+00 6 6 -1
1347 449 2 4.0999999999999998e-01 -1.4269849752122848e+01 -1.8635620169393583e+00 -1.2884590241893159e+01 11 1 -1
2424 808 2 4.0999999999999998e-01 -5.0085050370179598e+00 -5.4108879549036466e+00 -1.2067034893729485e+01 6 4 -6
1928 643 2 4.0999999999999998e-01 -1.1359812966160499e+01 -6.6531455469151055e+00 -1.1923030128920651e+01 5 0 -2
742 248 1 -8.1999999999999995e-01 -8.9673454441586902e+00 -1.8322319122066322e+00 -1.0379242107572580e+01 6 7 -1
1346 449 2 4.0999999999999998e-01 -1.3983657887354060e+01 -5.4341180391527466e-01 -1.3802152184346607e+01 11 1 -1
508 170 1 -8.1999999999999995e-01 -5.7559001189691656e+00 -3.7731890898537195e+00 -8.7834963874624261e+00 5 10 -1
1980 660 2 4.0999999999999998e-01 -1.1017868539344594e+01 -4.5099451568790982e-01 -1.3666639355690627e+01 6 0 3
743 248 2 4.0999999999999998e-01 -9.8488002261619485e+00 -1.3630579693178042e+00 -1.0325281559226593e+01 6 7 -1
565 189 1 -8.1999999999999995e-01 -8.8294680675315256e+00 -4.5199274263919218e+00 -8.5887917452322018e+00 2 5 -4
510 170 2 4.0999999999999998e-01 -5.5372674254177650e+00 -3.5699283468872594e+00 -9.7378984214406881e+00 5 10 -1
1545 515 2 4.0999999999999998e-01 -1.1574727904361531e+01 -1.4896386077461958e+00 -9.8716768562498984e+00 3 5 2
1543 515 1 -8.1999999999999995e-01 -1.1677914947614534e+01 -5.7939630368453265e-01 -1.0272687861355077e+01 3 5 2
1345 449 1 -8.1999999999999995e-01 -1.3762655242758481e+01 -1.5097500840134774e+00 -1.3670446014734306e+01 11 1 -1
566 189 2 4.0999999999999998e-01 -9.4161166135433856e+00 -5.0775353256498406e+00 -9.1760865648214960e+00 2 5 -4
1929 643 2 4.0999999999999998e-01 -1.0901184013274204e+01 -5.0875921225341365e+00 -1.1850064391256501e+01 5 0 -2
1974 658 2 4.0999999999999998e-01 -1.3230191946814148e+01 -5.0425278419185595e+00 -1.1490213402358677e+01 5 3 0
777 259 2 4.0999999999999998e-01 -1.0998330334972856e+01 -3.7948659490940724e+00 -8.6031729706446107e+00 10 8 -1
336 112 2 4.0999999999999998e-01 -7.4512991876496306e+00 -5.9190796614477836e+00 -1.4612149966024214e+01 7 3 2
1697 566 2 4.0999999999999998e-01 -5.6170404020646352e+00 -3.1891293934430625e+00 -1.1831896229799380e+01 1 4 0
335 112 2 4.0999999999999998e-01 -6.5476230303272835e+00 -6.5281415201983535e+00 -1.3395993993811391e+01 7 3 2
334 112 1 -8.1999999999999995e-01 -7.0332813202191096e+00 -6.7486322569854664e+00 -1.4241877085125328e+01 7 3 2
776 259 2 4.0999999999999998e-01 -1.2191003747560334e+01 -3.5478142538485713e+00 -9.6908851286295228e+00 10 8 -1
775 259 1 -8.1999999999999995e-01 -1.1418870378039403e+01 -3.1257209796193841e+00 -9.2158633700827881e+00 10 8 -1
1972 658 1 -8.1999999999999995e-01 -1.3390654002207624e+01 -4.1752093700138069e+00 -1.1019035037959982e+01 5 3 0
919 307 1 -8.1999999999999995e-01 -6.2187956046487436e+00 -6.3373859194622266e+00 -7.6996087476870638e+00 5 2 4
881 294 2 4.0999999999999998e-01 -8.2013676508451141e+00 -3.3588377163768968e+00 -1.2622645063597153e+01 0 0 1
509 170 2 4.0999999999999998e-01 -6.7458311842661143e+00 -3.7243756858678498e+00 -8.6506349252782329e+00 5 10 -1
1927 643 1 -8.1999999999999995e-01 -1.1223220178322943e+01 -5.8697656592138685e+00 -1.1316683099130151e+01 5 0 -2
882 294 2 4.0999999999999998e-01 -7.1132535781158683e+00 -2.5194714216414269e+00 -1.3504741617456617e+01 0 0 1
880 294 1 -8.1999999999999995e-01 -7.2444022522927618e+00 -3.3118821154628417e+00 -1.2909020447400188e+01 0 0 1
1800 600 2 4.0999999999999998e-01 -1.1573408164355378e+01 -3.1339949453922866e+00 -1.2273562936683986e+01 5 7 -3
1283 428 2 4.0999999999999998e-01 -7.1569667698679469e+00 -1.9457865630976201e-01 -1.3158132492388962e+01 -3 10 3
567 189 2 4.0999999999999998e-01 -8.8695578476350150e+00 -4.8668990039082640e+00 -7.6517741895300597e+00 2 5 -4
1798 600 1 -8.1999999999999995e-01 -1.0672484909451894e+01 -3.1968874594196190e+00 -1.2702958108661051e+01 5 7 -3
1799 600 2 4.0999999999999998e-01 -1.0756164652900750e+01 -3.0111010150721249e+00 -1.3681977782080363e+01 5 7 -3
602 201 2 4.0999999999999998e-01 -1.4269905492731441e+01 -8.1918614164907311e-01 -8.2574382054817068e+00 6 6 -1
920 307 2 4.0999999999999998e-01 -6.0213189348330545e+00 -5.3722125889379804e+00 -7.8711949582423113e+00 5 2 4
2546 849 2 4.0999999999999998e-01 -5.9004781990074733e+00 -3.2389863343187208e-01 -1.4802484318358474e+01 5 1 3
1544 515 2 4.0999999999999998e-01 -1.2531864854300103e+01 -1.6905348840430001e-01 -9.9527085202686472e+00 3 5 2
1017 339 2 4.0999999999999998e-01 -1.3924840009661903e+01 -5.8599905307621700e+00 -1.4768903748186172e+01 11 5 -3
1780 594 1 -8.1999999999999995e-01 -7.9434851114645939e+00 -1.1906166532837684e+01 -5.6974514934966791e+00 -1 6 4
1782 594 2 4.0999999999999998e-01 -8.4496460195297018e+00 -1.2753502770900649e+01 -5.8581400161120616e+00 -1 6 4
756 252 2 4.0999999999999998e-01 -6.3754979559612757e+00 -1.3711397005188033e+01 -4.8173997614969508e+00 4 7 0
2554 852 1 -8.1999999999999995e-01 -1.1059560935121093e+01 -1.1928693242733994e+01 -4.2936457271729900e+00 7 11 5
1817 606 2 4.0999999999999998e-01 -8.8700162891750089e+00 -7.9534526313386715e+00 -2.8998087806090300e+00 6 5 -7
2021 674 2 4.0999999999999998e-01 -1.1382095709839394e+01 -8.3855161548645771e+00 -4.3814505911177299e+00 3 4 0
2020 674 1 -8.1999999999999995e-01 -1.0730601015215440e+01 -8.9075594387593320e+00 -4.9319266958147381e+00 3 4 0
1075 359 1 -8.1999999999999995e-01 -6.1289299673135691e+00 -1.3090851749725626e+01 -2.1366761997905606e+00 6 8 0
2588 863 2 4.0999999999999998e-01 -1.0935007052495784e+01 -1.3359988387258070e+01 -1.5958368715969549e+00 4 4 -3
2587 863 1 -8.1999999999999995e-01 -1.1633917466731319e+01 -1.2672515150729307e+01 -1.7930758925297727e+00 4 4 -3
360 120 2 4.0999999999999998e-01 -7.3710997902867232e+00 -1.0178025801983942e+01 -1.9057637786855217e+00 5 8 -1
1703 568 2 4.0999999999999998e-01 -7.1825577230202056e+00 -1.1942614860618537e+01 -2.9074680599286538e+00 5 5 -6
2589 863 2 4.0999999999999998e-01 -1.1449351296787277e+01 -1.2255355404558726e+01 -2.6829698898235410e+00 4 4 -3
358 120 1 -8.1999999999999995e-01 -7.1739768253939502e+00 -9.7739668120252503e+00 -1.0125241013231818e+00 5 8 -1
439 147 1 -8.1999999999999995e-01 -1.2489462090255946e+01 -8.1885356313973645e+00 -3.0689497025247725e+00 8 5 -7
1781 594 2 4.0999999999999998e-01 -7.6162760229634898e+00 -1.1542836950188574e+01 -6.5697611443132100e+00 -1 6 4
2556 852 2 4.0999999999999998e-01 -1.1181607349523887e+01 -1.0962409156681554e+01 -4.5203573256603349e+00 7 11 5
1281 427 2 4.0999999999999998e-01 -7.5234946267651415e+00 -9.9865869313435418e+00 -5.5925977988623661e+00 2 1 -2
359 120 2 4.0999999999999998e-01 -6.2001644180110347e+00 -9.8747018571790477e+00 -8.0871005574317678e-01 5 8 -1
1702 568 1 -8.1999999999999995e-01 -7.7134626895930536e+00 -1.1133088981823342e+01 -3.1580796933191717e+00 5 5 -6
367 123 1 -8.1999999999999995e-01 -1.1130364660714280e+01 -9.8859274428365254e+00 -1.1118307790666613e+00 3 4 0
1077 359 2 4.0999999999999998e-01 -6.5641627899705846e+00 -1.3883251652382135e+01 -1.7092733193587364e+00 6 8 0
1704 568 2 4.0999999999999998e-01 -8.0738514261782441e+00 -1.1244412848597097e+01 -4.0842143124365986e+00 5 5 -6
369 123 2 4.0999999999999998e-01 -1.0398786952732042e+01 -9.7335015229340272e+00 -1.7763296972092366e+00 3 4 0
440 147 2 4.0999999999999998e-01 -1.2230603636967960e+01 -8.7638597213527270e+00 -2.2930676911379173e+00 8 5 -7
2055 685 2 4.0999999999999998e-01 -1.4741482126142319e+01 -1.2868333442809394e+01 -4.3575826053386599e+00 12 6 1
2555 852 2 4.0999999999999998e-01 -1.0910289937476858e+01 -1.2451670910498088e+01 -5.1328184338425480e+00 7 11 5
1076 359 2 4.0999999999999998e-01 -5.2729455436177268e+00 -1.2884652750947010e+01 -1.6625759300440173e+00 6 8 0
755 252 2 4.0999999999999998e-01 -6.6823300721201822e+00 -1.4859207838681586e+01 -5.9376705745045477e+00 4 7 0
2000 667 2 4.0999999999999998e-01 -1.0522169882411447e+01 -1.0246049598155484e+01 -6.6643066715400234e+00 5 0 -3
2571 857 2 4.0999999999999998e-01 -8.4675951976727823e+00 -8.1855801684227405e+00 -7.4848954227021602e+00 -1 4 4
841 281 1 -8.1999999999999995e-01 -1.4368627597674626e+01 -1.1253026497115812e+01 -2.2094447931009942e+00 4 2 6
1280 427 2 4.0999999999999998e-01 -7.0118111646401307e+00 -8.4394439187977213e+00 -5.4870010586194091e+00 2 1 -2
1279 427 1 -8.1999999999999995e-01 -7.7901110332650845e+00 -9.0291014557067388e+00 -5.7027593753651189e+00 2 1 -2
476 159 2 4.0999999999999998e-01 -1.2966655120933426e+01 -1.3880857950381602e+01 -5.4001403225489124e+00 1 6 0
2269 757 1 -8.1999999999999995e-01 -1.4623799037248080e+01 -1.4098927219325544e+01 -7.2429156505414483e-01 6 5 0
1028 343 2 4.0999999999999998e-01 -1.0262214874465808e+01 -1.4568170130969650e+01 -5.7102269377243040e+00 9 -1 -1
368 123 2 4.0999999999999998e-01 -1.1319598584191253e+01 -1.0865461328551772e+01 -1.0432571998045184e+00 3 4 0
1029 343 2 4.0999999999999998e-01 -9.0600873977976271e+00 -1.4792402311632063e+01 -6.7924614569877342e+00 9 -1 -1
1027 343 1 -8.1999999999999995e-01 -9.5075257778359941e+00 -1.4126557461894114e+01 -6.1954288631065140e+00 9 -1 -1
754 252 1 -8.1999999999999995e-01 -5.9918308758195575e+00 -1.4488242492935401e+01 -5.3167083959881332e+00 4 7 0
475 159 1 -8.1999999999999995e-01 -1.2658080605136604e+01 -1.4766668603955013e+01 -5.7467232316501597e+00 1 6 0
1977 659 2 4.0999999999999998e-01 -1.3909334496198502e+01 -9.2291878695274896e+00 -4.6861683423800162e+00 10 1 1
571 191 1 -8.1999999999999995e-01 -9.6305898501401206e+00 -1.4512732170491565e+01 -1.0580876267944674e+00 5 4 0
2054 685 2 4.0999999999999998e-01 -1.4530828229789947e+01 -1.2878590637652282e+01 -5.9768855706512269e+00 12 6 1
1975 659 1 -8.1999999999999995e-01 -1.4446815420522842e+01 -9.8407925658343220e+00 -5.2667304072853849e+00 10 1 1
842 281 2 4.0999999999999998e-01 -1.3429898637278077e+01 -1.1597541616832853e+01 -2.2192290763364753e+00 4 2 6
2022 674 2 4.0999999999999998e-01 -9.8323816078107917e+00 -8.4700910198522514e+00 -4.8892454388958999e+00 3 4 0
2053 685 1 -8.1999999999999995e-01 -1.4097092317100863e+01 -1.2678505688108714e+01 -5.0983427053900012e+00 12 6 1
1976 659 2 4.0999999999999998e-01 -1.4351235556798283e+01 -1.0780755923142127e+01 -4.9391151575091250e+00 10 1 1
473 158 2 4.0999999999999998e-01 -1.2302808614962407e+01 -8.7417116847470169e+00 -6.4197989832614297e+00 4 2 1
477 159 2 4.0999999999999998e-01 -1.2811110048781929e+01 -1.4809976168309889e+01 -6.7339946410746396e+00 1 6 0
472 158 1 -8.1999999999999995e-01 -1.2484858539919411e+01 -8.1309329137225106e+00 -7.1903867668311037e+00 4 2 1
573 191 2 4.0999999999999998e-01 -9.3304693869076285e+00 -1.3664151076990564e+01 -6.2238595921315110e-01 5 4 0
474 158 2 4.0999999999999998e-01 -1.3437124243264243e+01 -8.2323251893074882e+00 -7.4783242993333232e+00 4 2 1
415 139 1 -8.1999999999999995e-01 -1.0091619715454048e+01 -4.0005882699983513e+00 -2.6705761170465969e-01 6 4 1
441 147 2 4.0999999999999998e-01 -1.3130325461160341e+01 -7.4845937283546364e+00 -2.7627498476056331e+00 8 5 -7
2155 719 1 -8.1999999999999995e-01 -5.6293231011747142e+00 -2.2986161237616436e+00 -9.7935184941489517e-01 2 6 3
1818 606 2 4.0999999999999998e-01 -8.8526730256875403e+00 -6.3729884880645162e+00 -2.4893764942447731e+00 6 5 -7
1816 606 1 -8.1999999999999995e-01 -9.4224226159312519e+00 -7.1232658112222609e+00 -2.8247386883067662e+00 6 5 -7
1289 430 2 4.0999999999999998e-01 -5.6835393309568083e+00 -7.0953644688479534e+00 -3.8692795860947964e+00 5 7 1
2536 846 1 -8.1999999999999995e-01 -1.2641378915525060e+01 -8.1524054976782168e-02 -4.7787120702838823e+00 8 3 -4
1288 430 1 -8.1999999999999995e-01 -5.8886053125957183e+00 -7.2113491195600972e+00 -4.8411303767448111e+00 5 7 1
2538 846 2 4.0999999999999998e-01 -1.1671470392625114e+01 -4.0058696062750698e-02 -5.0186213990711277e+00 8 3 -4
1134 378 2 4.0999999999999998e-01 -5.0090004038016076e+00 -4.6988831518258749e+00 -5.4150655083012627e+00 3 15 -3
2192 731 2 4.0999999999999998e-01 -1.3764420729090677e+01 -4.4589500655032985e+00 -6.2622133961157491e+00 9 12 -1
895 299 1 -8.1999999999999995e-01 -1.1250224511774842e+01 -5.5873473952589414e+00 -3.9966361292101720e+00 9 5 4
1314 438 2 4.0999999999999998e-01 -1.1522049563017006e+01 -2.0994078665546461e+00 -3.2710470816699715e+00 9 6 -5
213 71 2 4.0999999999999998e-01 -6.9519614767496964e+00 -7.5862328680840996e-01 -2.3901487574116889e+00 1 4 0
791 264 2 4.0999999999999998e-01 -9.6918381694094133e+00 -7.3268645874109684e+00 -7.5157286590972205e-01 3 6 3
921 307 2 4.0999999999999998e-01 -6.3213806595228625e+00 -6.4869062020657022e+00 -6.7161869515491510e+00 5 2 4
1313 438 2 4.0999999999999998e-01 -1.0071323718684154e+01 -2.7682671766180089e+00 -3.6096384166271100e+00 9 6 -5
1471 491 1 -8.1999999999999995e-01 -7.5028506650781992e+00 -9.1048410126626678e-02 -5.3523553673334732e+00 -1 7 2
2157 719 2 4.0999999999999998e-01 -5.2812821037620559e+00 -3.1960884556856008e+00 -1.2502934563239467e+00 2 6 3
1600 534 1 -8.1999999999999995e-01 -1.4226444199594273e+01 -4.2308237400978559e+00 -4.6339424422453384e+00 3 2 -4
1626 542 2 4.0999999999999998e-01 -8.3570444483868904e+00 -3.6549983377880757e+00 -4.7546644372418250e+00 -3 5 7
1602 534 2 4.0999999999999998e-01 -1.3818371541708334e+01 -3.4792985672010630e+00 -4.1155940528440151e+00 3 2 -4
2045 682 2 4.0999999999999998e-01 -5.0272289208925862e+00 -5.8341125238783107e+00 -2.0611133731538001e+00 5 3 -2
57 19 2 4.0999999999999998e-01 -1.0883357937240321e+01 -6.7503634368753627e+00 -6.9309262514573984e+00 6 4 0
1312 438 1 -8.1999999999999995e-01 -1.0909767419233088e+01 -2.8649149123907591e+00 -3.0732898152461132e+00 9 6 -5
417 139 2 4.0999999999999998e-01 -1.0214859490676531e+01 -3.8713361011693372e+00 -1.2509804312499853e+00 6 4 1
55 19 1 -8.1999999999999995e-01 -1.0371598747917055e+01 -5.9698497372184089e+00 -6.5719007098930433e+00 6 4 0
2046 682 2 4.0999999999999998e-01 -5.6260824489559642e+00 -7.2913221369942471e+00 -1.6315357987076418e+00 5 3 -2
2337 779 2 4.0999999999999998e-01 -7.5210691380856760e+00 -4.0352422042369369e+00 -2.7151948615864896e+00 3 3 1
239 80 2 4.0999999999999998e-01 -1.3997225986733747e+01 -5.7621617807502865e+00 -2.5793905761417637e+00 2 3 1
1624 542 1 -8.1999999999999995e-01 -8.3930870241590672e+00 -2.8231896554950424e+00 -4.2007748702148948e+00 -3 5 7
157 53 1 -8.1999999999999995e-01 -1.4255915373420027e+01 -1.2937212198393144e+00 -2.8918648478924336e+00 0 1 4
985 329 1 -8.1999999999999995e-01 -1.4519909177523425e+01 -5.5836270171855773e-01 -3.9934304706197565e-01 5 3 -1
1625 542 2 4.0999999999999998e-01 -7.9130282449243552e+00 -2.0855359229651338e+00 -4.6755473755064809e+00 -3 5 7
1555 519 1 -8.1999999999999995e-01 -7.8506833283743696e+00 -5.1823943492771569e+00 -5.5872544632154639e+00 7 7 -1
1569 523 2 4.0999999999999998e-01 -1.3000098051757309e+01 -6.3318717469563417e+00 -2.2178516135286053e-01 2 8 4
1556 519 2 4.0999999999999998e-01 -8.7797730629022652e+00 -5.5431157354565190e+00 -5.6689293988091283e+00 7 7 -1
1557 519 2 4.0999999999999998e-01 -7.3592516666748828e+00 -5.6851488962183083e+00 -4.8761066365366652e+00 7 7 -1
238 80 1 -8.1999999999999995e-01 -1.4108361771112069e+01 -6.2742255778978659e+00 -1.7276641381200388e+00 2 3 1
56 19 2 4.0999999999999998e-01 -1.0667595411490948e+01 -5.7792701504511896e+00 -5.6359178778655163e+00 6 4 0
2335 779 1 -8.1999999999999995e-01 -7.7095328053390748e+00 -4.8945995748484030e+00 -2.2398162795579228e+00 3 3 1
158 53 2 4.0999999999999998e-01 -1.4306673659588613e+01 -8.6105463428720164e-01 -1.9917417515809763e+00 0 1 4
2336 779 2 4.0999999999999998e-01 -6.8814065431282838e+00 -5.4548939641771454e+00 -2.2232161743835430e+00 3 3 1
2044 682 1 -8.1999999999999995e-01 -5.7185604943219257e+00 -6.5261806271535310e+00 -2.2687207438696024e+00 5 3 -2
897 299 2 4.0999999999999998e-01 -1.1483981274124108e+01 -4.7984768445003763e+00 -3.4282705296584499e+00 9 5 4
1472 491 2 4.0999999999999998e-01 -7.0128219240064977e+00 -4.3578556742837549e-01 -6.1529966679661534e+00 -1 7 2
159 53 2 4.0999999999999998e-01 -1.3682244968062724e+01 -7.4038651434968550e-01 -3.4957864313834097e+00 0 1 4
896 299 2 4.0999999999999998e-01 -1.0915880537448361e+01 -6.3293994409388024e+00 -3.4156272670389871e+00 9 5 4
2193 731 2 4.0999999999999998e-01 -1.2992666012878010e+01 -5.7166305262572745e+00 -6.9616823650768200e+00 9 12 -1
2191 731 1 -8.1999999999999995e-01 -1.3399101866851042e+01 -4.8170322601689648e+00 -7.1214675647325283e+00 9 12 -1
2156 719 2 4.0999999999999998e-01 -5.0732847741745566e+00 -1.5836416053894808e+00 -1.4031811758537795e+00 2 6 3
1290 430 2 4.0999999999999998e-01 -5.0360819635510659e+00 -7.2127601671367785e+00 -5.3638161561705946e+00 5 7 1
416 139 2 4.0999999999999998e-01 -9.8819324174102228e+00 -4.9604225550496022e+00 -8.0650295351171408e-02 6 4 1
603 201 2 4.0999999999999998e-01 -1.3942842491952588e+01 -2.1834007756265326e+00 -7.4216328828464109e+00 6 6 -1
208 70 1 -8.1999999999999995e-01 -1.2921870309511057e+01 -1.0752118539930155e+01 4.7428881819486790e+00 7 3 -1
209 70 2 4.0999999999999998e-01 -1.3616224348106376e+01 -1.1019004472363335e+01 5.4112015208296533e+00 7 3 -1
210 70 2 4.0999999999999998e-01 -1.3029239632329636e+01 -9.7833264361000403e+00 4.5194779677497863e+00 7 3 -1
530 177 2 4.0999999999999998e-01 -1.1276748842137836e+01 -9.9840376042945156e+00 5.9175326564366735e+00 9 -3 3
666 222 2 4.0999999999999998e-01 -9.7318697606996700e+00 -9.2696242692676591e+00 2.7153688221384868e+00 5 5 -3
1019 340 2 4.0999999999999998e-01 -7.5397290623022313e+00 -1.4052328649154559e+01 2.0272895156074746e+00 6 4 0
1118 373 2 4.0999999999999998e-01 -8.4100881602566062e+00 -1.1508789234312321e+01 2.2122490256408298e+00 1 5 -1
665 222 2 4.0999999999999998e-01 -8.6649657462591954e+00 -9.6871842206756398e+00 3.8789759632846526e+00 5 5 -3
664 222 1 -8.1999999999999995e-01 -8.9228552803733958e+00 -9.8199088438750195e+00 2.9219621113462217e+00 5 5 -3
2212 738 1 -8.1999999999999995e-01 -7.1301215373354783e+00 -1.3135664934773393e+01 5.6324680528938060e+00 5 2 0
1020 340 2 4.0999999999999998e-01 -6.0534517407427835e+00 -1.4513534634144458e+01 2.5221542778835193e+00 6 4 0
1180 394 1 -8.1999999999999995e-01 -1.1252058592778793e+01 -1.2105242845766611e+01 3.0164714322026036e+00 0 1 2
1913 638 2 4.0999999999999998e-01 -1.1786835504514988e+01 -1.3970566462911700e+01 2.9073114490266221e+00 1 -1 0
92 31 2 4.0999999999999998e-01 -7.4070251297066410e+00 -8.5359607002338755e+00 6.2914896778671157e+00 3 4 -1
1182 394 2 4.0999999999999998e-01 -1.1712966281471770e+01 -1.1545192881042695e+01 3.7048801939235503e+00 0 1 2
1453 485 1 -8.1999999999999995e-01 -1.4695978891946424e+01 -1.0547058059436086e+01 1.3431544348200362e+00 4 -2 -3
1181 394 2 4.0999999999999998e-01 -1.0480935642057405e+01 -1.1596014488130967e+01 2.6343008884381511e+00 0 1 2
1117 373 1 -8.1999999999999995e-01 -8.0758236204721392e+00 -1.2140989083863767e+01 1.5132575936670101e+00 1 5 -1
405 135 2 4.0999999999999998e-01 -8.7746299737582518e+00 -1.0082969593680655e+01 5.6713247781323872e+00 0 8 -5
403 135 1 -8.1999999999999995e-01 -7.8025776580293789e+00 -1.0043684386427817e+01 5.4398741741049221e+00 0 8 -5
1119 373 2 4.0999999999999998e-01 -7.1182999839134178e+00 -1.1936814084774333e+01 1.3096414748547680e+00 1 5 -1
404 135 2 4.0999999999999998e-01 -7.3196790932009268e+00 -1.0787759656433074e+01 5.9015659597505454e+00 0 8 -5
1850 617 2 4.0999999999999998e-01 -1.4921966019994922e+01 -1.3245133979656448e+01 5.8405402084858977e+00 3 4 7
1757 586 2 4.0999999999999998e-01 -1.1541757291059598e+01 -9.3740754755877962e+00 4.6055771791281153e-01 12 6 -2
1756 586 1 -8.1999999999999995e-01 -1.2138894904049318e+01 -9.0717384661798519e+00 1.2035364889245734e+00 12 6 -2
1454 485 2 4.0999999999999998e-01 -1.3870860568219127e+01 -9.9821016624025276e+00 1.3447309092881383e+00 4 -2 -3
389 130 2 4.0999999999999998e-01 -1.2580508864514659e+01 -1.2558880306895192e+01 1.9407280343081723e+00 -2 10 1
1758 586 2 4.0999999999999998e-01 -1.2249037894337734e+01 -8.0787961092503195e+00 1.1595768974016032e+00 12 6 -2
1018 340 1 -8.1999999999999995e-01 -7.0287360052044088e+00 -1.4732301078068627e+01 2.5531431533510762e+00 6 4 0
1455 485 2 4.0999999999999998e-01 -1.4440007810726524e+01 -1.1511083049700471e+01 1.4147998040565533e+00 4 -2 -3
2214 738 2 4.0999999999999998e-01 -7.9713037829888798e+00 -1.2599154224570588e+01 5.7000482303871571e+00 5 2 0
529 177 1 -8.1999999999999995e-01 -1.0411346278917796e+01 -1.0475711088345392e+01 6.0141455596374271e+00 9 -3 3
2305 769 1 -8.1999999999999995e-01 -1.0571622560065359e+01 -1.3196396924194426e+01 6.5058195668130594e+00 1 7 -1
388 130 1 -8.1999999999999995e-01 -1.3051510549033415e+01 -1.3018465470290860e+01 1.1877757567806952e+00 -2 10 1
1720 574 1 -8.1999999999999995e-01 -6.7060716895265351e+00 -7.8591066682324238e+00 1.2316667599371982e+00 9 2 -1
1945 649 1 -8.1999999999999995e-01 -1.4570421654073161e+01 -8.0712032401348779e+00 4.7349537358900946e+00 3 0 -2
1722 574 2 4.0999999999999998e-01 -7.1650785103212424e+00 -8.4967957821126987e+00 1.8502649690517892e+00 9 2 -1
390 130 2 4.0999999999999998e-01 -1.2452172649791986e+01 -1.3047314843652279e+01 3.8780067656984940e-01 -2 10 1
531 177 2 4.0999999999999998e-01 -1.0593123951950041e+01 -1.1418977822028586e+01 6.2920002327468509e+00 9 -3 3
1721 574 2 4.0999999999999998e-01 -6.8809289258120412e+00 -8.1290693956976039e+00 2.8480703511029226e-01 9 2 -1
2567 856 2 4.0999999999999998e-01 -1.3846232370389870e+01 -1.4872479257702700e+01 2.1870550458119382e+00 8 -2 -2