2611
Atoms. Timestep: 8000000
O 7.02083 -13.3044 5.92521
H 6.51821 -13.5412 6.75667
H 7.96553 -13.6226 6.00478
O -14.8842 -3.29148 -13.2074
H -14.7779 -4.26684 -13.4007
H 13.9864 -3.05153 -13.2277
O 13.6811 6.59285 5.22186
H 13.4643 5.97114 4.4692
H 14.1377 6.08522 5.95252
O 14.7546 -4.39727 10.381
H -14.5812 -3.62206 10.7601
H 14.1491 -4.07637 9.65267
O -2.23634 6.23654 -13.8399
H -1.91015 5.29434 -13.7632
H -2.88957 6.42386 -13.1062
O 12.5675 6.59633 -11.5332
H 11.6265 6.49747 -11.2098
H 13.0377 5.71638 -11.4649
O -14.4403 0.737219 1.48573
H 14.843 0.962453 0.68693
H -13.5783 1.24235 1.44341
O -10.1705 -4.4657 -7.33188
H -10.7947 -3.77329 -7.69385
H -9.88557 -4.20764 -6.4087
O 4.75924 -1.96084 -5.09785
H 4.81417 -1.92422 -4.10001
H 5.66006 -1.77111 -5.48844
O -0.378928 14.4158 4.86691
H 0.360864 14.1362 5.47892
H -1.15908 13.8014 4.98461
O 0.0564376 4.88263 3.84311
H 0.582816 4.04685 3.9994
H 0.677087 5.6253 3.59158
O -14.346 10.4797 -1.57421
H -14.2926 10.862 -0.651707
H -13.4267 10.2491 -1.89319
O 12.9333 -12.5742 10.6453
H 13.8428 -12.2066 10.4514
H 12.7675 -13.3747 10.0694
O 5.82777 -11.2275 4.63929
H 6.1993 -12.0917 4.97858
H 4.83727 -11.2139 4.77619
O -0.472662 -1.48352 -5.75134
H -0.807214 -1.06038 -6.59339
H -0.192281 -2.42473 -5.93985
O -1.60636 -2.40057 -3.40017
H -0.790224 -1.82286 -3.41462
H -2.2878 -2.03067 -4.03171
O 5.74775 9.97268 1.24047
H 6.53221 9.85925 1.85021
H 5.96511 10.6533 0.540776
O 3.97011 7.8183 -0.712674
H 4.96937 7.81865 -0.67372
H 3.66758 8.33539 -1.51337
O 4.26099 -11.46 9.71028
H 4.94957 -10.9161 9.23062
H 4.17736 -11.1359 10.6526
O -7.65002 -10.6254 3.85075
H -7.23638 -10.0964 4.59182
H -7.86657 -10.0167 3.08742
O -9.34338 3.25634 1.87468
H -8.44756 2.94679 1.55575
H -9.27006 4.19331 2.21634
O 0.350805 -3.86157 2.38154
H 0.692524 -3.39684 3.19841
H -0.598857 -4.13842 2.52826
O 6.6945 13.976 -6.50196
H 7.0923 13.1046 -6.21489
H 7.42266 14.6502 -6.62562
O 3.04925 -10.0165 14.7423
H 3.46355 -9.27872 -14.5659
H 2.09095 -9.79753 14.5587
O -3.18765 12.3794 -14.2799
H -2.97284 11.4221 -14.4732
H -3.56264 12.8093 14.74
O 6.88033 0.501942 13.8798
H 6.75497 1.49341 13.8438
H 6.83396 0.194385 14.8302
O -1.83437 -8.18633 -5.64968
H -2.45468 -8.74834 -5.10251
H -2.27737 -7.94491 -6.5131
O 3.14848 -14.2512 0.276684
H 3.218 14.7601 -0.276943
H 2.45539 -13.6462 -0.115219
O 7.36678 9.76637 -9.91086
H 7.03374 9.50039 -10.8155
H 6.59685 10.0644 -9.34657
O 13.8601 3.58166 -1.59225
H 13.9443 2.59916 -1.42599
H 14.1071 3.78165 -2.5404
O -10.9356 14.4927 -11.3336
H -11.2325 14.0889 -12.199
H -9.99824 14.2056 -11.1361
O 5.88087 -10.1358 -13.1825
H 5.31472 -9.3118 -13.2064
H 5.29275 -10.9429 -13.1308
O 11.2387 -14.3063 -5.0881
H 11.0096 -13.3424 -5.22432
H 11.8928 -14.5954 -5.78706
O -7.22715 -10.3143 -9.83603
H -6.50604 -9.84345 -10.3442
H -7.59108 -9.70476 -9.13176
O 7.13339 1.91382 0.287172
H 7.70367 1.44668 -0.388549
H 6.99793 2.8647 0.00877455
O -5.71612 9.21691 14.4279
H -4.88471 8.75825 14.1142
H -6.21614 8.61285 -14.7927
O 6.78693 4.54146 -1.19645
H 6.36376 4.19116 -2.03205
H 6.10035 5.02305 -0.651743
O -1.55303 8.687 10.6864
H -0.571682 8.50108 10.7356
H -2.06143 7.85148 10.8949
O 6.74379 7.44294 -7.7596
H 6.05956 7.4183 -8.48847
H 7.27874 8.28465 -7.83292
O 2.2663 -9.80693 -11.5386
H 2.98752 -9.36443 -11.0056
H 1.91701 -9.16674 -12.2228
O 9.88392 11.1403 1.09478
H 10.7143 11.3906 0.596861
H 9.24889 11.9128 1.09344
O 8.18454 -4.52458 -6.70898
H 7.65203 -4.14652 -5.95166
H 9.14799 -4.57599 -6.446
O -7.37485 9.40706 3.40879
H -6.55786 9.71528 2.92138
H -7.23768 8.47003 3.73001
O 0.775498 -7.50593 -12.457
H 0.0994604 -7.01333 -11.909
H 1.16438 -6.88832 -13.1407
O -12.4882 -1.49577 -2.47558
H -12.3082 -2.27239 -1.87187
H -11.6215 -1.12475 -2.80896
O -7.25663 9.57936 -2.26792
H -7.5376 8.76251 -2.77176
H -6.28104 9.74254 -2.41496
O -2.44664 10.5534 8.45649
H -1.88476 10.1442 9.17542
H -3.39891 10.5924 8.75928
O 1.64715 -10.7552 9.44704
H 1.57461 -9.93225 8.8835
H 2.44105 -11.2893 9.15639
O 13.8025 -4.25174 -4.20553
H 14.1437 -5.09988 -4.61083
H 12.8869 -4.40474 -3.8337
O -1.63448 10.3379 4.08058
H -1.63457 10.53 3.09918
H -2.18333 9.5216 4.26051
O -6.66487 -12.986 5.05743
H -6.32053 -13.6173 4.36244
H -6.98236 -12.1462 4.617
O -8.52458 -2.30038 1.03459
H -9.32089 -1.90827 1.4952
H -8.30119 -3.18291 1.44844
O -11.8562 4.00705 3.99643
H -12.6149 3.4532 4.33951
H -11.0546 3.87155 4.57874
O -9.1798 11.3034 3.88619
H -8.54696 10.5443 3.73356
H -8.8687 11.8448 4.6673
O 14.3326 10.5122 14.1935
H -14.8547 9.76556 14.0714
H 14.0386 10.545 -14.6924
O -8.16344 1.15316 -4.22833
H -8.77261 1.93678 -4.35033
H -7.44546 1.38796 -3.57305
O -5.52762 -2.35011 11.0654
H -4.78717 -2.33608 11.7374
H -5.87318 -3.28363 10.9696
O 3.98819 0.0725378 -0.143342
H 4.81545 0.604666 0.0369847
H 3.21116 0.692014 -0.255163
O 12.0941 -10.1499 -0.285287
H 12.7222 -10.1312 0.492648
H 12.3464 -9.43239 -0.934618
O 3.01876 13.1147 14.6321
H 3.63546 12.33 14.5701
H 2.1005 12.8404 14.3465
O -12.4258 -2.80907 -8.26048
H -12.8566 -3.10159 -9.11425
H -13.133 -2.56282 -7.59766
O -8.45153 13.6383 -10.8631
H -7.60967 13.713 -10.3285
H -8.42695 12.8004 -11.4083
O 0.479371 -9.49072 13.8499
H 0.278601 -9.60667 14.8227
H -0.37406 -9.3509 13.3478
O -10.4025 -14.6679 3.85118
H -10.6046 -13.7774 3.44349
H -9.75698 -14.5503 4.6058
O -9.39557 6.03994 2.3609
H -8.94442 6.58991 1.65804
H -10.0881 6.59335 2.82363
O -5.18955 1.37029 8.26299
H -5.45255 0.406013 8.23108
H -4.30917 1.49102 7.80431
O 12.2106 13.6859 -14.8007
H 12.619 14.594 -14.893
H 12.8563 13.075 -14.3424
O -3.8091 2.9228 -14.5009
H -3.90335 3.04713 -13.5132
H -4.43952 3.53686 14.8654
O -3.31687 13.9639 7.67009
H -3.53786 14.917 7.46332
H -2.66862 13.9295 8.43076
O -6.08564 8.0417 5.90202
H -6.70855 7.44254 5.39902
H -6.54275 8.90946 6.09712
O 7.76086 13.0499 13.3544
H 6.78797 13.0636 13.5853
H 8.29264 13.3865 14.1316
O 14.1471 -9.02779 5.71848
H 13.7793 -9.66311 6.39752
H 13.3994 -8.66338 5.16347
O -3.27796 4.59965 -9.04513
H -3.99243 5.20092 -9.40294
H -2.38858 4.89386 -9.3951
O -13.6971 -7.40743 6.2779
H -13.8293 -6.50568 6.68949
H -14.5429 -7.93553 6.3535
O -0.65792 13.5568 -7.68951
H -0.194169 14.2755 -8.20754
H -1.47225 13.9355 -7.24964
O 13.4074 -3.88365 -10.7682
H 13.4097 -4.3288 -11.6637
H 13.0069 -2.97106 -10.8506
O 5.33822 -5.85655 -2.60213
H 4.4444 -6.11929 -2.23872
H 5.96742 -5.68109 -1.84493
O 4.9528 9.67917 -12.6168
H 5.94152 9.5372 -12.5689
H 4.48537 8.79878 -12.5366
O -8.32559 -7.37714 10.6224
H -9.12996 -7.96715 10.6924
H -7.59913 -7.73282 11.2105
O 2.61013 0.420791 9.9713
H 2.3795 0.431273 8.99831
H 1.78509 0.242457 10.5075
O 7.84085 5.74809 14.35
H 7.26542 5.22454 13.7217
H 7.49921 6.6859 14.412
O 7.39153 8.23149 9.09401
H 6.95253 7.42676 9.49365
H 7.96033 7.95137 8.32069
O 11.8058 -8.27262 4.29214
H 11.2942 -7.87228 3.5319
H 11.1682 -8.68701 4.94152
O -8.9356 7.39804 -7.44117
H -9.03774 6.95561 -8.33215
H -8.81677 8.38262 -7.56959
O 10.4968 7.38762 4.95534
H 10.652 6.51139 4.49909
H 11.1175 8.07468 4.57758
O 5.30045 0.570228 3.61161
H 5.46646 0.822516 4.56493
H 6.13865 0.195766 3.2151
O 14.2076 3.70094 -4.59654
H 14.2249 3.37963 -5.54337
H 14.1503 4.69923 -4.58432
O -11.0027 -14.198 -7.62887
H -11.6071 14.8467 -7.61142
H -10.9579 -13.7935 -6.7154
O 6.6692 -8.04498 -4.83836
H 6.83916 -7.82893 -5.79984
H 6.97449 -8.9779 -4.64734
O -13.2721 -6.26743 -9.04516
H -12.9086 -5.45891 -9.50803
H -14.2665 -6.19119 -8.97263
O 5.63462 13.5001 -12.7958
H 5.34071 14.3719 -13.1877
H 5.70707 12.8159 -13.5215
O -6.49592 9.3112 -5.57148
H -6.34409 10.268 -5.32348
H -7.19832 8.92013 -4.97674
O -6.30181 -6.91342 2.84971
H -5.41867 -6.92176 2.38066
H -6.15478 -6.95594 3.83794
O 1.60276 -2.65079 7.35757
H 2.338 -3.12749 6.87569
H 1.0857 -3.30591 7.90846
O -9.62506 -5.66863 13.6931
H -10.1919 -6.46033 13.9208
H -8.65959 -5.92396 13.7451
O -9.14222 -12.434 0.40936
H -9.43726 -11.9312 1.22188
H -8.25514 -12.8608 0.58533
O 9.42525 5.57588 0.637723
H 8.51858 5.96645 0.478236
H 9.5174 4.7251 0.12032
O 9.99954 -9.55254 9.71409
H 10.171 -10.4512 9.3103
H 10.4924 -8.85432 9.19488
O 3.72692 13.3532 -1.09753
H 4.69687 13.1645 -0.943943
H 3.57512 13.5511 -2.06595
O -0.399355 1.72589 8.94508
H 0.227055 1.90993 8.1876
H -1.34042 1.88144 8.64468
O -14.3596 10.5948 -12.5905
H -14.0101 10.0118 -11.857
H -13.6054 10.8667 -13.1882
O 4.3503 -8.1492 1.90561
H 5.1784 -8.55082 2.29674
H 4.49312 -7.17087 1.75561
O -8.33519 -8.76013 6.97036
H -7.49091 -9.25853 6.77335
H -8.14398 -7.779 6.99959
O -9.95412 0.421415 -10.7509
H -10.7692 0.997065 -10.6859
H -9.29689 0.843526 -11.3754
O 3.95717 -7.362 -4.95007
H 4.91117 -7.60212 -4.77049
H 3.91644 -6.4653 -5.39086
O -2.39073 11.5161 1.73174
H -2.14003 11.2254 0.808359
H -2.45321 12.5137 1.76161
O 8.12276 2.24089 7.27381
H 7.26579 1.76098 7.08589
H 8.75159 2.11286 6.50686
O -1.88244 6.70317 1.04712
H -0.906463 6.81043 0.857421
H -2.04226 5.81625 1.48055
O -12.9554 -4.53205 2.80579
H -13.3364 -3.69339 3.19502
H -13.6408 -5.25913 2.84508
O -11.7435 6.58453 7.02502
H -11.2949 7.0621 7.78045
H -11.6178 5.5983 7.13262
O 10.9547 -6.31733 -10.1519
H 11.6173 -6.96209 -10.533
H 10.6496 -6.64282 -9.25691
O 6.49622 14.5428 -2.91376
H 6.11623 14.4168 -3.83016
H 6.1159 -14.4681 -2.50643
O -9.66228 -9.18737 -3.89343
H -9.14096 -9.58957 -3.14077
H -10.6012 -9.53083 -3.86953
O 12.7076 -2.71803 12.5054
H 11.917 -2.27135 12.9244
H 13.0432 -2.15899 11.7472
O -1.7702 -12.6094 14.0339
H -1.69367 -13.5822 13.8152
H -2.42772 -12.1793 13.4152
O 6.98602 11.2797 -5.42075
H 7.91905 11.0065 -5.6549
H 6.80873 11.0702 -4.45914
O 8.79254 -13.8947 -6.62644
H 9.63857 -14.1467 -7.09631
H 8.1848 -13.4222 -7.26471
O -11.1983 11.5728 6.43219
H -10.8689 12.3638 5.91654
H -11.9696 11.1579 5.94946
O -7.5186 -2.19937 -6.70624
H -8.27834 -2.09509 -7.34807
H -7.06685 -1.31644 -6.5782
O 12.241 -12.0746 -8.2213
H 12.6721 -11.5352 -8.94462
H 11.3003 -11.7625 -8.08831
O 4.27015 -10.2511 12.1252
H 3.34757 -10.1928 12.5066
H 4.47507 -9.41334 11.619
O 13.0315 -0.968816 -10.314
H 12.4196 -1.27978 -9.58674
H 12.5863 -0.240934 -10.8356
O 12.7312 -1.63316 -0.658873
H 11.732 -1.59957 -0.638101
H 13.0516 -1.4495 -1.58818
O 7.50025 9.46338 -12.8338
H 7.61856 10.3681 -13.243
H 8.39134 9.01806 -12.7462
O -13.314 -9.07086 -10.765
H -12.5264 -9.55896 -10.3888
H -13.2256 -8.09426 -10.5689
O -1.05567 -3.57265 -12.7713
H -1.75009 -3.11889 -12.2128
H -0.705954 -4.37248 -12.2834
O -10.1396 11.9027 12.8461
H -9.23702 12.0793 12.4534
H -10.8403 12.3366 12.2797
O 5.52406 11.5025 -14.7044
H 5.08085 10.7822 -14.1708
H 5.37691 11.3339 14.1621
O -3.6242 -2.1997 -11.3392
H -3.67703 -2.25151 -10.3419
H -4.31494 -2.80073 -11.7413
O 0.520994 -9.78188 -5.76516
H 0.763114 -9.69736 -6.73174
H -0.28384 -9.22038 -5.57282
O 0.0398965 -0.0324607 11.2313
H -0.421662 0.474486 11.9593
H 0.00237784 0.494869 10.3824
O -11.7072 8.39312 -8.13513
H -10.7894 8.06191 -8.35401
H -12.111 7.81293 -7.42779
O 12.3391 -2.36832 -13.4549
H 12.4372 -1.41168 -13.7292
H 11.4276 -2.69493 -13.7046
O 7.59351 2.05225 -12.4381
H 7.17508 2.92948 -12.6734
H 6.99194 1.30768 -12.7275
O 7.88172 13.0365 7.42533
H 8.0578 12.9336 8.40432
H 7.06184 12.5201 7.17801
O 1.46303 10.6016 2.43032
H 1.83613 10.9675 3.28294
H 1.79685 11.1451 1.6601
O -6.41594 -9.93073 -14.0924
H -5.76972 -10.5995 -14.4601
H -7.19059 -10.4086 -13.6782
O 13.9038 13.3039 -12.4453
H 13.9568 12.9339 -11.5178
H 14.8266 13.4856 -12.785
O -11.2624 7.89644 -3.86191
H -10.8024 7.1309 -3.412
H -11.5913 7.60608 -4.76052
O 0.355888 13.7938 13.2197
H 0.651976 13.0444 12.6274
H 0.0541994 13.4246 14.0988
O 12.7246 9.84089 -12.3663
H 12.7905 8.85844 -12.1916
H 13.6417 10.2394 -12.3788
O -5.40452 12.3463 7.50036
H -4.763 13.1047 7.61561
H -5.40346 11.7806 8.32499
O -8.22318 -11.3625 -12.6917
H -7.58947 -12.1191 -12.5304
H -8.37689 -10.8682 -11.8361
O 9.87314 -4.24547 -0.692544
H 9.11928 -4.88043 -0.523587
H 10.2467 -3.93172 0.180415
O 10.004 13.1429 -5.67289
H 10.2346 14.0693 -5.37531
H 10.0948 13.0797 -6.66677
O 4.00561 4.77877 9.47225
H 3.18372 4.4851 8.9841
H 4.7342 4.96866 8.81414
O -11.8375 0.418434 8.9541
H -11.9237 1.41445 8.9309
H -10.872 0.165888 8.88952
O -2.96798 -4.20148 -7.61622
H -2.19833 -4.2076 -6.97776
H -2.81954 -4.8923 -8.32386
O -14.9141 3.42906 5.36
H -14.6501 4.05907 6.09034
H -14.477 2.54232 5.51049
O -5.45798 8.72132 -8.09084
H -5.61401 8.93774 -7.12707
H -4.61625 9.16409 -8.39984
O -2.21858 -11.9117 -2.30311
H -2.56471 -12.0465 -1.37465
H -1.37659 -11.3732 -2.27003
O 9.92943 3.21443 4.94757
H 10.0952 3.52293 5.88426
H 10.2408 3.9153 4.3058
O 10.8906 -4.41176 -6.27468
H 11.1254 -3.54523 -5.83418
H 11.6717 -5.0341 -6.22344
O -6.74384 -6.99901 -3.76424
H -6.53457 -6.72388 -2.82587
H -5.99225 -6.72918 -4.36618
O -3.16201 9.02399 -12.6021
H -4.14605 9.1983 -12.6383
H -2.71343 9.48523 -13.3677
O 13.7899 6.52504 12.7569
H 13.7213 7.35292 12.2002
H 14.7203 6.43932 13.1134
O 5.18569 5.26097 7.12434
H 4.84205 6.09051 6.6841
H 6.08469 5.03308 6.75033
O -6.74862 -5.05272 11.4179
H -6.54702 -5.36921 12.3449
H -7.43488 -5.65049 11.0035
O 14.7351 -8.6812 -12.9332
H -14.5252 -9.15859 -12.2739
H -14.6135 -8.57663 -13.7971
O -4.7063 -13.508 7.02985
H -3.86732 -13.0069 6.81755
H -5.37749 -13.3569 6.30412
O -13.641 8.67845 13.5012
H -13.5092 7.75065 13.8503
H -12.8164 8.97308 13.0182
O -3.53004 8.58301 5.13747
H -3.03199 8.10427 5.86051
H -4.50437 8.6042 5.36165
O 4.18855 14.2614 -5.99837
H 5.15373 14.1958 -6.25166
H 3.63227 13.7838 -6.67843
O -13.8501 11.2309 -5.97127
H -14.3638 10.4428 -5.63215
H -14.23 12.0695 -5.58087
O 9.37835 13.1145 -14.2495
H 9.14957 12.1524 -14.3983
H 10.3642 13.2046 -14.108
O -11.5866 11.0716 -14.3503
H -11.3529 10.2396 -13.8472
H -11.0944 11.0842 14.6205
O -13.5187 5.88889 13.7524
H -13.2039 5.11264 13.2062
H -13.0101 5.91905 14.6129
O 8.84059 -6.43755 0.329491
H 8.45629 -7.36061 0.346806
H 9.76327 -6.4678 -0.0549233
O 11.4304 13.8392 4.82464
H 11.9098 13.8176 3.94727
H 12.0945 13.7696 5.56908
O 8.91189 0.780907 -1.46898
H 9.43613 1.48192 -1.95249
H 8.57407 0.105734 -2.12476
O 6.80732 -4.15915 -4.30362
H 6.25041 -4.67695 -3.65418
H 7.59657 -3.76925 -3.82919
O 12.9767 -13.4938 14.517
H 13.1524 -12.8861 -14.5497
H 12.2128 -13.1364 13.9796
O 8.20275 -11.0363 -11.2643
H 7.95423 -11.3492 -10.3476
H 7.41906 -10.5784 -11.6841
O 4.90916 -5.86208 -9.08432
H 4.15287 -5.43546 -9.58034
H 4.74301 -5.79413 -8.10055
O -7.42688 -0.816533 5.19215
H -7.64561 -0.781718 4.21697
H -6.56333 -0.340054 5.35728
O -9.98071 3.64153 12.9412
H -9.77096 4.60173 12.7567
H -10.929 3.4525 12.686
O 12.5314 5.14031 0.112556
H 13.226 5.65935 0.610655
H 12.9738 4.57076 -0.580179
O -10.8006 -8.85237 10.6635
H -11.6757 -9.16394 11.0336
H -10.1326 -9.59465 10.7174
O 10.6625 7.98522 -8.28319
H 11.5645 7.97491 -8.71489
H 10.3317 8.92712 -8.22471
O 7.1865 -10.5152 -2.8252
H 7.6789 -11.3391 -3.10575
H 7.07747 -10.5143 -1.83115
O -7.04572 1.69912 -9.05854
H -7.10193 0.827136 -9.54486
H -7.96631 2.06595 -8.92446
O 12.7565 -2.66353 8.48454
H 13.1176 -2.02992 9.16875
H 12.6159 -2.1778 7.62179
O -14.0476 1.03164 -3.0533
H -13.3892 1.76392 -3.22749
H -13.563 0.215969 -2.73724
O -7.25346 -14.3934 11.704
H -6.8949 -14.1227 10.8106
H -6.70017 -13.9768 12.4253
O -10.181 -11.9585 2.89959
H -9.34345 -11.7047 3.38339
H -10.8153 -11.1854 2.90319
O -1.94356 -0.733566 4.39875
H -2.40074 -1.45335 4.92117
H -0.976961 -0.964777 4.28806
O 2.65637 -4.83492 10.6349
H 2.64478 -4.29125 11.4741
H 3.20175 -4.36498 9.94078
O -10.4275 -5.39816 -10.1432
H -10.3091 -4.43801 -10.3964
H -10.3672 -5.49062 -9.14926
O -2.68297 2.88849 7.12484
H -2.89576 3.32258 8.00024
H -2.48329 3.59265 6.44344
O 7.87763 12.9245 10.2633
H 8.85163 12.7231 10.3672
H 7.65492 13.7608 10.7643
O 0.370326 -8.54908 0.16053
H 0.214082 -7.84294 0.851169
H 1.04263 -9.20605 0.501718
O -8.19057 1.79366 -12.1439
H -8.12818 2.45439 -11.3958
H -7.32753 1.77938 -12.6488
O -9.96089 -3.54756 -13.8058
H -9.68893 -4.43136 -14.1866
H -9.17179 -2.93341 -13.7923
O 2.20496 -5.69653 3.05685
H 1.74202 -6.00545 3.88768
H 1.75622 -4.87199 2.71219
O 14.6615 -12.6887 -4.16879
H 14.5812 -12.7848 -5.16093
H 13.7492 -12.6131 -3.76624
O -9.12494 -1.55341 -1.4683
H -8.84601 -1.83178 -0.549209
H -9.5436 -0.646094 -1.42911
O -4.38557 0.556266 14.0765
H -4.24851 -0.0468202 14.8623
H -4.09285 1.48291 14.3124
O 7.4942 6.07512 -10.9629
H 7.84204 5.25445 -10.5095
H 6.58799 6.29629 -10.6025
O 5.86809 3.28558 -3.47503
H 6.50968 3.28287 -4.24209
H 5.10142 2.67698 -3.67961
O -2.15409 12.4517 -9.8796
H -2.53922 13.3071 -10.226
H -1.57889 12.643 -9.08427
O -11.0975 10.8784 -7.39953
H -11.2744 9.93974 -7.69552
H -11.5729 11.0511 -6.53688
O 13.6171 -1.04998 10.5664
H 13.3569 -0.106005 10.3634
H 14.6141 -1.12827 10.5664
O 13.0398 0.111016 -14.6848
H 13.4957 0.835123 14.6388
H 12.1747 -0.122023 14.7123
O -1.51645 -7.38764 8.89036
H -1.50998 -6.8916 9.75865
H -1.97303 -6.83424 8.19372
O -9.03629 -7.20985 -5.57379
H -9.32077 -7.9525 -4.96752
H -8.27966 -6.70834 -5.15423
O -0.215561 -10.7774 6.7542
H -0.00737781 -9.79955 6.73275
H -0.0784135 -11.1675 5.84367
O 0.554997 5.84973 -10.9394
H 0.706286 6.77808 -10.5998
H 0.360093 5.24111 -10.1702
O -8.26039 5.21294 -5.70292
H -7.43555 4.76785 -6.05159
H -8.71566 5.70131 -6.4474
O -13.122 14.8843 8.13224
H -13.9249 14.5096 8.59598
H -13.404 -14.2135 7.52572
O -9.25753 7.72411 5.42119
H -9.70787 6.97754 5.91094
H -9.53297 7.7062 4.46002
O -14.7598 -2.69015 4.99216
H -14.1458 -1.94708 5.25844
H 14.2287 -2.30694 4.63715
O 1.86891 8.37112 1.37437
H 1.5627 9.25401 1.73042
H 2.78095 8.47039 0.976424
O -10.2959 -10.797 7.40624
H -9.59567 -10.1319 7.1467
H -11.1932 -10.4684 7.11145
O 14.8526 -8.48735 -3.51854
H -14.7887 -8.98681 -4.36151
H 13.8725 -8.53702 -3.32613
O -6.06687 -7.75355 8.32001
H -6.92612 -8.05521 8.7332
H -5.80984 -6.86386 8.69738
O 3.55599 -0.487492 -11.5083
H 3.88624 -0.128937 -10.6352
H 2.99969 0.2069 -11.9648
O -5.18336 -5.26531 9.11
H -4.26056 -5.02163 9.40845
H -5.83829 -5.03421 9.82951
O 0.32015 -4.0875 -6.36547
H 0.471424 -4.46425 -5.45158
H 1.1593 -3.65008 -6.68878
O 4.34861 2.17265 10.9129
H 4.37545 3.05224 10.4379
H 3.43784 1.77059 10.8186
O 3.0219 7.71663 -12.3608
H 2.64317 8.59698 -12.0752
H 2.52133 6.9768 -11.9112
O -9.64408 1.43327 -0.976974
H -9.82015 1.88097 -1.85367
H -8.87997 1.88708 -0.518482
O -5.36096 -6.87636 -9.29835
H -6.25865 -6.50542 -9.0605
H -5.39747 -7.27598 -10.2143
O -5.82869 -3.67443 -12.2795
H -6.34089 -3.69266 -11.4208
H -5.67778 -4.61043 -12.5975
O 11.3573 7.55574 -5.66415
H 10.9343 8.25262 -5.08499
H 10.9616 7.59956 -6.58148
O -6.44081 -0.938745 -9.96066
H -5.66422 -1.33623 -9.47185
H -7.04589 -1.6699 -10.2758
O -6.76124 4.91991 5.71015
H -6.75738 3.93106 5.85911
H -7.16604 5.12103 4.81813
O 4.1897 -3.39913 3.35437
H 3.707 -3.55403 4.21636
H 3.87074 -2.54554 2.94246
O -14.0489 4.53235 -12.3198
H -14.8347 4.81406 -12.8705
H -13.2939 4.27554 -12.9233
O 9.12131 10.5225 5.2105
H 9.09784 10.9985 6.08964
H 8.40086 9.82936 5.18744
O -7.58902 -7.23786 -13.1776
H -7.31357 -8.11781 -13.5647
H -8.56833 -7.25436 -12.9758
O 2.74619 9.05101 -3.01773
H 2.41937 9.63995 -3.7569
H 2.76974 8.10232 -3.33308
O -12.6456 14.3884 -1.20929
H -11.7338 14.7342 -0.987756
H -12.6741 13.4008 -1.05499
O 9.80906 -14.2623 -1.22895
H 9.63844 14.7035 -1.68137
H 10.7637 -13.9973 -1.36505
O -2.99479 -7.49762 -8.0243
H -3.83 -7.06266 -8.36086
H -2.61322 -8.08409 -8.73879
O -12.9511 13.4076 -13.3284
H -12.4665 12.6726 -13.8027
H -12.841 14.2617 -13.8367
O -4.01347 -12.8752 -11.5276
H -4.05571 -12.3467 -10.6798
H -3.85679 -12.2573 -12.2981
O -10.6694 7.46137 9.46262
H -11.6282 7.28029 9.68143
H -10.544 8.43978 9.29821
O 0.247361 -12.509 -5.7096
H 0.684292 -11.6233 -5.55275
H -0.651711 -12.3684 -6.12424
O -0.35598 -6.29723 11.1526
H 0.508938 -5.93576 10.8044
H -0.883418 -5.55647 11.5687
O -0.542104 -6.48526 -3.92475
H -1.18278 -6.93984 -4.54356
H 0.226536 -7.09569 -3.73347
O -12.4052 3.25817 -2.80356
H -12.7597 3.5315 -1.90932
H -12.8473 3.80119 -3.51751
O 0.982701 3.82256 10.1761
H 0.594147 2.95261 9.87236
H 0.617673 4.5649 9.61418
O 12.2727 6.78955 -2.11936
H 12.9238 7.4573 -1.75862
H 12.0572 6.11766 -1.41073
O -13.1674 14.827 -4.8633
H -14.1018 -14.6818 -4.99147
H -12.9626 14.1334 -5.554
O 8.75882 -12.7069 0.796196
H 7.9693 -12.1073 0.66501
H 9.01534 -13.1166 -0.0792317
O 0.369538 -14.3987 -9.40116
H -0.602353 -14.1764 -9.32346
H 0.814046 -13.7418 -10.0102
O 4.16378 4.49369 -10.7593
H 3.46881 3.85768 -10.4239
H 4.15605 4.49878 -11.7593
O -10.4413 -14.7271 8.49212
H -11.4218 -14.805 8.31121
H -9.96876 -14.4517 7.65495
O 1.1409 6.71103 -3.43097
H 0.348335 6.90917 -2.85425
H 1.50349 5.80803 -3.20042
O -10.3321 -7.98801 4.31961
H -9.72569 -8.33362 3.60349
H -9.8944 -8.10323 5.21133
O 4.08378 -13.7503 -10.6655
H 3.43467 -13.0293 -10.908
H 4.74582 -13.8657 -11.406
O 0.571691 -1.38267 -12.8567
H 1.01096 -1.25817 -13.7464
H 0.193981 -2.30673 -12.7978
O 10.0996 10.7786 -11.8676
H 10.1817 10.6723 -10.8767
H 10.9581 10.5092 -12.304
O 1.26398 2.66335 7.12299
H 1.4432 3.64451 7.05057
H 2.09996 2.15556 6.9149
O -9.60029 4.20092 9.69223
H -9.50964 4.85712 10.4414
H -8.69462 3.98324 9.32837
O -0.219164 -6.09736 -8.28249
H 0.120956 -7.02376 -8.12086
H 0.214648 -5.46611 -7.63956
O -9.10098 3.70085 -14.1528
H -8.34002 3.05345 -14.1098
H -9.40548 3.79494 14.7405
O 2.83772 -1.47665 1.88649
H 3.30106 -0.896313 1.21675
H 1.87184 -1.22243 1.93624
O 4.75367 11.682 12.4646
H 4.1132 12.1772 11.8776
H 5.4436 11.2305 11.8987
O 7.83984 -0.821119 -3.45491
H 6.91384 -0.919379 -3.09036
H 7.80476 -0.805611 -4.45419
O 5.35626 -0.58446 -8.33605
H 5.86961 -1.42317 -8.51788
H 5.99066 0.147146 -8.08642
O -0.983231 1.14896 13.512
H -1.0846 0.902842 14.4759
H -0.72388 2.11202 13.4394
O 7.73167 3.34706 -5.58286
H 8.68789 3.12608 -5.77482
H 7.61469 4.34015 -5.5724
O -11.1281 -9.39653 -0.354407
H -11.9929 -9.79149 -0.664451
H -11.2839 -8.46138 -0.0362043
O 6.71999 -9.87015 2.65306
H 6.41015 -10.4207 3.42829
H 7.49346 -9.30259 2.93526
O 1.96973 2.6812 -9.89653
H 1.18845 3.19956 -9.54879
H 2.42981 2.22186 -9.13668
O 1.71345 6.84676 -7.51577
H 1.60912 7.51621 -8.25128
H 1.1989 7.14991 -6.71367
O 7.16412 6.28415 -5.23862
H 6.87575 6.63802 -6.12837
H 6.74452 6.82787 -4.51176
O 4.41679 -12.162 -14.4928
H 3.72665 -12.8857 -14.4873
H 3.9914 -11.2977 -14.7614
O 2.44523 -13.0875 2.56336
H 2.73557 -13.3985 3.46836
H 2.65472 -13.7924 1.88565
O -7.23057 1.94845 6.37517
H -7.97123 1.28611 6.2622
H -6.5771 1.60583 7.05015
O -1.29288 -14.2481 11.5795
H -1.20381 -14.6619 10.6735
H -0.691705 -14.7219 12.223
O 12.8773 -10.1427 8.18716
H 11.9456 -10.4527 8.37675
H 13.3191 -9.87222 9.04252
O -4.55682 10.4893 -2.2004
H -3.90236 9.74031 -2.09699
H -4.08166 11.3634 -2.09948
O -3.56946 -5.25632 -10.7911
H -3.92499 -5.28602 -11.7253
H -4.23324 -5.67082 -10.1685
O 3.69226 13.3519 6.83425
H 4.58923 12.9338 6.97794
H 3.59358 14.1443 7.43629
O 13.141 -6.01108 -6.51879
H 13.3071 -5.82529 -7.48724
H 14.0108 -6.19384 -6.06047
O -4.82919 9.94066 1.91713
H -3.89108 10.2387 2.09356
H -4.81608 9.04907 1.46445
O -12.8284 -5.50978 -1.65279
H -13.5131 -4.83647 -1.37395
H -12.4871 -5.28023 -2.56431
O -14.1205 1.25225 13.309
H -14.103 0.289209 13.5778
H 14.8387 1.46483 12.8883
O -10.1596 -7.56289 -11.814
H -10.2427 -6.74342 -11.2469
H -10.4985 -8.35516 -11.3065
O 1.22914 -4.95481 0.170863
H 0.737165 -4.56005 0.946847
H 0.744218 -4.73802 -0.676414
O -5.31372 6.2143 -9.15842
H -5.2658 7.11924 -8.73556
H -5.68646 5.55879 -8.50161
O -9.0757 -10.4393 -1.43712
H -8.90226 -11.3091 -0.975044
H -9.88158 -10.0037 -1.03609
O 11.2835 -8.39919 -8.29554
H 11.0689 -8.22396 -7.33467
H 12.2527 -8.62891 -8.3841
O 11.2391 9.34538 13.2049
H 11.2357 8.44656 13.6432
H 12.1531 9.74548 13.272
O 13.8416 6.36558 -5.41523
H 12.8943 6.62606 -5.60181
H 14.3584 6.35233 -6.27123
O 3.42877 -14.2943 4.71845
H 3.18978 -14.3001 5.68947
H 4.17314 14.8995 4.55453
O -9.43648 0.573895 12.8291
H -9.74326 1.50855 13.0089
H -8.47908 0.479033 13.1019
O -13.4366 -1.79015 11.0722
H -13.1996 -1.81307 10.1009
H -12.618 -1.96531 11.6192
O 11.286 -4.87179 -2.99615
H 10.8148 -4.75986 -2.12127
H 10.6163 -5.06513 -3.71316
O 3.71849 -8.58099 6.6796
H 3.94277 -7.9194 5.96404
H 3.8185 -8.14917 7.57601
O -0.837202 -1.05464 7.71219
H -0.47536 -0.307689 8.27002
H -0.0997271 -1.69264 7.49059
O -9.8283 -2.55671 -11.209
H -10.3275 -1.88791 -10.658
H -10.3083 -2.70037 -12.0744
O -14.5318 -4.72881 6.78068
H -14.7352 -4.05371 6.07153
H -14.3529 -4.26 7.64569
O 4.46524 -7.86312 -13.7842
H 4.92731 -7.41757 -13.0174
H 4.64708 -7.35298 -14.6249
O -12.5255 1.75132 -11.1803
H -13.0882 0.927757 -11.252
H -12.3969 2.14736 -12.0895
O 8.76126 10.5552 13.8544
H 8.41042 11.1914 13.1672
H 9.61829 10.1542 13.5306
O -4.76303 -6.61487 -5.44361
H -4.47588 -7.29287 -6.12028
H -5.05205 -5.77931 -5.91087
O -9.58356 12.5879 9.46403
H -10.0165 13.4787 9.32635
H -8.71445 12.7101 9.94333
O -12.1567 13.473 11.174
H -12.813 13.8251 11.8413
H -12.5911 13.4207 10.2748
O 12.957 -5.12859 2.95916
H 12.9112 -4.63845 3.82961
H 13.8248 -5.62212 2.89984
O 9.53259 -12.9419 -13.1044
H 10.2141 -13.5535 -12.7024
H 9.13455 -12.3693 -12.3877
O 13.1429 11.0346 11.7636
H 12.4488 11.6628 12.1152
H 13.6873 10.6801 12.5239
O 1.27074 -0.553038 13.9387
H 0.681998 -0.00287715 13.3465
H 1.95279 0.0366324 14.3713
O 10.2918 -0.550428 9.05216
H 10.0536 0.105042 9.76885
H 11.2681 -0.480164 8.84728
O -12.6336 -5.54047 -12.9645
H -12.7644 -5.90868 -13.885
H -11.7935 -5.91494 -12.572
O -4.89919 10.5696 12.1804
H -4.27174 9.92783 11.7394
H -4.90721 10.4035 13.1665
O -1.24685 1.50559 -10.9008
H -0.625091 0.881271 -10.4279
H -2.12322 1.53107 -10.4198
O 7.03069 8.31108 14.3793
H 6.39709 8.27155 -14.6892
H 7.65202 9.08575 14.4971
O 14.3334 -12.7998 -6.72825
H 13.6225 -12.2882 -7.21074
H -14.7739 -13.0332 -7.3662
O 1.20014 12.1829 8.33156
H 0.611001 11.819 7.61012
H 2.13216 12.2815 7.98276
O -1.7922 -6.81625 14.639
H -1.73355 -7.32643 13.781
H -0.871137 -6.58904 -14.8858
O -11.1839 12.8052 -3.82712
H -12.0884 13.2309 -3.79864
H -10.4822 13.5037 -3.68639
O 9.70818 10.5144 -5.18784
H 10.2222 10.2631 -4.36771
H 9.9026 11.4664 -5.42443
O 3.90087 -8.93021 -9.47659
H 4.14589 -9.61637 -8.79162
H 4.46672 -8.11554 -9.34954
O -14.2002 14.5355 12.8715
H -14.575 14.0042 13.6313
H -13.8743 -14.4232 13.2106
O -7.26169 13.4909 -2.53791
H -7.75889 12.9435 -1.86473
H -6.90171 12.8926 -3.25374
O -14.1865 -13.0434 -8.98554
H -14.224 -12.3765 -9.72972
H -14.0981 -13.9637 -9.3668
O -10.8475 4.73528 -0.00652474
H -11.7421 4.93078 0.395285
H -10.3413 4.115 0.592702
O 5.53051 -10.416 -7.39399
H 4.79998 -10.0949 -6.79128
H 5.67097 -11.3962 -7.25458
O 5.75236 11.7243 7.47632
H 5.88797 10.927 6.88819
H 5.28834 11.4437 8.31653
O -7.04315 2.7401 12.2883
H -6.82951 1.76318 12.2927
H -8.03294 2.86514 12.3569
O -9.6751 5.65576 -2.08388
H -10.3457 5.25629 -1.45874
H -8.7689 5.62949 -1.66183
O 11.9129 -7.47439 13.2099
H 12.6723 -7.27353 13.8288
H 12.0092 -6.93017 12.3765
O 12.4289 1.43138 -12.2561
H 12.9027 1.00029 -13.0241
H 12.5684 2.42098 -12.2915
O -12.6827 -10.1731 5.98591
H -13.0496 -9.3229 6.36358
H -12.5876 -10.0837 4.99445
O -12.6479 -3.35142 -4.688
H -13.4307 -3.40291 -5.3082
H -12.6544 -2.47003 -4.21563
O 4.76417 8.63866 -5.40414
H 5.27305 8.53158 -4.54997
H 3.92409 9.15226 -5.2295
O -9.66632 13.617 -14.1948
H -10.2481 14.4276 -14.1293
H -9.77963 13.1973 14.7458
O 7.44092 -1.11106 -6.1243
H 8.01708 -1.62683 -6.75837
H 6.87961 -0.461439 -6.63708
O 10.4871 -9.80936 -12.8148
H 10.1451 -9.53971 -13.715
H 9.81132 -10.391 -12.362
O 7.9332 -11.295 11.7921
H 8.7788 -10.7618 11.7659
H 7.38377 -11.0102 12.5776
O 6.83268 -13.8444 11.0545
H 6.27788 -13.9977 11.8722
H 7.43412 -13.0593 11.2021
O -11.3249 -5.79204 10.7333
H -10.6755 -5.06417 10.9536
H -10.9336 -6.67629 10.9882
O -10.8368 10.4486 -0.240139
H -9.95572 10.9182 -0.29779
H -11.2267 10.3579 -1.15651
O 11.4099 2.22447 -3.82766
H 11.2312 3.19077 -4.01298
H 12.0151 2.14334 -3.03574
O 14.2922 2.6818 -7.20782
H -14.8813 1.97857 -7.45229
H 13.44 2.51958 -7.70517
O -11.0755 -6.63175 0.242487
H -11.0274 -6.20556 1.14585
H -11.5971 -6.04402 -0.37599
O 7.43118 8.2696 -0.715285
H 8.40979 8.08596 -0.62243
H 7.15876 8.96778 -0.0531963
O -3.34685 -1.70154 12.6877
H -2.59171 -2.06157 13.2355
H -3.81838 -0.98419 13.2006
O 6.28745 -5.85007 -11.4179
H 6.65347 -6.72797 -11.7267
H 5.84375 -5.96786 -10.5295
O 1.96515 -7.84105 -3.27489
H 2.27858 -7.53911 -2.37455
H 2.66359 -7.63042 -3.95888
O 4.72403 -1.40969 -2.58337
H 5.20385 -2.21834 -2.24295
H 4.32257 -0.912023 -1.81448
O 3.39362 9.66849 -9.65032
H 4.00761 9.68091 -8.86108
H 3.77861 10.2323 -10.381
O 14.3242 -8.73632 -7.85452
H 14.6002 -8.88717 -6.90527
H -14.7124 -8.78117 -8.44673
O 12.4862 -10.4164 12.496
H 11.5764 -10.0721 12.7279
H 12.4013 -11.1698 11.8439
O 6.69922 -4.9685 7.97581
H 6.65346 -5.76878 8.5737
H 7.58308 -4.95179 7.50833
O 12.3465 -5.26416 8.18268
H 12.9488 -5.70461 7.51697
H 12.5128 -4.27808 8.18152
O 9.69662 -5.52789 -14.8964
H 9.40455 -5.67227 -13.9509
H 9.89002 -6.41091 14.5171
O 13.9136 4.70949 -14.1302
H 13.0608 4.28128 -13.8311
H 13.8564 4.92008 14.7351
O -8.44621 -12.4363 8.92724
H -9.17234 -13.0992 8.7446
H -8.65738 -11.5749 8.46531
O -5.69363 2.73073 2.20226
H -5.22831 2.60739 3.07878
H -5.47144 3.63226 1.83089
O 8.54098 13.4796 0.70761
H 8.50424 14.0538 1.52554
H 9.31922 13.7537 0.14261
O 14.0378 -6.45473 14.7248
H 14.6866 -7.20144 14.5784
H 14.4304 -5.60037 14.3844
O -8.3451 7.57682 0.335029
H -9.1792 8.08002 0.109005
H -7.65305 7.74638 -0.366649
O 7.83482 -3.71048 -10.9867
H 8.81873 -3.88809 -10.9668
H 7.34745 -4.55744 -11.1992
O 0.653969 -13.7856 -3.37582
H 0.0350726 -13.3906 -4.05473
H 1.4575 -14.1625 -3.83664
O -4.04836 -9.27255 7.47973
H -3.34122 -8.70724 7.05499
H -4.69116 -8.68699 7.97365
O -2.64699 -14.8579 -6.35561
H -2.7477 -14.4073 -5.46859
H -3.44609 14.4078 -6.52976
O 5.92443 -0.42575 -13.3261
H 6.63192 -1.09296 -13.0931
H 5.10332 -0.607899 -12.7852
O -2.02796 -13.5639 -8.78663
H -2.00873 -13.9099 -7.84858
H -2.80643 -12.9462 -8.89817
O 9.98083 0.90334 -13.2045
H 10.819 0.970418 -12.6632
H 9.39475 1.68996 -13.0102
O -7.20553 -14.4755 -12.9798
H -6.95961 14.4394 -12.6941
H -8.12204 -14.2558 -12.6455