2611
Atoms. Timestep: 23000000
O 1.05737 8.2089 -7.22545
H 1.96772 8.42609 -7.57774
H 0.597375 9.05236 -6.94797
O 6.33221 2.74077 -12.0455
H 5.56789 2.56134 -11.4261
H 7.05038 3.23394 -11.5545
O 13.7287 4.27245 0.0371825
H 13.4343 5.2204 -0.0841204
H 14.5841 4.12306 -0.458741
O -12.3959 9.11096 -10.2597
H -11.7249 9.07438 -9.51917
H -12.7467 8.19149 -10.4374
O -3.23532 -6.602 -11.872
H -3.4652 -5.84097 -12.4787
H -2.6962 -7.27781 -12.3747
O 13.1929 10.8501 -11.7794
H 13.4505 10.1002 -12.3888
H 13.9047 11.5523 -11.7955
O 3.48891 0.10662 -13.5101
H 2.74896 0.153242 -14.1812
H 3.3214 0.771837 -12.7825
O 5.25063 1.41904 6.15704
H 5.15904 1.9942 6.96995
H 6.09567 1.65339 5.6764
O 7.45973 -3.46352 14.2361
H 7.01335 -3.40951 -14.6257
H 8.45186 -3.48277 14.3599
O -3.41315 0.75634 5.63998
H -3.43488 0.305217 4.74778
H -3.14639 0.0952909 6.34132
O 8.4672 8.20186 7.76509
H 8.09537 9.09668 7.51802
H 8.46381 8.1027 8.76017
O -0.639938 -4.18454 14.4294
H -0.316496 -4.86086 13.7676
H 0.134873 -3.64737 14.7628
O 1.91624 9.46114 -11.3983
H 0.988485 9.78889 -11.5768
H 2.33758 10.024 -10.6872
O 2.74117 -13.7989 11.9831
H 1.9162 -13.3547 11.6336
H 3.35096 -14.0164 11.2209
O -0.229991 5.38535 7.84233
H -0.542255 4.75827 7.12868
H -0.152208 6.30801 7.46462
O 13.3733 5.84063 -3.03014
H 14.3628 5.69669 -3.02056
H 13.1503 6.58131 -3.66393
O -0.0347146 -6.64855 -12.1072
H -0.5886 -7.10778 -11.4127
H -0.20866 -7.06353 -13.0003
O 0.598595 5.63731 -6.35432
H 0.890964 6.55616 -6.61937
H -0.0888383 5.30674 -7.00098
O -11.9069 -7.22358 -5.79713
H -12.4216 -6.37153 -5.8923
H -12.3226 -7.78609 -5.08243
O 6.44145 -14.0593 -1.34559
H 6.34783 -13.9169 -2.33096
H 6.17725 -13.2251 -0.861612
O -8.58401 5.68432 0.146091
H -7.76774 5.42094 -0.368071
H -8.38827 5.64371 1.12592
O -10.1484 6.2029 -2.02317
H -9.5869 6.69864 -2.68575
H -9.63123 6.07621 -1.17668
O -2.95058 13.1176 -0.278503
H -2.16226 12.7126 0.184688
H -2.72382 13.2845 -1.23804
O -9.01679 0.811773 0.204203
H -9.7942 1.4364 0.278353
H -8.46536 0.865629 1.03669
O 8.07103 -4.40225 -10.5746
H 7.62965 -5.03842 -9.94171
H 8.81303 -3.92487 -10.1038
O -3.24634 14.1948 -8.08593
H -3.01354 14.5892 -7.19697
H -4.23065 14.0231 -8.12694
O 4.2571 -5.59869 9.68177
H 4.08416 -5.38711 8.71982
H 4.90879 -4.93905 10.0562
O 3.51642 14.1035 2.33108
H 4.00575 14.1178 1.45909
H 2.56664 14.3802 2.18486
O -12.6549 -9.81773 -10.6393
H -11.9016 -10.4678 -10.7388
H -12.5449 -9.30811 -9.78591
O -8.30975 6.84124 -9.42214
H -8.82062 6.51219 -10.2163
H -8.10359 6.07258 -8.8166
O -3.94641 -8.48145 5.07373
H -4.85963 -8.82048 5.29977
H -3.93052 -8.17585 4.12169
O -1.39388 -6.81201 -1.93813
H -1.59894 -6.09993 -2.60962
H -1.66516 -7.70257 -2.30328
O 12.325 -14.2246 -3.75122
H 12.0621 -13.3365 -3.37417
H 12.0877 14.8088 -3.10096
O -13.1237 10.0222 -2.57677
H -12.4629 9.72474 -1.88764
H -12.8441 10.9085 -2.94598
O 7.24434 3.25757 -7.97222
H 6.66563 3.59034 -7.22765
H 8.07242 2.84548 -7.59209
O -2.11749 5.86951 12.8475
H -2.48307 6.77983 12.6534
H -1.2337 5.76121 12.3923
O -2.66674 -0.972094 7.73497
H -3.20317 -1.13613 8.56284
H -1.69358 -1.06899 7.94373
O -1.82758 13.6774 -2.62835
H -1.26956 14.4882 -2.45141
H -1.36878 13.0974 -3.30151
O 14.177 -14.1222 1.71276
H 13.397 -14.3717 2.28674
H 14.3802 -13.1502 1.8307
O -5.16975 13.5072 -12.1486
H -5.11885 12.896 -11.3588
H -5.41632 14.4269 -11.843
O -7.45952 1.12533 -11.3143
H -7.7479 0.211814 -11.0273
H -6.53272 1.30178 -10.9827
O -13.1221 -3.91355 -14.8487
H -13.3007 -2.93697 14.7864
H -13.3974 -4.19222 -13.9286
O 2.88574 -6.5607 -11.6704
H 2.01922 -6.10537 -11.875
H 2.71542 -7.35457 -11.0867
O -11.7995 6.43966 0.226405
H -11.4902 6.3967 -0.723615
H -11.1129 6.91173 0.779399
O 13.2746 -4.69593 -1.45838
H 13.9147 -4.14624 -0.9216
H 13.2725 -4.37506 -2.40551
O 8.42341 3.30599 10.1032
H 7.63055 3.9132 10.155
H 8.49698 2.78082 10.951
O 0.120673 4.33037 11.0634
H 0.669631 3.55289 10.7565
H 0.707554 4.98583 11.5387
O -13.5464 11.361 3.52815
H -12.9336 11.7183 4.23302
H -13.5053 11.95 2.72101
O 10.7383 -14.3255 -10.7864
H 10.0978 -13.5595 -10.7316
H 10.7088 -14.8463 -9.93321
O 6.84872 14.0266 -8.67821
H 7.34556 13.1698 -8.81608
H 6.66434 14.4513 -9.56457
O -9.97602 3.88822 -11.5355
H -10.6273 4.2082 -12.2235
H -9.17147 4.48212 -11.5365
O 14.5007 -1.68891 9.59629
H -14.7416 -1.93105 10.42
H 13.5397 -1.54473 9.83221
O -13.6777 -1.98067 -4.38255
H -13.2376 -1.83514 -3.49649
H -13.8882 -1.09639 -4.79943
O 2.6893 5.28761 -8.51451
H 3.10015 4.46959 -8.11193
H 1.78666 5.43986 -8.11193
O -6.98737 5.4819 -12.7109
H -7.19795 6.41867 -12.4314
H -5.99856 5.33733 -12.674
O 8.11914 -0.945372 6.0869
H 8.01149 -1.38435 6.97894
H 8.47705 -1.6089 5.4299
O -9.13911 -7.73759 5.69448
H -9.69834 -8.10591 4.95177
H -9.70261 -7.62825 6.51333
O 1.71045 -1.19968 -6.8514
H 1.07419 -1.41441 -7.5924
H 2.60065 -0.956228 -7.2365
O -10.1196 -8.3316 14.115
H -9.71105 -7.4591 14.383
H -10.537 -8.24042 13.2108
O -4.05196 -1.31502 -1.00196
H -3.1712 -1.73427 -0.781709
H -4.22696 -0.557322 -0.373249
O 2.6205 5.61437 8.15002
H 1.73015 5.19424 8.32548
H 3.20207 4.96862 7.65525
O 4.23166 4.08194 6.21663
H 3.94421 3.68655 5.34424
H 5.17043 4.41729 6.13739
O -2.63893 -12.4736 3.60219
H -2.23485 -12.9231 2.80553
H -2.28237 -11.5422 3.67589
O 12.7065 -4.51795 -8.05758
H 13.7057 -4.47857 -8.04767
H 12.4039 -5.39565 -7.68605
O -7.71028 -6.45987 9.41682
H -7.45828 -6.01451 8.55766
H -8.39445 -5.90593 9.89125
O -8.9328 9.2854 -14.0639
H -8.61543 10.1258 -14.5033
H -9.41735 9.51337 -13.2193
O -7.19548 9.25158 -9.14143
H -7.52699 8.30932 -9.09378
H -7.22961 9.66338 -8.23079
O 10.1854 10.383 5.47874
H 9.81016 9.95241 4.65788
H 9.50869 10.3451 6.21404
O -1.84345 -4.60638 5.95626
H -2.51437 -3.97537 6.34577
H -2.02614 -5.53253 6.28624
O -10.9744 -8.56026 3.44007
H -11.9098 -8.74569 3.13913
H -10.6097 -7.77926 2.93302
O -5.90532 0.508874 -2.73115
H -6.12318 0.709405 -1.77599
H -5.61161 -0.443504 -2.81318
O 5.96858 -2.21681 -8.91012
H 6.25998 -2.92298 -9.55544
H 6.4913 -1.38005 -9.07323
O -12.1982 0.635769 -13.7354
H -12.6576 1.06459 -14.5133
H -11.2256 0.867858 -13.7533
O 11.5536 -10.943 -13.4783
H 12.5392 -11.0187 -13.629
H 11.384 -10.4751 -12.611
O 8.97397 5.13388 -6.07902
H 8.93366 4.16534 -5.83341
H 9.92944 5.42159 -6.14478
O 14.5364 -13.761 8.15156
H 13.7007 -13.2586 7.92977
H 14.4996 -14.6694 7.73493
O 11.1898 6.30075 3.1561
H 10.4214 5.94809 3.69022
H 10.8449 6.74475 2.3291
O 13.0928 -2.94172 11.9276
H 12.5768 -2.22014 11.466
H 12.7709 -3.83485 11.6134
O -14.5052 10.2865 12.0256
H -14.1768 9.40014 11.6993
H -14.8025 10.2023 12.9766
O -13.5309 -3.90336 -1.00941
H -13.422 -3.62562 -0.0549423
H -13.2679 -3.14724 -1.60867
O 7.56523 0.0600441 -8.53614
H 8.53219 -0.176574 -8.63107
H 7.28594 -0.0550648 -7.58285
O -0.185211 -3.42618 -5.69354
H -0.392531 -2.92615 -4.8527
H 0.496027 -2.92037 -6.22278
O 3.20927 -13.695 -6.84416
H 2.94823 -13.5799 -7.80261
H 4.18192 -13.9206 -6.78838
O 0.395765 -5.98448 -8.55212
H -0.353379 -6.57996 -8.26196
H 1.07326 -6.52181 -9.05441
O 7.91862 -5.07231 7.96146
H 8.76221 -5.42432 7.55592
H 7.49771 -5.78323 8.52489
O 7.43954 -6.04135 13.0272
H 6.98728 -5.24812 13.4349
H 8.40454 -5.83089 12.8706
O -11.7475 14.1357 11.2822
H -12.4494 14.0962 11.9934
H -10.9378 14.602 11.6385
O 8.52188 14.5992 -5.19041
H 7.62778 14.7818 -5.59938
H 8.81521 -14.3597 -4.66119
O 14.7695 1.24643 5.84339
H -14.826 2.19718 5.57758
H 14.1048 0.833341 5.22086
O 0.645085 -8.2212 -14.2339
H 1.17848 -7.37569 -14.2588
H 0.370737 -8.46974 14.5922
O 8.69851 1.8664 0.521284
H 9.29284 2.39431 -0.0854328
H 8.05535 2.48218 0.976434
O -13.637 -1.26542 14.7977
H -14.367 -1.33479 -14.2774
H -12.9684 -0.583736 -14.6602
O -12.5106 12.8427 -0.749143
H -12.8475 11.9012 -0.758854
H -12.735 13.2679 0.127679
O 8.27017 -8.61776 13.069
H 8.05615 -7.68181 12.7894
H 7.42065 -9.12758 13.2048
O -1.27946 -10.7758 0.0582799
H -1.67484 -10.2866 0.835702
H -0.349868 -11.0664 0.285119
O -12.3603 9.67563 -13.8103
H -13.0188 9.06734 -13.3671
H -11.8541 9.1678 -14.5074
O 7.3134 10.8986 9.80886
H 8.01185 11.4673 10.2433
H 7.36874 9.968 10.1708
O 2.81662 -11.7933 8.8102
H 2.27106 -12.3523 8.18574
H 3.52156 -12.3606 9.23591
O 0.801704 -2.98092 -8.89651
H 0.578577 -3.95366 -8.95983
H 0.35334 -2.48692 -9.64146
O 1.42398 9.3418 5.52889
H 1.47912 9.46983 4.53865
H 1.05042 10.1676 5.95146
O 10.0099 -6.00066 3.49532
H 10.843 -5.49065 3.28085
H 9.36016 -5.91026 2.74059
O 8.71793 9.67283 12.9711
H 8.90272 10.4127 12.3241
H 7.77948 9.75094 13.3076
O -9.09584 -13.7001 8.58743
H -9.31804 -13.4334 7.6496
H -8.14151 -13.4728 8.78137
O -14.8448 7.7661 8.38401
H 14.3292 6.95956 8.27527
H 14.5153 8.53231 7.87713
O -11.1924 -11.6431 12.4812
H -11.19 -12.4096 11.8391
H -10.8957 -11.9615 13.3815
O -1.01202 -3.88437 -11.5919
H -0.342535 -4.58878 -11.8277
H -1.93461 -4.26264 -11.6678
O -7.37934 4.93873 -5.2621
H -7.99552 5.49409 -4.70359
H -7.24411 4.04936 -4.82535
O 12.0634 8.06299 -10.2508
H 11.1394 8.25953 -9.92253
H 12.337 7.1497 -9.94912
O 1.34313 -2.81522 4.6936
H 0.649631 -3.13037 4.04572
H 1.55373 -3.54897 5.33957
O -2.30953 -0.0829143 -4.9767
H -3.01883 0.621875 -4.96313
H -2.735 -0.982066 -5.07927
O 8.74501 -8.15908 -7.46892
H 9.03406 -8.38315 -6.53818
H 9.40605 -8.52947 -8.1215
O -8.82672 -6.137 -12.2528
H -8.05536 -6.77125 -12.3051
H -9.34295 -6.16871 -13.1087
O -0.769245 6.54202 0.145925
H -1.67438 6.8795 0.404494
H -0.428865 5.92418 0.854751
O -1.93692 12.4847 8.05425
H -2.00379 11.5715 8.45619
H -2.6749 12.6121 7.39153
O 4.40108 -10.0444 3.64587
H 4.25154 -10.9936 3.92272
H 4.79413 -9.53236 4.40967
O -7.60621 13.5736 -1.29975
H -6.9788 13.7543 -0.542311
H -7.31533 12.7483 -1.78384
O 3.99595 9.33197 11.1007
H 3.08883 9.3817 11.5186
H 3.90198 9.16792 10.1187
O 6.70121 3.19637 -4.12568
H 6.30442 3.41048 -3.23309
H 6.64297 4.00013 -4.7178
O 14.1977 -10.5367 -11.3169
H -14.7653 -9.96579 -11.1007
H 13.7634 -10.8394 -10.4686
O -9.17699 -11.6427 -1.16133
H -8.50934 -11.666 -0.417201
H -9.17826 -12.5231 -1.6356
O 4.04867 -4.33969 7.26981
H 4.22333 -4.44766 6.29111
H 3.79184 -3.39213 7.46001
O 4.37703 -2.56592 -13.7387
H 4.32069 -1.57856 -13.5905
H 5.22131 -2.91622 -13.3331
O -10.2724 -5.69759 -1.32604
H -9.48236 -5.77399 -1.93432
H -10.7142 -6.59056 -1.23974
O -12.6116 13.8319 -12.5556
H -11.6186 13.7688 -12.4554
H -13.001 14.2717 -11.7463
O -1.19805 -9.70036 10.4519
H -1.91961 -9.01293 10.5345
H -0.668512 -9.73123 11.2997
O 4.98987 -8.19977 13.5271
H 5.25852 -9.16273 13.5509
H 5.79903 -7.62489 13.6487
O -0.308813 -1.08071 -11.4633
H -0.616181 -1.98862 -11.7484
H -0.484069 -0.423984 -12.1968
O -2.40676 2.18917 -7.83679
H -2.01442 1.88219 -8.70388
H -2.32127 3.18296 -7.76553
O -10.5188 -4.31366 7.83491
H -9.63551 -4.12958 8.2661
H -11.2541 -3.98661 8.42853
O -13.4607 -12.1657 -1.53392
H -13.1625 -13.0871 -1.28446
H -12.6616 -11.5734 -1.63727
O 11.9525 -7.22777 -7.28627
H 12.8007 -7.66066 -7.59152
H 11.1738 -7.66894 -7.73239
O -1.20738 -9.55771 5.63506
H -1.06131 -9.77028 6.60123
H -2.05241 -9.03275 5.53332
O 11.0932 0.631524 1.12678
H 11.598 0.84567 1.96304
H 10.2038 1.08813 1.14817
O 11.4493 -3.32439 -5.38465
H 10.8201 -2.71492 -5.86704
H 11.9579 -3.87211 -6.04901
O -6.26157 -9.58438 5.49622
H -6.03954 -10.4111 4.97932
H -7.0818 -9.74479 6.04533
O -1.7193 5.96362 9.95106
H -1.31663 5.40367 10.6752
H -1.15584 5.899 9.12744
O 10.9895 0.481648 12.1793
H 10.3586 1.22966 11.9732
H 10.9819 0.300491 13.1627
O -9.09211 -13.2336 -5.22676
H -9.69399 -12.4852 -5.50531
H -9.53736 -14.1083 -5.4183
O -9.11735 -3.5336 0.195317
H -9.27273 -4.4038 -0.272256
H -9.03131 -2.80234 -0.481349
O -14.1595 5.41966 -8.20211
H -14.2682 4.67442 -7.54422
H 14.6958 5.77714 -8.45246
O 7.07135 4.04075 6.5739
H 7.55059 3.33678 7.09809
H 7.70316 4.45789 5.92058
O -12.8461 1.59586 3.47276
H -13.2635 2.31152 2.91273
H -13.4445 0.794822 3.49027
O 12.0635 -10.0283 6.75986
H 11.312 -10.3066 7.35793
H 12.7244 -9.49045 7.28332
O -10.012 9.83147 7.67797
H -11.0054 9.89687 7.77215
H -9.72631 8.88238 7.81082
O -8.83045 10.6107 1.12335
H -9.41723 11.3196 1.51469
H -9.02701 9.73471 1.56377
O 4.03858 -8.41012 -2.83361
H 3.08936 -8.16596 -3.03206
H 4.29469 -9.21487 -3.36915
O 14.795 -10.3939 -2.88716
H -14.3098 -9.64415 -3.0099
H -14.5373 -11.1153 -2.33867
O -2.94645 -14.6277 -5.61822
H -1.98079 -14.6347 -5.35844
H -3.50732 -14.8568 -4.82263
O 12.9001 -0.915857 -2.02174
H 12.6113 0.0415221 -2.02592
H 13.6349 -1.04523 -2.68757
O 13.4395 5.49916 -9.95186
H 12.4589 5.53929 -9.75973
H 13.5878 5.0603 -10.8381
O 10.2702 -3.62697 14.7845
H 10.9439 -4.20278 14.3213
H 10.3132 -3.79066 -13.9849
O -6.03233 -14.0293 9.14597
H -5.44008 -13.5894 9.82106
H -5.83484 -13.6596 8.23805
O 10.5027 -10.1347 13.8621
H 10.5813 -10.3374 14.8382
H 9.85537 -9.38423 13.7286
O -0.670548 -6.96052 0.540844
H -0.883461 -7.01673 -0.434618
H -0.867207 -7.83909 0.976101
O -4.72109 1.68654 -10.1495
H -4.70761 2.6862 -10.1724
H -4.56343 1.37247 -9.21323
O -6.99953 -13.0043 -8.77734
H -6.84772 -13.9917 -8.73249
H -7.7765 -12.7598 -8.19719
O 3.08049 -6.10288 14.5615
H 3.72179 -6.11922 -14.4264
H 3.31801 -6.82612 13.913
O -13.8904 -5.33364 -5.65791
H -13.3127 -4.62375 -5.25501
H -14.5358 -5.6678 -4.97101
O 14.3508 12.1917 -6.76083
H 13.4189 12.5472 -6.83288
H 14.6879 11.9531 -7.67158
O 6.06953 -2.63645 -1.0559
H 6.28072 -1.66551 -1.16848
H 6.59623 -3.17095 -1.71689
O 9.05325 12.228 11.44
H 9.07646 12.9904 12.0867
H 9.76033 12.3587 10.7451
O 2.73563 -3.16097 -2.71131
H 3.54901 -2.59065 -2.59657
H 2.91792 -3.86791 -3.3947
O 5.7972 4.69699 -6.2835
H 5.91488 5.33853 -7.04152
H 4.88575 4.81154 -5.88833
O -10.621 -3.28221 14.0729
H -11.4167 -3.50755 14.6352
H -10.424 -2.3049 14.1506
O 3.75899 1.83584 -10.744
H 2.82691 1.86028 -11.1055
H 3.80668 2.38232 -9.90793
O -0.186628 12.283 -0.136288
H -0.392329 11.4272 -0.611029
H 0.624451 12.1602 0.435641
O -9.24019 6.03519 -14.697
H -8.25708 6.11023 -14.8639
H -9.51073 6.69583 -13.9967
O -9.08245 -10.0376 -13.7492
H -9.29485 -9.21339 -14.2742
H -8.28778 -10.4929 -14.1507
O -1.86723 2.82689 12.5044
H -2.40022 2.60447 11.6881
H -1.29424 3.62567 12.321
O -5.12953 -4.07078 -9.89716
H -5.62701 -3.33231 -9.44198
H -5.01021 -3.84571 -10.8642
O 6.73282 0.120687 -0.686563
H 7.43079 0.528588 -0.097944
H 6.38972 0.810544 -1.32406
O -9.36345 -5.65586 14.4621
H -8.56534 -5.79018 13.8747
H -9.61032 -4.68686 14.4725
O 2.65099 -7.6089 -8.83078
H 3.07536 -6.71194 -8.70678
H 3.12692 -8.28366 -8.26668
O -2.97363 -7.83883 -6.53516
H -2.99756 -7.77964 -7.53313
H -2.66573 -6.96588 -6.15677
O 12.369 1.64236 -7.88275
H 12.4085 1.52307 -8.87483
H 11.9003 0.860575 -7.47146
O 4.49494 3.19381 -8.4367
H 5.46298 3.22525 -8.18785
H 3.9701 2.79591 -7.68421
O -9.93494 -10.806 4.86709
H -10.3713 -10.1421 4.25976
H -9.8439 -10.4117 5.78156
O 12.1858 -12.9494 6.93982
H 11.7159 -12.1145 7.22659
H 11.5294 -13.7025 6.89466
O 12.6226 -2.82295 2.73583
H 12.3106 -3.69778 3.10642
H 11.8433 -2.20303 2.64372
O 10.9869 2.0971 3.90171
H 11.6927 2.62978 3.43473
H 10.9437 2.3709 4.86253
O -11.5264 2.66427 -9.68659
H -11.197 1.72095 -9.64549
H -10.9399 3.19573 -10.2979
O -0.690961 2.00968 2.32747
H -0.533144 1.85118 3.30214
H -0.394044 1.20895 1.80719
O -14.1851 -7.44747 -12.3275
H -14.1981 -7.16807 -11.3674
H -13.4741 -8.13721 -12.4643
O -1.79129 14.5653 12.9845
H -0.815001 14.7242 13.1317
H -2.04383 13.6729 13.3585
O 11.976 -5.66198 14.1379
H 12.2612 -6.47529 14.6451
H 12.5711 -4.89461 14.3767
O -2.93989 1.52466 14.7567
H -3.80219 1.92341 -14.6862
H -2.61136 2.02592 13.9562
O -2.12199 -13.2183 -9.38318
H -2.6642 -12.3786 -9.41457
H -2.73333 -14.0096 -9.37163
O -11.0953 -2.29924 1.81705
H -12.001 -2.72322 1.80877
H -10.471 -2.83571 1.24928
O -8.55745 -3.92338 -7.74625
H -8.60869 -3.87437 -8.74374
H -9.14088 -4.66655 -7.41864
O -13.2135 -1.38555 7.82505
H -13.5094 -1.61333 6.89739
H -13.9319 -1.63453 8.47466
O -9.84358 -13.7301 1.21814
H -10.1325 -13.5057 0.287447
H -8.87652 -13.9847 1.21468
O -10.7357 8.99834 11.7066
H -10.4259 9.93001 11.8965
H -10.9637 8.54121 12.5663
O -5.67747 7.7702 -0.808307
H -4.90895 8.17529 -1.30358
H -6.48243 8.35552 -0.905624
O 13.7086 -3.78326 14.5369
H 13.7077 -3.44307 13.5965
H 13.47 -3.03908 -14.5943
O 11.0137 7.09225 7.47951
H 11.6167 7.44551 8.19472
H 10.1129 7.5185 7.56249
O 8.06248 -13.6035 5.46437
H 8.30795 -12.854 4.84954
H 7.27851 -13.3331 6.02318
O -3.11872 7.67498 1.83388
H -2.97293 6.98558 2.54345
H -4.0957 7.74405 1.63198
O 12.2664 8.82357 9.9559
H 12.4211 9.80966 10.0168
H 12.628 8.37823 10.775
O -0.210472 -9.83057 13.1462
H 0.735096 -9.76139 12.8282
H -0.333141 -10.6899 13.6426
O 3.70006 9.09938 -7.95637
H 4.10022 9.30402 -7.06306
H 4.37137 8.61798 -8.51994
O -14.7469 -1.98946 -10.3147
H -13.8373 -1.58 -10.3853
H 14.6971 -1.94902 -9.36519
O -4.3481 10.85 12.3345
H -4.72551 10.8866 11.4092
H -4.0366 11.7613 12.6037
O -0.9075 7.30864 -8.78213
H -1.04639 7.68627 -9.69762
H -0.12802 7.76164 -8.34945
O 3.04579 -9.22792 10.0036
H 3.95031 -9.14569 9.58512
H 2.67064 -10.1347 9.811
O -14.1021 8.08617 -4.36941
H -14.5109 8.66084 -5.07838
H -13.6678 8.6658 -3.6799
O -4.20589 4.54929 -9.71354
H -3.58279 4.8388 -8.98694
H -3.75516 4.65311 -10.6002
O 7.02584 12.9802 -14.7803
H 7.50839 13.4022 14.2072
H 6.0659 12.8433 14.7302
O -7.26352 2.13104 5.76192
H -6.59949 1.39842 5.91138
H -8.05715 1.9873 6.35312
O -9.62972 1.7383 7.34295
H -10.0284 0.886655 7.68322
H -10.2308 2.13347 6.64825
O 1.13518 -5.845 -5.42586
H 0.743395 -4.92785 -5.35266
H 1.11719 -6.13987 -6.38124
O -10.4653 8.56857 -8.45751
H -9.56571 8.42728 -8.87076
H -10.4168 9.32339 -7.80336
O 1.55485 -7.89584 -3.39162
H 1.44798 -7.20544 -4.10713
H 1.10481 -7.58189 -2.55561
O 2.19464 2.62634 10.7777
H 2.4922 1.86295 10.2044
H 2.69939 3.45113 10.5228
O -9.97769 3.35587 -2.43576
H -9.95674 4.2909 -2.78973
H -9.88356 3.3741 -1.44036
O -8.99517 12.8311 -9.11595
H -9.01204 12.4644 -10.0461
H -9.72325 12.4071 -8.57728
O 12.3917 4.24126 -6.65742
H 13.2504 4.3099 -6.14945
H 12.4649 3.51317 -7.33899
O -0.78838 10.2947 -1.70947
H -0.544871 10.7103 -2.58581
H -0.370326 9.38875 -1.64263
O 5.90666 2.57406 -1.1359
H 5.41926 3.10714 -1.82748
H 6.2774 3.18979 -0.440596
O -14.0063 -14.3828 -10.8321
H 14.857 -14.0769 -11.1657
H -13.7594 -13.8617 -10.0151
O -2.01055 -8.70191 -12.9569
H -2.04367 -8.42757 -13.918
H -1.89872 -9.69385 -12.8971
O -7.7447 -5.97241 4.3344
H -7.51833 -6.42965 3.47434
H -8.24338 -6.60498 4.927
O -8.24073 -10.0903 2.23871
H -8.71477 -10.4035 3.06161
H -8.69058 -9.26931 1.88705
O -13.8858 3.69175 2.09278
H -14.322 4.5023 2.48358
H -14.4046 3.38621 1.29438
O -2.49125 -9.23393 2.3005
H -3.49046 -9.26806 2.32176
H -2.17113 -8.48132 2.87593
O 12.6198 3.61611 14.6197
H 11.9323 3.82672 13.9247
H 12.6421 2.62898 14.7781
O 1.16829 -11.2984 0.796781
H 1.42263 -10.6061 1.47202
H 1.69196 -11.1535 -0.04273
O 10.6052 -14.8317 5.71954
H 11.064 -14.7552 4.83429
H 9.67645 -14.4684 5.64613
O 6.40258 -10.8745 -7.94664
H 6.61244 -10.4144 -8.80937
H 5.79533 -11.6495 -8.12134
O -3.45485 9.84429 -1.75497
H -2.49841 10.1362 -1.76071
H -3.92882 10.2705 -0.984461
O 1.90201 7.30253 -13.0863
H 2.08721 6.55676 -12.4464
H 1.90064 8.17241 -12.593
O -5.33015 -13.5791 -11.0275
H -5.73986 -13.1775 -10.2084
H -4.80259 -12.8816 -11.5125
O -2.02827 -3.22907 -1.83696
H -1.39485 -3.69978 -1.22278
H -1.50984 -2.70426 -2.51211
O -0.442251 7.54551 5.91174
H 0.347212 8.1552 5.84069
H -1.23728 8.06479 6.22527
O 7.15032 11.3824 -6.78104
H 6.61576 12.0853 -7.25035
H 7.62151 11.7891 -5.99837
O 13.4522 7.92018 -12.7078
H 13.0483 8.06123 -11.8039
H 12.8384 7.35919 -13.2633
O -11.6386 3.91228 11.4146
H -12.6274 3.79609 11.508
H -11.4255 4.22211 10.4879
O 11.7401 -1.24242 10.0876
H 11.4242 -0.990946 9.17276
H 11.4434 -0.549605 10.7449
O -10.388 8.25891 1.87785
H -9.79417 7.74771 2.49918
H -11.2604 8.4463 2.32934
O 4.05461 -9.58637 -7.21326
H 4.82851 -10.1135 -7.56429
H 4.04909 -9.62751 -6.21411
O -12.5031 8.92669 3.37389
H -11.7971 8.89282 4.08136
H -12.9816 9.80345 3.4222
O -5.69004 14.6687 5.01754
H -6.10667 13.829 5.36578
H -6.01483 14.8411 4.08759
O 5.69143 14.7695 -6.38109
H 6.02384 14.3962 -7.24721
H 5.15729 14.0735 -5.90126
O -7.92607 1.34886 2.71588
H -8.5436 0.977244 3.40912
H -7.02489 1.50361 3.12078
O -11.9766 -13.7561 -3.94031
H -12.9649 -13.9076 -3.92219
H -11.791 -12.7835 -4.07989
O -10.077 0.623842 4.08547
H -10.8119 1.26688 4.30077
H -10.381 -0.308137 4.28291
O 12.0515 -7.24617 -1.58578
H 12.4871 -6.34618 -1.60091
H 11.696 -7.42903 -0.669159
O -14.7605 4.32211 -5.50465
H -14.4064 3.52224 -5.02
H -14.2625 5.13774 -5.21005
O -8.06976 -1.83112 -5.93323
H -8.89353 -1.32088 -6.18037
H -8.04703 -2.69303 -6.43979
O -12.9991 1.54274 13.7157
H -12.7167 0.925975 12.981
H -13.2911 2.4155 13.3245
O -3.73687 -6.3652 2.99085
H -3.86482 -5.41772 2.69771
H -2.76211 -6.54393 3.12474
O -10.9756 4.9433 -5.40204
H -11.5106 5.62122 -5.90624
H -10.7745 4.16644 -5.99879
O -9.96075 14.0501 -4.84602
H -10.2181 13.5956 -5.69879
H -10.7742 14.1805 -4.27919
O 12.4001 -0.13379 -11.8385
H 11.5531 -0.174507 -12.3686
H 12.4453 0.736914 -11.3487
O 5.8822 -7.46188 -7.51619
H 5.27657 -8.24372 -7.36798
H 6.83051 -7.7771 -7.55293
O -6.90229 7.71116 14.5014
H -6.05001 8.22893 14.576
H -7.67269 8.30049 14.7447
O 7.84449 -2.53605 8.50593
H 8.5851 -2.50408 9.17711
H 7.81911 -3.44066 8.08041
O -4.4135 11.2314 -4.19464
H -4.02234 10.9536 -3.31724
H -4.04096 10.6561 -4.92278
O 9.26074 -8.15492 8.50087
H 9.44621 -7.7319 7.61392
H 8.30365 -8.00421 8.74841
O -11.3734 -3.14796 -8.56187
H -10.8124 -3.53698 -9.29262
H -12.3075 -3.49694 -8.63702
O 8.60314 10.6553 3.22245
H 7.95036 11.4129 3.2189
H 9.48232 10.9713 2.86572
O -7.31334 9.1617 5.55536
H -7.79975 8.81324 6.35661
H -6.95054 8.39474 5.02606
O -4.62397 0.64296 0.869795
H -5.55269 0.838301 0.55461
H -4.17855 1.49551 1.14323
O 2.01932 2.26561 -5.93858
H 1.74031 2.60952 -6.83519
H 1.31795 1.64596 -5.58625
O -6.73148 -7.93105 -0.538729
H -6.54204 -8.74219 -1.09207
H -7.0087 -7.17789 -1.13531
O 0.186516 -14.798 -5.18684
H 0.996967 14.3841 -5.06459
H 0.186999 -14.4124 -6.10952
O -1.27973 2.88394 8.34994
H -1.97816 2.60042 9.00708
H -0.863324 3.74048 8.65483
O -13.7173 -13.1114 10.5926
H -12.9839 -13.7889 10.649
H -14.2365 -13.2517 9.74952
O 9.38194 5.4647 5.31418
H 9.91456 5.72172 6.12058
H 9.0649 6.29016 4.84715
O 14.1271 -13.9369 5.26168
H 14.2995 -14.8161 5.70583
H 13.2589 -13.5631 5.5883
O 1.18002 -4.78969 6.38551
H 0.205672 -4.59036 6.28095
H 1.4371 -4.70044 7.34778
O 9.36925 -2.86461 3.97022
H 8.57703 -3.14688 4.51126
H 9.05881 -2.47096 3.10495
O 7.38524 -11.1031 -5.4576
H 7.07759 -11.0772 -6.40876
H 8.34027 -10.8107 -5.40808
O -7.40653 -7.5156 -5.72912
H -6.71615 -8.12726 -6.11548
H -6.95529 -6.78549 -5.21596
O 5.69883 -10.7214 -13.3875
H 6.16824 -11.5538 -13.682
H 4.82942 -10.6389 -13.8746
O 12.3284 11.6329 -9.02863
H 12.3132 11.0438 -9.83657
H 13.0203 12.3449 -9.1483
O 2.0418 -14.513 -9.85151
H 1.8957 -13.8283 -10.5655
H 2.29598 14.371 -10.272
O 0.682664 13.8519 4.66073
H 0.811558 14.8403 4.58006
H 1.17137 13.3905 3.92026
O -6.44715 -2.18278 6.69571
H -6.73238 -2.22851 7.65309
H -6.78847 -1.33667 6.28629
O -4.76358 -12.0163 0.447918
H -3.93358 -11.9091 -0.0994733
H -4.86007 -11.2342 1.06362
O -5.01601 11.409 -9.63747
H -5.57877 10.6892 -9.23096
H -5.43272 12.2999 -9.45685
O 12.372 -11.7663 -2.58075
H 11.894 -10.9088 -2.77121
H 13.3224 -11.5715 -2.33839
O -7.03588 -11.7505 -14.4872
H -6.83114 -10.9781 14.6666
H -7.40633 -12.5052 14.7263
O -12.3598 1.24513 8.71804
H -12.7879 0.34165 8.7413
H -13.0657 1.95021 8.78605
O -4.41841 -8.87929 12.1649
H -5.06295 -8.22091 11.7762
H -3.60186 -8.39797 12.4837
O 9.50106 9.04368 -9.41181
H 8.83707 8.37331 -9.08054
H 9.83405 9.59064 -8.64371
O -11.9275 -8.81316 -13.5927
H -11.1449 -8.76812 -14.2136
H -11.8175 -9.5907 -12.9736
O 10.4221 14.272 1.05265
H 10.2491 13.4108 1.53065
H 11.2028 14.1609 0.437676
O 4.07577 8.90135 14.6916
H 3.98517 9.68594 -14.4501
H 3.27566 8.85149 14.0938
O -3.82747 -11.29 -11.6184
H -3.76318 -11.1749 -10.6271
H -4.30844 -10.5078 -12.0143
O 10.2992 3.49317 -11.6954
H 9.46638 3.47366 -11.1422
H 10.0567 3.44781 -12.6645
O 3.02941 11.0941 -9.65747
H 2.5925 11.6824 -8.97697
H 3.5866 10.4051 -9.19394
O 1.35933 2.46616 -12.3499
H 1.26592 2.87095 -13.2595
H 0.462846 2.16386 -12.0259
O -7.9138 -2.18154 2.18815
H -8.34237 -2.79379 1.52369
H -8.43968 -1.33302 2.24713
O -8.09183 -2.26599 -12.9793
H -9.00175 -2.66342 -13.098
H -8.03052 -1.41291 -13.4975
O -3.63041 13.1813 2.70309
H -4.60093 12.9544 2.62169
H -3.10382 12.3444 2.85249
O 5.89434 -5.28732 -9.29175
H 5.96768 -6.1115 -8.73017
H 4.93113 -5.09987 -9.48438
O 12.4384 7.60837 -4.9392
H 11.8106 7.32439 -5.66387
H 12.9337 8.42725 -5.22927
O -8.47447 -2.48962 8.84115
H -8.03394 -2.06918 9.63436
H -9.01259 -1.80116 8.35488
O -11.8972 -4.09273 -4.71574
H -12.2858 -3.17921 -4.83613
H -10.911 -4.05943 -4.87776
O 10.533 -0.670576 -14.39
H 9.66127 -0.506856 -13.9282
H 10.6066 -1.63864 -14.6297
O 4.63475 4.35007 -2.70236
H 4.1579 4.668 -3.52185
H 4.25684 4.8084 -1.89791
O 10.1166 -10.8891 8.19266
H 9.72506 -10.1206 8.69876
H 10.1013 -11.7082 8.76604
O -0.433132 14.1874 -11.7859
H -0.867237 13.5761 -11.1241
H -0.884797 -14.6758 -11.762
O 0.576176 -11.9414 10.514
H 0.0111395 -11.254 10.0577
H 1.49124 -11.9418 10.1107
O -1.45244 14.6719 2.12499
H -2.3287 14.269 2.38926
H -1.25959 14.4525 1.1686
O 2.71067 -14.2547 -2.17411
H 2.50607 -13.5206 -2.82162
H 1.85976 -14.5871 -1.76732
O -7.13103 -5.82945 -9.7252
H -6.20747 -5.44766 -9.76103
H -7.43432 -6.05569 -10.6509
O -3.29857 4.79325 -12.2237
H -3.96143 5.31037 -12.7652
H -2.51641 4.5504 -12.7975
O -9.16024 4.93388 6.84105
H -9.19352 3.94106 6.72611
H -9.65838 5.37288 6.09328
O -8.2096 7.72115 -3.52687
H -8.10105 8.48702 -2.89308
H -8.88188 7.96086 -4.2273
O -10.1784 6.94488 -12.0862
H -10.899 6.28702 -11.8674
H -10.4451 7.85203 -11.7607
O 13.481 11.5723 10.2967
H 14.1297 11.1251 10.9125
H 13.1008 12.3819 10.744
O -10.9015 6.0658 5.13235
H -11.8374 6.12383 5.47995
H -10.5512 6.98697 4.9629
O 10.6406 12.5867 9.27147
H 11.4152 11.9616 9.17463
H 10.9427 13.5224 9.08904
O 5.32452 9.98379 1.76237
H 4.5159 10.5716 1.73596
H 5.49933 9.69956 2.70507
O 14.5151 -9.67336 8.57408
H -14.8074 -8.836 8.9084
H -14.7711 -9.98342 7.74702
O -13.6402 14.1225 13.2548
H -14.2209 14.8646 13.5895
H -13.7956 13.303 13.8065
O 14.1342 13.5927 6.95649
H 13.3051 13.2288 6.53188
H 14.6546 12.8439 7.3669
O 9.077 -13.3525 -7.53059
H 9.91781 -13.2492 -6.99921
H 8.95469 -14.3138 -7.77739
O 3.58605 5.60913 -0.547908
H 2.71943 5.22013 -0.235375
H 3.94304 6.23083 0.149278
O 4.46368 -1.31232 5.84212
H 4.41436 -1.68401 4.91506
H 4.75159 -0.355465 5.80271
O 9.02612 11.0611 -1.57867
H 9.94015 11.2211 -1.20589
H 8.33946 11.3897 -0.930186
O -2.24702 -11.9896 -4.04019
H -2.53193 -12.8034 -4.54669
H -2.72709 -11.1889 -4.39858
O -1.06885 -10.9937 7.88903
H -1.71556 -11.7559 7.91649
H -1.17033 -10.4405 8.71591
O 2.798 -6.17836 4.75915
H 2.16305 -5.6652 5.33665
H 2.36271 -6.37875 3.88143
O 8.78427 -13.7486 2.02061
H 9.39799 -14.4281 1.61866
H 9.18029 -12.8367 1.91283
O -13.3337 6.63055 -10.7519
H -13.5088 5.7707 -10.2723
H -13.7329 6.58857 -11.6678
O -10.937 -3.30191 10.7495
H -10.6032 -2.51352 10.2328
H -11.6069 -2.99725 11.4267
O -12.4592 -1.48156 -2.05729
H -12.7902 -1.25208 -1.14197
H -11.5091 -1.1846 -2.15233
O -8.45471 7.26444 3.42753
H -7.60593 7.76211 3.24888
H -8.2422 6.31455 3.65681
O -6.9371 -13.2603 12.8195
H -7.08758 -12.4634 12.2345
H -6.0005 -13.5896 12.6997
O 0.22054 -14.8387 -0.94468
H 0.668099 -14.6466 -0.0712781
H -0.128689 13.9793 -0.941327
O 8.74278 12.2331 -10.1813
H 8.87687 12.2822 -11.1711
H 8.41687 11.3206 -9.93397
O 14.11 -3.99716 7.98802
H 14.3678 -3.22354 8.56691
H 14.1746 -4.84425 8.51555
O -6.21485 -3.71721 3.89791
H -6.81056 -3.10979 3.37238
H -6.7244 -4.5355 4.16396
O 9.70647 -3.17332 10.4
H 9.81608 -4.15527 10.5542
H 10.5905 -2.71834 10.5073
O 8.4631 7.02808 -13.4026
H 8.56456 7.9703 -13.0833
H 7.54081 6.70285 -13.1938
O 2.55088 4.82979 -11.9361
H 2.75988 5.12793 -11.0047
H 2.22403 3.88487 -11.9181
O -12.5132 -5.08491 -11.9117
H -12.265 -5.03711 -10.9441
H -12.71 -6.03368 -12.1588
O -6.93884 -14.7928 2.55872
H -6.94855 -13.7929 2.56522
H -6.33455 14.6395 1.83023
O 5.35891 -5.78475 1.91992
H 5.25074 -6.33359 1.09101
H 5.25761 -4.81593 1.69378
O 0.163348 -1.87081 -3.3626
H 1.08835 -2.13403 -3.08855
H 0.181293 -0.952025 -3.75696
O -12.536 13.1516 -3.68278
H -12.241 13.3808 -2.75517
H -13.2464 13.792 -3.97451
O 6.00012 9.31421 4.63478
H 5.39963 8.54598 4.41286
H 5.94257 9.51029 5.61369
O -5.32657 10.313 -12.4171
H -5.19857 10.8376 -11.5755
H -5.93889 9.54251 -12.2398
O -8.76667 -8.94971 9.37463
H -8.46126 -8.01552 9.19017
H -9.26899 -9.29852 8.58342
O 2.12571 -10.8502 -1.98957
H 2.30026 -10.2739 -2.78797
H 1.29618 -11.3876 -2.14138
O -5.23191 7.04019 -4.66015
H -6.14756 7.32302 -4.37446
H -4.5503 7.62752 -4.22372
O 14.5772 8.28392 -8.73187
H 13.692 8.28342 -9.19695
H -14.5327 7.7155 -9.24251
O 7.09695 -0.313292 -5.52672
H 6.10295 -0.225566 -5.46117
H 7.50009 -0.225659 -4.61578
O -3.91794 -0.549827 3.30349
H -3.25276 -1.28566 3.17655
H -4.23462 -0.229118 2.41082
O 4.74164 0.320824 11.8137
H 4.55032 0.396238 10.8351
H 4.88582 -0.639591 12.0521
O 12.2172 13.0443 12.8479
H 11.9527 13.441 13.7269
H 12.8871 12.3173 12.9983
O -2.18081 11.7669 -7.42422
H -2.79002 12.539 -7.60542
H -2.72193 10.9322 -7.3218
O -10.56 -12.6744 -14.7909
H -10.0238 -13.5166 -14.7334
H -10.1221 -11.9623 -14.2421
O 11.3191 9.91072 -0.337254
H 11.0052 9.37363 -1.12018
H 12.3169 9.87015 -0.283831
O -0.255752 1.17108 4.93465
H -1.08462 0.770099 5.32479
H 0.547388 0.713877 5.31668
O 3.45311 -4.86368 -4.40346
H 2.66073 -5.36756 -4.74736
H 4.02205 -4.57206 -5.17241
O -8.9078 -13.8297 -2.39405
H -8.60248 -14.7191 -2.0539
H -9.32374 -13.9428 -3.29638
O -8.67392 12.2504 -11.7274
H -7.8093 11.9592 -12.1368
H -9.36857 11.5475 -11.8801
O 1.34231 -13.336 4.34755
H 0.801293 -12.6282 3.89328
H 2.30161 -13.0551 4.37654
O -10.0686 11.9272 -1.69009
H -10.8138 12.4712 -1.30438
H -9.19146 12.3177 -1.41055
O -7.87708 -13.0232 -12.2141
H -7.3349 -13.5129 -11.5313
H -7.27215 -12.466 -12.783
O -1.09446 14.6054 9.69414
H -1.6496 13.9071 9.24229